# Selection   : all
# Cells       : 440
# Volume      : 7.374263e+01
# Time        	min(p)
2.5           	-1.876230e+00
2.55          	-1.869245e+00
2.6           	-1.861814e+00
