/*--------------------------------*- C++ -*----------------------------------*\
  =========                 |
  \\      /  F ield         | OpenFOAM: The Open Source CFD Toolbox
   \\    /   O peration     | Website:  https://openfoam.org
    \\  /    A nd           | Version:  13
     \\/     M anipulation  |
\*---------------------------------------------------------------------------*/
FoamFile
{
    format      ascii;
    class       volScalarField;
    location    "60.8";
    object      p;
}
// * * * * * * * * * * * * * * * * * * * * * * * * * * * * * * * * * * * * * //

dimensions      [0 2 -2 0 0 0 0];

internalField   nonuniform List<scalar> 
440
(
-1.3019
-1.28696
-1.28264
-1.27941
-1.30081
-1.34261
-1.3217
-1.29637
-1.26584
-1.22941
-1.46962
-1.42843
-1.36864
-1.28798
-1.1947
-1.5878
-1.52875
-1.41001
-1.26627
-1.12118
-1.65128
-1.56812
-1.38504
-1.19563
-1.02332
-0.674472
-0.667945
-0.657258
-0.648568
-0.638082
-0.877853
-0.886046
-0.903174
-0.928861
-0.95521
-1.12854
-1.15229
-1.19775
-1.273
-1.40228
-1.25519
-1.26857
-1.29643
-1.34092
-1.40285
-1.27553
-1.27314
-1.27513
-1.27994
-1.28409
-0.520989
0.20858
-0.853217
-0.888713
-0.173692
-0.750887
0.57829
-0.965592
-0.951208
-0.175856
-1.11387
0.441628
-1.07684
-0.810291
-0.167718
-1.25789
0.358432
-1.02429
-0.709683
-0.154491
-1.14794
0.483082
-0.581607
-0.682293
-0.139262
-0.741025
0.771985
0.148813
-0.659613
-0.129185
-0.321236
0.348182
0.189262
-0.437555
-0.120226
-0.203765
0.468996
0.374517
-0.158575
-0.112104
-0.10724
0.441305
0.415175
-0.00997486
-0.107874
-0.0839704
0.467124
0.51204
0.139557
-0.0943877
-0.732149
-0.847653
-0.99455
-1.12791
-1.26147
-0.431134
-0.545703
-0.61406
-0.648602
-0.638931
-0.23179
-0.329781
-0.376551
-0.397453
-0.3904
-0.114667
-0.201522
-0.250091
-0.265279
-0.253623
-0.0617868
-0.147008
-0.194279
-0.208796
-0.189462
0.675378
0.522056
0.329006
0.10868
-0.140894
0.231294
0.0643137
-0.139868
-0.374003
-0.645959
-0.199895
-0.375944
-0.597521
-0.843948
-1.1013
-0.579186
-0.763054
-0.990373
-1.23433
-1.43734
-0.844317
-1.03352
-1.2508
-1.47758
-1.61449
1.94072
1.96969
1.99684
2.01034
2.0064
1.73188
1.74907
1.75976
1.75303
1.72453
1.48755
1.47579
1.44081
1.38182
1.29499
1.20977
1.17197
1.09844
0.992368
0.853396
0.949011
0.844526
0.707358
0.54497
0.345714
1.71907
1.70359
1.69627
1.74892
1.83767
1.70752
1.68965
1.67401
1.71701
1.7392
1.69699
1.67309
1.64935
1.67325
1.61343
1.68767
1.65451
1.62198
1.61999
1.43502
1.67958
1.63449
1.59308
1.56138
1.2456
1.67222
1.60555
1.55593
1.45962
1.03412
1.66608
1.5673
1.52441
1.3693
1.07555
1.67293
1.54353
1.49377
1.31701
1.03476
1.66229
1.52088
1.47462
1.28144
0.987067
1.70169
1.51555
1.46717
1.26373
0.962555
0.65204
0.326126
-0.0285644
-0.343541
-0.548615
0.571872
0.352805
0.111937
-0.106173
-0.288478
0.575717
0.405072
0.221474
0.0507175
-0.110317
0.60516
0.458099
0.301629
0.148727
0.00129696
0.621217
0.486265
0.341004
0.193017
0.0509035
-0.925396
-0.802741
-0.65051
-0.525952
-0.451981
-0.956454
-0.901137
-0.786781
-0.693191
-0.636168
-0.860528
-0.814783
-0.750277
-0.694245
-0.655417
-0.703305
-0.665436
-0.627638
-0.597712
-0.576211
-0.585742
-0.566103
-0.541205
-0.531019
-0.553087
-0.525103
-0.519296
-0.495003
-0.507478
-0.483748
-0.505228
-0.501401
-0.488738
-0.484958
-0.471626
-0.516378
-0.510883
-0.497846
-0.477669
-0.46063
-0.546682
-0.537546
-0.524522
-0.507073
-0.485749
-0.582315
-0.572595
-0.55846
-0.540833
-0.521267
-0.528183
-0.240981
-0.133343
-0.54494
-0.00902651
-0.482142
-0.234535
-0.232587
-0.537638
-0.0659105
-0.343383
-0.232486
-0.360993
-0.560718
-0.116383
-0.39297
-0.234822
-0.525078
-0.61174
-0.15013
-0.476219
-0.155873
-0.7004
-0.708515
-0.16569
-0.00915646
-0.358845
-0.109544
-0.51737
0.0834352
-0.425636
-0.342229
-0.04945
-0.527712
0.0469478
-0.410892
-0.620783
-0.606711
-0.574322
-0.333112
-0.428233
-0.614045
-0.629567
-0.568959
-0.571094
1.75332
1.7344
1.69938
1.64965
1.58422
1.90224
1.92432
1.93176
1.9233
1.90009
2.02545
2.05893
2.08412
2.09736
2.09733
2.0832
2.12226
2.16326
2.19699
2.21304
2.05661
2.09281
2.13246
2.16506
2.17955
-0.0646354
-0.1605
-0.311176
-0.493449
-0.696567
0.45726
0.333606
0.168101
-0.0311149
-0.276355
0.925466
0.796538
0.642431
0.461003
0.238448
1.29486
1.19685
1.07705
0.931345
0.757407
1.5874
1.52064
1.43208
1.32546
1.20142
1.78889
1.74642
1.75074
1.77942
1.83253
1.77249
1.74115
1.74532
1.78724
1.87078
1.75806
1.7343
1.73987
1.79524
1.92434
1.74431
1.72599
1.72923
1.79019
1.91916
1.73128
1.71595
1.71433
1.77481
1.89569
1.84661
1.75607
1.74593
1.71916
1.73435
1.80032
1.74553
1.73837
1.7359
1.73939
1.48635
1.31222
0.98777
0.500833
-0.0357618
1.55683
1.33666
0.998509
0.517583
-0.0283666
)
;

boundaryField
{
    left
    {
        type            zeroGradient;
    }
    right
    {
        type            fixedValue;
        value           uniform 0;
    }
    down
    {
        type            zeroGradient;
    }
    up
    {
        type            zeroGradient;
    }
    cylinder
    {
        type            zeroGradient;
    }
    defaultFaces
    {
        type            empty;
    }
}


// ************************************************************************* //
