/*--------------------------------*- C++ -*----------------------------------*\
  =========                 |
  \\      /  F ield         | OpenFOAM: The Open Source CFD Toolbox
   \\    /   O peration     | Website:  https://openfoam.org
    \\  /    A nd           | Version:  13
     \\/     M anipulation  |
\*---------------------------------------------------------------------------*/
FoamFile
{
    format      ascii;
    class       surfaceScalarField;
    location    "0.1";
    object      phi;
}
// * * * * * * * * * * * * * * * * * * * * * * * * * * * * * * * * * * * * * //

dimensions      [0 3 -1 0 0 0 0];

internalField   nonuniform List<scalar> 
3485
(
0.00478471
-0.0607901
0.0560054
0.0137613
-0.126163
0.117186
0.0236026
-0.143811
0.13397
0.0333307
-0.144458
0.134729
0.0427711
-0.141073
0.131633
0.0519133
-0.137154
0.128012
0.0607562
-0.133417
0.124574
0.0692739
-0.129948
0.12143
0.0773759
-0.12666
0.118558
-0.123214
0.115551
0.0850387
0.00463745
-0.0654276
0.0130817
-0.134607
0.0222295
-0.152959
0.0312416
-0.15347
0.0399971
-0.149829
0.0485118
-0.145669
0.0568145
-0.141719
0.0649363
-0.13807
0.0729394
-0.134663
-0.131377
0.0811024
0.00446628
-0.0698938
0.0123185
-0.142459
0.0207021
-0.161343
0.0289234
-0.161691
0.0369096
-0.157815
0.0446886
-0.153448
0.0522903
-0.149321
0.0597406
-0.14552
0.0670679
-0.141991
-0.138633
0.0743232
0.00425973
-0.0741536
0.0114462
-0.149645
0.0189833
-0.16888
0.0263332
-0.169041
0.0334701
-0.164952
0.0404333
-0.160411
0.0472538
-0.156142
0.053955
-0.152221
0.0605618
-0.148597
-0.145239
0.0671678
0.0040055
-0.0781591
0.0104414
-0.156081
0.0170424
-0.175481
0.0234343
-0.175433
0.0296337
-0.171151
0.0356889
-0.166466
0.0416299
-0.162083
0.0474777
-0.158069
0.053258
-0.154378
-0.151012
0.0590317
0.00369246
-0.0818515
0.00928537
-0.161674
0.0148602
-0.181056
0.0202107
-0.180783
0.0253885
-0.176329
0.0304502
-0.171528
0.0354243
-0.167057
0.0403294
-0.162974
0.0451877
-0.159236
-0.155864
0.0500391
0.00331278
-0.0851643
0.00796903
-0.16633
0.0124388
-0.185526
0.0166745
-0.185019
0.0207563
-0.180411
0.024749
-0.175521
0.0286793
-0.170987
0.0325628
-0.166858
0.0364179
-0.163091
-0.159711
0.0402649
0.00286107
-0.0880254
0.00649559
-0.169965
0.00980063
-0.188831
0.0128552
-0.188073
0.015777
-0.183332
0.0186369
-0.178381
0.021458
-0.173808
0.0242519
-0.169651
0.027032
-0.165871
-0.16248
0.0298013
0.00234315
-0.0903685
0.00489302
-0.172515
0.00697564
-0.190913
0.0087981
-0.189896
0.0105131
-0.185047
0.012191
-0.180058
0.0138514
-0.175469
0.0155021
-0.171302
0.0171518
-0.167521
-0.164118
0.0187903
0.00177302
-0.0921416
0.00318486
-0.173927
0.00397964
-0.191708
0.00457821
-0.190494
0.00504358
-0.185513
0.00550302
-0.180518
0.00596782
-0.175933
0.0064364
-0.171771
0.00690866
-0.167993
0.00737165
-0.164581
0.00517992
-0.00991032
0.00473039
0.0166303
-0.0211515
0.00970113
0.0299465
-0.024413
0.0110967
0.043413
-0.0246543
0.0111879
0.0565758
-0.0241124
0.0109496
0.0693545
-0.0234387
0.01066
0.0817559
-0.0227828
0.0103814
0.0938026
-0.0221705
0.0101237
0.105516
-0.0215985
0.00988555
-0.0211772
0.117022
0.00967105
0.00517646
-0.0150868
0.0165629
-0.0325379
0.029784
-0.0376341
0.0431483
-0.0380186
0.0562128
-0.0371769
0.0689008
-0.0361267
0.0812206
-0.0351026
0.0931955
-0.0341454
0.104848
-0.033251
-0.0326315
0.116302
0.00517621
-0.020263
0.0164773
-0.0438389
0.0295681
-0.050725
0.0427911
-0.0512416
0.0557181
-0.0501039
0.0682779
-0.0486865
0.0804805
-0.0473052
0.0923502
-0.0460151
0.103912
-0.0448131
-0.0440046
0.115285
0.00517777
-0.0254408
0.0163653
-0.0550265
0.0292818
-0.0636415
0.0423146
-0.0642744
0.0550555
-0.0628448
0.0674401
-0.061071
0.0794808
-0.0593459
0.0912028
-0.0577371
0.102635
-0.0562456
-0.0552572
0.113888
0.00517809
-0.0306188
0.0162161
-0.0660644
0.0289044
-0.0763298
0.0416885
-0.0770585
0.0541845
-0.0753408
0.0663364
-0.073223
0.0781592
-0.0711687
0.0896792
-0.0692571
0.10093
-0.0674965
-0.0663343
0.112007
0.0051719
-0.0357908
0.0160156
-0.0769081
0.0284131
-0.0887274
0.0408807
-0.089526
0.0530638
-0.0875239
0.0649156
-0.0850747
0.0764531
-0.0827062
0.0877034
-0.0805074
0.098704
-0.078497
-0.0771583
0.109528
0.0051514
-0.0409421
0.0157476
-0.0875043
0.0277847
-0.100764
0.0398622
-0.101604
0.0516586
-0.0993204
0.0631367
-0.0965529
0.0743152
-0.0938847
0.08522
-0.0914121
0.0958885
-0.0891656
-0.087625
0.106355
0.00510755
-0.0460497
0.0153962
-0.097793
0.0270002
-0.112368
0.0386126
-0.113216
0.0499485
-0.110656
0.0609813
-0.107586
0.0717316
-0.104635
0.0822239
-0.101904
0.0924885
-0.0994302
-0.0976158
0.102479
0.00503289
-0.0510826
0.0149498
-0.10771
0.026046
-0.123465
0.037118
-0.124288
0.0479214
-0.12146
0.058443
-0.118107
0.068709
-0.114901
0.0787461
-0.111942
0.0885671
-0.109251
-0.106979
0.0979299
0.00492281
0.0143988
0.0249044
0.0353459
0.0455189
0.0554235
0.0650965
0.0745851
0.0838921
0.092465
0.161036
-0.12239
0.0783759
0.183806
-0.0889708
0.0662005
0.194973
-0.0661229
0.0549566
0.200217
-0.049835
0.0445911
0.202354
-0.0373917
0.0352548
0.20276
-0.0274729
0.0270661
0.202154
-0.0193828
0.0199892
0.20092
-0.0126324
0.0138667
0.19927
-0.00687028
0.00852037
-0.00103202
0.00302536
0.159938
-0.166026
0.18278
-0.111814
0.1942
-0.0775425
0.199693
-0.055328
0.202034
-0.0397329
0.202608
-0.0280473
0.202146
-0.0189207
0.201044
-0.0115301
0.199521
-0.00534693
0.000834526
0.158071
-0.208811
0.180853
-0.134596
0.192572
-0.0892612
0.198416
-0.0611723
0.20108
-0.0423966
0.201947
-0.0289145
0.201758
-0.0187317
0.200919
-0.0106909
0.199655
-0.00408315
0.0024399
0.155393
-0.250316
0.17801
-0.157212
0.190086
-0.101337
0.196388
-0.067474
0.199494
-0.0455028
0.200779
-0.0301992
0.20099
-0.0189433
0.200544
-0.0102446
0.199671
-0.00321046
0.00365057
0.151832
-0.290141
0.174237
-0.179618
0.186745
-0.113845
0.193614
-0.0743431
0.197283
-0.0491719
0.199109
-0.0320252
0.199847
-0.0196812
0.199921
-0.0103184
0.199568
-0.00285831
0.00433467
0.147205
-0.327818
0.169516
-0.201928
0.182553
-0.126882
0.190105
-0.0818945
0.194458
-0.0535254
0.196947
-0.0345142
0.198334
-0.0210679
0.199052
-0.0110367
0.199347
-0.00315316
0.00436285
0.141085
-0.362548
0.163797
-0.22464
0.177515
-0.140599
0.185873
-0.0902528
0.191033
-0.0586851
0.194305
-0.0377859
0.196459
-0.0232226
0.197942
-0.0125198
0.199007
-0.00421774
0.00360912
0.134324
-0.394393
0.15706
-0.247376
0.171626
-0.155166
0.180934
-0.0995614
0.187024
-0.0647748
0.191196
-0.0419577
0.194234
-0.0262607
0.196598
-0.0148834
0.19855
-0.00617017
0.0019518
0.126597
-0.42306
0.149098
-0.269877
0.164785
-0.170853
0.175259
-0.110034
0.182432
-0.0719485
0.18763
-0.0471558
0.191667
-0.0302977
0.195024
-0.0182399
0.197978
-0.00912399
-0.000725936
0.117346
-0.447941
0.1405
-0.293031
0.157281
-0.187635
0.168965
-0.121718
0.177316
-0.0802998
0.183642
-0.0534811
0.188779
-0.0354352
0.193231
-0.0226923
0.197293
-0.0131852
-0.0045357
0.354325
-0.397832
-0.404433
0.32898
-0.267686
0.318488
-0.177143
0.313907
-0.117137
0.311515
-0.0779076
0.310011
-0.0519766
0.308965
-0.0343897
0.308243
-0.0219699
0.307792
-0.0127348
-0.00436862
0.368461
-0.341933
-0.42436
0.340609
-0.239834
0.326772
-0.163306
0.31948
-0.109846
0.315231
-0.0736586
0.312534
-0.0492793
0.310744
-0.0325997
0.309571
-0.0207972
0.308872
-0.0120359
-0.00412161
0.381603
-0.287443
-0.436093
0.351273
-0.209505
0.334388
-0.14642
0.324663
-0.10012
0.318729
-0.0677246
0.314927
-0.0454773
0.312435
-0.0301078
0.310833
-0.0191955
0.309895
-0.0110981
-0.00379619
0.391143
-0.236073
-0.442513
0.359873
-0.178235
0.34093
-0.127477
0.329284
-0.0884743
0.321914
-0.0603551
0.317129
-0.0406927
0.313998
-0.0269759
0.311999
-0.0171972
0.310838
-0.00993737
-0.00339674
0.398101
-0.188502
-0.445672
0.366729
-0.146863
0.34641
-0.107158
0.333281
-0.0753454
0.324724
-0.0517978
0.319094
-0.0350622
0.315398
-0.0232799
0.313045
-0.0148445
0.311683
-0.00857564
-0.00292996
0.403072
-0.144708
-0.446866
0.372057
-0.115849
0.35086
-0.0859603
0.33662
-0.061105
0.327112
-0.0422899
0.320779
-0.0287298
0.316605
-0.0191056
0.313948
-0.0121875
0.312412
-0.00703983
-0.00240436
0.406511
-0.104225
-0.446994
0.376052
-0.0853895
0.354323
-0.0642322
0.33928
-0.0460618
0.329043
-0.0320529
0.322155
-0.0218415
0.317595
-0.0145452
0.314689
-0.00928223
0.31301
-0.00536077
-0.00182995
0.408738
-0.0663161
-0.446647
0.378852
-0.0555038
0.356832
-0.0422117
0.341244
-0.0304739
0.330484
-0.0212934
0.323187
-0.0145438
0.318337
-0.00969615
0.315245
-0.00618961
0.313457
-0.00357259
-0.00121801
0.409079
-0.0297409
-0.445654
0.379754
-0.0261795
0.357689
-0.0201459
0.341838
-0.0146228
0.330792
-0.0102483
0.323261
-0.00701201
0.318243
-0.00467886
0.315042
-0.00298785
0.313191
-0.00172161
-0.000584268
0.375833
-0.405574
0.349653
0.329507
0.314885
0.304636
0.297624
0.292945
0.289958
0.288236
0.436608
0.00717861
-0.436415
0.436125
0.0192733
0.434937
0.0309897
0.432995
0.0422066
0.430238
0.0527962
0.426627
0.0626421
0.421894
0.0719007
0.416736
0.0794813
0.407531
0.090308
0.088136
0.418996
0.00685832
-0.418676
0.419589
0.0186807
0.420382
0.0301967
0.421318
0.0412703
0.42232
0.0517937
0.423348
0.0616145
0.424218
0.071031
0.425214
0.0784855
0.425922
0.0895993
0.089698
0.404755
0.00627235
-0.404169
0.406085
0.017351
0.408113
0.0281683
0.410796
0.0385876
0.414075
0.0485145
0.417888
0.0578014
0.422187
0.0667324
0.426656
0.074017
0.432188
0.0840669
0.0857928
0.393549
0.00554055
-0.392818
0.395357
0.0155432
0.39821
0.0253155
0.402066
0.0347315
0.406877
0.0437032
0.41257
0.0521085
0.419154
0.0601482
0.426249
0.0669228
0.434851
0.075465
0.0781306
0.384768
0.00470634
-0.383934
0.386911
0.0134003
0.390334
0.0218926
0.394997
0.0300679
0.400857
0.037843
0.407843
0.0451226
0.415967
0.0520241
0.424916
0.0579745
0.435431
0.0649498
0.0678892
0.37802
0.00379879
-0.377112
0.380397
0.011023
0.384215
0.0180744
0.389433
0.0248497
0.396005
0.0312712
0.403864
0.037264
0.413002
0.0428859
0.423186
0.0477903
0.434908
0.0532277
0.0559316
0.373016
0.00283553
-0.372052
0.375561
0.00847761
0.379657
0.0139786
0.385257
0.019249
0.39231
0.0242191
0.400745
0.0288285
0.410534
0.0330969
0.421505
0.0368197
0.433964
0.0407678
0.0429025
0.369506
0.00181805
-0.368488
0.372185
0.00579801
0.37649
0.00967388
0.382366
0.013373
0.389747
0.0168377
0.398556
0.0200198
0.408735
0.0229181
0.420154
0.0254007
0.432984
0.0279379
0.0292395
0.365448
0.000677913
-0.364308
0.368355
0.00289099
0.372978
0.0050513
0.379242
0.0071089
0.387053
0.00902701
0.396299
0.0107734
0.406881
0.0123369
0.418645
0.0136358
0.431639
0.0149444
0.0152245
0.314581
-0.313903
0.317472
0.322523
0.329632
0.338659
0.349432
0.361769
0.375405
0.390349
0.080026
0.122499
-0.112174
-0.0903508
0.0705269
0.124823
-0.115324
0.0612825
0.127804
-0.11856
0.0520456
0.131201
-0.121964
0.0426977
0.134927
-0.125579
0.0331707
0.138966
-0.129439
0.0234366
0.143136
-0.133402
0.0136455
0.145577
-0.135786
0.00475062
0.135523
-0.126628
0.0773743
-0.0726236
0.0753593
0.130962
-0.0838226
0.0666739
0.133508
0.0578908
0.136588
0.0490413
0.14005
0.040103
0.143865
0.0310354
0.148034
0.0218195
0.152352
0.0126092
0.154788
0.0043267
0.143806
0.081701
0.0678133
0.138268
-0.0751188
0.0601906
0.141131
0.0523795
0.144399
0.0444222
0.148008
0.0363195
0.151968
0.0280543
0.156299
0.0196304
0.160776
0.0112272
0.163191
0.00375585
0.151277
0.0854568
0.0595766
0.144681
-0.0659898
0.052916
0.147791
0.0460749
0.15124
0.0390724
0.15501
0.0319066
0.159134
0.0245674
0.163638
0.0170724
0.168271
0.00961943
0.170644
0.0030967
0.1578
0.0885535
0.051208
0.150326
-0.0568524
0.0454057
0.153594
0.0394721
0.157173
0.0334047
0.161077
0.0271924
0.165346
0.0208246
0.170006
0.0143252
0.17477
0.00790324
0.177066
0.00240557
0.163297
0.0909591
0.0425248
0.155164
-0.0473636
0.0375948
0.158524
0.0325809
0.162187
0.0274698
0.166189
0.0222453
0.17057
0.0168958
0.175356
0.0114467
0.180219
0.00611446
0.182398
0.00170021
0.167712
0.0926593
0.0333588
0.159098
-0.0372923
0.029379
0.162503
0.0253474
0.166219
0.0212479
0.170288
0.0170666
0.174752
0.0127964
0.179626
0.00845425
0.184561
0.00425017
0.186602
0.000965089
0.170997
0.0936244
0.0237028
0.162022
-0.026627
0.0207598
0.165446
0.0177821
0.169197
0.0147536
0.173317
0.0116613
0.177844
0.00852035
0.182767
0.0053721
0.18771
0.00233439
0.18964
0.000174939
0.173156
0.0937993
0.013663
0.163854
-0.0154952
0.0118252
0.167284
0.0099622
0.17106
0.008065
0.175214
0.00611679
0.179792
0.00409238
0.184791
0.00219081
0.189611
0.000453043
0.191378
-0.000506235
0.174116
0.0932931
0.0034606
-0.00418753
0.00275155
0.00204048
0.00132093
0.000595178
-0.000126353
-0.00100968
-0.0013404
-0.00115151
0.109204
0.0211616
-0.120453
-0.0099125
0.0975842
0.0217417
-0.0101215
0.0856365
0.0222958
-0.0103481
0.0733485
0.0228815
-0.0105935
0.0606962
0.023514
-0.0108617
0.0476509
0.0242019
-0.0111566
0.0341942
0.0249292
-0.0114724
0.0204565
0.0254387
-0.011701
0.00754349
0.0240009
-0.0110878
0.0142965
-0.00675306
0.108307
0.0323668
-0.119512
0.0967484
0.0333005
0.0848741
0.0341701
0.0726709
0.0350846
0.0601145
0.0360704
0.0471755
0.0371409
0.0338351
0.0382696
0.0202239
0.0390498
0.00744273
0.0367821
0.0217393
0.107029
0.0435031
-0.118165
0.0955648
0.0447643
0.0838005
0.0459345
0.0717216
0.0471635
0.0593032
0.0484889
0.0465152
0.0499289
0.0333387
0.0514461
0.0199052
0.0524833
0.00730872
0.0493785
0.029048
0.105274
0.0545301
-0.116301
0.0939519
0.0560865
0.0823468
0.0575396
0.0704436
0.0590667
0.0582166
0.0607159
0.0456354
0.0625101
0.0326814
0.0644
0.0194894
0.0656753
0.00714765
0.0617203
0.0361956
0.102937
0.0653888
-0.113796
0.0918201
0.0672033
0.0804387
0.068921
0.0687762
0.0707291
0.0568061
0.072686
0.0444974
0.0748188
0.031832
0.0770654
0.0189478
0.0785595
0.0069241
0.073744
0.0431198
0.0999211
0.0760067
-0.110539
0.0890871
0.0780372
0.0780085
0.0799997
0.0666662
0.0820715
0.0550315
0.0843206
0.0430723
0.086778
0.0307714
0.0893664
0.0182708
0.09106
0.00663991
0.0853749
0.0497597
0.0961431
0.0863048
-0.106441
0.0856946
0.0884858
0.0750227
0.0906715
0.0640983
0.0929959
0.0528892
0.0955298
0.0413633
0.0983038
0.0295063
0.101224
0.017467
0.103099
0.00630446
0.0965375
0.0560641
0.0914454
0.0961344
-0.101275
0.0815296
0.0984016
0.0714032
0.100798
0.0610216
0.103377
0.0503504
0.106201
0.0393586
0.109296
0.0280361
0.112546
0.0165413
0.114594
0.0059216
0.107157
0.0619857
0.0863202
0.105135
-0.0953205
0.0771744
0.107547
0.0676821
0.11029
0.0578703
0.113189
0.047745
0.116326
0.0372932
0.119747
0.0265172
0.123322
0.0155868
0.125525
0.00553317
0.117211
0.0675189
0.0786291
-0.0856686
0.0708529
0.0625831
0.0538082
0.0445557
0.0348639
0.024784
0.0145222
0.00510474
0.200638
0.0153958
-0.0180444
0.202929
0.0208781
-0.0231692
0.202804
0.0256002
-0.0254749
0.203446
0.0279881
-0.02863
0.203052
0.0338483
-0.033454
0.200983
0.0420147
-0.0399465
0.195942
0.053056
-0.0480143
0.185442
0.067999
-0.0574995
0.163099
0.090454
-0.0681109
0.122749
-0.0801031
0.200489
0.0128968
0.202658
0.0187092
0.202474
0.025784
0.203029
0.0274328
0.202511
0.0343663
0.200273
0.0442532
0.195008
0.0583207
0.18424
0.0787666
0.161829
0.112866
0.165065
0.200212
0.0106746
0.202092
0.0168294
0.201756
0.0261195
0.202103
0.0270857
0.201332
0.0351378
0.198798
0.0467867
0.1932
0.0639189
0.182088
0.0898786
0.159692
0.135262
0.206592
0.199804
0.00886072
0.201236
0.0153973
0.200662
0.026693
0.200678
0.0270704
0.199522
0.036293
0.196568
0.049741
0.190518
0.0699694
0.178968
0.101428
0.156586
0.157644
0.246877
0.199256
0.00759437
0.200095
0.0145584
0.199208
0.0275798
0.198765
0.0275137
0.197096
0.0379617
0.193594
0.0532429
0.186964
0.0765999
0.17486
0.113532
0.152236
0.180268
0.285318
0.198559
0.00702522
0.198676
0.0144411
0.197414
0.0288423
0.196379
0.0285488
0.194068
0.0402724
0.189891
0.05742
0.182543
0.0839479
0.169736
0.126339
0.146432
0.203572
0.32121
0.197699
0.0073156
0.196989
0.015152
0.195302
0.0305293
0.193533
0.0303179
0.190455
0.0433495
0.185475
0.0624007
0.177262
0.0921609
0.163601
0.14
0.140525
0.226648
0.355294
0.196663
0.00864214
0.195044
0.016771
0.192897
0.0326764
0.190239
0.0329756
0.18628
0.0473088
0.180368
0.0683124
0.171151
0.101378
0.156518
0.154633
0.134351
0.248815
0.38837
0.195437
0.0111946
0.192863
0.0193457
0.190228
0.0353114
0.18651
0.0366934
0.181569
0.0522496
0.17462
0.0752619
0.164375
0.111623
0.149029
0.169979
0.128218
0.269626
0.421267
0.194107
0.0150772
0.190454
0.0229988
0.187351
0.038414
0.182383
0.0416622
0.176405
0.0582276
0.168309
0.0833572
0.156753
0.123179
0.139876
0.186856
0.117299
0.292203
0.452898
0.30272
0.0143669
0.303978
0.0217408
0.307236
0.0351567
0.308413
0.0404852
0.310225
0.0564152
0.312588
0.0809946
0.316637
0.11913
0.325487
0.178006
0.34991
0.267779
0.397721
0.405087
0.303434
0.0129432
0.305054
0.0201212
0.308499
0.0317115
0.310708
0.0382763
0.313746
0.0533772
0.31812
0.0766205
0.325342
0.111908
0.338785
0.164563
0.367414
0.23915
0.342612
0.422523
0.304039
0.0109143
0.306169
0.0179915
0.309776
0.0281047
0.312872
0.0351801
0.317056
0.0491926
0.323174
0.0705025
0.332916
0.102167
0.349562
0.147917
0.380255
0.208457
0.288787
0.43408
0.304605
0.00831901
0.307216
0.0153808
0.31103
0.0242906
0.314878
0.031332
0.320098
0.0439731
0.327713
0.0628875
0.339461
0.0904191
0.358357
0.129021
0.389745
0.177069
0.237806
0.440726
0.305162
0.00516758
0.308197
0.0123452
0.312215
0.0202724
0.316687
0.0268602
0.3228
0.0378607
0.331658
0.0540293
0.344956
0.0771204
0.365352
0.108625
0.396615
0.145806
0.19033
0.444091
0.305735
0.00144246
0.309119
0.00896172
0.313294
0.0160976
0.318261
0.0218929
0.32511
0.0310113
0.334964
0.0441752
0.349426
0.0626589
0.370768
0.087283
0.40151
0.115064
0.14642
0.44542
0.306354
-0.00290153
0.309991
0.0053249
0.314233
0.0118561
0.319566
0.0165594
0.326992
0.0235854
0.337609
0.0335577
0.352911
0.0473574
0.374812
0.065382
0.404903
0.0849727
0.105698
0.445625
0.30707
-0.00796133
0.310828
0.00156654
0.314996
0.00768795
0.320567
0.0109893
0.328411
0.0157412
0.339577
0.0223916
0.355453
0.0314813
0.377655
0.0431797
0.407123
0.0555045
0.0675247
0.445297
0.307408
-0.0133587
0.311087
-0.00211247
0.315034
0.00374061
0.320717
0.00530581
0.328828
0.00763027
0.340347
0.0108732
0.356579
0.0152492
0.378917
0.0208419
0.407883
0.0265383
0.0316004
0.443807
0.288651
0.286539
0.29028
0.295585
0.303216
0.314089
0.329338
0.35018
0.376718
0.408319
0.414164
-0.0994279
0.416632
-0.0862907
0.419514
-0.0780003
0.423082
-0.0695576
0.426633
-0.0604037
0.429785
-0.050516
0.432386
-0.0398928
0.434387
-0.0286284
0.43575
-0.0168579
-0.00485266
0.421937
-0.0988416
0.421745
-0.0860982
0.421354
-0.0776098
0.420909
-0.069113
0.420332
-0.0598262
0.419689
-0.0498732
0.419114
-0.0393173
0.418704
-0.0282189
0.418542
-0.0166955
-0.0049865
0.428116
-0.092878
0.423544
-0.0815255
0.419181
-0.0732475
0.415215
-0.0651468
0.411784
-0.0563949
0.408931
-0.0470203
0.406705
-0.037091
0.405155
-0.0266697
0.404322
-0.0158624
-0.00483355
0.431203
-0.0833555
0.423462
-0.0737839
0.416495
-0.0662807
0.41028
-0.0589321
0.404924
-0.0510386
0.400484
-0.0425801
0.397012
-0.0336194
0.394558
-0.0242158
0.393156
-0.0144603
-0.00449493
0.43233
-0.0715947
0.422404
-0.0638584
0.413586
-0.0574622
0.405789
-0.0511353
0.399093
-0.0443429
0.393561
-0.0370476
0.389241
-0.0292997
0.386178
-0.0211525
0.384405
-0.0126871
-0.0040239
0.43228
-0.058455
0.420921
-0.0524988
0.410849
-0.0473905
0.401983
-0.0422693
0.394381
-0.0367404
0.388102
-0.0307686
0.383197
-0.0243946
0.37971
-0.0176658
0.377676
-0.0106534
-0.00345969
0.431659
-0.0444893
0.419401
-0.0402403
0.408523
-0.0365128
0.398958
-0.0327049
0.390755
-0.0285366
0.383973
-0.0239869
0.378669
-0.0190905
0.374891
-0.013888
0.372678
-0.00844065
-0.00283375
0.430837
-0.0300296
0.418066
-0.0274689
0.406726
-0.0251725
0.396737
-0.0227167
0.38815
-0.0199488
0.381034
-0.0168718
0.375459
-0.013515
0.371482
-0.00991105
0.369149
-0.00610773
-0.00217282
0.428837
-0.0150593
0.415789
-0.0144206
0.404147
-0.0135305
0.39382
-0.0123903
0.384884
-0.0110128
0.377442
-0.00942908
0.371589
-0.00766261
0.367412
-0.00573442
0.364976
-0.00367118
-0.00150522
0.393259
0.378839
0.365308
0.352918
0.341905
0.332476
0.324814
0.319079
0.315408
0.00476345
0.110557
-0.11532
0.00814692
0.21044
-0.213824
0.00967694
0.233137
-0.234667
0.0106521
0.232748
-0.233723
0.0115065
0.228086
-0.22894
0.0124578
0.223491
-0.224442
0.0135461
0.219602
-0.220691
0.0147601
0.216416
-0.21763
0.0160225
0.21376
-0.215022
0.210787
0.0169338
-0.211699
0.00639703
0.10416
0.012983
0.203854
0.0181526
0.227967
0.0227031
0.228197
0.0272146
0.223575
0.0319172
0.218788
0.0368938
0.214626
0.0421799
0.21113
0.0477434
0.208196
0.205456
0.0530744
0.00742909
0.0967309
0.0166811
0.194602
0.0250392
0.219609
0.03288
0.220356
0.0406945
0.21576
0.0487397
0.210743
0.057139
0.206226
0.065974
0.202295
0.0752947
0.198875
0.195858
0.0848928
0.0078374
0.0888935
0.0190515
0.183388
0.0299807
0.20868
0.0405335
0.209804
0.0510477
0.205246
0.0617626
0.200028
0.0728204
0.195169
0.084327
0.190788
0.0963779
0.186824
0.183153
0.109083
0.0077541
0.0811394
0.0201659
0.170976
0.0329387
0.195907
0.0454739
0.197268
0.0579223
0.192797
0.0704707
0.187479
0.0832515
0.182388
0.0963669
0.177673
0.109908
0.173284
0.168962
0.124099
0.00737564
0.0737637
0.0203274
0.158025
0.0342133
0.182021
0.0479881
0.183494
0.0616049
0.179181
0.0751767
0.173908
0.0888065
0.168758
0.102575
0.163905
0.116547
0.159312
0.154579
0.130929
0.00688813
0.0668756
0.0199194
0.144993
0.0343158
0.167625
0.0487006
0.169109
0.0628547
0.165027
0.0768178
0.159944
0.0906576
0.154918
0.104431
0.150131
0.118169
0.145574
0.140711
0.132038
0.00642474
0.0604509
0.0192757
0.132142
0.0337682
0.153132
0.0483138
0.154563
0.062568
0.150772
0.076511
0.146002
0.0901813
0.141248
0.103618
0.136694
0.116863
0.132329
0.127627
0.129947
0.00605216
0.0543987
0.0186208
0.119574
0.0329775
0.138776
0.0474212
0.14012
0.061531
0.136662
0.0752482
0.132284
0.0885938
0.127902
0.101606
0.123682
0.114317
0.119618
0.114841
0.127103
0.0057836
0.0486151
0.0180673
0.10729
0.032192
0.124651
0.0464071
0.125904
0.0602438
0.122826
0.0736025
0.118926
0.0864563
0.115049
0.0987696
0.111368
0.110427
0.107961
0.10408
0.121187
0.00561632
0.0429988
0.0176836
0.0952226
0.0316107
0.110724
0.0456473
0.111868
0.0593247
0.109148
0.0725571
0.105693
0.085357
0.102249
0.0977678
0.0989576
0.109861
0.0958675
0.0933056
0.120636
0.00550801
0.0374908
0.017417
0.0833136
0.0311846
0.0969563
0.0450679
0.0979845
0.0585976
0.0956188
0.0716825
0.0926083
0.0843221
0.0896091
0.0965306
0.0867491
0.108339
0.0840589
0.0822124
0.119432
0.00542906
0.0320617
0.0172251
0.0715176
0.0308759
0.0833055
0.0446441
0.0842163
0.0580616
0.0822013
0.071036
0.0796339
0.0835643
0.0770809
0.0956597
0.0746537
0.107347
0.0723714
0.0709342
0.118625
0.00536627
0.0266955
0.017086
0.0597978
0.0306651
0.0697264
0.0443675
0.0705139
0.0577276
0.0688412
0.0706557
0.0667058
0.0831516
0.064585
0.0952325
0.0625728
0.106926
0.0606778
0.0595329
0.118327
0.00531421
0.0213812
0.0169818
0.0481302
0.0305198
0.0561885
0.0441896
0.0568441
0.0575265
0.0555043
0.0704431
0.0537892
0.0829419
0.0520862
0.0950436
0.0504711
0.106776
0.0489451
0.0480476
0.118262
0.00527189
0.0161094
0.0169013
0.0365008
0.0304135
0.0426762
0.044066
0.0431916
0.0573933
0.042177
0.0703089
0.0408736
0.0828167
0.0395784
0.0949383
0.0383495
0.106699
0.0371842
0.0365182
0.118229
0.00523916
0.0108702
0.0168372
0.0249028
0.0303279
0.0291855
0.0439657
0.0295537
0.057284
0.0288587
0.0701967
0.0279609
0.082708
0.0270671
0.0948395
0.026218
0.106614
0.0254096
0.0249698
0.118162
0.00521518
0.00565501
0.0167837
0.0133344
0.0302495
0.0157196
0.0438672
0.0159361
0.05717
0.0155559
0.070072
0.0150589
0.0825777
0.0145613
0.094709
0.0140867
0.106487
0.0136319
0.0134148
0.118042
0.00519837
0.000456643
0.0167351
0.00179767
0.0301672
0.0022875
0.0437533
0.00234994
0.0570284
0.00228085
0.0699075
0.00217981
0.0823955
0.00207332
0.0945142
0.001968
0.106283
0.00186276
0.00186686
0.117831
0.00518704
0.0166858
0.0300701
0.0436078
0.0568383
0.0696781
0.0821328
0.0942246
0.105973
0.117511
0.136191
0.24407
-0.259624
0.149541
0.109645
-0.122996
0.159187
0.0376009
-0.0472463
0.166409
0.00563059
-0.0128527
0.172335
-0.00708355
0.00115718
0.177569
-0.0109649
0.00573113
0.182351
-0.0110322
0.00625011
0.186793
-0.00954109
0.00509917
0.19093
-0.00750578
0.00336849
-0.00503121
0.00123367
0.141562
0.22194
0.156374
0.0948332
0.16604
0.0279351
0.17274
-0.00106947
0.177836
-0.0121792
0.18209
-0.0152192
0.185816
-0.014758
0.189159
-0.0128844
0.192184
-0.0105307
-0.00772154
0.145432
0.195133
0.162255
0.078011
0.172099
0.0180902
0.178389
-0.00735893
0.182809
-0.0165996
0.186205
-0.0186149
0.188983
-0.0175365
0.191336
-0.0152374
0.193357
-0.012551
-0.00940971
0.149208
0.164252
0.167568
0.0596511
0.17756
0.00809802
0.183477
-0.013276
0.187271
-0.0203931
0.189902
-0.0212464
0.19184
-0.0194743
0.193315
-0.0167119
0.194443
-0.0136794
-0.0102064
0.153316
0.129198
0.172231
0.0407358
0.182337
-0.00200719
0.18794
-0.0188794
0.191195
-0.0236484
0.193165
-0.023216
0.194373
-0.0206829
0.195085
-0.0174238
0.195438
-0.0140324
-0.0102272
0.156287
0.0911392
0.176142
0.0208809
0.186396
-0.0122617
0.19175
-0.0242333
0.194559
-0.0264567
0.195974
-0.0246316
0.19657
-0.0212788
0.19664
-0.0174934
0.196338
-0.0137312
-0.00959233
0.158493
0.0508088
0.179297
7.6861e-05
0.18971
-0.0226746
0.194881
-0.0294042
0.19734
-0.0289162
0.198314
-0.0256059
0.198418
-0.0213824
0.197969
-0.0170445
0.197138
-0.0129004
-0.00842586
0.160092
0.00875836
0.181668
-0.0214987
0.192247
-0.0332543
0.197309
-0.0344658
0.199523
-0.0311299
0.200173
-0.026256
0.199908
-0.0211176
0.199067
-0.0162039
0.197835
-0.0116679
-0.00685534
0.161074
-0.0344845
0.183229
-0.0436533
0.193983
-0.0440089
0.199017
-0.0394989
0.201092
-0.0332056
0.201538
-0.0267018
0.201031
-0.0206105
0.199928
-0.0151011
0.198424
-0.0101639
-0.00501106
0.161402
0.183949
0.194897
0.199989
0.202038
0.202403
0.201781
0.200547
0.198903
0.196644
0.0362135
-0.232857
0.175699
0.0209449
0.166595
0.00910438
0.163702
0.00289289
0.163549
0.000152272
0.164378
-0.000829025
0.165388
-0.00100941
0.166239
-0.000851302
0.166805
-0.000565934
-0.000205616
0.237349
0.0977583
-0.298894
0.209474
0.0488198
0.198244
0.0203343
0.194763
0.0063735
0.194581
0.000334532
0.195567
-0.00181517
0.196769
-0.00221129
0.197784
-0.00186593
0.198464
-0.00124646
-0.000456814
0.236566
0.156528
-0.295337
0.209488
0.0758981
0.19894
0.0308824
0.195895
0.00941846
0.195948
0.000281359
0.197052
-0.00291881
0.198312
-0.00347154
0.199356
-0.00290974
0.200052
-0.00194199
-0.000713174
0.231219
0.211205
-0.285895
0.206565
0.100553
0.197534
0.0399126
0.195312
0.0116411
0.19576
-0.000166777
0.197051
-0.00420998
0.198391
-0.00481124
0.199466
-0.00398511
0.200173
-0.00264852
-0.000972001
0.225472
-0.273892
0.203029
0.195695
0.194484
0.195474
0.196995
0.198434
0.199548
0.200268
0.0224532
-0.00099479
-0.0214584
0.0269941
-0.00454085
0.0358892
-0.00889515
0.0503924
-0.0145032
0.0714726
-0.0210801
0.0988221
-0.0273495
0.131037
-0.0322149
0.16528
-0.034243
0.201574
-0.0362939
-0.0312834
0.0602755
-0.0038898
-0.0573804
0.0711993
-0.0154647
0.0904307
-0.0281265
0.117353
-0.0414252
0.149561
-0.0532889
0.18348
-0.0612681
0.216136
-0.0648707
0.245699
-0.0638065
0.273806
-0.0644002
-0.0563716
0.0857892
-0.00801483
-0.0816642
0.0990143
-0.0286898
0.12009
-0.0492019
0.146157
-0.0674927
0.173596
-0.0807277
0.19995
-0.0876218
0.22465
-0.089571
0.248298
-0.0874549
0.27249
-0.0885923
-0.0792178
0.099774
-0.0125233
-0.0952655
0.112529
-0.0414452
0.131433
-0.0681053
0.153446
-0.089506
0.176125
-0.103406
0.198531
-0.110028
0.220508
-0.111548
0.242817
-0.109763
0.264967
-0.110742
-0.100146
0.10623
-0.101819
0.117859
0.134646
0.154223
0.174916
0.195817
0.216307
0.236491
0.252852
0.102198
-0.0903975
0.0991133
-0.110914
0.0926238
-0.0931567
0.102731
0.0823573
-0.0962272
0.106494
0.0713126
-0.0993713
0.110416
0.0595171
-0.102675
0.11447
0.0470327
-0.10619
0.118675
0.0339279
-0.109826
0.122931
0.0203983
-0.112334
0.125863
0.00757772
-0.105671
0.118492
-0.0617012
0.0692789
0.106073
-0.0799188
-0.116552
0.095341
-0.0824244
0.0840598
-0.084946
0.0722701
-0.0875816
0.0599939
-0.0903984
0.0472273
-0.0934237
0.0339711
-0.0965701
0.0203751
-0.0987377
0.00755084
-0.0928467
-0.0541504
0.107194
-0.0689144
-0.118198
0.0959731
-0.0712036
0.0844062
-0.073379
0.0724532
-0.0756287
0.060081
-0.0780261
0.0472582
-0.0806009
0.0339696
-0.0832815
0.020356
-0.0851241
0.00752977
-0.0800204
-0.0466206
0.108428
-0.0577564
-0.119586
0.0969886
-0.0597639
0.0852095
-0.0615999
0.073067
-0.0634862
0.0605316
-0.0654907
0.0475722
-0.0676415
0.0341715
-0.0698808
0.0204661
-0.0714187
0.00756851
-0.0671228
-0.0390521
0.109283
-0.0465314
-0.120508
0.0977211
-0.0482024
0.0858151
-0.0496939
0.073552
-0.0512232
0.060907
-0.0528457
0.0478497
-0.0545842
0.0343615
-0.0563927
0.0205767
-0.0576339
0.00760897
-0.0541551
-0.0314431
0.109864
-0.0352557
-0.12114
0.0982307
-0.0365686
0.0862511
-0.0377143
0.0739145
-0.0388866
0.0611975
-0.0401287
0.0480709
-0.0414576
0.0345162
-0.042838
0.0206655
-0.0437832
0.00763249
-0.0411221
-0.0238106
0.110191
-0.0239566
-0.12149
0.0985178
-0.0248958
0.0864991
-0.0256956
0.0741232
-0.0265107
0.0613671
-0.0273725
0.048202
-0.0282925
0.0346095
-0.0292455
0.0207202
-0.0298939
0.00764785
-0.0280497
-0.0161628
0.110283
-0.0126538
-0.121586
0.0985963
-0.0132093
0.0865649
-0.0136642
0.0741772
-0.014123
0.06141
-0.0146054
0.0482349
-0.0151174
0.0346337
-0.0156443
0.020737
-0.0159972
0.00765837
-0.0149711
-0.0085044
0.110146
-0.00137264
-0.121427
0.0984677
-0.00153126
0.0864469
-0.00164333
0.0740717
-0.00174784
0.061319
-0.00185264
0.0481606
-0.00195903
0.0345786
-0.00206225
0.0207036
-0.00212213
0.00764723
-0.00191476
-0.000857169
0.109786
-0.121071
0.0981334
0.0861419
0.0738006
0.0610862
0.0479706
0.034436
0.0206128
0.00761023
0.0172421
-0.208493
-0.0204476
0.0140838
-0.211864
0.0110575
-0.214604
0.00811165
-0.217745
0.00519457
-0.221525
0.00226654
-0.226012
-0.000682525
-0.230774
-0.00250519
-0.232844
-0.00269813
-0.213631
-0.118019
0.0491269
-0.2012
-0.0564203
0.0417519
-0.204489
0.0347025
-0.207554
0.0279512
-0.210993
0.0214101
-0.214984
0.0150185
-0.219621
0.00892735
-0.224683
0.00321618
-0.227133
-0.000526686
-0.209888
-0.118545
0.0762214
-0.190102
-0.0873194
0.0653448
-0.193612
0.0550016
-0.197211
0.0451271
-0.201119
0.0356088