/*--------------------------------*- C++ -*----------------------------------*\
  =========                 |
  \\      /  F ield         | OpenFOAM: The Open Source CFD Toolbox
   \\    /   O peration     | Website:  https://openfoam.org
    \\  /    A nd           | Version:  13
     \\/     M anipulation  |
\*---------------------------------------------------------------------------*/
FoamFile
{
    format      ascii;
    class       volVectorField;
    location    "4.405";
    object      U;
}
// * * * * * * * * * * * * * * * * * * * * * * * * * * * * * * * * * * * * * //

dimensions      [0 1 -1 0 0 0 0];

internalField   nonuniform List<vector> 
440
(
(-0.0644446 0.0366577 -7.79181e-20)
(-0.0958425 0.0659132 3.83153e-20)
(-0.00877133 0.0773137 1.31643e-19)
(0.435552 0.0814447 1.98764e-19)
(0.259379 0.331613 1.26554e-20)
(-0.0921581 0.0499668 3.97802e-20)
(0.0250157 0.0115265 -1.21734e-19)
(0.465379 -0.0246603 -1.19715e-19)
(1.03166 -0.0490291 8.29553e-20)
(1.40177 -0.0316501 3.0172e-20)
(-0.0345749 0.0159791 5.35125e-20)
(0.454782 -0.0282186 6.7665e-19)
(1.22033 -0.00496907 -3.45101e-19)
(1.77253 0.0370905 -1.06049e-18)
(2.33989 0.0615335 3.33416e-19)
(0.182203 -0.0385755 -1.71225e-19)
(1.16675 0.00895691 -4.83431e-19)
(1.9237 0.0838058 1.50308e-18)
(2.38227 0.118695 1.54579e-18)
(2.45829 0.134066 -4.33673e-19)
(0.547108 -0.000755479 -2.73215e-19)
(1.70276 0.179705 -5.63564e-19)
(2.23708 0.254177 1.66638e-18)
(2.34769 0.264781 1.76151e-18)
(2.43025 0.234496 5.90432e-19)
(-0.0299606 0.0453404 -5.34944e-20)
(-0.158451 0.135996 1.70096e-19)
(-0.274941 0.186379 -3.20005e-19)
(-0.366536 0.230323 6.52227e-20)
(-0.437502 0.276111 5.47957e-19)
(-0.0565237 0.201362 -2.5334e-20)
(-0.176854 0.367119 -1.38744e-19)
(-0.278105 0.377976 -1.82223e-20)
(-0.354996 0.37294 -1.07335e-20)
(-0.413173 0.386961 8.47477e-21)
(-0.0772835 0.223952 -1.51451e-20)
(-0.164315 0.511677 2.31011e-20)
(-0.213494 0.601573 1.64781e-20)
(-0.237848 0.585776 -2.61533e-19)
(-0.245999 0.542082 5.94841e-21)
(-0.0458564 0.102124 -1.99338e-20)
(-0.109115 0.362678 3.18518e-20)
(-0.125465 0.54367 4.62068e-20)
(-0.124369 0.639852 1.61138e-20)
(-0.0983772 0.673808 -7.46328e-21)
(-0.0277105 0.025828 -5.46445e-20)
(-0.10327 0.148673 -7.82649e-20)
(-0.145587 0.313429 -1.5934e-19)
(-0.0903642 0.409944 5.61853e-20)
(-0.0466978 0.609039 -1.89404e-19)
(-0.686462 0.508784 -1.01446e-19)
(-0.112856 0.191637 8.84018e-19)
(0.512782 -0.402183 1.81345e-19)
(0.746809 -0.517103 -1.93456e-19)
(0.949127 -0.31814 3.16373e-21)
(-0.66434 0.469888 -1.20941e-19)
(0.404897 -0.00508072 -1.78884e-19)
(0.902352 -0.495024 1.22186e-19)
(1.1509 -0.564088 2.84479e-19)
(1.13472 -0.331587 4.69345e-20)
(-0.33507 0.330708 -1.29992e-19)
(0.86074 -0.205236 1.1131e-18)
(1.168 -0.60106 -9.77862e-20)
(1.41801 -0.595684 1.99813e-19)
(1.30775 -0.326956 3.16777e-21)
(0.00373753 0.301502 3.66908e-19)
(1.39521 -0.326958 -1.07257e-19)
(1.49608 -0.660149 4.2274e-20)
(1.56248 -0.612811 -1.37905e-19)
(1.40284 -0.318764 9.51613e-20)
(0.334664 0.115908 -1.40227e-19)
(1.83889 -0.46084 -1.03461e-19)
(1.89982 -0.65962 0)
(1.73031 -0.584113 4.02932e-20)
(1.4484 -0.298126 2.78973e-20)
(1.53758 0.0224108 -2.70402e-19)
(2.32705 -0.506431 -4.41734e-20)
(2.2819 -0.602798 -2.41804e-20)
(1.9202 -0.491186 9.06768e-20)
(1.47029 -0.251418 -8.80416e-20)
(2.30372 -0.0206341 -9.30482e-21)
(2.55049 -0.588636 8.73012e-19)
(2.26452 -0.576115 -1.72407e-20)
(1.80222 -0.313325 -1.55583e-19)
(1.30645 -0.131524 0)
(2.42517 -0.0861527 -2.39819e-19)
(2.33099 -0.440359 -1.52656e-21)
(1.89626 -0.367366 5.34989e-20)
(1.68302 -0.15765 6.94095e-20)
(1.30034 -0.0668033 -5.53372e-20)
(2.30955 -0.0823187 9.08486e-20)
(2.11369 -0.353823 2.25136e-19)
(1.48453 -0.323947 -1.76746e-20)
(1.1315 -0.0748851 -5.64381e-34)
(0.916777 0.00947045 5.15981e-20)
(1.56713 -0.0752815 1.02421e-19)
(1.01845 -0.0690667 7.36406e-20)
(0.379909 0.0116385 -3.11185e-20)
(0.216758 0.0324726 -1.70072e-20)
(0.27104 0.0102366 1.15469e-20)
(2.36287 0.259174 -7.03958e-19)
(2.5749 0.041007 -8.6155e-19)
(2.42777 0.136782 4.85579e-19)
(2.66517 -0.0423373 9.45177e-20)
(1.97511 0.165137 4.49503e-21)
(2.10832 0.165345 7.58741e-20)
(2.43471 0.0113124 -3.31606e-20)
(2.24627 0.0304019 -1.14528e-19)
(2.50294 -0.0631473 -1.71886e-19)
(2.34138 -0.124517 -4.61903e-21)
(2.13232 0.0618392 7.71357e-20)
(2.28617 0.0117188 6.82125e-20)
(2.2343 -0.0346704 -7.65852e-20)
(2.32641 -0.0437083 3.18085e-20)
(2.31682 -0.122335 -1.37282e-20)
(2.08361 -0.00118849 1.08522e-19)
(2.14004 -0.0109581 1.59396e-19)
(2.15693 -0.0472373 -1.7547e-20)
(2.19546 -0.0395296 -7.91427e-20)
(2.22985 -0.0884884 3.18418e-20)
(1.52002 -0.0102996 1.80357e-19)
(1.51246 -0.0159734 -1.03331e-20)
(1.52109 -0.0160967 1.51356e-20)
(1.52131 -0.0224813 -3.54235e-20)
(1.53108 -0.0225738 -2.41043e-20)
(1.51779 0.832219 1.1211e-18)
(1.47334 0.918781 -3.71705e-19)
(1.46868 1.03715 -1.29823e-18)
(1.38991 1.06926 6.7529e-19)
(0.837002 0.742901 -1.52755e-19)
(1.77254 0.792472 -5.5554e-19)
(1.74479 0.860906 -2.88463e-18)
(1.75313 0.955216 -1.08411e-18)
(1.65105 0.952408 -3.70757e-19)
(0.9901 0.645216 -5.91213e-19)
(2.0995 0.650826 7.10267e-19)
(2.05976 0.710444 1.83155e-19)
(2.01791 0.792596 -2.09934e-18)
(1.8775 0.776072 -5.73769e-19)
(1.09158 0.501972 4.22743e-19)
(2.23722 0.535673 2.08264e-18)
(2.22203 0.583573 1.51421e-18)
(2.21248 0.629632 -1.74554e-18)
(1.98526 0.584808 -1.30639e-18)
(1.0733 0.333662 -2.39824e-19)
(2.41661 0.379704 9.79274e-19)
(2.39892 0.39916 -7.15962e-19)
(2.2768 0.426273 5.11687e-19)
(1.95242 0.37373 4.03873e-19)
(0.908243 0.150012 -3.4156e-19)
(0.579263 0.487737 -6.24303e-19)
(0.487309 0.522225 -4.74791e-19)
(0.368599 0.554077 5.31728e-20)
(0.228953 0.547727 -5.85246e-21)
(0.0566254 0.384246 7.99465e-20)
(0.671648 0.648328 1.02985e-19)
(0.605605 0.700353 -2.8144e-19)
(0.51684 0.762777 1.79663e-19)
(0.394188 0.817243 -8.37676e-20)
(0.173246 0.617374 1.18564e-19)
(0.759424 0.860287 9.83303e-20)
(0.683062 0.939018 4.69547e-19)
(0.625417 1.02656 1.16401e-19)
(0.542535 1.04675 -2.98596e-19)
(0.298035 0.75403 2.46861e-19)
(1.04421 0.921971 2.12544e-19)
(0.991333 0.990486 -6.73599e-19)
(0.934728 1.07545 -1.8389e-18)
(0.848189 1.12885 7.2191e-19)
(0.495951 0.821261 -1.57359e-19)
(1.06635 0.985432 -8.64478e-20)
(1.11356 1.09632 -1.59996e-19)
(1.13995 1.19047 -3.55563e-19)
(1.07925 1.18362 -3.85077e-19)
(0.655717 0.81791 -6.03699e-21)
(0.98337 0.0348941 -8.71188e-20)
(1.03338 0.0265553 -2.88279e-20)
(1.03483 0.126155 -2.72516e-21)
(0.968647 0.122224 -1.65102e-19)
(0.910291 0.308627 2.93416e-19)
(0.976432 0.0299456 5.5511e-20)
(1.05131 0.0260167 9.86486e-20)
(1.01078 0.132192 1.23791e-19)
(1.01311 0.145921 2.31706e-20)
(0.941749 0.400972 -1.88183e-20)
(0.985515 0.0275227 7.51733e-20)
(1.03181 0.0183691 -3.69639e-21)
(1.05599 0.154403 9.3495e-22)
(0.964791 0.139758 1.33568e-19)
(1.16352 0.545913 -5.03432e-19)
(0.984381 0.0250084 -2.97619e-22)
(1.0433 0.0121943 -1.31337e-19)
(1.04191 0.168061 -5.72566e-20)
(1.07613 0.127164 -2.99516e-19)
(1.14466 0.631031 8.65915e-20)
(0.98832 0.0196894 -1.29064e-20)
(1.03213 0.0135638 3.71715e-20)
(1.08753 0.164504 2.52788e-20)
(1.03795 0.175359 4.07141e-19)
(1.33878 0.756337 -4.8409e-19)
(0.974137 0.0203471 -1.0225e-20)
(1.06293 -0.00568445 7.86635e-20)
(1.06723 0.193408 -5.46368e-20)
(1.2865 0.0695782 9.79671e-19)
(1.28665 0.827534 -3.18455e-19)
(0.962567 -0.00058232 -1.08183e-21)
(1.10024 -0.00573948 -7.19212e-20)
(1.04012 0.103972 4.10906e-21)
(1.38777 0.0840931 -2.60021e-19)
(1.1044 0.639015 -9.90839e-20)
(0.980571 -0.00850461 3.69782e-21)
(1.09021 -0.0111706 1.26509e-35)
(1.09194 0.0625921 -8.51551e-21)
(1.27586 0.0837933 8.51795e-20)
(1.20306 0.475817 1.75737e-19)
(1.01947 -0.0429084 3.27863e-21)
(1.01361 -0.0267744 -2.2977e-20)
(1.15291 0.00956918 1.61767e-20)
(1.07339 0.0680134 1.7954e-20)
(1.51585 0.296986 -2.77531e-19)
(0.93864 -0.0221776 -3.79418e-20)
(0.831506 -0.0244935 -1.30729e-21)
(0.880245 -0.00166854 2.0734e-20)
(0.75118 0.0100839 -2.31412e-20)
(1.24836 0.0711262 -6.47214e-20)
(1.78135 0.628516 2.65991e-19)
(1.84968 0.65943 7.25452e-19)
(2.13944 0.502489 -9.99481e-19)
(2.1742 0.479473 -2.2962e-20)
(2.41494 0.262638 4.34057e-19)
(1.70887 0.380484 9.64623e-20)
(1.68783 0.427311 9.3874e-19)
(2.00672 0.29491 1.29842e-19)
(1.92398 0.304852 -8.69807e-19)
(2.27385 0.13468 -2.5272e-19)
(1.70134 0.260888 -2.33069e-19)
(1.79616 0.259829 -1.49341e-19)
(1.98234 0.181889 1.24504e-19)
(1.99199 0.164884 -2.69218e-19)
(2.17773 0.0869405 2.50975e-19)
(1.79179 0.138828 4.28793e-19)
(1.8996 0.119671 -5.21613e-21)
(1.96452 0.0707087 2.10122e-19)
(2.00482 0.0527352 1.86103e-19)
(2.06553 0.02181 -1.84924e-19)
(1.43061 0.0274329 -5.45476e-20)
(1.51114 0.017287 2.62961e-19)
(1.50618 0.00435682 1.07658e-19)
(1.52441 0.00104358 -2.12263e-19)
(1.50653 -0.00729368 -9.68887e-24)
(1.20337 -0.0249425 7.19051e-20)
(2.23713 -0.0379311 -4.68208e-19)
(2.47158 -0.035745 1.25369e-18)
(2.45251 0.00517938 5.59178e-19)
(2.2953 0.0292091 -4.0086e-19)
(0.776337 0.096997 1.35893e-19)
(2.00666 0.107726 -4.93049e-19)
(2.45288 0.107784 -6.77705e-19)
(2.49651 0.113349 8.648e-19)
(2.25368 0.104674 -5.89699e-19)
(0.272734 0.0914419 -2.13126e-20)
(1.40476 0.186415 5.45381e-19)
(2.12966 0.209293 7.68893e-20)
(2.48581 0.208485 5.72643e-19)
(2.61284 0.186165 2.1945e-19)
(-0.00347609 -0.00373766 2.17305e-19)
(0.580359 0.124708 2.14069e-19)
(1.38486 0.201755 -4.56085e-19)
(1.87077 0.221326 2.64046e-20)
(2.40162 0.256211 1.11764e-19)
(-0.0830332 -0.0735856 1.42086e-19)
(0.0544661 -0.0273244 -1.53201e-19)
(0.543067 0.0630775 -2.08041e-20)
(1.02887 0.120745 5.83249e-20)
(1.48758 0.204318 1.13623e-20)
(-0.0799895 -0.0944333 1.47481e-20)
(-0.101809 -0.132973 6.61138e-20)
(0.0576686 -0.091304 3.70006e-20)
(0.323421 0.00301222 -1.12821e-19)
(0.718823 0.106886 7.40305e-21)
(-0.0603501 -0.10269 -2.70749e-20)
(-0.0941682 -0.189175 -3.46861e-20)
(-0.0572812 -0.184233 1.7223e-21)
(0.0523286 -0.116408 -7.36481e-21)
(0.233024 -0.00912214 9.4448e-21)
(-0.0555424 -0.171446 -3.37079e-20)
(-0.0719955 -0.297225 -1.52982e-19)
(-0.0520828 -0.304259 1.33076e-19)
(-0.00715295 -0.250488 4.89821e-19)
(0.0564494 -0.173127 -8.16761e-20)
(-0.0495713 -0.211733 2.67041e-20)
(-0.0982467 -0.297165 2.2784e-19)
(-0.131964 -0.260696 -6.94065e-19)
(-0.154006 -0.184106 -4.96197e-19)
(-0.156002 -0.0964334 9.82293e-20)
(-0.0276029 -0.12185 -1.47635e-20)
(-0.124113 -0.114671 5.49342e-20)
(-0.221538 -0.0612763 -1.73822e-20)
(-0.30548 0.00508616 -4.36696e-20)
(-0.360933 0.0813645 2.47787e-20)
(1.42875 0.501751 -3.04851e-20)
(0.989407 0.244205 6.69118e-19)
(0.749259 -0.0193946 -1.07567e-19)
(0.716295 -0.0842292 -1.03161e-19)
(0.926163 -0.0343232 1.96166e-21)
(1.24524 0.41801 8.62732e-20)
(0.612839 0.287149 6.03799e-20)
(0.310936 0.0255412 -1.98233e-19)
(0.361354 -0.115092 -1.26384e-20)
(0.781007 -0.0745105 -2.65875e-20)
(0.712418 0.31698 1.3351e-19)
(-0.1251 0.395009 4.32769e-19)
(0.0415677 0.00453507 6.36597e-20)
(0.227638 -0.21915 -4.2237e-20)
(0.743603 -0.140803 -3.56483e-21)
(0.015412 0.411623 -3.77915e-20)
(-0.653565 0.426098 -1.70093e-18)
(0.0477425 -0.121782 -2.74023e-19)
(0.257423 -0.31962 6.55758e-21)
(0.766537 -0.209309 2.55306e-20)
(-0.480892 0.491883 -2.25222e-20)
(-0.603187 0.346934 -1.38868e-19)
(0.182826 -0.28612 2.57955e-19)
(0.414314 -0.429859 -4.20133e-20)
(0.827109 -0.274396 4.21667e-20)
(0.54659 0.137433 -7.48662e-20)
(-0.080135 -0.0518536 0)
(0.0593174 -0.0806645 -4.50624e-20)
(0.225519 -0.0458332 2.51152e-20)
(0.406157 -0.021035 6.8666e-21)
(1.95165 0.421349 0)
(1.22223 0.228044 0)
(0.955541 -0.00495649 3.51211e-19)
(0.996246 -0.0650922 5.31622e-20)
(1.05317 -0.030041 -5.97344e-21)
(0.73534 0.00141236 -1.3159e-19)
(0.806747 -0.000409098 3.09915e-19)
(0.916094 -0.012467 -8.75463e-21)
(1.05792 0.0229719 2.79192e-19)
(1.30919 0.0739769 1.72354e-19)
(1.66739 0.0214583 1.25806e-19)
(1.81953 0.0838388 3.73997e-19)
(1.92979 0.0721918 -1.62578e-19)
(2.4905 0.172127 3.75555e-20)
(2.16073 0.183092 1.79276e-19)
(0.899593 -0.469873 -1.36231e-20)
(0.888176 -0.559497 -1.77021e-19)
(0.881453 -0.658485 -1.22753e-19)
(0.814697 -0.731318 7.42156e-20)
(0.49802 -0.579504 1.34595e-19)
(0.806219 -0.375291 1.16358e-19)
(0.752851 -0.440816 2.15982e-19)
(0.679979 -0.511478 -5.81201e-20)
(0.566725 -0.572467 1.45003e-19)
(0.309217 -0.460318 5.39757e-20)
(0.646183 -0.23525 -1.2545e-19)
(0.560874 -0.275545 -5.57251e-20)
(0.461124 -0.326271 7.56575e-20)
(0.342487 -0.369334 -2.40857e-20)
(0.151915 -0.296807 -1.26879e-19)
(0.555192 -0.00147788 -4.19859e-19)
(0.469097 -0.0169926 -3.45772e-19)
(0.357138 -0.0393763 2.80738e-19)
(0.227045 -0.0681037 1.63162e-19)
(0.0617663 -0.0759124 1.33344e-20)
(0.520569 0.206329 -1.48312e-19)
(0.430846 0.207287 -1.54298e-19)
(0.311569 0.208891 -5.91481e-20)
(0.175624 0.214593 2.26486e-20)
(0.0243897 0.156414 1.02263e-20)
(2.01448 -0.0327232 8.21359e-19)
(2.29018 -0.0953784 2.67582e-19)
(2.37211 -0.183015 -7.2128e-19)
(2.23533 -0.210345 -1.54529e-18)
(1.35747 -0.193248 1.32527e-19)
(2.02576 -0.119444 1.37543e-18)
(2.10477 -0.23009 1.83388e-18)
(2.11677 -0.351571 1.55624e-19)
(2.03817 -0.410057 2.75018e-19)
(1.31383 -0.367487 -1.82097e-19)
(1.72148 -0.282405 -3.57267e-18)
(1.78767 -0.399759 3.74908e-19)
(1.8332 -0.526183 1.11521e-18)
(1.7759 -0.6018 -4.16714e-19)
(1.1558 -0.513278 6.71792e-19)
(1.50541 -0.403991 8.36172e-19)
(1.51278 -0.499006 -2.25509e-18)
(1.49761 -0.615607 -2.56942e-18)
(1.43761 -0.705855 7.86042e-19)
(0.933892 -0.588012 5.45137e-19)
(1.21185 -0.457112 1.80598e-19)
(1.16884 -0.552266 2.61747e-19)
(1.16315 -0.676264 -3.9211e-19)
(1.11267 -0.765083 -4.74443e-19)
(0.706671 -0.612564 -4.41752e-21)
(1.00732 0.0389693 6.98769e-21)
(1.00843 0.0642325 -2.80311e-21)
(1.10258 0.0853483 -1.6769e-21)
(0.830222 -0.00815902 -2.41828e-19)
(1.08669 -0.195908 -1.84038e-20)
(1.01881 0.0413375 -2.32231e-21)
(0.981305 0.0559706 4.47356e-20)
(1.12148 0.106834 -2.39113e-20)
(0.908381 0.0342792 2.05157e-19)
(0.982589 -0.0823332 5.53662e-22)
(1.02369 0.0388321 -5.49435e-20)
(0.968008 0.0464904 5.45498e-22)
(1.11048 0.107065 -1.20434e-20)
(0.921172 0.0627034 1.04043e-19)
(0.944907 -0.0221235 -2.27802e-19)
(1.01326 0.0394261 6.74584e-20)
(0.985616 0.0370899 2.43664e-21)
(1.0762 0.110614 2.89385e-20)
(0.953309 0.0884455 -5.30365e-20)
(0.867468 0.0906754 7.54281e-20)
(0.994758 0.0368034 1.6801e-20)
(1.01796 0.0343783 -2.35402e-20)
(1.03778 0.11098 4.09532e-20)
(0.979825 0.117322 3.52963e-20)
(0.852024 0.195057 -8.36287e-20)
(0.883446 0.0330152 0)
(0.765656 0.0302821 1.08808e-20)
(0.557766 0.0191592 4.13939e-21)
(0.41272 -0.0116999 4.80762e-20)
(0.694675 -0.0450601 -1.62465e-19)
(0.986339 0.0615965 -6.13642e-20)
(1.03349 0.0828764 -1.42671e-20)
(0.970641 0.0776667 -4.88525e-20)
(0.840549 -0.0168131 -1.39499e-19)
(1.01636 -0.183183 -1.71438e-19)
(0.95167 -0.0610082 -3.5665e-20)
(1.03792 -0.0286063 5.45196e-19)
(1.12472 0.0380043 3.21525e-19)
(0.995948 0.0537082 3.20764e-20)
(0.764644 0.0288786 0)
(1.2971 -0.307529 3.62017e-19)
(1.41837 -0.274355 1.53082e-18)
(1.59467 -0.153884 -1.66344e-18)
(1.69663 -0.0203929 -5.10183e-19)
(1.5763 0.0311171 3.88368e-19)
)
;

boundaryField
{
    left
    {
        type            fixedValue;
        value           uniform (1 0 0);
    }
    right
    {
        type            zeroGradient;
    }
    down
    {
        type            noSlip;
    }
    up
    {
        type            noSlip;
    }
    cylinder
    {
        type            noSlip;
    }
    defaultFaces
    {
        type            empty;
    }
}


// ************************************************************************* //
