/*--------------------------------*- C++ -*----------------------------------*\
  =========                 |
  \\      /  F ield         | OpenFOAM: The Open Source CFD Toolbox
   \\    /   O peration     | Website:  https://openfoam.org
    \\  /    A nd           | Version:  13
     \\/     M anipulation  |
\*---------------------------------------------------------------------------*/
FoamFile
{
    format      ascii;
    class       surfaceScalarField;
    location    "0.4975";
    object      phi;
}
// * * * * * * * * * * * * * * * * * * * * * * * * * * * * * * * * * * * * * //

dimensions      [0 3 -1 0 0 0 0];

internalField   nonuniform List<scalar> 
3485
(
0.00218742
-0.00504013
0.00285271
0.00870718
-0.0520583
0.0455385
0.018078
-0.101684
0.0923128
0.028499
-0.132574
0.122153
0.0389208
-0.145911
0.135489
0.0489594
-0.149039
0.139
0.0585407
-0.147521
0.137939
0.0676641
-0.144255
0.135132
0.0763097
-0.140379
0.131734
-0.136164
0.127755
0.0847189
0.0026645
-0.00770463
0.00969097
-0.0590848
0.019169
-0.111162
0.0293139
-0.142719
0.0392717
-0.155869
0.048859
-0.158626
0.0581649
-0.156826
0.0673405
-0.153431
0.0766048
-0.149644
-0.145867
0.0863084
0.00309192
-0.0107965
0.0104934
-0.0664863
0.0198462
-0.120514
0.0293811
-0.152254
0.0384093
-0.164897
0.0468743
-0.167091
0.0549135
-0.164866
0.0626621
-0.161179
0.0702077
-0.157189
-0.153183
0.0775236
0.00353077
-0.0143273
0.0112619
-0.0742174
0.0204323
-0.129685
0.0293547
-0.161176
0.0375612
-0.173104
0.0451696
-0.174699
0.0524141
-0.17211
0.0594683
-0.168234
0.0664368
-0.164158
-0.160228
0.0734812
0.00388049
-0.0182078
0.0117432
-0.0820801
0.0204758
-0.138417
0.02851
-0.16921
0.0356015
-0.180195
0.0420174
-0.181115
0.0480567
-0.178149
0.0539113
-0.174088
0.0596927
-0.169939
-0.165993
0.0654583
0.00417194
-0.0223797
0.0120085
-0.0899166
0.0201447
-0.146554
0.0271932
-0.176259
0.0331481
-0.18615
0.0384149
-0.186382
0.0433449
-0.183079
0.0481364
-0.17888
0.0528839
-0.174687
-0.170764
0.0576546
0.00434305
-0.0267228
0.0119216
-0.0974952
0.0192293
-0.153861
0.0251109
-0.182141
0.0297916
-0.190831
0.0337905
-0.190381
0.0374927
-0.186781
0.0410965
-0.182484
0.0446897
-0.17828
-0.174384
0.0483102
0.00439424
-0.031117
0.0114971
-0.104598
0.017788
-0.160152
0.0223968
-0.186749
0.0257563
-0.19419
0.0284694
-0.193094
0.0309303
-0.189242
0.0333244
-0.184878
0.0357251
-0.18068
-0.176816
0.0381563
0.0042981
-0.0354151
0.0106977
-0.110998
0.0157916
-0.165246
0.0190372
-0.189995
0.0210295
-0.196182
0.0224301
-0.194495
0.0236277
-0.19044
0.0247902
-0.18604
0.0259788
-0.181869
-0.178037
0.0271999
0.00405852
-0.0394737
0.00955757
-0.116497
0.0133289
-0.169017
0.0151579
-0.191824
0.0157663
-0.196791
0.0158551
-0.194583
0.0157942
-0.190379
0.0157274
-0.185973
0.0157025
-0.181844
0.0157174
-0.178052
-0.000735053
0.00031427
0.000420783
0.00201248
-0.00724427
0.00449673
0.00953827
-0.0164086
0.00888282
0.0204972
-0.0227337
0.0117748
0.0332221
-0.0258874
0.0131625
0.0465949
-0.0269749
0.013602
0.0600266
-0.0269927
0.013561
0.0732521
-0.0265383
0.0133128
0.0861779
-0.0259196
0.0129937
-0.025459
0.0989531
0.0126838
-0.000644926
0.000959196
0.00223279
-0.010122
0.0098424
-0.0240182
0.0208164
-0.0337077
0.0334998
-0.0385708
0.0467937
-0.0402688
0.0601252
-0.0403241
0.0732401
-0.0396532
0.0860535
-0.0387329
-0.0381217
0.0987161
-0.000517631
0.00147683
0.00254604
-0.0131857
0.010278
-0.0317502
0.0212785
-0.0447082
0.0339088
-0.0512011
0.0470968
-0.0534569
0.060292
-0.0535193
0.0732549
-0.0526162
0.0859119
-0.0513899
-0.0506254
0.0984156
-0.000335188
0.00181201
0.00297899
-0.0164998
0.0108788
-0.03965
0.0219193
-0.0557487
0.0344843
-0.063766
0.0475387
-0.0665112
0.060562
-0.0665426
0.0733347
-0.0653889
0.0857966
-0.0638518
-0.0629277
0.0980989
-0.000109384
0.0019214
0.00354317
-0.0201524
0.0116669
-0.0477737
0.0227635
-0.0668454
0.0352509
-0.0762535
0.048145
-0.0794053
0.0609657
-0.0793633
0.0735192
-0.0779424
0.0857598
-0.0760923
-0.0749934
0.0978255
0.000178312
0.00174309
0.00425336
-0.0242274
0.0126505
-0.0561709
0.0238103
-0.0780052
0.0361997
-0.0886428
0.0489024
-0.092108
0.0614922
-0.0919532
0.0738079
-0.0902581
0.085817
-0.0881014
-0.0867878
0.0976114
0.000540078
0.00120301
0.00510614
-0.0287935
0.0138049
-0.0648697
0.0250113
-0.0892116
0.0372571
-0.100889
0.0497149
-0.104566
0.0620287
-0.104267
0.0740805
-0.10231
0.0858472
-0.0998681
-0.0982446
0.097304
0.000948825
0.000254182
0.00604953
-0.0338942
0.0150384
-0.0738585
0.0262291
-0.100402
0.0382378
-0.112897
0.0503443
-0.116672
0.0622751
-0.116198
0.0739634
-0.113998
0.0853889
-0.111294
-0.109169
0.0963134
0.00135881
-0.00110462
0.00696274
-0.0394981
0.0161505
-0.0830463
0.0271856
-0.111437
0.0387862
-0.124498
0.0503458
-0.128232
0.0616693
-0.127521
0.0727287
-0.125058
0.0834868
-0.122052
-0.119135
0.0934529
0.00174809
0.00778849
0.0170549
0.0277709
0.0387619
0.04953
0.0599481
0.0700223
0.0797042
0.0883235
0.153801
-0.156568
0.101721
0.180868
-0.11073
0.0836626
0.19449
-0.0827667
0.0691442
0.20123
-0.0626178
0.055878
0.204298
-0.0472359
0.0441677
0.205281
-0.0351315
0.0341489
0.205044
-0.0254756
0.0257123
0.204058
-0.0175729
0.0185584
0.202617
-0.0115372
0.0129788
-0.00362315
0.00551966
0.152649
-0.210501
0.17987
-0.13795
0.193783
-0.0966797
0.200775
-0.0696098
0.204042
-0.050503
0.205184
-0.0362736
0.205081
-0.0253723
0.204216
-0.0167083
0.20289
-0.010211
-0.00184762
0.150709
-0.262795
0.177985
-0.165226
0.19224
-0.110934
0.199578
-0.076948
0.203155
-0.0540798
0.204577
-0.0376963
0.204735
-0.0255294
0.204122
-0.0160952
0.203043
-0.00913237
-0.000328499
0.147963
-0.312659
0.175203
-0.192466
0.189859
-0.12559
0.197642
-0.0847309
0.201641
-0.0580786
0.203465
-0.0395207
0.204009
-0.0260732
0.203776
-0.0158626
0.203077
-0.00843357
0.000798639
0.144406
-0.35924
0.171511
-0.219571
0.186641
-0.140721
0.194972
-0.0930615
0.199507
-0.0626132
0.201853
-0.0418666
0.202907
-0.0271274
0.203181
-0.0161364
0.20299
-0.00824346
0.00140069
0.140021
-0.401649
0.166881
-0.24643
0.182586
-0.156426
0.191577
-0.102052
0.196764
-0.0677997
0.199749
-0.0448521
0.201434
-0.0288127
0.202339
-0.0170413
0.202785
-0.00868918
0.00134734
0.134744
-0.439089
0.161244
-0.27293
0.177668
-0.172851
0.18746
-0.111844
0.193421
-0.0737614
0.197165
-0.0485956
0.199601
-0.0312488
0.201256
-0.0186967
0.202459
-0.00989156
0.000512145
0.128563
-0.471338
0.154489
-0.298857
0.171806
-0.190168
0.182597
-0.122635
0.189484
-0.0806478
0.194109
-0.0532209
0.197412
-0.0345524
0.199936
-0.0212199
0.202015
-0.0119707
-0.00122927
0.121632
-0.499517
0.146575
-0.3238
0.164839
-0.208432
0.176885
-0.134681
0.184905
-0.0886678
0.190571
-0.0588866
0.194873
-0.0388549
0.198383
-0.0247292
0.201453
-0.0150408
-0.00399399
0.11491
-0.526104
0.138772
-0.347662
0.157209
-0.226869
0.170387
-0.147859
0.179673
-0.0979541
0.186539
-0.0657528
0.191982
-0.0442972
0.196599
-0.0293467
0.200776
-0.0192175
-0.00789854
0.380365
-0.46454
-0.441929
0.34795
-0.315247
0.331502
-0.21042
0.323571
-0.139928
0.31942
-0.0938031
0.316947
-0.0632805
0.315314
-0.0426635
0.314204
-0.028237
0.31345
-0.0184634
-0.0075767
0.392402
-0.393487
-0.463455
0.356874
-0.27972
0.339013
-0.192558
0.329393
-0.130308
0.323611
-0.0880214
0.319885
-0.059554
0.317389
-0.0401674
0.315715
-0.0265629
0.314605
-0.0173541
-0.00711723
0.408419
-0.327783
-0.474122
0.370351
-0.241652
0.348454
-0.170661
0.33572
-0.117574
0.32786
-0.0801616
0.322774
-0.0544675
0.319395
-0.0367887
0.317161
-0.0243294
0.315701
-0.0158935
-0.00651718
0.418517
-0.266961
-0.47934
0.379996
-0.203131
0.356026
-0.146692
0.341153
-0.1027
0.331641
-0.0706499
0.325391
-0.0482175
0.321229
-0.0326265
0.318487
-0.0215871
0.3167
-0.0141065
-0.00578547
0.425639
-0.211128
-0.481472
0.387549
-0.16504
0.362283
-0.121426
0.345785
-0.0862025
0.334925
-0.0597895
0.327688
-0.0409802
0.322848
-0.0277869
0.319659
-0.018398
0.317583
-0.012031
-0.00493772
0.430543
-0.159832
-0.481839
0.393252
-0.127749
0.367244
-0.0954182
0.349575
-0.0685336
0.337663
-0.0478772
0.329627
-0.0329447
0.324224
-0.022384
0.32066
-0.0148334
0.318337
-0.00970851
-0.00398755
0.433773
-0.112236
-0.481369
0.397364
-0.091339
0.370977
-0.0690319
0.352507
-0.0500632
0.339816
-0.0351868
0.331165
-0.0242935
0.325318
-0.0165365
0.321455
-0.0109701
0.31893
-0.00718401
-0.00295108
0.435254
-0.0668433
-0.480647
0.399587
-0.0556715
0.373122
-0.0425673
0.354219
-0.0311596
0.341043
-0.0220111
0.331992
-0.0152423
0.32585
-0.0103947
0.321782
-0.00690241
0.319118
-0.00451922
-0.00185405
0.427348
-0.0202693
-0.473922
0.392427
-0.02075
0.366793
-0.0169337
0.348372
-0.0127382
0.335439
-0.00907879
0.326512
-0.00631448
0.320437
-0.00431976
0.316413
-0.00287925
0.313775
-0.00188055
-0.000766864
0.309479
-0.329749
0.288729
0.271796
0.259057
0.249979
0.243664
0.239344
0.236465
0.234585
0.472924
0.0137455
-0.470952
0.474122
0.0260022
0.474415
0.0378628
0.473789
0.0489363
0.471654
0.0597902
0.469217
0.0678955
0.463095
0.0796028
0.459642
0.0809767
0.447967
0.0979832
0.0907565
0.453979
0.0118532
-0.452087
0.455968
0.0240138
0.457905
0.0359256
0.459934
0.0469078
0.461371
0.0583524
0.463308
0.0659584
0.463644
0.0792668
0.464772
0.0798495
0.46567
0.0970849
0.0929713
0.437659
0.00994127
-0.435747
0.440208
0.021465
0.443287
0.0328467
0.446935
0.0432595
0.450927
0.0543609
0.455265
0.0616204
0.460176
0.0743554
0.464231
0.075795
0.470383
0.0909328
0.0892323
0.425136
0.00805233
-0.423247
0.428011
0.0185901
0.431823
0.0290353
0.436481
0.0386011
0.442116
0.0487258
0.44808
0.0556567
0.455662
0.0667733
0.462296
0.0691603
0.471607
0.0816223
0.0814992
0.415361
0.00618664
-0.413495
0.418462
0.0154894
0.422786
0.0247106
0.428176
0.0332111
0.434878
0.0420239
0.442111
0.0484241
0.451262
0.0576224
0.459907
0.0605151
0.471144
0.0703853
0.0711711
0.407972
0.00431587
-0.406102
0.411251
0.012211
0.415931
0.0200308
0.421847
0.027295
0.429218
0.0346528
0.437367
0.0402747
0.447404
0.0475857
0.457414
0.0505053
0.469767
0.0580314
0.0590993
0.402562
0.00240592
-0.400652
0.406002
0.00877102
0.410957
0.0150754
0.417276
0.020976
0.425091
0.0268376
0.433884
0.0314816
0.44442
0.0370501
0.455325
0.0396004
0.46826
0.045096
0.0459908
0.397548
0.000251946
-0.395394
0.401282
0.00503684
0.40665
0.00970745
0.413495
0.014131
0.421837
0.0184953
0.431279
0.0220399
0.442243
0.0260858
0.453803
0.0280406
0.46709
0.0318089
0.0324335
0.377294
-0.00164644
-0.375396
0.381453
0.000878152
0.387689
0.00347164
0.395829
0.00599109
0.405799
0.00852498
0.417137
0.0107015
0.430064
0.0131588
0.44362
0.0144851
0.458632
0.0167968
0.0171432
0.238597
-0.240244
0.239475
0.242947
0.248938
0.257463
0.268165
0.281324
0.295809
0.312605
0.0774867
0.127811
-0.115738
-0.0895599
0.0664284
0.129727
-0.118669
0.0562778
0.132482
-0.122332
0.0465248
0.136168
-0.126415
0.0367935
0.140285
-0.130554
0.0269674
0.144145
-0.134319
0.0172753
0.145493
-0.135801
0.00853491
0.137633
-0.128893
0.00227715
0.108486
-0.102229
0.0484893
-0.0462122
0.0792944
0.138863
-0.0903472
0.0679746
0.141047
0.0570091
0.143448
0.0465076
0.146669
0.0363012
0.150492
0.0262774
0.154169
0.01662
0.155151
0.00808632
0.146167
0.00209458
0.114478
0.0505839
0.0729513
0.14828
-0.0823683
0.0630193
0.150979
0.0529611
0.153506
0.0430254
0.156605
0.0332559
0.160261
0.023678
0.163747
0.0145625
0.164266
0.00672253
0.154007
0.0015051
0.119696
0.052089
0.0616577
0.155886
-0.0692633
0.0536237
0.159013
0.0452155
0.161914
0.0366038
0.165217
0.0279194
0.168946
0.0193182
0.172348
0.0112129
0.172372
0.00455166
0.160668
0.000616925
0.12363
0.0527059
0.0492602
0.162029
-0.0554028
0.0428277
0.165446
0.0359935
0.168748
0.0288268
0.172383
0.0214552
0.176317
0.0141011
0.179702
0.00727817
0.179194
0.00203129
0.165915
-0.000332367
0.125994
0.0523735
0.0375266
0.167096
-0.0425941
0.0322791
0.170693
0.0267088
0.174319
0.0208295
0.178263
0.0147436
0.182403
0.00869956
0.185746
0.00330001
0.184594
-0.000511181
0.169726
-0.00124087
0.126724
0.0511327
0.0265506
0.171276
-0.0307301
0.0222702
0.174973
0.0177664
0.178822
0.0130359
0.182993
0.00816535
0.187274
0.00341708
0.190494
-0.00062976
0.188641
-0.00260157
0.171698
-0.0020209
0.126143
0.0491118
0.0159334
0.174539
-0.0191968
0.0126098
0.178297
0.00913732
0.182295
0.00552112
0.18661
0.00185241
0.190943
-0.0015903
0.193937
-0.00405729
0.191108
-0.00466942
0.17231
-0.00269366
0.124167
0.0464181
0.00540597
0.176835
-0.00770218
0.00308563
0.180617
0.000684246
0.184696
-0.00178766
0.189081
-0.00423164
0.193387
-0.00632091
0.196026
-0.00740435
0.192191
-0.00648386
0.17139
-0.00324873
0.120932
0.0431694
-0.00510782
0.00389141
-0.00633464
-0.00761174
-0.00890944
-0.0101063
-0.0108706
-0.0105034
-0.0081311
-0.00369572
0.103645
0.0240994
-0.114966
-0.0127776
0.0920033
0.0247255
-0.0130843
0.0800077
0.0253997
-0.0134041
0.067634
0.0261189
-0.0137451
0.0548705
0.026876
-0.0141125
0.0417288
0.0276336
-0.0144919
0.0283662
0.0281261
-0.0147634
0.0154943
0.0273025
-0.0144306
0.00499783
0.0227438
-0.0122474
0.0112793
-0.0062815
0.102877
0.035406
-0.114184
0.0912662
0.0363362
0.0793157
0.0373502
0.0670014
0.0384332
0.0543116
0.0395658
0.0412583
0.0406869
0.028002
0.0413823
0.0152585
0.040046
0.00490165
0.0331007
0.016181
0.101761
0.0466827
-0.113038
0.0902029
0.0478943
0.0783242
0.049229
0.0661004
0.0506569
0.053519
0.0521472
0.0405927
0.0536132
0.0274878
0.0544872
0.0149266
0.0526072
0.00476666
0.0432606
0.0209476
0.100186
0.0579033
-0.111406
0.0887138
0.059366
0.0769451
0.0609976
0.0648538
0.0627483
0.0524262
0.0645748
0.0396767
0.0663627
0.0267793
0.0673846
0.0144671
0.0649193
0.00457762
0.0531502
0.0255253
0.0979902
0.0690242
-0.109111
0.0866624
0.0706938
0.0750723
0.0725878
0.0631872
0.0746334
0.0509869
0.0767752
0.0384843
0.0788653
0.0258639
0.080005
0.0138752
0.0769081
0.00433646
0.0626889
0.0298617
0.0949487
0.0799668
-0.105891
0.0838377
0.0818048
0.0724913
0.0839342
0.0608813
0.0862434
0.0489904
0.0886661
0.0368338
0.0910219
0.0246045
0.0922343
0.0130639
0.0884487
0.00400217
0.0717506
0.0338639
0.091263
0.0905241
-0.10182
0.0806104
0.0924574
0.0697299
0.0948146
0.0585492
0.0974241
0.0470435
0.100172
0.0352477
0.102818
0.0233956
0.104086
0.0122913
0.099553
0.003701
0.0803408
0.0375649
0.0846755
0.100623
-0.0947742
0.074564
0.102569
0.0643434
0.105035
0.0539348
0.107833
0.0432582
0.110848
0.0322976
0.113778
0.0212699
0.115114
0.0109873
0.109836
0.00318167
0.0881465
0.0407465
0.0822313
0.109319
-0.0909279
0.0731009
0.111699
0.063286
0.11485
0.0529526
0.118166
0.0422583
0.121543
0.0313275
0.124709
0.0204459
0.125996
0.0104446
0.119837
0.0029849
0.0956061
0.0437314
0.0692863
-0.0757044
0.0623165
0.054835
0.0465861
0.0375748
0.0279649
0.0181593
0.00910324
0.0024807
0.202121
0.0121534
-0.0162851
0.204772
0.0283537
-0.0310043
0.205337
0.0350697
-0.0356348
0.20629
0.0369084
-0.0378616
0.205404
0.0433909
-0.0425042
0.202924
0.052025
-0.0495453
0.196812
0.064845
-0.0587327
0.186159
0.0817541
-0.0711014
0.160475
0.109994
-0.0843106
0.146941
-0.101432
0.201848
0.00829512
0.204351
0.0258512
0.204863
0.0345569
0.205758
0.0360135
0.204795
0.0443536
0.20218
0.0546404
0.19593
0.0710951
0.184947
0.0927365
0.159313
0.135629
0.192071
0.20145
0.00483524
0.203662
0.0236388
0.204027
0.0341922
0.20472
0.0353199
0.203557
0.0455175
0.200679
0.0575179
0.194209
0.0775649
0.182764
0.104182
0.157366
0.161027
0.236398
0.200921
0.00190359
0.20271
0.02185
0.202837
0.0340652
0.203188
0.034969
0.201701
0.047005
0.198438
0.0607809
0.191656
0.0843466
0.179593
0.116245
0.154678
0.185943
0.27967
0.200258
-0.000365044
0.2015
0.020608
0.201307
0.0342583
0.201175
0.0351017
0.199245
0.048935
0.195475
0.0645503
0.188279
0.0915423
0.175414
0.12911
0.151313
0.210044
0.321871
0.199455
-0.00183012
0.200038
0.0200249
0.199451
0.0348454
0.198694
0.0358586
0.196208
0.0514209
0.191813
0.0689458
0.184089
0.0992661
0.170232
0.142967
0.147283
0.232993
0.363263
0.198503
-0.00234348
0.198333
0.0201948
0.197287
0.0358919
0.195765
0.0373808
0.192615
0.0545709
0.18747
0.0740903
0.179076
0.107661
0.164161
0.157882
0.142675
0.254478
0.404118
0.197402
-0.00175537
0.196401
0.021195
0.194831
0.0374628
0.192402
0.0398091
0.18849
0.0584829
0.182471
0.08011
0.1732
0.116931
0.157122
0.17396
0.136681
0.274919
0.446025
0.19616
7.44308e-05
0.194273
0.0230818
0.192104
0.0396323
0.188628
0.0432851
0.183862
0.0632488
0.176879
0.0870933
0.166724
0.127085
0.150467
0.190217
0.131797
0.293589
0.486895
0.194899
0.00316495
0.192012
0.0259696
0.189134
0.04251
0.184405
0.0480139
0.178597
0.0690567
0.170167
0.0955228
0.158121
0.139132
0.140256
0.208081
0.121456
0.312389
0.532646
0.303441
0.00173443
0.306875
0.0225358
0.310768
0.0386163
0.313395
0.0453876
0.316444
0.0660077
0.319902
0.0920644
0.325451
0.133583
0.336629
0.196904
0.36267
0.286348
0.470998
0.424319
0.304293
-0.0005488
0.308039
0.01879
0.312496
0.0341596
0.315941
0.0419427
0.320411
0.0615374
0.326072
0.0864041
0.335045
0.124609
0.351057
0.180892
0.380692
0.256714
0.407718
0.443972
0.305148
-0.00368674
0.30941
0.0145283
0.314248
0.0293213
0.318489
0.0377015
0.324156
0.0558709
0.331672
0.0788877
0.343353
0.112929
0.362153
0.162092
0.39555
0.223317
0.344548
0.458719
0.306058
-0.00773412
0.310849
0.00973676
0.315974
0.0241963
0.320902
0.0327737
0.327587
0.0491859
0.336656
0.069819
0.350407
0.0991772
0.37132
0.141178
0.40617
0.188467
0.283814
0.466905
0.307066
-0.0127899
0.312375
0.00442746
0.317644
0.0189275
0.323111
0.0273066
0.330628
0.0416687
0.340955
0.0594924
0.356232
0.0839003
0.378762
0.118648
0.413429
0.1538
0.226535
0.470708
0.308245
-0.0190246
0.314042
-0.00136943
0.319243
0.0137267
0.325074
0.0214755
0.333236
0.0335064
0.344536
0.0481921
0.360897
0.0675395
0.384569
0.0949767
0.418279
0.12009
0.17291
0.471903
0.309652
-0.0266662
0.315872
-0.0075894
0.32074
0.0088583
0.326735
0.0154804
0.335367
0.0248748
0.347379
0.0361803
0.364482
0.0504364
0.388875
0.0705833
0.421433
0.0875319
0.122602
0.471742
0.311414
-0.0360701
0.317859
-0.0140344
0.321969
0.00474802
0.327867
0.00958245
0.336808
0.015934
0.349309
0.0236793
0.366925
0.0328208
0.391714
0.0457944
0.423332
0.0559142
0.0751852
0.470748
0.309572
-0.0436321
0.314474
-0.0189361
0.317721
0.00150055
0.323578
0.00372613
0.332696
0.00681534
0.345529
0.0108467
0.363521
0.0148286
0.388431
0.0208843
0.419775
0.0245705
0.0325681
0.462392
0.258378
0.239442
0.240943
0.244669
0.251484
0.262331
0.277159
0.298044
0.322614
0.355182
0.439082
-0.104323
0.444996
-0.0962614
0.447991
-0.0853633
0.45058
-0.0718525
0.453665
-0.0584879
0.457301
-0.0462298
0.461183
-0.0346125
0.464907
-0.02292
0.468153
-0.0109484
0.00109194
0.445165
-0.105516
0.4444
-0.0954968
0.443281
-0.0842437
0.443289
-0.0718607
0.444269
-0.0594685
0.445676
-0.0476361
0.447192
-0.0361287
0.448787
-0.0245149
0.45046
-0.0126221
-0.000534892
0.452556
-0.0993535
0.447311
-0.0902514
0.442616
-0.079549
0.439013
-0.0682572
0.436539
-0.056995
0.434949
-0.0460455
0.434109
-0.0352894
0.433995
-0.0243999
0.434562
-0.01319
-0.00171954
0.456534
-0.0889834
0.447589
-0.0813058
0.439906
-0.0718659
0.433738
-0.0620892
0.429125
-0.0523825
0.425835
-0.0427552
0.423656
-0.0331108
0.422504
-0.0232479
0.422365
-0.0130504
-0.00260218
0.457997
-0.0762721
0.446828
-0.0701375
0.437322
-0.0623593
0.42953
-0.0542972
0.423409
-0.0462616
0.418796
-0.0381429
0.415542
-0.0298562
0.413583
-0.0212895
0.412911
-0.0123777
-0.00318671
0.457944
-0.0623129
0.445458
-0.0576514
0.434753
-0.051654
0.425857
-0.0454014
0.418707
-0.039112
0.413198
-0.0326336
0.409222
-0.0258806
0.406724
-0.0187914
0.405687
-0.0113399
-0.00360168
0.457044
-0.0476149
0.443771
-0.0443788
0.432315
-0.0401978
0.422726
-0.0358118
0.414929
-0.0313152
0.408846
-0.0265511
0.404404
-0.0214382
0.401561
-0.0159485
0.400314
-0.0100926
-0.00393991
0.455383
-0.0322496
0.441438
-0.0304343
0.429393
-0.0281521
0.419266
-0.0256856
0.410969
-0.0230174
0.404429
-0.0200114
0.399599
-0.0166084
0.396469
-0.0128186
0.395057
-0.00868085
-0.00427635
0.445357
-0.0152151
0.43008
-0.0151572
0.41681
-0.0148819
0.405454
-0.0143297
0.395884
-0.0134477
0.388047
-0.0121744
0.381977
-0.0105383
0.377771
-0.00861273
0.37555
-0.00645966
-0.00412192
0.339967
0.32481
0.309928
0.295598
0.282151
0.269976
0.259438
0.250825
0.244366
0.0101467
0.0505746
-0.0607212
0.0212967
0.150339
-0.161489
0.0262916
0.214961
-0.219956
0.0260029
0.241768
-0.24148
0.0229632
0.247785
-0.244745
0.0189082
0.246155
-0.2421
0.0145759
0.242505
-0.238173
0.0102591
0.237773
-0.233457
0.00632012
0.229521
-0.225582
0.210389
0.00367652
-0.207746
0.0117743
0.0388003
0.0276178
0.134496
0.037948
0.204631
0.0424138
0.237302
0.0434846
0.246714
0.0432396
0.2464
0.0426421
0.243103
0.0418008
0.238615
0.0400765
0.231245
0.214433
0.0360331
0.0122169
0.0265834
0.0314965
0.115216
0.0468413
0.189286
0.0563378
0.227806
0.061971
0.241081
0.0659497
0.242421
0.069501
0.239552
0.0727978
0.235318
0.0746991
0.229344
0.217418
0.0717137
0.0114392
0.0151442
0.0321476
0.0945076
0.0512873
0.170147
0.0654744
0.213619
0.0757542
0.230801
0.0841077
0.234067
0.0919237
0.231736
0.0996593
0.227582
0.106541
0.222462
0.214908
0.109051
0.00968189
0.00546227
0.0295593
0.0746303
0.0505563
0.14915
0.0683669
0.195808
0.0828616
0.216306
0.0954005
0.221529
0.107272
0.219864
0.119151
0.215703
0.130921
0.210692
0.204987
0.140843
0.00733923
-0.00187696
0.0244847
0.0574848
0.045148
0.128487
0.0648894
0.176067
0.0825003
0.198696
0.0984794
0.205549
0.113727
0.204617
0.128909
0.200521
0.144315
0.195286
0.189338
0.159964
0.00485372
-0.00673068
0.0182774
0.0440611
0.0369126
0.109851
0.0568455
0.156134
0.0761398
0.179401
0.0944418
0.187247
0.112092
0.186967
0.129533
0.183079
0.147023
0.177796
0.171166
0.165195
0.0025496
-0.00928029
0.0122278
0.0343829
0.0279881
0.094091
0.0467127
0.137409
0.06613
0.159984
0.0852297
0.168148
0.103794
0.168402
0.121927
0.164946
0.139862
0.159861
0.153304
0.157725
0.00079654
-0.0100768
0.00750684
0.0276726
0.0205471
0.0810507
0.0375709
0.120385
0.0562942
0.141261
0.0753662
0.149076
0.0942164
0.149552
0.112712
0.146451
0.130961
0.141612
0.134548
0.149717
-0.000327432
-0.0097494
0.00432531
0.0230199
0.0151607
0.0702152
0.0303361
0.10521
0.0476494
0.123947
0.0655694
0.131156
0.0832456
0.131875
0.100269
0.129427
0.116282
0.1256
0.119771
0.131059
-0.000838709
-0.00891069
0.00267121
0.01951
0.0121051
0.0607814
0.0259052
0.09141
0.0420332
0.107819
0.0590056
0.114183
0.0759703
0.114911
0.0925281
0.112869
0.108485
0.109642
0.106373
0.121883
-0.00101305
-0.00789763
0.00200679
0.0164901
0.0106668
0.0521214
0.0235517
0.078525
0.0387566
0.0926144
0.0548828
0.0980571
0.0711142
0.0986795
0.0870418
0.0969414
0.102493
0.0941911
0.0923264
0.11654
-0.00104842
-0.00684922
0.00172928
0.0137124
0.00989288
0.0439578
0.0220769
0.066341
0.0364582
0.0782331
0.0517133
0.082802
0.0670733
0.0833195
0.0821446
0.0818701
0.0967445
0.0795912
0.0784159
0.110655
-0.00103013
-0.00581909
0.0016194
0.0110629
0.009458
0.0361192
0.0211349
0.0546642
0.0348774
0.0644906
0.0494213
0.0682581
0.0640414
0.0686994
0.0783656
0.067546
0.0922138
0.065743
0.0649432
0.105686
-0.000990326
-0.00482877
0.0015999
0.00847266
0.00924232
0.0284768
0.0205911
0.0433154
0.0339049
0.0511768
0.0479635
0.0541995
0.062081
0.0545819
0.0759142
0.0537128
0.0893069
0.0523503
0.0518021
0.102448
-0.000954944
-0.00387382
0.00161275
0.00590497
0.00914205
0.0209475
0.0202935
0.0321639
0.033347
0.0381233
0.0471136
0.0404329
0.0609384
0.0407571
0.0745043
0.0401469
0.0876786
0.039176
0.0388294
0.100651
-0.000921082
-0.00295274
0.0016418
0.00334209
0.00911007
0.0134792
0.0201509
0.0211231
0.0330591
0.0252151
0.0466665
0.0268255
0.0603389
0.0270846
0.073777
0.0267089
0.0868627
0.0260902
0.0259228
0.0997693
-0.000885456
-0.00206729
0.00168843
0.000768204
0.00913157
0.00603606
0.0201159
0.0101387
0.0329473
0.0123838
0.0464713
0.0133015
0.0600674
0.0134885
0.0734474
0.0133289
0.0865014
0.0130362
0.0130351
0.0993892
-0.000846984
-0.0012203
0.00175791
-0.0018367
0.00920391
-0.00140994
0.0201638
-0.000821155
0.0329524
-0.000404843
0.0464266
-0.000172718
0.0599759
-6.07981e-05
0.0733198
-1.50265e-05
0.0863536
2.36032e-06
0.000160544
0.0992282
-0.000799519
0.00186052
0.00933339
0.020287
0.0330447
0.046474
0.0599742
0.073272
0.086268
0.0991124
0.138045
0.298115
-0.314277
0.150093
0.124743
-0.136792
0.159656
0.0420515
-0.0516143
0.167309
0.00503456
-0.0126876
0.173706
-0.00912548
0.00272887
0.179391
-0.0132454
0.00756035
0.184607
-0.0131679
0.0079518
0.189449
-0.0114473
0.00660532
0.193981
-0.00942497
0.00489226
-0.00614944
0.00210326
0.139374
0.27528
0.155616
0.108502
0.166421
0.031246
0.173774
-0.00231844
0.179359
-0.0147101
0.184045
-0.017932
0.188178
-0.0173001
0.191889
-0.0151588
0.195275
-0.0128106
-0.00906072
0.141437
0.244498
0.160783
0.089156
0.172243
0.0197856
0.179374
-0.00944846
0.184369
-0.0197056
0.188239
-0.0218017
0.191424
-0.0204853
0.194126
-0.0178612
0.196482
-0.0151658
-0.0109472
0.144057
0.206127
0.165556
0.0676572
0.177471
0.00787062
0.184416
-0.0163935
0.18887
-0.0241596
0.192006
-0.0249378
0.19435
-0.0228293
0.196159
-0.0196695
0.1976
-0.0166071
-0.0119226
0.146788
0.161788
0.169806
0.0446389
0.182059
-0.00438268
0.188833
-0.0231669
0.192832
-0.0281588
0.195334
-0.0274398
0.196948
-0.0244432
0.19798
-0.0207012
0.198626
-0.017254
-0.012105
0.149282
0.113157
0.173461
0.02046
0.185987
-0.0169087
0.19262
-0.0298
0.196237
-0.0317761
0.198206
-0.0294087
0.199205
-0.0254421
0.199581
-0.0210774
0.199556
-0.0172293
-0.0116165
0.151363
0.0615638
0.176462
-0.0046394
0.189217
-0.0296634
0.195748
-0.036331
0.199065
-0.035093
0.200607
-0.0309509
0.20111
-0.0259449
0.200955
-0.0209227
0.200385
-0.0166592
-0.0105831
0.152927
0.00802607
0.178757
-0.0304697
0.19171
-0.0426165
0.198191
-0.0428115
0.201297
-0.0381994
0.202524
-0.0321776
0.202653
-0.026074
0.202095
-0.0203647
0.201109
-0.0156729
-0.00913407
0.153888
-0.0466342
0.180283
-0.0568642
0.193437
-0.055771
0.199929
-0.049303
0.20292
-0.0411906
0.203947
-0.0332042
0.203827
-0.0259543
0.202995
-0.0195329
0.201724
-0.0144017
-0.00740161
0.154199
0.180997
0.194371
0.200946
0.203923
0.204867
0.204625
0.203651
0.202228
0.105634
-0.00404155
-0.101592
0.104585
0.00104891
0.103118
0.0014673
0.103223
-0.000105284
0.104261
-0.00103816
0.105469
-0.00120819
0.10654
-0.00107074
0.107371
-0.000831372
0.10795
-0.000578489
-0.000235362
0.230332
0.0634599
-0.297833
0.199029
0.0323517
0.187109
0.0133875
0.183931
0.00307276
0.184188
-0.00129585
0.185607
-0.00262641
0.187183
-0.00264686
0.188517
-0.00216519
0.189511
-0.00157297
-0.000662559
0.251779
0.155293
-0.343613
0.213966
0.0701648
0.20005
0.0273037
0.196227
0.00689593
0.196349
-0.00141749
0.197808
-0.0040861
0.199481
-0.00431993
0.200915
-0.00359882
0.201999
-0.00265648
-0.001134
0.247535
0.240994
-0.333236
0.21271
0.10499
0.200084
0.03993
0.196855
0.0101248
0.197291
-0.00185362
0.198912
-0.00570767
0.200672
-0.00607951
0.20215
-0.00507646
0.203257
-0.00376359
-0.00161508
0.242221
-0.315503
0.210419
0.198735
0.196172
0.197048
0.1989
0.200773
0.202301
0.20343
0.0119001
0.000633162
-0.0125333
0.0123012
-0.000401084
0.0131802
-0.000878926
0.0141174
-0.000937274
0.0158428
-0.00172534
0.0195838
-0.00374105
0.0303902
-0.0108063
0.0456375
-0.0152473
0.0729992
-0.0273617
-0.028593
0.0344405
0.00147277
-0.0352801
0.0375154
-0.00347603
0.0447815
-0.00814507
0.057956
-0.0141118
0.0796305
-0.0233998
0.111791
-0.0359016
0.155338
-0.0543536
0.202191
-0.0621005
0.254946
-0.0801162
-0.0714804
0.0562004
0.00140693
-0.0561345
0.0633254
-0.010601
0.0788941
-0.0237138
0.1053
-0.0405177
0.143216
-0.0613158
0.190073
-0.0827587
0.238689
-0.102969
0.282089
-0.105501
0.318321
-0.116347
-0.0967725
0.0758768
-0.000238379
-0.0742315
0.0870462
-0.0217704
0.109318
-0.0459854
0.143137
-0.0743373
0.185077
-0.103256
0.228407
-0.126088
0.264589
-0.139151
0.294451
-0.135363
0.315815
-0.137711
-0.114193
0.0920602
-0.0886221
0.106323
0.132051
0.166764
0.204352
0.238227
0.264271
0.286633
0.298638
0.091047
-0.0880232
0.0970712
-0.100095
0.082199
-0.0906347
0.0994827
0.0732605
-0.0941142
0.103053
0.063501
-0.0977016
0.107461
0.0526386
-0.101204
0.112067
0.040719
-0.104497
0.116417
0.02805
-0.10646
0.119129
0.0154931
-0.102625
0.115182
0.00505166
-0.0835943
0.0940357
-0.0396574
0.0447091
0.104782
-0.0780887
-0.114716
0.0942318
-0.0800846
0.0826236
-0.082506
0.0701154
-0.0851933
0.056966
-0.0880548
0.0433689
-0.0909002
0.0295585
-0.0926493
0.0162553
-0.0893219
0.00532981
-0.0726688
-0.0343276
0.101396
-0.066751
-0.112734
0.0898534
-0.0685417
0.0780827
-0.0707353
0.0660594
-0.0731701
0.0537089
-0.0757043
0.0409636
-0.0781549
0.0279247
-0.0796105
0.0152788
-0.076676
0.00491364
-0.0623036
-0.029414
0.103823
-0.0554215
-0.115152
0.0923021
-0.0570213
0.0804524
-0.0588856
0.0681799
-0.0608976
0.0554408
-0.0629652
0.0422471
-0.0649612
0.028775
-0.0661383
0.0157621
-0.0636631
0.00511284
-0.0516543
-0.0243011
0.104327
-0.0440081
-0.11574
0.092633
-0.0453276
0.0805892
-0.0468418
0.0681614
-0.0484698
0.0553347
-0.0501384
0.0421181
-0.0517446
0.0286648
-0.052685
0.0156829
-0.0506812
0.00506476
-0.0410362
-0.0192364
0.104638
-0.032612
-0.116034
0.0929391
-0.0336287
0.0808831
-0.0347859
0.0684372
-0.0360238
0.0555827
-0.0372839
0.0423269
-0.0384888
0.028825
-0.0391831
0.0157888
-0.0376451
0.00511578
-0.0303632
-0.0141206
0.104741
-0.0212431
-0.11611
0.0930467
-0.0219341
0.0809826
-0.0227218
0.0685214
-0.0235626
0.0556495
-0.0244121
0.0423777
-0.0252169
0.0288603
-0.0256658
0.015807
-0.0245918
0.00511995
-0.0196761
-0.00900064
0.104694
-0.00989075
-0.116047
0.0930076
-0.0102472
0.0809487
-0.0106628
0.068492
-0.0111059
0.0556255
-0.0115456
0.0423599
-0.0119512
0.0288491
-0.012155
0.0158021
-0.0115447
0.00512016
-0.0089942
-0.00388048
0.104501
0.00144612
-0.115838
0.0928279
0.00142563
0.0807833
0.00138177
0.0683428
0.00133456
0.0554955
0.00130176
0.0422524
0.00129186
0.0287681
0.00132927
0.0157514
0.00147194
0.00510046
0.00165672
0.00121998
0.104147
-0.115479
0.0924887
0.0804663
0.0680558
0.055245
0.0420449
0.0286108
0.0156522
0.00506152
0.0253538
-0.205543
-0.0275562
0.0193586
-0.219586
0.0120688
-0.226167
0.00454561
-0.23065
-0.00276708
-0.234787
-0.00931347
-0.238199
-0.013713
-0.23708
-0.0137098
-0.219959
-0.00765371
-0.167545
-0.0683749
0.0544919
-0.201132
-0.0589034
0.0457525
-0.210847
0.0357072
-0.216122
0.0254932
-0.220436
0.0154877
-0.224781
0.00605177
-0.228763