/*--------------------------------*- C++ -*----------------------------------*\
  =========                 |
  \\      /  F ield         | OpenFOAM: The Open Source CFD Toolbox
   \\    /   O peration     | Website:  https://openfoam.org
    \\  /    A nd           | Version:  13
     \\/     M anipulation  |
\*---------------------------------------------------------------------------*/
FoamFile
{
    format      ascii;
    class       volVectorField;
    location    "0.4975";
    object      U;
}
// * * * * * * * * * * * * * * * * * * * * * * * * * * * * * * * * * * * * * //

dimensions      [0 1 -1 0 0 0 0];

internalField   nonuniform List<vector> 
1800
(
(0.0339932 -0.0345605 1.39995e-19)
(0.464998 -0.39507 6.47643e-20)
(0.944347 -0.766664 -3.55e-19)
(1.2625 -0.983773 4.76623e-19)
(1.41982 -1.06009 1.27672e-18)
(1.48131 -1.05457 5.69609e-19)
(1.49713 -1.01281 -3.00193e-19)
(1.49351 -0.959209 -7.66383e-19)
(1.48406 -0.899509 -4.04949e-19)
(1.45193 -0.848743 -3.31783e-19)
(0.0604915 -0.0504757 5.80414e-20)
(0.564284 -0.405917 -2.98507e-19)
(1.09886 -0.757787 4.13768e-21)
(1.44115 -0.956862 -4.33235e-19)
(1.60166 -1.02227 1.17615e-19)
(1.65747 -1.01162 1.30408e-18)
(1.66573 -0.967958 -9.58155e-19)
(1.65596 -0.913376 4.90784e-19)
(1.64147 -0.855241 8.10756e-19)
(1.61862 -0.811086 -4.16608e-19)
(0.0943227 -0.0656387 7.04776e-21)
(0.672339 -0.406957 8.95742e-20)
(1.25644 -0.730353 2.7232e-19)
(1.61616 -0.906988 -2.71628e-19)
(1.77481 -0.960985 -1.50325e-18)
(1.82137 -0.947155 3.49084e-19)
(1.81896 -0.90515 6.27076e-19)
(1.79891 -0.855028 -7.45841e-20)
(1.77463 -0.80346 -5.33599e-21)
(1.74163 -0.762067 -3.35988e-20)
(0.135428 -0.0781929 -1.08624e-20)
(0.787232 -0.395209 -1.03349e-19)
(1.41372 -0.681711 -2.39464e-19)
(1.78442 -0.831912 6.78124e-20)
(1.93795 -0.873492 3.9085e-19)
(1.97472 -0.856498 3.58154e-20)
(1.96271 -0.815922 -2.53242e-20)
(1.93449 -0.768858 5.76049e-19)
(1.90311 -0.720809 4.80396e-19)
(1.86702 -0.684035 -1.62417e-19)
(0.183491 -0.0867747 1.07418e-19)
(0.906554 -0.369899 1.63851e-19)
(1.56637 -0.613329 -7.82877e-20)
(1.94037 -0.735434 -9.17906e-20)
(2.08463 -0.765758 -1.17793e-18)
(2.1101 -0.747965 1.07016e-20)
(2.08838 -0.711642 9.74197e-19)
(2.05236 -0.670777 3.31943e-19)
(2.01439 -0.630026 2.08083e-20)
(1.97392 -0.598282 -2.12976e-19)
(0.237241 -0.0894577 -7.60295e-20)
(1.0264 -0.328869 2.23021e-19)
(1.70934 -0.524281 9.61624e-19)
(2.07934 -0.617539 -7.65563e-19)
(2.21133 -0.637705 -8.56156e-19)
(2.22524 -0.620366 1.47475e-18)
(2.19467 -0.589136 -1.07162e-18)
(2.15194 -0.554834 -1.19777e-18)
(2.1085 -0.521021 8.63352e-19)
(2.06482 -0.495171 -2.93107e-20)
(0.295157 -0.0849286 8.25559e-20)
(1.14297 -0.271958 -5.46295e-19)
(1.83823 -0.416783 -2.57119e-18)
(2.19737 -0.482346 1.28088e-18)
(2.31471 -0.494665 2.16709e-18)
(2.31722 -0.479874 -6.4209e-21)
(2.27899 -0.45544 -2.89254e-18)
(2.23099 -0.42909 2.69586e-21)
(2.1835 -0.403435 2.61271e-18)
(2.13736 -0.384001 6.87182e-19)
(0.354898 -0.0719601 -1.96993e-21)
(1.25146 -0.199046 4.33543e-19)
(1.94814 -0.292524 2.00962e-18)
(2.29063 -0.332592 -6.4919e-20)
(2.39199 -0.339522 -1.39781e-18)
(2.38394 -0.32892 -4.44005e-19)
(2.33945 -0.312297 0)
(2.28751 -0.294547 1.01496e-18)
(2.23717 -0.277428 4.66343e-21)
(2.18949 -0.264987 -8.31137e-19)
(0.413848 -0.0500003 2.6314e-21)
(1.34747 -0.111441 9.28988e-19)
(2.03526 -0.154797 1.82247e-18)
(2.35672 -0.172628 -1.90843e-18)
(2.44181 -0.176868 -1.43441e-18)
(2.42452 -0.172008 4.50092e-19)
(2.37541 -0.16407 -1.90448e-18)
(2.32106 -0.155416 -1.31328e-18)
(2.26922 -0.147089 1.55024e-18)
(2.22091 -0.141808 1.32058e-18)
(0.469068 -0.0190949 1.11371e-19)
(1.42672 -0.0111297 6.40368e-19)
(2.09626 -0.00708864 3.44407e-19)
(2.39386 -0.00654305 -2.78292e-18)
(2.46321 -0.010591 3.04464e-20)
(2.43841 -0.0126916 4.28386e-18)
(2.38639 -0.0139417 -2.29242e-18)
(2.33108 -0.0145832 -1.27591e-18)
(2.27902 -0.0150186 4.23565e-19)
(2.23103 -0.0168955 -9.59205e-19)
(-0.00321525 -0.000620168 9.82541e-20)
(-0.00195438 -0.0733366 5.3918e-20)
(0.034861 -0.156856 -1.6521e-21)
(0.0902195 -0.212564 -8.70261e-21)
(0.153852 -0.238632 -2.43866e-21)
(0.218357 -0.245734 -6.77809e-20)
(0.279785 -0.243207 7.54849e-21)
(0.336708 -0.236574 -2.22278e-21)
(0.388599 -0.228645 3.22473e-21)
(0.436936 -0.221951 -8.26903e-21)
(-0.00416253 0.00778222 2.85524e-20)
(0.00882269 -0.107977 7.39794e-20)
(0.059815 -0.247398 -1.01651e-19)
(0.124705 -0.340864 -4.75561e-20)
(0.192547 -0.383537 -7.83569e-20)
(0.257893 -0.393469 -1.05357e-19)
(0.318472 -0.386815 5.6831e-20)
(0.373846 -0.373186 4.95591e-21)
(0.423837 -0.357557 -2.24201e-20)
(0.471142 -0.345347 -2.6051e-21)
(-0.00620255 0.0146567 -4.33162e-20)
(0.0257118 -0.143011 1.69029e-19)
(0.100049 -0.335533 6.92247e-20)
(0.180677 -0.464315 2.70647e-19)
(0.255489 -0.522145 5.40644e-20)
(0.322245 -0.534247 -3.45615e-19)
(0.381447 -0.523296 -1.81945e-20)
(0.434295 -0.502762 1.25719e-19)
(0.481201 -0.479718 -6.94401e-20)
(0.526941 -0.462134 -2.04469e-20)
(-0.00881992 0.0193696 -1.16633e-19)
(0.0492885 -0.17831 -2.78352e-20)
(0.155688 -0.419796 3.25481e-20)
(0.257751 -0.580368 -1.38183e-19)
(0.341931 -0.651307 7.09216e-20)
(0.410457 -0.664691 2.1311e-19)
(0.467666 -0.649249 7.02907e-20)
(0.516997 -0.621977 -2.86337e-20)
(0.559691 -0.591938 2.23598e-20)
(0.603345 -0.569157 -3.17275e-21)
(-0.0111873 0.0214019 0)
(0.0804565 -0.213752 8.9197e-20)
(0.226776 -0.498779 2.13425e-19)
(0.355228 -0.686545 -2.57428e-19)
(0.45069 -0.767981 -5.88121e-19)
(0.521093 -0.781568 2.17342e-19)
(0.575612 -0.761461 -3.61267e-20)
(0.620456 -0.727733 -1.04392e-19)
(0.657928 -0.69126 0)
(0.698996 -0.663452 -1.01237e-20)
(-0.012509 0.0202792 4.16683e-20)
(0.120023 -0.249211 1.05603e-19)
(0.313299 -0.571035 1.93846e-20)
(0.472061 -0.780421 2.48169e-19)
(0.580045 -0.869273 -1.96252e-19)
(0.652109 -0.881885 -3.14146e-19)
(0.703163 -0.857032 5.71292e-19)
(0.742609 -0.817298 5.61591e-20)
(0.77404 -0.775092 -3.57614e-19)
(0.811961 -0.742326 -7.7786e-21)
(-0.0117936 0.0155129 6.12737e-21)
(0.168786 -0.284272 4.51938e-20)
(0.414944 -0.634937 1.47371e-19)
(0.606687 -0.859623 2.80793e-20)
(0.7276 -0.952542 3.24022e-19)
(0.80071 -0.963051 -4.26299e-19)
(0.847425 -0.933588 -4.41461e-19)
(0.880617 -0.888592 -3.86816e-19)
(0.905427 -0.841504 2.83671e-19)
(0.939199 -0.803604 3.12137e-19)
(-0.00771207 0.00696302 -1.28551e-19)
(0.227705 -0.31813 3.85275e-20)
(0.530897 -0.688766 3.1339e-19)
(0.75675 -0.921991 -1.78131e-19)
(0.890081 -1.01563 3.34714e-19)
(0.963216 -1.02322 8.33129e-19)
(1.00464 -0.989751 6.03352e-19)
(1.03074 -0.94085 -4.68505e-19)
(1.04855 -0.890083 -2.26949e-19)
(1.07576 -0.846782 3.25442e-19)
(0.000805673 -0.00492697 -2.226e-19)
(0.296917 -0.349397 -3.60346e-19)
(0.659199 -0.730479 5.62476e-19)
(0.918446 -0.965307 6.84738e-19)
(1.06255 -1.05645 -7.42239e-19)
(1.13413 -1.06058 8.67618e-19)
(1.16902 -1.02416 1.36791e-19)
(1.18699 -0.973343 -1.10011e-18)
(1.19728 -0.920411 -2.69114e-19)
(1.2129 -0.872022 3.57263e-19)
(0.014442 -0.019136 5.5396e-20)
(0.375943 -0.375846 -3.62679e-19)
(0.797317 -0.757361 -4.15523e-19)
(1.08748 -0.986744 7.22808e-19)
(1.23947 -1.07204 6.00197e-19)
(1.30689 -1.07186 -7.7632e-19)
(1.33294 -1.03293 -6.6093e-19)
(1.34066 -0.981172 3.98128e-19)
(1.34173 -0.925949 -4.10975e-19)
(1.33816 -0.873927 -2.54421e-19)
(0.620227 -0.180449 4.16465e-20)
(0.800461 -0.136179 -5.59246e-20)
(0.889098 -0.10676 6.45342e-21)
(0.940694 -0.0836498 1.01647e-20)
(0.970668 -0.0649055 -5.06762e-21)
(0.988524 -0.0495865 -2.34006e-21)
(0.999594 -0.0370499 -4.08593e-21)
(1.00661 -0.0266102 -3.01276e-21)
(1.01087 -0.0185533 7.36565e-21)
(1.01379 -0.00788073 2.84484e-21)
(0.637887 -0.257453 1.10377e-19)
(0.812986 -0.17593 1.20422e-20)
(0.897677 -0.128233 3.94033e-21)
(0.947223 -0.0957397 -4.96752e-21)
(0.975845 -0.0719956 -1.25519e-20)
(0.992683 -0.0538418 0)
(1.00296 -0.0396549 -4.3188e-21)
(1.00937 -0.028211 3.66313e-21)
(1.01322 -0.0195476 4.59312e-22)
(1.01578 -0.00828003 -3.4787e-21)
(0.666043 -0.331561 -7.76089e-20)
(0.83105 -0.214999 -3.46438e-20)
(0.909079 -0.149503 1.43051e-20)
(0.955185 -0.107711 -8.34043e-21)
(0.981808 -0.0789764 -3.68205e-21)
(0.997302 -0.0579918 5.88868e-21)
(1.0066 -0.0421598 0)
(1.0123 -0.0297249 0)
(1.01569 -0.0204694 -1.99864e-21)
(1.01785 -0.00864461 0)
(0.704848 -0.401204 -3.50623e-20)
(0.854312 -0.25286 7.13642e-20)
(0.923281 -0.170348 7.39122e-21)
(0.964582 -0.119445 0)
(0.988554 -0.0857758 1.84301e-20)
(1.00238 -0.0619922 -2.9069e-21)
(1.01052 -0.0445366 0)
(1.01541 -0.0311342 3.83097e-21)
(1.01827 -0.0213074 0)
(1.02 -0.00897028 6.13964e-22)
(0.754447 -0.464828 -4.09246e-20)
(0.88234 -0.289011 9.63223e-20)
(0.940233 -0.190553 -3.91097e-21)
(0.975416 -0.130829 0)
(0.996075 -0.092325 3.76285e-21)
(1.00789 -0.0658004 5.72116e-21)
(1.0147 -0.0467583 5.74866e-21)
(1.01866 -0.0324201 1.05892e-21)
(1.02093 -0.02205 -2.10933e-21)
(1.02222 -0.00925304 2.59811e-21)
(0.814651 -0.520858 -7.18916e-19)
(0.914561 -0.323057 -1.81505e-19)
(0.959813 -0.209979 1.47843e-21)
(0.98767 -0.141771 2.80318e-20)
(1.00436 -0.0985643 -5.90045e-21)
(1.01384 -0.069376 4.35634e-21)
(1.01912 -0.0487977 4.21612e-21)
(1.02206 -0.033565 -8.55237e-21)
(1.02369 -0.0226864 -2.03756e-22)
(1.02449 -0.00948828 8.27675e-23)
(0.884492 -0.567356 -2.29023e-21)
(0.949828 -0.354134 7.04277e-20)
(0.981646 -0.228452 2.43449e-21)
(1.00127 -0.152214 -8.1171e-22)
(1.01337 -0.104454 -2.14887e-20)
(1.02018 -0.0726872 5.15043e-21)
(1.02376 -0.0506317 -3.1394e-21)
(1.02558 -0.0345525 -4.14974e-21)
(1.0265 -0.0232047 1.03439e-21)
(1.02679 -0.00967081 -1.80056e-21)
(0.963466 -0.603088 2.83373e-19)
(0.986314 -0.381049 8.49392e-20)
(1.0045 -0.2453 0)
(1.01576 -0.161837 -4.63721e-22)
(1.02295 -0.109844 1.74436e-20)
(1.02686 -0.0756625 1.15505e-21)
(1.02858 -0.0522258 -1.42474e-20)
(1.02919 -0.0353637 4.05341e-21)
(1.02936 -0.0235945 -3.86757e-23)
(1.02913 -0.00979742 -3.22066e-22)
(1.05582 -0.632122 -4.21118e-19)
(1.02597 -0.406327 -2.28499e-19)
(1.02758 -0.261741 5.16588e-20)
(1.03032 -0.171081 -2.67977e-22)
(1.03258 -0.114815 -2.20255e-21)
(1.0336 -0.0782764 -1.36942e-20)
(1.03347 -0.0535431 3.62671e-21)
(1.03284 -0.035973 5.13114e-22)
(1.03223 -0.0238406 -3.11381e-21)
(1.03146 -0.00986566 -2.64182e-21)
(1.16392 -0.657297 2.96422e-19)
(1.07897 -0.430338 -2.25271e-19)
(1.05535 -0.28005 -3.82443e-20)
(1.04623 -0.182401 -4.06985e-20)
(1.04252 -0.121046 -2.19661e-20)
(1.04039 -0.0814763 -1.07802e-20)
(1.03837 -0.0550635 -5.33007e-21)
(1.0365 -0.0365981 0)
(1.03508 -0.0240363 -3.85868e-22)
(1.03379 -0.00988758 2.06556e-21)
(1.32409 -0.641185 4.66847e-19)
(1.1831 -0.430753 1.46754e-19)
(1.11566 -0.282079 -1.17134e-19)
(1.08085 -0.18432 7.41313e-21)
(1.06268 -0.122138 8.76419e-21)
(1.05268 -0.081847 -4.9259e-21)
(1.04629 -0.0549867 4.00841e-22)
(1.04184 -0.0363211 4.39286e-21)
(1.03896 -0.0237152 -3.07146e-21)
(1.03681 -0.00973479 4.2461e-23)
(1.37509 -0.523722 -6.45197e-21)
(1.21365 -0.364372 1.37585e-19)
(1.1422 -0.248534 1.17289e-19)
(1.10267 -0.167774 -1.42662e-20)
(1.07872 -0.113335 5.49605e-20)
(1.06399 -0.0767226 3.52606e-20)
(1.05424 -0.0517888 2.40389e-20)
(1.04754 -0.0342816 -2.36905e-21)
(1.04324 -0.0224137 8.42331e-21)
(1.04018 -0.00919435 3.75678e-21)
(1.43359 -0.450576 -1.44224e-19)
(1.26615 -0.327388 -1.1677e-20)
(1.17927 -0.228091 6.17933e-21)
(1.12787 -0.155585 5.55474e-37)
(1.09556 -0.105511 7.24373e-22)
(1.07533 -0.0715073 -9.76656e-35)
(1.06202 -0.0482486 -2.86827e-21)
(1.05302 -0.0319002 -2.07784e-34)
(1.04735 -0.0208356 8.26331e-22)
(1.04334 -0.00854296 -2.43979e-21)
(1.46983 -0.368496 -2.2106e-34)
(1.30205 -0.276787 -3.80301e-20)
(1.20795 -0.198106 -4.08553e-20)
(1.14904 -0.137817 0)
(1.11041 -0.0944669 -2.37662e-20)
(1.08556 -0.0643501 -1.60945e-20)
(1.06913 -0.0435054 -9.30585e-21)
(1.05805 -0.0287764 -2.54505e-34)
(1.0511 -0.0187996 -2.87591e-21)
(1.04622 -0.00770883 2.31021e-21)
(1.49243 -0.296357 -8.80241e-20)
(1.3295 -0.22935 4.67863e-21)
(1.2313 -0.167438 0)
(1.16688 -0.118172 0)
(1.12325 -0.0816837 0)
(1.09451 -0.0558858 0)
(1.07539 -0.0378587 -5.57445e-22)
(1.06251 -0.0250576 -2.8424e-34)
(1.05441 -0.0163795 7.27354e-22)
(1.04876 -0.00671974 2.75849e-34)
(1.50637 -0.229811 -3.29525e-20)
(1.34981 -0.182233 0)
(1.24956 -0.135339 0)
(1.18132 -0.0967553 0)
(1.13388 -0.0674033 0)
(1.10205 -0.0463092 0)
(1.0807 -0.0314379 9.27668e-22)
(1.0663 -0.0208252 5.75708e-21)
(1.05725 -0.0136243 6.82424e-22)
(1.05091 -0.00559368 3.13917e-21)
(1.51441 -0.168518 0)
(1.36415 -0.136285 -1.11401e-20)
(1.26316 -0.102627 -1.60203e-20)
(1.19237 -0.0741691 0)
(1.1422 -0.0520207 -1.10546e-20)
(1.10802 -0.0358762 -7.84321e-21)
(1.08492 -0.0244054 -4.4809e-21)
(1.06931 -0.0161832 -3.3758e-21)
(1.0595 -0.0105974 4.49831e-21)
(1.05259 -0.0043555 1.28071e-21)
(1.51716 -0.11192 9.04823e-21)
(1.37172 -0.0910402 6.84653e-21)
(1.27088 -0.0689779 -4.00714e-21)
(1.19883 -0.0502255 2.57134e-36)
(1.14703 -0.0353988 6.87916e-22)
(1.11133 -0.0244839 -6.05149e-35)
(1.0871 -0.0166847 6.89117e-22)
(1.07066 -0.0110745 3.01343e-21)
(1.06032 -0.00725218 5.61511e-22)
(1.05301 -0.00297733 -1.85603e-21)
(1.48975 -0.0524896 -4.49516e-20)
(1.34692 -0.0479633 1.02201e-20)
(1.24899 -0.0378241 1.15809e-20)
(1.1789 -0.0280646 0)
(1.1282 -0.0199354 7.17852e-21)
(1.09306 -0.013841 5.08026e-21)
(1.06908 -0.00945367 4.02912e-21)
(1.05283 -0.00628506 2.22003e-21)
(1.04259 -0.00411486 -2.08651e-21)
(1.03535 -0.00168518 2.26302e-21)
(1.06824 -0.00066456 0)
(0.986151 -0.00544338 0)
(0.923296 -0.00540557 0)
(0.875521 -0.00427855 0)
(0.840057 -0.003093 0)
(0.815257 -0.00217226 0)
(0.798245 -0.00149618 5.358e-22)
(0.786649 -0.00100713 -3.50519e-36)
(0.779316 -0.000646367 5.58006e-22)
(0.774205 -0.000252891 1.70601e-21)
(2.14571 -0.0175097 8.89499e-19)
(2.13781 -0.124833 6.14699e-20)
(2.11209 -0.230438 -1.31208e-19)
(2.06841 -0.332177 -3.54622e-19)
(2.00953 -0.42741 -1.21646e-19)
(1.93152 -0.517607 -1.83212e-19)
(1.85064 -0.588881 -4.45296e-19)
(1.73395 -0.670277 1.41053e-19)
(1.65678 -0.693438 0)
(1.49223 -0.776795 4.73648e-20)
(2.059 -0.0119526 2.27313e-19)
(2.05273 -0.0925758 -3.43213e-19)
(2.03378 -0.172175 -7.1607e-21)
(1.99864 -0.250563 -1.40135e-19)
(1.95669 -0.322414 2.49519e-20)
(1.89145 -0.399256 1.30821e-19)
(1.83798 -0.44688 9.81134e-21)
(1.74036 -0.533019 9.54852e-20)
(1.68632 -0.536885 -1.17428e-19)
(1.57373 -0.62816 2.72444e-20)
(1.98424 -0.00881474 -1.16858e-19)
(1.97942 -0.0728244 2.16856e-19)
(1.96504 -0.135672 1.93012e-19)
(1.93629 -0.198517 -2.33606e-19)
(1.90439 -0.253959 9.91083e-20)
(1.85091 -0.318575 1.34996e-19)
(1.80951 -0.351797 -6.20496e-20)
(1.73401 -0.4292 7.42436e-20)
(1.68526 -0.429204 7.61058e-20)
(1.60339 -0.510074 9.8945e-20)
(1.92701 -0.00952118 -2.01967e-19)
(1.92319 -0.0585479 4.36369e-20)
(1.91129 -0.106509 -1.0391e-19)
(1.8874 -0.155421 -6.49763e-20)
(1.86063 -0.197795 1.98023e-20)
(1.81722 -0.249919 -1.06312e-19)
(1.78092 -0.275019 8.82535e-20)
(1.72275 -0.338807 2.86812e-20)
(1.67793 -0.339501 -1.31381e-20)
(1.61613 -0.405895 9.75535e-21)
(1.88233 -0.00878477 5.41172e-20)
(1.87928 -0.0461248 5.24732e-20)
(1.86896 -0.0825241 -6.19071e-20)
(1.84892 -0.119929 2.30198e-19)
(1.82517 -0.152144 1.25964e-20)
(1.78951 -0.192366 -1.41864e-19)
(1.75629 -0.212032 2.15622e-20)
(1.70989 -0.261283 -8.91335e-20)
(1.669 -0.263506 1.14063e-19)
(1.61958 -0.314787 8.29787e-20)
(1.84852 -0.00949953 -1.07571e-19)
(1.84615 -0.0367742 -5.89392e-20)
(1.83692 -0.0633241 3.39576e-20)
(1.81964 -0.0907244 8.18547e-20)
(1.7978 -0.1145 4.76167e-20)
(1.76746 -0.144148 -4.16953e-20)
(1.73636 -0.159489 3.30413e-21)
(1.69729 -0.195835 5.24244e-20)
(1.65968 -0.199125 9.96697e-20)
(1.6176 -0.237323 -5.49603e-20)
(1.82371 -0.0106553 -4.36553e-20)
(1.82196 -0.0292223 -8.15346e-20)
(1.81361 -0.0472491 -5.50349e-20)
(1.79833 -0.0659365 -1.07923e-19)
(1.77789 -0.0823498 -1.83151e-20)
(1.75103 -0.102844 -3.25505e-21)
(1.72149 -0.114048 4.67123e-20)
(1.68678 -0.139498 -1.4836e-20)
(1.6517 -0.142857 -3.4007e-20)
(1.61365 -0.170071 9.5406e-21)
(1.80014 -0.0108839 3.66125e-20)
(1.79982 -0.0217428 3.33106e-20)
(1.79307 -0.0321842 1.26562e-20)
(1.78018 -0.0430171 -2.23682e-20)
(1.76181 -0.0526324 -1.81743e-20)
(1.73812 -0.0651593 3.32452e-20)
(1.7105 -0.0721649 -2.42635e-21)
(1.67877 -0.0890084 -4.5165e-20)
(1.6458 -0.0913738 1.03503e-20)
(1.61 -0.11119 5.01703e-20)
(1.7083 -0.0171643 -2.91871e-20)
(1.7088 -0.0195402 3.18747e-21)
(1.70611 -0.0213358 4.42117e-20)
(1.6998 -0.0232067 2.31616e-21)
(1.6894 -0.0242541 -3.54858e-21)
(1.67555 -0.0274972 -4.45395e-21)
(1.65708 -0.0273163 1.76472e-20)
(1.63661 -0.0346366 -2.77051e-20)
(1.60974 -0.0331611 3.58512e-20)
(1.58707 -0.0437685 1.18563e-19)
(1.08543 -0.010094 3.11361e-20)
(1.07529 -0.00714374 2.0396e-20)
(1.06846 -0.00414536 1.65135e-20)
(1.06536 -0.00122242 1.84344e-20)
(1.0651 0.00168453 -3.56021e-21)
(1.06877 0.00406997 5.08989e-21)
(1.07174 0.00700271 -8.50257e-21)
(1.08183 0.00717487 1.9182e-21)
(1.08023 0.0109472 -3.10708e-21)
(1.09848 0.00763467 3.42575e-21)
(1.37848 0.753505 -5.66258e-20)
(1.36421 0.799771 2.5079e-20)
(1.36867 0.855787 -4.53331e-19)
(1.37953 0.919933 2.17335e-19)
(1.39058 0.987805 8.75418e-19)
(1.39571 1.05499 -1.3774e-19)
(1.37488 1.10499 -8.51312e-19)
(1.271 1.08192 -4.47258e-20)
(0.985154 0.877009 -4.19856e-19)
(0.438146 0.399289 1.5125e-19)
(1.55397 0.725484 0)
(1.54434 0.772902 5.41877e-19)
(1.5423 0.825571 1.2217e-18)
(1.54856 0.88697 -7.44041e-19)
(1.55993 0.953855 -1.79976e-18)
(1.5683 1.02113 -1.40564e-19)
(1.54873 1.07134 -1.79579e-19)
(1.43404 1.04833 6.4792e-19)
(1.10986 0.846119 8.56847e-19)
(0.489936 0.38068 3.85901e-19)
(1.69888 0.701974 6.28155e-20)
(1.70203 0.748325 0)
(1.70512 0.796826 -6.56951e-20)
(1.71369 0.852605 7.66556e-19)
(1.72767 0.914334 5.28781e-20)
(1.73913 0.977348 -1.88608e-18)
(1.71963 1.02391 1.19629e-18)
(1.59253 0.99865 7.56281e-19)
(1.22873 0.801127 -7.781e-19)
(0.537181 0.354717 -2.82215e-19)
(1.81426 0.6679 -1.29648e-19)
(1.83023 0.710309 -1.0091e-19)
(1.84401 0.754173 2.28744e-19)
(1.86094 0.804214 -2.86469e-19)
(1.88177 0.860031 -1.37418e-18)
(1.89853 0.917349 -1.06508e-18)
(1.87942 0.958446 1.16827e-18)
(1.73881 0.929377 7.44117e-19)
(1.33418 0.73899 0)
(0.57467 0.319609 0)
(1.91164 0.614008 -8.02477e-19)
(1.93778 0.651677 -1.41673e-18)
(1.9625 0.691064 -5.58824e-19)
(1.98958 0.735734 -3.41556e-20)
(2.01921 0.785498 0)
(2.0424 0.836383 1.43783e-19)
(2.02328 0.871109 1.71412e-19)
(1.86732 0.837647 2.19291e-19)
(1.42022 0.657993 -3.28196e-19)
(0.599147 0.275735 -8.28592e-20)
(1.99841 0.539248 9.76672e-19)
(2.03186 0.572179 -4.298e-20)
(2.06557 0.607093 -1.15455e-18)
(2.10189 0.646369 0)
(2.13991 0.689751 0)
(2.16889 0.733432 0)
(2.14798 0.761307 1.49709e-18)
(1.97404 0.724871 -1.73841e-18)
(1.48255 0.559778 -1.08524e-18)
(0.609292 0.224907 -4.22474e-20)
(2.07542 0.447215 -1.31495e-18)
(2.11399 0.475172 -2.75871e-18)
(2.15451 0.505 -4.83248e-21)
(2.19822 0.53825 5.68257e-19)
(2.24302 0.574582 -4.18408e-20)
(2.27594 0.610513 1.30152e-18)
(2.25135 0.630164 -7.45236e-19)
(2.05542 0.594777 -2.16255e-18)
(1.52028 0.451101 1.81942e-19)
(0.605241 0.17062 1.28293e-19)
(2.13991 0.342258 -1.06518e-18)
(2.18226 0.364521 1.65641e-20)
(2.22782 0.388246 4.16746e-19)
(2.277 0.41451 -4.09407e-19)
(2.32662 0.442899 6.45683e-19)
(2.36132 0.469812 1.85336e-18)
(2.3293 0.483632 -2.27715e-19)
(2.10827 0.452699 -1.24234e-18)
(1.53338 0.334933 2.91784e-19)
(0.587573 0.116628 4.69848e-20)
(2.18872 0.227931 4.09485e-19)
(2.23389 0.243773 8.34152e-20)
(2.283 0.260479 -4.4419e-19)
(2.33589 0.278862 -1.05481e-18)
(2.38829 0.298526 9.51783e-20)
(2.42205 0.31715 9.83213e-20)
(2.37958 0.326132 -1.68531e-18)
(2.1331 0.301333 7.01433e-19)
(1.52179 0.215963 2.04686e-19)
(0.557909 0.0658305 -1.68206e-19)
(2.2197 0.10716 8.09099e-19)
(2.2667 0.115952 -1.24274e-18)
(2.31792 0.124864 1.9181e-19)
(2.3728 0.134711 2.63885e-18)
(2.42596 0.145301 1.3796e-18)
(2.45634 0.155342 -3.18271e-18)
(2.40149 0.161196 -3.30899e-18)
(2.12914 0.146496 1.61253e-18)
(1.48571 0.0991436 7.62912e-21)
(0.517852 0.0199691 5.53869e-20)
(0.512585 0.210662 -1.6682e-19)
(0.475429 0.217952 -1.52189e-19)
(0.43189 0.225915 8.29441e-20)
(0.383769 0.234477 -2.69311e-19)
(0.33082 0.24363 -3.28996e-20)
(0.272281 0.253082 2.26631e-19)
(0.207277 0.260459 5.45453e-20)
(0.135856 0.256084 -2.48294e-20)
(0.0654855 0.216696 3.11416e-21)
(0.0111979 0.10965 1.59386e-20)
(0.540857 0.31085 1.35029e-19)
(0.504524 0.324868 1.87368e-19)
(0.462352 0.340522 3.53597e-20)
(0.415799 0.357419 -7.20012e-20)
(0.364535 0.375424 -2.55271e-19)
(0.30778 0.394013 5.4974e-21)
(0.24423 0.409068 1.23742e-19)
(0.17235 0.40405 1.4046e-20)
(0.0964141 0.340658 -6.73371e-20)
(0.0269037 0.170023 -2.23502e-20)
(0.58639 0.406978 -1.38115e-19)
(0.551511 0.427467 -1.41398e-19)
(0.511693 0.450409 1.25582e-19)
(0.467805 0.475204 1.07627e-19)
(0.419374 0.501615 -6.2777e-20)
(0.365575 0.528868 -7.86786e-20)
(0.304384 0.55112 -8.59598e-20)
(0.231602 0.545191 -1.27992e-20)
(0.146222 0.45837 -4.13155e-20)
(0.0517928 0.226831 3.60983e-21)
(0.64808 0.496994 6.81999e-20)
(0.615254 0.523571 -2.00876e-20)
(0.578716 0.553193 -1.05403e-19)
(0.538529 0.585231 3.16044e-20)
(0.494015 0.619389 -7.77274e-20)
(0.444282 0.654619 2.02811e-20)
(0.386302 0.683384 -1.64234e-19)
(0.312162 0.6762 -1.26724e-20)
(0.213543 0.566917 -2.28294e-19)
(0.0850285 0.278466 4.73631e-20)
(0.724296 0.578928 -1.71467e-20)
(0.694102 0.611116 -3.01404e-21)
(0.661773 0.646696 -4.27209e-20)
(0.626361 0.685203 -1.78899e-19)
(0.586892 0.72631 8.01732e-20)
(0.542332 0.768675 -4.25164e-20)
(0.488353 0.803112 1.13218e-19)
(0.412381 0.794254 -5.02504e-20)
(0.296759 0.663796 2.88272e-19)
(0.125612 0.323557 2.1639e-19)
(0.812958 0.651297 -2.43048e-20)
(0.785749 0.688243 -9.09634e-20)
(0.758238 0.728561 1.15816e-19)
(0.728342 0.772345 8.76547e-20)
(0.694808 0.819326 2.32909e-19)
(0.656422 0.867769 1.40831e-19)
(0.607199 0.906817 4.37321e-19)
(0.528966 0.895686 1.95536e-19)
(0.393005 0.745633 1.67324e-19)
(0.171962 0.360299 1.91492e-19)
(0.912379 0.710982 -9.40204e-20)
(0.889623 0.752182 3.4507e-19)
(0.868651 0.796512 2.1339e-19)
(0.845788 0.844593 -2.48157e-19)
(0.819281 0.896307 -1.31458e-19)
(0.787722 0.94967 4.89679e-19)
(0.743338 0.992372 -9.5054e-20)
(0.661657 0.978807 -3.05558e-19)
(0.501414 0.811359 -5.93985e-20)
(0.223192 0.388207 2.01652e-19)
(1.01193 0.760961 1.87035e-19)
(0.991835 0.804029 5.27367e-20)
(0.977229 0.850179 -5.70348e-19)
(0.962774 0.901208 7.66139e-20)
(0.945739 0.956594 3.77281e-19)
(0.923774 1.01355 -2.54833e-19)
(0.886417 1.05814 -6.14343e-20)
(0.801873 1.04071 -1.33561e-19)
(0.615386 0.857511 1.29773e-20)
(0.276078 0.405428 -2.87378e-19)
(1.13421 0.782662 2.09628e-20)
(1.12298 0.828651 -3.91121e-19)
(1.11603 0.875828 -3.11849e-21)
(1.10754 0.928479 3.26318e-19)
(1.09617 0.987003 -3.29867e-19)
(1.08016 1.04795 6.76203e-19)
(1.04669 1.09569 4.75776e-19)
(0.955883 1.07702 -7.32601e-19)
(0.738126 0.883514 -3.73489e-20)
(0.331247 0.412916 -2.89005e-19)
(1.20451 0.799674 -2.29617e-19)
(1.20665 0.847534 -2.25873e-19)
(1.22068 0.897327 2.39206e-19)
(1.23147 0.951861 5.50142e-19)
(1.23607 1.01088 2.1644e-19)
(1.23289 1.07142 -5.67614e-19)
(1.20707 1.1176 4.16994e-20)
(1.11106 1.09425 1.59098e-19)
(0.860936 0.891406 -2.05737e-19)
(0.385311 0.411007 -2.05766e-19)
(0.827692 0.0209606 3.81654e-21)
(1.15382 0.0429599 -1.67273e-20)
(0.921022 0.050505 -1.42074e-20)
(1.04005 0.0535157 0)
(0.989162 0.0611537 1.67771e-20)
(0.973982 0.0719964 2.232e-20)
(0.95116 0.0872267 2.86702e-20)
(0.900252 0.107428 5.90206e-20)
(0.831621 0.136136 -8.56765e-20)
(0.665057 0.173526 -1.07513e-19)
(0.827157 0.0177807 3.35621e-20)
(1.15361 0.0426478 -5.33124e-20)
(0.921393 0.0523319 1.12909e-22)
(1.04173 0.0551428 -1.37945e-20)
(0.991794 0.0651793 9.08181e-21)
(0.978039 0.0782111 -1.14198e-20)
(0.956521 0.0983872 -7.09788e-20)
(0.908632 0.124813 0)
(0.841393 0.173845 1.847e-19)
(0.687835 0.238152 -2.26534e-19)
(0.826394 0.0147959 -3.04483e-20)
(1.15361 0.0422159 1.67118e-20)
(0.921697 0.0539048 3.36849e-20)
(1.04391 0.0565286 1.19501e-20)
(0.99475 0.0689534 -2.20448e-20)
(0.982876 0.0842254 1.38268e-22)
(0.962893 0.109247 -5.03366e-20)
(0.91999 0.142135 -4.27933e-21)
(0.854724 0.210504 1.23693e-22)
(0.7236 0.30094 5.99761e-19)
(0.825398 0.0120701 -2.32555e-20)
(1.15378 0.041656 -7.41247e-22)
(0.921947 0.0551766 2.57408e-20)
(1.04659 0.0576726 1.69293e-20)
(0.998047 0.0724423 -9.61167e-21)
(0.98848 0.0899943 -1.30701e-20)
(0.970381 0.119684 7.52798e-20)
(0.934117 0.159319 -1.22931e-21)
(0.871889 0.24552 -2.2318e-19)
(0.77171 0.360905 7.0217e-20)
(0.824168 0.00962317 1.66794e-20)
(1.15404 0.0409404 -2.94912e-20)
(0.922164 0.0560979 -1.91714e-20)
(1.04976 0.0585775 9.09563e-21)
(1.00169 0.0756141 0)
(0.994826 0.095472 0)
(0.979105 0.12959 6.43712e-20)
(0.950743 0.176318 1.52076e-22)
(0.893256 0.278291 -1.06845e-19)
(0.831256 0.417085 8.54306e-20)
(0.822709 0.00752725 3.95617e-21)
(1.15431 0.0400389 2.1273e-20)
(0.922374 0.05662 -4.86241e-20)
(1.05342 0.0592497 -2.66362e-20)
(1.00568 0.0784388 6.31817e-22)
(1.00189 0.100615 5.33352e-20)
(0.989188 0.138898 1.01005e-19)
(0.969562 0.193071 -7.45469e-22)
(0.919259 0.308038 1.85045e-19)
(0.901275 0.469981 -1.94219e-19)
(0.821015 0.00584765 -2.14217e-20)
(1.15449 0.0389154 1.35016e-20)
(0.922622 0.056696 -1.27037e-20)
(1.05757 0.0597003 -4.96536e-20)
(1.01001 0.0808873 -1.19374e-21)
(1.00967 0.105392 -8.77637e-22)
(1.00073 0.147579 -6.37106e-21)
(0.990185 0.209448 -1.84562e-19)
(0.95068 0.33325 1.41759e-19)
(0.978912 0.516595 -4.64785e-19)
(0.819086 0.00462371 -6.7971e-22)
(1.15452 0.0375079 -3.04938e-20)
(0.922962 0.0562935 2.50163e-20)
(1.06217 0.0599433 3.16444e-20)
(1.01466 0.0829181 -3.54753e-22)
(1.01815 0.109759 -6.30973e-20)
(1.01378 0.155659 -5.63815e-20)
(1.01231 0.22576 3.35787e-19)
(0.988071 0.356424 1.32275e-20)
(1.06379 0.568174 7.37787e-19)
(0.816911 0.00384701 9.55956e-21)
(1.15445 0.0356797 1.20044e-20)
(0.923467 0.0553724 3.0482e-20)
(1.06721 0.0599899 -3.28571e-20)
(1.01957 0.0844477 -6.06874e-20)
(1.02726 0.113456 1.57152e-21)
(1.02823 0.162166 -7.7952e-20)
(1.03609 0.238108 4.40684e-19)
(1.03534 0.366648 -8.06209e-21)
(1.14438 0.592637 -1.01114e-18)
(0.814481 0.00399447 1.61231e-21)
(1.15525 0.0336723 1.55058e-20)
(0.923969 0.0540594 9.46888e-21)
(1.07274 0.0601273 -6.70222e-20)
(1.02445 0.0861717 -5.95924e-20)
(1.03589 0.118313 -5.2747e-20)
(1.04091 0.172099 -1.395e-19)
(1.05461 0.25791 -4.0659e-19)
(1.07641 0.394108 -2.46284e-19)
(1.24126 0.659992 -1.05817e-18)
(0.81191 0.00360566 -4.54265e-21)
(1.15857 0.0303691 -3.17951e-21)
(0.925378 0.051033 -1.02667e-20)
(1.07971 0.0586578 1.5582e-20)
(1.03352 0.0849477 4.78717e-20)
(1.05127 0.118182 -3.71881e-20)
(1.06578 0.172076 1.2385e-19)
(1.0931 0.255857 -4.02563e-19)
(1.14868 0.372457 -1.75076e-19)
(1.23858 0.649709 5.77294e-19)
(0.812327 0.000930037 2.8609e-21)
(1.16281 0.0258599 8.85093e-21)
(0.929831 0.0454378 -7.10197e-21)
(1.0859 0.0547173 4.27368e-20)
(1.04431 0.0798295 7.5269e-20)
(1.06709 0.111827 1.08403e-19)
(1.09003 0.161843 2.6575e-20)
(1.13159 0.236639 2.11191e-19)
(1.20047 0.341045 2.60219e-19)
(1.31525 0.545212 3.84889e-21)
(0.812498 -0.00234939 -4.7913e-21)
(1.16758 0.0209503 -2.89733e-22)
(0.934792 0.0396605 3.41835e-21)
(1.09216 0.0499021 9.65006e-21)
(1.0548 0.0735077 2.09405e-34)
(1.082 0.10355 -8.06999e-21)
(1.11189 0.1488 -5.28692e-34)
(1.16527 0.214647 1.85639e-20)
(1.2372 0.29976 -5.4294e-20)
(1.38277 0.468951 -4.98463e-20)
(0.81275 -0.00684453 1.79752e-20)
(1.17259 0.015298 -7.5824e-36)
(0.939885 0.0334305 -3.78086e-21)
(1.09823 0.0441404 -1.70185e-20)
(1.06455 0.065775 -3.03615e-20)
(1.0955 0.0931394 -3.65106e-20)
(1.13113 0.132798 -6.52518e-34)
(1.19335 0.189709 -9.15745e-20)
(1.26656 0.256824 -1.25888e-19)
(1.4288 0.391227 8.91758e-20)
(0.813176 -0.0125304 0)
(1.17802 0.00897451 -2.19672e-36)
(0.945055 0.0269058 0)
(1.10395 0.0376052 0)
(1.07329 0.0568729 0)
(1.10731 0.0809641 0)
(1.14764 0.114555 -3.88511e-34)
(1.21585 0.162455 0)
(1.29069 0.213232 -2.0381e-20)
(1.45604 0.317358 5.35832e-20)
(0.813861 -0.0192709 5.89466e-21)
(1.18422 0.00217468 -3.12014e-21)
(0.950335 0.0203331 -4.55872e-21)
(1.10917 0.0305051 0)
(1.0809 0.0470467 0)
(1.11727 0.0674017 6.77506e-21)
(1.16134 0.0947154 2.71893e-20)
(1.23325 0.133494 -1.3648e-20)
(1.30995 0.170506 -2.99471e-20)
(1.47068 0.248068 2.0428e-19)
(0.814907 -0.0291626 -6.37402e-20)
(1.19142 -0.00569675 4.93731e-21)
(0.955696 0.0137534 -4.94899e-21)
(1.11372 0.023047 -5.85157e-21)
(1.0872 0.0365319 -1.09083e-20)
(1.12529 0.0527995 -8.41766e-21)
(1.17217 0.0737744 -2.0675e-20)
(1.24618 0.103439 -3.8036e-20)
(1.32443 0.12924 -5.2708e-20)
(1.47788 0.183565 7.2156e-20)
(0.816314 -0.0348643 -9.43516e-21)
(1.20003 -0.0123593 -7.62585e-21)
(0.960783 0.00909996 -5.2807e-21)
(1.11685 0.0153763 -7.94941e-21)
(1.09144 0.0253642 2.17691e-35)
(1.13071 0.0372276 7.29658e-21)
(1.17961 0.0517294 -9.42695e-34)
(1.25482 0.0721803 -1.38102e-20)
(1.334 0.0887193 1.85143e-20)
(1.48127 0.12136 2.59977e-20)
(0.813567 -0.0605201 1.61962e-19)
(1.18979 -0.02458 -8.32393e-21)
(0.948412 0.00185871 -5.50969e-21)
(1.10189 0.00895596 3.6226e-21)
(1.07744 0.014468 3.20698e-21)
(1.11757 0.0222433 1.4071e-20)
(1.16785 0.0307023 7.96771e-21)
(1.24392 0.0428488 -4.77087e-21)
(1.32274 0.051524 -1.99708e-20)
(1.46945 0.0680164 1.39234e-19)
(0.731343 -0.0387247 1.00839e-20)
(0.93226 -0.0197054 -5.39886e-35)
(0.704399 0.00236203 -6.35618e-21)
(0.843117 0.000134693 0)
(0.810932 0.00286196 0)
(0.846259 0.00442974 7.54255e-21)
(0.888535 0.00598191 -8.96882e-36)
(0.950934 0.00869049 -1.37647e-20)
(1.01753 0.00990629 -2.69195e-20)
(1.12874 0.0126684 5.62517e-20)
(1.47345 0.643709 -1.79021e-19)
(1.58423 0.620224 -2.72164e-19)
(1.6885 0.601775 0)
(1.77824 0.576453 1.13777e-19)
(1.85941 0.532423 5.39722e-19)
(1.93551 0.467543 -1.1875e-19)
(2.00483 0.386019 1.54182e-18)
(2.06325 0.293401 -7.80425e-20)
(2.10729 0.193361 -3.48446e-19)
(2.13513 0.0895459 3.30296e-19)
(1.51614 0.521021 8.02872e-20)
(1.59341 0.504134 1.08107e-19)
(1.67321 0.484758 -8.44616e-21)
(1.74957 0.456171 1.76511e-19)
(1.82128 0.414204 -1.5094e-19)
(1.88766 0.359338 -3.69572e-19)
(1.94631 0.294557 -1.10528e-19)
(1.99408 0.222983 5.09637e-19)
(2.02955 0.146968 -2.17557e-20)