/*--------------------------------*- C++ -*----------------------------------*\
  =========                 |
  \\      /  F ield         | OpenFOAM: The Open Source CFD Toolbox
   \\    /   O peration     | Website:  https://openfoam.org
    \\  /    A nd           | Version:  13
     \\/     M anipulation  |
\*---------------------------------------------------------------------------*/
FoamFile
{
    format      ascii;
    class       volScalarField;
    location    "0.16";
    object      p;
}
// * * * * * * * * * * * * * * * * * * * * * * * * * * * * * * * * * * * * * //

dimensions      [0 2 -2 0 0 0 0];

internalField   nonuniform List<scalar> 
1800
(
6.26681
8.37218
10.5227
11.9487
12.7796
13.1854
13.3093
13.1422
11.8842
7.78404
10.1148
12.5886
15.0911
16.7724
17.8256
18.4841
18.9333
19.1654
18.4321
15.7464
16.5042
19.1272
21.7978
23.6589
24.9164
25.795
26.442
26.8207
26.3438
24.5071
25.4969
28.065
30.7118
32.6245
33.9879
34.9948
35.7548
36.2037
35.7938
34.1054
36.554
38.9138
41.3648
43.1751
44.4982
45.4928
46.2457
46.693
46.3403
44.7822
49.2302
51.282
53.4248
55.0301
56.2201
57.1213
57.8023
58.2115
57.9287
56.5676
63.1787
64.851
66.6062
67.9374
68.9387
69.7075
70.2981
70.6741
70.4979
69.408
78.1054
79.3467
80.6574
81.6662
82.4416
83.0548
83.5482
83.9024
83.8682
83.1309
93.7252
94.5047
95.336
95.9906
96.513
96.9499
97.3321
97.6549
97.7645
97.4292
109.756
110.061
110.393
110.667
110.905
111.125
111.341
111.555
111.715
111.742
-0.0689456
-0.323429
-0.128292
0.262574
0.7267
1.1699
1.49429
1.69936
1.86543
2.02548
0.216531
-0.365965
-0.570005
-0.400093
0.00537975
0.379962
0.641101
0.894282
1.18929
1.46087
1.1327
0.123156
-0.769607
-0.939013
-0.633351
-0.376309
-0.180709
0.127216
0.524266
0.897124
1.39878
0.255386
-0.920361
-1.24865
-1.06924
-0.956158
-0.841778
-0.54301
-0.102083
0.396997
0.917749
-0.0278391
-0.927022
-1.22209
-1.20263
-1.23171
-1.19636
-0.945416
-0.470334
0.217099
0.219044
-0.275514
-0.650331
-0.784776
-0.820229
-0.88791
-0.88488
-0.695492
-0.189982
0.73491
-0.0923111
-0.0411102
0.148112
0.294335
0.375858
0.394485
0.422777
0.573514
1.13496
2.35856
0.415779
1.00807
1.73414
2.23925
2.5674
2.77691
2.91681
3.11933
3.83766
5.49382
1.88093
2.99038
4.23962
5.1605
5.82844
6.31648
6.6486
6.97692
7.95322
10.2337
4.1332
5.77532
7.59221
8.96642
9.98634
10.7418
11.2564
11.6987
12.7481
14.9021
2.74704
2.89999
2.83418
2.6145
2.12497
1.67832
1.29213
0.92898
0.561404
0.188719
2.36539
2.84055
2.69486
2.4981
2.02964
1.60956
1.24729
0.900503
0.545625
0.183636
1.86345
2.78642
2.56432
2.37435
1.93499
1.54395
1.20557
0.874527
0.531443
0.179147
1.23243
2.69762
2.44951
2.24697
1.84075
1.48084
1.16677
0.851071
0.51888
0.175249
0.547622
2.5327
2.34315
2.11961
1.74723
1.41976
1.13077
0.830182
0.507966
0.171945
-0.00800284
2.27627
2.22739
1.99349
1.65513
1.36067
1.09751
0.811928
0.49874
0.169251
-0.138911
1.95558
2.0846
1.86573
1.5647
1.30396
1.06711
0.796412
0.491249
0.167197
0.6051
1.65376
1.89897
1.72335
1.4718
1.24945
1.0399
0.783772
0.485547
0.165828
2.8713
1.54001
1.64271
1.53364
1.36309
1.19505
1.01624
0.774237
0.481714
0.165213
7.1124
1.92973
1.33047
1.26918
1.22208
1.13665
0.9957
0.767657
0.479689
0.165416
10.4709
3.18622
1.42632
1.13641
1.09432
1.06921
0.967187
0.754303
0.473207
0.165036
12.3149
3.22126
0.96407
0.676168
0.849177
0.990769
0.943902
0.743479
0.467891
0.165282
13.4169
3.34041
0.892044
0.535545
0.80842
1.01805
0.96385
0.747942
0.466224
0.162786
14.6737
4.79518
1.61491
0.994569
1.08664
1.14794
0.998282
0.750551
0.46281
0.154446
16.8163
7.50758
3.05389
1.93311
1.60692
1.34959
1.04167
0.749858
0.455686
0.143834
19.7296
10.3449
4.80905
3.04393
2.23367
1.60141
1.10086
0.74879
0.444387
0.132393
22.2656
12.4739
6.42629
4.11606
2.87346
1.88297
1.18218
0.757594
0.436359
0.124056
23.5551
13.6832
7.66879
5.07327
3.48229
2.1738
1.28324
0.779822
0.435133
0.120231
23.4943
14.0657
8.54119
5.93622
4.0711
2.47688
1.40923
0.821653
0.445248
0.12211
22.9405
14.289
9.30802
6.7846
4.66933
2.80878
1.57543
0.89686
0.476898
0.131656
112.297
98.3483
84.5809
71.573
59.6309
48.8474
39.2615
30.578
20.5597
5.45707
113.277
99.9865
86.4833
73.4752
61.4314
50.5507
41.0186
32.7619
24.0975
11.9847
113.81
100.722
87.8384
75.5099
63.9703
53.3791
43.9522
35.769
27.9891
18.8576
115.02
103.277
91.3157
79.4813
68.1207
57.5219
47.8866
39.286
31.5801
24.3173
115.597
104.585
93.663
82.9703
72.6208
62.6922
53.2235
44.3048
36.4775
30.291
115.946
105.218
94.7105
84.5481
74.8271
65.5975
56.8375
48.5942
41.5485
36.5246
116.177
105.617
95.3047
85.3717
75.9284
67.0481
58.7399
51.0737
44.7212
40.6028
116.277
105.755
95.4874
85.6151
76.2602
67.514
59.4104
52.0179
45.903
41.9465
116.227
105.54
95.1128
85.0927
75.6127
66.7796
58.6495
51.2806
45.0582
40.6079
116.103
105.155
94.4667
84.1881
74.4617
65.411
57.1162
49.6221
43.1146
37.9223
234.705
230.359
228.804
228.371
228.285
228.539
229.275
230.656
232.808
234.947
226.127
223.122
222.081
222.048
222.277
222.764
223.696
225.304
227.775
230.251
216.602
214.437
213.67
213.798
214.232
214.937
216.063
217.833
220.446
223.044
206.286
204.267
203.566
203.764
204.31
205.14
206.365
208.173
210.742
213.26
194.956
193.052
192.4
192.589
193.122
193.934
195.111
196.806
199.16
201.45
182.583
180.862
180.27
180.413
180.867
181.579
182.614
184.092
186.121
188.086
169.232
167.772
167.28
167.383
167.74
168.312
169.152
170.345
171.972
173.543
155.094
153.979
153.625
153.703
153.959
154.372
154.979
155.841
157.012
158.14
140.481
139.768
139.562
139.611
139.757
139.992
140.343
140.845
141.526
142.183
125.952
125.609
125.469
125.423
125.41
125.433
125.5
125.62
125.797
125.973
246.885
247.108
247.359
247.588
247.876
248.331
248.847
249.164
249.142
248.626
247.062
247.371
247.75
248.053
248.252
248.548
248.935
248.864
248.071
247.066
247.175
247.555
247.976
248.283
248.376
248.489
248.727
248.376
247.039
245.798
247.128
247.623
248.04
248.272
248.231
248.13
248.143
247.717
246.457
245.305
246.676
247.331
247.72
247.834
247.686
247.441
247.271
246.912
246.118
245.326
245.471
246.323
246.674
246.657
246.453
246.201
246.024
245.862
245.63
245.341
243.111
244.22
244.582
244.492
244.307
244.166
244.149
244.292
244.607
244.846
239.212
240.711
241.205
241.163
241.1
241.167
241.417
241.921
242.74
243.48
233.729
235.796
236.524
236.61
236.75
237.106
237.701
238.611
239.919
241.133
228.363
230.241
231.002
231.182
231.497
232.119
233.064
234.417
236.266
237.975
247.706
247.45
247.421
247.152
246.918
246.63
246.265
246.034
245.955
246.086
247.668
247.443
247.412
247.151
246.92
246.647
246.307
246.082
245.854
246.201
247.642
247.437
247.405
247.146
246.92
246.663
246.352
246.105
245.71
246.379
247.625
247.432
247.4
247.14
246.917
246.679
246.392
246.088
245.563
246.631
247.617
247.428
247.396
247.131
246.914
246.691
246.418
246.034
245.463
246.893
247.616
247.424
247.393
247.121
246.909
246.699
246.422
245.961
245.434
246.99
247.624
247.421
247.39
247.11
246.903
246.698
246.407
245.892
245.449
246.629
247.641
247.418
247.388
247.098
246.896
246.692
246.386
245.849
245.427
245.363
247.665
247.416
247.385
247.085
246.888
246.692
246.397
245.866
245.208
242.569
247.696
247.416
247.38
247.072
246.883
246.715
246.475
245.935
244.494
237.84
247.744
247.422
247.371
247.06
246.86
246.661
246.312
245.472
242.85
234.21
247.855
247.43
247.375
247.059
246.858
246.751
246.575
245.696
242.559
232.217
248.089
247.455
247.389
247.044
246.815
246.776
246.734
245.777
242.374
230.991
248.566
247.542
247.416
247.019
246.691
246.542
246.385
245.231
241.118
229.873
249.466
247.685
247.468
246.925
246.468
246.012
245.439
243.895
238.665
228.053
251.26
247.791
247.552
246.81
246.192
245.327
244.209
242.088
235.917
225.451
255.11
248.027
247.647
246.71
245.877
244.617
243.008
240.348
233.745
223.055
263.401
249.104
247.838
246.617
245.546
243.95
241.961
238.995
232.453
221.772
280.97
251.802
248.399
246.601
245.228
243.332
241.051
238.047
231.997
221.798
306.956
255.838
249.835
246.762
244.965
242.75
240.191
237.243
231.729
222.327
236.958
221.597
210.968
201.651
191.489
180.184
167.789
154.417
140.37
126.238
230.526
218.218
209.071
200.359
190.429
179.197
166.855
153.605
139.881
126.404
223.99
214.624
206.457
197.941
188.233
177.395
165.642
153.14
140.119
126.937
218.936
211.429
203.439
194.589
184.741
173.967
162.464
150.512
138.442
126.604
213.568
207.16
199.149
190.039
180.357
170.213
159.659
148.79
137.734
126.641
207.907
202.599
195.333
186.861
177.863
168.41
158.493
148.173
137.553
126.766
204.068
199.633
193.05
185.159
176.631
167.55
157.931
147.858
137.448
126.838
202.779
198.532
192.194
184.588
176.28
167.347
157.831
147.829
137.471
126.902
204.106
199.401
192.959
185.381
177.053
168.042
158.407
148.262
137.748
127.016
206.78
201.354
194.626
186.921
178.431
169.203
159.323
148.921
138.146
127.153
112.639
112.809
112.893
112.745
112.238
111.877
111.692
111.977
111.969
111.72
90.0674
90.5311
90.7499
90.3166
88.8846
87.7983
87.1777
87.8394
87.8767
87.2898
69.2277
69.8558
70.1174
69.4508
67.5118
65.8001
64.7802
65.3291
65.6332
65.0775
51.1136
51.7205
51.9102
51.0871
49.1086
46.9425
45.6124
45.648
46.3864
46.1522
36.4732
36.8815
36.9311
36.0494
34.2576
31.9416
30.2977
29.7325
30.5402
30.7269
25.4285
25.5295
25.4051
24.4818
22.9027
20.8719
19.0812
18.1396
18.3942
18.8936
17.555
17.3952
17.1731
16.1854
14.7698
13.2613
11.774
10.709
10.3673
10.7327
12.0881
11.891
11.8226
10.8286
9.51411
8.50465
7.61385
6.77418
6.18227
6.0946
8.41271
8.3084
8.57669
7.71248
6.55353
5.95748
5.6295
5.25342
4.7693
4.38354
6.50404
6.30046
6.67118
5.93909
5.07304
4.79807
4.82562
4.8237
4.67389
4.27351
5.70423
5.46573
5.55412
4.87001
4.34197
4.2944
4.45381
4.60194
4.72418
4.7781
5.25544
5.13937
4.87021
4.21757
3.94463
4.04596
4.26082
4.43247
4.55138
4.63499
4.86634
4.81387
4.38161
3.84405
3.74201
3.92166
4.15715
4.33929
4.45654
4.51475
4.40622
4.34202
3.93324
3.59627
3.6223
3.83891
4.05849
4.21841
4.31714
4.35743
3.84907
3.74718
3.48488
3.38278
3.51167
3.73296
3.92483
4.06366
4.14569
4.16969
3.19177
3.10107
3.06111
3.16961
3.37382
3.57866
3.74379
3.86365
3.93243
3.94774
2.48507
2.51502
2.66187
2.90264
3.1416
3.34268
3.50133
3.62005
3.69118
3.70956
1.84979
1.96902
2.21647
2.50631
2.76572
2.98833
3.17592
3.3235
3.41369
3.44268
1.19466
1.31046
1.57443
1.90331
2.22234
2.50994
2.76016
2.94575
3.04596
3.08532
0.517138
0.42495
0.664448
1.0719
1.49689
1.88935
2.20802
2.41005
2.51538
2.58978
4.11146
4.17263
4.05272
3.70803
3.02541
2.33031
1.71678
1.17858
0.684775
0.236924
4.17827
4.13059
4.00455
3.68975
2.97803
2.2727
1.67345
1.15253
0.672527
0.235813
4.19544
4.01074
3.89277
3.63596
2.92709
2.21739
1.6326
1.12855
0.661524
0.233219
4.14683
3.83415
3.73976
3.53644
2.86506
2.16302
1.594
1.10641
0.651497
0.228888
4.03639
3.63971
3.5769
3.39037
2.78245
2.10607
1.55663
1.08552
0.642076
0.223307
3.88261
3.46559
3.43129
3.22213
2.67651
2.04405
1.52015
1.06589
0.6334
0.217468
3.70823
3.32247
3.30852
3.06509
2.55477
1.9751
1.48259
1.04679
0.625164
0.212131
3.5197
3.2004
3.1997
2.93525
2.43339
1.89997
1.43859
1.02236
0.613178
0.206476
3.30483
3.08714
3.09022
2.82593
2.32305
1.82431
1.39003
0.992234
0.596984
0.200625
3.05062
2.9834
2.96891
2.72251
2.22192
1.75025
1.34016
0.959915
0.578761
0.194431
5.88219
4.42992
3.73977
3.36902
2.86068
2.29322
1.71599
1.17999
0.68019
0.22984
5.07749
4.21166
3.77999
3.43017
2.90302
2.31208
1.72361
1.18275
0.682601
0.231211
4.40664
4.12371
3.84367
3.4983
2.94179
2.32772
1.72985
1.18593
0.685123
0.232963
4.0863
4.12763
3.93068
3.5757
2.98036
2.34108
1.73511
1.18939
0.688043
0.234806
4.07014
4.17837
4.03548
3.66446
3.02136
2.35212
1.73831
1.1921
0.690926
0.236884
112.469
89.4047
68.356
50.5866
36.574
26.2555
19.0867
14.212
11.0299
9.21517
112.248
88.8429
67.6507
49.8535
35.7732
25.2526
17.7839
12.6791
9.53596
8.03493
112.062
88.3632
67.0134
49.1141
34.8633
24.0809
16.3644
11.1451
7.99986
6.54027
111.852
87.7898
66.1736
48.0499
33.539
22.4869
14.593
9.36093
6.27428
4.89653
111.598
87.0618
65.0444
46.5769
31.7388
20.4187
12.4227
7.38634
4.90383
4.08813
244.201
244.237
244.354
244.524
244.737
244.748
244.248
243.557
243.66
243.432
244.416
244.485
244.596
244.784
245.055
245.233
245.021
244.383
244.127
244.011
244.617
244.664
244.774
244.968
245.253
245.517
245.495
244.998
244.567
244.507
244.862
244.893
244.988
245.159
245.412
245.697
245.804
245.541
245.155
245.078
245.124
245.141
245.221
245.366
245.573
245.827
246.028
246.036
245.876
245.779
245.386
245.398
245.466
245.587
245.754
245.976
246.24
246.477
246.582
246.57
245.62
245.637
245.717
245.852
246.032
246.262
246.555
246.899
247.186
247.303
245.871
245.892
245.984
246.168
246.422
246.725
247.079
247.47
247.809
247.976
246.218
246.26
246.346
246.557
246.907
247.345
247.833
248.321
248.641
248.606
246.6
246.715
246.836
247.032
247.403
247.931
248.501
249.015
249.33
249.132
136.948
136.689
136.666
136.929
136.711
136.313
135.772
135.6
135.671
135.836
161.395
160.798
160.819
161.457
160.804
159.682
158.218
157.762
157.967
158.426
183.636
183.069
183.356
183.879
182.829
181.083
179.115
178.427
178.675
179.299
202.599
202.353
203.071
203.082
201.723
199.526
197.519
196.675
196.853
197.456
218.069
218.242
219.026
218.438
216.77
214.425
212.604
211.702
211.74
212.145
229.948
230.429
230.658
229.698
227.89
225.832
224.222
223.276
223.141
223.239
238.148
238.484
238.119
237.043
235.55
234.019
232.569
231.556
231.323
231.163
242.804
242.681
242.068
241.234
240.353
239.331
237.984
236.963
236.885
236.689
244.527
244.104
243.609
243.253
242.952
242.362
241.181
240.291
240.551
240.45
244.666
244.238
244.084
244.105
244.174
243.931
243.063
242.309
242.679
242.488
255.471
247.593
248.252
246.991
246.66
246.112
245.51
245.099
244.955
244.983
252.65
247.54
248.072
246.993
246.707
246.167
245.532
245.14
245.041
244.959
250.75
247.555
247.861
247.008
246.756
246.224
245.581
245.243
245.216
244.995
249.615
247.572
247.657
247.038
246.802
246.287
245.668
245.4
245.435
245.1
248.93
247.553
247.542
247.076
246.84
246.358
245.796
245.576
245.648
245.257
248.475
247.504
247.498
247.109
246.867
246.436
245.944
245.727
245.814
245.433
248.168
247.475
247.479
247.127
246.876
246.51
246.07
245.832
245.921
245.599
247.97
247.465
247.462
247.14
246.886
246.561
246.152
245.894
245.982
245.748
247.843
247.461
247.447
247.147
246.901
246.591
246.198
245.938
246.01
245.881
247.761
247.456
247.433
247.151
246.912
246.612
246.23
245.982
246.004
245.991
317.983
254.44
250.591
247.571
246.805
246.215
245.788
245.415
244.7
243.158
296.252
252.053
249.489
247.359
246.715
246.174
245.736
245.377
244.91
243.961
277.807
249.899
248.912
247.205
246.668
246.142
245.679
245.314
244.989
244.634
266.397
248.56
248.603
247.096
246.641
246.117
245.615
245.228
244.977
244.962
259.624
247.842
248.39
247.009
246.629
246.095
245.543
245.123
244.925
244.993
239.737
237.887
234.671
229.763
222.561
212.208
198.159
180.357
159.283
136.205
240.919
239.383
236.207
231.071
223.569
213.013
198.895
181.064
159.846
136.426
242.432
240.934
237.751
232.498
224.746
213.927
199.637
181.703
160.326
136.612
244.094
242.687
239.557
234.283
226.348
215.255
200.704
182.544
160.9
136.821
244.882
244.045
241.541
236.469
228.426
217.06
202.179
183.673
161.627
137.074
)
;

boundaryField
{
    left
    {
        type            zeroGradient;
    }
    right
    {
        type            fixedValue;
        value           uniform 0;
    }
    down
    {
        type            zeroGradient;
    }
    up
    {
        type            zeroGradient;
    }
    cylinder
    {
        type            zeroGradient;
    }
    defaultFaces
    {
        type            empty;
    }
}


// ************************************************************************* //
