/*--------------------------------*- C++ -*----------------------------------*\
  =========                 |
  \\      /  F ield         | OpenFOAM: The Open Source CFD Toolbox
   \\    /   O peration     | Website:  https://openfoam.org
    \\  /    A nd           | Version:  13
     \\/     M anipulation  |
\*---------------------------------------------------------------------------*/
FoamFile
{
    format      ascii;
    class       volScalarField;
    location    "0.16";
    object      strainRateViscosityModel:nu;
}
// * * * * * * * * * * * * * * * * * * * * * * * * * * * * * * * * * * * * * //

dimensions      [0 2 -1 0 0 0 0];

internalField   nonuniform List<scalar> 
1800
(
9.4052
9.19794
9.01028
8.80088
8.57562
8.34295
8.11334
7.89474
7.61913
7.37229
9.58529
9.41886
9.26693
9.09723
8.91086
8.71077
8.50241
8.28676
8.02439
7.69774
9.70217
9.56268
9.428
9.27088
9.08849
8.87859
8.64019
8.36781
8.02864
7.60761
9.77535
9.65609
9.53318
9.38278
9.20034
8.98145
8.72235
8.41519
8.02755
7.55266
9.82164
9.71825
9.60551
9.46157
9.28057
9.05676
8.78519
8.45843
8.04705
7.55507
9.85181
9.76075
9.65722
9.52049
9.34343
9.11881
8.84016
8.49992
8.07118
7.56972
9.87175
9.78985
9.69391
9.56386
9.39135
9.16756
8.88408
8.53242
8.08728
7.5756
9.88472
9.80919
9.7188
9.59385
9.42483
9.20135
8.91301
8.55004
8.08862
7.56375
9.89257
9.82102
9.73409
9.6121
9.44455
9.21952
8.92478
8.54927
8.07141
7.52909
9.89644
9.82681
9.74146
9.6206
9.45298
9.22563
8.92507
8.5396
8.05066
7.49337
2.01283
1.31911
1.12685
1.33284
1.81575
2.27647
2.42
2.35802
2.30959
2.30938
3.79609
1.72073
1.51479
2.09822
2.74496
2.87674
2.711
2.63841
2.69273
2.74857
4.6503
2.59699
2.52293
3.22638
3.53024
3.25925
3.07309
3.15332
3.27869
3.34139
5.2356
3.93497
3.86852
4.20014
4.13646
3.83242
3.75953
3.87487
3.94739
3.98756
6.05437
5.31133
5.14269
5.11907
4.9184
4.6772
4.59346
4.60165
4.59059
4.63313
6.96731
6.47954
6.24162
6.04564
5.79846
5.55634
5.38852
5.28098
5.20715
5.2621
7.77863
7.38783
7.12528
6.86646
6.59318
6.32384
6.08448
5.89283
5.75923
5.81273
8.40447
8.06038
7.79647
7.51915
7.22876
6.93136
6.63897
6.37956
6.18221
6.21839
8.85159
8.5478
8.29309
8.01168
7.70602
7.37818
7.03202
6.69471
6.4062
6.41127
9.16262
8.90257
8.66713
8.39696
8.09517
7.764
7.40294
7.0298
6.69996
6.74313
2.1732
1.70753
1.29875
0.84905
0.411153
0.104075
0.0252267
0.0131892
0.0109791
0.010093
2.52113
1.84705
1.40299
0.884386
0.421727
0.107936
0.0260555
0.013382
0.0111074
0.0101196
2.94485
1.99338
1.50344
0.926335
0.436656
0.11447
0.0272028
0.0136024
0.0112378
0.0101474
3.43773
2.17338
1.59706
0.971981
0.454879
0.122853
0.0285532
0.0138455
0.0113649
0.0101746
3.98036
2.41344
1.68904
1.01778
0.47437
0.132468
0.0300626
0.0141043
0.0114806
0.010199
4.52312
2.72153
1.7929
1.06329
0.493268
0.142561
0.0317277
0.0143776
0.0115794
0.0102188
4.98718
3.07745
1.91802
1.10748
0.508025
0.15094
0.0333604
0.0146565
0.0116568
0.0102325
5.30018
3.45837
2.08785
1.16682
0.523886
0.158077
0.0351067
0.0149686
0.0117149
0.0102393
5.32994
3.74137
2.23844
1.20802
0.524325
0.156443
0.0356539
0.0151433
0.0117293
0.0102375
5.18685
4.00875
2.48176
1.3261
0.560881
0.167279
0.0397612
0.0159012
0.0117907
0.0102317
4.9384
3.97665
2.55566
1.34744
0.527786
0.142725
0.0363402
0.0150237
0.011113
0.0100371
5.34834
3.42564
2.25788
1.10759
0.346958
0.0518094
0.0118778
0.0120324
0.0161167
0.0249122
4.93326
3.08269
2.21991
1.06402
0.307228
0.0643021
0.10281
0.178572
0.22209
0.261179
4.54442
3.57828
2.55862
1.44292
0.635189
0.376712
0.431794
0.492631
0.519703
0.538495
5.09577
4.70464
3.25357
2.02845
1.04524
0.635953
0.617115
0.666549
0.694592
0.716971
6.24996
5.65479
4.01994
2.6031
1.48441
0.957074
0.859836
0.871449
0.886573
0.899467
7.26394
6.37256
4.70385
3.12634
1.90929
1.2803
1.08592
1.04478
1.04061
1.04306
8.00117
6.91308
5.25871
3.58486
2.30625
1.6018
1.31429
1.21108
1.18027
1.1678
8.51872
7.33017
5.69682
3.97811
2.6634
1.89712
1.52067
1.3525
1.29194
1.26414
8.93023
7.68822
6.04763
4.30279
3.00647
2.20834
1.74424
1.50088
1.40232
1.35262
6.51379
6.44029
6.43063
6.44838
6.48629
6.52802
6.57895
6.70602
6.88904
6.81765
0.261607
1.05805
2.00877
2.92419
3.70563
4.31883
4.73623
4.98647
5.22705
5.73254
3.8485
3.54249
3.28354
3.1105
3.10647
3.252
3.47711
3.72189
4.17744
4.86113
6.64514
6.62792
6.53741
6.34421
6.04147
5.6541
5.24368
4.8887
4.73223
4.54539
7.69231
7.677
7.63264
7.54186
7.39665
7.19001
6.92629
6.61697
6.28084
5.64715
8.44978
8.43337
8.39463
8.32808
8.23006
8.09737
7.92915
7.71757
7.42826
6.90711
8.93979
8.92404
8.89039
8.83692
8.76185
8.66319
8.5386
8.37957
8.15555
7.80979
9.27302
9.25984
9.23249
9.18988
9.13056
9.05252
8.9528
8.82502
8.65315
8.43147
9.50446
9.49417
9.47307
9.44023
9.39425
9.33317
9.25421
9.15283
9.02284
8.8753
9.6899
9.68284
9.66852
9.64603
9.61403
9.57066
9.51353
9.43963
9.34617
9.24379
7.25006
7.52689
7.83591
8.08586
8.34284
8.59792
8.84016
9.06088
9.25436
9.46043
7.58378
7.94768
8.23966
8.47954
8.70785
8.92361
9.12147
9.29854
9.45375
9.61814
7.49881
7.95683
8.32477
8.61921
8.87459
9.09684
9.28746
9.44919
9.58523
9.72228
7.44723
7.95722
8.37287
8.70103
8.97573
9.20532
9.39428
9.54782
9.6712
9.78822
7.45671
7.98044
8.418
8.76422
9.04994
9.2831
9.46947
9.61573
9.72859
9.8302
7.48281
8.0116
8.46364
8.82102
9.11192
9.34442
9.52583
9.66432
9.76789
9.85761
7.50405
8.03789
8.50256
8.86833
9.16168
9.39165
9.56746
9.69879
9.79472
9.87567
7.51163
8.05261
8.52864
8.90191
9.19726
9.42502
9.59626
9.72203
9.81238
9.88726
7.49893
8.05071
8.53744
8.91888
9.21753
9.44488
9.6136
9.73597
9.82284
9.89402
7.48346
8.04388
8.536
8.92338
9.22514
9.45318
9.62113
9.74209
9.82741
9.89691
2.4968
2.45971
2.45554
2.59286
2.73388
2.44545
1.68986
1.16575
1.44
3.9813
2.92441
2.85598
2.72137
2.69056
2.98218
3.26987
2.75044
1.89777
2.07047
4.94546
3.43238
3.39504
3.26977
3.10941
3.26391
3.73657
3.71969
3.13204
3.24296
5.31539
3.95954
3.94004
3.91899
3.83701
3.92882
4.30614
4.54602
4.43535
4.62312
5.82674
4.53578
4.50081
4.5662
4.64047
4.80728
5.12317
5.42624
5.60064
5.87259
6.58639
5.13862
5.09305
5.22303
5.4135
5.67015
5.98672
6.30603
6.58755
6.8893
7.38762
5.68035
5.64213
5.83577
6.10075
6.41277
6.74226
7.06685
7.37453
7.674
8.08042
6.08346
6.06646
6.32387
6.64593
6.99519
7.33832
7.66514
7.97202
8.2571
8.60977
6.27066
6.28662
6.63391
7.0256
7.41807
7.78189
8.1145
8.41513
8.68202
8.988
6.60646
6.57382
6.95639
7.37783
7.7789
8.14076
8.46472
8.74935
8.9926
9.25211
0.0811309
0.101131
0.0284298
0.0137914
0.0140674
0.174904
0.71534
1.32476
1.83582
2.3503
0.0534132
0.103906
0.0301848
0.0164242
0.0187701
0.192288
0.757069
1.42958
1.95864
2.65317
0.0368224
0.110329
0.0336377
0.0217559
0.0284748
0.224417
0.815238
1.53211
2.07995
3.00733
0.0274332
0.119566
0.0387443
0.0301432
0.0442106
0.268963
0.883455
1.62524
2.22752
3.42858
0.0225102
0.131293
0.0454129
0.0415084
0.0659535
0.321386
0.953945
1.71191
2.43219
3.9124
0.0205888
0.145479
0.0535226
0.0553892
0.0925978
0.37672
1.02303
1.80716
2.70772
4.40693
0.0211118
0.162315
0.0628425
0.0707233
0.120704
0.428028
1.08759
1.92401
3.03806
4.83026
0.0241082
0.18167
0.0733438
0.0865428
0.14941
0.478711
1.1659
2.09128
3.40039
5.10879
0.0318822
0.202978
0.0841989
0.0995726
0.167648
0.505966
1.21945
2.2413
3.67371
5.10865
0.051399
0.224141
0.0974199
0.112758
0.198854
0.57443
1.36348
2.49945
3.92392
4.9144
0.100227
0.254642
0.121223
0.124103
0.198985
0.564386
1.40273
2.60887
3.93536
4.70021
0.199295
0.297279
0.130991
0.117025
0.14093
0.398971
1.19038
2.39236
3.49998
5.23209
0.360898
0.323705
0.137778
0.0624505
0.0330913
0.215051
1.01626
2.30931
3.26139
4.96938
0.616341
0.327168
0.0383275
0.0590334
0.112132
0.30601
1.17456
2.46448
3.62039
4.67433
0.984896
0.142084
0.187167
0.425578
0.513212
0.784411
1.76664
3.08097
4.63169
5.13445
1.48812
0.0599183
0.585294
0.661284
0.814885
1.25605
2.38179
3.8568
5.56746
6.20872
2.15895
0.65824
0.912954
0.982559
1.19972
1.75954
2.96184
4.57376
6.29564
7.21613
3.77407
1.65755
1.35567
1.3307
1.58197
2.22843
3.4748
5.16566
6.85538
7.97054
6.85588
3.55537
2.04073
1.69334
1.94011
2.64561
3.91838
5.64133
7.29727
8.50785
9.04859
6.38491
2.94088
2.23311
2.35682
3.05889
4.30271
6.03675
7.68718
8.93748
6.63212
6.69426
6.51643
6.39377
6.35233
6.32514
6.30739
6.31872
6.36309
6.47728
5.55808
5.03924
4.79123
4.54623
4.14444
3.55496
2.80959
1.9398
1.04959
0.286437
4.87507
4.25071
3.83343
3.61544
3.4226
3.29922
3.30309
3.44711
3.64789
3.86986
4.69091
4.8596
5.00376
5.31842
5.6894
6.04578
6.33164
6.52149
6.61758
6.64275
5.66367
6.27123
6.60396
6.90759
7.17138
7.38179
7.53257
7.62894
7.67738
7.69295
6.861
7.38717
7.68463
7.9032
8.0776
8.21572
8.3185
8.38909
8.43096
8.44921
7.76621
8.12161
8.35298
8.51872
8.64857
8.75142
8.82987
8.88605
8.92182
8.93913
8.40554
8.63332
8.80931
8.94122
9.0442
9.12479
9.18605
9.23013
9.25859
9.27263
8.8663
9.01622
9.1476
9.25056
9.33079
9.39279
9.43941
9.47266
9.49399
9.50442
9.24824
9.35008
9.44273
9.5161
9.57279
9.61578
9.64741
9.66952
9.68346
9.6901
9.50979
8.98589
8.23663
6.92965
5.6009
0.131686
3.36181
5.962
7.21471
8.15254
9.46578
8.92215
8.16886
6.89192
5.55201
0.565114
2.62285
5.70792
6.91715
7.91467
9.36614
8.78349
8.021
6.81081
5.36875
1.60595
1.41382
5.20893
6.31042
7.40412
9.1832
8.54592
7.77523
6.65614
5.18868
2.74302
0.723283
4.24079
5.42337
6.57254
8.86914
8.1745
7.40476
6.3779
5.02869
3.37082
0.97122
2.63321
4.31958
5.39538
8.35228
7.63049
6.87409
5.91794
4.76672
3.44398
1.72101
1.30281
3.05223
3.99042
7.53953
6.89614
6.15663
5.22874
4.29675
3.27082
2.14957
1.17553
1.65835
2.55978
6.33402
6.03128
5.28341
4.24313
3.52865
2.90058
2.122
1.44404
1.07159
1.23496
4.65793
5.21129
4.46432
3.02646
2.44892
2.2581
1.84717
1.39288
1.12923
0.659243
2.71507
4.51075
3.98293
1.98461
1.41757
1.48896
1.40376
1.21643
1.0704
0.848655
1.30827
3.77373
3.62565
1.3352
0.825249
0.90985
0.981567
0.966107
0.979536
1.02453
0.632533
2.9744
3.06088
0.950806
0.581705
0.6596
0.784673
0.842585
0.862156
0.891594
0.366835
2.19823
2.27964
0.695703
0.512574
0.626599
0.761373
0.84419
0.877717
0.898883
0.272637
1.54025
1.47831
0.550481
0.575438
0.715458
0.828409
0.898298
0.918877
0.926259
0.244738
0.974096
0.827309
0.559217
0.715203
0.845623
0.94421
1.0055
1.01875
1.01394
0.244318
0.440924
0.498044
0.664028
0.850301
0.987033
1.08008
1.13367
1.14304
1.13513
0.153967
0.195337
0.511214
0.763879
0.984478
1.12334
1.20854
1.25835
1.27976
1.28194
0.039805
0.262924
0.641434
0.909174
1.10231
1.21615
1.30802
1.39413
1.45246
1.47003
0.081368
0.493676
0.801118
1.03511
1.16481
1.31099
1.4939
1.64928
1.71532
1.72037
0.749408
0.87378
0.974574
1.10292
1.30688
1.6341
1.92394
2.03972
2.02587
2.00057
0.363336
0.0655979
0.238982
0.563426
0.776166
0.852797
0.884014
0.911848
0.933296
0.9523
0.471743
0.22868
0.320188
0.519278
0.690776
0.75394
0.781603
0.809383
0.831207
0.848213
0.546125
0.397114
0.435409
0.49355
0.602557
0.651551
0.674395
0.700238
0.721432
0.735302
0.667383
0.6105
0.587461
0.516819
0.51418
0.539756
0.559477
0.584429
0.605197
0.616135
0.8328
0.80893
0.724996
0.583477
0.443051
0.424575
0.436807
0.458916
0.478312
0.48514
1.02357
0.984506
0.842839
0.664566
0.405528
0.312906
0.313382
0.332852
0.349953
0.355397
1.2227
1.13594
0.93914
0.729552
0.399592
0.216905
0.181514
0.189118
0.203539
0.201465
1.42859
1.27684
1.02355
0.770994
0.402735
0.153265
0.0722517
0.0517307
0.0490994
0.0397446
1.64878
1.41844
1.10703
0.797487
0.403508
0.118379
0.0323072
0.0158688
0.0125418
0.0105865
1.8915
1.56371
1.19829
0.82102
0.405319
0.105406
0.0254179
0.0131253
0.0108969
0.0100756
2.01106
0.742228
0.740795
0.994926
1.22089
1.32109
1.35707
1.3701
1.37287
1.38266
1.39678
0.478322
0.605284
0.902968
1.12589
1.22304
1.2615
1.28048
1.28952
1.30246
0.753233
0.281599
0.509521
0.824271
1.04488
1.13837
1.17728
1.20014
1.21346
1.22862
0.256638
0.177855
0.434375
0.749292
0.961458
1.0472
1.0839
1.10932
1.12623
1.14329
0.432356
0.0316848
0.295747
0.633635
0.857188
0.945025
0.982137
1.01075
1.03141
1.05069
9.3555
9.29096
9.142
8.87427
8.43893
7.78045
6.87302
5.76105
4.5838
3.5389
9.1935
9.09675
8.88235
8.51312
7.94324
7.13845
6.11178
4.95733
3.84708
2.78897
9.02498
8.90145
8.62796
8.16261
7.46356
6.51804
5.37316
4.17031
3.08291
1.94367
8.81738
8.66335
8.32279
7.74938
6.90771
5.81562
4.55607
3.29592
2.22709
1.09093
8.58839
8.38034
7.92688
7.17857
6.11373
4.79322
3.35201
2.08544
0.990833
0.299317
1.06087
1.0272
1.02185
1.02917
0.928857
0.812549
1.30026
3.64385
3.83637
1.35072
0.955759
0.942465
0.938592
0.886448
0.734266
0.599746
0.91914
3.11052
3.08946
0.66429
0.998266
0.996196
0.981716
0.909629
0.764239
0.602165
0.716769
2.34556
2.31746
0.387231
1.06615
1.07783
1.07427
1.01507
0.906071
0.763011
0.683626
1.52579
1.58365
0.283284
1.18896
1.21073
1.21507
1.16937
1.08418
0.964756
0.803396
0.879164
0.86189
0.250943
1.33563
1.35309
1.35708
1.32805
1.25985
1.13265
0.913469
0.6462
0.337054
0.211376
1.51291
1.51145
1.48016
1.42781
1.3612
1.24893
1.02382
0.716393
0.266846
0.063161
1.74149
1.73946
1.6727
1.53244
1.38149
1.2567
1.11088
0.832948
0.466405
0.0481586
1.99186
2.02749
2.02589
1.87016
1.56809
1.27402
1.09944
0.955232
0.788379
0.654123
2.21485
2.24536
2.32797
2.36313
2.12342
1.60238
1.15494
0.992308
1.18227
1.96037
8.15235
7.21435
5.96164
3.3613
0.131944
5.59944
6.92915
8.23643
8.98591
9.50988
7.91399
6.91604
5.70691
2.62222
0.564998
5.54814
6.89046
8.16828
8.9222
9.46609
7.40266
6.30851
5.2071
1.41566
1.60229
5.36421
6.80852
8.02012
8.78361
9.36673
6.56984
5.42039
4.23844
0.726476
2.73482
5.18386
6.65325
7.77424
8.54624
9.18424
5.39089
4.31493
2.6338
0.971638
3.35966
5.0226
6.37437
7.40379
8.17524
8.87091
3.98201
3.04412
1.31039
1.71567
3.43072
4.75784
5.91315
6.87313
7.63198
8.35532
2.54349
1.65464
1.18917
2.13936
3.2529
4.28155
5.22038
6.15545
6.89909
7.54499
1.21733
1.08853
1.45831
2.11135
2.87327
3.50211
4.22819
5.28299
6.0377
6.34472
0.670092
1.156
1.41237
1.83776
2.22411
2.41458
3.00755
4.46867
5.22455
4.67989
0.884481
1.10461
1.2495
1.41115
1.47005
1.39052
1.96128
3.99125
4.53758
2.75402
2.06839
0.523432
1.04073
0.765298
0.786389
0.774701
0.623166
0.302323
0.0608907
0.358313
1.60216
0.244427
0.832278
0.603023
0.679281
0.683514
0.569196
0.350891
0.280809
0.496292
1.31098
0.0274336
0.587373
0.444798
0.567966
0.584452
0.522618
0.449652
0.482039
0.604745
1.04563
0.0367292
0.342928
0.30939
0.452661
0.479737
0.510929
0.607162
0.728161
0.771684
0.790098
0.11796
0.0870947
0.191978
0.334248
0.381611
0.546749
0.763538
0.944071
0.978558
0.577335
0.162011
0.0196378
0.0273301
0.21725
0.306818
0.609262
0.897226
1.13003
1.20148
0.40816
0.156833
0.0443591
0.0163044
0.0779198
0.263482
0.658126
0.997786
1.28568
1.42482
0.28129
0.134914
0.0350023
0.0197218
0.0243587
0.223115
0.678897
1.07513
1.42616
1.64606
0.189176
0.11456
0.03085
0.0153852
0.0145863
0.189992
0.683816
1.14684
1.56382
1.8666
0.124635
0.103747
0.0284424
0.013406
0.0129101
0.173506
0.692176
1.22849
1.70235
2.09346
9.33631
6.76677
2.70761
1.83572
1.34499
1.21152
1.0256
0.81421
0.794401
2.03576
8.21044
4.62863
2.24616
1.55838
1.21939
1.11676
0.938898
0.678433
0.521693
1.40132
6.11743
3.05254
1.8116
1.3547
1.11467
1.03963
0.867267
0.583783
0.319747
0.742603
4.12421
1.85899
1.50932
1.14799
1.0063
0.95801
0.797331
0.50616
0.222867
0.228372
2.81869
1.0488
1.24595
0.945905
0.891049
0.859171
0.691517
0.367357
0.0442836
0.398342
3.54921
4.59082
5.76502
6.8753
7.78205
8.44008
8.87505
9.14248
9.29122
9.35559
2.78307
3.84357
4.95481
6.11018
7.13791
7.94327
8.51334
8.88258
9.09691
9.19356
1.9295
3.07376
4.16419
5.36868
6.51558
7.46243
8.16219
8.62787
8.90147
9.02501
1.05688
2.20466
3.28306
4.54816
5.81151
6.90551
7.74826
8.32232
8.6632
8.81736
0.298034
0.961397
2.06501
3.33917
4.78636
6.11012
7.17658
7.92592
8.37997
8.58831
)
;

boundaryField
{
    left
    {
        type            calculated;
        value           nonuniform List<scalar> 
35
(
0.275199
0.532625
0.967704
1.62298
2.53292
3.69654
5.05803
6.47452
8.15824
9.4417
0.217918
0.158863
0.125521
0.10746
0.098324
0.0950306
0.0965015
0.103195
0.120972
0.163924
4.92982
4.04828
3.21844
2.50161
1.89799
1.39401
0.993916
0.690178
0.468937
0.316385
9.61566
8.97927
7.92283
6.84884
5.85916
)
;
    }
    right
    {
        type            calculated;
        value           nonuniform List<scalar> 
35
(
1.38273
1.30264
1.22885
1.14349
1.05067
0.951618
0.84656
0.732284
0.611576
0.479247
0.348714
0.195329
0.0372634
0.0103781
0.0100257
0.0100299
0.0100376
0.0100457
0.0100538
0.0100614
0.0100679
0.0100728
0.010076
0.0100767
0.0100764
0.0100034
0.0280493
0.274813
0.553969
0.730293
0.909558
1.04969
1.17134
1.26541
1.35157
)
;
    }
    down
    {
        type            calculated;
        value           nonuniform List<scalar> 
40
(
9.45407
7.26265
2.93325
1.92028
1.38303
1.24303
1.05553
0.857352
0.896312
2.26268
3.83393
4.88375
6.03547
7.09445
7.94607
8.5563
8.95556
9.20019
9.33649
9.39568
9.39559
9.33621
9.19967
8.95469
8.55495
7.94407
7.09141
6.03026
4.87474
3.82045
2.23412
0.84242
0.783583
1.02719
1.25434
1.35355
1.3874
1.39786
1.39825
1.40693
)
;
    }
    up
    {
        type            calculated;
        value           nonuniform List<scalar> 
40
(
9.03325
7.80522
6.16384
4.41365
3.11864
2.30631
1.81012
1.54074
1.43127
1.37641
9.72926
9.72305
9.71045
9.69063
9.66232
9.62373
9.57256
9.50574
9.42055
9.32781
9.33453
9.42614
9.51009
9.57601
9.62649
9.66451
9.69231
9.71164
9.72376
9.7295
9.27038
7.09672
3.31937
2.36644
2.46767
3.18527
4.42881
6.16523
7.81328
9.04411
)
;
    }
    cylinder
    {
        type            calculated;
        value           nonuniform List<scalar> 
80
(
2.35754
4.7157
5.47572
5.7172
6.28903
7.09316
7.86746
8.47881
8.91461
9.21384
9.4461
9.61876
9.72979
9.79826
9.84092
9.86842
9.88647
9.89814
9.90519
9.90867
9.50066
9.65074
9.74907
9.81047
9.84898
9.87387
9.89014
9.90052
9.90655
9.90911
5.09937
6.0391
6.05909
6.21942
6.78477
7.50632
8.1701
8.68502
9.05095
9.3029
1.01631
0.483361
0.270906
0.18761
0.164841
0.16771
0.083434
0.039438
0.730077
2.38216
9.59473
9.55619
9.46785
9.30246
9.01081
8.5134
7.69124
6.38095
4.42571
2.28104
9.59463
9.55587
9.46723
9.30138
9.00893
8.51016
7.68541
6.36925
4.4001
2.23861
0.977493
0.455898
0.252689
0.176533
0.155326
0.172235
0.148669
0.0812558
0.0468049
0.783937
)
;
    }
    defaultFaces
    {
        type            empty;
    }
}


// ************************************************************************* //
