# Selection   : all
# Cells       : 440
# Volume      : 7.374263e+01
# Time        	max(p)
8.215         	2.297040e+00
8.26          	2.291183e+00
8.31          	2.255842e+00
