/*--------------------------------*- C++ -*----------------------------------*\
  =========                 |
  \\      /  F ield         | OpenFOAM: The Open Source CFD Toolbox
   \\    /   O peration     | Website:  https://openfoam.org
    \\  /    A nd           | Version:  13
     \\/     M anipulation  |
\*---------------------------------------------------------------------------*/
FoamFile
{
    format      ascii;
    class       volScalarField;
    location    "2.3";
    object      p;
}
// * * * * * * * * * * * * * * * * * * * * * * * * * * * * * * * * * * * * * //

dimensions      [0 2 -2 0 0 0 0];

internalField   nonuniform List<scalar>
1800
(
-1.56024184085
-1.5726106616
-1.52505170649
-1.43725045191
-1.33780097327
-1.24286035496
-1.15811335327
-1.08362743438
-1.01820038486
-0.965606805817
-1.75996113918
-1.77314247214
-1.71735462055
-1.61743521762
-1.50560533339
-1.39925335675
-1.30446997197
-1.2216763791
-1.15045570073
-1.09279184682
-1.95173519878
-1.96502971477
-1.90004102665
-1.78769524982
-1.66347603986
-1.54561425557
-1.44033494759
-1.34795179084
-1.26755888467
-1.19988509962
-2.13023519445
-2.14297186089
-2.06820466058
-1.94392962309
-1.80842412144
-1.68048431367
-1.56628603138
-1.46594200212
-1.37837830228
-1.30402744168
-2.28944199527
-2.30089712079
-2.21580258501
-2.08024785033
-1.93440646639
-1.79733958944
-1.67500255012
-1.56729724836
-1.47299517195
-1.39187903155
-2.42410521755
-2.43365601001
-2.33815476996
-2.19248473561
-2.03778548734
-1.89315912606
-1.76420958993
-1.65058388943
-1.55086419185
-1.46443612122
-2.52898372475
-2.53599177824
-2.43029722479
-2.27600465231
-2.11399281572
-1.96338919652
-1.82925934077
-1.71101089239
-1.60705773128
-1.5164047729
-2.59976515397
-2.60364994809
-2.48847095411
-2.3273376813
-2.15974731814
-2.00491534072
-1.86722395574
-1.74580353635
-1.63889572101
-1.54518477394
-2.63290989167
-2.63328163751
-2.50976740755
-2.3435360147
-2.17217783578
-2.01496920913
-1.8753146737
-1.75218360257
-1.64364562787
-1.54807722775
-2.62625952942
-2.62316092605
-2.49227334523
-2.32326795175
-2.14952481382
-1.99167954003
-1.85153950361
-1.72793507265
-1.61890945733
-1.5226565032
-0.139123273315
-0.129435246828
-0.118192457504
-0.104634800588
-0.0930521747238
-0.0857540709
-0.0827439207921
-0.0832548695224
-0.0865033546978
-0.0918586078143
-0.186526944534
-0.178133131011
-0.166039563906
-0.150073556351
-0.135317785281
-0.124720592517
-0.118581961823
-0.116197938129
-0.116782939389
-0.11952814201
-0.259928640012
-0.253420383527
-0.240000498354
-0.220375094477
-0.200798865723
-0.185192124716
-0.174305666584
-0.167536765645
-0.164083967104
-0.162846066059
-0.358429425676
-0.354227258347
-0.338954612403
-0.314435514768
-0.288497912315
-0.266311813098
-0.249208239172
-0.236715277078
-0.22800247441
-0.221560559079
-0.480725987685
-0.479091793075
-0.461384605566
-0.430771038875
-0.397070751951
-0.366923651891
-0.342332094906
-0.322978209176
-0.307991382211
-0.295339390195
-0.624962173013
-0.626019511725
-0.605249960229
-0.567420128784
-0.524744608693
-0.485489639351
-0.452379516847
-0.425277154536
-0.403255900576
-0.383667954998
-0.788578668913
-0.792347486303
-0.767881499173
-0.721876698461
-0.669301613551
-0.620108634164
-0.577766926064
-0.542334563635
-0.512800623925
-0.485925343213
-0.96816351677
-0.974569388353
-0.945784874635
-0.890860989712
-0.827825429153
-0.768305227185
-0.716481336991
-0.672589922828
-0.635431627796
-0.601411762019
-1.15952216682
-1.16834100652
-1.13442867125
-1.06971170583
-0.995585673122
-0.925332174136
-0.863825759447
-0.811430556677
-0.766578921644
-0.725978654953
-1.35832684944
-1.36916893527
-1.32896791849
-1.25313670107
-1.16664871015
-1.08435524133
-1.0117183934
-0.94912007694
-0.894839283809
-0.847600244912
-0.134707481977
-0.211898617625
-0.280725520834
-0.330934736871
-0.369351831585
-0.400214178325
-0.426842206661
-0.45110975108
-0.474125531971
-0.496544308283
-0.146224081598
-0.219968699552
-0.284456974894
-0.333002558361
-0.370759818996
-0.401288921283
-0.427661882298
-0.451692570485
-0.474478812182
-0.496672539701
-0.164154535786
-0.232530470685
-0.290226112505
-0.335941576561
-0.372502195294
-0.402474729325
-0.428501374915
-0.452261865734
-0.474815177602
-0.496794629084
-0.189454785739
-0.249076685804
-0.29794887937
-0.339738713325
-0.37458544762
-0.403781260306
-0.42936763712
-0.452823208549
-0.475138318318
-0.496911350439
-0.223514796267
-0.26889715016
-0.307482493805
-0.344369312979
-0.377014105551
-0.40521213469
-0.4302669718
-0.45338234288
-0.475451763125
-0.497023221779
-0.268064423743
-0.291131737142
-0.318601328581
-0.349786552416
-0.379786281216
-0.406774899234
-0.431204607471
-0.453944037395
-0.475758434924
-0.497130483541
-0.325014784407
-0.314967477264
-0.330929234471
-0.35590770983
-0.382895488291
-0.408470650139
-0.432185428221
-0.45451317626
-0.476061287919
-0.497233233524
-0.396200813111
-0.341131350269
-0.344191618764
-0.362645615068
-0.386327590265
-0.410303385382
-0.433213856079
-0.455094232968
-0.476363135176
-0.497331235236
-0.481991539702
-0.371702657018
-0.358709372275
-0.370140062942
-0.390171674584
-0.412317954475
-0.434310078865
-0.45569729444
-0.476667883744
-0.497422399965
-0.575789981662
-0.406193958833
-0.374221803353
-0.378251986428
-0.394385726584
-0.414509677236
-0.435477871586
-0.456328863719
-0.476981132652
-0.497506756567
-0.635223312024
-0.442948608544
-0.392670356161
-0.389731763199
-0.401449803045
-0.418784425121
-0.438075588493
-0.457885592477
-0.477794199842
-0.497706667516
-0.658547039698
-0.480067858844
-0.418511737087
-0.406796248828
-0.412462869599
-0.425770518407
-0.442485827425
-0.460595503644
-0.479256886173
-0.498153296529
-0.664239300773
-0.501817702976
-0.437042688832
-0.420772601066
-0.422276078967
-0.432324929702
-0.446735545724
-0.463240024068
-0.48069896516
-0.498600401642
-0.666092928041
-0.519834354242
-0.453968195972
-0.433669938526
-0.431479697223
-0.43858529878
-0.450844520592
-0.465814893902
-0.482113843434
-0.499044744031
-0.663479559146
-0.532816791477
-0.468262271961
-0.445092989821
-0.439872543491
-0.444419320852
-0.454726141546
-0.468267115607
-0.483472106745
-0.499476937175
-0.658983035546
-0.542729012984
-0.480421533731
-0.455157177153
-0.447414297757
-0.449743665481
-0.458307473243
-0.47054720004
-0.484746729936
-0.499888497029
-0.654635328331
-0.550692984362
-0.490754523048
-0.463915324824
-0.454059582902
-0.454483834678
-0.461523255533
-0.472609973887
-0.485913250396
-0.500272407096
-0.651792866496
-0.557750556973
-0.499683994701
-0.471470560189
-0.459789231923
-0.458582716311
-0.464317771755
-0.474414264759
-0.486949991122
-0.500620619879
-0.649586412555
-0.564469669496
-0.50809160391
-0.478476911838
-0.465044999547
-0.46232573047
-0.466873352862
-0.476077973404
-0.487943887564
-0.500980100135
-0.658834033637
-0.571720643799
-0.514657670581
-0.483490031789
-0.468675265773
-0.464877278954
-0.468605108902
-0.477199052846
-0.488608784088
-0.501217293561
-1.36228736755
-1.38658583756
-1.38798105594
-1.36750974467
-1.32728655278
-1.26996244363
-1.19928352488
-1.11636021308
-1.02859714959
-0.931982622686
-1.18981367516
-1.21573746115
-1.22295122615
-1.21274999905
-1.18601794242
-1.14621617151
-1.09451686694
-1.03500659109
-0.971501080826
-0.90329087027
-1.05719424256
-1.08276909268
-1.09312976702
-1.08951298728
-1.07190541181
-1.04434716003
-1.00576553179
-0.961845807598
-0.912669500043
-0.859543770133
-0.954483576001
-0.980396588074
-0.993022313914
-0.993609263071
-0.982026793162
-0.962064723219
-0.932192932187
-0.898204297407
-0.858819381874
-0.816661906788
-0.876749298015
-0.902453001889
-0.916488511239
-0.919834704281
-0.912508791429
-0.897616608162
-0.87410239967
-0.847060264978
-0.815034897154
-0.780982106971
-0.817352172536
-0.843143640349
-0.858364390899
-0.863753508717
-0.859583641773
-0.848283251884
-0.829447234823
-0.807279375482
-0.780422410612
-0.7518931895
-0.773221890843
-0.799317391179
-0.815542324719
-0.822474802678
-0.820621746124
-0.811859903195
-0.796323012505
-0.777477038585
-0.754284304955
-0.729658299765
-0.741876567211
-0.768660089696
-0.785983748898
-0.794246463869
-0.794130542101
-0.787150597161
-0.773809358863
-0.757012531105
-0.736125453071
-0.714125540871
-0.725187067839
-0.752086130231
-0.770386429951
-0.780077602985
-0.781493448486
-0.775725422095
-0.763429083793
-0.746927211473
-0.726283937491
-0.703001422
-0.713540257855
-0.743435239149
-0.764812590791
-0.777997585699
-0.783482264745
-0.781928051051
-0.774127846411
-0.761106311786
-0.743121585238
-0.720375432374
-0.0795938398629
-0.133072968136
-0.197639949618
-0.267532349141
-0.342941286345
-0.426790998278
-0.52067270113
-0.620676106888
-0.707146388999
-0.734975824133
-0.267230730277
-0.325876820313
-0.393622059097
-0.468611171513
-0.552375154094
-0.647344609702
-0.754229820147
-0.868192435928
-0.966501370706
-0.996399144236
-0.478440636189
-0.540733635658
-0.610904888014
-0.689865424967
-0.77969370489
-0.882521384947
-0.998835932498
-1.12354855731
-1.23149002343
-1.26201726625
-0.677565098185
-0.744852966221
-0.820755792667
-0.906739208848
-1.00465140187
-1.1165091722
-1.24277878141
-1.37833814795
-1.49583155057
-1.52591406092
-0.855551304039
-0.929685118314
-1.01328686978
-1.10786839983
-1.21520692795
-1.33733152338
-1.47454182953
-1.62154850229
-1.74912551201
-1.77738251853
-1.01565277073
-1.0966698857
-1.18784903561
-1.29079935464
-1.4073638837
-1.53955861181
-1.68726893993
-1.844730925
-1.98225061941
-2.00596014664
-1.1596522161
-1.24628290266
-1.3438670138
-1.45403842424
-1.57867380419
-1.71966983384
-1.87671932419
-2.04279247424
-2.18708058786
-2.20378570222
-1.28506035966
-1.37597943541
-1.47867463571
-1.59470704001
-1.72600303698
-1.87436212794
-2.03834234896
-2.21089783692
-2.35741180159
-2.36384740688
-1.3878750224
-1.48210957682
-1.58879943767
-1.70919350326
-1.84507130361
-1.99884901583
-2.17014220033
-2.34163120056
-2.48676745974
-2.48986799652
-1.46515488274
-1.56202393033
-1.67183534673
-1.7957603268
-1.93365636088
-2.09026232378
-2.26775464382
-2.43579730288
-2.57278469142
-2.57886284635
1.02867029183
1.04288101301
1.05903603953
1.0755118736
1.09091967349
1.10436989988
1.11506121551
1.12245702057
1.12763900858
1.13284181925
0.9787687969
0.991074952656
1.00479257689
1.01841786496
1.03066522504
1.04061813236
1.04746767566
1.05086738892
1.05266997778
1.05604529595
0.909322395072
0.918948786637
0.929159965625
0.938650951833
0.946307525211
0.95121583111
0.952480368924
0.950093636327
0.947109275927
0.947730309409
0.821054942033
0.827229068083
0.832958031647
0.837154112541
0.838925406527
0.837360497291
0.831484992396
0.821620382547
0.812451568565
0.809411235817
0.714766716851
0.716927915849
0.717376592818
0.715284117708
0.71008420636
0.700778893511
0.68632913784
0.667446930791
0.650385183593
0.644108457987
0.59156371856
0.589442520749
0.584097602658
0.57494361875
0.561746695534
0.543569507143
0.519288887922
0.490050726314
0.463734121325
0.45392156012
0.453565564854
0.447348901553
0.436074461825
0.419327740711
0.397370025263
0.369314592984
0.334066598924
0.2932550651
0.256616620077
0.243043085154
0.307549086458
0.296682216126
0.278128261132
0.252274749696
0.220047358988
0.180686038432
0.1330787798
0.0793819556663
0.0314756345313
0.0141527891664
0.161101204493
0.145302528859
0.118381739944
0.0818225475793
0.0376312630355
-0.0147806265932
-0.0764603456365
-0.144649354213
-0.204983971902
-0.226102183375
0.0307262281911
-0.0012280630175
-0.0447518793511
-0.0964030052935
-0.154609329673
-0.221045473917
-0.297300927087
-0.380258160183
-0.453035649847
-0.477614584782
0.854857296374
0.974708145007
0.955194442425
0.771327565281
0.78212984548
0.792322102373
0.801126534114
0.822310264981
0.863768747736
0.967731529027
0.849045054332
0.970491845615
0.950410219735
0.765498964899
0.775845501442
0.784653205497
0.79120148614
0.809084286003
0.844427651092
0.934594517669
0.843559840304
0.966600240148
0.945514928667
0.758653740272
0.76898828881
0.776170979801
0.779730541049
0.793322225311
0.819754167964
0.889851382547
0.838353496083
0.963095252966
0.940510541987
0.750832960812
0.761643306519
0.766927141668
0.766725346435
0.774876166757
0.789186484114
0.833923784763
0.833505077911
0.959955350058
0.935334797633
0.742086816903
0.753867046665
0.756903386721
0.752183877622
0.753531941143
0.752715134726
0.766655374029
0.829066290243
0.957217411992
0.929952613438
0.732480228277
0.745774541733
0.74610557662
0.736133159832
0.729168958151
0.711267385161
0.686590307099
0.825118755135
0.95487248804
0.924285284376
0.722105178408
0.737413125032
0.734509228044
0.718537037136
0.701892146581
0.666546066004
0.59069693666
0.821712400053
0.95289726249
0.918281062569
0.711068430877
0.728895074904
0.722116411831
0.699401150217
0.671725130548
0.617837347054
0.480925222094
0.818994169186
0.951284290676
0.911876450716
0.699542648671
0.720259570295
0.708920651629
0.678832482538
0.638590019484
0.563159630478
0.354076683776
0.817238169232
0.95001423072
0.90508052175
0.687678133696
0.711501543461
0.694919363526
0.657219349871
0.603978796798
0.504660642752
0.225742109678
0.815515828503
0.947728119999
0.900635993274
0.676764124985
0.699015656894
0.676597690044
0.62883094322
0.559534587254
0.439637623741
0.105025134393
0.815610852308
0.944613626518
0.899568414883
0.66855815016
0.684158229061
0.656794565855
0.599912482074
0.51788908273
0.381310468105
0.0678029885278
0.817863204399
0.942226724048
0.898530751516
0.66133332964
0.670508210207
0.638415180039
0.573720814618
0.482246549606
0.333139623365
0.0410704160999
0.82247950441
0.94080341497
0.897588439644
0.655117513245
0.658373989439
0.621896674189
0.550715730474
0.452290697972
0.294155504344
0.0250946326435
0.829452788071
0.940393516189
0.896833330266
0.649928946315
0.647942105872
0.607548963687
0.53119748003
0.427601510171
0.26413477497
0.0161851103106
0.840518135617
0.941066792209
0.89631105438
0.645772618495
0.639341868965
0.595543306616
0.515231717249
0.40786300262
0.242210187639
0.0118303767079
0.853852172099
0.942614886331
0.895948682526
0.642643250674
0.632638290404
0.586017054862
0.50280833195
0.392815900103
0.227141148845
0.010698573366
0.874981139331
0.945837781504
0.895848703603
0.640526001564
0.627878754131
0.5790061784
0.493873288219
0.382223373642
0.21772431302
0.0122670215066
0.889290147045
0.946299742142
0.892846399421
0.639637727717
0.625293355926
0.574712431079
0.488590384268
0.376281478284
0.213499326024
0.0178517895854
0.948475895779
0.95702136443
0.896327807682
0.637855291384
0.625347151207
0.57297798287
0.486586386168
0.373953582437
0.212973418538
0.0213239709495
-0.11398178626
-0.27058382403
-0.452828518318
-0.625087393004
-0.777589309252
-0.914953911721
-1.04042629906
-1.15138926753
-1.24365956399
-1.31604320895
-0.179580189037
-0.297785539387
-0.433959395971
-0.569285278148
-0.692738474787
-0.804874268151
-0.908378670267
-1.00167435057
-1.08179573391
-1.14551176174
-0.206209495696
-0.300076697901
-0.403522079555
-0.513994341976
-0.620035512216
-0.717678667129
-0.807989326897
-0.889943646283
-0.9604615835
-1.016608691
-0.210638831319
-0.292517322625
-0.378343697074
-0.471614592642
-0.563908322259
-0.649655310055
-0.728908838314
-0.801194871451
-0.864142957467
-0.9156014719
-0.20364777351
-0.27861376221
-0.353748549877
-0.434714696595
-0.516862693867
-0.594512868599
-0.666599147172
-0.73271175309
-0.791038281434
-0.839546997794
-0.19209373631
-0.26249935568
-0.331069446406
-0.403983378976
-0.479107055096
-0.551124470305
-0.618252509851
-0.680014478931
-0.734935580681
-0.781164953887
-0.179836049016
-0.246991864443
-0.311225424437
-0.378865775301
-0.449254452362
-0.517423052095
-0.581200082488
-0.640030213041
-0.692664640523
-0.737486444302
-0.168279405394
-0.233272502626
-0.294640210766
-0.359060513851
-0.426619783287
-0.49246897004
-0.554238943782
-0.61132051978
-0.662532615093
-0.706389238293
-0.15462852448
-0.218004464738
-0.278141008934
-0.341819529401
-0.408906310666
-0.474524009718
-0.536307888454
-0.593594747284
-0.645221368299
-0.689585004691
-0.137319723216
-0.196212825774
-0.254875131906
-0.319191582166
-0.386826405724
-0.45305764552
-0.515989450224
-0.574772317904
-0.628110311795
-0.674667045109
-3.78109208871
-3.76184077782
-3.57898591285
-3.36639484509
-3.16328144939
-2.98821159181
-2.84153821212
-2.72059016598
-2.62332772792
-2.54913925291
-3.83094268234
-3.82196821348
-3.65452064064
-3.44462489852
-3.24016396098
-3.06177429731
-2.91200445583
-2.78834985192
-2.68927629985
-2.61563969525
-3.76843220545
-3.77006407872
-3.61958985275
-3.41456285028
-3.20916550168
-3.02765076616
-2.87483716425
-2.74840115186
-2.64637035784
-2.56943438477
-3.60087126056
-3.61123628902
-3.47964579512
-3.28182486075
-3.07655531703
-2.89229634169
-2.73635929706
-2.60714982704
-2.50213364806
-2.42045566216
-3.34445847255
-3.36108451653
-3.24862782939
-3.06107524715
-2.85868126469
-2.67360174431
-2.5157936551
-2.38468091065
-2.2776061059
-2.19261356698
-3.02153087188
-3.04216270641
-2.94769093231
-2.77394774986
-2.57910625479
-2.39741208851
-2.24100905971
-2.1104887479
-2.00329596834
-1.91838297304
-2.65855014057
-2.68085205882
-2.60262981541
-2.44647865542
-2.26542655232
-2.09346361131
-1.94386354811
-1.81839597908
-1.71445110108
-1.63327687125
-2.28219149749
-2.30391955157
-2.23985784843
-2.10414003098
-1.94268045956
-1.78685562743
-1.64985432398
-1.53419221834
-1.43778449273
-1.36328839448
-1.91613299246
-1.93555036996
-1.88362130844
-1.76958427836
-1.63166086233
-1.49717193802
-1.37815292849
-1.27733562919
-1.19308590959
-1.13166441727
-1.57676869586
-1.59284345204
-1.55087132301
-1.45747198286
-1.34352173193
-1.23168170553
-1.13202906294
-1.04669006475
-0.972973636914
-0.917325402602
-1.2734698524
-1.28564141265
-1.25177407001
-1.1769682968
-1.08582595984
-0.996774680374
-0.918156418034
-0.851971282875
-0.796099484979
-0.747903091276
-1.00934588232
-1.01749457891
-0.990024925293
-0.930851736879
-0.859331352299
-0.790074444205
-0.729492385037
-0.678918228711
-0.637061738365
-0.59860687329
-0.783381824776
-0.787661763989
-0.765061686581
-0.718411125784
-0.662790487402
-0.609599772242
-0.563557846832
-0.525365633835
-0.494208914902
-0.465223117105
-0.593562990512
-0.594296216816
-0.575502016571
-0.539030137445
-0.496572528822
-0.456895708059
-0.423335480846
-0.396106691729
-0.374468758687
-0.354729603593
-0.43792254055
-0.435512518017
-0.419689499792
-0.391435412403
-0.359775225895
-0.331297562959
-0.308207003193
-0.290343484831
-0.276932363457
-0.26536861071
-0.314625994644
-0.309489641823
-0.295866418377
-0.273959241175
-0.250768542708
-0.23113244182
-0.216362262104
-0.206034004359
-0.199356818451
-0.194555280706
-0.222113595969
-0.214723448036
-0.202610162304
-0.185324756244
-0.168398022426
-0.155350042384
-0.146819577454
-0.142202263786
-0.140707744287
-0.141132705249
-0.159146007907
-0.150082245074
-0.13888618625
-0.124659731916
-0.111935131557
-0.103332905239
-0.0990354926855
-0.0983264870659
-0.100417829384
-0.104470796232
-0.124792192148
-0.114728236076
-0.103937869648
-0.0913188759796
-0.0808450153599
-0.0746352406117
-0.0726296934738
-0.0740508445364
-0.0781182430593
-0.0841925171287
-0.118395153096
-0.108138509501
-0.0973303507485
-0.0848735929604
-0.0747287714122
-0.0689123319095
-0.0673054536056
-0.0691095508782
-0.0735429095161
-0.0800315461013
-0.464665050432
-0.350939071363
-0.343642671772
-0.353206846355
-0.370824074082
-0.393145111792
-0.417693304312
-0.443075103056
-0.468806408513
-0.494690835894
-0.367451537355
-0.320333115185
-0.330419304559
-0.347581065845
-0.369557904709
-0.393715831977
-0.418828277353
-0.444159094503
-0.46954400109
-0.494941091701
-0.291622704579
-0.295852377515
-0.319686304354
-0.343632671895
-0.368650909081
-0.394317471526
-0.419898831228
-0.44516578087
-0.470225141885
-0.495173409706
-0.235807820001
-0.275390875795
-0.309725525365
-0.339605210595
-0.367861873944
-0.39491337851
-0.420900207673
-0.446097888602
-0.470854105932
-0.495389083555
-0.195006272724
-0.257201522649
-0.300597368667
-0.336136009237
-0.367288520445
-0.395524559669
-0.42184238293
-0.446962104441
-0.471434804317
-0.495589532267
-0.166149725909
-0.240695450896
-0.292735758489
-0.333327953507
-0.366948790444
-0.396160779587
-0.422735530572
-0.447765222042
-0.471971007686
-0.495776234207
-0.146675927063
-0.226872952048
-0.286448428353
-0.331236268945
-0.366858651917
-0.396837768156
-0.423590685272
-0.448514173105
-0.472466884415
-0.495950374026
-0.134664028008
-0.216088159808
-0.28197554341
-0.329912872272
-0.367039799124
-0.397566954001
-0.424418522095
-0.44921621635
-0.472926201586
-0.496113060577
-0.12904473801
-0.21003297775
-0.279496992759
-0.329405992995
-0.367504387799
-0.398364835218
-0.425229752743
-0.449878317888
-0.473353155363
-0.496265559313
-0.129052888888
-0.208577104082
-0.279071684925
-0.329739640736
-0.368271051918
-0.399244065701
-0.42603451344
-0.450507248169
-0.47375172291
-0.496408865642
-0.678626490535
-0.47841766086
-0.404672171683
-0.382227849711
-0.383266821472
-0.397066175118
-0.418077953185
-0.442257773342
-0.467875320291
-0.49425621617
-0.633345297265
-0.455137912666
-0.39506360524
-0.378397783596
-0.381369775551
-0.396699270381
-0.418090732276
-0.442381930543
-0.468008418718
-0.494318197006
-0.602291163834
-0.435902083793
-0.385610104055
-0.373891458358
-0.379571504028
-0.39600921149
-0.417990087553
-0.442494116564
-0.468161044304
-0.494395341416
-0.567516538785
-0.412434684343
-0.373526594821
-0.367926391564
-0.376964919194
-0.394960217194
-0.41772208023
-0.44252883193
-0.46827024079
-0.494453769038
-0.525519344617
-0.380510507827
-0.357022968435
-0.359629114808
-0.373303523194
-0.393582702473
-0.417314891742
-0.442504101774
-0.468349561611
-0.494499142809
-2.4809309882
-2.54976815041
-2.52278139672
-2.40614709677
-2.2136419697
-1.98331060505
-1.71730503998
-1.47583324301
-1.24414372015
-1.04329491187
-2.477791057
-2.54433748823
-2.51050080768
-2.38686852192
-2.18999197107
-1.95866047421
-1.69693169665
-1.45652145972
-1.22632383077
-1.01300245427
-2.47995789483
-2.54502800281
-2.50589982571
-2.37454870179
-2.17022266481
-1.92672713135
-1.65722810182
-1.40228665199
-1.17273593007
-0.980089142301
-2.49055765136
-2.55648561716
-2.51329685231
-2.37239007262
-2.15594952942
-1.89592958577
-1.61924521505
-1.35698635422
-1.13409195305
-0.949976704626
-2.51009503236
-2.5771585239
-2.52979447434
-2.37941629797
-2.15085441526
-1.87759251749
-1.59463340661
-1.32866727173
-1.10359289909
-0.908869045025
0.458211700807
0.437195449719
0.406445627455
0.368865114577
0.326399131352
0.277562840097
0.220245763557
0.156523947898
0.100298901781
0.0792623167823
0.579452498126
0.575043084062
0.561616708514
0.540202039567
0.512855136631
0.479111265792
0.437671276766
0.390443164089
0.348767018516
0.333740486429
0.701728725026
0.701794016371
0.696179748222
0.685209393989
0.669762162048
0.649096496156
0.622006416199
0.589794714262
0.561398928984
0.551685248289
0.810965730419
0.815271878559
0.816488448412
0.814249911649
0.808578299319
0.798618894081
0.783272739832
0.763389458736
0.745896489479
0.740435558983
0.902879486663
0.910687576718
0.91710851526
0.921531564186
0.92348018257
0.922038580512
0.916164420275
0.906309238579
0.897652962068
0.895641239769
0.974548247072
0.985536286229
0.996443426245
1.00637590167
1.01450309148
1.0199033005
1.0216088347
1.01970098103
1.01761314028
1.01903952608
1.02584442809
1.0392520032
1.05361264067
1.06770991558
1.08046735917
1.09095715021
1.09831082435
1.10228453871
1.10490212558
1.10917363624
1.0570037161
1.07195102063
1.08858404585
1.10543020694
1.12121654846
1.13505046286
1.14611637372
1.15392833966
1.15964784921
1.16549436716
1.06812797668
1.0836119992
1.10123337931
1.11934873199
1.13653649137
1.15193590774
1.16477170583
1.17440714344
1.18155914994
1.18802373164
1.05844246104
1.07377473001
1.09121955039
1.10919977147
1.12631235652
1.14163684141
1.15437333366
1.16386993884
1.17089186324
1.17710420278
-2.3781382224
-2.45501291384
-2.55144053633
-2.66929547745
-2.8119488016
-2.9826618192
-3.18416303204
-3.39494941345
-3.59405513437
-3.62084223869
-2.12270262049
-2.20052930904
-2.29572284767
-2.41018119389
-2.54787380632
-2.71200604081
-2.90230919758
-3.11510079465
-3.3387093078
-3.35857972371
-1.80582191743
-1.88193979266
-1.97498332139
-2.08617758892
-2.21895953724
-2.37668852102
-2.56164072552
-2.77190301832
-2.97090791707
-3.01863457436
-1.44735867309
-1.52298536219
-1.61452449447
-1.72263624822
-1.85017115579
-2.00052982857
-2.17615646855
-2.37349323568
-2.55606647076
-2.61706808762
-1.07699141939
-1.15391772555
-1.24406472079
-1.34797203389
-1.46834615669
-1.60862100368
-1.77130064691
-1.95221320119
-2.11858467974
-2.18110679174
-0.729585440193
-0.804450406676
-0.88971978351
-0.985867949047
-1.0955846222
-1.22231554977
-1.36852150746
-1.53009623741
-1.67782848235
-1.73595721316
-0.420660691865
-0.487920327205
-0.56356149362
-0.647948018525
-0.743802636315
-0.854482380707
-0.982204395252
-1.12296923589
-1.2507836482
-1.30176096033
-0.139827866829
-0.197069584387
-0.261778191137
-0.333652194921
-0.415542735783
-0.51078318573
-0.621155380389
-0.742550944553
-0.851646333504
-0.894901596377
0.126377833609
0.0780885961662
0.019998660195
-0.0441521114996
-0.116197148874
-0.199448804391
-0.295417042219
-0.399994610253
-0.492468873933
-0.528431105841
0.351981361663
0.310552267899
0.255841895445
0.196535796089
0.133269510634
0.0628923120594
-0.0168055331786
-0.102749023534
-0.177758916905
-0.206318463309
0.946854568515
1.02595783393
0.979238484249
0.769673076616
0.819378343113
0.825491182213
0.819894150188
0.818232287
0.78142351263
0.626977468478
0.932832356208
1.0213289612
0.980870810935
0.77404876191
0.816692195255
0.825741391328
0.823150853369
0.828908613177
0.810783544876
0.71432323779
0.920341563085
1.01625734134
0.981224942092
0.77785199789
0.81394855503
0.825207938403
0.826499665721
0.838579005197
0.836671443686
0.801790386337
0.909270160098
1.01089147271
0.980387011349
0.78087019932
0.811141438398
0.823865334502
0.828276788541
0.845654491233
0.856504645499
0.869098491509
0.899347373371
1.00538267725
0.978525195101
0.782922576955
0.808194111327
0.821708872964
0.828693928446
0.850376342127
0.871907728449
0.921079060296
0.890388578601
0.999870002443
0.975826525908
0.783868330472
0.80499985797
0.818765317713
0.827721209047
0.852219159561
0.883975889148
0.957707143845
0.882202019442
0.99443371319
0.972464592255
0.783675620253
0.801456368928
0.815046149263
0.825374433493
0.851226386291
0.890631065824
0.982423928519
0.874665085863
0.989152717904
0.968577053522
0.782296987458
0.797451252911
0.810563448736
0.821581107629
0.847633738074
0.891606146535
0.995988789416
0.867621146617
0.984077589083
0.964343520776
0.779765522986
0.79293688256
0.805279434677
0.816294008561
0.841569614327
0.887357553727
0.998771471361
0.861046147517
0.97925614914
0.959855220351
0.776091549544
0.787832696792
0.799209829679
0.809483192609
0.833130791791
0.878043280986
0.989105576594
1.08246637329
1.04243620809
0.982741356848
0.766442326141
0.820972491675
0.818545644339
0.799632045741
0.775064146059
0.682730768358
0.496005113537
1.02273058207
1.03505095333
0.981771008127
0.768260432712
0.820238254151
0.819754899089
0.801242924883
0.778062343568
0.689020727089
0.498616101076
1.00385898364
1.03509414145
0.983769967751
0.768063922295
0.820532952434
0.82109124162
0.804277578491
0.783973583156
0.703334139519
0.503521821913
0.981753149037
1.032828051
0.982054043347
0.767766669797
0.820764156694
0.822550164342
0.808438296021
0.792469729895
0.723094894285
0.520044014385
0.962824031259
1.02975743868
0.979443082712
0.767402548353
0.820821292998
0.824047338486
0.813328099458
0.80325797824
0.74743933972
0.540462764963
0.14633107534
0.00510892017267
-0.192547169242
-0.467565290231
-0.802348487203
-1.15676287517
-1.49571073878
-1.8054005833
-2.08693261526
-2.32065396104
0.138540599156
-0.000638332304219
-0.188179626729
-0.450181874441
-0.772459985499
-1.12342127914
-1.46956446015
-1.79083068087
-2.07953436929
-2.31733350532
0.165590353242
0.0164801012778
-0.176054613322
-0.431688633436
-0.742564139437
-1.09086576736
-1.44718283138
-1.78051444602
-2.07606773695
-2.31773219083
0.225083638808
0.0524977755143
-0.159387767065
-0.41539497231
-0.718094542635
-1.06420699097
-1.42865560499
-1.77364353241
-2.0771886907
-2.32407886577
0.311036837211
0.109131263431
-0.133223682957
-0.399845282436
-0.701832672458
-1.04722386375
-1.41651862701
-1.77110042684
-2.08394902678
-2.33826282551
)
;

boundaryField
{
    left
    {
        type            zeroGradient;
    }
    right
    {
        type            fixedValue;
        value           uniform 0;
    }
    down
    {
        type            zeroGradient;
    }
    up
    {
        type            zeroGradient;
    }
    cylinder
    {
        type            zeroGradient;
    }
    defaultFaces
    {
        type            empty;
    }
}


// ************************************************************************* //
