/*--------------------------------*- C++ -*----------------------------------*\
  =========                 |
  \\      /  F ield         | OpenFOAM: The Open Source CFD Toolbox
   \\    /   O peration     | Website:  https://openfoam.org
    \\  /    A nd           | Version:  13
     \\/     M anipulation  |
\*---------------------------------------------------------------------------*/
FoamFile
{
    format      ascii;
    class       volScalarField;
    location    "0.1175";
    object      p;
}
// * * * * * * * * * * * * * * * * * * * * * * * * * * * * * * * * * * * * * //

dimensions      [0 2 -2 0 0 0 0];

internalField   nonuniform List<scalar> 
1800
(
-0.90528
-0.835462
-0.733792
-0.627803
-0.532703
-0.450595
-0.379602
-0.317549
-0.262627
-0.216961
-1.06979
-0.992721
-0.878781
-0.759562
-0.652333
-0.559352
-0.478701
-0.408294
-0.347078
-0.296689
-1.22403
-1.13968
-1.0137
-0.881728
-0.762928
-0.659539
-0.569529
-0.490727
-0.42189
-0.363666
-1.36293
-1.27149
-1.13405
-0.990249
-0.860941
-0.748203
-0.649876
-0.563669
-0.48823
-0.423863
-1.48118
-1.38299
-1.23491
-1.08044
-0.941818
-0.820781
-0.715033
-0.622176
-0.540766
-0.470633
-1.57362
-1.46924
-1.31163
-1.14795
-1.00146
-0.873404
-0.76137
-0.662875
-0.57637
-0.501297
-1.63548
-1.52569
-1.35988
-1.18875
-1.03602
-0.902384
-0.785327
-0.682318
-0.59171
-0.512624
-1.66265
-1.54841
-1.37599
-1.19947
-1.04229
-0.904614
-0.783912
-0.67762
-0.583999
-0.501901
-1.65196
-1.53431
-1.35734
-1.17762
-1.0178
-0.877667
-0.754767
-0.646501
-0.55102
-0.466964
-1.60143
-1.48169
-1.30271
-1.12142
-0.960927
-0.820033
-0.69642
-0.587478
-0.491239
-0.406254
0.33841
0.361755
0.380767
0.394263
0.402327
0.406193
0.406987
0.405518
0.402368
0.398095
0.301285
0.326241
0.348047
0.364773
0.375929
0.382585
0.385881
0.386662
0.385539
0.383197
0.237857
0.265264
0.291363
0.313026
0.328895
0.339788
0.346872
0.351048
0.35298
0.353565
0.1497
0.18032
0.212128
0.24031
0.262386
0.278834
0.290861
0.299449
0.305332
0.309698
0.0389546
0.0734747
0.112302
0.148445
0.178059
0.201226
0.219199
0.233058
0.243623
0.252443
-0.0916036
-0.0525556
-0.00551933
0.0398683
0.0781841
0.10907
0.133839
0.153677
0.1695
0.183268
-0.238533
-0.194376
-0.138068
-0.0823118
-0.0342935
0.00517957
0.037478
0.0638981
0.0854519
0.104555
-0.397799
-0.347986
-0.281472
-0.214372
-0.155787
-0.106962
-0.0664682
-0.0329125
-0.00517179
0.019627
-0.564967
-0.50896
-0.431405
-0.352086
-0.282133
-0.223202
-0.173831
-0.13256
-0.0980575
-0.0671955
-0.735541
-0.672819
-0.583448
-0.491042
-0.408792
-0.33868
-0.279188
-0.228742
-0.185721
-0.148048
0.353153
0.271875
0.223099
0.18272
0.148703
0.118901
0.0912682
0.0647357
0.0386862
0.0128497
0.350624
0.273934
0.225474
0.18477
0.150219
0.119927
0.0919296
0.0651357
0.0388959
0.0129079
0.341414
0.274221
0.227076
0.186607
0.15178
0.121076
0.0927223
0.0656438
0.0391747
0.0129892
0.324834
0.272708
0.227945
0.188226
0.15337
0.122337
0.0936378
0.0662539
0.0395192
0.013093
0.300044
0.269236
0.228119
0.18962
0.154969
0.123695
0.0946663
0.0669594
0.039926
0.0132187
0.266381
0.263381
0.227585
0.190774
0.156554
0.125135
0.0957969
0.0677529
0.0403909
0.0133657
0.223879
0.254389
0.226226
0.191657
0.158098
0.126637
0.097017
0.0686263
0.0409097
0.0135331
0.173239
0.241241
0.223799
0.19222
0.159576
0.128184
0.0983141
0.0695708
0.0414778
0.0137202
0.114472
0.22318
0.219764
0.192297
0.160931
0.129751
0.0996769
0.0705797
0.0420916
0.0139268
0.0515084
0.202078
0.214521
0.192022
0.162213
0.131354
0.101109
0.0716527
0.0427513
0.0141568
0.0250671
0.189673
0.210949
0.191297
0.162601
0.132082
0.10182
0.0722008
0.0431165
0.0143394
0.018485
0.170808
0.198108
0.183958
0.158687
0.130028
0.100735
0.0716197
0.04284
0.014275
0.0279258
0.159846
0.1881
0.177409
0.15482
0.127845
0.0995194
0.0709461
0.0425064
0.0141878
0.0416006
0.152019
0.179285
0.171169
0.150904
0.125528
0.0981826
0.0701875
0.0421209
0.0140809
0.057544
0.14689
0.17173
0.16536
0.147053
0.123154
0.0967707
0.0693689
0.0416963
0.0139582
0.0727496
0.143349
0.165197
0.160007
0.143353
0.120796
0.0953313
0.0685182
0.0412466
0.0138238
0.0850921
0.140478
0.159443
0.155111
0.139869
0.118518
0.0939087
0.0676621
0.0407853
0.0136813
0.093263
0.137436
0.154177
0.150621
0.136629
0.11636
0.0925358
0.0668218
0.0403223
0.0135337
0.0962098
0.133122
0.148715
0.14615
0.133408
0.114184
0.0911216
0.0659361
0.0398112
0.0133541
0.0947296
0.131195
0.14629
0.14417
0.131974
0.113213
0.0904929
0.0655453
0.0395915
0.0132818
-0.262865
-0.322017
-0.359857
-0.37721
-0.375754
-0.357825
-0.325726
-0.282396
-0.230601
-0.175438
-0.107371
-0.166329
-0.208036
-0.233299
-0.243236
-0.240031
-0.224762
-0.20225
-0.171597
-0.141798
0.0119141
-0.0449884
-0.0878902
-0.117274
-0.133881
-0.139653
-0.134947
-0.124571
-0.10574
-0.0880095
0.104003
0.0485229
0.00512534
-0.0265724
-0.0471807
-0.0583054
-0.0602764
-0.0570879
-0.0466904
-0.037072
0.174317
0.120167
0.0766538
0.0435315
0.020275
0.00561007
-0.00101769
-0.00262541
0.00182257
0.00619856
0.227822
0.174606
0.131005
0.0968877
0.0717865
0.0546982
0.0448613
0.0400647
0.0405233
0.0414526
0.267608
0.214897
0.171078
0.136116
0.109603
0.0907524
0.0786802
0.0717247
0.0694967
0.0680785
0.295767
0.243062
0.198746
0.162867
0.135088
0.114803
0.101103
0.0927334
0.0888614
0.0860767
0.313226
0.259907
0.214516
0.177284
0.147974
0.126144
0.110965
0.101563
0.0969376
0.0945865
0.323486
0.267257
0.218815
0.178274
0.145534
0.120396
0.102126
0.0905894
0.0843508
0.0834556
1.2471
1.20043
1.14836
1.09313
1.03266
0.964418
0.886254
0.797871
0.708533
0.639851
1.04835
0.995616
0.938456
0.875853
0.805604
0.725776
0.634429
0.531501
0.427898
0.347876
0.833453
0.777289
0.715808
0.646839
0.568483
0.478946
0.376166
0.260156
0.143516
0.0528062
0.626164
0.565146
0.497447
0.420945
0.333938
0.234506
0.120363
-0.00852247
-0.137693
-0.238547
0.430489
0.363609
0.289065
0.204799
0.109099
-0.000128514
-0.125386
-0.266849
-0.407855
-0.518106
0.246477
0.174074
0.0931984
0.00182192
-0.10182
-0.219998
-0.355434
-0.508635
-0.660088
-0.778626
0.0761874
-0.000817378
-0.0870579
-0.184481
-0.294865
-0.420614
-0.564794
-0.728746
-0.888851
-1.01378
-0.0770343
-0.157629
-0.248176
-0.350489
-0.466285
-0.597914
-0.748742
-0.921984
-1.09154
-1.21619
-0.209805
-0.293038
-0.38685
-0.492896
-0.612953
-0.749175
-0.904062
-1.08224
-1.26361
-1.38138
-0.319686
-0.404595
-0.500471
-0.608754
-0.73135
-0.871045
-1.03016
-1.2111
-1.39117
-1.51073
2.48376
2.50226
2.52525
2.55039
2.57532
2.59915
2.62133
2.64123
2.65887
2.67224
2.42953
2.44621
2.4669
2.48942
2.51148
2.53215
2.55084
2.56692
2.58069
2.59107
2.35477
2.36878
2.38604
2.40463
2.42237
2.43831
2.45176
2.46208
2.47006
2.47607
2.26019
2.27074
2.28353
2.29697
2.30906
2.31879
2.32535
2.32807
2.3284
2.32911
2.14691
2.1533
2.16066
2.16783
2.17305
2.17521
2.17338
2.16685
2.1579
2.15203
2.01645
2.01806
2.01916
2.01908
2.01634
2.00974
1.99816
1.98096
1.96126
1.9472
1.87065
1.86718
1.86145
1.85334
1.84168
1.8252
1.80266
1.77345
1.74169
1.71817
1.71244
1.70361
1.69048
1.67351
1.65201
1.62465
1.59003
1.54764
1.50273
1.46877
1.54834
1.53407
1.51245
1.48517
1.45236
1.41272
1.36468
1.30784
1.24873
1.20356
1.38717
1.36199
1.32812
1.28859
1.24339
1.19062
1.12838
1.05637
0.982507
0.925695
2.59435
1.88547
2.45535
2.25089
2.22091
2.21751
2.22544
2.25071
2.31416
2.41705
2.58689
1.87748
2.44915
2.24317
2.21225
2.20728
2.2126
2.23398
2.28941
2.37999
2.5804
1.86877
2.44405
2.23481
2.20271
2.19583
2.19774
2.21403
2.25763
2.33072
2.57477
1.85943
2.44009
2.22581
2.19232
2.18318
2.18093
2.19079
2.21891
2.26895
2.56991
1.8496
2.43726
2.21612
2.18112
2.16939
2.1622
2.16413
2.17326
2.19465
2.56575
1.83946
2.43553
2.20567
2.16917
2.15451
2.14162
2.1339
2.12033
2.10839
2.56222
1.82921
2.43484
2.19437
2.15655
2.1386
2.1192
2.1
2.0613
2.00904
2.55923
1.8191
2.43508
2.18212
2.14337
2.12174
2.09493
2.06257
1.99783
1.89569
2.55674
1.80941
2.43609
2.16883
2.12979
2.10399
2.0689
2.02179
1.92984
1.76684
2.5546
1.80047
2.43766
2.15441
2.11601
2.08548
2.04156
1.97914
1.8605
1.6325
2.55269
1.79143
2.43353
2.14242
2.09942
2.06141
2.00481
1.92232
1.77301
1.48474
2.55399
1.78376
2.42383
2.13466
2.08269
2.03635
1.96772
1.86853
1.69756
1.40428
2.55675
1.77825
2.41522
2.12722
2.06758
2.01346
1.9345
1.82231
1.63708
1.35121
2.56151
1.77481
2.40795
2.12038
2.05421
1.99313
1.90554
1.78334
1.58961
1.31423
2.56891
1.77329
2.40215
2.11443
2.04272
1.97566
1.8811
1.75138
1.55346
1.28818
2.57968
1.77354
2.39783
2.10954
2.03322
1.96122
1.86124
1.72609
1.52694
1.27043
2.58964
1.77534
2.39487
2.10583
2.02582
1.94992
1.84592
1.70708
1.50847
1.25927
2.60979
1.77894
2.39304
2.10337
2.02056
1.94182
1.83507
1.69394
1.49678
1.25373
2.63081
1.7847
2.39182
2.1022
2.01757
1.93702
1.82877
1.68667
1.49153
1.25459
2.68049
1.79167
2.39338
2.10039
2.01594
1.93418
1.82503
1.68225
1.48833
1.25416
1.21987
1.04772
0.853714
0.667835
0.494278
0.330817
0.178453
0.0400995
-0.0812093
-0.182537
1.13862
1.00534
0.853537
0.701945
0.557398
0.419371
0.288937
0.168877
0.0617193
-0.0310615
1.09529
0.985763
0.860767
0.7311
0.605492
0.485113
0.370645
0.264063
0.167465
0.0827952
1.07077
0.975105
0.868387
0.755867
0.645036
0.537881
0.435133
0.338505
0.250007
0.17139
1.05884
0.972269
0.877906
0.777544
0.677211
0.579416
0.485093
0.395744
0.313147
0.238885
1.05453
0.974116
0.888035
0.796145
0.703324
0.612246
0.523952
0.439806
0.361444
0.290359
1.05485
0.978691
0.898179
0.812043
0.724403
0.637968
0.55383
0.47326
0.397794
0.328848
1.05818
0.984926
0.908079
0.825611
0.741263
0.657774
0.576244
0.49787
0.42413
0.356403
1.06632
0.994997
0.920047
0.839184
0.756222
0.673903
0.593281
0.515509
0.44202
0.374193
1.07762
1.01022
0.936867
0.856538
0.773878
0.691447
0.610249
0.531488
0.456584
0.386869
-2.84433
-2.68089
-2.44731
-2.22302
-2.03506
-1.88079
-1.75543
-1.65485
-1.57615
-1.51761
-2.92198
-2.76455
-2.53275
-2.30851
-2.11912
-1.96371
-1.83755
-1.73635
-1.65719
-1.59921
-2.88344
-2.73377
-2.50858
-2.28681
-2.0981
-1.94289
-1.81652
-1.71467
-1.63425
-1.57397
-2.74318
-2.60258
-2.38834
-2.1731
-1.98797
-1.83487
-1.70945
-1.60748
-1.52584
-1.46268
-2.52401
-2.3938
-2.1941
-1.98975
-1.81187
-1.66367
-1.54128
-1.44065
-1.35877
-1.29415
-2.2523
-2.13354
-1.95142
-1.76215
-1.59556
-1.45574
-1.33933
-1.24258
-1.1626
-1.09903
-1.95336
-1.8467
-1.6843
-1.51363
-1.36211
-1.23416
-1.12696
-1.03717
-0.962039
-0.902488
-1.64795
-1.55351
-1.41177
-1.26192
-1.12812
-1.0147
-0.919277
-0.838971
-0.771366
-0.718194
-1.35079
-1.26823
-1.14691
-1.01862
-0.903878
-0.806583
-0.724674
-0.655666
-0.597399
-0.553472
-1.0708
-0.99929
-0.897161
-0.789775
-0.693916
-0.612799
-0.544495
-0.486608
-0.436307
-0.396594
-0.812806
-0.751306
-0.666669
-0.578857
-0.501262
-0.436499
-0.38311
-0.339458
-0.303576
-0.272258
-0.578683
-0.525949
-0.456597
-0.386015
-0.324499
-0.273901
-0.232832
-0.19978
-0.173346
-0.149337
-0.369134
-0.323863
-0.267498
-0.211559
-0.163648
-0.124864
-0.0938453
-0.0691905
-0.0497749
-0.0320948
-0.184884
-0.145882
-0.100416
-0.0567984
-0.0203812
0.0084002
0.0308581
0.0482481
0.0615521
0.073465
-0.0267831
0.00703048
0.0435181
0.0769524
0.10382
0.124253
0.139513
0.150717
0.158731
0.165567
0.10433
0.133964
0.163288
0.188571
0.207756
0.221437
0.230829
0.236936
0.240519
0.243053
0.207752
0.234178
0.258087
0.277179
0.290512
0.29902
0.303882
0.306009
0.306083
0.305168
0.282984
0.307169
0.327368
0.342204
0.351504
0.356433
0.358139
0.357469
0.355047
0.351645
0.329771
0.352694
0.370861
0.383361
0.390451
0.393414
0.393382
0.391163
0.387346
0.382528
0.348134
0.370784
0.388568
0.400634
0.407322
0.409939
0.409607
0.407124
0.403065
0.397956
-0.051213
0.116195
0.149824
0.148802
0.13599
0.11631
0.0929227
0.0675157
0.0408848
0.013652
0.037538
0.151833
0.164195
0.154677
0.137466
0.116016
0.0920668
0.0666526
0.0402901
0.0134519
0.113318
0.180054
0.175157
0.158645
0.138607
0.115788
0.0913536
0.0659202
0.0397817
0.0132794
0.175349
0.202311
0.184329
0.162541
0.139744
0.115683
0.0907949
0.0653203
0.0393587
0.0131344
0.226423
0.219933
0.192303
0.166105
0.140881
0.115708
0.0903938
0.0648529
0.0390201
0.0130164
0.267503
0.234039
0.199354
0.169402
0.142045
0.115875
0.0901514
0.0645171
0.0387649
0.012925
0.299332
0.245548
0.205635
0.172476
0.143254
0.116186
0.0900675
0.0643111
0.0385917
0.0128595
0.322971
0.254897
0.211177
0.175342
0.144519
0.116646
0.0901406
0.064233
0.0384991
0.0128197
0.339483
0.262376
0.215949
0.178004
0.145848
0.117254
0.090368
0.0642801
0.0384853
0.0128051
0.349412
0.268028
0.219926
0.180463
0.147243
0.118007
0.0907455
0.0644489
0.0385485
0.0128153
-0.241353
0.010339
0.0970827
0.124281
0.125227
0.112348
0.0919581
0.0676785
0.0412932
0.0138785
-0.207057
0.0233196
0.102818
0.126748
0.126379
0.112711
0.0920258
0.0676435
0.0412401
0.0138526
-0.179017
0.0416221
0.112194
0.131081
0.128265
0.113395
0.0921966
0.0676209
0.0411684
0.0138115
-0.146528
0.0631309
0.123615
0.136561
0.130568
0.114419
0.0925643
0.0677102
0.041161
0.0137948
-0.106523
0.0892185
0.137428
0.143333
0.133831
0.11577
0.0931053
0.0678959
0.0412066
0.0137972
-1.44978
-1.53208
-1.52524
-1.44292
-1.30768
-1.14654
-0.978456
-0.823753
-0.676155
-0.545682
-1.45235
-1.53587
-1.52534
-1.43627
-1.29251
-1.1206
-0.938086
-0.766958
-0.604078
-0.473068
-1.45787
-1.54087
-1.52498
-1.42748
-1.27349
-1.09078
-0.901553
-0.729006
-0.574762
-0.456469
-1.46899
-1.55109
-1.52939
-1.42333
-1.26069
-1.07123
-0.87983
-0.705618
-0.553333
-0.432476
-1.48648
-1.56853
-1.54186
-1.42838
-1.25856
-1.0637
-0.869348
-0.69004
-0.531567
-0.392293
1.88592
1.86552
1.83742
1.80502
1.76847
1.72588
1.67541
1.6166
1.55611
1.51029
2.02636
2.01901
2.00544
1.98768
1.96591
1.9389
1.90522
1.86437
1.82155
1.78973
2.15641
2.15517
2.15119
2.14505
2.1359
2.12245
2.10349
2.0784
2.05114
2.03147
2.27053
2.2749
2.27869
2.28173
2.28263
2.28018
2.27332
2.2614
2.24725
2.23765
2.36444
2.3736
2.38389
2.3945
2.40371
2.41037
2.41356
2.41262
2.40941
2.40781
2.43741
2.45061
2.46626
2.48301
2.49889
2.51282
2.52407
2.53196
2.53759
2.54196
2.48929
2.50553
2.52524
2.54664
2.56755
2.58698
2.6043
2.61886
2.63115
2.64042
2.51992
2.5382
2.56065
2.58519
2.6095
2.63266
2.6541
2.67316
2.68998
2.70273
2.52914
2.54848
2.57239
2.59858
2.62468
2.64981
2.67341
2.69485
2.71406
2.72868
2.51697
2.53642
2.5605
2.58689
2.61319
2.63853
2.66237
2.68408
2.70355
2.71837
-1.32294
-1.38441
-1.46401
-1.56453
-1.68906
-1.84124
-2.02507
-2.24836
-2.48096
-2.64797
-1.0236
-1.08885
-1.17105
-1.27273
-1.39675
-1.54653
-1.72753
-1.94534
-2.1703
-2.34347
-0.639634
-0.711206
-0.798321
-0.902933
-1.02764
-1.17592
-1.35227
-1.55847
-1.76958
-1.95004
-0.208278
-0.288408
-0.381225
-0.488551
-0.612895
-0.757431
-0.926103
-1.11994
-1.31973
-1.48897
0.221766
0.136475
0.0415325
-0.064851
-0.185147
-0.322336
-0.480064
-0.659351
-0.843626
-0.996836
0.615268
0.532008
0.441173
0.341145
0.229626
0.103925
-0.0392435
-0.200763
-0.36589
-0.500856
0.960164
0.884976
0.803652
0.714678
0.615931
0.505086
0.379337
0.237992
0.094097
-0.0217283
1.26243
1.19744
1.12778
1.05199
0.96779
0.873151
0.765793
0.645245
0.522941
0.426081
1.53411
1.47785
1.41745
1.35321
1.28256
1.20332
1.11361
1.01306
0.911521
0.832649
1.76174
1.71467
1.66195
1.60816
1.55108
1.48786
1.41638
1.33606
1.25502
1.19317
2.72493
1.9278
2.56416
2.27267
2.2547
2.2537
2.25129
2.24771
2.20341
2.09259
2.70706
1.92531
2.5516
2.27735
2.2549
2.25454
2.25498
2.26003
2.23521
2.18651
2.6903
1.92282
2.53877
2.28007
2.25469
2.25471
2.25851
2.2713
2.26635
2.27112
2.67467
1.92014
2.52599
2.28096
2.25384
2.25402
2.26047
2.27981
2.29336
2.337
2.6601
1.91712
2.51356
2.28019
2.25215
2.25235
2.26084
2.28519
2.31598
2.38663
2.64657
1.91362
2.50171
2.27795
2.2495
2.2496
2.25958
2.28736
2.33265
2.42252
2.63407
1.90951
2.49058
2.27445
2.24584
2.24569
2.25658
2.2863
2.34259
2.44593
2.6226
1.90469
2.48031
2.26984
2.24112
2.24055
2.25175
2.28209
2.3459
2.45684
2.61216
1.89909
2.47098
2.2643
2.23538
2.23415
2.24499
2.27474
2.34235
2.45518
2.60276
1.89268
2.46264
2.25796
2.22863
2.22647
2.23624
2.26429
2.3318
2.44208
2.87546
1.95454
2.58009
2.27849
2.25571
2.24717
2.22973
2.19989
2.09524
1.91897
2.82319
1.94807
2.57738
2.27873
2.2555
2.24788
2.23136
2.20302
2.10129
1.9214
2.79583
1.94271
2.57769
2.27723
2.25541
2.24896
2.23426
2.20888
2.11387
1.92763
2.76904
1.93713
2.57554
2.27471
2.25516
2.25031
2.23853
2.21786
2.13409
1.9502
2.74481
1.93161
2.57239
2.27132
2.25475
2.25183
2.24386
2.22978
2.16145
1.99001
1.62321
1.48727
1.27237
0.972375
0.601882
0.176043
-0.26772
-0.677431
-1.01725
-1.27664
1.60624
1.46378
1.25318
0.96535
0.612904
0.2047
-0.231833
-0.646985
-1.00016
-1.27176
1.62199
1.46689
1.24978
0.967027
0.626031
0.229228
-0.203414
-0.625986
-0.991254
-1.27251
1.66693
1.49054
1.25915
0.976198
0.639855
0.247674
-0.184567
-0.614302
-0.989876
-1.27937
1.74192
1.5345
1.27879
0.987876
0.650548
0.259575
-0.172752
-0.607623
-0.992529
-1.29129
)
;

boundaryField
{
    left
    {
        type            zeroGradient;
    }
    right
    {
        type            fixedValue;
        value           uniform 0;
    }
    down
    {
        type            zeroGradient;
    }
    up
    {
        type            zeroGradient;
    }
    cylinder
    {
        type            zeroGradient;
    }
    defaultFaces
    {
        type            empty;
    }
}


// ************************************************************************* //
