/*--------------------------------*- C++ -*----------------------------------*\
  =========                 |
  \\      /  F ield         | OpenFOAM: The Open Source CFD Toolbox
   \\    /   O peration     | Website:  https://openfoam.org
    \\  /    A nd           | Version:  13
     \\/     M anipulation  |
\*---------------------------------------------------------------------------*/
FoamFile
{
    format      ascii;
    class       volScalarField;
    location    "5.27";
    object      p;
}
// * * * * * * * * * * * * * * * * * * * * * * * * * * * * * * * * * * * * * //

dimensions      [0 2 -2 0 0 0 0];

internalField   nonuniform List<scalar> 
440
(
-0.624532
-0.604288
-0.617649
-0.575347
-0.678421
-0.669251
-0.651959
-0.632911
-0.606376
-0.600686
-0.77369
-0.746581
-0.716704
-0.68165
-0.64548
-0.900324
-0.857833
-0.789113
-0.70569
-0.621048
-1.00661
-0.950011
-0.823538
-0.687301
-0.55934
-0.912738
-0.922138
-0.94348
-0.97227
-0.994567
-0.737101
-0.745127
-0.76074
-0.777648
-0.786799
-0.645634
-0.64623
-0.648628
-0.650671
-0.650718
-0.635166
-0.624202
-0.619916
-0.60736
-0.594581
-0.585744
-0.576943
-0.567498
-0.537393
-0.537672
-0.977594
-1.03555
-0.76042
-0.355746
-0.00437199
-0.826936
-1.0599
-0.892564
-0.389675
-0.0110926
-0.704253
-1.0614
-0.966112
-0.420672
-0.0214556
-0.61606
-1.01035
-0.951618
-0.432282
-0.0398172
-0.567515
-0.981681
-0.911064
-0.439274
-0.0678335
-0.380216
-0.937926
-0.846001
-0.43637
-0.10578
-0.326054
-0.741853
-0.681698
-0.414016
-0.142335
-0.297975
-0.527424
-0.517635
-0.386802
-0.166268
-0.214121
-0.361742
-0.438617
-0.374809
-0.157098
-0.166763
-0.226551
-0.324321
-0.38262
-0.166974
-0.337364
-0.462069
-0.610299
-0.749441
-0.807418
-0.111578
-0.246932
-0.326605
-0.377764
-0.379807
0.0302356
-0.0869468
-0.16461
-0.227206
-0.266421
0.122691
0.0123775
-0.0775443
-0.140793
-0.183816
0.169383
0.0585171
-0.0333132
-0.0921438
-0.131193
0.911136
0.761216
0.570062
0.359834
0.129331
0.507167
0.346426
0.148613
-0.0696036
-0.30797
0.116258
-0.0455965
-0.248279
-0.474014
-0.674622
-0.211673
-0.374101
-0.568155
-0.776343
-0.924832
-0.425281
-0.580706
-0.755651
-0.933896
-1.02766
2.06788
2.10066
2.13046
2.14538
2.14176
1.87581
1.89905
1.91852
1.9206
1.89979
1.65708
1.64348
1.60718
1.54843
1.46226
1.40359
1.36928
1.29834
1.19481
1.06093
1.15636
1.05396
0.919529
0.763909
0.573601
1.78671
1.77993
1.77298
1.84571
1.94128
1.77676
1.76964
1.75424
1.82437
1.85221
1.76778
1.75634
1.73201
1.79315
1.75001
1.76003
1.74054
1.70812
1.74137
1.58269
1.75343
1.72431
1.68264
1.69024
1.40575
1.74818
1.70041
1.64965
1.58325
1.21216
1.74604
1.67005
1.63989
1.43809
1.2654
1.75348
1.65792
1.63421
1.37183
1.28738
1.75062
1.62692
1.62568
1.33085
1.31573
1.78682
1.6271
1.62325
1.30302
1.36592
0.876139
0.587209
0.265902
-0.00264302
-0.186646
0.793014
0.593801
0.38224
0.197103
0.0296618
0.793476
0.628745
0.465985
0.312771
0.16315
0.86489
0.70079
0.542507
0.393255
0.255004
0.924314
0.751562
0.592031
0.440891
0.303591
-1.66478
-1.51059
-1.33499
-1.19202
-1.10754
-1.74285
-1.67197
-1.53869
-1.42878
-1.36216
-1.66745
-1.61742
-1.53571
-1.46646
-1.41854
-1.51123
-1.46776
-1.42191
-1.38358
-1.3543
-1.37283
-1.34742
-1.32163
-1.30583
-1.31073
-1.30536
-1.29126
-1.2694
-1.28036
-1.2607
-1.28052
-1.26804
-1.25446
-1.25747
-1.25733
-1.27647
-1.26795
-1.26274
-1.26814
-1.28548
-1.23906
-1.24275
-1.25945
-1.29003
-1.32785
-1.0976
-1.10674
-1.13054
-1.16815
-1.20485
-1.25839
-0.791613
-0.373003
-0.158942
-0.00941623
-1.26783
-0.748493
-0.359623
-0.156799
-0.00356992
-1.24234
-0.773556
-0.395055
-0.196111
0.000244037
-1.24753
-0.884133
-0.481232
-0.268105
0.00137749
-1.15019
-0.981312
-0.609136
-0.321324
-0.000215761
-0.839657
-0.908368
-0.487465
-0.182324
-0.0156504
-1.13712
-0.852751
-0.406482
-0.15858
-0.0120562
-1.05812
-1.32639
-1.37667
-1.33283
-1.12927
-1.0787
-1.33352
-1.38975
-1.33186
-1.30553
1.65994
1.63382
1.58984
1.52837
1.44601
1.86259
1.88124
1.88417
1.86949
1.83764
2.0365
2.06933
2.0946
2.10704
2.10444
2.13898
2.17968
2.22292
2.25808
2.27395
2.14892
2.18783
2.23106
2.26688
2.28327
-0.617751
-0.727055
-0.899493
-1.10701
-1.35526
0.0242496
-0.118163
-0.306809
-0.533421
-0.825903
0.603708
0.456678
0.281044
0.0731829
-0.191138
1.06739
0.952304
0.813023
0.643767
0.436775
1.44102
1.35944
1.25382
1.12784
0.979305
1.85009
1.81089
1.80493
1.81288
1.82461
1.83462
1.80697
1.80506
1.83268
1.89378
1.82134
1.80207
1.80435
1.85399
1.97319
1.80894
1.79607
1.7985
1.86158
1.98712
1.79733
1.78912
1.78784
1.85905
1.9824
1.90514
1.81804
1.79091
1.73593
1.68537
1.86075
1.80781
1.78819
1.75775
1.70087
1.31681
1.0771
0.665671
0.0709033
-0.585706
1.40504
1.11302
0.684464
0.0935275
-0.576848
)
;

boundaryField
{
    left
    {
        type            zeroGradient;
    }
    right
    {
        type            fixedValue;
        value           uniform 0;
    }
    down
    {
        type            zeroGradient;
    }
    up
    {
        type            zeroGradient;
    }
    cylinder
    {
        type            zeroGradient;
    }
    defaultFaces
    {
        type            empty;
    }
}


// ************************************************************************* //
