# Selection   : all
# Cells       : 440
# Volume      : 7.374263e+01
# Time        	minMag(U)
9.92          	2.194330e-02
