/*--------------------------------*- C++ -*----------------------------------*\
  =========                 |
  \\      /  F ield         | OpenFOAM: The Open Source CFD Toolbox
   \\    /   O peration     | Website:  https://openfoam.org
    \\  /    A nd           | Version:  13
     \\/     M anipulation  |
\*---------------------------------------------------------------------------*/
FoamFile
{
    format      ascii;
    class       surfaceScalarField;
    location    "0.3";
    object      phi;
}
// * * * * * * * * * * * * * * * * * * * * * * * * * * * * * * * * * * * * * //

dimensions      [0 3 -1 0 0 0 0];

internalField   nonuniform List<scalar> 
823
(
0.0249965
-0.132387
0.107391
0.0623319
-0.273338
0.236003
0.0974883
-0.297648
0.262492
0.129104
-0.2918
0.260184
-0.277417
0.247953
0.158568
0.0267536
-0.159141
0.0608665
-0.307451
0.0917281
-0.32851
0.120806
-0.320878
-0.308157
0.151546
0.0262977
-0.185438
0.0540673
-0.335221
0.0772074
-0.35165
0.0985034
-0.342174
-0.327771
0.118118
0.0237294
-0.209168
0.043849
-0.35534
0.0587109
-0.366512
0.0715204
-0.354983
-0.340053
0.0838015
0.018426
-0.227594
0.0291536
-0.366068
0.0337118
-0.37107
0.0375102
-0.358782
0.0406267
-0.343169
0.0153641
-0.0247746
0.00941053
0.0578394
-0.063147
0.0206717
0.108178
-0.0738855
0.0235466
0.158352
-0.0735392
0.0233652
-0.0723528
0.208201
0.0225045
0.01701
-0.0417846
0.0602076
-0.106345
0.11019
-0.123868
0.159887
-0.123236
-0.121346
0.208881
0.0194873
-0.0612719
0.0635448
-0.150402
0.112702
-0.173026
0.161492
-0.172025
-0.168412
0.208557
0.0221936
-0.0834655
0.0662206
-0.194429
0.113368
-0.220174
0.16011
-0.218767
-0.211394
0.203092
0.0239252
0.0654987
0.107817
0.149234
0.185793
0.343811
-0.30037
0.16476
0.390665
-0.156406
0.109552
0.402269
-0.0810178
0.0694132
0.4013
-0.038815
0.0397842
-0.0071514
0.0135291
0.338846
-0.430336
0.386178
-0.203738
0.399868
-0.0947071
0.400961
-0.0399084
-0.00283488
0.328046
-0.549825
0.376295
-0.251988
0.393632
-0.112043
0.39873
-0.0450063
-0.00265889
0.309256
-0.655989
0.360628
-0.30336
0.383583
-0.134998
0.394619
-0.0560429
-0.00863775
0.282235
-0.75243
0.338215
-0.35934
0.369556
-0.166339
0.388597
-0.0750837
-0.0227236
0.714418
-0.600711
-0.866136
0.651684
-0.296606
0.629135
-0.14379
0.621137
-0.0670857
-0.0204618
0.739656
-0.429153
-0.911215
0.669814
-0.226764
0.639929
-0.113905
0.627235
-0.0543915
-0.0166831
0.762294
-0.271205
-0.920241
0.685423
-0.149893
0.648945
-0.0774274
0.632258
-0.0377047
-0.0116343
0.772589
-0.121348
-0.922446
0.69362
-0.0709244
0.653937
-0.0377448
0.634927
-0.0186944
-0.00578426
0.724975
-0.846322
0.65405
0.616305
0.597611
0.88065
0.0331295
-0.873152
0.882124
0.0823276
0.886037
0.114204
0.865126
0.172458
0.157558
0.829532
0.0253124
-0.821714
0.84454
0.0673192
0.86468
0.0940644
0.894783
0.142355
0.141126
0.792054
0.0162121
-0.782954
0.812783
0.0465906
0.839283
0.0675646
0.881932
0.0997053
0.102816
0.769658
0.00609995
-0.759546
0.793469
0.0227795
0.825814
0.0352196
0.874011
0.0515083
0.0543814
0.682434
-0.676334
0.705213
0.740433
0.791941
0.136221
0.267259
-0.223967
-0.179514
0.0967246
0.277552
-0.238056
0.0590485
0.291136
-0.25346
0.0230633
0.297194
-0.261209
0.212582
-0.189519
0.119088
0.299739
-0.151568
0.0853022
0.311338
0.0510533
0.325385
0.0191557
0.329091
0.231738
0.0825754
0.322633
-0.10547
0.0581593
0.335754
0.0317033
0.351841
0.00898263
0.351812
0.240721
0.041532
0.337795
-0.056694
0.0263031
0.350983
0.0107412
0.367403
-0.00223038
0.364784
0.23849
0.0018539
-0.00722773
-0.00594449
-0.00961232
-0.0108964
0.198636
0.0707498
-0.245959
-0.023427
0.14855
0.0743898
-0.0243041
0.0957035
0.0783372
-0.0254905
0.0409279
0.0812279
-0.0264523
0.0615215
-0.0205936
0.190724
0.117108
-0.237082
0.14234
0.122774
0.0914563
0.129221
0.0391177
0.133566
0.100639
0.175285
0.161216
-0.219392
0.130225
0.167833
0.0830736
0.176372
0.034908
0.181732
0.135547
0.160049
0.199217
-0.198051
0.119504
0.208378
0.0757221
0.220154
0.0312355
0.226219
0.166783
0.12071
-0.145459
0.0910317
0.0577262
0.0227363
0.406585
0.0283862
-0.038992
0.408437
0.057244
-0.0590954
0.396847
0.0953455
-0.0837557
0.352385
0.15377
-0.109308
0.27539
-0.168964
0.404136
0.0202295
0.403989
0.0573908
0.390281
0.109054
0.345715
0.198336
0.384024
0.399271
0.0169381
0.395025
0.0616368
0.377861
0.126218
0.334378
0.24182
0.499009
0.39207
0.020848
0.381875
0.0718312
0.361191
0.146902
0.321162
0.281849
0.62212
0.382826
0.034002
0.364727
0.0899296
0.337365
0.174264
0.286919
0.332295
0.76358
0.609408
0.028614
0.620267
0.0790706
0.639936
0.154595
0.690409
0.281822
0.599026
0.854963
0.613829
0.0188052
0.630686
0.0622136
0.661528
0.123753
0.727323
0.216027
0.438738
0.887611
0.617593
0.0052328
0.639244
0.0405628
0.677406
0.0855904
0.749574
0.14386
0.28277
0.905542
0.620013
-0.0107598
0.644752
0.0158235
0.68731
0.0430323
0.761215
0.0699558
0.13511
0.908875
0.593261
0.609084
0.652116
0.722072
0.857182
0.875933
-0.200484
0.869171
-0.144806
0.866177
-0.102476
0.866916
-0.057433
-0.013464
0.858302
-0.171175
0.83883
-0.125334
0.824971
-0.0886175
0.820536
-0.0529976
-0.0146424
0.855127
-0.120759
0.821192
-0.091399
0.798066
-0.0654906
0.785307
-0.0402394
-0.0122889
0.84927
-0.0611551
0.807065
-0.0491936
0.778556
-0.0369816
0.762455
-0.0241385
-0.00937952
0.796027
0.746833
0.709852
0.685713
0.0400479
0.266629
-0.306677
0.0574494
0.445745
-0.463146
0.0607942
0.461241
-0.464586
0.0601863
0.450405
-0.449798
0.427262
0.0523011
-0.419376
0.0624194
0.20421
0.111428
0.396737
0.146065
0.426604
0.176819
0.41965
0.407046
0.197035
0.0610776
0.143132
0.127073
0.330741
0.183443
0.370234
0.237298
0.365795
0.353667
0.290678
0.0443263
0.0988061
0.110866
0.264202
0.17587
0.30523
0.237829
0.303836
0.2859
0.305596
0.0273995
0.0714066
0.084987
0.206614
0.146788
0.243429
0.205283
0.245341
0.229937
0.261245
0.019233
0.0521736
0.070122
0.155725
0.128309
0.185241
0.18726
0.18639
0.17934
0.237858
0.0166408
0.0355328
0.0635998
0.108766
0.118422
0.13042
0.174118
0.130694
0.128609
0.224849
0.0154981
0.0200347
0.059825
0.0644392
0.112124
0.0781206
0.16464
0.0781782
0.0780724
0.215176
0.0147883
0.00524638
0.0576155
0.0216121
0.108699
0.0270375
0.159748
0.0271289
0.0277094
0.210111
0.0146569
0.0569407
0.107525
0.158019
0.208233
0.297767
0.310298
-0.370207
0.334096
0.0592194
-0.0955491
0.357998
-0.0143868
-0.00951491
0.37575
-0.0253691
0.00761695
-0.0180395
0.00401517
0.317842
0.217304
0.356675
0.0203868
0.374301
-0.032013
0.384332
-0.0353995
-0.0240967
0.331541
0.10094
0.372265
-0.0203379
0.386591
-0.0463383
0.391191
-0.0399993
-0.0240612
0.34004
-0.0289896
0.383518
-0.0638155
0.395529
-0.0583495
0.396363
-0.0408335
-0.0198619
0.344003
0.38974
0.400804
0.399754
0.493121
0.120047
-0.613168
0.457084
0.0360365
0.453116
0.00396826
0.456681
-0.0035646
-0.00184509
0.559562
-0.809721
0.500049
0.494503
0.498555
0.115591
-0.0101361
-0.105455
0.185528
-0.069937
0.306188
-0.12066
0.472296
-0.166107
-0.140872
0.252744
-0.210579
0.379842
0.549859
0.689348
0.14818
-0.161432
0.191389
-0.178137
0.113933
-0.170556
0.204803
0.0749565
-0.182124
0.221101
0.0318708
-0.189444
0.23253
-0.141747
0.173618
0.187113
-0.118881
-0.229664
0.141546
-0.124989
0.0915711
-0.13215
0.0393249
-0.137198
-0.102422
0.192239
-0.0718021
-0.239318
0.143797
-0.0765467
0.0927514
-0.0811042
0.0398371
-0.084284
-0.0625851
0.199876
-0.0242436
-0.247435
0.149669
-0.0263396
0.096605
-0.0280403
0.0414962
-0.0291752
-0.0210888
0.201484
-0.249155
0.150841
0.0973099
0.0416824
0.0746569
-0.393981
-0.100052
0.0432769
-0.418418
0.0149178
-0.436226
-0.008416
-0.439812
-0.315093
0.168976
-0.349348
-0.213609
0.118036
-0.367477
0.0664109
-0.384601
0.0219682
-0.39537
-0.293125
0.198096
-0.297832
-0.249612
0.143463
-0.312844
0.0886321
-0.32977
0.0361292
-0.342867
-0.256996
0.209862
-0.248394
-0.2593
0.155839
-0.258821
0.0998993
-0.27383
0.0429742
-0.285942
-0.214022
0.200563
-0.257568
0.146545
0.0938155
0.0404038
0.381437
0.0554447
-0.0409022
0.361187
0.0434639
-0.0232133
0.336906
0.023553
0.000727837
0.304321
-0.0411321
0.0737167
-0.239561
0.365745
0.391181
0.0602437
0.379673
0.0549712
0.360288
0.0429385
0.331572
-0.0124164
-0.137653
0.398773
0.0574504
0.393625
0.0601195
0.377302
0.0592609
0.3402
0.0246856
-0.0367706
0.403902
0.0495282
0.403242
0.0607793
0.39012
0.0723834
0.348892
0.0659134
0.0646865
0.406516
0.4082
0.396827
0.353433
0.473791
0.0362601
0.457783
0.0160075
0.460531
-0.00274747
0.500049
-0.0395184
-0.184399
0.684449
0.505409
0.498203
0.496184
0.530382
0.711728
0.545885
0.138564
0.418285
0.127599
0.280237
0.138049
0.161504
0.118733
0.0560488
0.592723
0.461022
0.349458
0.254582
)
;

boundaryField
{
    left
    {
        type            calculated;
        value           nonuniform List<scalar> 
17
(
-0.60402
-0.60402
-0.60402
-0.60402
-0.60402
-0.39598
-0.39598
-0.39598
-0.39598
-0.39598
-0.39598
-0.39598
-0.39598
-0.39598
-0.39598
-0.510051
-0.510051
)
;
    }
    right
    {
        type            calculated;
        value           nonuniform List<scalar> 
17
(
0.458526
0.500725
0.389774
0.390389
0.391155
0.392164
0.393421
0.394922
0.396645
0.398554
0.400598
0.402682
0.618875
0.623457
0.627209
0.629077
0.591827
)
;
    }
    down
    {
        type            calculated;
        value           uniform 0;
    }
    up
    {
        type            calculated;
        value           uniform 0;
    }
    cylinder
    {
        type            calculated;
        value           uniform 0;
    }
    defaultFaces
    {
        type            empty;
    }
}


// ************************************************************************* //
