/*--------------------------------*- C++ -*----------------------------------*\
  =========                 |
  \\      /  F ield         | OpenFOAM: The Open Source CFD Toolbox
   \\    /   O peration     | Website:  https://openfoam.org
    \\  /    A nd           | Version:  13
     \\/     M anipulation  |
\*---------------------------------------------------------------------------*/
FoamFile
{
    format      ascii;
    class       volScalarField;
    location    "0.675";
    object      p;
}
// * * * * * * * * * * * * * * * * * * * * * * * * * * * * * * * * * * * * * //

dimensions      [0 2 -2 0 0 0 0];

internalField   nonuniform List<scalar> 
1800
(
5.74624
7.85335
10.0061
11.4346
12.2689
12.6795
12.8105
12.653
11.4067
7.3145
9.59583
12.0715
14.5765
16.2605
17.3171
17.9798
18.4344
18.6735
17.949
15.2711
15.9882
18.6129
21.2856
23.1489
24.4091
25.2909
25.9416
26.325
25.8538
24.0227
24.9834
27.5528
30.2012
32.1157
33.4809
34.49
35.2525
35.7044
35.2983
33.6136
36.042
38.4028
40.8551
42.6667
43.9911
44.9872
45.7418
46.1911
45.8409
44.2853
48.7189
50.7714
52.9151
54.5213
55.7123
56.6146
57.2968
57.7074
57.4263
56.0669
62.6673
64.3401
66.0958
67.4278
68.4298
69.1995
69.7909
70.1679
69.9928
68.904
77.5932
78.8347
80.1458
81.1551
81.931
82.5449
83.039
83.3939
83.3605
82.624
93.2113
93.991
94.8225
95.4774
96.0002
96.4377
96.8205
97.1439
97.2541
96.9196
109.24
109.545
109.877
110.151
110.389
110.61
110.827
111.041
111.202
111.229
-0.605565
-0.858224
-0.635422
-0.22069
0.251943
0.719855
1.07953
1.2905
1.43556
1.58224
-0.480085
-0.995663
-1.10535
-0.899246
-0.475242
-0.051173
0.241611
0.484152
0.764274
1.03779
0.520241
-0.447354
-1.27971
-1.44548
-1.11851
-0.81269
-0.599114
-0.293837
0.113472
0.499361
0.913408
-0.228122
-1.42631
-1.7649
-1.54474
-1.3912
-1.26624
-0.961136
-0.504203
0.00365048
0.482296
-0.485836
-1.42639
-1.71768
-1.66065
-1.67149
-1.63518
-1.37361
-0.882491
-0.188355
-0.221174
-0.738221
-1.1389
-1.26856
-1.28936
-1.35492
-1.3476
-1.13944
-0.615126
0.317191
-0.556417
-0.518756
-0.342419
-0.196535
-0.112126
-0.0918991
-0.0538335
0.115657
0.693146
1.92308
-0.0730177
0.513255
1.23413
1.73848
2.06791
2.28097
2.43019
2.64657
3.37693
5.03899
1.37416
2.48209
3.73047
4.6519
5.32183
5.81407
6.15396
6.49298
7.47963
9.76696
3.61596
5.25883
7.07698
8.45289
9.47558
10.2357
10.758
11.2109
12.2719
14.4349
2.30027
2.43945
2.33255
2.0877
1.58451
1.18187
0.858098
0.583941
0.350735
0.133147
1.9514
2.41641
2.22875
2.00469
1.50139
1.10275
0.807842
0.567228
0.353241
0.138972
1.47391
2.38723
2.1278
1.91292
1.42637
1.03619
0.762589
0.549132
0.352296
0.143165
0.849233
2.30484
2.02791
1.80712
1.35129
0.977287
0.723591
0.532644
0.34595
0.144237
0.155086
2.12896
1.91743
1.685
1.27038
0.921943
0.689422
0.517846
0.33978
0.144732
-0.417709
1.85006
1.77901
1.54501
1.18013
0.867643
0.658684
0.504307
0.337903
0.145766
-0.567291
1.50163
1.59944
1.38468
1.07843
0.812606
0.630651
0.492118
0.340022
0.147097
0.161232
1.17235
1.36969
1.19513
0.961616
0.754661
0.604345
0.48199
0.339562
0.145823
2.41759
1.036
1.06907
0.95179
0.821153
0.69096
0.57863
0.471999
0.331064
0.137233
6.65251
1.40494
0.71174
0.634345
0.649458
0.620048
0.552764
0.456815
0.315409
0.124161
9.97875
2.57549
0.688235
0.392613
0.472578
0.541
0.517486
0.4289
0.288872
0.104951
11.7638
2.57126
0.265767
0.0576935
0.356759
0.506111
0.481681
0.384564
0.249094
0.0769727
12.862
2.77689
0.394943
0.152
0.468792
0.566984
0.481895
0.352942
0.210632
0.0477045
14.1829
4.36411
1.27957
0.726183
0.788638
0.715562
0.523209
0.338522
0.177885
0.0192123
16.3596
7.10827
2.7004
1.59089
1.2406
0.933365
0.606716
0.345768
0.15519
-0.00541278
19.2499
9.87395
4.33392
2.55714
1.77131
1.20097
0.723861
0.374828
0.145532
-0.0233325
21.7541
11.9357
5.85174
3.51744
2.33779
1.49801
0.863428
0.42269
0.149854
-0.0325522
23.0332
13.1186
7.04881
4.41753
2.91158
1.81037
1.01699
0.485637
0.167754
-0.0320328
22.9731
13.4977
7.90945
5.26475
3.50095
2.14589
1.19084
0.567528
0.202856
-0.0200282
22.4203
13.7227
8.68078
6.12578
4.1272
2.52461
1.40714
0.685716
0.274095
0.00905975
111.785
97.8396
84.0748
71.0695
59.1301
48.3499
38.7684
30.0916
20.0803
4.97528
112.765
99.4772
85.9764
72.9699
60.9267
50.0458
40.5127
32.2545
23.5894
11.4762
113.297
100.212
87.3314
75.005
63.4662
52.8742
43.4443
35.2555
27.4691
18.335
114.509
102.769
90.8102
78.9794
67.6227
57.0274
47.3943
38.7938
31.087
23.8239
115.086
104.075
93.1546
82.4635
72.1164
62.192
52.7296
43.8191
36.0008
29.8219
115.436
104.709
94.2021
84.0402
74.3196
65.0902
56.3309
48.0894
41.0478
36.0308
115.667
105.108
94.7968
84.8646
75.4218
66.5413
58.2325
50.5649
44.2109
40.0915
115.768
105.246
94.9799
85.1084
75.7543
67.0083
58.9045
51.5111
45.3943
41.4347
115.718
105.032
94.6055
84.5863
75.1071
66.2745
58.1444
50.7749
44.5511
40.0982
115.594
104.647
93.9595
83.682
73.9565
64.9063
56.6115
49.1167
42.6077
37.4128
234.122
229.759
228.191
227.749
227.658
227.91
228.644
230.025
232.177
234.316
225.559
222.54
221.491
221.452
221.678
222.162
223.093
224.701
227.172
229.648
216.046
213.871
213.098
213.223
213.654
214.357
215.483
217.252
219.866
222.464
205.739
203.712
203.008
203.204
203.748
204.577
205.801
207.609
210.178
212.698
194.416
192.507
191.852
192.04
192.572
193.384
194.56
196.254
198.609
200.9
182.049
180.325
179.731
179.873
180.326
181.037
182.073
183.55
185.58
187.545
168.703
167.241
166.747
166.85
167.206
167.779
168.618
169.811
171.438
173.009
154.569
153.453
153.098
153.176
153.431
153.844
154.451
155.313
156.484
157.612
139.961
139.247
139.04
139.089
139.234
139.469
139.819
140.321
141.003
141.659
125.436
125.092
124.952
124.905
124.892
124.914
124.981
125.1
125.278
125.453
246.551
246.789
247.041
247.259
247.557
248.057
248.609
248.946
248.951
248.438
246.626
246.956
247.359
247.665
247.865
248.2
248.624
248.54
247.723
246.704
246.637
247.033
247.478
247.789
247.872
248.003
248.285
247.924
246.536
245.281
246.517
247.019
247.448
247.68
247.613
247.499
247.534
247.111
245.816
244.658
246.025
246.679
247.068
247.174
246.996
246.719
246.542
246.182
245.373
244.583
244.818
245.661
245.997
245.961
245.73
245.445
245.249
245.078
244.838
244.551
242.472
243.569
243.906
243.791
243.58
243.416
243.381
243.512
243.82
244.059
238.587
240.073
240.542
240.476
240.392
240.443
240.681
241.176
241.989
242.728
233.114
235.168
235.877
235.944
236.07
236.416
237.004
237.909
239.213
240.425
227.759
229.624
230.369
230.536
230.843
231.46
232.402
233.753
235.6
237.308
246.94
246.72
246.682
246.489
246.421
246.302
245.926
245.67
245.569
245.716
246.899
246.719
246.677
246.492
246.42
246.311
245.935
245.653
245.379
245.737
246.872
246.715
246.668
246.487
246.411
246.312
245.936
245.6
245.143
245.822
246.853
246.708
246.655
246.475
246.397
246.308
245.926
245.51
244.926
246.009
246.842
246.698
246.639
246.456
246.378
246.295
245.901
245.401
244.792
246.246
246.835
246.686
246.621
246.432
246.353
246.269
245.864
245.309
244.766
246.355
246.833
246.672
246.601
246.405
246.324
246.231
245.828
245.257
244.813
246.021
246.836
246.654
246.579
246.376
246.29
246.189
245.811
245.261
244.833
244.784
246.845
246.632
246.555
246.344
246.254
246.158
245.843
245.336
244.655
242.008
246.862
246.608
246.526
246.309
246.221
246.155
245.945
245.461
243.976
237.292
246.9
246.582
246.485
246.253
246.157
246.085
245.873
245.132
242.442
233.741
247.016
246.562
246.447
246.203
246.102
246.124
246.071
245.333
242.177
231.798
247.258
246.568
246.411
246.126
246.025
246.087
246.064
245.238
241.885
230.534
247.709
246.624
246.381
246.042
245.887
245.82
245.616
244.535
240.481
229.316
248.547
246.689
246.404
245.95
245.676
245.312
244.744
243.228
238.01
227.46
250.383
246.756
246.512
245.878
245.384
244.649
243.656
241.568
235.374
224.914
254.262
247.068
246.666
245.82
245.029
243.935
242.559
239.956
233.31
222.584
262.567
248.206
246.941
245.776
244.656
243.245
241.557
238.666
232.072
221.328
280.128
250.941
247.591
245.81
244.302
242.593
240.648
237.735
231.629
221.358
306.098
254.987
249.097
246.023
244.011
241.972
239.764
236.919
231.358
221.885
236.417
221.067
210.445
201.13
190.969
179.665
167.27
153.898
139.852
125.722
230.028
217.734
208.582
199.86
189.923
178.685
166.338
153.087
139.364
125.89
223.495
214.13
205.951
197.424
187.709
176.869
165.116
152.615
139.598
126.42
218.381
210.873
202.881
194.031
184.188
173.423
161.931
149.988
137.925
126.091
212.983
206.59
198.596
189.502
179.833
169.695
159.145
148.277
137.222
126.129
207.385
202.089
194.829
186.359
177.36
167.905
157.985
147.662
137.042
126.255
203.59
199.15
192.561
184.664
176.131
167.044
157.424
147.349
136.938
126.328
202.309
198.051
191.705
184.092
175.779
166.843
157.323
147.32
136.961
126.392
203.635
198.92
192.47
184.885
176.553
167.537
157.9
147.754
137.239
126.507
206.309
200.874
194.137
186.426
177.93
168.699
158.816
148.412
137.636
126.643
112.187
112.357
112.441
112.292
111.785
111.425
111.24
111.525
111.517
111.268
89.612
90.0753
90.294
89.8604
88.4284
87.342
86.7211
87.3827
87.4203
86.8338
68.7688
69.3966
69.6579
68.9911
67.0518
65.34
64.3198
64.8685
65.1729
64.6177
50.651
51.2575
51.4472
50.624
48.6449
46.4789
45.1489
45.1843
45.9226
45.6892
36.0057
36.4142
36.4645
35.5831
33.7913
31.4753
29.8315
29.2663
30.0738
30.2615
24.9534
25.0569
24.9348
24.0117
22.4341
20.4047
18.6139
17.6723
17.9273
18.4273
17.0668
16.9165
16.7017
15.7108
14.2963
12.793
11.3055
10.2405
9.90074
10.2672
11.5797
11.4028
11.3544
10.355
9.03616
8.03427
7.1426
6.2997
5.71127
5.62751
7.90567
7.81744
8.11349
7.24569
6.07968
5.48916
5.16026
4.77559
4.29166
3.91199
6.03695
5.83201
6.21751
5.47973
4.61038
4.33429
4.35824
4.34885
4.19627
3.80035
5.27
5.03318
5.11558
4.42127
3.88901
3.83277
3.98248
4.12518
4.24629
4.30298
4.84308
4.73397
4.45662
3.79026
3.50431
3.59149
3.79459
3.96215
4.0819
4.16818
4.46474
4.42
3.98825
3.43762
3.31746
3.48015
3.70479
3.88348
4.00146
4.06183
4.0105
3.9556
3.54953
3.19803
3.20782
3.41091
3.62372
3.78099
3.87956
3.92089
3.46285
3.36965
3.0964
2.97648
3.09314
3.30984
3.49991
3.6375
3.71878
3.74253
2.81206
2.71785
2.65831
2.74846
2.94506
3.14944
3.31524
3.43467
3.5016
3.51502
2.08901
2.10553
2.24032
2.47484
2.71045
2.90893
3.06417
3.17787
3.24414
3.2596
1.41607
1.53413
1.78541
2.07838
2.33428
2.5486
2.72441
2.86303
2.95053
2.97862
0.739682
0.874646
1.14951
1.47841
1.78812
2.05967
2.29702
2.48185
2.58671
2.62438
0.067369
-0.0173169
0.217921
0.629512
1.04988
1.43198
1.75617
1.97139
2.07475
2.13798
3.65742
3.70072
3.57004
3.24394
2.59336
1.90548
1.31508
0.843706
0.455659
0.0952807
3.73009
3.67458
3.51954
3.22792
2.55392
1.84952
1.26295
0.805854
0.433089
0.0937448
3.75653
3.56857
3.40782
3.17382
2.50993
1.79677
1.21357
0.770313
0.412904
0.093969
3.71748
3.39226
3.25509
3.07142
2.4527
1.7455
1.16698
0.73722
0.395221
0.0954593
3.60967
3.18406
3.08684
2.91808
2.37035
1.69119
1.12247
0.706579
0.380134
0.098234
3.44626
2.98628
2.92627
2.73412
2.25656
1.62995
1.07987
0.678811
0.367866
0.102287
3.2528
2.81895
2.7826
2.55145
2.11415
1.55811
1.03863
0.654336
0.358623
0.107484
3.04561
2.68197
2.65644
2.3943
1.95834
1.47302
0.997472
0.633253
0.352472
0.113566
2.82313
2.57076
2.54339
2.26979
1.81047
1.37598
0.954703
0.61522
0.349316
0.120149
2.57825
2.48811
2.43712
2.17174
1.68522
1.27509
0.908293
0.599311
0.348919
0.126823
5.41867
3.97244
3.27411
2.89473
2.4137
1.89267
1.39329
0.939319
0.53979
0.131702
4.61484
3.75178
3.31025
2.95586
2.45426
1.90141
1.38073
0.920628
0.518834
0.120794
3.94491
3.65975
3.37098
3.02529
2.49356
1.90922
1.36937
0.903917
0.502707
0.111652
3.62506
3.66017
3.4564
3.10559
2.53476
1.91678
1.35841
0.888292
0.488733
0.104547
3.61033
3.70333
3.55816
3.19801
2.58068
1.92457
1.34651
0.872078
0.475161
0.09933
112.017
88.9502
67.8987
50.1267
36.1117
25.7912
18.621
13.7455
10.5635
8.74935
111.796
88.3878
67.1925
49.3923
35.3094
24.787
17.3173
12.212
9.0691
7.56894
111.61
87.9075
66.5542
48.6517
34.3983
23.6143
15.897
10.6771
7.53241
6.07441
111.4
87.3338
65.7139
47.587
33.0736
22.0202
14.1254
8.89247
5.80699
4.43135
111.146
86.6057
64.5846
46.1139
31.2735
19.9525
11.9567
6.92022
4.43707
3.62123
243.767
243.805
243.925
244.097
244.309
244.318
243.814
243.112
243.215
242.992
243.98
244.052
244.165
244.355
244.625
244.8
244.582
243.932
243.675
243.568
244.176
244.224
244.337
244.534
244.819
245.081
245.055
244.548
244.12
244.07
244.418
244.451
244.549
244.723
244.981
245.27
245.376
245.107
244.72
244.652
244.693
244.711
244.792
244.942
245.157
245.422
245.626
245.629
245.463
245.373
244.985
244.998
245.067
245.189
245.363
245.593
245.864
246.107
246.213
246.202
245.259
245.277
245.359
245.494
245.671
245.901
246.202
246.564
246.868
246.991
245.544
245.562
245.658
245.85
246.105
246.405
246.766
247.18
247.545
247.726
245.925
245.954
246.031
246.254
246.625
247.078
247.584
248.104
248.449
248.411
246.318
246.428
246.529
246.72
247.119
247.689
248.291
248.842
249.195
248.99
136.5
136.241
136.218
136.481
136.263
135.865
135.324
135.152
135.223
135.388
160.951
160.354
160.376
161.013
160.36
159.238
157.774
157.318
157.523
157.981
183.196
182.629
182.916
183.439
182.389
180.643
178.675
177.986
178.235
178.858
202.162
201.916
202.635
202.645
201.287
199.09
197.082
196.238
196.416
197.019
217.634
217.808
218.592
218.005
216.337
213.992
212.171
211.268
211.307
211.712
229.514
229.995
230.226
229.266
227.458
225.402
223.792
222.846
222.713
222.814
237.713
238.05
237.687
236.613
235.121
233.593
232.142
231.125
230.901
230.749
242.369
242.249
241.639
240.806
239.927
238.909
237.556
236.53
236.471
236.294
244.093
243.674
243.181
242.823
242.526
241.94
240.75
239.854
240.14
240.055
244.232
243.807
243.653
243.675
243.746
243.504
242.63
241.869
242.254
242.064
254.846
246.873
247.501
246.286
246.037
245.53
244.996
244.634
244.503
244.541
252.013
246.81
247.315
246.264
246.09
245.593
245.012
244.666
244.58
244.513
250.09
246.817
247.092
246.26
246.146
245.661
245.056
244.76
244.749
244.544
248.903
246.845
246.88
246.279
246.203
245.735
245.137
244.914
244.978
244.65
248.218
246.848
246.742
246.318
246.259
245.818
245.265
245.106
245.22
244.821
247.769
246.806
246.704
246.367
246.312
245.911
245.433
245.294
245.427
245.027
247.454
246.751
246.703
246.411
246.358
246.014
245.608
245.448
245.581
245.237
247.238
246.723
246.695
246.445
246.39
246.118
245.754
245.557
245.68
245.43
247.095
246.717
246.687
246.469
246.405
246.209
245.851
245.624
245.718
245.588
247.002
246.718
246.684
246.482
246.415
246.271
245.903
245.66
245.684
245.684
317.35
253.757
249.91
246.971
246.142
245.571
245.252
244.931
244.237
242.72
295.618
251.368
248.788
246.74
246.059
245.542
245.207
244.901
244.45
243.521
277.177
249.212
248.192
246.566
246.019
245.523
245.158
244.843
244.532
244.194
265.774
247.867
247.868
246.436
246.001
245.512
245.1
244.761
244.523
244.523
259.003
247.137
247.645
246.328
245.998
245.504
245.031
244.658
244.477
244.555
239.299
237.45
234.234
229.327
222.124
211.77
197.719
179.914
158.838
135.756
240.482
238.946
235.771
230.635
223.133
212.576
198.456
180.622
159.401
135.977
241.994
240.497
237.316
232.063
224.311
213.491
199.2
181.262
159.882
136.164
243.657
242.251
239.123
233.849
225.914
214.82
200.267
182.104
160.456
136.373
244.446
243.608
241.106
236.035
227.992
216.625
201.742
183.233
161.183
136.627
)
;

boundaryField
{
    left
    {
        type            zeroGradient;
    }
    right
    {
        type            fixedValue;
        value           uniform 0;
    }
    down
    {
        type            zeroGradient;
    }
    up
    {
        type            zeroGradient;
    }
    cylinder
    {
        type            zeroGradient;
    }
    defaultFaces
    {
        type            empty;
    }
}


// ************************************************************************* //
