/*--------------------------------*- C++ -*----------------------------------*\
  =========                 |
  \\      /  F ield         | OpenFOAM: The Open Source CFD Toolbox
   \\    /   O peration     | Website:  https://openfoam.org
    \\  /    A nd           | Version:  13
     \\/     M anipulation  |
\*---------------------------------------------------------------------------*/
FoamFile
{
    format      ascii;
    class       volScalarField;
    location    "7.765";
    object      p;
}
// * * * * * * * * * * * * * * * * * * * * * * * * * * * * * * * * * * * * * //

dimensions      [0 2 -2 0 0 0 0];

internalField   nonuniform List<scalar> 
440
(
-0.995927
-0.975745
-0.976582
-0.964796
-1.04297
-1.0375
-1.01481
-0.992205
-0.971879
-0.95693
-1.14983
-1.11158
-1.06481
-1.00868
-0.950234
-1.27346
-1.21854
-1.11684
-0.998314
-0.879793
-1.34704
-1.27155
-1.10607
-0.937557
-0.785906
-0.428801
-0.437663
-0.455689
-0.476956
-0.485836
-0.688936
-0.703683
-0.735894
-0.783499
-0.825087
-0.900172
-0.919174
-0.961433
-1.02575
-1.16486
-0.99728
-1.00147
-1.01938
-1.05327
-1.10541
-0.980179
-0.968252
-0.96044
-0.955664
-0.987369
-0.330626
0.0277827
-0.15415
-0.0596673
-0.201175
-0.490783
-0.0146394
-0.113235
-0.083338
-0.323793
-0.673632
-0.0574307
0.125366
-0.0558651
-0.406206
-0.868098
0.0251811
0.466407
0.0392081
-0.398827
-0.954346
0.244312
0.681156
0.103392
-0.301758
-0.773515
0.532689
0.761537
0.0947053
-0.193591
-0.43147
0.560677
0.57251
0.0834756
-0.0978738
-0.262797
0.47643
0.748778
0.223372
-0.03685
-0.117846
0.440979
0.821517
0.308278
-0.0452911
-0.0462991
0.423477
0.858872
0.478844
-0.0085851
-0.530917
-0.656131
-0.835119
-1.00706
-1.16288
-0.270193
-0.399992
-0.495453
-0.562974
-0.594735
-0.0889377
-0.204173
-0.269723
-0.317564
-0.340869
0.0183608
-0.083504
-0.147035
-0.183222
-0.19171
0.0676652
-0.0322813
-0.0942948
-0.124901
-0.120702
0.950023
0.792229
0.59058
0.365985
0.121958
0.498372
0.331369
0.129697
-0.100192
-0.363609
0.0600894
-0.109448
-0.3234
-0.561242
-0.812826
-0.330072
-0.503784
-0.720138
-0.952443
-1.14755
-0.598601
-0.774434
-0.977382
-1.19053
-1.31866
2.14535
2.17318
2.19697
2.2062
2.19824
1.92808
1.94545
1.95597
1.94865
1.91952
1.6897
1.67384
1.63399
1.57054
1.47936
1.41971
1.38342
1.31022
1.20497
1.0691
1.18208
1.07171
0.930097
0.768439
0.570982
1.93691
1.92666
1.91021
1.97694
2.04294
1.92499
1.91232
1.88627
1.94727
1.93529
1.91402
1.89514
1.86033
1.90522
1.8019
1.90427
1.8727
1.83249
1.84992
1.6125
1.89599
1.85391
1.8035
1.79338
1.41462
1.88896
1.81925
1.76661
1.6828
1.19503
1.88541
1.78302
1.74638
1.57668
1.3005
1.89186
1.76106
1.72697
1.52155
1.32727
1.8837
1.73578
1.71862
1.47211
1.3244
1.92166
1.72743
1.71575
1.44097
1.3205
0.91134
0.579323
0.21322
-0.11765
-0.330918
0.790439
0.56009
0.308803
0.080795
-0.11399
0.772855
0.585471
0.393147
0.217302
0.0448313
0.814523
0.635275
0.459104
0.297921
0.143715
0.839764
0.663197
0.494651
0.339283
0.190912
-0.545877
-0.436971
-0.296526
-0.184169
-0.117393
-0.578388
-0.527145
-0.425785
-0.345356
-0.301526
-0.487184
-0.44365
-0.39081
-0.352748
-0.334688
-0.340032
-0.306634
-0.274535
-0.252749
-0.242608
-0.235974
-0.218435
-0.198666
-0.182852
-0.203832
-0.17297
-0.164939
-0.146749
-0.131158
-0.117396
-0.172338
-0.164869
-0.14944
-0.133824
-0.130167
-0.198751
-0.190995
-0.18116
-0.171294
-0.161951
-0.223787
-0.218352
-0.213487
-0.208188
-0.199782
-0.266242
-0.267164
-0.270732
-0.273934
-0.270081
-0.165602
-0.102657
-0.00615828
0.130608
0.0538672
-0.124003
-0.0528996
0.00383783
0.127471
0.0519583
-0.140931
-0.0287897
-0.00492606
0.0972827
0.0310719
-0.177662
0.01645
-0.0335086
0.044211
-0.0112007
-0.222284
0.0491613
-0.0879965
-0.0114382
-0.0878509
0.161822
-0.180328
-0.120582
0.0839967
0.0480827
-0.0882149
-0.197954
-0.054389
0.123666
0.0612616
-0.0795805
-0.291746
-0.325764
-0.280405
-0.0833375
-0.0956225
-0.288406
-0.334087
-0.261495
-0.263255
1.98712
1.97249
1.94233
1.89787
1.83871
2.13279
2.15626
2.16587
2.16038
2.14076
2.24932
2.28396
2.31154
2.32795
2.33098
2.30135
2.34046
2.38124
2.4144
2.43009
2.26475
2.30025
2.33908
2.37099
2.38489
0.253236
0.165202
0.0260037
-0.144313
-0.32785
0.753355
0.637038
0.480811
0.293556
0.0678562
1.19726
1.07563
0.9307
0.7606
0.554778
1.5478
1.45651
1.34415
1.20756
1.04563
1.82542
1.76383
1.68248
1.58471
1.47087
2.00882
1.96972
1.97108
2.00321
2.05833
1.99206
1.96419
1.9653
2.01087
2.09382
1.9771
1.95731
1.9587
2.01864
2.14204
1.96292
1.94915
1.94681
2.01458
2.13386
1.94949
1.93924
1.93018
2.00084
2.10502
2.06636
1.98055
1.9671
1.94392
1.95859
2.02075
1.96956
1.95921
1.96064
1.96746
1.72743
1.56321
1.25529
0.792588
0.279
1.79465
1.58596
1.26612
0.80901
0.2867
)
;

boundaryField
{
    left
    {
        type            zeroGradient;
    }
    right
    {
        type            fixedValue;
        value           uniform 0;
    }
    down
    {
        type            zeroGradient;
    }
    up
    {
        type            zeroGradient;
    }
    cylinder
    {
        type            zeroGradient;
    }
    defaultFaces
    {
        type            empty;
    }
}


// ************************************************************************* //
