/*--------------------------------*- C++ -*----------------------------------*\
  =========                 |
  \\      /  F ield         | OpenFOAM: The Open Source CFD Toolbox
   \\    /   O peration     | Website:  https://openfoam.org
    \\  /    A nd           | Version:  13
     \\/     M anipulation  |
\*---------------------------------------------------------------------------*/
FoamFile
{
    format      ascii;
    class       volVectorField;
    location    "20.4";
    object      U;
}
// * * * * * * * * * * * * * * * * * * * * * * * * * * * * * * * * * * * * * //

dimensions      [0 1 -1 0 0 0 0];

internalField   nonuniform List<vector> 
440
(
(-0.0917479 0.0669694 -7.56296e-20)
(-0.0975821 0.0858475 4.75824e-20)
(0.111689 0.0584959 9.16143e-20)
(0.585953 0.0412078 1.17536e-19)
(0.766171 0.0789991 2.08134e-20)
(-0.0892107 0.0493603 4.73363e-20)
(0.133175 -0.00914759 -1.5021e-19)
(0.743272 -0.0744522 -1.3088e-19)
(1.34943 -0.121053 6.35843e-20)
(1.94243 -0.155811 5.55417e-21)
(0.00538065 -0.00745464 5.61367e-20)
(0.686287 -0.0745248 9.33708e-19)
(1.54195 -0.084664 -6.11624e-19)
(2.15275 -0.069046 -1.87058e-18)
(2.57599 -0.0752823 8.00364e-19)
(0.265293 -0.0585565 -1.8733e-19)
(1.41402 -0.0127884 -6.83908e-19)
(2.18203 0.0345209 2.21786e-18)
(2.52951 0.0490689 2.43731e-18)
(2.55606 0.0507589 -6.76359e-19)
(0.675244 -0.000324832 -3.41129e-19)
(1.91346 0.173664 -7.41408e-19)
(2.41234 0.22626 2.26762e-18)
(2.52965 0.225924 2.36555e-18)
(2.60972 0.196023 7.85986e-19)
(-0.0081615 0.821058 4.98595e-19)
(-0.0442776 1.22139 9.85541e-19)
(-0.080821 1.22258 -2.29082e-18)
(-0.0856905 1.11464 4.19886e-19)
(-0.0883718 1.00554 2.9633e-18)
(-0.052491 0.490693 -5.04142e-20)
(0.00845371 1.0163 -2.50036e-19)
(0.0671107 1.14752 -7.76079e-20)
(0.165189 1.07149 -8.71224e-20)
(0.203771 0.885923 1.65132e-19)
(-0.0446717 0.16258 1.97688e-19)
(-0.0363788 0.562918 -3.57504e-19)
(0.0107791 0.77324 1.52625e-19)
(0.121132 0.805936 1.37095e-19)
(0.17983 0.734846 5.52004e-21)
(-0.0239666 0.0377911 -6.12881e-20)
(-0.0748436 0.238322 1.36537e-19)
(-0.0628249 0.406816 -4.70945e-20)
(0.013847 0.481592 -3.57554e-19)
(0.0637617 0.513435 4.8694e-20)
(-0.051823 0.040576 -3.88447e-20)
(-0.136464 0.119928 -6.03524e-20)
(-0.132899 0.190307 -1.45042e-19)
(0.00356177 0.21749 5.39258e-20)
(0.137605 0.270011 -1.65967e-19)
(0.327329 0.221765 -2.06217e-18)
(0.0942012 -1.28347 1.18632e-18)
(1.36151 -0.255159 -2.4276e-19)
(1.15296 0.63647 -6.42259e-19)
(1.04779 0.0682058 3.12682e-20)
(1.22916 0.110056 -1.22415e-18)
(1.40504 -1.32594 -1.68628e-19)
(1.33066 -0.473124 1.26946e-19)
(1.22813 0.636622 5.1369e-19)
(1.14798 0.0853287 -6.12785e-20)
(0.914239 -0.153774 -1.52684e-18)
(2.42533 -1.36803 6.92991e-19)
(1.20526 -0.389727 -9.89943e-20)
(1.06629 0.696715 3.32894e-19)
(1.2089 0.0909579 -8.65076e-21)
(1.05118 -0.348947 2.18454e-19)
(2.53705 -1.39657 -2.37125e-19)
(1.21824 -0.29942 -4.20705e-19)
(0.794632 0.677123 -8.47717e-21)
(1.3347 0.042984 1.68112e-19)
(1.67559 -0.632747 -1.00973e-19)
(1.97979 -1.39859 1.72935e-19)
(1.05773 -0.137748 0)
(0.59462 0.662345 -2.07101e-19)
(1.51783 -0.0389826 8.35418e-20)
(2.40818 -0.476278 -4.91355e-19)
(1.92432 -1.12873 6.42765e-20)
(0.946346 -0.180351 -1.03055e-20)
(0.953467 0.536777 -2.05347e-19)
(1.7452 -0.172331 1.84413e-21)
(2.63514 -0.635129 5.16333e-20)
(1.82608 -0.822998 1.00974e-18)
(0.128453 0.169425 -7.13919e-21)
(1.37635 0.346152 2.45825e-19)
(1.79112 -0.256949 0)
(2.23587 -0.447659 -4.7399e-19)
(1.88435 -0.341401 1.28146e-20)
(0.353225 0.0650204 2.22124e-19)
(1.82711 -0.141427 -5.10055e-21)
(1.67315 -0.324454 5.39476e-21)
(2.06681 -0.378987 5.44466e-20)
(1.20035 -0.154826 1.64859e-20)
(1.0185 0.144863 -1.07872e-20)
(1.69567 -0.195466 1.79484e-34)
(1.0119 -0.193449 -2.51219e-20)
(1.05287 -0.0585246 1.51192e-19)
(0.406217 0.0436306 -3.69194e-20)
(0.832206 -0.0956421 -8.58864e-20)
(0.479298 -0.111939 4.07913e-20)
(-0.0711345 -0.0120139 -2.24914e-20)
(2.44483 0.213327 -9.60792e-19)
(2.66369 -0.0483938 -1.249e-18)
(2.50356 0.0146788 9.74571e-19)
(2.84651 -0.237029 5.50759e-20)
(2.2357 -0.0445297 -1.86197e-20)
(2.11015 0.144083 4.76755e-20)
(2.42539 -0.0940421 -4.08218e-20)
(2.2214 -0.0402866 -1.41374e-19)
(2.53767 -0.252777 -2.32406e-19)
(2.33658 -0.267718 -6.4588e-21)
(2.11974 0.0401925 6.65924e-20)
(2.24044 -0.0681182 1.13024e-19)
(2.19884 -0.0997666 -1.60678e-19)
(2.26032 -0.188963 5.22709e-20)
(2.2726 -0.247558 3.88587e-20)
(2.10233 -0.015883 1.11625e-19)
(2.09541 -0.0803924 1.05189e-19)
(2.14136 -0.0890041 -1.74796e-20)
(2.11138 -0.156389 1.20833e-20)
(2.1463 -0.16925 2.37675e-20)
(1.53343 -0.0303521 1.52874e-19)
(1.43864 -0.027261 -1.28789e-20)
(1.49082 -0.0459804 2.75209e-20)
(1.36178 -0.0376946 -6.39618e-21)
(1.4214 -0.0698603 4.27063e-20)
(1.58595 0.835045 1.17466e-18)
(1.54263 0.938524 -3.90159e-19)
(1.55012 1.07676 -1.42009e-18)
(1.48167 1.1261 7.63208e-19)
(0.906384 0.807504 -1.73942e-19)
(1.89568 0.810656 -5.99141e-19)
(1.85927 0.884769 -3.14912e-18)
(1.86035 0.98891 -1.21355e-18)
(1.77411 1.005 -4.22962e-19)
(1.08576 0.710637 -6.95414e-19)
(2.18865 0.660921 8.00797e-19)
(2.17832 0.738068 2.05244e-19)
(2.1607 0.834145 -2.37985e-18)
(2.02816 0.82459 -6.83572e-19)
(1.20928 0.558213 5.12578e-19)
(2.38283 0.549141 2.41979e-18)
(2.36417 0.598257 1.79782e-18)
(2.35987 0.654694 -2.08904e-18)
(2.16165 0.620075 -1.61357e-18)
(1.20315 0.373102 -3.03025e-19)
(2.51166 0.366978 1.25031e-18)
(2.54559 0.398019 -8.89477e-19)
(2.4678 0.43193 6.38982e-19)
(2.14292 0.387717 5.21482e-19)
(1.04 0.172097 -4.5821e-19)
(0.571401 0.507454 -6.04872e-19)
(0.478032 0.545071 -4.40953e-19)
(0.359178 0.58108 4.33168e-20)
(0.224081 0.580464 5.43856e-21)
(0.0553723 0.411885 8.93628e-20)
(0.686476 0.664138 1.16871e-19)
(0.623811 0.722225 -2.77308e-19)
(0.535657 0.788737 1.8397e-19)
(0.409876 0.847187 -8.60803e-20)
(0.179739 0.642543 1.21739e-19)
(0.779471 0.871868 8.69287e-20)
(0.707629 0.957205 4.88235e-19)
(0.655066 1.0538 1.32053e-19)
(0.571903 1.0848 -3.21712e-19)
(0.31347 0.792273 2.73378e-19)
(1.0648 0.919901 2.50749e-19)
(1.01466 1.00007 -7.74342e-19)
(0.966902 1.10179 -2.02618e-18)
(0.888681 1.17318 8.02242e-19)
(0.523633 0.869298 -1.61518e-19)
(1.13323 0.988157 -9.89756e-20)
(1.17337 1.1081 -1.76222e-19)
(1.19726 1.21688 -3.92079e-19)
(1.14329 1.23157 -4.38228e-19)
(0.701563 0.874768 -6.87621e-21)
(1.02025 0.0407786 -9.61124e-20)
(1.00169 0.0499061 -3.13694e-20)
(1.03163 0.141382 -1.39616e-21)
(0.943202 0.152713 -2.34286e-19)
(0.904284 0.314698 3.01421e-19)
(1.01134 0.0360536 6.05248e-20)
(1.01716 0.0491499 1.16464e-19)
(1.0135 0.151933 1.31027e-19)
(0.988466 0.178092 3.34531e-20)
(0.93495 0.393455 -2.11069e-20)
(1.02171 0.0336424 8.20508e-20)
(0.995814 0.04285 -4.48819e-21)
(1.05906 0.1732 -5.50643e-21)
(0.93333 0.17237 1.44623e-19)
(1.16908 0.542115 -4.93917e-19)
(1.02144 0.0316629 -2.39048e-22)
(1.00409 0.0381472 -1.62231e-19)
(1.04471 0.192035 -6.56194e-20)
(1.04973 0.16692 -3.62494e-19)
(1.16715 0.596022 9.32055e-20)
(1.02474 0.0256933 -1.34811e-20)
(0.986594 0.0421046 4.46936e-20)
(1.10217 0.186621 3.03053e-20)
(1.01764 0.197228 4.49491e-19)
(1.40616 0.72552 -4.78259e-19)
(0.998237 0.0304739 -9.94458e-21)
(1.02506 0.018825 9.36214e-20)
(1.07775 0.21598 -6.52726e-20)
(1.27944 0.10515 9.9154e-19)
(1.31915 0.786396 -3.58994e-19)
(0.949844 0.00662735 -1.2198e-21)
(1.08195 0.0246132 -8.05812e-20)
(1.0304 0.117782 5.62742e-21)
(1.45366 0.0988238 -3.10001e-19)
(1.28545 0.566039 -7.76318e-20)
(0.965491 0.0127808 4.41745e-21)
(1.07285 0.0140454 1.45442e-35)
(1.16344 0.0459268 -3.23381e-20)
(1.36016 0.0707926 9.17401e-20)
(1.33105 0.425769 1.83242e-19)
(1.02211 -0.023143 3.74034e-21)
(1.05326 -0.0304957 -2.68865e-20)
(1.23128 -0.0127418 2.07079e-20)
(1.07097 0.0666374 2.04009e-20)
(1.53662 0.29489 -2.69651e-19)
(0.953775 -0.0222266 -3.74964e-20)
(0.869241 -0.0279999 -5.13979e-22)
(0.870789 0.00208858 2.76265e-20)
(0.748897 0.0160948 -1.99617e-20)
(1.24122 0.0664562 -6.22627e-20)
(1.84087 0.596357 2.89018e-19)
(1.9218 0.64562 7.46733e-19)
(2.18917 0.478321 -1.08748e-18)
(2.24843 0.469446 3.24942e-20)
(2.46384 0.22842 4.77838e-19)
(1.73012 0.365918 8.67455e-20)
(1.74898 0.43169 1.01488e-18)
(1.98755 0.275572 1.1565e-19)
(1.95958 0.31337 -8.85765e-19)
(2.22952 0.085523 -2.81715e-19)
(1.71541 0.303417 -2.26678e-19)
(1.80573 0.284994 -1.48186e-19)
(1.95522 0.194601 2.43992e-19)
(1.99223 0.172196 -2.83035e-19)
(2.13847 0.0573215 2.58738e-19)
(1.74888 0.167787 4.12431e-19)
(1.87609 0.137894 2.48643e-22)
(1.92375 0.0792443 2.23188e-19)
(2.01806 0.0605909 1.77754e-19)
(2.03562 -0.0034292 -1.7282e-19)
(1.41129 0.0289487 -5.22439e-20)
(1.50245 0.0115661 2.57501e-19)
(1.49567 0.000158369 1.0727e-19)
(1.54778 -0.0122025 -2.0629e-19)
(1.48566 -0.0170284 6.67593e-22)
(1.09274 -0.0152277 6.33866e-20)
(2.07323 -0.0398758 -4.07682e-19)
(2.30445 -0.0298441 1.12814e-18)
(2.28746 0.00748575 5.03618e-19)
(2.12294 0.0327084 -3.55584e-19)
(0.696015 0.0963915 1.22308e-19)
(1.85659 0.0934087 -4.22935e-19)
(2.30731 0.0970391 -5.81531e-19)
(2.35748 0.103976 7.28726e-19)
(2.11552 0.0910594 -4.83785e-19)
(0.239604 0.0843356 -9.43171e-21)
(1.26025 0.15704 4.62967e-19)
(1.97357 0.179696 6.18244e-20)
(2.34603 0.172042 5.00243e-19)
(2.47732 0.163208 2.36409e-19)
(-0.00744778 -0.00448383 1.72898e-19)
(0.490398 0.098545 1.79967e-19)
(1.23906 0.171229 -4.38399e-19)
(1.71291 0.205095 3.1095e-20)
(2.27056 0.233672 1.71261e-19)
(-0.0731108 -0.058896 1.02619e-19)
(0.0402042 -0.0217863 -1.31062e-19)
(0.458808 0.059478 -6.59876e-20)
(0.913498 0.0995488 4.62311e-20)
(1.31106 0.166758 1.38441e-21)
(-0.0654406 -0.0732506 3.63671e-20)
(-0.0919021 -0.0994214 5.20814e-20)
(0.0178626 -0.0827114 6.48782e-20)
(0.211287 -0.0296724 -1.86643e-19)
(0.557339 0.0334958 5.73888e-21)
(-0.0262428 -0.0388336 8.66979e-21)
(-0.0537157 -0.084178 -2.76112e-20)
(-0.0411268 -0.0857016 -4.67362e-20)
(0.01475 -0.0467815 1.07342e-19)
(0.156154 0.0432365 7.79265e-20)
(-0.0361399 -0.14323 -2.2516e-20)
(-0.0273291 -0.24153 -8.68671e-19)
(-0.0227275 -0.254539 5.6511e-19)
(-0.0424241 -0.224698 1.16883e-18)
(-0.052254 -0.17549 -1.42407e-19)
(-0.0817994 -0.135127 4.54861e-20)
(-0.273011 -0.0439798 4.39082e-19)
(-0.422211 0.198586 -1.25551e-18)
(-0.586754 0.368925 -1.04184e-18)
(-0.685481 0.407132 3.66374e-20)
(-0.0682529 0.488996 -1.06451e-19)
(-0.429072 0.711902 3.95532e-19)
(-0.727193 0.760223 -1.59325e-19)
(-0.905857 0.734525 1.72784e-19)
(-0.958272 0.652573 1.22215e-18)
(1.19558 0.646473 -4.12783e-21)
(0.923123 -0.0471165 1.09494e-18)
(1.4923 0.175119 3.36014e-20)
(0.453128 0.130438 4.25341e-20)
(0.466712 -0.0923 -3.82497e-21)
(1.13207 0.581941 1.63652e-19)
(0.592936 -0.146117 -5.86733e-19)
(1.63275 0.259225 -7.58087e-21)
(0.718588 0.231395 9.63045e-21)
(0.570336 -0.0784808 4.42827e-21)
(0.430979 0.433902 2.07624e-19)
(0.0609943 -0.25297 8.02673e-19)
(1.71038 0.235384 -5.34463e-20)
(0.956356 0.350362 -9.2613e-20)
(0.720181 -0.0416032 1.31763e-20)
(-0.773517 0.507834 8.55395e-19)
(-0.16202 -0.616345 -8.07609e-18)
(1.69458 0.158986 3.30569e-19)
(1.10943 0.4684 -1.01307e-20)
(0.858328 -0.00492415 3.74313e-20)
(-0.917253 0.149282 5.60972e-19)
(-0.390148 -1.17769 -1.07145e-18)
(1.56683 -0.0791811 -3.81132e-19)
(1.21655 0.536203 4.98546e-20)
(0.980886 0.0430705 9.03298e-20)
(0.162309 0.163478 -1.26251e-19)
(-0.22946 -0.126899 0)
(0.143109 -0.0938055 3.53498e-21)
(-0.072037 -0.0439348 2.61806e-20)
(0.289677 -0.0223723 -1.60412e-20)
(1.59026 0.521454 0)
(1.02225 0.123444 0)
(1.21246 0.0599693 1.40651e-19)
(0.23516 -0.00858425 2.79358e-20)
(0.467205 -0.0802255 2.09444e-20)
(0.681657 0.000727265 -1.21431e-19)
(0.70284 -0.00364116 1.9778e-19)
(0.921643 -0.00328394 -5.07917e-20)
(0.902658 0.0129266 2.84943e-19)
(1.29706 0.0815443 2.03919e-19)
(1.54225 0.024291 1.14937e-19)
(1.65308 0.0682095 2.73351e-19)
(1.84298 0.046792 -4.10755e-19)
(2.33876 0.192295 3.99903e-20)
(2.10517 0.138693 2.17681e-19)
(0.867152 -0.447632 -3.41921e-20)
(0.851241 -0.531999 -1.48146e-19)
(0.837377 -0.623327 -9.41991e-20)
(0.764856 -0.68597 5.80689e-20)
(0.462634 -0.53475 1.19882e-19)
(0.764688 -0.348513 1.23765e-19)
(0.709859 -0.410259 2.54425e-19)
(0.638351 -0.478051 -3.42454e-20)
(0.528978 -0.534949 1.3121e-19)
(0.286455 -0.425219 5.29296e-20)
(0.629945 -0.206351 -1.50713e-19)
(0.544295 -0.24263 -4.9605e-20)
(0.443006 -0.28751 1.2911e-19)
(0.323105 -0.327828 -9.25904e-21)
(0.139668 -0.265187 -1.12568e-19)
(0.537996 0.0255009 -4.27918e-19)
(0.451477 0.0136274 -3.5345e-19)
(0.340701 -0.00588251 2.79361e-19)
(0.213661 -0.03472 1.732e-19)
(0.0543707 -0.0513139 1.33903e-20)
(0.517272 0.231771 -1.62931e-19)
(0.430937 0.236731 -1.65689e-19)
(0.314431 0.242083 -7.08392e-20)
(0.178175 0.250755 1.86181e-20)
(0.0241671 0.184597 1.09643e-20)
(1.89925 -0.0394882 7.38841e-19)
(2.15286 -0.100683 2.45843e-19)
(2.22548 -0.178688 -6.57333e-19)
(2.07637 -0.204867 -1.33852e-18)
(1.23811 -0.17178 1.15686e-19)
(1.87511 -0.117926 1.22459e-18)
(1.96619 -0.223015 1.63096e-18)
(1.98718 -0.337673 1.36997e-19)
(1.90412 -0.392186 2.41856e-19)
(1.20836 -0.332929 -1.59134e-19)
(1.60842 -0.27102 -3.16521e-18)
(1.67558 -0.382867 3.47275e-19)
(1.72005 -0.499995 9.94737e-19)
(1.65508 -0.567179 -3.64938e-19)
(1.06528 -0.469181 5.77112e-19)
(1.40888 -0.387301 7.52669e-19)
(1.42871 -0.481112 -2.00053e-18)
(1.41774 -0.59204 -2.27441e-18)
(1.34837 -0.669627 6.84133e-19)
(0.864253 -0.541175 4.74518e-19)
(1.14255 -0.440631 1.52415e-19)
(1.10518 -0.529694 2.29832e-19)
(1.09589 -0.643145 -3.42833e-19)
(1.03845 -0.720332 -4.12177e-19)
(0.654276 -0.565473 -3.78802e-21)
(1.07508 0.0538701 7.59897e-21)
(0.926668 0.0641081 -3.3344e-21)
(1.10671 0.0851511 2.33251e-22)
(0.79967 0.0186727 -2.14093e-19)
(1.04192 -0.182656 -1.23159e-20)
(1.08411 0.0557186 -2.50148e-21)
(0.924792 0.0629063 4.14676e-20)
(1.10759 0.103688 -3.37063e-20)
(0.884792 0.0664724 1.44727e-19)
(0.951226 -0.0681056 -1.24401e-20)
(1.08156 0.0511478 -6.06862e-20)
(0.928905 0.0606009 1.88553e-22)
(1.09607 0.106667 -1.86232e-20)
(0.888254 0.0921608 5.98298e-20)
(0.928227 -0.00647881 -1.87381e-19)
(1.0611 0.0484242 7.35632e-20)
(0.957303 0.056682 3.28248e-21)
(1.06263 0.115426 3.2124e-20)
(0.92276 0.116624 -9.81115e-21)
(0.853345 0.103375 9.48366e-20)
(1.03447 0.0436811 1.8527e-20)
(0.99043 0.0556595 -2.711e-20)
(1.03086 0.123302 4.52007e-20)
(0.951538 0.143058 5.95528e-20)
(0.836321 0.205369 -1.00958e-19)
(0.892645 0.034085 0)
(0.7048 0.0285495 1.01583e-20)
(0.586378 0.0231813 4.69963e-21)
(0.325023 -0.0052264 3.94884e-20)
(0.617704 -0.0486795 -1.27598e-19)
(1.04146 0.0748087 -6.5733e-20)
(0.936384 0.0775437 -1.47302e-20)
(1.00504 0.0841159 -4.06426e-20)
(0.785837 0.0088734 -1.19352e-19)
(0.973608 -0.170469 -1.38203e-19)
(0.850284 -0.0625416 -3.05508e-20)
(0.933116 -0.0295983 4.71257e-19)
(1.01375 0.0347815 2.82915e-19)
(0.897288 0.0475736 2.99556e-20)
(0.698612 0.0247957 0)
(1.20502 -0.296016 2.89437e-19)
(1.31304 -0.261736 1.33536e-18)
(1.47425 -0.147252 -1.4631e-18)
(1.56398 -0.0217416 -4.49418e-19)
(1.46656 0.0229076 3.46633e-19)
)
;

boundaryField
{
    left
    {
        type            fixedValue;
        value           uniform (1 0 0);
    }
    right
    {
        type            zeroGradient;
    }
    down
    {
        type            noSlip;
    }
    up
    {
        type            noSlip;
    }
    cylinder
    {
        type            noSlip;
    }
    defaultFaces
    {
        type            empty;
    }
}


// ************************************************************************* //
