# Selection   : all
# Cells       : 440
# Volume      : 7.374263e+01
# Time        	min(p)
0             	0.000000e+00
0.05          	-3.025857e+00
0.1           	-3.002128e+00
0.15          	-3.020445e+00
0.2           	-3.037065e+00
