# Selection   : all
# Cells       : 1800
# Volume      : 7.372328e+01
# Time        	minMag(U)
2.45          	5.226240e-03
2.475         	3.584773e-03
2.5           	3.102349e-03
