/*--------------------------------*- C++ -*----------------------------------*\
  =========                 |
  \\      /  F ield         | OpenFOAM: The Open Source CFD Toolbox
   \\    /   O peration     | Website:  https://openfoam.org
    \\  /    A nd           | Version:  13
     \\/     M anipulation  |
\*---------------------------------------------------------------------------*/
FoamFile
{
    format      ascii;
    class       volVectorField;
    location    "3.9";
    object      U;
}
// * * * * * * * * * * * * * * * * * * * * * * * * * * * * * * * * * * * * * //

dimensions      [0 1 -1 0 0 0 0];

internalField   nonuniform List<vector>
440
(
(-0.0531915616105 0.0312066944206 -1.60723486868e-15)
(-0.0937414861953 0.0702566900466 -1.99019054964e-16)
(-0.0169886288567 0.0966548177966 3.11125143596e-18)
(0.449357156724 0.102463658744 -7.86309614764e-19)
(0.232277229138 0.393619519159 2.78743352862e-19)
(-0.0835198147731 0.0441006262397 6.10517298744e-19)
(0.0244198588257 0.000100991127749 -3.3205210584e-19)
(0.466414448426 -0.0331217874548 -7.2640532605e-19)
(1.05911663249 -0.0656536610703 1.14619923105e-18)
(1.37799360575 -0.0161243780811 6.21731541415e-19)
(-0.0340670109369 0.0178069017332 6.96633925907e-19)
(0.446711786647 -0.0307719003424 2.00831224069e-18)
(1.22940837098 -0.0025256070025 -2.39840827876e-20)
(1.79343663311 0.0435996884126 -3.09986455165e-18)
(2.38967407951 0.0663867160107 -1.20017081723e-19)
(0.180848315866 -0.0372344322657 -9.3776689696e-19)
(1.17947246393 0.0109108739002 -3.33419352415e-19)
(1.96298875057 0.0975964468518 3.36221224855e-18)
(2.44897852775 0.135743919568 7.41822614549e-19)
(2.52905781427 0.160484403626 -1.79616826339e-18)
(0.556763195536 0.00114844847632 -1.11766504688e-18)
(1.75469491951 0.191124373931 -9.17969847944e-19)
(2.31103263226 0.275839795018 2.89042558086e-19)
(2.42253279525 0.288570048462 2.78644277976e-18)
(2.50090424863 0.254224745394 9.16094649635e-19)
(-0.039677915306 0.213351928782 1.00081537275e-19)
(-0.176828884498 0.359215173561 -3.11313389503e-19)
(-0.303053408895 0.381839694393 5.80340552325e-19)
(-0.399945080965 0.388355643324 -1.44623730147e-19)
(-0.471031906114 0.39773266146 -1.4561745437e-18)
(-0.0746207433202 0.340038023634 1.33405535125e-19)
(-0.185326793342 0.586052639954 3.09514486901e-19)
(-0.273166606318 0.598399030979 1.79510934629e-19)
(-0.339580146827 0.561333460269 1.2535408236e-19)
(-0.385026444942 0.532759848857 -1.6309690868e-19)
(-0.0942066590698 0.298257947197 -1.12958421668e-18)
(-0.175008463105 0.657582040463 -6.28368337555e-19)
(-0.20652589769 0.773548716482 -5.20899575081e-19)
(-0.21514518173 0.771849148334 1.06088145892e-18)
(-0.207119418474 0.718974729565 -2.89321066903e-20)
(-0.0578236235808 0.134937343574 -3.38769886176e-19)
(-0.13040263999 0.444566950986 4.32879253535e-19)
(-0.139405292512 0.65171911127 -8.23122993864e-19)
(-0.130377150522 0.756569173128 -7.61860193593e-19)
(-0.090653415324 0.794083102788 5.04138787644e-20)
(-0.0260485128466 0.033605369407 3.46591727997e-19)
(-0.106428977524 0.185583496122 1.68363259374e-19)
(-0.142126688305 0.372532354121 -1.47895881199e-19)
(-0.0720993683734 0.47630252569 2.68009044893e-19)
(-0.0308690041762 0.696222747313 6.64209986108e-19)
(-0.743086858723 0.418304610869 -4.0707029597e-19)
(0.0315639103362 -0.0483125756103 1.10944943764e-18)
(0.466259693526 -0.446649429953 2.58976261204e-19)
(0.678752730758 -0.461309234847 2.91008840983e-22)
(0.936887671528 -0.259838291899 1.63792074133e-19)
(-0.54736738758 0.35996313861 2.37280331127e-18)
(0.538706199773 -0.236285277815 -5.98937087545e-19)
(0.879954009167 -0.517768335024 6.4233437272e-19)
(1.00867606971 -0.507270270216 9.54382918646e-19)
(1.06232309575 -0.283547160059 -2.68777276352e-19)
(-0.106778856991 0.243745336418 8.97804166555e-19)
(0.977389509676 -0.408577354589 3.77345696978e-18)
(1.21664099684 -0.586168849641 -4.98354106047e-19)
(1.32305052429 -0.518294590131 7.2175267045e-19)
(1.21379542923 -0.280602334172 2.32642367227e-19)
(0.327942866308 0.211777984621 -1.21414688195e-18)
(1.42636568171 -0.521585954208 -1.07986622574e-18)
(1.45392909324 -0.645830288885 -8.77116383951e-20)
(1.50266880625 -0.520002294663 -7.13809878248e-19)
(1.32708609662 -0.263036068765 3.18514837038e-19)
(0.761725267236 0.0401418439284 -2.45074014624e-19)
(1.85545660268 -0.596740203182 -2.76086761e-18)
(1.73237709928 -0.650752241112 0)
(1.61179751805 -0.502461280139 2.01049070262e-19)
(1.37984932582 -0.239176194599 -5.36305083846e-20)
(1.78437134984 -0.0666146363531 -2.10425351506e-19)
(2.35592073185 -0.556199952263 9.45691943526e-19)
(2.08012463215 -0.577603246032 -1.31579633024e-19)
(1.72608937809 -0.434759717158 5.63119344007e-19)
(1.39318428939 -0.204460634313 1.89765928195e-19)
(2.40931736368 -0.164389373968 3.68571352755e-19)
(2.50580654612 -0.60153369433 4.41830564067e-19)
(2.07665748046 -0.495376635496 -1.27600883396e-19)
(1.58013771909 -0.257149887193 -2.31313359833e-19)
(1.23296350527 -0.109652497375 0)
(2.41958982761 -0.160738540721 1.46389523432e-19)
(2.23214320042 -0.41309691017 1.18912403758e-19)
(1.87984574849 -0.30522740034 -2.42270925073e-19)
(1.6129440741 -0.13548296862 1.07767072721e-19)
(1.26746519697 -0.0611916814743 -5.50155675121e-20)
(2.30866697585 -0.136284920072 -9.39006011461e-19)
(1.97004844232 -0.360790964436 1.04368213023e-18)
(1.42597352883 -0.253404711381 -3.55657966602e-19)
(1.14811977724 -0.0325712691043 -5.39176778387e-33)
(0.967082557003 0.0191812777916 5.61106139318e-19)
(1.53787101651 -0.0821579321622 4.6994071646e-20)
(0.896803369118 -0.0519418616619 3.68328560513e-20)
(0.392672174394 0.0105448339934 -3.33446791105e-19)
(0.308182571124 0.0243781419458 -2.05571679247e-20)
(0.366524138271 0.00841390877424 8.84115953035e-21)
(2.39424330813 0.271794068994 -2.51536927445e-18)
(2.64226657614 0.05621685167 2.13289402896e-19)
(2.46507583124 0.163408441695 -1.14336789129e-19)
(2.75574862972 -0.0441836616022 -3.76538852612e-19)
(1.97697475078 0.213563690098 6.51682571381e-20)
(2.11820435566 0.19436548952 -1.12009515523e-18)
(2.49768542434 0.0135018175879 4.05625085514e-20)
(2.2646223324 0.071826498718 4.3291972497e-19)
(2.57618278666 -0.0871910520713 -6.42353022036e-19)
(2.37459072777 -0.104490708671 9.15458141077e-20)
(2.12967309425 0.0945377028926 -6.00206500424e-19)
(2.28747028191 0.0175187778907 6.03150273779e-19)
(2.2360672082 -0.00470732577361 -1.18522495118e-18)
(2.33051523749 -0.0535610838355 1.20686863177e-19)
(2.33556221551 -0.112609689428 1.10746309463e-18)
(2.06766753264 0.0319658725022 -4.90012426265e-19)
(2.11734210358 -0.0026204794946 -1.69972544992e-18)
(2.15468773215 -0.0192304867504 1.34875953883e-19)
(2.19292066192 -0.0408155232467 1.84173176036e-18)
(2.2314759981 -0.0731100678951 -4.30246230749e-19)
(1.52946062757 -0.00691007048647 -1.17217871741e-18)
(1.50774910222 -0.0142031323789 2.9913796185e-20)
(1.55063801004 -0.0147196390329 -2.45059743255e-21)
(1.53082538125 -0.022325333931 6.66860087287e-19)
(1.56089988067 -0.0236273838633 1.15900195121e-18)
(1.53627155698 0.805066461631 3.26337126688e-19)
(1.48810341704 0.898743271396 -5.02060505842e-19)
(1.48403462425 1.02837777393 -6.35406265894e-19)
(1.41294064711 1.07197843112 3.83220575445e-19)
(0.850922410841 0.758052965992 1.33202729452e-19)
(1.81513338609 0.78265207726 5.67167471521e-20)
(1.78095417045 0.854022944577 -1.97631913712e-18)
(1.78557914491 0.954079335594 -1.03992771325e-18)
(1.69132281075 0.960800298112 1.77575656245e-19)
(1.01849275819 0.668283594205 -2.69461980849e-19)
(2.14328693844 0.635918149112 1.02025702608e-18)
(2.10845638735 0.706239700762 -1.86349131175e-19)
(2.06691837208 0.797785655652 -2.8364428295e-18)
(1.93462972341 0.787109590935 -8.26066683398e-19)
(1.13348553396 0.526626948113 -2.2766083958e-19)
(2.29857442441 0.539647860252 2.24103547964e-18)
(2.28479958307 0.593362560432 1.72019421009e-18)
(2.2780944274 0.643734735741 -8.74169151935e-19)
(2.05612785778 0.598561853373 -2.19856132124e-18)
(1.1226884344 0.355646832712 1.30063885724e-19)
(2.47849587322 0.391105470333 1.65787867665e-18)
(2.46819869242 0.412135437623 2.91529639662e-19)
(2.34790443881 0.446619456171 9.84981218666e-19)
(2.02550513788 0.391054269652 -1.95079564424e-19)
(0.944407264133 0.162300318267 -1.71164293074e-20)
(0.570176649558 0.491849666012 -3.13195634837e-18)
(0.479919578528 0.523665185174 -2.38598478852e-18)
(0.36329965059 0.552790841689 3.04047302946e-19)
(0.226526238123 0.54873429963 -1.55325707426e-19)
(0.0564822289484 0.386781744362 -7.58479651832e-21)
(0.658906926246 0.649227081557 -1.13922154583e-18)
(0.593564385282 0.702248437139 -8.61693717402e-19)
(0.507051609222 0.765405593569 -3.69475092819e-20)
(0.387540896253 0.816720251987 7.62378112076e-21)
(0.169442556711 0.612040120392 1.10004882708e-20)
(0.763865260084 0.855061896583 9.05977025518e-19)
(0.688468959539 0.930580015129 -6.71234164187e-19)
(0.630272671164 1.01649527706 -4.90165794227e-20)
(0.545715334414 1.03830440982 -3.01492584018e-20)
(0.29576485367 0.74741153283 1.38866065021e-19)
(1.02828203703 0.908064844105 -5.24873159513e-19)
(0.982591205936 0.979484570925 3.12724560388e-19)
(0.933620718263 1.0684765345 -2.07976876829e-19)
(0.8523992967 1.12682447097 3.05425662503e-19)
(0.495549291961 0.822817413884 2.12897682501e-19)
(1.07093618954 0.963881676121 3.62962690224e-19)
(1.11339830694 1.0766180878 3.75537549943e-19)
(1.14234381517 1.17796324034 -3.58161814366e-19)
(1.08838471183 1.18173633833 -4.85227409961e-19)
(0.658787226931 0.824847837973 -5.27089699648e-21)
(0.976884463324 0.0327651589581 4.15611003064e-20)
(1.03737534281 0.0329463012999 -1.89243833324e-19)
(1.03814485339 0.125107360967 -1.28101635898e-19)
(0.964372451633 0.147064375599 7.7728591401e-19)
(0.893762522463 0.322414633763 1.09916097022e-18)
(0.972161430594 0.027306591013 -1.66112127673e-19)
(1.05067456325 0.0332163420198 -7.24212624921e-19)
(1.01930016844 0.129167212396 -1.82838339418e-19)
(1.00984149479 0.180472544182 -9.54000775761e-19)
(0.928703348624 0.403289981868 1.01748516491e-18)
(0.980218645054 0.0242324393087 -1.6715591117e-19)
(1.03199149561 0.0264872413438 5.60074958077e-20)
(1.06830602813 0.151403079125 4.95116158694e-19)
(0.955661955545 0.169259152198 5.42070471918e-20)
(1.14909548914 0.556867857329 3.98442991331e-19)
(0.979249549533 0.0212825149757 4.15181757753e-20)
(1.04262580196 0.0210727478577 1.0424418828e-18)
(1.05766938082 0.163806535482 3.91986057789e-19)
(1.05915760182 0.175730675128 1.622185714e-18)
(1.12205291753 0.622562307751 -5.7461757298e-19)
(0.982149656541 0.0160722102626 1.2117079332e-19)
(1.03343699595 0.0214259205417 1.88328721081e-20)
(1.10450005668 0.166874640524 -2.91586026443e-19)
(1.01419681136 0.210695813641 -7.77960895006e-19)
(1.36772631426 0.742311570412 5.33754196915e-19)
(0.967105896964 0.0161628250513 -4.93700224893e-20)
(1.06316659293 0.00249705684119 -5.30889575118e-19)
(1.09386546707 0.19365721893 2.91663631347e-19)
(1.24024323473 0.110941265463 -1.78404407282e-18)
(1.26157128993 0.828629032036 1.3671728718e-18)
(0.958725829641 -0.00303817086375 3.86448568388e-20)
(1.09896389451 -0.00475309892529 1.21487630011e-20)
(1.06863432841 0.117579231533 -1.08213134526e-19)
(1.3150709455 0.138106858705 1.59832983927e-19)
(1.15400744605 0.597561081699 -3.13601239873e-19)
(0.975798111989 -0.0109954494069 8.59565361608e-20)
(1.09002695915 -0.0136042532522 2.16694351076e-35)
(1.09716324253 0.0868516090395 -1.73780643747e-20)
(1.24904120226 0.118986444925 -5.78343204964e-20)
(1.34196021273 0.411048577444 -6.85056671948e-19)
(1.01003195035 -0.0437493828227 -7.04936941562e-20)
(1.01976484573 -0.0276734688894 9.21490390018e-21)
(1.13908139625 0.0297377286999 -3.21060712783e-19)
(1.13342615178 0.0734704309691 -3.37091652087e-19)
(1.58947855468 0.244916572922 1.20599665039e-18)
(0.933711978097 -0.0222957836519 7.30767275863e-20)
(0.839243364084 -0.0244185845765 3.39396312537e-21)
(0.874270006844 0.00155998697249 -3.3283754663e-19)
(0.823105063074 0.0082254034711 5.27987029006e-22)
(1.23915070335 0.0610693802965 3.03805265263e-19)
(1.79556462179 0.594801260132 -6.69037241511e-19)
(1.87286770866 0.642393124905 -7.28184899716e-20)
(2.16921798036 0.467897233681 9.0071395157e-20)
(2.20812047825 0.468274140188 1.93274671066e-18)
(2.46044413651 0.26293722842 -1.49861487481e-18)
(1.763505183 0.333194649964 -2.75290342057e-19)
(1.74612005505 0.405267974185 -2.78793483445e-18)
(2.05774592424 0.26514823534 -8.42447637892e-19)
(1.96183161302 0.312518465567 2.74689940112e-18)
(2.32336257468 0.132823543244 2.98341107021e-19)
(1.77069800974 0.232812927771 9.63457852863e-19)
(1.84364183195 0.252165388124 5.81174427179e-19)
(2.00297761601 0.168570588751 1.16056280431e-18)
(2.00344492068 0.184718120129 9.92048105371e-19)
(2.18158036143 0.0880997413046 -9.35155871902e-19)
(1.77526454935 0.122631956629 -1.06702387948e-18)
(1.87238167859 0.121124438314 8.87100274919e-20)
(1.91187746915 0.0733794920681 -9.07091675616e-19)
(1.9738941134 0.0809852947505 -1.17999544962e-18)
(2.0214300541 0.0341790692513 1.07143966227e-18)
(1.38134309778 0.0306764770423 1.23551858412e-19)
(1.45765313166 0.0236503965933 -9.11681690263e-19)
(1.45000202441 0.0109153675123 -6.1910213876e-19)
(1.49980657148 0.00752990045076 1.15895993006e-18)
(1.48017096393 -0.00443559004974 1.08255714095e-20)
(1.15961402179 -0.0255414241414 -3.52706349522e-19)
(2.160989936 -0.028733347164 -1.25153633847e-19)
(2.38508059897 -0.0309866103001 1.32267830854e-18)
(2.36320522894 0.00831544166632 9.5535744582e-19)
(2.22990224025 0.0325962818833 -1.26977995009e-19)
(0.756784387522 0.0945647363087 -5.91563718289e-19)
(1.94928576491 0.11210554101 -9.76722180908e-19)
(2.38304416201 0.107349486527 -3.0184422349e-19)
(2.43295312853 0.114245352007 4.24862250261e-19)
(2.16404740643 0.100782497467 2.94269357835e-19)
(0.268239816768 0.0872540265394 -6.76865263147e-19)
(1.34204193888 0.173385537456 5.7565807384e-19)
(2.05960799302 0.186857983775 3.65784743193e-19)
(2.41824980479 0.178184570691 7.5544730346e-19)
(2.56693488593 0.166068444594 1.67593338582e-18)
(-0.00435267838774 -0.0115773414696 9.51891399185e-19)
(0.531851510882 0.105630858502 8.65937608031e-19)
(1.31431776642 0.171039073443 -1.74312216315e-18)
(1.79422507426 0.202841407397 1.19917023554e-19)
(2.33950972886 0.23451124745 -1.54045692179e-19)
(-0.0802327894916 -0.0792855430388 1.25412912676e-18)
(0.0352807203744 -0.0311487995507 -8.23309235763e-19)
(0.500303778736 0.0550866142789 5.19593958515e-19)
(0.978335733377 0.106322024447 1.02153864576e-18)
(1.36956675986 0.161642999316 1.1229552366e-19)
(-0.0701292637248 -0.0883469620276 5.75227029122e-19)
(-0.101332604911 -0.117705549817 5.02705452848e-19)
(0.0436638424633 -0.0728558648421 9.45622299562e-19)
(0.302327010151 0.000547797147249 -7.83011765188e-19)
(0.628881307312 0.069023159578 2.28881785094e-19)
(-0.0525264932057 -0.0977507720924 -4.21650648844e-19)
(-0.0929601434208 -0.181016961398 -3.22416157605e-19)
(-0.0655725955227 -0.171814773611 -2.52325450058e-20)
(0.0352899673047 -0.116214405623 -5.75409692929e-19)
(0.179791256126 -0.0365116387156 -2.82305907178e-19)
(-0.0507652012193 -0.151233988143 -3.25387091364e-19)
(-0.0839800639837 -0.248491831269 3.91282666777e-19)
(-0.0783286795648 -0.244490645094 -9.77306147713e-19)
(-0.0493826305926 -0.197872983328 -1.82616189887e-18)
(-0.00390281430541 -0.138965170459 9.10852963065e-19)
(-0.0413945621381 -0.124142376154 -5.34261627666e-20)
(-0.121079621655 -0.157261325583 -1.36673417836e-19)
(-0.191726093171 -0.123733488488 4.69925042857e-19)
(-0.246163944702 -0.0690673665507 1.73932866428e-18)
(-0.266577678575 -0.00459978958034 -2.10917722872e-19)
(-0.0230325385877 0.0240634519123 2.59681175061e-20)
(-0.137850033415 0.0834669952926 -8.15145653454e-20)
(-0.253724861338 0.118672782294 4.00725730124e-20)
(-0.352701372056 0.153249966385 -4.59385071236e-20)
(-0.42110064932 0.196714891816 -7.08433871963e-19)
(1.36963971568 0.471863323361 5.33645540071e-19)
(0.988387285869 0.191668425489 3.22754038985e-18)
(0.902773625867 -0.0380968323622 -6.8929071091e-19)
(0.867261036639 -0.0590354122254 -1.05747043612e-18)
(0.978828141228 -0.0105300846691 -5.83540037444e-20)
(1.12873520291 0.364995124636 7.25736796207e-19)
(0.499808435122 0.204191080256 -1.20978129928e-18)
(0.429650015878 0.00272290746431 -1.81561224844e-18)
(0.513177147408 -0.0765478393965 -2.05852546622e-19)
(0.848132279464 -0.0420204022062 1.5152583307e-19)
(0.480302093369 0.309682835529 1.08562629505e-18)
(-0.23081053235 0.270869826393 -2.49231509062e-18)
(0.166528511748 -0.0656117073686 4.68093814725e-19)
(0.376888897945 -0.172955864071 4.17426827869e-19)
(0.812220142447 -0.0967124848124 -2.84773228853e-19)
(-0.209790682172 0.384481353426 -1.13821723979e-19)
(-0.553006928355 0.242212671 -5.63714751499e-19)
(0.14062411006 -0.194566215414 2.7079622636e-19)
(0.384913394989 -0.26773334923 8.94917282692e-20)
(0.826474407881 -0.155529065434 -3.8080776272e-20)
(-0.636920220616 0.421875943056 -9.00271545826e-20)
(-0.411430155453 0.130314281274 8.12332843402e-19)
(0.211630379658 -0.34105629411 -7.28764570986e-20)
(0.470742015424 -0.373295896394 -3.77063672091e-19)
(0.86382060408 -0.212749847179 -1.43273438581e-19)
(0.609873723624 0.13087526445 -7.24248052592e-19)
(0.00142297758653 -0.0452154936981 0)
(0.140460340559 -0.0727685052642 -3.27488231365e-19)
(0.28327606343 -0.0460159487453 1.78734893244e-20)
(0.434880404668 -0.0223575083015 2.94290633795e-19)
(1.91107105528 0.388160602656 0)
(1.21388382499 0.215730167446 0)
(1.10220655945 -0.00343888175409 9.52902695778e-19)
(1.14325380148 -0.0501319113321 4.3713053208e-20)
(1.10013080958 -0.0208748349201 -7.11066171057e-20)
(0.70551809298 -0.000471219910135 3.93979252131e-19)
(0.77296860666 -0.0047363992365 -2.83163678054e-18)
(0.90426786305 -0.0105321070006 2.78905947467e-19)
(1.04734699579 0.0210338218515 2.27906144051e-18)
(1.28916994697 0.0561929489735 8.01984477561e-19)
(1.64288417485 0.018929027394 -4.08169185148e-19)
(1.74072729693 0.0808852172858 -2.29468097673e-18)
(1.87827835531 0.0441017797062 1.29832642807e-18)
(2.44197265683 0.17925496829 -1.27915638074e-20)
(2.11347640585 0.159252546775 -2.02881982265e-19)
(0.874082845537 -0.452388330811 -2.328622907e-19)
(0.861100050811 -0.54021003113 3.55767525157e-19)
(0.853533952663 -0.637759854491 7.61160899432e-21)
(0.788055683029 -0.707002451894 1.10018789626e-19)
(0.476296246389 -0.555753041608 -1.03993600158e-19)
(0.779603980217 -0.35459418733 5.82436347049e-19)
(0.72616066905 -0.417078408341 1.85628893156e-18)
(0.655131997146 -0.485728633074 5.24520873345e-19)
(0.546643375744 -0.54754686224 -1.3560355047e-19)
(0.295244100101 -0.439895753782 -5.13838048978e-20)
(0.631612656276 -0.216059480777 -1.11760152361e-18)
(0.548862410334 -0.254729042559 4.58816139796e-20)
(0.449854281965 -0.302179219769 1.50218833329e-18)
(0.331064127635 -0.342525748263 2.58881020382e-19)
(0.143092627746 -0.275193923295 8.71125127272e-20)
(0.540544036235 0.0119302981922 -1.85114060577e-18)
(0.455751654417 -0.00263899628142 -1.41451189177e-18)
(0.345514237254 -0.0238120169283 9.23195119254e-19)
(0.217553774642 -0.0519083588773 7.53460108853e-19)
(0.0565428784876 -0.0615417729692 5.38859943753e-20)
(0.502972563611 0.218360564446 -5.19790695294e-19)
(0.41489273389 0.221249689098 -5.26114281053e-19)
(0.299364702256 0.22600985542 -9.69422195616e-20)
(0.168523473775 0.231144491494 1.8143162535e-19)
(0.0221794987342 0.165246106036 5.40009867302e-20)
(1.97533926509 -0.0419317505914 4.0703038608e-20)
(2.23917074699 -0.103443369173 6.625160671e-19)
(2.3091401635 -0.185395226561 -1.14744470198e-18)
(2.16649750053 -0.203275742145 -1.70262318527e-18)
(1.30482886807 -0.189720593952 -2.80668272753e-19)
(1.95272623592 -0.115767657411 2.201163148e-19)
(2.03550773789 -0.222763350455 -1.45456117375e-19)
(2.05585931724 -0.341348579804 -1.22681747643e-19)
(1.97963028756 -0.395017657298 -3.90868000768e-19)
(1.26682052403 -0.357944909458 2.40518381803e-19)
(1.67889032968 -0.272114179276 -1.14477410573e-18)
(1.74358284769 -0.387289739567 1.07861022016e-18)
(1.78158392513 -0.50768418611 2.16169283409e-19)
(1.71850373179 -0.576878299348 -5.92142399359e-19)
(1.1082549674 -0.495000558799 5.62346950099e-19)
(1.46404622905 -0.388266644245 2.15108624573e-19)
(1.47381913001 -0.48225914315 1.14679093691e-19)
(1.45822756875 -0.597788762929 -1.43565605779e-18)
(1.39395597543 -0.682044486268 7.56548876751e-19)
(0.893909238291 -0.565020910202 -1.61004116266e-19)
(1.17987504393 -0.443967287489 1.71352730107e-20)
(1.13320863787 -0.533992321932 -3.95299217296e-19)
(1.1206172085 -0.652055966377 4.89040918474e-20)
(1.06815225475 -0.735300299165 -7.1836798095e-20)
(0.672654906443 -0.586211781934 -3.00424105124e-21)
(1.00044151262 0.0395003281418 6.11646725287e-20)
(1.01442843245 0.0696120206918 -1.54774738735e-19)
(1.09578913415 0.081083802787 -1.03758009298e-18)
(0.814695987607 -0.0045531706834 8.04082507062e-19)
(1.05978138498 -0.183212183035 2.34186898718e-19)
(1.00847322221 0.0416714778983 5.35597350573e-21)
(0.991661240455 0.0621220624047 8.6969717702e-19)
(1.11857392148 0.1045396403 -1.60965323712e-18)
(0.890787601017 0.0401408173037 -1.73226137234e-18)
(0.958398009768 -0.0698395191983 -6.43329744697e-19)
(1.01189966217 0.038587334834 -1.3595782167e-19)
(0.978689365963 0.0530895423597 8.34058215085e-20)
(1.11240780789 0.106680633514 -7.87639505505e-20)
(0.905202006481 0.0721981639548 -1.51636643966e-18)
(0.919152265712 -0.0112969982976 5.8014621085e-19)
(1.00203061902 0.0385893556734 -5.05066024611e-20)
(0.995207378606 0.0430506302496 -1.30891372272e-19)
(1.07933137989 0.111590141737 2.73015980797e-19)
(0.940619900052 0.103358553595 -4.41115439157e-20)
(0.848024479222 0.100565932302 8.91774302282e-19)
(0.986345313296 0.0355776182597 1.4436622368e-20)
(1.02358371266 0.0395343226786 2.42345082388e-19)
(1.04243522213 0.112338567192 5.09291188862e-20)
(0.972015816129 0.136809674292 2.92943924014e-19)
(0.831025483199 0.203263008219 4.09785602153e-19)
(0.88507250364 0.0332655932873 0)
(0.762916466268 0.0303852065961 6.42433792531e-21)
(0.550991570597 0.0191280145149 -2.90688641463e-19)
(0.419548740693 -0.0104749941286 4.53806093795e-21)
(0.675398368054 -0.0420433173662 1.05949568328e-18)
(0.983898259331 0.0622089397436 -1.56735715164e-19)
(1.03369405129 0.0864939300133 -6.70550452518e-19)
(0.958185325086 0.0723880852043 9.81657812182e-19)
(0.838288256676 -0.0146402492858 1.48197427363e-18)
(0.9991417683 -0.170777019966 1.07377409583e-18)
(0.919377903522 -0.0600567030754 1.74729721146e-19)
(1.00020481477 -0.0295827940989 -1.13253218253e-18)
(1.08067761161 0.0358743142767 -2.77442627452e-19)
(0.951387457013 0.0519704513711 -2.61166250533e-19)
(0.72703650264 0.0290888859319 0)
(1.26466802861 -0.297298312118 -1.43245046209e-18)
(1.37866991199 -0.263959030746 -1.78162778161e-18)
(1.54755301307 -0.147380450235 1.4770923694e-19)
(1.63997127663 -0.0190096693508 -1.4209847825e-19)
(1.54082798993 0.0275907639164 -2.84159347948e-19)
)
;

boundaryField
{
    left
    {
        type            fixedValue;
        value           uniform (1 0 0);
    }
    right
    {
        type            zeroGradient;
    }
    down
    {
        type            noSlip;
    }
    up
    {
        type            noSlip;
    }
    cylinder
    {
        type            noSlip;
    }
    defaultFaces
    {
        type            empty;
    }
}


// ************************************************************************* //
