# Selection   : all
# Cells       : 440
# Volume      : 7.374263e+01
# Time        	minMag(U)
9.115         	7.513187e-04
9.16          	1.205617e-03
9.21          	3.381311e-03
