# Selection   : all
# Cells       : 440
# Volume      : 7.374263e+01
# Time        	max(p)
1.8           	1.990000e+00
1.85          	1.984718e+00
1.9           	1.975445e+00
