/*--------------------------------*- C++ -*----------------------------------*\
  =========                 |
  \\      /  F ield         | OpenFOAM: The Open Source CFD Toolbox
   \\    /   O peration     | Website:  https://openfoam.org
    \\  /    A nd           | Version:  13
     \\/     M anipulation  |
\*---------------------------------------------------------------------------*/
FoamFile
{
    format      ascii;
    class       volVectorField;
    location    "59.4";
    object      U;
}
// * * * * * * * * * * * * * * * * * * * * * * * * * * * * * * * * * * * * * //

dimensions      [0 1 -1 0 0 0 0];

internalField   nonuniform List<vector> 
440
(
(-0.252367 0.216122 2.82336e-21)
(-0.268836 0.239332 -3.18288e-19)
(-0.0558108 0.0841506 -4.21098e-20)
(0.341305 0.0459808 2.95408e-20)
(0.373946 0.077075 -2.52457e-21)
(-0.0703271 0.0549847 1.65291e-20)
(0.060832 0.0842142 4.50071e-20)
(0.512975 0.0310712 5.79009e-20)
(1.02563 0.00683256 -3.65166e-20)
(1.4981 -0.0122661 -4.37246e-20)
(-0.0272679 0.0131205 4.31197e-20)
(0.427552 -0.02436 5.574e-19)
(1.15332 -0.0130918 -2.85764e-19)
(1.7431 0.00932126 -9.19397e-19)
(2.26086 0.027606 4.82035e-19)
(0.17458 -0.0400809 -1.5869e-19)
(1.09019 0.00540747 -4.6957e-19)
(1.85926 0.0803352 1.45418e-18)
(2.30642 0.130017 1.66263e-18)
(2.42345 0.150973 -4.43777e-19)
(0.504814 -0.00825594 -2.77418e-19)
(1.63812 0.178393 -5.77412e-19)
(2.19738 0.266893 1.76025e-18)
(2.34653 0.286934 1.89966e-18)
(2.40697 0.264622 6.47725e-19)
(0.0315726 -0.290842 -9.36048e-20)
(0.120066 -0.613161 -1.92039e-19)
(0.173815 -0.714919 2.57525e-19)
(0.183223 -0.66291 -3.56502e-21)
(0.12908 -0.538284 7.73722e-20)
(0.115533 -0.376189 1.38744e-19)
(0.291891 -0.722795 5.31469e-19)
(0.32179 -0.74635 -4.25167e-21)
(0.268852 -0.581188 -1.1938e-20)
(0.14219 -0.335248 3.09864e-20)
(0.282359 -0.540314 3.38755e-19)
(0.481518 -0.859207 1.37235e-19)
(0.441121 -0.79302 2.35924e-20)
(0.332968 -0.574633 -2.73726e-19)
(0.183606 -0.305198 -5.62811e-21)
(0.404279 -0.653038 3.5734e-19)
(0.355035 -0.89114 -5.28237e-19)
(0.140138 -0.79945 6.29309e-19)
(-0.0561813 -0.669067 7.50799e-19)
(-0.191574 -0.490249 1.16088e-19)
(-0.0721257 -0.143263 2.50925e-19)
(-0.382671 -0.418622 4.68104e-19)
(-0.570832 -0.587037 6.9434e-19)
(-0.653415 -0.591413 -8.55042e-20)
(-0.711229 -0.494396 8.85939e-19)
(0.099404 0.0316464 3.14563e-18)
(-0.721492 1.24014 -3.35807e-19)
(1.03036 0.143866 6.19932e-19)
(1.12437 -1.08099 9.65989e-19)
(1.20808 -0.631004 -9.72921e-20)
(-0.0819589 0.328684 -2.22424e-18)
(-1.21248 1.08362 1.75052e-19)
(1.37763 -0.20594 2.0784e-19)
(1.39138 -1.08026 -6.76415e-19)
(1.28079 -0.641256 1.38944e-19)
(0.454915 0.214997 -1.15505e-18)
(-0.562808 0.872009 -1.91957e-18)
(1.61741 -0.482503 -1.18128e-19)
(1.56684 -1.06038 -4.6763e-19)
(1.32319 -0.610726 1.77456e-20)
(-0.037697 0.3158 2.23479e-19)
(-0.261068 0.81187 4.23801e-19)
(1.9712 -0.659556 -1.59429e-19)
(1.76476 -1.02421 1.8747e-19)
(1.36366 -0.575268 9.12398e-20)
(-0.486194 -0.127786 -3.61278e-19)
(0.259079 0.510089 2.54135e-18)
(2.28077 -0.766874 0)
(1.96362 -0.939689 -2.358e-19)
(1.3934 -0.508173 2.19278e-20)
(1.28873 -0.155759 -1.77928e-19)
(1.43575 0.0623212 -4.95799e-19)
(2.51419 -0.872438 -7.14707e-21)
(2.08549 -0.838445 2.24192e-20)
(1.42999 -0.427537 -6.6766e-20)
(1.91862 0.0768494 1.29345e-20)
(2.23494 0.106262 7.03033e-19)
(2.62123 -0.811131 -9.99469e-22)
(1.87302 -0.654138 1.83096e-19)
(1.19811 -0.253009 0)
(1.88551 -0.0296153 -8.2229e-20)
(2.57622 -0.196875 -1.35555e-20)
(2.32958 -0.63811 7.47377e-19)
(1.59191 -0.3906 -5.49927e-20)
(1.12307 -0.160803 -3.24774e-20)
(1.97797 -0.000129611 1.59092e-20)
(2.40015 -0.140498 8.83107e-20)
(1.88458 -0.441512 1.51772e-20)
(1.11876 -0.23413 -3.74444e-34)
(0.724945 -0.0581112 4.65575e-20)
(1.49917 -0.0418219 9.80885e-20)
(1.34441 -0.151336 7.26718e-20)
(0.555546 -0.0169161 -1.40972e-19)
(0.128016 0.000762307 8.95316e-22)
(-0.061457 -0.0151436 1.1667e-20)
(2.33483 0.262299 -8.00757e-19)
(2.48684 0.0924388 -1.02478e-18)
(2.41542 0.0782697 7.71082e-19)
(2.51671 -0.0362736 2.828e-20)
(2.00593 -0.00509946 -7.84512e-20)
(2.13903 0.124272 6.74724e-20)
(2.26397 0.132488 -3.86977e-20)
(2.25687 -0.0581343 -1.24307e-19)
(2.32165 -0.0084004 -2.27899e-19)
(2.28616 -0.266574 -4.27964e-21)
(2.08942 0.0325765 7.36757e-20)
(2.09571 0.114355 8.8558e-20)
(2.20111 -0.0798827 -1.08354e-19)
(2.13788 0.00537518 3.6322e-20)
(2.26295 -0.169947 2.86194e-20)
(2.00755 -0.00502343 1.11366e-19)
(2.00587 0.0596936 1.45526e-19)
(2.12384 -0.0607107 -1.80651e-20)
(2.06619 -0.000838801 -6.43536e-20)
(2.20321 -0.103357 2.58326e-20)
(1.42977 -0.0125572 1.76175e-19)
(1.47492 -0.00721193 -1.1498e-20)
(1.46462 -0.0229078 1.80976e-20)
(1.48626 -0.0172548 -3.29422e-20)
(1.48434 -0.0330065 -1.52596e-20)
(1.54476 0.854253 1.00455e-18)
(1.50766 0.947814 -2.95388e-19)
(1.50463 1.06856 -1.21335e-18)
(1.43424 1.10857 6.80795e-19)
(0.884105 0.796813 -1.7299e-19)
(1.80448 0.796229 -5.31964e-19)
(1.78249 0.878796 -2.815e-18)
(1.79121 0.985924 -1.09291e-18)
(1.70254 0.990971 -3.91184e-19)
(1.03594 0.682524 -6.23838e-19)
(2.09376 0.696363 7.12143e-19)
(2.07699 0.759086 1.84348e-19)
(2.05803 0.837524 -2.1711e-18)
(1.9187 0.818604 -5.89312e-19)
(1.11558 0.525387 4.25613e-19)
(2.23551 0.573191 2.18852e-18)
(2.23923 0.623365 1.58598e-18)
(2.2315 0.667562 -1.81553e-18)
(2.00296 0.617062 -1.34978e-18)
(1.06877 0.337918 -2.38554e-19)
(2.39598 0.425446 1.03251e-18)
(2.38954 0.445745 -7.44281e-19)
(2.28827 0.460249 5.3263e-19)
(1.93272 0.394369 4.09511e-19)
(0.865221 0.139464 -3.37402e-19)
(0.579617 0.3847 -7.24134e-19)
(0.491067 0.416031 -5.98958e-19)
(0.371642 0.447909 8.08637e-20)
(0.230567 0.455218 -2.99443e-20)
(0.0560797 0.328868 6.55053e-20)
(0.670529 0.563619 5.67001e-20)
(0.60624 0.620804 -3.23538e-19)
(0.516964 0.687908 1.69814e-19)
(0.389146 0.74287 -7.84128e-20)
(0.165582 0.568021 1.12586e-19)
(0.769251 0.757997 2.0409e-19)
(0.694613 0.834902 4.01595e-19)
(0.634251 0.931546 5.23378e-20)
(0.548217 0.984541 -2.6914e-19)
(0.299129 0.73669 2.17337e-19)
(1.03714 0.854059 2.07488e-19)
(0.986818 0.940965 -5.98604e-19)
(0.932233 1.03963 -1.75552e-18)
(0.84565 1.10518 7.18618e-19)
(0.498058 0.825467 -1.77029e-19)
(1.15308 0.889983 -1.34662e-19)
(1.16421 1.0091 -2.08887e-19)
(1.17573 1.12646 -3.14321e-19)
(1.1175 1.16544 -3.68002e-19)
(0.68704 0.84731 -6.09568e-21)
(1.01002 0.0519248 -8.33876e-20)
(0.988521 0.00849981 -3.13767e-20)
(1.05095 0.110806 -1.37246e-21)
(0.944594 0.115052 -2.28711e-19)
(0.888879 0.227421 2.91402e-19)
(0.997032 0.0513409 5.15178e-20)
(1.00374 0.00177494 1.15693e-19)
(1.04131 0.120245 9.88742e-20)
(0.969242 0.144964 2.54871e-20)
(0.922808 0.303706 2.37345e-20)
(1.00135 0.0507894 6.84493e-20)
(0.992936 -0.00709082 -4.51624e-21)
(1.08595 0.136689 -4.59824e-21)
(0.91316 0.152537 1.54036e-19)
(1.11915 0.440335 -4.056e-19)
(0.994428 0.0504768 -3.97194e-22)
(1.01818 -0.0190125 -1.7163e-19)
(1.07982 0.160021 -5.67198e-20)
(0.981376 0.163395 -3.70227e-19)
(1.17092 0.477619 8.77445e-20)
(0.992555 0.041529 -1.12582e-20)
(1.02909 -0.017061 5.21903e-20)
(1.11714 0.166919 2.84083e-20)
(0.96418 0.184802 4.43544e-19)
(1.39163 0.608489 -4.00771e-19)
(0.954706 0.0402099 -3.32874e-21)
(1.11201 -0.0451418 1.04332e-19)
(1.09067 0.202105 -7.65572e-20)
(1.16429 0.137211 8.14294e-19)
(1.33797 0.615451 -3.87245e-19)
(0.900356 0.005649 -1.59708e-21)
(1.21812 -0.0435704 -8.61115e-20)
(0.978821 0.153651 4.44422e-21)
(1.2646 0.113118 -2.85472e-19)
(1.41189 0.392459 2.64068e-20)
(0.974045 -0.0154764 -2.77498e-21)
(1.15141 -0.0399083 1.20349e-35)
(0.994299 0.152432 -2.71098e-20)
(1.26302 0.027626 8.63784e-20)
(1.4063 0.287833 1.46697e-19)
(1.11111 -0.0638191 4.05468e-21)
(0.911265 -0.0277202 -2.76153e-20)
(1.14567 0.0849388 1.73494e-20)
(1.21579 -0.0061452 3.09256e-20)
(1.36633 0.17289 -2.08288e-19)
(0.998005 -0.0248763 -4.31913e-20)
(0.697099 -0.0153668 -5.27166e-21)
(0.975068 0.00237966 1.80053e-20)
(0.831322 -0.0158202 -1.2871e-20)
(1.0164 0.0570021 -4.64387e-20)
(1.7397 0.666524 3.05463e-19)
(1.85618 0.643405 7.18899e-19)
(2.08145 0.552548 -1.00421e-18)
(2.15704 0.489828 3.29366e-20)
(2.34305 0.323788 4.32766e-19)
(1.67762 0.494961 3.70683e-20)
(1.76646 0.417407 9.31529e-19)
(1.90002 0.42049 8.91833e-20)
(1.97782 0.289712 -8.58615e-19)
(2.10931 0.269963 -2.74293e-19)
(1.62631 0.376379 -1.91232e-19)
(1.727 0.270398 -1.3934e-19)
(1.81101 0.307915 2.29353e-19)
(1.92673 0.153463 -2.84026e-19)
(1.98206 0.210906 2.57972e-19)
(1.61945 0.217466 3.02743e-19)
(1.68266 0.143635 -2.17761e-21)
(1.77888 0.170781 2.16595e-19)
(1.85672 0.0675689 1.90726e-19)
(1.91479 0.116074 -1.84337e-19)
(1.23695 0.0520193 -3.56301e-20)
(1.27282 0.0334857 2.10172e-19)
(1.35882 0.0283404 1.03124e-19)
(1.37085 0.00721408 -2.18426e-19)
(1.43883 0.00654967 3.32162e-22)
(1.39991 -0.0384688 7.36558e-20)
(2.51471 -0.0225043 -5.95204e-19)
(2.73781 -0.0158802 1.59579e-18)
(2.72024 0.0353714 7.38331e-19)
(2.47595 0.0471847 -4.9662e-19)
(0.918837 0.103333 1.53335e-19)
(2.30044 0.124993 -6.23134e-19)
(2.73748 0.132548 -8.81354e-19)
(2.73824 0.145297 1.18289e-18)
(2.55187 0.141678 -8.54298e-19)
(0.290782 0.102151 -2.87363e-20)
(1.66862 0.210392 7.20568e-19)
(2.46213 0.261265 1.18602e-19)
(2.80084 0.270498 1.17881e-18)
(2.78497 0.250562 6.66277e-19)
(-0.0429591 -0.0163505 2.65398e-19)
(0.722716 0.152879 2.92305e-19)
(1.67299 0.270495 -8.30481e-19)
(2.2555 0.342655 7.45936e-20)
(2.80283 0.377176 6.23077e-19)
(-0.125786 -0.099697 2.06694e-19)
(0.0739094 -0.00349036 -2.43346e-19)
(0.748358 0.158773 -8.97478e-20)
(1.30106 0.255239 1.48648e-19)
(2.01393 0.437119 6.32544e-20)
(-0.0961551 -0.105965 2.44776e-20)
(-0.131935 -0.120753 1.71723e-19)
(0.139668 -0.0804319 8.52668e-20)
(0.343921 -0.0336891 -5.33208e-20)
(1.15152 0.202352 7.41323e-21)
(-0.0652113 -0.103015 -1.46608e-20)
(-0.140479 -0.227214 -1.29405e-19)
(-0.0813464 -0.275702 -2.71838e-20)
(-0.00648221 -0.255247 -1.72964e-20)
(0.374 -0.00028988 6.88356e-21)
(-0.0496058 -0.125545 1.10583e-21)
(-0.098806 -0.31019 3.53077e-19)
(-0.0862914 -0.379658 -2.04645e-19)
(-0.0322678 -0.361088 -4.31154e-19)
(0.0706447 -0.202881 9.11222e-20)
(-0.0345019 -0.179509 -1.85063e-20)
(-0.0490613 -0.420801 -1.06155e-19)
(-0.0229531 -0.53142 2.16275e-19)
(0.0378611 -0.539847 -1.05891e-19)
(0.0803549 -0.470052 5.91056e-21)
(-0.011273 -0.238664 8.05367e-21)
(0.0105158 -0.525505 -2.08981e-20)
(0.0477381 -0.651997 3.12068e-21)
(0.0838362 -0.654352 -1.00719e-20)
(0.0883579 -0.578787 9.39428e-20)
(1.64084 0.751329 -1.02519e-19)
(1.27525 0.494694 -2.87051e-19)
(-0.573122 0.173969 2.98456e-20)
(0.0322876 -0.439068 9.35134e-19)
(0.917951 -0.245192 9.12911e-21)
(1.44158 0.756238 3.6369e-20)
(0.907467 0.751496 1.53758e-18)
(-0.667864 0.203265 5.85444e-19)
(0.178724 -0.717486 2.86154e-20)
(0.937814 -0.372148 6.31266e-21)
(1.44902 0.643894 -3.27575e-20)
(1.18104 1.00196 3.03825e-18)
(-0.172687 0.249233 4.6146e-20)
(0.532156 -0.852409 -1.16963e-18)
(1.00395 -0.455891 -7.83241e-21)
(1.14105 0.231841 3.99358e-19)
(1.43818 1.16669 -4.29668e-18)
(0.295585 0.338786 4.25196e-19)
(0.734262 -0.973313 1.74093e-20)
(1.10743 -0.525886 -9.40172e-20)
(0.531194 0.104617 -2.76096e-20)
(0.614954 1.33438 -1.90072e-19)
(0.620822 0.34572 -2.02161e-19)
(0.842364 -1.05915 -7.6588e-20)
(1.15323 -0.588113 -2.24816e-19)
(-0.250628 0.125184 -5.72382e-20)
(-0.476811 -0.191204 0)
(-0.751253 -0.126463 -5.54309e-20)
(-0.0234718 -0.119158 5.86588e-21)
(0.499419 -0.035204 -9.73296e-21)
(1.80314 0.710369 0)
(1.27198 0.388508 0)
(-0.169786 0.00349553 1.36712e-19)
(0.185677 -0.25844 -3.67209e-19)
(0.865084 -0.14065 -2.50717e-20)
(0.79369 0.00662098 -1.39037e-19)
(0.863254 -0.00363788 2.79954e-19)
(1.04918 0.0443041 -4.29812e-20)
(0.911427 0.00411653 4.0774e-19)
(1.38219 0.202426 2.61887e-19)
(1.78568 0.0430772 1.33571e-19)
(2.0169 0.0869322 4.44434e-19)
(2.1308 0.154744 -8.12603e-19)
(2.55339 0.266282 2.54651e-19)
(2.53893 0.362581 4.77774e-19)
(0.989962 -0.543099 4.8292e-20)
(0.979474 -0.643439 -2.24595e-19)
(0.979067 -0.752907 -2.12548e-19)
(0.914969 -0.831398 1.2539e-19)
(0.564704 -0.661307 1.50051e-19)
(0.886622 -0.454745 1.04518e-19)
(0.83153 -0.526851 1.19935e-19)
(0.755449 -0.60414 -1.25097e-19)
(0.638107 -0.672604 1.53249e-19)
(0.35541 -0.539428 3.39866e-20)
(0.689503 -0.320416 -1.14085e-19)
(0.596859 -0.366316 -6.06329e-20)
(0.496216 -0.425061 -2.96841e-20)
(0.382079 -0.477482 -6.04116e-20)
(0.181481 -0.380008 -1.41952e-19)
(0.580686 -0.0874171 -4.4148e-19)
(0.496853 -0.109964 -3.54264e-19)
(0.388631 -0.144679 2.90971e-19)
(0.260215 -0.186161 1.46603e-19)
(0.0835332 -0.165345 1.33785e-20)
(0.543797 0.119341 -1.40779e-19)
(0.458591 0.117675 -1.60581e-19)
(0.341181 0.112645 -3.86862e-20)
(0.201568 0.110763 5.93494e-20)
(0.0362211 0.0812974 1.53385e-20)
(2.28743 -0.0270371 1.00826e-18)
(2.50887 -0.104608 3.71337e-19)
(2.60686 -0.200593 -9.39444e-19)
(2.49001 -0.226128 -2.01598e-18)
(1.54644 -0.227912 1.47195e-19)
(2.19241 -0.134517 1.67409e-18)
(2.32018 -0.252622 2.1739e-18)
(2.3503 -0.384861 1.79735e-19)
(2.28539 -0.449349 3.10234e-19)
(1.50195 -0.426499 -2.07409e-19)
(1.92695 -0.310162 -4.25187e-18)
(1.97364 -0.435709 4.9077e-19)
(2.01372 -0.572184 1.34691e-18)
(1.97247 -0.659512 -5.47505e-19)
(1.30821 -0.587132 8.68317e-19)
(1.65083 -0.444769 1.04557e-18)
(1.67077 -0.552491 -2.73949e-18)
(1.67259 -0.683283 -3.17761e-18)
(1.61746 -0.78515 1.00403e-18)
(1.06019 -0.670209 6.46998e-19)
(1.35315 -0.515277 2.40529e-19)
(1.30377 -0.617574 2.9406e-19)
(1.29034 -0.749629 -4.88497e-19)
(1.23673 -0.849095 -5.9426e-19)
(0.793108 -0.692772 -5.7567e-21)
(1.05969 0.053999 6.99961e-21)
(0.935943 0.0435754 3.8492e-22)
(1.13932 0.0684965 6.14873e-21)
(0.829762 -0.0138348 -2.58241e-19)
(1.20932 -0.251758 -1.97618e-20)
(1.06939 0.0573296 -2.36147e-21)
(0.930497 0.0378223 2.95866e-20)
(1.1336 0.0862105 -2.07042e-21)
(0.905243 0.0257356 2.05345e-19)
(1.06264 -0.135931 1.62515e-21)
(1.06704 0.0548216 -5.63829e-20)
(0.933107 0.0295242 1.46039e-22)
(1.1172 0.0883513 -5.42922e-21)
(0.89673 0.0442127 9.50318e-20)
(1.01559 -0.0790708 -2.66895e-19)
(1.04855 0.0538885 6.71857e-20)
(0.957916 0.0220874 2.6948e-21)
(1.07774 0.093813 1.99036e-20)
(0.936651 0.070391 -2.96792e-20)
(0.891885 0.0327206 6.42373e-20)
(1.02389 0.0517859 1.65443e-20)
(0.983443 0.017035 -2.49631e-20)
(1.04783 0.0999991 3.02112e-20)
(0.954588 0.0965652 5.46617e-20)
(0.852968 0.125525 -1.38673e-20)
(0.886555 0.0334965 0)
(0.717349 0.0270476 8.25811e-21)
(0.632449 0.0210397 6.34077e-21)
(0.379898 -0.0110556 5.54513e-20)
(0.762096 -0.0643427 -1.7746e-19)
(1.02855 0.0736063 -6.2299e-20)
(0.946403 0.0637112 -1.41348e-21)
(1.0531 0.0712595 -6.30617e-20)
(0.84026 -0.0120013 -1.5159e-19)
(1.12472 -0.229193 -1.84259e-19)
(1.07351 -0.067863 -4.06358e-20)
(1.16505 -0.0376517 6.10003e-19)
(1.27907 0.0380445 3.68352e-19)
(1.14044 0.0650693 2.82399e-20)
(0.89161 0.0356345 0)
(1.43445 -0.339806 4.0483e-19)
(1.56442 -0.298946 1.7721e-18)
(1.76831 -0.173536 -1.95336e-18)
(1.8664 -0.0209996 -6.25776e-19)
(1.81939 0.0398572 4.61445e-19)
)
;

boundaryField
{
    left
    {
        type            fixedValue;
        value           uniform (1 0 0);
    }
    right
    {
        type            zeroGradient;
    }
    down
    {
        type            noSlip;
    }
    up
    {
        type            noSlip;
    }
    cylinder
    {
        type            noSlip;
    }
    defaultFaces
    {
        type            empty;
    }
}


// ************************************************************************* //
