/*--------------------------------*- C++ -*----------------------------------*\
  =========                 |
  \\      /  F ield         | OpenFOAM: The Open Source CFD Toolbox
   \\    /   O peration     | Website:  https://openfoam.org
    \\  /    A nd           | Version:  13
     \\/     M anipulation  |
\*---------------------------------------------------------------------------*/
FoamFile
{
    format      ascii;
    class       volVectorField;
    location    "3.165";
    object      U;
}
// * * * * * * * * * * * * * * * * * * * * * * * * * * * * * * * * * * * * * //

dimensions      [0 1 -1 0 0 0 0];

internalField   nonuniform List<vector> 
1800
(
(0.0208742 -0.0269233 1.42414e-19)
(0.505834 -0.431766 6.58125e-20)
(1.01647 -0.833461 -4.04295e-19)
(1.31822 -1.0381 5.07176e-19)
(1.44461 -1.08751 1.30325e-18)
(1.48257 -1.06064 5.67062e-19)
(1.48546 -1.00732 -2.94496e-19)
(1.47581 -0.949412 -7.39545e-19)
(1.46453 -0.888206 -3.93929e-19)
(1.4318 -0.837094 -3.24352e-19)
(0.0454994 -0.0430858 6.09207e-20)
(0.607966 -0.439137 -3.22281e-19)
(1.17489 -0.819307 4.57084e-21)
(1.49817 -1.00667 -4.49143e-19)
(1.62511 -1.04733 1.19025e-19)
(1.65626 -1.01715 1.30175e-18)
(1.65155 -0.962814 -9.38404e-19)
(1.63621 -0.903815 4.79436e-19)
(1.62044 -0.843201 7.92344e-19)
(1.59817 -0.799061 -4.09077e-19)
(0.0774505 -0.0587086 5.32748e-21)
(0.717441 -0.435904 9.67237e-20)
(1.33429 -0.785602 3.10434e-19)
(1.67291 -0.951977 -2.88464e-19)
(1.79634 -0.984397 -1.5362e-18)
(1.81801 -0.953822 3.48641e-19)
(1.80325 -0.902928 6.17914e-19)
(1.77857 -0.849314 -7.59603e-20)
(1.7538 -0.796014 -5.23447e-21)
(1.72211 -0.754261 -3.40173e-20)
(0.116682 -0.0718812 -9.39856e-21)
(0.832298 -0.419298 -1.1111e-19)
(1.49137 -0.729963 -2.59905e-19)
(1.8394 -0.871616 6.89957e-20)
(1.95689 -0.895091 3.98884e-19)
(1.96893 -0.86413 3.63595e-20)
(1.94504 -0.816223 -2.50217e-20)
(1.91242 -0.76633 5.66754e-19)
(1.8804 -0.716736 4.72255e-19)
(1.84512 -0.679772 -1.58896e-19)
(0.162885 -0.0812207 1.07756e-19)
(0.949981 -0.388775 1.72678e-19)
(1.64182 -0.6541 -7.98208e-20)
(1.99248 -0.769497 -9.3974e-20)
(2.10109 -0.785345 -1.1994e-18)
(2.10303 -0.756315 1.0754e-20)
(2.07055 -0.714039 9.61856e-19)
(2.03093 -0.670723 3.29506e-19)
(1.99271 -0.628345 2.16734e-20)
(1.95334 -0.595989 -2.09648e-19)
(0.214852 -0.0848468 -7.72328e-20)
(1.06682 -0.342718 2.44696e-19)
(1.781 -0.557827 1.01712e-18)
(2.12764 -0.646292 -7.92841e-19)
(2.22515 -0.65567 -8.69756e-19)
(2.21707 -0.629789 1.47282e-18)
(2.17686 -0.594033 -1.06338e-18)
(2.13108 -0.557866 -1.18156e-18)
(2.08749 -0.522718 8.5526e-19)
(2.04469 -0.496169 -3.03368e-20)
(0.271071 -0.0814026 8.09182e-20)
(1.17913 -0.281094 -5.7665e-19)
(1.90471 -0.443325 -2.69877e-18)
(2.24115 -0.505796 1.31679e-18)
(2.32604 -0.510733 2.19544e-18)
(2.30859 -0.489703 -6.42731e-21)
(2.262 -0.461829 -2.87208e-18)
(2.2115 -0.433925 9.55046e-22)
(2.1639 -0.406955 2.59085e-18)
(2.11853 -0.386627 6.82939e-19)
(0.329305 -0.0697193 -1.03516e-21)
(1.28258 -0.2042 4.49905e-19)
(2.00859 -0.312814 2.0859e-18)
(2.32955 -0.3513 -6.94222e-20)
(2.40104 -0.353988 -1.41233e-18)
(2.37524 -0.339161 -4.43163e-19)
(2.32364 -0.320085 0)
(2.26971 -0.301126 1.00757e-18)
(2.21931 -0.282855 6.41987e-21)
(2.17221 -0.269422 -8.25837e-19)
(0.386914 -0.0492213 3.12383e-21)
(1.37303 -0.113445 9.62159e-19)
(2.08905 -0.169614 1.87323e-18)
(2.39055 -0.187032 -1.93567e-18)
(2.44873 -0.189741 -1.44153e-18)
(2.41597 -0.182229 4.50487e-19)
(2.36092 -0.17262 -1.899e-18)
(2.30497 -0.163029 -1.30321e-18)
(2.25302 -0.153714 1.54384e-18)
(2.20513 -0.147422 1.31765e-18)
(0.440954 -0.0199945 1.11491e-19)
(1.44662 -0.0109989 6.5816e-19)
(2.14311 -0.0173956 3.51428e-19)
(2.42287 -0.0173301 -2.81045e-18)
(2.4683 -0.0221033 3.37808e-20)
(2.43025 -0.0227199 4.28961e-18)
(2.37334 -0.0228988 -2.28396e-18)
(2.31671 -0.0228531 -1.27461e-18)
(2.26448 -0.0225306 4.21131e-19)
(2.2168 -0.0234227 -9.57594e-19)
(-0.00402658 0.000793597 9.89393e-20)
(-0.0020982 -0.0821091 5.04378e-20)
(0.0410073 -0.172036 -1.5822e-21)
(0.101734 -0.22464 -8.89119e-21)
(0.168978 -0.243983 -2.056e-21)
(0.23496 -0.245355 -4.73869e-20)
(0.296308 -0.239332 1.41991e-20)
(0.352406 -0.231023 -2.06789e-20)
(0.403008 -0.22248 3.25882e-21)
(0.450788 -0.215684 -8.52852e-21)
(-0.00534353 0.0100654 2.70376e-20)
(0.0101131 -0.123173 7.34286e-20)
(0.0684943 -0.274572 -1.00511e-19)
(0.138051 -0.363407 -4.45926e-20)
(0.208221 -0.394704 -7.9264e-20)
(0.274022 -0.394717 -8.59035e-20)
(0.333902 -0.381929 3.56806e-20)
(0.38817 -0.365293 -1.4797e-20)
(0.436769 -0.348488 -6.19121e-21)
(0.483533 -0.33599 -6.29329e-21)
(-0.00795514 0.0178007 -4.55824e-20)
(0.0294419 -0.164217 1.71268e-19)
(0.113075 -0.373884 7.01491e-20)
(0.197332 -0.496529 2.62818e-19)
(0.272404 -0.538606 4.94391e-20)
(0.337944 -0.536908 -2.9125e-19)
(0.395438 -0.517432 -3.15055e-20)
(0.446714 -0.49272 1.00502e-19)
(0.492042 -0.468042 -4.64499e-20)
(0.537246 -0.45005 -9.95926e-21)
(-0.0112964 0.0233881 -1.19461e-19)
(0.0564545 -0.204956 -2.82396e-20)
(0.174637 -0.468192 3.3322e-20)
(0.278925 -0.621151 -1.40605e-19)
(0.360567 -0.67235 8.05386e-20)
(0.425614 -0.668484 1.94533e-19)
(0.479767 -0.64246 5.5202e-20)
(0.526911 -0.610054 -1.2973e-20)
(0.567784 -0.578064 2.28471e-20)
(0.610896 -0.554825 -2.80171e-21)
(-0.0145977 0.0262918 0)
(0.0918701 -0.245082 9.15578e-20)
(0.252922 -0.555764 2.3342e-19)
(0.381811 -0.734491 -2.64016e-19)
(0.47127 -0.79272 -5.77927e-19)
(0.53543 -0.786164 1.98517e-19)
(0.585283 -0.75383 -2.76808e-20)
(0.62722 -0.714258 -1.05547e-19)
(0.662604 -0.675677 0)
(0.703126 -0.64746 -9.36817e-21)
(-0.0170571 0.0261742 4.5606e-20)
(0.136422 -0.284333 1.08131e-19)
(0.347499 -0.634899 2.95116e-20)
(0.504535 -0.833895 2.51419e-19)
(0.602522 -0.896709 -1.98357e-19)
(0.665222 -0.886945 -2.9674e-19)
(0.709851 -0.848683 5.25683e-19)
(0.745644 -0.802653 5.71003e-20)
(0.774733 -0.758337 -3.11293e-19)
(0.812169 -0.725333 -7.35168e-21)
(-0.0179355 0.0222704 4.99071e-21)
(0.190356 -0.322253 5.03965e-20)
(0.457735 -0.703648 1.43222e-19)
(0.645151 -0.916775 2.78928e-20)
(0.751694 -0.981595 3.26491e-19)
(0.812151 -0.968237 -4.10989e-19)
(0.850693 -0.924657 -4.18999e-19)
(0.879566 -0.873119 -3.54202e-19)
(0.901889 -0.824014 2.59351e-19)
(0.935501 -0.786127 2.82117e-19)
(-0.015528 0.0142714 -1.31003e-19)
(0.254597 -0.357724 3.68405e-20)
(0.582279 -0.760132 3.10167e-19)
(0.800945 -0.980913 -1.80496e-19)
(0.915427 -1.04529 3.38786e-19)
(0.9727 -1.02833 8.12681e-19)
(1.00439 -0.980516 5.6701e-19)
(1.02571 -0.924996 -4.43796e-19)
(1.04114 -0.872298 -2.11266e-19)
(1.06892 -0.829134 3.05337e-19)
(-0.00868453 0.00267966 -2.20289e-19)
(0.329128 -0.389301 -3.76942e-19)
(0.718816 -0.802321 6.29124e-19)
(0.967933 -1.02424 7.3162e-19)
(1.08893 -1.08599 -7.54684e-19)
(1.14181 -1.06591 8.49555e-19)
(1.1658 -1.0156 1.38371e-19)
(1.1788 -0.958576 -1.03432e-18)
(1.18717 -0.904009 -2.53474e-19)
(1.20389 -0.855671 3.44043e-19)
(0.00320342 -0.0114343 6.04662e-20)
(0.412944 -0.414778 -3.8173e-19)
(0.864035 -0.82763 -4.35755e-19)
(1.141 -1.04413 7.54796e-19)
(1.26588 -1.10095 6.13508e-19)
(1.31215 -1.07781 -7.66599e-19)
(1.32642 -1.02619 -6.37737e-19)
(1.32899 -0.969328 3.79886e-19)
(1.32856 -0.913165 -3.94414e-19)
(1.32525 -0.861218 -2.40848e-19)
(0.627611 -0.17558 4.26103e-20)
(0.803964 -0.133085 -5.6359e-20)
(0.890172 -0.104375 5.99321e-21)
(0.94052 -0.0817984 1.13306e-20)
(0.969793 -0.0634754 -5.75457e-21)
(0.987268 -0.0484645 -3.0008e-21)
(0.998111 -0.0361381 -4.76911e-21)
(1.00497 -0.0258705 -3.1128e-21)
(1.00911 -0.0177349 8.00578e-21)
(1.01186 -0.00734527 2.93503e-21)
(0.645295 -0.250305 1.16165e-19)
(0.816163 -0.171988 1.13238e-20)
(0.898548 -0.125341 4.01426e-21)
(0.946898 -0.0936071 -5.78284e-21)
(0.974859 -0.0704098 -1.49218e-20)
(0.991349 -0.0526283 0)
(1.00142 -0.0386862 -4.9645e-21)
(1.0077 -0.0274324 3.86362e-21)
(1.01144 -0.01869 4.72983e-22)
(1.01386 -0.00771974 -3.62876e-21)
(0.673522 -0.322326 -7.8303e-20)
(0.833789 -0.210253 -3.35086e-20)
(0.909686 -0.14612 1.45588e-20)
(0.954671 -0.105311 -8.56771e-21)
(0.980689 -0.0772432 -3.76994e-21)
(0.995879 -0.0566933 6.06534e-21)
(1.00501 -0.0411399 0)
(1.0106 -0.0289123 0)
(1.01389 -0.0195785 -2.2563e-21)
(1.01594 -0.00806414 0)
(0.712294 -0.39016 -3.69473e-20)
(0.856526 -0.247358 6.93082e-20)
(0.923571 -0.166496 7.67829e-21)
(0.963841 -0.116798 0)
(0.987285 -0.0839068 2.02649e-20)
(1.00085 -0.0606175 -3.34628e-21)
(1.00887 -0.0434726 0)
(1.01367 -0.0302933 4.48071e-21)
(1.01646 -0.0203896 0)
(1.01811 -0.00837353 6.73228e-22)
(0.761605 -0.452352 -3.91647e-20)
(0.883997 -0.282785 9.4687e-20)
(0.940159 -0.186261 -4.13578e-21)
(0.974411 -0.127957 0)
(0.994637 -0.090335 4.2533e-21)
(1.00626 -0.0643598 6.56846e-21)
(1.01298 -0.0456569 5.90931e-21)
(1.01687 -0.0315572 1.07882e-21)
(1.01911 -0.0211129 -2.27278e-21)
(1.02034 -0.00864418 2.67118e-21)
(0.821196 -0.507476 -7.3593e-19)
(0.915749 -0.316161 -1.81818e-19)
(0.959355 -0.20527 1.6054e-21)
(0.986374 -0.138696 2.92637e-20)
(1.00274 -0.0964679 -6.63864e-21)
(1.01208 -0.0678801 4.81137e-21)
(1.01732 -0.0476675 5.14364e-21)
(1.02024 -0.0326869 -9.604e-21)
(1.02185 -0.0217363 -2.07388e-22)
(1.02262 -0.00887141 1.39828e-23)
(0.88994 -0.55378 -6.54793e-21)
(0.950814 -0.346719 7.1692e-20)
(0.980893 -0.223398 2.78189e-21)
(0.999692 -0.148962 -8.48415e-22)
(1.01156 -0.102269 -2.29137e-20)
(1.01831 -0.0711474 5.31582e-21)
(1.02188 -0.0494821 -3.53653e-21)
(1.02371 -0.0336667 -4.24806e-21)
(1.02464 -0.0222487 1.16727e-21)
(1.02495 -0.00905058 -1.84799e-21)
(0.966305 -0.589504 2.876e-19)
(0.986976 -0.373113 8.82313e-20)
(1.00357 -0.239955 0)
(1.01398 -0.158446 -5.01921e-22)
(1.02097 -0.107603 1.86025e-20)
(1.02487 -0.0741 1.15742e-21)
(1.02664 -0.0510692 -1.56031e-20)
(1.02728 -0.0344795 4.43914e-21)
(1.02749 -0.0226415 -4.45611e-23)
(1.02729 -0.00917823 -3.6299e-22)
(1.05405 -0.617698 -4.23764e-19)
(1.02448 -0.397718 -2.39408e-19)
(1.02586 -0.255892 5.39698e-20)
(1.02821 -0.167379 -2.65005e-22)
(1.03043 -0.112443 -2.29937e-21)
(1.03151 -0.0766659 -1.48358e-20)
(1.03146 -0.0523736 4.02531e-21)
(1.0309 -0.0350916 5.24749e-22)
(1.03034 -0.0228974 -3.18549e-21)
(1.02966 -0.00925302 -2.66084e-21)
(1.15829 -0.643991 2.97287e-19)
(1.07388 -0.42194 -2.36723e-19)
(1.05144 -0.274636 -4.08697e-20)
(1.04307 -0.178804 -4.28689e-20)
(1.03988 -0.118683 -2.33654e-20)
(1.03807 -0.0798617 -1.15302e-20)
(1.03623 -0.0538948 -5.6394e-21)
(1.0345 -0.0357252 0)
(1.03318 -0.0231073 -5.09119e-22)
(1.03199 -0.00928462 2.17501e-21)
(1.31373 -0.630561 4.69658e-19)
(1.17662 -0.421698 1.56958e-19)
(1.1104 -0.276362 -1.23526e-19)
(1.07681 -0.180643 7.79066e-21)
(1.05953 -0.119763 9.2406e-21)
(1.05008 -0.0802435 -5.32649e-21)
(1.04401 -0.053838 2.019e-22)
(1.03978 -0.0354715 4.6342e-21)
(1.03704 -0.0228136 -3.19402e-21)
(1.03504 -0.00914606 1.72515e-23)
(1.36455 -0.515751 -7.34623e-21)
(1.20813 -0.359004 1.48466e-19)
(1.13796 -0.244854 1.2521e-19)
(1.09901 -0.165192 -1.50993e-20)
(1.07559 -0.111516 5.7883e-20)
(1.0613 -0.0754129 3.71057e-20)
(1.05187 -0.0508049 2.52411e-20)
(1.04541 -0.0335304 -2.49284e-21)
(1.04131 -0.021585 8.82535e-21)
(1.03844 -0.00864391 3.86063e-21)
(1.42233 -0.443995 -1.44381e-19)
(1.25867 -0.322163 -1.18516e-20)
(1.1739 -0.22435 6.42373e-21)
(1.12361 -0.153102 5.96836e-37)
(1.09212 -0.103847 6.90198e-22)
(1.07246 -0.0703423 -1.03098e-34)
(1.05956 -0.0473799 -2.89376e-21)
(1.05086 -0.0312345 -2.11436e-34)
(1.04539 -0.020085 8.39385e-22)
(1.04165 -0.00803724 -2.48946e-21)
(1.45861 -0.363625 -2.19108e-34)
(1.29403 -0.273211 -4.07049e-20)
(1.20227 -0.195487 -4.36783e-20)
(1.14452 -0.135977 0)
(1.10678 -0.0931678 -2.50935e-20)
(1.08257 -0.063413 -1.69414e-20)
(1.06658 -0.0427933 -9.83468e-21)
(1.05585 -0.0282185 -2.56289e-34)
(1.04914 -0.0181471 -3.03244e-21)
(1.04457 -0.00726207 2.35449e-21)
(1.4812 -0.292711 -8.87317e-20)
(1.32104 -0.226541 4.76741e-21)
(1.22532 -0.165457 0)
(1.16214 -0.116806 0)
(1.11945 -0.0807174 0)
(1.09144 -0.0551821 0)
(1.07279 -0.0373131 -5.54308e-22)
(1.06028 -0.0246203 -2.85966e-34)
(1.05247 -0.0158405 7.35307e-22)
(1.04716 -0.00634104 2.80883e-34)
(1.49515 -0.227278 -3.39962e-20)
(1.34102 -0.180305 0)
(1.24337 -0.13407 0)
(1.17643 -0.0958967 0)
(1.12999 -0.0667902 0)
(1.09893 -0.0458528 0)
(1.07807 -0.0310676 9.1415e-22)
(1.06406 -0.0205171 5.99205e-21)
(1.0553 -0.0132092 6.88274e-22)
(1.04934 -0.00529 3.20061e-21)
(1.50322 -0.166991 0)
(1.35519 -0.135228 -1.17985e-20)
(1.25688 -0.102061 -1.67246e-20)
(1.18744 -0.0738193 0)
(1.13829 -0.0517666 -1.15103e-20)
(1.10488 -0.0356733 -8.14904e-21)
(1.0823 -0.0242178 -4.69659e-21)
(1.06709 -0.0160088 -3.49429e-21)
(1.05758 -0.0103149 4.6195e-21)
(1.05108 -0.00413401 1.30167e-21)
(1.50644 -0.111079 9.20662e-21)
(1.36337 -0.0906522 7.03948e-21)
(1.26521 -0.0690278 -4.19473e-21)
(1.19445 -0.050348 2.50305e-36)
(1.14358 -0.0354881 7.83924e-22)
(1.1086 -0.0245287 -6.22597e-35)
(1.08484 -0.0166798 6.65596e-22)
(1.06879 -0.0110362 2.99856e-21)
(1.05874 -0.00710972 5.64169e-22)
(1.05185 -0.00284505 -1.88661e-21)
(1.48535 -0.0541152 -4.52821e-20)
(1.34503 -0.0489656 9.93198e-21)
(1.24929 -0.0385918 1.13364e-20)
(1.1799 -0.0285971 0)
(1.12964 -0.0202919 7.17687e-21)
(1.09481 -0.0140735 5.08383e-21)
(1.07106 -0.00959015 4.00645e-21)
(1.05501 -0.0063554 2.22053e-21)
(1.04494 -0.0040951 -2.06693e-21)
(1.03805 -0.00163627 2.28407e-21)
(1.09816 -0.00191511 0)
(1.01184 -0.00625389 0)
(0.946817 -0.0059221 0)
(0.897129 -0.00461403 0)
(0.860357 -0.00331979 0)
(0.8347 -0.00232488 0)
(0.817112 -0.00159614 5.12141e-22)
(0.805166 -0.00106917 -3.495e-36)
(0.797655 -0.000676721 5.60625e-22)
(0.792563 -0.000259517 1.73833e-21)
(2.13221 -0.0226744 8.89531e-19)
(2.12302 -0.129031 6.15415e-20)
(2.09605 -0.2335 -1.3192e-19)
(2.05143 -0.333603 -3.52469e-19)
(1.99097 -0.427706 -1.21927e-19)
(1.91357 -0.514568 -1.82275e-19)
(1.82986 -0.585388 -4.37229e-19)
(1.71607 -0.663131 1.39582e-19)
(1.63812 -0.682073 0)
(1.47136 -0.765721 4.49766e-20)
(2.04647 -0.0159825 2.22704e-19)
(2.03909 -0.0956625 -3.44212e-19)
(2.01836 -0.174533 -4.79581e-21)
(1.98295 -0.251228 -1.39673e-19)
(1.93871 -0.323603 2.2656e-20)
(1.87501 -0.396038 1.2817e-19)
(1.81898 -0.445782 1.55702e-20)
(1.72239 -0.528825 9.65581e-20)
(1.67073 -0.52802 -1.18201e-19)
(1.55482 -0.619737 2.59531e-20)
(1.97208 -0.0121501 -1.16446e-19)
(1.96643 -0.0756735 2.13119e-19)
(1.95039 -0.13824 1.9263e-19)
(1.92178 -0.199341 -2.30317e-19)
(1.8877 -0.255943 1.01968e-19)
(1.83543 -0.315895 1.27283e-19)
(1.79265 -0.351952 -6.44174e-20)
(1.71685 -0.426812 7.62982e-20)
(1.67025 -0.422534 7.82992e-20)
(1.5863 -0.504761 1.01559e-19)
(1.91545 -0.0116704 -1.96505e-19)
(1.91083 -0.0601654 4.77089e-20)
(1.89747 -0.108042 -1.08286e-19)
(1.87362 -0.155486 -6.62241e-20)
(1.8452 -0.19921 2.60277e-20)
(1.80241 -0.247426 -1.05974e-19)
(1.76559 -0.275247 8.45645e-20)
(1.70681 -0.336964 2.90855e-20)
(1.66358 -0.334365 -1.42777e-20)
(1.6007 -0.401925 9.40609e-21)
(1.87108 -0.0100456 5.49088e-20)
(1.86727 -0.0470339 4.90354e-20)
(1.8558 -0.0834664 -6.32251e-20)
(1.83562 -0.11973 2.30708e-19)
(1.81071 -0.153067 1.42201e-20)
(1.7753 -0.190311 -1.38948e-19)
(1.7419 -0.21216 2.10896e-20)
(1.69499 -0.259752 -8.84001e-20)
(1.65517 -0.259697 1.15551e-19)
(1.60517 -0.311996 8.41918e-20)
(1.83755 -0.00985629 -1.04911e-19)
(1.83441 -0.036917 -5.84795e-20)
(1.82422 -0.0635671 3.54822e-20)
(1.80663 -0.090213 8.08436e-20)
(1.78396 -0.114866 4.19566e-20)
(1.75363 -0.142482 -4.10185e-20)
(1.72244 -0.159492 3.2363e-21)
(1.68309 -0.19463 5.42015e-20)
(1.64617 -0.196506 1.03134e-19)
(1.60388 -0.235491 -5.50788e-20)
(1.81311 -0.0101512 -4.33163e-20)
(1.81054 -0.0286347 -7.99918e-20)
(1.80134 -0.0468213 -5.1707e-20)
(1.78559 -0.0651022 -1.0324e-19)
(1.76445 -0.0821931 -2.07249e-20)
(1.73745 -0.10143 -4.85498e-21)
(1.70775 -0.113863 4.75377e-20)
(1.67298 -0.13854 -1.63313e-20)
(1.63832 -0.141103 -3.32959e-20)
(1.6003 -0.169021 1.04238e-20)
(1.79227 -0.00969521 3.5423e-20)
(1.79091 -0.0206393 3.40282e-20)
(1.78312 -0.0312991 1.25553e-20)
(1.76934 -0.0420747 -2.20739e-20)
(1.74997 -0.0523529 -1.79292e-20)
(1.72569 -0.0642881 3.54991e-20)
(1.69739 -0.0723202 -1.83794e-21)
(1.66545 -0.0886358 -4.74001e-20)
(1.63244 -0.0907286 1.09139e-20)
(1.59647 -0.110837 5.10362e-20)
(1.71482 -0.0148218 -2.70487e-20)
(1.7151 -0.017041 3.89675e-21)
(1.71175 -0.0188767 4.12166e-20)
(1.70436 -0.0207038 3.17776e-21)
(1.69244 -0.0222855 -2.59456e-21)
(1.67691 -0.0253746 -6.46948e-21)
(1.65653 -0.0261987 1.91726e-20)
(1.63395 -0.0337918 -2.91935e-20)
(1.60596 -0.0323845 3.70855e-20)
(1.58002 -0.0444153 1.20954e-19)
(1.11099 -0.00920156 3.00708e-20)
(1.10241 -0.00606638 1.93556e-20)
(1.09696 -0.00295326 1.53306e-20)
(1.09522 0.00010047 1.65139e-20)
(1.09616 0.00302332 -2.52633e-21)
(1.10076 0.00548242 6.38838e-21)
(1.10446 0.00814643 -9.12065e-21)
(1.11466 0.0080917 2.13865e-21)
(1.1129 0.0118649 -3.49391e-21)
(1.13032 0.00748 3.91757e-21)
(1.38403 0.743406 -5.65926e-20)
(1.36875 0.790009 2.50012e-20)
(1.37226 0.848315 -4.4421e-19)
(1.38169 0.913804 2.16687e-19)
(1.39173 0.982559 8.68077e-19)
(1.39776 1.05136 -1.37132e-19)
(1.38083 1.10522 -8.4812e-19)
(1.27903 1.08573 -4.60677e-20)
(0.980143 0.873407 -4.0771e-19)
(0.420865 0.381253 1.58084e-19)
(1.56059 0.724141 0)
(1.5506 0.771264 5.37245e-19)
(1.54812 0.824158 1.21027e-18)
(1.55315 0.885327 -7.36415e-19)
(1.56342 0.951993 -1.7844e-18)
(1.57263 1.02009 -1.39936e-19)
(1.55726 1.07361 -1.78666e-19)
(1.44484 1.05378 6.42129e-19)
(1.10557 0.844252 8.23639e-19)
(0.470944 0.3636 3.76187e-19)
(1.69856 0.707505 6.15298e-20)
(1.70233 0.7519 0)
(1.70628 0.799207 -6.46188e-20)
(1.71538 0.854054 7.65034e-19)
(1.72991 0.91518 5.23179e-20)
(1.74353 0.978656 -1.8798e-18)
(1.72946 1.02813 1.19036e-18)
(1.60528 1.0056 7.49556e-19)
(1.22449 0.800993 -7.53103e-19)
(0.516072 0.338619 -2.81402e-19)
(1.80708 0.67463 -1.3614e-19)
(1.82349 0.714248 -1.0318e-19)
(1.83886 0.756651 2.28958e-19)
(1.85782 0.805826 -2.86215e-19)
(1.8809 0.861115 -1.36988e-18)
(1.90158 0.918835 -1.06523e-18)
(1.88968 0.962722 1.16404e-18)
(1.75296 0.936297 7.5006e-19)
(1.32951 0.739775 0)
(0.550966 0.304348 0)
(1.90069 0.616999 -8.03387e-19)
(1.92688 0.652338 -1.42493e-18)
(1.9532 0.690873 -5.58558e-19)
(1.98282 0.735171 -3.33913e-20)
(2.01559 0.784715 0)
(2.04406 0.836146 1.4118e-19)
(2.03393 0.873766 1.68716e-19)
(1.88297 0.843267 2.1617e-19)
(1.41577 0.658889 -3.27306e-19)
(0.572978 0.26129 -8.20122e-20)
(1.98663 0.537449 9.80235e-19)
(2.01981 0.568923 -4.18311e-20)
(2.05475 0.603599 -1.15289e-18)
(2.09336 0.64288 0)
(2.13469 0.686279 0)
(2.16986 0.730842 0)
(2.15974 0.762003 1.49028e-18)
(1.9924 0.728541 -1.77415e-18)
(1.48009 0.560793 -1.0857e-18)
(0.580803 0.211893 -6.22488e-20)
(2.06393 0.44203 -1.31475e-18)
(2.1021 0.469092 -2.74937e-18)
(2.14345 0.498888 -4.81476e-21)
(2.18893 0.532176 5.67043e-19)
(2.23694 0.568466 -4.10293e-20)
(2.27683 0.605293 1.29774e-18)
(2.26502 0.629215 -7.64674e-19)
(2.07729 0.59664 -2.2232e-18)
(1.52119 0.452538 1.7495e-19)
(0.574588 0.160219 1.27751e-19)
(2.12854 0.33539 -1.06312e-18)
(2.17051 0.356971 1.61321e-20)
(2.21659 0.380614 4.14481e-19)
(2.26714 0.406833 -4.08188e-19)
(2.31992 0.435134 6.46756e-19)
(2.36274 0.462515 1.87028e-18)
(2.34537 0.48137 -2.26086e-19)
(2.13618 0.450751 -1.24181e-18)
(1.5377 0.336227 2.93316e-19)
(0.556929 0.110282 4.85167e-20)
(2.17684 0.220536 4.09537e-19)
(2.22171 0.235742 8.11015e-20)
(2.27117 0.252091 -4.4089e-19)
(2.3252 0.270221 -1.05398e-18)
(2.38108 0.289497 9.27596e-20)
(2.42428 0.308814 9.51098e-20)
(2.39949 0.320661 -1.68529e-18)
(2.16716 0.29743 7.04966e-19)
(1.52971 0.218466 2.08594e-19)
(0.528152 0.0608525 -1.6777e-19)
(2.20681 0.100012 8.0985e-19)
(2.25353 0.107906 -1.24088e-18)
(2.30498 0.11635 1.88518e-19)
(2.36099 0.125736 2.63438e-18)
(2.41823 0.135604 1.37932e-18)
(2.45977 0.14523 -3.20623e-18)
(2.42596 0.153232 -3.32757e-18)
(2.16907 0.139821 1.62754e-18)
(1.49981 0.10076 6.10338e-21)
(0.488737 0.017065 5.09326e-20)
(0.511506 0.206863 -1.60915e-19)
(0.474051 0.214073 -1.47279e-19)
(0.430456 0.221988 7.99998e-20)
(0.382401 0.230468 -2.58246e-19)
(0.329424 0.239528 -3.12879e-20)
(0.2709 0.24899 2.16078e-19)
(0.20599 0.256729 5.07311e-20)
(0.134431 0.25286 -2.11881e-20)
(0.0631468 0.212671 4.52741e-21)
(0.0103403 0.105232 1.3967e-20)
(0.539381 0.306728 1.30057e-19)
(0.50281 0.32081 1.81008e-19)
(0.460631 0.336579 3.46007e-20)
(0.414144 0.353461 -6.87205e-20)
(0.362851 0.371386 -2.44883e-19)
(0.306143 0.390068 4.33323e-21)
(0.242801 0.405812 1.14515e-19)
(0.170857 0.401538 1.54225e-20)
(0.0937661 0.336029 -6.88612e-20)
(0.0255227 0.163179 -2.30482e-20)
(0.584468 0.402564 -1.31752e-19)
(0.549463 0.423248 -1.35333e-19)
(0.50973 0.446451 1.20917e-19)
(0.465914 0.471295 1.02751e-19)
(0.417449 0.497642 -6.17799e-20)
(0.363751 0.525074 -7.35339e-20)
(0.302955 0.548334 -8.46089e-20)
(0.230185 0.543389 -1.72261e-20)
(0.143193 0.453158 -4.16747e-20)
(0.0495782 0.217667 3.34964e-21)
(0.645659 0.492303 6.34463e-20)
(0.612866 0.519195 -2.15406e-20)
(0.576546 0.549204 -1.01807e-19)
(0.53645 0.581368 2.68168e-20)
(0.491909 0.615499 -7.55509e-20)
(0.442366 0.651011 1.86126e-20)
(0.385049 0.681103 -1.66521e-19)
(0.310993 0.675163 -8.38149e-21)
(0.210122 0.561284 -2.26366e-19)
(0.0816808 0.267114 4.67541e-20)
(0.721372 0.574038 -1.4757e-20)
(0.691408 0.606657 -1.89107e-21)
(0.65945 0.642703 -4.22664e-20)
(0.624129 0.681377 -1.79527e-19)
(0.584616 0.722476 8.04879e-20)
(0.540335 0.76521 -3.82202e-20)
(0.487333 0.801262 1.07531e-19)
(0.411621 0.79387 -5.46163e-20)
(0.292765 0.657844 2.84941e-19)
(0.120682 0.31024 2.12617e-19)
(0.809674 0.645961 -2.96829e-20)
(0.782976 0.683431 -9.51644e-20)
(0.756078 0.724323 1.09956e-19)
(0.726362 0.768406 8.6828e-20)
(0.69283 0.81548 2.33579e-19)
(0.654845 0.864453 1.42971e-19)
(0.606934 0.905489 4.38375e-19)
(0.529138 0.896143 1.94529e-19)
(0.388668 0.739669 1.66668e-19)
(0.165315 0.345372 1.90555e-19)
(0.908155 0.706224 -9.3536e-20)
(0.88599 0.747988 3.55418e-19)
(0.865682 0.792797 2.18575e-19)
(0.842954 0.841147 -2.53773e-19)
(0.816502 0.892954 -1.33488e-19)
(0.785633 0.946892 4.89414e-19)
(0.743142 0.991757 -9.41916e-20)
(0.6623 0.980057 -3.03806e-19)
(0.496322 0.805346 -6.28484e-20)
(0.214479 0.371848 1.97454e-19)
(1.00852 0.754521 1.92055e-19)
(0.989685 0.798231 5.24472e-20)
(0.976145 0.844918 -5.70569e-19)
(0.961748 0.89633 7.73873e-20)
(0.944506 0.951953 3.7726e-19)
(0.923097 1.0098 -2.54015e-19)
(0.887877 1.05722 -6.18597e-20)
(0.804277 1.04238 -1.32309e-19)
(0.610276 0.851748 1.25686e-20)
(0.265341 0.388047 -2.87424e-19)
(1.12842 0.777101 2.08417e-20)
(1.11883 0.824041 -3.96248e-19)
(1.11354 0.871759 -3.13945e-21)
(1.10568 0.925022 3.25914e-19)
(1.09467 0.983929 -3.29059e-19)
(1.07979 1.04574 6.75991e-19)
(1.04914 1.09627 4.74787e-19)
(0.959644 1.08008 -7.23913e-19)
(0.732714 0.878579 -3.38454e-20)
(0.318307 0.395005 -2.85443e-19)
(1.19751 0.790672 -2.28204e-19)
(1.20201 0.840232 -2.23116e-19)
(1.21729 0.891382 2.37366e-19)
(1.22852 0.947181 5.43578e-19)
(1.23369 1.00705 2.1511e-19)
(1.23224 1.06895 -5.67534e-19)
(1.21028 1.11846 4.23336e-20)
(1.11626 1.09805 1.56759e-19)
(0.855286 0.887197 -1.96324e-19)
(0.370073 0.392814 -2.02268e-19)
(0.821236 0.0220102 3.95493e-21)
(1.15932 0.0427502 -1.64344e-20)
(0.915464 0.0493189 -1.42525e-20)
(1.0403 0.0521648 0)
(0.987228 0.0599089 1.64001e-20)
(0.972714 0.0707332 2.17747e-20)
(0.949504 0.0858804 2.77793e-20)
(0.898629 0.10576 5.66743e-20)
(0.829431 0.134188 -8.16091e-20)
(0.662206 0.170525 -1.04343e-19)
(0.820674 0.0188089 3.25222e-20)
(1.15918 0.042677 -5.21629e-20)
(0.915914 0.0513219 1.35093e-22)
(1.04203 0.0537776 -1.33063e-20)
(0.989883 0.0639655 8.94447e-21)
(0.976749 0.0770054 -1.11651e-20)
(0.954822 0.0970054 -6.90799e-20)
(0.90688 0.123297 0)
(0.839057 0.172057 1.76826e-19)
(0.68451 0.23477 -2.17438e-19)
(0.819881 0.0157968 -2.9975e-20)
(1.15924 0.0424645 1.65376e-20)
(0.916287 0.0530674 3.26418e-20)
(1.04425 0.0551584 1.2227e-20)
(0.992871 0.0677806 -2.17472e-20)
(0.98155 0.0830761 6.06112e-23)
(0.961173 0.107843 -4.90487e-20)
(0.918076 0.140738 -4.04041e-21)
(0.852273 0.208833 9.59778e-23)
(0.719666 0.297269 5.85891e-19)
(0.818849 0.0130439 -2.21419e-20)
(1.15946 0.0421031 -1.03463e-21)
(0.916601 0.0545064 2.44859e-20)
(1.04696 0.0563082 1.67218e-20)
(0.996204 0.0713187 -9.38653e-21)
(0.987105 0.0888949 -1.27905e-20)
(0.968647 0.11827 7.3493e-20)
(0.932006 0.15799 -1.14901e-21)
(0.869358 0.243981 -2.1565e-19)
(0.767028 0.356973 7.00917e-20)
(0.817574 0.0105816 1.58602e-20)
(1.15976 0.0415643 -2.90199e-20)
(0.916875 0.0555849 -1.78936e-20)
(1.05017 0.0572328 8.92712e-21)
(0.99988 0.0745461 0)
(0.993394 0.09441 0)
(0.977352 0.128188 6.29326e-20)
(0.948431 0.174996 1.11103e-22)
(0.890624 0.276988 -1.03525e-19)
(0.82575 0.412923 8.30704e-20)
(0.816055 0.00846697 3.66785e-21)
(1.16005 0.0408163 2.07199e-20)
(0.917148 0.0562475 -4.48616e-20)
(1.05385 0.057945 -2.73177e-20)
(1.0039 0.0774277 7.21822e-22)
(1.0004 0.099575 5.21244e-20)
(0.987398 0.137519 9.89534e-20)
(0.967069 0.191689 -7.49226e-22)
(0.916479 0.306857 1.81394e-19)
(0.894968 0.465569 -1.90339e-19)
(0.814288 0.00677093 -2.06202e-20)
(1.16025 0.0398239 1.34396e-20)
(0.917461 0.0564409 -1.17807e-20)
(1.05801 0.0584665 -5.04396e-20)
(1.00825 0.0799259 -1.4351e-21)
(1.00811 0.104358 -8.3311e-22)
(0.99887 0.146235 -6.28884e-21)
(0.987506 0.207916 -1.80641e-19)
(0.947715 0.332031 1.39792e-19)
(0.972015 0.512748 -4.58625e-19)
(0.812273 0.00555317 -3.76912e-22)
(1.16025 0.0385319 -2.95001e-20)
(0.917873 0.0561207 2.30255e-20)
(1.06263 0.058829 3.2497e-20)
(1.01289 0.0819902 -4.65025e-22)
(1.01651 0.108734 -6.18898e-20)
(1.0118 0.154375 -5.54326e-20)
(1.00945 0.224036 3.29568e-19)
(0.984978 0.355287 1.33788e-20)
(1.05611 0.563809 7.26249e-19)
(0.810001 0.00482262 9.6146e-21)
(1.1601 0.0368013 1.12208e-20)
(0.918462 0.0552277 2.95061e-20)
(1.06769 0.0590447 -3.32408e-20)
(1.01777 0.083498 -5.87545e-20)
(1.02556 0.112392 1.57488e-21)
(1.02609 0.160829 -7.66821e-20)
(1.0331 0.236003 4.32907e-19)
(1.03165 0.365468 -8.07583e-21)
(1.13817 0.589027 -9.97872e-19)
(0.807519 0.00505196 1.66639e-21)
(1.1608 0.0348635 1.35056e-20)
(0.919039 0.0538985 9.18141e-21)
(1.07317 0.059457 -6.6735e-20)
(1.02258 0.0852293 -5.84135e-20)
(1.03403 0.117371 -5.18526e-20)
(1.03839 0.170967 -1.37242e-19)
(1.05123 0.255924 -3.99423e-19)
(1.07188 0.393664 -2.44005e-19)
(1.22919 0.657309 -1.04114e-18)
(0.805153 0.00476068 -4.67554e-21)
(1.16397 0.0315814 -2.72731e-21)
(0.920538 0.0509893 -1.00202e-20)
(1.08013 0.0581907 1.26544e-20)
(1.0316 0.084049 4.77497e-20)
(1.04951 0.117268 -3.66892e-20)
(1.0633 0.170934 1.21987e-19)
(1.09051 0.253491 -3.97651e-19)
(1.14166 0.374631 -1.73405e-19)
(1.23345 0.639173 5.78681e-19)
(0.805761 0.00213129 3.40881e-21)
(1.16819 0.0271197 8.3877e-21)
(0.924934 0.0456685 -6.91314e-21)
(1.08617 0.0543514 4.00563e-20)
(1.04229 0.0790596 7.46841e-20)
(1.06518 0.110896 1.07016e-19)
(1.08734 0.160528 2.62499e-20)
(1.12877 0.234592 2.10142e-19)
(1.19301 0.342144 2.58137e-19)
(1.31734 0.533176 3.21684e-21)
(0.806065 -0.00108552 -4.89034e-21)
(1.17294 0.0223475 1.02139e-22)
(0.929745 0.0401039 3.70006e-21)
(1.09228 0.0496916 1.02522e-20)
(1.05267 0.0728912 2.07077e-34)
(1.07997 0.102719 -8.00519e-21)
(1.10917 0.147593 -5.2302e-34)
(1.16194 0.21291 1.84998e-20)
(1.23117 0.300776 -5.42454e-20)
(1.38237 0.457772 -4.96565e-20)
(0.806434 -0.00548598 1.77414e-20)
(1.17787 0.0169117 -3.39767e-36)
(0.934643 0.0340498 -4.05134e-21)
(1.09819 0.0440876 -1.59317e-20)
(1.06228 0.0652867 -2.99457e-20)
(1.09333 0.0923935 -3.60697e-20)
(1.12841 0.131717 -6.46468e-34)
(1.18956 0.188168 -9.14233e-20)
(1.2618 0.257591 -1.24611e-19)
(1.42599 0.38133 8.84177e-20)
(0.806989 -0.0110235 0)
(1.18313 0.0108726 -1.47343e-35)
(0.939557 0.0276855 0)
(1.10374 0.037692 0)
(1.07089 0.0565117 0)
(1.10502 0.0803167 0)
(1.14488 0.113652 -3.84686e-34)
(1.21175 0.161074 0)
(1.28666 0.213848 -2.03682e-20)
(1.45178 0.309583 5.29675e-20)
(0.8078 -0.0177178 5.91026e-21)
(1.18903 0.00431705 -4.67075e-21)
(0.944498 0.0212366 -4.84362e-21)
(1.10878 0.0306899 0)
(1.07835 0.046808 0)
(1.11487 0.0668627 6.71992e-21)
(1.15852 0.0940015 2.68361e-20)
(1.229 0.1323 -1.35748e-20)
(1.30619 0.171007 -2.99094e-20)
(1.46584 0.242325 2.01907e-19)
(0.808991 -0.0273061 -6.2252e-20)
(1.19585 -0.00301846 5.87247e-21)
(0.949458 0.0149043 -5.25197e-21)
(1.11312 0.0233005 -5.41781e-21)
(1.08452 0.0364125 -1.06959e-20)
(1.12281 0.0523795 -8.21172e-21)
(1.1693 0.0732501 -2.03647e-20)
(1.24187 0.10249 -3.77885e-20)
(1.32075 0.129624 -5.20657e-20)
(1.47291 0.179729 6.99693e-20)
(0.810638 -0.032743 -9.34811e-21)
(1.20415 -0.00976202 -6.46255e-21)
(0.954191 0.0100906 -5.5952e-21)
(1.11624 0.0155019 -8.45716e-21)
(1.08889 0.0253457 2.03179e-35)
(1.12837 0.0369089 7.23621e-21)
(1.17689 0.0513565 -9.3578e-34)
(1.25066 0.0714955 -1.37228e-20)
(1.33052 0.0888317 1.84575e-20)
(1.47626 0.11917 2.5627e-20)
(0.808297 -0.0578289 1.44747e-19)
(1.19714 -0.0207439 -9.23555e-21)
(0.945074 0.00330359 -5.88389e-21)
(1.10471 0.00902057 4.39645e-21)
(1.07843 0.0146347 3.01427e-21)
(1.11865 0.0220855 1.37631e-20)
(1.16852 0.0305648 7.77749e-21)
(1.243 0.0425044 -4.80375e-21)
(1.32284 0.0515942 -2.01592e-20)
(1.46658 0.0671476 1.37892e-19)
(0.727554 -0.0382998 9.5987e-21)
(0.950208 -0.0182334 -4.82326e-35)
(0.715252 0.0031095 -6.8124e-21)
(0.861134 0.000165313 0)
(0.82764 0.00286913 0)
(0.862961 0.00442981 7.48238e-21)
(0.905007 0.00601888 -8.95128e-36)
(0.966686 0.0086465 -1.36719e-20)
(1.03392 0.0100076 -2.68109e-20)
(1.1436 0.0125712 5.5508e-20)
(1.47596 0.631113 -1.82131e-19)
(1.58626 0.614379 -2.68248e-19)
(1.68399 0.607456 0)
(1.76973 0.586608 1.18642e-19)
(1.8495 0.538966 5.52106e-19)
(1.92565 0.468032 -1.14584e-19)
(1.99517 0.382154 1.55256e-18)
(2.05321 0.287463 -8.04441e-20)
(2.09657 0.186913 -3.44496e-19)
(2.12325 0.0836921 3.28816e-19)
(1.5139 0.515718 8.29608e-20)
(1.58892 0.504608 1.06348e-19)
(1.66595 0.492461 -9.51686e-21)
(1.74281 0.464286 1.76872e-19)
(1.81571 0.417891 -1.50122e-19)
(1.88245 0.358321 -3.65993e-19)
(1.94024 0.290698 -1.12225e-19)
(1.9864 0.218026 5.03251e-19)
(2.01998 0.141994 -2.17546e-20)
(2.04003 0.0637014 -4.35361e-19)