/*--------------------------------*- C++ -*----------------------------------*\
  =========                 |
  \\      /  F ield         | OpenFOAM: The Open Source CFD Toolbox
   \\    /   O peration     | Website:  https://openfoam.org
    \\  /    A nd           | Version:  13
     \\/     M anipulation  |
\*---------------------------------------------------------------------------*/
FoamFile
{
    format      ascii;
    class       volScalarField;
    location    "0.575";
    object      strainRateViscosityModel:nu;
}
// * * * * * * * * * * * * * * * * * * * * * * * * * * * * * * * * * * * * * //

dimensions      [0 2 -1 0 0 0 0];

internalField   nonuniform List<scalar> 
1800
(
9.40488
9.1976
9.01005
8.80093
8.57611
8.3441
8.11544
7.89817
7.62427
7.37937
9.58523
9.41878
9.26689
9.09731
8.91115
8.7114
8.50354
8.28866
8.02732
7.70214
9.70219
9.56269
9.42803
9.27095
9.08867
8.87897
8.64089
8.36902
8.03058
7.61065
9.77539
9.65614
9.53324
9.38287
9.20048
8.98171
8.72279
8.41595
8.02878
7.55459
9.82168
9.7183
9.60558
9.46166
9.2807
9.05695
8.78548
8.45888
8.04776
7.55617
9.85185
9.76081
9.6573
9.52059
9.34355
9.11896
8.84034
8.50016
8.07152
7.57021
9.87179
9.78991
9.69399
9.56396
9.39147
9.16769
8.8842
8.53252
8.08736
7.57568
9.88475
9.80924
9.71888
9.59395
9.42495
9.20146
8.91309
8.55005
8.08853
7.56356
9.8926
9.82107
9.73416
9.6122
9.44467
9.21963
8.92484
8.54923
8.07121
7.52871
9.89646
9.82686
9.74153
9.6207
9.4531
9.22573
8.92512
8.53953
8.05038
7.49285
1.78269
1.40534
1.21352
1.32332
1.73006
2.2482
2.49416
2.44924
2.36047
2.33668
3.71009
1.78449
1.49582
1.98148
2.69149
2.97034
2.81961
2.67552
2.69076
2.74333
4.69005
2.5734
2.43857
3.17423
3.59319
3.34815
3.0864
3.12223
3.26076
3.34085
5.26284
3.88408
3.81644
4.21167
4.17981
3.83207
3.72464
3.85728
3.95926
4.00835
6.05343
5.27616
5.11821
5.12054
4.91492
4.65469
4.57966
4.61363
4.61419
4.65413
6.95907
6.46017
6.22688
6.03793
5.78817
5.54575
5.38984
5.2943
5.22356
5.27628
7.77152
7.37776
7.11675
6.8601
6.58723
6.32052
6.08745
5.90145
5.77107
5.82476
8.40008
8.0553
7.79195
7.51564
7.22632
6.93107
6.64218
6.38651
6.19273
6.22987
8.84934
8.54536
8.29095
8.01021
7.70557
7.37935
7.03555
6.70117
6.41599
6.42213
9.16164
8.90153
8.66629
8.39661
8.09563
7.76567
7.40639
7.03567
6.7087
6.75269
2.19411
1.72989
1.33227
0.935712
0.61612
0.340625
0.164605
0.10744
0.118366
0.172037
2.52941
1.85027
1.40898
0.933224
0.591996
0.324753
0.149488
0.0693272
0.0554569
0.10313
2.95046
1.98013
1.48252
0.932656
0.559166
0.299822
0.134674
0.0484068
0.0269231
0.027704
3.44298
2.15021
1.55434
0.936933
0.522574
0.269325
0.117508
0.0366705
0.022065
0.0119965
3.98503
2.38805
1.63176
0.946506
0.485605
0.235338
0.0992578
0.030457
0.0210822
0.0116368
4.53021
2.69893
1.7278
0.962897
0.451219
0.199019
0.0806459
0.0270114
0.0208172
0.0116279
4.99836
3.05846
1.84946
0.985484
0.420043
0.161283
0.0619293
0.024605
0.0200789
0.0129981
5.314
3.44135
2.01643
1.02815
0.399139
0.12564
0.0433682
0.0218699
0.0158573
0.0429199
5.34441
3.72464
2.16586
1.06003
0.376527
0.0920284
0.0282525
0.0167323
0.0298391
0.134632
5.20307
3.99086
2.40152
1.16381
0.393872
0.0756133
0.0148575
0.0165357
0.10835
0.202807
4.94554
3.94425
2.4583
1.17734
0.367967
0.0508974
0.013859
0.0926493
0.181111
0.287542
5.33171
3.3495
2.14058
0.99663
0.352954
0.122309
0.104911
0.179847
0.273973
0.382716
4.90533
3.04437
2.24412
1.19776
0.581794
0.280103
0.191756
0.25133
0.349768
0.459017
4.54569
3.62919
2.67749
1.63472
0.886199
0.483143
0.324233
0.342825
0.425673
0.525277
5.11325
4.74645
3.34105
2.16157
1.23503
0.721497
0.484234
0.4456
0.500559
0.579842
6.25426
5.66928
4.05704
2.67342
1.5979
0.976932
0.664919
0.563438
0.578021
0.625912
7.26272
6.37379
4.71412
3.15513
1.95783
1.23877
0.854969
0.689906
0.657127
0.664814
8.00015
6.91215
5.26028
3.58973
2.30097
1.50091
1.04991
0.822665
0.738777
0.699437
8.51878
7.33081
5.69769
3.97069
2.62127
1.75519
1.2396
0.951327
0.815784
0.727987
8.93101
7.69124
6.05001
4.28348
2.92593
2.0269
1.45373
1.10131
0.909977
0.763271
6.51283
6.43966
6.43045
6.44878
6.48741
6.53005
6.58214
6.71072
6.89546
6.82658
0.26072
1.05724
2.00789
2.92301
3.70403
4.31674
4.73358
4.98322
5.22243
5.72864
3.8507
3.54376
3.28446
3.11115
3.10621
3.24989
3.47222
3.71352
4.1652
4.84534
6.64423
6.62727
6.53715
6.34467
6.04317
5.65761
5.24918
4.89547
4.73875
4.54869
7.69187
7.67656
7.63215
7.54132
7.39615
7.18986
6.92704
6.61939
6.28574
5.65595
8.44953
8.43313
8.39437
8.32773
8.22959
8.09674
7.92839
7.71685
7.42792
6.90778
8.93968
8.92394
8.89029
8.8368
8.76167
8.66291
8.53817
8.37894
8.15469
7.80864
9.27299
9.25981
9.23246
9.18985
9.13052
9.05245
8.95269
8.82482
8.65283
8.43092
9.50446
9.49417
9.47308
9.44024
9.39426
9.33319
9.25424
9.15287
9.02289
8.87535
9.6899
9.68285
9.66852
9.64604
9.61405
9.5707
9.51361
9.43975
9.34638
9.2441
7.24837
7.52638
7.83698
8.08764
8.34475
8.59956
8.84133
9.06155
9.25458
9.46026
7.58328
7.94813
8.24096
8.48108
8.7093
8.92477
9.12227
9.29899
9.45391
9.61807
7.4986
7.95741
8.32593
8.62047
8.87572
9.09771
9.28804
9.44951
9.58536
9.72226
7.44696
7.95763
8.37374
8.70197
8.97656
9.20595
9.3947
9.54806
9.67131
9.78824
7.45637
7.98067
8.41859
8.76488
9.05052
9.28355
9.46977
9.61591
9.72868
9.83022
7.48244
8.01168
8.46401
8.82146
9.11233
9.34474
9.52606
9.66446
9.76796
9.85764
7.50365
8.03786
8.50277
8.86862
9.16197
9.39189
9.56764
9.6989
9.79479
9.8757
7.51115
8.05246
8.52871
8.90209
9.19746
9.42521
9.5964
9.72213
9.81243
9.88729
7.49836
8.05045
8.53742
8.91898
9.21768
9.44503
9.61372
9.73606
9.8229
9.89404
7.48288
8.04359
8.53593
8.92344
9.22526
9.4533
9.62123
9.74217
9.82746
9.89693
2.5535
2.51066
2.52946
2.74033
2.92191
2.54654
1.69394
1.18027
1.52116
4.18411
2.9622
2.87395
2.71513
2.71428
3.10332
3.42723
2.81647
1.90305
2.12136
5.12999
3.45276
3.40882
3.25077
3.06511
3.26587
3.82375
3.80126
3.15732
3.28399
5.45237
3.94639
3.93529
3.90831
3.79873
3.89145
4.31856
4.5888
4.46542
4.65706
5.91022
4.4999
4.47238
4.54729
4.61822
4.78141
5.11444
5.43811
5.61775
5.89451
6.62938
5.10306
5.0605
5.19972
5.39749
5.65772
5.98069
6.30848
6.59479
6.89989
7.40562
5.65496
5.61863
5.81909
6.09118
6.40802
6.74089
7.06837
7.37781
7.67833
8.08618
6.06761
6.0529
6.31562
6.64255
6.995
7.33969
7.66711
7.974
8.25879
8.61096
6.26098
6.27974
6.63123
7.02594
7.42004
7.78428
8.11658
8.41658
8.68276
8.98795
6.60058
6.57028
6.95615
7.37948
7.78125
8.14301
8.46644
8.75038
8.99298
9.25187
0.108441
0.155014
0.114583
0.0557787
0.0136851
0.378771
0.917053
1.47402
1.94399
2.42765
0.0746009
0.139968
0.110313
0.0560437
0.0140952
0.368797
0.922962
1.53966
2.02598
2.69656
0.0528035
0.131929
0.108964
0.0595002
0.0228697
0.370223
0.933407
1.59341
2.10004
3.0099
0.039995
0.130726
0.111632
0.0678702
0.0409386
0.381277
0.94476
1.63429
2.2063
3.39841
0.0338083
0.135006
0.116792
0.0786535
0.0644449
0.395264
0.953255
1.67282
2.38557
3.8691
0.0329801
0.143133
0.122681
0.0890493
0.0891539
0.408032
0.962067
1.73184
2.65226
4.36604
0.0377282
0.154727
0.127877
0.096929
0.110232
0.4164
0.975812
1.82789
2.98376
4.79641
0.0490212
0.170628
0.132027
0.102373
0.127019
0.428561
1.01835
1.98662
3.35008
5.08074
0.0690827
0.191177
0.135212
0.101707
0.131231
0.43031
1.05565
2.13729
3.62814
5.0837
0.100637
0.213476
0.139087
0.105124
0.147528
0.477641
1.19187
2.3952
3.878
4.8922
0.158391
0.24129
0.146055
0.102706
0.136894
0.476909
1.25424
2.50765
3.88709
4.67462
0.262205
0.27138
0.135434
0.0786067
0.0738516
0.376754
1.12152
2.30458
3.43223
5.19397
0.427131
0.269278
0.105683
0.0166614
0.014682
0.326061
1.13981
2.34597
3.25473
4.9388
0.680093
0.256154
0.0227955
0.0810224
0.108977
0.5258
1.4229
2.61704
3.71081
4.6967
1.06372
0.0485987
0.256208
0.245933
0.32415
0.884601
1.92939
3.20198
4.70442
5.17572
1.51477
0.118057
0.534494
0.426375
0.606858
1.30545
2.47252
3.91537
5.59787
6.22285
2.1944
0.685219
0.851703
0.699616
0.95277
1.73852
2.99229
4.59302
6.30237
7.21638
3.79196
1.70536
1.27251
1.04607
1.32831
2.15268
3.4624
5.16526
6.85422
7.96884
6.86008
3.57604
1.96232
1.4295
1.68886
2.52792
3.87537
5.63159
7.29528
8.50727
9.04905
6.38387
2.84367
2.00849
2.12429
2.90212
4.2268
6.01973
7.68657
8.93807
6.62521
6.68811
6.51128
6.3894
6.34894
6.32268
6.30563
6.31737
6.36197
6.47626
5.52977
5.01085
4.76687
4.5256
4.12728
3.54116
2.79909
1.93243
1.04487
0.284299
4.85058
4.23709
3.82731
3.61651
3.42953
3.30997
3.31488
3.45726
3.65514
3.8742
4.71119
4.8846
5.02727
5.33708
5.7016
6.05214
6.33388
6.52144
6.61661
6.64166
5.68693
6.28536
6.61205
6.91125
7.17237
7.38151
7.53186
7.62819
7.67674
7.69243
6.86573
7.38858
7.68446
7.90237
8.07664
8.21488
8.31784
8.38859
8.43057
8.44891
7.76516
8.12054
8.35201
8.51794
8.64799
8.75101
8.82958
8.88583
8.92165
8.939
8.40458
8.6327
8.80889
8.94094
9.04402
9.12466
9.18596
9.23006
9.25855
9.2726
8.86615
9.01619
9.14761
9.25059
9.33082
9.39282
9.43944
9.47267
9.494
9.50442
9.24867
9.35043
9.443
9.51629
9.57293
9.61587
9.64747
9.66956
9.68348
9.69011
9.50944
8.98529
8.23582
6.92819
5.59792
0.131167
3.36079
5.96033
7.21402
8.1518
9.46539
8.92151
8.16806
6.89052
5.54934
0.563762
2.62218
5.70596
6.91636
7.91389
9.36565
8.78276
8.02021
6.80954
5.36631
1.60347
1.41354
5.20658
6.30928
7.40323
9.18251
8.54506
7.77441
6.65504
5.18639
2.74001
0.723076
4.23834
5.4215
6.5714
8.86806
8.17351
7.40392
6.37685
5.02645
3.368
0.970939
2.63159
4.3169
5.39372
8.35045
7.62963
6.8733
5.91718
4.76503
3.44
1.71921
1.3019
3.04927
3.98809
7.53595
6.89649
6.15542
5.22746
4.2996
3.26952
2.14305
1.17241
1.65628
2.55747
6.32529
6.03744
5.2812
4.23182
3.53346
2.91264
2.11838
1.43501
1.06844
1.23551
4.63161
5.23209
4.47419
2.99957
2.4372
2.2746
1.85597
1.38458
1.1224
0.659053
2.67267
4.5393
4.02147
1.96683
1.39692
1.48844
1.40982
1.21138
1.06367
0.844831
1.27663
3.7884
3.66639
1.33758
0.816334
0.897551
0.970735
0.955781
0.971249
1.01941
0.613399
2.96867
3.08161
0.957009
0.575346
0.639497
0.758648
0.819194
0.843261
0.876334
0.355316
2.18811
2.28445
0.688359
0.492113
0.594243
0.725137
0.809546
0.847454
0.872337
0.265301
1.54948
1.48822
0.520806
0.533062
0.672454
0.785931
0.857017
0.880547
0.890926
0.239698
1.01894
0.844725
0.512137
0.66734
0.801001
0.90223
0.965774
0.98159
0.978617
0.242994
0.494498
0.49855
0.633896
0.814813
0.952261
1.05008
1.10789
1.11856
1.11047
0.178434
0.20388
0.506185
0.753798
0.971947
1.11776
1.20774
1.25499
1.27175
1.27227
0.0456709
0.250254
0.647767
0.920354
1.13394
1.25186
1.32814
1.39758
1.45363
1.47521
0.0594738
0.491298
0.820798
1.09517
1.22985
1.3385
1.48778
1.64521
1.73216
1.74788
0.688745
0.862336
1.04064
1.18578
1.32486
1.59628
1.90706
2.07679
2.07974
2.04734
0.362914
0.080178
0.222775
0.548389
0.791184
0.887305
0.879469
0.826582
0.779541
0.764571
0.46172
0.201339
0.31766
0.519129
0.72079
0.806959
0.800642
0.753668
0.713432
0.711637
0.525005
0.370529
0.438035
0.511265
0.650654
0.727322
0.723483
0.681405
0.647179
0.657311
0.637556
0.585556
0.592939
0.552827
0.584818
0.64056
0.641164
0.606681
0.58005
0.601665
0.804019
0.800697
0.738965
0.63498
0.539685
0.553611
0.556847
0.531115
0.512582
0.544672
1.00708
0.996354
0.871926
0.733965
0.528401
0.472017
0.471005
0.454772
0.444909
0.486285
1.22492
1.16791
0.986731
0.821687
0.549879
0.405728
0.3864
0.378513
0.37741
0.426501
1.44977
1.32245
1.08578
0.884101
0.585998
0.364252
0.307182
0.303405
0.310287
0.365084
1.68293
1.46676
1.17297
0.919597
0.615213
0.348478
0.239736
0.23106
0.244312
0.302395
1.92554
1.60299
1.2538
0.933981
0.625529
0.346017
0.191374
0.16441
0.178949
0.237407
2.00896
0.747026
0.715965
0.9621
1.19243
1.27775
1.25168
1.17762
1.11
1.03016
1.39438
0.482684
0.577593
0.871597
1.10471
1.192
1.17034
1.10136
1.03741
0.971231
0.75168
0.287824
0.479872
0.794835
1.03079
1.12039
1.10253
1.03752
0.977337
0.922851
0.253575
0.170129
0.404324
0.723273
0.956097
1.04458
1.02892
0.967694
0.911693
0.870259
0.435944
0.0327611
0.266393
0.610768
0.860622
0.960898
0.953209
0.897343
0.845762
0.817437
9.35461
9.29002
9.14096
8.87305
8.43749
7.77881
6.87126
5.75921
4.58187
3.53696
9.19244
9.09561
8.88106
8.51159
7.94143
7.13637
6.10954
4.95499
3.84467
2.78673
9.02384
8.90022
8.62656
8.16097
7.46167
6.51605
5.37132
4.16854
3.0812
1.94235
8.81627
8.66215
8.32144
7.74785
6.90607
5.81414
4.55489
3.29476
2.22587
1.09015
8.58744
8.37933
7.92577
7.17737
6.11242
4.79201
3.35061
2.0852
0.994109
0.302041
1.06069
1.02494
1.01691
1.02047
0.915731
0.800043
1.29371
3.68249
3.85898
1.32339
0.949736
0.934363
0.926897
0.871484
0.719524
0.589164
0.911495
3.14062
3.10845
0.647698
0.986449
0.982931
0.966114
0.893338
0.748024
0.585306
0.699273
2.37056
2.34413
0.377614
1.05352
1.06534
1.06115
1.00137
0.890173
0.74137
0.65659
1.55477
1.63099
0.277382
1.18538
1.2094
1.215
1.1673
1.07639
0.951566
0.788985
0.907477
0.916193
0.246283
1.34938
1.36924
1.37744
1.3521
1.28199
1.14874
0.927654
0.667906
0.357011
0.216538
1.55214
1.5481
1.51592
1.47356
1.42218
1.31501
1.07508
0.751093
0.271863
0.0663008
1.81823
1.81157
1.72913
1.5771
1.43801
1.34106
1.20498
0.896922
0.492094
0.0467216
2.09756
2.14429
2.14166
1.94779
1.60637
1.3195
1.18419
1.05237
0.851313
0.673016
2.3063
2.35329
2.47705
2.52672
2.22333
1.62514
1.17942
1.06491
1.30009
2.02817
8.15161
7.21366
5.95997
3.36029
0.131423
5.59646
6.9277
8.23563
8.98531
9.50953
7.91321
6.91525
5.70496
2.62157
0.563633
5.54549
6.88907
8.16748
8.92156
9.4657
7.40177
6.30739
5.20479
1.41543
1.59975
5.36182
6.80727
8.01933
8.78289
9.36623
6.56875
5.41861
4.23617
0.72624
2.73172
5.18166
6.65219
7.77344
8.54539
9.18354
5.38933
4.3124
2.63254
0.971043
3.35668
5.0205
6.3734
7.40299
8.17425
8.86982
3.97969
3.04132
1.31007
1.71334
3.42675
4.75614
5.91237
6.87242
7.6311
8.35343
2.54083
1.65321
1.18729
2.13303
3.25085
4.28288
5.2187
6.15449
6.89936
7.54129
1.21717
1.08764
1.45201
2.10741
2.8804
3.50295
4.21737
5.28186
6.04333
6.33603
0.671555
1.15319
1.40742
1.84254
2.23203
2.40026
2.9838
4.47904
5.24321
4.65571
0.88524
1.10276
1.24756
1.41308
1.46406
1.3692
1.94337
4.02592
4.56464
2.717
2.08949
0.543238
1.06
0.63242
0.665973
0.759712
0.632487
0.299914
0.062613
0.356687
1.62954
0.237085
0.86831
0.482436
0.572073
0.682104
0.592898
0.356497
0.266428
0.488813
1.33351
0.0580578
0.64007
0.344494
0.483336
0.602255
0.56111
0.459427
0.473467
0.591414
1.097
0.0148605
0.391729
0.236474
0.398258
0.518111
0.561054
0.625826
0.732002
0.758347
0.846524
0.0902345
0.188643
0.162458
0.319766
0.441037
0.607391
0.803994
0.972883
0.976662
0.634182
0.155009
0.0519483
0.10567
0.246933
0.384931
0.692508
0.972228
1.19051
1.22258
0.461752
0.209944
0.0505268
0.0520254
0.182279
0.363221
0.784648
1.11369
1.38077
1.47695
0.329057
0.211502
0.105765
0.0104823
0.122293
0.370704
0.855633
1.22792
1.55057
1.73
0.229993
0.197397
0.116713
0.0369957
0.0621036
0.384935
0.895706
1.32085
1.70301
1.96986
0.1585
0.175241
0.120142
0.0520782
0.0253439
0.389052
0.911886
1.40106
1.83601
2.19329
9.33656
6.77029
2.66559
1.7014
1.20515
1.12376
0.968219
0.783773
0.797385
2.03333
8.21091
4.63638
2.21538
1.41961
1.07307
1.03866
0.89402
0.652802
0.528786
1.39869
6.12009
3.06387
1.78547
1.2125
0.968543
0.974013
0.834423
0.562632
0.329482
0.740965
4.13298
1.87579
1.4972
1.00619
0.862878
0.906449
0.777389
0.488648
0.229251
0.224659
2.83521
1.06126
1.24567
0.805924
0.759967
0.828244
0.686735
0.356593
0.044435
0.397897
3.54772
4.58908
5.76312
6.87342
7.78035
8.43862
8.87382
9.14143
9.29028
9.3547
2.78087
3.84095
4.95223
6.10776
7.13576
7.94144
8.51181
8.88129
9.09578
9.1925
1.92834
3.0718
4.16206
5.36656
6.5135
7.46053
8.16055
8.62647
8.90024
9.02386
1.05515
2.20283
3.28144
4.54664
5.80994
6.90386
7.74673
8.32097
8.662
8.81624
0.300347
0.962204
2.06367
3.33731
4.78503
6.10884
7.17539
7.92482
8.37896
8.58735
)
;

boundaryField
{
    left
    {
        type            calculated;
        value           nonuniform List<scalar> 
35
(
0.299283
0.569684
0.989492
1.62646
2.52413
3.69518
5.06594
6.47614
8.15853
9.4418
0.207054
0.12724
0.0762055
0.0466139
0.0318816
0.0272451
0.0319884
0.0504515
0.0904525
0.159411
4.9334
4.06145
3.23444
2.51261
1.91675
1.42646
1.02949
0.722232
0.492264
0.324895
9.61572
8.97908
7.92209
6.84785
5.85946
)
;
    }
    right
    {
        type            calculated;
        value           nonuniform List<scalar> 
35
(
1.02976
0.971248
0.92346
0.871964
0.820547
0.769352
0.718118
0.665304
0.610979
0.555089
0.497495
0.438061
0.376385
0.312674
0.245742
0.177636
0.104826
0.0264176
0.0112603
0.0110585
0.0110498
0.0127191
0.0470655
0.150046
0.224425
0.313005
0.409359
0.48554
0.549816
0.600668
0.64167
0.674978
0.704563
0.72956
0.761387
)
;
    }
    down
    {
        type            calculated;
        value           nonuniform List<scalar> 
40
(
9.4543
7.26629
2.89647
1.79044
1.24567
1.15221
0.993912
0.825403
0.898451
2.26053
3.83288
4.88237
6.03384
7.09275
7.94451
8.55494
8.95441
9.19921
9.33561
9.39484
9.39475
9.33532
9.19869
8.95355
8.55361
7.94258
7.08985
6.02866
4.87307
3.81874
2.23207
0.847114
0.75981
0.99397
1.22401
1.30719
1.27858
1.20218
1.13324
1.04903
)
;
    }
    up
    {
        type            calculated;
        value           nonuniform List<scalar> 
40
(
9.0341
7.80887
6.16785
4.39517
3.03395
2.12182
1.52659
1.14995
0.939717
0.774861
9.72927
9.72305
9.71045
9.69064
9.66234
9.62377
9.57263
9.50586
9.42075
9.32814
9.33503
9.42654
9.51038
9.57622
9.62664
9.66461
9.69238
9.71168
9.72379
9.72951
9.27073
7.09637
3.23959
2.15968
2.24324
3.02195
4.34908
6.14932
7.8137
9.04493
)
;
    }
    cylinder
    {
        type            calculated;
        value           nonuniform List<scalar> 
80
(
1.97635
4.54265
5.52081
5.76982
6.30122
7.08939
7.86151
8.47472
8.91245
9.21291
9.44581
9.61872
9.72982
9.7983
9.84096
9.86846
9.8865
9.89817
9.90522
9.90869
9.50042
9.65062
9.74903
9.81047
9.849
9.87389
9.89016
9.90055
9.90657
9.90913
5.30787
6.22735
6.20855
6.31286
6.8324
7.52562
8.17585
8.68591
9.05067
9.30252
0.994706
0.471803
0.264333
0.183305
0.15974
0.165684
0.0829124
0.0421683
0.747939
2.41303
9.59443
9.55586
9.46741
9.30183
9.00973
8.5113
7.6862
6.3666
4.38758
2.23934
9.59433
9.55554
9.4668
9.30075
9.00787
8.50812
7.68044
6.35442
4.35807
2.19121
0.952694
0.442178
0.244269
0.170802
0.150289
0.165471
0.161935
0.0844855
0.0433657
0.726821
)
;
    }
    defaultFaces
    {
        type            empty;
    }
}


// ************************************************************************* //
