# Selection   : all
# Cells       : 440
# Volume      : 7.374263e+01
# Time        	minMag(U)
8.615         	5.793519e-03
8.66          	6.784681e-03
8.71          	7.989392e-03
