/*--------------------------------*- C++ -*----------------------------------*\
  =========                 |
  \\      /  F ield         | OpenFOAM: The Open Source CFD Toolbox
   \\    /   O peration     | Website:  https://openfoam.org
    \\  /    A nd           | Version:  13
     \\/     M anipulation  |
\*---------------------------------------------------------------------------*/
FoamFile
{
    format      ascii;
    class       surfaceScalarField;
    location    "0.61";
    object      phi;
}
// * * * * * * * * * * * * * * * * * * * * * * * * * * * * * * * * * * * * * //

dimensions      [0 3 -1 0 0 0 0];

internalField   nonuniform List<scalar> 
3485
(
0.00137165
-0.0112581
0.00988642
0.00505113
-0.0319069
0.0282274
0.0107642
-0.051383
0.0456699
0.0183126
-0.0696769
0.0621285
0.0275455
-0.0868348
0.0776019
0.0383488
-0.102901
0.0920974
0.0506338
-0.117905
0.10562
0.0643575
-0.13187
0.118146
0.0796172
-0.14486
0.1296
-0.156893
0.139501
0.0970091
0.00150032
-0.0127584
0.00544579
-0.0358524
0.0114761
-0.0574133
0.0193235
-0.0775243
0.0287729
-0.0962842
0.0396469
-0.113775
0.0518013
-0.13006
0.0651282
-0.145196
0.0795362
-0.159267
-0.172196
0.0948391
0.00147417
-0.0142326
0.00532696
-0.0397051
0.0111745
-0.0632608
0.0187208
-0.0850706
0.0277253
-0.105289
0.0379885
-0.124038
0.0493446
-0.141416
0.061654
-0.157506
0.0747845
-0.172398
-0.186036
0.0886248
0.00133886
-0.0155714
0.00485901
-0.0432253
0.0102108
-0.0686126
0.0171171
-0.0919768
0.0253539
-0.113526
0.0347403
-0.133424
0.0451303
-0.151806
0.056404
-0.168779
0.0684545
-0.184449
-0.19879
0.0812085
0.00116693
-0.0167383
0.00425598
-0.0463143
0.00897314
-0.0733298
0.0150817
-0.0980854
0.0223917
-0.120836
0.0307525
-0.141785
0.0400463
-0.1611
0.0501804
-0.178914
0.0610774
-0.195346
-0.210402
0.0726892
0.000980023
-0.0177184
0.00358795
-0.0489223
0.00758662
-0.0773285
0.012784
-0.103283
0.0190261
-0.127078
0.0261926
-0.148952
0.0341916
-0.169099
0.0429536
-0.187676
0.0524237
-0.204816
-0.220549
0.0625708
0.000780727
-0.0184991
0.00286502
-0.0510066
0.00606901
-0.0805325
0.0102429
-0.107457
0.0152666
-0.132101
0.0210468
-0.154732
0.0275145
-0.175566
0.0346207
-0.194782
0.0423316
-0.212526
-0.228851
0.0506333
0.000569706
-0.0190688
0.00209347
-0.0525303
0.00443791
-0.0828769
0.00749274
-0.110511
0.0111688
-0.135777
0.015397
-0.15896
0.0201277
-0.180297
0.0253298
-0.199984
0.0309868
-0.218184
-0.234967
0.0371035
0.000352511
-0.0194213
0.00129578
-0.0534736
0.00274505
-0.0843262
0.0046284
-0.112395
0.00688657
-0.138036
0.00947323
-0.161547
0.0123555
-0.183179
0.0155145
-0.203143
0.0189451
-0.221614
-0.238684
0.0226619
0.000137799
-0.0195591
0.000502478
-0.0538383
0.001057
-0.0848807
0.00176959
-0.113107
0.0026138
-0.13888
0.00356851
-0.162501
0.00461825
-0.184229
0.00575349
-0.204278
0.00697079
-0.222831
0.00827522
-0.239989
0.000491719
-0.00187078
0.00137906
0.00209751
-0.00625525
0.00464946
0.0054404
-0.0114113
0.00806838
0.0101293
-0.0161786
0.0114896
0.0155569
-0.0201703
0.0147427
0.021459
-0.0235673
0.0176652
0.0279295
-0.0267484
0.0202779
0.0351158
-0.0299414
0.0227551
0.0430032
-0.0330996
0.0252122
-0.0360718
0.0514588
0.0276162
0.000427405
-0.00229819
0.00211301
-0.00794085
0.00544281
-0.0147411
0.009825
-0.0205607
0.0149034
-0.0252487
0.0207852
-0.029449
0.0276421
-0.0336053
0.0354232
-0.0377225
0.0439183
-0.0415948
-0.0451164
0.0529629
0.000682578
-0.00298077
0.00271579
-0.00997407
0.00578293
-0.0178082
0.00977109
-0.0245489
0.0148305
-0.0303081
0.0211325
-0.035751
0.0286084
-0.0410812
0.0369799
-0.0460941
0.0460286
-0.0506434
-0.0547508
0.0556629
0.000867995
-0.00384876
0.00306015
-0.0121662
0.00608132
-0.0208294
0.0102072
-0.0286747
0.015709
-0.0358099
0.02257
-0.0426121
0.0305491
-0.0490602
0.0394096
-0.0549546
0.0490559
-0.0602898
-0.0651008
0.059406
0.000922654
-0.00477142
0.00320013
-0.0144437
0.00652049
-0.0241498
0.0111209
-0.0332752
0.0171413
-0.0418304
0.0244571
-0.0499278
0.0328767
-0.0574798
0.0423022
-0.0643801
0.0526704
-0.070658
-0.0762792
0.0638487
0.000943639
-0.00571506
0.00337253
-0.0168726
0.00709214
-0.0278694
0.0121764
-0.0383595
0.0186363
-0.0482902
0.0263607
-0.0576523
0.0352528
-0.0663718
0.0452648
-0.0743922
0.0563183
-0.0817115
-0.0882162
0.0682554
0.000979846
-0.0066949
0.00358396
-0.0194767
0.00764159
-0.031927
0.0131079
-0.0438257
0.0199272
-0.0551096
0.0280135
-0.0657385
0.0373044
-0.0756628
0.0477539
-0.0848417
0.0592889
-0.0932465
-0.100692
0.0717645
0.00101796
-0.00771286
0.0037677
-0.0222265
0.00807115
-0.0362304
0.0138201
-0.0495746
0.02092
-0.0622095
0.029282
-0.0741006
0.0388366
-0.0852174
0.0495271
-0.0955322
0.0612949
-0.105014
-0.113437
0.0740397
0.0010546
-0.00876746
0.00393669
-0.0251085
0.00846095
-0.0407547
0.0144821
-0.0555957
0.0218739
-0.0696013
0.0305261
-0.0827527
0.0403434
-0.0950347
0.051237
-0.106426
0.0631261
-0.116903
-0.126316
0.0760057
0.00111895
0.00423782
0.00915304
0.0156858
0.0236863
0.033031
0.0436167
0.0553367
0.0680332
0.081218
0.114369
-0.414264
0.351354
0.168168
-0.471387
0.417588
0.210267
-0.421327
0.379228
0.244041
-0.325839
0.292065
0.270674
-0.213432
0.186799
0.290944
-0.108694
0.0884245
0.303615
-0.0283693
0.0156985
0.307969
0.0122396
-0.0165933
0.308207
0.0200209
-0.0202599
0.0150548
-0.0136221
0.115966
-0.477267
0.169758
-0.525179
0.21185
-0.46342
0.245385
-0.359373
0.272151
-0.240198
0.293098
-0.129642
0.308177
-0.0434476
0.316078
0.00433807
0.319032
0.0170672
0.0151881
0.117781
-0.539385
0.170602
-0.578
0.212311
-0.505129
0.245263
-0.392325
0.271909
-0.266844
0.293086
-0.150819
0.309246
-0.0596077
0.319561
-0.0059771
0.326148
0.0104806
0.0124121
0.120161
-0.60014
0.170977
-0.628817
0.211821
-0.545973
0.243891
-0.424395
0.270177
-0.29313
0.291434
-0.172076
0.307911
-0.0760849
0.319066
-0.0171324
0.327619
0.00192753
0.00742523
0.123053
-0.659344
0.171088
-0.676852
0.210513
-0.585398
0.241446
-0.455328
0.267117
-0.3188
0.288413
-0.193372
0.30506
-0.0927328
0.316857
-0.0289286
0.326265
-0.0074803
0.00150666
0.125904
-0.716992
0.170969
-0.721917
0.208472
-0.622901
0.238068
-0.484924
0.262855
-0.343587
0.28412
-0.214637
0.301094
-0.109707
0.313768
-0.0416027
0.324413
-0.0181256
-0.00571482
0.127836
-0.773064
0.170436
-0.764517
0.205753
-0.658218
0.233878
-0.513049
0.257531
-0.36724
0.27859
-0.235697
0.296099
-0.127216
0.31002
-0.0555231
0.322006
-0.0301124
-0.0142311
0.127912
-0.826937
0.169007
-0.805612
0.202219
-0.691429
0.228853
-0.539683
0.251204
-0.389591
0.27182
-0.256312
0.290028
-0.145424
0.305689
-0.0711844
0.316871
-0.0412949
-0.0213153
0.125829
-0.87676
0.166277
-0.846059
0.19782
-0.722972
0.223085
-0.564948
0.244021
-0.410527
0.263788
-0.276079
0.282835
-0.164471
0.298698
-0.087047
0.30704
-0.0496369
-0.0267345
0.122142
-0.917684
0.161444
-0.885361
0.191684
-0.753212
0.215861
-0.589125
0.235482
-0.430148
0.25432
-0.294917
0.273189
-0.18334
0.286553
-0.100411
0.293013
-0.0560974
-0.0328798
0.583938
-0.920155
-0.581467
0.561183
-0.862607
0.523975
-0.716004
0.487936
-0.553086
0.460489
-0.402701
0.445069
-0.279497
0.437694
-0.175965
0.433056
-0.095773
0.429344
-0.0523856
-0.0311887
0.682859
-0.871563
-0.731451
0.619705
-0.799453
0.55397
-0.650269
0.496593
-0.495708
0.451613
-0.357721
0.420391
-0.248276
0.403532
-0.159106
0.39627
-0.0885118
0.39171
-0.0478256
-0.0286373
0.754008
-0.775145
-0.850426
0.655165
-0.70061
0.563552
-0.558656
0.487641
-0.419796
0.430059
-0.30014
0.390357
-0.208574
0.367411
-0.136159
0.356973
-0.0780742
0.351383
-0.0422349
-0.0253548
0.779014
-0.641666
-0.912494
0.653795
-0.575392
0.546368
-0.451228
0.461183
-0.334612
0.398409
-0.237366
0.355008
-0.165172
0.328481
-0.109632
0.315465
-0.0650585
0.308864
-0.0356335
-0.0214973
0.752998
-0.492423
-0.902241
0.617595
-0.439989
0.506241
-0.339874
0.420197
-0.248568
0.357743
-0.174912
0.31444
-0.121868
0.2869
-0.0820923
0.272241
-0.0503997
0.264749
-0.0281409
-0.0171884
0.685114
-0.345829
-0.831708
0.55272
-0.307595
0.446487
-0.23364
0.366054
-0.168134
0.308411
-0.11727
0.268396
-0.0818527
0.242194
-0.0558907
0.22724
-0.0354461
0.2193
-0.0202004
-0.0126428
0.582625
-0.213858
-0.714596
0.462901
-0.187871
0.369339
-0.140078
0.299977
-0.0987731
0.250972
-0.0682649
0.216938
-0.0478185
0.194132
-0.0330846
0.180339
-0.0216528
0.172657
-0.0125185
-0.00818407
0.448762
-0.105522
-0.557098
0.351185
-0.0902944
0.27707
-0.0659624
0.223545
-0.0452487
0.186302
-0.0310219
0.160393
-0.021909
0.142673
-0.0153641
0.13142
-0.0103998
0.124879
-0.00597755
-0.00423696
0.286593
-0.0302203
-0.361895
0.220913
-0.0246151
0.172496
-0.0175453
0.138719
-0.011471
0.115492
-0.00779518
0.099189
-0.00560597
0.0878251
-0.00400022
0.0802913
-0.00286602
0.0758774
-0.00156367
-0.00132706
0.101316
-0.131536
0.0767009
0.0591556
0.0476846
0.0398894
0.0342834
0.0302832
0.0274172
0.0258535
0.738821
0.0102227
-0.740769
0.733075
0.0284081
0.723436
0.0467427
0.710162
0.0639069
0.693569
0.0791644
0.674074
0.0921837
0.65227
0.103013
0.628708
0.112186
0.604262
0.119285
0.119804
0.845549
0.0133987
-0.848725
0.837321
0.0366358
0.827287
0.0567767
0.816592
0.0746018
0.805249
0.090508
0.792894
0.104539
0.779279
0.116628
0.764582
0.126883
0.749115
0.134752
0.137468
0.844984
0.0114259
-0.843011
0.848884
0.0327357
0.853022
0.0526391
0.856473
0.0711501
0.858835
0.0881466
0.859921
0.103452
0.859596
0.116953
0.857967
0.128513
0.855299
0.13742
0.142341
0.800214
0.00930495
-0.798093
0.805822
0.0271276
0.81442
0.0440412
0.825639
0.0599311
0.839005
0.0747807
0.853855
0.088602
0.869426
0.101382
0.885061
0.112877
0.899948
0.122533
0.129796
0.737866
0.00703917
-0.7356
0.744155
0.0208388
0.754124
0.0340718
0.767505
0.0465506
0.784085
0.0582005
0.803664
0.0690233
0.825993
0.0790525
0.850629
0.0882418
0.876552
0.0966094
0.104107
0.653921
0.00485429
-0.651736
0.660203
0.0145564
0.670379
0.0238965
0.684222
0.0327076
0.701526
0.0408962
0.722113
0.0484363
0.745808
0.0553573
0.772333
0.0617169
0.801222
0.0677202
0.0736211
0.549112
0.0029163
-0.547174
0.554812
0.00885605
0.564138
0.0145706
0.576906
0.0199401
0.592915
0.0248868
0.611969
0.0293827
0.633872
0.0334542
0.658408
0.0371804
0.685382
0.0407467
0.0444068
0.422792
0.00137583
-0.421252
0.427412
0.00423601
0.435007
0.00697564
0.445422
0.00952586
0.45847
0.0118387
0.473957
0.0138957
0.491697
0.0157138
0.511528
0.0173498
0.533347
0.0189273
0.0206564
0.273828
0.000366691
-0.272819
0.276915
0.00114945
0.281999
0.00189174
0.288955
0.0025694
0.297629
0.00316445
0.307856
0.00366912
0.319482
0.00408803
0.332395
0.00443666
0.346562
0.00476041
0.00532325
0.100484
-0.100117
0.101633
0.103525
0.106094
0.109259
0.112928
0.117016
0.121453
0.126213
0.0779354
0.159499
-0.142484
-0.0949498
0.0630304
0.147456
-0.132551
0.0496203
0.134403
-0.120993
0.0376046
0.12033
-0.108315
0.0270273
0.105169
-0.0945921
0.0179783
0.0888937
-0.0798447
0.0105731
0.0714604
-0.0640551
0.00496338
0.0528095
-0.0471998
0.00134803
0.0328745
-0.0292592
0.0116391
-0.0102911
0.0779438
0.17443
-0.0928749
0.0638732
0.161527
0.0508412
0.147435
0.038939
0.132232
0.0282766
0.115832
0.0190005
0.0981698
0.0112897
0.0791712
0.00535962
0.0587396
0.00147722
0.0367569
0.0131163
0.0731819
0.187926
-0.0866777
0.0603717
0.174337
0.0483514
0.159455
0.0372493
0.143335
0.0272035
0.125878
0.0183794
0.106994
0.0109767
0.086574
0.00523535
0.0644809
0.00144962
0.0405426
0.0145659
0.0667729
0.200352
-0.0791986
0.0550344
0.186076
0.0440502
0.17044
0.0339222
0.153463
0.0247667
0.135033
0.016727
0.115034
0.00998166
0.0933194
0.00475145
0.0697111
0.00130964
0.0439844
0.0158756
0.0593139
0.211656
-0.0706182
0.0487163
0.196673
0.038868
0.180288
0.0298415
0.162489
0.0217244
0.14315
0.0146296
0.122128
0.00870232
0.0992466
0.00412642
0.074287
0.00113095
0.0469799
0.0170065
0.0505991
0.22152
-0.0604635
0.0414117
0.205861
0.0329279
0.188772
0.0251975
0.170219
0.0182838
0.150064
0.0122721
0.12814
0.00727494
0.104244
0.00343651
0.0781254
0.000937273
0.0494792
0.0179438
0.0404579
0.229564
-0.0485012
0.0330131
0.213305
0.0261767
0.195608
0.0199774
0.176419
0.0144574
0.155584
0.00967744
0.13292
0.00572041
0.108201
0.00269374
0.0811521
0.000731831
0.0514411
0.0186756
0.0290545
0.235441
-0.0349323
0.0236514
0.218708
0.0187148
0.200545
0.0142552
0.180878
0.0102962
0.159543
0.0068775
0.136339
0.00405557
0.111023
0.00190425
0.0833034
0.000515275
0.05283
0.0191909
0.0169176
0.238926
-0.0204021
0.0137419
0.221884
0.0108549
0.203432
0.00825478
0.183478
0.00595144
0.161846
0.00396645
0.138324
0.00233215
0.112657
0.00109064
0.0845449
0.000293235
0.0536274
0.0194841
0.00482775
-0.00589037
0.00388033
0.00303393
0.00228332
0.00162809
0.00107195
0.000621581
0.000285808
7.49651e-05
0.0436405
0.0413775
-0.0525337
-0.0324844
0.0352674
0.0383294
-0.0299563
0.0276013
0.0349314
-0.0272653
0.0208681
0.031319
-0.0245859
0.0150692
0.0277541
-0.0219552
0.00996346
0.0241971
-0.0190914
0.00543455
0.0200616
-0.0155327
0.00197129
0.0144524
-0.0109891
0.000385563
0.00738934
-0.00580361
0.00208612
-0.00170055
0.043763
0.0505502
-0.0529357
0.0351096
0.0469828
0.0270673
0.0429738
0.0199188
0.0384676
0.0139799
0.033693
0.00925688
0.0289202
0.00550476
0.0238138
0.00257392
0.0173832
0.000620788
0.00934248
0.00270691
0.0449624
0.0601115
-0.0545237
0.036034
0.0559112
0.0277897
0.0512181
0.0203467
0.0459105
0.0140312
0.0400085
0.00910726
0.0338441
0.00552038
0.0274007
0.00289406
0.0200095
0.000809643
0.0114269
0.00351655
0.0473975
0.0703032
-0.0575892
0.0379566
0.0653521
0.0293812
0.0597935
0.0217093
0.0535824
0.0150667
0.0466511
0.00971256
0.0391982
0.00576871
0.0313445
0.00296243
0.0228158
0.000875965
0.0135134
0.00439252
0.0508629
0.0812343
-0.061794
0.0407543
0.0754607
0.0316321
0.0689157
0.0235587
0.0616558
0.0165574
0.0536525
0.0107552
0.0450003
0.00628772
0.035812
0.00306461
0.0260389
0.000881385
0.0156966
0.0052739
0.0545552
0.0928357
-0.0661567
0.0438297
0.0861862
0.0341432
0.0786022
0.0255706
0.0702284
0.018134
0.0610891
0.0118897
0.0512447
0.00693282
0.0407688
0.00328077
0.029691
0.000909262
0.0180681
0.00618316
0.057603
0.104921
-0.0696885
0.0464397
0.0973495
0.0363331
0.0887088
0.0273434
0.0792181
0.0195066
0.0689259
0.0128731
0.0578782
0.0075227
0.0461193
0.0035266
0.0336871
0.000960053
0.0206347
0.00714321
0.0596545
0.117251
-0.0719847
0.0482742
0.10873
0.0379291
0.0990539
0.0286646
0.0884825
0.0205325
0.0770581
0.0136016
0.064809
0.0079632
0.0517577
0.00372257
0.0379277
0.00100554
0.0233517
0.00814875
0.0614643
0.129708
-0.0739206
0.0499643
0.12023
0.0394131
0.109605
0.0298823
0.0980133
0.0214582
0.0854822
0.0142377
0.0720294
0.00833542
0.05766
0.00388497
0.0423781
0.00104201
0.0261946
0.00919076
0.0663175
-0.0790942
0.053996
0.042608
0.0323068
0.023197
0.0153817
0.0089865
0.00416483
0.00110031
0.214066
0.0611346
-0.0772107
0.236662
0.0898013
-0.112398
0.260996
0.123486
-0.14782
0.27601
0.113711
-0.128725
0.275372
0.110316
-0.109678
0.252646
0.179296
-0.156571
0.218603
0.293748
-0.259705
0.174683
0.412314
-0.368393
0.118341
0.494315
-0.437973
0.461359
-0.395552
0.213428
0.0456969
0.234864
0.0683646
0.258275
0.100075
0.273776
0.0982104
0.274724
0.109368
0.25301
0.201011
0.218863
0.327895
0.1745
0.456677
0.118058
0.550756
0.526482
0.213113
0.0305741
0.233689
0.0477877
0.256228
0.0775367
0.271823
0.0826151
0.273053
0.108137
0.25187
0.222194
0.217712
0.362053
0.173271
0.501118
0.117897
0.60613
0.589855
0.213045
0.0155186
0.233147
0.0276857
0.254922
0.055762
0.270248
0.0672894
0.270598
0.107787
0.249337
0.243456
0.215286
0.396104
0.171365
0.545039
0.118434
0.659061
0.6507
0.213171
0.000337447
0.233124
0.00773307
0.254178
0.0347077
0.268625
0.0528427
0.26724
0.109172
0.245457
0.265239
0.211764
0.429797
0.16919
0.587613
0.119796
0.708454
0.708702
0.21345
-0.0151227
0.233441
-0.0122581
0.253719
0.0144298
0.266601
0.0399607
0.262849
0.112924
0.240319
0.287769
0.207385
0.462731
0.167014
0.627984
0.121527
0.753942
0.764072
0.213757
-0.0308903
0.233911
-0.0324116
0.253284
-0.00494289
0.263963
0.029281
0.257386
0.119501
0.234113
0.311042
0.202422
0.494422
0.164827
0.665578
0.122738
0.796031
0.817122
0.213908
-0.046809
0.234375
-0.0528776
0.252636
-0.0232047
0.260483
0.0214347
0.250752
0.129231
0.226948
0.334846
0.196925
0.524446
0.162207
0.700296
0.122412
0.835826
0.867549
0.213803
-0.0626226
0.23476
-0.0738345
0.251623
-0.0400671
0.256182
0.0168753
0.24319
0.142224
0.21918
0.358856
0.191014
0.552612
0.158734
0.732576
0.120155
0.874405
0.913783
0.213692
-0.0783246
0.23499
-0.0951332
0.2502
-0.0552772
0.250689
0.0163869
0.234154
0.158759
0.210172
0.382838
0.18377
0.579013
0.153538
0.762809
0.116471
0.911472
0.95116
0.331879
-0.108194
0.370574
-0.133828
0.406964
-0.0916671
0.424687
-0.00133577
0.439387
0.144059
0.467526
0.354699
0.506619
0.539921
0.549584
0.719844
0.581356
0.879699
0.946028
0.586489
0.333447
-0.139631
0.372975
-0.173356
0.408244
-0.126936
0.423241
-0.0163324
0.436576
0.130724
0.476259
0.315015
0.534392
0.481787
0.604494
0.649742
0.675391
0.808802
0.888448
0.732971
0.336094
-0.173715
0.374968
-0.21223
0.408522
-0.16049
0.419316
-0.0271256
0.428892
0.121148
0.474555
0.269352
0.546744
0.409598
0.638918
0.557567
0.742317
0.705404
0.784353
0.846412
0.340217
-0.211921
0.373052
-0.245066
0.384716
-0.172154
0.3823
-0.0247102
0.399875
0.103573
0.453356
0.215872
0.534404
0.328551
0.640664
0.451307
0.767152
0.578915
0.646989
0.904517
0.348321
-0.258232
0.356306
-0.253051
0.337851
-0.153699
0.335232
-0.0220906
0.359153
0.0796518
0.414318
0.160706
0.497437
0.245431
0.607989
0.340755
0.743798
0.443106
0.495823
0.894963
0.340838
-0.29706
0.321163
-0.233375
0.288125
-0.120662
0.284573
-0.0185385
0.309321
0.054904
0.361291
0.108736
0.439871
0.166852
0.545822
0.234805
0.6788
0.310129
0.347963
0.826659
0.314279
-0.309328
0.27156
-0.190657
0.233787
-0.0828887
0.229005
-0.0137572
0.251331
0.0325781
0.296309
0.0637584
0.36469
0.0984711
0.458364
0.14113
0.578815
0.189679
0.215094
0.711683
0.273776
-0.281094
0.212885
-0.129765
0.174451
-0.044455
0.169009
-0.00831493
0.186454
0.0151336
0.22107
0.0291416
0.274223
0.0453185
0.348703
0.0666497
0.447057
0.0913251
0.106136
0.556016
0.214644
-0.193728
0.140476
-0.055598
0.109431
-0.0134093
0.104197
-0.00308118
0.115476
0.00385448
0.137341
0.00727681
0.171122
0.011537
0.219979
0.0177936
0.28634
0.0249632
0.0304069
0.362069
0.108282
0.0526841
0.0392748
0.0361936
0.0400481
0.0473249
0.0588619
0.0766555
0.101619
0.132026
0.608647
-0.117108
0.632314
-0.116542
0.655134
-0.109498
0.676287
-0.100352
0.695232
-0.0895632
0.71137
-0.0766014
0.724263
-0.061395
0.733591
-0.0442594
0.739076
-0.0258874
-0.00758339
0.750308
-0.134445
0.765213
-0.131447
0.779418
-0.123702
0.792644
-0.113577
0.804709
-0.101628
0.815846
-0.0877381
0.826402
-0.0719512
0.836392
-0.0542494
0.844841
-0.0343368
-0.0114671
0.851036
-0.139069
0.853482
-0.133893
0.854998
-0.125219
0.855376
-0.113956
0.854528
-0.10078
0.852628
-0.0858374
0.849901
-0.0692241
0.846743
-0.0510915
0.843949
-0.0315431
-0.0105295
0.892571
-0.127124
0.878552
-0.119873
0.863869
-0.110535
0.849301
-0.0993881
0.835453
-0.0869322
0.823024
-0.0734081
0.812638
-0.0588387
0.804758
-0.0432109
0.799745
-0.026531
-0.00887661
0.870329
-0.10249
0.845562
-0.0951062
0.821953
-0.0869264
0.800495
-0.0779296
0.781657
-0.0680948
0.765716
-0.0574668
0.752891
-0.0460138
0.743404
-0.0337236
0.737524
-0.0206511
-0.00695312
0.797007
-0.0728369
0.768939
-0.0670386
0.743125
-0.0611124
0.720038
-0.054843
0.699972
-0.0480283
0.683112
-0.0406069
0.669641
-0.0325431
0.659769
-0.0238509
0.653726
-0.014608
-0.00496337
0.682987
-0.0441403
0.656501
-0.0405527
0.632401
-0.0370126
0.610878
-0.0333199
0.592144
-0.0292949
0.576395
-0.0248575
0.563828
-0.0199758
0.554646
-0.0146692
0.549043
-0.00900519
-0.00309446
0.532509
-0.0206337
0.510907
-0.0189506
0.491274
-0.0173792
0.473702
-0.0157485
0.458349
-0.0139419
0.445396
-0.0119043
0.435036
-0.00961586
0.427458
-0.00709057
0.422824
-0.00437131
-0.00152273
0.346787
-0.00535155
0.332645
-0.00480891
0.319751
-0.00448468
0.308136
-0.0041334
0.297907
-0.00371348
0.289214
-0.00321071
0.282218
-0.00261989
0.277075
-0.00194729
0.273913
-0.00120938
-0.000429172
0.126674
0.121865
0.11738
0.113247
0.109534
0.106323
0.103703
0.101756
0.100546
0.000185055
0.0116091
-0.0117941
0.00062373
0.030446
-0.0308847
0.00123715
0.0462411
-0.0468545
0.00197731
0.0594668
-0.0602069
0.00277659
0.0700207
-0.07082
0.0037695
0.0798882
-0.0808811
0.00396343
0.0772664
-0.0774603
0.00408481
0.0700416
-0.070163
0.00394493
0.0610789
-0.0609391
0.0499554
0.00350718
-0.0495177
0.00053339
0.0110757
0.00180385
0.0291756
0.00358504
0.0444599
0.00574119
0.0573106
0.00807274
0.0676892
0.0110395
0.0769214
0.0116759
0.0766301
0.0120807
0.0696367
0.0117735
0.0613862
0.0510778
0.0106512
0.000835489
0.0102402
0.0028318
0.0271793
0.00563906
0.0416526
0.00904146
0.0539082
0.0127393
0.0639913
0.0172473
0.0724135
0.01879
0.0750874
0.0195716
0.0688551
0.0193855
0.0615724
0.0524343
0.018029
0.00105597
0.00918421
0.00359697
0.0246383
0.00719356
0.0380561
0.0115557
0.0495461
0.0163564
0.0591906
0.0217476
0.0670224
0.0250726
0.0717624
0.0263549
0.0675728
0.0266032
0.0613241
0.0535661
0.0254714
0.00115144
0.00803277
0.00397928
0.0218104
0.00804166
0.0339937
0.0129969
0.0445909
0.0185516
0.0536359
0.0245575
0.0610165
0.0299521
0.0663678
0.03209
0.0654349
0.0330113
0.0604027
0.0540909
0.0324866
0.00111148
0.00692129
0.00396597
0.018956
0.00818555
0.0297741
0.0133902
0.0393862
0.019318
0.0477081
0.025772
0.0545625
0.0324159
0.0597239
0.0363125
0.0615383
0.0381243
0.0585909
0.0537068
0.0385083
0.000926234
0.00599506
0.00357296
0.0163092
0.00771066
0.0256364
0.0128817
0.0342152
0.0187867
0.0418031
0.0253383
0.0480109
0.0323211
0.052741
0.0382751
0.0555842
0.0415872
0.0552789
0.0521827
0.0431113
0.000567848
0.00542721
0.00278666
0.0140904
0.00665755
0.0217655
0.0116214
0.0292513
0.0172045
0.0362201
0.0234476
0.0417678
0.0302862
0.0459024
0.0371841
0.0486863
0.042561
0.049902
0.0489241
0.0458196
0.000103832
0.00532338
0.00176864
0.0124256
0.00517583
0.0183583
0.00981509
0.024612
0.0149573
0.0310779
0.0206215
0.0361036
0.0269037
0.0396202
0.0335871
0.0420029
0.0400847
0.0434044
0.0437961
0.0452128
-0.000175581
0.00549897
0.00108691
0.0111631
0.00385605
0.0155892
0.00788673
0.0205813
0.0125013
0.0264634
0.0175716
0.0310332
0.0231772
0.0340147
0.029249
0.0359311
0.0356351
0.0370182
0.0373701
0.0420611
-2.11657e-05
0.00552013
0.00113998
0.010002
0.00327758
0.0134516
0.00641302
0.0174459
0.0102945
0.0225819
0.0148356
0.0264921
0.0199549
0.0288954
0.0254866
0.0303994
0.0312236
0.0312812
0.0316969
0.0368967
0.000377297
0.00514283
0.00153133
0.00884795
0.00317992
0.011803
0.00549033
0.0151355
0.00870875
0.0193634
0.0128931
0.0223077
0.0177437
0.0240448
0.0230097
0.0251334
0.0284998
0.0257911
0.0260617
0.034135
0.000623687
0.00451915
0.00170594
0.0077657
0.00302582
0.0104831
0.00484439
0.0133169
0.00783335
0.0163745
0.0119208
0.0182203
0.0166706
0.0192949
0.0218431
0.019961
0.0273057
0.0203285
0.0204103
0.0329571
0.000676347
0.0038428
0.00164164
0.0068004
0.00282036
0.00930438
0.00470076
0.0114365
0.00797304
0.0131022
0.0122022
0.0139912
0.0170179
0.0144792
0.0222582
0.0147206
0.0278267
0.01476
0.0145995
0.0336375
0.000663566
0.00317923
0.00155346
0.00591049
0.00299399
0.00786385
0.00558068
0.00884982
0.00937304
0.00930983
0.0138965
0.00946771
0.0189414
0.00943436
0.0244082
0.00925379
0.0302289
0.00893923
0.00849641
0.036332
0.000593926
0.0025853
0.00171651
0.0047879
0.0040641
0.00551626
0.00752488
0.00538902
0.0117821
0.00505261
0.0166345
0.00461535
0.0219804
0.00408842
0.0277606
0.00347356
0.0339237
0.00277614
0.0020092
0.0404109
0.000525163
0.00206013
0.00248946
0.0028236
0.00576093
0.00224478
0.00976318
0.00138676
0.0143583
0.000457492
0.0195003
-0.000526692
0.025159
-0.00157029
0.0312916
-0.00265903
0.0378373
-0.00376953
-0.0048896
0.0447361
0.000877093
0.00118303
0.00362582
7.48516e-05
0.00719131
-0.00132071
0.0113805
-0.00280246
0.01618
-0.00434195
0.0216
-0.00594675
0.0275993
-0.0075696
0.0340874
-0.00914705
0.040981
-0.0106632
-0.0121479
0.0482393
0.00150661
-0.000323596
0.00413726
-0.00255581
0.00756123
-0.00474468
0.0117787
-0.00701995
0.0167969
-0.00936011
0.0225374
-0.0116873
0.0288337
-0.0138659
0.0355647
-0.015878
0.0427043
-0.0178028
-0.0196963
0.0502528
0.00105546
0.0031491
0.00647279
0.0109425
0.0163251
0.0223029
0.0287149
0.0355921
0.0430014
0.0509213
0.0513909
0.0837743
-0.0982685
0.0772624
-0.00739708
-0.0184745
0.099873
-0.0510683
0.0284578
0.113524
-0.0469838
0.0333326
0.121455
-0.02669
0.0187595
0.125044
-0.00786147
0.00427202
0.126047
0.00348605
-0.00448886
0.126247
0.00700685
-0.00720705
0.126524
0.0065796
-0.00685606
0.00378491
-0.00483389
0.0585907
0.0593185
0.0916302
-0.0404366
0.118792
-0.0782299
0.134775
-0.062967
0.143467
-0.0353821
0.147086
-0.0114803
0.147798
0.00277464
0.147652
0.00715287
0.147657
0.00657465
0.00302634
0.0666087
0.0256669
0.105016
-0.0788439
0.136013
-0.109227
0.155618
-0.0825716
0.165579
-0.0453436
0.169263
-0.0151637
0.16957
0.00246762
0.16891
0.00781284
0.168466
0.00701878
0.00271305
0.0754982
-0.0161938
0.117862
-0.121208
0.151753
-0.143118
0.175118
-0.105936
0.187126
-0.0573523
0.191137
-0.0191746
0.19107
0.00253554
0.189835
0.00904736
0.188848
0.0080062
0.00294211
0.0845653
-0.0644271
0.129702
-0.166345
0.16576
-0.179176
0.192434
-0.132611
0.207346
-0.0722637
0.212282
-0.0241109
0.212028
0.00278923
0.210252
0.0108237
0.208697
0.00956108
0.00375541
0.0930376
-0.117054
0.140201
-0.213508
0.177941
-0.216917
0.207177
-0.161846
0.225378
-0.0904647
0.232156
-0.0308892
0.232124
0.00282156
0.229959
0.012989
0.227895
0.0116251
0.00513469
0.100252
-0.17257
0.149084
-0.26234
0.188201
-0.256033
0.219267
-0.192913
0.240525
-0.111723
0.250118
-0.0404818
0.25099
0.00194996
0.248731
0.0152475
0.246306
0.0140506
0.00699887
0.105858
-0.230189
0.156227
-0.312709
0.196484
-0.29629
0.228812
-0.225242
0.252463
-0.135373
0.265434
-0.0534528
0.268176
-0.000792341
0.266306
0.0171177
0.263772
0.0165843
0.0091999
0.109837
-0.289773
0.161661
-0.364533
0.202817
-0.337447
0.235988
-0.258413
0.261238
-0.160623
0.277462
-0.0696765
0.283126
-0.00645612
0.282355
0.0178887
0.280098
0.0188413
0.0115111
0.112502
0.165558
0.207339
0.240991
0.267168
0.285916
0.295158
0.296454
0.295035
0.0131993
0.00607858
-0.0192779
0.0109835
0.0022158
0.0114971
-0.000513549
0.0129156
-0.00141853
0.0136224
-0.000706864
0.0137353
-0.000112819
0.0135116
0.000223711
0.0131806
0.000330996
0.012923
0.000257564
0.000302726
0.0372451
0.0232184
-0.054385
0.0314771
0.00798386
0.0339722
-0.00300873
0.0380152
-0.00546149
0.0401683
-0.00285997
0.0405518
-0.000496282
0.0399147
0.000860794
0.0389772
0.00126854
0.0381206
0.00111417
0.00100634
0.0579582
0.0481045
-0.0828443
0.0508545
0.0150875
0.0558405
-0.00799475
0.0623972
-0.0120182
0.0660358
-0.00649863
0.0667697
-0.00123015
0.0657823
0.00184828
0.0642811
0.0027697
0.0628446
0.00255072
0.0020342
0.073894
0.075418
-0.101207
0.0680411
0.0209404
0.0763764
-0.0163301
0.085681
-0.0213228
0.0909628
-0.0117804
0.0921884
-0.00245578
0.0909481
0.00308865
0.0889427
0.00477507
0.0869998
0.00449361
0.00333167
0.0813846
-0.104235
0.0838504
0.095978
0.107988
0.114967
0.116783
0.115383
0.112951
0.110589
0.00273364
-0.000172924
-0.00256072
0.00326451
-0.000530867
0.00417674
-0.000912224
0.00548778
-0.00131105
0.00718418
-0.0016964
0.00922873
-0.00204455
0.0115853
-0.00235658
0.0141736
-0.00258829
0.0168587
-0.00268507
-0.00241926
0.00778735
-0.000645692
-0.00731458
0.00923423
-0.00197775
0.0117136
-0.00339157
0.0152699
-0.0048674
0.0198842
-0.00631063
0.0254821
-0.00764251
0.0319644
-0.00883885
0.0391557
-0.00977962
0.0467669
-0.0102962
-0.0100374
0.0124779
-0.00138374
-0.0117399
0.0147276
-0.00422742
0.0185604
-0.00722441
0.0240244
-0.0103313
0.0310789
-0.0133652
0.0395857
-0.0161493
0.0493276
-0.0185807
0.0600508
-0.0205028
0.0714145
-0.02166
-0.0214671
0.0168073
-0.00234768
-0.0158433
0.0197315
-0.00715163
0.0246747
-0.0121676
0.0316511
-0.0173078
0.0405496
-0.0222637
0.0511057
-0.0267054
0.0629368
-0.0304118
0.0756933
-0.0332593
0.0888592
-0.0348259
-0.0338155
0.0207928
-0.0196333
0.0242923
0.0301537
0.0383173
0.0485402
0.0603431
0.0730426
0.0856028
0.0959896
0.0314523
-0.0313025
0.0371086
-0.0372584
0.0255908
-0.0308995
0.0367609
0.0199314
-0.0300668
0.0357263
0.0146839
-0.0286709
0.0339184
0.0100628
-0.0264627
0.0310837
0.00620641
-0.0227763
0.0266327
0.00311506
-0.017647
0.0207383
0.00101836
-0.0136215
0.0157182
-8.61468e-05
-0.0101606
0.0112651
-0.00564083
0.00555469
0.0294727
-0.0254378
-0.0353374
0.0237557
-0.0251824
0.0182645
-0.0245757
0.0131772
-0.0235835
0.00874636
-0.0220318
0.00535409
-0.019384
0.0030222
-0.0153151
0.00139824
-0.0119976
0.000299166
-0.00906154
-0.00534166
0.0294464
-0.0194485
-0.0354358
0.0236412
-0.0193772
0.0181227
-0.0190572
0.013008
-0.0184688
0.00849984
-0.0175236
0.00504906
-0.0159332
0.00300827
-0.0132743
0.00164734
-0.0106366
0.000583928
-0.00799813
-0.00475773
0.031363
-0.0131849
-0.0376266
0.0253341
-0.0133482
0.0196231
-0.0133462
0.0143166
-0.0131622
0.00955327
-0.0127603
0.00565776
-0.0120377
0.00320172
-0.0108182
0.00176407
-0.00919898
0.000728499
-0.00696255
-0.00402923
0.0349532
-0.0065307
-0.0416074
0.0285809
-0.00697588
0.0225625
-0.00732779
0.0169642
-0.00756397
0.0118769
-0.00767301
0.00748482
-0.00764562
0.00413875
-0.00747213
0.00199499
-0.00705521
0.00079911
-0.00576666
-0.00323011
0.0392561
0.000573871
-0.0463607
0.0324768
-0.000196465
0.0260949
-0.000945921
0.020185
-0.00165404
0.0148076
-0.00229558
0.0100258
-0.00286381
0.00592326
-0.00336964
0.00267391
-0.00380585
0.000720547
-0.00381328
-0.00250956
0.0430746
0.00808584
-0.0505866
0.0359029
0.00697529
0.029125
0.005832
0.0228406
0.00463035
0.0171514
0.0033936
0.0120968
0.00219076
0.00765867
0.00106855
0.00384382
8.99833e-06
0.000977984
-0.00094743
-0.00153157
0.0453377
0.0158833
-0.0531352
0.0379161
0.0143969
0.0308681
0.01288
0.0242303
0.0112682
0.0181457
0.00947822
0.0127994
0.00753704
0.00826957
0.00559842
0.00453234
0.00374624
0.00162765
0.00195727
9.60938e-05
0.0454865
0.0239779
-0.053581
0.0378759
0.0220075
0.0307526
0.0200033
0.0240301
0.0179907
0.0176771
0.0158312
0.0118884
0.0133258
0.00703938
0.0104475
0.00341396
0.00737166
0.00114603
0.00422521
0.00124212
0.0444351
-0.0529416
0.0364863
0.0292243