# Selection   : all
# Cells       : 1800
# Volume      : 7.372328e+01
# Time        	min(p)
0.65          	-3.855800e+00
0.675         	-3.321565e+00
0.7           	-3.239672e+00
