/*--------------------------------*- C++ -*----------------------------------*\
  =========                 |
  \\      /  F ield         | OpenFOAM: The Open Source CFD Toolbox
   \\    /   O peration     | Website:  https://openfoam.org
    \\  /    A nd           | Version:  13
     \\/     M anipulation  |
\*---------------------------------------------------------------------------*/
FoamFile
{
    format      ascii;
    class       surfaceScalarField;
    location    "0.055";
    object      phi;
}
// * * * * * * * * * * * * * * * * * * * * * * * * * * * * * * * * * * * * * //

dimensions      [0 3 -1 0 0 0 0];

internalField   nonuniform List<scalar> 
823
(
0.0112079
-0.0507923
0.0395844
0.0381476
-0.134008
0.107068
0.0774944
-0.206715
0.167368
0.127797
-0.269907
0.219604
-0.324314
0.261666
0.190445
0.010605
-0.0613973
0.0357733
-0.159176
0.071827
-0.242769
0.116523
-0.314603
-0.375945
0.168154
0.00831794
-0.0697152
0.0280596
-0.178918
0.0562379
-0.270947
0.0909881
-0.349353
-0.416034
0.131077
0.00526276
-0.074978
0.0178593
-0.191514
0.0359482
-0.289036
0.0584344
-0.37184
-0.442228
0.084628
0.0019384
-0.0769164
0.00654553
-0.196121
0.0131186
-0.295609
0.0212502
-0.379971
0.0306859
-0.451663
0.00453835
-0.0131354
0.008597
0.017708
-0.0367931
0.0236234
0.0394956
-0.0573358
0.0355482
0.0682341
-0.0742246
0.0454861
-0.0876521
0.102059
0.0538269
0.00480627
-0.0179416
0.0185217
-0.0505085
0.0414046
-0.0802187
0.0725694
-0.105389
-0.12525
0.110167
0.0059469
-0.0238885
0.0219386
-0.0665002
0.0473892
-0.105669
0.0816508
-0.139651
-0.166918
0.123319
0.00721864
-0.0311072
0.0258643
-0.0851458
0.0544489
-0.134254
0.0919349
-0.177137
-0.212248
0.137265
0.00847722
0.0303993
0.0635138
0.105981
0.155399
0.328302
-1.03023
0.803991
0.44617
-0.684814
0.566945
0.484253
-0.299346
0.261263
0.491755
-0.12508
0.117578
-0.0261284
0.03208
0.327653
-1.24772
0.447366
-0.804526
0.487543
-0.339524
0.495649
-0.133185
-0.0220426
0.324983
-1.44938
0.442222
-0.921765
0.485988
-0.383289
0.497334
-0.144531
-0.0224611
0.322491
-1.63461
0.433307
-1.03258
0.480264
-0.430246
0.496716
-0.160984
-0.0298913
0.313357
-1.79257
0.417987
-1.13721
0.469378
-0.481637
0.493591
-0.185197
-0.04677
1.13941
-1.59489
-1.33709
0.9357
-0.933503
0.837803
-0.383741
0.800039
-0.147432
-0.0376402
1.29422
-1.11814
-1.77097
0.991829
-0.63111
0.862723
-0.254635
0.812176
-0.0968848
-0.0245363
1.19117
-0.603031
-1.70628
0.886102
-0.326043
0.76739
-0.135922
0.719515
-0.0490102
-0.0117354
0.817024
-0.184441
-1.23562
0.582551
-0.0915695
0.485712
-0.0390832
0.451082
-0.0143806
-0.00335577
0.304262
-0.488702
0.212692
0.173609
0.159228
1.56252
0.0459412
-1.57777
1.52111
0.126036
1.46161
0.190579
1.39472
0.23504
0.24808
1.66332
0.0353561
-1.65274
1.68709
0.102265
1.71829
0.159384
1.75131
0.202021
0.228415
1.37857
0.0182738
-1.36149
1.42766
0.0531705
1.50463
0.0824216
1.60122
0.105429
0.123357
0.969789
0.00526085
-0.956776
1.00766
0.0152949
1.0672
0.0228855
1.14492
0.0277103
0.0326614
0.39015
-0.384889
0.405445
0.428331
0.456041
0.126864
0.327889
-0.26575
-0.189004
0.0770189
0.273669
-0.223824
0.0379702
0.210261
-0.171212
0.0111761
0.136827
-0.110033
0.052143
-0.0409669
0.114726
0.378715
-0.165552
0.0707438
0.317651
0.0352491
0.245755
0.010453
0.161623
0.062596
0.0882614
0.417903
-0.12745
0.054432
0.351481
0.0270981
0.273089
0.0080103
0.180711
0.0706063
0.0551116
0.443157
-0.0803654
0.0336654
0.372927
0.0166017
0.290153
0.00484891
0.192463
0.0754552
0.0176194
-0.0261255
0.010575
0.00511902
0.00146116
0.0692835
0.0931033
-0.103994
-0.0583929
0.0397856
0.0795589
-0.0500612
0.01757
0.0619781
-0.0397625
0.00439635
0.0400185
-0.0268449
0.0144742
-0.0100779
0.0727293
0.130971
-0.110597
0.0413895
0.110899
0.0185034
0.0848643
0.0048137
0.0537081
0.0192879
0.081304
0.172381
-0.122714
0.0472706
0.144932
0.0219825
0.110152
0.00599549
0.0696952
0.0252834
0.0911596
0.217094
-0.135872
0.0541483
0.181943
0.0258363
0.138464
0.00725031
0.0882811
0.0325337
0.104813
-0.153469
0.0629325
0.0301848
0.00843318
0.461245
0.170721
-0.235986
0.476515
0.203257
-0.218528
0.446936
0.323727
-0.294148
0.333976
0.684146
-0.571186
1.05894
-0.828958
0.457419
0.109282
0.475247
0.185429
0.445538
0.353436
0.330452
0.799231
1.27879
0.454697
0.0505646
0.471145
0.168982
0.438115
0.386466
0.324536
0.91281
1.48062
0.452741
-0.0061967
0.46493
0.156793
0.427632
0.423763
0.319603
1.02084
1.66435
0.452115
-0.0623316
0.454924
0.153984
0.41137
0.467317
0.308594
1.12362
1.81947
0.737493
-0.195804
0.8129
0.0785774
0.915718
0.364498
1.12477
0.914568
1.60259
1.34164
0.760766
-0.352549
0.844211
-0.0048683
0.973166
0.235544
1.27267
0.615062
1.11675
1.75851
0.718569
-0.467098
0.783439
-0.0697381
0.888058
0.130924
1.18263
0.320495
0.601235
1.69814
0.506839
-0.369917
0.495326
-0.0582244
0.585912
0.0403387
0.816345
0.0900613
0.184069
1.23351
0.234103
0.175879
0.216218
0.306279
0.490348
1.39874
-0.246102
1.46309
-0.229898
1.52133
-0.185693
1.56247
-0.121505
-0.041427
1.73969
-0.227279
1.70832
-0.198529
1.67947
-0.15684
1.65903
-0.101065
-0.0351341
1.59457
-0.123711
1.50083
-0.104784
1.42589
-0.0819038
1.37797
-0.0531401
-0.0186554
1.14306
-0.0332603
1.06625
-0.0279743
1.00739
-0.0230424
0.9698
-0.0155508
-0.00563074
0.457088
0.429113
0.406071
0.39052
0.00261679
0.0456568
-0.0482736
0.00763964
0.1066
-0.111623
0.0165903
0.155304
-0.164254
0.0172885
0.158982
-0.159681
0.120286
0.0155926
-0.118591
0.00717685
0.03848
0.0211144
0.0926622
0.0424345
0.133984
0.0501771
0.15124
0.122381
0.0480824
0.00936717
0.0291128
0.0285887
0.0734406
0.0546399
0.107932
0.0761169
0.129763
0.119801
0.0786969
0.00839215
0.0207207
0.0271793
0.0546534
0.052672
0.0824398
0.0814852
0.10095
0.104763
0.0965234
0.00543875
0.0152819
0.0190759
0.0410163
0.0391711
0.0623445
0.0639245
0.0761962
0.081536
0.0871513
0.00373858
0.0115433
0.0140538
0.030701
0.0313585
0.0450398
0.0538145
0.0537401
0.0579524
0.0773981
0.00295366
0.00858966
0.0128079
0.0208468
0.0302734
0.0275742
0.0529236
0.0310899
0.0326153
0.0782608
0.00379475
0.00479491
0.0170864
0.00755521
0.0369705
0.0076901
0.0610783
0.0069822
0.00562717
0.0880664
0.0072094
-0.00241447
0.0234275
-0.00866283
0.0448113
-0.0136937
0.0702597
-0.0184661
-0.0229538
0.0988407
0.00618257
0.0211432
0.0429977
0.0700177
0.100891
0.180688
-0.000594052
-0.102696
0.269703
-0.131888
0.0428725
0.306798
-0.0799781
0.0428839
0.332326
-0.0458572
0.0203293
-0.0224187
0.00601985
0.247924
-0.170257
0.352055
-0.236019
0.400082
-0.128005
0.426344
-0.072119
-0.0345057
0.286419
-0.36861
0.394909
-0.344508
0.445497
-0.178593
0.467215
-0.0938367
-0.038977
0.311133
-0.580902
0.420297
-0.453672
0.463883
-0.222179
0.478114
-0.108068
-0.0372417
0.323979
0.437253
0.476337
0.485847
0.07337
0.0396287
-0.112999
0.0833922
-0.0100222
0.0957899
-0.0123976
0.101225
-0.00543525
-0.00152285
0.213611
-0.276678
0.246461
0.276948
0.291842
0.0220743
-0.00458616
-0.0174881
0.0363221
-0.0142478
0.0596489
-0.0233267
0.0891592
-0.0295103
-0.0238395
0.0571485
-0.0461421
0.0909831
0.146353
0.213366
0.054263
-0.0575552
0.0813375
-0.0780453
0.0315349
-0.0533696
0.0760976
0.0140262
-0.0449196
0.0624283
0.00369383
-0.0308391
0.0411714
-0.0116798
0.0153736
0.0553541
-0.0315022
-0.0814071
0.0319398
-0.0299554
0.013646
-0.0266258
0.00313481
-0.020328
-0.00854504
0.0654821
-0.0035368
-0.0934475
0.0403412
-0.00481467
0.0193406
-0.00562522
0.00482027
-0.0058077
-0.0037248
0.0744109
0.0262343
-0.104182
0.0477635
0.0218326
0.0252268
0.0169115
0.00798192
0.0114371
0.00425709
0.0723083
-0.104467
0.0440797
0.0212286
0.0058208
0.0172925
-0.120282
-0.0156009
0.0165817
-0.15897
0.00761335
-0.155286
0.00260196
-0.106611
-0.0456717
0.0501831
-0.122361
-0.048104
0.042403
-0.15119
0.021095
-0.133978
0.00716714
-0.0926833
-0.0385045
0.076116
-0.119726
-0.0787509
0.054609
-0.129683
0.0285738
-0.107943
0.00936233
-0.0734718
-0.0291422
0.0813712
-0.104586
-0.0965116
0.0525696
-0.100881
0.027117
-0.0824903
0.00837224
-0.0547271
-0.02077
0.0637975
-0.0870459
0.039014
0.018952
0.00539633
0.374765
0.523807
-0.502592
0.330308
0.176808
-0.132351
0.277562
0.0996697
-0.0469235
0.185927
0.139128
-0.0474937
0.0089785
0.0989034
0.455943
0.463844
0.425419
0.207332
0.362638
0.162451
0.256051
0.245715
0.183622
0.477181
0.382642
0.459779
0.224733
0.404644
0.217586
0.295798
0.354561
0.385973
0.472292
0.30633
0.469874
0.227151
0.427271
0.260189
0.320011
0.461821
0.601802
0.466323
0.474947
0.440988
0.331623
0.163814
0.346237
0.0976197
0.0661943
0.0872372
0.0103825
0.0747307
0.0125065
-0.0383962
0.113127
0.353696
0.287539
0.250997
0.21601
0.276517
0.0892164
0.0239104
0.0596872
0.0295292
0.0363359
0.0233513
0.0220782
0.0142577
0.00459008
0.213381
0.146399
0.0909991
0.0571529
)
;

boundaryField
{
    left
    {
        type            calculated;
        value           nonuniform List<scalar> 
17
(
-0.60402
-0.60402
-0.60402
-0.60402
-0.60402
-0.39598
-0.39598
-0.39598
-0.39598
-0.39598
-0.39598
-0.39598
-0.39598
-0.39598
-0.39598
-0.510051
-0.510051
)
;
    }
    right
    {
        type            calculated;
        value           nonuniform List<scalar> 
17
(
0.102748
0.296339
0.348724
0.438431
0.471686
0.476379
0.480685
0.485803
0.491563
0.497753
0.504146
0.51047
0.790909
0.799072
0.706714
0.442703
0.155873
)
;
    }
    down
    {
        type            calculated;
        value           uniform 0;
    }
    up
    {
        type            calculated;
        value           uniform 0;
    }
    cylinder
    {
        type            calculated;
        value           uniform 0;
    }
    defaultFaces
    {
        type            empty;
    }
}


// ************************************************************************* //
