/*--------------------------------*- C++ -*----------------------------------*\
  =========                 |
  \\      /  F ield         | OpenFOAM: The Open Source CFD Toolbox
   \\    /   O peration     | Website:  https://openfoam.org
    \\  /    A nd           | Version:  13
     \\/     M anipulation  |
\*---------------------------------------------------------------------------*/
FoamFile
{
    format      ascii;
    class       volScalarField;
    location    "0.055";
    object      strainRateViscosityModel:nu;
}
// * * * * * * * * * * * * * * * * * * * * * * * * * * * * * * * * * * * * * //

dimensions      [0 2 -1 0 0 0 0];

internalField   nonuniform List<scalar> 
440
(
9.43525
8.97866
8.52653
7.97458
7.45578
9.69371
9.35926
8.97084
8.44301
7.79807
9.80168
9.53003
9.15149
8.56246
7.80322
9.84975
9.61678
9.25327
8.63317
7.84515
9.86902
9.65449
9.30154
8.67096
7.90435
2.17759
2.0808
2.17759
2.36707
2.46802
4.27397
3.67169
3.37302
3.27763
3.34772
6.39645
5.55236
4.9653
4.51446
4.48929
7.96976
7.12639
6.42682
5.71852
5.56632
8.8838
8.19299
7.53068
6.77472
6.6777
1.98811
0.49812
0.101136
0.021061
0.0106931
2.65085
0.589325
0.121566
0.0235117
0.0108717
3.43943
0.86529
0.141359
0.0262591
0.0109984
3.95723
1.26417
0.162727
0.0280647
0.0110372
4.39554
1.74205
0.263737
0.0325106
0.0110391
4.28702
2.00185
0.322405
0.0330472
0.0107543
3.97225
1.41903
0.128775
0.0166147
0.0131614
4.66159
2.2907
0.697488
0.502193
0.489567
6.91399
4.13914
2.50195
2.01858
1.84951
8.23481
5.20155
3.43222
2.71343
2.4134
2.64013
3.498
4.44401
5.32392
5.95671
3.82852
3.81845
3.88514
3.97554
3.53378
8.17768
8.03514
7.73617
7.29895
6.22242
9.02581
8.96375
8.8269
8.58241
8.1098
9.59331
9.55533
9.4698
9.31665
9.09272
7.38454
7.94585
8.53592
9.01356
9.47583
7.71791
8.4119
8.97201
9.37583
9.71093
7.73294
8.53414
9.14958
9.53829
9.80967
7.79343
8.61173
9.25065
9.62052
9.85337
7.8856
8.66309
9.30048
9.65559
9.87008
2.58892
2.50034
2.35294
2.34689
2.67662
3.40034
3.35183
3.54129
3.97842
4.7895
4.47611
4.53451
5.09746
5.80127
6.77023
5.50391
5.69374
6.50129
7.279
8.17714
6.60159
6.72151
7.55518
8.26917
8.98206
0.0765476
0.0436797
0.0881546
0.44968
2.04537
0.0669498
0.0621556
0.106312
0.53024
2.67241
0.0591565
0.0884308
0.129512
0.791827
3.41963
0.0519771
0.12292
0.154701
1.18802
3.89727
0.0519172
0.163785
0.253965
1.67321
4.26263
0.0612791
0.245622
0.29349
1.96147
4.22105
0.192204
0.228502
0.0993673
1.40281
4.04448
0.2435
0.470429
0.457949
2.1311
4.59494
1.67377
1.98222
2.33798
4.06324
6.86025
4.93373
3.76768
3.48473
5.25312
8.25246
5.81621
5.1376
4.27118
3.35991
2.58734
3.66268
4.08128
4.04743
3.96467
3.8919
6.17087
7.25322
7.71094
8.01582
8.1703
8.07079
8.56214
8.81856
8.96081
9.0252
9.09327
9.31767
9.47082
9.5562
9.59366
9.46021
8.18562
1.56478
3.89976
8.04667
9.28332
7.78045
3.45971
1.85254
7.14164
8.73881
7.02476
4.5557
1.1431
4.54798
7.373
5.64518
3.91217
1.92705
1.21149
5.12078
3.66951
2.47175
1.72667
0.52253
3.05304
2.03254
1.46631
1.25682
1.32586
1.57505
1.07218
1.04606
1.13016
1.186
0.624448
0.726211
1.04463
1.24919
1.31547
0.147611
0.777885
1.20664
1.45876
1.53813
0.75608
1.19635
1.53599
1.81491
1.90461
0.151499
0.365945
0.776751
1.00458
1.1023
0.662993
0.376163
0.266334
0.280183
0.267847
0.846038
0.350677
0.0812097
0.0323552
0.0163999
1.21951
0.411613
0.0687095
0.0179745
0.0103754
1.53953
0.454278
0.0816755
0.0190881
0.0104994
1.26904
0.984389
1.49823
1.83067
2.00214
0.359798
0.711716
1.20152
1.46431
1.59672
9.3827
9.09618
8.17422
6.26579
3.99774
8.86386
8.10355
6.35067
3.97604
1.06614
1.34313
1.28561
1.48443
2.04492
3.09818
1.25329
1.21256
1.1213
1.11861
1.6064
1.42284
1.37406
1.16683
0.827477
0.627273
1.68222
1.62118
1.36374
0.915269
0.186119
2.06381
1.99034
1.7222
1.38112
1.02377
8.04614
3.89734
1.56545
8.18412
9.46037
7.13815
1.85361
3.45482
7.77765
9.28396
4.53846
1.1489
4.54164
7.02076
8.74059
1.21388
1.92302
3.89369
5.638
7.37943
0.530983
1.71896
2.45628
3.66185
5.14251
0.804454
1.12229
0.754299
0.406641
0.14866
0.278747
0.16114
0.310072
0.395427
0.704697
0.163004
0.0224377
0.11746
0.348756
0.908004
0.105528
0.0319309
0.0842333
0.388105
1.2959
0.0878042
0.0338793
0.0792047
0.416274
1.61612
5.37125
3.18713
1.56656
1.05921
1.28981
2.59685
1.81721
1.24567
0.746072
0.346747
4.00115
6.2683
8.17517
9.09658
9.38281
1.05707
3.96036
6.34513
8.10223
8.86369
)
;

boundaryField
{
    left
    {
        type            calculated;
        value           nonuniform List<scalar> 
17
(
0.676475
0.917918
1.51161
3.53861
6.54351
0.785717
0.74608
0.715155
0.687814
0.674351
2.57649
1.55355
1.09221
0.909433
0.835344
6.94159
4.46248
)
;
    }
    right
    {
        type            calculated;
        value           nonuniform List<scalar> 
17
(
2.00411
1.59118
1.09037
0.257791
0.0149621
0.0101405
0.0101761
0.0102405
0.0102984
0.0103376
0.0103468
0.0103496
0.0102327
0.0144903
0.509958
1.86372
2.40893
)
;
    }
    down
    {
        type            calculated;
        value           nonuniform List<scalar> 
20
(
5.91059
3.6478
1.65955
1.10673
1.9167
4.64966
6.86006
8.49596
9.24311
9.47852
9.47839
9.24258
8.4945
6.85695
4.64291
1.89518
1.0153
1.56393
1.92122
2.10177
)
;
    }
    up
    {
        type            calculated;
        value           nonuniform List<scalar> 
20
(
8.5174
5.54027
3.70137
2.90693
2.56604
9.68573
9.6553
9.58566
9.45796
9.27349
9.2783
9.46111
9.58771
9.65662
9.6862
5.60089
4.2431
3.7615
5.61874
8.54417
)
;
    }
    cylinder
    {
        type            calculated;
        value           nonuniform List<scalar> 
40
(
2.39717
4.51798
6.62606
8.15749
9.01801
9.51989
9.74926
9.84173
9.88167
9.89743
9.55888
9.76517
9.84893
9.8849
9.89838
2.96113
5.07309
7.0189
8.36967
9.11595
3.51402
1.97635
0.939793
0.121782
1.22192
9.62967
9.48859
9.03095
7.78637
5.59453
9.62951
9.48789
9.02879
7.77832
5.56714
3.45524
1.92507
0.935214
0.112154
0.875084
)
;
    }
    defaultFaces
    {
        type            empty;
    }
}


// ************************************************************************* //
