/*--------------------------------*- C++ -*----------------------------------*\
  =========                 |
  \\      /  F ield         | OpenFOAM: The Open Source CFD Toolbox
   \\    /   O peration     | Website:  https://openfoam.org
    \\  /    A nd           | Version:  13
     \\/     M anipulation  |
\*---------------------------------------------------------------------------*/
FoamFile
{
    format      ascii;
    class       volVectorField;
    location    "0.055";
    object      U;
}
// * * * * * * * * * * * * * * * * * * * * * * * * * * * * * * * * * * * * * //

dimensions      [0 1 -1 0 0 0 0];

internalField   nonuniform List<vector> 
440
(
(0.219766 -0.177897 -1.74568e-19)
(0.616108 -0.440398 1.04367e-18)
(0.988106 -0.647443 3.29151e-19)
(1.3313 -0.805026 1.42649e-18)
(1.63567 -0.928526 -2.75899e-19)
(0.305838 -0.178266 -5.44969e-19)
(0.821022 -0.430482 -9.89089e-19)
(1.28218 -0.621999 1.54231e-19)
(1.69378 -0.766217 -1.24312e-18)
(2.05477 -0.880865 -1.05274e-18)
(0.385464 -0.152672 -7.00315e-19)
(1.00569 -0.363797 1.52675e-18)
(1.54069 -0.51974 -1.8846e-18)
(2.00521 -0.634632 1.5965e-18)
(2.40568 -0.72409 1.36864e-18)
(0.446211 -0.102849 5.6915e-19)
(1.14647 -0.243397 -1.28783e-18)
(1.7375 -0.345371 -8.16839e-19)
(2.24251 -0.419057 1.91837e-18)
(2.67337 -0.475628 2.57154e-18)
(0.479436 -0.0361899 6.94341e-19)
(1.2236 -0.0848928 1.76967e-19)
(1.84542 -0.119654 2.53797e-18)
(2.37306 -0.144333 -1.09508e-18)
(2.82141 -0.163187 -5.02343e-19)
(-0.0017286 -0.0681672 1.06417e-19)
(0.0415645 -0.187549 4.78635e-20)
(0.0966381 -0.284756 1.07001e-18)
(0.162061 -0.361597 -2.31755e-19)
(0.230641 -0.42349 -2.4371e-18)
(0.0168302 -0.0947436 -3.26461e-19)
(0.089917 -0.257255 -8.82611e-19)
(0.17366 -0.399434 1.42289e-20)
(0.267061 -0.51215 9.1351e-21)
(0.36245 -0.596426 6.95953e-20)
(0.0472816 -0.120785 1.83719e-19)
(0.170491 -0.322681 8.47104e-19)
(0.301609 -0.501509 2.19203e-19)
(0.438078 -0.645721 1.03122e-18)
(0.572228 -0.750258 -1.87864e-20)
(0.0899376 -0.145072 6.88762e-20)
(0.281938 -0.380197 -9.68681e-20)
(0.476176 -0.584651 3.74751e-19)
(0.668357 -0.749594 -1.67908e-18)
(0.850315 -0.867018 9.28697e-19)
(0.144452 -0.16406 -2.42559e-19)
(0.424392 -0.420017 -4.2634e-19)
(0.696678 -0.633999 -6.57547e-19)
(0.95574 -0.800796 8.19831e-19)
(1.18993 -0.914988 3.09678e-18)
(0.586827 -0.639675 -2.09215e-18)
(0.973995 -0.434806 -7.02776e-19)
(1.14333 -0.198444 1.07501e-20)
(1.19922 -0.0879761 -3.9199e-19)
(1.22673 -0.0238483 -1.56763e-19)
(0.769348 -0.79655 3.96281e-18)
(1.03273 -0.520259 2.22369e-20)
(1.18766 -0.229258 -3.37199e-19)
(1.2241 -0.098865 -2.38978e-19)
(1.24129 -0.0264872 2.82273e-19)
(1.01964 -0.931282 7.74275e-19)
(1.13169 -0.599558 9.28597e-19)
(1.23328 -0.256947 2.39828e-19)
(1.25146 -0.107264 -1.7064e-19)
(1.25694 -0.0283584 -1.60776e-19)
(1.31684 -1.03679 1.75837e-18)
(1.28442 -0.660688 -1.83305e-19)
(1.28476 -0.278523 -9.62497e-20)
(1.28035 -0.112435 2.65597e-19)
(1.27311 -0.0293443 -9.26186e-20)
(1.62029 -1.08842 -1.93392e-19)
(1.45783 -0.702015 4.95654e-19)
(1.34064 -0.297723 0)
(1.3084 -0.114732 -1.73026e-20)
(1.2891 -0.029333 7.3785e-20)
(2.13807 -1.13012 -1.95739e-18)
(1.7089 -0.683179 -8.42811e-19)
(1.45188 -0.281459 5.71452e-20)
(1.35009 -0.105862 -2.65562e-19)
(1.3094 -0.0267188 -2.13956e-19)
(2.5844 -0.890623 -1.64261e-18)
(1.85696 -0.518294 2.23142e-18)
(1.51148 -0.211925 6.08265e-20)
(1.37921 -0.0805035 1.68355e-19)
(1.32295 -0.0201265 0)
(2.46881 -0.518152 -7.12984e-18)
(1.64965 -0.27634 -1.7586e-19)
(1.34565 -0.115609 2.00786e-18)
(1.22466 -0.0457777 -2.84808e-19)
(1.17023 -0.011869 3.43475e-20)
(1.75036 -0.214415 7.12012e-18)
(1.09785 -0.107063 1.61438e-18)
(0.854141 -0.0439545 3.57732e-19)
(0.767988 -0.0165312 4.47215e-33)
(0.733423 -0.00431273 -3.12321e-19)
(0.678341 -0.000623011 1.74788e-18)
(0.39948 0.0206586 8.21409e-19)
(0.30762 0.0108796 -2.44921e-19)
(0.273239 0.00554052 1.52024e-19)
(0.258604 0.00224816 -6.29828e-20)
(3.5822 -0.169021 1.30256e-17)
(3.41631 -0.503696 -1.06597e-17)
(3.13476 -0.788699 7.20281e-18)
(2.77776 -0.999689 2.3806e-18)
(2.33076 -1.10902 -4.45198e-19)
(3.75537 -0.102536 1.04207e-17)
(3.69019 -0.319718 -6.66026e-19)
(3.55221 -0.544916 -4.28261e-18)
(3.35313 -0.776478 2.67411e-18)
(3.07514 -1.00709 -6.618e-19)
(3.09361 -0.0604429 3.70181e-18)
(3.07781 -0.180691 -2.54728e-18)
(3.04 -0.307289 5.08937e-18)
(2.9812 -0.440738 -1.56066e-19)
(2.90912 -0.58774 -4.94595e-18)
(2.17315 -0.0274754 2.822e-18)
(2.16613 -0.0827671 8.53214e-18)
(2.14713 -0.142771 -6.65119e-19)
(2.11711 -0.205037 -6.74071e-18)
(2.09699 -0.265858 2.00537e-18)
(0.873087 -0.0018081 5.25658e-18)
(0.870125 -0.00514322 -1.1899e-19)
(0.861062 -0.00939534 -3.54363e-20)
(0.84441 -0.0159859 -2.04147e-18)
(0.835339 -0.0225975 -3.66686e-18)
(1.6527 0.946735 2.36415e-18)
(1.34934 0.822959 -1.07122e-19)
(1.00539 0.663288 -1.14739e-19)
(0.629957 0.452392 -1.76762e-19)
(0.226483 0.183352 -1.37716e-19)
(2.06858 0.895456 -1.26517e-18)
(1.71013 0.780447 -1.36699e-18)
(1.29878 0.634569 6.87202e-19)
(0.834926 0.439951 -4.93246e-19)
(0.312785 0.182518 -1.03883e-20)
(2.41612 0.736705 -5.6644e-19)
(2.01822 0.646126 5.35149e-19)
(1.55444 0.529321 2.39777e-18)
(1.01758 0.370547 8.02797e-19)
(0.39158 0.155412 5.3168e-19)
(2.67948 0.486561 6.49013e-20)
(2.25066 0.428193 -2.48081e-19)
(1.74644 0.35229 -6.72694e-19)
(1.15443 0.247656 2.0566e-18)
(0.450392 0.104167 -3.2995e-19)
(2.82339 0.173351 -1.18123e-18)
(2.37583 0.152276 -1.62561e-18)
(1.84853 0.125142 -7.3378e-19)
(1.22641 0.087756 8.02637e-19)
(0.480928 0.0366841 -3.2817e-19)
(0.236652 0.455194 -2.97105e-18)
(0.166305 0.393178 -2.14471e-18)
(0.0988946 0.312968 2.85777e-19)
(0.0422427 0.20746 5.22407e-20)
(-0.00119647 0.0765005 9.56163e-20)
(0.371671 0.630865 -7.66613e-19)
(0.275245 0.545682 -6.98263e-19)
(0.180173 0.42789 9.22633e-20)
(0.0944351 0.276616 -5.71164e-20)
(0.0192521 0.102681 4.43434e-20)
(0.585067 0.783243 2.26071e-18)
(0.450462 0.677472 4.49735e-20)
(0.312312 0.528068 -5.75274e-20)
(0.178362 0.341071 -2.5523e-19)
(0.0511156 0.128447 1.59827e-19)
(0.865442 0.895936 -1.2006e-18)
(0.683764 0.777542 1.7355e-18)
(0.490088 0.60831 -7.76565e-20)
(0.292566 0.397162 1.383e-19)
(0.0950367 0.152395 -1.35886e-19)
(1.20511 0.938047 -4.72066e-19)
(0.972182 0.82358 -4.82125e-19)
(0.712149 0.653767 3.21831e-19)
(0.436652 0.434625 3.49241e-19)
(0.1504 0.170556 1.89322e-21)
(0.756309 0.143046 -1.36367e-18)
(1.30973 0.150348 2.03534e-20)
(1.1311 0.218299 4.82197e-20)
(0.988646 0.436248 -2.66021e-18)
(0.597332 0.658322 7.7914e-19)
(0.750795 0.102344 5.08301e-19)
(1.31858 0.144646 1.04041e-18)
(1.16833 0.24235 5.5667e-19)
(1.04295 0.518267 3.26298e-19)
(0.776328 0.817279 9.07767e-19)
(0.745283 0.062392 -1.84837e-19)
(1.33699 0.134489 -5.99623e-20)
(1.20834 0.262481 -2.27077e-19)
(1.13484 0.594865 4.02924e-19)
(1.02458 0.952557 -3.23192e-19)
(0.739957 0.0218253 -5.85177e-20)
(1.36343 0.120832 -1.4314e-18)
(1.25467 0.276903 -3.19497e-19)
(1.28034 0.653529 -8.74512e-19)
(1.32017 1.05688 1.02651e-18)
(0.735398 -0.0165829 3.24482e-19)
(1.39781 0.104367 1.41861e-19)
(1.30519 0.290924 1.78296e-19)
(1.44636 0.694146 1.75141e-18)
(1.62133 1.1068 -3.33127e-18)
(0.738667 -0.0751205 1.04075e-18)
(1.44621 0.0746165 6.66381e-19)
(1.40753 0.266805 -3.95532e-19)
(1.68521 0.668238 5.08855e-18)
(2.12799 1.13969 -5.92593e-18)
(0.754064 -0.167798 -7.0158e-20)
(1.49272 0.0285468 -2.18159e-19)
(1.4765 0.197657 6.25962e-20)
(1.82714 0.508258 -2.75085e-18)
(2.55175 0.893012 1.65443e-18)
(0.747464 -0.345892 4.81664e-18)
(1.38701 -0.0349085 2.8594e-35)
(1.35722 0.110455 -1.86733e-18)
(1.64081 0.271646 2.95956e-18)
(2.45455 0.518774 5.20811e-18)
(0.624793 -0.280272 2.02116e-19)
(0.881205 -0.0572118 1.15736e-19)
(0.859305 0.0390302 3.82738e-19)
(1.09749 0.104223 7.19742e-19)
(1.75081 0.212422 -8.86398e-18)
(0.318857 -0.0401233 -4.11629e-18)
(0.339074 -0.00703043 9.70378e-20)
(0.311281 -0.00160195 9.8016e-19)
(0.402731 -0.0207283 -8.56445e-19)
(0.682932 0.000496206 -1.49117e-18)
(2.34169 1.12179 4.70516e-18)
(2.78076 1.01215 3.50559e-18)
(3.13616 0.802434 -5.88253e-18)
(3.41615 0.518227 -1.50038e-17)
(3.58189 0.184557 1.62432e-17)
(3.05493 1.00401 4.95355e-18)
(3.33089 0.783737 2.56698e-17)
(3.53375 0.551914 7.29287e-18)
(3.67607 0.325156 -3.0951e-17)
(3.74986 0.10752 -5.17363e-18)
(2.89471 0.583777 -7.44907e-18)
(2.97133 0.442098 -3.47209e-18)
(3.03453 0.308365 -6.5168e-18)
(3.07542 0.17987 -6.98917e-18)
(3.09307 0.057813 6.60196e-18)
(2.09232 0.26169 5.50728e-18)
(2.11454 0.20321 -4.23525e-19)
(2.14591 0.141661 4.93604e-18)
(2.16589 0.0814232 6.37421e-18)
(2.1732 0.0257283 -5.95567e-18)
(0.837268 0.0219241 -5.72337e-19)
(0.846143 0.0154811 3.56008e-18)
(0.862503 0.00900638 2.47668e-18)
(0.871218 0.00471952 -5.21517e-18)
(0.873513 0.00133766 -3.88922e-20)
(0.299176 0.0218509 5.72539e-19)
(0.692618 0.0426209 -7.7365e-19)
(1.01795 0.0465098 -7.47369e-19)
(0.990457 0.0294763 -1.4943e-18)
(0.737623 0.0177136 -6.45103e-19)
(0.261266 0.0583765 7.96399e-19)
(0.624595 0.112966 1.37371e-18)
(0.906826 0.131977 -7.51483e-19)
(0.983466 0.103042 1.94047e-18)
(0.763268 0.0574807 -2.61736e-18)
(0.198087 0.0779935 5.24298e-19)
(0.504025 0.153858 -1.23883e-18)
(0.744132 0.194257 -9.02232e-19)
(0.896808 0.184084 -1.83934e-18)
(0.778285 0.108289 -2.88766e-18)
(0.131681 0.0810244 -7.2463e-19)
(0.364963 0.168717 -1.2941e-18)
(0.563038 0.225382 4.27176e-18)
(0.711843 0.244178 -3.7227e-19)
(0.747699 0.189219 2.1351e-18)
(0.0802566 0.0757042 -5.75488e-19)
(0.243875 0.168572 1.39963e-18)
(0.392242 0.235158 5.47525e-19)
(0.507405 0.269685 -1.18953e-18)
(0.592563 0.27149 -1.9081e-19)
(0.0477138 0.0671477 6.22756e-20)
(0.158976 0.155588 -9.57306e-19)
(0.261589 0.216624 -4.90755e-19)
(0.344491 0.237926 -4.01885e-19)
(0.401364 0.230653 9.41313e-21)
(0.0260026 0.0573059 2.58276e-19)
(0.100748 0.13091 1.29908e-19)
(0.169509 0.168051 -4.02073e-19)
(0.229207 0.175026 9.8616e-20)
(0.279758 0.166012 7.43325e-20)
(0.0119833 0.0436859 1.24008e-19)
(0.0634055 0.0800101 3.03384e-18)
(0.110833 0.0787182 -2.01384e-18)
(0.158702 0.0658448 -3.55037e-18)
(0.204943 0.0476375 8.0535e-19)
(0.0124323 0.0109271 -5.40139e-19)
(0.0446553 -0.0126129 -2.25036e-18)
(0.0836783 -0.0377723 3.88182e-18)
(0.129857 -0.0660428 2.03696e-18)
(0.177334 -0.0956682 -3.78717e-19)
(-0.00655201 -0.0399407 4.68426e-20)
(0.0289681 -0.109846 -2.95866e-19)
(0.0721226 -0.161946 1.04534e-19)
(0.123632 -0.208898 7.06332e-20)
(0.177618 -0.252025 -5.26514e-19)
(0.430251 0.0706672 3.50162e-19)
(0.672495 -0.0361566 4.47141e-20)
(0.78082 -0.0320314 2.00253e-19)
(0.845166 -0.0163401 3.1145e-19)
(0.880533 -0.00495423 4.34952e-20)
(0.390997 -0.0599689 2.78196e-19)
(0.800033 -0.115385 3.27837e-19)
(0.965137 -0.0573519 8.63039e-19)
(1.05633 -0.0276605 1.21079e-19)
(1.10706 -0.00811872 -1.19975e-19)
(0.398439 -0.1754 -1.58797e-20)
(0.854783 -0.183227 1.10649e-18)
(1.03676 -0.0923678 -2.27412e-19)
(1.13966 -0.0448111 -5.55385e-19)
(1.19105 -0.012658 2.12409e-19)
(0.426937 -0.321562 5.4086e-19)
(0.89301 -0.265989 1.66475e-19)
(1.06844 -0.12912 -4.40585e-19)
(1.15888 -0.0603035 -6.14864e-20)
(1.20291 -0.0166857 -2.14055e-21)
(0.480926 -0.4762 1.83651e-19)
(0.931805 -0.349462 -6.46009e-20)
(1.10295 -0.164618 2.77574e-19)
(1.17744 -0.0748852 2.41443e-19)
(1.21379 -0.0205239 3.4761e-20)
(0.183633 -0.0475394 8.09198e-19)
(0.149643 -0.00532818 0)
(0.179005 0.00357105 1.06422e-19)
(0.194513 0.00261376 1.13928e-19)
(0.201336 0.00101344 -1.3704e-19)
(0.435596 0.0672465 0)
(0.433084 -0.00474435 0)
(0.517477 -0.013751 5.41649e-19)
(0.56104 -0.00669356 3.22217e-19)
(0.580868 -0.00205331 -2.3208e-20)
(0.173556 -0.000847807 -3.79327e-19)
(0.198282 -0.00154446 3.1097e-18)
(0.225454 -0.0039627 -6.61039e-19)
(0.240781 -0.0132479 -3.00364e-18)
(0.254136 -0.0152391 -6.68858e-19)
(0.459077 0.00489532 6.20527e-19)
(0.513089 0.0216003 4.04057e-18)
(0.565349 0.050844 -6.439e-18)
(0.595428 0.0865563 2.21915e-18)
(0.627161 0.170359 4.01859e-18)
(0.401214 -0.228837 -4.33843e-19)
(0.344331 -0.236707 5.19914e-20)
(0.262072 -0.216765 -9.22888e-20)
(0.159604 -0.156541 3.0034e-19)
(0.0481738 -0.0676617 1.02873e-19)
(0.282746 -0.158685 6.0417e-19)
(0.231103 -0.168651 1.98274e-18)
(0.170979 -0.163862 5.95113e-19)
(0.101971 -0.129949 1.782e-19)
(0.0264495 -0.0576175 9.99571e-21)
(0.21186 -0.0341708 -6.52407e-19)
(0.163652 -0.0529375 -5.92409e-20)
(0.114167 -0.067527 2.24677e-18)
(0.0662373 -0.0721754 5.0694e-19)
(0.0129905 -0.0425999 -2.93748e-19)
(0.184292 0.114596 -1.17013e-18)
(0.134332 0.0850147 -1.06873e-18)
(0.0856812 0.0560051 1.63651e-18)
(0.0447163 0.0297954 2.06804e-18)
(0.0099122 0.00373806 3.08047e-19)
(0.18245 0.277303 -1.41199e-19)
(0.125919 0.234352 -3.06504e-19)
(0.071885 0.185897 1.52607e-19)
(0.0264582 0.128886 4.67282e-19)
(-0.00874873 0.0484242 4.08414e-20)
(0.737615 -0.0176704 1.57752e-18)
(0.990445 -0.029468 -1.78383e-18)
(1.01777 -0.0466608 2.28467e-18)
(0.692637 -0.0426956 4.24791e-19)
(0.299219 -0.0218624 5.56214e-19)
(0.763233 -0.0573895 1.87775e-18)
(0.983281 -0.103066 7.83101e-18)
(0.906641 -0.132103 1.02161e-18)
(0.624665 -0.113025 1.36662e-18)
(0.261385 -0.0584051 -4.94673e-19)
(0.778101 -0.108113 -1.43742e-18)
(0.896235 -0.183974 -2.23809e-18)
(0.74407 -0.194338 2.8754e-18)
(0.50413 -0.153947 -5.79652e-20)
(0.198244 -0.0780456 3.00119e-19)
(0.747086 -0.189121 8.9167e-20)
(0.711346 -0.244241 -7.75107e-18)
(0.563076 -0.22568 -5.84418e-18)
(0.365142 -0.169002 9.85416e-19)
(0.131888 -0.0811369 4.87729e-19)
(0.591248 -0.270929 5.24707e-19)
(0.506916 -0.26973 4.55441e-19)
(0.39239 -0.235789 -8.11904e-19)
(0.244205 -0.169224 -7.94671e-19)
(0.0805835 -0.075954 -4.66735e-21)
(0.698706 0.36094 1.05995e-18)
(1.02997 0.100055 -3.20118e-20)
(0.796708 0.0404392 1.4146e-19)
(0.68597 0.0408245 6.21449e-20)
(0.440816 -0.0668072 3.2652e-20)
(0.761091 0.348705 -1.59031e-19)
(1.28579 0.115859 -1.03261e-18)
(0.986963 0.077356 1.88492e-19)
(0.82137 0.120606 4.41921e-19)
(0.407051 0.0677747 -2.40881e-19)
(0.770157 0.280079 -2.1557e-18)
(1.34176 0.13001 -8.5e-20)
(1.05228 0.117428 2.27154e-20)
(0.877412 0.189966 3.21607e-19)
(0.417486 0.18598 -2.32435e-19)
(0.766996 0.229347 2.18406e-18)
(1.32278 0.143964 1.18331e-19)
(1.07495 0.155779 -6.96176e-20)
(0.912822 0.272201 7.21237e-19)
(0.444977 0.334684 2.31202e-19)
(0.761851 0.185083 3.83326e-19)
(1.31118 0.150497 -2.67587e-19)
(1.09962 0.189248 5.61989e-20)
(0.948943 0.353894 6.04719e-19)
(0.495444 0.49206 8.38337e-19)
(0.271578 0.0471902 0)
(0.266751 -0.00370456 5.27016e-19)
(0.181272 -0.0156961 9.31669e-20)
(0.153915 0.00467755 -2.75554e-19)
(0.185052 0.0466844 -1.55359e-18)
(0.559309 0.255016 -9.9844e-18)
(0.693061 0.0641301 -1.73035e-18)
(0.52382 0.0182033 1.28005e-18)
(0.441028 0.00670219 -3.64954e-20)
(0.438107 -0.0656803 -5.99775e-20)
(0.254333 0.015298 6.57837e-20)
(0.24089 0.0133492 1.81646e-18)
(0.225546 0.0040163 5.52116e-19)
(0.198337 0.00155729 2.95004e-19)
(0.173572 0.000852425 0)
(0.627246 -0.170045 -7.53634e-19)
(0.595649 -0.0864345 2.29788e-18)
(0.5654 -0.0506672 -3.54186e-19)
(0.513141 -0.0215455 -3.70219e-19)
(0.4591 -0.0048712 7.93423e-19)
)
;

boundaryField
{
    left
    {
        type            fixedValue;
        value           uniform (1 0 0);
    }
    right
    {
        type            zeroGradient;
    }
    down
    {
        type            noSlip;
    }
    up
    {
        type            noSlip;
    }
    cylinder
    {
        type            noSlip;
    }
    defaultFaces
    {
        type            empty;
    }
}


// ************************************************************************* //
