/*--------------------------------*- C++ -*----------------------------------*\
  =========                 |
  \\      /  F ield         | OpenFOAM: The Open Source CFD Toolbox
   \\    /   O peration     | Website:  https://openfoam.org
    \\  /    A nd           | Version:  13
     \\/     M anipulation  |
\*---------------------------------------------------------------------------*/
FoamFile
{
    format      ascii;
    class       volVectorField;
    location    "77.8";
    object      U;
}
// * * * * * * * * * * * * * * * * * * * * * * * * * * * * * * * * * * * * * //

dimensions      [0 1 -1 0 0 0 0];

internalField   nonuniform List<vector> 
440
(
(-0.214122 0.206393 5.84297e-20)
(-0.232779 0.269848 -3.05718e-19)
(-0.0333881 0.15882 -1.7535e-19)
(0.378041 0.117311 2.359e-19)
(0.46508 0.1142 -6.9091e-21)
(-0.0591112 0.0483253 -3.30642e-21)
(0.0797872 0.0756289 -2.66805e-21)
(0.52762 0.0333943 7.03174e-20)
(1.05737 0.00541933 -9.24484e-20)
(1.5434 -0.019958 -7.67619e-20)
(-0.00688973 0.00319973 3.42325e-20)
(0.462522 -0.0384778 6.2132e-19)
(1.1953 -0.0269765 -3.24038e-19)
(1.7834 -0.00472545 -9.5623e-19)
(2.31462 0.0136461 5.24698e-19)
(0.190012 -0.0439564 -1.6225e-19)
(1.12219 0.000774931 -5.16157e-19)
(1.89205 0.0764433 1.56973e-18)
(2.33908 0.127111 1.80589e-18)
(2.44089 0.149326 -4.69864e-19)
(0.527737 -0.00889534 -2.85888e-19)
(1.67899 0.178677 -6.08197e-19)
(2.23869 0.264825 1.86724e-18)
(2.38074 0.282193 1.98803e-18)
(2.44266 0.256636 6.7404e-19)
(0.0454868 -0.288827 -3.02128e-20)
(0.186006 -0.667635 -1.61505e-19)
(0.256894 -0.780815 1.67498e-19)
(0.270637 -0.718184 -1.47212e-20)
(0.245384 -0.592296 -6.43704e-20)
(0.138468 -0.434765 6.16858e-20)
(0.301832 -0.803097 2.08279e-19)
(0.285528 -0.796044 -8.28342e-21)
(0.197785 -0.618314 -2.90547e-21)
(0.0997251 -0.438335 -2.92154e-21)
(0.259689 -0.530041 3.65533e-19)
(0.351976 -0.810813 2.67561e-19)
(0.239947 -0.735591 8.446e-20)
(0.103363 -0.579797 -1.98563e-19)
(0.0177191 -0.452331 1.39172e-21)
(0.227928 -0.448909 2.03657e-19)
(0.0598242 -0.638552 -3.53715e-19)
(-0.178931 -0.583408 3.13287e-19)
(-0.321918 -0.536474 4.22129e-19)
(-0.382968 -0.47178 3.49381e-20)
(-0.130793 0.00279959 2.68323e-19)
(-0.347102 -0.195616 3.78695e-19)
(-0.423884 -0.346781 5.41241e-19)
(-0.409525 -0.386404 -1.96249e-19)
(-0.366897 -0.381931 1.40447e-19)
(0.0611056 -0.275138 -1.96475e-18)
(1.68184 1.18417 -3.64575e-19)
(0.452038 0.663797 -5.88594e-19)
(1.31102 -1.00254 5.55456e-19)
(1.1995 -0.698475 -9.01649e-20)
(-0.146232 -0.300644 -5.05375e-19)
(0.618042 1.20354 2.30428e-19)
(0.644967 0.630611 -2.70888e-20)
(1.53159 -1.05692 -1.06514e-18)
(1.31203 -0.702733 1.71847e-19)
(0.0620695 -0.438227 -1.3662e-18)
(-0.531215 0.951517 -2.84689e-18)
(1.05771 0.374779 1.03683e-20)
(1.80295 -1.06569 -1.65748e-18)
(1.42478 -0.68621 3.74905e-20)
(-0.328995 -0.310477 6.23397e-19)
(-0.919867 0.782006 1.97495e-19)
(1.50157 0.0667185 -1.73616e-19)
(2.04807 -1.03578 1.10586e-18)
(1.53953 -0.652217 2.33e-19)
(0.205558 -0.568812 -3.83937e-19)
(-0.876998 0.530445 1.99788e-18)
(1.87205 -0.256025 0)
(2.16442 -1.00632 -7.34598e-19)
(1.58735 -0.599008 3.99338e-20)
(1.91599 -0.327548 -4.13255e-19)
(0.621457 0.188001 -2.55383e-19)
(2.24749 -0.557629 7.53473e-21)
(2.21421 -0.95221 -2.28568e-19)
(1.57212 -0.536865 -3.72668e-20)
(2.06646 -0.241784 4.55855e-20)
(1.75726 0.359058 2.40549e-19)
(2.63713 -0.58018 6.34267e-21)
(2.17103 -0.76306 5.26237e-19)
(1.35005 -0.365895 0)
(1.87531 -0.104255 3.40977e-20)
(2.24403 0.0143168 -3.66478e-21)
(2.53969 -0.619009 6.67488e-19)
(1.83732 -0.531989 -1.46279e-19)
(1.15287 -0.228157 -1.7906e-20)
(1.89225 -0.0769941 -3.56076e-20)
(2.28196 -0.0261963 1.37077e-19)
(2.08109 -0.411419 3.10326e-20)
(1.25452 -0.31534 -4.72512e-35)
(0.655476 -0.0918045 4.9211e-20)
(1.34952 -0.0145702 6.56849e-20)
(1.42145 -0.145959 2.85556e-20)
(0.70056 -0.0865966 -1.48438e-19)
(0.0915397 0.00486002 2.82108e-20)
(-0.158503 -0.00591934 7.25836e-21)
(2.3521 0.251224 -8.22566e-19)
(2.51856 0.0922566 -1.10389e-18)
(2.41132 0.065374 8.47043e-19)
(2.60552 -0.0555499 3.99573e-20)
(1.97463 -0.0182984 -9.35672e-20)
(2.12498 0.117535 6.71761e-20)
(2.34285 0.119946 -4.02328e-20)
(2.22461 -0.0482293 -1.30179e-19)
(2.39892 -0.0509045 -2.53768e-19)
(2.25555 -0.244012 -3.23885e-21)
(2.09012 0.0390507 7.53737e-20)
(2.11006 0.10077 9.08788e-20)
(2.20462 -0.0616837 -1.11802e-19)
(2.14504 -0.0160546 3.56562e-20)
(2.2819 -0.147042 2.4077e-20)
(2.01596 0.000884436 1.15916e-19)
(1.97335 0.048681 1.50852e-19)
(2.13311 -0.0467947 -1.84217e-20)
(2.03745 -0.0167722 -5.53449e-20)
(2.20771 -0.0858364 2.24672e-20)
(1.43468 -0.0145929 1.82046e-19)
(1.4487 -0.00327953 -1.15307e-20)
(1.47762 -0.0237324 1.91833e-20)
(1.45179 -0.0125995 -3.15162e-20)
(1.50727 -0.0347064 -7.21346e-21)
(1.56084 0.84866 1.02412e-18)
(1.52048 0.944145 -2.98148e-19)
(1.51459 1.06731 -1.23961e-18)
(1.44555 1.11154 6.97261e-19)
(0.893465 0.804491 -1.77318e-19)
(1.82445 0.794911 -5.4284e-19)
(1.80382 0.879392 -2.84011e-18)
(1.81233 0.987916 -1.10503e-18)
(1.725 0.997629 -4.03659e-19)
(1.05413 0.694865 -6.41046e-19)
(2.10861 0.698228 7.25008e-19)
(2.09399 0.763282 1.90489e-19)
(2.07697 0.844041 -2.21039e-18)
(1.94231 0.826982 -6.0546e-19)
(1.13754 0.537171 4.46791e-19)
(2.2634 0.568819 2.22879e-18)
(2.26789 0.621469 1.62776e-18)
(2.26282 0.668711 -1.87658e-18)
(2.03672 0.621686 -1.39957e-18)
(1.09557 0.346448 -2.52797e-19)
(2.41272 0.42829 1.06358e-18)
(2.41319 0.447894 -7.75159e-19)
(2.31568 0.463443 5.46974e-19)
(1.96697 0.398822 4.32911e-19)
(0.89092 0.144504 -3.60124e-19)
(0.576621 0.394134 -7.14687e-19)
(0.488579 0.425621 -5.85532e-19)
(0.369713 0.457136 7.81124e-20)
(0.229436 0.464495 -2.75283e-20)
(0.0561237 0.337611 6.99704e-20)
(0.671124 0.571978 7.16501e-20)
(0.607531 0.630055 -3.22513e-19)
(0.519093 0.697945 1.7525e-19)
(0.391595 0.752891 -8.0719e-20)
(0.167184 0.576341 1.15487e-19)
(0.773528 0.76258 2.11269e-19)
(0.699699 0.839628 4.12072e-19)
(0.639739 0.937128 5.18134e-20)
(0.553802 0.992387 -2.75088e-19)
(0.302705 0.745429 2.2247e-19)
(1.03402 0.859381 2.15349e-19)
(0.986903 0.947633 -6.14459e-19)
(0.935516 1.04813 -1.7867e-18)
(0.851473 1.11572 7.326e-19)
(0.503099 0.835574 -1.80952e-19)
(1.15653 0.890671 -1.36617e-19)
(1.16606 1.01143 -2.12023e-19)
(1.17972 1.13171 -3.2314e-19)
(1.12428 1.17298 -3.78062e-19)
(0.692818 0.854944 -6.25204e-21)
(1.01434 0.0537951 -9.00942e-20)
(0.982856 0.0166885 -3.47253e-20)
(1.04799 0.105864 -1.36158e-21)
(0.945422 0.125584 -2.80031e-19)
(0.884199 0.235356 3.04365e-19)
(1.00258 0.0529486 5.62333e-20)
(0.994996 0.0120922 1.24816e-19)
(1.04057 0.112435 1.08393e-19)
(0.972525 0.158387 3.2887e-20)
(0.921241 0.309606 1.75531e-20)
(1.00683 0.0525474 7.56474e-20)
(0.981601 0.00440422 -4.75894e-21)
(1.08957 0.127796 -5.78216e-21)
(0.917117 0.165721 1.62808e-19)
(1.11664 0.444671 -4.28347e-19)
(0.999113 0.0529168 -4.39925e-22)
(1.0045 -0.00727592 -1.77853e-19)
(1.09101 0.146488 -6.0796e-20)
(0.980631 0.182574 -3.93663e-19)
(1.16418 0.482596 9.17547e-20)
(0.99453 0.0451629 -1.31542e-20)
(1.0161 -0.00690553 5.38227e-20)
(1.13323 0.155027 3.04028e-20)
(0.956556 0.203583 4.6456e-19)
(1.41128 0.608549 -4.18438e-19)
(0.953111 0.0459558 -6.54352e-21)
(1.09708 -0.0356145 1.11233e-19)
(1.125 0.185838 -8.48308e-20)
(1.15154 0.156353 8.19041e-19)
(1.33042 0.619943 -3.97891e-19)
(0.892546 0.013678 -1.66685e-21)
(1.20706 -0.0462037 -9.80005e-20)
(1.04401 0.139293 4.52453e-21)
(1.21584 0.151248 -2.70888e-19)
(1.42108 0.380251 2.99984e-20)
(0.964433 -0.00213974 -5.41454e-21)
(1.16121 -0.0571557 1.27719e-35)
(1.02533 0.149066 -4.26884e-20)
(1.22883 0.0662246 8.33711e-20)
(1.47115 0.248392 1.54383e-19)
(1.11103 -0.0552985 4.19583e-21)
(0.945702 -0.0459815 -2.62982e-20)
(1.10161 0.0915676 1.71728e-20)
(1.23701 0.0170042 3.33868e-20)
(1.40526 0.143752 -2.18566e-19)
(1.00648 -0.025661 -4.32625e-20)
(0.709908 -0.0164266 -4.91939e-21)
(0.929475 0.0084238 1.8805e-20)
(0.886254 -0.0141616 -1.11273e-20)
(1.01677 0.0477765 -4.85045e-20)
(1.7524 0.658391 3.16151e-19)
(1.86615 0.642659 7.32291e-19)
(2.0969 0.549826 -1.02873e-18)
(2.17478 0.486474 1.82324e-20)
(2.35873 0.325897 4.52977e-19)
(1.71468 0.491404 4.70057e-20)
(1.78867 0.416405 9.69519e-19)
(1.95529 0.419326 9.47916e-20)
(1.98352 0.285366 -8.85231e-19)
(2.17716 0.268639 -2.85268e-19)
(1.65811 0.383351 -2.01238e-19)
(1.75666 0.272148 -1.42525e-19)
(1.83583 0.316535 2.45549e-19)
(1.93672 0.156244 -2.93979e-19)
(2.00264 0.211525 2.66766e-19)
(1.60799 0.225676 2.96475e-19)
(1.6801 0.144064 -1.48361e-21)
(1.74966 0.17715 2.2146e-19)
(1.85735 0.0678964 1.99035e-19)
(1.88254 0.115227 -1.91879e-19)
(1.23453 0.0520101 -3.39412e-20)
(1.25765 0.0306859 2.07177e-19)
(1.34346 0.0287953 1.06752e-19)
(1.36513 0.00401957 -2.30059e-19)
(1.421 0.00938643 2.2107e-22)
(1.35228 -0.038291 6.43058e-20)
(2.45961 -0.032149 -5.47587e-19)
(2.68614 -0.0232859 1.49053e-18)
(2.67832 0.0260409 6.87098e-19)
(2.45476 0.0437473 -4.57094e-19)
(0.864034 0.0977088 1.23816e-19)
(2.23986 0.109089 -5.66119e-19)
(2.69494 0.114437 -7.90857e-19)
(2.70108 0.129794 1.04233e-18)
(2.50424 0.124103 -7.2798e-19)
(0.249954 0.0891803 -3.73131e-20)
(1.58834 0.184979 6.26388e-19)
(2.39611 0.230726 1.04998e-19)
(2.77049 0.235113 9.49121e-19)
(2.79383 0.224272 5.45256e-19)
(-0.0631986 -0.0309345 2.51498e-19)
(0.635981 0.118694 2.66122e-19)
(1.57943 0.225614 -7.01382e-19)
(2.15674 0.293304 5.79556e-20)
(2.76437 0.329613 4.25695e-19)
(-0.135582 -0.110348 1.98687e-19)
(0.0238472 -0.0333183 -2.17485e-19)
(0.659498 0.110288 -5.23487e-20)
(1.18754 0.184492 1.07856e-19)
(1.86292 0.343801 2.50708e-20)
(-0.101569 -0.108737 4.57635e-20)
(-0.156478 -0.125686 1.51051e-19)
(0.0649993 -0.103714 9.39416e-20)
(0.258424 -0.0714776 -8.24148e-20)
(0.974668 0.120654 1.41841e-20)
(-0.0598135 -0.0845588 -1.71638e-20)
(-0.149333 -0.187838 -1.06964e-19)
(-0.128119 -0.249657 -4.08344e-20)
(-0.0674657 -0.255728 -2.5165e-20)
(0.221105 -0.0708519 5.19529e-21)
(-0.0332109 -0.0686194 3.02511e-21)
(-0.0913999 -0.222983 2.84813e-19)
(-0.0994696 -0.328583 -2.17003e-19)
(-0.0657423 -0.368429 -3.97169e-19)
(-0.00551122 -0.293393 8.4568e-20)
(-0.0204728 -0.0933417 -2.67026e-20)
(-0.0327348 -0.32527 -1.68425e-19)
(-0.00964364 -0.488242 4.39349e-19)
(0.0367793 -0.552503 2.57128e-19)
(0.0551905 -0.546307 -4.47719e-20)
(-0.00447379 -0.165963 1.77098e-20)
(0.0476863 -0.482545 -5.91344e-20)
(0.104064 -0.647872 2.00824e-20)
(0.138092 -0.663915 1.02497e-20)
(0.139689 -0.596801 -1.70167e-19)
(1.52911 0.753078 -4.97004e-20)
(1.65534 0.43198 2.53425e-19)
(-0.169428 0.303608 1.17751e-19)
(-0.184786 -0.304727 5.81561e-19)
(0.808901 -0.344735 -7.1747e-21)
(1.3709 0.624195 3.98e-20)
(1.32942 0.617924 7.30981e-19)
(-0.581193 0.442325 9.89656e-19)
(0.144466 -0.528151 2.40809e-20)
(0.823061 -0.477105 5.81185e-20)
(1.36584 0.508452 3.68561e-19)
(1.02856 0.900617 2.37745e-18)
(-0.510375 0.503681 -2.65125e-20)
(0.414501 -0.697127 -1.90562e-18)
(0.886577 -0.555359 -2.53427e-20)
(0.998837 0.203124 -5.67587e-20)
(1.07298 1.08247 -3.78695e-18)
(-0.0293645 0.543941 -2.21042e-19)
(0.621569 -0.86657 2.01996e-20)
(0.956914 -0.633763 -8.6415e-20)
(0.324308 0.0831452 2.34074e-19)
(1.45107 1.25093 -4.67784e-19)
(0.34732 0.583718 -2.5718e-19)
(0.986981 -0.945305 -1.22247e-19)
(1.05338 -0.679146 -2.33962e-19)
(-0.177277 0.145421 -6.3294e-20)
(-0.409723 -0.191958 0)
(-0.66602 -0.110238 -1.51453e-20)
(-0.241043 -0.112871 -6.87935e-21)
(0.455942 -0.0449065 1.03052e-21)
(1.79452 0.686564 0)
(1.32479 0.370549 0)
(0.0397645 0.0509737 -6.36044e-20)
(-0.177354 -0.20495 -2.1415e-19)
(0.786053 -0.194147 1.92679e-20)
(0.789615 0.00550131 -1.33226e-19)
(0.835261 -0.00668549 1.87728e-19)
(1.08385 0.0367551 -4.75139e-20)
(0.923299 -0.000399107 4.00903e-19)
(1.45295 0.176029 2.69176e-19)
(1.77488 0.0393454 1.26588e-19)
(1.98523 0.0809461 3.38643e-19)
(2.12765 0.119089 -6.92479e-19)
(2.5978 0.25155 1.64712e-19)
(2.53576 0.285742 3.68358e-19)
(0.971662 -0.530226 4.10832e-20)
(0.960906 -0.628392 -2.06971e-19)
(0.959854 -0.735343 -1.97818e-19)
(0.894496 -0.81114 1.17053e-19)
(0.548847 -0.641315 1.41125e-19)
(0.871732 -0.442057 1.09895e-19)
(0.816542 -0.512255 1.48736e-19)
(0.740343 -0.587343 -1.0737e-19)
(0.622747 -0.652984 1.42755e-19)
(0.344004 -0.520226 3.29101e-20)
(0.678705 -0.307923 -1.27623e-19)
(0.585736 -0.352142 -5.52861e-20)
(0.484998 -0.408904 4.99765e-22)
(0.371338 -0.459101 -5.11492e-20)
(0.174267 -0.363071 -1.30523e-19)
(0.573191 -0.0744006 -4.46141e-19)
(0.489779 -0.0954654 -3.61191e-19)
(0.382299 -0.128776 2.9297e-19)
(0.254613 -0.169414 1.59678e-19)
(0.0798801 -0.150737 1.38156e-20)
(0.537112 0.129834 -1.53146e-19)
(0.451972 0.129401 -1.67123e-19)
(0.335414 0.126337 -4.95415e-20)
(0.197523 0.126592 4.9962e-20)
(0.0344342 0.0946331 1.48544e-20)
(2.23884 -0.031656 9.51524e-19)
(2.46922 -0.106626 3.51621e-19)
(2.56613 -0.201139 -8.92974e-19)
(2.43942 -0.226137 -1.89557e-18)
(1.50187 -0.221888 1.35384e-19)
(2.16757 -0.131811 1.59069e-18)
(2.28636 -0.24859 2.06539e-18)
(2.30712 -0.378323 1.69556e-19)
(2.23826 -0.442812 2.90662e-19)
(1.46176 -0.414026 -1.93694e-19)
(1.89059 -0.306329 -4.08062e-18)
(1.93628 -0.429582 4.82015e-19)
(1.97827 -0.563519 1.28252e-18)
(1.93255 -0.647738 -5.21889e-19)
(1.27428 -0.571001 8.22029e-19)
(1.62841 -0.436838 9.9585e-19)
(1.64728 -0.541641 -2.59752e-18)
(1.64296 -0.668606 -3.0295e-18)
(1.58303 -0.767915 9.55653e-19)
(1.03212 -0.650824 6.1052e-19)
(1.33011 -0.50583 2.28662e-19)
(1.27698 -0.605228 2.74351e-19)
(1.26251 -0.734881 -4.63335e-19)
(1.20813 -0.831026 -5.62632e-19)
(0.770966 -0.67287 -5.44868e-21)
(1.06207 0.0555523 7.27259e-21)
(0.927829 0.0454709 -1.73713e-21)
(1.13883 0.0685498 7.04637e-22)
(0.818175 -0.00936962 -2.3353e-19)
(1.19614 -0.247053 -1.52129e-20)
(1.07171 0.0593155 -2.45265e-21)
(0.92371 0.0405656 3.90771e-20)
(1.13207 0.0859368 -1.99207e-20)
(0.897871 0.031683 1.6191e-19)
(1.0481 -0.130693 -8.22285e-21)
(1.06963 0.0571723 -5.92031e-20)
(0.926735 0.0333837 3.37301e-22)
(1.11649 0.0868843 -1.04629e-20)
(0.889877 0.0519915 5.59337e-20)
(1.00618 -0.0735104 -2.29833e-19)
(1.05116 0.0563442 7.12911e-20)
(0.953092 0.0270198 2.97691e-21)
(1.07589 0.0917072 2.48683e-20)
(0.932731 0.0786025 3.15874e-21)
(0.883802 0.0394757 8.47646e-20)
(1.02727 0.0540951 1.76948e-20)
(0.978554 0.0233899 -2.75896e-20)
(1.04558 0.0961922 3.52073e-20)
(0.953088 0.10702 7.16055e-20)
(0.846875 0.131045 -4.35331e-20)
(0.887371 0.0335631 0)
(0.712585 0.0271507 8.81115e-21)
(0.630565 0.0215273 4.93269e-21)
(0.372046 -0.0100636 5.03293e-20)
(0.745425 -0.063245 -1.55072e-19)
(1.03062 0.0745217 -6.33678e-20)
(0.938722 0.0647831 -7.23864e-21)
(1.05125 0.0712306 -5.08015e-20)
(0.831853 -0.00849507 -1.3256e-19)
(1.10799 -0.223953 -1.60547e-19)
(1.04989 -0.067177 -3.5852e-20)
(1.13942 -0.0368779 5.65194e-19)
(1.24919 0.0379436 3.47954e-19)
(1.11239 0.0635133 2.5133e-20)
(0.865881 0.0345038 0)
(1.41509 -0.334994 3.60708e-19)
(1.54138 -0.294701 1.66473e-18)
(1.73972 -0.171001 -1.86366e-18)
(1.83805 -0.0211964 -5.94457e-19)
(1.77613 0.0367623 4.33196e-19)
)
;

boundaryField
{
    left
    {
        type            fixedValue;
        value           uniform (1 0 0);
    }
    right
    {
        type            zeroGradient;
    }
    down
    {
        type            noSlip;
    }
    up
    {
        type            noSlip;
    }
    cylinder
    {
        type            noSlip;
    }
    defaultFaces
    {
        type            empty;
    }
}


// ************************************************************************* //
