# Selection   : all
# Cells       : 440
# Volume      : 7.374263e+01
# Time        	min(p)
4.205         	-1.556124e+00
