/*--------------------------------*- C++ -*----------------------------------*\
  =========                 |
  \\      /  F ield         | OpenFOAM: The Open Source CFD Toolbox
   \\    /   O peration     | Website:  https://openfoam.org
    \\  /    A nd           | Version:  13
     \\/     M anipulation  |
\*---------------------------------------------------------------------------*/
FoamFile
{
    format      ascii;
    class       volScalarField;
    location    "28.4";
    object      p;
}
// * * * * * * * * * * * * * * * * * * * * * * * * * * * * * * * * * * * * * //

dimensions      [0 2 -2 0 0 0 0];

internalField   nonuniform List<scalar> 
440
(
-0.494434
-0.476426
-0.497371
-0.434249
-0.497156
-0.527963
-0.513362
-0.495696
-0.468951
-0.452038
-0.632129
-0.602091
-0.567087
-0.523223
-0.473305
-0.755944
-0.709727
-0.630724
-0.535331
-0.438848
-0.847795
-0.785784
-0.64745
-0.502237
-0.367491
-1.0731
-1.06217
-1.05128
-1.04763
-1.05791
-1.03878
-1.04886
-1.07819
-1.12796
-1.20866
-0.857145
-0.873601
-0.916733
-0.990104
-1.09642
-0.60692
-0.610861
-0.617293
-0.613531
-0.587668
-0.383148
-0.386375
-0.373876
-0.315828
-0.250196
-1.10887
-1.72923
-1.29466
0.360004
0.00381749
-0.887474
-1.40281
-1.27028
0.232503
-0.0161689
-0.636255
-1.18188
-1.16094
0.117129
-0.0492237
-0.406847
-1.09157
-0.976915
0.0526917
-0.0535912
-0.20997
-1.08968
-0.813897
-0.00452113
-0.0451222
0.0344713
-1.03877
-0.62094
-0.0584711
-0.0566801
0.0410178
-0.777942
-0.400116
-0.0605986
-0.05214
0.0777871
-0.515956
-0.287658
-0.0788992
-0.0359402
0.170221
-0.330658
-0.242542
-0.0925909
-0.0545714
0.224908
-0.159081
-0.232276
-0.110048
-0.0509133
-0.132752
-0.258259
-0.38291
-0.5292
-0.578565
0.100395
-0.0235248
-0.0829424
-0.118561
-0.0979812
0.247528
0.152709
0.0941408
0.0602656
0.04001
0.341919
0.255046
0.186624
0.153051
0.129452
0.386017
0.297928
0.227328
0.195124
0.177748
1.08858
0.947562
0.769109
0.569826
0.348446
0.706767
0.553868
0.365093
0.151628
-0.0842338
0.325538
0.168098
-0.0281241
-0.253028
-0.461928
0.0033734
-0.159537
-0.356263
-0.568428
-0.729114
-0.225099
-0.381495
-0.560914
-0.74713
-0.850701
2.20251
2.23499
2.26597
2.28377
2.28411
2.0269
2.04974
2.06852
2.0711
2.05291
1.81256
1.80487
1.77597
1.72527
1.64961
1.56595
1.53416
1.46873
1.37339
1.24949
1.32963
1.23588
1.11116
0.964075
0.78572
1.94354
1.93899
1.9191
1.98539
2.07812
1.93483
1.92824
1.903
1.96735
1.99924
1.92716
1.91451
1.88387
1.93733
1.89764
1.92075
1.89837
1.86277
1.89311
1.74333
1.91562
1.88133
1.84021
1.84833
1.57905
1.91223
1.85521
1.81084
1.7464
1.39037
1.91311
1.82591
1.80319
1.62858
1.44024
1.91793
1.81278
1.80035
1.57269
1.45056
1.91587
1.78509
1.79894
1.5181
1.45127
1.95359
1.77976
1.79877
1.4875
1.46775
1.06348
0.791903
0.474181
0.212073
0.0127756
0.992715
0.798714
0.583195
0.398233
0.225278
0.996236
0.829474
0.664698
0.509295
0.366581
1.03701
0.879774
0.730338
0.586964
0.460542
1.07442
0.92049
0.774788
0.633339
0.506763
-1.77538
-1.58862
-1.38371
-1.21213
-1.10685
-1.87304
-1.77949
-1.60536
-1.44601
-1.33272
-1.80622
-1.74613
-1.61501
-1.47906
-1.35646
-1.65403
-1.60314
-1.52817
-1.43361
-1.32984
-1.49128
-1.46541
-1.42763
-1.37219
-1.293
-1.39509
-1.38798
-1.36132
-1.38137
-1.29729
-1.33202
-1.33128
-1.32088
-1.35637
-1.29423
-1.25211
-1.25186
-1.24917
-1.2683
-1.2469
-1.14855
-1.13922
-1.12785
-1.12022
-1.11789
-1.08542
-1.06603
-1.04082
-1.01525
-0.995224
-0.862105
-1.03462
-0.0720039
0.421193
0.0515613
-0.861942
-1.10319
0.0259917
0.467563
0.0401831
-0.834315
-1.2811
-0.245771
0.506323
0.0153303
-0.886902
-1.61329
-0.839063
0.508765
0.00777166
-1.09095
-1.86612
-1.1903
0.456872
0.0100674
-0.537199
-1.13045
-0.160079
0.346423
0.0572469
-0.826157
-1.04753
-0.0342253
0.390985
0.0611433
-1.04634
-1.24629
-1.25374
-1.14141
-0.916297
-1.06848
-1.26941
-1.26914
-1.19082
-1.09496
1.75772
1.72709
1.67753
1.60991
1.52049
1.96905
1.98603
1.9861
1.96718
1.92982
2.15023
2.18115
2.20365
2.21293
2.2072
2.25848
2.29773
2.33896
2.37192
2.38618
2.27558
2.31384
2.3565
2.39231
2.40902
-0.605373
-0.729653
-0.923695
-1.15403
-1.43545
0.0499631
-0.102558
-0.304963
-0.549876
-0.869243
0.65363
0.497119
0.308442
0.0848086
-0.201258
1.13936
1.01605
0.866859
0.685699
0.462645
1.52775
1.44098
1.32802
1.19235
1.03102
2.0019
1.96333
1.94303
1.94087
1.93572
1.98723
1.96159
1.94413
1.96266
2.01116
1.9749
1.95855
1.94494
1.98619
2.09858
1.96353
1.95408
1.94032
1.99593
2.1136
1.95307
1.94799
1.93145
1.99588
2.11475
2.0566
1.96739
1.92746
1.85869
1.79325
2.01172
1.95894
1.92364
1.88266
1.80762
1.40227
1.15096
0.722092
0.10414
-0.565396
1.49139
1.18812
0.739693
0.125602
-0.558921
)
;

boundaryField
{
    left
    {
        type            zeroGradient;
    }
    right
    {
        type            fixedValue;
        value           uniform 0;
    }
    down
    {
        type            zeroGradient;
    }
    up
    {
        type            zeroGradient;
    }
    cylinder
    {
        type            zeroGradient;
    }
    defaultFaces
    {
        type            empty;
    }
}


// ************************************************************************* //
