/*--------------------------------*- C++ -*----------------------------------*\
  =========                 |
  \\      /  F ield         | OpenFOAM: The Open Source CFD Toolbox
   \\    /   O peration     | Website:  https://openfoam.org
    \\  /    A nd           | Version:  13
     \\/     M anipulation  |
\*---------------------------------------------------------------------------*/
FoamFile
{
    format      ascii;
    class       surfaceScalarField;
    location    "0.405";
    object      phi;
}
// * * * * * * * * * * * * * * * * * * * * * * * * * * * * * * * * * * * * * //

dimensions      [0 3 -1 0 0 0 0];

internalField   nonuniform List<scalar> 
3485
(
0.00137163
-0.0112583
0.00988666
0.00505114
-0.0319072
0.0282277
0.0107644
-0.0513831
0.0456699
0.0183131
-0.0696766
0.0621279
0.0275467
-0.086834
0.0776004
0.0383509
-0.102899
0.0920947
0.0506371
-0.117903
0.105616
0.0643625
-0.131865
0.11814
0.0796245
-0.144854
0.129592
-0.156885
0.139491
0.0970189
0.00150031
-0.0127586
0.00544581
-0.0358527
0.0114763
-0.0574136
0.019324
-0.0775243
0.0287738
-0.0962838
0.0396485
-0.113774
0.0518039
-0.130058
0.0651322
-0.145194
0.079542
-0.159263
-0.17219
0.0948473
0.00147415
-0.0142328
0.00532696
-0.0397055
0.0111745
-0.0632612
0.0187211
-0.0850709
0.027726
-0.105289
0.0379898
-0.124037
0.0493467
-0.141415
0.0616572
-0.157504
0.0747893
-0.172395
-0.186032
0.0886315
0.00133885
-0.0155716
0.00485902
-0.0432257
0.0102109
-0.0686131
0.0171173
-0.0919773
0.0253545
-0.113526
0.0347414
-0.133424
0.0451321
-0.151806
0.0564067
-0.168779
0.0684584
-0.184447
-0.198788
0.081214
0.00116693
-0.0167385
0.00425602
-0.0463148
0.00897327
-0.0733304
0.015082
-0.098086
0.0223923
-0.120836
0.0307535
-0.141785
0.0400479
-0.1611
0.0501828
-0.178914
0.0610807
-0.195345
-0.210401
0.0726937
0.000980033
-0.0177186
0.00358801
-0.0489228
0.00758679
-0.0773291
0.0127843
-0.103284
0.0190267
-0.127078
0.0261936
-0.148952
0.034193
-0.169099
0.0429557
-0.187676
0.0524265
-0.204816
-0.220549
0.0625746
0.000780745
-0.0184993
0.00286509
-0.0510071
0.0060692
-0.0805332
0.0102433
-0.107458
0.0152672
-0.132102
0.0210478
-0.154733
0.0275158
-0.175567
0.0346225
-0.194783
0.0423339
-0.212527
-0.228851
0.0506364
0.000569727
-0.019069
0.00209356
-0.0525309
0.0044381
-0.0828778
0.00749309
-0.110513
0.0111693
-0.135779
0.0153978
-0.158961
0.0201289
-0.180298
0.0253313
-0.199985
0.0309888
-0.218185
-0.234969
0.037106
0.000352534
-0.0194216
0.00129586
-0.0534743
0.00274524
-0.0843272
0.00462872
-0.112396
0.00688706
-0.138037
0.00947391
-0.161548
0.0123564
-0.183181
0.0155157
-0.203145
0.0189466
-0.221616
-0.238686
0.0226637
0.000137822
-0.0195594
0.00050256
-0.053839
0.00105717
-0.0848818
0.00176986
-0.113109
0.00261418
-0.138881
0.00356902
-0.162503
0.00461888
-0.184231
0.00575425
-0.20428
0.00697167
-0.222833
0.00827624
-0.23999
0.000501747
-0.00187619
0.00137444
0.00212256
-0.0062559
0.00463508
0.00546456
-0.0113741
0.00803206
0.0101492
-0.0161194
0.0114347
0.0155803
-0.020109
0.014678
0.0214917
-0.0235115
0.0176001
0.0279703
-0.0266945
0.020216
0.0351597
-0.0298831
0.0226937
0.043047
-0.0330348
0.0251474
-0.036002
0.0515021
0.0275469
0.000428745
-0.00230493
0.00211821
-0.00794537
0.00545239
-0.0147082
0.00984702
-0.020514
0.0149427
-0.0252048
0.0208385
-0.0294073
0.0277026
-0.0335586
0.035487
-0.0376675
0.043986
-0.0415338
-0.0450521
0.0530361
0.000681674
-0.00298661
0.00271269
-0.00997639
0.00579052
-0.0177861
0.00979606
-0.0245195
0.0148712
-0.0302799
0.0211832
-0.0357193
0.0286652
-0.0410407
0.0370437
-0.0460461
0.0461018
-0.0505919
-0.0546967
0.0557464
0.000866391
-0.003853
0.00305694
-0.0121669
0.00608824
-0.0208174
0.0102269
-0.0286582
0.0157386
-0.0357916
0.0226072
-0.0425879
0.0305946
-0.0490281
0.0394657
-0.0549171
0.049123
-0.0602492
-0.0650572
0.0594835
0.00092095
-0.00477395
0.00319815
-0.0144441
0.00652493
-0.0241441
0.0111329
-0.0332662
0.0171597
-0.0418184
0.0244823
-0.0499105
0.0329109
-0.0574566
0.0423462
-0.0643524
0.0527234
-0.0706264
-0.0762439
0.0639101
0.000942522
-0.00571647
0.0033715
-0.0168731
0.00709436
-0.027867
0.0121827
-0.0383546
0.0186469
-0.0482825
0.0263769
-0.0576406
0.0352759
-0.0663556
0.0452952
-0.0743717
0.0563557
-0.0816868
-0.0881877
0.0682995
0.000979248
-0.00669572
0.00358336
-0.0194772
0.00764241
-0.0319261
0.0131108
-0.043823
0.0199329
-0.0551046
0.0280229
-0.0657306
0.0373187
-0.0756514
0.0477735
-0.0848265
0.0593141
-0.0932274
-0.100669
0.0717954
0.00101764
-0.00771336
0.00376729
-0.0222269
0.00807129
-0.03623
0.0138213
-0.049573
0.0209228
-0.0622062
0.0292873
-0.0740951
0.0388452
-0.0852093
0.0495397
-0.095521
0.061312
-0.105
-0.113419
0.0740617
0.00105443
-0.00876779
0.00393641
-0.0251089
0.0084609
-0.0407545
0.0144826
-0.0555947
0.0218755
-0.0695991
0.0305293
-0.0827489
0.0403489
-0.0950289
0.0512456
-0.106418
0.0631382
-0.116892
-0.126302
0.0760219
0.00111888
0.00423772
0.00915311
0.0156863
0.0236876
0.0330334
0.0436209
0.0553431
0.0680423
0.0812304
0.1144
-0.413452
0.350555
0.168132
-0.470166
0.416434
0.210031
-0.419617
0.377718
0.243389
-0.323866
0.290508
0.26927
-0.211544
0.185662
0.288238
-0.106199
0.0872313
0.299335
-0.029682
0.0185853
0.303978
0.00058892
-0.0052319
0.305169
0.00445398
-0.00564519
0.00413699
-0.00312375
0.116068
-0.476485
0.169842
-0.523941
0.211804
-0.461579
0.244955
-0.357017
0.270865
-0.237454
0.289979
-0.125313
0.301696
-0.0413991
0.307354
-0.00506849
0.310083
0.00172417
0.00408582
0.117923
-0.538662
0.170772
-0.576789
0.212436
-0.503243
0.245103
-0.389684
0.270909
-0.263259
0.289893
-0.144298
0.301365
-0.0528707
0.307036
-0.0107399
0.309969
-0.00120855
0.00378878
0.120311
-0.599489
0.17119
-0.627668
0.212066
-0.544119
0.243987
-0.421605
0.26956
-0.288832
0.288428
-0.163166
0.299787
-0.0642302
0.305813
-0.016765
0.309182
-0.00457755
0.00308328
0.123192
-0.65877
0.17131
-0.675786
0.21082
-0.58363
0.241737
-0.452522
0.266903
-0.313998
0.285768
-0.182031
0.297363
-0.0758256
0.304145
-0.0235468
0.308258
-0.00869066
0.00166281
0.126024
-0.716495
0.17118
-0.720942
0.208796
-0.621245
0.238473
-0.4822
0.263004
-0.338529
0.281974
-0.201
0.294207
-0.0880586
0.302098
-0.0314372
0.30723
-0.0138226
-0.000764707
0.12794
-0.772639
0.17063
-0.763632
0.206067
-0.656683
0.234322
-0.510454
0.257961
-0.362169
0.277073
-0.220112
0.290355
-0.10134
0.29969
-0.0407724
0.306105
-0.0202383
-0.00448232
0.128001
-0.826578
0.169184
-0.804815
0.202516
-0.690015
0.229284
-0.537222
0.251815
-0.384699
0.271035
-0.239332
0.285777
-0.116082
0.296909
-0.0519046
0.304868
-0.0281971
-0.0097786
0.125905
-0.876461
0.166438
-0.845348
0.198102
-0.721679
0.223477
-0.562598
0.244715
-0.405937
0.263897
-0.258515
0.280406
-0.132591
0.293663
-0.0651617
0.303112
-0.0376463
-0.0166073
0.122206
-0.917437
0.161588
-0.884731
0.191954
-0.752044
0.216221
-0.586866
0.236216
-0.425932
0.255306
-0.277604
0.274001
-0.151285
0.288745
-0.0799056
0.296875
-0.0457765
-0.0227751
0.583891
-0.919885
-0.581442
0.561154
-0.861994
0.523964
-0.714854
0.487736
-0.550638
0.459843
-0.398038
0.4468
-0.264562
0.447084
-0.151569
0.445427
-0.0782492
0.439647
-0.0399959
-0.0205493
0.68282
-0.871284
-0.731421
0.619737
-0.798911
0.554188
-0.649305
0.497354
-0.493804
0.454106
-0.35479
0.428095
-0.23855
0.416166
-0.139641
0.409057
-0.0711407
0.404188
-0.0351262
-0.0183288
0.754058
-0.774926
-0.850417
0.655387
-0.700239
0.564123
-0.558041
0.488913
-0.418594
0.432266
-0.298143
0.395501
-0.201785
0.377797
-0.121936
0.369746
-0.0630901
0.364721
-0.0301014
-0.0157492
0.779151
-0.641542
-0.912534
0.6541
-0.575188
0.546937
-0.450878
0.462232
-0.333889
0.400105
-0.236016
0.358874
-0.160554
0.33685
-0.099911
0.326909
-0.053149
0.321811
-0.0250041
-0.0130901
0.753109
-0.492363
-0.902289
0.617809
-0.439888
0.506616
-0.339686
0.420886
-0.248159
0.358897
-0.174027
0.317143
-0.118801
0.293145
-0.0759131
0.28186
-0.0418638
0.276539
-0.0196829
-0.0103392
0.685174
-0.345802
-0.831735
0.552835
-0.307549
0.446697
-0.233548
0.366465
-0.167928
0.309162
-0.116723
0.270293
-0.0799316
0.246694
-0.0523141
0.234811
-0.0299803
0.229349
-0.0142217
-0.00757058
0.582654
-0.213847
-0.714609
0.462957
-0.187853
0.369448
-0.140038
0.300205
-0.098685
0.251438
-0.0679558
0.218231
-0.0467248
0.197211
-0.0312947
0.185887
-0.0186555
0.180602
-0.00893736
-0.00490759
0.448775
-0.105519
-0.557103
0.351211
-0.0902886
0.277122
-0.0659488
0.223659
-0.0452221
0.186582
-0.0308784
0.161252
-0.0213951
0.144641
-0.0146834
0.13511
-0.00912429
0.130527
-0.00435481
-0.00255319
0.286597
-0.0302197
-0.361896
0.220923
-0.0246144
0.172517
-0.0175424
0.138762
-0.0114675
0.115638
-0.00775415
0.0996984
-0.0054555
0.0888902
-0.00387525
0.082334
-0.00256809
0.0791668
-0.0011876
-0.000813928
0.101316
-0.131536
0.0767021
0.0591597
0.0476922
0.0399381
0.0344826
0.0306073
0.0280392
0.0268516
0.738826
0.0102239
-0.740773
0.733079
0.0284106
0.723439
0.0467464
0.710163
0.0639116
0.693568
0.0791703
0.67407
0.092191
0.652262
0.103022
0.628696
0.112197
0.604245
0.119299
0.119821
0.845552
0.0134003
-0.848729
0.837323
0.0366395
0.827288
0.0567818
0.816591
0.0746084
0.805245
0.0905164
0.792887
0.104549
0.779268
0.116641
0.764565
0.1269
0.749092
0.134772
0.137492
0.844992
0.0114278
-0.84302
0.848893
0.0327385
0.853032
0.052643
0.856484
0.0711558
0.858846
0.088155
0.859931
0.103464
0.859603
0.116969
0.85797
0.128533
0.855296
0.137445
0.142372
0.800218
0.00930667
-0.798097
0.805827
0.0271294
0.814427
0.0440433
0.825649
0.0599339
0.839019
0.0747848
0.853875
0.0886084
0.869452
0.101392
0.885093
0.112892
0.899985
0.122553
0.129822
0.737869
0.00704067
-0.735603
0.744159
0.0208402
0.754129
0.0340731
0.767511
0.046552
0.784093
0.0582023
0.803675
0.069026
0.82601
0.0790567
0.850654
0.0882484
0.876588
0.0966196
0.104122
0.653923
0.00485548
-0.651737
0.660206
0.0145573
0.670381
0.0238973
0.684225
0.0327083
0.70153
0.040897
0.722119
0.0484374
0.745817
0.055359
0.772346
0.0617195
0.801241
0.0677244
0.0736275
0.549113
0.0029171
-0.547175
0.554814
0.00885664
0.56414
0.0145711
0.576908
0.0199404
0.592918
0.0248871
0.611972
0.0293831
0.633876
0.0334548
0.658414
0.0371814
0.685391
0.0407482
0.0444092
0.422792
0.00137625
-0.421252
0.427413
0.0042363
0.435008
0.00697581
0.445423
0.00952595
0.458471
0.0118388
0.473958
0.0138957
0.491699
0.0157139
0.51153
0.01735
0.533351
0.0189277
0.0206571
0.273828
0.00036682
-0.272818
0.276915
0.00114953
0.281999
0.00189178
0.288955
0.00256941
0.29763
0.00316443
0.307856
0.00366909
0.319482
0.00408799
0.332395
0.00443664
0.346563
0.00476043
0.00532333
0.100484
-0.100117
0.101633
0.103525
0.106094
0.109259
0.112928
0.117016
0.121452
0.126213
0.0779555
0.159481
-0.142461
-0.0949759
0.0630453
0.147443
-0.132532
0.0496309
0.134393
-0.120979
0.0376119
0.120323
-0.108304
0.0270319
0.105165
-0.0945852
0.017981
0.0888915
-0.0798406
0.0105745
0.0714596
-0.0640531
0.00496396
0.0528097
-0.0471992
0.00134816
0.0328751
-0.0292593
0.0116395
-0.0102914
0.0779587
0.174418
-0.0928952
0.0638838
0.161517
0.0508483
0.147428
0.0389436
0.132228
0.0282794
0.115829
0.0190021
0.0981688
0.0112904
0.0791712
0.00535987
0.0587402
0.00147726
0.0367577
0.0131168
0.0731929
0.187918
-0.086693
0.0603792
0.174331
0.0483563
0.159451
0.0372523
0.143332
0.0272051
0.125877
0.0183802
0.106994
0.0109769
0.0865745
0.00523539
0.0644818
0.0014496
0.0405435
0.0145664
0.066781
0.200347
-0.0792101
0.0550399
0.186072
0.0440537
0.170438
0.0339242
0.153462
0.0247678
0.135033
0.0167275
0.115034
0.00998176
0.0933202
0.00475141
0.0697121
0.0013096
0.0439853
0.015876
0.0593198
0.211654
-0.0706266
0.0487203
0.196672
0.0388705
0.180287
0.029843
0.162489
0.0217252
0.143151
0.0146299
0.122129
0.00870236
0.0992478
0.00412638
0.0742881
0.00113092
0.0469808
0.0170069
0.0506032
0.22152
-0.0604693
0.0414145
0.205861
0.0329297
0.188772
0.0251985
0.17022
0.0182843
0.150065
0.0122723
0.128141
0.00727495
0.104245
0.00343647
0.0781266
0.000937248
0.04948
0.0179442
0.0404606
0.229564
-0.048505
0.0330149
0.213306
0.0261778
0.195609
0.019978
0.17642
0.0144577
0.155585
0.00967752
0.132921
0.0057204
0.108202
0.0026937
0.0811533
0.000731809
0.0514419
0.018676
0.0290561
0.235443
-0.0349346
0.0236525
0.21871
0.0187154
0.200546
0.0142555
0.18088
0.0102963
0.159544
0.00687748
0.13634
0.00405552
0.111024
0.0019042
0.0833046
0.000515255
0.0528309
0.0191912
0.0169182
0.238928
-0.0204031
0.0137422
0.221886
0.010855
0.203434
0.00825476
0.18348
0.00595135
0.161848
0.00396634
0.138325
0.00233205
0.112658
0.00109058
0.0845461
0.000293214
0.0536282
0.0194845
0.00482751
-0.00589022
0.00388003
0.00303362
0.00228302
0.00162783
0.00107175
0.000621444
0.000285735
7.49424e-05
0.0435525
0.0412543
-0.0524275
-0.0323792
0.0351984
0.0382109
-0.0298569
0.0275525
0.0348207
-0.0271749
0.0208356
0.0312211
-0.0245042
0.0150437
0.0276686
-0.0218767
0.00993719
0.0241175
-0.019011
0.00540894
0.0199839
-0.0154556
0.00195538
0.014387
-0.0109334
0.000381381
0.00735884
-0.00578484
0.0020776
-0.00169621
0.0437673
0.0504262
-0.0529391
0.0351148
0.0468634
0.027076
0.0428595
0.0199339
0.0383632
0.013999
0.0336036
0.00927177
0.0288447
0.00550754
0.0237481
0.00256581
0.0173287
0.000617104
0.00930755
0.0026947
0.0450455
0.0599977
-0.0546169
0.0361055
0.0558033
0.0278489
0.0511162
0.0203958
0.0458163
0.0140727
0.0399266
0.00914051
0.0337769
0.00554092
0.0273477
0.00290043
0.0199692
0.00080985
0.0113981
0.00350455
0.0475167
0.0702042
-0.0577233
0.0380599
0.0652601
0.0294669
0.0597093
0.0217764
0.0535067
0.0151172
0.0465858
0.00974895
0.0391452
0.0057924
0.0313043
0.00297459
0.022787
0.000879215
0.0134935
0.00438377
0.0509802
0.0811516
-0.0619276
0.0408551
0.0753852
0.0317154
0.0688489
0.0236238
0.0615984
0.0166049
0.0536047
0.0107877
0.0449624
0.00630803
0.0357839
0.00307551
0.0260195
0.000884885
0.0156841
0.00526866
0.054653
0.0927687
-0.0662701
0.0439118
0.0861264
0.0342098
0.078551
0.025622
0.0701861
0.0181712
0.0610555
0.0119146
0.0512191
0.00694795
0.0407505
0.00328861
0.0296789
0.00091181
0.0180609
0.00618047
0.0576776
0.104868
-0.069777
0.0465007
0.0973033
0.0363811
0.0886705
0.0273796
0.0791877
0.0195323
0.0689028
0.0128901
0.0578613
0.00753274
0.0461078
0.00353159
0.03368
0.000961603
0.0206309
0.00714207
0.0597088
0.11721
-0.0720508
0.0483172
0.108695
0.0379619
0.0990258
0.0286885
0.088461
0.0205489
0.0770423
0.0136122
0.0647981
0.00796926
0.0517507
0.00372544
0.0379238
0.00100637
0.02335
0.00814844
0.0615033
0.129676
-0.0739694
0.0499942
0.120204
0.0394352
0.109585
0.0298978
0.0979983
0.0214685
0.0854716
0.0142441
0.0720225
0.00833893
0.0576559
0.00388653
0.0423762
0.00104242
0.0261941
0.00919085
0.0663454
-0.0791299
0.054017
0.0426233
0.0323174
0.0232039
0.0153858
0.00898871
0.00416576
0.00110053
0.214681
0.0589043
-0.0755956
0.23642
0.0909952
-0.112734
0.259524
0.123889
-0.146993
0.272104
0.114565
-0.127146
0.27199
0.112601
-0.112486
0.250746
0.180825
-0.159581
0.217459
0.294012
-0.260726
0.174077
0.411443
-0.36806
0.118058
0.492992
-0.436974
0.46009
-0.394459
0.213979
0.042915
0.234574
0.0704
0.256858
0.101605
0.269993
0.10143
0.271246
0.111348
0.251177
0.200893
0.217925
0.327265
0.174115
0.455253
0.117954
0.549153
0.525105
0.213432
0.0274728
0.233309
0.0505228
0.254829
0.0800858
0.26831
0.0879492
0.269744
0.109914
0.250271
0.220367
0.217068
0.360467
0.173131
0.49919
0.117961
0.604323
0.588449
0.213015
0.0124476
0.232614
0.0309235
0.253428
0.0592717
0.266948
0.0744297
0.267602
0.10926
0.248078
0.239891
0.214968
0.393577
0.171448
0.54271
0.118619
0.657153
0.649345
0.212799
-0.00236187
0.232438
0.0112852
0.25254
0.0391692
0.265553
0.0614164
0.264702
0.110111
0.244612
0.259981
0.211752
0.426437
0.169438
0.585024
0.120041
0.706549
0.707458
0.212863
-0.0172348
0.232691
-0.00854295
0.251989
0.0198715
0.263828
0.0495774
0.260888
0.113051
0.23992
0.280948
0.207623
0.458735
0.167357
0.625289
0.121781
0.752125
0.762969
0.213177
-0.0324224
0.233238
-0.0286034
0.251574
0.00153501
0.261582
0.0395703
0.256084
0.118549
0.234144
0.302887
0.20283
0.490049
0.165206
0.662914
0.122975
0.794356
0.816167
0.213552
-0.0479844
0.233905
-0.0489569
0.251079
-0.0156384
0.258595
0.0320538
0.250151
0.126993
0.227348
0.32569
0.197425
0.519973
0.16258
0.697759
0.12262
0.834316
0.866736
0.213719
-0.0637132
0.23454
-0.0697788
0.250313
-0.031411
0.254876
0.0274913
0.243285
0.138584
0.219861
0.349114
0.191541
0.548293
0.159081
0.730219
0.120333
0.873064
0.9131
0.213786
-0.0795091
0.234959
-0.0909521
0.2492
-0.0456522
0.250027
0.026664
0.234914
0.153697
0.21104
0.372988
0.184287
0.575046
0.153849
0.760657
0.11662
0.910293
0.95059
0.332184
-0.109683
0.371164
-0.129932
0.406995
-0.0814831
0.425496
0.00816326
0.440636
0.138557
0.467908
0.345716
0.506727
0.536227
0.549607
0.717777
0.581303
0.878597
0.945454
0.586439
0.333516
-0.141188
0.373574
-0.16999
0.409179
-0.117088
0.425694
-0.00835197
0.439347
0.124905
0.477228
0.307834
0.534729
0.478726
0.604585
0.647922
0.675356
0.807826
0.887895
0.732915
0.335787
-0.174966
0.375159
-0.209362
0.40998
-0.15191
0.424339
-0.0227108
0.433294
0.11595
0.476384
0.264745
0.547579
0.40753
0.63926
0.556242
0.742414
0.704671
0.783911
0.846399
0.339503
-0.212458
0.373302
-0.243161
0.388101
-0.166709
0.387819
-0.0224287
0.403089
0.100679
0.454962
0.212871
0.535358
0.327135
0.641172
0.450428
0.767394
0.578449
0.646712
0.904593
0.347428
-0.257876
0.356166
-0.251899
0.340462
-0.151005
0.338781
-0.0207473
0.361317
0.0781431
0.415413
0.158775
0.498137
0.244411
0.608394
0.340171
0.744015
0.442828
0.49567
0.895057
0.341103
-0.296969
0.32195
-0.232745
0.289931
-0.118986
0.286996
-0.0178125
0.310861
0.0542777
0.362071
0.107566
0.440335
0.166146
0.546073
0.234433
0.678929
0.309972
0.347886
0.826713
0.314333
-0.309292
0.271951
-0.190363
0.234991
-0.0820268
0.230579
-0.0134005
0.252435
0.0324218
0.296875
0.0631255
0.36499
0.0980314
0.458506
0.140917
0.578879
0.189599
0.215061
0.711704
0.273815
-0.281097
0.213102
-0.129649
0.17517
-0.0440946
0.169964
-0.00819506
0.187217
0.0151691
0.221474
0.0288681
0.27441
0.0450958
0.348775
0.066552
0.447082
0.0912919
0.106124
0.556019
0.214645
-0.193731
0.14056
-0.0555647
0.109795
-0.0133295
0.104678
-0.003078
0.115939
0.00390848
0.137596
0.00721109
0.171223
0.011469
0.220008
0.0177665
0.286345
0.0249547
0.0304051
0.362065
0.108279
0.0527141
0.0393846
0.0363066
0.0402151
0.0474262
0.0588951
0.0766616
0.101616
0.132021
0.608611
-0.117148
0.632287
-0.116572
0.655116
-0.109521
0.676276
-0.10037
0.695226
-0.0895768
0.711368
-0.0766112
0.724265
-0.0614018
0.733594
-0.0442637
0.73908
-0.0258895
-0.00758364
0.750262
-0.134496
0.765179
-0.131489
0.779394
-0.123736
0.792627
-0.113603
0.804698
-0.101648
0.81584
-0.0877526
0.826399
-0.0719615
0.836392
-0.0542565
0.844844
-0.0343412
-0.0114686
0.851034
-0.139131
0.853489
-0.133944
0.855012
-0.125259
0.855395
-0.113986
0.854549
-0.100802
0.852648
-0.0858512
0.849918
-0.0692319
0.846757
-0.051095
0.843959
-0.0315439
-0.0105288
0.892641
-0.127179
0.878612
-0.119915
0.863918
-0.110565
0.849338
-0.0994065
0.835479
-0.0869426
0.823041
-0.073413
0.812649
-0.0588402
0.804765
-0.0432106
0.799751
-0.0265298
-0.0088751
0.870399
-0.102521
0.845611
-0.0951271
0.821985
-0.0869388
0.800515
-0.077936
0.78167
-0.0680973
0.765724
-0.057467
0.752896
-0.0460127
0.743407
-0.033722
0.737527
-0.0206494
-0.00695146
0.797042
-0.0728503
0.768961
-0.0670461
0.743138
-0.0611158
0.720046
-0.0548439
0.699976
-0.0480276
0.683114
-0.0406055
0.669643
-0.0325413
0.65977
-0.0238491
0.653727
-0.0146063
-0.00496192
0.682998
-0.0441444
0.656506
-0.0405542
0.632403
-0.0370125
0.610878
-0.0333188
0.592144
-0.0292934
0.576394
-0.0248558
0.563827
-0.0199741
0.554645
-0.0146676
0.549043
-0.0090039
-0.00309341
0.532509
-0.0206342
0.510905
-0.0189502
0.49127
-0.0173783
0.473699
-0.0157474
0.458346
-0.0139406
0.445394
-0.0119031
0.435034
-0.00961479
0.427456
-0.00708965
0.422823
-0.00437056
-0.00152215
0.346782
-0.00535129
0.33264
-0.00480849
0.319746
-0.00448418
0.308131
-0.00413288
0.297904
-0.00371298
0.289211
-0.00321027
0.282216
-0.00261951
0.277073
-0.00194698
0.273912
-0.00120914
-0.000428987
0.12667
0.121862
0.117377
0.113245
0.109532
0.106321
0.103702
0.101755
0.100546
0.000185045
0.0116082
-0.0117932
0.000623697
0.0304439
-0.0308826
0.00123709
0.0462381
-0.0468515
0.0019772
0.0594631
-0.0602033
0.00277644
0.0700165
-0.0708158
0.00376928
0.0798834
-0.0808763
0.00396321
0.0772618
-0.0774558
0.00408456
0.0700375
-0.0701588
0.00394468
0.0610752
-0.0609353
0.0499523
0.00350694
-0.0495145
0.000533361
0.0110748
0.00180375
0.0291735
0.00358485
0.044457
0.00574088
0.0573071
0.0080723
0.0676851
0.0110389
0.0769168
0.0116752
0.0766256
0.01208
0.0696326
0.0117728
0.0613825
0.0510746
0.0106505
0.000835441
0.0102394
0.00283164
0.0271773
0.00563875
0.0416499
0.00904098
0.0539049
0.0127386
0.0639875
0.0172463
0.0724091
0.018789
0.0750829
0.0195705
0.0688511
0.0193843
0.0615687
0.0524311
0.0180279
0.0010559
0.00918347
0.00359676
0.0246365
0.00719315
0.0380535
0.0115551
0.049543
0.0163555
0.059187
0.0217464
0.0670183
0.0250712
0.0717581
0.0263534
0.0675688
0.0266017
0.0613205
0.0535629
0.0254698
0.00115136
0.00803211
0.00397902
0.0218088
0.00804117
0.0339914
0.0129961
0.044588
0.0185505
0.0536326
0.0245561
0.0610128
0.0299505
0.0663637
0.0320883
0.065431
0.0330096
0.0603992
0.0540877
0.0324848
0.0011114
0.00692071
0.0039657
0.0189545
0.00818503
0.029772
0.0133894
0.0393837
0.0193169
0.0477051
0.0257706
0.0545591
0.0324142
0.0597201
0.0363107
0.0615346
0.0381224
0.0585875
0.0537037
0.0385064
0.000926196
0.00599451
0.00357276
0.016308
0.0077102
0.0256346
0.012881
0.0342129
0.0187857
0.0418004
0.0253371
0.0480077
0.0323196
0.0527376
0.0382734
0.0555808
0.0415852
0.0552757
0.0521797
0.0431092
0.000567919
0.0054266
0.00278666
0.0140892
0.00665733
0.0217639
0.011621
0.0292492
0.0172039
0.0362174
0.0234469
0.0417648
0.0302852
0.0458992
0.0371828
0.0486832
0.0425594
0.0498991
0.0489214
0.0458177
0.000104128
0.00532247
0.00176903
0.0124243
0.00517609
0.0183569
0.00981519
0.0246101
0.0149574
0.0310752
0.0206217
0.0361005
0.0269037
0.0396172
0.0335867
0.0420002
0.0400839
0.0434019
0.0437938
0.0452115
-0.000174893
0.00549736
0.00108793
0.0111615
0.00385712
0.0155877
0.0078878
0.0205795
0.0125028
0.0264602
0.0175732
0.03103
0.0231785
0.034012
0.0292498
0.0359289
0.0356354
0.0370163
0.0373682
0.042061
-1.9892e-05
0.00551725
0.00114196
0.00999964
0.00327993
0.0134497
0.0064157
0.0174437
0.0102981
0.0225779
0.0148394
0.0264887
0.0199582
0.0288932
0.0254892
0.0303978
0.0312256
0.0312799
0.0316955
0.0368983
0.000379197
0.00513806
0.00153452
0.00884432
0.00318403
0.0118002
0.00549527
0.0151324
0.00871445
0.0193587
0.0128985
0.0223047
0.0177482
0.0240434
0.0230132
0.0251328
0.0285024
0.0257907
0.0260613
0.0341366
0.000625898
0.00451216
0.00171001
0.0077602
0.00303128
0.0104789
0.00485044
0.0133133
0.00783796
0.0163711
0.0119234
0.0182192
0.0166713
0.0192955
0.0218417
0.0199625
0.027302
0.0203304
0.0204123
0.0329509
0.00067804
0.00383412
0.00164502
0.00679322
0.00282397
0.00929996
0.00470136
0.0114359
0.00796818
0.0131043
0.0121924
0.013995
0.0170035
0.0144844
0.0222392
0.0147268
0.0278029
0.0147668
0.0146064
0.0336087
0.000663232
0.00317088
0.00155231
0.00590414
0.00298724
0.00786503
0.00556534
0.00885777
0.00934893
0.00932073
0.013864
0.00947995
0.0189008
0.00944765
0.0243595
0.00926801
0.030172
0.0089543
0.00851193
0.0362665
0.00059226
0.00257862
0.00170517
0.00479122
0.00403953
0.00553065
0.00748906
0.00540824
0.0117359
0.0050739
0.0165779
0.00463798
0.0219132
0.00411232
0.0276822
0.00349897
0.0338334
0.0028031
0.00203717
0.0403082
0.000518387
0.00206022
0.00246506
0.00284453
0.00572359
0.00227212
0.00971538
0.00141644
0.0143005
0.000488738
0.0194319
-0.000493341
0.0250782
-0.00153402
0.0311969
-0.00261977
0.0377281
-0.00372806
-0.0048467
0.044612
0.000859412
0.0012008
0.00359807
0.000105858
0.00715672
-0.00128654
0.0113394
-0.00276626
0.0161304
-0.00430226
0.0215387
-0.00590158
0.0275239
-0.00751932
0.0339979
-0.00909377
0.0408783
-0.0106084
-0.0120917
0.0481233
0.00150187
-0.00030107
0.00413496
-0.00252725
0.00755735
-0.00470893
0.0117684
-0.00697732
0.0167746
-0.00930841
0.0225015
-0.0116285
0.0287867
-0.0138046
0.0355095
-0.0158166
0.0426416
-0.0177405
-0.0196316
0.0501815
0.00107336
0.00318119
0.00650431
0.0109617
0.0163312
0.0223028
0.0287142
0.0355914
0.0429983
0.0509136
0.0513851
0.0837657
-0.0982525
0.0772046
-0.0072833
-0.0185362
0.099743
-0.0508221
0.0282837
0.113331
-0.0466824
0.0330939
0.121253
-0.0266123
0.0186905
0.124871
-0.00796964
0.00435235
0.126172
0.0024245
-0.00372587
0.127062
0.00460462
-0.00549502
0.128339
0.00333811
-0.00461457
0.000635392
-0.00252917
0.0585489
0.0593533
0.0915153
-0.0402497
0.11861
-0.0779165
0.134539
-0.0626121
0.143225
-0.0352983
0.146873
-0.0116166
0.147932
0.00136476
0.1486
0.0039367
0.149751
0.00218717
-0.00103596
0.0665206
0.0257836
0.104835
-0.0785637
0.135762
-0.108844
0.155331
-0.0821806
0.165291
-0.045259
0.168996
-0.0153218
0.169692
0.000668798
0.169961
0.00366782
0.170784
0.00136496
-0.00230533
0.0753581
-0.0159659
0.117614
-0.12082
0.151425
-0.142655
0.174763
-0.105518
0.186781
-0.0572772
0.1908
-0.0193413
0.191149
0.000320371
0.190943
0.00387422
0.19131
0.00099738
-0.00304714
0.084376
-0.0640754
0.129394
-0.165838
0.165353
-0.178614
0.191991
-0.132155
0.206922
-0.0722082
0.211847
-0.0242671
0.212015
0.000152503
0.211342
0.00454756
0.211194
0.0011452
-0.00319064
0.0928132
-0.11658
0.139848
-0.212873
0.177463
-0.216228
0.206628
-0.16132
0.224839
-0.0904195
0.231583
-0.0310112
0.231946
-0.000210086
0.230925
0.00556875
0.230277
0.00179268
-0.00272403
0.100018
-0.171987
0.148714
-0.261569
0.18767
-0.255184
0.218606
-0.192256
0.239823
-0.111636
0.249343
-0.0405317
0.250537
-0.00140436
0.249421
0.0066849
0.248377
0.00283658
-0.00170015
0.105651
-0.229514
0.155879
-0.311797
0.195937
-0.295242
0.228053
-0.224372
0.251548
-0.135131
0.26436
-0.0533436
0.267288
-0.00433291
0.266505
0.00746831
0.265261
0.00408004
-0.000234059
0.109692
-0.289025
0.161382
-0.363487
0.20231
-0.33617
0.235176
-0.257239
0.260088
-0.160044
0.275959
-0.0692144
0.281549
-0.00992206
0.281753
0.00726393
0.280669
0.0051637
0.00145989
0.112444
0.16539
0.206938
0.240208
0.265826
0.283843
0.292507
0.294539
0.294057
0.0131985
0.00607854
-0.019277
0.0109792
0.00221926
0.0114895
-0.000510316
0.0128945
-0.00140495
0.0135992
-0.000704735
0.0137233
-0.000124138
0.013536
0.000187345
0.0132846
0.000251448
0.0130654
0.000219122
0.000173664
0.037243
0.0232178
-0.0543822
0.0314674
0.00799484
0.0339459
-0.00298886
0.0379552
-0.00541425
0.040101
-0.00285049
0.0405053
-0.000528503
0.0399722
0.000720459
0.0392459
0.000977764
0.0386139
0.000851177
0.000567241
0.0579558
0.0481019
-0.08284
0.0508404
0.0151102
0.0557939
-0.00794234
0.0623007
-0.0119211
0.0659263
-0.00647599
0.0666836
-0.00128584
0.065859
0.00154506
0.0646984
0.00213837
0.0637031
0.00184657
0.00112516
0.0738941
0.0754107
-0.101203
0.0680253
0.020979
0.0763099
-0.0162269
0.0855496
-0.0211609
0.0908116
-0.011738
0.0920555
-0.00252964
0.0910255
0.00257506
0.0894937
0.00367017
0.0882116
0.0031287
0.00179687
0.0813893
-0.104231
0.083832
0.0958887
0.107822
0.114774
0.116597
0.115446
0.113622
0.112136
0.00273344
-0.000172911
-0.00256053
0.00326427
-0.000530825
0.00417642
-0.000912152
0.00548737
-0.00131095
0.00718365
-0.00169628
0.00922807
-0.00204443
0.0115845
-0.00235646
0.0141727
-0.00258821
0.0168578
-0.00268502
-0.00241924
0.00778679
-0.000645645
-0.00731406
0.00923357
-0.0019776
0.0117127
-0.00339132
0.0152688
-0.00486706
0.0198828
-0.00631022
0.0254804
-0.00764208
0.0319624
-0.00883844
0.0391534
-0.00977927
0.0467644
-0.0102959
-0.0100371
0.0124771
-0.00138364
-0.0117391
0.0147266
-0.00422712
0.0185592
-0.0072239
0.0240227
-0.0103306
0.0310769
-0.0133644
0.0395833
-0.0161484
0.0493247
-0.0185799
0.0600474
-0.020502
0.0714106
-0.0216592
-0.0214664
0.0168061
-0.00234752
-0.0158423
0.0197302
-0.00715114
0.024673
-0.0121668
0.0316491
-0.0173067
0.0405471
-0.0222625
0.0511027
-0.026704
0.0629332
-0.0304103
0.0756891
-0.0332579
0.0888546
-0.0348247
-0.0338148
0.0207914
-0.019632
0.0242907
0.0301518
0.038315
0.0485373
0.0603396
0.0730385
0.0855983
0.0959851
0.0314773
-0.0312888
0.0370994
-0.037288
0.0256121
-0.0308857
0.0367509
0.0199492
-0.0300531
0.035716
0.014698
-0.0286575
0.0339087
0.0100725
-0.0264504
0.0310758
0.00621196
-0.0227674
0.0266279
0.00311925
-0.0176442
0.0207369
0.0010216
-0.0136194
0.015717
-8.40663e-05
-0.0101572
0.0112629
-0.00563563
0.00555157
0.0295114
-0.0254197
-0.0353805
0.0237902
-0.0251645
0.018295
-0.0245579
0.013203
-0.0235655
0.008766
-0.0220134
0.00536636
-0.0193677
0.00303052
-0.0153084
0.00140413
-0.011993
0.00030253
-0.00905558
-0.0053331
0.0294915
-0.0194265
-0.0354846
0.0236827
-0.0193556
0.0181605
-0.0190357
0.0130417
-0.0184466
0.00852833
-0.0175
0.00507061
-0.01591
0.00302258
-0.0132603
0.00165694
-0.0106274
0.000589044
-0.00798768
-0.00474405
0.0313937
-0.0131618
-0.0376585
0.0253638
-0.0133256
0.0196517
-0.0133236
0.0143442
-0.0131391
0.00958024
-0.0127361
0.00568347
-0.0120132
0.00322084
-0.0107977
0.00177619
-0.00918269
0.000734648
-0.00694613
-0.0040094
0.0349423
-0.0065121
-0.041592
0.0285747
-0.00695803
0.0225609
-0.00730979
0.0169674
-0.00754557
0.0118856
-0.0076542
0.00749878
-0.00762643
0.00415301
-0.00745192
0.00200378
-0.00703345
0.00080203
-0.00574437
-0.00320736
0.0391825
0.000579224
-0.0462738
0.0324165
-0.000192013
0.0260477
-0.000940961
0.0201496
-0.00164747
0.0147826
-0.0022872
0.01001
-0.00285384
0.00591555
-0.00335746
0.00267136
-0.00378925
0.000719667
-0.00379267
-0.00248769
0.0429322
0.00806947
-0.0504224
0.0357822
0.006958
0.0290265
0.00581478
0.0227634
0.00461557
0.0170922
0.00338407
0.0120511
0.00218725
0.0076245
0.00106915
0.00382296
1.22943e-05
0.00097061
-0.000940311
-0.00151707
0.0451453
0.0158399
-0.0529157
0.0377493
0.014354
0.0307267
0.0128375
0.0241163
0.011226
0.0180603
0.00944
0.0127391
0.00750845
0.0082269
0.00558139
0.0045031
0.0037361
0.001612
0.0019508
9.49325e-05
0.0452888
0.0239033
-0.0533522
0.037706
0.0219368
0.0306064
0.0199371
0.0239064
0.017926
0.0175809
0.0157655
0.0118262
0.0132632
0.00700968
0.0103979
0.0034037
0.00734209
0.00114212
0.00421239
0.00123705
0.0442756
-0.0527516
0.0363556
0.0291178
0.0225396