/*--------------------------------*- C++ -*----------------------------------*\
  =========                 |
  \\      /  F ield         | OpenFOAM: The Open Source CFD Toolbox
   \\    /   O peration     | Website:  https://openfoam.org
    \\  /    A nd           | Version:  13
     \\/     M anipulation  |
\*---------------------------------------------------------------------------*/
FoamFile
{
    format      ascii;
    class       volScalarField;
    location    "0.395";
    object      strainRateViscosityModel:nu;
}
// * * * * * * * * * * * * * * * * * * * * * * * * * * * * * * * * * * * * * //

dimensions      [0 2 -1 0 0 0 0];

internalField   nonuniform List<scalar> 
1800
(
9.40489
9.19758
9.01002
8.80087
8.57602
8.344
8.11536
7.89817
7.62442
7.37963
9.58524
9.41878
9.26688
9.09728
8.9111
8.71134
8.50348
8.28863
8.02737
7.70228
9.70219
9.56269
9.42802
9.27094
9.08864
8.87893
8.64085
8.36899
8.03061
7.61074
9.7754
9.65614
9.53324
9.38286
9.20047
8.98168
8.72277
8.41594
8.0288
7.55467
9.82168
9.71831
9.60559
9.46166
9.2807
9.05694
8.78547
8.45887
8.04778
7.55622
9.85186
9.76082
9.65731
9.52059
9.34355
9.11896
8.84034
8.50016
8.07154
7.57025
9.87179
9.78992
9.69399
9.56396
9.39148
9.16769
8.8842
8.53253
8.08737
7.57571
9.88475
9.80925
9.71889
9.59395
9.42495
9.20147
8.9131
8.55006
8.08854
7.56357
9.8926
9.82107
9.73417
9.61221
9.44468
9.21964
8.92485
8.54924
8.07122
7.52873
9.89647
9.82686
9.74154
9.62071
9.45311
9.22574
8.92514
8.53954
8.05039
7.49286
1.74465
1.40449
1.22188
1.32948
1.72703
2.23758
2.48582
2.44725
2.36094
2.33695
3.66547
1.79218
1.50558
1.9807
2.67999
2.9635
2.8231
2.68206
2.69516
2.746
4.66218
2.5813
2.445
3.168
3.58511
3.35181
3.09584
3.1291
3.26438
3.34354
5.2486
3.8891
3.81949
4.20781
4.17839
3.83791
3.73144
3.86125
3.96211
4.01149
6.04783
5.27821
5.11931
5.11912
4.9152
4.65782
4.58296
4.61634
4.61734
4.65768
6.95715
6.46074
6.22717
6.03739
5.78818
5.54677
5.39137
5.29637
5.22631
5.2792
7.77095
7.37784
7.11671
6.85974
6.58694
6.32061
6.08802
5.90265
5.77287
5.82672
8.39993
8.05524
7.79182
7.51534
7.22598
6.93084
6.64223
6.38702
6.19373
6.2311
8.8493
8.5453
8.29083
8.00999
7.70528
7.37908
7.03542
6.70132
6.41653
6.42294
9.16163
8.90149
8.66622
8.39648
8.09545
7.76548
7.40627
7.03573
6.70906
6.75328
2.1933
1.72908
1.32975
0.927095
0.596019
0.299455
0.1132
0.048287
0.0407697
0.0567343
2.53153
1.8532
1.41135
0.931035
0.577685
0.283992
0.0903452
0.0233025
0.0142722
0.0119029
2.95427
1.98546
1.48864
0.936878
0.553663
0.265315
0.0740278
0.0174762
0.0120584
0.0101734
3.44737
2.15625
1.56235
0.945835
0.526513
0.244576
0.0638877
0.0163
0.0118205
0.0101359
3.98906
2.39364
1.64004
0.957797
0.497707
0.221356
0.0577149
0.0160815
0.0117637
0.0101156
4.53347
2.7038
1.73548
0.974746
0.469298
0.195465
0.0529525
0.0162042
0.0118132
0.0101184
5.00099
3.0628
1.8564
0.996918
0.441904
0.166814
0.0476714
0.0165142
0.0119482
0.0101449
5.31625
3.44543
2.02297
1.03918
0.423093
0.138149
0.0411736
0.0166793
0.0120949
0.0101431
5.34653
3.7285
2.17214
1.07104
0.402088
0.108617
0.0327222
0.016366
0.0111827
0.0113913
5.20504
3.99501
2.4084
1.17558
0.419742
0.0950157
0.0269406
0.0110955
0.0138747
0.058602
4.94784
3.94849
2.46577
1.19093
0.393716
0.0599886
0.0102826
0.0282368
0.118878
0.208715
5.33478
3.35503
2.14565
0.997601
0.34007
0.0757961
0.0684291
0.185211
0.2663
0.330952
4.90709
3.04233
2.235
1.1784
0.556721
0.240157
0.19858
0.271616
0.360738
0.441858
4.5432
3.62162
2.66497
1.61618
0.865569
0.442675
0.31732
0.378035
0.462802
0.539
5.11059
4.74264
3.33459
2.15133
1.22285
0.6911
0.483522
0.489061
0.554003
0.621425
6.25374
5.66849
4.05579
2.66995
1.5926
0.957242
0.667094
0.610886
0.644254
0.692033
7.26285
6.3741
4.7149
3.1551
1.957
1.22974
0.864701
0.740156
0.731543
0.751384
8.00029
6.91254
5.26135
3.5909
2.30276
1.50062
1.06688
0.874779
0.818184
0.802521
8.51885
7.33105
5.69848
3.97192
2.62434
1.76091
1.26187
1.00336
0.896605
0.843203
8.93102
7.69131
6.05045
4.2845
2.93053
2.03895
1.48163
1.15297
0.989324
0.887004
6.51285
6.43967
6.43049
6.44888
6.48759
6.53033
6.58253
6.71122
6.89607
6.82732
0.260858
1.05758
2.0084
2.92375
3.70499
4.31795
4.73506
4.985
5.22456
5.73087
3.85045
3.54341
3.28393
3.11045
3.10551
3.24937
3.47205
3.7138
4.16596
4.8469
6.6444
6.62742
6.53723
6.3446
6.04283
5.65687
5.24794
4.89378
4.73681
4.54685
7.69196
7.67665
7.63223
7.5414
7.39622
7.18987
6.92692
6.61903
6.28502
5.65461
8.44958
8.43319
8.39442
8.32779
8.22965
8.09681
7.92846
7.71691
7.42792
6.90765
8.93971
8.92397
8.89032
8.83683
8.76171
8.66295
8.53822
8.379
8.15477
7.80875
9.273
9.25982
9.23247
9.18987
9.13054
9.05247
8.95272
8.82485
8.65287
8.43099
9.50447
9.49417
9.47308
9.44024
9.39427
9.33319
9.25425
9.15288
9.02291
8.87538
9.6899
9.68285
9.66852
9.64604
9.61405
9.5707
9.51361
9.43975
9.34637
9.2441
7.24929
7.52695
7.83714
8.08757
8.34458
8.59938
8.8412
9.06147
9.25456
9.4603
7.58377
7.94835
8.24095
8.48098
8.70917
8.92466
9.1222
9.29896
9.45391
9.6181
7.49892
7.95751
8.32589
8.62037
8.87561
9.09763
9.28799
9.4495
9.58537
9.72228
7.44717
7.95769
8.3737
8.7019
8.97649
9.2059
9.39468
9.54805
9.67132
9.78826
7.45651
7.9807
8.41856
8.76483
9.05048
9.28352
9.46976
9.61591
9.72869
9.83024
7.48251
8.0117
8.46399
8.82143
9.11231
9.34473
9.52606
9.66447
9.76797
9.85765
7.50368
8.03786
8.50276
8.86861
9.16196
9.39189
9.56764
9.69891
9.7948
9.87571
7.51116
8.05246
8.52871
8.90208
9.19747
9.42521
9.59641
9.72213
9.81244
9.88729
7.49837
8.05046
8.53742
8.91899
9.21769
9.44504
9.61372
9.73607
9.8229
9.89405
7.48289
8.04359
8.53593
8.92345
9.22527
9.45331
9.62124
9.74217
9.82746
9.89694
2.53977
2.499
2.52079
2.72941
2.89856
2.51488
1.67399
1.17435
1.51529
4.1366
2.95351
2.86546
2.70974
2.71345
3.10018
3.41072
2.79414
1.88823
2.10809
5.1074
3.45268
3.40731
3.24885
3.06601
3.26903
3.82301
3.79231
3.14257
3.26679
5.43905
3.95322
3.94118
3.91241
3.80183
3.89435
4.32016
4.58644
4.45696
4.64446
5.89949
4.5084
4.48069
4.55416
4.62292
4.78408
5.11547
5.43706
5.61347
5.88777
6.62277
5.11025
5.06757
5.20548
5.4013
5.65958
5.98114
6.30776
6.59273
6.89685
7.40252
5.6602
5.62355
5.82271
6.09329
6.40881
6.74081
7.06774
7.37676
7.67705
8.08504
6.07118
6.05599
6.31753
6.6434
6.99507
7.33933
7.66657
7.97341
8.25825
8.61063
6.26349
6.28166
6.63216
7.02615
7.41982
7.78387
8.11617
8.41623
8.68253
8.98789
6.60239
6.57162
6.95668
7.3795
7.78103
8.14272
8.46618
8.7502
8.9929
9.25189
0.100966
0.145777
0.0907678
0.0401747
0.0118856
0.334879
0.881866
1.4481
1.92586
2.41319
0.0675938
0.13246
0.0882428
0.0399347
0.0139526
0.327628
0.895367
1.52145
2.01599
2.68987
0.0464294
0.127323
0.089324
0.0448297
0.0232984
0.335952
0.916374
1.58446
2.09882
3.01146
0.0341794
0.129329
0.0940922
0.0545485
0.0417641
0.355635
0.939311
1.6343
2.21195
3.40508
0.0283509
0.136663
0.101195
0.0667925
0.0662609
0.379483
0.959323
1.68002
2.39479
3.8772
0.0272957
0.147455
0.109152
0.0792436
0.0926761
0.402568
0.978254
1.74338
2.66209
4.3736
0.0307999
0.160756
0.116628
0.089826
0.116154
0.420504
0.999467
1.84092
2.99271
4.80296
0.0403585
0.177079
0.123171
0.0981195
0.135838
0.440127
1.04628
1.99942
3.35797
5.08645
0.0594024
0.197392
0.128899
0.1008
0.142366
0.445678
1.0846
2.14897
3.63502
5.08891
0.0912576
0.219955
0.135693
0.105877
0.161158
0.494583
1.22029
2.40628
3.88497
4.89713
0.150347
0.248469
0.147705
0.105194
0.149713
0.486855
1.2772
2.51744
3.89347
4.67951
0.255552
0.280252
0.14057
0.087121
0.0853541
0.36709
1.12916
2.31112
3.43932
5.19928
0.420752
0.27816
0.118442
0.022171
0.0146359
0.28885
1.11699
2.3345
3.25147
4.94138
0.673189
0.268059
0.0255624
0.0835853
0.123154
0.492665
1.39639
2.59689
3.69833
4.69228
1.05558
0.0559511
0.243889
0.275155
0.346567
0.866925
1.91463
3.18871
4.69644
5.17039
1.51421
0.103034
0.533718
0.457882
0.632466
1.29733
2.46622
3.9098
5.59508
6.22131
2.1911
0.688996
0.850562
0.733652
0.979906
1.73877
2.99128
4.5915
6.30204
7.21642
3.7905
1.69988
1.27496
1.07714
1.35554
2.15946
3.46507
5.16562
6.8546
7.96907
6.85966
3.57592
1.96577
1.45668
1.71508
2.53946
3.88067
5.6328
7.29566
8.50735
9.04901
6.38441
2.85042
2.0308
2.14823
2.91827
4.23521
6.02156
7.68675
8.93801
6.62722
6.68975
6.51258
6.39041
6.34965
6.32313
6.30587
6.31748
6.362
6.47628
5.53434
5.01524
4.77061
4.52871
4.1298
3.54314
2.80055
1.93342
1.04546
0.284508
4.85317
4.23811
3.82742
3.61579
3.42818
3.30829
3.31324
3.456
3.65435
3.8738
4.70774
4.88089
5.02401
5.33464
5.70011
6.05145
6.33371
6.52155
6.61681
6.64185
5.68406
6.28371
6.61117
6.91091
7.17234
7.38162
7.53201
7.62834
7.67687
7.69253
6.86526
7.38848
7.68454
7.90251
8.07679
8.21502
8.31795
8.38868
8.43065
8.44897
7.76532
8.12068
8.35214
8.51805
8.64807
8.75107
8.82963
8.88588
8.92169
8.93903
8.4047
8.63278
8.80894
8.94098
9.04405
9.12468
9.18598
9.23008
9.25856
9.27261
8.86617
9.0162
9.14761
9.25059
9.33082
9.39282
9.43943
9.47267
9.494
9.50442
9.24861
9.35039
9.44296
9.51627
9.57291
9.61586
9.64746
9.66955
9.68348
9.69011
9.50934
8.98512
8.2356
6.92797
5.59785
0.13117
3.36075
5.96017
7.21376
8.15156
9.46528
8.92133
8.16782
6.89028
5.54926
0.563754
2.62214
5.70582
6.9161
7.91363
9.36552
8.78256
8.01995
6.80928
5.36619
1.60347
1.41348
5.20647
6.30901
7.40294
9.18235
8.54483
7.77412
6.65474
5.18621
2.74001
0.723004
4.23823
5.42126
6.57107
8.86785
8.17322
7.40358
6.3765
5.02621
3.36793
0.970894
2.63145
4.31669
5.39338
8.35017
7.62927
6.8729
5.91676
4.76471
3.43986
1.71921
1.30175
3.04907
3.98779
7.53561
6.89606
6.15495
5.227
4.29922
3.26931
2.14302
1.17234
1.65604
2.55721
6.32493
6.03692
5.28066
4.23137
3.53311
2.91241
2.11829
1.43495
1.06827
1.23526
4.63139
5.23144
4.47357
2.99929
2.43703
2.27443
1.85586
1.38448
1.12227
0.658891
2.67275
4.53841
4.02064
1.96687
1.39704
1.48848
1.40979
1.21127
1.06351
0.844754
1.27692
3.787
3.66523
1.33811
0.816689
0.897719
0.970763
0.955698
0.971082
1.01928
0.613704
2.9663
3.07991
0.95809
0.575869
0.63959
0.758522
0.819035
0.843079
0.876213
0.355569
2.18444
2.28173
0.689463
0.492414
0.593854
0.724484
0.808931
0.846905
0.871903
0.265546
1.54502
1.48445
0.520773
0.532179
0.671015
0.784291
0.855413
0.879066
0.889635
0.240023
1.01549
0.8408
0.509574
0.664462
0.797977
0.899039
0.962585
0.978567
0.975847
0.24335
0.493965
0.494377
0.629074
0.809813
0.947092
1.0449
1.10297
1.11393
1.10604
0.180385
0.202692
0.501173
0.747751
0.964816
1.11072
1.20148
1.24934
1.26605
1.26637
0.0463518
0.246841
0.642632
0.912875
1.12679
1.24624
1.32322
1.39184
1.4467
1.46777
0.0567902
0.487819
0.815094
1.09041
1.22772
1.33629
1.48259
1.63708
1.72347
1.73972
0.672797
0.854572
1.03887
1.18906
1.32671
1.59185
1.89724
2.06715
2.07316
2.0423
0.362821
0.0801327
0.220824
0.54478
0.786923
0.879177
0.866041
0.82119
0.793689
0.800992
0.461699
0.201021
0.315001
0.514761
0.715911
0.797327
0.784275
0.744193
0.723556
0.740195
0.524662
0.368658
0.434779
0.506179
0.644934
0.715902
0.70367
0.667046
0.65225
0.676567
0.636189
0.581819
0.588615
0.547135
0.578006
0.627
0.617773
0.587215
0.579321
0.61026
0.800911
0.794973
0.732942
0.628403
0.531562
0.537524
0.529734
0.50623
0.505133
0.541229
1.00196
0.988864
0.863847
0.725679
0.518738
0.452966
0.440156
0.424249
0.429763
0.469616
1.21805
1.15915
0.976781
0.810874
0.538003
0.383274
0.351784
0.342326
0.35359
0.395145
1.44194
1.31343
1.07491
0.87076
0.570762
0.337981
0.268728
0.261102
0.276713
0.319111
1.67573
1.45904
1.16291
0.905087
0.596055
0.317715
0.197023
0.183083
0.199494
0.237604
1.92103
1.59822
1.24669
0.92092
0.604
0.309625
0.144757
0.109047
0.123982
0.163496
2.00867
0.746896
0.715656
0.959356
1.18842
1.27408
1.25159
1.19181
1.13748
1.08817
1.3942
0.482902
0.577378
0.868949
1.10086
1.18752
1.16784
1.1121
1.06379
1.02731
0.751604
0.288238
0.479609
0.792157
1.027
1.11518
1.09772
1.04498
1.00179
0.975895
0.253374
0.170754
0.403705
0.720379
0.952248
1.0385
1.02147
0.971308
0.933487
0.919045
0.435656
0.0329912
0.265634
0.607737
0.856728
0.953971
0.942794
0.89632
0.863746
0.860562
9.35448
9.28988
9.14079
8.87284
8.43722
7.77848
6.87087
5.75879
4.58147
3.53661
9.19229
9.09544
8.88086
8.51134
7.94112
7.13599
6.1091
4.95455
3.84427
2.78642
9.02367
8.90003
8.62633
8.16069
7.46132
6.51564
5.37088
4.16812
3.08086
1.94214
8.81607
8.66194
8.32118
7.74754
6.9057
5.81372
4.55447
3.2944
2.22557
1.08994
8.58723
8.37909
7.92549
7.17704
6.11205
4.79163
3.35028
2.08494
0.993862
0.301912
1.06194
1.02632
1.01874
1.02242
0.917291
0.801183
1.29465
3.67991
3.85651
1.32465
0.951279
0.936075
0.928977
0.873622
0.721561
0.591094
0.913627
3.13674
3.10385
0.648656
0.987831
0.984324
0.967652
0.89489
0.749989
0.588096
0.702463
2.36433
2.33612
0.378227
1.05381
1.06539
1.0611
1.00144
0.891031
0.743599
0.659563
1.54626
1.61972
0.277804
1.1833
1.20691
1.21218
1.16449
1.07433
0.950448
0.788065
0.899387
0.905888
0.246734
1.34377
1.36344
1.3714
1.34531
1.27442
1.14114
0.920925
0.661372
0.353207
0.216013
1.54163
1.53768
1.50621
1.46395
1.4109
1.30114
1.06166
0.741689
0.269698
0.0660765
1.80219
1.79479
1.71281
1.56371
1.42743
1.32966
1.18982
0.882807
0.485181
0.0463782
2.07921
2.12429
2.11838
1.92452
1.58977
1.31071
1.17688
1.03984
0.836118
0.663082
2.28983
2.33732
2.45857
2.50051
2.19359
1.60506
1.172
1.06162
1.2886
1.98517
8.15137
7.2134
5.95981
3.36024
0.131427
5.59639
6.92748
8.2354
8.98514
9.50944
7.91295
6.91499
5.70482
2.62153
0.563628
5.54541
6.88883
8.16724
8.92138
9.46559
7.40149
6.30713
5.20468
1.41535
1.59977
5.3617
6.80701
8.01907
8.78269
9.36611
6.56844
5.41837
4.23604
0.726154
2.73176
5.18148
6.65189
7.77314
8.54516
9.18338
5.38899
4.31216
2.63225
0.971073
3.35666
5.02026
6.37304
7.40264
8.17396
8.86961
3.97928
3.0409
1.30977
1.71364
3.42665
4.75582
5.91194
6.87199
7.63073
8.35316
2.54014
1.65244
1.18759
2.13342
3.25067
4.28245
5.21821
6.15393
6.89885
7.54098
1.216
1.08763
1.45279
2.1078
2.88012
3.50251
4.21692
5.28111
6.04259
6.33584
0.671401
1.15395
1.40832
1.84303
2.23198
2.40026
2.98363
4.4779
5.24209
4.65609
0.886326
1.10371
1.24886
1.4142
1.46484
1.36983
1.94362
4.02408
4.56302
2.71815
2.08794
0.542833
1.05465
0.645495
0.683054
0.762616
0.63143
0.298666
0.0643498
0.357229
1.62752
0.238932
0.860815
0.495809
0.589075
0.683558
0.589682
0.355227
0.268026
0.489769
1.3318
0.0558151
0.632575
0.358029
0.499237
0.601625
0.555996
0.458751
0.473949
0.592431
1.09355
0.0157629
0.382217
0.250922
0.412289
0.51535
0.555045
0.624616
0.729571
0.758332
0.841084
0.0946056
0.184288
0.171733
0.330512
0.436022
0.601194
0.799789
0.966571
0.974007
0.628298
0.158434
0.0459792
0.118491
0.253274
0.378419
0.684571
0.962611
1.1794
1.21584
0.455451
0.208115
0.0534671
0.0338653
0.184424
0.35469
0.771346
1.09718
1.36436
1.46517
0.322229
0.20768
0.0929253
0.0114653
0.113275
0.357737
0.833542
1.20448
1.52929
1.71335
0.222623
0.190678
0.0968356
0.0383112
0.0462199
0.364051
0.86467
1.29238
1.67893
1.95033
0.150874
0.166324
0.0959534
0.0411679
0.0168484
0.353115
0.875395
1.37135
1.81279
2.17439
9.33653
6.77026
2.66749
1.71129
1.21842
1.13414
0.978409
0.789706
0.800013
2.03379
8.21086
4.63631
2.21606
1.43004
1.08795
1.04817
0.902253
0.657789
0.530965
1.39875
6.11989
3.06386
1.78526
1.22364
0.984452
0.982326
0.840704
0.566408
0.331269
0.740739
4.13234
1.87562
1.49533
1.01781
0.879711
0.913344
0.781508
0.491156
0.230765
0.223356
2.83401
1.06164
1.24226
0.818502
0.776903
0.832894
0.688075
0.356985
0.044442
0.397273
3.54766
4.5888
5.76271
6.87299
7.77999
8.43835
8.87361
9.14127
9.29014
9.35457
2.78065
3.8406
4.9518
6.10732
7.13537
7.94112
8.51156
8.88108
9.09561
9.19235
1.92807
3.07146
4.16167
5.36613
6.5131
7.46018
8.16027
8.62625
8.90005
9.02369
1.05381
2.202
3.28087
4.5462
5.80955
6.9035
7.74642
8.32072
8.66179
8.81605
0.299871
0.960834
2.06282
3.33673
4.78463
6.10848
7.17506
7.92454
8.37872
8.58714
)
;

boundaryField
{
    left
    {
        type            calculated;
        value           nonuniform List<scalar> 
35
(
0.298513
0.57305
0.99459
1.62911
2.52484
3.69411
5.06471
6.47597
8.15851
9.4418
0.198309
0.121293
0.0742453
0.048402
0.0360459
0.0320003
0.0352931
0.0504526
0.0876541
0.156383
4.9331
4.06023
3.23224
2.51041
1.91422
1.42241
1.02389
0.714785
0.483057
0.315096
9.61572
8.97911
7.92219
6.84799
5.8595
)
;
    }
    right
    {
        type            calculated;
        value           nonuniform List<scalar> 
35
(
1.08791
1.02761
0.976954
0.92123
0.864084
0.805843
0.746239
0.683465
0.617683
0.548858
0.477097
0.402061
0.324997
0.241969
0.166092
0.0568695
0.0116433
0.0101065
0.0100864
0.0100663
0.0100586
0.0100635
0.0100611
0.0120454
0.0671597
0.228037
0.352896
0.464142
0.560163
0.63993
0.706687
0.761434
0.808074
0.845228
0.885363
)
;
    }
    down
    {
        type            calculated;
        value           nonuniform List<scalar> 
40
(
9.45427
7.2662
2.89815
1.79984
1.25834
1.16284
1.00476
0.83159
0.900995
2.26091
3.83278
4.88205
6.03341
7.09234
7.94417
8.55468
8.95421
9.19905
9.33547
9.39472
9.39463
9.33519
9.19853
8.95335
8.55336
7.94226
7.08947
6.02825
4.87267
3.81838
2.23173
0.846867
0.759436
0.991136
1.21988
1.30369
1.27908
1.2173
1.16074
1.10735
)
;
    }
    up
    {
        type            calculated;
        value           nonuniform List<scalar> 
40
(
9.0341
7.80889
6.16815
4.39587
3.03832
2.13471
1.55461
1.19948
1.01658
0.899968
9.72926
9.72304
9.71045
9.69064
9.66233
9.62377
9.57262
9.50586
9.42075
9.32813
9.33497
9.42649
9.51034
9.57619
9.62662
9.66459
9.69237
9.71167
9.72378
9.72951
9.27069
7.09684
3.24517
2.1799
2.26628
3.039
4.35778
6.151
7.81376
9.04484
)
;
    }
    cylinder
    {
        type            calculated;
        value           nonuniform List<scalar> 
80
(
1.92339
4.47806
5.48145
5.7491
6.29303
7.08667
7.86076
8.47454
8.91242
9.21291
9.44582
9.61873
9.72982
9.7983
9.84096
9.86846
9.8865
9.89817
9.90522
9.9087
9.50047
9.65066
9.74906
9.81048
9.84901
9.8739
9.89017
9.90055
9.90657
9.90914
5.24857
6.2055
6.19895
6.30419
6.82647
7.52275
8.17483
8.68566
9.05065
9.30257
0.995812
0.472469
0.264696
0.18356
0.160258
0.166087
0.0831939
0.041937
0.739315
2.35566
9.59435
9.55577
9.46731
9.30169
9.00955
8.51105
7.68594
6.36659
4.38843
2.24081
9.59425
9.55545
9.46669
9.30061
9.00768
8.50786
7.68012
6.35411
4.35799
2.19143
0.952953
0.442372
0.244405
0.170946
0.150549
0.165837
0.163623
0.0855249
0.0434868
0.707359
)
;
    }
    defaultFaces
    {
        type            empty;
    }
}


// ************************************************************************* //
