/*--------------------------------*- C++ -*----------------------------------*\
  =========                 |
  \\      /  F ield         | OpenFOAM: The Open Source CFD Toolbox
   \\    /   O peration     | Website:  https://openfoam.org
    \\  /    A nd           | Version:  13
     \\/     M anipulation  |
\*---------------------------------------------------------------------------*/
FoamFile
{
    format      ascii;
    class       volVectorField;
    object      U;
}
// * * * * * * * * * * * * * * * * * * * * * * * * * * * * * * * * * * * * * //

dimensions      [0 1 -1 0 0 0 0];

internalField   nonuniform List<vector>
440
(
(0.443975382609 -0.354742581631 1.2055582501e-15)
(0.224885661248 -0.123841935767 6.27705272606e-17)
(0.0656244752751 0.0381104425474 -3.15443919359e-17)
(-0.0401367371636 0.14758774616 1.13048820006e-17)
(-0.11657915224 0.204612621064 1.37919904462e-17)
(0.558978631819 -0.321778837552 1.21915332305e-17)
(0.284875556145 -0.122705174926 2.82279176725e-17)
(0.0889955214542 0.0171753383287 -1.27309006367e-17)
(-0.0450866493669 0.113592060717 -2.03455442073e-17)
(-0.148387865517 0.169678082058 1.09138309905e-17)
(0.658905928981 -0.255682331918 -2.13456502614e-17)
(0.338402297326 -0.103252360949 -3.40313144547e-17)
(0.111081354657 0.00552848717815 -1.2599370543e-17)
(-0.0514253315723 0.0831423924664 5.17207621416e-17)
(-0.186997561625 0.131510128343 1.26177249689e-17)
(0.733337384725 -0.162356663422 2.36839070548e-17)
(0.380151938586 -0.0683191122086 -8.28540445472e-18)
(0.130739504631 0.00119228777558 -5.17386664105e-17)
(-0.0537957897477 0.0530637387735 2.69901948698e-17)
(-0.231208424568 0.0893704258569 3.62569582218e-17)
(0.773076933378 -0.0511198779389 2.34003062682e-17)
(0.403698749811 -0.0238472027168 9.35308708174e-18)
(0.143649634699 0.000165262569655 4.39941200976e-17)
(-0.0532455117625 0.0188477223303 -2.69192502893e-17)
(-0.266418381645 0.0330001045459 -7.86096055471e-18)
(0.0340437227152 -0.0403042372636 -1.06485616288e-18)
(0.0863698968635 0.0806933152824 1.59053545871e-17)
(0.0878507442378 0.145752133587 -3.13345221957e-17)
(0.0759413641226 0.17105520863 6.70549905937e-18)
(0.0517412827441 0.177235154033 6.36518192025e-17)
(0.0627919402674 -0.1611977427 -4.93972185782e-18)
(0.0812991098824 0.0125595539444 -1.62135940488e-17)
(0.0681278311087 0.133098426935 -4.52450662232e-18)
(0.0493006849203 0.197409764205 -2.83525610662e-18)
(0.0254427752032 0.217079172227 2.53594019537e-18)
(0.127399820132 -0.257681745738 3.13496434907e-17)
(0.0936456640357 -0.0443672291475 2.19841868776e-17)
(0.0501133122417 0.107227430481 1.47098442681e-17)
(0.0137489509865 0.198312035742 -4.79041916631e-17)
(-0.0154213151829 0.227643137878 1.041127672e-18)
(0.219255847402 -0.323383385835 9.29830264236e-18)
(0.12361498953 -0.0865086831975 -1.19838098731e-17)
(0.0416320320691 0.0806227242044 2.6099716353e-17)
(-0.0183286875286 0.18486854114 2.89827543265e-17)
(-0.0583112211986 0.220018358183 -3.95156847247e-18)
(0.326799089443 -0.355547146771 -1.29210097276e-17)
(0.166357214973 -0.112565848264 -7.94264912643e-18)
(0.0443549926912 0.05717093364 1.15301712122e-20)
(-0.0429439831886 0.165904355446 -9.44583435387e-18)
(-0.0935182107686 0.200182126083 -3.77749987309e-17)
(-0.0592439019232 0.111125411961 -3.70000308893e-17)
(-0.0272446048603 -0.18103020325 2.14391635386e-17)
(0.326799806105 -0.0320464882428 2.09345239975e-19)
(0.675527890258 0.127791043888 -7.73962517342e-18)
(0.787855443487 0.0608446545261 -4.75535021066e-18)
(-0.0294787045298 0.13749642326 -3.65770490744e-17)
(0.00215395588247 -0.230062308058 7.00105446654e-18)
(0.282982423774 -0.130874863895 -1.41964650864e-17)
(0.717775058685 0.0455636489456 -1.54190640917e-17)
(0.977419259353 0.0239475952057 9.05389896288e-18)
(-0.0124083685417 0.152932158785 -9.91357611179e-18)
(0.0677632430853 -0.253502487737 -3.8510083981e-17)
(0.230463373003 -0.232198766001 1.06427256198e-17)
(0.670590291639 -0.0487248650331 -9.76585725987e-18)
(0.999488043067 -0.0319945583942 -6.37606631596e-18)
(-0.00764583680857 0.157723468571 3.27976534653e-17)
(0.140530185772 -0.260980021969 2.22848972201e-17)
(0.209244347473 -0.323148014624 -2.72128808797e-18)
(0.563719910011 -0.135252650934 1.17571739234e-17)
(0.85405963893 -0.0816683152306 -5.12255320001e-18)
(-0.0144183646891 0.158346502182 5.35408301672e-18)
(0.2128142207 -0.25579635027 5.13722507251e-17)
(0.217678026721 -0.39103434875 0)
(0.413204461154 -0.249446993942 -5.58015179003e-19)
(0.555920135993 -0.1162861775 2.63359108655e-18)
(0.0122798453672 0.0561360606984 1.68171717371e-18)
(0.272432628146 -0.281702029893 -2.10653046301e-17)
(0.222584559518 -0.388991543034 2.71150962683e-18)
(0.06242820767 -0.247324498543 -1.09923080815e-17)
(0.0355473326657 -0.116595435461 -8.0932544583e-18)
(0.115043624512 -0.00495127540769 -8.03284576287e-18)
(0.122557301923 -0.182313384793 2.23227784161e-18)
(-0.184261631596 -0.24336040733 2.7526871609e-18)
(-0.539864229455 -0.173097195289 5.5031426203e-19)
(-0.587507476309 -0.085835281975 0)
(-0.0593535072318 -0.0248818876009 -5.70451226916e-18)
(-0.173770232045 -0.113029764943 -2.71933905762e-18)
(-0.458400221779 -0.125782344354 4.41611425509e-18)
(-0.760444299768 -0.10007275767 -4.97762883702e-19)
(-0.858607771491 -0.0547115152236 3.46546986895e-20)
(-0.0402876275356 -0.0533480278212 2.23918488018e-17)
(-0.116869975576 -0.0656838841056 -2.30689245026e-17)
(-0.300732153334 -0.0496437841792 8.59374124831e-18)
(-0.500553811308 -0.042266159376 1.3001384845e-31)
(-0.60191987555 -0.0258563931089 -1.41636025263e-17)
(0.231128686114 -0.0111891240729 7.66239072478e-19)
(0.177105383119 0.0029508810295 1.50119544811e-19)
(0.103825711813 0.0236353589833 8.69616724301e-18)
(0.0437131893 0.0207191914994 2.74415028478e-19)
(0.00240835253058 0.00814003487227 -9.13410520584e-20)
(-0.338904184622 0.0287193243591 3.78096633579e-17)
(-0.307493984467 0.0731731811515 -2.28946516295e-17)
(-0.262031668872 0.109960371559 1.09388684519e-17)
(-0.211452795514 0.147691968644 1.23899853454e-17)
(-0.167333350452 0.184725827185 -7.4379750676e-19)
(-0.109268764533 0.00603453624596 2.53930326276e-17)
(-0.0957809089114 0.011349828061 -1.60884139453e-18)
(-0.0700534227055 0.0183603416454 -1.24798877782e-17)
(-0.0369301250857 0.0207959433806 1.1160630871e-17)
(-0.0166903403005 0.0197174298913 -2.26081773473e-18)
(-0.119195465855 -0.000380165928128 1.42502194192e-17)
(-0.114641782649 -0.00194372043638 -1.13066569192e-17)
(-0.103604497085 -0.00123271103459 2.39954566152e-17)
(-0.085869078542 0.000740824406514 -2.0620282695e-18)
(-0.0725147342639 0.00628506054012 -2.45130074329e-17)
(0.0752757589002 -0.00549691501814 1.45854055702e-17)
(0.0660504320836 -0.0182259668604 4.50303487609e-17)
(0.050123728348 -0.0305649672164 -3.69945114455e-18)
(0.0319876521053 -0.0406635655437 -4.66178013016e-17)
(0.00622303280555 -0.0393534661406 1.08282849665e-17)
(0.369256665856 -0.00143452796033 3.86663800594e-17)
(0.358031623658 -0.0044507887564 -1.13924706433e-18)
(0.337002957737 -0.00738696652298 4.51177747483e-19)
(0.308862921086 -0.00887796575059 -1.99008770555e-17)
(0.276025271482 -0.00647871184508 -3.28562440383e-17)
(-0.107390512282 -0.189541666031 2.33669296092e-17)
(-0.0336124038945 -0.137981923918 3.83703478564e-18)
(0.0701655479559 -0.032439479365 -2.02284542343e-17)
(0.227043639871 0.126161885423 9.73954749013e-18)
(0.438609681628 0.361650079946 -8.86211385899e-18)
(-0.140924610536 -0.162318314731 -1.73671634162e-17)
(-0.039666255299 -0.108783919514 -2.68835136624e-17)
(0.0929695053259 -0.0143961043736 -1.71972332169e-18)
(0.286713213965 0.123680961411 -1.70109329754e-17)
(0.553288660991 0.331075112037 -1.14161568688e-17)
(-0.18156628852 -0.127018090934 -7.64938430812e-18)
(-0.0478255685052 -0.0801078475194 1.09460750041e-17)
(0.113984601588 -0.00378145321911 2.11869732453e-17)
(0.339749156637 0.103829995154 6.07707222083e-18)
(0.653928094845 0.267537047914 2.12138093435e-17)
(-0.227295788017 -0.087095534345 -1.61478986973e-18)
(-0.0519721644707 -0.0511525372725 -4.13347670785e-18)
(0.132303990492 -0.000283439048978 -2.77514023011e-17)
(0.380790562404 0.0685181922728 2.34099074851e-17)
(0.729805798929 0.176199923416 -1.2412602658e-17)
(-0.264571080547 -0.0327016295533 -1.61908858198e-17)
(-0.0526638715068 -0.0176937806813 -3.03951576151e-17)
(0.144124112868 0.000159184132468 -1.35799720723e-17)
(0.40386055036 0.0237885226065 1.91195258154e-17)
(0.771771946334 0.0660996926834 -1.22941528478e-17)
(0.0454394815281 -0.104940977901 8.07214347398e-17)
(0.0685260514336 -0.102184290959 6.24474469504e-17)
(0.0793269850337 -0.0845806745151 -8.57397659171e-18)
(0.0770103406864 -0.0361932761789 5.20503317052e-18)
(0.0315802145225 0.0582982208377 2.61688638038e-18)
(0.0222420033832 -0.145428288868 3.77033938358e-17)
(0.0468407067388 -0.133081022214 1.98472775438e-17)
(0.0663147056286 -0.0825196476996 6.07430708503e-18)
(0.0802983726944 0.0178211986186 -2.60693781207e-18)
(0.0642098834063 0.172671226925 3.12882387368e-18)
(-0.0116313943398 -0.16943678303 -2.68243423553e-17)
(0.0178881388639 -0.149486012075 3.40773936813e-17)
(0.0541925203012 -0.073023459858 5.81405490305e-18)
(0.0973085583703 0.0629055157724 -8.31535627711e-18)
(0.128631443915 0.264746720711 3.59279241361e-18)
(-0.0506043107967 -0.17963675161 2.31806687586e-17)
(-0.0114677983743 -0.153106953042 -3.18325522155e-17)
(0.0473185887194 -0.0601920977178 -5.02629513863e-17)
(0.127673039001 0.0968106218766 1.32209373323e-17)
(0.218047717605 0.32866668259 -1.10715232845e-17)
(-0.0853023923019 -0.175139344203 -1.25363328709e-17)
(-0.0363765577822 -0.147386575822 -1.55298104154e-17)
(0.049262579755 -0.0459370228185 -2.76490925604e-19)
(0.169214275204 0.117811025973 2.25387453295e-18)
(0.323046232144 0.360983500275 -3.44609700925e-20)
(0.425445034284 0.0513846087963 6.6529610914e-18)
(0.42259853708 -0.0520682779839 7.24917683711e-18)
(0.466669706783 -0.0551019606036 3.54360873774e-18)
(0.0600146205537 0.132323572791 2.63373644409e-18)
(-0.061254456064 -0.0370772977861 -3.3049125586e-17)
(0.456584980122 -0.0331247553232 -1.10844755423e-18)
(0.436867759008 -0.098300730056 1.45664100286e-17)
(0.451695150323 0.00777467797694 9.09980802512e-19)
(0.0271419889596 0.209642929735 2.36214296597e-17)
(-0.0435758892397 -0.0521190962965 -2.9189248403e-17)
(0.483361014687 -0.120184830463 1.13442621696e-18)
(0.433671192979 -0.129657125282 -1.39126814032e-18)
(0.359991174932 0.0804163631048 -1.30967730907e-17)
(0.038818032637 0.268074125627 -8.68202141843e-18)
(-0.023142122572 -0.0665428584851 -1.41698507413e-17)
(0.501207632005 -0.203243140027 -3.57589811883e-19)
(0.380582720629 -0.143778325404 -2.44563523747e-17)
(0.249398520685 0.167016016659 -8.38797320992e-18)
(0.0798393319482 0.297430641527 -3.01130732502e-17)
(-0.00848101793065 -0.0805647144641 1.78004351079e-17)
(0.503914965388 -0.286171435947 -2.86213173296e-18)
(0.236946128479 -0.121154301065 -1.01425373942e-18)
(0.168955745689 0.252691671702 6.74361836298e-18)
(0.136544586013 0.299692572322 1.02248788913e-17)
(-0.00569704578858 -0.097390144023 -1.93290235352e-17)
(0.45358693861 -0.360483879102 -3.26766728695e-18)
(-0.00681418524778 -0.126356902138 1.43050823836e-17)
(0.113372454151 0.288994352722 -4.7904848166e-18)
(0.173206988567 0.315747563205 4.34225293461e-17)
(0.0253317504543 -0.0129731905292 -3.60229209612e-17)
(0.294804648415 -0.372446618752 -5.13308963117e-19)
(-0.416953429204 -0.119197400096 -3.46891144764e-18)
(-0.187325841349 0.192685536088 2.77057357674e-18)
(0.0526018374953 0.213677425153 -4.10511187814e-18)
(0.0946284715092 0.0236829970897 2.94833116035e-18)
(0.0963376997171 -0.154473835493 -5.49305151269e-18)
(-0.688405126895 -0.118305760788 2.80692533472e-34)
(-0.510106444196 0.0814152719409 2.94326320063e-19)
(-0.216125264764 0.127698517634 1.37483790177e-18)
(-0.0781232417644 0.0377244922899 1.81250845107e-17)
(0.00234346136347 0.0150678757138 9.52934246673e-19)
(-0.450751872122 -0.0284617872732 -5.59509790555e-19)
(-0.3610855638 0.0277198492951 8.52710763778e-18)
(-0.145706896123 0.071193337303 8.78392658421e-18)
(-0.0525245870263 0.0575592380176 -3.42461567769e-17)
(0.0154934077708 0.0134730387581 -3.05646207349e-19)
(0.0894091920693 0.0641065273121 3.04687042031e-19)
(0.0847617882911 -0.0209947650528 1.02427163741e-17)
(0.165200014712 -0.00377462067124 -2.32453072755e-19)
(0.22647170206 0.0107596781571 -9.91516740426e-18)
(-0.153646672808 -0.166055642658 2.46354570946e-17)
(-0.199661606721 -0.136427672778 2.19478851156e-17)
(-0.252227991881 -0.102400736861 -2.67726704083e-17)
(-0.29920839902 -0.0676054240935 -4.24702880792e-17)
(-0.334796135528 -0.0244377043779 4.01784824178e-17)
(-0.0224924388104 -0.0143167008466 7.60223919148e-18)
(-0.043398057598 -0.0152012268226 8.84660458301e-17)
(-0.0763219138782 -0.0132316430503 2.19883042022e-17)
(-0.101499485076 -0.00577695041409 -7.97734119281e-17)
(-0.111984250923 0.00184577782369 -1.16605590187e-17)
(-0.0818591043515 0.000315968247547 -2.50390737524e-17)
(-0.0915845754265 0.0034803520055 -1.60578407677e-17)
(-0.106547788179 0.00474367104968 -2.16133505553e-17)
(-0.115885340919 0.00462115447141 -2.7175161537e-17)
(-0.119505416336 0.00259766867224 2.50859648829e-17)
(-2.07699463737e-06 0.0406853326843 3.55829391976e-17)
(0.0274567437121 0.0415472990834 -2.24804322791e-18)
(0.0468756764433 0.0317604530761 2.73980914262e-17)
(0.0639574902323 0.0197121341239 3.34592654636e-17)
(0.0745288727332 0.00724137059592 -3.06481910496e-17)
(0.273799568632 0.00601933540251 -5.00504827693e-18)
(0.307135018196 0.00866777183016 3.33859954396e-17)
(0.335596489763 0.00737733984891 2.08034385384e-17)
(0.357141384096 0.00452978975218 -3.95027617075e-17)
(0.368946259862 0.00155483561217 -3.09428890186e-19)
(0.665035396804 0.0397529800068 1.24102152727e-17)
(-0.012056919705 -0.0063848230833 -9.6296149458e-18)
(-0.391500841653 -0.0331810574832 -4.38094957083e-18)
(-0.533766106585 -0.0359898304557 -1.09887541727e-17)
(-0.311020084047 -0.00998728601508 -9.66799523895e-18)
(0.628221218889 0.136226372469 2.24032744328e-17)
(0.00584644959257 -0.00785964662528 1.48817421628e-17)
(-0.354849839145 -0.0777129394773 -8.25211227292e-18)
(-0.460133289056 -0.0830693032617 1.13098517929e-17)
(-0.325019988777 -0.0380200065403 -2.79560807331e-17)
(0.569707106394 0.222820796521 2.03896491432e-17)
(0.0439283286177 0.0119066323613 -3.13247259196e-18)
(-0.283530386701 -0.0929648904704 -9.28870657546e-18)
(-0.403643852607 -0.112994112434 -8.38278579184e-18)
(-0.351807172964 -0.0823727916679 -4.2707435214e-17)
(0.497343875912 0.292270267314 -2.25459183755e-17)
(0.0936458043982 0.0471232088138 -2.12525633117e-17)
(-0.185297800003 -0.0886430682508 4.30051342083e-17)
(-0.330991306464 -0.135610904195 -2.69706632802e-18)
(-0.327105865827 -0.120365299937 1.13854131502e-17)
(0.408260380927 0.331532468519 -3.46390240523e-17)
(0.128344094324 0.07715748072 2.24030855058e-17)
(-0.0898659546232 -0.0813673130655 -1.60953278567e-17)
(-0.230524566938 -0.163150288496 -2.84484400445e-17)
(-0.29329900828 -0.173732514636 -2.62308252313e-18)
(0.307953426599 0.33400055714 -1.74208145285e-17)
(0.133712108614 0.0985996721751 -1.50397970609e-17)
(-0.0199420962896 -0.0533514696409 -2.85812302467e-17)
(-0.139130472367 -0.139228079862 1.90215170144e-17)
(-0.226254644869 -0.157256287142 -7.08307471235e-18)
(0.212482044171 0.302653905148 1.22111575493e-17)
(0.123150185343 0.117765007927 1.05933826316e-17)
(0.0300205730816 0.00232698306276 1.14905193343e-18)
(-0.0563424012859 -0.0710258962114 1.82996448679e-17)
(-0.130204047872 -0.0894427913296 9.54767569292e-18)
(0.127834058462 0.248200720034 9.18056695749e-18)
(0.09932091078 0.149429979493 -2.33161407474e-17)
(0.0534977708929 0.0643269281269 3.82882180433e-17)
(-0.00494585804656 0.00328016519659 7.87127180329e-17)
(-0.0619452263848 -0.015135248037 -3.26944052483e-17)
(0.0511313014117 0.195735668713 3.39432525369e-18)
(0.0743445491444 0.16714367252 1.35979676927e-17)
(0.0629705393163 0.107016947293 -3.85405752057e-17)
(0.031391928696 0.0686479555752 -6.93493597157e-17)
(-0.00690298806985 0.0548729824949 8.91722363914e-18)
(0.0537706406515 0.130417803766 -1.23597932622e-18)
(0.085113446271 0.144634217624 4.57311572931e-18)
(0.0848434122865 0.136105251707 -1.98525230685e-18)
(0.0685122465536 0.123809091209 1.08118400847e-18)
(0.0393444384283 0.11813834835 2.65873916888e-17)
(-0.278457561814 -0.0600293942184 -1.93704110139e-17)
(-0.176855889377 -0.0232813319755 -8.5868209113e-17)
(-0.234834793185 0.0439724260879 1.84536489332e-17)
(-0.367762385288 0.0573927177575 2.84909565346e-17)
(-0.496948899119 0.0226333639427 1.65870928275e-18)
(-0.274441318748 0.00143891219847 -2.15740477866e-17)
(-0.120815505454 -0.00587905636344 4.63039067279e-17)
(-0.165795912992 0.078731806778 5.15015074262e-17)
(-0.305869926033 0.0912425097608 5.59881676747e-18)
(-0.446835803921 0.0364569916952 -4.77539382115e-18)
(-0.230997179451 0.0234662654434 -4.11066503217e-17)
(-0.0485627153329 -0.0360294946206 1.0385460031e-16)
(0.0241215065908 0.109380752549 -1.25483846557e-17)
(-0.0883204035246 0.132797042193 -1.20064216476e-17)
(-0.224134457331 0.0528117290214 7.90374934174e-18)
(-0.167637705321 0.0504366962414 1.77528884454e-17)
(-0.0206064581311 -0.0732646979903 -6.02891257726e-17)
(0.215756410965 0.104833175222 -1.40074145097e-17)
(0.212002126087 0.167035311337 -2.39978444373e-18)
(0.107556169021 0.0672253665202 1.53196791258e-18)
(-0.107076470982 0.0803007259277 9.06278379342e-18)
(-0.0237112514914 -0.123802040594 -3.43731561723e-17)
(0.317125309231 0.0515338628469 8.79297323037e-18)
(0.498146938716 0.171709907652 9.8280140009e-18)
(0.473022837464 0.0730061909359 4.49473542046e-18)
(0.287618314229 0.0174350300415 2.09510434719e-17)
(0.236506746533 0.00496390314598 0)
(0.200682893957 -0.00416659975402 8.93519056625e-18)
(0.160347798481 -0.00683588490846 -2.98750840412e-19)
(0.127686260477 -0.00423766550575 -8.62428203569e-18)
(-0.117786962922 0.025740182085 0)
(-0.0496381321289 0.0118238256714 0)
(-0.0951305566961 0.0204167257899 -2.100257814e-17)
(-0.193751015266 0.0238688214013 -9.13105414119e-19)
(-0.282896951547 0.00900786667739 2.20071460622e-18)
(0.680246410618 0.00221689550224 -1.56977196765e-17)
(0.576314323976 0.00592993239048 9.579477683e-17)
(0.444649178688 0.00440367150615 -9.67809761596e-18)
(0.338016018605 -0.00178595023776 -6.17680290362e-17)
(0.276507552335 -0.0104373714374 -2.01371454729e-17)
(0.234693944518 0.0041347291883 1.54813981055e-17)
(0.0493560256764 0.0043249846218 8.186939263e-17)
(-0.111483738808 -0.0139539801653 -5.25093735025e-17)
(-0.194848792383 -0.048321110223 2.4889401964e-18)
(-0.220501849889 -0.087195804436 9.81149416614e-18)
(-0.227280154098 0.16014229894 7.21583154626e-18)
(-0.141315906219 0.142144347855 -1.65908883755e-17)
(-0.0202017889542 0.0534301707836 -4.32810121383e-18)
(0.133196211378 -0.0995559258524 -7.61269177507e-19)
(0.303616055545 -0.337692564718 7.30575767622e-18)
(-0.128186956824 0.107077218641 -1.51720546754e-17)
(-0.0573022733038 0.0866728670366 -5.27097113627e-17)
(0.030006235842 0.0060957762323 -1.88383080776e-17)
(0.123672518869 -0.11962444183 8.79083868505e-18)
(0.209533011184 -0.306079042912 3.18666406536e-18)
(-0.0455013213387 0.0523672445183 3.21918455861e-17)
(0.00476021419199 0.0331959611963 -3.34303053516e-18)
(0.058498873937 -0.0316277429115 -4.66777740619e-17)
(0.102746012204 -0.134306975463 -9.345297063e-18)
(0.12516939317 -0.248654784205 -6.71820967619e-18)
(0.015690506497 -0.00322572179856 4.59677207e-17)
(0.049440219756 -0.0168342143791 3.51125822311e-17)
(0.0752675379908 -0.0574763282483 -2.22795588877e-17)
(0.087861463798 -0.121433246364 -2.13456047734e-17)
(0.0601156501583 -0.197160437442 -1.61864687529e-18)
(0.0466102469705 -0.0548908920241 1.31615305155e-17)
(0.0725404932294 -0.0607966754215 1.26893048268e-17)
(0.0851651383549 -0.0741957620617 1.79420259497e-18)
(0.0821671319151 -0.0842552231481 -5.61131959428e-18)
(0.0341362647175 -0.0693177735712 -1.646239001e-18)
(-0.31017424999 0.00979151498851 1.6678074518e-17)
(-0.53273756086 0.0366514552723 -1.16934564072e-17)
(-0.39137232692 0.0344264738662 1.33924356702e-17)
(-0.0125565135364 0.0073550977766 4.79938114853e-18)
(0.662449009604 -0.0592737983682 1.20527065085e-17)
(-0.32454121408 0.0382945760768 2.69314470246e-17)
(-0.459587106493 0.0832925532113 5.60962900733e-17)
(-0.35511269905 0.0785013754823 8.09124160774e-18)
(0.00439215685195 0.00889779373308 1.91265198463e-17)
(0.621913070358 -0.15322459937 -1.23560220118e-17)
(-0.351140486103 0.08304931655 -6.01760325269e-17)
(-0.403381899631 0.113396502153 -2.19948744258e-17)
(-0.283860063876 0.0935779975626 2.59974399587e-17)
(0.042376662873 -0.0108423103882 4.78367309541e-18)
(0.561967193932 -0.236007044514 3.69681483192e-18)
(-0.325842158726 0.121393363168 1.71678804364e-17)
(-0.331015458639 0.136436215168 -6.86165588133e-17)
(-0.185545810693 0.089344889744 -3.26313586233e-17)
(0.0923299900702 -0.0461000321466 1.56328332874e-18)
(0.489771956165 -0.301469188863 2.11956069798e-17)
(-0.294455684849 0.175115478604 4.73366206017e-18)
(-0.231752018296 0.164941806039 1.99755476345e-17)
(-0.0905804794079 0.0819488869215 -1.33571980709e-17)
(0.127059601695 -0.0764848178339 -1.26523411585e-17)
(0.40182628805 -0.337304590152 -4.75092754393e-20)
(0.0564136681295 -0.000367279987442 -1.54839547942e-18)
(-0.428947005981 0.0466672407536 5.22688922875e-18)
(-0.33744077042 -0.0553572862836 3.1602155612e-17)
(-0.14290967519 -0.00328440578962 -3.75586167283e-17)
(-0.253011748422 0.0745220921039 -8.66641451985e-18)
(0.156487222029 0.101112230493 1.53192305825e-19)
(-0.405210829701 0.0740141722102 -2.85986378562e-17)
(-0.26074227661 -0.0914310506026 5.35483291496e-17)
(-0.0486625582788 -0.0448873166598 7.36039442053e-17)
(-0.231107575969 0.0239490075743 2.19617231239e-17)
(0.273200529121 0.177837815064 7.01872281223e-18)
(-0.187280285757 0.0789511036762 -2.34758004957e-18)
(-0.0347759106982 -0.125742606284 4.89686552503e-18)
(0.062065912742 -0.0281337142676 6.47306410407e-17)
(-0.17645079413 0.0101547671426 -3.90788391683e-17)
(0.354668719417 0.182791955962 -6.80795675565e-18)
(0.152535243339 0.0593100615863 3.27597834055e-18)
(0.22034063538 -0.132668793103 -1.01526552077e-17)
(0.110212294501 0.00679158485646 -1.65627307833e-17)
(-0.119426115387 -0.00540757178437 -3.34282768747e-17)
(0.394632683372 0.128899847348 -1.85292024578e-18)
(0.377670109746 0.00632155749155 -4.40725885255e-18)
(0.39507001986 -0.105875758891 -3.97659550751e-18)
(0.101402239378 0.0619877706093 -1.68667809136e-17)
(-0.0825628232601 -0.0215710483405 1.10752181944e-18)
(0.0340725896074 -0.0117005618138 0)
(0.193053421385 -0.0476884544123 6.85524879664e-19)
(0.180749427824 -0.00245924544241 9.00265956168e-18)
(0.237947740111 -0.00307471356123 1.00721966608e-18)
(0.287980284539 -0.0174395297385 -3.93763090547e-17)
(0.0155664465507 -0.0375818958641 7.18636687416e-18)
(-0.193429416869 0.015142969423 1.79181798177e-17)
(-0.168444960434 -0.0124382524533 -3.43481689623e-17)
(-0.0376829947618 -0.0176906163705 -5.3197057853e-17)
(-0.106996059613 -0.0264240149113 -4.12545892802e-17)
(0.277058253965 0.0106337654714 -6.5639456232e-18)
(0.337233936044 0.00188355011814 4.99287019696e-17)
(0.444232943642 -0.00413322466316 1.68736786446e-17)
(0.576411560272 -0.00571063030451 9.67429846294e-18)
(0.680235034688 -0.00200441719559 0)
(-0.216183572559 0.087195256129 5.71449982736e-17)
(-0.194152775054 0.0483854575546 9.68153462242e-17)
(-0.112148932151 0.0140078415983 -4.5436737021e-17)
(0.0478849723993 -0.00439163110177 -6.66479717728e-18)
(0.233497682374 -0.00432761301138 1.78116321685e-17)
)
;

boundaryField
{
    left
    {
        type            fixedValue;
        value           uniform (1 0 0);
    }

    right
    {
        type            zeroGradient;
    }

    down
    {
        type            noSlip;
    }

    up
    {
        type            noSlip;
    }

    cylinder
    {
        type            noSlip;
    }

    defaultFaces
    {
        type            empty;
    }
}

// ************************************************************************* //
