# Selection   : all
# Cells       : 440
# Volume      : 7.374263e+01
# Time        	minMag(U)
3.3           	2.075561e-02
3.35          	1.961752e-02
3.4           	1.862167e-02
