/*--------------------------------*- C++ -*----------------------------------*\
  =========                 |
  \\      /  F ield         | OpenFOAM: The Open Source CFD Toolbox
   \\    /   O peration     | Website:  https://openfoam.org
    \\  /    A nd           | Version:  13
     \\/     M anipulation  |
\*---------------------------------------------------------------------------*/
FoamFile
{
    format      ascii;
    class       surfaceScalarField;
    location    "8.615";
    object      phi;
}
// * * * * * * * * * * * * * * * * * * * * * * * * * * * * * * * * * * * * * //

dimensions      [0 3 -1 0 0 0 0];

internalField   nonuniform List<scalar> 
823
(
-0.000301207
0.014699
-0.0143978
0.0235755
0.00354866
-0.0274254
0.0928906
-0.0462132
-0.0231019
0.198434
-0.115839
0.0102953
-0.153145
0.0064325
0.345147
0.0062563
0.00844268
0.0611723
-0.0513674
0.164603
-0.149644
0.282984
-0.23422
-0.307337
0.437176
0.0264615
-0.0180188
0.121162
-0.146068
0.238277
-0.266759
0.346984
-0.342927
-0.384249
0.423895
0.049737
-0.0677558
0.149734
-0.246065
0.230718
-0.347743
0.275924
-0.388133
-0.398944
0.290619
0.0615265
-0.129282
0.130883
-0.315421
0.168018
-0.384878
0.182519
-0.402634
0.192606
-0.409031
-0.0144036
0.075869
-0.0614654
-0.0461156
0.118836
-0.0871243
-0.0802797
0.121771
-0.0876065
-0.111226
0.113149
-0.0822027
0.101444
-0.13783
-0.0748397
0.0171367
0.0587323
0.0262733
0.1097
0.02825
0.119794
0.029483
0.111916
0.0962656
0.0346615
0.0268347
0.0318975
0.0608794
0.0756551
0.0893472
0.091326
0.112974
0.0882889
0.0767328
0.132507
0.0175481
0.0143495
0.0514553
0.0417479
0.0879604
0.054821
0.126501
0.0497482
0.0466331
0.156601
-4.83188e-05
0.0142742
0.0459933
0.106037
0.159102
-0.138193
0.274138
-0.273775
0.167111
-1.60668
1.30138
0.363525
-0.931897
0.735483
0.257122
0.914083
-0.80768
0.376978
-0.388927
0.226285
0.0825141
0.389874
-1.77027
0.29004
-0.832062
0.221797
0.982325
0.295442
0.403261
-0.18824
0.557169
-1.92418
0.341183
-0.616077
0.253842
1.06967
0.17218
0.398918
-0.430557
0.492217
-2.01748
0.31043
-0.43429
0.291581
1.08852
-0.00693223
0.390627
-0.662081
0.325099
-1.95195
0.126777
-0.235968
0.323408
0.891885
-0.258481
1.32859
-0.741265
-1.2494
0.915215
-1.53858
0.506155
0.173093
0.849469
0.54857
-0.501118
1.40735
-0.698255
-1.45036
0.807835
-0.939067
0.682567
0.298361
1.15337
0.0777642
-0.558989
1.26734
-0.578001
-1.3876
0.772853
-0.444577
0.857823
0.213391
1.21171
-0.276128
-0.45014
1.06844
-0.322881
-1.32355
0.753218
-0.12936
0.937239
0.02937
0.93825
-0.277138
-0.203986
0.534681
-0.857562
0.40532
0.43469
0.157552
1.13
0.160506
-1.0979
1.21694
0.203678
1.31694
0.323891
1.36406
0.390064
0.459802
1.03121
0.0999612
-0.970667
1.10915
0.125735
1.21198
0.221068
1.32731
0.274733
0.33675
0.981584
0.0467209
-0.928344
1.03677
0.0705453
1.13067
0.127172
1.24899
0.156413
0.198142
0.948224
0.00772273
-0.909225
0.998785
0.0199842
1.08506
0.0408972
1.19117
0.0503004
0.0657599
0.68062
-0.672898
0.700605
0.741502
0.791802
0.139736
0.307746
-0.252471
-0.19501
0.0932993
0.31336
-0.266924
0.052313
0.324329
-0.283343
0.0180514
0.315434
-0.281173
0.203282
-0.185231
0.100627
0.344424
-0.137305
0.0645385
0.349449
0.032744
0.356124
0.00771653
0.340462
0.210999
0.0715142
0.380747
-0.107837
0.0385179
0.382445
0.0104682
0.384173
-0.00526279
0.356193
0.205736
-0.0106113
0.396557
-0.00519917
-0.0271825
0.399016
-0.0352175
0.392208
-0.027264
0.348239
0.178472
-0.0857197
0.0732464
-0.0893375
-0.0820074
-0.0491894
0.194769
0.112752
-0.248273
-0.0592476
0.141004
0.117293
-0.0635285
0.086929
0.122104
-0.0680285
0.0350996
0.121697
-0.0698673
0.0859993
-0.0508997
0.196974
0.155992
-0.240213
0.150311
0.163956
0.0977654
0.174649
0.0416193
0.177843
0.127619
0.134527
0.200856
-0.179391
0.0941424
0.204341
0.055745
0.213046
0.0199353
0.213652
0.147554
0.155882
0.233177
-0.188204
0.116218
0.244005
0.0715416
0.257722
0.0279623
0.257232
0.175516
0.0821943
-0.101488
0.059276
0.0336554
0.0097144
0.40573
0.0712576
-0.0810083
0.422153
0.0440439
-0.0604669
0.407575
0.206691
-0.192113
0.396131
0.219746
-0.208302
0.514675
-0.366817
0.402965
0.0642725
0.415155
0.0318536
0.398827
0.223019
0.386342
0.232231
0.660803
0.396689
0.063563
0.409393
0.0191496
0.378286
0.254126
0.374874
0.235643
0.856286
0.393512
0.0660309
0.394957
0.0177048
0.370604
0.278478
0.356784
0.249464
1.02487
0.385556
0.0764549
0.385663
0.0175974
0.343454
0.320687
0.326461
0.266457
1.24984
0.622204
0.0582712
0.652744
-0.012942
0.707346
0.266085
0.808777
0.165026
1.0484
1.01022
0.636897
0.0253942
0.654233
-0.0302774
0.752321
0.167997
0.790688
0.126658
0.821338
1.01775
0.644296
-0.0148817
0.665004
-0.0509856
0.746448
0.0865531
0.765001
0.108105
0.574305
1.01203
0.641708
-0.0525692
0.647035
-0.0563121
0.703111
0.0304766
0.756404
0.0548125
0.27892
1.05179
0.551451
0.495139
0.525616
0.580428
0.859349
1.04983
-0.234626
1.03834
-0.125812
1.0496
-0.119097
1.04435
4.77301e-05
0.0197025
0.969011
-0.185889
0.950112
-0.106914
0.934521
-0.103505
0.946249
-0.0116809
-0.00471495
0.947325
-0.12118
0.930282
-0.08987
0.904866
-0.0780891
0.920625
-0.0274403
-0.0124338
0.9862
-0.0555924
0.945292
-0.048962
0.90976
-0.0425568
0.90737
-0.0250505
-0.0142892
0.803756
0.754794
0.712237
0.687187
0.0472176
0.137421
-0.184638
0.0726179
0.306732
-0.332132
0.0740803
0.362074
-0.363536
0.0640525
0.36649
-0.356462
0.335167
0.0523599
-0.323474
0.0674311
0.0699894
0.139763
0.2344
0.175925
0.325912
0.181194
0.36122
0.357478
0.158884
0.0552457
0.0147437
0.166314
0.123332
0.261458
0.230769
0.330471
0.292207
0.346417
0.341531
0.0257861
-0.0110423
0.11898
0.0301377
0.239376
0.110372
0.358071
0.173513
0.237795
0.466693
0.00498864
-0.016031
0.048847
-0.0137207
0.141775
0.017444
0.257662
0.0576266
0.0976181
0.397838
-0.00527993
-0.010751
0.00171704
-0.0207177
0.0393469
-0.0201859
0.106432
-0.00945848
0.0134669
0.190583
-0.00376938
-0.00698166
-0.0050163
-0.0194707
0.0034047
-0.0286069
0.0258982
-0.0319519
-0.0268872
0.0662522
-0.00590108
-0.00108058
-0.0144016
-0.0109702
-0.0255415
-0.017467
-0.0376066
-0.0198868
-0.0203566
-0.0441372
-0.0243926
0.023312
-0.0639042
0.0285415
-0.109716
0.028345
-0.157181
0.0275783
0.0241486
-0.201686
-0.0381534
-0.0967362
-0.155998
-0.210622
-0.261313
0.380402
0.466799
-0.656618
0.525371
0.143232
-0.288201
0.530928
0.11578
-0.121337
0.394978
0.208574
-0.072624
0.0763878
0.00771331
0.275407
0.257644
0.483195
-0.0645557
0.565062
0.0339124
0.415079
0.358558
0.179608
0.0189283
0.194579
0.356704
-0.402332
0.541774
-0.151158
0.390526
0.509806
0.277871
-0.222703
0.215596
0.232726
-0.857761
0.497519
-0.41595
0.345121
0.662203
0.352265
-0.319492
0.124126
0.443659
0.298183
0.149354
0.464819
-0.614173
-0.0220103
0.171365
-0.00328176
-0.0187286
0.0766218
-0.0799036
-0.0687962
0.830812
-1.02261
0.713976
0.57391
0.421383
0.083796
-0.0152738
-0.0685222
0.134542
-0.0507464
0.244999
-0.110457
0.41345
-0.168451
-0.200723
0.188042
-0.150956
0.29618
0.527254
0.825496
0.13872
-0.130123
0.160206
-0.168802
0.105367
-0.134786
0.168139
0.0674966
-0.141045
0.178915
0.0272269
-0.140165
0.180435
-0.0974917
0.124719
0.175869
-0.0911143
-0.214878
0.132604
-0.0915212
0.0842063
-0.0926468
0.0346704
-0.0906289
-0.0628213
0.186955
-0.0424998
-0.23557
0.136786
-0.0413524
0.0850749
-0.0409354
0.0345293
-0.0400833
-0.028292
0.198999
0.0086893
-0.250188
0.147147
0.0105002
0.0937997
0.0124115
0.0394713
0.0142451
0.0111793
0.203988
-0.254546
0.15096
0.0953426
0.0397204
0.0355463
-0.303536
-0.0554844
0.0126774
-0.333593
-0.0082659
-0.342593
-0.0159221
-0.324476
-0.20056
0.115488
-0.274325
-0.144699
0.0742728
-0.292378
0.0352158
-0.303536
0.00638448
-0.295645
-0.194176
0.132594
-0.236778
-0.170141
0.093489
-0.253274
0.0543247
-0.264372
0.0189022
-0.260222
-0.175274
0.151995
-0.203764
-0.185009
0.110898
-0.212178
0.0670081
-0.220481
0.0259624
-0.219176
-0.149311
0.148939
-0.192497
0.104901
0.0633344
0.0245925
0.386949
0.109813
-0.100782
0.386226
0.100677
-0.0999548
0.353106
0.164083
-0.130963
0.295217
0.0786084
-0.0207202
-0.17321
0.299625
0.395447
0.110345
0.400595
0.0955293
0.390779
0.173899
0.343481
0.125906
-0.0446076
0.401832
0.104493
0.411316
0.086045
0.40534
0.179876
0.369105
0.162141
0.0889276
0.406931
0.0935412
0.418806
0.0741696
0.413965
0.184717
0.387926
0.18818
0.226666
0.408513
0.422215
0.414819
0.394697
0.413728
0.0963232
0.327152
0.0865757
0.234754
0.092398
0.230624
0.00412981
-0.165389
0.396013
0.505593
0.492213
0.453649
0.437058
0.571295
0.317827
0.0781862
0.247526
0.0703009
0.164787
0.0827391
0.0957174
0.0690698
0.0271952
0.456983
0.342276
0.254874
0.179245
)
;

boundaryField
{
    left
    {
        type            calculated;
        value           nonuniform List<scalar> 
17
(
-0.60402
-0.60402
-0.60402
-0.60402
-0.60402
-0.39598
-0.39598
-0.39598
-0.39598
-0.39598
-0.39598
-0.39598
-0.39598
-0.39598
-0.39598
-0.510051
-0.510051
)
;
    }
    right
    {
        type            calculated;
        value           nonuniform List<scalar> 
17
(
0.145418
0.3603
0.310877
0.311858
0.292264
0.270727
0.26152
0.269071
0.303334
0.377103
0.470693
0.574957
1.09211
1.21124
1.10287
0.692095
-0.0464334
)
;
    }
    down
    {
        type            calculated;
        value           uniform 0;
    }
    up
    {
        type            calculated;
        value           uniform 0;
    }
    cylinder
    {
        type            calculated;
        value           uniform 0;
    }
    defaultFaces
    {
        type            empty;
    }
}


// ************************************************************************* //
