/*--------------------------------*- C++ -*----------------------------------*\
  =========                 |
  \\      /  F ield         | OpenFOAM: The Open Source CFD Toolbox
   \\    /   O peration     | Website:  https://openfoam.org
    \\  /    A nd           | Version:  13
     \\/     M anipulation  |
\*---------------------------------------------------------------------------*/
FoamFile
{
    format      ascii;
    class       surfaceScalarField;
    location    "0.2";
    object      phi;
}
// * * * * * * * * * * * * * * * * * * * * * * * * * * * * * * * * * * * * * //

dimensions      [0 3 -1 0 0 0 0];

internalField   nonuniform List<scalar> 
3485
(
0.00137113
-0.0112589
0.00988774
0.00504931
-0.0319091
0.0282309
0.0107604
-0.0513865
0.0456754
0.0183065
-0.0696814
0.0621354
0.0275368
-0.0868402
0.0776099
0.0383373
-0.102906
0.092106
0.0506194
-0.117911
0.105629
0.0643402
-0.131875
0.118154
0.0795972
-0.144863
0.129606
-0.156894
0.139504
0.0969864
0.00150002
-0.0127589
0.0054447
-0.0358538
0.0114739
-0.0574156
0.0193198
-0.0775273
0.0287674
-0.0962878
0.0396395
-0.113779
0.0517921
-0.130064
0.0651172
-0.1452
0.0795237
-0.15927
-0.172196
0.094826
0.00147401
-0.0142329
0.00532635
-0.0397061
0.0111731
-0.0632624
0.0187185
-0.0850728
0.0277219
-0.105291
0.037984
-0.124041
0.0493389
-0.141419
0.0616472
-0.157508
0.0747772
-0.1724
-0.186036
0.0886177
0.00133877
-0.0155717
0.00485868
-0.043226
0.0102101
-0.0686138
0.0171158
-0.0919784
0.0253519
-0.113527
0.0347377
-0.133426
0.0451271
-0.151808
0.0564002
-0.168781
0.0684507
-0.18445
-0.198791
0.0812052
0.0011669
-0.0167386
0.00425585
-0.046315
0.00897282
-0.0733308
0.0150811
-0.0980867
0.0223908
-0.120837
0.0307513
-0.141787
0.0400448
-0.161102
0.0501789
-0.178916
0.0610761
-0.195347
-0.210403
0.0726885
0.000980035
-0.0177186
0.00358797
-0.0489229
0.00758663
-0.0773295
0.0127839
-0.103284
0.0190261
-0.127079
0.0261926
-0.148953
0.0341916
-0.169101
0.0429537
-0.187678
0.0524242
-0.204818
-0.220551
0.0625719
0.000780775
-0.0184994
0.00286517
-0.0510073
0.00606928
-0.0805336
0.0102433
-0.107458
0.0152672
-0.132103
0.0210476
-0.154734
0.0275154
-0.175568
0.034622
-0.194784
0.0423333
-0.212529
-0.228853
0.0506356
0.000569782
-0.0190692
0.00209372
-0.0525313
0.00443838
-0.0828782
0.00749347
-0.110513
0.0111698
-0.135779
0.0153983
-0.158962
0.0201293
-0.1803
0.0253317
-0.199987
0.0309892
-0.218187
-0.234971
0.0371064
0.000352606
-0.0194218
0.00129609
-0.0534747
0.00274564
-0.0843278
0.00462929
-0.112397
0.00688778
-0.138038
0.00947474
-0.161549
0.0123573
-0.183182
0.0155166
-0.203146
0.0189474
-0.221617
-0.238688
0.0226645
0.000137905
-0.0195597
0.000502813
-0.0538396
0.00105762
-0.0848826
0.00177051
-0.11311
0.00261497
-0.138882
0.00356988
-0.162504
0.00461974
-0.184232
0.005755
-0.204281
0.00697223
-0.222835
0.00827647
-0.239992
0.000466012
-0.00182658
0.00136057
0.0020368
-0.0061814
0.00461061
0.00539003
-0.0114262
0.00807293
0.0100689
-0.0162328
0.0115539
0.0154432
-0.0202007
0.0148265
0.0212845
-0.0235677
0.0177263
0.0277208
-0.0267498
0.0203135
0.0348964
-0.0299623
0.0227867
0.0427759
-0.0331302
0.0252508
-0.0360969
0.0512167
0.0276561
0.000432628
-0.00225921
0.00213707
-0.00788585
0.00547422
-0.0147633
0.00981869
-0.0205773
0.0148531
-0.0252351
0.0207218
-0.0294364
0.0275918
-0.0336199
0.0353839
-0.0377545
0.043876
-0.0416222
-0.0451318
0.0529108
0.000696845
-0.00295606
0.00276036
-0.00994937
0.00581682
-0.0178198
0.00978714
-0.0245476
0.0148501
-0.0302981
0.0211731
-0.0357594
0.0286629
-0.0411097
0.0370314
-0.0461229
0.0460717
-0.0506626
-0.0547618
0.0557017
0.000881071
-0.00383713
0.00309102
-0.0121593
0.00610844
-0.0208372
0.0102413
-0.0286804
0.0157624
-0.0358192
0.0226358
-0.0426327
0.0306118
-0.0490858
0.0394656
-0.0549766
0.0491118
-0.0603088
-0.065117
0.059467
0.000930997
-0.00476813
0.00321757
-0.0144459
0.00654122
-0.0241609
0.011151
-0.0332902
0.017181
-0.0418492
0.0244984
-0.0499502
0.0329154
-0.0575028
0.0423423
-0.0644035
0.0527154
-0.070682
-0.0763012
0.0638996
0.000947882
-0.00571601
0.00338126
-0.0168793
0.00710334
-0.0278829
0.0121907
-0.0383776
0.0186525
-0.0483111
0.026377
-0.0576746
0.0352695
-0.0663953
0.0452833
-0.0744172
0.0563381
-0.0817368
-0.0882388
0.0682757
0.000981392
-0.0066974
0.00358671
-0.0194846
0.00764397
-0.0319402
0.0131092
-0.0438428
0.0199271
-0.055129
0.0280118
-0.0657593
0.0373013
-0.0756848
0.0477486
-0.0848646
0.0592805
-0.0932687
-0.100711
0.0717527
0.00101803
-0.00771543
0.00376694
-0.0222335
0.00806818
-0.0362414
0.013814
-0.0495886
0.0209104
-0.0622254
0.0292689
-0.0741178
0.0388195
-0.0852354
0.0495052
-0.0955503
0.0612678
-0.105031
-0.113451
0.0740074
0.00105404
-0.00876948
0.00393439
-0.0251138
0.00845576
-0.0407628
0.0144731
-0.055606
0.0218608
-0.069613
0.0305084
-0.0827654
0.0403207
-0.0950477
0.0512089
-0.106439
0.0630923
-0.116915
-0.126325
0.0759665
0.00111827
0.00423537
0.00914792
0.0156773
0.0236741
0.0330148
0.0435962
0.0553116
0.0680032
0.0811827
0.113892
-0.414082
0.351407
0.167182
-0.469244
0.415954
0.208145
-0.415692
0.374729
0.23978
-0.317169
0.285533
0.262356
-0.20213
0.179554
0.274964
-0.102084
0.0894762
0.280311
-0.0485774
0.0432302
0.282146
-0.0261601
0.0243255
0.281972
-0.0154029
0.0155766
-0.0045316
0.00647578
0.115788
-0.47696
0.169245
-0.522701
0.210405
-0.456852
0.241765
-0.348529
0.263933
-0.224298
0.275905
-0.114056
0.280843
-0.0535149
0.282508
-0.0278257
0.282306
-0.0152005
-0.0026709
0.11782
-0.539078
0.170495
-0.575376
0.211584
-0.497941
0.242576
-0.379521
0.26441
-0.246131
0.276027
-0.125673
0.280853
-0.0583416
0.282573
-0.0295453
0.282532
-0.0151597
-0.00109003
0.120301
-0.599912
0.171136
-0.626211
0.21171
-0.538515
0.242249
-0.41006
0.263848
-0.26773
0.275386
-0.137211
0.280354
-0.0633098
0.282336
-0.031527
0.282643
-0.0154669
1.63079e-05
0.123201
-0.659213
0.17137
-0.67438
0.210833
-0.577978
0.240805
-0.440032
0.262269
-0.289194
0.273991
-0.148932
0.279342
-0.0686607
0.281792
-0.0339769
0.282632
-0.0163073
0.000457023
0.126009
-0.716947
0.171266
-0.719637
0.20903
-0.615742
0.238259
-0.469261
0.259666
-0.310602
0.271828
-0.161094
0.277813
-0.0746463
0.280938
-0.0371016
0.282491
-0.0178606
4.09719e-05
0.127889
-0.773083
0.170694
-0.762442
0.206391
-0.651439
0.234669
-0.497539
0.256046
-0.331979
0.268888
-0.173936
0.275772
-0.0815294
0.279775
-0.0411049
0.282215
-0.0203005
-0.00141756
0.127922
-0.826998
0.169211
-0.803731
0.20284
-0.685068
0.230008
-0.524707
0.251343
-0.353313
0.265113
-0.187706
0.273205
-0.0896215
0.278302
-0.0462025
0.281795
-0.0237934
-0.00410409
0.125811
-0.876843
0.166437
-0.844356
0.198395
-0.717026
0.224424
-0.550736
0.245654
-0.374543
0.260571
-0.202623
0.270169
-0.0992196
0.276539
-0.0525726
0.281231
-0.0284846
-0.00819756
0.122114
-0.917774
0.161579
-0.883821
0.192226
-0.747673
0.217307
-0.575817
0.238493
-0.395729
0.254917
-0.219047
0.266536
-0.110839
0.274446
-0.0604829
0.280498
-0.0345368
-0.013882
0.583516
-0.919879
-0.581412
0.560138
-0.860442
0.522141
-0.709676
0.485061
-0.538737
0.457652
-0.36832
0.444656
-0.206051
0.441671
-0.107854
0.439989
-0.058801
0.438131
-0.0326784
-0.0135984
0.682271
-0.870824
-0.731326
0.618744
-0.796915
0.553169
-0.644101
0.49763
-0.483198
0.459576
-0.330266
0.445014
-0.191489
0.439964
-0.102803
0.434071
-0.0529086
0.428269
-0.0268765
-0.011571
0.753772
-0.774294
-0.850302
0.655427
-0.698569
0.565658
-0.554332
0.493907
-0.411448
0.444953
-0.281312
0.421289
-0.167826
0.40744
-0.0889532
0.398075
-0.0435442
0.391928
-0.0207289
-0.00929514
0.779457
-0.641167
-0.912585
0.655113
-0.574225
0.549403
-0.448622
0.467035
-0.329079
0.409577
-0.223853
0.378544
-0.136794
0.363599
-0.0740078
0.355391
-0.0353366
0.350411
-0.0157492
-0.00720109
0.753487
-0.492236
-0.902418
0.618698
-0.439436
0.508465
-0.33839
0.424359
-0.244973
0.36613
-0.165624
0.332604
-0.103267
0.316153
-0.0575568
0.308005
-0.0271891
0.303673
-0.0114167
-0.00529159
0.685361
-0.345798
-0.831799
0.553301
-0.307375
0.447774
-0.232863
0.368723
-0.165922
0.314353
-0.111254
0.281668
-0.0705824
0.264897
-0.0407864
0.257077
-0.0193688
0.253401
-0.00774042
-0.00363584
0.582701
-0.21388
-0.714619
0.463132
-0.187806
0.369994
-0.139724
0.301613
-0.0975419
0.255122
-0.0647621
0.226366
-0.0418266
0.210725
-0.0251459
0.203467
-0.0121106
0.200362
-0.00463513
-0.00223199
0.448757
-0.105549
-0.557089
0.351238
-0.0902866
0.277351
-0.0658367
0.224496
-0.0446873
0.189091
-0.0293567
0.16667
-0.0194056
0.153728
-0.0122046
0.147601
-0.00598379
0.145145
-0.00217902
-0.00111181
0.286561
-0.0302322
-0.361877
0.220892
-0.024618
0.172574
-0.0175184
0.139199
-0.0113128
0.117157
-0.00731418
0.102783
-0.0050322
0.0939665
-0.00338774
0.0896977
-0.00171503
0.0881033
-0.000584569
-0.000345902
0.101293
-0.131525
0.0766753
0.0591569
0.0478441
0.0405299
0.0354978
0.03211
0.030395
0.0298104
0.738832
0.0102227
-0.740778
0.733086
0.0284108
0.723445
0.0467471
0.710169
0.0639119
0.693571
0.0791695
0.674071
0.0921888
0.652258
0.103018
0.628687
0.112189
0.604228
0.119285
0.119802
0.845559
0.0133962
-0.848733
0.83733
0.0366404
0.827292
0.056785
0.816591
0.0746127
0.805239
0.0905216
0.792872
0.104556
0.779241
0.116649
0.764521
0.126909
0.749026
0.13478
0.137502
0.84501
0.0114298
-0.843043
0.848909
0.032741
0.853048
0.0526462
0.8565
0.0711613
0.858856
0.0881652
0.859931
0.103481
0.859586
0.116994
0.857929
0.128566
0.855222
0.137487
0.142422
0.800228
0.00930993
-0.798109
0.805838
0.027131
0.814441
0.0440431
0.82567
0.059933
0.83905
0.0747852
0.853917
0.0886132
0.869506
0.101405
0.885154
0.112918
0.900045
0.122595
0.129883
0.737877
0.0070446
-0.735611
0.744166
0.0208419
0.754137
0.0340725
0.76752
0.0465493
0.784107
0.0581981
0.803699
0.0690215
0.82605
0.0790539
0.850718
0.0882507
0.876682
0.0966315
0.104147
0.653927
0.00485915
-0.651742
0.66021
0.0145589
0.670386
0.0238968
0.684229
0.0327058
0.701535
0.0408925
0.722125
0.0484311
0.745827
0.0553515
0.772366
0.0617119
0.801279
0.0677186
0.0736266
0.549115
0.00291989
-0.547175
0.554816
0.00885793
0.564142
0.0145708
0.576909
0.0199386
0.592918
0.0248837
0.611971
0.0293781
0.633874
0.0334481
0.658413
0.0371732
0.685392
0.0407388
0.0443998
0.422792
0.00137787
-0.42125
0.427413
0.00423708
0.435008
0.00697574
0.445422
0.00952501
0.458469
0.0118369
0.473954
0.0138928
0.491692
0.0157099
0.511521
0.0173447
0.533339
0.0189211
0.0206494
0.273827
0.000367355
-0.272816
0.276914
0.0011498
0.281998
0.00189178
0.288954
0.00256912
0.297627
0.00316383
0.307852
0.00366813
0.319475
0.00408661
0.332385
0.00443477
0.346548
0.00475801
0.00532037
0.100483
-0.100116
0.101633
0.103525
0.106094
0.109258
0.112926
0.117012
0.121447
0.126205
0.0780156
0.159415
-0.142375
-0.095055
0.0630889
0.147391
-0.132464
0.0496613
0.134355
-0.120928
0.0376319
0.120297
-0.108268
0.0270443
0.105149
-0.0945612
0.017988
0.0888827
-0.0798264
0.0105779
0.0714563
-0.0640462
0.00496526
0.0528101
-0.0471974
0.00134842
0.0328771
-0.0292603
0.0116411
-0.0102926
0.0780026
0.174369
-0.0929571
0.0639134
0.16148
0.0508673
0.147401
0.0389551
0.13221
0.0282857
0.115818
0.019005
0.0981633
0.0112915
0.0791699
0.00536006
0.0587415
0.0014772
0.03676
0.0131183
0.073225
0.187884
-0.0867398
0.0603999
0.174306
0.0483687
0.159433
0.0372589
0.14332
0.027208
0.125869
0.018381
0.10699
0.0109767
0.0865741
0.00523497
0.0644832
0.00144938
0.0405456
0.0145676
0.0668048
0.200325
-0.0792452
0.055055
0.186055
0.0440623
0.170425
0.0339284
0.153453
0.0247692
0.135028
0.0167274
0.115032
0.00998116
0.0933204
0.00475085
0.0697135
0.00130936
0.0439871
0.015877
0.0593373
0.21164
-0.0706525
0.0487314
0.196661
0.0388769
0.18028
0.029846
0.162484
0.0217261
0.143148
0.0146297
0.122128
0.00870181
0.0992483
0.0041259
0.0742894
0.00113072
0.0469822
0.0170077
0.0506158
0.221512
-0.0604878
0.0414224
0.205855
0.0329342
0.188768
0.0252006
0.170218
0.018285
0.150064
0.0122722
0.128141
0.00727454
0.104246
0.00343611
0.0781279
0.000937099
0.0494813
0.0179448
0.0404692
0.22956
-0.0485178
0.0330204
0.213303
0.0261809
0.195608
0.0199795
0.176419
0.0144581
0.155585
0.00967738
0.132922
0.00572007
0.108203
0.00269343
0.0811545
0.000731699
0.051443
0.0186765
0.0290617
0.235442
-0.034943
0.0236559
0.218709
0.0187173
0.200546
0.0142563
0.18088
0.0102964
0.159545
0.00687727
0.136341
0.00405522
0.111025
0.00190398
0.0833057
0.000515167
0.0528318
0.0191917
0.0169211
0.238928
-0.0204078
0.0137439
0.221886
0.0108557
0.203434
0.00825488
0.183481
0.00595111
0.161849
0.00396597
0.138326
0.0023317
0.11266
0.00109036
0.0845471
0.000293132
0.053629
0.0194848
0.00482822
-0.00589178
0.00388014
0.00303333
0.00228249
0.00162723
0.00107119
0.000621017
0.000285486
7.48585e-05
0.0432219
0.0408597
-0.0520279
-0.0320537
0.0349332
0.0378408
-0.0295522
0.0273425
0.0344822
-0.0268915
0.0206649
0.0309125
-0.0242349
0.014904
0.0273795
-0.0216187
0.00983189
0.0238469
-0.0187747
0.00534341
0.0197474
-0.0152589
0.0019235
0.0142091
-0.0107892
0.000373809
0.00723594
-0.00568624
0.00203228
-0.00165847
0.0437391
0.0500132
-0.0528926
0.0351077
0.0464723
0.027092
0.0424979
0.0199644
0.0380401
0.0140284
0.0333155
0.00929032
0.0285849
0.00551209
0.0235257
0.00256045
0.0171607
0.000612387
0.00918401
0.00264467
0.0452757
0.0596121
-0.0548746
0.036309
0.055439
0.0280303
0.0507765
0.0205585
0.045512
0.0142093
0.0396647
0.00924028
0.0335539
0.00560073
0.0271652
0.00292843
0.019833
0.000814874
0.0112976
0.00345954
0.0478918
0.069869
-0.0581487
0.0383822
0.0649485
0.0297356
0.0594231
0.0219958
0.0532519
0.0152901
0.0463704
0.00987377
0.0389702
0.00587103
0.0311679
0.00301696
0.0226871
0.000891826
0.0134227
0.00435137
0.0513742
0.0808718
-0.062377
0.0411916
0.0751312
0.0319914
0.0686233
0.0238401
0.0614032
0.0167672
0.0534433
0.0109016
0.0448358
0.00638004
0.0356895
0.00311449
0.0259526
0.000897762
0.0156394
0.00524913
0.0549892
0.0925413
-0.0666587
0.0441952
0.0859252
0.0344394
0.0783791
0.0257989
0.0700438
0.0183001
0.0609421
0.0120026
0.0511333
0.00700278
0.0406893
0.00331761
0.0296378
0.000921361
0.0180357
0.00617049
0.0579338
0.104687
-0.0700795
0.0467115
0.0971474
0.0365484
0.0885422
0.0275061
0.079086
0.0196227
0.0688255
0.0129504
0.0578056
0.00756936
0.0460704
0.00355029
0.0336569
0.000967534
0.0206184
0.00713803
0.0598919
0.117068
-0.072273
0.0484631
0.108576
0.038074
0.0989314
0.0287709
0.0883891
0.0206062
0.0769901
0.0136493
0.0647625
0.00799103
0.0517286
0.00373606
0.0379119
0.00100954
0.0233449
0.00814757
0.0616301
0.129566
-0.0741283
0.0500918
0.120114
0.0395073
0.109516
0.0299489
0.0979475
0.0215027
0.0854363
0.0142654
0.0719999
0.00835076
0.0576432
0.00389192
0.0423707
0.00104388
0.026193
0.00919145
0.066432
-0.0792413
0.054082
0.0426701
0.0323496
0.0232247
0.0153982
0.0089952
0.0041685
0.00110119
0.215222
0.0550751
-0.0723077
0.233819
0.0999928
-0.11859
0.252423
0.122003
-0.140607
0.260946
0.115646
-0.124169
0.26038
0.123013
-0.122446
0.243861
0.18215
-0.165632
0.21336
0.293237
-0.262736
0.17188
0.407707
-0.366227
0.117014
0.488285
-0.433418
0.455825
-0.390839
0.214116
0.038949
0.232288
0.0818211
0.250471
0.10382
0.259726
0.106391
0.260121
0.122618
0.244532
0.197739
0.214471
0.323299
0.172626
0.449552
0.117495
0.543415
0.520427
0.213114
0.0238245
0.231174
0.0637615
0.24893
0.0860641
0.258589
0.0967326
0.259384
0.121822
0.244266
0.212857
0.214516
0.353048
0.172441
0.491628
0.118079
0.597777
0.583631
0.212307
0.00950695
0.230467
0.0456023
0.247766
0.0687645
0.257519
0.0869802
0.258196
0.121145
0.243086
0.227967
0.213456
0.382677
0.171516
0.533569
0.119174
0.650119
0.644656
0.211784
-0.00428713
0.230163
0.0272229
0.246921
0.0520067
0.256449
0.0774522
0.256502
0.121092
0.240937
0.243532
0.211286
0.412328
0.170111
0.574744
0.120837
0.699394
0.703116
0.211594
-0.0178913
0.23025
0.00856717
0.246315
0.0359412
0.255261
0.0685071
0.254179
0.122173
0.237741
0.259971
0.208081
0.441988
0.168426
0.614399
0.122644
0.745176
0.759101
0.211751
-0.0316521
0.230696
-0.0103778
0.245861
0.0207758
0.253827
0.0605411
0.251119
0.124881
0.233492
0.277598
0.204
0.471481
0.166463
0.651936
0.123795
0.787844
0.812817
0.212213
-0.0458748
0.231448
-0.0296132
0.245458
0.00676533
0.251952
0.0540479
0.247103
0.129729
0.228113
0.296588
0.199057
0.500537
0.16387
0.687123
0.123349
0.828364
0.863893
0.212818
-0.0607031
0.232428
-0.0492231
0.245023
-0.00582936
0.249625
0.0494452
0.242236
0.137119
0.221833
0.316991
0.193407
0.528962
0.160307
0.720223
0.120955
0.867717
0.91072
0.21354
-0.0762535
0.233332
-0.0690148
0.244566
-0.0170638
0.246454
0.0475575
0.235882
0.147691
0.213961
0.338912
0.186228
0.556695
0.154965
0.751486
0.117137
0.905545
0.948615
0.333571
-0.107814
0.371258
-0.106702
0.403861
-0.0496673
0.424306
0.0271127
0.442566
0.129431
0.469043
0.312435
0.506731
0.519006
0.549366
0.708851
0.580965
0.873947
0.943352
0.586227
0.33552
-0.141323
0.375513
-0.146695
0.409326
-0.0834807
0.428845
0.0075932
0.445838
0.112439
0.480232
0.278041
0.535459
0.463779
0.604531
0.63978
0.675002
0.803476
0.885705
0.73265
0.337223
-0.176537
0.378116
-0.187587
0.413603
-0.118968
0.43338
-0.0121835
0.446088
0.0997312
0.482805
0.241323
0.550373
0.39621
0.640266
0.549887
0.742568
0.701174
0.782005
0.846268
0.339501
-0.214027
0.378127
-0.226214
0.402399
-0.14324
0.407606
-0.0173905
0.418593
0.0887449
0.462467
0.197449
0.539465
0.319212
0.643266
0.446086
0.768317
0.576122
0.645461
0.904861
0.344818
-0.256835
0.360397
-0.241793
0.354353
-0.137196
0.354044
-0.0170814
0.372138
0.0706504
0.420881
0.148707
0.501413
0.23868
0.610263
0.337237
0.744968
0.441417
0.494977
0.895452
0.341712
-0.296536
0.327552
-0.227633
0.300431
-0.110075
0.298711
-0.015362
0.318924
0.0504381
0.366133
0.101498
0.442586
0.162227
0.547279
0.232543
0.679517
0.309179
0.347545
0.826949
0.314649
-0.309175
0.275069
-0.188053
0.242205
-0.0772103
0.23876
-0.0119173
0.258233
0.0309648
0.299849
0.0598818
0.366466
0.0956107
0.459188
0.13982
0.579169
0.189199
0.214918
0.711796
0.273963
-0.281128
0.214689
-0.12878
0.179559
-0.0420799
0.175207
-0.00756575
0.191233
0.0149388
0.223606
0.027509
0.275336
0.0438807
0.34912
0.0660361
0.447191
0.0911282
0.106081
0.556028
0.214636
-0.193754
0.141195
-0.0553384
0.112012
-0.0128975
0.107446
-0.0029997
0.118347
0.00403793
0.138947
0.00690955
0.171727
0.0111001
0.220144
0.0176191
0.286359
0.0249137
0.0303995
0.36204
0.108256
0.0529179
0.0400204
0.0370207
0.0410586
0.0479682
0.0590682
0.0766874
0.101601
0.132001
0.608451
-0.117279
0.632168
-0.116674
0.65503
-0.109602
0.676217
-0.100432
0.695188
-0.0896235
0.711345
-0.0766452
0.724253
-0.0614259
0.73359
-0.0442802
0.739082
-0.0258994
-0.0075881
0.750048
-0.134677
0.765014
-0.13164
0.779271
-0.123859
0.792539
-0.1137
0.804637
-0.101722
0.815799
-0.087807
0.826374
-0.072001
0.836379
-0.0542849
0.84484
-0.0343609
-0.0114804
0.850966
-0.139375
0.853473
-0.134148
0.855037
-0.125423
0.855448
-0.114111
0.854618
-0.100891
0.852719
-0.0859089
0.849983
-0.0692642
0.846807
-0.0511097
0.843995
-0.0315486
-0.0105288
0.892901
-0.127414
0.878846
-0.120093
0.864113
-0.11069
0.849488
-0.0994856
0.835584
-0.0869868
0.823108
-0.0734334
0.81269
-0.0588461
0.80479
-0.0432091
0.799767
-0.0265255
-0.00887074
0.870697
-0.102659
0.845821
-0.0952183
0.822123
-0.0869919
0.8006
-0.0779626
0.78172
-0.0681068
0.765753
-0.0574666
0.752914
-0.0460072
0.74342
-0.0337145
0.737537
-0.0206422
-0.00694558
0.797197
-0.0729075
0.769056
-0.0670768
0.743192
-0.0611286
0.720075
-0.0548455
0.699991
-0.048023
0.683123
-0.0405977
0.669648
-0.0325325
0.659774
-0.0238406
0.653731
-0.014599
-0.00495633
0.683048
-0.0441594
0.656529
-0.040558
0.632411
-0.0370099
0.610878
-0.0333125
0.59214
-0.0292853
0.57639
-0.0248473
0.563823
-0.0199662
0.554643
-0.0146607
0.549043
-0.00899821
-0.00308915
0.532503
-0.020634
0.510892
-0.0189465
0.491255
-0.0173729
0.473683
-0.0157412
0.458332
-0.0139345
0.445382
-0.0118973
0.435026
-0.00960974
0.427451
-0.00708543
0.42282
-0.00436722
-0.00151968
0.346755
-0.00534927
0.332615
-0.0048059
0.319723
-0.00448143
0.308112
-0.0041302
0.297888
-0.00371053
0.289199
-0.00320813
0.282207
-0.00261771
0.277067
-0.00194553
0.273908
-0.00120802
-0.00042817
0.126651
0.121845
0.117364
0.113234
0.109523
0.106315
0.103697
0.101752
0.100544
0.00018502
0.0116066
-0.0117916
0.000623615
0.0304401
-0.0308787
0.00123693
0.0462327
-0.046846
0.00197697
0.0594567
-0.0601967
0.00277612
0.0700093
-0.0708084
0.00376891
0.0798756
-0.0808684
0.00396279
0.0772547
-0.0774486
0.00408413
0.0700307
-0.0701521
0.00394425
0.0610693
-0.0609294
0.0499473
0.00350655
-0.0495096
0.000533294
0.0110733
0.00180353
0.0291699
0.00358443
0.0444518
0.00574023
0.0573009
0.00807142
0.0676781
0.0110378
0.0769093
0.011674
0.0766185
0.0120787
0.069626
0.0117715
0.0613765
0.0510695
0.0106492
0.000835343
0.010238
0.00283132
0.0271739
0.00563811
0.041645
0.00903999
0.053899
0.0127373
0.0639809
0.0172445
0.072402
0.018787
0.0750761
0.0195684
0.0688446
0.0193821
0.0615628
0.0524259
0.0180258
0.00105579
0.00918218
0.00359637
0.0246333
0.00719239
0.038049
0.0115539
0.0495375
0.0163538
0.0591809
0.021744
0.0670118
0.0250686
0.0717516
0.0263505
0.0675626
0.0265986
0.0613147
0.0535577
0.0254668
0.00115125
0.00803093
0.00397863
0.021806
0.00804036
0.0339873
0.0129947
0.0445831
0.0185485
0.0536272
0.0245534
0.0610069
0.0299476
0.0663574
0.0320852
0.065425
0.0330061
0.0603939
0.0540827
0.0324811
0.0011113
0.00691963
0.00396527
0.018952
0.00818411
0.0297684
0.0133879
0.0393794
0.0193144
0.0477006
0.0257672
0.0545542
0.0324109
0.0597137
0.0363086
0.0615273
0.0381199
0.0585825
0.0536993
0.0385033
0.000926144
0.00599348
0.00357214
0.016306
0.00770865
0.0256319
0.0128787
0.0342094
0.0187825
0.0417968
0.0253327
0.048004
0.0323154
0.052731
0.0382723
0.0555704
0.0415867
0.0552681
0.0521757
0.0431103
0.000568146
0.00542534
0.00278591
0.0140882
0.00665437
0.0217635
0.0116159
0.0292478
0.0171978
0.0362149
0.0234403
0.0417614
0.0302796
0.0458917
0.0371805
0.0486694
0.0425639
0.0498847
0.0489126
0.045827
0.000104542
0.0053208
0.00176802
0.0124248
0.00517156
0.0183599
0.00980574
0.0246137
0.0149449
0.0310757
0.0206104
0.036096
0.0268965
0.0396056
0.0335846
0.0419813
0.0400887
0.0433807
0.0437765
0.0452248
-0.000175882
0.00549668
0.00108417
0.0111647
0.00384957
0.0155945
0.00787454
0.0205887
0.0124841
0.0264662
0.0175578
0.0310223
0.0231726
0.0339909
0.029254
0.0358999
0.0356486
0.0369861
0.0373415
0.0420836
-2.37514e-05
0.00552043
0.00113325
0.0100077
0.00326741
0.0134604
0.00639892
0.0174572
0.0102795
0.0225856
0.0148294
0.0264724
0.0199623
0.0288579
0.025508
0.0303542
0.0312597
0.0312345
0.0316519
0.0369492
0.000377014
0.00514342
0.00152949
0.00885525
0.00317791
0.0118119
0.00549292
0.0151422
0.00873406
0.0193445
0.0129475
0.0222589
0.0178251
0.0239803
0.0231173
0.0250619
0.0286358
0.025716
0.0259858
0.0343019
0.000631952
0.00451147
0.0017213
0.0077659
0.00305109
0.0104821
0.00489757
0.0132957
0.00794174
0.0163003
0.0120789
0.0181218
0.0168709
0.0191884
0.0220834
0.0198494
0.0275868
0.0202126
0.0202922
0.0332804
0.000695913
0.00381555
0.00168116
0.00678065
0.00289245
0.00927085
0.00483681
0.0113513
0.00817368
0.0129634
0.0124558
0.0138397
0.0173198
0.0143243
0.0226066
0.0145626
0.0282209
0.0145983
0.0144351
0.034078
0.000686867
0.00312868
0.00161025
0.00585726
0.0031162
0.0077649
0.00577082
0.0086967
0.00960382
0.00913041
0.014163
0.00928048
0.0192432
0.00924412
0.0247451
0.00906067
0.0306008
0.00874265
0.00829635
0.0367395
0.000599948
0.00252873
0.00177418
0.00468302
0.00418388
0.00535519
0.00767323
0.00520734
0.01194
0.00486364
0.0167985
0.00442198
0.022152
0.00389065
0.0279419
0.00327071
0.0341155
0.00256905
0.00179878
0.0406131
0.000528072
0.00200065
0.00252258
0.00268851
0.00579531
0.00208244
0.00978264
0.00122001
0.0143571
0.000289177
0.0194796
-0.000700508
0.0251226
-0.00175236
0.0312399
-0.00284658
0.0377668
-0.00395783
-0.00507764
0.0446432
0.000881127
0.00111952
0.00359916
-2.95387e-05
0.00711662
-0.00143501
0.0112576
-0.00292097
0.0160182
-0.00447145
0.0214097
-0.00609196
0.0273791
-0.00772183
0.0338272
-0.00929464
0.0406724
-0.010803
-0.0122837
0.0478784
0.00147538
-0.00035587
0.00403819
-0.00259235
0.00739495
-0.00479178
0.0115657
-0.0070917
0.0165583
-0.00946408
0.0222683
-0.0118019
0.028514
-0.0139675
0.0351825
-0.0159632
0.042261
-0.0178815
-0.0197733
0.0497506
0.0010047
0.00302295
0.00630409
0.0107663
0.0161287
0.0220531
0.0283991
0.0352226
0.0425919
0.0504746
0.0521436
0.0827723
-0.0979667
0.0784805
-0.00924089
-0.017096
0.100724
-0.0514333
0.0291902
0.11398
-0.0458717
0.0326151
0.121775
-0.0259053
0.0181106
0.126211
-0.0105364
0.00610036
0.129433
-0.00418244
0.000960774
0.132421
-0.00282001
-0.00016867
0.135427
-0.00290133
-0.000104232
-0.00331962
0.000397164
0.059487
0.0575872
0.0927376
-0.0424916
0.119642
-0.0783381
0.135222
-0.0614514
0.143777
-0.0344603
0.148407
-0.0151661
0.151708
-0.00748303
0.154737
-0.00584897
0.157734
-0.00589857
-0.00601472
0.0674469
0.0234207
0.105846
-0.0808905
0.13667
-0.109163
0.156005
-0.0807863
0.165818
-0.0442732
0.17062
-0.0199677
0.17384
-0.0107032
0.176686
-0.00869479
0.179416
-0.00862822
-0.00826367
0.0761118
-0.0186131
0.118267
-0.123046
0.151996
-0.142892
0.175278
-0.104069
0.187185
-0.0561797
0.192352
-0.0251351
0.195457
-0.0138078
0.197988
-0.0112253
0.200273
-0.0109134
-0.00990892
0.0848088
-0.0666825
0.129573
-0.16781
0.165399
-0.178718
0.192089
-0.130759
0.20702
-0.0711108
0.213065
-0.0311802
0.216146
-0.0168885
0.218307
-0.0133868
0.220046
-0.0126522
-0.0108572
0.0928376
-0.118907
0.139498
-0.21447
0.176859
-0.216079
0.206013
-0.159913
0.224303
-0.089401
0.232067
-0.038944
0.23543
-0.020251
0.237296
-0.0152533
0.238488
-0.0138442
-0.0110926
0.0996395
-0.173903
0.147866
-0.262697
0.186392
-0.254605
0.217051
-0.190571
0.238184
-0.110534
0.248444
-0.0492042
0.252587
-0.0243945
0.254328
-0.0169941
0.255032
-0.0145482
-0.010652
0.104975
-0.231
0.154671
-0.312393
0.194091
-0.294026
0.225525
-0.222005
0.248322
-0.13333
0.261161
-0.0620442
0.266959
-0.0301923
0.269146
-0.0191803
0.269606
-0.0150091
-0.00968633
0.108901
-0.29015
0.160039
-0.363531
0.200137
-0.334125
0.231885
-0.253752
0.255114
-0.156559
0.269096
-0.0760266
0.276001
-0.0370976
0.278852
-0.0220311
0.279349
-0.0155059
-0.00828971
0.111732
0.164155
0.204759
0.23654
0.259535
0.272985
0.279117
0.281412
0.281483
0.0132019
0.00607605
-0.019278
0.0110232
0.00217869
0.0115827
-0.000559487
0.0129908
-0.0014081
0.0136877
-0.000696926
0.013896
-0.000208281
0.013885
1.10533e-05
0.0138362
4.88235e-05
0.0137814
5.48069e-05
-8.74943e-06
0.0372491
0.0232112
-0.0543843
0.0316229
0.00780489
0.0342576
-0.00319419
0.038236
-0.00538649
0.0403344
-0.00279533
0.0409734
-0.000847333
0.0409969
-1.23894e-05
0.0408988
0.000146976
0.0408129
0.000140644
-3.85614e-05
0.057994
0.0480626
-0.0828454
0.0511433
0.0146556
0.0563296
-0.00838052
0.0627537
-0.0118105
0.0662794
-0.00632103
0.0674072
-0.00197514
0.0675236
-0.000128811
0.0674258
0.00024486
0.0673562
0.000210207
-9.92039e-05
0.0739555
0.0753224
-0.101215
0.0684678
0.0201433
0.0770697
-0.0169825
0.0861602
-0.020901
0.0912506
-0.0114114
0.0929771
-0.00370166
0.0932683
-0.000419979
0.093239
0.000274152
0.0932361
0.000213114
-0.0002122
0.081593
-0.104237
0.0846401
0.0968477
0.108562
0.115261
0.11766
0.118201
0.118306
0.118415
0.00273315
-0.000172889
-0.00256026
0.00326391
-0.000530757
0.00417594
-0.000912029
0.00548669
-0.00131076
0.0071827
-0.00169601
0.00922681
-0.00204411
0.011583
-0.00235624
0.0141715
-0.00258843
0.0168573
-0.00268587
-0.00242065
0.00778599
-0.000645568
-0.00731331
0.00923259
-0.00197736
0.0117114
-0.00339088
0.0152671
-0.00486639
0.0198804
-0.0063093
0.0254773
-0.007641
0.0319587
-0.00883768
0.0391502
-0.00977994
0.0467632
-0.0102989
-0.0100418
0.0124758
-0.00138348
-0.0117379
0.0147251
-0.00422662
0.0185572
-0.00722301
0.0240201
-0.0103293
0.0310734
-0.0133626
0.0395787
-0.0161464
0.0493196
-0.0185785
0.0600434
-0.0205037
0.0714103
-0.0216657
-0.0214769
0.0168045
-0.00234725
-0.0158407
0.0197282
-0.00715031
0.0246705
-0.0121653
0.0316457
-0.0173045
0.0405428
-0.0222596
0.0510974
-0.0267011
0.062928
-0.0304091
0.075687
-0.0332627
0.088859
-0.0348378
-0.0338333
0.0207894
-0.01963
0.0242883
0.0301487
0.038311
0.0485325
0.0603347
0.073036
0.0856002
0.0959871
0.0315382
-0.0312632
0.0370842
-0.0373593
0.0256631
-0.0308563
0.0367314
0.0199906
-0.0300208
0.0356934
0.0147291
-0.0286244
0.0338859
0.010092
-0.0264207
0.0310577
0.00622148
-0.0227494
0.0266199
0.00312591
-0.0176428
0.0207383
0.00102673
-0.013618
0.0157172
-8.02007e-05
-0.0101512
0.0112581
-0.00562282
0.00554263
0.0296363
-0.0253775
-0.035522
0.0238996
-0.0251196
0.0183898
-0.024511
0.0132819
-0.0235165
0.00882402
-0.0219627
0.00539906
-0.0193244
0.00305041
-0.0152941
0.00141759
-0.0119852
0.000310499
-0.00904409
-0.00531232
0.029681
-0.0193648
-0.0356938
0.0238538
-0.0192923
0.0183133
-0.0189705
0.0131743
-0.0183774
0.00863622
-0.0174247
0.00514646
-0.0158346
0.00306911
-0.0132167
0.00168697
-0.010603
0.000605149
-0.00796227
-0.00470717
0.0315823
-0.0130844
-0.0378627
0.0255381
-0.0132481
0.0198119
-0.0132443
0.0144899
-0.0130554
0.00971117
-0.0126459
0.00579673
-0.0119202
0.00329962
-0.0107196
0.00182345
-0.00912685
0.000758341
-0.00689715
-0.00394882
0.0350121
-0.00643643
-0.0416601
0.0286473
-0.00688322
0.0226367
-0.00723362
0.0170481
-0.00746691
0.0119739
-0.00757174
0.0075936
-0.00753984
0.0042351
-0.00736112
0.00205071
-0.00694245
0.000816641
-0.00566307
-0.00313218
0.0390265
0.000621291
-0.0460842
0.0322935
-0.000150269
0.0259559
-0.000895979
0.0200872
-0.00159824
0.0147493
-0.00223375
0.0100037
-0.00279423
0.00592933
-0.00328678
0.00268841
-0.00370152
0.000723263
-0.00369791
-0.00240891
0.0425024
0.00804031
-0.0499214
0.0354224
0.00692979
0.0287333
0.00579304
0.0225296
0.00460554
0.0169083
0.00338753
0.0119113
0.00220274
0.00752839
0.00109616
0.00377219
5.46875e-05
0.000957388
-0.000883089
-0.00145151
0.0444846
0.015715
-0.0521593
0.0371823
0.0142321
0.0302536
0.0127218
0.0237347
0.0111244
0.0177605
0.00936178
0.0125066
0.00745665
0.00805317
0.00554959
0.00438972
0.00371815
0.00156068
0.00194595
0.000109176
0.0445618
0.0236753
-0.052522
0.0370748
0.0217191
0.0300683
0.0197283
0.0234661
0.0177266
0.0172433
0.0155846
0.0115853
0.0131147
0.00684847
0.0102864
0.00330735
0.00725928
0.0011026