/*--------------------------------*- C++ -*----------------------------------*\
  =========                 |
  \\      /  F ield         | OpenFOAM: The Open Source CFD Toolbox
   \\    /   O peration     | Website:  https://openfoam.org
    \\  /    A nd           | Version:  13
     \\/     M anipulation  |
\*---------------------------------------------------------------------------*/
FoamFile
{
    format      ascii;
    class       volScalarField;
    location    "0.2";
    object      strainRateViscosityModel:nu;
}
// * * * * * * * * * * * * * * * * * * * * * * * * * * * * * * * * * * * * * //

dimensions      [0 2 -1 0 0 0 0];

internalField   nonuniform List<scalar> 
1800
(
9.40508
9.19775
9.01011
8.80083
8.5758
8.34352
8.11452
7.89681
7.62244
7.37687
9.58531
9.41885
9.26692
9.09727
8.91101
8.71111
8.50306
8.28792
8.02626
7.70058
9.70222
9.56272
9.42805
9.27094
9.0886
8.87882
8.64061
8.36856
8.0299
7.60961
9.77541
9.65616
9.53325
9.38287
9.20045
8.98163
8.72264
8.41568
8.02837
7.55397
9.82169
9.71831
9.60559
9.46167
9.28069
9.05691
8.78541
8.45874
8.04754
7.55584
9.85186
9.76082
9.65731
9.52059
9.34355
9.11895
8.84031
8.5001
8.07143
7.57008
9.87179
9.78992
9.69399
9.56397
9.39148
9.16769
8.8842
8.53252
8.08735
7.57567
9.88475
9.80925
9.71889
9.59395
9.42496
9.20147
8.91312
8.55008
8.08858
7.56362
9.89261
9.82108
9.73417
9.61221
9.44468
9.21965
8.92487
8.54928
8.07129
7.52883
9.89647
9.82686
9.74154
9.62071
9.45311
9.22575
8.92516
8.53959
8.05048
7.49301
1.85423
1.37324
1.15535
1.28672
1.73855
2.26721
2.47609
2.4055
2.32353
2.3095
3.79429
1.72896
1.46094
2.00527
2.73659
2.96187
2.77342
2.64259
2.67875
2.73907
4.73248
2.53703
2.43601
3.21266
3.60755
3.32017
3.06682
3.1263
3.27062
3.34762
5.28117
3.87166
3.82123
4.22598
4.1799
3.829
3.73524
3.872
3.96596
4.00993
6.06399
5.27511
5.12079
5.12652
4.92098
4.66391
4.59013
4.61848
4.61324
4.65196
6.96604
6.46235
6.22918
6.04188
5.79341
5.55124
5.39303
5.294
5.22131
5.27412
7.77578
7.38002
7.11846
6.86212
6.58945
6.32213
6.08758
5.90006
5.76864
5.82222
8.40242
8.05679
7.79295
7.5164
7.22678
6.93087
6.64104
6.38442
6.18974
6.22674
8.85049
8.54617
8.29141
8.01034
7.70526
7.37843
7.03388
6.6987
6.41269
6.41877
9.16215
8.9019
8.66646
8.3965
8.09514
7.76469
7.40479
7.03335
6.70565
6.74958
2.17598
1.71398
1.30923
0.87949
0.481593
0.142295
0.0286132
0.0129049
0.0107655
0.0100491
2.5252
1.85051
1.40755
0.905567
0.483684
0.139798
0.0284001
0.0129763
0.0108266
0.0100622
2.95288
1.99301
1.50085
0.936312
0.487635
0.14247
0.0292641
0.013132
0.0109066
0.0100798
3.44626
2.16971
1.58709
0.969333
0.492755
0.147935
0.0305443
0.0133238
0.0109951
0.0100994
3.98749
2.40848
1.67251
1.002
0.497587
0.154308
0.0320787
0.0135455
0.0110875
0.0101199
4.53099
2.71717
1.77133
1.03501
0.501091
0.159882
0.0337814
0.0137985
0.0111794
0.0101397
4.99704
3.07414
1.89304
1.06844
0.500985
0.162166
0.0353146
0.014077
0.0112663
0.0101576
5.31119
3.45561
2.06025
1.11898
0.503242
0.161545
0.0366039
0.0143941
0.0113475
0.0101723
5.34112
3.73846
2.20951
1.15533
0.494597
0.152353
0.0361549
0.0145679
0.0113897
0.0101809
5.19874
4.00582
2.44972
1.26709
0.520521
0.153883
0.0387175
0.0153069
0.0114404
0.0101548
4.94601
3.96659
2.51641
1.28832
0.488745
0.123588
0.0303862
0.0119355
0.0100831
0.0101902
5.34466
3.39542
2.20597
1.05854
0.32655
0.0356037
0.0119883
0.0295156
0.0563853
0.0890554
4.9212
3.05919
2.21528
1.10226
0.385251
0.105921
0.167499
0.276811
0.335018
0.373151
4.54059
3.59272
2.59911
1.51714
0.722354
0.38308
0.394184
0.460584
0.503541
0.535172
5.1006
4.72101
3.28835
2.08402
1.11147
0.628296
0.570046
0.62711
0.670993
0.702515
6.25153
5.66178
4.0374
2.63657
1.52683
0.933913
0.78578
0.793265
0.819533
0.841078
7.26363
6.37423
4.71069
3.14257
1.92676
1.2402
0.998504
0.94815
0.950939
0.959898
8.00093
6.91357
5.26138
3.58975
2.30223
1.54698
1.2171
1.09904
1.06947
1.06042
8.51891
7.3311
5.69846
3.97598
2.64373
1.83201
1.41948
1.23249
1.16739
1.13942
8.93069
7.69002
6.04909
4.2935
2.97116
2.13481
1.64373
1.37857
1.26888
1.2139
6.51311
6.43979
6.43049
6.44871
6.48722
6.52969
6.58149
6.70959
6.89375
6.82391
0.261181
1.05804
2.00906
2.92474
3.70639
4.31979
4.73738
4.98783
5.22827
5.73435
3.84984
3.54308
3.28349
3.10985
3.10517
3.24993
3.47408
3.71773
4.17205
4.85526
6.64504
6.62792
6.53752
6.34448
6.04196
5.65485
5.2446
4.88947
4.73234
4.54387
7.69232
7.677
7.63261
7.5418
7.39659
7.19006
6.9266
6.61777
6.28236
5.64968
8.44979
8.43339
8.39463
8.32804
8.22997
8.09721
7.92894
7.71737
7.42818
6.90739
8.93981
8.92407
8.89042
8.83694
8.76185
8.66315
8.5385
8.37939
8.15529
7.80943
9.27304
9.25986
9.23251
9.18991
9.13059
9.05254
8.95281
8.82499
8.65309
8.43134
9.50447
9.49418
9.47309
9.44025
9.39427
9.3332
9.25425
9.15289
9.02292
8.8754
9.68989
9.68284
9.66852
9.64603
9.61404
9.57068
9.51358
9.4397
9.34629
9.24397
7.25135
7.52807
7.83707
8.08691
8.34372
8.59859
8.84062
9.06115
9.25449
9.46046
7.58473
7.94857
8.24054
8.48033
8.70851
8.92412
9.12184
9.29878
9.4539
9.61821
7.49951
7.95751
8.32545
8.61982
8.87511
9.09725
9.28776
9.44939
9.58536
9.72235
7.44762
7.95767
8.37336
8.70149
8.97613
9.20564
9.39453
9.54799
9.67132
9.78829
7.45684
7.98068
8.41832
8.76456
9.05025
9.28336
9.46967
9.61587
9.72869
9.83026
7.48274
8.01168
8.46384
8.82126
9.11217
9.34463
9.526
9.66445
9.76797
9.85766
7.50385
8.03786
8.50267
8.86851
9.16188
9.39184
9.56761
9.6989
9.7948
9.87572
7.51132
8.0525
8.52868
8.90204
9.19742
9.42518
9.59639
9.72213
9.81244
9.8873
7.49854
8.05053
8.53744
8.91898
9.21768
9.44503
9.61372
9.73607
9.82291
9.89405
7.48306
8.04368
8.53598
8.92347
9.22527
9.45331
9.62124
9.74218
9.82747
9.89694
2.49637
2.45614
2.46994
2.65878
2.81814
2.45311
1.63469
1.13855
1.46004
4.04692
2.92911
2.84564
2.69459
2.68878
3.05256
3.35692
2.75112
1.84455
2.04466
5.05615
3.44776
3.40395
3.25328
3.07401
3.26395
3.80146
3.76351
3.0998
3.20477
5.40168
3.96757
3.95323
3.92536
3.81897
3.90713
4.31968
4.57291
4.42748
4.60165
5.86705
4.53248
4.50254
4.57185
4.63825
4.79611
5.12005
5.43196
5.59757
5.86476
6.60231
5.13294
5.08901
5.22211
5.41262
5.66652
5.98384
6.30557
6.58542
6.88661
7.39296
5.67691
5.63905
5.83389
6.09976
6.41162
6.74113
7.06605
7.37337
7.67299
8.08169
6.08223
6.06547
6.32334
6.64588
6.99526
7.33831
7.66497
7.9716
8.25668
8.60984
6.2708
6.28709
6.63459
7.0264
7.41884
7.78246
8.11479
8.41515
8.6819
8.98788
6.60732
6.575
6.95766
7.37904
7.77992
8.14153
8.4652
8.74957
8.99265
9.25206
0.0859768
0.111061
0.0392104
0.0169093
0.013025
0.210849
0.769471
1.36021
1.86232
2.36452
0.0560437
0.110527
0.0407785
0.019475
0.017369
0.222926
0.803953
1.45716
1.97749
2.66452
0.0379132
0.114965
0.0444898
0.0251486
0.0274943
0.251336
0.852321
1.54914
2.08864
3.0115
0.0278442
0.123162
0.0501372
0.0341501
0.0447084
0.291989
0.90802
1.62974
2.22628
3.42392
0.0228504
0.134453
0.0574804
0.0462346
0.068435
0.33922
0.963831
1.70338
2.42401
3.90363
0.0211857
0.148465
0.0662239
0.0606459
0.0964854
0.387664
1.01738
1.78723
2.6962
4.39927
0.0222257
0.164995
0.0759378
0.0758784
0.124492
0.430745
1.06739
1.89591
3.02568
4.825
0.026344
0.18382
0.0864793
0.0907489
0.151412
0.472577
1.1339
2.05836
3.38816
5.1052
0.0370159
0.204674
0.0972273
0.101684
0.166084
0.492331
1.18043
2.20669
3.66208
5.1058
0.0613867
0.22646
0.109357
0.112967
0.1937
0.552851
1.31908
2.46345
3.91216
4.91256
0.115727
0.256988
0.131331
0.120044
0.187771
0.538339
1.36067
2.57163
3.92069
4.6963
0.218913
0.297765
0.137479
0.110777
0.128173
0.380622
1.1664
2.35669
3.47532
5.22156
0.383263
0.313331
0.137632
0.045832
0.0223023
0.218558
1.03972
2.30834
3.25026
4.95726
0.637675
0.311707
0.0352301
0.0705694
0.129925
0.365826
1.25964
2.51103
3.64565
4.67764
1.00979
0.107986
0.210887
0.386467
0.45389
0.804353
1.8268
3.12316
4.65648
5.14678
1.50095
0.0646456
0.560213
0.593656
0.749422
1.26507
2.41898
3.87914
5.579
6.21358
2.17088
0.67693
0.88455
0.896628
1.11744
1.74647
2.97644
4.58208
6.29889
7.21641
3.78089
1.67106
1.31887
1.23766
1.49586
2.19827
3.47294
5.16656
6.85561
7.97007
6.85733
3.56505
2.00713
1.60381
1.85362
2.60209
3.9047
5.63853
7.29702
8.50772
9.04876
6.38492
2.9023
2.15451
2.27621
3.0034
4.27687
6.03094
7.68728
8.93771
6.63274
6.69447
6.51643
6.39354
6.35195
6.32465
6.30681
6.31804
6.36233
6.47656
5.5517
5.03241
4.78533
4.54109
4.14001
3.55126
2.80663
1.93756
1.04798
0.28548
4.8665
4.245
3.83009
3.61446
3.4237
3.30188
3.30656
3.45057
3.65081
3.87205
4.69512
4.866
5.0103
5.32397
5.6933
6.04805
6.33268
6.52178
6.61752
6.6426
5.67093
6.27588
6.60679
6.90904
7.17197
7.38195
7.53256
7.62889
7.67735
7.69294
6.86276
7.38782
7.68474
7.90308
8.07742
8.21557
8.3184
8.38904
8.43094
8.44921
7.76597
8.12133
8.35273
8.51853
8.64844
8.75135
8.82984
8.88604
8.92182
8.93915
8.40526
8.63314
8.8092
8.94115
9.04417
9.12477
9.18605
9.23013
9.25861
9.27265
8.86626
9.01622
9.14761
9.25058
9.3308
9.39281
9.43942
9.47266
9.494
9.50442
9.24838
9.35018
9.44281
9.51615
9.57282
9.6158
9.64742
9.66953
9.68346
9.6901
9.50918
8.98485
8.23524
6.92754
5.59748
0.131208
3.3601
5.95966
7.21326
8.15116
9.4651
8.92104
8.16746
6.88985
5.54886
0.563769
2.62155
5.70532
6.91558
7.9132
9.36531
8.78225
8.01956
6.80884
5.36577
1.60336
1.41307
5.20598
6.30848
7.40247
9.18208
8.54446
7.7737
6.65428
5.18577
2.73975
0.722774
4.23775
5.42074
6.57057
8.86748
8.17278
7.4031
6.37601
5.02575
3.36749
0.970701
2.63093
4.31614
5.39284
8.34965
7.62872
6.87234
5.91614
4.76414
3.43937
1.71917
1.30158
3.04824
3.98703
7.53493
6.89535
6.1543
5.22598
4.29776
3.26847
2.14339
1.17345
1.65503
2.55579
6.32433
6.03588
5.28012
4.2304
3.53017
2.9096
2.11873
1.43757
1.06937
1.23287
4.63224
5.22951
4.4724
2.99926
2.43463
2.27024
1.85534
1.38799
1.12567
0.659167
2.67658
4.53632
4.01681
1.96553
1.39618
1.48699
1.41069
1.21575
1.06772
0.848431
1.28191
3.78851
3.66115
1.33418
0.816335
0.900991
0.977073
0.962856
0.97675
1.02325
0.617956
2.97367
3.08059
0.955757
0.578958
0.649654
0.772442
0.832501
0.854467
0.885765
0.358572
2.1894
2.28402
0.695145
0.504803
0.612079
0.744307
0.827907
0.863772
0.886953
0.267317
1.53664
1.47851
0.537294
0.55587
0.69431
0.806637
0.876951
0.899182
0.908322
0.240805
0.98751
0.82804
0.533229
0.68842
0.819657
0.91929
0.98189
0.996558
0.992872
0.241992
0.461997
0.490106
0.640453
0.823449
0.96133
1.05763
1.11335
1.12291
1.11492
0.166124
0.195546
0.498573
0.746089
0.966476
1.11058
1.19725
1.24387
1.26249
1.26445
0.0420718
0.24859
0.633925
0.90525
1.11038
1.2213
1.29962
1.37642
1.43634
1.45773
0.0635454
0.485419
0.807424
1.06285
1.18334
1.29888
1.46493
1.62962
1.7109
1.72114
0.692447
0.866727
1.01128
1.12865
1.28144
1.58408
1.90484
2.05724
2.04584
2.01173
0.36327
0.0747708
0.227102
0.553862
0.780018
0.855634
0.86617
0.875969
0.889017
0.908545
0.467613
0.216615
0.315775
0.514775
0.699639
0.762921
0.771478
0.783545
0.799237
0.818949
0.536214
0.382927
0.434748
0.496601
0.617854
0.668431
0.674433
0.687062
0.704392
0.723095
0.651355
0.592981
0.58775
0.529091
0.537834
0.565285
0.570448
0.584574
0.603583
0.620559
0.813651
0.795712
0.726869
0.603601
0.477155
0.460146
0.462649
0.478385
0.498577
0.513785
1.00596
0.977637
0.848125
0.691928
0.450751
0.358798
0.350789
0.364722
0.384365
0.396274
1.21019
1.13625
0.949268
0.764271
0.456174
0.272212
0.241771
0.255455
0.274529
0.285808
1.42307
1.28265
1.03787
0.811135
0.471335
0.212786
0.133178
0.124641
0.137281
0.139453
1.64978
1.42688
1.12301
0.838623
0.479533
0.176475
0.0600248
0.032128
0.0287293
0.0236014
1.8952
1.572
1.2128
0.858421
0.481088
0.153338
0.0338233
0.0141669
0.0113668
0.010188
2.00956
0.747359
0.733392
0.982958
1.20812
1.29724
1.31023
1.3025
1.29049
1.29015
1.39461
0.483752
0.596377
0.89151
1.116
1.20279
1.21789
1.21613
1.21144
1.21659
0.751245
0.288167
0.498751
0.813072
1.03787
1.12255
1.13816
1.14049
1.14111
1.15041
0.252695
0.178332
0.42185
0.738591
0.957806
1.03664
1.05045
1.05591
1.06143
1.07479
0.432171
0.0329156
0.2809
0.622552
0.856954
0.941408
0.956723
0.965843
0.976218
0.993737
9.35433
9.2897
9.14057
8.87254
8.43679
7.77787
6.87009
5.75807
4.58111
3.53674
9.1921
9.09524
8.8806
8.51101
7.94067
7.13539
6.10836
4.95378
3.8437
2.78621
9.02345
8.89979
8.62604
8.16033
7.46086
6.51505
5.37009
4.16724
3.08002
1.9416
8.81582
8.66165
8.32085
7.74713
6.90522
5.81315
4.55367
3.29334
2.22427
1.08814
8.58691
8.37874
7.92508
7.17657
6.11153
4.79095
3.34913
2.08306
0.990388
0.300229
1.06345
1.02903
1.0234
1.02836
0.922592
0.804557
1.29631
3.6719
3.85078
1.33
0.955953
0.941848
0.936527
0.882189
0.729641
0.597408
0.919181
3.1279
3.09501
0.652778
0.994703
0.991787
0.97611
0.903674
0.759576
0.599313
0.714344
2.35142
2.31767
0.380836
1.05949
1.07081
1.06667
1.00739
0.899029
0.756107
0.675255
1.52639
1.58716
0.279312
1.18181
1.20422
1.20907
1.16244
1.07518
0.954302
0.79287
0.878865
0.870591
0.247938
1.33013
1.3483
1.3546
1.32745
1.2573
1.12566
0.906013
0.644316
0.339816
0.211643
1.51196
1.50807
1.47599
1.42987
1.3718
1.26021
1.02653
0.715645
0.264041
0.0637778
1.75239
1.74631
1.66876
1.52263
1.3831
1.27837
1.13725
0.843544
0.466175
0.0461958
2.01379
2.0557
2.05064
1.86805
1.545
1.26661
1.12534
0.989142
0.798473
0.642504
2.22839
2.27053
2.37982
2.41838
2.12812
1.56043
1.1328
1.01635
1.23088
1.92014
8.15097
7.2129
5.9593
3.35959
0.131466
5.59602
6.92705
8.23505
8.98487
9.50927
7.91252
6.91447
5.70432
2.62092
0.563656
5.545
6.88839
8.16687
8.92109
9.46541
7.40101
6.3066
5.20419
1.4149
1.59972
5.36124
6.80655
8.01867
8.78237
9.3659
6.56791
5.41784
4.23548
0.725927
2.73161
5.18099
6.65139
7.77269
8.54478
9.18312
5.3884
4.31159
2.63146
0.971066
3.35638
5.01974
6.37248
7.4021
8.17349
8.86927
3.97854
3.04004
1.30918
1.71408
3.42636
4.75525
5.91126
6.8713
7.6301
8.35274
2.53895
1.65106
1.1882
2.13434
3.25028
4.28148
5.21741
6.15303
6.8979
7.5406
1.21383
1.08755
1.45466
2.10883
2.87896
3.50144
4.21673
5.27985
6.04087
6.33603
0.670665
1.15547
1.41057
1.8439
2.23125
2.40097
2.98474
4.47504
5.23873
4.6585
0.887541
1.10547
1.25174
1.41684
1.46708
1.37235
1.94473
4.01784
4.55811
2.72334
2.07665
0.531221
1.04028
0.723023
0.752471
0.770633
0.625087
0.297419
0.065161
0.358577
1.61239
0.245633
0.836208
0.566381
0.651395
0.683713
0.574604
0.350367
0.276285
0.494199
1.32019
0.0356748
0.600991
0.421372
0.54937
0.590916
0.532506
0.453364
0.477815
0.599324
1.06488
0.0268061
0.347918
0.292708
0.445813
0.492894
0.526027
0.615163
0.724539
0.763683
0.809037
0.110099
0.138307
0.207195
0.340762
0.402383
0.568011
0.777807
0.946326
0.970988
0.595566
0.168943
0.0224184
0.0584927
0.242625
0.334272
0.640104
0.919997
1.14049
1.19807
0.424115
0.177704
0.0519073
0.0115839
0.125549
0.300205
0.702304
1.0299
1.30535
1.42867
0.294256
0.159663
0.0473161
0.0240609
0.0379079
0.275817
0.734746
1.11465
1.45333
1.65825
0.199146
0.135536
0.0437352
0.0204112
0.0158975
0.242118
0.744611
1.18917
1.59475
1.88394
0.131937
0.118693
0.0398823
0.0172748
0.012416
0.217746
0.751318
1.26906
1.73288
2.11037
9.3364
6.76839
2.689
1.78632
1.29716
1.18442
1.01411
0.810469
0.802011
2.03504
8.21061
4.63234
2.23097
1.50768
1.17061
1.0927
0.930229
0.675332
0.530943
1.39952
6.11847
3.0582
1.79714
1.30363
1.06732
1.01963
0.86119
0.580434
0.329736
0.740768
4.12764
1.86685
1.49896
1.09819
0.961405
0.942484
0.79386
0.501821
0.230894
0.222999
2.82503
1.05584
1.23891
0.898698
0.851953
0.850144
0.690687
0.361933
0.0445019
0.39624
3.54753
4.58828
5.76196
6.87225
7.7794
8.43792
8.8733
9.14104
9.28996
9.35441
2.78047
3.84021
4.95121
6.10669
7.13482
7.94068
8.51122
8.88083
9.0954
9.19217
1.92752
3.07088
4.16103
5.36552
6.51257
7.45973
8.15991
8.62596
8.89981
9.02348
1.05222
2.20093
3.28001
4.54553
5.80901
6.90302
7.74601
8.32038
8.6615
8.81579
0.298262
0.9584
2.06145
3.33578
4.78396
6.10793
7.17458
7.92413
8.37837
8.58682
)
;

boundaryField
{
    left
    {
        type            calculated;
        value           nonuniform List<scalar> 
35
(
0.280811
0.552439
0.986746
1.63228
2.53268
3.69448
5.05955
6.47503
8.15832
9.44174
0.203927
0.139193
0.102607
0.0833775
0.0740882
0.0709054
0.0725878
0.0804813
0.102738
0.15457
4.931
4.05228
3.22209
2.50375
1.90406
1.40288
1.0014
0.694385
0.468201
0.309275
9.61568
8.97922
7.9226
6.84854
5.85926
)
;
    }
    right
    {
        type            calculated;
        value           nonuniform List<scalar> 
35
(
1.29016
1.21688
1.151
1.07569
0.994855
0.909501
0.819421
0.72265
0.61891
0.510874
0.392289
0.281177
0.135388
0.0222698
0.0101011
0.0100161
0.0100189
0.0100231
0.0100281
0.0100337
0.0100395
0.0100452
0.0100505
0.0100544
0.0100437
0.0104312
0.0977931
0.38983
0.550936
0.716264
0.851602
0.967009
1.06434
1.1409
1.21275
)
;
    }
    down
    {
        type            calculated;
        value           nonuniform List<scalar> 
40
(
9.45415
7.26425
2.9169
1.87228
1.33557
1.21493
1.04305
0.853303
0.903194
2.26202
3.83249
4.88141
6.03259
7.09157
7.94358
8.55426
8.95392
9.19883
9.3353
9.39457
9.39447
9.33502
9.19832
8.95306
8.55294
7.94166
7.08869
6.0275
4.87229
3.81855
2.2327
0.847162
0.776624
1.015
1.24078
1.32885
1.33982
1.32951
1.31478
1.31265
)
;
    }
    up
    {
        type            calculated;
        value           nonuniform List<scalar> 
40
(
9.03372
7.80725
6.16585
4.40403
3.08127
2.23295
1.71231
1.41925
1.29603
1.23431
9.72926
9.72304
9.71044
9.69064
9.66233
9.62375
9.57259
9.5058
9.42066
9.32799
9.33469
9.42626
9.51017
9.57606
9.62653
9.66453
9.69232
9.71165
9.72376
9.7295
9.27051
7.0971
3.28761
2.29323
2.38976
3.12805
4.4014
6.15968
7.81371
9.04441
)
;
    }
    cylinder
    {
        type            calculated;
        value           nonuniform List<scalar> 
80
(
2.08457
4.69033
5.59951
5.80345
6.31699
7.09812
7.86638
8.47725
8.91366
9.21344
9.44602
9.61879
9.72985
9.79831
9.84096
9.86846
9.8865
9.89817
9.90523
9.9087
9.50067
9.65079
9.74913
9.81052
9.84904
9.87392
9.89018
9.90056
9.90658
9.90914
5.16142
6.17418
6.18012
6.28045
6.80887
7.51418
8.17199
8.68518
9.05082
9.30283
1.00044
0.475502
0.26648
0.184679
0.162049
0.165793
0.0826155
0.0399965
0.717974
2.28642
9.59421
9.55561
9.46712
9.30146
9.00924
8.51069
7.68573
6.36746
4.39269
2.24705
9.59411
9.55529
9.46651
9.30036
9.00734
8.50736
7.67946
6.35371
4.35985
2.19599
0.957351
0.445795
0.246808
0.172522
0.151841
0.167528
0.154849
0.0815767
0.041986
0.718947
)
;
    }
    defaultFaces
    {
        type            empty;
    }
}


// ************************************************************************* //
