/*--------------------------------*- C++ -*----------------------------------*\
  =========                 |
  \\      /  F ield         | OpenFOAM: The Open Source CFD Toolbox
   \\    /   O peration     | Website:  https://openfoam.org
    \\  /    A nd           | Version:  13
     \\/     M anipulation  |
\*---------------------------------------------------------------------------*/
FoamFile
{
    format      ascii;
    class       surfaceScalarField;
    location    "0.09";
    object      phi;
}
// * * * * * * * * * * * * * * * * * * * * * * * * * * * * * * * * * * * * * //

dimensions      [0 3 -1 0 0 0 0];

internalField   nonuniform List<scalar> 
823
(
0.01136
-0.0505542
0.0391942
0.0386743
-0.133477
0.106163
0.0786047
-0.205996
0.166066
0.129691
-0.269095
0.218009
-0.323579
0.260089
0.193181
0.0107039
-0.0612581
0.0361281
-0.158901
0.0725795
-0.242447
0.117791
-0.314306
-0.375755
0.169967
0.00838349
-0.0696416
0.0282939
-0.178811
0.0567202
-0.270874
0.0917648
-0.349351
-0.416139
0.132149
0.00530356
-0.0749452
0.0180032
-0.191511
0.0362336
-0.289104
0.0588733
-0.371991
-0.442477
0.085211
0.00196137
-0.0769066
0.00662482
-0.196174
0.0132743
-0.295753
0.0214901
-0.380207
0.0310079
-0.451994
0.00522236
-0.0115843
0.00636199
0.0192871
-0.0329848
0.0189201
0.0412967
-0.0517259
0.0297164
0.0695641
-0.0678772
0.0396099
-0.0813261
0.102537
0.048353
0.00524576
-0.0168301
0.0199604
-0.0476994
0.0439807
-0.0757462
0.0759345
-0.099831
-0.119424
0.114033
0.00624246
-0.0230725
0.0230184
-0.0644754
0.0497352
-0.102463
0.0853946
-0.13549
-0.16243
0.1284
0.00744597
-0.0305185
0.0267078
-0.0837372
0.0563676
-0.132123
0.0952668
-0.17439
-0.209304
0.14214
0.00867569
0.031101
0.0650437
0.108663
0.159447
0.31773
-1.00321
0.788015
0.453426
-0.754722
0.619025
0.502627
-0.313171
0.263971
0.512759
-0.121409
0.111277
-0.0247202
0.0302886
0.323085
-1.21226
0.454368
-0.886004
0.505325
-0.364128
0.51612
-0.132205
-0.021046
0.328761
-1.41262
0.449834
-1.00708
0.502912
-0.417207
0.517225
-0.146518
-0.0220432
0.330428
-1.60091
0.441265
-1.11791
0.496698
-0.472639
0.516052
-0.165872
-0.0302798
0.321973
-1.76343
0.425956
-1.2219
0.485051
-0.531734
0.512232
-0.193053
-0.0483581
1.17339
-1.59659
-1.34024
0.973408
-1.02192
0.869627
-0.427953
0.830458
-0.153884
-0.0387858
1.32443
-1.13542
-1.78559
1.01027
-0.707761
0.875433
-0.293114
0.824663
-0.103113
-0.0243946
1.19132
-0.611781
-1.71496
0.847289
-0.363731
0.707264
-0.15309
0.658296
-0.0541448
-0.0116944
0.818934
-0.186936
-1.24378
0.558151
-0.102948
0.447361
-0.0422991
0.4092
-0.0159842
-0.00312879
0.304439
-0.491375
0.20149
0.159191
0.143207
1.56283
0.0461148
-1.57794
1.52198
0.126064
1.463
0.19113
1.39664
0.236321
0.24959
1.67514
0.0356126
-1.66464
1.69857
0.102629
1.72999
0.15971
1.76421
0.202103
0.228213
1.38746
0.0184566
-1.3703
1.43657
0.0535207
1.51347
0.0828053
1.60995
0.105626
0.123201
0.977203
0.00531137
-0.964058
1.01533
0.015394
1.07516
0.0229763
1.15309
0.0276984
0.0325078
0.392798
-0.387487
0.408192
0.431169
0.458867
0.128579
0.327596
-0.264742
-0.191433
0.0780511
0.273217
-0.222688
0.0384741
0.209801
-0.170224
0.0113257
0.136452
-0.109303
0.0519576
-0.0406319
0.115877
0.378861
-0.167143
0.0714502
0.317644
0.035594
0.245658
0.0105531
0.161492
0.0625107
0.0888769
0.41825
-0.128266
0.0548268
0.351694
0.0272957
0.273189
0.00806742
0.180721
0.0705781
0.0553126
0.443542
-0.0806042
0.0338072
0.373199
0.016677
0.290319
0.00487087
0.192527
0.075449
0.0175471
-0.0259997
0.0105397
0.00510516
0.00145755
0.0693182
0.0886755
-0.103107
-0.0548865
0.0404713
0.0750053
-0.0461585
0.0183567
0.057907
-0.0357925
0.00473833
0.0372386
-0.0236203
0.0133563
-0.00861797
0.0745433
0.126711
-0.112579
0.0428196
0.106729
0.0192784
0.0814482
0.0050256
0.0514914
0.0183819
0.0839318
0.169063
-0.126284
0.0489103
0.141751
0.0227327
0.107626
0.00619817
0.0680259
0.02458
0.0937939
0.214973
-0.139705
0.055684
0.17986
0.0265282
0.136782
0.00744139
0.0871127
0.0320214
0.107072
-0.15684
0.0642438
0.0308009
0.00861052
0.475339
0.168328
-0.247687
0.492062
0.202809
-0.219532
0.456721
0.323916
-0.288575
0.325104
0.745511
-0.613894
1.0487
-0.8267
0.470797
0.0935109
0.490414
0.183192
0.453965
0.360365
0.325033
0.874443
1.26115
0.467718
0.0217725
0.485684
0.165226
0.445855
0.400194
0.325949
0.994348
1.46082
0.465614
-0.0478619
0.479582
0.151257
0.434428
0.445348
0.3248
1.10398
1.64591
0.464754
-0.116636
0.46994
0.146071
0.417143
0.498145
0.314644
1.20648
1.80371
0.754572
-0.267187
0.838815
0.0618279
0.945303
0.391658
1.15452
0.997256
1.61207
1.34617
0.768526
-0.431693
0.860497
-0.0301428
0.98996
0.262194
1.29921
0.688002
1.13844
1.77284
0.677448
-0.50512
0.732628
-0.0853227
0.849352
0.14547
1.17982
0.357539
0.612698
1.70555
0.476039
-0.377139
0.45529
-0.0645742
0.558588
0.042172
0.815353
0.100774
0.187414
1.24064
0.226882
0.162308
0.20448
0.305254
0.492668
1.40189
-0.247153
1.46542
-0.230669
1.52289
-0.185737
1.56319
-0.120912
-0.0407456
1.75217
-0.22648
1.71947
-0.197964
1.69033
-0.156602
1.67039
-0.100975
-0.0349896
1.60222
-0.123149
1.5089
-0.104639
1.43432
-0.0820241
1.38663
-0.0532863
-0.018661
1.15048
-0.0329943
1.07372
-0.0278757
1.01476
-0.0230682
0.977078
-0.0156013
-0.00564133
0.459673
0.431798
0.408729
0.393128
0.00250745
0.0431261
-0.0456336
0.00734384
0.101301
-0.106138
0.0161205
0.148711
-0.157488
0.0166114
0.152229
-0.15272
0.114308
0.0148489
-0.112546
0.00684574
0.0362804
0.020223
0.0879241
0.0410275
0.127906
0.0483495
0.144907
0.116655
0.0460023
0.008834
0.0274464
0.0271401
0.0696179
0.0522562
0.10279
0.0732604
0.123903
0.11429
0.0756258
0.00780762
0.0196387
0.0255325
0.0518931
0.0498173
0.0785055
0.0776386
0.0960816
0.0993416
0.0925869
0.00506117
0.0145776
0.0178635
0.0390907
0.0367571
0.059612
0.0602932
0.0725455
0.0767477
0.0828871
0.00339033
0.0111872
0.0125951
0.0298859
0.0281107
0.0440965
0.0487081
0.051948
0.0551179
0.0703379
0.0023737
0.00881355
0.0103204
0.0219393
0.0256705
0.0287465
0.0462417
0.0313769
0.031947
0.0694127
0.00250849
0.00630508
0.0135863
0.0108616
0.0315846
0.0107482
0.0537022
0.00925937
0.00706132
0.0785879
0.00572727
0.000577861
0.0205614
-0.00397244
0.0403266
-0.00901686
0.0638708
-0.0142848
-0.0194767
0.0904088
0.00693995
0.0218877
0.0425873
0.0679124
0.0967887
0.1691
-0.0052141
-0.0935483
0.255845
-0.1267
0.0399555
0.288046
-0.0656594
0.0334583
0.310137
-0.0360649
0.0139735
-0.0192102
0.00433317
0.234189
-0.169991
0.340166
-0.232677
0.380062
-0.105555
0.401596
-0.0575993
-0.030197
0.273719
-0.365122
0.397296
-0.356254
0.452158
-0.160418
0.47546
-0.0809004
-0.0357725
0.298571
-0.573284
0.4277
-0.485383
0.481524
-0.214242
0.499467
-0.0988428
-0.0349531
0.311519
0.445162
0.494891
0.507326
0.0730694
0.0362279
-0.109297
0.0814873
-0.00841796
0.0905552
-0.00906789
0.0939504
-0.00339515
-0.000994957
0.205342
-0.262662
0.23688
0.26127
0.271849
0.0207913
-0.00434267
-0.0164486
0.034371
-0.0135797
0.0568813
-0.0225104
0.0857461
-0.0288648
-0.0235512
0.0540662
-0.04356
0.0864888
0.139604
0.203326
0.0493504
-0.0545255
0.0764652
-0.07129
0.0283144
-0.0512826
0.0723185
0.0124757
-0.0438201
0.0596587
0.00330674
-0.0300984
0.0392673
-0.0113716
0.0146783
0.0499112
-0.0302172
-0.0742195
0.0281207
-0.0294922
0.0114142
-0.0271137
0.00250509
-0.0211893
-0.00886656
0.0601959
-0.00374354
-0.0866696
0.0364471
-0.00574357
0.0166235
-0.00729015
0.00338539
-0.00795125
-0.00548122
0.0702009
0.0244227
-0.0983672
0.0450524
0.0194048
0.0237691
0.013993
0.00739427
0.00842356
0.00191302
0.070455
-0.100919
0.0437013
0.0219017
0.00670496
0.0166174
-0.114306
-0.0148571
0.0161182
-0.152221
0.00732156
-0.148691
0.00249475
-0.101311
-0.0431388
0.0483626
-0.116643
-0.0460256
0.041
-0.144858
0.0202073
-0.127898
0.00683779
-0.0879414
-0.036301
0.0732837
-0.114222
-0.0757045
0.052228
-0.123802
0.0271262
-0.102796
0.00882948
-0.0696447
-0.0274715
0.0775504
-0.0991184
-0.0926541
0.0497087
-0.0959607
0.0254606
-0.0785483
0.0077839
-0.051968
-0.0196876
0.0602419
-0.0828951
0.0365997
0.01771
0.00500931
0.357021
0.555908
-0.51695
0.31136
0.187049
-0.141388
0.26373
0.0832591
-0.0356283
0.176894
0.128469
-0.0416325
0.0179599
0.0876436
0.436501
0.515387
0.409047
0.214504
0.352768
0.139537
0.24565
0.235587
0.189391
0.486613
0.424753
0.472746
0.228371
0.410964
0.201319
0.287992
0.358559
0.390713
0.487679
0.333054
0.486829
0.22922
0.438535
0.249614
0.31235
0.484743
0.604696
0.481347
0.491034
0.452073
0.322922
0.160752
0.349299
0.0921443
0.0686072
0.0850277
0.0071166
0.0746887
0.010339
-0.0347287
0.109417
0.3424
0.269619
0.241107
0.209813
0.262728
0.0858078
0.0236096
0.0569164
0.0288914
0.0343826
0.0225337
0.0207948
0.0135878
0.00434622
0.203442
0.139679
0.0865086
0.0540709
)
;

boundaryField
{
    left
    {
        type            calculated;
        value           nonuniform List<scalar> 
17
(
-0.60402
-0.60402
-0.60402
-0.60402
-0.60402
-0.39598
-0.39598
-0.39598
-0.39598
-0.39598
-0.39598
-0.39598
-0.39598
-0.39598
-0.39598
-0.510051
-0.510051
)
;
    }
    right
    {
        type            calculated;
        value           nonuniform List<scalar> 
17
(
0.0949453
0.275187
0.325015
0.412583
0.481035
0.498647
0.502661
0.50719
0.512446
0.518222
0.524289
0.53031
0.820886
0.810271
0.645596
0.400634
0.140078
)
;
    }
    down
    {
        type            calculated;
        value           uniform 0;
    }
    up
    {
        type            calculated;
        value           uniform 0;
    }
    cylinder
    {
        type            calculated;
        value           uniform 0;
    }
    defaultFaces
    {
        type            empty;
    }
}


// ************************************************************************* //
