/*--------------------------------*- C++ -*----------------------------------*\
  =========                 |
  \\      /  F ield         | OpenFOAM: The Open Source CFD Toolbox
   \\    /   O peration     | Website:  https://openfoam.org
    \\  /    A nd           | Version:  13
     \\/     M anipulation  |
\*---------------------------------------------------------------------------*/
FoamFile
{
    format      ascii;
    class       volScalarField;
    location    "0.09";
    object      strainRateViscosityModel:nu;
}
// * * * * * * * * * * * * * * * * * * * * * * * * * * * * * * * * * * * * * //

dimensions      [0 2 -1 0 0 0 0];

internalField   nonuniform List<scalar> 
440
(
9.42021
8.97139
8.54377
8.0324
7.56003
9.69011
9.35898
8.9825
8.47792
7.8663
9.80084
9.53124
9.15933
8.5847
7.84507
9.84972
9.61844
9.25902
8.64766
7.86555
9.86925
9.65626
9.30621
8.68108
7.90919
1.51498
1.79024
1.9854
2.20973
2.28666
3.61945
3.35278
3.26256
3.30238
3.37278
6.00392
5.33121
4.91605
4.63659
4.64539
7.80418
7.02296
6.42185
5.85257
5.74823
8.82714
8.15872
7.54966
6.88754
6.82094
1.85937
0.631086
0.149912
0.0225915
0.0105871
2.61331
0.766314
0.163547
0.0256762
0.01077
3.49099
1.10091
0.17789
0.0287181
0.010918
4.05787
1.49094
0.218914
0.0301999
0.010977
4.5437
1.87036
0.349056
0.0359572
0.0110201
4.29149
2.01442
0.391776
0.0331125
0.0102348
3.80093
1.53815
0.178612
0.044903
0.0593364
4.88116
2.85763
1.05524
0.788347
0.7883
7.01199
4.18691
2.12664
1.60329
1.48831
8.26507
5.05294
2.86276
2.11771
1.84542
2.83342
3.66522
4.59777
5.4761
6.10584
3.69532
3.70875
3.7856
3.87161
3.3955
8.22467
8.08459
7.79647
7.3799
6.33438
9.05185
8.99145
8.85861
8.62206
8.16248
9.60591
9.56905
9.48589
9.33646
9.11642
7.48626
8.00439
8.55666
9.01063
9.46459
7.78682
8.44855
8.98607
9.37765
9.70864
7.77584
8.55771
9.15897
9.54066
9.80942
7.81526
8.62713
9.25733
9.62277
9.85361
7.89144
8.67363
9.3055
9.65755
9.8704
2.40696
2.33905
2.16636
2.07726
2.14116
3.38867
3.34146
3.42437
3.69807
4.28971
4.58978
4.62218
5.04908
5.62136
6.47387
5.65746
5.80929
6.50233
7.20052
8.05201
6.73126
6.82739
7.57852
8.24542
8.93859
0.0680469
0.0382376
0.125677
0.560861
1.95014
0.056575
0.0566935
0.140723
0.673529
2.65042
0.049121
0.0838358
0.155929
0.995282
3.47128
0.0421533
0.122549
0.190915
1.40488
3.98549
0.0439576
0.17018
0.313432
1.80859
4.38655
0.0685087
0.253262
0.357898
2.025
4.20846
0.244578
0.207143
0.0968059
1.51233
3.90591
0.38102
0.567518
0.703154
2.66345
4.82553
2.03546
1.61572
1.95431
4.09124
6.95926
4.99158
3.18619
2.90061
5.07196
8.2751
5.94112
5.26663
4.40207
3.50699
2.77031
3.53854
3.99241
3.96695
3.87448
3.76938
6.29388
7.34057
7.77435
8.06583
8.21694
8.12398
8.60134
8.84976
8.98812
9.0511
9.11499
9.33632
9.48629
9.5696
9.60615
9.31864
7.93006
1.40542
3.64365
7.75168
9.09226
7.4572
3.21752
1.65032
6.80547
8.41565
6.59774
4.22211
1.0127
4.16189
6.84405
5.11566
3.46886
1.7245
1.0413
4.54294
3.15574
2.0497
1.40872
0.469556
2.65538
1.6474
1.07455
0.912811
1.01671
1.46797
0.822668
0.722731
0.800258
0.865701
0.66342
0.500191
0.771352
0.941705
1.01307
0.19329
0.624487
0.95117
1.14715
1.21062
0.349143
0.962489
1.26502
1.51154
1.57929
0.18765
0.389309
0.747979
0.92327
1.00102
0.542869
0.459135
0.443524
0.551026
0.601791
0.751674
0.51839
0.187794
0.129136
0.10331
1.06076
0.582616
0.117958
0.0262737
0.0119448
1.36347
0.60136
0.126504
0.0204244
0.0104227
1.15444
0.956911
1.31961
1.53259
1.63239
0.25254
0.570277
0.993316
1.20851
1.30494
9.20101
8.85172
7.77896
5.75856
3.58331
8.60105
7.74131
5.87357
3.51181
0.853405
1.03919
0.958495
1.10257
1.65664
2.70563
0.965188
0.922784
0.833455
0.874076
1.50473
1.17357
1.12515
0.956478
0.632996
0.630556
1.39873
1.35018
1.14127
0.784064
0.166236
1.77183
1.71358
1.471
1.18789
0.732633
7.7512
3.64067
1.40663
7.9283
9.31879
6.80174
1.6503
3.21397
7.45409
9.09291
4.14948
1.01941
4.20858
6.59333
8.4174
1.04012
1.72665
3.44971
5.1074
6.85054
0.481741
1.40728
2.03341
3.14367
4.56454
1.07809
0.968227
0.707481
0.442312
0.176926
0.401941
0.428795
0.440203
0.476267
0.613253
0.221484
0.0298205
0.217008
0.503183
0.867587
0.128011
0.0271579
0.125934
0.539036
1.19449
0.0861995
0.0299782
0.111692
0.5436
1.49205
5.42396
2.84591
1.3399
1.04489
1.18354
2.73032
1.46971
0.981734
0.617535
0.237632
3.59124
5.76336
7.7802
8.85225
9.20116
0.837823
3.49383
5.86743
7.73994
8.60089
)
;

boundaryField
{
    left
    {
        type            calculated;
        value           nonuniform List<scalar> 
17
(
0.455201
0.82644
1.81645
3.7863
6.56441
0.49192
0.449118
0.424656
0.407711
0.40913
2.80494
1.73721
1.04816
0.709368
0.563082
6.96087
4.5213
)
;
    }
    right
    {
        type            calculated;
        value           nonuniform List<scalar> 
17
(
1.63402
1.30159
0.992824
0.590751
0.0965315
0.0112008
0.0101462
0.0101958
0.010251
0.0102927
0.0103053
0.0103162
0.0100309
0.0685142
0.816333
1.50445
1.84085
)
;
    }
    down
    {
        type            calculated;
        value           nonuniform List<scalar> 
20
(
5.94786
3.32424
1.444
1.13691
1.86908
4.28371
6.40701
8.14918
9.02745
9.31805
9.31788
9.0268
8.14751
6.40275
4.27505
1.84419
1.03644
1.39305
1.60723
1.70323
)
;
    }
    up
    {
        type            calculated;
        value           nonuniform List<scalar> 
20
(
8.53927
5.37565
3.09323
2.27634
1.96189
9.69502
9.66546
9.59767
9.47282
9.2911
9.29427
9.47503
9.59921
9.66653
9.69541
5.65166
3.71825
3.15559
5.42571
8.55938
)
;
    }
    cylinder
    {
        type            calculated;
        value           nonuniform List<scalar> 
40
(
1.6513
3.83241
6.22285
7.99066
8.96204
9.50538
9.74581
9.84084
9.88152
9.89752
9.54783
9.76284
9.84853
9.88497
9.89853
2.38005
4.55647
6.71577
8.24375
9.07284
3.10404
1.85499
0.985814
0.21919
0.81409
9.52489
9.34012
8.75706
7.29668
5.02691
9.52472
9.33935
8.75482
7.28837
4.9995
3.0378
1.78348
0.984839
0.431673
0.292167
)
;
    }
    defaultFaces
    {
        type            empty;
    }
}


// ************************************************************************* //
