/*--------------------------------*- C++ -*----------------------------------*\
  =========                 |
  \\      /  F ield         | OpenFOAM: The Open Source CFD Toolbox
   \\    /   O peration     | Website:  https://openfoam.org
    \\  /    A nd           | Version:  13
     \\/     M anipulation  |
\*---------------------------------------------------------------------------*/
FoamFile
{
    format      ascii;
    class       volScalarField;
    location    "0.55";
    object      p;
}
// * * * * * * * * * * * * * * * * * * * * * * * * * * * * * * * * * * * * * //

dimensions      [0 2 -2 0 0 0 0];

internalField   nonuniform List<scalar> 
1800
(
-1.11895
-1.11193
-1.09302
-1.05219
-0.987546
-0.906408
-0.818861
-0.732323
-0.650931
-0.582499
-1.29579
-1.28757
-1.26413
-1.2154
-1.14056
-1.04917
-0.952688
-0.859275
-0.774125
-0.702896
-1.46527
-1.4553
-1.4259
-1.36763
-1.28139
-1.17914
-1.07326
-0.971898
-0.879453
-0.799767
-1.62311
-1.61076
-1.57405
-1.50491
-1.40687
-1.29435
-1.18036
-1.07261
-0.974904
-0.890239
-1.76474
-1.74931
-1.70395
-1.62265
-1.51237
-1.38978
-1.268
-1.15409
-1.05121
-0.961242
-1.88549
-1.86623
-1.81129
-1.71715
-1.59512
-1.46365
-1.33555
-1.21702
-1.11045
-1.01688
-1.98016
-1.95639
-1.89127
-1.78402
-1.65093
-1.51165
-1.37823
-1.25589
-1.14627
-1.04965
-2.04394
-2.01523
-1.93958
-1.81989
-1.6773
-1.53194
-1.3948
-1.27001
-1.15847
-1.05989
-2.07201
-2.0381
-1.95196
-1.82111
-1.6709
-1.52129
-1.38192
-1.25587
-1.1434
-1.04371
-2.06064
-2.02158
-1.92565
-1.78569
-1.6303
-1.47858
-1.33869
-1.21268
-1.10028
-1.00036
0.189811
0.194622
0.204173
0.219148
0.2373
0.25621
0.273798
0.288675
0.300099
0.307656
0.146224
0.15106
0.160497
0.175774
0.194986
0.215697
0.235632
0.253167
0.267402
0.277982
0.0772006
0.0822477
0.0908858
0.106962
0.128031
0.151696
0.175397
0.197139
0.215779
0.23107
-0.0164624
-0.0115463
-0.00226587
0.0146014
0.0380803
0.0657163
0.0944664
0.121802
0.14624
0.167715
-0.132394
-0.127429
-0.11782
-0.0996415
-0.0730011
-0.0403642
-0.00539122
0.0287196
0.0600705
0.0888831
-0.268057
-0.26295
-0.252947
-0.233026
-0.202525
-0.164001
-0.121893
-0.0801833
-0.0412296
-0.00443563
-0.420052
-0.414999
-0.404341
-0.382184
-0.347156
-0.302082
-0.252322
-0.202705
-0.156039
-0.11136
-0.58489
-0.579687
-0.568124
-0.543123
-0.502802
-0.450566
-0.392863
-0.335404
-0.281359
-0.229552
-0.758421
-0.753225
-0.740283
-0.711435
-0.664544
-0.603986
-0.537524
-0.47177
-0.410118
-0.351763
-0.939087
-0.932603
-0.91698
-0.882707
-0.827485
-0.75695
-0.680152
-0.604375
-0.533161
-0.467765
0.316804
0.235506
0.185675
0.14732
0.116053
0.0904358
0.0681961
0.0478068
0.028394
0.00946123
0.303069
0.228429
0.183536
0.146339
0.11536
0.0898669
0.0677248
0.0474505
0.0281669
0.00936504
0.281555
0.216939
0.179622
0.144605
0.114351
0.0891815
0.0672236
0.0470987
0.0279506
0.00927247
0.251652
0.201804
0.173938
0.142092
0.113024
0.0883738
0.0666863
0.0467458
0.0277417
0.00918298
0.2127
0.183836
0.166528
0.13878
0.111373
0.0874391
0.0661074
0.0463868
0.0275367
0.00909631
0.163912
0.163832
0.157547
0.13468
0.109397
0.0863738
0.0654827
0.0460173
0.0273328
0.00901257
0.103708
0.142168
0.14723
0.129867
0.10711
0.0851799
0.0648104
0.0456337
0.0271275
0.00893233
0.0296985
0.117909
0.135555
0.124361
0.104509
0.083856
0.0640887
0.0452329
0.0269189
0.00885687
-0.0586394
0.0892811
0.122136
0.117961
0.101477
0.0823455
0.0632916
0.0448016
0.0267009
0.00878776
-0.154379
0.0565924
0.107339
0.110757
0.0979981
0.0806211
0.0623986
0.0443262
0.0264645
0.00872625
-0.206063
0.029736
0.0912333
0.10095
0.0922197
0.0772035
0.0603314
0.0430717
0.0257994
0.00856845
-0.21334
0.00222564
0.0681343
0.0850339
0.0822229
0.0710605
0.0565384
0.0407604
0.024556
0.00818315
-0.204121
-0.0118398
0.0552014
0.0741076
0.0741442
0.0655834
0.0529685
0.0385253
0.0233312
0.00779641
-0.19248
-0.0260368
0.0416297
0.063196
0.0662001
0.0601918
0.0494447
0.0363159
0.0221122
0.00740353
-0.178873
-0.035852
0.0304342
0.0537463
0.058991
0.0551341
0.0460786
0.0341868
0.0209264
0.00701474
-0.166003
-0.0433569
0.0203102
0.0451807
0.0523997
0.0504414
0.0429213
0.0321769
0.0197956
0.00663678
-0.15572
-0.0494184
0.011227
0.0374702
0.0464678
0.0461828
0.0400322
0.0303272
0.0187405
0.00627495
-0.148837
-0.0551548
0.00286343
0.0304935
0.0412085
0.0424217
0.0374736
0.0286827
0.0177847
0.00593907
-0.145425
-0.0603931
-0.00444318
0.0243876
0.0366487
0.0391678
0.0352534
0.0272474
0.0169151
0.00561271
-0.149793
-0.0684566
-0.0124216
0.0185519
0.0326808
0.0364558
0.0334325
0.0260814
0.0162071
0.00535366
-0.832299
-0.873924
-0.892313
-0.887826
-0.863896
-0.820466
-0.763494
-0.691308
-0.611826
-0.522778
-0.652597
-0.693558
-0.715636
-0.719046
-0.706397
-0.677673
-0.63757
-0.58707
-0.530222
-0.471114
-0.513538
-0.552895
-0.576367
-0.584685
-0.579011
-0.56029
-0.531182
-0.494017
-0.450229
-0.405222
-0.405895
-0.444293
-0.468594
-0.47998
-0.478647
-0.466411
-0.444591
-0.415964
-0.381241
-0.34514
-0.323507
-0.361033
-0.385839
-0.399268
-0.401055
-0.393287
-0.376698
-0.354077
-0.326113
-0.296596
-0.260555
-0.297445
-0.322768
-0.337696
-0.341892
-0.337388
-0.324768
-0.306521
-0.283441
-0.258422
-0.213321
-0.250073
-0.276107
-0.292273
-0.298362
-0.296222
-0.286516
-0.271357
-0.25173
-0.229917
-0.179538
-0.216668
-0.243696
-0.261129
-0.268904
-0.268559
-0.260847
-0.247544
-0.230005
-0.20979
-0.161651
-0.199035
-0.226505
-0.245021
-0.254562
-0.255934
-0.250174
-0.237867
-0.22132
-0.200241
-0.150542
-0.189757
-0.219516
-0.240312
-0.252146
-0.255901
-0.252408
-0.24221
-0.227112
-0.206356
0.575556
0.52037
0.456924
0.38855
0.314053
0.231231
0.139893
0.0449252
-0.0358158
-0.0755084
0.38274
0.321565
0.253092
0.177564
0.093243
-0.00153483
-0.106195
-0.214445
-0.305626
-0.349847
0.171285
0.106224
0.0338077
-0.0472912
-0.139077
-0.242971
-0.358
-0.476849
-0.576524
-0.624141
-0.0347715
-0.104657
-0.182921
-0.271115
-0.371015
-0.483849
-0.60839
-0.736504
-0.84352
-0.893471
-0.226822
-0.302947
-0.388485
-0.4848
-0.593428
-0.715436
-0.84929
-0.985881
-1.09951
-1.15052
-0.403822
-0.486638
-0.579656
-0.684051
-0.801191
-0.932
-1.07474
-1.21882
-1.33653
-1.38709
-0.56507
-0.65396
-0.753709
-0.865369
-0.990265
-1.12908
-1.27947
-1.42941
-1.54539
-1.59634
-0.7081
-0.801995
-0.9073
-1.02495
-1.15616
-1.30185
-1.45712
-1.60783
-1.72243
-1.77257
-0.829902
-0.92752
-1.03681
-1.15894
-1.29488
-1.44438
-1.60218
-1.7521
-1.863
-1.91068
-0.928677
-1.028
-1.13939
-1.26411
-1.40284
-1.55446
-1.71237
-1.85884
-1.96327
-2.00709
1.81305
1.82887
1.8464
1.86424
1.88113
1.89631
1.90905
1.91904
1.9274
1.93441
1.75481
1.76836
1.7831
1.79773
1.8111
1.82242
1.83096
1.83663
1.84122
1.84588
1.67661
1.68704
1.6979
1.70807
1.71651
1.72242
1.7251
1.7247
1.72399
1.72543
1.57897
1.58565
1.59172
1.59625
1.59842
1.59744
1.5926
1.58441
1.57688
1.57441
1.46212
1.46443
1.46493
1.46291
1.45781
1.44884
1.43532
1.41807
1.40247
1.39559
1.32915
1.32692
1.32098
1.31119
1.29742
1.27889
1.25501
1.22709
1.20209
1.19027
1.18042
1.1731
1.16054
1.14284
1.12009
1.09152
1.0566
1.01717
0.981998
0.964803
1.02407
1.01064
0.98936
0.961489
0.927788
0.887559
0.840341
0.788497
0.742617
0.719698
0.864015
0.844569
0.814381
0.775748
0.730023
0.676568
0.61516
0.549074
0.49135
0.462576
0.712895
0.678688
0.633463
0.581046
0.522116
0.455158
0.379719
0.299742
0.230648
0.196315
1.62579
1.49347
1.59579
1.52653
1.53635
1.54677
1.55853
1.5888
1.64227
1.74476
1.61948
1.48813
1.59046
1.52028
1.52912
1.53766
1.54668
1.57238
1.6178
1.70664
1.61373
1.48268
1.58526
1.51353
1.52138
1.52768
1.53319
1.55301
1.58752
1.6572
1.60851
1.47715
1.58023
1.5063
1.51317
1.51683
1.51809
1.53058
1.55178
1.59587
1.60379
1.47162
1.57538
1.49863
1.50452
1.5051
1.50139
1.50499
1.511
1.52166
1.59957
1.46614
1.57072
1.49054
1.49546
1.49248
1.48307
1.4762
1.46555
1.43395
1.59586
1.46078
1.56623
1.48205
1.48602
1.47896
1.46311
1.44409
1.41578
1.3311
1.59268
1.45558
1.56189
1.47319
1.47624
1.46455
1.44148
1.40876
1.36158
1.21454
1.59005
1.45062
1.55767
1.46401
1.46614
1.4493
1.41823
1.37044
1.30186
1.08267
1.58804
1.446
1.55354
1.45454
1.45574
1.43328
1.3938
1.33089
1.23881
0.945545
1.58588
1.44082
1.54795
1.44419
1.44186
1.4124
1.36166
1.28017
1.16223
0.810657
1.58583
1.43568
1.54172
1.43425
1.42627
1.39017
1.32908
1.23348
1.09574
0.768242
1.58745
1.43149
1.5361
1.42507
1.41175
1.36973
1.29967
1.19468
1.04242
0.740525
1.5914
1.42833
1.53114
1.4168
1.39855
1.35139
1.27366
1.16289
0.998757
0.723415
1.59802
1.42617
1.52685
1.40953
1.38691
1.33537
1.25138
1.137
0.964489
0.713628
1.60788
1.42504
1.52318
1.40334
1.37699
1.32182
1.23298
1.11629
0.939265
0.707583
1.62103
1.42433
1.51885
1.39807
1.3689
1.31084
1.21847
1.10034
0.921686
0.704102
1.64251
1.42666
1.51862
1.39417
1.36283
1.3025
1.20782
1.08895
0.910249
0.703361
1.65597
1.42285
1.51132
1.39138
1.35892
1.29691
1.20109
1.08216
0.904079
0.705915
1.71864
1.43359
1.51343
1.38904
1.35799
1.29397
1.19789
1.07863
0.901593
0.707519
0.551287
0.388836
0.200736
0.0182703
-0.149834
-0.303761
-0.444639
-0.571068
-0.679721
-0.767178
0.490153
0.362749
0.21876
0.073815
-0.0638441
-0.191922
-0.31016
-0.418348
-0.513482
-0.592392
0.46254
0.355828
0.241576
0.122783
0.00534573
-0.106561
-0.210395
-0.305013
-0.388451
-0.45871
0.459154
0.362966
0.264991
0.163941
0.0613873
-0.0383158
-0.131094
-0.215393
-0.290269
-0.354575
0.467005
0.376947
0.288166
0.19894
0.107834
0.0177293
-0.0670914
-0.144625
-0.214069
-0.274455
0.478339
0.393252
0.310671
0.229285
0.146267
0.0629121
-0.0166675
-0.0898473
-0.155607
-0.213176
0.490069
0.409114
0.331108
0.254877
0.177124
0.0983277
0.0224233
-0.0476621
-0.110884
-0.166675
0.501631
0.423638
0.34878
0.275621
0.200827
0.124726
0.0510851
-0.017164
-0.0789036
-0.133466
0.514666
0.439424
0.366551
0.294049
0.21949
0.143808
0.0704626
0.00208765
-0.0600459
-0.115077
0.528261
0.456529
0.385009
0.311479
0.235521
0.159444
0.0859797
0.0169558
-0.0462756
-0.102521
-2.67106
-2.6054
-2.46048
-2.28437
-2.11199
-1.95816
-1.82626
-1.71604
-1.62712
-1.56036
-2.73971
-2.68342
-2.55677
-2.39381
-2.22797
-2.07622
-1.94366
-1.83104
-1.7391
-1.67043
-2.71595
-2.66925
-2.56499
-2.42156
-2.26706
-2.12022
-1.98847
-1.87383
-1.77778
-1.70331
-2.6146
-2.57715
-2.49655
-2.37771
-2.23952
-2.101
-1.97239
-1.85761
-1.75904
-1.67954
-2.45837
-2.42982
-2.37149
-2.27934
-2.16074
-2.03294
-1.90892
-1.7952
-1.69517
-1.61117
-2.27104
-2.2506
-2.2121
-2.14451
-2.04547
-1.92801
-1.80749
-1.69371
-1.59241
-1.50626
-2.06967
-2.05643
-2.03425
-1.98702
-1.90515
-1.79603
-1.67642
-1.56006
-1.45528
-1.36662
-1.85758
-1.85067
-1.84076
-1.80881
-1.73997
-1.63633
-1.51425
-1.39039
-1.27682
-1.18083
-1.62642
-1.62472
-1.62209
-1.59963
-1.54023
-1.4424
-1.32032
-1.19227
-1.07133
-0.977654
-1.36682
-1.3662
-1.36708
-1.34853
-1.29555
-1.20539
-1.08878
-0.961963
-0.834284
-0.729306
-1.08849
-1.08704
-1.08553
-1.06576
-1.01756
-0.938734
-0.837541
-0.727483
-0.617065
-0.51175
-0.810835
-0.807523
-0.801004
-0.779498
-0.735814
-0.669576
-0.5871
-0.498205
-0.410013
-0.322258
-0.555698
-0.55098
-0.5407
-0.517936
-0.478886
-0.424133
-0.358494
-0.288634
-0.219681
-0.150704
-0.336368
-0.330902
-0.319169
-0.296896
-0.262744
-0.21811
-0.16678
-0.113336
-0.0612456
-0.0103846
-0.157383
-0.151788
-0.140016
-0.119457
-0.0901945
-0.0542344
-0.0146888
0.0251879
0.063064
0.0984747
-0.0177826
-0.0123673
-0.0011558
0.017517
0.0425223
0.0716058
0.102103
0.131609
0.158521
0.182198
0.0855886
0.090716
0.101253
0.118669
0.140346
0.164356
0.188348
0.21046
0.229539
0.244972
0.156034
0.160991
0.171112
0.187193
0.206705
0.227388
0.247122
0.264398
0.278348
0.288426
0.195866
0.200721
0.210509
0.225868
0.244104
0.262915
0.28029
0.2949
0.306025
0.313175
0.206744
0.211542
0.221174
0.236155
0.253968
0.272227
0.288934
0.302801
0.313147
0.31952
-0.0718354
0.0881689
0.116358
0.118008
0.108137
0.0922081
0.0733629
0.0531289
0.0321763
0.0108627
0.0470427
0.118116
0.130868
0.124791
0.110074
0.0921708
0.0726477
0.0523374
0.0316039
0.0106638
0.136686
0.141336
0.142523
0.129537
0.111613
0.0921062
0.0719984
0.0516236
0.0310892
0.010483
0.198403
0.161032
0.152913
0.134244
0.113008
0.0920477
0.071417
0.0509821
0.0306256
0.0103182
0.24229
0.179979
0.162345
0.138265
0.114186
0.091974
0.0708898
0.0504036
0.0302075
0.0101672
0.274998
0.197996
0.170408
0.141552
0.115139
0.0918736
0.0704048
0.0498799
0.0298302
0.0100282
0.298797
0.213841
0.176825
0.144115
0.115858
0.0917313
0.0699494
0.0494028
0.0294888
0.00989957
0.314447
0.226411
0.181586
0.145969
0.116327
0.0915308
0.0695117
0.0489644
0.0291789
0.00977982
0.322453
0.234492
0.18467
0.147121
0.116525
0.0912569
0.0690805
0.048557
0.0288959
0.00966762
0.323202
0.237598
0.186046
0.147575
0.116439
0.0908959
0.0686451
0.0481735
0.0286357
0.00956178
-0.392889
-0.0680082
0.0538289
0.0909791
0.0970035
0.0884809
0.0728011
0.0537033
0.0329519
0.0112381
-0.37202
-0.0518122
0.0594747
0.0933887
0.0978204
0.0886813
0.0727457
0.0535652
0.0328136
0.0111781
-0.305769
-0.0200359
0.0695331
0.0970269
0.0993762
0.089189
0.0727977
0.053465
0.0326806
0.0111111
-0.222499
0.017596
0.083415
0.102888
0.101871
0.0901368
0.0730542
0.0534514
0.0325848
0.0110552
-0.145923
0.0628224
0.103725
0.111745
0.105518
0.0915165
0.0734967
0.0535182
0.0325286
0.011016
-1.50073
-1.60469
-1.63704
-1.61634
-1.54082
-1.45027
-1.3179
-1.17726
-1.0169
-0.835231
-1.49939
-1.60278
-1.63023
-1.60389
-1.52314
-1.43297
-1.30216
-1.15999
-1.0023
-0.813093
-1.50154
-1.60472
-1.62926
-1.59956
-1.51774
-1.42379
-1.29114
-1.13787
-0.969674
-0.770422
-1.51039
-1.61499
-1.63935
-1.60826
-1.52882
-1.42747
-1.29155
-1.11863
-0.933161
-0.72473
-1.5271
-1.63465
-1.66098
-1.63075
-1.55517
-1.44844
-1.30786
-1.11888
-0.914342
-0.682932
1.33482
1.31536
1.28745
1.25468
1.21793
1.17562
1.12644
1.07246
1.02484
1.00065
1.44931
1.44617
1.43482
1.41706
1.39416
1.36548
1.33034
1.29072
1.2559
1.2391
1.56068
1.56262
1.55886
1.55057
1.53858
1.52234
1.50108
1.47596
1.45379
1.44357
1.65643
1.66325
1.66734
1.66865
1.66704
1.66176
1.65202
1.63856
1.62651
1.62178
1.73881
1.74958
1.75892
1.76647
1.7718
1.77416
1.77282
1.76823
1.76413
1.76386
1.80102
1.81458
1.82819
1.84107
1.85243
1.86148
1.86746
1.87043
1.87281
1.87629
1.84389
1.85974
1.87651
1.8932
1.90878
1.92245
1.93349
1.9417
1.94863
1.9549
1.86652
1.88372
1.9025
1.92162
1.93991
1.95658
1.97089
1.98248
1.99231
2.00035
1.86897
1.88664
1.90621
1.92633
1.94572
1.96362
1.97929
1.99227
2.00329
2.01204
1.85114
1.86836
1.88751
1.90719
1.9261
1.94349
1.95863
1.97107
1.98159
1.98999
-1.3692
-1.43699
-1.52457
-1.63254
-1.76252
-1.91598
-2.09079
-2.27486
-2.43219
-2.50576
-1.10406
-1.17425
-1.26217
-1.36871
-1.49611
-1.64608
-1.81821
-2.00762
-2.17175
-2.25028
-0.783301
-0.856459
-0.94553
-1.05118
-1.17554
-1.32085
-1.48786
-1.67037
-1.83844
-1.92001
-0.433966
-0.509612
-0.599176
-0.703078
-0.823219
-0.96207
-1.12055
-1.29333
-1.4525
-1.53641
-0.0859886
-0.162078
-0.249735
-0.349236
-0.462342
-0.59166
-0.738452
-0.897888
-1.04357
-1.12324
0.236166
0.164007
0.0824388
-0.0087593
-0.111383
-0.228138
-0.360305
-0.503328
-0.633044
-0.704752
0.523959
0.460134
0.38852
0.308863
0.219217
0.116895
0.000804029
-0.124586
-0.237346
-0.299332
0.78512
0.730744
0.669624
0.601743
0.524949
0.436665
0.336153
0.227851
0.131478
0.0793635
1.02667
0.97985
0.925665
0.866164
0.799636
0.723712
0.637848
0.546085
0.465479
0.422837
1.22876
1.18823
1.13878
1.08644
1.03055
0.96864
0.899569
0.826173
0.762156
0.728929
1.73186
1.53072
1.64303
1.5532
1.57878
1.58811
1.59198
1.60333
1.58676
1.48621
1.71638
1.52915
1.64027
1.5538
1.57675
1.58797
1.59427
1.61201
1.61363
1.56407
1.70227
1.52691
1.63674
1.5537
1.57431
1.58705
1.59612
1.62022
1.63704
1.63897
1.68946
1.52409
1.63259
1.55285
1.57144
1.58528
1.59658
1.62566
1.65556
1.69505
1.67778
1.52076
1.62794
1.55123
1.56808
1.58258
1.59567
1.6286
1.66916
1.73851
1.66712
1.517
1.62293
1.54885
1.56419
1.57893
1.59335
1.6289
1.67797
1.76843
1.65737
1.51287
1.61766
1.54572
1.55976
1.57433
1.58954
1.62646
1.68188
1.78619
1.64842
1.5084
1.61223
1.54188
1.55476
1.5688
1.5842
1.62122
1.68047
1.79244
1.64022
1.50365
1.60673
1.53737
1.54919
1.56235
1.57728
1.61318
1.67351
1.78762
1.63269
1.49866
1.60123
1.53224
1.54305
1.555
1.56873
1.60237
1.66081
1.77175
1.87866
1.53779
1.64092
1.552
1.57871
1.58014
1.5716
1.55936
1.4822
1.37536
1.81466
1.53122
1.64045
1.55309
1.5786
1.58152
1.57314
1.56259
1.48897
1.37608
1.79396
1.53452
1.64433
1.55355
1.57921
1.58308
1.57626
1.56853
1.50359
1.37977
1.76997
1.53361
1.64496
1.55348
1.57958
1.58486
1.58079
1.57747
1.52425
1.3913
1.74924
1.53211
1.64464
1.55298
1.57971
1.58666
1.58579
1.58871
1.55041
1.40767
1.0593
0.922586
0.738701
0.496946
0.203337
-0.123685
-0.462513
-0.790797
-1.08557
-1.32594
1.05343
0.919004
0.74229
0.508631
0.223309
-0.0988638
-0.43805
-0.771315
-1.07355
-1.32101
1.07415
0.933324
0.751936
0.520105
0.240679
-0.0782335
-0.419558
-0.758262
-1.06698
-1.32016
1.12462
0.966415
0.76873
0.532319
0.255361
-0.0624574
-0.407054
-0.751512
-1.06632
-1.32504
1.19952
1.01656
0.792787
0.544577
0.265115
-0.053178
-0.400134
-0.749434
-1.07069
-1.3363
)
;

boundaryField
{
    left
    {
        type            zeroGradient;
    }
    right
    {
        type            fixedValue;
        value           uniform 0;
    }
    down
    {
        type            zeroGradient;
    }
    up
    {
        type            zeroGradient;
    }
    cylinder
    {
        type            zeroGradient;
    }
    defaultFaces
    {
        type            empty;
    }
}


// ************************************************************************* //
