/*--------------------------------*- C++ -*----------------------------------*\
  =========                 |
  \\      /  F ield         | OpenFOAM: The Open Source CFD Toolbox
   \\    /   O peration     | Website:  https://openfoam.org
    \\  /    A nd           | Version:  13
     \\/     M anipulation  |
\*---------------------------------------------------------------------------*/
FoamFile
{
    format      ascii;
    class       volVectorField;
    location    "0.55";
    object      U;
}
// * * * * * * * * * * * * * * * * * * * * * * * * * * * * * * * * * * * * * //

dimensions      [0 1 -1 0 0 0 0];

internalField   nonuniform List<vector> 
1800
(
(0.0302594 -0.0253824 1.27142e-19)
(0.303059 -0.241784 5.8998e-20)
(0.657884 -0.50009 -1.46757e-19)
(0.990054 -0.720847 2.96023e-19)
(1.24526 -0.872549 1.00317e-18)
(1.41459 -0.954371 5.17979e-19)
(1.51275 -0.981116 -3.02679e-19)
(1.56081 -0.970935 -8.62242e-19)
(1.57896 -0.935689 -4.61137e-19)
(1.55714 -0.896955 -3.76125e-19)
(0.0601805 -0.0444322 5.25436e-20)
(0.397125 -0.26996 -1.77288e-19)
(0.805396 -0.518947 2.29425e-21)
(1.17 -0.721186 -3.38176e-19)
(1.43716 -0.853161 1.0763e-19)
(1.60467 -0.918449 1.17686e-18)
(1.69431 -0.933491 -9.71503e-19)
(1.73248 -0.916017 5.28417e-19)
(1.74098 -0.879146 9.03853e-19)
(1.72525 -0.846173 -4.6304e-19)
(0.0985656 -0.062551 7.21241e-21)
(0.506247 -0.291023 5.70827e-20)
(0.966032 -0.523142 1.13954e-19)
(1.35591 -0.701078 -1.71516e-19)
(1.62679 -0.810389 -1.20146e-18)
(1.78554 -0.858935 3.1587e-19)
(1.86151 -0.864252 6.24395e-19)
(1.8854 -0.843367 -6.64901e-20)
(1.88087 -0.808067 -5.80227e-21)
(1.85269 -0.775593 -3.12342e-20)
(0.145377 -0.0778741 -1.11993e-20)
(0.628838 -0.301299 -7.11264e-20)
(1.13588 -0.509035 -1.51849e-19)
(1.54241 -0.658124 6.25797e-20)
(1.80889 -0.743129 3.13811e-19)
(1.95367 -0.775224 3.19737e-20)
(2.01406 -0.77178 -2.50496e-20)
(2.0247 -0.747844 5.98059e-19)
(2.00997 -0.713323 5.13566e-19)
(1.97802 -0.684306 -1.8053e-19)
(0.200021 -0.0885365 1.03512e-19)
(0.761824 -0.297561 1.30264e-19)
(1.3092 -0.474337 -7.2044e-20)
(1.72238 -0.592305 -8.34245e-20)
(1.97618 -0.653896 -9.82023e-19)
(2.10188 -0.672259 9.77465e-21)
(2.14421 -0.663407 9.71326e-19)
(2.14048 -0.63987 3.33019e-19)
(2.11492 -0.60971 1.66572e-20)
(2.07611 -0.584828 -2.28564e-19)
(0.261191 -0.0925417 -7.41127e-20)
(0.90059 -0.276465 1.46697e-19)
(1.47926 -0.416637 7.17608e-19)
(1.88922 -0.502812 -5.83569e-19)
(2.12393 -0.542948 -7.34039e-19)
(2.22816 -0.550354 1.3835e-18)
(2.25306 -0.538417 -1.05643e-18)
(2.23726 -0.516616 -1.23302e-18)
(2.20395 -0.490823 8.89264e-19)
(2.16202 -0.470591 -2.4688e-20)
(0.327163 -0.0883568 9.13634e-20)
(1.03995 -0.236556 -4.50378e-19)
(1.63936 -0.336626 -1.97951e-18)
(2.03673 -0.392695 1.03696e-18)
(2.24712 -0.415272 1.91072e-18)
(2.32828 -0.415924 -6.06529e-21)
(2.33619 -0.404463 -2.86628e-18)
(2.30937 -0.387184 9.19192e-21)
(2.26916 -0.368038 2.68267e-18)
(2.22357 -0.353707 7.04508e-19)
(0.395345 -0.0745563 -5.0313e-21)
(1.1734 -0.176788 3.96153e-19)
(1.78215 -0.234869 1.62418e-18)
(2.15918 -0.263628 -5.32238e-20)
(2.34249 -0.272815 -1.26337e-18)
(2.40146 -0.2703 -4.27867e-19)
(2.39493 -0.261618 0)
(2.35993 -0.249949 1.02624e-18)
(2.31537 -0.237499 -1.88877e-21)
(2.26825 -0.229027 -8.51938e-19)
(0.462994 -0.0505551 4.79988e-21)
(1.29523 -0.0983696 8.51923e-19)
(1.90205 -0.115 1.54873e-18)
(2.2527 -0.120875 -1.66991e-18)
(2.40777 -0.121643 -1.33644e-18)
(2.44619 -0.119886 4.34211e-19)
(2.42767 -0.116595 -1.88256e-18)
(2.38668 -0.112172 -1.33429e-18)
(2.33926 -0.107455 1.56945e-18)
(2.29089 -0.105532 1.33568e-18)
(0.526674 -0.016229 1.16786e-19)
(1.39907 -0.00315934 6.09405e-19)
(1.99335 0.0194347 3.01888e-19)
(2.31364 0.0315703 -2.49213e-18)
(2.44141 0.0347291 1.84552e-20)
(2.46241 0.032763 4.15649e-18)
(2.43528 0.0291377 -2.28357e-18)
(2.39102 0.025735 -1.27159e-18)
(2.34267 0.0227273 4.32181e-19)
(2.29432 0.0181611 -9.72346e-19)
(-0.00263371 0.00377412 8.28905e-20)
(-0.00822748 -0.0344981 4.13657e-20)
(0.00413228 -0.0910154 -1.61082e-21)
(0.0330615 -0.147443 -8.14968e-21)
(0.0756415 -0.193561 -3.69222e-21)
(0.127086 -0.225926 -1.51297e-19)
(0.183065 -0.245318 -2.30665e-20)
(0.240248 -0.254432 9.98053e-20)
(0.296379 -0.256491 3.5803e-21)
(0.348734 -0.255294 -8.24425e-21)
(-0.00417742 0.015619 2.09609e-20)
(-0.0036252 -0.0395763 5.9879e-20)
(0.0185888 -0.129803 -9.15277e-20)
(0.0576183 -0.221979 -5.12097e-20)
(0.108564 -0.297658 -7.77757e-20)
(0.165846 -0.350486 -1.79803e-19)
(0.225189 -0.381543 1.54778e-19)
(0.283726 -0.395314 1.08809e-19)
(0.339736 -0.397372 -1.22766e-19)
(0.392044 -0.395162 2.08468e-20)
(-0.00720057 0.0255242 -4.23485e-20)
(0.00269625 -0.0470719 1.32008e-19)
(0.0405966 -0.169875 5.78379e-20)
(0.0958971 -0.295865 2.58058e-19)
(0.160307 -0.399043 6.34922e-20)
(0.226958 -0.470489 -5.25278e-19)
(0.291691 -0.51172 3.28261e-20)
(0.352402 -0.529033 2.61774e-19)
(0.408244 -0.530304 -2.07304e-19)
(0.460665 -0.526432 -8.70053e-20)
(-0.0110812 0.0327928 -1.07362e-19)
(0.0118033 -0.0577312 -1.92034e-20)
(0.0713297 -0.211243 3.02571e-20)
(0.149011 -0.368182 -1.32004e-19)
(0.231677 -0.495898 6.54517e-20)
(0.310868 -0.583368 2.64223e-19)
(0.382671 -0.63274 1.27398e-19)
(0.446087 -0.652135 -1.00694e-19)
(0.501486 -0.651646 2.26565e-20)
(0.554004 -0.645256 -5.7122e-21)
(-0.0149619 0.0366408 0)
(0.0252955 -0.0723313 8.17672e-20)
(0.112412 -0.253998 9.39178e-20)
(0.218116 -0.438081 -1.9253e-19)
(0.32331 -0.586413 -5.46433e-19)
(0.417617 -0.686536 2.51381e-19)
(0.497623 -0.741491 -6.32973e-20)
(0.563838 -0.761229 -1.0873e-19)
(0.618193 -0.757897 0)
(0.670417 -0.747921 -1.53599e-20)
(-0.0176759 0.0364167 3.97213e-20)
(0.0450577 -0.0915658 6.43625e-20)
(0.165594 -0.298222 -3.38232e-20)
(0.304358 -0.504635 2.41363e-19)
(0.435433 -0.668712 -1.92345e-19)
(0.546478 -0.777394 -3.28389e-19)
(0.634991 -0.834946 7.11627e-19)
(0.703462 -0.853146 5.65283e-20)
(0.755752 -0.84593 -6.00027e-19)
(0.806575 -0.831151 -1.07146e-20)
(-0.0179688 0.0316789 4.87367e-21)
(0.0731173 -0.115847 -1.26776e-20)
(0.232608 -0.343609 1.70756e-19)
(0.408402 -0.566661 3.11754e-20)
(0.567357 -0.740836 2.89462e-19)
(0.695476 -0.853472 -4.18153e-19)
(0.79176 -0.910443 -5.01889e-19)
(0.861215 -0.925329 -5.19366e-19)
(0.910056 -0.913456 4.08459e-19)
(0.957353 -0.89275 4.80148e-19)
(-0.0145323 0.0223975 -1.16989e-19)
(0.111342 -0.144782 6.49439e-20)
(0.314653 -0.389079 3.29361e-19)
(0.529922 -0.622401 -1.68524e-19)
(0.716999 -0.800522 2.86916e-19)
(0.86098 -0.912276 7.84387e-19)
(0.963171 -0.965544 6.80807e-19)
(1.03166 -0.97565 -5.6612e-19)
(1.07551 -0.958718 -3.04868e-19)
(1.11601 -0.93136 4.39529e-19)
(-0.00612452 0.00917441 -2.00851e-19)
(0.161336 -0.176893 -2.12141e-19)
(0.412347 -0.432391 2.63531e-19)
(0.667849 -0.669013 3.98354e-19)
(0.881389 -0.84464 -5.84876e-19)
(1.03833 -0.95069 7.95747e-19)
(1.1433 -0.997362 1.33131e-19)
(1.2081 -1.00155 -1.3426e-18)
(1.24525 -0.979211 -3.44823e-19)
(1.27424 -0.945077 4.34935e-19)
(0.00841982 -0.00709908 5.01997e-20)
(0.224679 -0.209981 -2.45922e-19)
(0.526508 -0.470362 -3.2306e-19)
(0.821517 -0.702808 5.30735e-19)
(1.05823 -0.869478 4.30093e-19)
(1.22383 -0.96533 -7.09689e-19)
(1.32738 -1.00298 -6.94932e-19)
(1.38507 -1.00037 4.61136e-19)
(1.41343 -0.971868 -4.87119e-19)
(1.4233 -0.932226 -3.2576e-19)
(0.564794 -0.20965 5.70292e-20)
(0.778215 -0.15288 -6.29575e-20)
(0.879884 -0.120063 6.10899e-21)
(0.938231 -0.0941214 7.82678e-21)
(0.972755 -0.0730032 -3.786e-21)
(0.993134 -0.055863 -1.22011e-21)
(1.00559 -0.0420637 -2.8053e-21)
(1.01356 -0.0304568 -2.65673e-21)
(1.01839 -0.0227429 5.82931e-21)
(1.02229 -0.0107425 2.50993e-21)
(0.583961 -0.301983 1.05453e-19)
(0.792574 -0.197261 1.5975e-20)
(0.889357 -0.144623 3.34542e-21)
(0.94559 -0.107962 -3.80913e-21)
(0.978577 -0.081021 -8.9499e-21)
(0.99776 -0.0606538 0)
(1.00928 -0.0449956 -3.12579e-21)
(1.01651 -0.0322601 3.11639e-21)
(1.02086 -0.0239298 4.07348e-22)
(1.02426 -0.0112708 -3.00094e-21)
(0.614463 -0.389445 -1.00233e-19)
(0.813256 -0.241148 -3.80509e-20)
(0.901927 -0.168987 1.33968e-20)
(0.954617 -0.121628 -7.33452e-21)
(0.985314 -0.0888912 -3.31865e-21)
(1.00291 -0.0653041 5.24733e-21)
(1.01329 -0.0477959 0)
(1.01966 -0.0339502 0)
(1.02345 -0.0250159 -1.46295e-21)
(1.0263 -0.0117441 0)
(0.657403 -0.469801 -3.17758e-20)
(0.839737 -0.28411 7.49178e-20)
(0.91763 -0.192897 5.68869e-21)
(0.965314 -0.134975 0)
(0.99296 -0.0965275 1.57937e-20)
(1.00858 -0.0697604 -2.22333e-21)
(1.0176 -0.0504314 0)
(1.023 -0.0355063 2.70544e-21)
(1.02617 -0.0259867 0)
(1.02842 -0.0121558 4.76843e-22)
(0.713681 -0.540703 -6.19345e-20)
(0.871243 -0.325624 9.40751e-20)
(0.936421 -0.216113 -2.77709e-21)
(0.977659 -0.147882 0)
(1.0015 -0.103851 3.27183e-21)
(1.01475 -0.0739718 4.48253e-21)
(1.0222 -0.0528696 5.10307e-21)
(1.0265 -0.0369071 9.51622e-22)
(1.02898 -0.0268278 -1.7251e-21)
(1.03059 -0.0124997 2.30708e-21)
(0.783842 -0.599754 -7.45918e-19)
(0.906677 -0.364722 -1.67105e-19)
(0.958023 -0.238359 9.20896e-22)
(0.991557 -0.160264 2.62437e-20)
(1.01089 -0.110801 -5.24194e-21)
(1.02141 -0.0778945 3.61058e-21)
(1.02707 -0.0550807 2.91382e-21)
(1.03016 -0.0381326 -6.65363e-21)
(1.03188 -0.0275252 -1.83769e-22)
(1.03281 -0.0127703 1.93643e-22)
(0.869003 -0.645916 2.76835e-20)
(0.945324 -0.399957 6.24107e-20)
(0.981821 -0.259147 1.04139e-21)
(1.00673 -0.171963 -7.66263e-22)
(1.02103 -0.117295 -1.90601e-20)
(1.02849 -0.0814806 4.54419e-21)
(1.03219 -0.0570349 -2.48615e-21)
(1.03395 -0.0391628 -3.69977e-21)
(1.03484 -0.0280658 7.8532e-22)
(1.03505 -0.0129629 -1.6037e-21)
(0.971487 -0.68109 2.79863e-19)
(0.989411 -0.431103 7.61228e-20)
(1.00781 -0.278437 0)
(1.02288 -0.182917 -2.12479e-23)
(1.03167 -0.123262 1.5509e-20)
(1.03586 -0.0846745 1.03496e-21)
(1.03748 -0.0586967 -1.17773e-20)
(1.03783 -0.0399758 3.31855e-21)
(1.03784 -0.0284361 -2.86326e-23)
(1.03732 -0.0130741 -2.25151e-22)
(1.09139 -0.707636 -4.24802e-19)
(1.04509 -0.459093 -2.10214e-19)
(1.03882 -0.297221 4.77092e-20)
(1.04089 -0.193851 -5.27684e-22)
(1.04297 -0.129103 -1.92066e-21)
(1.04348 -0.0876531 -1.17534e-20)
(1.04288 -0.0601306 2.96812e-21)
(1.04176 -0.0405884 4.5755e-22)
(1.04084 -0.0286361 -2.78174e-21)
(1.03958 -0.0131037 -2.45893e-21)
(1.22094 -0.721847 3.03135e-19)
(1.11458 -0.479996 -2.12108e-19)
(1.07814 -0.313294 -3.25994e-20)
(1.06311 -0.204157 -3.71496e-20)
(1.05611 -0.134921 -1.94772e-20)
(1.05185 -0.0906463 -9.28521e-21)
(1.04858 -0.0615114 -4.57269e-21)
(1.04582 -0.0410942 0)
(1.04387 -0.0287133 -2.26693e-22)
(1.04185 -0.0130537 1.70073e-21)
(1.40507 -0.695206 4.54183e-19)
(1.22483 -0.480539 1.27696e-19)
(1.1429 -0.316649 -1.06116e-19)
(1.10125 -0.206439 6.83956e-21)
(1.07858 -0.13597 7.86591e-21)
(1.06548 -0.0908491 -4.32032e-21)
(1.05725 -0.0612465 4.98728e-22)
(1.05158 -0.0406522 3.79999e-21)
(1.04794 -0.0282076 -2.69379e-21)
(1.04477 -0.0127986 1.00545e-22)
(1.44846 -0.566417 -2.06787e-22)
(1.25158 -0.395752 1.1009e-19)
(1.16576 -0.271673 9.54104e-20)
(1.12184 -0.184048 -1.21488e-20)
(1.09494 -0.124351 4.78629e-20)
(1.07745 -0.0842834 3.07694e-20)
(1.06577 -0.0572413 2.09065e-20)
(1.05763 -0.0381377 -2.05769e-21)
(1.0524 -0.0265367 7.32304e-21)
(1.04799 -0.0120461 3.32626e-21)
(1.50611 -0.482977 -1.50059e-19)
(1.31301 -0.35545 -1.23003e-20)
(1.20928 -0.249624 6.07626e-21)
(1.15075 -0.170399 5.44503e-37)
(1.11385 -0.115271 6.02642e-22)
(1.08992 -0.0780705 -8.34589e-35)
(1.07419 -0.0529619 -2.56687e-21)
(1.06345 -0.0352471 -1.86048e-34)
(1.05664 -0.024515 7.42645e-22)
(1.05098 -0.0111316 -2.19517e-21)
(1.53826 -0.393582 -2.41095e-34)
(1.35033 -0.297119 -3.17915e-20)
(1.23942 -0.213204 -3.27911e-20)
(1.17335 -0.148672 0)
(1.12987 -0.102021 -2.00624e-20)
(1.10095 -0.0695937 -1.38345e-20)
(1.08178 -0.0473557 -8.011e-21)
(1.06873 -0.0315468 -2.30297e-34)
(1.06049 -0.0219649 -2.4851e-21)
(1.05369 -0.00998637 2.0825e-21)
(1.55862 -0.314618 -8.97536e-20)
(1.3796 -0.245378 4.86951e-21)
(1.2644 -0.17863 0)
(1.19237 -0.126058 0)
(1.14359 -0.087248 0)
(1.11052 -0.0597968 0)
(1.08842 -0.0407837 -5.06248e-22)
(1.07337 -0.0271939 -2.57528e-34)
(1.06388 -0.0189627 6.56683e-22)
(1.05604 -0.00863715 2.48963e-34)
(1.57076 -0.242427 -3.14726e-20)
(1.40108 -0.193604 0)
(1.2839 -0.142435 0)
(1.20754 -0.101547 0)
(1.15475 -0.0708723 0)
(1.11843 -0.0488121 0)
(1.09396 -0.0333781 8.49843e-22)
(1.07725 -0.0222826 5.10997e-21)
(1.06671 -0.0155684 6.17243e-22)
(1.05798 -0.00710669 2.84196e-21)
(1.57751 -0.176599 0)
(1.41567 -0.143145 -1.02804e-20)
(1.29783 -0.105843 -1.52027e-20)
(1.21854 -0.0759421 0)
(1.16295 -0.0533651 -9.75174e-21)
(1.12429 -0.0369204 -6.98815e-21)
(1.09804 -0.0253135 -4.00922e-21)
(1.08008 -0.0169233 -3.04476e-21)
(1.06874 -0.011851 4.08586e-21)
(1.05928 -0.00542451 1.13539e-21)
(1.57648 -0.114788 9.01498e-21)
(1.41822 -0.0939836 7.05857e-21)
(1.30069 -0.0691749 -3.9852e-21)
(1.22049 -0.0495821 2.43139e-36)
(1.16394 -0.0349612 5.55017e-22)
(1.12432 -0.0242626 -5.49215e-35)
(1.09727 -0.0166724 6.39274e-22)
(1.0787 -0.0111652 2.74836e-21)
(1.06696 -0.0078339 5.08596e-22)
(1.05711 -0.00358908 -1.67274e-21)
(1.50672 -0.0478385 -4.58145e-20)
(1.35491 -0.042866 1.15908e-20)
(1.24455 -0.0331222 1.3319e-20)
(1.17018 -0.0244932 0)
(1.11795 -0.0176281 7.4308e-21)
(1.08129 -0.0123561 5.19859e-21)
(1.05615 -0.00853583 4.07593e-21)
(1.03887 -0.00574367 2.26666e-21)
(1.02789 -0.00405045 -2.22654e-21)
(1.01871 -0.00185667 2.11438e-21)
(0.938592 0.00211225 0)
(0.873468 -0.00177999 0)
(0.819858 -0.00245239 0)
(0.781243 -0.00226398 0)
(0.752706 -0.00178627 0)
(0.732146 -0.0013009 0)
(0.717851 -0.000919129 4.82187e-22)
(0.707938 -0.000638622 -2.99748e-36)
(0.701493 -0.000446651 5.00394e-22)
(0.696143 -0.000195991 1.51614e-21)
(2.20375 0.0123536 9.00519e-19)
(2.20233 -0.0943687 6.18924e-20)
(2.18653 -0.200336 -1.29787e-19)
(2.14732 -0.308662 -3.66564e-19)
(2.10135 -0.408012 -1.21538e-19)
(2.024 -0.510248 -1.89533e-19)
(1.95448 -0.59142 -4.92322e-19)
(1.83969 -0.685638 1.51367e-19)
(1.7582 -0.726054 0)
(1.60184 -0.828866 7.00894e-20)
(2.11039 0.0112488 2.39407e-19)
(2.1094 -0.0708491 -3.4496e-19)
(2.10259 -0.148057 -1.61654e-20)
(2.06945 -0.23575 -1.4456e-19)
(2.04092 -0.305176 3.6192e-20)
(1.97653 -0.394989 1.44501e-19)
(1.92869 -0.447021 -1.89114e-20)
(1.84014 -0.540833 9.09424e-20)
(1.77669 -0.557433 -1.16815e-19)
(1.67328 -0.666274 3.56029e-20)
(2.03465 0.00750468 -1.19378e-19)
(2.03341 -0.0582186 2.30474e-19)
(2.02993 -0.11607 1.95531e-19)
(2.00282 -0.188533 -2.47625e-19)
(1.98118 -0.238335 8.6961e-20)
(1.93058 -0.314733 1.67223e-19)
(1.89099 -0.350416 -5.1623e-20)
(1.82449 -0.431119 6.54552e-20)
(1.76907 -0.442096 7.04525e-20)
(1.69432 -0.533077 9.18428e-20)
(1.9749 0.00151194 -2.2256e-19)
(1.97472 -0.0499744 3.02369e-20)
(1.97184 -0.0931912 -8.93006e-20)
(1.95069 -0.150789 -6.05093e-20)
(1.93109 -0.187344 -5.15263e-21)
(1.89172 -0.248933 -1.09102e-19)
(1.8561 -0.275497 1.04156e-19)
(1.80444 -0.340656 2.75851e-20)
(1.75547 -0.349889 -9.79927e-21)
(1.69822 -0.422541 1.14533e-20)
(1.92966 -0.00357169 5.25718e-20)
(1.93026 -0.0426476 6.56116e-20)
(1.92682 -0.0748743 -5.80746e-20)
(1.91013 -0.118861 2.30489e-19)
(1.89142 -0.146099 6.38044e-21)
(1.85973 -0.19335 -1.54815e-19)
(1.8272 -0.213772 2.36401e-20)
(1.78506 -0.263602 -9.40911e-20)
(1.74175 -0.272195 1.14246e-19)
(1.69538 -0.327135 8.21465e-20)
(1.89498 -0.00884537 -1.18914e-19)
(1.8964 -0.0375354 -6.18744e-20)
(1.89275 -0.0609726 2.92827e-20)
(1.87923 -0.0928591 8.69274e-20)
(1.86149 -0.112645 7.00607e-20)
(1.83476 -0.147018 -4.5022e-20)
(1.80488 -0.162297 3.61111e-21)
(1.76862 -0.198556 4.77164e-20)
(1.72977 -0.206059 9.30771e-20)
(1.6896 -0.245982 -5.62126e-20)
(1.86719 -0.0142288 -4.60566e-20)
(1.86957 -0.0338539 -8.94322e-20)
(1.86643 -0.0496728 -6.85957e-20)
(1.85541 -0.0710001 -1.28445e-19)
(1.83918 -0.0841786 -9.54808e-21)
(1.8159 -0.107328 2.4996e-21)
(1.78861 -0.117831 4.41846e-20)
(1.756 -0.142709 -1.02173e-20)
(1.72066 -0.148557 -3.71793e-20)
(1.68381 -0.176476 7.04837e-21)
(1.82753 -0.0188808 4.15083e-20)
(1.83093 -0.0299824 3.28896e-20)
(1.82955 -0.0386506 1.35732e-20)
(1.82192 -0.0507746 -2.45691e-20)
(1.80958 -0.0574031 -2.01239e-20)
(1.79118 -0.070794 2.56989e-20)
(1.76872 -0.0755847 -5.10199e-21)
(1.74148 -0.0910159 -3.90854e-20)
(1.71006 -0.0936681 9.14349e-21)
(1.679 -0.112699 4.88385e-20)
(1.67612 -0.0277836 -3.67237e-20)
(1.67555 -0.0312224 4.58749e-22)
(1.67319 -0.0328254 5.60655e-20)
(1.66878 -0.0359965 -2.98697e-22)
(1.66255 -0.0357081 -7.51334e-21)
(1.65521 -0.0392177 4.28327e-21)
(1.64264 -0.0377411 1.09172e-20)
(1.63384 -0.0422215 -2.28331e-20)
(1.61034 -0.0404604 3.28091e-20)
(1.60544 -0.0476872 1.11241e-19)
(0.997306 -0.0129902 3.50746e-20)
(0.980885 -0.0109892 2.43879e-20)
(0.967753 -0.00858574 2.06711e-20)
(0.957958 -0.00644791 2.57069e-20)
(0.951268 -0.00395041 -7.58923e-21)
(0.949083 -0.00224527 -1.21617e-22)
(0.946569 0.000397411 -5.91181e-21)
(0.953009 0.00151515 1.09196e-21)
(0.948817 0.00435223 -1.88517e-21)
(0.967862 0.00321493 2.0527e-21)
(1.39514 0.797897 -6.00479e-20)
(1.38306 0.841217 2.58835e-20)
(1.38738 0.891915 -4.64826e-19)
(1.39711 0.950373 2.25457e-19)
(1.40557 1.01317 8.80851e-19)
(1.40504 1.07402 -1.42697e-19)
(1.37658 1.11459 -8.52068e-19)
(1.27514 1.08856 -5.13203e-20)
(1.01803 0.90598 -4.39079e-19)
(0.4823 0.444458 1.40189e-19)
(1.54568 0.767072 0)
(1.53858 0.810307 5.73795e-19)
(1.54041 0.858848 1.27818e-18)
(1.55057 0.916053 -7.72873e-19)
(1.56365 0.978838 -1.84125e-18)
(1.56882 1.03981 -1.42348e-19)
(1.54203 1.07952 -1.81713e-19)
(1.4305 1.0519 6.55228e-19)
(1.14035 0.870527 9.01666e-19)
(0.537277 0.422732 4.06321e-19)
(1.68835 0.727031 6.41421e-20)
(1.69028 0.770508 0)
(1.69448 0.817152 -6.61653e-20)
(1.70593 0.87099 7.98337e-19)
(1.72205 0.930388 5.33667e-20)
(1.73092 0.98822 -1.91826e-18)
(1.70402 1.02474 1.20689e-18)
(1.58068 0.995172 7.60095e-19)
(1.25638 0.818301 -8.15364e-19)
(0.587671 0.392683 -2.83809e-19)
(1.81787 0.672843 -1.29949e-19)
(1.82981 0.715786 -1.02837e-19)
(1.84053 0.760569 2.34075e-19)
(1.85591 0.810855 -2.93071e-19)
(1.87521 0.865956 -1.40023e-18)
(1.88645 0.91925 -1.07755e-18)
(1.85751 0.951334 1.17296e-18)
(1.72044 0.919552 7.36882e-19)
(1.36106 0.749987 0)
(0.630269 0.354125 0)
(1.93276 0.605463 -8.13708e-19)
(1.95452 0.646639 -1.42457e-18)
(1.97373 0.688862 -5.66564e-19)
(1.99505 0.735193 -3.54625e-20)
(2.01818 0.785359 0)
(2.03088 0.833134 1.47343e-19)
(1.99785 0.859731 1.73993e-19)
(1.84453 0.825803 2.19673e-19)
(1.44901 0.66602 -3.28264e-19)
(0.661151 0.307141 -8.297e-20)
(2.0329 0.528291 9.76413e-19)
(2.06338 0.566016 -4.59096e-20)
(2.09121 0.604342 -1.16627e-18)
(2.11932 0.64577 0)
(2.14669 0.689984 0)
(2.15993 0.731048 0)
(2.12036 0.751418 1.4645e-18)
(1.94751 0.714435 -1.69038e-18)
(1.51347 0.56698 -1.11492e-18)
(0.677187 0.253505 -1.90107e-20)
(2.11823 0.443213 -1.32538e-18)
(2.15572 0.475738 -2.79094e-18)
(2.19113 0.508635 -4.87121e-21)
(2.22575 0.543909 5.6601e-19)
(2.25706 0.58117 -4.39334e-20)
(2.26968 0.614175 1.27158e-18)
(2.22052 0.626536 -7.02377e-19)
(2.02347 0.58932 -2.07842e-18)
(1.55022 0.458235 1.82979e-19)
(0.677276 0.195583 1.28631e-19)
(2.18794 0.350041 -1.0843e-18)
(2.23058 0.375957 1.82538e-20)
(2.272 0.40215 4.23452e-19)
(2.31209 0.430162 -4.09283e-19)
(2.34629 0.458868 6.31062e-19)
(2.35579 0.483241 1.79024e-18)
(2.29269 0.489379 -2.37536e-19)
(2.06733 0.453269 -1.1768e-18)
(1.5573 0.341544 2.95262e-19)
(0.660884 0.136369 5.36532e-20)
(2.24158 0.247806 4.14218e-19)
(2.28743 0.26622 9.16006e-20)
(2.3329 0.284973 -4.54472e-19)
(2.37661 0.305037 -1.04498e-18)
(2.41136 0.325287 1.03595e-19)
(2.41428 0.341194 1.09567e-19)
(2.33329 0.341845 -1.59492e-18)
(2.07738 0.309388 6.44335e-19)
(1.5336 0.221828 2.04003e-19)
(0.628791 0.0792879 -1.75578e-19)
(2.27744 0.13633 8.25238e-19)
(2.32514 0.147649 -1.25831e-18)
(2.37288 0.158609 2.02438e-19)
(2.41803 0.170385 2.61947e-18)
(2.45056 0.182153 1.35393e-18)
(2.44345 0.190355 -2.99798e-18)
(2.34077 0.187504 -3.01943e-18)
(2.05272 0.162739 1.47274e-18)
(1.48005 0.105058 8.50556e-21)
(0.583102 0.0275746 4.21954e-20)
(0.517637 0.231006 -1.8458e-19)
(0.480608 0.239077 -1.6738e-19)
(0.437289 0.247741 9.02588e-20)
(0.388961 0.257018 -2.97497e-19)
(0.335859 0.266864 -3.6472e-20)
(0.27725 0.276737 2.55889e-19)
(0.212201 0.283883 6.36218e-20)
(0.141283 0.279151 -3.2028e-20)
(0.0715683 0.240392 1.27767e-21)
(0.01302 0.127018 2.02518e-20)
(0.547953 0.332605 1.49254e-19)
(0.511653 0.347072 2.03972e-19)
(0.469628 0.362918 3.83199e-20)
(0.422877 0.38013 -7.93333e-20)
(0.371486 0.398574 -2.81927e-19)
(0.314613 0.417265 7.26497e-21)
(0.250864 0.431558 1.44593e-19)
(0.179478 0.426587 1.24115e-20)
(0.104681 0.367427 -6.81086e-20)
(0.0305877 0.192869 -2.22873e-20)
(0.595759 0.429809 -1.5321e-19)
(0.560682 0.450453 -1.53863e-19)
(0.520784 0.473114 1.35247e-19)
(0.476629 0.497857 1.17546e-19)
(0.428065 0.524488 -6.67408e-20)
(0.374054 0.551574 -8.92302e-20)
(0.312452 0.572602 -9.14717e-20)
(0.240298 0.567164 -5.66254e-21)
(0.157128 0.488101 -4.22256e-20)
(0.0581197 0.254964 4.21198e-21)
(0.659817 0.52109 7.73207e-20)
(0.626421 0.547678 -1.93896e-20)
(0.589467 0.576638 -1.12096e-19)
(0.548886 0.608227 3.65669e-20)
(0.504185 0.64226 -8.28981e-20)
(0.454054 0.676858 2.30271e-20)
(0.395333 0.703693 -1.66673e-19)
(0.32205 0.697165 -1.95652e-20)
(0.22729 0.598922 -2.38734e-19)
(0.0946385 0.31135 4.99579e-20)
(0.739065 0.602899 -2.01027e-20)
(0.707899 0.634717 -3.85378e-21)
(0.674758 0.669247 -4.44892e-20)
(0.638874 0.707074 -1.85323e-19)
(0.599253 0.747988 8.28224e-20)
(0.554121 0.789627 -4.92651e-20)
(0.498983 0.821899 1.25122e-19)
(0.424091 0.814293 -4.52032e-20)
(0.314292 0.698166 3.02016e-19)
(0.139444 0.361012 2.28697e-19)
(0.828769 0.678299 -2.04479e-20)
(0.799684 0.715016 -9.28915e-20)
(0.770592 0.753926 1.17952e-19)
(0.739796 0.796448 9.10783e-20)
(0.705953 0.842626 2.43111e-19)
(0.666871 0.889544 1.44623e-19)
(0.616359 0.925191 4.49676e-19)
(0.540041 0.914637 2.02779e-19)
(0.41308 0.781124 1.72074e-19)
(0.190048 0.401263 1.97792e-19)
(0.933078 0.734253 -9.72652e-20)
(0.908564 0.774841 3.58778e-19)
(0.885862 0.817728 2.24708e-19)
(0.861887 0.864575 -2.61533e-19)
(0.834559 0.915496 -1.36826e-19)
(0.801299 0.967324 5.06652e-19)
(0.754402 1.00662 -9.89028e-20)
(0.674524 0.994496 -3.162e-19)
(0.525908 0.846873 -5.36036e-20)
(0.246629 0.43208 2.14069e-19)
(1.03356 0.789247 1.95925e-19)
(1.01085 0.83175 5.48757e-20)
(0.993913 0.876041 -6.01251e-19)
(0.978493 0.925311 8.24904e-20)
(0.961063 0.979294 3.92958e-19)
(0.937329 1.03369 -2.6365e-19)
(0.896839 1.0733 -6.12754e-20)
(0.814531 1.05619 -1.37171e-19)
(0.643435 0.893908 1.39178e-20)
(0.305118 0.45178 -2.92867e-19)
(1.15159 0.810051 2.18167e-20)
(1.13722 0.855751 -4.16036e-19)
(1.12726 0.901604 -3.31214e-21)
(1.11757 0.952698 3.43441e-19)
(1.10608 1.00978 -3.43351e-19)
(1.08868 1.06785 6.92317e-19)
(1.05224 1.10961 4.83538e-19)
(0.964887 1.09008 -7.51713e-19)
(0.767368 0.918025 -4.29872e-20)
(0.365068 0.459587 -3.01737e-19)
(1.24507 0.825436 -2.34602e-19)
(1.24087 0.871413 -2.32889e-19)
(1.24698 0.91849 2.49806e-19)
(1.25204 0.970574 5.67194e-19)
(1.25243 1.02777 2.23326e-19)
(1.24418 1.08531 -5.73393e-19)
(1.21245 1.12539 3.7461e-20)
(1.11914 1.10169 1.61555e-19)
(0.893068 0.922259 -2.21831e-19)
(0.424597 0.457097 -2.15151e-19)
(0.840699 0.0171084 5.5335e-21)
(1.12833 0.0418532 -1.72818e-20)
(0.954075 0.0548885 -1.25542e-20)
(1.02863 0.0598332 0)
(1.0038 0.0670408 1.89105e-20)
(0.980755 0.0782472 2.50301e-20)
(0.957719 0.0939954 3.28236e-20)
(0.905941 0.116319 6.87399e-20)
(0.840753 0.146944 -1.00874e-19)
(0.675369 0.18954 -1.19767e-19)
(0.840285 0.0142657 3.6045e-20)
(1.12776 0.0403425 -5.72455e-20)
(0.954053 0.0558963 -1.73916e-22)
(1.03003 0.0614402 -1.55458e-20)
(1.00634 0.0707015 9.78039e-21)
(0.984933 0.084195 -1.26058e-20)
(0.963399 0.105244 -8.00713e-20)
(0.91509 0.133621 0)
(0.851343 0.183948 2.1446e-19)
(0.700342 0.255824 -2.54621e-19)
(0.839667 0.0116252 -3.51023e-20)
(1.12754 0.0387984 1.59507e-20)
(0.953979 0.0566846 3.62174e-20)
(1.03195 0.062764 1.16276e-20)
(1.00922 0.074074 -2.35963e-20)
(0.98994 0.0899373 8.48909e-22)
(0.970024 0.116134 -5.6593e-20)
(0.927461 0.150888 -5.1908e-21)
(0.865197 0.220291 2.39318e-22)
(0.738843 0.31971 6.3923e-19)
(0.838852 0.00918592 -2.26015e-20)
(1.1276 0.0372293 2.67878e-21)
(0.953854 0.0572288 2.95342e-20)
(1.03438 0.0637996 1.8092e-20)
(1.01247 0.07714 -1.1011e-20)
(0.995749 0.0954584 -1.42731e-20)
(0.977742 0.126538 8.39703e-20)
(0.942839 0.168081 -1.56552e-21)
(0.882596 0.2551 -2.48658e-19)
(0.790286 0.380442 7.05551e-20)
(0.837855 0.00701976 1.63645e-20)
(1.12789 0.0356264 -3.12212e-20)
(0.953681 0.0574969 -2.29789e-20)
(1.03731 0.0645385 9.91076e-21)
(1.01612 0.0798867 0)
(1.00232 0.100739 0)
(0.986732 0.136383 7.14444e-20)
(0.960853 0.18518 3.89741e-22)
(0.904035 0.287441 -1.17131e-19)
(0.85377 0.436997 9.10629e-20)
(0.83668 0.00516973 3.42595e-21)
(1.12831 0.0339793 2.5721e-20)
(0.953473 0.0574549 -5.73389e-20)
(1.04076 0.0649708 -2.61445e-20)
(1.02018 0.0823054 5.47611e-23)
(1.00962 0.10575 5.90893e-20)
(0.997173 0.145628 1.1114e-19)
(0.98103 0.20226 -6.24615e-22)
(0.930085 0.316302 1.93006e-19)
(0.927854 0.490749 -2.02915e-19)
(0.835343 0.00360012 -2.24691e-20)
(1.12876 0.032262 1.36213e-20)
(0.953247 0.0570676 -1.36099e-20)
(1.04471 0.0650872 -5.03326e-20)
(1.02467 0.0843883 2.35569e-22)
(1.01761 0.110453 -1.22128e-21)
(1.00924 0.15419 -6.64557e-21)
(1.00279 0.219382 -2.03768e-19)
(0.961937 0.34078 1.44803e-19)
(1.00888 0.536408 -4.80644e-19)
(0.833848 0.00235351 8.94838e-22)
(1.12921 0.0304287 -3.97753e-20)
(0.953047 0.0562954 2.81857e-20)
(1.04916 0.0648792 3.13068e-20)
(1.02958 0.0861267 2.55084e-22)
(1.02629 0.114796 -6.89891e-20)
(1.02306 0.161952 -6.10058e-20)
(1.02579 0.236397 3.64746e-19)
(0.999536 0.361569 1.19374e-20)
(1.09911 0.588595 7.64775e-19)
(0.83214 0.00142459 8.47994e-21)
(1.12978 0.0284268 1.79001e-20)
(0.952957 0.055078 2.8327e-20)
(1.05413 0.0643502 -3.35633e-20)
(1.03492 0.0875228 -7.11432e-20)
(1.03561 0.118714 1.42057e-21)
(1.03857 0.168642 -8.37768e-20)
(1.04975 0.250588 4.72506e-19)
(1.04981 0.371548 -7.55769e-21)
(1.17249 0.614134 -1.05122e-18)
(0.829946 0.00121007 2.4045e-21)
(1.13133 0.0265305 2.74627e-20)
(0.952958 0.0534994 1.16648e-20)
(1.0598 0.0636181 -6.99983e-20)
(1.04042 0.0888156 -6.77272e-20)
(1.04479 0.123013 -5.82757e-20)
(1.05314 0.177602 -1.49787e-19)
(1.0703 0.269697 -4.34345e-19)
(1.09344 0.397939 -2.46489e-19)
(1.28699 0.675551 -1.13553e-18)
(0.826718 0.000122353 -6.82133e-21)
(1.13514 0.0234368 -5.96654e-21)
(0.953988 0.0499512 -1.17561e-20)
(1.06645 0.0611821 2.18828e-20)
(1.04971 0.0871634 5.04407e-20)
(1.05991 0.122378 -4.00845e-20)
(1.07851 0.176486 1.33007e-19)
(1.10434 0.269703 -4.18023e-19)
(1.17429 0.361442 -1.81081e-19)
(1.2889 0.677587 6.05555e-19)
(0.826322 -0.00324074 5.03077e-21)
(1.13942 0.0188741 1.23528e-20)
(0.958858 0.0435383 -5.46598e-21)
(1.07291 0.0564265 5.06357e-20)
(1.06089 0.0818173 7.97252e-20)
(1.07661 0.116019 1.17518e-19)
(1.10383 0.167124 2.80525e-20)
(1.14126 0.249391 2.15526e-19)
(1.2384 0.328222 2.84343e-19)
(1.32375 0.594358 5.6132e-21)
(0.825991 -0.00693884 -7.14002e-21)
(1.14426 0.013734 -3.53801e-21)
(0.96462 0.0368887 4.53837e-22)
(1.0796 0.0507761 8.79128e-21)
(1.07179 0.0750783 2.24044e-34)
(1.09248 0.107254 -7.92333e-21)
(1.12549 0.153909 -5.40335e-34)
(1.17793 0.225483 1.81869e-20)
(1.27138 0.287756 -5.32392e-20)
(1.38529 0.517024 -5.05935e-20)
(0.825775 -0.0118975 2.12468e-20)
(1.14968 0.00759308 -3.91895e-35)
(0.970709 0.0298506 -8.15284e-22)
(1.08626 0.0442536 -2.05734e-20)
(1.08201 0.0669719 -3.28869e-20)
(1.10696 0.0964331 -3.96821e-20)
(1.14425 0.137488 -6.62894e-34)
(1.20976 0.199288 -8.91539e-20)
(1.29306 0.246345 -1.34252e-19)
(1.43882 0.435844 9.01607e-20)
(0.825739 -0.0180575 0)
(1.15594 0.000460478 4.14462e-35)
(0.977126 0.0225322 0)
(1.09272 0.0370594 0)
(1.09132 0.0576892 0)
(1.11967 0.0838636 0)
(1.16053 0.118553 -3.98428e-34)
(1.23491 0.171191 0)
(1.31188 0.204687 -1.96995e-20)
(1.47284 0.353989 5.42143e-20)
(0.825877 -0.0254823 8.58953e-21)
(1.16347 -0.0072804 2.44309e-21)
(0.984039 0.0154188 -1.53458e-21)
(1.09883 0.0295244 0)
(1.09954 0.0475041 0)
(1.13039 0.069874 6.70076e-21)
(1.17433 0.0979455 2.86823e-20)
(1.25365 0.141244 -1.36667e-20)
(1.32879 0.163809 -2.88943e-20)
(1.49095 0.275764 2.06931e-19)
(0.826385 -0.0363841 -6.53495e-20)
(1.1726 -0.0171788 1.4666e-21)
(0.991367 0.00687345 -1.85649e-21)
(1.10423 0.0215585 -7.9898e-21)
(1.10633 0.0366042 -1.23383e-20)
(1.13894 0.0547806 -9.83686e-21)
(1.18539 0.0762526 -2.19274e-20)
(1.26705 0.109716 -3.76328e-20)
(1.34259 0.12446 -5.32966e-20)
(1.49941 0.202694 7.59826e-20)
(0.826987 -0.0424696 -1.33471e-20)
(1.18143 -0.0237075 -1.42987e-20)
(0.997107 0.00403242 -2.2387e-21)
(1.10708 0.0146208 -7.24883e-21)
(1.10937 0.0253253 3.56539e-35)
(1.1432 0.0388807 7.2128e-21)
(1.19163 0.0537943 -9.32617e-34)
(1.27469 0.0768437 -1.38459e-20)
(1.3505 0.0865717 1.79412e-20)
(1.50338 0.133377 2.62515e-20)
(0.824826 -0.0718238 1.74985e-19)
(1.15696 -0.0411868 -6.27197e-21)
(0.966563 -0.00609586 -2.22471e-21)
(1.07359 0.00784583 4.46818e-21)
(1.07638 0.0138503 4.22299e-21)
(1.11189 0.0230226 1.47749e-20)
(1.16205 0.0316738 8.65107e-21)
(1.24703 0.0452391 -4.82874e-21)
(1.31991 0.0506042 -1.90572e-20)
(1.48175 0.0730028 1.37735e-19)
(0.742424 -0.0407341 1.33765e-20)
(0.869519 -0.0251228 -7.59698e-35)
(0.666161 -0.00191117 -3.1463e-21)
(0.758172 -0.000241632 0)
(0.748325 0.00262631 0)
(0.778813 0.00455971 7.44112e-21)
(0.821605 0.00589519 -8.57857e-36)
(0.888503 0.00905346 -1.37716e-20)
(0.952094 0.00928894 -2.62078e-20)
(1.07322 0.0133325 5.68083e-20)
(1.47765 0.695942 -1.77645e-19)
(1.57687 0.672295 -2.7266e-19)
(1.68793 0.634999 0)
(1.7937 0.58285 1.13755e-19)
(1.88889 0.519325 5.2908e-19)
(1.97262 0.449293 -1.3077e-19)
(2.04517 0.374663 1.53506e-18)
(2.10598 0.294773 -7.32709e-20)
(2.15387 0.208525 -3.64167e-19)
(2.18634 0.113644 3.38956e-19)
(1.52271 0.563349 7.91651e-20)
(1.60214 0.539642 1.09257e-19)
(1.6908 0.502084 -7.31684e-21)
(1.77641 0.452969 1.81916e-19)
(1.85316 0.397912 -1.57695e-19)
(1.91941 0.341471 -3.86003e-19)
(1.97663 0.284003 -1.06176e-19)