/*--------------------------------*- C++ -*----------------------------------*\
  =========                 |
  \\      /  F ield         | OpenFOAM: The Open Source CFD Toolbox
   \\    /   O peration     | Website:  https://openfoam.org
    \\  /    A nd           | Version:  13
     \\/     M anipulation  |
\*---------------------------------------------------------------------------*/
FoamFile
{
    format      ascii;
    class       volScalarField;
    location    "2.4";
    object      p;
}
// * * * * * * * * * * * * * * * * * * * * * * * * * * * * * * * * * * * * * //

dimensions      [0 2 -2 0 0 0 0];

internalField   nonuniform List<scalar> 
1800
(
-1.52069
-1.5167
-1.50881
-1.49706
-1.48447
-1.47483
-1.47204
-1.4807
-1.50053
-1.55566
-1.54626
-1.54122
-1.5337
-1.52376
-1.5132
-1.50439
-1.49959
-1.50086
-1.50786
-1.53288
-1.59148
-1.58408
-1.57577
-1.56634
-1.55661
-1.5473
-1.53887
-1.53139
-1.52595
-1.52412
-1.65204
-1.64187
-1.63158
-1.62082
-1.60899
-1.59515
-1.57851
-1.55902
-1.53692
-1.51376
-1.72803
-1.71516
-1.7022
-1.6881
-1.67038
-1.64705
-1.61755
-1.58272
-1.54435
-1.50509
-1.81861
-1.80321
-1.78633
-1.76556
-1.73682
-1.69868
-1.65243
-1.60085
-1.54669
-1.49265
-1.9187
-1.9012
-1.87827
-1.84623
-1.8012
-1.74417
-1.6794
-1.61144
-1.54367
-1.47876
-2.0196
-1.9999
-1.96786
-1.91969
-1.85412
-1.77613
-1.69272
-1.60921
-1.52871
-1.45296
-2.1093
-2.08662
-2.04229
-1.97439
-1.88631
-1.78771
-1.68735
-1.59041
-1.49933
-1.41513
-2.17453
-2.14759
-2.08878
-1.99939
-1.88945
-1.77244
-1.65757
-1.54922
-1.44891
-1.3568
-1.09799
-1.10338
-1.11071
-1.12204
-1.13881
-1.16018
-1.1846
-1.20994
-1.23262
-1.24948
-1.25276
-1.25641
-1.26224
-1.27411
-1.29315
-1.31822
-1.34758
-1.37897
-1.40823
-1.43055
-1.40166
-1.40332
-1.40687
-1.41927
-1.44039
-1.46884
-1.50267
-1.53971
-1.57594
-1.60484
-1.51869
-1.51715
-1.51913
-1.53097
-1.5527
-1.58272
-1.61882
-1.6588
-1.70024
-1.73482
-1.58874
-1.58345
-1.58268
-1.59196
-1.61143
-1.63964
-1.67442
-1.7135
-1.754
-1.78862
-1.6119
-1.60334
-1.59899
-1.60342
-1.61722
-1.63976
-1.66948
-1.70436
-1.74196
-1.77588
-1.60048
-1.59044
-1.58272
-1.58051
-1.58522
-1.59765
-1.61762
-1.64397
-1.67513
-1.70651
-1.57208
-1.56292
-1.55332
-1.5449
-1.5397
-1.54018
-1.54807
-1.56387
-1.58754
-1.61703
-1.54127
-1.53436
-1.52462
-1.51236
-1.50007
-1.49149
-1.49009
-1.49816
-1.5172
-1.54538
-1.51976
-1.51507
-1.50614
-1.49295
-1.47846
-1.46684
-1.46244
-1.46867
-1.48658
-1.51432
-1.28498
-0.616674
-0.152099
0.0714464
0.087842
0.0845518
0.0649334
0.0443583
0.0255617
0.00876277
-1.45415
-0.735934
-0.199941
0.0544701
0.0819146
0.0813238
0.0628248
0.0429463
0.0246952
0.00840798
-1.62605
-0.864083
-0.2624
0.0293465
0.0722568
0.0759758
0.0596147
0.0409822
0.0235691
0.00796899
-1.76424
-0.980489
-0.333467
-0.0030982
0.0588583
0.0684618
0.0552696
0.0384388
0.0221723
0.00744344
-1.85258
-1.07913
-0.405758
-0.041548
0.0418797
0.0588165
0.0497737
0.035295
0.0204973
0.00683076
-1.88452
-1.15737
-0.474911
-0.0842417
0.0217545
0.047242
0.0431675
0.0315487
0.0185433
0.00613265
-1.86021
-1.21543
-0.539069
-0.129721
-0.00102797
0.0340636
0.0355697
0.0272328
0.0163214
0.00535572
-1.8049
-1.25567
-0.597398
-0.176705
-0.0261104
0.0195484
0.0271178
0.0224024
0.0138504
0.00451362
-1.74193
-1.28136
-0.649359
-0.223462
-0.0530006
0.0038502
0.01788
0.0170823
0.0111301
0.00361923
-1.66605
-1.29619
-0.696424
-0.268335
-0.0806294
-0.0126848
0.00797587
0.0112982
0.00814107
0.00267241
-1.55512
-1.23503
-0.691557
-0.294129
-0.106362
-0.0317536
-0.00462484
0.00352155
0.00400571
0.00138751
-1.35405
-1.08818
-0.647429
-0.308407
-0.132936
-0.0541501
-0.0199783
-0.00612404
-0.00107108
-0.000229611
-1.19777
-0.975083
-0.617595
-0.324095
-0.156351
-0.0737777
-0.0337335
-0.0148619
-0.00569115
-0.00167639
-1.0723
-0.883614
-0.593921
-0.341309
-0.18324
-0.0968885
-0.0494951
-0.024385
-0.0105306
-0.0031874
-0.967292
-0.815858
-0.584213
-0.364028
-0.209036
-0.116238
-0.0624722
-0.0323519
-0.0146454
-0.00442093
-0.880857
-0.765154
-0.582253
-0.389913
-0.237877
-0.137614
-0.0761365
-0.0401841
-0.0184803
-0.00551188
-0.808348
-0.728241
-0.589955
-0.420251
-0.266229
-0.155985
-0.0870908
-0.0462045
-0.0213805
-0.00624047
-0.751016
-0.70461
-0.602409
-0.448373
-0.291217
-0.171722
-0.0956549
-0.0512215
-0.0234784
-0.00666483
-0.715341
-0.695487
-0.611419
-0.463487
-0.303675
-0.179727
-0.100226
-0.0534407
-0.0244614
-0.00672699
-0.696285
-0.697128
-0.617317
-0.466997
-0.30751
-0.183183
-0.102739
-0.054866
-0.0252366
-0.00696834
-1.1978
-1.26604
-1.31609
-1.3585
-1.38858
-1.42523
-1.45779
-1.51394
-1.55235
-1.62511
-1.01756
-1.09145
-1.1486
-1.20065
-1.24018
-1.2812
-1.31276
-1.34852
-1.37926
-1.42155
-0.875128
-0.947624
-1.00821
-1.06075
-1.10329
-1.13959
-1.16924
-1.1954
-1.2205
-1.24644
-0.758212
-0.827839
-0.888724
-0.939307
-0.98203
-1.01584
-1.04468
-1.06822
-1.09051
-1.11145
-0.662836
-0.72962
-0.788406
-0.837225
-0.878675
-0.911798
-0.939682
-0.96233
-0.98184
-0.998541
-0.585688
-0.649798
-0.705835
-0.753032
-0.792659
-0.824825
-0.851041
-0.871912
-0.888601
-0.901697
-0.524455
-0.586109
-0.639698
-0.684965
-0.722507
-0.752783
-0.776753
-0.795198
-0.809245
-0.819574
-0.478424
-0.538086
-0.589757
-0.632855
-0.66826
-0.695987
-0.717542
-0.733129
-0.744634
-0.751856
-0.450757
-0.509339
-0.559614
-0.601184
-0.635239
-0.661114
-0.680819
-0.693758
-0.703029
-0.706779
-0.43827
-0.497123
-0.547773
-0.589975
-0.623861
-0.649782
-0.66883
-0.680869
-0.688249
-0.688126
0.319254
0.24505
0.160101
0.0691068
-0.0292442
-0.13743
-0.255351
-0.376411
-0.478305
-0.528171
0.105914
0.0255423
-0.0640474
-0.162084
-0.27048
-0.390953
-0.522388
-0.656452
-0.768155
-0.821526
-0.127943
-0.211515
-0.304027
-0.406678
-0.521663
-0.650322
-0.790943
-0.933935
-1.05241
-1.10725
-0.353614
-0.441134
-0.538333
-0.646753
-0.768278
-0.903859
-1.05157
-1.20146
-1.32367
-1.3776
-0.557998
-0.65075
-0.754028
-0.869093
-0.99757
-1.14014
-1.29321
-1.44968
-1.56906
-1.62282
-0.741994
-0.84006
-0.948963
-1.06975
-1.20386
-1.35214
-1.51018
-1.66305
-1.78063
-1.83299
-0.904653
-1.00701
-1.12017
-1.24486
-1.38243
-1.5327
-1.69021
-1.83923
-1.95124
-2.00024
-1.04996
-1.15375
-1.26771
-1.39291
-1.53023
-1.67859
-1.8315
-1.97254
-2.07481
-2.11898
-1.17569
-1.27745
-1.38906
-1.51151
-1.64501
-1.78738
-1.93084
-2.05867
-2.14796
-2.18636
-1.27884
-1.37647
-1.48334
-1.60002
-1.72589
-1.85765
-1.98649
-2.09656
-2.17086
-2.20323
1.72414
1.73807
1.75239
1.76597
1.77795
1.78766
1.79441
1.79824
1.80137
1.80523
1.6478
1.65847
1.66878
1.67766
1.68441
1.68833
1.68876
1.68602
1.68343
1.68388
1.55062
1.5571
1.56221
1.56506
1.56515
1.56178
1.55428
1.54331
1.53347
1.52979
1.43417
1.43591
1.43481
1.43032
1.42223
1.40984
1.39251
1.37135
1.35252
1.34401
1.29819
1.29418
1.28594
1.27323
1.25609
1.23375
1.20561
1.17318
1.14429
1.13041
1.14643
1.13656
1.12023
1.09791
1.07009
1.03608
0.995379
0.950102
0.909974
0.890009
0.978886
0.962579
0.938103
0.906206
0.867537
0.821351
0.767275
0.708153
0.655968
0.629657
0.804571
0.780797
0.745985
0.702177
0.650699
0.59087
0.522401
0.448809
0.38434
0.351616
0.628459
0.597047
0.551363
0.494749
0.429191
0.354094
0.269458
0.179865
0.102311
0.0632312
0.465563
0.416138
0.352599
0.27991
0.199093
0.108531
0.00800046
-0.097062
-0.186953
-0.231779
1.47425
1.45303
1.44691
1.44457
1.44202
1.44988
1.47061
1.50742
1.56777
1.6624
1.46726
1.44719
1.44133
1.43792
1.43455
1.43948
1.45708
1.48763
1.53705
1.6136
1.46083
1.44134
1.4356
1.43082
1.42648
1.42799
1.44214
1.46474
1.50071
1.55309
1.45494
1.43553
1.42974
1.42333
1.41783
1.41537
1.42587
1.43859
1.45923
1.48012
1.44955
1.4298
1.42378
1.41547
1.40858
1.4016
1.40831
1.40895
1.41331
1.39354
1.44467
1.42418
1.41772
1.40729
1.39871
1.38675
1.38939
1.37574
1.36317
1.29253
1.4403
1.4187
1.41156
1.39882
1.38822
1.37087
1.369
1.33891
1.30896
1.17544
1.43646
1.41337
1.4053
1.3901
1.37707
1.35408
1.34697
1.29871
1.2504
1.04365
1.43319
1.40822
1.39896
1.38116
1.36532
1.33653
1.3231
1.25529
1.18578
0.895369
1.43051
1.40326
1.39255
1.372
1.35315
1.31843
1.29836
1.21039
1.11765
0.742017
1.42786
1.39755
1.38437
1.36056
1.33652
1.29483
1.26418
1.15553
1.03978
0.596979
1.42651
1.39175
1.3753
1.34794
1.31762
1.27009
1.22645
1.1085
0.965462
0.574024
1.42712
1.38691
1.36649
1.33599
1.29896
1.2477
1.19078
1.07113
0.905311
0.563402
1.43028
1.38305
1.3579
1.32467
1.28072
1.22821
1.1578
1.04168
0.856546
0.559575
1.43654
1.38019
1.34945
1.31377
1.26268
1.21193
1.1276
1.01932
0.819686
0.56107
1.44661
1.37841
1.34141
1.30361
1.24507
1.19887
1.10121
1.00303
0.793745
0.563601
1.46005
1.37602
1.33169
1.29164
1.22759
1.18811
1.07922
0.990931
0.776471
0.566371
1.48504
1.37822
1.32547
1.28202
1.21239
1.17954
1.0619
0.982703
0.765696
0.569445
1.49709
1.37032
1.3122
1.26937
1.19985
1.17354
1.05042
0.978826
0.761049
0.573591
1.57329
1.3834
1.31543
1.26528
1.19539
1.17089
1.0446
0.97852
0.758962
0.577976
0.305211
0.130878
-0.0761592
-0.276156
-0.456321
-0.61839
-0.764002
-0.896714
-1.01315
-1.11517
0.257377
0.119668
-0.0372971
-0.195495
-0.34319
-0.479951
-0.605977
-0.725353
-0.833874
-0.933849
0.245953
0.129512
0.00354822
-0.126339
-0.25305
-0.374438
-0.489827
-0.599378
-0.70042
-0.793311
0.263772
0.156053
0.0433951
-0.069654
-0.181386
-0.290371
-0.396
-0.496635
-0.591527
-0.678769
0.286969
0.185627
0.0815073
-0.0210044
-0.121972
-0.221446
-0.319289
-0.413673
-0.503695
-0.586702
0.310497
0.214564
0.116775
0.0212471
-0.0724799
-0.165352
-0.25752
-0.347378
-0.433358
-0.513031
0.332357
0.241127
0.148298
0.0575523
-0.0316124
-0.120301
-0.208652
-0.295116
-0.377872
-0.454701
0.351655
0.264605
0.175852
0.0882346
0.00139437
-0.0853251
-0.171689
-0.256018
-0.336438
-0.410855
0.368215
0.284739
0.199213
0.113012
0.0262566
-0.0607047
-0.146883
-0.230589
-0.310192
-0.383929
0.381067
0.299672
0.215328
0.128355
0.0400541
-0.0481395
-0.134815
-0.218591
-0.297984
-0.371606
-1.17709
-1.14405
-1.07353
-0.983811
-0.891961
-0.807795
-0.735203
-0.675383
-0.628726
-0.595703
-1.22774
-1.19838
-1.1399
-1.06408
-0.984032
-0.909155
-0.843834
-0.789712
-0.747778
-0.71918
-1.22062
-1.19427
-1.1486
-1.08931
-1.02437
-0.96161
-0.90558
-0.858347
-0.821373
-0.796019
-1.1684
-1.14445
-1.11024
-1.06751
-1.01934
-0.970964
-0.926443
-0.888033
-0.857396
-0.835889
-1.08957
-1.068
-1.04259
-1.01343
-0.980538
-0.946295
-0.913435
-0.883777
-0.858831
-0.8392
-1.00338
-0.984758
-0.965486
-0.945478
-0.923856
-0.9012
-0.878902
-0.85806
-0.840103
-0.826055
-0.924526
-0.909669
-0.894878
-0.880217
-0.86528
-0.850249
-0.835688
-0.822281
-0.810482
-0.800109
-0.860628
-0.849982
-0.839065
-0.827696
-0.816001
-0.804422
-0.793806
-0.784323
-0.778296
-0.775305
-0.811981
-0.805651
-0.798235
-0.789297
-0.779237
-0.769058
-0.760219
-0.754595
-0.751614
-0.76174
-0.775755
-0.772708
-0.767664
-0.759997
-0.750298
-0.740414
-0.732614
-0.730599
-0.733437
-0.759194
-0.755009
-0.752976
-0.748103
-0.739641
-0.729331
-0.718832
-0.710776
-0.708319
-0.712216
-0.717955
-0.755654
-0.7529
-0.747778
-0.739908
-0.730375
-0.720987
-0.71401
-0.711803
-0.716044
-0.72248
-0.769442
-0.765855
-0.761811
-0.757498
-0.753506
-0.750916
-0.750934
-0.754637
-0.762701
-0.772828
-0.781888
-0.77926
-0.777674
-0.77789
-0.780382
-0.785664
-0.794137
-0.805923
-0.820414
-0.834613
-0.787056
-0.786899
-0.788188
-0.791888
-0.798534
-0.808244
-0.820844
-0.835902
-0.852615
-0.864254
-0.786009
-0.788864
-0.793121
-0.799466
-0.808803
-0.821237
-0.836354
-0.853275
-0.871096
-0.890998
-0.78858
-0.79412
-0.800574
-0.80865
-0.819506
-0.833145
-0.848871
-0.865754
-0.883826
-0.905258
-0.810075
-0.816766
-0.825047
-0.834831
-0.847336
-0.862411
-0.879137
-0.896289
-0.913739
-0.932637
-0.866586
-0.873823
-0.882518
-0.893059
-0.906696
-0.92301
-0.940891
-0.959098
-0.976093
-0.991566
-0.963723
-0.970424
-0.978765
-0.989758
-1.00476
-1.02314
-1.04359
-1.06429
-1.08265
-1.09697
-0.802553
-0.805201
-0.516406
-0.289206
-0.0887232
0.0188516
0.0439258
0.0400787
0.0262211
0.00962979
-0.882406
-0.813672
-0.432314
-0.201915
-0.0457511
0.0312189
0.046744
0.0403444
0.0260068
0.00951479
-0.974438
-0.792798
-0.345311
-0.123886
-0.00993181
0.0424486
0.0501879
0.0411609
0.0260716
0.00948136
-1.0445
-0.746918
-0.27184
-0.0604094
0.0185336
0.052682
0.0538722
0.0422506
0.0262722
0.00948354
-1.08704
-0.687365
-0.21756
-0.0138108
0.0404734
0.0619053
0.0574514
0.0433863
0.0265053
0.00949228
-1.08598
-0.619501
-0.175777
0.0213206
0.0584694
0.0703962
0.0606843
0.0444062
0.0267034
0.0094881
-1.05683
-0.546871
-0.142029
0.0487863
0.0729223
0.0771669
0.0632847
0.045178
0.0268101
0.00945351
-1.04161
-0.495892
-0.118032
0.0683486
0.0828578
0.0820239
0.0650934
0.0456146
0.0267816
0.0093743
-1.0708
-0.48947
-0.111035
0.0786108
0.0884632
0.0848736
0.0660141
0.0456544
0.0265826
0.00923887
-1.15182
-0.530103
-0.122235
0.079592
0.0900489
0.0857196
0.0659801
0.0452492
0.0261841
0.00903766
-0.618433
-0.628378
-0.595278
-0.427319
-0.160017
-0.00723949
0.038926
0.0407444
0.027393
0.0101694
-0.610736
-0.619741
-0.597965
-0.436608
-0.163211
-0.00677695
0.0393698
0.0407936
0.0272849
0.0100942
-0.629128
-0.641801
-0.6041
-0.436392
-0.164582
-0.00549833
0.0395226
0.040494
0.0270088
0.00999017
-0.673639
-0.690679
-0.600439
-0.426365
-0.155709
-0.00130298
0.0400475
0.0401152
0.0267069
0.00987228
-0.737599
-0.76027
-0.570867
-0.362237
-0.127819
0.0071115
0.0415569
0.0400503
0.0265256
0.00978687
-0.563526
-0.681729
-0.761535
-0.808806
-0.820414
-0.815582
-0.80168
-0.766094
-0.736521
-0.69421
-0.564112
-0.684092
-0.762389
-0.808645
-0.814654
-0.811801
-0.79403
-0.7562
-0.732596
-0.686389
-0.566171
-0.687379
-0.764568
-0.809729
-0.811325
-0.811972
-0.785966
-0.758638
-0.73672
-0.704059
-0.571259
-0.694051
-0.771095
-0.814427
-0.815388
-0.814366
-0.785207
-0.769165
-0.750539
-0.75272
-0.580102
-0.704882
-0.782213
-0.82335
-0.825744
-0.817567
-0.792336
-0.776252
-0.761516
-0.796971
1.44682
1.43944
1.42592
1.409
1.38949
1.36646
1.33936
1.30995
1.28554
1.27472
1.53505
1.53841
1.53587
1.52927
1.51968
1.50665
1.48975
1.47037
1.45433
1.44781
1.61937
1.62741
1.63118
1.63191
1.63035
1.62609
1.6186
1.60866
1.60049
1.59802
1.69216
1.70418
1.71369
1.72114
1.72675
1.73003
1.73034
1.72808
1.72627
1.72742
1.75243
1.76748
1.78101
1.79311
1.80375
1.81243
1.81851
1.8221
1.82529
1.8293
1.79587
1.81283
1.82941
1.84523
1.85996
1.87304
1.88377
1.89198
1.89903
1.90537
1.82176
1.83989
1.85836
1.87647
1.89365
1.90931
1.92275
1.93368
1.94305
1.95081
1.82817
1.84657
1.86578
1.88489
1.90312
1.91984
1.93437
1.94634
1.95658
1.96485
1.81435
1.83217
1.85097
1.86966
1.88738
1.90348
1.91726
1.92842
1.93792
1.94574
1.77977
1.79613
1.81331
1.83016
1.8458
1.85955
1.87074
1.87918
1.88632
1.89266
-0.426198
-0.465149
-0.516467
-0.58063
-0.658224
-0.74851
-0.848385
-0.948091
-1.02799
-1.06455
-0.217513
-0.261986
-0.317615
-0.385078
-0.465368
-0.558515
-0.663181
-0.769278
-0.855559
-0.894334
0.0184558
-0.0309886
-0.0904703
-0.160375
-0.241867
-0.335491
-0.43973
-0.546298
-0.637817
-0.677333
0.262908
0.21019
0.14866
0.0782195
-0.002247
-0.0934445
-0.194183
-0.298033
-0.386385
-0.427107
0.497963
0.444766
0.384126
0.316105
0.239656
0.153862
0.0594751
-0.0377764
-0.119707
-0.158746
0.710627
0.660659
0.604565
0.54242
0.473167
0.39575
0.310657
0.223003
0.149494
0.114031
0.898222
0.854814
0.806366
0.752823
0.693061
0.625967
0.551901
0.475449
0.41158
0.380791
1.06753
1.03179
0.991894
0.947703
0.897976
0.841583
0.778841
0.713858
0.659831
0.634056
1.22624
1.19703
1.16374
1.12718
1.08619
1.0396
0.987609
0.933728
0.889268
0.868452
1.36449
1.34132
1.31319
1.28324
1.25082
1.21455
1.17411
1.13205
1.09751
1.0817
1.59296
1.49524
1.48154
1.47571
1.47762
1.4989
1.52146
1.55554
1.5698
1.53995
1.57524
1.49397
1.48126
1.47648
1.47763
1.49851
1.52294
1.56066
1.5891
1.59411
1.55921
1.49163
1.47986
1.47615
1.47678
1.49704
1.52331
1.56546
1.60809
1.6468
1.54474
1.48842
1.47759
1.47483
1.47509
1.49455
1.52225
1.56761
1.62191
1.68703
1.53166
1.48453
1.4746
1.47263
1.47261
1.49111
1.51962
1.56717
1.63076
1.71687
1.51979
1.48008
1.471
1.46963
1.46936
1.4867
1.51538
1.56408
1.63434
1.73574
1.50899
1.47519
1.46689
1.46588
1.46533
1.48132
1.50954
1.55826
1.63241
1.74364
1.49914
1.46996
1.46236
1.46145
1.46055
1.47495
1.50214
1.54967
1.62481
1.74047
1.49012
1.46448
1.45748
1.45638
1.45505
1.46759
1.49318
1.53834
1.61158
1.7259
1.48185
1.45881
1.45231
1.45074
1.44887
1.45924
1.48266
1.52428
1.5926
1.69985
1.76052
1.49927
1.47253
1.46323
1.46985
1.489
1.50128
1.51795
1.48101
1.44815
1.68611
1.49314
1.47332
1.46556
1.47093
1.4899
1.50195
1.51925
1.48378
1.44542
1.66317
1.4978
1.47727
1.46846
1.47245
1.49165
1.50448
1.52337
1.49408
1.44763
1.63632
1.49725
1.4795
1.47134
1.47435
1.49415
1.50929
1.53141
1.51224
1.45947
1.61295
1.49617
1.48089
1.47385
1.47627
1.49694
1.51517
1.54239
1.53711
1.47975
1.25201
1.16366
1.04344
0.887484
0.697864
0.480862
0.246657
0.0102597
-0.211825
-0.404889
1.24679
1.16134
1.04614
0.894768
0.709821
0.496059
0.262361
0.0235058
-0.203321
-0.401691
1.2578
1.16832
1.05085
0.900912
0.719327
0.507905
0.274095
0.0327832
-0.198046
-0.400689
1.28955
1.18685
1.05906
0.906829
0.726828
0.516573
0.282036
0.0382694
-0.196116
-0.40266
1.34149
1.21851
1.0727
0.912726
0.731143
0.521215
0.286506
0.0409395
-0.197003
-0.407972
)
;

boundaryField
{
    left
    {
        type            zeroGradient;
    }
    right
    {
        type            fixedValue;
        value           uniform 0;
    }
    down
    {
        type            zeroGradient;
    }
    up
    {
        type            zeroGradient;
    }
    cylinder
    {
        type            zeroGradient;
    }
    defaultFaces
    {
        type            empty;
    }
}


// ************************************************************************* //
