/*--------------------------------*- C++ -*----------------------------------*\
  =========                 |
  \\      /  F ield         | OpenFOAM: The Open Source CFD Toolbox
   \\    /   O peration     | Website:  https://openfoam.org
    \\  /    A nd           | Version:  13
     \\/     M anipulation  |
\*---------------------------------------------------------------------------*/
FoamFile
{
    format      ascii;
    class       volVectorField;
    location    "2.4";
    object      U;
}
// * * * * * * * * * * * * * * * * * * * * * * * * * * * * * * * * * * * * * //

dimensions      [0 1 -1 0 0 0 0];

internalField   nonuniform List<vector> 
1800
(
(-0.0350929 0.0291552 9.30652e-21)
(-0.0812783 0.0614126 4.20658e-21)
(-0.0900652 0.0815694 -7.27279e-20)
(-0.0546938 0.0902839 6.86941e-20)
(0.0307682 0.0880481 1.46095e-19)
(0.168703 0.0751329 4.35259e-20)
(0.358031 0.0537034 8.00524e-22)
(0.589157 0.0230264 1.72611e-19)
(0.880349 -0.00129637 2.08752e-19)
(1.06291 -0.00840823 2.29834e-19)
(-0.045427 0.0338848 7.5427e-21)
(-0.0766683 0.0566573 -7.11395e-20)
(-0.044891 0.057173 5.589e-22)
(0.0516275 0.0413182 -6.68308e-20)
(0.214838 0.0137273 2.56711e-20)
(0.440657 -0.0220306 1.02118e-19)
(0.717137 -0.0621028 4.721e-21)
(1.02442 -0.105347 -2.4474e-20)
(1.35348 -0.141186 -1.86002e-19)
(1.59286 -0.178765 1.38974e-19)
(-0.0467966 0.0310233 6.35054e-21)
(-0.0454728 0.0415129 2.29255e-20)
(0.0477031 0.0265372 8.31658e-21)
(0.227898 -0.005518 -1.5162e-20)
(0.486522 -0.0466305 -1.53085e-19)
(0.803659 -0.0902351 2.63977e-20)
(1.14948 -0.131442 4.79522e-20)
(1.49302 -0.166482 -1.94944e-20)
(1.80026 -0.194488 -2.42707e-22)
(2.07494 -0.231842 3.05111e-21)
(-0.036068 0.0213564 -9.48457e-21)
(0.0200998 0.0142364 -2.97825e-20)
(0.196808 -0.0148479 -3.03044e-20)
(0.477556 -0.0556685 3.0502e-20)
(0.833018 -0.0983896 2.82726e-20)
(1.21958 -0.136181 1.1398e-20)
(1.59171 -0.165643 -4.0876e-21)
(1.91298 -0.186877 1.21196e-19)
(2.1701 -0.202091 1.29398e-19)
(2.34182 -0.212163 -6.72126e-20)
(-0.0114703 0.00790551 6.88581e-20)
(0.125466 -0.0176899 6.39813e-20)
(0.405976 -0.0554549 -4.5627e-20)
(0.790726 -0.0940102 -5.58356e-20)
(1.2195 -0.125217 -1.73564e-19)
(1.62799 -0.146211 2.65553e-21)
(1.96955 -0.158273 2.53617e-19)
(2.22478 -0.164619 1.10727e-19)
(2.39211 -0.16652 -6.17842e-22)
(2.50007 -0.176376 -1.14988e-19)
(0.0297137 -0.00688609 -6.55361e-20)
(0.273364 -0.0458951 -1.27346e-20)
(0.667944 -0.081947 2.36251e-19)
(1.13843 -0.105979 -8.74789e-20)
(1.59549 -0.11713 -1.93985e-19)
(1.97351 -0.119355 4.20907e-19)
(2.24672 -0.117464 -4.19468e-19)
(2.42064 -0.11497 -5.89689e-19)
(2.52036 -0.113894 4.77244e-19)
(2.56439 -0.115412 3.2523e-21)
(0.0890204 -0.0195418 6.90767e-20)
(0.459255 -0.0607613 -1.64239e-19)
(0.960429 -0.0820359 -6.10942e-19)
(1.47865 -0.0827547 3.17001e-19)
(1.91616 -0.0729908 7.06422e-19)
(2.23084 -0.0613115 -2.71103e-21)
(2.42788 -0.0521044 -1.48492e-18)
(2.53572 -0.0466949 1.12893e-20)
(2.58412 -0.0438322 1.73817e-18)
(2.59968 -0.0478997 4.75185e-19)
(0.165044 -0.0260696 6.10274e-20)
(0.669771 -0.053901 3.58773e-19)
(1.25256 -0.0486454 5.48167e-19)
(1.7762 -0.0240652 -1.09021e-19)
(2.16307 0.00142952 -6.21349e-19)
(2.40668 0.0199994 -2.37024e-19)
(2.53837 0.0306044 0)
(2.59681 0.0348999 7.14188e-19)
(2.61372 0.0347205 -1.4636e-20)
(2.60639 0.0299251 -6.72891e-19)
(0.253399 -0.022488 5.12757e-20)
(0.885699 -0.0196851 4.29482e-19)
(1.51632 0.0191238 8.19163e-19)
(2.01353 0.0654348 -8.88217e-19)
(2.33797 0.0998202 -7.79949e-19)
(2.51659 0.119403 2.99032e-19)
(2.59716 0.127376 -1.40224e-18)
(2.62182 0.127963 -1.05966e-18)
(2.61778 0.124458 1.2893e-18)
(2.5992 0.116204 1.1204e-18)
(0.347346 -0.0058562 -1.78827e-20)
(1.08746 0.0429909 3.43817e-19)
(1.73407 0.116827 2.05352e-19)
(2.18711 0.178856 -1.69321e-18)
(2.44962 0.215871 4.05975e-20)
(2.57429 0.231713 3.31606e-18)
(2.61747 0.233872 -1.91498e-18)
(2.61966 0.228668 -1.10908e-18)
(2.60323 0.219638 3.94727e-19)
(2.57665 0.20714 -9.00387e-19)
(-0.0156231 0.249566 2.89205e-19)
(-0.0712142 0.468785 -1.44763e-19)
(-0.140034 0.535864 1.20369e-21)
(-0.212316 0.532081 -3.85682e-20)
(-0.280451 0.500269 2.25833e-21)
(-0.343143 0.457341 1.88566e-19)
(-0.40059 0.408179 1.79982e-19)
(-0.452446 0.353998 -2.86507e-19)
(-0.49619 0.295603 2.41326e-20)
(-0.527993 0.234418 -7.13497e-20)
(-0.03623 0.293185 -1.09002e-20)
(-0.096185 0.572589 1.91461e-20)
(-0.156443 0.670447 1.04949e-20)
(-0.21522 0.677423 4.39245e-20)
(-0.269096 0.645719 -2.06731e-19)
(-0.317597 0.597966 1.84944e-19)
(-0.36098 0.541319 -2.89924e-19)
(-0.399061 0.477489 -3.80127e-19)
(-0.429051 0.407333 1.76641e-19)
(-0.444737 0.332389 -5.18397e-20)
(-0.0569855 0.302906 -9.89717e-20)
(-0.121595 0.626467 5.29241e-20)
(-0.17041 0.760259 1.13892e-20)
(-0.210208 0.786974 -2.33905e-19)
(-0.243974 0.762258 -7.42691e-20)
(-0.272208 0.714293 7.8748e-19)
(-0.295177 0.653585 -3.32319e-19)
(-0.312937 0.582832 -3.40448e-19)
(-0.323356 0.50303 3.5885e-19)
(-0.317731 0.415576 1.60461e-19)
(-0.0708849 0.276449 -9.59242e-20)
(-0.13938 0.618171 1.22393e-21)
(-0.177097 0.788758 2.55693e-20)
(-0.197143 0.844804 -1.09324e-19)
(-0.207911 0.836508 3.23855e-19)
(-0.212083 0.795273 -2.65328e-19)
(-0.210512 0.735683 -2.55188e-19)
(-0.20292 0.662772 3.09612e-19)
(-0.1892 0.577323 2.79077e-20)
(-0.160407 0.480648 4.92078e-21)
(-0.0731102 0.222111 0)
(-0.143925 0.548387 2.80466e-20)
(-0.174159 0.746823 -1.2038e-19)
(-0.178464 0.837839 1.25009e-19)
(-0.168742 0.85555 3.24119e-19)
(-0.150414 0.829037 -2.91677e-19)
(-0.125527 0.776095 1.23313e-19)
(-0.0946504 0.70509 -1.95795e-20)
(-0.058531 0.617739 0)
(-0.00570632 0.516477 1.20125e-20)
(-0.0632279 0.155403 -1.36029e-20)
(-0.132195 0.432797 5.27485e-20)
(-0.15934 0.638362 -1.35269e-21)
(-0.154913 0.760162 -5.77242e-21)
(-0.130669 0.810539 1.94235e-20)
(-0.0938104 0.809272 2.27756e-19)
(-0.0483068 0.773079 -5.50954e-19)
(0.00391854 0.712688 -1.46956e-20)
(0.0602642 0.632248 6.07784e-19)
(0.131865 0.536285 8.11554e-21)
(-0.0458522 0.0933731 9.28966e-21)
(-0.107695 0.300454 1.12546e-19)
(-0.13482 0.484779 -4.6221e-20)
(-0.12948 0.617513 -7.21917e-21)
(-0.0994985 0.69323 -6.97707e-20)
(-0.051794 0.719727 1.43509e-19)
(0.00830247 0.70814 2.33197e-19)
(0.0772811 0.668271 3.12206e-19)
(0.150574 0.605242 -2.80059e-19)
(0.234573 0.52471 -3.38194e-19)
(-0.0287403 0.0485132 2.04683e-20)
(-0.0814549 0.184309 -6.74952e-20)
(-0.110092 0.325142 -9.07763e-20)
(-0.109406 0.441377 3.52152e-20)
(-0.081733 0.519999 -3.25155e-20)
(-0.0319056 0.560398 -5.98094e-20)
(0.0348242 0.567765 -1.14149e-19)
(0.114401 0.549 2.13572e-19)
(0.20189 0.508135 1.5301e-19)
(0.302655 0.444186 -2.59098e-19)
(-0.0196716 0.0255439 7.29753e-21)
(-0.0675609 0.106303 -1.32482e-19)
(-0.0984027 0.19774 1.66496e-19)
(-0.102918 0.27879 1.50464e-19)
(-0.0788289 0.338167 -7.02441e-20)
(-0.0277998 0.372665 9.45104e-20)
(0.0471084 0.383981 -4.14957e-20)
(0.143652 0.376124 2.68516e-19)
(0.258286 0.349786 1.35376e-19)
(0.408477 0.295955 -2.17892e-19)
(-0.0231985 0.0223763 -1.27371e-20)
(-0.0719455 0.0703266 -7.52683e-20)
(-0.100203 0.119884 -2.17788e-20)
(-0.0983676 0.161774 7.31267e-20)
(-0.0611193 0.190717 1.1853e-19)
(0.0134858 0.204607 -7.28538e-20)
(0.125495 0.204022 7.66007e-21)
(0.272751 0.190765 -7.5356e-20)
(0.455003 0.165352 1.42385e-19)
(0.672371 0.132224 1.57303e-19)
(-0.647759 -0.0783387 9.33239e-19)
(-0.447349 -0.445492 -1.21127e-18)
(0.1449 -0.416811 -1.75088e-19)
(0.45038 -0.341278 3.12109e-20)
(0.717112 -0.265601 -1.11252e-20)
(0.867822 -0.192871 -8.86205e-21)
(0.958813 -0.147777 -9.16696e-21)
(1.0159 -0.1036 -2.62129e-21)
(1.042 -0.0845748 1.17171e-20)
(1.06952 -0.0573552 2.28976e-21)
(-0.476619 -0.0679392 9.70151e-19)
(-0.265754 -0.567139 6.22228e-19)
(0.241792 -0.547579 -3.14107e-20)
(0.519505 -0.427663 -8.44897e-20)
(0.758384 -0.321973 -9.39176e-20)
(0.892777 -0.227106 0)
(0.974773 -0.16802 -1.49153e-20)
(1.02563 -0.115036 4.8454e-21)
(1.04922 -0.0916854 3.45719e-22)
(1.07329 -0.0611343 -4.52776e-21)
(-0.237459 -0.0736223 -6.14858e-19)
(-0.00769469 -0.662109 -3.05739e-19)
(0.397352 -0.658795 1.64075e-19)
(0.623298 -0.504618 3.81248e-20)
(0.818373 -0.371703 4.2502e-21)
(0.927514 -0.25752 1.34282e-21)
(0.995531 -0.18611 0)
(1.03758 -0.125267 0)
(1.05756 -0.0979676 -7.69309e-21)
(1.07744 -0.0644068 0)
(0.0386419 -0.0904433 -1.0983e-19)
(0.283457 -0.730295 7.52758e-19)
(0.592399 -0.74604 -9.44389e-20)
(0.753016 -0.568049 0)
(0.894932 -0.412046 1.41956e-19)
(0.97201 -0.282346 -2.54367e-20)
(1.02138 -0.201048 0)
(1.05193 -0.133789 2.52128e-20)
(1.06708 -0.103164 0)
(1.08196 -0.0670641 3.42708e-21)
(0.335899 -0.116604 -8.47155e-20)
(0.585702 -0.778261 3.64054e-19)
(0.799667 -0.809609 6.5088e-20)
(0.892088 -0.616914 0)
(0.980133 -0.442177 5.9619e-20)
(1.02345 -0.300613 6.27657e-20)
(1.05164 -0.212036 2.89327e-21)
(1.0686 -0.14012 1.99124e-22)
(1.07775 -0.10701 -6.61146e-21)
(1.08682 -0.0689969 1.68678e-21)
(0.615011 -0.145831 -8.46933e-20)
(0.884615 -0.80839 -4.39839e-19)
(1.00619 -0.850293 -3.48484e-20)
(1.02795 -0.651621 2.50456e-19)
(1.0647 -0.462939 -1.10847e-19)
(1.07687 -0.312508 3.56994e-20)
(1.0844 -0.218804 6.49131e-20)
(1.08704 -0.143944 -5.70883e-20)
(1.08944 -0.109276 -1.55753e-23)
(1.092 -0.0701049 -7.30294e-21)
(0.863833 -0.179374 1.28207e-19)
(1.16991 -0.824995 3.76787e-20)
(1.20553 -0.870846 -9.96887e-20)
(1.15603 -0.672952 -8.50138e-21)
(1.1431 -0.475655 -1.33332e-19)
(1.12752 -0.319014 -2.95868e-22)
(1.11701 -0.221685 -2.87308e-20)
(1.1062 -0.145225 -1.34841e-21)
(1.1018 -0.109824 7.75026e-21)
(1.09738 -0.0703124 -9.12066e-22)
(1.09606 -0.234682 -2.96623e-19)
(1.43497 -0.830726 7.77978e-20)
(1.39193 -0.873772 0)
(1.27525 -0.68193 6.31186e-20)
(1.21446 -0.481513 1.14925e-19)
(1.17295 -0.321311 -5.13863e-21)
(1.14709 -0.221441 -9.94808e-20)
(1.12472 -0.144259 2.51345e-20)
(1.1142 -0.108674 -3.95531e-22)
(1.10281 -0.0695912 -4.02476e-21)
(1.32957 -0.30992 3.93738e-19)
(1.67468 -0.823404 -2.0186e-19)
(1.56031 -0.859922 1.28763e-19)
(1.38465 -0.679256 -4.17213e-20)
(1.28018 -0.481372 1.8925e-21)
(1.21339 -0.32043 -1.03587e-19)
(1.17355 -0.219039 3.3688e-20)
(1.14141 -0.141658 8.32255e-23)
(1.12585 -0.106093 -1.02691e-21)
(1.10796 -0.0680012 4.7431e-21)
(1.58094 -0.375373 -3.07042e-19)
(1.88494 -0.801976 -1.72756e-19)
(1.70719 -0.832171 7.92968e-20)
(1.48358 -0.665365 -2.17978e-19)
(1.34164 -0.475008 -1.29241e-19)
(1.25053 -0.31657 -6.01336e-20)
(1.1968 -0.215138 -2.0096e-20)
(1.15584 -0.138138 0)
(1.13608 -0.102589 -1.13556e-20)
(1.1125 -0.0657067 8.33816e-21)
(2.09736 -0.46413 -8.7246e-19)
(2.14723 -0.760861 -3.30248e-19)
(1.88354 -0.777505 -1.86208e-19)
(1.60601 -0.628994 3.79225e-20)
(1.41852 -0.453163 3.51405e-20)
(1.2959 -0.3027 -4.17169e-20)
(1.22335 -0.204631 -2.63373e-20)
(1.17137 -0.130746 1.66228e-20)
(1.14677 -0.0963683 -6.68286e-21)
(1.11725 -0.0619897 -4.03597e-21)
(2.41662 -0.50953 1.49357e-19)
(2.23645 -0.716066 -6.88331e-19)
(1.89107 -0.678128 -1.95846e-19)
(1.61269 -0.521598 -1.35625e-20)
(1.43749 -0.369048 1.32369e-19)
(1.317 -0.247265 1.11277e-19)
(1.24045 -0.170302 7.48435e-20)
(1.1823 -0.110736 -8.32025e-21)
(1.15504 -0.0835134 2.55342e-20)
(1.12069 -0.0551301 3.96038e-21)
(2.42851 -0.458479 -6.76073e-20)
(2.21933 -0.588699 -2.7519e-20)
(1.95943 -0.568581 4.60232e-20)
(1.72036 -0.455475 1.32583e-35)
(1.53067 -0.328463 -1.76967e-20)
(1.3813 -0.218269 -3.34126e-34)
(1.28012 -0.147775 5.58905e-21)
(1.20405 -0.0950894 7.54272e-35)
(1.16791 -0.071762 -3.18663e-22)
(1.1255 -0.0481157 5.03582e-22)
(2.37567 -0.399769 -3.9485e-34)
(2.20464 -0.518125 2.10809e-19)
(1.96615 -0.495058 4.41973e-20)
(1.72066 -0.37222 0)
(1.52652 -0.250266 -6.97535e-20)
(1.38057 -0.159208 -5.62159e-20)
(1.28392 -0.107377 -4.14227e-20)
(1.20873 -0.0700843 4.15051e-34)
(1.17303 -0.0550858 -1.23675e-20)
(1.12747 -0.0389335 -9.43841e-22)
(2.32082 -0.353623 -4.11632e-20)
(2.18003 -0.441592 8.91229e-21)
(1.98245 -0.406994 0)
(1.75609 -0.294276 0)
(1.55532 -0.190954 0)
(1.39733 -0.117791 0)
(1.29295 -0.0777324 2.02732e-21)
(1.21293 -0.050041 4.84871e-34)
(1.17576 -0.0400883 -6.75024e-22)
(1.12761 -0.0298642 -1.52285e-34)
(2.27674 -0.31258 5.14075e-20)
(2.158 -0.382024 0)
(1.96126 -0.337443 0)
(1.73038 -0.220001 0)
(1.52925 -0.121617 0)
(1.37585 -0.0646683 0)
(1.2774 -0.0407137 -4.53337e-21)
(1.20189 -0.0265847 1.83404e-20)
(1.16805 -0.0236619 -8.37944e-22)
(1.12124 -0.020148 7.56135e-22)
(2.22665 -0.278463 0)
(2.08413 -0.321244 5.27568e-20)
(1.85734 -0.257051 -1.75638e-20)
(1.62046 -0.140765 0)
(1.43177 -0.0568744 -4.6479e-20)
(1.29987 -0.019418 -2.97214e-20)
(1.2214 -0.00989663 -2.2116e-20)
(1.16093 -0.00682206 -9.61774e-21)
(1.13583 -0.00923941 7.74465e-21)
(1.09561 -0.0111108 -2.9242e-21)
(2.07395 -0.231912 1.99175e-21)
(1.84612 -0.239707 6.91464e-21)
(1.56535 -0.165123 -1.19226e-20)
(1.33938 -0.0655366 -6.10454e-36)
(1.19775 -0.00435386 1.28725e-20)
(1.11825 0.0136752 -1.88885e-34)
(1.07983 0.0113359 -5.60687e-21)
(1.04816 0.00637836 -1.00751e-20)
(1.03838 0.000760422 -9.96382e-22)
(1.01161 -0.00406978 2.04284e-21)
(1.57455 -0.157408 8.39186e-22)
(1.25335 -0.129079 -6.51969e-21)
(0.964289 -0.0606666 1.29899e-20)
(0.810455 -0.00164922 0)
(0.765139 0.0250047 1.41971e-20)
(0.766363 0.0255454 9.98633e-21)
(0.780175 0.0175526 2.97222e-22)
(0.78451 0.0103188 3.17572e-21)
(0.792131 0.00496536 -4.19296e-21)
(0.783028 0.000199948 -1.82517e-21)
(0.512548 -0.0201597 0)
(0.303734 -0.00510982 0)
(0.180798 0.00333767 0)
(0.157791 0.00679422 0)
(0.191139 0.0076273 0)
(0.235895 0.00569255 0)
(0.271924 0.00362441 -5.96402e-21)
(0.293349 0.00207543 1.70888e-35)
(0.307028 0.00111626 -1.15631e-21)
(0.310251 0.000186063 -2.17059e-21)
(2.50849 0.180995 8.68327e-19)
(2.53935 0.105551 5.3825e-20)
(2.56294 0.0230066 -8.99905e-20)
(2.56962 -0.0365011 -2.9257e-19)
(2.58851 -0.114558 -5.71081e-20)
(2.54818 -0.146073 -9.01255e-20)
(2.58112 -0.230047 -3.10531e-19)
(2.39966 -0.204925 1.99509e-20)
(2.43923 -0.302744 0)
(1.8696 -0.150897 2.37343e-20)
(2.42877 0.140545 2.74789e-19)
(2.421 0.0955373 -3.21791e-19)
(2.50403 0.00837451 -6.64243e-20)
(2.45396 -0.0197463 -1.41527e-19)
(2.56434 -0.115204 1.15773e-19)
(2.45871 -0.121667 2.07466e-19)
(2.60896 -0.229067 -2.80104e-19)
(2.4347 -0.218038 -2.18734e-20)
(2.59167 -0.327841 -6.86056e-21)
(2.35177 -0.309549 1.11027e-19)
(2.3676 0.110706 -1.24895e-19)
(2.351 0.0730573 2.83028e-19)
(2.43668 0.000165694 1.79441e-19)
(2.38851 -0.0272929 -3.00014e-19)
(2.48355 -0.103611 -4.2027e-20)
(2.41249 -0.124876 4.31588e-19)
(2.50597 -0.200069 7.95123e-20)
(2.43545 -0.22579 -9.57136e-20)
(2.49737 -0.289019 -5.86708e-20)
(2.4541 -0.330686 -7.09868e-20)
(2.30941 0.0814528 -3.12026e-19)
(2.31578 0.0422711 -4.10101e-20)
(2.36661 -0.00868031 1.29915e-20)
(2.35794 -0.0449896 -2.18561e-20)
(2.39945 -0.0944963 -2.30992e-19)
(2.3864 -0.131585 -1.04745e-19)
(2.41114 -0.17582 2.49414e-19)
(2.40786 -0.218444 -1.02875e-20)
(2.41027 -0.254885 5.05105e-20)
(2.42273 -0.305572 2.57191e-20)
(2.25957 0.0530342 4.88899e-20)
(2.283 0.0158053 1.31272e-19)
(2.30871 -0.0204473 -3.39481e-20)
(2.32403 -0.0577821 2.25474e-19)
(2.33699 -0.0919328 -5.14415e-20)
(2.3492 -0.130503 -2.65385e-19)
(2.34896 -0.161266 4.29429e-20)
(2.36242 -0.20186 -1.12472e-19)
(2.35138 -0.229867 3.60277e-20)
(2.36652 -0.272927 1.40614e-20)
(2.21659 0.0250437 -1.70638e-19)
(2.24321 -0.00637147 -7.99275e-20)
(2.26121 -0.0345573 5.97728e-21)
(2.28087 -0.0664331 1.25647e-19)
(2.28851 -0.0934978 2.62565e-19)
(2.30319 -0.126109 -7.78857e-20)
(2.30169 -0.151819 7.19771e-21)
(2.31301 -0.185262 -5.71372e-20)
(2.3042 -0.209959 -7.67038e-20)
(2.31327 -0.244529 -6.12378e-20)
(2.16454 -0.000767136 -6.10876e-20)
(2.18913 -0.0256447 -1.32895e-19)
(2.20457 -0.0477908 -1.4195e-19)
(2.22328 -0.0730036 -2.71666e-19)
(2.23073 -0.0950936 5.54027e-20)
(2.24498 -0.12108 5.913e-20)
(2.24508 -0.143169 1.94875e-20)
(2.25651 -0.170114 7.28531e-20)
(2.2496 -0.19189 -1.03525e-19)
(2.26042 -0.219861 -4.70848e-20)
(2.0511 -0.0220704 6.20911e-20)
(2.07185 -0.0401815 4.41652e-20)
(2.07875 -0.05544 2.16583e-20)
(2.09755 -0.0742712 -4.44189e-20)
(2.09675 -0.0897975 -4.22397e-20)
(2.11583 -0.10991 -2.19422e-20)
(2.10714 -0.125885 -4.79304e-20)
(2.129 -0.147663 7.38042e-20)
(2.11144 -0.163741 -3.89743e-20)
(2.13938 -0.187204 4.169e-20)
(1.72767 -0.0354288 -5.74091e-20)
(1.73152 -0.0451927 -2.86029e-21)
(1.72272 -0.0531092 1.10432e-19)
(1.72796 -0.0633687 -7.46411e-21)
(1.71195 -0.0711369 -3.09811e-20)
(1.72246 -0.082963 6.40147e-20)
(1.69685 -0.0909222 -4.34895e-20)
(1.71679 -0.105086 2.74067e-20)
(1.67748 -0.11318 3.4928e-21)
(1.71312 -0.130113 -2.28881e-20)
(0.858035 -0.0145357 4.91847e-20)
(0.837533 -0.0142877 3.9124e-20)
(0.815946 -0.0141202 3.79862e-20)
(0.79641 -0.0141323 6.00845e-20)
(0.773849 -0.0146166 -3.02441e-20)
(0.756278 -0.0154267 -3.35568e-20)
(0.730691 -0.016846 1.41454e-20)
(0.717193 -0.0186777 -2.81552e-21)
(0.681033 -0.0200562 4.18964e-21)
(0.683186 -0.0270033 -5.90236e-21)
(1.57619 0.95506 -8.58858e-20)
(1.55971 1.00139 2.80816e-20)
(1.56299 1.0554 -6.44072e-19)
(1.57151 1.11692 2.45752e-19)
(1.57809 1.18205 1.20619e-18)
(1.57421 1.243 -1.53678e-19)
(1.53818 1.2778 -1.08073e-18)
(1.41978 1.23457 -1.01059e-20)
(1.12883 1.01613 -5.3732e-19)
(0.532234 0.492071 1.25777e-19)
(1.74201 0.923344 0)
(1.73059 0.968464 7.5213e-19)
(1.73035 1.01889 1.66525e-18)
(1.7386 1.07809 -1.02224e-18)
(1.74867 1.14197 -2.38891e-18)
(1.74847 1.20122 -1.60142e-19)
(1.71105 1.23273 -2.05039e-19)
(1.57847 1.18526 7.47397e-19)
(1.25 0.967129 1.11222e-18)
(0.584191 0.461423 4.4756e-19)
(1.89614 0.882377 7.11719e-20)
(1.8939 0.927078 0)
(1.89504 0.974457 -7.09651e-20)
(1.90393 1.02911 1.04354e-18)
(1.91619 1.08823 5.84728e-20)
(1.91763 1.14234 -2.3498e-18)
(1.87635 1.16767 1.48431e-18)
(1.72667 1.11503 8.86204e-19)
(1.35903 0.900223 -9.59157e-19)
(0.627506 0.421371 -2.90139e-19)
(2.03058 0.831865 -1.89678e-19)
(2.03891 0.874714 -1.39811e-19)
(2.04605 0.918572 2.89112e-19)
(2.05833 0.967839 -3.58241e-19)
(2.07299 1.02059 -1.66186e-18)
(2.07465 1.06732 -1.28588e-18)
(2.0267 1.08478 1.36214e-18)
(1.85744 1.02586 8.93817e-19)
(1.4483 0.816049 0)
(0.657755 0.372291 0)
(2.15038 0.764694 -9.61105e-19)
(2.16725 0.805194 -1.74748e-18)
(2.18122 0.845662 -6.73866e-19)
(2.19787 0.889866 -3.60324e-20)
(2.21461 0.936234 0)
(2.21456 0.975274 1.46135e-19)
(2.15731 0.981981 1.696e-19)
(1.96261 0.917304 2.11576e-19)
(1.5099 0.716914 -3.05339e-19)
(0.670976 0.314814 -7.66027e-20)
(2.25426 0.688162 1.15002e-18)
(2.27882 0.724264 -4.47245e-20)
(2.29938 0.760077 -1.34723e-18)
(2.32024 0.798326 0)
(2.33809 0.83685 0)
(2.33364 0.866161 0)
(2.26095 0.864241 1.56069e-18)
(2.03476 0.794394 -1.72687e-18)
(1.5397 0.603803 -1.10307e-18)
(0.664575 0.251616 1.09929e-20)
(2.34597 0.598028 -1.50595e-18)
(2.37539 0.629961 -3.16245e-18)
(2.40064 0.661275 -5.48079e-21)
(2.42409 0.693641 6.37388e-19)
(2.44036 0.724372 -4.08858e-20)
(2.42661 0.744161 1.3532e-18)
(2.33202 0.733079 -7.43359e-19)
(2.07012 0.658962 -2.00818e-18)
(1.53267 0.481954 1.25979e-19)
(0.637256 0.186761 9.44183e-20)
(2.42452 0.503968 -1.18626e-18)
(2.45678 0.529862 1.74185e-20)
(2.48426 0.555636 4.48537e-19)
(2.50758 0.581381 -4.31752e-19)
(2.51836 0.603746 6.67315e-19)
(2.48954 0.61356 1.79203e-18)
(2.36609 0.593091 -1.74934e-19)
(2.06254 0.516351 -1.06784e-18)
(1.48464 0.357719 2.47454e-19)
(0.589008 0.124549 4.50137e-20)
(2.48997 0.403335 4.36073e-19)
(2.52243 0.425012 9.02977e-20)
(2.54939 0.44541 -4.52987e-19)
(2.56914 0.464346 -1.04802e-18)
(2.56936 0.478197 8.1385e-20)
(2.51822 0.47826 6.90388e-20)
(2.35752 0.449591 -1.34313e-18)
(2.00664 0.373296 5.60457e-19)
(1.39356 0.238168 1.64062e-19)
(0.521693 0.0693402 -8.39582e-20)
(2.5407 0.305451 8.2165e-19)
(2.57132 0.322031 -1.22168e-18)
(2.59495 0.336234 1.88354e-19)
(2.6067 0.347815 2.41905e-18)
(2.58963 0.353007 1.19024e-18)
(2.50708 0.344016 -2.56188e-18)
(2.29992 0.30931 -2.39966e-18)
(1.89793 0.237512 1.04021e-18)
(1.25979 0.130894 -2.96677e-20)
(0.439187 0.0250181 -7.38497e-20)
(0.535269 0.401722 -1.50437e-19)
(0.495198 0.415671 -1.58726e-19)
(0.450171 0.430577 6.60439e-20)
(0.400782 0.4466 -2.18618e-19)
(0.346699 0.463608 -1.56038e-20)
(0.28709 0.480176 2.07778e-19)
(0.221013 0.490414 2.93127e-20)
(0.148951 0.477335 9.69592e-21)
(0.0778674 0.403797 2.33782e-20)
(0.0160831 0.207076 1.21894e-20)
(0.581173 0.507005 1.24316e-19)
(0.541976 0.527471 1.57348e-19)
(0.498647 0.54947 4.93465e-20)
(0.451365 0.573175 -4.41048e-20)
(0.399489 0.598351 -2.08079e-19)
(0.34192 0.62304 -2.00219e-20)
(0.276997 0.639429 4.44438e-20)
(0.203305 0.625076 4.41002e-20)
(0.124 0.530611 -1.31698e-19)
(0.0399029 0.272914 -4.56428e-20)
(0.644763 0.605161 -9.74791e-20)
(0.606785 0.631368 -8.34598e-20)
(0.565739 0.659572 9.07781e-20)
(0.521351 0.690248 6.03811e-20)
(0.472705 0.723268 -8.24671e-20)
(0.418391 0.756226 -1.41669e-20)
(0.355688 0.779339 -1.13697e-19)
(0.280312 0.764613 -8.84241e-20)
(0.189565 0.650573 -7.2833e-20)
(0.0737868 0.334835 1.41466e-22)
(0.725251 0.699416 2.33206e-20)
(0.689073 0.731928 -6.1291e-20)
(0.651264 0.766322 -7.73697e-20)
(0.610593 0.803295 -7.04416e-20)
(0.565723 0.842851 -6.71664e-20)
(0.515045 0.882262 -8.25113e-21)
(0.454789 0.909994 -2.96427e-19)
(0.37722 0.893092 6.39951e-20)
(0.272 0.759525 -3.33824e-19)
(0.116344 0.390274 5.01873e-20)
(0.818802 0.77805 1.29176e-20)
(0.785101 0.815529 1.73285e-20)
(0.751777 0.855419 -5.15992e-20)
(0.716742 0.898774 -2.8272e-19)
(0.677875 0.945373 1.30276e-19)
(0.632762 0.9918 4.45205e-20)
(0.576001 1.02477 4.16693e-20)
(0.495643 1.00668 -1.88185e-19)
(0.372097 0.855703 4.01574e-19)
(0.16747 0.438442 2.92015e-19)
(0.928156 0.855212 -1.04274e-19)
(0.896031 0.89712 -1.98462e-19)
(0.86589 0.940289 1.58306e-20)
(0.835095 0.987196 1.03988e-19)
(0.801514 1.03822 3.81826e-19)
(0.76224 1.0893 2.80189e-19)
(0.709734 1.12499 6.71134e-19)
(0.626783 1.10335 2.76014e-19)
(0.483189 0.934919 1.52902e-19)
(0.22412 0.476516 2.12859e-19)
(1.04384 0.906918 -1.12755e-19)
(1.01776 0.953687 6.435e-19)
(0.995385 1.00145 4.18275e-19)
(0.972153 1.05271 -5.36522e-19)
(0.945304 1.10804 -2.67289e-19)
(0.911831 1.16339 7.00464e-19)
(0.862633 1.20188 -1.10565e-19)
(0.775013 1.17771 -4.71453e-19)
(0.607031 0.994934 2.30583e-20)
(0.285985 0.503785 2.64384e-19)
(1.1662 0.959059 3.18309e-19)
(1.14018 1.00618 6.16919e-20)
(1.12246 1.05431 -8.0361e-19)
(1.10729 1.10749 1.72432e-19)
(1.08995 1.16547 6.08816e-19)
(1.06535 1.22275 -3.37719e-19)
(1.02146 1.26084 -1.04304e-19)
(0.929483 1.23127 -1.93735e-19)
(0.735517 1.03441 1.96484e-20)
(0.349341 0.51903 -3.10665e-19)
(1.2978 0.976998 1.95658e-20)
(1.28242 1.02807 -5.87584e-19)
(1.27211 1.07722 -4.92274e-21)
(1.26249 1.13145 4.97299e-19)
(1.25094 1.1918 -5.13929e-19)
(1.23231 1.25185 1.00489e-18)
(1.19145 1.29079 6.75755e-19)
(1.09238 1.25748 -1.00033e-18)
(0.868539 1.05054 -7.78066e-20)
(0.413082 0.521723 -3.42908e-19)
(1.40236 0.985531 -3.5149e-19)
(1.39837 1.03757 -3.31263e-19)
(1.40545 1.08862 3.11666e-19)
(1.41081 1.1438 8.12072e-19)
(1.41088 1.2038 2.92874e-19)
(1.40096 1.26254 -8.3046e-19)
(1.36376 1.29853 1.03018e-19)
(1.25653 1.25949 2.25707e-19)
(1.00058 1.04464 -3.05402e-19)
(0.474636 0.512608 -2.43682e-19)
(0.986472 0.0161964 8.89613e-22)
(1.0153 0.0391205 -1.90312e-20)
(1.02107 0.0512726 -1.55981e-20)
(1.01971 0.0797045 0)
(1.02854 0.100788 2.00511e-20)
(1.01832 0.136679 2.85706e-20)
(0.994457 0.171045 3.85449e-20)
(0.945162 0.203155 8.3521e-20)
(0.859566 0.266292 -1.24281e-19)
(0.710019 0.332332 -1.93615e-19)
(0.986826 0.0143314 3.98861e-20)
(1.01383 0.0371714 -6.18142e-20)
(1.02029 0.0496756 1.72229e-22)
(1.01817 0.0782073 -1.97988e-20)
(1.02925 0.101852 9.95526e-21)
(1.02073 0.141387 -1.44054e-20)
(1.00024 0.181591 -8.98156e-20)
(0.958264 0.223285 0)
(0.875552 0.303501 2.57863e-19)
(0.749345 0.401397 -2.64989e-19)
(0.986857 0.0126807 -2.94515e-20)
(1.01305 0.0353633 1.71525e-20)
(1.01987 0.0480603 4.19222e-20)
(1.01827 0.0769587 1.04113e-20)
(1.03028 0.10243 -2.38763e-20)
(1.02564 0.146342 1.15742e-21)
(1.00622 0.191081 -6.18595e-20)
(0.975737 0.243145 -5.59545e-21)
(0.894076 0.339076 -1.97029e-23)
(0.802645 0.467687 7.50413e-19)
(0.9866 0.0111732 -3.25616e-20)
(1.01288 0.0336523 2.50711e-21)
(1.01985 0.0462912 3.42896e-20)
(1.01975 0.0760289 2.20241e-20)
(1.03184 0.102398 -1.19097e-20)
(1.03275 0.151817 -1.65769e-20)
(1.01268 0.199237 8.9217e-20)
(0.997341 0.26322 -1.54202e-21)
(0.91507 0.371874 -2.83049e-19)
(0.869537 0.529768 9.43822e-20)
(0.986093 0.00975615 2.27669e-20)
(1.01321 0.0319735 -3.23878e-20)
(1.02036 0.0442838 -2.73575e-20)
(1.02225 0.0754471 1.30106e-20)
(1.03425 0.101672 0)
(1.0415 0.157929 0)
(1.02035 0.205879 7.45412e-20)
(1.02186 0.283613 1.61697e-22)
(0.940618 0.401526 -1.28543e-19)
(0.94655 0.586036 9.49185e-20)
(0.985373 0.00838692 6.40777e-21)
(1.01394 0.0302364 2.63425e-20)
(1.02156 0.0420112 -7.36972e-20)
(1.02543 0.0751787 -2.52177e-20)
(1.03787 0.100247 -6.43383e-22)
(1.05143 0.164674 6.93918e-20)
(1.02957 0.210768 1.13995e-19)
(1.04965 0.304835 -9.10933e-22)
(0.967944 0.425971 2.1368e-19)
(1.03957 0.641931 -2.23466e-19)
(0.984463 0.007029 -2.513e-20)
(1.01502 0.0283274 1.40397e-20)
(1.02357 0.039504 -1.98591e-20)
(1.02894 0.0750809 -5.36699e-20)
(1.04313 0.0982454 2.01805e-21)
(1.06177 0.171833 -1.65576e-21)
(1.04166 0.214101 -6.46447e-21)
(1.07775 0.326119 -2.33226e-19)
(1.00543 0.446208 1.56459e-19)
(1.1274 0.682155 -5.52603e-19)
(0.983366 0.0056586 -4.15669e-21)
(1.01643 0.0261257 -4.10366e-20)
(1.0264 0.0368349 4.01326e-20)
(1.03262 0.0749486 2.86768e-20)
(1.05025 0.0958732 1.04253e-21)
(1.07227 0.179022 -8.00118e-20)
(1.05657 0.216236 -6.23669e-20)
(1.10841 0.347624 4.1472e-19)
(1.04215 0.462998 1.56425e-20)
(1.24498 0.739162 8.65501e-19)
(0.982071 0.00425023 1.7388e-20)
(1.0182 0.0235238 1.88932e-20)
(1.03002 0.0341019 4.62237e-20)
(1.03646 0.0746509 -3.15508e-20)
(1.05932 0.0932512 -8.35218e-20)
(1.08246 0.186229 1.24426e-21)
(1.07575 0.215453 -8.53654e-20)
(1.1386 0.36704 5.3534e-19)
(1.09943 0.463313 -9.44825e-21)
(1.31575 0.75522 -1.20161e-18)
(0.980569 0.00287954 4.6294e-22)
(1.02034 0.0204953 2.98146e-20)
(1.0343 0.031532 1.54612e-20)
(1.04067 0.0739038 -6.35143e-20)
(1.0693 0.0925804 -8.09096e-20)
(1.09202 0.193245 -6.70972e-20)
(1.09612 0.221842 -1.55288e-19)
(1.16487 0.388929 -4.80042e-19)
(1.15727 0.489566 -2.60879e-19)
(1.45622 0.823203 -1.26135e-18)
(0.978605 0.000590957 -1.43034e-21)
(1.02275 0.015842 -6.67614e-21)
(1.04084 0.0262266 -1.71099e-20)
(1.04607 0.0711759 3.48904e-20)
(1.08301 0.083572 5.97958e-20)
(1.1099 0.196792 -4.3948e-20)
(1.11859 0.204638 1.46737e-19)
(1.2123 0.397654 -4.45553e-19)
(1.22266 0.429074 -1.97278e-19)
(1.46915 0.813103 6.6966e-19)
(0.977506 -0.00306559 2.5897e-21)
(1.02534 0.00869061 1.40873e-20)
(1.05044 0.0176306 -1.11927e-20)
(1.05083 0.0648761 6.50427e-20)
(1.10538 0.0667958 9.94728e-20)
(1.12234 0.193578 1.29038e-19)
(1.15774 0.176486 3.32191e-20)
(1.24216 0.381851 2.11347e-19)
(1.3209 0.378882 3.18267e-19)
(1.49491 0.710902 2.50685e-20)
(0.976381 -0.00715955 -1.84086e-21)
(1.02969 -0.000235271 -4.17698e-21)
(1.06029 0.00911598 3.59945e-21)
(1.05823 0.0554934 4.77428e-21)
(1.13074 0.0510544 2.97923e-34)
(1.12842 0.186431 -7.6475e-21)
(1.20183 0.146901 -5.4764e-34)
(1.26115 0.354996 2.01821e-20)
(1.39356 0.322154 -5.95192e-20)
(1.54409 0.618791 -5.86973e-20)
(0.974556 -0.0123682 1.43329e-20)
(1.03695 -0.0110136 -4.71366e-35)
(1.06868 -0.000132553 -4.12708e-21)
(1.07394 0.0426075 -2.94194e-20)
(1.14961 0.0380666 -4.80216e-20)
(1.14021 0.174766 -4.16422e-20)
(1.23532 0.117459 -6.93574e-34)
(1.28534 0.322689 -8.26016e-20)
(1.4345 0.265911 -1.47449e-19)
(1.5796 0.529021 9.90846e-20)
(0.971929 -0.01916 0)
(1.04732 -0.023133 5.85009e-35)
(1.07653 -0.0115564 0)
(1.09948 0.0264616 0)
(1.15875 0.0273675 0)
(1.16465 0.156621 0)
(1.25509 0.0910323 -4.73818e-34)
(1.31484 0.282244 0)
(1.45237 0.219505 -2.13225e-20)
(1.59667 0.437736 5.87087e-20)
(0.968576 -0.0272964 3.20366e-21)
(1.06086 -0.0360375 5.53272e-21)
(1.08603 -0.0246056 -5.28849e-21)
(1.13016 0.011619 0)
(1.16206 0.0206391 0)
(1.19628 0.13323 6.6936e-21)
(1.26869 0.0702077 4.21591e-20)
(1.33883 0.236674 -1.43064e-20)
(1.46353 0.180096 -3.10666e-20)
(1.61027 0.348115 2.28635e-19)
(0.965451 -0.041757 -7.88498e-20)
(1.07908 -0.055476 -1.76384e-22)
(1.09691 -0.0446732 -5.96485e-21)
(1.15476 -0.00801124 -1.88133e-20)
(1.15543 0.012416 -2.84763e-20)
(1.22026 0.102561 -9.94118e-21)
(1.27313 0.0537243 -3.42581e-20)
(1.34967 0.188386 -3.18011e-20)
(1.47083 0.142481 -5.44569e-20)
(1.62568 0.261754 6.67486e-20)
(0.964521 -0.0484953 -6.60548e-21)
(1.09679 -0.0638357 -1.84179e-20)
(1.08725 -0.0524851 -6.6274e-21)
(1.13877 -0.016219 -5.26147e-21)
(1.10509 0.0104337 -4.4467e-35)
(1.20705 0.0709611 7.00234e-21)
(1.22698 0.0414852 -9.23341e-34)
(1.3365 0.137858 -1.37822e-20)
(1.44358 0.102948 1.92288e-20)
(1.63203 0.177911 2.73984e-20)
(0.962153 -0.08979 1.9609e-19)
(1.05529 -0.0930671 -4.68742e-21)
(0.969915 -0.0714982 -7.1363e-21)
(0.975057 -0.0267079 1.45817e-20)
(0.912958 0.00238575 1.48109e-20)
(1.04507 0.0362381 1.44871e-20)
(1.02399 0.0290435 1.50719e-20)
(1.20133 0.082084 -9.81956e-21)
(1.27604 0.0617396 -2.27815e-20)
(1.51841 0.0972846 1.48393e-19)
(0.831002 -0.0457983 8.91102e-21)
(0.732683 -0.0345117 -9.50254e-35)
(0.533351 -0.0166179 -8.34113e-21)
(0.477511 -0.00206024 0)
(0.435899 0.00128144 0)
(0.516927 0.00889993 7.00861e-21)
(0.516455 0.00555951 -6.06337e-36)
(0.657719 0.0176461 -1.32762e-20)
(0.725167 0.00935517 -2.82864e-20)
(0.90405 0.0165221 5.96009e-20)
(1.67831 0.839389 -2.01573e-19)
(1.78041 0.818644 -2.95649e-19)
(1.89833 0.783327 0)
(2.00645 0.737375 1.60241e-19)
(2.10904 0.674517 6.85212e-19)
(2.19715 0.606599 -1.25413e-19)
(2.28053 0.524473 1.78118e-18)
(2.35115 0.444437 -8.60648e-20)
(2.41494 0.353622 -3.98937e-19)
(2.46691 0.270357 3.54618e-19)
(1.70476 0.688684 1.03802e-19)
(1.78218 0.669594 1.18171e-19)
(1.87757 0.636138 -1.43556e-20)
(1.96315 0.59314 2.26258e-19)
(2.05495 0.536776 -1.86051e-19)
(2.122 0.481331 -4.35491e-19)
(2.20434 0.412272 -1.30408e-19)
(2.25222 0.354091 5.98962e-19)
(2.32943 0.277446 -2.32216e-20)
(2.35387 0.22254 -5.16767e-19)
(1.73738 0.572738 1.01721e-19)
(1.80459 0.548468 1.908e-19)