/*--------------------------------*- C++ -*----------------------------------*\
  =========                 |
  \\      /  F ield         | OpenFOAM: The Open Source CFD Toolbox
   \\    /   O peration     | Website:  https://openfoam.org
    \\  /    A nd           | Version:  13
     \\/     M anipulation  |
\*---------------------------------------------------------------------------*/
FoamFile
{
    format      ascii;
    class       volVectorField;
    location    "0.005";
    object      U;
}
// * * * * * * * * * * * * * * * * * * * * * * * * * * * * * * * * * * * * * //

dimensions      [0 1 -1 0 0 0 0];

internalField   nonuniform List<vector> 
440
(
(1.44537 -1.16638 2.4684e-17)
(1.4395 -1.01996 2.24856e-17)
(1.41229 -0.890935 -2.14839e-17)
(1.38889 -0.782621 7.82857e-17)
(1.35192 -0.686564 -2.04042e-17)
(1.79032 -1.04131 -4.37657e-17)
(1.74096 -0.91118 1.05185e-17)
(1.67828 -0.794065 4.34838e-17)
(1.62623 -0.696726 -7.88503e-17)
(1.57161 -0.613368 -4.37931e-17)
(2.08669 -0.819341 -4.88455e-17)
(2.00002 -0.719672 -8.57797e-17)
(1.90633 -0.62567 -2.74967e-17)
(1.82923 -0.547506 1.33818e-16)
(1.75874 -0.48163 3.71324e-17)
(2.30363 -0.518498 5.40697e-17)
(2.19016 -0.461133 -1.78175e-17)
(2.07349 -0.400176 -1.30364e-16)
(1.97799 -0.349449 7.18965e-17)
(1.89657 -0.307484 9.78989e-17)
(2.41718 -0.166333 5.70803e-17)
(2.29085 -0.158812 2.19342e-17)
(2.16191 -0.137677 1.09315e-16)
(2.05664 -0.120016 -6.72684e-17)
(1.96966 -0.105805 -2.23963e-17)
(0.0885436 -0.297261 -4.39828e-18)
(0.274304 -0.267205 3.37299e-17)
(0.399376 -0.241651 -6.70761e-17)
(0.501924 -0.22086 1.53319e-17)
(0.56333 -0.206884 1.47727e-16)
(0.217476 -0.633352 -1.13224e-17)
(0.383844 -0.558141 -3.54872e-17)
(0.494368 -0.495509 -1.20137e-17)
(0.58531 -0.444299 -7.76121e-18)
(0.638518 -0.411057 8.50129e-18)
(0.443466 -0.910503 7.75607e-17)
(0.576251 -0.799114 5.02069e-17)
(0.661075 -0.706367 3.76268e-17)
(0.731204 -0.630762 -1.13366e-16)
(0.769736 -0.582476 2.7839e-18)
(0.742518 -1.10091 2.20935e-17)
(0.830903 -0.965788 -2.83969e-17)
(0.880612 -0.852302 6.48061e-17)
(0.921313 -0.760207 6.75455e-17)
(0.938491 -0.701472 -7.58204e-18)
(1.08561 -1.18749 -3.19176e-17)
(1.12494 -1.04135 -2.01633e-17)
(1.13382 -0.916299 -5.4253e-19)
(1.13804 -0.81447 -2.21827e-17)
(1.12417 -0.745785 -8.73907e-17)
(0.718919 -0.125063 -1.69175e-17)
(0.914443 -0.0712737 2.59576e-18)
(0.964293 -0.0415431 -9.38572e-18)
(0.982351 -0.0215091 -8.19442e-18)
(0.988944 -0.00661923 -1.18573e-17)
(0.767604 -0.203847 -1.52632e-16)
(0.927399 -0.0946037 2.71771e-17)
(0.971949 -0.0497244 -3.8466e-17)
(0.987552 -0.0244384 -5.53253e-17)
(0.992948 -0.00735695 2.24258e-17)
(0.852198 -0.276377 -6.84217e-17)
(0.947289 -0.118239 -1.84929e-16)
(0.981573 -0.0577828 2.93943e-17)
(0.993488 -0.0271919 -4.04575e-17)
(0.997305 -0.0080287 -1.72831e-17)
(0.962322 -0.335254 1.11329e-16)
(0.9754 -0.140587 6.66494e-17)
(0.993324 -0.0652993 6.25207e-18)
(1.0001 -0.0296291 4.25213e-17)
(1.00192 -0.00859365 -1.66844e-17)
(1.06034 -0.377188 6.03763e-18)
(1.00135 -0.161354 1.96982e-16)
(1.00486 -0.0713882 0)
(1.00688 -0.0312311 -1.0069e-17)
(1.00665 -0.00892284 6.18954e-18)
(1.2418 -0.355018 -1.15577e-17)
(1.06326 -0.160586 -6.94334e-17)
(1.02842 -0.0715721 7.98222e-18)
(1.01745 -0.0309264 -3.49643e-17)
(1.01283 -0.00872334 -1.92738e-17)
(1.30181 -0.283302 -2.69065e-17)
(1.10964 -0.138845 2.13989e-17)
(1.05153 -0.0636476 8.16053e-18)
(1.02886 -0.0274347 5.85761e-18)
(1.01971 -0.00768932 0)
(1.33358 -0.195519 -3.3435e-17)
(1.14323 -0.103785 -8.5356e-18)
(1.06999 -0.0491863 1.61378e-17)
(1.03838 -0.0213734 -2.23834e-18)
(1.02544 -0.0059878 9.48073e-19)
(1.34704 -0.113581 7.60186e-17)
(1.16406 -0.0637568 -6.21635e-17)
(1.08256 -0.0309557 2.45739e-17)
(1.04511 -0.0135503 3.57224e-31)
(1.02953 -0.00379938 -3.86436e-17)
(1.35032 -0.0247297 6.05772e-18)
(1.17268 -0.0142844 1.50203e-18)
(1.0877 -0.00702582 2.35831e-17)
(1.04745 -0.00308852 3.23843e-19)
(1.03054 -0.000866708 -1.37392e-19)
(1.83407 -0.0816256 1.32628e-16)
(1.77855 -0.238277 -8.40535e-17)
(1.67405 -0.377451 4.47193e-17)
(1.53517 -0.4895 3.65544e-17)
(1.37581 -0.577815 -4.51751e-18)
(1.71606 -0.0470305 8.8631e-17)
(1.68458 -0.13785 -5.5435e-18)
(1.62485 -0.219855 -4.11483e-17)
(1.54381 -0.288657 3.29075e-17)
(1.44944 -0.354372 -7.15671e-18)
(1.64253 -0.0276679 5.01596e-17)
(1.6203 -0.0816866 -3.88633e-17)
(1.57828 -0.131436 8.05744e-17)
(1.52129 -0.174089 -6.3152e-18)
(1.46254 -0.21408 -8.24679e-17)
(1.5998 -0.0144948 4.44133e-17)
(1.58202 -0.0430103 1.37004e-16)
(1.54862 -0.0696118 -1.12931e-17)
(1.50358 -0.0927829 -1.41349e-16)
(1.46177 -0.11423 3.40654e-17)
(1.57708 -0.00298993 9.9903e-17)
(1.56174 -0.00890039 -3.00158e-18)
(1.53275 -0.0144047 1.40996e-18)
(1.49324 -0.019184 -5.16028e-17)
(1.45824 -0.0235788 -8.63222e-17)
(1.3522 0.686546 5.89439e-17)
(1.38805 0.782159 9.72649e-18)
(1.41201 0.890813 -5.04655e-17)
(1.43968 1.02008 2.37619e-17)
(1.43206 1.18322 -2.16524e-17)
(1.57231 0.611773 -4.61042e-17)
(1.62604 0.695971 -7.01011e-17)
(1.67825 0.793493 -4.63004e-18)
(1.74112 0.910833 -4.19188e-17)
(1.77675 1.06422 -2.76871e-17)
(1.75938 0.480765 -2.20961e-17)
(1.82923 0.547296 2.79498e-17)
(1.90637 0.625353 5.20643e-17)
(2.00014 0.719426 1.50969e-17)
(2.07503 0.848353 5.16302e-17)
(1.8969 0.306952 -8.62341e-18)
(1.97798 0.349536 -1.05651e-17)
(2.07349 0.400032 -6.90903e-17)
(2.19022 0.460991 5.78884e-17)
(2.29573 0.552331 -3.019e-17)
(1.96975 0.105436 -4.81279e-17)
(2.05664 0.120254 -7.82486e-17)
(2.1619 0.137636 -3.37408e-17)
(2.29087 0.158736 4.70175e-17)
(2.41438 0.202834 -2.98747e-17)
(0.564581 0.20875 1.87025e-16)
(0.503995 0.222815 1.42412e-16)
(0.401069 0.243552 -1.86754e-17)
(0.275785 0.269184 1.10288e-17)
(0.0889443 0.299478 6.489e-18)
(0.63957 0.413123 9.2258e-17)
(0.587145 0.446672 4.37455e-17)
(0.495987 0.497722 1.58088e-17)
(0.385406 0.560456 -6.67406e-18)
(0.216109 0.636643 7.84677e-18)
(0.770393 0.584399 -5.80203e-17)
(0.732553 0.633252 8.30742e-17)
(0.662433 0.708561 1.20001e-17)
(0.577756 0.801379 -1.97318e-17)
(0.439194 0.915549 8.10191e-18)
(0.938719 0.703226 5.47001e-17)
(0.922 0.762703 -7.33066e-17)
(0.88154 0.854304 -1.20079e-16)
(0.83217 0.967748 3.12292e-17)
(0.734831 1.10883 -2.73579e-17)
(1.1225 0.747742 -3.31174e-17)
(1.13701 0.816691 -3.94794e-17)
(1.13362 0.917854 -2.90052e-19)
(1.12545 1.04273 6.15765e-18)
(1.07456 1.19938 -7.88841e-20)
(0.495778 0.0307525 -5.42463e-18)
(1.06067 0.0305242 1.18245e-17)
(0.970032 0.0464386 9.1377e-18)
(0.916186 0.0738841 -7.12043e-17)
(0.719561 0.126703 -5.9636e-17)
(0.493264 0.0346709 8.1218e-18)
(1.06296 0.0299515 5.96367e-17)
(0.97634 0.0546952 2.2476e-17)
(0.928494 0.097263 7.22906e-17)
(0.768748 0.205378 -7.69802e-17)
(0.488635 0.0394746 9.8999e-18)
(1.06637 0.0286112 -4.32632e-18)
(0.984628 0.0624356 -3.60518e-17)
(0.94773 0.120834 4.6141e-18)
(0.854205 0.277757 -6.71536e-17)
(0.482854 0.0450295 -1.32351e-18)
(1.07049 0.0265566 -8.34963e-17)
(0.99518 0.069327 -3.27983e-17)
(0.975396 0.143027 -1.4174e-16)
(0.965381 0.336306 4.88758e-17)
(0.475481 0.0498667 -5.63983e-18)
(1.0748 0.0245066 3.99049e-19)
(1.006 0.0746225 2.31011e-17)
(1.00118 0.16364 8.75681e-17)
(1.0637 0.378533 -7.65107e-17)
(0.472946 0.0469806 -1.89126e-19)
(1.07917 0.0264148 4.31102e-17)
(1.02995 0.0742113 -2.55894e-17)
(1.06246 0.162599 1.98314e-16)
(1.24278 0.356058 -1.24682e-16)
(0.472229 0.0312917 -1.8283e-18)
(1.08437 0.0313505 -6.66973e-18)
(1.05343 0.0665748 8.1783e-18)
(1.10866 0.140721 -3.03907e-17)
(1.3024 0.284867 1.56719e-17)
(0.47144 0.0130326 -2.96143e-18)
(1.09073 0.0317976 -3.71952e-34)
(1.07073 0.0522259 -8.79741e-20)
(1.14184 0.105285 1.1145e-17)
(1.33369 0.19655 6.40777e-17)
(0.460387 -0.00290869 3.42845e-18)
(1.09937 0.0199256 -2.63144e-18)
(1.08097 0.0330965 2.4552e-17)
(1.16223 0.0647042 2.6415e-17)
(1.34682 0.114165 -1.10511e-16)
(0.357017 0.0099913 -5.94904e-18)
(1.10728 0.0479083 -2.39499e-19)
(1.0867 0.00763264 2.58992e-17)
(1.17066 0.014507 -1.53533e-18)
(1.34993 0.0248946 -2.74234e-17)
(1.37768 0.574136 6.90006e-17)
(1.53453 0.489578 5.97476e-17)
(1.67419 0.377267 -8.26499e-17)
(1.77851 0.237905 -1.47068e-16)
(1.83405 0.0810925 1.44607e-16)
(1.44923 0.352551 2.83968e-17)
(1.54229 0.289451 2.77325e-16)
(1.6248 0.219892 7.30346e-17)
(1.68463 0.137728 -2.71598e-16)
(1.71607 0.0468515 -4.10435e-17)
(1.46198 0.213068 -8.91001e-17)
(1.52004 0.174861 -5.42624e-17)
(1.57781 0.131812 -7.74369e-17)
(1.62012 0.0818908 -9.47527e-17)
(1.64248 0.0277984 8.84673e-17)
(1.46124 0.113754 1.09152e-16)
(1.50269 0.093208 -7.02032e-18)
(1.54801 0.0698965 8.35114e-17)
(1.58174 0.0432227 1.02036e-16)
(1.59971 0.0146646 -9.33181e-17)
(1.45783 0.0234019 -1.28833e-17)
(1.49264 0.019208 8.63436e-17)
(1.5322 0.0144445 5.42353e-17)
(1.56146 0.00895923 -1.02292e-16)
(1.57699 0.00305404 -8.0389e-19)
(2.80007 0.183449 3.11615e-17)
(2.6686 0.160147 -2.52703e-17)
(2.5432 0.12221 -8.75828e-18)
(2.45264 0.0882925 -2.95108e-17)
(2.38986 0.0556733 -1.91182e-17)
(2.61187 0.56897 5.67902e-17)
(2.50173 0.461664 3.45105e-17)
(2.3907 0.359051 -2.34814e-17)
(2.30691 0.268714 2.68021e-17)
(2.2402 0.181369 -5.98775e-17)
(2.27764 0.871249 5.0916e-17)
(2.20599 0.70994 -1.69208e-18)
(2.12115 0.567051 -2.27482e-17)
(2.05241 0.443431 -2.10593e-17)
(1.98467 0.324918 -1.10457e-16)
(1.86497 1.0619 -5.32223e-17)
(1.83929 0.877851 -4.95884e-17)
(1.78862 0.719177 1.01901e-16)
(1.74366 0.584001 -6.65755e-18)
(1.68656 0.457002 2.53314e-17)
(1.43315 1.13532 -8.23641e-17)
(1.45451 0.951304 5.04057e-17)
(1.44171 0.794079 -4.00493e-17)
(1.42649 0.660208 -6.82632e-17)
(1.38871 0.53586 -6.28238e-18)
(1.02358 1.09882 -4.21973e-17)
(1.08945 0.931733 -3.26407e-17)
(1.11357 0.792 -6.4986e-17)
(1.12724 0.676711 4.29616e-17)
(1.11584 0.598925 -1.63762e-17)
(0.66301 0.958468 2.83319e-17)
(0.774708 0.815522 2.19296e-17)
(0.838978 0.697807 1.62875e-18)
(0.889973 0.601099 4.18609e-17)
(0.912369 0.539741 2.15345e-17)
(0.370489 0.724008 2.06204e-17)
(0.521105 0.61432 -4.57069e-17)
(0.617504 0.524939 8.3672e-17)
(0.696103 0.451177 1.80218e-16)
(0.739521 0.404631 -7.41245e-17)
(0.167412 0.416088 6.05216e-18)
(0.344829 0.348745 2.69628e-17)
(0.462659 0.294452 -8.35488e-17)
(0.559017 0.249405 -1.56779e-16)
(0.615567 0.221055 2.14994e-17)
(0.0708334 0.0643023 -2.82701e-18)
(0.26032 0.0451218 9.50679e-18)
(0.387877 0.030362 -4.20496e-18)
(0.492276 0.0179021 1.82224e-18)
(0.554862 0.0104929 5.85785e-17)
(1.03572 0.187354 -3.9876e-17)
(0.944072 0.0305983 -1.79162e-16)
(0.953318 -0.00441419 4.33603e-17)
(0.967904 -0.00676027 6.87915e-17)
(0.976129 -0.00257834 4.45328e-18)
(0.929418 0.15366 -4.59553e-17)
(0.926816 0.0138717 8.05215e-17)
(0.952557 -0.010689 1.17836e-16)
(0.969495 -0.00946245 1.41107e-17)
(0.977682 -0.00337959 -1.30715e-17)
(0.821268 0.100829 -7.18064e-17)
(0.912042 -0.00506926 1.93069e-16)
(0.95256 -0.0177028 -3.09333e-17)
(0.97151 -0.0123794 -2.44337e-17)
(0.979721 -0.00420883 2.09768e-17)
(0.746059 0.0322433 1.61394e-17)
(0.906186 -0.0262874 -6.15907e-17)
(0.954593 -0.0253853 -2.8227e-17)
(0.974315 -0.0154198 -6.17183e-18)
(0.982286 -0.0050334 4.56189e-18)
(0.71124 -0.0446475 1.09456e-17)
(0.907373 -0.0484449 -6.88413e-17)
(0.958516 -0.0333843 1.43806e-17)
(0.97793 -0.0184828 2.5631e-17)
(0.985371 -0.00584011 1.33981e-17)
(1.25631 0.0384917 4.76166e-17)
(0.999503 0.00770467 0)
(0.96294 9.80557e-05 2.12264e-17)
(0.966606 -0.000840832 1.83279e-19)
(0.97283 -0.000351542 -2.13838e-17)
(1.21821 0.148773 0)
(0.984991 0.0284166 0)
(0.959955 -0.00104596 -4.52549e-17)
(0.967609 -0.00409288 8.91417e-19)
(0.974898 -0.00163168 4.90836e-18)
(2.27414 0.0031968 -3.86173e-17)
(2.16744 0.016021 2.32067e-16)
(1.96256 0.0359652 -2.18579e-17)
(1.71931 0.0571266 -1.50231e-16)
(1.53521 0.0811588 -4.75096e-17)
(2.3509 0.0277959 3.92308e-17)
(2.17695 0.103385 1.95256e-16)
(1.91911 0.206193 -1.12295e-16)
(1.64753 0.312384 4.03593e-18)
(1.41333 0.408488 2.70333e-17)
(1.11428 -0.600557 1.55841e-17)
(1.12642 -0.678278 -3.85206e-17)
(1.11343 -0.792742 -8.48309e-18)
(1.08985 -0.93231 -3.09487e-18)
(1.01376 -1.10874 1.73029e-17)
(0.913033 -0.539973 -3.44631e-17)
(0.891175 -0.602083 -1.20597e-16)
(0.840109 -0.698305 -4.23225e-17)
(0.775851 -0.816037 2.0413e-17)
(0.65694 -0.963771 7.80342e-18)
(0.740555 -0.404254 7.30413e-17)
(0.697885 -0.451366 -7.29776e-18)
(0.61898 -0.524895 -1.03457e-16)
(0.522396 -0.614373 -2.03231e-17)
(0.367662 -0.726007 -1.53456e-17)
(0.616843 -0.220208 1.06677e-16)
(0.561099 -0.248869 7.95699e-17)
(0.464301 -0.293807 -4.79971e-17)
(0.346174 -0.348161 -4.32037e-17)
(0.166997 -0.41603 -2.95931e-18)
(0.556184 -0.00909359 2.73589e-17)
(0.494423 -0.0166053 2.76045e-17)
(0.389564 -0.029041 2.54154e-18)
(0.261709 -0.0437921 -1.19884e-17)
(0.0715611 -0.0629974 -3.21733e-18)
(2.38893 -0.0558092 5.56543e-17)
(2.45178 -0.0881534 -2.93704e-17)
(2.54225 -0.121668 3.48429e-17)
(2.66765 -0.159365 1.4664e-17)
(2.79545 -0.231394 3.02517e-17)
(2.2379 -0.180182 8.21553e-17)
(2.30497 -0.267976 1.41657e-16)
(2.38867 -0.358057 2.01666e-17)
(2.49972 -0.460503 4.85433e-17)
(2.5999 -0.611211 -3.08851e-17)
(1.98294 -0.322905 -1.67466e-16)
(2.05059 -0.442107 -5.38085e-17)
(2.11943 -0.565753 6.27427e-17)
(2.20437 -0.708597 1.38138e-17)
(2.26227 -0.904622 7.63627e-18)
(1.6861 -0.454674 4.44153e-17)
(1.74235 -0.582385 -1.69055e-16)
(1.78767 -0.717872 -7.43604e-17)
(1.83858 -0.876701 2.13762e-19)
(1.84959 -1.08593 5.09901e-17)
(1.38902 -0.536515 1.13727e-17)
(1.42518 -0.659221 4.77875e-17)
(1.44113 -0.793424 -3.12723e-17)
(1.45441 -0.950841 -2.85054e-17)
(1.41992 -1.15129 -9.80641e-20)
(0.474058 0.0141229 -1.76665e-18)
(1.06347 0.0144487 1.14062e-17)
(0.959335 0.00578645 7.51478e-17)
(0.945906 -0.0294955 -7.45855e-17)
(1.04051 -0.1863 -1.85993e-17)
(0.484069 0.0161558 -2.57852e-19)
(1.06259 0.0210198 -6.10767e-17)
(0.960001 0.0124201 1.14983e-16)
(0.928869 -0.0124843 1.40504e-16)
(0.933467 -0.152091 4.74324e-17)
(0.490098 0.0197629 2.20805e-18)
(1.06083 0.025703 -6.08901e-18)
(0.960596 0.0202714 4.76839e-18)
(0.914326 0.00680882 1.1764e-16)
(0.823847 -0.0992643 -5.84782e-17)
(0.494169 0.0235148 4.36103e-18)
(1.05968 0.0286667 9.78838e-18)
(0.962382 0.0289563 -1.77384e-17)
(0.908569 0.0283984 1.3302e-18)
(0.747448 -0.0305918 -6.0112e-17)
(0.496084 0.0270063 2.75854e-19)
(1.05958 0.0301792 -1.95118e-17)
(0.965457 0.0377931 -7.68768e-19)
(0.90958 0.0508654 -1.79767e-17)
(0.711948 0.0463277 -3.73535e-17)
(0.330917 -0.00595458 0)
(1.07311 -0.0459234 9.05686e-19)
(0.970332 0.000169697 2.13864e-17)
(1.00135 -0.00750963 2.81443e-18)
(1.26042 -0.0386512 -8.97593e-17)
(0.454432 0.0144442 1.87433e-18)
(1.07007 0.0130189 4.72559e-17)
(0.964871 0.00245727 -7.42962e-17)
(0.986528 -0.0275586 -1.18456e-16)
(1.22221 -0.147664 -9.15172e-17)
(1.53761 -0.0802741 -1.54753e-17)
(1.71792 -0.0566764 1.22637e-16)
(1.96247 -0.034974 4.37152e-17)
(2.16831 -0.0153266 2.15456e-17)
(2.27453 -0.00259451 0)
(1.417 -0.4062 1.31366e-16)
(1.64533 -0.312897 2.41466e-16)
(1.91637 -0.205749 -1.2998e-16)
(2.17331 -0.103041 -2.6093e-17)
(2.3489 -0.0278087 4.88422e-17)
)
;

boundaryField
{
    left
    {
        type            fixedValue;
        value           uniform (1 0 0);
    }
    right
    {
        type            zeroGradient;
    }
    down
    {
        type            noSlip;
    }
    up
    {
        type            noSlip;
    }
    cylinder
    {
        type            noSlip;
    }
    defaultFaces
    {
        type            empty;
    }
}


// ************************************************************************* //
