/*--------------------------------*- C++ -*----------------------------------*\
  =========                 |
  \\      /  F ield         | OpenFOAM: The Open Source CFD Toolbox
   \\    /   O peration     | Website:  https://openfoam.org
    \\  /    A nd           | Version:  13
     \\/     M anipulation  |
\*---------------------------------------------------------------------------*/
FoamFile
{
    format      ascii;
    class       surfaceScalarField;
    location    "0.02";
    object      phi;
}
// * * * * * * * * * * * * * * * * * * * * * * * * * * * * * * * * * * * * * //

dimensions      [0 3 -1 0 0 0 0];

internalField   nonuniform List<scalar> 
3485
(
0.00829032
-0.122422
0.114132
0.0181498
-0.146239
0.13638
0.0277975
-0.143334
0.133687
0.0371496
-0.138855
0.129503
0.0462335
-0.134678
0.125594
0.0550807
-0.130867
0.12202
0.0637235
-0.127383
0.118741
0.0721979
-0.124188
0.115713
0.080534
-0.121238
0.112902
-0.118377
0.110146
0.0887646
0.00768828
-0.13011
0.0168183
-0.155369
0.0257505
-0.152267
0.0344146
-0.147519
0.0428373
-0.143101
0.0510454
-0.139075
0.0590623
-0.1354
0.0669086
-0.132034
0.0746007
-0.12893
-0.125997
0.082221
0.00702827
-0.137139
0.0153577
-0.163699
0.0235038
-0.160413
0.0314118
-0.155427
0.0391089
-0.150798
0.046621
-0.146587
0.0539709
-0.14275
0.0611783
-0.139241
0.0682594
-0.136011
-0.132994
0.0752562
0.0063035
-0.143442
0.0137538
-0.171149
0.0210342
-0.167693
0.0281064
-0.1625
0.034997
-0.157688
0.0417306
-0.153321
0.0483287
-0.149348
0.0548102
-0.145723
0.0611928
-0.142394
-0.13932
0.067519
0.0055122
-0.148954
0.0120036
-0.17764
0.0183372
-0.174027
0.0244925
-0.168655
0.0304953
-0.163691
0.0363681
-0.159194
0.0421302
-0.15511
0.0477988
-0.151391
0.0533908
-0.147986
-0.144868
0.0589391
0.00465719
-0.153611
0.0101129
-0.183096
0.0154203
-0.179334
0.02058
-0.173815
0.0256158
-0.168727
0.0305474
-0.164125
0.0353917
-0.159955
0.0401634
-0.156163
0.0448779
-0.1527
-0.149549
0.0495588
0.00374581
-0.157357
0.00809729
-0.187447
0.0123042
-0.183541
0.0163954
-0.177906
0.0203916
-0.172723
0.0243089
-0.168043
0.0281609
-0.163807
0.0319598
-0.159962
0.0357187
-0.156459
-0.153283
0.0394523
0.00278774
-0.160145
0.00597935
-0.190639
0.00901968
-0.186581
0.0119784
-0.180864
0.0148725
-0.175617
0.017713
-0.170883
0.0205097
-0.166603
0.0232713
-0.162724
0.0260076
-0.159195
-0.156
0.0287254
0.00182526
-0.16197
0.00378368
-0.192597
0.00559245
-0.18839
0.00736971
-0.182642
0.00911672
-0.177364
0.0108358
-0.172602
0.012531
-0.168299
0.0142069
-0.1644
0.0158698
-0.160858
-0.15765
0.0175195
0.000765884
-0.162736
0.0013482
-0.19318
0.00199011
-0.189032
0.00259989
-0.183252
0.00319157
-0.177956
0.00377042
-0.173181
0.00433958
-0.168868
0.00490149
-0.164961
0.00545867
-0.161415
0.00600754
-0.158199
0.0116525
-0.0200671
0.00841461
0.0256136
-0.0239895
0.0100285
0.0393018
-0.023536
0.00984777
0.05255
-0.0228083
0.00956013
0.0653817
-0.0221272
0.00929546
0.0778293
-0.0215052
0.00905767
0.0899218
-0.0209354
0.00884288
0.101685
-0.0204107
0.00864734
0.113141
-0.0199238
0.00846776
-0.0195036
0.124342
0.00830286
0.0115486
-0.0316157
0.0253818
-0.0378227
0.0389466
-0.0371009
0.0520796
-0.0359412
0.0648054
-0.034853
0.0771569
-0.0338567
0.0891637
-0.0329423
0.100852
-0.0320989
0.112244
-0.0313161
-0.0306508
0.123391
0.0114034
-0.0430191
0.0250568
-0.0514762
0.0384473
-0.0504913
0.0514164
-0.0489104
0.0639901
-0.0474267
0.076202
-0.0460687
0.0880824
-0.0448226
0.0996579
-0.0436744
0.110952
-0.0426104
-0.0417131
0.122014
0.0112097
-0.0542288
0.0246231
-0.0648896
0.0377795
-0.0636477
0.0505271
-0.061658
0.0628932
-0.0597927
0.074912
-0.0580875
0.0866147
-0.0565253
0.0980287
-0.0550884
0.109179
-0.0537611
-0.052647
0.120113
0.0109592
-0.065188
0.0240644
-0.0779948
0.0369186
-0.0765019
0.0493776
-0.0741171
0.0614698
-0.0718849
0.0732304
-0.069848
0.084691
-0.0679859
0.0958803
-0.0662777
0.106826
-0.0647067
-0.063392
0.117571
0.010646
-0.075834
0.0233686
-0.0907174
0.0358451
-0.0889784
0.0479399
-0.0862118
0.0596819
-0.0836269
0.0711064
-0.0812726
0.0822459
-0.0791254
0.0931298
-0.0771616
0.103788
-0.075365
-0.0738631
0.114259
0.0102695
-0.0861035
0.0225325
-0.10298
0.0345526
-0.100998
0.0462026
-0.0978618
0.057511
-0.0949354
0.0685122
-0.0922737
0.0792378
-0.089851
0.0897177
-0.0876415
0.0999839
-0.0856311
-0.083947
0.110068
0.00983468
-0.0959382
0.0215664
-0.114712
0.0330567
-0.112489
0.0441856
-0.108991
0.0549788
-0.105729
0.0654668
-0.102762
0.0756781
-0.100062
0.0856399
-0.0976033
0.0953833
-0.0953746
-0.0934912
0.104928
0.00935353
-0.105292
0.0204987
-0.125857
0.0314042
-0.123394
0.0419566
-0.119543
0.0521761
-0.115948
0.0620848
-0.11267
0.0717005
-0.109678
0.0810373
-0.10694
0.0901103
-0.104448
-0.102272
0.098891
0.00883998
0.0193624
0.0296548
0.0396147
0.0492606
0.0586102
0.0676726
0.0764457
0.0848999
0.092774
0.166109
-0.109623
0.0678557
0.186076
-0.0781382
0.0581712
0.195732
-0.0584498
0.0487938
0.200182
-0.0442749
0.0398248
0.201871
-0.0332535
0.0315648
0.202014
-0.024348
0.0242045
0.201247
-0.0169943
0.0177613
0.199911
-0.010785
0.0121211
0.198191
-0.0053752
0.00709586
-0.000317291
0.00233683
0.164772
-0.151004
0.184942
-0.0983083
0.1949
-0.0684076
0.199616
-0.0489908
0.201517
-0.0351544
0.201833
-0.0246641
0.201214
-0.0163756
0.200014
-0.00958436
0.198423
-0.00378436
0.0015741
0.162499
-0.191488
0.182843
-0.118653
0.193189
-0.0787531
0.198287
-0.0540888
0.200525
-0.0373921
0.201141
-0.0252804
0.2008
-0.0160349
0.199867
-0.00865063
0.198538
-0.00245606
0.00320345
0.159235
-0.23061
0.179764
-0.139182
0.190597
-0.0895858
0.196198
-0.0596893
0.198897
-0.0400918
0.199941
-0.0263241
0.200007
-0.0161007
0.19947
-0.0081137
0.198536
-0.00152173
0.0044377
0.154896
-0.267935
0.175691
-0.159978
0.187127
-0.101022
0.193355
-0.0659168
0.196642
-0.0433793
0.198239
-0.0279206
0.198838
-0.0166993
0.198825
-0.00810116
0.198414
-0.00111073
0.0051455
0.149344
-0.303019
0.170607
-0.181242
0.182785
-0.1132
0.18977
-0.0729014
0.193771
-0.0473804
0.196044
-0.0301937
0.197299
-0.017954
0.197935
-0.00873749
0.198174
-0.00134949
0.005198
0.142519
-0.335471
0.164493
-0.203215
0.177578
-0.126284
0.185457
-0.0807802
0.190298
-0.0522212
0.193368
-0.0332644
0.195399
-0.0199844
0.196804
-0.0101432
0.197815
-0.00236064
0.00446976
0.135044
-0.365587
0.157384
-0.225555
0.17152
-0.14042
0.180435
-0.0896961
0.186241
-0.0580269
0.190227
-0.0372501
0.193148
-0.0229058
0.195439
-0.0124339
0.197341
-0.0042622
0.00283964
0.127038
-0.393735
0.149415
-0.247932
0.164669
-0.155674
0.17474
-0.0997677
0.181627
-0.0649131
0.186639
-0.0422621
0.190561
-0.0268277
0.193847
-0.0157199
0.196751
-0.00716682
0.000191673
0.117918
-0.418879
0.140909
-0.270923
0.157237
-0.172001
0.168483
-0.111014
0.176518
-0.0729483
0.182642
-0.0483858
0.187658
-0.0318435
0.192038
-0.0201002
0.19605
-0.011179
-0.00358366
0.342944
-0.370811
-0.391011
0.321797
-0.249777
0.313838
-0.164042
0.310496
-0.107672
0.308725
-0.0711772
0.307557
-0.0472176
0.306712
-0.0309989
0.30612
-0.0195076
0.305761
-0.0108206
-0.00345733
0.358806
-0.318939
-0.410678
0.333753
-0.224724
0.321822
-0.152111
0.315687
-0.101537
0.312135
-0.0676257
0.309864
-0.0449469
0.308346
-0.0294805
0.307354
-0.0185161
0.306785
-0.0102509
-0.00326775
0.371626
-0.268124
-0.422441
0.343981
-0.197079
0.328998
-0.137129
0.320506
-0.0930445
0.31536
-0.062479
0.312063
-0.0416503
0.309904
-0.0273215
0.308529
-0.0171411
0.307755
-0.00947692
-0.00301623
0.381226
-0.220343
-0.429007
0.352392
-0.168245
0.335243
-0.11998
0.324847
-0.0826486
0.31832
-0.0559521
0.3141
-0.0374303
0.311351
-0.0245726
0.309619
-0.0154086
0.308653
-0.00851153
-0.00270601
0.388265
-0.176304
-0.432303
0.359149
-0.139129
0.340523
-0.101354
0.328635
-0.0707606
0.320952
-0.0482686
0.315927
-0.0324062
0.312654
-0.0212987
0.310599
-0.0133542
0.30946
-0.00737264
-0.00234217
0.393299
-0.135951
-0.433653
0.364431
-0.110261
0.344846
-0.0817683
0.331824
-0.0577393
0.323204
-0.0396485
0.317506
-0.0267078
0.313783
-0.0175755
0.31145
-0.0110212
0.31016
-0.00608265
-0.00193135
0.396789
-0.0987946
-0.433946
0.368414
-0.0818855
0.348238
-0.0615917
0.334388
-0.0438894
0.325041
-0.030302
0.318803
-0.0204699
0.314714
-0.0134862
0.312152
-0.00845888
0.310737
-0.0046676
-0.00148147
0.399093
-0.0641244
-0.433763
0.371251
-0.0540432
0.350735
-0.0410761
0.336312
-0.0294664
0.326436
-0.0204264
0.319795
-0.0138285
0.315428
-0.00911929
0.31269
-0.00572118
0.311179
-0.00315642
-0.00100143
0.400424
-0.0311369
-0.433412
0.373024
-0.0266428
0.352338
-0.0203898
0.33756
-0.0146888
0.327343
-0.0102089
0.320435
-0.00692123
0.315883
-0.00456721
0.313028
-0.00286589
0.311452
-0.00158061
-0.000501024
0.394118
-0.425255
0.367475
0.347085
0.332397
0.322188
0.315266
0.310699
0.307833
0.306253
0.419685
0.00620824
-0.419885
0.418966
0.0182376
0.4177
0.0299916
0.415837
0.0413151
0.413318
0.0520782
0.410078
0.0621789
0.406055
0.0715419
0.40125
0.0800615
0.39519
0.088281
0.0929436
0.40291
0.00603675
-0.402738
0.403393
0.0177549
0.404156
0.0292283
0.405154
0.0403164
0.406328
0.0509047
0.407601
0.0609057
0.408879
0.070264
0.410056
0.0788841
0.410939
0.0873982
0.0932047
0.389573
0.00561797
-0.389154
0.390779
0.0165483
0.392747
0.027261
0.395433
0.03763
0.398784
0.0475537
0.402734
0.0569561
0.407202
0.0657955
0.412073
0.0740133
0.417423
0.0820484
0.0881866
0.379033
0.0050352
-0.37845
0.380731
0.0148506
0.38352
0.0244721
0.387362
0.0337872
0.39221
0.042706
0.398002
0.0511639
0.40467
0.0591279
0.41212
0.0665627
0.420436
0.0737329
0.0796156
0.370754
0.00433937
-0.370058
0.372791
0.0128131
0.376147
0.0211161
0.380785
0.0291492
0.386657
0.0368341
0.393705
0.0441157
0.401869
0.0509646
0.411072
0.0573589
0.421355
0.0634499
0.0686674
0.364346
0.00356433
-0.36357
0.366621
0.0105377
0.370372
0.0173648
0.375561
0.0239607
0.382136
0.0302583
0.390041
0.0362107
0.399215
0.0417909
0.409589
0.0469852
0.421161
0.0518781
0.0561756
0.359528
0.00273284
-0.358697
0.361973
0.00809321
0.366003
0.0133345
0.371576
0.0183875
0.378637
0.0231971
0.387124
0.0277242
0.39697
0.0319451
0.408104
0.0358511
0.420493
0.0394883
0.042723
0.356104
0.00186009
-0.355231
0.358671
0.00552623
0.3629
0.00910462
0.368744
0.0125437
0.376139
0.0158023
0.385013
0.0188504
0.395289
0.0216693
0.406888
0.0242521
0.419755
0.026621
0.0287149
0.353848
0.000950439
-0.352939
0.356514
0.00286076
0.360898
0.00472054
0.366943
0.00649913
0.374573
0.00817191
0.383702
0.00972113
0.394236
0.0111354
0.406078
0.01241
0.419151
0.0135487
0.0144534
0.341734
-0.340783
0.344595
0.349315
0.355814
0.363986
0.373707
0.384843
0.397253
0.410802
0.0808334
0.118465
-0.109672
-0.0896264
0.0722941
0.120968
-0.112429
0.063701
0.123975
-0.115382
0.0550014
0.1272
-0.1185
0.0461375
0.130706
-0.121842
0.0370606
0.134534
-0.125457
0.0277295
0.138729
-0.129398
0.0181116
0.143286
-0.133668
0.00828765
0.146762
-0.136938
0.124534
-0.116246
0.0751227
0.126092
-0.0827497
0.0672557
0.128835
0.059269
0.131962
0.051151
0.135318
0.0428751
0.138982
0.0344103
0.142999
0.0257236
0.147416
0.016785
0.152225
0.0076711
0.155876
0.132205
0.068422
0.133076
-0.0754063
0.061283
0.135974
0.0540276
0.139217
0.0466356
0.14271
0.0390882
0.146529
0.0313635
0.150724
0.0234354
0.155344
0.0152798
0.160381
0.00697311
0.164182
0.139178
0.0611139
0.139353
-0.0673906
0.0547207
0.142367
0.0482312
0.145707
0.0416221
0.149319
0.0348758
0.153275
0.0279728
0.157627
0.0208899
0.162427
0.0136066
0.167664
0.00619825
0.171591
0.145376
0.0531708
0.144861
-0.0586788
0.0475789
0.147959
0.0419138
0.151372
0.0361518
0.155081
0.0302762
0.159151
0.0242687
0.163634
0.0181089
0.168587
0.0117793
0.173994
0.00535343
0.178017
0.15073
0.0445747
0.149519
-0.0492332
0.0398586
0.152675
0.0350894
0.156141
0.0302454
0.159925
0.0253114
0.164085
0.0202714
0.168674
0.0151079
0.17375
0.00980779
0.179294
0.00444453
0.18338
0.155174
0.0353613
0.153247
-0.0390891
0.0315971
0.156439
0.0277957
0.159943
0.0239389
0.163782
0.0200139
0.16801
0.0160072
0.172681
0.0119045
0.177853
0.00769991
0.183498
0.00347843
0.187601
0.158653
0.0256149
0.155971
-0.0283394
0.0228705
0.159183
0.0201015
0.162712
0.0172939
0.166589
0.0144374
0.170866
0.0115206
0.175598
0.00852935
0.180844
0.00545857
0.186569
0.00244805
0.190612
0.161101
0.015459
0.157635
-0.0171221
0.0137887
0.160854
0.0121041
0.164396
0.0103967
0.168297
0.00865979
0.172603
0.00688546
0.177372
0.00506233
0.182667
0.00316373
0.188468
0.00129842
0.192477
0.162399
0.00504776
-0.00561226
0.00448598
0.00392068
0.00334952
0.0027717
0.00218788
0.00160351
0.00103931
0.000336812
0.113749
0.0196901
-0.124926
-0.00851274
0.102257
0.0201695
-0.0086777
0.090466
0.0206474
-0.00885637
0.0783484
0.0211692
-0.00905154
0.0658775
0.0217375
-0.00926663
0.0530241
0.022359
-0.00950554
0.0397548
0.0230421
-0.00977276
0.0260361
0.0237891
-0.0100705
0.0119653
0.0243803
-0.0103095
0.0207733
-0.00880795
0.112774
0.0308094
-0.123893
0.101353
0.0315905
0.0896436
0.0323568
0.0776184
0.0331944
0.0652504
0.0341054
0.0525099
0.0350995
0.039363
0.036189
0.0257756
0.0373765
0.0118437
0.0383122
0.032617
0.111382
0.0418395
-0.122413
0.100068
0.0429047
0.0884794
0.0439456
0.0765887
0.0450851
0.0643687
0.0463255
0.0517889
0.0476793
0.0388148
0.0491631
0.0254118
0.0507795
0.011674
0.05205
0.0442911
0.109488
0.0527376
-0.120386
0.0983284
0.0540647
0.0869104
0.0553636
0.0752069
0.0567886
0.06319
0.0583424
0.0508283
0.060041
0.0380865
0.0619049
0.0249293
0.0639367
0.0114492
0.0655301
0.0557402
0.106992
0.0634442
-0.117698
0.096049
0.0650072
0.0848667
0.066546
0.0734167
0.0682385
0.0616701
0.0700891
0.0495946
0.0721166
0.0371541
0.0743453
0.024313
0.0767778
0.0111623
0.0786807
0.0669026
0.103788
0.0738781
-0.114222
0.0931465
0.0756485
0.0822828
0.0774097
0.0711681
0.0793532
0.059772
0.0814852
0.0480614
0.0838272
0.0360001
0.0864067
0.0235525
0.0892253
0.0108091
0.0914242
0.0777116
0.0997899
0.0839337
-0.109846
0.089558
0.0858804
0.0791165
0.0878512
0.0684346
0.0900351
0.0574806
0.0924391
0.0462213
0.0950865
0.0346213
0.0980067
0.0226472
0.101199
0.0103895
0.103682
0.0881011
0.0949496
0.0934633
-0.104479
0.0852714
0.0955586
0.0753793
0.0977433
0.0652403
0.100174
0.0548243
0.102855
0.0441013
0.10581
0.0330401
0.109068
0.0216123
0.112627
0.00991099
0.115383
0.0980121
0.0893394
0.102194
-0.0980697
0.0804179
0.10448
0.0712124
0.106949
0.0617135
0.109673
0.0519087
0.11266
0.0417822
0.115936
0.0313138
0.119536
0.0204839
0.123457
0.00938983
0.126477
0.107402
0.0832902
-0.0907682
0.0753418
0.0669087
0.0580814
0.0488996
0.0393784
0.0295165
0.0193051
0.00884445
0.199251
0.0158772
-0.0171381
0.201904
0.0163894
-0.0190427
0.202462
0.0207047
-0.0212623
0.20283
0.0243677
-0.0247366
0.202461
0.0299054
-0.0295364
0.200644
0.0374743
-0.0356573
0.196144
0.0474909
-0.0429905
0.186528
0.0608943
-0.0512782
0.166613
0.0801084
-0.0601938
0.111306
-0.0696185
0.199175
0.0146915
0.201693
0.0138715
0.202162
0.0202358
0.202432
0.024098
0.201931
0.0304067
0.199933
0.039472
0.19519
0.0522342
0.185284
0.0707997
0.165169
0.100224
0.152581
0.198997
0.0136841
0.201197
0.0116716
0.201455
0.0199783
0.201507
0.0240459
0.200752
0.0311617
0.198451
0.0417726
0.193347
0.0573379
0.183061
0.0810861
0.162758
0.120527
0.192927
0.198714
0.0129599
0.200416
0.00996956
0.200347
0.020047
0.200066
0.0243275
0.198935
0.0322925
0.196207
0.0445002
0.190621
0.0629243
0.179847
0.0918604
0.159326
0.141048
0.231866
0.198321
0.0126289
0.19935
0.00893982
0.198853
0.0205442
0.198124
0.025057
0.196495
0.0339215
0.193214
0.0477808
0.187017
0.0691212
0.17563
0.103248
0.154781
0.161897
0.268949
0.197809
0.0128097
0.198001
0.00874795
0.19699
0.0215552
0.1957
0.0263471
0.193449
0.0361719
0.189488
0.0517419
0.182547
0.0760628
0.170398
0.115396
0.14897
0.183325
0.303697
0.197167
0.0136321
0.196369
0.00954676
0.194779
0.0231447
0.192814
0.0283117
0.189819
0.0391672
0.185048
0.0565129
0.17722
0.0838909
0.164143
0.128473
0.142001
0.205467
0.335853
0.196382
0.0152402
0.194457
0.0114716
0.192249
0.0253525
0.189491
0.03107
0.185627
0.0430309
0.179917
0.0622232
0.171055
0.0927525
0.156918
0.142611
0.134503
0.227881
0.365877
0.195436
0.0177943
0.192272
0.0146348
0.189435
0.0281903
0.185753
0.0347511
0.180905
0.0478797
0.174145
0.0689829
0.164164
0.102733
0.149006
0.157769
0.126813
0.250074
0.39462
0.194367
0.0214169
0.1898
0.0192017
0.186379
0.0316112
0.181644
0.0394864
0.175721
0.0538025
0.167839
0.0768652
0.156683
0.113889
0.140369
0.174084
0.117457
0.272986
0.421309
0.303323
0.0201046
0.302956
0.0195681
0.305107
0.0294604
0.306472
0.0381211
0.307935
0.0523401
0.309865
0.0749347
0.313229
0.110525
0.32099
0.166323
0.342168
0.251809
0.372213
0.391263
0.30364
0.0184747
0.30408
0.019128
0.306334
0.0272064
0.308494
0.0359614
0.311148
0.0496866
0.31494
0.0711426
0.321225
0.10424
0.333253
0.154295
0.358723
0.226338
0.320206
0.41073
0.303914
0.0165708
0.305086
0.0179565
0.307574
0.0247184
0.310442
0.0330928
0.314194
0.0459352
0.319644
0.0656926
0.328348
0.0955357
0.343503
0.139139
0.371475
0.198366
0.269309
0.422372
0.304192
0.0143892
0.305959
0.016189
0.30876
0.0219176
0.312265
0.0295877
0.316999
0.0412009
0.323885
0.0588066
0.334548
0.0848729
0.351929
0.121758
0.381023
0.169272
0.221415
0.428917
0.304468
0.0119312
0.306719
0.0139384
0.309848
0.0187888
0.313914
0.0255215
0.3195
0.0356144
0.32759
0.0507166
0.339789
0.0726737
0.358682
0.102866
0.388006
0.139948
0.177234
0.432187
0.304739
0.00920285
0.307373
0.0113041
0.310802
0.0153592
0.315347
0.0209775
0.321645
0.0293155
0.330711
0.0416515
0.344077
0.0593076
0.363949
0.0829938
0.392992
0.110905
0.136718
0.433508
0.305001
0.00621236
0.307926
0.00837901
0.3116
0.0116853
0.31653
0.0160467
0.323398
0.022448
0.333219
0.0318302
0.347439
0.0450881
0.367911
0.0625215
0.396444
0.0823718
0.0993861
0.433776
0.305257
0.0029657
0.30838
0.00525589
0.312219
0.00784648
0.317439
0.0108262
0.324731
0.0151568
0.335103
0.0214582
0.349912
0.0302785
0.370728
0.0417056
0.398722
0.0543777
0.0645369
0.433571
0.305496
-0.000520313
0.308713
0.0020391
0.312617
0.00394234
0.318029
0.00541395
0.325601
0.00758541
0.336331
0.0107282
0.351509
0.0151005
0.372501
0.020713
0.400058
0.0268213
0.03141
0.433185
0.30149
0.303529
0.307471
0.312885
0.320471
0.331199
0.346299
0.367012
0.393834
0.425244
0.397459
-0.0958216
0.401655
-0.0869457
0.405892
-0.0796439
0.409715
-0.0712131
0.412924
-0.0618887
0.415485
-0.0517938
0.417422
-0.0410255
0.418777
-0.029695
0.419591
-0.0179364
-0.00590601
0.41043
-0.095521
0.409831
-0.0863468
0.408779
-0.0785926
0.407536
-0.06997
0.406267
-0.0606194
0.405091
-0.0506175
0.404096
-0.0400307
0.403346
-0.0289454
0.402885
-0.0174752
-0.00575933
0.416753
-0.0899018
0.411698
-0.0812919
0.406861
-0.0737557
0.402443
-0.0655516
0.398544
-0.0567211
0.395244
-0.0473175
0.392608
-0.037394
0.390688
-0.027026
0.389528
-0.0163148
-0.00538552
0.419845
-0.0808298
0.411774
-0.0732204
0.404364
-0.0663456
0.397741
-0.0589292
0.391992
-0.0509722
0.387188
-0.0425133
0.383389
-0.0335946
0.380643
-0.0242806
0.378989
-0.0146607
-0.00484636
0.420857
-0.0694997
0.410739
-0.063103
0.401576
-0.0571825
0.393454
-0.0508069
0.386445
-0.0439636
0.380615
-0.0366828
0.376019
-0.028999
0.372706
-0.0209673
0.370711
-0.0126659
-0.00419312
0.420736
-0.0567273
0.409275
-0.0516417
0.39894
-0.0468475
0.389804
-0.0416707
0.381935
-0.0360953
0.375398
-0.0301454
0.370249
-0.0238502
0.366538
-0.0172567
0.364304
-0.0104317
-0.00345944
0.420118
-0.0430691
0.407804
-0.039328
0.396706
-0.0357499
0.386896
-0.0318599
0.378444
-0.0276435
0.371419
-0.0231203
0.365883
-0.0183148
0.361892
-0.0132655
0.359488
-0.00802713
-0.00266834
0.419407
-0.0289049
0.406596
-0.0265164
0.395032
-0.0241865
0.384789
-0.0216172
0.375949
-0.0188031
0.368589
-0.0157604
0.362782
-0.0125078
0.358591
-0.0090741
0.356063
-0.0054998
-0.00183587
0.418758
-0.0144783
0.40574
-0.013498
0.393936
-0.0123825
0.383436
-0.0111171
0.374343
-0.0097102
0.366752
-0.00817009
0.360751
-0.00650686
0.356414
-0.00473687
0.353798
-0.00288355
-0.000976689
0.410765
0.397267
0.384885
0.373768
0.364058
0.355887
0.349381
0.344644
0.34176
0.00197581
0.191283
-0.193258
0.00344126
0.227991
-0.229457
0.00495436
0.223654
-0.225167
0.00648471
0.217727
-0.219257
0.00806932
0.212594
-0.214178
0.00973308
0.208278
-0.209942
0.0115004
0.204697
-0.206464
0.0133975
0.201778
-0.203675
0.015452
0.19946
-0.201515
0.197694
0.0176662
-0.199908
0.00427924
0.187003
0.00909517
0.223175
0.0136854
0.219063
0.018329
0.213084
0.0231037
0.207819
0.0280717
0.20331
0.0332967
0.199472
0.0388457
0.196229
0.0447928
0.193513
0.191278
0.0512092
0.0064451
0.180558
0.0139127
0.215708
0.0212564
0.21172
0.0286312
0.205709
0.0361442
0.200306
0.0438877
0.195567
0.0519507
0.191409
0.0604228
0.187757
0.069398
0.184538
0.181686
0.0789901
0.00818878
0.17237
0.0178207
0.206076
0.0273464
0.202194
0.0368551
0.1962
0.0464579
0.190703
0.0562517
0.185773
0.0663272
0.181333
0.0767713
0.177312
0.087668
0.173641
0.170217
0.0991363
0.00947962
0.16289
0.0207134
0.194842
0.0318293
0.191078
0.0428514
0.185178
0.0538789
0.179676
0.064999
0.174653
0.076289
0.170044
0.0878184
0.165783
0.0996464
0.161813
0.157988
0.111875
0.01035
0.15254
0.0226685
0.182524
0.0348384
0.178908
0.0468262
0.17319
0.0587116
0.16779
0.0705655
0.162799
0.0824477
0.158161
0.0944083
0.153822
0.106484
0.149738
0.145717
0.118755
0.0108796
0.14166
0.0238628
0.16954
0.03666
0.166111
0.0491901
0.16066
0.061513
0.155468
0.0736833
0.150629
0.0857457
0.146099
0.0977348
0.141833
0.109673
0.1378
0.133768
0.121622
0.0111651
0.130495
0.024508
0.156197
0.0376292
0.15299
0.0504113
0.147878
0.062897
0.142982
0.0751279
0.138398
0.0871372
0.13409
0.0989491
0.130021
0.110579
0.12617
0.122284
0.122063
0.0112969
0.119198
0.024805
0.142689
0.0380604
0.139734
0.0509204
0.135018
0.0634139
0.130488
0.0755728
0.126239
0.087422
0.122241
0.0989797
0.118464
0.110254
0.114896
0.111205
0.121333
0.0113505
0.107848
0.0249233
0.129117
0.0382202
0.126438
0.0510823
0.122156
0.0635307
0.11804
0.0755936
0.114176
0.0872982
0.110536
0.0986717
0.10709
0.109743
0.103824
0.100503
0.120444
0.0113802
0.0964676
0.0249836
0.115513
0.0382913
0.11313
0.0511313
0.109316
0.0635116
0.10566
0.0754444
0.102243
0.086932
0.0990483
0.0979642
0.0960579
0.108515
0.0932733
0.0908299
0.118189
0.0114254
0.0850421
0.0250826
0.101856
0.0384393
0.0997732
0.0513215
0.0964334
0.0637392
0.0932421
0.0757099
0.0902723
0.0872476
0.0875106
0.0983632
0.0849422
0.109073
0.0825638
0.0805609
0.119342
0.0114976
0.0735445
0.0252444
0.0881092
0.0386965
0.086321
0.0516831
0.0834468
0.0642207
0.0807044
0.0763363
0.0781567
0.0880559
0.075791
0.0994055
0.0735926
0.110416
0.071553
0.069856
0.121121
0.0115809
0.0619636
0.025432
0.0742582
0.038995
0.072758
0.0521009
0.0703409
0.06477
0.0680353
0.0770331
0.0658936
0.08892
0.0639042
0.100459
0.0620535
0.111682
0.0603305
0.058904
0.122634
0.0116579
0.0503057
0.0256064
0.0603097
0.0392712
0.0590932
0.0524829
0.0571292
0.0652635
0.0552547
0.0776448
0.0535123
0.089657
0.051892
0.101328
0.0503823
0.112687
0.0489719
0.0478084
0.123782
0.0117169
0.0385888
0.0257436
0.046283
0.0394884
0.0453483
0.0527812
0.0438364
0.0656443
0.0423917
0.0781097
0.0410469
0.0902071
0.0397946
0.101964
0.0386257
0.113405
0.0375305
0.0366311
0.124582
0.0117547
0.0268341
0.0258327
0.032205
0.03963
0.0315511
0.0529751
0.0304912
0.0658906
0.0294762
0.0784082
0.0285293
0.090557
0.0276457
0.102363
0.0268195
0.113851
0.0260431
0.0254107
0.125071
0.0117691
0.015065
0.0258688
0.0181053
0.0396885
0.0177314
0.0530566
0.0171231
0.0659954
0.0165374
0.0785365
0.0159882
0.0907088
0.0154734
0.102538
0.0149904
0.114046
0.0145347
0.0141708
0.125286
0.0117587
0.00330632
0.025848
0.00401604
0.0396588
0.00392057
0.0530198
0.00376212
0.0659535
0.00360365
0.0784915
0.00345014
0.0906626
0.00330241
0.102492
0.00316088
0.114002
0.00302495
0.00292928
0.125243
0.0117209
0.0257654
0.0395338
0.052856
0.0657551
0.0782629
0.0904082
0.102216
0.113709
0.124941
0.135309
0.23478
-0.2519
0.14951
0.103494
-0.117696
0.159257
0.0352203
-0.0449675
0.166321
0.00518089
-0.0122447
0.172026
-0.00666393
0.000959344
0.177074
-0.0102432
0.00519463
0.181695
-0.0102821
0.0056611
0.185998
-0.00885591
0.00455244
0.190016
-0.00689354
0.00287602
-0.00471866
0.000988979
0.141272
0.21285
0.15648
0.0882867
0.166112
0.0255881
0.172605
-0.00131244
0.177491
-0.0115499
0.181562
-0.0143137
0.18513
-0.0138504
0.188342
-0.0120676
0.191255
-0.00980729
-0.00734844
0.146143
0.187827
0.162775
0.0716552
0.172352
0.0160108
0.178306
-0.00726636
0.18246
-0.0157037
0.185653
-0.0175064
0.188271
-0.0164689
0.190497
-0.0142935
0.192413
-0.0117235
-0.00898224
0.151105
0.159356
0.168565
0.0541956
0.177976
0.00659972
0.183439
-0.0127296
0.186919
-0.0191833
0.18933
-0.0199171
0.191104
-0.0182434
0.192455
-0.0156443
0.193485
-0.0127533
-0.00972991
0.155944
0.127194
0.17364
0.0364992
0.182885
-0.00264557
0.187935
-0.0177793
0.190836
-0.0220847
0.19257
-0.0216511
0.193614
-0.0192865
0.194205
-0.0162357
0.194465
-0.013013
-0.00970645
0.159843
0.091934
0.1779
0.0184423
0.187049
-0.0117949
0.191768
-0.0224977
0.194189
-0.0245062
0.195357
-0.0228193
0.195786
-0.0197154
0.195738
-0.0161877
0.195348
-0.0126229
-0.00903151
0.162786
0.0542194
0.181311
-8.27613e-05
0.190442
-0.0209262
0.19491
-0.0269654
0.196956
-0.0265526
0.197674
-0.0235374
0.19761
-0.0196515
0.197047
-0.0156242
0.196131
-0.0117076
-0.00782872
0.164868
0.0146379
0.183859
-0.0190739
0.193028
-0.0300953
0.197339
-0.031276
0.19912
-0.0283341
0.199508
-0.0239253
0.199076
-0.0192194
0.198124
-0.0146722
0.196811
-0.0103943
-0.00622514
0.166128
-0.026247
0.185515
-0.0384603
0.194784
-0.0393645
0.199036
-0.0355279
0.200667
-0.0299654
0.200848
-0.0241059
0.200175
-0.0185464
0.198963
-0.0134608
0.197382
-0.00881318
-0.00435055
0.16655
0.186261
0.19569
0.199987
0.201586
0.201685
0.2009
0.19956
0.197843
0.228463
0.0514504
-0.279914
0.202897
0.0255663
0.192228
0.0106694
0.188806
0.00342123
0.188496
0.000310168
0.189283
-0.000787153
0.190289
-0.0010056
0.191137
-0.000847834
0.191683
-0.000545756
-0.000189232
0.235764
0.106142
-0.290456
0.209723
0.0516076
0.199115
0.0212773
0.195825
0.00671067
0.195631
0.000504386
0.196505
-0.00166103
0.197573
-0.00207365
0.198462
-0.00173741
0.199033
-0.00111634
-0.000386999
0.232388
0.158961
-0.285206
0.207827
0.0761681
0.198236
0.0308685
0.195495
0.00945188
0.195563
0.000435735
0.196554
-0.00265144
0.197672
-0.00319144
0.198581
-0.00264627
0.199158
-0.00169344
-0.000586081
0.227011
0.208381
-0.276431
0.204857
0.0983217
0.196825
0.0389011
0.194901
0.0113758
0.195355
-1.9023e-05
0.196516
-0.00381224
0.197706
-0.00438116
0.198642
-0.00358247
0.199228
-0.00227936
-0.000786837
0.220462
-0.263981
0.201088
0.195021
0.194152
0.195093
0.196475
0.197755
0.198725
0.199322
0.0528044
-0.0035389
-0.0492655
0.0642429
-0.0114384
0.082826
-0.0185831
0.107038
-0.0242125
0.134885
-0.0278467
0.16443
-0.0295448
0.194274
-0.029844
0.22364
-0.0293655
0.252428
-0.0287883
-0.0274857
0.0919991
-0.00756785
-0.0879701
0.103387
-0.0228259
0.120622
-0.0358186
0.141738
-0.0453283
0.164989
-0.0510978
0.18927
-0.0538261
0.214038
-0.0546122
0.23907
-0.0543968
0.264545
-0.0542637
-0.0533965
0.10082
-0.0111318
-0.0972565
0.110759
-0.0327639
0.12581
-0.0508704
0.144499
-0.0640167
0.165582
-0.0721815
0.188186
-0.0764302
0.211729
-0.078155
0.235838
-0.0785057
0.260546
-0.0789714
-0.0780571
0.102292
-0.0144385
-0.0989848
0.111632
-0.042104
0.125875
-0.0651135
0.143693
-0.0818347
0.163914
-0.0924033
0.185635
-0.0981505
0.20819
-0.10071
0.231145
-0.101461
0.254202
-0.102029
-0.100285
0.102643
-0.0994157
0.111749
0.125625
0.142927
0.162399
0.183003
0.203916
0.224517
0.243822
0.106734
-0.0905683
0.099818
-0.115984
0.0968503
-0.0931789
0.103063
0.0862508
-0.0959083
0.106508
0.0750576
-0.0988606
0.110054
0.0633329
-0.102031
0.113756
0.0511071
-0.105432
0.117658
0.0383886
-0.109083
0.121802
0.0251749
-0.112972
0.126186
0.0115839
-0.116002
0.129593
-0.0986817
0.110266
0.108559
-0.0803096
-0.118817
0.097992
-0.0826125
0.0870046
-0.0849208
0.0755836
-0.0874396
0.0637176
-0.0901654
0.0513936
-0.0931084
0.0385956
-0.0962851
0.0253076
-0.0996839
0.0116427
-0.102337
-0.087039
0.110414
-0.069583
-0.121141
0.0994203
-0.0716189
0.0881025
-0.073603
0.0764255
-0.0757626
0.0643576
-0.0780975
0.0518693
-0.0806201
0.0389313
-0.0833471
0.0255179
-0.0862704
0.0117356
-0.0885545
-0.0753034
0.111977
-0.0586262
-0.122934
0.100735
-0.0603766
0.089187
-0.062055
0.0773024
-0.063878
0.0650497
-0.0658447
0.0523963
-0.0679667
0.039309
-0.0702598
0.025757
-0.0727184
0.0118425
-0.07464
-0.0634609
0.11317
-0.0475358
-0.12426
0.101777
-0.0489839
0.090079
-0.050357
0.0780483
-0.0518472
0.0656551
-0.0534516
0.0528681
-0.0551797
0.0396531
-0.0570448
0.0259778
-0.0590431
0.0119424
-0.0606047
-0.0515184
0.114008
-0.0363663
-0.125177
0.102524
-0.0375004
0.0907325
-0.0385651
0.0786056
-0.0397204
0.0661158
-0.0409618
0.0532327
-0.0422965
0.0399224
-0.0437345
0.0261523
-0.045273
0.012022
-0.0464744
-0.0394965
0.114523
-0.0251553
-0.125734
0.102989
-0.0259667
0.091144
-0.0267199
0.0789607
-0.0275371
0.0664124
-0.0284135
0.0534694
-0.0293535
0.0400985
-0.0303637
0.0262671
-0.0314416
0.0120745
-0.0322818
-0.027422
0.114748
-0.0139269
-0.125976
0.103192
-0.0144111
0.0913235
-0.0148514
0.0791155
-0.0153291
0.0665415
-0.0158395
0.0535722
-0.0163842
0.0401748
-0.0169662
0.0263166
-0.0175834
0.012097
-0.0180621
-0.015325
0.114698
-0.00270113
-0.125924
0.103143
-0.0028561
0.0912765
-0.00298479
0.0790714
-0.00312402
0.0665015
-0.0032696
0.0535378
-0.00342046
0.0401475
-0.0035759
0.0262978
-0.00373376
0.0120878
-0.00385211
-0.00323718
0.114372
-0.125586
0.102839
0.0909975
0.0788219
0.0662857
0.0533597
0.040011
0.0262068
0.0120451
0.0156902
-0.197499
-0.0180998
0.0135019
-0.199326
0.0114622
-0.201635
0.00953665
-0.204539
0.00770096
-0.208106
0.00593368
-0.212411
0.00421861
-0.217542
0.00254755
-0.223496
0.000737079
-0.227646
-0.192521
0.0450978
-0.190817
-0.0517798
0.0389621
-0.193191
0.0332485
-0.195921
0.0278588
-0.199149
0.0227176
-0.202965
0.017753
-0.207446
0.0128884
-0.212678
0.00804548
-0.218653
0.00349337
-0.223094
-0.189028
0.0695985
-0.180999
-0.0794159
0.0604425
-0.184035
0.0518339
-0.187313
0.0436458
-0.190961
0.0357799
-0.195099
0.0281434
-0.19981
0.0206437
-0.205178
0.0132078
-0.211217
0.00594525
-0.215831
-0.183083
0.0875844
-0.169464