/*--------------------------------*- C++ -*----------------------------------*\
  =========                 |
  \\      /  F ield         | OpenFOAM: The Open Source CFD Toolbox
   \\    /   O peration     | Website:  https://openfoam.org
    \\  /    A nd           | Version:  13
     \\/     M anipulation  |
\*---------------------------------------------------------------------------*/
FoamFile
{
    format      ascii;
    class       volVectorField;
    location    "0.975";
    object      U;
}
// * * * * * * * * * * * * * * * * * * * * * * * * * * * * * * * * * * * * * //

dimensions      [0 1 -1 0 0 0 0];

internalField   nonuniform List<vector> 
440
(
(0.218255 -0.176689 -1.81149e-19)
(0.613074 -0.43665 1.07861e-18)
(0.984294 -0.640903 4.23044e-19)
(1.32755 -0.795401 1.2434e-18)
(1.63259 -0.916787 -2.59961e-19)
(0.30489 -0.177681 -5.44451e-19)
(0.81913 -0.428695 -1.01955e-18)
(1.27997 -0.618897 1.14524e-19)
(1.69191 -0.76164 -1.21508e-18)
(2.05375 -0.875126 -1.02099e-18)
(0.384877 -0.152406 -6.98055e-19)
(1.00468 -0.363013 1.58978e-18)
(1.53975 -0.518384 -1.93457e-18)
(2.00471 -0.632634 1.37979e-18)
(2.40594 -0.721483 1.42951e-18)
(0.445865 -0.102745 5.62385e-19)
(1.14609 -0.243083 -1.29949e-18)
(1.73743 -0.344812 -7.50797e-19)
(2.24293 -0.418222 1.96645e-18)
(2.67445 -0.474467 2.50024e-18)
(0.479253 -0.0361581 6.86899e-19)
(1.22363 -0.0847542 1.69138e-19)
(1.84589 -0.119363 2.53128e-18)
(2.37401 -0.143865 -1.062e-18)
(2.82294 -0.162496 -4.83733e-19)
(-0.000946797 -0.0519033 2.72578e-19)
(0.0499426 -0.144922 -3.83476e-19)
(0.105843 -0.223185 1.11095e-18)
(0.171345 -0.293159 -1.77138e-19)
(0.239481 -0.354855 -1.60461e-18)
(0.0137146 -0.0844194 -2.6376e-19)
(0.0892414 -0.228139 -4.3117e-19)
(0.174007 -0.350697 1.09994e-19)
(0.268246 -0.450774 5.94524e-20)
(0.364476 -0.530993 -3.55574e-20)
(0.0433471 -0.114283 7.03154e-20)
(0.165444 -0.303267 5.32395e-19)
(0.296123 -0.467605 9.50773e-20)
(0.432801 -0.599193 1.45474e-18)
(0.567844 -0.697852 -2.49376e-20)
(0.0866148 -0.140986 6.69825e-20)
(0.276364 -0.367829 -3.56223e-20)
(0.469487 -0.563063 2.18536e-19)
(0.661408 -0.718645 -2.03232e-18)
(0.84413 -0.830644 9.56385e-19)
(0.142116 -0.161711 -2.35624e-19)
(0.420074 -0.412838 -4.42277e-19)
(0.691403 -0.621477 -7.69656e-19)
(0.950162 -0.782448 9.52497e-19)
(1.18524 -0.892916 3.45087e-18)
(0.592409 -0.593032 -4.02226e-18)
(0.962595 -0.518697 9.76651e-19)
(1.29652 -0.215215 3.64138e-19)
(1.50186 -0.0347921 -5.73275e-19)
(1.57988 0.00107183 -5.14559e-20)
(0.785075 -0.744486 4.83085e-18)
(1.04285 -0.625639 -3.07443e-19)
(1.31945 -0.289057 -1.44122e-19)
(1.54293 -0.0834132 3.85803e-19)
(1.69249 -0.0168189 1.19093e-19)
(1.03631 -0.878881 1.54845e-18)
(1.17733 -0.711673 4.05785e-18)
(1.34094 -0.361051 6.88418e-20)
(1.54624 -0.136123 3.60106e-19)
(1.74044 -0.0495213 -5.09149e-20)
(1.33059 -0.989238 1.21618e-18)
(1.35862 -0.772701 -4.22691e-19)
(1.3852 -0.422975 -7.70155e-19)
(1.53427 -0.182363 -2.95044e-19)
(1.65401 -0.0775454 1.31364e-19)
(1.62997 -1.04784 5.83239e-21)
(1.55524 -0.812063 -1.72474e-18)
(1.4488 -0.471156 0)
(1.49904 -0.23462 3.41893e-19)
(1.51988 -0.0889677 9.56823e-20)
(2.15644 -1.11561 -1.57979e-18)
(1.83397 -0.801104 -4.8997e-19)
(1.55985 -0.457507 -9.39751e-21)
(1.37445 -0.219756 8.04658e-20)
(1.32579 -0.0846182 -2.86158e-19)
(2.6325 -0.88999 -1.61182e-18)
(1.89888 -0.591253 2.98179e-18)
(1.43156 -0.320511 6.75017e-21)
(1.14843 -0.158383 2.21403e-19)
(1.06157 -0.0626935 0)
(2.47847 -0.522954 -6.92605e-18)
(1.60481 -0.339082 -1.48918e-19)
(1.14902 -0.179352 1.96296e-18)
(0.888171 -0.0932414 -3.39914e-19)
(0.783061 -0.0389168 -2.59686e-20)
(1.76238 -0.220013 6.83492e-18)
(1.08845 -0.135719 1.24259e-18)
(0.752194 -0.0678717 2.23615e-19)
(0.571027 -0.0368258 2.96779e-33)
(0.484751 -0.0168745 -7.1604e-20)
(0.683168 0.000176797 1.55181e-18)
(0.395171 0.0235673 7.12283e-19)
(0.267721 0.0240803 -5.17135e-19)
(0.205531 0.0153899 2.30156e-19)
(0.171161 0.00631785 -8.39213e-20)
(3.58188 -0.168162 1.2562e-17)
(3.41717 -0.502947 -1.04437e-17)
(3.13669 -0.787015 7.1086e-18)
(2.78064 -0.996134 2.32115e-18)
(2.33319 -1.10188 -4.14162e-19)
(3.78451 -0.10359 1.03945e-17)
(3.71744 -0.324465 -6.63888e-19)
(3.5777 -0.551831 -4.26981e-18)
(3.37825 -0.785777 2.6895e-18)
(3.10028 -1.01981 -6.62781e-19)
(3.11483 -0.06057 3.65447e-18)
(3.09865 -0.181683 -2.51886e-18)
(3.0596 -0.309669 5.01276e-18)
(2.99888 -0.444871 -1.52978e-19)
(2.9243 -0.593651 -4.79032e-18)
(2.19087 -0.0276241 2.7888e-18)
(2.18384 -0.0833663 8.43054e-18)
(2.16463 -0.143999 -6.53262e-19)
(2.13408 -0.207273 -6.60889e-18)
(2.11306 -0.269436 1.94585e-18)
(0.879441 -0.0018424 5.21228e-18)
(0.876492 -0.00523855 -1.16442e-19)
(0.867374 -0.00956707 -4.25727e-20)
(0.850513 -0.016253 -2.00946e-18)
(0.841162 -0.0229044 -3.60555e-18)
(1.65318 0.940157 2.27764e-18)
(1.34832 0.816736 -7.94594e-20)
(1.00337 0.658645 -3.58298e-20)
(0.627851 0.44946 -1.96225e-19)
(0.225213 0.182282 -1.33984e-19)
(2.07053 0.892538 -1.21884e-18)
(1.71069 0.777735 -1.20459e-18)
(1.29832 0.632575 7.31624e-19)
(0.83403 0.438709 -4.83985e-19)
(0.312131 0.18208 -4.03729e-21)
(2.4186 0.735862 -5.88882e-19)
(2.01967 0.645355 5.25242e-19)
(1.55499 0.528757 2.43639e-18)
(1.01753 0.370192 8.08282e-19)
(0.391333 0.155283 5.26033e-19)
(2.68202 0.486724 1.57241e-20)
(2.25238 0.428294 -2.71543e-19)
(1.74743 0.352324 -6.46736e-19)
(1.15476 0.247644 2.05638e-18)
(0.450322 0.104144 -3.26824e-19)
(2.82546 0.173874 -1.1705e-18)
(2.37727 0.152648 -1.60647e-18)
(1.84939 0.125347 -7.28683e-19)
(1.22671 0.0878342 7.96265e-19)
(0.480854 0.0366867 -3.25825e-19)
(0.241547 0.417676 -2.15489e-18)
(0.171245 0.354111 -1.82716e-18)
(0.103637 0.277605 3.18367e-19)
(0.0458721 0.184065 -4.91185e-20)
(-0.00158413 0.0677546 3.42368e-20)
(0.371247 0.59555 -8.00004e-19)
(0.274285 0.511038 -6.76668e-19)
(0.178912 0.400202 1.46489e-20)
(0.0926691 0.260048 -2.65256e-20)
(0.016923 0.0967259 2.69757e-20)
(0.581635 0.75469 2.18866e-18)
(0.446189 0.650618 -1.50472e-19)
(0.307947 0.507849 -1.45531e-19)
(0.174431 0.328937 -2.15619e-19)
(0.048458 0.124097 1.66939e-19)
(0.862017 0.875606 -1.29407e-18)
(0.67913 0.758859 1.97244e-18)
(0.48526 0.594437 2.98548e-19)
(0.288335 0.388553 1.02772e-19)
(0.0925587 0.149218 -1.18492e-19)
(1.2037 0.925451 -4.40781e-19)
(0.969103 0.811974 -4.57548e-19)
(0.708574 0.645155 3.59257e-19)
(0.433306 0.429186 3.58811e-19)
(0.148454 0.168527 1.89522e-21)
(0.948729 0.170083 -4.86948e-19)
(1.4948 0.130398 4.88789e-20)
(1.342 0.196564 1.87189e-20)
(1.0164 0.498439 -4.88023e-19)
(0.6001 0.646106 6.67007e-20)
(0.956667 0.0905686 1.81584e-19)
(1.51284 0.102834 3.13567e-19)
(1.3724 0.246898 2.77601e-19)
(1.06206 0.614937 -4.9193e-20)
(0.785048 0.804455 7.53651e-19)
(0.963168 0.0101767 6.21707e-20)
(1.53147 0.0778964 -2.16073e-20)
(1.37186 0.298919 -5.74835e-20)
(1.16462 0.714666 -4.03522e-19)
(1.03717 0.939074 9.14958e-20)
(0.966099 -0.068903 -1.85936e-20)
(1.53506 0.0562969 -7.62178e-19)
(1.3701 0.352583 7.01861e-20)
(1.32536 0.783231 1.17837e-18)
(1.33494 1.04331 9.47586e-19)
(0.963248 -0.145178 -1.53817e-20)
(1.50241 0.0492571 2.25676e-19)
(1.38734 0.40403 -5.91612e-20)
(1.5094 0.824738 -3.69094e-19)
(1.63623 1.09282 -2.7259e-18)
(0.944882 -0.238865 2.58648e-19)
(1.4394 0.017716 5.08994e-19)
(1.4621 0.3973 -4.0657e-20)
(1.76661 0.802526 3.12804e-18)
(2.15344 1.14383 -5.51887e-18)
(0.889365 -0.345243 -2.51515e-20)
(1.30777 -0.0301976 -6.46016e-19)
(1.39848 0.2845 6.888e-21)
(1.84081 0.596383 -3.07222e-18)
(2.59417 0.900832 1.67033e-18)
(0.788166 -0.411444 5.54604e-18)
(1.07667 -0.0921861 6.97933e-35)
(1.13425 0.150669 -2.11479e-18)
(1.5757 0.340886 2.62529e-18)
(2.45647 0.529768 5.032e-18)
(0.635182 -0.291793 1.51333e-19)
(0.71201 -0.0720165 5.26977e-19)
(0.731642 0.051929 2.4676e-19)
(1.07515 0.135347 6.22444e-19)
(1.75837 0.220514 -8.64577e-18)
(0.322818 -0.0431038 -4.30819e-18)
(0.293566 0.00573974 2.85642e-19)
(0.264921 -0.0133827 1.1125e-18)
(0.393395 -0.0240316 -7.69875e-19)
(0.686215 -0.000477341 -1.46656e-18)
(2.34872 1.12134 4.69197e-18)
(2.78734 1.01263 3.47428e-18)
(3.1409 0.80342 -5.69313e-18)
(3.41899 0.51962 -1.46168e-17)
(3.58239 0.185886 1.5764e-17)
(3.07876 1.01887 5.00929e-18)
(3.35397 0.795236 2.56321e-17)
(3.55689 0.560671 7.24214e-18)
(3.70106 0.331823 -3.08275e-17)
(3.77791 0.111137 -5.17324e-18)
(2.90564 0.592026 -7.22764e-18)
(2.98594 0.448105 -3.38023e-18)
(3.05216 0.312104 -6.29649e-18)
(3.09523 0.181713 -6.88932e-18)
(3.114 0.0584199 6.52288e-18)
(2.10628 0.265882 5.41662e-18)
(2.13014 0.205726 -4.04554e-19)
(2.16255 0.143024 4.87145e-18)
(2.18313 0.0821239 6.2894e-18)
(2.19077 0.0259928 -5.88797e-18)
(0.842561 0.0220512 -5.74761e-19)
(0.851951 0.0156511 3.52135e-18)
(0.868644 0.00912998 2.4433e-18)
(0.877498 0.00479178 -5.16951e-18)
(0.879841 0.00136122 -3.84297e-20)
(0.281991 0.0207608 5.52156e-19)
(0.656795 0.0404741 -7.43633e-19)
(0.973299 0.0440746 -8.18472e-19)
(0.944468 0.0274365 -1.51804e-18)
(0.697972 0.016389 -6.6375e-19)
(0.245628 0.0554707 7.45801e-19)
(0.591377 0.107095 1.44152e-18)
(0.864824 0.125164 -6.97422e-19)
(0.940094 0.0970161 1.96083e-18)
(0.724297 0.0532512 -2.70094e-18)
(0.185658 0.0742786 4.96275e-19)
(0.476476 0.145922 -1.39886e-18)
(0.707889 0.184792 -9.13944e-19)
(0.857442 0.175441 -1.81042e-18)
(0.741679 0.101248 -2.86254e-18)
(0.123328 0.0774875 -7.72698e-19)
(0.344822 0.160383 -1.37667e-18)
(0.534621 0.214914 4.39908e-18)
(0.677822 0.233347 -3.66692e-19)
(0.713158 0.180054 2.25463e-18)
(0.0752853 0.0723779 -6.23087e-19)
(0.230745 0.16013 1.56427e-18)
(0.372327 0.224559 6.1188e-19)
(0.482872 0.257794 -1.2956e-18)
(0.561369 0.258475 -1.75012e-19)
(0.0451564 0.0637859 8.37942e-20)
(0.149963 0.148789 -1.22152e-18)
(0.247764 0.212165 -9.43968e-19)
(0.325458 0.23409 -8.87756e-20)
(0.37125 0.223826 -5.007e-20)
(0.0264685 0.0557194 3.1232e-19)
(0.0950861 0.134327 5.90996e-19)
(0.160899 0.184788 -2.11204e-19)
(0.213771 0.195358 2.60442e-19)
(0.253644 0.185273 1.71999e-19)
(0.0133326 0.0488563 2.49514e-19)
(0.0586809 0.111325 1.33347e-18)
(0.10381 0.120962 -1.24392e-18)
(0.142846 0.107104 -2.79057e-18)
(0.179112 0.0856316 4.08269e-19)
(0.0062396 0.0392761 -2.3863e-19)
(0.0427466 0.0485249 -1.81011e-18)
(0.0800222 0.0214812 3.21954e-18)
(0.120145 -0.0103405 1.31365e-18)
(0.161695 -0.0441543 -2.69197e-19)
(0.00987275 0.0012486 2.09328e-19)
(0.0421028 -0.0505597 -4.51508e-19)
(0.0822109 -0.0967289 9.0072e-20)
(0.130914 -0.144704 1.0476e-19)
(0.181632 -0.190952 -3.56458e-22)
(0.338791 0.0718153 -7.54525e-20)
(0.614133 -0.0424367 -1.23092e-18)
(0.704994 -0.013541 2.54612e-19)
(0.716101 0.00748578 4.02648e-19)
(0.696798 0.00446864 1.19534e-20)
(0.303189 -0.0345592 -1.00245e-19)
(0.750862 -0.115198 1.48177e-18)
(0.889417 -0.0232194 9.19908e-19)
(0.915653 0.0115692 7.52183e-20)
(0.900945 0.00753908 -3.83363e-20)
(0.320267 -0.150204 -8.16036e-19)
(0.835799 -0.198706 3.17493e-18)
(1.05149 -0.0425713 -1.81778e-19)
(1.10342 0.014349 -3.35848e-19)
(1.09474 0.010568 6.781e-20)
(0.376531 -0.28912 1.10358e-18)
(0.885317 -0.298567 -2.71212e-18)
(1.17458 -0.083563 -5.37149e-19)
(1.27124 0.0114541 -3.13424e-20)
(1.27528 0.0120604 1.28652e-20)
(0.463039 -0.437657 4.96784e-19)
(0.920391 -0.406286 -5.40168e-19)
(1.2531 -0.144282 4.82265e-19)
(1.40836 -0.00286748 1.14609e-19)
(1.43918 0.00979259 2.57519e-20)
(0.182987 -0.0449721 9.55235e-19)
(0.145084 -0.00518423 0)
(0.162889 0.000955292 1.16644e-19)
(0.16212 -0.000564878 -9.34655e-21)
(0.155183 -0.000904148 -7.04821e-20)
(0.399799 0.0699718 0)
(0.408985 -0.000531288 0)
(0.467572 -0.00419072 5.17868e-20)
(0.468132 0.00377792 -3.79519e-20)
(0.449738 0.00183942 4.94922e-20)
(0.162698 -0.000821318 -3.68485e-19)
(0.186417 -0.00179194 3.1078e-18)
(0.213228 -0.00502008 -6.86356e-19)
(0.229826 -0.0149881 -3.11716e-18)
(0.245721 -0.0170086 -7.97117e-19)
(0.432061 0.0044416 6.09955e-19)
(0.484593 0.0196971 4.11572e-18)
(0.536491 0.0466993 -6.73029e-18)
(0.567669 0.0806156 2.2094e-18)
(0.598371 0.162221 3.79726e-18)
(0.370773 -0.220757 -3.32753e-19)
(0.324406 -0.23173 -9.33513e-20)
(0.248415 -0.212732 -3.3332e-19)
(0.150774 -0.150751 3.89096e-19)
(0.0458721 -0.0645742 1.13992e-19)
(0.257466 -0.169999 4.23355e-19)
(0.215057 -0.182062 1.41447e-18)
(0.162384 -0.17734 2.57315e-19)
(0.0967083 -0.135191 2.36553e-19)
(0.0269245 -0.0572055 -1.89351e-20)
(0.193172 -0.0552493 -3.12543e-19)
(0.151613 -0.0778066 -1.05974e-19)
(0.108794 -0.095363 1.63409e-18)
(0.0623153 -0.0975268 2.85088e-19)
(0.0132766 -0.0480923 -3.14607e-19)
(0.179029 0.08665 -6.37778e-19)
(0.132915 0.0527764 -7.0638e-19)
(0.0879524 0.0190189 1.31199e-18)
(0.0496012 -0.0111266 1.60304e-18)
(0.0112324 -0.0300824 1.9897e-19)
(0.189407 0.244324 1.24657e-19)
(0.134835 0.198 -1.19854e-19)
(0.0822776 0.148153 2.49065e-19)
(0.0384484 0.0970148 6.2612e-19)
(-0.00219066 0.0356278 9.36269e-20)
(0.697969 -0.0163445 1.53164e-18)
(0.944473 -0.0274143 -1.80087e-18)
(0.973108 -0.0442015 2.27012e-18)
(0.656807 -0.0405368 3.64669e-19)
(0.282025 -0.0207695 5.3671e-19)
(0.724286 -0.053146 1.77275e-18)
(0.93995 -0.0970325 7.9469e-18)
(0.864624 -0.12527 1.03371e-18)
(0.59143 -0.107135 1.34957e-18)
(0.245724 -0.0554921 -4.78536e-19)
(0.741586 -0.10101 -1.22118e-18)
(0.856842 -0.175284 -2.29683e-18)
(0.707814 -0.184858 2.9246e-18)
(0.476546 -0.145992 -1.08248e-19)
(0.185782 -0.0743148 3.39508e-19)
(0.712616 -0.179888 1.65777e-20)
(0.677141 -0.233314 -7.68719e-18)
(0.534662 -0.215251 -6.00069e-18)
(0.344961 -0.160717 1.09175e-18)
(0.123511 -0.0775914 5.08047e-19)
(0.559032 -0.257056 4.67046e-19)
(0.481892 -0.257287 5.337e-19)
(0.372412 -0.225301 -9.00035e-19)
(0.231006 -0.160998 -8.88516e-19)
(0.0756333 -0.072634 -5.14511e-21)
(0.728115 0.373155 1.17639e-18)
(0.879701 0.127849 -1.89179e-19)
(0.67644 0.020715 2.50271e-19)
(0.643423 0.0350979 -7.46063e-19)
(0.362649 -0.0620957 -1.00641e-19)
(0.828289 0.398167 -1.71055e-19)
(1.08607 0.158066 -5.88723e-19)
(0.868231 0.0395824 8.40698e-19)
(0.803573 0.097752 1.67066e-18)
(0.340345 0.0537174 1.02902e-19)
(0.893634 0.372791 -2.28074e-18)
(1.26411 0.172253 -3.80798e-20)
(1.04002 0.0640071 2.5296e-19)
(0.908246 0.176744 1.72336e-18)
(0.365001 0.176302 -1.45666e-18)
(0.927217 0.318802 1.53391e-18)
(1.39915 0.174096 1.60368e-20)
(1.17969 0.100899 -2.21281e-19)
(0.96497 0.275275 -8.21021e-19)
(0.416524 0.323202 -6.01166e-19)
(0.940658 0.247624 1.8902e-19)
(1.47284 0.157644 4.06602e-20)
(1.27896 0.14666 -9.74571e-20)
(0.994799 0.383353 -1.22783e-19)
(0.487261 0.480838 1.37164e-18)
(0.27573 0.0483754 0)
(0.244303 -0.0113096 6.51109e-19)
(0.157423 -0.0159169 1.26947e-19)
(0.150029 0.00552797 -1.10761e-19)
(0.18439 0.044133 -1.80813e-18)
(0.573616 0.266369 -1.01989e-17)
(0.609224 0.0751501 -2.56641e-18)
(0.444554 0.0137738 5.0299e-19)
(0.422673 2.96202e-05 -6.4797e-19)
(0.407541 -0.0683443 -6.62255e-19)
(0.245848 0.0169752 -7.79648e-22)
(0.229919 0.0150777 1.92878e-18)
(0.213306 0.00506438 5.24645e-19)
(0.186467 0.00180206 3.22987e-19)
(0.162714 0.000825197 0)
(0.599183 -0.162147 -1.17221e-19)
(0.568195 -0.0803467 2.54631e-18)
(0.536592 -0.0464819 -1.38222e-19)
(0.484651 -0.0196443 -2.70641e-19)
(0.432084 -0.00441929 7.60549e-19)
)
;

boundaryField
{
    left
    {
        type            fixedValue;
        value           uniform (1 0 0);
    }
    right
    {
        type            zeroGradient;
    }
    down
    {
        type            noSlip;
    }
    up
    {
        type            noSlip;
    }
    cylinder
    {
        type            noSlip;
    }
    defaultFaces
    {
        type            empty;
    }
}


// ************************************************************************* //
