/*--------------------------------*- C++ -*----------------------------------*\
  =========                 |
  \\      /  F ield         | OpenFOAM: The Open Source CFD Toolbox
   \\    /   O peration     | Website:  https://openfoam.org
    \\  /    A nd           | Version:  13
     \\/     M anipulation  |
\*---------------------------------------------------------------------------*/
FoamFile
{
    format      ascii;
    class       volScalarField;
    location    "0.0375";
    object      p;
}
// * * * * * * * * * * * * * * * * * * * * * * * * * * * * * * * * * * * * * //

dimensions      [0 2 -2 0 0 0 0];

internalField   nonuniform List<scalar> 
1800
(
-0.806617
-0.660905
-0.540616
-0.43546
-0.345246
-0.2675
-0.199998
-0.140876
-0.0883476
-0.0434112
-0.9376
-0.773872
-0.640641
-0.523247
-0.42172
-0.333702
-0.256907
-0.189511
-0.130318
-0.0806741
-1.05534
-0.874656
-0.729561
-0.600697
-0.488696
-0.391323
-0.306214
-0.231474
-0.165848
-0.110025
-1.15493
-0.958608
-0.803189
-0.663791
-0.542236
-0.436384
-0.343765
-0.262377
-0.190884
-0.129587
-1.23148
-1.02096
-0.857204
-0.708388
-0.578352
-0.465003
-0.365744
-0.278462
-0.201724
-0.135425
-1.28033
-1.05706
-0.887366
-0.7304
-0.593106
-0.473373
-0.368458
-0.27614
-0.194891
-0.124229
-1.29737
-1.06282
-0.88983
-0.726076
-0.582915
-0.458081
-0.348649
-0.252301
-0.16742
-0.0931922
-1.27948
-1.03498
-0.861303
-0.692063
-0.544665
-0.416203
-0.303557
-0.20433
-0.116825
-0.0399463
-1.2249
-0.970862
-0.799495
-0.625402
-0.475875
-0.345522
-0.23115
-0.130332
-0.0413157
0.0372061
-1.13331
-0.866792
-0.704476
-0.523719
-0.375148
-0.244995
-0.130508
-0.0294314
0.0599838
0.13913
0.243569
0.265308
0.289986
0.307896
0.320182
0.328675
0.334476
0.338269
0.340565
0.341676
0.220806
0.245458
0.273587
0.294532
0.309467
0.320281
0.328112
0.333674
0.337503
0.34
0.17189
0.201449
0.234931
0.260566
0.279578
0.293954
0.304891
0.313155
0.31932
0.323945
0.098488
0.135268
0.175823
0.207659
0.232057
0.251128
0.26615
0.277955
0.287173
0.294575
0.00300466
0.0495765
0.0986906
0.138069
0.169023
0.193801
0.213774
0.229855
0.242743
0.253472
-0.111283
-0.0523181
0.00658929
0.0546798
0.0932292
0.124604
0.150284
0.171275
0.18835
0.202856
-0.240243
-0.166532
-0.0968146
-0.0389849
0.0080955
0.0468732
0.0789339
0.105381
0.127063
0.145693
-0.379128
-0.28877
-0.207372
-0.138855
-0.0823293
-0.0353267
0.0038262
0.0363033
0.0629904
0.0860059
-0.522974
-0.414635
-0.320787
-0.240683
-0.173753
-0.117561
-0.0703676
-0.0309782
0.00147167
0.0295334
-0.666972
-0.539951
-0.433034
-0.340585
-0.262317
-0.19583
-0.139291
-0.0914712
-0.0513545
-0.0163156
0.308132
0.208131
0.187248
0.163935
0.139648
0.115112
0.090161
0.0647889
0.0390137
0.0130074
0.314776
0.221139
0.196321
0.170459
0.144307
0.118386
0.0924039
0.0662361
0.0398193
0.0132567
0.313992
0.23525
0.206003
0.177452
0.149371
0.121993
0.0949051
0.067868
0.0407351
0.0135418
0.305823
0.249577
0.216195
0.184875
0.154815
0.125917
0.0976559
0.0696791
0.0417586
0.0138621
0.290496
0.262844
0.226699
0.192663
0.160606
0.130141
0.100645
0.0716623
0.0428863
0.0142166
0.268583
0.273521
0.237171
0.200722
0.166699
0.134639
0.103857
0.0738089
0.0441141
0.0146043
0.24079
0.280415
0.247124
0.208913
0.173038
0.139384
0.107276
0.0761085
0.045437
0.0150232
0.207327
0.283802
0.256161
0.217095
0.179567
0.144345
0.110883
0.0785495
0.0468495
0.0154708
0.169838
0.282407
0.263922
0.225136
0.186246
0.149507
0.11467
0.0811251
0.0483483
0.0159445
0.132134
0.276731
0.270583
0.233075
0.193085
0.154878
0.118643
0.0838396
0.0499376
0.0165627
0.141981
0.294056
0.28491
0.244188
0.201278
0.160726
0.122687
0.0864788
0.0514603
0.0170977
0.155726
0.293421
0.286471
0.247806
0.205171
0.164021
0.125157
0.088143
0.052421
0.0174126
0.185189
0.294853
0.287467
0.250198
0.208034
0.166624
0.127197
0.0895519
0.0532427
0.0176854
0.218609
0.297501
0.287919
0.251625
0.210038
0.168606
0.128824
0.090705
0.0539233
0.0179149
0.251523
0.301123
0.287981
0.252237
0.211269
0.169996
0.130042
0.0915972
0.0544585
0.0180979
0.280492
0.305036
0.287698
0.252173
0.211822
0.17084
0.130866
0.0922303
0.0548467
0.0182329
0.303354
0.30835
0.286981
0.251516
0.211779
0.171182
0.131315
0.0926102
0.0550885
0.0183188
0.318914
0.310191
0.285647
0.250295
0.211196
0.171062
0.131406
0.0927435
0.0551849
0.018355
0.326103
0.309731
0.283458
0.24849
0.210094
0.170491
0.131142
0.092626
0.0551269
0.0183326
0.332945
0.31447
0.286365
0.250561
0.21165
0.171653
0.131975
0.0931787
0.0554451
0.0184398
0.274719
0.175799
0.0976585
0.039886
0.00120827
-0.0202407
-0.0265325
-0.0204337
-0.00341737
0.0135761
0.423298
0.326834
0.24704
0.183548
0.135469
0.101391
0.0798739
0.0677003
0.0650812
0.0579536
0.536734
0.444565
0.366143
0.301324
0.249499
0.209571
0.180453
0.159384
0.146878
0.130461
0.623822
0.535365
0.458712
0.393867
0.340396
0.297431
0.264012
0.237968
0.219047
0.198234
0.690472
0.605092
0.530125
0.465696
0.411507
0.366863
0.330857
0.301859
0.278919
0.255944
0.741074
0.658036
0.584425
0.520465
0.465966
0.420371
0.382824
0.352101
0.326747
0.302594
0.778629
0.697157
0.624411
0.560697
0.505927
0.459665
0.421126
0.389357
0.362567
0.337715
0.805169
0.724441
0.651942
0.588053
0.532786
0.485829
0.446495
0.414048
0.386483
0.361404
0.822009
0.740985
0.667833
0.603009
0.546616
0.498476
0.458046
0.424833
0.396858
0.372327
0.82983
0.747162
0.672126
0.605219
0.546643
0.496354
0.45396
0.419344
0.390547
0.368643
2.10937
2.06798
2.02538
1.98062
1.93091
1.87446
1.8095
1.73414
1.64748
1.53532
1.88847
1.84164
1.79253
1.73885
1.6786
1.61022
1.53191
1.44182
1.33969
1.20629
1.65443
1.60361
1.54869
1.48745
1.41816
1.33924
1.2488
1.14504
1.02872
0.874266
1.42224
1.36627
1.30489
1.23596
1.15782
1.06875
0.966726
0.849981
0.720868
0.545727
1.19625
1.13465
1.0667
0.99023
0.903558
0.804832
0.691833
0.562937
0.422916
0.227644
0.979204
0.912325
0.838242
0.754808
0.660291
0.552691
0.429613
0.289718
0.14141
-0.0734019
0.774301
0.702897
0.623496
0.533999
0.432626
0.317202
0.185113
0.0354714
-0.117588
-0.351534
0.584946
0.509996
0.42633
0.331941
0.225008
0.103145
-0.0367523
-0.195705
-0.349365
-0.601514
0.414372
0.336967
0.250226
0.152318
0.0414586
-0.0847596
-0.230335
-0.40098
-0.552824
-0.817447
0.26529
0.186479
0.0978142
-0.002283
-0.115544
-0.244083
-0.390287
-0.576188
-0.724489
-0.996532
3.51752
3.54208
3.57314
3.60775
3.64296
3.67803
3.71254
3.74585
3.77694
3.79735
3.45384
3.47641
3.50507
3.53703
3.56937
3.6013
3.63237
3.66188
3.68878
3.70575
3.36888
3.38845
3.41347
3.4414
3.46936
3.49651
3.52234
3.54605
3.56655
3.57797
3.26311
3.27882
3.29907
3.3217
3.3439
3.36475
3.38365
3.39969
3.41174
3.41533
3.13739
3.14851
3.16299
3.17919
3.19437
3.20753
3.21796
3.22463
3.22634
3.21968
2.99317
2.99908
3.00692
3.01565
3.02268
3.0269
3.02748
3.02324
3.01295
2.99357
2.83269
2.83279
2.83318
2.8335
2.83133
2.82547
2.81495
2.79845
2.7747
2.74023
2.65851
2.65234
2.64455
2.63558
2.62326
2.60628
2.58354
2.55362
2.51521
2.46351
2.47495
2.46208
2.44509
2.42564
2.40202
2.37283
2.33681
2.29241
2.23838
2.16766
2.28586
2.26368
2.23594
2.20518
2.16961
2.12755
2.07758
2.01805
1.94785
1.85682
4.33253
2.01004
3.17336
3.19211
3.18722
3.19283
3.21158
3.2538
3.35037
3.43455
4.32469
1.99733
3.16546
3.18309
3.17647
3.17965
3.19485
3.23163
3.31666
3.39041
4.31885
1.9809
3.15906
3.17466
3.16545
3.16538
3.17586
3.2053
3.27328
3.33432
4.3149
1.96099
3.15435
3.1668
3.15413
3.15
3.15465
3.17481
3.22111
3.26541
4.31262
1.93798
3.15161
3.15946
3.14242
3.13346
3.13122
3.14018
3.16115
3.18279
4.31166
1.91239
3.15113
3.1525
3.13022
3.11572
3.10558
3.10141
3.09416
3.08602
4.31159
1.88487
3.15325
3.14569
3.11736
3.09672
3.0777
3.05845
3.01964
2.97622
4.31191
1.85627
3.15826
3.13868
3.10371
3.07642
3.04756
3.01126
2.9389
2.85324
4.31203
1.82758
3.16643
3.13097
3.08913
3.0548
3.01517
2.96017
2.8544
2.71527
4.31117
1.79998
3.17794
3.12199
3.07362
3.03203
2.98111
2.90722
2.77103
2.56832
4.31199
1.77933
3.17252
3.1104
3.05412
3.00188
2.93434
2.83419
2.65585
2.38853
4.31839
1.77025
3.15005
3.0971
3.03371
2.97054
2.88733
2.76594
2.56127
2.27572
4.32428
1.76489
3.1319
3.08374
3.01449
2.94178
2.84545
2.70781
2.48714
2.19683
4.33086
1.76236
3.11761
3.07126
2.99693
2.91606
2.80895
2.65896
2.42937
2.13775
4.33924
1.76213
3.10675
3.06026
2.98144
2.89378
2.77806
2.61896
2.38498
2.09321
4.3504
1.76392
3.0989
3.05111
2.96839
2.87523
2.75288
2.5873
2.35169
2.06061
4.36533
1.76754
3.09362
3.04399
2.95801
2.8606
2.73338
2.56342
2.32779
2.03816
4.38516
1.77279
3.09044
3.03898
2.95046
2.85002
2.71948
2.54681
2.31204
2.02461
4.40649
1.77988
3.08882
3.03602
2.9458
2.84348
2.71106
2.53711
2.30382
2.01972
4.44746
1.78413
3.08922
3.03332
2.94189
2.83804
2.70392
2.5285
2.2954
2.01387
2.07293
1.8763
1.66011
1.44904
1.24544
1.04971
0.864
0.691038
0.533532
0.393841
1.97547
1.81915
1.64356
1.46676
1.29294
1.12336
0.960364
0.806613
0.664584
0.536443
1.90782
1.77477
1.62466
1.47106
1.31919
1.1703
1.02611
0.888723
0.760206
0.642374
1.86124
1.7441
1.61348
1.47796
1.34252
1.20865
1.07792
0.952251
0.833564
0.723608
1.83031
1.72421
1.60735
1.48488
1.3614
1.23855
1.11779
1.00088
0.889628
0.785691
1.81067
1.7123
1.60508
1.49194
1.3771
1.26224
1.14873
1.03821
0.932399
0.832896
1.79937
1.70638
1.60577
1.49912
1.39034
1.28108
1.17264
1.06659
0.964572
0.868132
1.79453
1.70521
1.60901
1.5066
1.40177
1.29613
1.19093
1.0877
0.988014
0.89339
1.7967
1.71007
1.61639
1.5161
1.41314
1.30914
1.20534
1.10321
1.00432
0.910133
1.80462
1.72087
1.62782
1.52764
1.4247
1.32059
1.21654
1.114
1.01445
0.919308
-2.34843
-2.0097
-1.79387
-1.58091
-1.41132
-1.27419
-1.16419
-1.07774
-1.01211
-0.965633
-2.51186
-2.18863
-1.96219
-1.75529
-1.58712
-1.45151
-1.34332
-1.25876
-1.19483
-1.14955
-2.56443
-2.25511
-2.02741
-1.82666
-1.66227
-1.52944
-1.42341
-1.3405
-1.27784
-1.23335
-2.51724
-2.22398
-2.00173
-1.80925
-1.65079
-1.5222
-1.41909
-1.33799
-1.27626
-1.23216
-2.38874
-2.11575
-1.90412
-1.72234
-1.57202
-1.4493
-1.3501
-1.27119
-1.21009
-1.1657
-2.20107
-1.95199
-1.75517
-1.58654
-1.44654
-1.33147
-1.23755
-1.16179
-1.10183
-1.05735
-1.97556
-1.75286
-1.57382
-1.4204
-1.29266
-1.18701
-1.09999
-1.0289
-0.971517
-0.928298
-1.7301
-1.53503
-1.37541
-1.23857
-1.12451
-1.02974
-0.951156
-0.886321
-0.833224
-0.792992
-1.47831
-1.31097
-1.17115
-1.05151
-0.951896
-0.868951
-0.799849
-0.742424
-0.69484
-0.659317
-1.22974
-1.08921
-0.968693
-0.866185
-0.781232
-0.71058
-0.651617
-0.602213
-0.560006
-0.526213
-0.990653
-0.875183
-0.772922
-0.686898
-0.616416
-0.558512
-0.511118
-0.472823
-0.442272
-0.415814
-0.765115
-0.67221
-0.586528
-0.515407
-0.457864
-0.411073
-0.373149
-0.342767
-0.318822
-0.298186
-0.556318
-0.482983
-0.411959
-0.353867
-0.307492
-0.270138
-0.240057
-0.216009
-0.19694
-0.180383
-0.367157
-0.310106
-0.251807
-0.204888
-0.168021
-0.138665
-0.115218
-0.0965639
-0.0817599
-0.0689111
-0.200331
-0.156184
-0.108722
-0.0712283
-0.0423631
-0.0197705
-0.00199345
0.0119523
0.0228782
0.0321911
-0.0581377
-0.0236461
0.0148801
0.044649
0.0669509
0.0839598
0.097005
0.106959
0.114524
0.120717
0.0577296
0.0854656
0.117035
0.140808
0.15801
0.170659
0.179985
0.186772
0.191641
0.195306
0.146197
0.169613
0.196292
0.215852
0.22947
0.239049
0.245745
0.250281
0.253218
0.255049
0.206699
0.227817
0.251721
0.268897
0.280493
0.288345
0.293562
0.296833
0.298682
0.299463
0.239081
0.259667
0.282916
0.299549
0.310705
0.318197
0.323117
0.326141
0.327776
0.328319
-0.212862
0.0458701
0.104337
0.11599
0.112601
0.10005
0.0820985
0.0607596
0.0372082
0.0124984
-0.119702
0.0830725
0.117934
0.12183
0.114523
0.100373
0.081817
0.0603322
0.0368807
0.0123875
-0.0345454
0.111022
0.128243
0.126247
0.11627
0.100864
0.0817457
0.060079
0.0366639
0.0123123
0.0399165
0.131843
0.136732
0.130325
0.11813
0.101586
0.0819029
0.060006
0.0365591
0.0122731
0.103825
0.148229
0.144061
0.134282
0.120188
0.102572
0.0823013
0.0601174
0.0365672
0.0122699
0.15864
0.160441
0.150799
0.138335
0.122516
0.103846
0.0829508
0.0604168
0.0366889
0.0123026
0.204842
0.169884
0.157199
0.14263
0.125166
0.10543
0.0838591
0.0609065
0.0369249
0.0123713
0.242597
0.178172
0.16387
0.147279
0.12818
0.10734
0.0850319
0.0615883
0.0372755
0.0124761
0.272403
0.186843
0.171045
0.152355
0.131587
0.109587
0.0864727
0.062463
0.0377408
0.012617
0.294044
0.196689
0.178824
0.1579
0.135407
0.112177
0.0881828
0.0635303
0.0383205
0.0127941
-0.399325
-0.0338746
0.0667665
0.0993865
0.104498
0.0961887
0.0803515
0.060044
0.0369725
0.0124806
-0.378027
-0.0268723
0.0697598
0.100668
0.105124
0.0965201
0.0805355
0.0601453
0.0370232
0.0124958
-0.344965
-0.0106914
0.0773055
0.103927
0.106488
0.0971024
0.0807675
0.0602231
0.0370364
0.0124903
-0.308017
0.00802392
0.0864817
0.108005
0.108273
0.0980285
0.0812296
0.0604478
0.037135
0.0125146
-0.263779
0.0284558
0.0969778
0.112841
0.111084
0.0992931
0.0819148
0.060817
0.0373172
0.0125676
-0.899663
-1.0554
-1.14693
-1.18831
-1.1801
-1.13093
-1.04804
-0.941964
-0.827057
-0.716626
-0.909444
-1.08227
-1.17543
-1.20088
-1.16875
-1.09031
-0.982753
-0.864321
-0.746687
-0.650629
-0.917977
-1.09744
-1.18768
-1.20137
-1.15293
-1.06025
-0.94383
-0.822026
-0.704493
-0.614869
-0.927969
-1.10809
-1.19395
-1.19924
-1.14075
-1.03972
-0.917833
-0.792857
-0.673949
-0.58188
-0.942321
-1.12456
-1.20751
-1.20627
-1.13988
-1.0318
-0.9042
-0.77267
-0.64416
-0.526937
2.96375
2.94244
2.9164
2.88897
2.85827
2.82275
2.78131
2.73247
2.67509
2.60356
3.10927
3.10077
3.08931
3.07697
3.06188
3.04276
3.01865
2.98823
2.95031
2.90093
3.23901
3.23866
3.2383
3.23842
3.23657
3.23153
3.22245
3.20812
3.18737
3.157
3.3501
3.35677
3.36541
3.37553
3.38446
3.39106
3.39456
3.3939
3.38789
3.37329
3.44015
3.45275
3.46885
3.48721
3.50501
3.52121
3.53517
3.54591
3.55229
3.55031
3.50856
3.52594
3.54805
3.573
3.5979
3.62181
3.64418
3.66414
3.68058
3.68825
3.55474
3.57582
3.60253
3.63252
3.66283
3.69262
3.72139
3.7484
3.77256
3.78716
3.57855
3.60223
3.63215
3.66563
3.69968
3.73352
3.76671
3.79858
3.82808
3.84721
3.58007
3.60524
3.63697
3.67238
3.70849
3.74456
3.78018
3.81472
3.84716
3.86865
3.55961
3.58508
3.6172
3.65299
3.68948
3.72595
3.762
3.79701
3.82996
3.85186
-0.668444
-0.719673
-0.789843
-0.880378
-0.993529
-1.1326
-1.30297
-1.51841
-1.71232
-2.07241
-0.257902
-0.321681
-0.402067
-0.500606
-0.619411
-0.761867
-0.932841
-1.13373
-1.33239
-1.68211
0.232029
0.150275
0.0563917
-0.0516303
-0.176015
-0.319981
-0.487378
-0.680072
-0.885591
-1.20316
0.740246
0.644681
0.5411
0.427234
0.300797
0.158731
-0.00258798
-0.186166
-0.38755
-0.671521
1.21668
1.11764
1.0128
0.900107
0.777499
0.642257
0.491072
0.320753
0.132603
-0.11842
1.63942
1.54613
1.448
1.34329
1.23032
1.10685
0.970039
0.816971
0.647571
0.429522
2.00603
1.92373
1.83727
1.74511
1.64587
1.53773
1.41836
1.28521
1.1376
0.952196
2.3228
2.25283
2.17982
2.10215
2.0185
1.9274
1.82691
1.71483
1.59019
1.43629
2.59861
2.53879
2.47796
2.41442
2.34641
2.27254
2.19111
2.10011
1.9984
1.87415
2.82719
2.77705
2.7273
2.6782
2.62658
2.57061
2.50862
2.43867
2.35946
2.26273
4.50086
1.9539
3.34584
3.28849
3.26173
3.25736
3.26012
3.25973
3.22123
3.18766
4.47963
1.96786
3.31819
3.2828
3.25913
3.25679
3.26324
3.27388
3.2557
3.27833
4.45852
1.98204
3.29334
3.27486
3.25514
3.25506
3.26583
3.2866
3.29183
3.35418
4.4379
1.99536
3.27121
3.26537
3.24978
3.25197
3.26648
3.29598
3.32503
3.41143
4.41814
2.00695
3.25159
3.25495
3.24316
3.24745
3.2651
3.30138
3.35224
3.45381
4.39957
2.01607
3.23425
3.24408
3.23547
3.24153
3.26165
3.30325
3.3722
3.48272
4.38249
2.02217
3.21891
3.23311
3.22691
3.23426
3.25606
3.30141
3.38543
3.49761
4.36713
2.02483
3.20532
3.22228
3.21766
3.22568
3.24829
3.29561
3.39077
3.4994
4.35366
2.02379
3.19328
3.21177
3.20788
3.21588
3.23831
3.28577
3.38725
3.48875
4.34217
2.01887
3.18265
3.20168
3.19771
3.20491
3.22607
3.27185
3.37392
3.46726
4.66587
1.97433
3.35984
3.30414
3.26926
3.25358
3.23579
3.20064
3.09179
2.99732
4.61935
1.96923
3.35809
3.3033
3.26872
3.25393
3.23784
3.20522
3.10019
3.00069
4.58552
1.96159
3.35893
3.30129
3.26778
3.25453
3.24083
3.21176
3.11296
3.0066
4.55408
1.9547
3.35973
3.29796
3.26617
3.25531
3.24546
3.2223
3.13538
3.0294
4.52409
1.94886
3.36087
3.29316
3.26387
3.25608
3.25145
3.23681
3.16806
3.07511
2.73539
2.59758
2.37526
2.07438
1.69999
1.24539
0.723036
0.181178
-0.295657
-0.65453
2.71505
2.56881
2.34699
2.05361
1.69446
1.26229
0.762163
0.234158
-0.252733
-0.638367
2.72131
2.56073
2.33106
2.03927
1.68753
1.2684
0.783956
0.263566
-0.23073
-0.632766
2.75721
2.57669
2.33372
2.03786
1.68558
1.26915
0.789454
0.270998
-0.227444
-0.637167
2.82
2.60962
2.3459
2.04132
1.6851
1.2682
0.79051
0.273386
-0.228041
-0.644931
)
;

boundaryField
{
    left
    {
        type            zeroGradient;
    }
    right
    {
        type            fixedValue;
        value           uniform 0;
    }
    down
    {
        type            zeroGradient;
    }
    up
    {
        type            zeroGradient;
    }
    cylinder
    {
        type            zeroGradient;
    }
    defaultFaces
    {
        type            empty;
    }
}


// ************************************************************************* //
