/*--------------------------------*- C++ -*----------------------------------*\
  =========                 |
  \\      /  F ield         | OpenFOAM: The Open Source CFD Toolbox
   \\    /   O peration     | Website:  https://openfoam.org
    \\  /    A nd           | Version:  13
     \\/     M anipulation  |
\*---------------------------------------------------------------------------*/
FoamFile
{
    format      ascii;
    class       volVectorField;
    location    "9.59";
    object      U;
}
// * * * * * * * * * * * * * * * * * * * * * * * * * * * * * * * * * * * * * //

dimensions      [0 1 -1 0 0 0 0];

internalField   nonuniform List<vector> 
440
(
(-0.107134 0.0773272 -7.97734e-20)
(-0.106455 0.0927374 1.41731e-20)
(0.049346 0.0593173 1.1381e-19)
(0.500728 0.0482615 1.19637e-19)
(0.440575 0.204548 2.70635e-20)
(-0.109057 0.0613103 5.45248e-20)
(0.0709881 0.0109164 -1.26332e-19)
(0.584466 -0.0529169 -1.32029e-19)
(1.14624 -0.0911142 9.47464e-20)
(1.622 -0.101113 3.35665e-20)
(-0.0334831 0.0127216 6.90704e-20)
(0.534196 -0.0424694 7.20419e-19)
(1.32934 -0.0419252 -4.39835e-19)
(1.91423 -0.0182418 -1.46895e-18)
(2.41339 0.000827988 5.40034e-19)
(0.196188 -0.0435974 -1.74883e-19)
(1.23665 0.0031532 -5.33757e-19)
(2.01331 0.0651415 1.77659e-18)
(2.43044 0.0965184 1.92335e-18)
(2.49695 0.105589 -5.45608e-19)
(0.570479 -0.00348908 -2.95126e-19)
(1.76871 0.182513 -6.2543e-19)
(2.30642 0.253606 1.90607e-18)
(2.43073 0.26012 2.04733e-18)
(2.50298 0.232714 6.87367e-19)
(-0.0153991 0.184563 -7.06663e-20)
(-0.0879841 0.368434 1.26986e-19)
(-0.157846 0.402398 -1.93149e-19)
(-0.199973 0.405375 5.87699e-20)
(-0.225239 0.421377 9.11771e-19)
(-0.030911 0.179075 3.92691e-20)
(-0.0803742 0.44167 2.04107e-19)
(-0.119003 0.499496 -4.60782e-20)
(-0.151661 0.463171 -5.14537e-20)
(-0.153149 0.415168 1.10962e-19)
(-0.0311856 0.0936513 1.18211e-19)
(-0.0761071 0.363517 -2.81693e-19)
(-0.084852 0.508223 6.58038e-20)
(-0.0785112 0.53599 4.54036e-19)
(-0.0282332 0.503454 -1.44347e-21)
(-0.0211821 0.0243814 -3.63012e-20)
(-0.0785101 0.174322 9.3756e-20)
(-0.0958638 0.315846 -6.21036e-20)
(-0.0898311 0.390294 -4.60322e-19)
(-0.0301299 0.421279 6.65619e-20)
(-0.060701 0.0459623 -1.21342e-20)
(-0.135373 0.100153 -3.59958e-20)
(-0.156865 0.179938 -1.42578e-19)
(-0.067745 0.239207 1.19691e-19)
(0.016 0.359026 -4.85814e-20)
(-0.615401 0.806777 7.52056e-19)
(1.49005 -0.4064 9.31338e-19)
(1.01048 -1.32504 6.49455e-20)
(1.32654 -0.14084 -2.92552e-19)
(0.895995 0.17866 2.42923e-20)
(-0.613456 0.534085 -1.89219e-18)
(2.17608 -0.675488 -1.76528e-19)
(1.1569 -1.26898 1.37123e-19)
(1.26204 -0.0856385 3.18017e-21)
(0.841686 0.230514 -3.22122e-20)
(-0.421548 0.259678 -7.03564e-19)
(2.20118 -0.832447 1.00711e-18)
(1.02832 -1.15813 -1.16623e-19)
(1.08638 -0.0435385 -4.36474e-19)
(0.838718 0.268413 -1.50209e-21)
(-0.189209 0.174472 4.29421e-19)
(2.08269 -0.883195 -1.87447e-19)
(1.18209 -1.04284 3.04175e-19)
(0.897787 -0.0863564 4.00385e-19)
(0.874741 0.280367 -3.48867e-20)
(0.372469 -0.0643435 -6.4786e-20)
(1.99765 -0.985037 -2.29975e-19)
(1.65799 -0.878537 0)
(0.272886 -0.00305633 -2.46158e-19)
(0.962429 0.229603 -6.89535e-21)
(1.77366 -0.0412366 -3.49809e-19)
(2.164 -0.953011 2.17615e-20)
(2.16926 -0.759435 -3.43824e-20)
(0.514819 0.0369064 1.19407e-19)
(1.25285 0.0702676 -1.29971e-19)
(2.28567 -0.164691 -4.14477e-21)
(2.63742 -0.952066 1.41243e-18)
(1.34505 -0.405279 -2.02006e-20)
(0.872937 0.290591 -2.77836e-20)
(1.47262 -0.0197131 0)
(2.24766 -0.215508 -3.24954e-19)
(2.3078 -0.538493 5.46076e-21)
(0.858521 -0.139793 -8.50641e-20)
(1.33422 0.0694724 -1.08844e-19)
(1.58191 -0.149976 2.06396e-20)
(2.26044 -0.214251 9.72005e-20)
(1.82955 -0.390314 2.35745e-19)
(0.829314 -0.0337121 -3.18388e-20)
(1.40786 -0.0487621 -1.62611e-34)
(1.14445 -0.12462 -3.94709e-21)
(1.39853 -0.103331 1.65794e-19)
(0.632572 0.0120854 3.04072e-20)
(0.472024 -0.00139522 -3.21492e-20)
(0.490905 -0.0667737 1.23663e-20)
(0.114899 -0.01179 -2.61681e-20)
(2.39433 0.238987 -8.43348e-19)
(2.57997 0.026351 -1.03738e-18)
(2.45589 0.0603072 7.06029e-19)
(2.6919 -0.103701 7.62103e-20)
(2.08464 0.02326 -1.82328e-21)
(2.11617 0.149956 5.63197e-20)
(2.39032 0.0188691 -3.74397e-20)
(2.24093 -0.0279817 -1.2296e-19)
(2.46499 -0.107249 -2.10937e-19)
(2.33504 -0.230204 -5.01106e-21)
(2.06693 0.0639452 6.72851e-20)
(2.1824 0.00234519 9.52219e-20)
(2.17055 -0.0642121 -1.18536e-19)
(2.22347 -0.0914569 4.00429e-20)
(2.25028 -0.179116 9.50729e-21)
(2.04165 0.0114871 1.07222e-19)
(2.09749 -0.0256962 1.30719e-19)
(2.11776 -0.0606862 -1.77549e-20)
(2.15514 -0.0875753 -4.08473e-20)
(2.16573 -0.129838 3.03726e-20)
(1.57084 -0.0274208 1.56762e-19)
(1.53361 -0.0296219 -1.16346e-20)
(1.55015 -0.0376322 2.42084e-20)
(1.49953 -0.0409759 -2.19407e-20)
(1.50945 -0.0514195 8.59246e-21)
(1.53777 0.82264 1.1055e-18)
(1.50665 0.926587 -3.64583e-19)
(1.5126 1.05819 -1.33062e-18)
(1.43868 1.10074 7.10094e-19)
(0.87295 0.777704 -1.63737e-19)
(1.83124 0.793868 -5.61677e-19)
(1.80133 0.87086 -2.97863e-18)
(1.80813 0.974907 -1.14723e-18)
(1.71477 0.983345 -3.94289e-19)
(1.03645 0.677499 -6.38412e-19)
(2.13177 0.658559 7.33414e-19)
(2.11687 0.731113 1.91982e-19)
(2.09305 0.820621 -2.23772e-18)
(1.9532 0.80834 -6.22616e-19)
(1.14218 0.528789 4.56997e-19)
(2.29957 0.551035 2.21671e-18)
(2.29075 0.601614 1.64561e-18)
(2.28506 0.653148 -1.89597e-18)
(2.06619 0.611869 -1.43347e-18)
(1.11978 0.350103 -2.60525e-19)
(2.45621 0.390457 1.08246e-18)
(2.46418 0.415718 -7.8309e-19)
(2.36591 0.444202 5.63928e-19)
(2.02649 0.392197 4.43127e-19)
(0.938953 0.15535 -3.74635e-19)
(0.568855 0.471964 -6.30266e-19)
(0.47555 0.508979 -4.74794e-19)
(0.357428 0.545021 5.13837e-20)
(0.222074 0.542643 -3.70324e-21)
(0.0541499 0.379037 7.75561e-20)
(0.682651 0.626584 8.04798e-20)
(0.615936 0.680149 -2.9477e-19)
(0.524451 0.743534 1.73038e-19)
(0.398171 0.800842 -8.0622e-20)
(0.172721 0.606157 1.14551e-19)
(0.76993 0.844515 1.21669e-19)
(0.699899 0.927618 4.43122e-19)
(0.643735 1.01891 1.05032e-19)
(0.556936 1.04647 -2.95535e-19)
(0.303137 0.760917 2.47288e-19)
(1.03974 0.893267 2.2289e-19)
(0.989522 0.973621 -7.01192e-19)
(0.942642 1.07454 -1.88409e-18)
(0.862993 1.14047 7.4701e-19)
(0.505618 0.837179 -1.58209e-19)
(1.12141 0.965546 -9.65186e-20)
(1.15089 1.07835 -1.70221e-19)
(1.16956 1.18271 -3.67562e-19)
(1.11155 1.19535 -4.06741e-19)
(0.677102 0.841573 -6.36804e-21)
(1.00267 0.0449457 -7.93507e-20)
(1.01101 0.0313951 -2.82239e-20)
(1.03108 0.137907 -1.33056e-21)
(0.939698 0.130696 -1.73424e-19)
(0.904399 0.287029 2.85648e-19)
(0.992368 0.0423876 5.06702e-20)
(1.02781 0.0280834 1.03363e-19)
(1.00884 0.151031 1.05758e-19)
(0.982009 0.151123 2.50148e-20)
(0.939153 0.372593 -5.81563e-21)
(0.998677 0.0408245 6.44831e-20)
(1.01219 0.0216961 -4.11043e-21)
(1.04751 0.169391 -3.37601e-21)
(0.940758 0.153011 1.33333e-19)
(1.14049 0.511926 -4.62196e-19)
(0.994024 0.0398611 -3.505e-22)
(1.02815 0.0139526 -1.50665e-19)
(1.03342 0.192621 -5.26544e-20)
(1.03656 0.139818 -3.52178e-19)
(1.17353 0.578302 8.35212e-20)
(0.993824 0.0323134 -9.45849e-21)
(1.02232 0.0187626 4.23654e-20)
(1.07505 0.188239 2.56224e-20)
(1.03209 0.172467 4.42419e-19)
(1.36802 0.702787 -4.60292e-19)
(0.960369 0.0343257 -3.26202e-21)
(1.07758 -0.000219203 9.80027e-20)
(1.05058 0.215807 -5.16307e-20)
(1.28845 0.0829131 1.00545e-18)
(1.33729 0.774089 -3.3257e-19)
(0.91051 0.00712591 -1.46234e-21)
(1.15708 0.00112976 -8.92527e-20)
(0.980961 0.130253 5.47711e-21)
(1.41512 0.0612472 -3.56633e-19)
(1.32052 0.589096 -7.72967e-20)
(0.946969 -0.000876834 7.19447e-21)
(1.12141 0.00223371 1.53427e-35)
(1.0768 0.0779785 -4.91492e-21)
(1.3484 0.0151288 1.13714e-19)
(1.33406 0.434361 1.67748e-19)
(1.04181 -0.0390166 4.31546e-21)
(0.999362 -0.0189042 -2.96165e-20)
(1.23023 0.00625238 2.19185e-20)
(1.08698 0.0147535 2.0949e-20)
(1.44387 0.306198 -2.55969e-19)
(0.966559 -0.022773 -3.96396e-20)
(0.805737 -0.0236783 -1.93324e-22)
(0.944814 -0.00162999 2.30979e-20)
(0.690151 0.00397264 -2.2361e-20)
(1.16862 0.0920895 -5.84544e-20)
(1.76017 0.584061 2.76077e-19)
(1.88365 0.630775 7.14578e-19)
(2.12033 0.480703 -1.01226e-18)
(2.20993 0.472694 -1.30616e-21)
(2.40016 0.265395 4.32065e-19)
(1.73168 0.369265 8.82486e-20)
(1.77098 0.430362 9.75177e-19)
(1.98095 0.308242 1.19269e-19)
(1.9686 0.319993 -8.43506e-19)
(2.21515 0.159795 -2.69005e-19)
(1.68923 0.276565 -2.39887e-19)
(1.77225 0.285659 -1.4922e-19)
(1.90682 0.204379 1.76044e-19)
(1.93679 0.189907 -2.57534e-19)
(2.07271 0.101511 2.41223e-19)
(1.69456 0.185353 4.09439e-19)
(1.80358 0.166431 -1.32667e-21)
(1.8766 0.111158 2.035e-19)
(1.94096 0.0884244 1.59247e-19)
(2.00401 0.0383903 -1.6429e-19)
(1.40022 0.0420401 -5.60759e-20)
(1.50415 0.0232844 2.5566e-19)
(1.51876 0.00512994 9.61901e-20)
(1.5665 -0.00904585 -1.94388e-19)
(1.54328 -0.0181222 3.58282e-22)
(1.2032 -0.0208446 7.50527e-20)
(2.22878 -0.0320321 -4.78086e-19)
(2.45713 -0.0256822 1.28593e-18)
(2.43233 0.0168374 5.74839e-19)
(2.25863 0.0370453 -4.10448e-19)
(0.783249 0.102114 1.47925e-19)
(2.01074 0.109218 -4.90484e-19)
(2.45269 0.115803 -6.94278e-19)
(2.49138 0.119958 8.9601e-19)
(2.24317 0.112047 -6.33607e-19)
(0.274917 0.0945453 -7.58757e-21)
(1.40948 0.182794 5.49644e-19)
(2.13781 0.211564 7.56557e-20)
(2.48758 0.21297 6.86349e-19)
(2.59403 0.191946 3.17228e-19)
(-0.00762084 -0.00369453 1.97368e-19)
(0.594817 0.124658 2.12782e-19)
(1.40248 0.214616 -5.52069e-19)
(1.89726 0.249683 4.2781e-20)
(2.42118 0.285044 3.08032e-19)
(-0.0896187 -0.0739545 1.34327e-19)
(0.0773919 -0.0139376 -1.52574e-19)
(0.578903 0.0969769 -7.91424e-20)
(1.0658 0.163173 1.14205e-19)
(1.53306 0.259087 4.86593e-20)
(-0.0849178 -0.098899 3.42209e-20)
(-0.0854347 -0.104426 6.56592e-20)
(0.0905864 -0.0429232 7.24804e-20)
(0.344778 0.0550825 -2.43191e-19)
(0.768771 0.170333 5.31391e-21)
(-0.0598834 -0.0985924 -2.6946e-20)
(-0.0828536 -0.140052 -1.92038e-20)
(-0.036678 -0.113431 7.42091e-21)
(0.0544565 -0.0383222 3.18667e-21)
(0.247846 0.0839383 1.98646e-20)
(-0.0507455 -0.140189 -3.51559e-20)
(-0.0679194 -0.202969 -3.14728e-19)
(-0.0569212 -0.181261 1.98892e-19)
(-0.0359288 -0.11506 4.71595e-19)
(0.0143268 -0.0195567 -3.18823e-20)
(-0.0428648 -0.123899 3.94563e-20)
(-0.118171 -0.109405 2.8518e-19)
(-0.182295 -0.0197641 -8.48711e-19)
(-0.233701 0.0813514 -6.85167e-19)
(-0.25852 0.180244 1.30113e-19)
(-0.0196903 0.0448322 -1.899e-20)
(-0.126358 0.145702 7.4095e-20)
(-0.223588 0.205017 -2.71829e-20)
(-0.292603 0.259557 -3.89943e-20)
(-0.34397 0.33269 3.04001e-19)
(1.37106 0.602111 -3.77186e-20)
(0.672006 0.128883 8.54943e-19)
(1.12674 -0.158997 -1.00789e-19)
(1.39845 0.0104921 6.20467e-20)
(1.15017 0.00529307 -2.60333e-21)
(1.18191 0.566267 1.55574e-19)
(0.0180838 0.0968554 2.75e-19)
(0.801541 -0.274414 -8.12647e-20)
(1.3913 0.0028132 1.24877e-20)
(1.18963 0.0373459 -8.15828e-21)
(0.514023 0.572386 -2.89763e-19)
(-0.933062 0.107037 1.50178e-18)
(0.594644 -0.544745 4.74366e-20)
(1.34337 -0.0517346 -2.14279e-20)
(1.15292 0.0708862 4.81473e-23)
(-0.236083 0.727356 9.03084e-19)
(-1.11822 -0.0359866 -5.48097e-18)
(0.560457 -0.945552 -6.62199e-19)
(1.30479 -0.105805 -1.38372e-21)
(1.06281 0.103734 2.24752e-20)
(-0.571207 0.820507 2.41537e-19)
(-0.00323654 -0.240811 -4.97655e-19)
(0.652369 -1.25143 3.83969e-19)
(1.28188 -0.146588 -1.89951e-20)
(0.960222 0.138137 4.81375e-20)
(0.408417 0.136006 -1.09858e-19)
(-0.226457 -0.059596 0)
(0.0856705 -0.0910991 -3.18447e-20)
(0.167421 -0.056978 3.13051e-20)
(0.400006 -0.0331956 -2.36239e-21)
(1.80785 0.473306 0)
(0.988071 0.172898 0)
(1.144 -0.0346021 4.78804e-19)
(1.13423 -0.0208367 4.4856e-20)
(0.981257 -0.0470176 2.57107e-20)
(0.722042 0.00197996 -1.34656e-19)
(0.791016 0.000189995 3.53284e-19)
(0.889967 -0.000635509 -2.55125e-20)
(1.00357 0.021646 3.08965e-19)
(1.25201 0.0925008 1.99763e-19)
(1.63785 0.0265536 1.29771e-19)
(1.78007 0.0820103 4.26338e-19)
(1.91272 0.0876056 -3.99975e-19)
(2.44073 0.195641 1.18715e-19)
(2.17492 0.225247 3.11667e-19)
(0.904865 -0.480406 -1.5117e-20)
(0.893532 -0.571159 -1.78918e-19)
(0.884885 -0.66916 -1.28543e-19)
(0.816674 -0.738071 7.85864e-20)
(0.500429 -0.582087 1.35613e-19)
(0.804244 -0.381715 1.14602e-19)
(0.749697 -0.447361 2.02295e-19)
(0.678748 -0.520538 -6.72367e-20)
(0.569235 -0.584867 1.47658e-19)
(0.313525 -0.469856 5.3272e-20)
(0.652234 -0.242692 -1.24081e-19)
(0.568449 -0.283731 -5.77433e-20)
(0.468966 -0.33422 7.2624e-20)
(0.34854 -0.377985 -2.61625e-20)
(0.155952 -0.305321 -1.31053e-19)
(0.55047 -0.0114798 -4.1989e-19)
(0.464883 -0.0271 -3.42203e-19)
(0.354264 -0.0498747 2.77194e-19)
(0.226831 -0.0802964 1.53698e-19)
(0.0634678 -0.0875353 1.2904e-20)
(0.525095 0.192768 -1.45246e-19)
(0.439662 0.193663 -1.5703e-19)
(0.322627 0.193323 -5.24031e-20)
(0.183908 0.198936 3.68556e-20)
(0.027748 0.146562 1.26935e-20)
(2.0198 -0.0337596 8.39825e-19)
(2.27949 -0.100091 2.77195e-19)
(2.359 -0.184233 -7.38405e-19)
(2.22221 -0.21093 -1.5654e-18)
(1.34948 -0.189433 1.34362e-19)
(1.99728 -0.122975 1.38649e-18)
(2.08894 -0.23331 1.84351e-18)
(2.11235 -0.354815 1.56433e-19)
(2.03562 -0.413131 2.77402e-19)
(1.3114 -0.365281 -1.83639e-19)
(1.70862 -0.28453 -3.53901e-18)
(1.77619 -0.40107 3.75139e-19)
(1.82394 -0.525515 1.12647e-18)
(1.76794 -0.60107 -4.1992e-19)
(1.15272 -0.510968 6.74971e-19)
(1.49702 -0.406493 8.45149e-19)
(1.51397 -0.504708 -2.28064e-18)
(1.50423 -0.622683 -2.59663e-18)
(1.44007 -0.7102 7.91567e-19)
(0.932902 -0.58679 5.46441e-19)
(1.20772 -0.461479 1.92902e-19)
(1.16775 -0.55628 2.63865e-19)
(1.16236 -0.679769 -4.00444e-19)
(1.11032 -0.767678 -4.80161e-19)
(0.705765 -0.612145 -4.46127e-21)
(1.0461 0.052513 7.81732e-21)
(0.952615 0.0569284 -7.4256e-23)
(1.0969 0.081939 8.5474e-21)
(0.823687 0.0017261 -2.53106e-19)
(1.081 -0.199745 -1.93263e-20)
(1.05854 0.0549188 -2.36589e-21)
(0.942706 0.0533246 3.07259e-20)
(1.10161 0.100229 -2.03376e-21)
(0.897129 0.0475318 2.01673e-19)
(0.984824 -0.0861167 2.11365e-21)
(1.05855 0.0510283 -5.29913e-20)
(0.944956 0.0485399 2.79555e-23)
(1.08876 0.104108 -7.17009e-21)
(0.901336 0.0677507 1.13302e-19)
(0.944666 -0.0257884 -2.43979e-19)
(1.04085 0.049645 6.51123e-20)
(0.969969 0.0426961 2.81675e-21)
(1.06006 0.112282 2.1139e-20)
(0.929793 0.0932977 -5.52675e-20)
(0.861292 0.0803328 6.65149e-20)
(1.01593 0.0462208 1.55284e-20)
(1.00136 0.0393412 -2.39254e-20)
(1.02959 0.120556 3.24324e-20)
(0.953962 0.118728 3.44102e-20)
(0.840447 0.182392 -5.68149e-20)
(0.881061 0.0339508 0)
(0.731507 0.0284012 9.71673e-21)
(0.590048 0.0217855 7.41542e-21)
(0.368833 -0.00774182 6.1233e-20)
(0.672693 -0.0496299 -1.61179e-19)
(1.01331 0.0723085 -6.4615e-20)
(0.969531 0.0728321 -5.68647e-21)
(0.998963 0.0812909 -5.55694e-20)
(0.818221 -0.00524227 -1.58353e-19)
(1.01611 -0.186669 -1.71859e-19)
(0.931155 -0.0656324 -3.6696e-20)
(1.02054 -0.0323556 5.57488e-19)
(1.11187 0.0357129 3.2278e-19)
(0.986074 0.0530486 3.1602e-20)
(0.76425 0.0281699 0)
(1.28327 -0.308905 3.74694e-19)
(1.40093 -0.273751 1.5535e-18)
(1.57541 -0.155834 -1.64303e-18)
(1.6763 -0.0211898 -5.14306e-19)
(1.57793 0.0300094 3.93342e-19)
)
;

boundaryField
{
    left
    {
        type            fixedValue;
        value           uniform (1 0 0);
    }
    right
    {
        type            zeroGradient;
    }
    down
    {
        type            noSlip;
    }
    up
    {
        type            noSlip;
    }
    cylinder
    {
        type            noSlip;
    }
    defaultFaces
    {
        type            empty;
    }
}


// ************************************************************************* //
