# Selection   : all
# Cells       : 1800
# Volume      : 7.372328e+01
# Time        	min(p)
0.95          	-3.860757e+00
0.975         	-3.321964e+00
1             	-3.240662e+00
