/*--------------------------------*- C++ -*----------------------------------*\
  =========                 |
  \\      /  F ield         | OpenFOAM: The Open Source CFD Toolbox
   \\    /   O peration     | Website:  https://openfoam.org
    \\  /    A nd           | Version:  13
     \\/     M anipulation  |
\*---------------------------------------------------------------------------*/
FoamFile
{
    format      ascii;
    class       surfaceScalarField;
    location    "0.205";
    object      phi;
}
// * * * * * * * * * * * * * * * * * * * * * * * * * * * * * * * * * * * * * //

dimensions      [0 3 -1 0 0 0 0];

internalField   nonuniform List<scalar> 
3485
(
0.00340179
-0.0324332
0.0290314
0.0112642
-0.0946757
0.0868133
0.0209434
-0.129907
0.120227
0.0309484
-0.143106
0.133101
0.0407342
-0.145154
0.135369
0.0501716
-0.142925
0.133487
0.0592367
-0.139448
0.130383
0.06789
-0.135781
0.127128
0.0760445
-0.132135
0.123981
-0.128293
0.12056
0.0837767
0.00354232
-0.0359755
0.0112731
-0.102406
0.0205109
-0.139144
0.0299095
-0.152505
0.0390632
-0.154308
0.0479426
-0.151804
0.0566088
-0.148114
0.0651385
-0.144311
0.073664
-0.140661
-0.137145
0.0825165
0.00365805
-0.0396335
0.0111768
-0.109925
0.0198499
-0.147817
0.02848
-0.161135
0.036781
-0.162609
0.0447791
-0.159802
0.0525447
-0.15588
0.0601294
-0.151895
0.0675673
-0.148098
-0.144451
0.0748734
0.00375744
-0.043391
0.0109998
-0.117168
0.0190349
-0.155852
0.026843
-0.168943
0.0342743
-0.170041
0.0414248
-0.166953
0.0483921
-0.162847
0.0552347
-0.158738
0.0619948
-0.154859
-0.151257
0.0688003
0.0038031
-0.0471941
0.0106534
-0.124018
0.0179189
-0.163118
0.0247736
-0.175798
0.0311992
-0.176466
0.0373504
-0.173104
0.043341
-0.168837
0.049232
-0.164629
0.0550667
-0.160693
-0.157095
0.0609053
0.00378689
-0.050981
0.0101259
-0.130357
0.0165078
-0.1695
0.0223164
-0.181607
0.027663
-0.181813
0.0327546
-0.178195
0.0377175
-0.1738
0.042611
-0.169522
0.0474692
-0.165552
-0.161964
0.0523376
0.00368676
-0.0546677
0.00937842
-0.136049
0.0147557
-0.174877
0.0194193
-0.18627
0.0236035
-0.185997
0.027557
-0.182149
0.0314123
-0.177656
0.0352253
-0.173336
0.0390249
-0.169351
-0.16577
0.0428313
0.00349116
-0.0581589
0.00840264
-0.14096
0.0126659
-0.17914
0.0161039
-0.189708
0.0190654
-0.188958
0.0218264
-0.18491
0.0245176
-0.180347
0.027188
-0.176006
0.0298589
-0.172022
-0.168442
0.0325311
0.0031911
-0.06135
0.00719529
-0.144964
0.0102442
-0.182189
0.0124004
-0.191864
0.0140984
-0.190656
0.0156278
-0.186439
0.0171141
-0.181833
0.0185984
-0.17749
0.0200954
-0.173519
-0.169938
0.0215915
0.00278776
-0.0641378
0.00576419
-0.147941
0.00753204
-0.183957
0.00838242
-0.192715
0.0087943
-0.191068
0.00907574
-0.186721
0.00933364
-0.182091
0.00960104
-0.177758
0.00989194
-0.17381
0.0101892
-0.170236
0.00216785
-0.00479865
0.0026308
0.00987212
-0.0153665
0.00766223
0.0211661
-0.0219367
0.0106427
0.0340226
-0.0247207
0.0118642
0.0472744
-0.0253864
0.0121346
0.0604075
-0.0251361
0.012003
0.0732381
-0.0245659
0.0117352
0.0857193
-0.023919
0.0114379
0.0978524
-0.0232805
0.0111474
-0.0228276
0.109794
0.0108857
0.00221359
-0.00701224
0.00994209
-0.023095
0.0212105
-0.033205
0.0340038
-0.037514
0.0471728
-0.0385554
0.0602168
-0.0381802
0.0729598
-0.0373089
0.0853584
-0.0363176
0.0974176
-0.0353397
-0.0347017
0.109292
0.00228102
-0.00929326
0.01005
-0.0308639
0.0212884
-0.0444435
0.0339978
-0.0502233
0.047054
-0.0516116
0.0599752
-0.0511014
0.0725955
-0.0499291
0.0848766
-0.0485987
0.0968286
-0.0472916
-0.0464743
0.108601
0.00237398
-0.0116672
0.0102005
-0.0386904
0.0214008
-0.0556439
0.0339988
-0.0628213
0.0469051
-0.064518
0.0596628
-0.063859
0.0721195
-0.0623859
0.0842437
-0.0607229
0.0960515
-0.0590994
-0.0581065
0.107684
0.00249491
-0.0141621
0.0103944
-0.0465899
0.0215427
-0.0667922
0.0339942
-0.0752728
0.046706
-0.0772297
0.0592531
-0.0764062
0.0715009
-0.0746337
0.0834254
-0.0726474
0.0950495
-0.0707235
-0.0695541
0.106497
0.00264297
-0.0168051
0.0106241
-0.054571
0.0216968
-0.0778649
0.0339572
-0.0875333
0.0464213
-0.0896938
0.0587051
-0.0886899
0.070695
-0.0866236
0.0823764
-0.0843288
0.093777
-0.0821242
-0.0807643
0.104987
0.00281247
-0.0196176
0.0108705
-0.062629
0.0218294
-0.0888239
0.0338408
-0.0995446
0.0459935
-0.101847
0.0579531
-0.100649
0.0696325
-0.098303
0.0810288
-0.0957251
0.09217
-0.0932653
-0.0916696
0.103075
0.00298969
-0.0226073
0.0110964
-0.0707357
0.0218799
-0.0996074
0.0335631
-0.111228
0.0453215
-0.113605
0.0568788
-0.112207
0.0681797
-0.109604
0.0792353
-0.106781
0.0900648
-0.104095
-0.102144
0.100539
0.00314879
-0.0257561
0.0112378
-0.0788247
0.021745
-0.110115
0.0329795
-0.122462
0.0442135
-0.124839
0.0552343
-0.123228
0.0660202
-0.12039
0.0765963
-0.117357
0.0869564
-0.114455
-0.111892
0.096704
0.00327531
0.0112639
0.0213767
0.0320159
0.0425455
0.052805
0.0627981
0.0725689
0.0820946
0.0907634
0.157582
-0.135521
0.0877333
0.182384
-0.0980741
0.0732718
0.194733
-0.07293
0.0605816
0.200631
-0.0549459
0.0490481
0.203153
-0.0412836
0.0387617
0.203793
-0.030474
0.0298342
0.203332
-0.021747
0.0222072
0.202195
-0.0145415
0.015679
0.200623
-0.00862333
0.0101955
-0.00197699
0.00393621
0.156557
-0.182787
0.181407
-0.122924
0.193997
-0.0855204
0.20014
-0.0610881
0.20286
-0.0440046
0.203663
-0.0312763
0.203342
-0.0214261
0.202332
-0.0135312
0.200882
-0.00717353
-0.000142516
0.154797
-0.228983
0.179555
-0.147682
0.19242
-0.0983854
0.198901
-0.0675696
0.201936
-0.0470387
0.203024
-0.0323644
0.20297
-0.0213725
0.202218
-0.0127793
0.201024
-0.00597905
0.00143232
0.152264
-0.273562
0.176814
-0.172232
0.189998
-0.111569
0.196918
-0.0744897
0.200381
-0.0505016
0.201878
-0.0338611
0.202218
-0.0217132
0.201854
-0.0124153
0.201047
-0.00517145
0.0026135
0.148922
-0.315987
0.173176
-0.196487
0.186734
-0.125128
0.194195
-0.0819505
0.198204
-0.0545102
0.200231
-0.0358882
0.201091
-0.0225729
0.201242
-0.0125663
0.200951
-0.00488014
0.00326865
0.144711
-0.355711
0.168629
-0.220405
0.182635
-0.139134
0.190742
-0.0900577
0.195415
-0.0591825
0.198092
-0.038566
0.199593
-0.0240737
0.200383
-0.0133563
0.200735
-0.00523156
0.00326795
0.139471
-0.392106
0.163137
-0.244071
0.177702
-0.153699
0.186571
-0.0989266
0.192026
-0.0646378
0.195473
-0.0420131
0.197734
-0.0263343
0.199283
-0.0149054
0.2004
-0.0063483
0.00248494
0.1332
-0.424768
0.156581
-0.267452
0.171896
-0.169015
0.181682
-0.108712
0.18805
-0.0710058
0.192386
-0.0463493
0.195523
-0.029471
0.197947
-0.0173297
0.199947
-0.00834858
0.000797333
0.125585
-0.453648
0.148635
-0.290502
0.165014
-0.185394
0.175989
-0.119687
0.18346
-0.0784771
0.188829
-0.0517183
0.192965
-0.0336069
0.19638
-0.0207446
0.199378
-0.0113469
-0.00191256
0.11749
-0.480375
0.140205
-0.313217
0.15756
-0.202748
0.169704
-0.13183
0.178346
-0.0871196
0.184845
-0.0582171
0.190083
-0.0388448
0.194593
-0.0252542
0.198696
-0.0154502
-0.00575748
0.364466
-0.426074
-0.418767
0.336653
-0.285405
0.323579
-0.189674
0.317674
-0.125925
0.314622
-0.0840677
0.312756
-0.0563511
0.31149
-0.0375784
0.310621
-0.0243853
0.310057
-0.0148862
-0.00553436
0.377704
-0.364499
-0.439279
0.347464
-0.255164
0.331866
-0.174076
0.3235
-0.117559
0.318586
-0.0791534
0.315462
-0.0532273
0.313388
-0.0355047
0.312019
-0.0230157
0.311164
-0.0140319
-0.00520998
0.391789
-0.305372
-0.450915
0.358786
-0.222162
0.339989
-0.15528
0.329046
-0.106615
0.322337
-0.0724448
0.318027
-0.0489167
0.31519
-0.0326675
0.313344
-0.0211701
0.31221
-0.0128983
-0.00478588
0.401508
-0.249991
-0.456889
0.367606
-0.18826
0.34683
-0.134504
0.333934
-0.0937195
0.325727
-0.0642379
0.320374
-0.0435638
0.316847
-0.0291406
0.314565
-0.0188878
0.313172
-0.0115053
-0.00426785
0.40852
-0.198824
-0.459687
0.374612
-0.154352
0.35252
-0.112413
0.338131
-0.0793297
0.328696
-0.0548034
0.322454
-0.037322
0.318324
-0.0250108
0.315655
-0.0162184
0.314029
-0.00987967
-0.00366453
0.413464
-0.151705
-0.460583
0.38002
-0.120908
0.357103
-0.0894948
0.341606
-0.0638327
0.331199
-0.0443968
0.324227
-0.0303495
0.31959
-0.0203744
0.316591
-0.0132191
0.314765
-0.00805335
-0.00298676
0.416831
-0.108054
-0.460482
0.384034
-0.0881115
0.36063
-0.0660909
0.344346
-0.0475477
0.333203
-0.0332542
0.325658
-0.022805
0.320618
-0.0153335
0.317352
-0.00995339
0.315361
-0.00606284
-0.00224719
0.418842
-0.0669124
-0.459983
0.386681
-0.0559509
0.363041
-0.0424507
0.34625
-0.0307563
0.3346
-0.0216049
0.326649
-0.0148538
0.321315
-0.00999967
0.317855
-0.00649304
0.315742
-0.0039505
-0.00146106
0.416485
-0.0260305
-0.457367
0.38502
-0.0244856
0.361625
-0.0190555
0.34481
-0.0139417
0.333041
-0.00983597
0.324966
-0.00677805
0.319534
-0.00456844
0.31601
-0.00296854
0.31386
-0.00180041
-0.000660377
0.350054
-0.376084
0.325568
0.306513
0.292571
0.282735
0.275957
0.271389
0.26842
0.26662
0.451809
0.00929174
-0.450911
0.451921
0.0214788
0.451219
0.0332337
0.449638
0.0444118
0.447016
0.0549599
0.443614
0.0643069
0.438175
0.0742392
0.433756
0.0792929
0.422784
0.0934888
0.087793
0.433534
0.00849777
-0.43274
0.434532
0.0204799
0.435648
0.0321186
0.436841
0.0432188
0.437916
0.0538843
0.439089
0.0631339
0.439609
0.0737194
0.440639
0.0782634
0.441457
0.0926701
0.0899709
0.418428
0.00747895
-0.417409
0.420145
0.0187632
0.422499
0.0297639
0.425458
0.0402604
0.428932
0.0504099
0.432865
0.0592014
0.437331
0.0692528
0.4415
0.0740949
0.447304
0.0868661
0.0863593
0.40667
0.00637692
-0.405568
0.408813
0.0166203
0.411959
0.0266171
0.416058
0.036162
0.421089
0.0453788
0.426837
0.0534539
0.43371
0.0623793
0.440433
0.0673721
0.449356
0.0779429
0.0788264
0.397464
0.00521129
-0.396298
0.399913
0.0141709
0.403611
0.022919
0.408499
0.0312739
0.41458
0.0392982
0.421622
0.0464118
0.430042
0.0539591
0.438721
0.0586931
0.449556
0.0671078
0.0686955
0.390446
0.00399145
-0.389226
0.393112
0.0115051
0.397191
0.0188396
0.402624
0.025841
0.409405
0.0325173
0.417339
0.0384784
0.42673
0.0445677
0.436732
0.0486909
0.448715
0.0551248
0.0568279
0.385297
0.00271723
-0.384023
0.388128
0.00867408
0.392482
0.0144851
0.398298
0.0200258
0.405546
0.0252692
0.414068
0.0299564
0.424051
0.0345844
0.4349
0.0378422
0.447551
0.0424734
0.0438973
0.381429
0.00133061
-0.380042
0.384446
0.00565621
0.38907
0.00986181
0.395225
0.01387
0.402851
0.0176435
0.411802
0.0210057
0.422147
0.0242393
0.433493
0.0264958
0.446451
0.0295158
0.0303648
0.372011
-0.000118825
-0.370561
0.375461
0.00220581
0.380706
0.00461751
0.387657
0.00691854
0.396196
0.00910452
0.406123
0.0110787
0.417398
0.0129644
0.429618
0.0142758
0.443132
0.0160018
0.0161297
0.282788
-0.282906
0.284993
0.289611
0.29653
0.305634
0.316713
0.329677
0.343953
0.359955
0.0792031
0.124917
-0.113536
-0.0905834
0.0688131
0.127257
-0.116867
0.0590349
0.130151
-0.120373
0.0494977
0.133645
-0.124108
0.0399369
0.137531
-0.12797
0.0302365
0.141582
-0.131882
0.0204558
0.144792
-0.135011
0.0110565
0.142757
-0.133357
0.00339768
0.122565
-0.114906
0.0613322
-0.0579345
0.0770341
0.134592
-0.0867094
0.0672236
0.137067
0.057497
0.139877
0.0478977
0.143244
0.0383496
0.147079
0.028791
0.151141
0.0192879
0.154295
0.0102906
0.151754
0.00309063
0.129765
0.0644228
0.0694581
0.142695
-0.0775606
0.0609857
0.14554
0.0523373
0.148526
0.0436053
0.151976
0.0348074
0.155877
0.0259507
0.159997
0.0171553
0.16309
0.00892098
0.159988
0.00252187
0.136164
0.0669447
0.059597
0.14944
-0.0663424
0.0525299
0.152607
0.0451851
0.155871
0.0376255
0.159536
0.029897
0.163605
0.0220497
0.167844
0.0142574
0.170883
0.00707889
0.167167
0.0017671
0.141476
0.0687118
0.0496859
0.15517
-0.0554156
0.0437394
0.158553
0.0375391
0.162071
0.0311113
0.165964
0.0244923
0.170224
0.0177456
0.174591
0.0110801
0.177548
0.00509086
0.173156
0.000975093
0.145591
0.0696869
0.0401427
0.16007
-0.0450435
0.0351154
0.163581
0.0299077
0.167279
0.0245238
0.171348
0.0189832
0.175765
0.0133491
0.180225
0.00785307
0.183044
0.00311653
0.177892
0.000163227
0.148545
0.0698501
0.0306017
0.164127
-0.0346582
0.0264839
0.167698
0.022252
0.17151
0.0179
0.175699
0.0134393
0.180226
0.00893666
0.184728
0.00462408
0.187357
0.00112613
0.18139
-0.000519502
0.15019
0.0693306
0.0207928
0.167218
-0.0238842
0.0176729
0.170818
0.014476
0.174707
0.0111979
0.178978
0.00784726
0.183576
0.00450278
0.188072
0.00143251
0.190427
-0.000802655
0.183626
-0.00114078
0.150528
0.0681898
0.0107026
0.169255
-0.0127397
0.0086576
0.172863
0.00656441
0.176801
0.00442576
0.181116
0.00225329
0.185749
0.000115662
0.19021
-0.00168493
0.192228
-0.0024777
0.184418
-0.00175468
0.149805
0.0664352
0.000572377
-0.00155259
-0.000374278
-0.00133124
-0.00230606
-0.00327794
-0.0041362
-0.00462322
-0.00416202
-0.00229741
0.106804
0.0224077
-0.118116
-0.0110957
0.0951299
0.0230136
-0.0113395
0.0831089
0.0236224
-0.0116014
0.0707292
0.0242636
-0.0118839
0.0579747
0.0249463
-0.0121918
0.0448298
0.0256684
-0.0125234
0.0313405
0.0263197
-0.0128305
0.0179116
0.0262509
-0.0128219
0.00614431
0.0232087
-0.0114414
0.0124323
-0.00628803
0.10592
0.0336828
-0.117195
0.0943006
0.034633
0.082347
0.035576
0.0700471
0.0365634
0.0573843
0.0376091
0.0443423
0.0387103
0.0309685
0.0396936
0.01767
0.0395494
0.00604309
0.0348355
0.0184754
0.104651
0.0448984
-0.115867
0.0931202
0.046164
0.0812704
0.0474257
0.0690891
0.0487447
0.0565589
0.0501394
0.0436638
0.0516055
0.0304528
0.0529046
0.0173362
0.052666
0.0059016
0.0462701
0.024377
0.102912
0.0560174
-0.114031
0.091512
0.057564
0.0798118
0.059126
0.0677976
0.0607589
0.0554513
0.0624857
0.042757
0.0642997
0.0297677
0.0658939
0.0168995
0.0655342
0.00572014
0.0574495
0.0300972
0.100601
0.0669979
-0.111582
0.089386
0.0687793
0.0778951
0.0706169
0.0661115
0.0725425
0.0540142
0.074583
0.0415865
0.0767275
0.0288857
0.0785947
0.0163389
0.078081
0.00550139
0.068287
0.0355986
0.0975988
0.077786
-0.108387
0.0866338
0.0797443
0.0754228
0.0818278
0.0639444
0.0840209
0.0521736
0.0863537
0.0400921
0.088809
0.0277611
0.0909257
0.0156169
0.0902252
0.00520049
0.0787034
0.040799
0.0938014
0.0882637
-0.104279
0.0832358
0.0903099
0.0724477
0.0926159
0.061394
0.0950747
0.050043
0.0977047
0.0383807
0.100471
0.0264822
0.102824
0.0148029
0.101904
0.0048684
0.0886379
0.0456675
0.0884901
0.0982379
-0.0984643
0.0784876
0.100312
0.0683094
0.102794
0.0578864
0.105498
0.0471655
0.108426
0.0361228
0.111514
0.0248374
0.11411
0.0137789
0.112963
0.00445364
0.0979632
0.0501211
0.0843706
0.107175
-0.0933077
0.0752201
0.109463
0.0655756
0.112439
0.0555188
0.115555
0.0451242
0.11882
0.0344307
0.122207
0.0235471
0.124993
0.0129578
0.123552
0.00413098
0.10679
0.0542521
0.0743362
-0.0806975
0.0669323
0.0589985
0.0504452
0.0412954
0.0316213
0.0216033
0.0117983
0.00368247
0.201321
0.0143247
-0.0176557
0.203729
0.0243054
-0.0267136
0.203822
0.0295281
-0.029621
0.2047
0.0314483
-0.032326
0.204192
0.0375394
-0.0370321
0.20192
0.0460298
-0.0437575
0.196494
0.0577898
-0.0523644
0.185769
0.0736391
-0.062914
0.16212
0.0983753
-0.0747264
0.132995
-0.0889902
0.201116
0.0111982
0.203397
0.0220246
0.203435
0.0294906
0.204236
0.030647
0.20362
0.0381558
0.201191
0.0484586
0.195566
0.0634149
0.184546
0.0846586
0.160822
0.122099
0.176622
0.200784
0.00840423
0.202781
0.0200275
0.202669
0.0296029
0.203262
0.0300537
0.202403
0.0390144
0.199694
0.0511677
0.193766
0.0693432
0.182359
0.0960651
0.158581
0.145878
0.219336
0.200318
0.00607566
0.201884
0.0184615
0.201535
0.0299524
0.201787
0.0298015
0.200554
0.0402474
0.19744
0.0542818
0.191092
0.0756912
0.179194
0.107964
0.155221
0.169851
0.260526
0.199713
0.00435231
0.200713
0.0174617
0.200048
0.0306174
0.199824
0.0300256
0.198087
0.0419846
0.194443
0.0579256
0.187545
0.0825888
0.175045
0.120464
0.150873
0.194023
0.299817
0.19896
0.00338258
0.199274
0.0171471
0.198225
0.0316661
0.197385
0.0308659
0.195018
0.0443514
0.190718
0.0622259
0.183125
0.0901814
0.169914
0.133675
0.146086
0.21785
0.337516
0.198048
0.00332465
0.197577
0.0176174
0.196087
0.0331567
0.194485
0.0324674
0.191371
0.0474661
0.186285
0.0673116
0.177847
0.098619
0.163766
0.147757
0.140994
0.240622
0.374231
0.196968
0.00434693
0.195636
0.0189486
0.193655
0.0351384
0.191141
0.0349812
0.18717
0.051437
0.18117
0.073312
0.171781
0.108008
0.156616
0.162921
0.135053
0.262186
0.41082
0.195716
0.00662108
0.193476
0.0211886
0.190952
0.0376616
0.187367
0.0385665
0.182444
0.0563606
0.175419
0.080337
0.165081
0.118345
0.149326
0.178676
0.129452
0.28206
0.446964
0.194407
0.0102035
0.191118
0.0244778
0.188034
0.0407453
0.183159
0.0434423
0.177275
0.0622447
0.169103
0.0885083
0.157275
0.130173
0.139857
0.196094
0.118559
0.303357
0.484826
0.303016
0.0091972
0.30516
0.0223339
0.308739
0.0371669
0.310236
0.0419452
0.312559
0.0599213
0.315311
0.0857571
0.319883
0.125601
0.329411
0.186566
0.354802
0.277966
0.425451
0.414178
0.303799
0.00740794
0.306274
0.0198594
0.310202
0.0332392
0.312693
0.0394535
0.316275
0.05634
0.321166
0.0808661
0.329084
0.117683
0.343415
0.172236
0.373478
0.247902
0.367143
0.431786
0.304522
0.00489618
0.3075
0.0168809
0.311667
0.0290728
0.31507
0.0360503
0.319781
0.0516296
0.326476
0.0741709
0.337019
0.107139
0.354598
0.154657
0.387012
0.215488
0.309763
0.444392
0.305239
0.00166777
0.308708
0.0134115
0.313107
0.0246734
0.317281
0.0318765
0.323011
0.0458994
0.33124
0.0659426
0.343837
0.0945415
0.363737
0.134757
0.396863
0.182362
0.25508
0.451547
0.30599
-0.00231189
0.309904
0.00949709
0.314484
0.0200937
0.31928
0.0270801
0.325886
0.0392933
0.335375
0.0564537
0.349536
0.080381
0.37102
0.113273
0.403846
0.149536
0.203863
0.455063
0.306819
-0.00712093
0.311109
0.005207
0.315766
0.0154373
0.321028
0.0218182
0.328349
0.0319721
0.338836
0.0459663
0.354152
0.0650657
0.376643
0.0907812
0.408716
0.117463
0.156236
0.456344
0.30778
-0.0128908
0.312347
0.000640506
0.316924
0.0108599
0.322486
0.0162562
0.330356
0.0241016
0.341598
0.0347251
0.357736
0.0489274
0.380809
0.0677076
0.412027
0.0862449
0.111846
0.456417
0.308942
-0.019823
0.313628
-0.0040448
0.317882
0.0066054
0.323569
0.0105692
0.33183
0.0158406
0.343605
0.0229504
0.360304
0.0322287
0.383675
0.0443364
0.414125
0.055795
0.0701332
0.455837
0.308681
-0.0264936
0.312847
-0.00821102
0.316624
0.00282867
0.32233
0.0048631
0.330826
0.00734416
0.342943
0.0108338
0.360003
0.0151683
0.383493
0.0208462
0.413437
0.0258516
0.0317096
0.45186
0.275517
0.267306
0.270134
0.274997
0.282342
0.293175
0.308344
0.32919
0.355042
0.386751
0.426881
-0.103287
0.430049
-0.089877
0.432067
-0.0795788
0.434808
-0.0690831
0.43813
-0.0587374
0.441548
-0.0484622
0.444725
-0.0378346
0.447414
-0.0265739
0.449491
-0.0148163
-0.00297274
0.431682
-0.103184
0.431409
-0.0896036
0.430747
-0.0789174
0.430704
-0.06904
0.430965
-0.0589979
0.431201
-0.0486984
0.431384
-0.0380172
0.431657
-0.0268477
0.432133
-0.015292
-0.00357939
0.438058
-0.0968496
0.43336
-0.0849062
0.429097
-0.0746541
0.425421
-0.0653643
0.422476
-0.0560522
0.420173
-0.046396
0.418499
-0.036343
0.417496
-0.0258442
0.417154
-0.0149501
-0.00383477
0.441358
-0.0866606
0.433208
-0.0767568
0.426256
-0.0677019
0.420298
-0.0594061
0.415372
-0.0511263
0.411441
-0.0424651
0.408474
-0.0333757
0.406489
-0.0238597
0.405512
-0.0139728
-0.00389044
0.442654
-0.0742519
0.432266
-0.0663686
0.42342
-0.0588564
0.415841
-0.051827
0.409489
-0.0447739
0.404363
-0.0373393
0.400463
-0.0294759
0.397809
-0.0212055
0.396425
-0.0125891
-0.0037634
0.442662
-0.0605694
0.430866
-0.054573
0.420729
-0.0487195
0.412036
-0.0431334
0.404719
-0.0374577
0.398787
-0.0314068
0.394252
-0.0249414
0.391138
-0.0180912
0.389464
-0.0109146
-0.00352621
0.441999
-0.0461512
0.429345
-0.0419188
0.418385
-0.0377598
0.40897
-0.033718
0.401026
-0.0295136
0.394561
-0.0249424
0.389602
-0.0199827
0.386179
-0.0146674
0.384317
-0.00905327
-0.00323153
0.440936
-0.0312498
0.427737
-0.0287199
0.41628
-0.0263035
0.406413
-0.0238503
0.398055
-0.0211563
0.391228
-0.0181146
0.385971
-0.0147262
0.382329
-0.0110257
0.380342
-0.00706545
-0.00293187
0.436032
-0.015421
0.422201
-0.0148899
0.410142
-0.0142441
0.399637
-0.0133452
0.390624
-0.0121433
0.383156
-0.0106464
0.377326
-0.0088958
0.373234
-0.00693446
0.370968
-0.00479907
-0.00252534
0.37133
0.35644
0.342196
0.328851
0.316708
0.306061
0.297165
0.290231
0.285432
0.00751214
0.0780804
-0.0855925
0.0142263
0.182892
-0.189606
0.0169875
0.227816
-0.230577
0.0172525
0.239273
-0.239538
0.01651
0.238475
-0.237732
0.0155488
0.234723
-0.233762
0.0146024
0.230836
-0.22989
0.0136714
0.227178
-0.226247
0.0126632
0.222733
-0.221725
0.213566
0.0114247
-0.212328
0.0090373
0.0690431
0.0194245
0.172505
0.026403
0.220837
0.0307062
0.23497
0.0338954
0.235285
0.036899
0.23172
0.0400548
0.22768
0.0433417
0.223891
0.0462972
0.219777
0.212515
0.0473484
0.00961416
0.0594289
0.0227377
0.159382
0.0334738
0.210101
0.041691
0.226753
0.048705
0.228271
0.055507
0.224918
0.062551
0.220636
0.0699068
0.216536
0.0771437
0.21254
0.207347
0.0823114
0.00925374
0.0501752
0.0238895
0.144746
0.0375047
0.196486
0.0491056
0.215152
0.0595425
0.217834
0.0697079
0.214752
0.0801123
0.210232
0.090944
0.205704
0.102057
0.201427
0.197064
0.11234
0.00818558
0.0419896
0.0230643
0.129867
0.0384447
0.181105
0.0525878
0.201009
0.0657639
0.204658
0.0786175
0.201899
0.0916159
0.197234
0.105003
0.192316
0.118844
0.187587
0.182899
0.13301
0.00675574
0.0352338
0.0208573
0.115765
0.0368726
0.16509
0.0525525
0.185329
0.0675843
0.189626
0.0822703
0.187213
0.0969419
0.182562
0.111818
0.17744
0.127035
0.17237
0.167047
0.142887
0.00531942
0.0299144
0.018088
0.102997
0.0338597
0.149319
0.0501407
0.169048
0.0661382
0.173629
0.0818052
0.171546
0.0972915
0.167076
0.112741
0.16199
0.128237
0.156875
0.151188
0.144096
0.00412198
0.0257924
0.0154578
0.0916611
0.0304752
0.134301
0.0466376
0.152886
0.0628253
0.157441
0.0787049
0.155666
0.0942505
0.15153
0.109516
0.146724
0.124595
0.141796
0.136289
0.139493
0.00328483
0.0225076
0.0134226
0.0815234
0.0275669
0.120157
0.0432586
0.137194
0.0592145
0.141485
0.0749318
0.139949
0.090279
0.136183
0.105277
0.131726
0.120015
0.127058
0.121301
0.135004
0.00276638
0.0197412
0.0120219
0.0722678
0.025343
0.106836
0.040369
0.122168
0.0557394
0.126115
0.0708278
0.12486
0.0853705
0.12164
0.0992343
0.117863
0.112218
0.114075
0.109419
0.124099
0.00250581
0.0172354
0.0112219
0.0635517
0.0239526
0.094105
0.0384462
0.107674
0.0533697
0.111192
0.0681096
0.11012
0.0824425
0.107308
0.0963318
0.103973
0.109807
0.100599
0.0976898
0.121536
0.00238891
0.0148465
0.0107947
0.0551459
0.0231274
0.0817723
0.037215
0.0935867
0.0517638
0.0966427
0.0661741
0.0957099
0.0802173
0.0932643
0.0938271
0.0903635
0.107013
0.0874138
0.0854854
0.119217
0.00231412
0.0125324
0.0105034
0.0469567
0.0225262
0.0697495
0.0362556
0.0798572
0.050427
0.0824713
0.064453
0.0816839
0.0781044
0.079613
0.0913074
0.0771605
0.104054
0.0746675
0.0732565
0.116283
0.00225314
0.0102792
0.0102782
0.0389316
0.0220647
0.057963
0.0355135
0.0664085
0.0493835
0.0686013
0.0631035
0.067964
0.0764514
0.0662651
0.0893553
0.0642565
0.101803
0.0622197
0.0611457
0.113914
0.00220451
0.00807474
0.0101089
0.0310273
0.0217294
0.0463424
0.0349845
0.0531534
0.0486507
0.0549351
0.062171
0.0544437
0.0753325
0.0531037
0.0880691
0.0515199
0.100373
0.0499157
0.0491081
0.112411
0.00216734
0.0059074
0.009985
0.0232096
0.0214928
0.0348347
0.0346212
0.040025
0.0481586
0.0413976
0.0615584
0.0410439
0.074615
0.040047
0.0872683
0.0388666
0.0995136
0.0376703
0.0370985
0.111523
0.0021418
0.0037656
0.00989955
0.0154519
0.0213317
0.0234025
0.0343779
0.0269788
0.047835
0.0279405
0.061163
0.0277159
0.0741616
0.0270484
0.0867742
0.0262541
0.0989975
0.025447
0.0250958
0.111
0.00212851
0.00163709
0.00984823
0.00773214
0.0212295
0.0120213
0.03422
0.0139883
0.0476234
0.0145371
0.0609047
0.0144345
0.0738674
0.0140857
0.0864573
0.0136642
0.0986715
0.0132327
0.0130929
0.110674
0.00212782
-0.000490727
0.00982767
3.22888e-05
0.0211732
0.000675765
0.0341202
0.00104126
0.0474796
0.00117775
0.0607213
0.00119284
0.0736521
0.00115486
0.0862199
0.00109647
0.0984224
0.00103022
0.00109598
0.110419
0.00214007
0.00983459
0.0211531
0.0340585
0.0473708
0.0605667
0.0734568
0.0859911
0.0981687
0.11015
0.13795
0.262578
-0.278992
0.150107
0.115044
-0.127201
0.159579
0.0395201
-0.0489921
0.16686
0.00561105
-0.012892
0.17294
-0.00776239
0.00168246
0.17834
-0.0118004
0.00640045
0.183288
-0.0118322
0.00688413
0.187884
-0.0102656
0.00566983
0.19217
-0.00822401
0.00393793
-0.00543906
0.00154913
0.141672
0.240124
0.156492
0.100223
0.166298
0.0297145
0.173207
-0.0012976
0.178479
-0.0130353
0.182904
-0.016225
0.186789
-0.0157176
0.190277
-0.0137528
0.193438
-0.0113858
-0.00821162
0.144865
0.211541
0.162
0.0830878
0.172229
0.0194856
0.17881
-0.00787785
0.183467
-0.017693
0.187049
-0.0198071
0.189987
-0.0186556
0.192477
-0.0162422
0.194624
-0.0135329
-0.0099733
0.147865
0.177591
0.166916
0.0640364
0.177553
0.00884808
0.183872
-0.0141968
0.18794
-0.0217605
0.190773
-0.02264
0.192871
-0.0207534
0.194476
-0.0178471
0.195722
-0.0147795
-0.010836
0.150825
0.139176
0.171263
0.0435985
0.182223
-0.002112
0.188313
-0.0202866
0.191876
-0.025324
0.19406
-0.0248235
0.195429
-0.0221223
0.196266
-0.0186841
0.19673
-0.0152434
-0.0109161
0.153259
0.0974399
0.17497
0.021888
0.186209
-0.0133512
0.19211
-0.0261875
0.195254
-0.028468
0.196893
-0.0264625
0.197649
-0.0228779
0.197838
-0.0188735
0.197641
-0.0150462
-0.0103345
0.155219
0.0532214
0.177993
-0.000886058
0.189475
-0.0248333
0.195236
-0.0319489
0.198052
-0.0312841
0.199257
-0.0276672
0.199519
-0.0231399
0.199185
-0.0185396
0.198452
-0.0143135
-0.00921629
0.156686
0.00721011
0.18028
-0.0244804
0.191986
-0.0365389
0.197668
-0.037631
0.200253
-0.0338697
0.201138
-0.0285518
0.20103
-0.0230315
0.200299
-0.0178094
0.199159
-0.0131734
-0.00768952
0.157599
-0.0399695
0.181797
-0.0486788
0.193713
-0.0484546
0.199387
-0.0433046
0.201844
-0.0363268
0.202526
-0.0292341
0.202173
-0.0226782
0.201176
-0.0168122
0.199759
-0.0117566
-0.00588517
0.157914
0.182507
0.194634
0.200378
0.202813
0.203413
0.202942
0.201808
0.200247
0.159309
0.0187596
-0.178069
0.14611
0.0131993
0.139875
0.00623499
0.138055
0.00181978
0.138291
-0.000235678
0.139239
-0.000948082
0.140258
-0.00101892
0.141095
-0.000837276
0.141666
-0.000570975
-0.000217613
0.236279
0.0873162
-0.304836
0.206422
0.0430567
0.194771
0.0178861
0.19132
0.00527011
0.191268
-0.000182842
0.192407
-0.00208763
0.193752
-0.00236395
0.194892
-0.00197762
0.195694
-0.00137263
-0.000534522
0.242156
0.157301
-0.312141
0.211462
0.0737504
0.199642
0.0297066
0.196275
0.00863686
0.196346
-0.00025404
0.197579
-0.00332039
0.198996
-0.00378125
0.200189
-0.00317076
0.20103
-0.00221304
-0.000868558
0.237006
0.221554
-0.301259
0.209019
0.101737
0.198608
0.0401181
0.196004
0.0112408
0.19644
-0.000689846
0.197864
-0.00474481
0.199364
-0.00528084
0.200593
-0.00439977
0.201448
-0.00306806
-0.00120687
0.231155
-0.288593
0.205691
0.196817
0.195166
0.196158
0.197814
0.199417
0.200687
0.201557
0.0165903
-0.000105418
-0.0164849
0.0189175
-0.00232722
0.0236238
-0.00470624
0.0313305
-0.00770676
0.0432386
-0.0119081
0.0602886
-0.0170499
0.0841186
-0.02383
0.111702
-0.0275829
0.146468
-0.034767
-0.0316001
0.0465942
-0.0011639
-0.0455357
0.0538241
-0.00955711
0.0678452
-0.0187274
0.0895699
-0.0294314
0.11925
-0.0415881
0.155544
-0.0533443
0.196007
-0.064293
0.235092
-0.0666681
0.2737
-0.0733745
-0.0627361
0.0711181
-0.00349715
-0.0687849
0.0821179
-0.0205569
0.102128
-0.0387373
0.130663
-0.0579667
0.165188
-0.0761131
0.20153
-0.0896867
0.235134
-0.0978962
0.264084
-0.0956188
0.2903
-0.0995906
-0.0845766
0.089058
-0.0070099
-0.0855452
0.102104
-0.0336029
0.124141
-0.0607743
0.152736
-0.0865618
0.183589
-0.106966
0.212761
-0.118858
0.237728
-0.122864
0.260959
-0.118849
0.281957
-0.120589
-0.103879
0.100948
-0.0965337
0.114694
0.136231
0.162009
0.188053
0.212081
0.233313
0.253957
0.268372
0.096947
-0.089911
0.0982389
-0.105275
0.0878039
-0.0924596
0.101603
0.0781544
-0.0957665
0.105416
0.0676702
-0.0991435
0.109628
0.0562784
-0.102555
0.113947
0.0440273
-0.106025
0.118276
0.0310685
-0.109072
0.122031
0.0179044
-0.108766
0.12193
0.00620268
-0.0953537
0.107055
-0.04971
0.0559127
0.105106
-0.0795338
-0.115483
0.0944234
-0.0817772
0.0829858
-0.0843289
0.070881
-0.0870387
0.0582332
-0.0899072
0.0451121
-0.0929036
0.0316013
-0.095561
0.0181192
-0.0952838
0.00626227
-0.0834968
-0.0434477
0.104778
-0.0683172
-0.115994
0.093413
-0.0704126
0.0817498
-0.0726657
0.0697295
-0.0750184
0.0572974
-0.0774751
0.0444148
-0.080021
0.0311198
-0.082266
0.017821
-0.081985
0.00612526
-0.071801
-0.0373225
0.106363
-0.0569874
-0.117692
0.0948324
-0.0588824
0.0829627
-0.0607961
0.0707091
-0.0627648
0.0580398
-0.0648059
0.0449372
-0.0669183
0.0314531
-0.0687819
0.0180031
-0.0685351
0.00619578
-0.0599937
-0.0311267
0.107116
-0.0456353
-0.118468
0.0954617
-0.0472278
0.0834529
-0.0487872
0.0710719
-0.0503837
0.0582989
-0.0520329
0.0451161
-0.0537355
0.0315688
-0.0552346
0.0180633
-0.0550296
0.00620429
-0.0481347
-0.0249224
0.107579
-0.0342851
-0.118929
0.0958855
-0.0355341
0.0838276
-0.0367293
0.0713918
-0.037948
0.0585613
-0.0392023
0.0453196
-0.0404938
0.0317126
-0.0416276
0.0181451
-0.0414621
0.00623132
-0.0362209
-0.0186911
0.107833
-0.0229307
-0.119187
0.0961131
-0.0238144
0.0840258
-0.0246421
0.0715592
-0.0254813
0.0586976
-0.0263408
0.0454261
-0.0272223
0.0317901
-0.0279916
0.0181941
-0.0278662
0.00625585
-0.0242826
-0.0124352
0.107893
-0.0115758
-0.119248
0.0961614
-0.0120828
0.0840636
-0.0125442
0.0715882
-0.013006
0.05872
-0.0134726
0.0454437
-0.0139459
0.0318046
-0.0143526
0.0182067
-0.0142682
0.00626341
-0.0123393
-0.00617183
0.107738
-0.000250503
-0.119063
0.0960143
-0.000359229
0.0839272
-0.000457081
0.0714654
-0.000544155
0.0586136
-0.000620892
0.0453568
-0.000689127
0.0317403
-0.000736088
0.0181672
-0.000695059
0.00624753
-0.000419655
7.57023e-05
0.107367
-0.118714
0.0956687
0.0836102
0.0711822
0.0583695
0.0451569
0.0315904
0.0180734
0.00621233
0.0208763
-0.209177
-0.0240265
0.0162548
-0.217103
0.0113314
-0.221324
0.0064459
-0.225004
0.00167439
-0.22899
-0.00285206
-0.233206
-0.00654853
-0.235842
-0.00784033
-0.229285
-0.00526122
-0.192186
-0.0908537
0.0521039
-0.202959
-0.058322
0.0438998
-0.208899
0.0353798
-0.212804
0.027007
-0.216632
0.0188518
-0.220835
0.0109791
-0.225333
0.00379741
-0.22866
-0.00155985
-0.223928
-0.0026608
-0.191085
-0.0935145
0.0785359
-0.192776
-0.0887187
0.0670846
-0.197448
0.0556547
-0.201374
0.0445334