/*--------------------------------*- C++ -*----------------------------------*\
  =========                 |
  \\      /  F ield         | OpenFOAM: The Open Source CFD Toolbox
   \\    /   O peration     | Website:  https://openfoam.org
    \\  /    A nd           | Version:  13
     \\/     M anipulation  |
\*---------------------------------------------------------------------------*/
FoamFile
{
    format      ascii;
    class       volScalarField;
    location    "0.01";
    object      strainRateViscosityModel:nu;
}
// * * * * * * * * * * * * * * * * * * * * * * * * * * * * * * * * * * * * * //

dimensions      [0 2 -1 0 0 0 0];

internalField   nonuniform List<scalar> 
1800
(
9.93131
9.82779
9.54578
8.8127
6.53535
3.84746
3.60811
3.73378
3.79323
3.71151
9.94423
9.85756
9.61334
8.97356
6.78295
3.68884
3.45476
3.46519
3.21953
3.05114
9.95326
9.87828
9.66068
9.10656
6.99675
3.29105
3.05345
3.13627
2.87927
2.55981
9.95966
9.89312
9.69512
9.21976
7.2289
2.75522
2.45443
2.6139
2.47675
2.26609
9.96422
9.9037
9.71961
9.31573
7.47841
2.16117
1.79277
1.98711
1.9664
1.9215
9.96743
9.91116
9.73625
9.39406
7.72764
1.58406
1.1744
1.35191
1.42361
1.50977
9.96965
9.91626
9.74676
9.45524
7.95872
1.08844
0.666541
0.781899
0.891586
1.03899
9.97113
9.91961
9.75283
9.50021
8.15097
0.713899
0.309619
0.349554
0.435414
0.552959
9.97203
9.92163
9.75603
9.52961
8.28666
0.473429
0.110388
0.102602
0.13795
0.180022
9.97247
9.9226
9.75744
9.54394
8.35566
0.35946
0.0367881
0.0201799
0.0261641
0.0290578
3.96275
4.09779
5.19352
5.98048
6.22684
6.09701
5.74896
5.29065
4.67937
4.10763
6.68484
5.84352
5.86357
6.17845
6.30621
6.16048
5.81393
5.35169
4.72547
4.1469
8.33828
7.47042
6.77127
6.40384
6.25107
6.06572
5.75665
5.32837
4.71576
4.15198
9.12417
8.46559
7.62161
6.76429
6.21249
5.9143
5.64192
5.26513
4.68102
4.14482
9.49788
9.02278
8.2497
7.17416
6.2191
5.73792
5.49245
5.17868
4.631
4.13339
9.68752
9.34198
8.68305
7.55884
6.25185
5.52691
5.30494
5.06442
4.56769
4.11646
9.7909
9.53277
8.9799
7.89382
6.2927
5.26502
5.06264
4.93415
4.48232
4.07708
9.85096
9.6518
9.18638
8.17905
6.34239
4.91426
4.76531
4.7837
4.43082
4.08939
9.88822
9.7303
9.33613
8.42439
6.36358
4.43777
4.2611
4.56458
4.38083
3.91974
9.91325
9.78599
9.45291
8.6249
6.39422
3.93438
3.74807
4.00593
4.292
4.36233
2.07418
0.403583
0.091397
0.0328489
0.0174244
0.0127411
0.0111362
0.0105339
0.0103017
0.0100635
2.14614
0.452011
0.106731
0.0363493
0.0184206
0.0130579
0.0112569
0.0105924
0.0103384
0.010072
2.22741
0.506048
0.125468
0.0404268
0.0195486
0.0134036
0.0113823
0.0106496
0.0103723
0.0100795
2.3247
0.566176
0.148088
0.0452573
0.0208321
0.0137795
0.0115107
0.0107037
0.0104019
0.0100857
2.44522
0.637907
0.174994
0.0510539
0.0222964
0.0141879
0.0116407
0.0107529
0.0104257
0.0100902
2.57803
0.732465
0.206364
0.0580416
0.0239701
0.0146329
0.0117717
0.010796
0.0104426
0.0100928
2.74444
0.851549
0.241509
0.0663697
0.0258877
0.0151215
0.0119038
0.0108323
0.0104519
0.0100931
2.94214
1.03859
0.284542
0.0762967
0.0280873
0.0156613
0.0120378
0.0108612
0.0104533
0.0100913
3.10615
1.16421
0.284825
0.0757824
0.0282946
0.0158243
0.0120967
0.0108705
0.0104454
0.0100875
2.9958
1.61787
0.431482
0.103607
0.0334567
0.0168333
0.0122942
0.0108984
0.0104372
0.0100833
3.01687
1.67174
0.484597
0.118756
0.037319
0.0177224
0.0124613
0.0109061
0.0104155
0.0100765
2.68937
1.18317
0.350843
0.0994733
0.0345326
0.0172214
0.0123132
0.0108279
0.0103601
0.0100627
2.34004
1.06103
0.320772
0.0972146
0.0346856
0.0172918
0.0122748
0.0107652
0.010303
0.0100482
1.83997
0.899571
0.282457
0.0916014
0.0339161
0.0171111
0.0121671
0.0106838
0.0102421
0.010034
1.47673
0.760744
0.250507
0.0862023
0.033018
0.0168772
0.012046
0.0106023
0.0101855
0.0100216
1.13891
0.610682
0.210751
0.0765958
0.0305765
0.0161271
0.0117566
0.0104678
0.0101144
0.0100071
1.16479
0.630565
0.222327
0.0943232
0.048373
0.0322169
0.0262438
0.0239207
0.0230014
0.0239495
4.81015
3.85464
3.01368
2.50166
2.18596
1.99573
1.88022
1.81038
1.77047
1.76215
7.98011
7.35718
6.82431
6.38556
6.05247
5.81255
5.647
5.53784
5.47245
5.4379
9.19466
8.77863
8.3519
7.93221
7.5755
7.29909
7.09955
6.96457
6.8824
6.83749
0.27991
0.423788
0.744381
1.19093
1.64094
2.00325
2.23709
2.42592
2.78662
3.10795
1.66889
1.78226
2.00426
2.30986
2.62681
2.85629
2.95969
3.03092
3.05273
2.93214
1.18331
1.28958
1.48738
1.73773
1.98637
2.19017
2.34523
2.48742
2.5201
2.51033
0.751038
0.846648
1.02711
1.26392
1.52315
1.77669
2.01478
2.21533
2.27237
2.26013
0.478766
0.564527
0.729313
0.947508
1.1844
1.41081
1.60879
1.76885
1.81198
1.77939
2.9573
2.90874
2.8066
2.64903
2.44951
2.23744
2.03964
1.87521
1.65492
1.35525
6.68662
6.54807
6.26726
5.84984
5.31456
4.69386
4.01941
3.35462
2.64972
1.79577
8.24796
8.2061
8.11988
7.98564
7.79884
7.55467
7.24329
6.85388
6.40078
5.74693
9.23895
9.22274
9.1894
9.13757
9.06583
8.97289
8.85759
8.71898
8.55021
8.32876
9.67691
9.67168
9.66115
9.64499
9.62259
9.5932
9.55545
9.507
9.44645
9.37616
3.72024
3.79748
3.73069
3.59691
3.82888
6.51449
8.81053
9.5466
9.82874
9.93209
3.04834
3.21637
3.45273
3.44666
3.67629
6.76642
8.97154
9.61415
9.85836
9.94484
2.54111
2.87396
3.12727
3.05136
3.28298
6.97982
9.10465
9.66133
9.87893
9.95374
2.25307
2.47556
2.60645
2.45154
2.74531
7.21224
9.21786
9.69565
9.89366
9.96005
1.90371
1.95968
1.97319
1.78428
2.14882
7.46258
9.31384
9.72007
9.90415
9.96452
1.48351
1.40826
1.33296
1.1627
1.57168
7.71397
9.39231
9.73671
9.91153
9.96767
1.00925
0.873385
0.764681
0.655662
1.07836
7.94787
9.45369
9.74721
9.91658
9.96984
0.530295
0.421329
0.338351
0.302051
0.707172
8.14327
9.49893
9.75324
9.91985
9.97126
0.169927
0.130995
0.0977523
0.106698
0.469961
8.28212
9.52873
9.75633
9.92178
9.97211
0.0274536
0.0248586
0.0193612
0.0359272
0.358464
8.35416
9.54362
9.75755
9.92265
9.9725
4.11376
4.68666
5.29982
5.75985
6.11009
6.24319
6.00197
5.22353
4.14311
4.04246
4.14864
4.72802
5.35575
5.8193
6.16736
6.31563
6.19363
5.892
5.89477
6.75856
4.15072
4.71479
5.3286
5.75809
6.06834
6.25621
6.41563
6.79519
7.50542
8.37694
4.14252
4.67831
5.26336
5.64128
5.91458
6.21508
6.77332
7.63861
8.486
9.14343
4.13136
4.62793
5.17603
5.49066
5.73639
6.21921
7.18011
8.26082
9.0346
9.50796
4.11537
4.56518
5.06192
5.30226
5.52373
6.24954
7.56234
8.69029
9.3491
9.69322
4.07647
4.4785
4.92847
5.05729
5.25903
6.28813
7.89569
8.9847
9.53726
9.79437
4.08101
4.4212
4.77358
4.75558
4.90446
6.33455
8.17959
9.18947
9.65473
9.85321
3.9113
4.36701
4.54928
4.24552
4.4185
6.35072
8.42334
9.33782
9.7322
9.88974
4.36368
4.28101
3.98568
3.72814
3.9058
6.37436
8.62268
9.45375
9.78722
9.91429
0.310925
0.148058
0.0171175
0.010052
0.0108308
0.014691
0.0292573
0.0864365
0.397019
2.076
0.307607
0.149681
0.0165138
0.0101032
0.0110149
0.0153687
0.0320444
0.100274
0.442566
2.14387
0.306242
0.15246
0.0161481
0.0102162
0.0113295
0.0163484
0.0356617
0.117906
0.494512
2.2231
0.30688
0.156412
0.0159758
0.0104177
0.0118013
0.0176858
0.0403446
0.139957
0.553584
2.32083
0.309489
0.16157
0.0159773
0.0107331
0.012454
0.0194274
0.0463425
0.166889
0.625502
2.44327
0.313591
0.167885
0.0161534
0.0111814
0.0133024
0.021604
0.0538831
0.198857
0.721776
2.57865
0.317764
0.174957
0.016503
0.0117714
0.014348
0.0242265
0.06307
0.235084
0.844287
2.74448
0.320416
0.182472
0.0170243
0.0124976
0.0155833
0.0273227
0.0742301
0.280209
1.03431
2.93977
0.319162
0.189319
0.0178826
0.0133733
0.0166607
0.0286745
0.0751573
0.281757
1.16009
3.09882
0.3154
0.188903
0.018875
0.014211
0.0182763
0.0344101
0.103063
0.426047
1.61093
2.9731
0.295363
0.184091
0.0180019
0.0151315
0.0200544
0.0393353
0.119518
0.480383
1.66438
3.01008
0.291717
0.199624
0.0168127
0.0159109
0.0205737
0.0377924
0.102578
0.35278
1.18258
2.69832
0.285511
0.224557
0.0167352
0.0164503
0.0212576
0.0386107
0.101122
0.323024
1.05991
2.35293
0.289263
0.254955
0.0170227
0.0162748
0.0209011
0.0375885
0.0952792
0.284401
0.898965
1.84889
0.312243
0.293713
0.0175973
0.015522
0.0198684
0.0357908
0.0889763
0.251739
0.759103
1.47997
0.414482
0.34648
0.0184867
0.0140837
0.017827
0.0320268
0.0781824
0.211486
0.609652
1.14299
0.774052
0.315384
0.0130355
0.0149186
0.0248222
0.043477
0.090892
0.218732
0.625054
1.16147
1.54956
0.896363
1.41201
1.66386
1.89677
2.13231
2.46447
2.98347
3.82502
4.78288
5.65843
5.37811
5.51882
5.64735
5.80907
6.04561
6.3782
6.81928
7.35211
7.97701
8.89824
8.3737
7.32197
7.25703
7.34966
7.59187
7.9392
8.35759
8.78314
9.19788
3.12292
2.78856
2.42202
2.22669
2.00203
1.64384
1.19622
0.753082
0.431936
0.282961
2.9505
3.06758
3.04606
2.96146
2.8635
2.64749
2.33758
2.02879
1.79772
1.67405
2.51772
2.52717
2.50783
2.35581
2.19715
1.9947
1.7491
1.49852
1.29762
1.18622
2.26081
2.27049
2.23315
2.03494
1.79395
1.53694
1.27592
1.03705
0.853383
0.753425
1.77214
1.81035
1.78575
1.62811
1.43054
1.20288
0.964689
0.743445
0.573722
0.481916
1.32938
1.62932
1.87582
2.03797
2.23262
2.44446
2.64639
2.80669
2.91017
2.95807
1.74611
2.59947
3.3363
4.00217
4.6748
5.2955
5.83294
6.25422
6.53997
6.6839
5.72048
6.38198
6.84144
7.23642
7.55059
7.79578
7.98331
8.11838
8.2053
8.24771
8.32209
8.54557
8.71584
8.85561
8.97142
9.06462
9.13662
9.18873
9.22235
9.23882
9.37707
9.44735
9.50793
9.55643
9.59415
9.62341
9.64565
9.66163
9.67196
9.677
9.9859
9.9596
9.86594
9.69844
9.16938
2.46013
1.76156
9.27369
9.82473
9.67277
9.98593
9.96019
9.8714
9.698
9.05063
3.46723
6.94437
9.04484
9.51244
9.70421
9.9854
9.95938
9.87278
9.6388
8.66802
5.37091
6.80809
8.36466
9.21119
9.62425
9.98384
9.95587
9.86512
9.549
8.14707
5.8227
6.8396
7.94361
8.8031
9.43133
9.98097
9.94922
9.84803
9.46239
7.86816
6.2563
6.97351
7.61994
8.2689
9.05626
9.97642
9.93874
9.82127
9.37313
7.78787
6.66343
7.15359
7.47654
7.7663
8.43981
9.96947
9.92304
9.78254
9.27144
7.74757
6.89193
7.22947
7.35279
7.33322
7.60709
9.95896
9.89981
9.72732
9.14239
7.65316
6.92756
7.16098
7.14887
6.89522
6.69997
9.94296
9.86554
9.64962
8.97468
7.46762
6.77667
6.94405
6.88445
6.55198
6.07176
9.91828
9.81419
9.53945
8.75857
7.19575
6.47956
6.65695
6.73732
6.5926
6.14114
9.88017
9.73674
9.38269
8.48708
6.90194
6.11366
6.314
6.52997
6.55372
6.35218
9.82102
9.62242
9.16831
8.17476
6.68256
5.961
6.04839
6.18602
5.9866
5.69615
9.72335
9.44815
8.87987
7.81051
6.51138
5.91347
5.93469
5.93382
5.65161
5.3625
9.54716
9.16587
8.4807
7.41377
6.37708
5.91978
5.83205
5.70672
5.3137
4.95767
9.19965
8.68
7.91207
6.98511
6.28877
5.96576
5.8015
5.56156
5.08648
4.65318
8.45858
7.81599
7.1279
6.57183
6.25235
6.03599
5.79854
5.4639
4.91369
4.42088
6.83971
6.3617
6.2095
6.26645
6.26747
6.10439
5.80068
5.39105
4.7933
4.25728
3.87549
4.52722
5.38556
6.02265
6.2148
6.07593
5.74151
5.30034
4.69124
4.13823
1.54695
3.45168
4.78605
5.70569
5.99879
5.90674
5.59838
5.18062
4.5988
4.05372
1.83604
3.22676
4.72624
5.68355
5.98442
5.89722
5.59036
5.17338
4.59646
4.04778
3.92566
0.626628
0.0404249
0.0130106
0.0115116
0.0108971
0.0104282
0.0101578
0.0100461
0.0100035
3.67921
0.315349
0.0291775
0.0137708
0.0121465
0.0111537
0.0105126
0.010186
0.0100572
0.0100051
3.2825
0.254351
0.0383665
0.0152509
0.0124291
0.0111987
0.0105225
0.0101978
0.0100689
0.0100078
2.79791
0.225987
0.0420924
0.0167102
0.0128465
0.011308
0.0105614
0.0102204
0.0100853
0.0100116
2.45821
0.238993
0.0448433
0.0182285
0.0132838
0.0114297
0.0106088
0.0102485
0.0101057
0.0100164
2.20876
0.246892
0.0496859
0.0200436
0.0137944
0.0115777
0.0106679
0.0102828
0.0101304
0.0100224
2.04889
0.270946
0.0545619
0.0221712
0.0143741
0.0117536
0.0107391
0.0103232
0.0101591
0.0100293
1.97906
0.307742
0.0608049
0.0245169
0.0150226
0.0119582
0.0108224
0.0103694
0.0101915
0.0100372
1.97259
0.333505
0.068915
0.027036
0.0157413
0.0121912
0.0109172
0.0104208
0.0102268
0.0100457
2.01098
0.363002
0.0789446
0.0297827
0.0165376
0.0124523
0.0110224
0.0104761
0.010264
0.0100546
8.69769
6.89434
6.24923
6.12187
6.24134
6.4047
6.54671
6.65081
6.71755
6.74415
8.06783
6.22156
5.69772
5.63716
5.72816
5.84768
5.95265
6.03105
6.08231
6.10455
6.0241
4.63411
4.25296
4.35786
4.4965
4.6272
4.73164
4.80704
4.85545
4.88378
3.1232
0.81539
0.674711
1.0048
1.24651
1.41642
1.53479
1.61525
1.66394
1.69663
4.07469
0.642439
0.0282037
0.0229346
0.0387865
0.0512196
0.0579427
0.0608775
0.0618838
0.0602044
9.99194
9.99055
9.98777
9.98179
9.97056
9.95012
9.91336
9.8468
9.72603
9.53186
9.99108
9.98804
9.98293
9.97253
9.95228
9.91395
9.84423
9.72356
9.52489
9.1733
9.98465
9.98154
9.97259
9.95263
9.91081
9.82842
9.67764
9.42098
8.99994
8.09987
9.97164
9.96379
9.94321
9.89924
9.80742
9.62815
9.30666
8.77702
7.93543
6.08381
9.94779
9.91763
9.85674
9.73604
9.51802
9.13541
8.49444
7.55787
6.37321
4.89488
6.35697
6.55469
6.53013
6.318
6.11261
6.89091
8.47892
9.38094
9.7371
9.88106
5.69629
5.98694
6.18727
6.05318
5.96498
6.67672
8.16757
9.16671
9.62315
9.82246
5.36853
5.65865
5.94116
5.94491
5.92392
6.51246
7.80602
8.87881
9.4494
9.72555
4.97082
5.32763
5.72079
5.848
5.93526
6.38499
7.41307
8.48018
9.16747
9.55034
4.67112
5.10432
5.57962
5.82082
5.98475
6.30235
6.98933
7.91217
8.68133
9.20382
4.44117
4.93297
5.48264
5.81821
6.05589
6.26997
6.58235
7.12988
7.81541
8.46217
4.27719
4.81184
5.40868
5.81864
6.12295
6.2864
6.28301
6.21706
6.35747
6.83473
4.15505
4.70691
5.31505
5.75599
6.09079
6.23118
6.04072
5.40094
4.52761
3.85338
4.06682
4.61141
5.1929
5.61041
5.91923
6.01317
5.72363
4.8059
3.46625
1.52357
4.0578
4.60716
5.18528
5.60344
5.91215
6.00241
5.70569
4.75224
3.26253
1.91726
9.67023
9.82156
9.29324
1.90926
2.45285
9.17407
9.69886
9.86623
9.95968
9.98592
9.70349
9.50472
9.03128
6.99387
3.53483
9.04734
9.69714
9.87177
9.96034
9.98599
9.6236
9.20713
8.35557
6.81422
5.38789
8.65027
9.63589
9.87282
9.9595
9.98548
9.42981
8.79802
7.93624
6.83838
5.81433
8.12373
9.54512
9.86488
9.95595
9.98393
9.05416
8.2643
7.61451
6.97268
6.25286
7.84812
9.45792
9.8476
9.94929
9.98108
8.43819
7.76311
7.4726
7.1534
6.66315
7.77266
9.36822
9.82069
9.9388
9.97657
7.60622
7.32885
7.34774
7.22843
6.89218
7.73536
9.26604
9.7818
9.92312
9.96968
6.69961
6.89002
7.14159
7.15757
6.92605
7.64146
9.13635
9.72638
9.89991
9.95924
6.07555
6.55382
6.88177
6.94121
6.77319
7.45623
8.96792
9.6485
9.8657
9.94336
6.14772
6.59745
6.74383
6.66052
6.47949
7.18393
8.75124
9.53806
9.81442
9.91887
0.589484
0.265375
0.0664653
0.0122775
0.0123492
0.0127769
0.0141963
0.0420859
0.62197
3.91705
0.457516
0.233677
0.0564413
0.0120435
0.0125142
0.0135643
0.0152155
0.0315307
0.315579
3.67487
0.414493
0.205704
0.0467817
0.0115902
0.0121874
0.0137016
0.0168756
0.0411385
0.258949
3.28645
0.390657
0.185159
0.0386028
0.0111333
0.0118784
0.013851
0.0183265
0.0451783
0.232626
2.81192
0.371868
0.171063
0.0322485
0.0107472
0.0115532
0.0138813
0.0196645
0.0484676
0.246348
2.48094
0.356197
0.161481
0.0274312
0.010453
0.0112637
0.0138757
0.0209668
0.0524668
0.252077
2.23334
0.343097
0.155026
0.0238512
0.0102491
0.0110289
0.0138674
0.022369
0.0561299
0.275641
2.07216
0.33218
0.150872
0.0212355
0.0101244
0.0108608
0.0138966
0.0238038
0.0610387
0.310231
1.99803
0.323226
0.148511
0.0193562
0.0100612
0.0107669
0.0140096
0.0253265
0.0674197
0.332766
1.98557
0.316144
0.147634
0.0180305
0.0100405
0.0107537
0.0142568
0.0270843
0.0756974
0.359713
2.01809
9.23792
8.65289
7.09609
6.89942
6.58177
6.34858
6.18737
6.2935
6.92299
8.70808
7.73207
7.08197
6.35073
6.18011
5.9739
5.80373
5.68265
5.72776
6.23464
8.06888
4.68231
5.4051
5.00738
4.87684
4.72635
4.55793
4.39518
4.27528
4.63486
5.99984
1.88582
1.39589
1.71207
1.46834
1.45082
1.27437
1.01917
0.673938
0.793028
3.09398
0.967602
0.234475
0.0713974
0.0371064
0.0460438
0.0372132
0.0221981
0.0262443
0.622395
4.05521
9.53309
9.7268
9.84727
9.91361
9.95023
9.9706
9.98181
9.98778
9.99056
9.99191
9.17054
9.52391
9.72316
9.84403
9.91385
9.95223
9.97251
9.98292
9.98802
9.99103
8.08819
8.99591
9.419
9.67651
9.82785
9.91055
9.95253
9.97254
9.98149
9.98465
6.07116
7.92633
8.77215
9.30387
9.62661
9.80675
9.89895
9.94308
9.9637
9.97168
4.90264
6.37008
7.56014
8.49369
9.13382
9.51684
9.73534
9.85634
9.91753
9.94748
)
;

boundaryField
{
    left
    {
        type            calculated;
        value           nonuniform List<scalar> 
35
(
3.13508
3.03839
2.98517
2.98498
3.04169
3.26109
3.96354
5.53853
7.87892
9.40957
3.31285
3.30939
3.31485
3.32856
3.34889
3.37159
3.38715
3.38452
3.34418
3.26658
4.02494
3.78319
3.67295
3.59508
3.52793
3.46932
3.41962
3.37903
3.34765
3.32558
9.59126
8.90905
7.68759
6.04315
4.69575
)
;
    }
    right
    {
        type            calculated;
        value           nonuniform List<scalar> 
35
(
6.74412
6.10367
4.88136
1.69206
0.0591968
0.0100015
0.0100022
0.0100033
0.0100049
0.0100068
0.0100092
0.010012
0.0100152
0.0100186
0.0100222
0.0100258
0.0100292
0.0100322
0.0100347
0.0100365
0.0100375
0.0100376
0.0100369
0.0100353
0.0100339
0.0100308
0.0100252
0.0100194
0.0100137
0.0100088
0.0100024
0.0246296
1.76994
5.44006
6.83744
)
;
    }
    down
    {
        type            calculated;
        value           nonuniform List<scalar> 
40
(
9.3823
8.92595
7.32238
7.13893
6.80003
6.5571
6.38943
6.50691
7.12439
8.83038
9.59228
9.76194
9.86782
9.92461
9.95588
9.97346
9.98332
9.98875
9.99151
9.99339
9.99343
9.99151
9.98874
9.9833
9.9734
9.95574
9.9243
9.86722
9.76087
9.59043
8.81772
7.09135
6.45944
6.32009
6.44414
6.61427
6.76143
6.86857
6.93754
6.95656
)
;
    }
    up
    {
        type            calculated;
        value           nonuniform List<scalar> 
40
(
9.38027
9.0313
8.65161
8.2594
7.91359
7.63855
7.43652
7.29835
7.21381
7.16736
9.74193
9.73827
9.73097
9.71981
9.70437
9.68412
9.65784
9.6233
9.57886
9.52694
9.52824
9.58007
9.62444
9.65899
9.68518
9.70529
9.72055
9.7315
9.73859
9.74204
9.15828
8.75903
7.68826
7.60542
7.69255
7.93138
8.26732
8.65787
9.03621
9.38356
)
;
    }
    cylinder
    {
        type            calculated;
        value           nonuniform List<scalar> 
80
(
4.61121
7.03929
8.53689
9.24367
9.57311
9.73721
9.82542
9.87614
9.90734
9.92819
9.94325
9.95405
9.96158
9.96692
9.97071
9.97338
9.97523
9.97645
9.9772
9.97756
9.94399
9.95462
9.96204
9.96728
9.97099
9.9736
9.97539
9.97657
9.97727
9.97758
4.69115
7.11242
8.57458
9.26206
9.58259
9.74252
9.82865
9.87824
9.90876
9.92917
9.89933
9.8488
9.7644
9.60922
9.29506
8.60242
7.03585
4.08727
1.63967
2.93859
9.98866
9.98873
9.98832
9.98703
9.98466
9.98088
9.97509
9.96627
9.95277
9.9318
9.98863
9.98867
9.98825
9.98695
9.98455
9.98073
9.97489
9.96599
9.95236
9.9312
9.89839
9.8473
9.76207
9.60577
9.29021
8.59717
7.03733
4.10578
1.67993
2.80422
)
;
    }
    defaultFaces
    {
        type            empty;
    }
}


// ************************************************************************* //
