# Selection   : all
# Cells       : 440
# Volume      : 7.374263e+01
# Time        	minMag(U)
5.515         	1.535607e-02
5.56          	1.153956e-02
5.61          	8.734784e-03
