/*--------------------------------*- C++ -*----------------------------------*\
  =========                 |
  \\      /  F ield         | OpenFOAM: The Open Source CFD Toolbox
   \\    /   O peration     | Website:  https://openfoam.org
    \\  /    A nd           | Version:  13
     \\/     M anipulation  |
\*---------------------------------------------------------------------------*/
FoamFile
{
    format      ascii;
    class       volScalarField;
    location    "63";
    object      p;
}
// * * * * * * * * * * * * * * * * * * * * * * * * * * * * * * * * * * * * * //

dimensions      [0 2 -2 0 0 0 0];

internalField   nonuniform List<scalar> 
440
(
-0.967251
-0.950097
-0.940521
-0.903288
-0.950204
-1.04375
-1.024
-0.999144
-0.968788
-0.942072
-1.16661
-1.13115
-1.0861
-1.02805
-0.964042
-1.30857
-1.25813
-1.16034
-1.04378
-0.926322
-1.4032
-1.33304
-1.17284
-1.00685
-0.855647
-1.05836
-1.09095
-1.1515
-1.20307
-1.23231
-1.09482
-1.10236
-1.12295
-1.15065
-1.15725
-1.07599
-1.06542
-1.06094
-1.06936
-1.08099
-1.01586
-0.997255
-0.972776
-0.951455
-0.946375
-0.937822
-0.923072
-0.896067
-0.851803
-0.849903
-1.34182
-0.596918
0.158221
0.0780669
0.0156591
-1.2374
-0.906843
0.0506785
-0.0294085
0.0187174
-1.27536
-1.15824
-0.0343975
-0.0700593
0.0221431
-1.13878
-1.2039
-0.0894505
-0.0366028
0.0290572
-0.941505
-1.12948
-0.114159
0.00508291
0.0314583
-0.652215
-0.897593
-0.102195
0.0175843
0.0261428
-0.397685
-0.536031
-0.0877435
-0.0657823
-0.00499794
-0.303769
-0.325175
-0.0856236
0.101558
0.00933318
-0.215427
-0.201317
-0.0976014
0.045271
-0.000565621
-0.0931816
-0.213722
-0.113214
0.0829277
0.0103412
-0.601469
-0.70951
-0.840434
-0.984062
-1.08967
-0.353803
-0.463999
-0.534615
-0.574912
-0.582235
-0.186146
-0.279204
-0.335852
-0.365802
-0.385987
-0.0777916
-0.161122
-0.217632
-0.246218
-0.26018
-0.024974
-0.106187
-0.156582
-0.174299
-0.163339
0.701531
0.547252
0.35085
0.134167
-0.097978
0.283213
0.121902
-0.0744731
-0.297046
-0.54774
-0.119582
-0.284171
-0.492024
-0.723979
-0.960569
-0.470627
-0.639086
-0.849371
-1.07577
-1.25918
-0.708409
-0.879382
-1.07594
-1.2813
-1.4012
1.74938
1.77905
1.80484
1.81629
1.81064
1.56042
1.5802
1.59351
1.58915
1.56353
1.3512
1.33828
1.30159
1.24178
1.15633
1.11363
1.07875
1.00736
0.905723
0.77669
0.90717
0.800768
0.662308
0.504315
0.315625
1.53548
1.52898
1.50228
1.57471
1.63589
1.52616
1.51874
1.4839
1.55743
1.54708
1.518
1.50559
1.46293
1.52892
1.42938
1.51108
1.48992
1.441
1.48387
1.26227
1.50525
1.47452
1.41861
1.43925
1.08141
1.50165
1.44927
1.39096
1.33968
0.875174
1.5006
1.41984
1.39006
1.2118
1.00853
1.50655
1.40496
1.38618
1.14575
1.06032
1.50727
1.37972
1.37785
1.08377
1.08707
1.54122
1.37748
1.37531
1.04387
1.13242
0.669747
0.363426
0.028387
-0.266145
-0.448005
0.561033
0.347712
0.125657
-0.0674536
-0.230652
0.541674
0.372771
0.210692
0.0649896
-0.0749349
0.604322
0.445669
0.29581
0.158473
0.0301971
0.654032
0.489762
0.339531
0.203739
0.079821
-1.65541
-1.51559
-1.34823
-1.21
-1.12648
-1.75927
-1.68537
-1.54844
-1.43071
-1.35118
-1.71508
-1.66147
-1.56865
-1.47832
-1.40402
-1.59811
-1.55411
-1.49501
-1.42952
-1.36116
-1.47809
-1.45823
-1.42565
-1.38157
-1.3277
-1.4521
-1.44609
-1.42247
-1.40784
-1.31661
-1.39473
-1.38856
-1.37265
-1.3671
-1.31426
-1.44969
-1.45315
-1.45763
-1.46049
-1.44423
-1.4887
-1.54011
-1.64741
-1.71851
-1.78749
-1.10002
-1.20553
-1.32567
-1.42881
-1.50304
-1.07664
-0.0159307
0.267985
0.281892
-0.013635
-1.09549
0.0134066
0.340256
0.289806
-0.0169237
-1.19287
0.00196709
0.348264
0.263453
-0.00870874
-1.51852
-0.05584
0.275745
0.194035
-0.000340556
-1.57659
-0.29342
0.213215
0.128052
0.00744896
-0.628905
-0.210361
0.170218
0.259988
0.000561276
-0.907217
-0.103708
0.247521
0.288708
0.000800757
-1.07673
-1.30519
-1.32345
-1.25997
-1.02375
-1.09658
-1.31261
-1.34809
-1.28123
-1.21858
1.38992
1.36916
1.33182
1.27903
1.20918
1.58232
1.6018
1.6078
1.59837
1.57351
1.74299
1.77549
1.8022
1.81769
1.8191
1.83693
1.8753
1.9159
1.94883
1.96392
1.83379
1.86939
1.90871
1.94099
1.95542
-0.68568
-0.787323
-0.944776
-1.1353
-1.34946
-0.10447
-0.231865
-0.402529
-0.607683
-0.858848
0.421946
0.288516
0.129173
-0.0577109
-0.285233
0.843327
0.740348
0.61538
0.46492
0.285437
1.18062
1.10934
1.01769
0.908421
0.780677
1.59559
1.5551
1.5356
1.54017
1.53989
1.58058
1.55269
1.53563
1.55636
1.60534
1.56793
1.54913
1.53425
1.57814
1.67764
1.55623
1.54425
1.52789
1.58672
1.69094
1.54535
1.53794
1.51673
1.58588
1.68112
1.65167
1.56118
1.523
1.46343
1.40211
1.60592
1.55167
1.51794
1.48192
1.42329
1.07048
0.852069
0.477278
-0.0635683
-0.654006
1.1466
0.882768
0.494296
-0.0431824
-0.646958
)
;

boundaryField
{
    left
    {
        type            zeroGradient;
    }
    right
    {
        type            fixedValue;
        value           uniform 0;
    }
    down
    {
        type            zeroGradient;
    }
    up
    {
        type            zeroGradient;
    }
    cylinder
    {
        type            zeroGradient;
    }
    defaultFaces
    {
        type            empty;
    }
}


// ************************************************************************* //
