/*--------------------------------*- C++ -*----------------------------------*\
  =========                 |
  \\      /  F ield         | OpenFOAM: The Open Source CFD Toolbox
   \\    /   O peration     | Website:  https://openfoam.org
    \\  /    A nd           | Version:  13
     \\/     M anipulation  |
\*---------------------------------------------------------------------------*/
FoamFile
{
    format      ascii;
    class       surfaceScalarField;
    location    "63";
    object      phi;
}
// * * * * * * * * * * * * * * * * * * * * * * * * * * * * * * * * * * * * * //

dimensions      [0 3 -1 0 0 0 0];

internalField   nonuniform List<scalar> 
823
(
-0.00554031
0.0179117
-0.0123714
0.0109676
0.00660714
-0.0231151
0.0742498
-0.0447803
-0.0185019
0.175587
-0.111592
0.0102543
-0.153631
0.0060009
0.323217
0.00681608
0.0110957
0.0605084
-0.0470852
0.161552
-0.145824
0.280413
-0.230453
-0.304545
0.431327
0.0262784
-0.0151828
0.119243
-0.140049
0.233128
-0.259709
0.338092
-0.335417
-0.375454
0.409001
0.0485345
-0.0637173
0.146647
-0.238162
0.226349
-0.339411
0.270917
-0.379985
-0.390752
0.286216
0.0599453
-0.123663
0.1281
-0.306316
0.164402
-0.375713
0.177766
-0.39335
0.186201
-0.399188
-0.0353284
0.0655414
-0.030213
-0.100065
0.116391
-0.0516547
-0.162672
0.118666
-0.056059
-0.214337
0.112678
-0.0610128
0.107527
-0.251501
-0.070363
0.0210034
0.044538
0.0298342
0.10756
0.018111
0.130389
0.00075695
0.130032
0.119138
-0.0108543
0.0291232
0.0154148
0.0757545
0.0609287
0.114478
0.0916663
0.141615
0.102894
0.103251
0.157503
0.0112847
0.00413001
0.0448984
0.0273151
0.0888052
0.0477594
0.139052
0.0526474
0.0607333
0.18157
-0.00824142
-0.00404141
0.0252161
0.0881178
0.154852
0.17337
0.734536
-1.15941
0.601125
-1.38705
0.959297
0.584633
-1.32321
1.3397
0.534199
0.412186
-0.361752
0.279874
-0.224767
0.207599
0.516084
0.454556
-1.63401
0.561133
-1.42979
0.545169
0.42815
0.326717
0.275973
0.397613
0.368652
-1.72669
0.467521
-1.52866
0.521388
0.374283
0.351876
0.437919
0.141263
0.45941
-1.74818
0.437249
-1.5065
0.474563
0.33697
0.339106
0.523202
-0.227087
0.510261
-1.73524
0.387885
-1.38412
0.393135
0.331721
0.243849
1.46864
-0.476545
-1.21918
1.2912
-1.55779
0.765034
-0.857955
0.663636
0.433119
0.0660644
1.47336
-0.550693
-1.39921
1.00063
-1.08506
0.511801
-0.369131
0.691099
0.253821
-0.138005
1.32669
-0.526697
-1.35069
0.882967
-0.641334
0.587578
-0.0737426
0.849625
-0.00822555
-0.217727
1.13425
-0.346018
-1.31493
0.713956
-0.221043
0.646568
-0.00635494
0.766905
-0.128562
-0.12175
0.518292
-0.86431
0.297248
0.290893
0.162331
1.10417
0.147601
-1.06557
1.17846
0.211928
1.28678
0.300677
1.32955
0.388557
0.433584
1.00535
0.0948629
-0.952609
1.07976
0.137517
1.17167
0.208766
1.28785
0.272377
0.322222
0.960689
0.0487486
-0.914575
1.0194
0.07881
1.10464
0.123525
1.21957
0.157442
0.191104
0.936655
0.00970822
-0.897615
0.992433
0.0230323
1.07687
0.0390835
1.18448
0.0498315
0.0606627
0.6917
-0.681992
0.714732
0.753816
0.803647
0.140212
0.299752
-0.24536
-0.194604
0.0941912
0.305124
-0.259104
0.0532786
0.315672
-0.27476
0.0186138
0.306571
-0.271906
0.196566
-0.177952
0.101767
0.335663
-0.137678
0.0655265
0.341365
0.0333543
0.347845
0.00799172
0.331934
0.204557
0.069464
0.37189
-0.105691
0.0371778
0.373651
0.00965723
0.375365
-0.00555594
0.347147
0.199001
-0.00809586
0.387831
-0.00784487
-0.0254537
0.391009
-0.0341516
0.384063
-0.0266814
0.339677
0.17232
-0.0880275
0.076671
-0.090368
-0.082018
-0.0486575
0.199676
0.106589
-0.253342
-0.0529224
0.145444
0.110581
-0.0563492
0.0900493
0.115093
-0.059698
0.0365337
0.114409
-0.0608928
0.0800902
-0.0435565
0.193458
0.149975
-0.236844
0.146909
0.15713
0.095224
0.166778
0.0404555
0.169177
0.120546
0.136641
0.194294
-0.18096
0.096046
0.197725
0.0570123
0.205811
0.0205168
0.205672
0.141063
0.151832
0.226233
-0.183772
0.113401
0.236156
0.0699786
0.249234
0.0273271
0.248324
0.16839
0.0816186
-0.100745
0.0586705
0.0331446
0.00956231
0.407962
0.0432253
-0.0552079
0.426746
0.0391384
-0.0579222
0.408893
0.207813
-0.18996
0.397661
0.20285
-0.191618
0.486779
-0.34246
0.406361
0.0328444
0.419341
0.0261583
0.398372
0.228782
0.386331
0.214891
0.636266
0.400202
0.0286216
0.41248
0.0138809
0.374865
0.266396
0.372626
0.21713
0.827933
0.397352
0.0272496
0.393789
0.017444
0.363877
0.296308
0.355069
0.225937
0.999231
0.38809
0.0351394
0.378989
0.0265448
0.336454
0.338844
0.32422
0.238171
1.22271
0.622007
0.0171533
0.630715
0.0178365
0.685637
0.283921
0.791076
0.132732
1.03009
0.983692
0.632197
-0.0110237
0.613218
0.0368158
0.725833
0.171306
0.801458
0.0571069
0.794397
1.03715
0.627609
-0.034612
0.638707
0.0257179
0.761576
0.048437
0.801347
0.0173356
0.574464
1.02128
0.621678
-0.0522698
0.672356
-0.02496
0.738954
-0.0181609
0.740066
0.0162231
0.299038
1.01549
0.551751
0.526791
0.50863
0.524853
0.823891
1.02521
-0.236126
1.01442
-0.126886
1.02519
-0.116462
1.01965
-0.00230061
0.0307509
0.981936
-0.180912
0.956518
-0.101468
0.929304
-0.0892473
0.93478
-0.00777677
0.0129221
0.948001
-0.107633
0.92134
-0.0748072
0.893161
-0.0610684
0.903653
-0.0182692
0.00200025
0.952057
-0.0441962
0.915118
-0.037869
0.886931
-0.0328809
0.887335
-0.0186732
-0.00827948
0.779694
0.741825
0.708944
0.690271
0.0466681
0.156728
-0.203396
0.069534
0.332139
-0.355005
0.069559
0.383733
-0.383758
0.0604579
0.384143
-0.375042
0.351552
0.0484152
-0.339509
0.0694809
0.0872473
0.13699
0.264631
0.168395
0.352328
0.172496
0.380042
0.367131
0.156916
0.0602843
0.026963
0.167903
0.157012
0.253141
0.267089
0.306099
0.327084
0.367085
0.306146
0.0297519
-0.00278894
0.128625
0.058139
0.245008
0.150706
0.354555
0.217538
0.290451
0.431188
0.00775688
-0.0105458
0.061376
0.0045199
0.157878
0.054204
0.270218
0.105197
0.167551
0.393118
-8.11479e-05
-0.0104647
0.0136488
-0.00921007
0.0578463
0.0100066
0.124826
0.0382177
0.0864402
0.205936
0.000250015
-0.0107147
0.00389051
-0.0128506
0.0132589
0.000638156
0.0288979
0.0225788
0.0546536
0.0606844
0.0233917
-0.0341064
0.0472153
-0.0366742
0.0569269
-0.00907338
0.059463
0.0200426
0.047833
0.0662837
0.00512758
-0.0392339
0.000614077
-0.0321607
-0.0106612
0.00220191
-0.0162064
0.0255878
0.045263
-0.0136365
-0.069447
-0.153262
-0.207119
-0.242544
-0.267644
0.123293
1.20652
-1.12388
0.257937
-0.099423
-0.0352212
0.352248
-0.0730216
-0.0212897
0.243138
0.209708
-0.100597
-0.0617563
0.0978674
0.00220905
1.265
0.165802
-0.263016
0.446151
-0.353371
0.350886
0.304972
-0.000802988
-0.142632
1.47391
0.052849
-0.458497
0.537344
-0.837866
0.455404
0.386912
0.0806103
-0.0899577
1.55023
0.111205
-0.659659
0.523765
-1.25043
0.517544
0.393133
0.159979
0.123183
0.422821
0.512099
0.543479
-0.111019
0.632401
-0.521382
-0.0543787
-0.0566405
0.022169
-0.0765477
0.0709716
-0.0488026
-0.0839325
0.555627
-1.0471
0.463765
0.365928
0.216528
0.0856224
-0.0122287
-0.0733937
0.136322
-0.0506998
0.228866
-0.0925433
0.36444
-0.135575
-0.156941
0.195495
-0.159308
0.301711
0.515314
0.810928
0.140579
-0.138864
0.168985
-0.1707
0.106909
-0.144622
0.178292
0.0685831
-0.152253
0.190579
0.0277352
-0.152687
0.193535
-0.107987
0.135722
0.180714
-0.0993095
-0.220268
0.136652
-0.10056
0.0871307
-0.102732
0.0361093
-0.101666
-0.071878
0.190123
-0.0500543
-0.239379
0.139362
-0.0497979
0.0869777
-0.050348
0.0354707
-0.0501589
-0.0364072
0.202244
0.00166636
-0.253965
0.149753
0.00269307
0.0956478
0.00375764
0.0404366
0.00505228
0.00402935
0.204964
-0.25622
0.151308
0.0953677
0.0395272
0.0417028
-0.319572
-0.0616392
0.0166623
-0.350001
-0.00558498
-0.361511
-0.015044
-0.345546
-0.21844
0.122256
-0.288521
-0.153308
0.080345
-0.30809
0.0392148
-0.320381
0.00815354
-0.314485
-0.210287
0.140761
-0.24895
-0.180331
0.0989273
-0.266256
0.0577778
-0.279231
0.020502
-0.277209
-0.189785
0.158491
-0.214044
-0.193398
0.116219
-0.223984
0.0709166
-0.233929
0.0279108
-0.234203
-0.161874
0.155861
-0.200921
0.11017
0.0668195
0.0261515
0.392493
0.0957091
-0.0922226
0.390739
0.103822
-0.102068
0.356538
0.16142
-0.127219
0.299044
0.0613848
-0.0038901
-0.199253
0.327597
0.400179
0.0915096
0.406137
0.0978639
0.395325
0.172232
0.34815
0.10856
-0.0713716
0.405133
0.0823566
0.416042
0.0869547
0.41011
0.178164
0.373288
0.145382
0.0625379
0.408868
0.0694682
0.422416
0.073407
0.418368
0.182211
0.392121
0.171629
0.200694
0.41024
0.425725
0.417975
0.397986
0.416067
0.093984
0.329334
0.0867333
0.240495
0.088839
0.244774
-0.00427981
-0.180242
0.425017
0.511812
0.496478
0.458098
0.449928
0.597282
0.341929
0.0830882
0.267013
0.0749151
0.178463
0.0885502
0.103782
0.0746813
0.0303883
0.47945
0.360967
0.269186
0.190559
)
;

boundaryField
{
    left
    {
        type            calculated;
        value           nonuniform List<scalar> 
17
(
-0.60402
-0.60402
-0.60402
-0.60402
-0.60402
-0.39598
-0.39598
-0.39598
-0.39598
-0.39598
-0.39598
-0.39598
-0.39598
-0.39598
-0.39598
-0.510051
-0.510051
)
;
    }
    right
    {
        type            calculated;
        value           nonuniform List<scalar> 
17
(
0.154904
0.230463
0.207027
0.289933
0.373991
0.438176
0.478691
0.479092
0.498326
0.496229
0.487333
0.488392
0.841421
0.895168
0.929347
0.670928
0.0405811
)
;
    }
    down
    {
        type            calculated;
        value           uniform 0;
    }
    up
    {
        type            calculated;
        value           uniform 0;
    }
    cylinder
    {
        type            calculated;
        value           uniform 0;
    }
    defaultFaces
    {
        type            empty;
    }
}


// ************************************************************************* //
