/*--------------------------------*- C++ -*----------------------------------*\
  =========                 |
  \\      /  F ield         | OpenFOAM: The Open Source CFD Toolbox
   \\    /   O peration     | Website:  https://openfoam.org
    \\  /    A nd           | Version:  13
     \\/     M anipulation  |
\*---------------------------------------------------------------------------*/
FoamFile
{
    format      ascii;
    class       volScalarField;
    location    "0.66";
    object      p;
}
// * * * * * * * * * * * * * * * * * * * * * * * * * * * * * * * * * * * * * //

dimensions      [0 2 -2 0 0 0 0];

internalField   nonuniform List<scalar> 
1800
(
5.74603
7.85313
10.0059
11.4344
12.2687
12.6793
12.8103
12.6528
11.4066
7.31444
9.59569
12.0714
14.5763
16.2603
17.3169
17.9797
18.4343
18.6734
17.9489
15.2711
15.9881
18.6128
21.2855
23.1488
24.409
25.2908
25.9416
26.3249
25.8537
24.0227
24.9833
27.5527
30.2011
32.1156
33.4809
34.49
35.2524
35.7044
35.2983
33.6136
36.0419
38.4028
40.8551
42.6666
43.991
44.9872
45.7418
46.1911
45.8409
44.2853
48.7189
50.7714
52.9151
54.5214
55.7123
56.6146
57.2968
57.7074
57.4263
56.0669
62.6673
64.3401
66.0959
67.4278
68.4299
69.1995
69.7909
70.1679
69.9928
68.9041
77.5932
78.8348
80.1458
81.1552
81.9311
82.5449
83.0391
83.3939
83.3605
82.6241
93.2114
93.991
94.8226
95.4775
96.0003
96.4378
96.8205
97.1439
97.2541
96.9197
109.24
109.545
109.877
110.151
110.389
110.61
110.827
111.041
111.202
111.229
-0.605248
-0.857846
-0.63508
-0.220383
0.252184
0.720025
1.07969
1.29069
1.43574
1.58237
-0.480772
-0.99616
-1.10564
-0.899421
-0.475401
-0.0512829
0.241603
0.484176
0.764242
1.03771
0.518861
-0.448478
-1.2804
-1.446
-1.11904
-0.813085
-0.599323
-0.293987
0.113289
0.499157
0.911836
-0.229471
-1.42721
-1.76569
-1.54554
-1.3918
-1.26659
-0.961384
-0.504431
0.00343397
0.480841
-0.487124
-1.42736
-1.71858
-1.66151
-1.67215
-1.63561
-1.3739
-0.882722
-0.188555
-0.222327
-0.739274
-1.13979
-1.26939
-1.29013
-1.35555
-1.34805
-1.13976
-0.615351
0.317014
-0.557257
-0.519551
-0.343136
-0.197212
-0.11276
-0.0924446
-0.0542623
0.115347
0.692939
1.92293
-0.0736088
0.512682
1.23359
1.73796
2.06742
2.28052
2.42982
2.64629
3.37674
5.03886
1.37374
2.48168
3.73008
4.65152
5.32146
5.81372
6.15366
6.49274
7.47946
9.76684
3.61566
5.25854
7.07669
8.4526
9.4753
10.2355
10.7578
11.2107
12.2717
14.4348
2.30027
2.43943
2.33262
2.08794
1.58503
1.18236
0.857648
0.583583
0.351142
0.133199
1.95125
2.41628
2.22868
2.00474
1.50177
1.10323
0.80754
0.566826
0.353269
0.13864
1.4737
2.38705
2.12765
1.91282
1.42658
1.03653
0.762428
0.548846
0.351815
0.142231
0.849037
2.30469
2.02776
1.80693
1.35134
0.977383
0.723485
0.532418
0.345192
0.142542
0.154956
2.12889
1.91734
1.6848
1.27037
0.921786
0.689278
0.517565
0.339199
0.142531
-0.417761
1.85006
1.77902
1.54486
1.18018
0.867329
0.658451
0.503985
0.336986
0.143525
-0.567275
1.50171
1.59955
1.3846
1.0786
0.812267
0.630358
0.491854
0.338634
0.14514
0.161293
1.17248
1.3699
1.19513
0.961918
0.754399
0.604127
0.481832
0.338792
0.144733
2.41767
1.03617
1.06936
0.951862
0.821587
0.690807
0.578607
0.472395
0.331198
0.137015
6.65261
1.40514
0.712093
0.634481
0.649942
0.619922
0.55308
0.457884
0.316331
0.124488
9.97903
2.57586
0.688715
0.392838
0.472943
0.540591
0.518232
0.430561
0.290456
0.105932
11.7642
2.57152
0.265904
0.0574052
0.356406
0.505315
0.482456
0.386446
0.251204
0.0785245
12.8621
2.77681
0.394611
0.151255
0.468059
0.566037
0.482443
0.354723
0.212991
0.0497023
14.1828
4.36381
1.27911
0.725446
0.788029
0.714803
0.523495
0.339996
0.180196
0.0214481
16.3595
7.10808
2.70022
1.59054
1.24037
0.932992
0.606822
0.346812
0.157203
-0.00313947
19.2499
9.874
4.33406
2.55716
1.77144
1.20102
0.723933
0.37543
0.147079
-0.0211946
21.7543
11.9358
5.85202
3.51767
2.33815
1.4984
0.863528
0.422897
0.150862
-0.0306716
23.0334
13.1188
7.04909
4.41781
2.91205
1.81096
1.01709
0.485497
0.168219
-0.0304836
22.9733
13.4978
7.9097
5.26503
3.50145
2.14653
1.19086
0.567052
0.202771
-0.0188707
22.4204
13.7228
8.68102
6.12604
4.12768
2.5252
1.40698
0.684848
0.27329
0.00972919
111.785
97.8396
84.0749
71.0696
59.1302
48.3499
38.7684
30.0917
20.0804
4.97534
112.765
99.4773
85.9764
72.9699
60.9268
50.0459
40.5128
32.2546
23.5896
11.4763
113.297
100.212
87.3314
75.0051
63.4662
52.8743
43.4444
35.2556
27.4692
18.3351
114.509
102.769
90.8102
78.9794
67.6227
57.0274
47.3943
38.7938
31.087
23.8239
115.086
104.075
93.1546
82.4635
72.1165
62.192
52.7296
43.8191
36.0008
29.8219
115.436
104.709
94.2021
84.0403
74.3197
65.0903
56.3309
48.0895
41.0479
36.0309
115.667
105.108
94.7969
84.8647
75.4219
66.5414
58.2326
50.565
44.211
40.0916
115.768
105.246
94.98
85.1085
75.7543
67.0084
58.9046
51.5112
45.3944
41.4348
115.718
105.032
94.6055
84.5864
75.1072
66.2746
58.1445
50.775
44.5512
40.0984
115.594
104.647
93.9596
83.682
73.9566
64.9064
56.6116
49.1168
42.6078
37.413
234.122
229.759
228.192
227.75
227.659
227.91
228.645
230.026
232.177
234.316
225.559
222.541
221.492
221.452
221.678
222.163
223.094
224.701
227.172
229.649
216.046
213.871
213.099
213.223
213.654
214.358
215.483
217.252
219.866
222.464
205.74
203.712
203.008
203.204
203.748
204.577
205.801
207.61
210.179
212.698
194.416
192.507
191.852
192.04
192.572
193.384
194.56
196.255
198.609
200.9
182.05
180.325
179.731
179.873
180.326
181.037
182.073
183.551
185.58
187.545
168.704
167.241
166.747
166.85
167.206
167.779
168.618
169.811
171.438
173.009
154.57
153.453
153.098
153.176
153.431
153.844
154.451
155.313
156.484
157.612
139.961
139.247
139.04
139.089
139.234
139.469
139.82
140.321
141.003
141.659
125.436
125.092
124.952
124.905
124.892
124.914
124.981
125.1
125.278
125.453
246.55
246.788
247.04
247.258
247.556
248.056
248.608
248.944
248.95
248.437
246.625
246.956
247.359
247.664
247.865
248.199
248.623
248.539
247.723
246.704
246.637
247.033
247.478
247.789
247.872
248.003
248.284
247.924
246.536
245.281
246.517
247.019
247.449
247.68
247.613
247.499
247.534
247.111
245.817
244.658
246.025
246.68
247.069
247.175
246.997
246.72
246.543
246.183
245.374
244.584
244.818
245.661
245.997
245.962
245.731
245.446
245.25
245.079
244.839
244.552
242.472
243.569
243.907
243.791
243.581
243.417
243.382
243.514
243.821
244.06
238.588
240.074
240.543
240.477
240.393
240.444
240.682
241.177
241.99
242.729
233.114
235.169
235.877
235.945
236.071
236.417
237.004
237.909
239.214
240.426
227.76
229.625
230.37
230.537
230.844
231.461
232.402
233.754
235.601
237.309
246.941
246.72
246.682
246.489
246.42
246.301
245.925
245.669
245.569
245.715
246.9
246.719
246.677
246.492
246.419
246.309
245.934
245.653
245.378
245.737
246.873
246.715
246.669
246.487
246.411
246.31
245.936
245.6
245.143
245.822
246.854
246.708
246.656
246.475
246.397
246.307
245.926
245.51
244.926
246.009
246.842
246.698
246.64
246.456
246.378
246.294
245.901
245.402
244.792
246.247
246.836
246.686
246.621
246.432
246.353
246.268
245.865
245.309
244.767
246.355
246.834
246.672
246.601
246.406
246.324
246.231
245.829
245.258
244.813
246.022
246.837
246.654
246.58
246.376
246.29
246.189
245.812
245.261
244.834
244.784
246.846
246.632
246.555
246.344
246.254
246.158
245.843
245.336
244.655
242.008
246.863
246.608
246.527
246.309
246.221
246.156
245.945
245.461
243.976
237.292
246.901
246.582
246.486
246.254
246.158
246.085
245.873
245.131
242.442
233.741
247.016
246.563
246.448
246.204
246.103
246.125
246.071
245.333
242.177
231.798
247.258
246.569
246.412
246.127
246.026
246.088
246.065
245.238
241.885
230.534
247.71
246.624
246.382
246.043
245.888
245.821
245.617
244.536
240.481
229.316
248.548
246.69
246.406
245.951
245.676
245.312
244.744
243.228
238.01
227.461
250.383
246.757
246.513
245.88
245.385
244.649
243.656
241.568
235.374
224.914
254.263
247.069
246.667
245.82
245.03
243.935
242.558
239.955
233.31
222.584
262.568
248.207
246.941
245.777
244.657
243.246
241.556
238.666
232.071
221.328
280.128
250.942
247.592
245.811
244.303
242.594
240.648
237.734
231.628
221.357
306.099
254.988
249.097
246.024
244.012
241.973
239.763
236.918
231.357
221.885
236.417
221.067
210.445
201.13
190.969
179.665
167.27
153.898
139.852
125.722
230.028
217.734
208.582
199.86
189.923
178.685
166.338
153.087
139.364
125.89
223.495
214.13
205.951
197.424
187.709
176.869
165.116
152.616
139.598
126.42
218.381
210.873
202.881
194.031
184.189
173.423
161.931
149.988
137.925
126.091
212.984
206.59
198.597
189.503
179.833
169.696
159.145
148.278
137.222
126.129
207.385
202.089
194.829
186.359
177.36
167.905
157.985
147.663
137.042
126.255
203.59
199.15
192.561
184.664
176.131
167.045
157.424
147.349
136.938
126.328
202.309
198.05
191.705
184.092
175.779
166.843
157.324
147.32
136.961
126.392
203.635
198.92
192.47
184.885
176.553
167.537
157.9
147.754
137.239
126.507
206.309
200.874
194.137
186.426
177.931
168.699
158.816
148.412
137.636
126.643
112.187
112.357
112.441
112.292
111.785
111.425
111.24
111.525
111.517
111.268
89.6119
90.0752
90.2939
89.8603
88.4283
87.3419
86.721
87.3826
87.4203
86.8337
68.7688
69.3965
69.6579
68.9911
67.0517
65.34
64.3197
64.8685
65.1729
64.6177
50.651
51.2575
51.4472
50.6241
48.6449
46.4789
45.1489
45.1843
45.9227
45.6893
36.0058
36.4142
36.4645
35.5832
33.7913
31.4754
29.8316
29.2663
30.0739
30.2616
24.9535
25.057
24.9349
24.0118
22.4342
20.4048
18.614
17.6724
17.9274
18.4274
17.067
16.9166
16.7018
15.7109
14.2965
12.7931
11.3056
10.2406
9.90087
10.2674
11.5799
11.403
11.3545
10.3552
9.0363
8.03442
7.14273
6.29982
5.7114
5.62765
7.90584
7.8176
8.11364
7.24585
6.07985
5.48933
5.1604
4.77571
4.29178
3.91212
6.03715
5.8322
6.21769
5.47993
4.61058
4.33448
4.35839
4.34897
4.19639
3.80047
5.27027
5.03343
5.11581
4.42151
3.88924
3.83296
3.98263
4.1253
4.2464
4.3031
4.84341
4.73429
4.45693
3.79056
3.50458
3.59171
3.79476
3.96229
4.08204
4.16832
4.46514
4.4204
3.98864
3.43799
3.31777
3.4804
3.70499
3.88367
4.00164
4.06201
4.01097
3.95608
3.55
3.19846
3.20818
3.41121
3.62398
3.78123
3.8798
3.92113
3.46341
3.37022
3.09692
2.97695
3.09354
3.31021
3.50024
3.63782
3.7191
3.74284
2.81275
2.71851
2.65888
2.74894
2.94549
3.14985
3.31563
3.43506
3.50198
3.51539
2.08976
2.10621
2.2409
2.47535
2.71092
2.90938
3.06461
3.17829
3.24455
3.26
1.41681
1.53482
1.78604
2.07895
2.33481
2.5491
2.72487
2.86346
2.95093
2.97902
0.740479
0.875494
1.15032
1.47912
1.78873
2.06019
2.29745
2.48223
2.58709
2.62475
0.0682124
-0.0163954
0.218767
0.630224
1.05046
1.43241
1.75651
1.97171
2.07508
2.1383
3.6576
3.70086
3.57017
3.24409
2.59364
1.90612
1.31598
0.844775
0.456024
0.0963776
3.73027
3.67477
3.51968
3.22807
2.55421
1.85015
1.26378
0.806869
0.433607
0.0949656
3.75675
3.5688
3.40801
3.17398
2.51022
1.79736
1.21429
0.771247
0.413573
0.0952858
3.71774
3.39256
3.25533
3.07163
2.453
1.74604
1.16754
0.738044
0.396034
0.0968372
3.60999
3.18441
3.08714
2.91835
2.37066
1.69167
1.12284
0.707267
0.381071
0.0996281
3.44664
2.98667
2.92663
2.73446
2.2569
1.63036
1.08003
0.679338
0.368894
0.103642
3.2532
2.81934
2.78299
2.55186
2.11455
1.55846
1.03856
0.65468
0.359689
0.108734
3.04599
2.68233
2.65683
2.39475
1.9588
1.47334
0.997191
0.633401
0.353505
0.114636
2.82345
2.57104
2.54372
2.27024
1.811
1.37632
0.954265
0.61517
0.35023
0.120955
2.57843
2.48825
2.43734
2.17211
1.68578
1.27551
0.907792
0.599081
0.349626
0.127291
5.41883
3.97262
3.27435
2.89503
2.41411
1.89342
1.39427
0.940254
0.539304
0.131986
4.61501
3.75195
3.31046
2.95612
2.45464
1.90216
1.38174
0.921625
0.518573
0.121236
3.94508
3.6599
3.37117
3.02552
2.49392
1.90994
1.3704
0.904972
0.502613
0.112263
3.62523
3.66031
3.45655
3.10579
2.53508
1.91748
1.35942
0.889385
0.488796
0.105325
3.6105
3.70346
3.55828
3.19817
2.58097
1.92524
1.34748
0.873182
0.475381
0.100276
112.017
88.9501
67.8987
50.1267
36.1117
25.7913
18.6211
13.7456
10.5636
8.74948
111.796
88.3877
67.1924
49.3924
35.3095
24.787
17.3174
12.2121
9.06922
7.56907
111.61
87.9074
66.5542
48.6518
34.3983
23.6143
15.8971
10.6772
7.53254
6.07456
111.4
87.3337
65.7138
47.587
33.0737
22.0203
14.1255
8.8926
5.80714
4.43152
111.146
86.6057
64.5846
46.1139
31.2735
19.9526
11.9568
6.92037
4.43722
3.62138
243.767
243.805
243.924
244.096
244.309
244.318
243.813
243.111
243.215
242.991
243.979
244.051
244.165
244.354
244.625
244.8
244.581
243.931
243.674
243.567
244.175
244.224
244.337
244.533
244.819
245.081
245.055
244.548
244.12
244.069
244.418
244.451
244.548
244.723
244.98
245.269
245.376
245.106
244.719
244.651
244.692
244.71
244.792
244.941
245.156
245.421
245.626
245.628
245.463
245.372
244.984
244.997
245.066
245.188
245.362
245.592
245.864
246.106
246.212
246.201
245.258
245.276
245.358
245.494
245.67
245.9
246.201
246.563
246.867
246.99
245.543
245.561
245.658
245.849
246.104
246.404
246.765
247.178
247.544
247.724
245.924
245.953
246.03
246.253
246.624
247.077
247.583
248.103
248.447
248.409
246.317
246.427
246.528
246.718
247.118
247.688
248.29
248.841
249.193
248.988
136.5
136.241
136.218
136.481
136.263
135.865
135.324
135.152
135.223
135.388
160.951
160.354
160.376
161.013
160.36
159.238
157.774
157.317
157.523
157.981
183.196
182.629
182.916
183.439
182.389
180.643
178.675
177.986
178.235
178.857
202.162
201.916
202.635
202.645
201.287
199.09
197.082
196.238
196.416
197.018
217.634
217.808
218.592
218.004
216.336
213.992
212.171
211.268
211.307
211.712
229.514
229.995
230.225
229.266
227.458
225.401
223.792
222.845
222.712
222.813
237.713
238.049
237.686
236.613
235.121
233.592
232.142
231.125
230.9
230.749
242.368
242.248
241.639
240.805
239.927
238.909
237.555
236.529
236.471
236.293
244.092
243.674
243.181
242.822
242.525
241.939
240.749
239.854
240.14
240.055
244.232
243.806
243.653
243.674
243.746
243.503
242.63
241.868
242.253
242.064
254.846
246.874
247.501
246.286
246.037
245.53
244.996
244.633
244.503
244.54
252.013
246.81
247.315
246.265
246.09
245.593
245.012
244.666
244.579
244.512
250.09
246.817
247.092
246.261
246.146
245.661
245.055
244.76
244.749
244.544
248.903
246.845
246.88
246.28
246.203
245.735
245.137
244.914
244.978
244.65
248.218
246.848
246.742
246.318
246.26
245.818
245.265
245.105
245.219
244.82
247.769
246.806
246.704
246.368
246.312
245.911
245.432
245.293
245.426
245.027
247.454
246.751
246.703
246.411
246.358
246.013
245.608
245.447
245.58
245.236
247.239
246.723
246.695
246.445
246.39
246.118
245.754
245.556
245.679
245.429
247.096
246.717
246.687
246.468
246.405
246.208
245.85
245.623
245.717
245.587
247.002
246.718
246.684
246.482
246.415
246.271
245.902
245.659
245.683
245.683
317.35
253.757
249.91
246.971
246.142
245.571
245.252
244.93
244.237
242.72
295.618
251.368
248.788
246.74
246.06
245.542
245.207
244.901
244.45
243.521
277.177
249.212
248.192
246.566
246.019
245.524
245.157
244.843
244.532
244.194
265.774
247.867
247.868
246.436
246.001
245.512
245.1
244.761
244.522
244.522
259.003
247.137
247.645
246.328
245.998
245.504
245.031
244.658
244.476
244.555
239.299
237.449
234.234
229.326
222.124
211.77
197.719
179.914
158.837
135.756
240.481
238.946
235.771
230.635
223.132
212.575
198.456
180.622
159.401
135.977
241.994
240.497
237.316
232.062
224.311
213.491
199.199
181.262
159.882
136.164
243.656
242.251
239.123
233.848
225.913
214.82
200.267
182.103
160.456
136.373
244.445
243.608
241.105
236.034
227.992
216.625
201.741
183.233
161.183
136.626
)
;

boundaryField
{
    left
    {
        type            zeroGradient;
    }
    right
    {
        type            fixedValue;
        value           uniform 0;
    }
    down
    {
        type            zeroGradient;
    }
    up
    {
        type            zeroGradient;
    }
    cylinder
    {
        type            zeroGradient;
    }
    defaultFaces
    {
        type            empty;
    }
}


// ************************************************************************* //
