/*--------------------------------*- C++ -*----------------------------------*\
  =========                 |
  \\      /  F ield         | OpenFOAM: The Open Source CFD Toolbox
   \\    /   O peration     | Website:  https://openfoam.org
    \\  /    A nd           | Version:  13
     \\/     M anipulation  |
\*---------------------------------------------------------------------------*/
FoamFile
{
    format      ascii;
    class       volScalarField;
    location    "8.745";
    object      p;
}
// * * * * * * * * * * * * * * * * * * * * * * * * * * * * * * * * * * * * * //

dimensions      [0 2 -2 0 0 0 0];

internalField   nonuniform List<scalar> 
440
(
-1.17702
-1.15497
-1.15143
-1.12684
-1.20039
-1.24064
-1.21763
-1.19276
-1.16771
-1.14772
-1.37024
-1.33179
-1.28464
-1.22618
-1.16484
-1.51026
-1.45692
-1.35316
-1.23171
-1.10953
-1.60142
-1.52687
-1.35953
-1.18751
-1.03218
-1.08375
-1.09986
-1.14275
-1.20735
-1.2846
-1.22153
-1.22425
-1.24351
-1.27917
-1.32205
-1.23613
-1.22522
-1.21819
-1.22271
-1.2319
-1.19715
-1.17835
-1.15725
-1.14548
-1.14929
-1.15225
-1.13397
-1.11226
-1.08855
-1.10328
-1.71169
-0.514015
0.418986
-0.0745999
0.1153
-1.72663
-0.754727
0.463498
-0.104085
0.104803
-1.46299
-0.925161
0.422054
-0.140764
0.0804595
-1.31779
-0.979625
0.353538
-0.214619
0.042268
-1.2955
-0.919349
0.448406
-0.138701
-0.0362741
-1.02744
-0.687944
0.58277
0.138414
-0.112578
-0.624513
-0.35706
0.110237
0.173544
-0.0838323
-0.47554
-0.158501
0.206344
0.265165
-0.00328781
-0.344269
-0.0907678
0.20867
0.2396
-0.0147104
-0.234704
-0.12697
0.230837
0.31058
0.0261456
-0.768775
-0.882961
-1.04454
-1.21356
-1.3618
-0.507329
-0.625174
-0.712216
-0.768696
-0.792574
-0.330648
-0.432483
-0.494297
-0.53244
-0.554282
-0.220468
-0.311999
-0.371142
-0.400874
-0.410997
-0.166725
-0.256379
-0.310182
-0.329742
-0.318336
0.63225
0.469688
0.262836
0.0338224
-0.214876
0.193623
0.0218809
-0.186753
-0.422965
-0.691171
-0.233457
-0.407262
-0.626229
-0.869813
-1.12209
-0.608527
-0.786998
-1.00796
-1.24462
-1.43987
-0.85952
-1.04016
-1.24746
-1.46402
-1.59222
1.78204
1.80867
1.82982
1.83571
1.82449
1.57588
1.5926
1.60194
1.59264
1.56143
1.34891
1.32997
1.28651
1.21927
1.12409
1.09155
1.0511
0.972418
0.861241
0.719629
0.864424
0.749851
0.601851
0.433339
0.230048
1.57678
1.56979
1.54478
1.61672
1.68221
1.566
1.5572
1.52323
1.59247
1.58272
1.55625
1.5418
1.49946
1.55636
1.45826
1.54782
1.52392
1.47454
1.50295
1.2803
1.54081
1.50495
1.4486
1.45204
1.08943
1.53546
1.47618
1.4159
1.33965
0.878835
1.53288
1.4379
1.40642
1.20515
1.00832
1.54086
1.42064
1.39371
1.1489
1.06961
1.53522
1.39015
1.38601
1.09347
1.10644
1.57234
1.38484
1.38414
1.05619
1.13717
0.598896
0.280187
-0.0738559
-0.387434
-0.585082
0.487659
0.259439
0.0251709
-0.183106
-0.358243
0.466744
0.279359
0.107285
-0.0496005
-0.204505
0.53425
0.352642
0.186555
0.038705
-0.10231
0.579507
0.393579
0.228456
0.0827754
-0.0521917
-1.11443
-1.00547
-0.865673
-0.753997
-0.687295
-1.18792
-1.13207
-1.02878
-0.945972
-0.898981
-1.12944
-1.08569
-1.02819
-0.984416
-0.959934
-1.00783
-0.974828
-0.940008
-0.914131
-0.89804
-0.920169
-0.902545
-0.883469
-0.866961
-0.874568
-0.871757
-0.865803
-0.854969
-0.846666
-0.828972
-0.859974
-0.859383
-0.858323
-0.862659
-0.863851
-0.857198
-0.860906
-0.870304
-0.883049
-0.889714
-0.820118
-0.827298
-0.84524
-0.870324
-0.891066
-0.882591
-0.900412
-0.939215
-0.99031
-1.04085
-0.853932
0.0390835
0.157536
0.131705
0.0829996
-0.829177
0.15801
0.199827
0.128175
0.09183
-0.831927
0.22559
0.262294
0.110845
0.0994856
-0.967093
0.12981
0.321447
0.0668651
0.106822
-1.29757
-0.19028
0.370355
-0.00395076
0.112691
-0.51832
-0.138688
0.00452606
0.09107
0.0737092
-0.748109
-0.105928
0.0615822
0.125712
0.0856013
-0.647844
-0.878896
-0.943069
-0.910241
-0.73016
-0.664451
-0.882174
-0.951763
-0.899852
-0.894314
1.53677
1.52265
1.49354
1.45074
1.3938
1.70351
1.72588
1.73586
1.73183
1.71406
1.83842
1.87242
1.90107
1.91927
1.9239
1.90895
1.94724
1.98751
2.02013
2.0354
1.88503
1.91959
1.95779
1.98909
2.00244
-0.292919
-0.379637
-0.515363
-0.681768
-0.858532
0.226967
0.113273
-0.0389939
-0.220455
-0.435821
0.690752
0.571655
0.430072
0.264922
0.0683555
1.05957
0.969134
0.859019
0.726806
0.571554
1.35362
1.29299
1.2145
1.1208
1.01199
1.64381
1.60543
1.59486
1.61506
1.6445
1.62776
1.60139
1.59171
1.62672
1.69349
1.61374
1.59601
1.58693
1.64056
1.75083
1.60059
1.58926
1.57708
1.64269
1.75385
1.58823
1.58085
1.56252
1.63497
1.73382
1.70112
1.61444
1.58767
1.54926
1.52314
1.65527
1.60398
1.581
1.56551
1.5418
1.25323
1.06899
0.741713
0.262302
-0.267393
1.32119
1.09472
0.756175
0.280862
-0.259736
)
;

boundaryField
{
    left
    {
        type            zeroGradient;
    }
    right
    {
        type            fixedValue;
        value           uniform 0;
    }
    down
    {
        type            zeroGradient;
    }
    up
    {
        type            zeroGradient;
    }
    cylinder
    {
        type            zeroGradient;
    }
    defaultFaces
    {
        type            empty;
    }
}


// ************************************************************************* //
