# Selection   : all
# Cells       : 1800
# Volume      : 7.372328e+01
# Time        	min(p)
0.85          	-3.860757e+00
0.875         	-3.321964e+00
0.9           	-3.240662e+00
