/*--------------------------------*- C++ -*----------------------------------*\
  =========                 |
  \\      /  F ield         | OpenFOAM: The Open Source CFD Toolbox
   \\    /   O peration     | Website:  https://openfoam.org
    \\  /    A nd           | Version:  13
     \\/     M anipulation  |
\*---------------------------------------------------------------------------*/
FoamFile
{
    format      ascii;
    class       surfaceScalarField;
    location    "0.92";
    object      phi;
}
// * * * * * * * * * * * * * * * * * * * * * * * * * * * * * * * * * * * * * //

dimensions      [0 3 -1 0 0 0 0];

internalField   nonuniform List<scalar> 
823
(
0.0113783
-0.0505538
0.0391755
0.0387597
-0.133435
0.106053
0.0788334
-0.205877
0.165804
0.130172
-0.26887
0.217532
-0.323261
0.259418
0.194014
0.0107034
-0.0612572
0.0361439
-0.158875
0.072649
-0.242382
0.117973
-0.314194
-0.375601
0.170313
0.00837711
-0.0696343
0.0282853
-0.178784
0.0567257
-0.270823
0.0918102
-0.349279
-0.41605
0.13226
0.00529925
-0.0749335
0.0179955
-0.19148
0.0362294
-0.289057
0.0588834
-0.371933
-0.442414
0.0852474
0.00196194
-0.0768955
0.00662995
-0.196148
0.0132895
-0.295716
0.0215216
-0.380165
0.0310618
-0.451954
0.00661474
-0.0107676
0.00415271
0.0221257
-0.0309425
0.0154315
0.0453098
-0.0485461
0.025362
0.0744422
-0.0639934
0.034861
-0.07709
0.108083
0.0434498
0.00573838
-0.016506
0.0214349
-0.046639
0.0466165
-0.0737278
0.0796327
-0.0970094
-0.116133
0.118676
0.00638827
-0.0228943
0.0236375
-0.0638883
0.0511934
-0.101284
0.0878491
-0.133665
-0.160139
0.131855
0.00753534
-0.0304297
0.0270832
-0.0834361
0.0573048
-0.131505
0.0969999
-0.17336
-0.207908
0.144769
0.00874588
0.0313631
0.0656615
0.109833
0.161344
0.322418
-0.958552
0.744216
0.474601
-0.824155
0.671973
0.575321
-0.35774
0.25702
0.619007
-0.0696714
0.0259848
0.00300183
-0.00847831
0.330102
-1.16998
0.470783
-0.964836
0.57676
-0.463717
0.643494
-0.136406
-0.0221269
0.336261
-1.37438
0.460506
-1.08908
0.562784
-0.565995
0.64354
-0.217162
-0.064988
0.337236
-1.56685
0.447483
-1.19933
0.540441
-0.658954
0.615653
-0.292374
-0.104776
0.327618
-1.73312
0.427845
-1.29956
0.508693
-0.739801
0.571918
-0.3556
-0.135536
1.19774
-1.59054
-1.34032
1.00766
-1.10948
0.885421
-0.617561
0.82591
-0.296088
-0.112566
1.32966
-1.13312
-1.78709
0.981565
-0.761384
0.77273
-0.408727
0.676786
-0.200144
-0.0786711
1.18936
-0.607674
-1.7148
0.816087
-0.388114
0.609961
-0.202601
0.511105
-0.101288
-0.0415045
0.822343
-0.18529
-1.24473
0.545291
-0.111061
0.396271
-0.0535808
0.322279
-0.0272963
-0.0120694
0.306715
-0.492004
0.195654
0.142073
0.114777
1.56259
0.046249
-1.57778
1.52169
0.126153
1.46266
0.191283
1.39634
0.236636
0.250039
1.67586
0.0356506
-1.66526
1.69931
0.102694
1.7308
0.159794
1.76527
0.202166
0.228225
1.38797
0.0184771
-1.37079
1.43705
0.053608
1.51387
0.0829775
1.61014
0.105892
0.123568
0.977699
0.00531442
-0.964536
1.01588
0.0154233
1.07582
0.0230448
1.15388
0.0278276
0.0327214
0.392987
-0.387673
0.408411
0.431455
0.459283
0.128769
0.327629
-0.264673
-0.191725
0.0781584
0.273215
-0.222604
0.0385248
0.209792
-0.170158
0.0113404
0.136442
-0.109258
0.0519522
-0.0406118
0.115952
0.378907
-0.167231
0.071499
0.317669
0.0356197
0.245671
0.0105617
0.1615
0.0625139
0.0888494
0.418274
-0.128217
0.0548114
0.351707
0.0272883
0.273195
0.00806519
0.180723
0.0705791
0.0552406
0.443533
-0.0804992
0.0337631
0.373184
0.0166551
0.290302
0.00486434
0.192514
0.0754434
0.0174804
-0.025902
0.0104997
0.00508593
0.00145208
0.0726981
0.0873789
-0.107356
-0.0527212
0.0429282
0.0737523
-0.0439823
0.0197561
0.056976
-0.0338039
0.00514399
0.036835
-0.0222229
0.0133069
-0.00816291
0.0760119
0.12596
-0.114593
0.043711
0.106053
0.0196365
0.0810505
0.00508789
0.0513837
0.0183948
0.0843457
0.168597
-0.126983
0.0490532
0.141346
0.0227145
0.107389
0.0061674
0.0679309
0.0245622
0.0940188
0.214699
-0.140121
0.055746
0.179619
0.0265135
0.136622
0.00742422
0.0870202
0.0319865
0.107385
-0.15736
0.0643997
0.0308628
0.00862536
0.513557
0.177508
-0.295085
0.564138
0.158481
-0.209063
0.497903
0.314001
-0.247765
0.335361
0.802753
-0.640211
1.04191
-0.813903
0.514973
0.0585149
0.563062
0.110392
0.488759
0.388304
0.331587
0.959925
1.2589
0.515732
-0.0612374
0.549969
0.076155
0.467872
0.470402
0.328008
1.09979
1.45993
0.512269
-0.177527
0.527584
0.0608406
0.442091
0.555894
0.323644
1.21824
1.64345
0.499765
-0.281312
0.494387
0.0662177
0.412335
0.637947
0.311819
1.31875
1.79791
0.76206
-0.439351
0.841088
-0.0128107
0.956003
0.523032
1.16944
1.10531
1.61976
1.34759
0.705191
-0.540522
0.778713
-0.086333
0.953612
0.348132
1.2975
0.761429
1.14353
1.77373
0.602234
-0.538735
0.632394
-0.116494
0.803214
0.177313
1.17243
0.392209
0.612045
1.70391
0.448505
-0.38322
0.405104
-0.0730933
0.535854
0.0465628
0.815995
0.112068
0.18691
1.24113
0.220801
0.147707
0.19427
0.306338
0.493248
1.4026
-0.246742
1.46575
-0.230376
1.523
-0.185465
1.56316
-0.120659
-0.0405263
1.75264
-0.225646
1.71972
-0.19746
1.69061
-0.156349
1.67083
-0.100881
-0.0349544
1.60146
-0.123193
1.50876
-0.104757
1.43456
-0.0821507
1.38705
-0.0533737
-0.0186959
1.15107
-0.0331347
1.07431
-0.0279901
1.0153
-0.0231447
0.977572
-0.0156457
-0.00566043
0.460114
0.432124
0.408979
0.393333
0.00250157
0.043009
-0.0455106
0.00732841
0.101057
-0.105884
0.0160961
0.148403
-0.157171
0.0165795
0.151918
-0.152401
0.114035
0.014815
-0.11227
0.00682887
0.0361801
0.0201792
0.0877067
0.0409603
0.127622
0.048258
0.14462
0.116388
0.0459044
0.00880996
0.0273702
0.0270786
0.0694381
0.0521541
0.102547
0.0730968
0.123677
0.114042
0.0754432
0.00780178
0.0195684
0.025515
0.0517248
0.0497512
0.0783105
0.0774355
0.095993
0.0992471
0.0922302
0.00509889
0.0144695
0.0179733
0.0388504
0.0367678
0.059516
0.0600132
0.0727475
0.0767446
0.0825157
0.00342322
0.0110463
0.0125791
0.0296946
0.0274448
0.0446503
0.0470646
0.0531278
0.0561454
0.0676638
0.00222153
0.00882472
0.00893348
0.0229826
0.0222817
0.031302
0.0410443
0.0343652
0.0347498
0.0624398
0.00168117
0.00714357
0.0101616
0.0145022
0.0262425
0.0152211
0.0468183
0.0137893
0.0114793
0.0700888
0.00377765
0.00336592
0.0176003
0.000679586
0.0369556
-0.00413423
0.0599947
-0.00924997
-0.0144495
0.0859234
0.00751854
0.0236296
0.0448573
0.0704682
0.0994684
0.153956
0.0195415
-0.105834
0.243672
-0.130653
0.0409362
0.265143
-0.0383771
0.0169064
0.269816
0.0046457
-0.00931868
-0.000697975
-0.00518553
0.215018
-0.133037
0.32568
-0.241314
0.351987
-0.0646845
0.354155
0.00247863
-0.00300654
0.2604
-0.323348
0.391898
-0.372812
0.434386
-0.107173
0.43535
0.00151534
-0.000748593
0.293649
-0.531074
0.439304
-0.518467
0.503647
-0.171517
0.509783
-0.00462036
0.00460503
0.31261
0.466116
0.55162
0.572984
0.0707052
0.0386429
-0.109348
0.0787176
-0.0080124
0.0831081
-0.00439051
0.0803625
0.00274565
0.00129672
0.194213
-0.261405
0.227137
0.239653
0.23308
0.0207331
-0.00433173
-0.0164013
0.034284
-0.0135509
0.0567634
-0.0224795
0.0856242
-0.0288607
-0.023724
0.0539263
-0.043443
0.0862798
0.139244
0.202613
0.0478224
-0.0551581
0.0763604
-0.0690247
0.0275538
-0.0521784
0.072447
0.0123373
-0.0443861
0.0596026
0.00331835
-0.0300427
0.0390617
-0.0112608
0.0145792
0.0453559
-0.0322846
-0.0682295
0.024937
-0.0317595
0.00981033
-0.0292595
0.00218726
-0.0224197
-0.00907354
0.056032
-0.00670602
-0.0816107
0.033099
-0.00882658
0.0142578
-0.0104183
0.00258125
-0.0107431
-0.00649229
0.070139
0.0215521
-0.0983972
0.0448519
0.0164606
0.0233731
0.0110605
0.00692111
0.0057089
0.000428804
0.0745133
-0.105682
0.0469917
0.0242482
0.00773416
0.0165861
-0.114033
-0.0148234
0.0160951
-0.15191
0.00730704
-0.148383
0.00248927
-0.101066
-0.0430213
0.0482733
-0.116377
-0.0459289
0.0409339
-0.144571
0.020165
-0.127614
0.00682163
-0.0877227
-0.0361997
0.0731266
-0.113971
-0.0755327
0.0521258
-0.12357
0.0270667
-0.102555
0.00880682
-0.0694628
-0.0273928
0.0773411
-0.098975
-0.0923372
0.0496233
-0.0958523
0.0254349
-0.0783666
0.00777618
-0.0518041
-0.0196167
0.0599492
-0.0825638
0.0365439
0.0177799
0.00503749
0.341906
0.583361
-0.529287
0.280563
0.225004
-0.163661
0.247142
0.05586
-0.0224394
0.165223
0.112894
-0.0309746
-0.00109196
0.09729
0.407669
0.571671
0.371342
0.261331
0.335344
0.0918576
0.233472
0.214767
0.16415
0.459557
0.508094
0.4513
0.269588
0.409047
0.13411
0.283737
0.340077
0.366277
0.494376
0.409698
0.514073
0.249891
0.461473
0.18671
0.318011
0.483539
0.585891
0.510593
0.551421
0.490367
0.333694
0.158669
0.351382
0.0848016
0.0738678
0.0798274
0.00497425
0.0724151
0.0074123
-0.0369824
0.109397
0.332146
0.242353
0.224888
0.201325
0.261633
0.0856732
0.0237242
0.0567954
0.0288778
0.0342951
0.0225004
0.0207366
0.0135585
0.00433523
0.202793
0.139334
0.0863015
0.0539312
)
;

boundaryField
{
    left
    {
        type            calculated;
        value           nonuniform List<scalar> 
17
(
-0.60402
-0.60402
-0.60402
-0.60402
-0.60402
-0.39598
-0.39598
-0.39598
-0.39598
-0.39598
-0.39598
-0.39598
-0.39598
-0.39598
-0.39598
-0.510051
-0.510051
)
;
    }
    right
    {
        type            calculated;
        value           nonuniform List<scalar> 
17
(
0.0790658
0.229191
0.275699
0.356463
0.433092
0.50443
0.569111
0.624484
0.668623
0.686401
0.655441
0.602678
0.80294
0.642891
0.473938
0.292844
0.102708
)
;
    }
    down
    {
        type            calculated;
        value           uniform 0;
    }
    up
    {
        type            calculated;
        value           uniform 0;
    }
    cylinder
    {
        type            calculated;
        value           uniform 0;
    }
    defaultFaces
    {
        type            empty;
    }
}


// ************************************************************************* //
