/*--------------------------------*- C++ -*----------------------------------*\
  =========                 |
  \\      /  F ield         | OpenFOAM: The Open Source CFD Toolbox
   \\    /   O peration     | Website:  https://openfoam.org
    \\  /    A nd           | Version:  13
     \\/     M anipulation  |
\*---------------------------------------------------------------------------*/
FoamFile
{
    format      ascii;
    class       volScalarField;
    location    "59.9";
    object      p;
}
// * * * * * * * * * * * * * * * * * * * * * * * * * * * * * * * * * * * * * //

dimensions      [0 2 -2 0 0 0 0];

internalField   nonuniform List<scalar> 
440
(
-1.15181
-1.17996
-1.24017
-1.23676
-1.28903
-1.0865
-1.0779
-1.08648
-1.10163
-1.11323
-1.1729
-1.13873
-1.10819
-1.07447
-1.03346
-1.28516
-1.23553
-1.1541
-1.05643
-0.955977
-1.36471
-1.29787
-1.15191
-0.99922
-0.858722
-1.27585
-1.2558
-1.23437
-1.22208
-1.21266
-1.25407
-1.23821
-1.22556
-1.22525
-1.23262
-1.16042
-1.17096
-1.19903
-1.21953
-1.22616
-0.950815
-0.99856
-1.07927
-1.13465
-1.14398
-0.823729
-0.926877
-1.04521
-1.10414
-1.11057
-1.2262
-1.37907
-1.11038
-1.34958
0.0808626
-1.34873
-1.25278
-0.901046
-1.26964
0.0397818
-1.15163
-0.977743
-0.785079
-1.10392
-0.00234133
-0.841637
-0.688963
-0.767098
-0.896106
-0.0425039
-0.661798
-0.359441
-0.871279
-0.743213
-0.0750371
-0.445081
-0.0609862
-0.980256
-0.611056
-0.102224
-0.290214
-0.167909
-0.770526
-0.43263
-0.108009
-0.342243
0.0725182
-0.472139
-0.310098
-0.117097
-0.316507
0.172376
-0.285537
-0.262952
-0.122057
-0.270919
0.220612
-0.0861424
-0.213031
-0.129607
-0.618172
-0.756881
-0.929631
-1.10423
-1.27765
-0.373755
-0.495893
-0.575483
-0.601847
-0.598428
-0.207823
-0.310706
-0.378402
-0.418088
-0.435343
-0.104166
-0.205606
-0.277035
-0.324796
-0.345521
-0.0573067
-0.159251
-0.2313
-0.278241
-0.291671
0.681389
0.545348
0.372863
0.174165
-0.0543277
0.278935
0.127518
-0.061358
-0.277448
-0.524122
-0.118894
-0.278772
-0.480681
-0.710871
-0.931598
-0.45814
-0.624593
-0.827667
-1.04735
-1.21732
-0.702114
-0.864465
-1.05101
-1.2453
-1.35457
1.9011
1.93353
1.96564
1.98509
1.9868
1.71505
1.73632
1.75367
1.75526
1.73596
1.48703
1.48033
1.45266
1.4027
1.32684
1.22526
1.19252
1.12687
1.03089
0.904728
0.965106
0.87368
0.750254
0.601435
0.418521
1.63922
1.62715
1.62186
1.67075
1.78201
1.6292
1.6146
1.60409
1.64289
1.69753
1.62017
1.59891
1.58376
1.60268
1.59215
1.61232
1.58056
1.56062
1.55289
1.4356
1.60553
1.56225
1.53553
1.49673
1.26534
1.60012
1.53051
1.50151
1.40144
1.07759
1.59761
1.4939
1.47405
1.30695
1.08231
1.60411
1.47512
1.4493
1.24958
1.01744
1.59492
1.45375
1.43714
1.21154
0.963743
1.63492
1.44533
1.43601
1.19232
0.940741
0.649812
0.360133
0.0278337
-0.249914
-0.454463
0.584337
0.377212
0.149372
-0.0505779
-0.227069
0.592938
0.429547
0.254582
0.0852819
-0.0735258
0.63024
0.490242
0.336149
0.173776
0.024917
0.650659
0.519521
0.373365
0.213901
0.0714901
-1.69452
-1.52921
-1.34417
-1.18932
-1.09691
-1.73967
-1.66785
-1.52154
-1.39483
-1.31019
-1.63965
-1.58888
-1.49357
-1.39961
-1.32308
-1.46589
-1.41972
-1.36489
-1.30767
-1.25299
-1.30497
-1.28231
-1.24717
-1.21925
-1.21342
-1.20713
-1.20157
-1.15996
-1.18298
-1.14035
-1.17287
-1.16477
-1.13846
-1.14034
-1.109
-1.18024
-1.17043
-1.15051
-1.12948
-1.12133
-1.20851
-1.19493
-1.17307
-1.14964
-1.14278
-1.24118
-1.22147
-1.19004
-1.15693
-1.12522
-1.0823
-0.768023
-0.861193
-0.777439
0.209656
-1.06578
-0.800111
-0.993259
-0.929604
0.196626
-0.957892
-0.918518
-1.17167
-1.15622
0.176206
-0.878366
-1.15479
-1.31346
-1.32255
0.151105
-0.895018
-1.34708
-1.31636
-1.37895
0.119463
-0.488049
-0.894899
-0.851665
-0.703177
0.227861
-0.960702
-0.861619
-0.781892
-0.707914
0.218974
-1.04498
-1.26519
-1.24227
-1.17867
-0.909812
-1.06547
-1.26936
-1.26626
-1.19744
-1.1638
1.56627
1.53659
1.48792
1.42166
1.33488
1.74745
1.76544
1.76626
1.74842
1.71287
1.9035
1.93476
1.95614
1.9639
1.95718
1.98929
2.02878
2.07045
2.10458
2.12005
1.99101
2.02949
2.07215
2.10789
2.12455
-0.629345
-0.746144
-0.929094
-1.14794
-1.41211
-0.00858727
-0.155953
-0.352187
-0.58947
-0.898926
0.555778
0.403125
0.219773
0.00261549
-0.275878
1.00616
0.887444
0.743044
0.567014
0.35062
1.36342
1.28012
1.17042
1.038
0.881597
1.70333
1.66132
1.65822
1.67087
1.6971
1.6878
1.6578
1.65581
1.68517
1.7555
1.67439
1.65276
1.6541
1.70029
1.82915
1.66178
1.6463
1.6469
1.70117
1.83466
1.65003
1.63801
1.63586
1.69155
1.8265
1.7591
1.66757
1.64764
1.59701
1.58169
1.7138
1.65849
1.64217
1.61782
1.58505
1.24439
1.0222
0.627139
0.0449574
-0.593201
1.32985
1.05551
0.641533
0.0646228
-0.585733
)
;

boundaryField
{
    left
    {
        type            zeroGradient;
    }
    right
    {
        type            fixedValue;
        value           uniform 0;
    }
    down
    {
        type            zeroGradient;
    }
    up
    {
        type            zeroGradient;
    }
    cylinder
    {
        type            zeroGradient;
    }
    defaultFaces
    {
        type            empty;
    }
}


// ************************************************************************* //
