/*--------------------------------*- C++ -*----------------------------------*\
  =========                 |
  \\      /  F ield         | OpenFOAM: The Open Source CFD Toolbox
   \\    /   O peration     | Website:  https://openfoam.org
    \\  /    A nd           | Version:  13
     \\/     M anipulation  |
\*---------------------------------------------------------------------------*/
FoamFile
{
    format      ascii;
    class       surfaceScalarField;
    location    "29.7";
    object      phi;
}
// * * * * * * * * * * * * * * * * * * * * * * * * * * * * * * * * * * * * * //

dimensions      [0 3 -1 0 0 0 0];

internalField   nonuniform List<scalar> 
823
(
0.00350343
0.0288009
-0.0323043
0.0162198
0.0257755
-0.0384919
0.0570785
-0.0252704
-0.0155883
0.136023
-0.0876995
0.00875495
-0.120968
0.00467826
0.252312
0.0188488
0.00995209
0.0752541
-0.0306298
0.163719
-0.113735
0.269841
-0.193821
-0.264937
0.41381
0.0217858
-0.0118337
0.104802
-0.113646
0.215409
-0.224342
0.323904
-0.302316
-0.351868
0.410835
0.0413104
-0.053144
0.138057
-0.210393
0.227788
-0.314073
0.286946
-0.361474
-0.376221
0.311298
0.0556869
-0.108831
0.130149
-0.284855
0.174775
-0.358699
0.192184
-0.378883
0.200384
-0.384421
0.0171032
-0.0602996
0.0431964
0.0410272
-0.120996
0.0970723
0.0561735
-0.131839
0.116693
0.0574012
-0.1132
0.111972
-0.0849134
0.0462983
0.0960164
0.019354
-0.0796537
0.0352066
-0.136849
0.0324745
-0.129107
0.0134793
-0.0942043
-0.0542183
-0.0172159
0.0214709
-0.101125
0.0264546
-0.141833
0.016446
-0.119099
0.00681579
-0.0845741
-0.0522245
0.00482198
-0.0340587
-0.0670658
-0.0979975
-0.0778938
-0.155465
-0.0616316
-0.197493
-0.042546
-0.022414
-0.227303
-0.0993701
-0.215756
-0.292976
-0.326767
-0.344503
0.157288
-0.179686
0.0686958
0.24721
1.79756
-1.88748
0.400878
0.494821
-0.64849
0.45081
-1.53713
1.4872
-0.936952
0.913402
-0.147718
-0.0491836
0.101829
1.54801
0.521387
0.0752633
0.522088
-1.53783
-0.937805
-0.0590103
0.0146487
0.142151
1.34685
0.569449
-0.352034
0.568617
-1.537
-0.925618
-0.0607671
-0.151887
0.256137
1.02994
0.627375
-0.723272
0.616419
-1.52604
-0.892173
-0.0490198
-0.44737
0.352443
0.628482
0.666007
-1.03684
0.65514
-1.51518
-0.841492
0.81195
-0.169494
-1.08983
1.10907
0.331366
1.33911
-1.26688
1.14458
-1.32064
-0.633555
1.23947
-0.0675395
-1.34142
1.47512
0.0957128
1.36447
-1.15624
1.01817
-0.974337
-0.405805
1.30681
-0.0540126
-1.32033
1.53853
-0.136009
1.22799
-0.845699
0.858151
-0.604501
-0.225045
1.2857
-0.0435658
-1.29615
1.35463
-0.204933
0.941537
-0.432609
0.570237
-0.233201
-0.0668509
0.846786
-0.890352
0.641853
0.209245
-0.0239562
1.07752
0.149214
-1.02635
1.14725
0.241574
1.25272
0.305362
1.25322
0.413312
0.415704
1.00217
0.0794977
-0.932456
1.05906
0.184684
1.15956
0.204868
1.25416
0.318713
0.328439
0.939153
0.0345979
-0.894253
1.00277
0.121071
1.08433
0.123306
1.20582
0.197216
0.213931
0.889007
0.00790186
-0.862311
0.963359
0.0467196
1.04169
0.0449752
1.16208
0.076826
0.0798615
0.64197
-0.634068
0.688689
0.733664
0.81049
0.129158
0.295632
-0.247486
-0.177304
0.0858714
0.303062
-0.259776
0.0466867
0.313597
-0.274412
0.0147324
0.304883
-0.272929
0.197073
-0.182341
0.0911339
0.332797
-0.128299
0.0565175
0.337679
0.02607
0.344045
0.00296
0.327993
0.200033
0.0506148
0.362283
-0.0801
0.0221775
0.366116
-0.00112809
0.36735
-0.0102157
0.337081
0.189818
-0.0252513
0.378008
0.00952556
-0.0389283
0.379793
-0.0435232
0.371945
-0.0310406
0.324598
0.158777
-0.103846
0.0974329
-0.102935
-0.0896891
-0.0499463
0.205315
0.0929676
-0.258376
-0.0399066
0.150859
0.0970855
-0.0426291
0.0943842
0.101712
-0.045237
0.0386821
0.101916
-0.0462138
0.0724982
-0.0338162
0.197922
0.137933
-0.242888
0.1507
0.144308
0.0981755
0.154236
0.0418737
0.158218
0.114372
0.150947
0.183721
-0.196735
0.107392
0.187862
0.0650217
0.196607
0.024684
0.198555
0.139056
0.158454
0.219722
-0.194455
0.117169
0.229148
0.0717407
0.242035
0.0277991
0.242497
0.166855
0.108924
-0.136688
0.0782957
0.0459179
0.0154859
0.403996
0.0684299
-0.0764465
0.423026
0.00241574
-0.0214452
0.416051
0.154763
-0.147789
0.39178
0.183714
-0.159442
0.385607
-0.252203
0.40165
0.0627598
0.418018
-0.0139528
0.405194
0.167588
0.375771
0.213136
0.51849
0.396643
0.0620964
0.413758
-0.031068
0.383161
0.198185
0.361279
0.235017
0.683035
0.394922
0.0631542
0.401755
-0.0379016
0.367323
0.232618
0.338352
0.263988
0.826932
0.389374
0.06976
0.391052
-0.0395797
0.337753
0.285917
0.310424
0.291316
1.00067
0.629561
0.0442193
0.660742
-0.0707609
0.673764
0.272896
0.735706
0.229374
0.75976
0.976614
0.647803
0.000437041
0.659788
-0.0827464
0.687619
0.245065
0.781069
0.135924
0.535651
1.00518
0.654534
-0.0500764
0.639711
-0.0679238
0.691956
0.192821
0.791045
0.0368348
0.346925
0.979771
0.62909
-0.0751461
0.604282
-0.0431159
0.723183
0.0739205
0.76972
-0.00970257
0.166229
0.950416
0.528874
0.485758
0.559679
0.549976
0.716205
0.99172
-0.19241
0.991969
-0.128548
0.98359
-0.0717205
0.997871
-0.00475538
0.0689509
0.945238
-0.132471
0.929749
-0.113059
0.900872
-0.0428434
0.923488
-0.0273715
0.0599836
0.923495
-0.0761952
0.889502
-0.079066
0.870574
-0.0239148
0.875916
-0.0327138
0.0416466
0.903458
-0.0292371
0.858531
-0.0341393
0.847255
-0.0126379
0.834063
-0.0195221
0.0133987
0.686968
0.652829
0.640191
0.620669
0.0554032
0.178258
-0.233661
0.0789856
0.377154
-0.400736
0.0774345
0.430669
-0.429118
0.0674311
0.430749
-0.420746
0.397969
0.0534873
-0.384025
0.0865277
0.0917303
0.162283
0.301399
0.194742
0.398211
0.198964
0.426527
0.413018
0.183914
0.0748403
0.0168901
0.202906
0.173333
0.297205
0.303912
0.349528
0.374204
0.418308
0.344238
0.0359466
-0.0190566
0.158236
0.0510435
0.295288
0.16686
0.424343
0.24515
0.339211
0.50344
0.00567219
-0.0247288
0.0700968
-0.0133812
0.190897
0.04606
0.339246
0.0968009
0.196005
0.482451
-0.00524653
-0.0194822
0.0160415
-0.0346692
0.0852877
-0.0231863
0.19134
-0.00925148
0.0681571
0.319188
-0.0026513
-0.0168309
0.00570755
-0.0430281
0.0349458
-0.0524245
0.0754881
-0.0497938
-0.0112847
0.15493
0.00191688
-0.0187478
0.0114001
-0.0525113
0.0279952
-0.0690197
0.0471715
-0.0689701
-0.0538296
0.0897163
0.0102536
-0.0290014
0.0310711
-0.0733287
0.0562461
-0.0941947
0.0824608
-0.0951848
-0.0851483
0.113779
0.014195
0.0379386
0.060437
0.0772241
0.0880922
0.397346
1.081
-1.15915
0.159058
0.874106
-0.635818
-0.0617483
0.444763
-0.223957
0.161785
-0.680216
0.456683
-0.522122
0.342429
0.336207
0.89972
-0.00224223
1.21256
-0.0939167
0.536437
0.20271
-0.976843
-0.671692
0.364001
0.625435
0.0198298
1.55673
0.0207487
0.535518
0.278341
-1.23443
-0.768472
0.472822
0.266393
0.227084
1.80246
0.177199
0.585404
0.333283
-1.39052
-0.8492
0.423181
0.338167
0.275081
0.371761
-0.143901
0.740463
-0.596562
-0.292172
0.148271
-0.207267
-0.0849045
0.06895
-0.276217
-0.14984
0.818861
-1.23755
0.331314
0.0224529
0.202919
0.0971925
-0.0123435
-0.084849
0.158162
-0.0609693
0.260571
-0.10241
0.41497
-0.154398
-0.181592
0.22288
-0.181736
0.345824
0.587653
0.936694
0.148204
-0.155405
0.187275
-0.180074
0.113426
-0.162077
0.196854
0.073876
-0.170987
0.210537
0.0305862
-0.172029
0.215319
-0.122028
0.152614
0.192865
-0.114716
-0.233554
0.14667
-0.115882
0.0936975
-0.118014
0.0389873
-0.117319
-0.0830408
0.187563
-0.0632309
-0.239048
0.135357
-0.063676
0.0834356
-0.0660928
0.0338323
-0.0677155
-0.0492084
0.205574
-0.0115472
-0.257258
0.153086
-0.0111883
0.0982409
-0.0112474
0.0416798
-0.0111544
-0.00752864
0.209015
-0.260469
0.155197
0.098713
0.0413448
0.0498416
-0.359933
-0.0739337
0.0197895
-0.390694
-0.00592267
-0.403406
-0.0174564
-0.389203
-0.251118
0.138636
-0.324659
-0.173909
0.0928138
-0.344872
0.0462615
-0.356854
0.010159
-0.3531
-0.240959
0.16267
-0.279594
-0.207735
0.114036
-0.296238
0.0671103
-0.309928
0.0244528
-0.310443
-0.216506
0.180785
-0.239245
-0.221134
0.133606
-0.249059
0.0832189
-0.259541
0.0339536
-0.261177
-0.182552
0.177005
-0.228975
0.1248
0.0757966
0.029938
0.388898
0.103155
-0.0960738
0.392406
0.0770635
-0.080571
0.360314
0.137223
-0.105131
0.313971
0.0233322
0.0230112
-0.277038
0.410935
0.396509
0.102626
0.40653
0.0670421
0.397997
0.145756
0.354732
0.0665969
-0.15586
0.401607
0.0969982
0.415857
0.0527923
0.412316
0.149297
0.376558
0.102356
-0.01835
0.405882
0.0870956
0.42077
0.0379045
0.422565
0.147502
0.392652
0.132268
0.117045
0.406629
0.423088
0.422801
0.395627
0.41568
0.0943715
0.339107
0.0765728
0.260955
0.0781517
0.277392
-0.016437
-0.22141
0.498802
0.508349
0.50435
0.477371
0.483945
0.67347
0.399315
0.0994873
0.311416
0.0878987
0.209304
0.102112
0.122147
0.0871573
0.0372979
0.543982
0.410746
0.305124
0.218372
)
;

boundaryField
{
    left
    {
        type            calculated;
        value           nonuniform List<scalar> 
17
(
-0.60402
-0.60402
-0.60402
-0.60402
-0.60402
-0.39598
-0.39598
-0.39598
-0.39598
-0.39598
-0.39598
-0.39598
-0.39598
-0.39598
-0.39598
-0.510051
-0.510051
)
;
    }
    right
    {
        type            calculated;
        value           nonuniform List<scalar> 
17
(
0.21879
0.395507
0.341478
0.352281
0.37512
0.414012
0.435962
0.474361
0.522942
0.55643
0.582974
0.604458
0.936641
0.790419
0.677392
0.412042
-0.090807
)
;
    }
    down
    {
        type            calculated;
        value           uniform 0;
    }
    up
    {
        type            calculated;
        value           uniform 0;
    }
    cylinder
    {
        type            calculated;
        value           uniform 0;
    }
    defaultFaces
    {
        type            empty;
    }
}


// ************************************************************************* //
