/*--------------------------------*- C++ -*----------------------------------*\
  =========                 |
  \\      /  F ield         | OpenFOAM: The Open Source CFD Toolbox
   \\    /   O peration     | Website:  https://openfoam.org
    \\  /    A nd           | Version:  13
     \\/     M anipulation  |
\*---------------------------------------------------------------------------*/
FoamFile
{
    format      ascii;
    class       volScalarField;
    location    "4";
    object      p;
}
// * * * * * * * * * * * * * * * * * * * * * * * * * * * * * * * * * * * * * //

dimensions      [0 2 -2 0 0 0 0];

internalField   nonuniform List<scalar> 
440
(
-1.03292
-1.00871
-1.0079
-0.966449
-1.0706
-1.0789
-1.05767
-1.03257
-1.00206
-0.985593
-1.19279
-1.16032
-1.12341
-1.08181
-1.03952
-1.32294
-1.27429
-1.19448
-1.10241
-1.01223
-1.41831
-1.35585
-1.21682
-1.07585
-0.949311
-0.992474
-1.00422
-1.02844
-1.06104
-1.09373
-1.05131
-1.05573
-1.0722
-1.10035
-1.13374
-1.10363
-1.10131
-1.10811
-1.12886
-1.15599
-1.09955
-1.08863
-1.08092
-1.08416
-1.1011
-1.04301
-1.02459
-1.00287
-0.98187
-1.01364
-1.23172
-0.810066
-0.403011
-0.0649684
0.035436
-1.2952
-0.969064
-0.441694
-0.0845926
0.0329757
-1.31544
-1.09075
-0.474166
-0.106123
0.0232459
-1.24505
-1.17316
-0.510997
-0.129862
0.00925241
-1.14541
-1.21265
-0.550161
-0.155054
-0.00568017
-0.897098
-1.14214
-0.546386
-0.176723
-0.0251601
-0.714402
-0.899787
-0.51856
-0.20731
-0.0450399
-0.637265
-0.719875
-0.521236
-0.258644
-0.0635699
-0.542674
-0.592959
-0.51838
-0.291577
-0.0786093
-0.450917
-0.492648
-0.513505
-0.318167
-0.0853433
-0.735652
-0.846212
-1.01036
-1.17529
-1.26339
-0.518398
-0.643055
-0.727471
-0.783756
-0.793056
-0.36757
-0.478217
-0.546283
-0.596185
-0.631793
-0.276411
-0.378374
-0.45335
-0.501381
-0.535221
-0.235977
-0.337693
-0.413244
-0.456391
-0.475433
0.609545
0.457577
0.264636
0.0525657
-0.170307
0.195251
0.036141
-0.153523
-0.367028
-0.605981
-0.199057
-0.356809
-0.555083
-0.77659
-1.00023
-0.554438
-0.712511
-0.907831
-1.1185
-1.28753
-0.789369
-0.944463
-1.12367
-1.31208
-1.41881
1.6609
1.68813
1.71238
1.72292
1.71757
1.46596
1.48269
1.49261
1.48599
1.4584
1.25156
1.23753
1.19965
1.13907
1.05383
1.00605
0.972212
0.90279
0.804079
0.679104
0.804395
0.696761
0.559443
0.405923
0.222874
1.48244
1.44216
1.43979
1.50913
1.56141
1.4722
1.43224
1.41937
1.49096
1.46721
1.4631
1.41919
1.39698
1.46079
1.33827
1.45513
1.40469
1.37343
1.41569
1.16014
1.44837
1.38934
1.34961
1.3759
0.970857
1.44251
1.36643
1.31939
1.26973
0.756056
1.43755
1.33886
1.30927
1.17335
0.901071
1.4442
1.32343
1.29927
1.12622
0.969473
1.4409
1.29975
1.29401
1.06962
1.00448
1.47598
1.29646
1.28993
1.03399
1.02148
0.584885
0.284333
-0.0522481
-0.359571
-0.555081
0.452933
0.251649
0.0257039
-0.187324
-0.371854
0.435037
0.261953
0.089189
-0.0744678
-0.237789
0.483636
0.309697
0.146726
-0.00435564
-0.149684
0.514107
0.338503
0.178842
0.0308001
-0.10991
-1.55268
-1.42746
-1.27639
-1.15478
-1.08254
-1.63566
-1.57312
-1.45841
-1.3649
-1.30985
-1.57397
-1.52796
-1.46072
-1.40721
-1.37399
-1.43948
-1.4028
-1.36448
-1.33505
-1.3157
-1.33196
-1.31139
-1.29091
-1.27592
-1.27741
-1.27214
-1.26178
-1.25084
-1.25106
-1.22976
-1.24368
-1.23956
-1.23742
-1.2437
-1.24402
-1.21522
-1.22184
-1.23698
-1.26022
-1.28181
-1.1139
-1.12855
-1.15561
-1.19086
-1.21824
-1.02013
-1.03448
-1.06125
-1.09431
-1.1211
-1.21119
-0.564049
-0.265569
-0.071503
-0.000920024
-1.19923
-0.501399
-0.226713
-0.0549
0.00635587
-1.16105
-0.504083
-0.227397
-0.0404289
0.0158701
-1.14883
-0.564482
-0.277225
-0.0372571
0.0244366
-1.16811
-0.667422
-0.345624
-0.0465734
0.0315858
-0.910663
-0.689736
-0.371342
-0.0994953
-0.00428429
-1.12141
-0.638722
-0.312967
-0.0863942
-0.00117353
-1.03973
-1.28144
-1.35327
-1.31765
-1.14519
-1.0577
-1.28758
-1.36003
-1.30874
-1.28227
1.35952
1.34073
1.30677
1.25866
1.19495
1.5399
1.55966
1.56729
1.56076
1.54
1.6883
1.7194
1.74574
1.7617
1.76416
1.76819
1.80446
1.8432
1.87499
1.88994
1.75747
1.78975
1.82455
1.85211
1.86371
-0.650911
-0.74391
-0.889587
-1.06737
-1.26783
-0.0832384
-0.204455
-0.365833
-0.559991
-0.798415
0.426839
0.300203
0.150119
-0.0258741
-0.240703
0.836218
0.73936
0.622018
0.480344
0.311644
1.16208
1.09547
1.00931
0.906543
0.787205
1.54461
1.47258
1.47841
1.48762
1.50083
1.52958
1.4692
1.47684
1.50385
1.5564
1.51681
1.46457
1.47422
1.52166
1.62187
1.50466
1.45862
1.46702
1.52713
1.62924
1.49313
1.45148
1.45509
1.52353
1.61365
1.59907
1.48024
1.46665
1.41892
1.3677
1.55494
1.46914
1.46484
1.4381
1.38838
1.04756
0.839857
0.478867
-0.0455126
-0.623978
1.12662
0.871665
0.49601
-0.025142
-0.615727
)
;

boundaryField
{
    left
    {
        type            zeroGradient;
    }
    right
    {
        type            fixedValue;
        value           uniform 0;
    }
    down
    {
        type            zeroGradient;
    }
    up
    {
        type            zeroGradient;
    }
    cylinder
    {
        type            zeroGradient;
    }
    defaultFaces
    {
        type            empty;
    }
}


// ************************************************************************* //
