/*--------------------------------*- C++ -*----------------------------------*\
  =========                 |
  \\      /  F ield         | OpenFOAM: The Open Source CFD Toolbox
   \\    /   O peration     | Website:  https://openfoam.org
    \\  /    A nd           | Version:  13
     \\/     M anipulation  |
\*---------------------------------------------------------------------------*/
FoamFile
{
    format      ascii;
    class       surfaceScalarField;
    location    "4";
    object      phi;
}
// * * * * * * * * * * * * * * * * * * * * * * * * * * * * * * * * * * * * * //

dimensions      [0 3 -1 0 0 0 0];

internalField   nonuniform List<scalar> 
823
(
-0.003795
0.0130717
-0.00927675
0.013162
0.00949457
-0.0264515
0.0757933
-0.0258986
-0.0367328
0.178783
-0.0905329
-0.0124567
-0.0876507
-0.055607
0.322041
0.00117449
0.0118973
0.0431015
-0.0324325
0.135144
-0.117941
0.242241
-0.19763
-0.262827
0.417418
0.022183
-0.0102857
0.110023
-0.120272
0.228615
-0.236534
0.347043
-0.316058
-0.367866
0.452083
0.0457083
-0.055994
0.148309
-0.222873
0.239442
-0.327667
0.298021
-0.374637
-0.387996
0.31815
0.0607999
-0.116794
0.135788
-0.297861
0.178198
-0.370076
0.19319
-0.389629
0.203042
-0.397847
-0.0274623
0.0438957
-0.0164334
-0.0723027
0.0772143
-0.0323739
-0.11848
0.0844031
-0.0382253
-0.161593
0.0854598
-0.0423469
0.0863679
-0.200762
-0.0471997
-0.00701613
0.0509119
-0.0296868
0.0998849
-0.0595914
0.114308
-0.0889411
0.114809
0.11019
-0.112763
0.0161333
0.0347785
0.0307517
0.0852666
0.035234
0.109825
0.0333694
0.116674
0.113249
0.0303102
0.0205615
0.014217
0.0569135
0.0489145
0.0922358
0.0745032
0.12652
0.0823898
0.0958924
0.143877
0.00494029
0.0274033
0.0651737
0.135107
0.175392
-0.166345
0.590774
-0.62519
0.083411
-0.159902
-0.0898547
0.230856
-0.69071
0.543264
0.331678
-0.700851
0.600029
-0.395509
0.352898
-0.00202584
0.480037
0.248496
-0.410423
0.363367
-0.80558
0.415752
-0.753237
-0.406756
0.162102
0.348245
0.377272
-0.625593
0.468558
-0.896866
0.493236
-0.777915
-0.398914
0.298809
0.193313
0.465718
-0.792501
0.530706
-0.961855
0.539222
-0.78643
-0.387091
0.382911
-0.0142067
0.523528
-0.933118
0.574947
-1.01327
0.563439
-0.774923
-0.373229
1.27314
-0.160356
-1.12699
1.29844
-0.958427
1.17569
-0.890518
0.967388
-0.566622
-0.256716
1.50951
-0.223944
-1.44593
1.355
-0.803909
1.11552
-0.651042
0.870667
-0.321768
-0.140006
1.42446
-0.232228
-1.41618
1.23635
-0.615799
1.04714
-0.461824
0.872749
-0.147382
-0.0342958
1.30335
-0.185125
-1.35046
1.03388
-0.346323
0.770629
-0.198574
0.633883
-0.0106358
0.0207612
0.746845
-0.93197
0.400522
0.201948
0.191312
1.11116
0.168802
-1.07692
1.20071
0.228591
1.30544
0.347353
1.28883
0.434031
0.483886
1.03461
0.106797
-0.972606
1.11365
0.149557
1.22015
0.240845
1.33504
0.319142
0.373003
0.992374
0.0555887
-0.941166
1.04965
0.0922769
1.1455
0.145001
1.27146
0.193177
0.228286
0.940456
0.0166449
-0.901512
0.998811
0.0339221
1.08875
0.0550578
1.20996
0.0719712
0.0877877
0.683231
-0.666586
0.717153
0.772211
0.844182
0.138812
0.297682
-0.24283
-0.193664
0.0927168
0.301609
-0.255514
0.0521751
0.310922
-0.27038
0.0183496
0.300549
-0.266724
0.191601
-0.173252
0.0969085
0.332682
-0.131909
0.0624241
0.336094
0.0320717
0.341274
0.00771597
0.324905
0.199317
0.0739573
0.370004
-0.11128
0.0397018
0.370349
0.010805
0.370171
-0.00491296
0.340623
0.194404
-0.0116264
0.385936
-0.00430563
-0.0279243
0.386647
-0.0354126
0.377659
-0.0274603
0.332671
0.166944
-0.0895605
0.0776492
-0.0925427
-0.0849596
-0.0501503
0.199227
0.108392
-0.251951
-0.0556688
0.145777
0.11217
-0.0587204
0.0908425
0.116518
-0.0615832
0.0370005
0.116147
-0.0623053
0.0812968
-0.0442964
0.186632
0.150839
-0.229078
0.14143
0.157372
0.0911099
0.166838
0.0384898
0.168767
0.119787
0.134181
0.195543
-0.178885
0.0933134
0.19824
0.0549507
0.205201
0.0196061
0.204112
0.139393
0.14759
0.224846
-0.176893
0.110791
0.235039
0.0682246
0.247767
0.0265258
0.245811
0.165919
0.0713345
-0.0893185
0.0508598
0.0282464
0.00733327
0.409076
0.0365882
-0.0496845
0.42415
0.0369519
-0.0520259
0.415771
0.17939
-0.171011
0.399071
0.22251
-0.205809
0.51701
-0.36989
0.407989
0.024579
0.417472
0.027469
0.404358
0.192504
0.386781
0.240087
0.674713
0.401391
0.0191678
0.412363
0.0164968
0.38186
0.223007
0.377968
0.243979
0.873795
0.397078
0.0180698
0.396302
0.0172722
0.372368
0.246941
0.349115
0.267232
1.04602
0.387928
0.0261213
0.38368
0.0215205
0.338523
0.292098
0.317743
0.288012
1.27444
0.618309
0.0118323
0.642513
-0.00268273
0.687474
0.247137
0.775725
0.199761
1.06753
0.982636
0.628623
-0.0127699
0.640708
-0.0147676
0.721434
0.16641
0.73481
0.186386
0.814279
0.988061
0.63203
-0.0407795
0.645598
-0.0283352
0.721921
0.0900867
0.758305
0.150002
0.532629
1.03995
0.622103
-0.0588618
0.636542
-0.0427747
0.703065
0.0235635
0.787442
0.0656248
0.247488
1.07258
0.545159
0.502384
0.525947
0.591572
0.83906
1.0223
-0.233326
1.01245
-0.122059
1.02718
-0.126016
1.02297
-9.35633e-05
0.0237056
0.95519
-0.200454
0.949509
-0.116378
0.935604
-0.112111
0.949651
-0.0141407
0.000750523
0.975061
-0.135561
0.956014
-0.0973309
0.925322
-0.0814194
0.936807
-0.0256253
-0.00360868
0.996589
-0.0595665
0.947161
-0.0479027
0.905436
-0.0396948
0.898685
-0.0188739
-0.00643592
0.779494
0.731591
0.691896
0.673022
0.0483435
0.15052
-0.198864
0.0729176
0.324948
-0.349522
0.0737959
0.378476
-0.379354
0.064295
0.381246
-0.371745
0.34948
0.0528356
-0.33802
0.0709356
0.0795845
0.14247
0.253414
0.177158
0.343788
0.182333
0.376071
0.369347
0.162466
0.0601231
0.0194614
0.173106
0.14043
0.266141
0.250753
0.330272
0.31194
0.361647
0.337972
0.0294622
-0.0100009
0.129241
0.0406518
0.252195
0.127799
0.370976
0.193158
0.261738
0.470886
0.00725683
-0.0172577
0.0584736
-0.010565
0.157809
0.0284637
0.276741
0.0742262
0.125918
0.412561
0.000150977
-0.0174087
0.0163654
-0.0267794
0.063125
-0.018296
0.135422
0.00192956
0.0391856
0.222154
0.00365386
-0.0210625
0.0122454
-0.0353709
0.0286614
-0.034712
0.0558007
-0.0252098
-0.0073477
0.102334
0.00443442
-0.0254969
0.0073245
-0.038261
0.00961364
-0.0370011
0.014413
-0.0300091
-0.0195159
0.0265812
-0.0145188
-0.0109781
-0.041039
-0.0117408
-0.0699485
-0.00809163
-0.0976454
-0.00231226
0.00473203
-0.121893
-0.0274115
-0.0715263
-0.117843
-0.162502
-0.20497
0.318525
0.632627
-0.728998
0.335386
0.300984
-0.317846
0.326681
-0.0303165
0.0390219
0.350478
-0.112758
0.0889616
-0.0578283
0.0256422
0.243844
0.491117
0.175754
0.369075
0.177469
-0.0320316
0.262954
-0.198243
-0.126311
0.0151586
0.50254
-0.0179797
0.402213
0.106275
-0.156286
0.237023
-0.328992
-0.207377
-0.19755
0.578196
-0.0880687
0.292732
0.10807
-0.352425
0.246342
-0.467263
-0.28578
-0.251964
-0.049087
0.141752
0.274518
0.157025
0.452227
-0.609251
0.0276798
0.129345
0.0983831
-0.0707032
0.181303
-0.0829203
-0.0376173
0.782197
-1.05897
0.593696
0.562014
0.568056
0.0878302
-0.0149691
-0.0728611
0.140081
-0.0522505
0.247777
-0.107696
0.415793
-0.168016
-0.193458
0.196505
-0.158639
0.30672
0.536996
0.839865
0.138289
-0.133446
0.164013
-0.168856
0.105068
-0.138992
0.172213
0.0674773
-0.146422
0.184012
0.0273215
-0.146696
0.186852
-0.103351
0.130673
0.179326
-0.0945609
-0.218211
0.13592
-0.0955854
0.0869059
-0.0974078
0.0361207
-0.0959107
-0.0672304
0.186519
-0.0460889
-0.234991
0.136668
-0.0457343
0.0852926
-0.0460325
0.0347896
-0.0454077
-0.0324408
0.200136
0.00487504
-0.2511
0.148228
0.00617314
0.0943703
0.00782558
0.0395908
0.00937181
0.00714998
0.196385
-0.247179
0.143838
0.0900799
0.0371464
0.0406505
-0.317644
-0.0610268
0.0163274
-0.347422
-0.00605569
-0.356971
-0.0154836
-0.340094
-0.214347
0.123159
-0.28682
-0.153983
0.0803285
-0.304591
0.038946
-0.315589
0.00790872
-0.309057
-0.206438
0.14255
-0.246959
-0.182411
0.100678
-0.262719
0.0590418
-0.273953
0.0211025
-0.271117
-0.185336
0.162137
-0.211319
-0.197777
0.118462
-0.219043
0.0721072
-0.227599
0.0284525
-0.227463
-0.156883
0.157238
-0.204545
0.110408
0.0668217
0.0262109
0.393241
0.0775526
-0.0748144
0.395373
0.116194
-0.118325
0.353141
0.162368
-0.120136
0.29624
0.0394689
0.0174326
-0.1796
0.306984
0.397239
0.0762934
0.411232
0.102201
0.397485
0.176114
0.342476
0.0944781
-0.0553349
0.400509
0.0717642
0.418556
0.0841539
0.416906
0.177764
0.368691
0.142693
0.0783649
0.405118
0.0626257
0.422363
0.0669085
0.426849
0.173278
0.390863
0.178679
0.218128
0.408921
0.423803
0.42607
0.39894
0.425764
0.0842869
0.327462
0.0983017
0.249959
0.0775036
0.268518
-0.0185596
-0.163845
0.432363
0.519523
0.4995
0.456867
0.45574
0.59888
0.345136
0.087227
0.267447
0.0776891
0.177716
0.0897308
0.103025
0.0746913
0.0301636
0.481562
0.361474
0.268793
0.189502
)
;

boundaryField
{
    left
    {
        type            calculated;
        value           nonuniform List<scalar> 
17
(
-0.60402
-0.60402
-0.60402
-0.60402
-0.60402
-0.39598
-0.39598
-0.39598
-0.39598
-0.39598
-0.39598
-0.39598
-0.39598
-0.39598
-0.39598
-0.510051
-0.510051
)
;
    }
    right
    {
        type            calculated;
        value           nonuniform List<scalar> 
17
(
0.218921
0.556081
0.382664
0.331437
0.318089
0.324744
0.341636
0.37429
0.426998
0.485394
0.527399
0.549577
0.850875
0.753956
0.767039
0.578826
0.212073
)
;
    }
    down
    {
        type            calculated;
        value           uniform 0;
    }
    up
    {
        type            calculated;
        value           uniform 0;
    }
    cylinder
    {
        type            calculated;
        value           uniform 0;
    }
    defaultFaces
    {
        type            empty;
    }
}


// ************************************************************************* //
