/*--------------------------------*- C++ -*----------------------------------*\
  =========                 |
  \\      /  F ield         | OpenFOAM: The Open Source CFD Toolbox
   \\    /   O peration     | Website:  https://openfoam.org
    \\  /    A nd           | Version:  13
     \\/     M anipulation  |
\*---------------------------------------------------------------------------*/
FoamFile
{
    format      ascii;
    class       volVectorField;
    location    "4";
    object      U;
}
// * * * * * * * * * * * * * * * * * * * * * * * * * * * * * * * * * * * * * //

dimensions      [0 1 -1 0 0 0 0];

internalField   nonuniform List<vector> 
440
(
(-0.061825 0.034741 -7.85076e-20)
(-0.099383 0.0814211 5.88544e-20)
(-0.0204223 0.101834 1.26397e-19)
(0.432386 0.121191 2.82719e-19)
(0.200142 0.404256 2.94626e-21)
(-0.0885701 0.0428538 3.0989e-20)
(0.0227764 0.00849505 -1.39481e-19)
(0.460806 -0.0276391 -1.26079e-19)
(1.03131 -0.0516031 6.9779e-20)
(1.37254 -0.010176 2.32903e-20)
(-0.0389675 0.0140591 5.14485e-20)
(0.439085 -0.0241324 6.96114e-19)
(1.21352 -0.00190559 -3.74627e-19)
(1.78267 0.0433086 -1.14162e-18)
(2.38091 0.0668713 3.39025e-19)
(0.174397 -0.0412045 -1.72154e-19)
(1.16271 0.0156966 -5.04455e-19)
(1.94978 0.095023 1.5565e-18)
(2.4344 0.136164 1.63501e-18)
(2.51099 0.16166 -4.53209e-19)
(0.545297 -0.00412831 -2.78426e-19)
(1.73533 0.194487 -5.81937e-19)
(2.29667 0.274537 1.7396e-18)
(2.41105 0.291492 1.82575e-18)
(2.49591 0.258608 6.05955e-19)
(-0.0387392 0.197586 3.34957e-20)
(-0.170367 0.340345 1.43295e-19)
(-0.291454 0.373186 -3.31262e-19)
(-0.389998 0.384786 6.36547e-20)
(-0.462043 0.394503 5.27353e-19)
(-0.0723421 0.317218 -1.77654e-20)
(-0.177004 0.552349 -1.55163e-19)
(-0.262522 0.578371 1.06818e-20)
(-0.331221 0.554843 1.47198e-20)
(-0.377071 0.531218 -3.63521e-20)
(-0.0941633 0.282385 -5.67695e-20)
(-0.171859 0.625171 3.93498e-20)
(-0.208561 0.748149 -5.29359e-21)
(-0.221492 0.750924 -3.76474e-19)
(-0.209514 0.700789 6.77301e-21)
(-0.0617632 0.130156 -1.9066e-20)
(-0.126697 0.426029 3.22711e-20)
(-0.140286 0.624401 5.35302e-20)
(-0.122132 0.722647 1.17791e-19)
(-0.0840487 0.761024 -3.34621e-20)
(-0.0353085 0.0365609 -6.34435e-20)
(-0.110957 0.186466 -8.29301e-20)
(-0.149468 0.355661 -1.43847e-19)
(-0.0714466 0.452148 -2.1753e-20)
(-0.0609593 0.664835 -4.60245e-19)
(-0.715917 0.426114 -5.58758e-19)
(-0.0370294 -0.0263736 1.05839e-18)
(0.462039 -0.437969 1.38358e-19)
(0.697841 -0.463363 -1.27291e-19)
(0.944826 -0.266871 8.73203e-22)
(-0.534892 0.37763 2.22606e-19)
(0.493843 -0.207258 -2.13819e-19)
(0.850557 -0.521129 1.22609e-19)
(1.0225 -0.514114 2.18011e-19)
(1.07791 -0.289489 3.71706e-20)
(-0.113728 0.268359 -7.06662e-20)
(0.985966 -0.369251 1.10932e-18)
(1.19634 -0.590835 -9.91248e-20)
(1.31282 -0.53384 1.79172e-19)
(1.22541 -0.288647 -1.69575e-22)
(0.304261 0.212043 2.61714e-19)
(1.43102 -0.486163 -1.60363e-19)
(1.49016 -0.63804 6.44924e-21)
(1.50074 -0.535442 -1.42295e-19)
(1.33154 -0.274004 9.14054e-20)
(0.704393 0.0236061 -1.50413e-19)
(1.81497 -0.577438 -1.14989e-19)
(1.78063 -0.643674 0)
(1.63995 -0.510128 6.69968e-20)
(1.38761 -0.249418 3.01853e-20)
(1.75909 -0.0561376 -3.6167e-19)
(2.30717 -0.55226 3.62135e-21)
(2.0998 -0.584896 -2.33128e-20)
(1.76999 -0.437007 9.23106e-20)
(1.40848 -0.210069 -7.65548e-20)
(2.40412 -0.146707 2.82808e-21)
(2.49471 -0.598746 7.5568e-19)
(2.07709 -0.509904 -1.67564e-20)
(1.61525 -0.266524 -1.4572e-19)
(1.24808 -0.111252 0)
(2.42038 -0.148911 -2.85785e-19)
(2.26299 -0.417824 2.70276e-21)
(1.8768 -0.317226 -1.09229e-20)
(1.61372 -0.143731 7.35201e-20)
(1.26975 -0.0614467 -4.43286e-20)
(2.30954 -0.134552 9.3786e-20)
(1.99282 -0.357636 2.02731e-19)
(1.43884 -0.259051 -2.13336e-20)
(1.14481 -0.0400551 -5.50511e-34)
(0.958174 0.0172515 4.11494e-20)
(1.5397 -0.0814577 1.29888e-19)
(0.910166 -0.0553919 5.83133e-20)
(0.392381 0.010488 -1.66506e-20)
(0.295594 0.0251321 -1.5457e-20)
(0.350974 0.00884412 5.9419e-21)
(2.39782 0.278533 -7.09529e-19)
(2.63975 0.0573002 -9.12593e-19)
(2.4635 0.160572 4.84891e-19)
(2.75389 -0.0421965 1.18357e-19)
(1.97676 0.21136 2.43361e-21)
(2.11863 0.199622 7.84169e-20)
(2.49303 0.012971 -3.4452e-20)
(2.26356 0.0668853 -1.23896e-19)
(2.57007 -0.085386 -1.96492e-19)
(2.37181 -0.10814 -5.37902e-21)
(2.12428 0.0952656 7.77752e-20)
(2.28497 0.0142141 7.53048e-20)
(2.23544 -0.00705239 -8.96605e-20)
(2.33039 -0.0521258 3.44146e-20)
(2.33548 -0.111651 -1.17911e-20)
(2.07406 0.0296925 1.10583e-19)
(2.12174 -0.00554969 1.57613e-19)
(2.1619 -0.0223149 -1.79444e-20)
(2.19512 -0.0420097 -7.15351e-20)
(2.23523 -0.0743063 3.13612e-20)
(1.53556 -0.00737313 1.79634e-19)
(1.51365 -0.0143025 -1.06195e-20)
(1.55549 -0.0151074 1.68043e-20)
(1.53313 -0.022381 -3.19913e-20)
(1.56482 -0.0243018 -1.11957e-20)
(1.54632 0.812903 1.11412e-18)
(1.49782 0.907865 -3.69358e-19)
(1.49227 1.03571 -1.32056e-18)
(1.41663 1.07858 6.97081e-19)
(0.858102 0.760554 -1.57382e-19)
(1.82143 0.791959 -5.63154e-19)
(1.78768 0.863105 -2.91622e-18)
(1.79129 0.96143 -1.10582e-18)
(1.69246 0.967357 -3.84892e-19)
(1.02401 0.667892 -6.19529e-19)
(2.14585 0.648232 7.17798e-19)
(2.1137 0.716885 1.89443e-19)
(2.07228 0.805822 -2.14844e-18)
(1.93319 0.795364 -6.00824e-19)
(1.1351 0.523737 4.47481e-19)
(2.29745 0.550734 2.10796e-18)
(2.28238 0.60224 1.55451e-18)
(2.27593 0.649462 -1.81368e-18)
(2.04924 0.607242 -1.3605e-18)
(1.11619 0.349558 -2.51987e-19)
(2.47123 0.399331 1.01365e-18)
(2.46511 0.420081 -7.47329e-19)
(2.3435 0.448584 5.30503e-19)
(2.01117 0.396155 4.2099e-19)
(0.931412 0.155274 -3.51122e-19)
(0.57367 0.488522 -6.06975e-19)
(0.483345 0.520583 -4.6329e-19)
(0.366047 0.550094 5.18006e-20)
(0.228001 0.546845 -5.2201e-21)
(0.0569418 0.38682 8.00933e-20)
(0.664315 0.648503 1.03637e-19)
(0.599552 0.702765 -2.73408e-19)
(0.512664 0.766974 1.76064e-19)
(0.391153 0.819179 -8.23303e-20)
(0.171511 0.616539 1.16634e-19)
(0.765969 0.853333 1.19793e-19)
(0.691157 0.930262 4.50012e-19)
(0.63411 1.01887 1.13501e-19)
(0.549217 1.04386 -2.96995e-19)
(0.299999 0.755367 2.48609e-19)
(1.03243 0.90954 2.13009e-19)
(0.985233 0.982708 -6.80352e-19)
(0.936098 1.07447 -1.84216e-18)
(0.854648 1.13458 7.29561e-19)
(0.501203 0.830148 -1.55857e-19)
(1.07989 0.967946 -8.45725e-20)
(1.1201 1.08174 -1.57936e-19)
(1.14705 1.18409 -3.65584e-19)
(1.09087 1.18797 -4.00403e-19)
(0.665251 0.828812 -6.24076e-21)
(0.972848 0.0333664 -9.09905e-20)
(1.02845 0.0321874 -2.69265e-20)
(1.03788 0.126445 -2.10734e-21)
(0.963747 0.145708 -1.88402e-19)
(0.896325 0.317971 2.94857e-19)
(0.967842 0.0280137 5.87135e-20)
(1.04233 0.0321661 1.04391e-19)
(1.01887 0.130957 1.24504e-19)
(1.00838 0.178208 2.81245e-20)
(0.931028 0.397633 -2.05382e-20)
(0.975976 0.0250178 7.74637e-20)
(1.02395 0.0251299 -4.17888e-21)
(1.06772 0.152576 -1.74956e-21)
(0.953151 0.168148 1.23072e-19)
(1.15331 0.551968 -5.06159e-19)
(0.975062 0.0220356 -7.8231e-22)
(1.03502 0.0194666 -1.4589e-19)
(1.05656 0.166113 -6.03019e-20)
(1.0566 0.170917 -3.09116e-19)
(1.13294 0.614761 8.34604e-20)
(0.978205 0.0166279 -1.41007e-20)
(1.02595 0.0202104 3.92965e-20)
(1.10292 0.168641 2.67947e-20)
(1.01501 0.205669 4.15113e-19)
(1.37639 0.739341 -4.90552e-19)
(0.963084 0.016749 -9.38361e-21)
(1.05679 0.000911253 8.62829e-20)
(1.09096 0.196112 -6.05824e-20)
(1.2413 0.109429 9.10381e-19)
(1.27031 0.817065 -3.17503e-19)
(0.954421 -0.00303852 -1.58691e-21)
(1.09276 -0.00483459 -7.64943e-20)
(1.06265 0.119771 4.00512e-21)
(1.3234 0.131963 -2.55274e-19)
(1.16991 0.58661 -9.50095e-20)
(0.971854 -0.0112234 2.38204e-21)
(1.08212 -0.0118336 1.2535e-35)
(1.09544 0.0865726 -1.54541e-20)
(1.2618 0.110717 9.04936e-20)
(1.33371 0.409323 1.76784e-19)
(1.00689 -0.0440231 4.20055e-21)
(1.00988 -0.0263638 -2.37935e-20)
(1.14496 0.0273928 1.62897e-20)
(1.13301 0.0696734 2.04946e-20)
(1.56978 0.248693 -2.79124e-19)
(0.929896 -0.0223535 -3.85344e-20)
(0.82978 -0.0243786 -1.91259e-21)
(0.879055 0.000888678 2.21714e-20)
(0.813083 0.00804276 -2.07157e-20)
(1.23129 0.0629439 -6.44786e-20)
(1.80126 0.596756 2.59745e-19)
(1.87537 0.650229 7.22434e-19)
(2.16667 0.477859 -1.01848e-18)
(2.20752 0.48436 -3.93989e-20)
(2.45346 0.269092 4.50779e-19)
(1.75926 0.346328 1.03312e-19)
(1.73704 0.420586 9.44131e-19)
(2.04536 0.275512 1.36911e-19)
(1.95355 0.325998 -9.06516e-19)
(2.3127 0.135013 -2.56409e-19)
(1.75374 0.245164 -2.33419e-19)
(1.82355 0.258608 -1.49074e-19)
(1.99053 0.176239 1.20409e-19)
(1.99103 0.188567 -2.83477e-19)
(2.17571 0.0893834 2.58218e-19)
(1.76861 0.134918 3.97839e-19)
(1.86488 0.128598 -5.28814e-21)
(1.91374 0.0815757 2.18631e-19)
(1.97662 0.0818665 1.95257e-19)
(2.02676 0.0345505 -1.88567e-19)
(1.38284 0.0325835 -4.96703e-20)
(1.45902 0.0238804 2.50593e-19)
(1.45859 0.0107201 1.11246e-19)
(1.50747 0.00603925 -2.21374e-19)
(1.48901 -0.00487303 -2.65857e-23)
(1.16708 -0.0203485 6.86001e-20)
(2.17215 -0.0371163 -4.42953e-19)
(2.40066 -0.0296263 1.18978e-18)
(2.37728 0.0108873 5.24547e-19)
(2.21962 0.0340068 -3.73726e-19)
(0.749925 0.0992073 1.2966e-19)
(1.95394 0.0984029 -4.49693e-19)
(2.39905 0.102259 -6.15371e-19)
(2.45131 0.106769 7.65236e-19)
(2.19474 0.0974138 -5.13017e-19)
(0.258599 0.0891765 -1.67103e-20)
(1.34265 0.166201 4.84387e-19)
(2.07109 0.187621 6.56812e-20)
(2.43013 0.182321 4.79106e-19)
(2.58036 0.16528 1.83762e-19)
(-0.00975956 -0.0056762 1.9186e-19)
(0.534684 0.104385 1.9357e-19)
(1.31503 0.180378 -4.28511e-19)
(1.80618 0.207625 2.51267e-20)
(2.33986 0.236371 8.7819e-20)
(-0.0844605 -0.0689932 1.34086e-19)
(0.0449691 -0.0290641 -1.4895e-19)
(0.493893 0.0581539 -3.02955e-20)
(0.966173 0.103937 5.53863e-20)
(1.39145 0.173679 -3.72841e-21)
(-0.0748513 -0.0828629 1.29356e-20)
(-0.0918927 -0.114756 6.91798e-20)
(0.0424459 -0.0901062 5.09075e-20)
(0.264457 -0.0287224 -9.37155e-20)
(0.642187 0.054574 4.30816e-21)
(-0.0572058 -0.0995996 -2.32896e-20)
(-0.0857629 -0.17914 -1.86214e-20)
(-0.0563751 -0.187862 1.03974e-20)
(0.0178197 -0.144645 4.44932e-21)
(0.177408 -0.0553477 1.34753e-20)
(-0.0550009 -0.154062 -3.63171e-20)
(-0.0833326 -0.250753 -2.48294e-19)
(-0.0795898 -0.250626 1.90053e-19)
(-0.0595076 -0.207061 6.28848e-19)
(-0.0143411 -0.144116 -9.87723e-20)
(-0.0435749 -0.131748 2.69493e-20)
(-0.120432 -0.165432 2.25824e-19)
(-0.187739 -0.130168 -6.87092e-19)
(-0.242885 -0.0738047 -4.72556e-19)
(-0.264936 -0.0102645 9.05788e-20)
(-0.0241796 0.0123472 -1.20412e-20)
(-0.13805 0.067253 4.86378e-20)
(-0.250914 0.105618 -1.81848e-20)
(-0.349798 0.143213 -2.01878e-20)
(-0.41698 0.186611 8.39351e-20)
(1.37538 0.477438 -2.92341e-20)
(1.00209 0.197412 7.46257e-19)
(0.903853 -0.036353 -9.86558e-20)
(0.841253 -0.0589499 -1.26392e-19)
(0.966227 -0.0126921 1.78138e-21)
(1.10976 0.374724 8.96636e-20)
(0.538887 0.213158 -6.4127e-20)
(0.422648 0.0121758 -2.10316e-19)
(0.485734 -0.0764798 -1.529e-20)
(0.836846 -0.0458929 -2.5028e-20)
(0.477619 0.313692 1.33927e-19)
(-0.190354 0.276436 2.1569e-19)
(0.147601 -0.0482122 5.31246e-20)
(0.354813 -0.173875 7.00698e-20)
(0.8031 -0.102614 -1.25908e-21)
(-0.195725 0.382377 4.88387e-20)
(-0.563102 0.256217 -1.5228e-18)
(0.129235 -0.17233 -1.33368e-19)
(0.369775 -0.269437 6.21845e-21)
(0.81985 -0.163197 2.21253e-20)
(-0.609565 0.423045 4.28072e-20)
(-0.466007 0.146691 -1.22119e-19)
(0.210733 -0.323736 1.35987e-19)
(0.471651 -0.375281 -3.23448e-20)
(0.862434 -0.220949 3.37085e-20)
(0.605922 0.129992 -7.52334e-20)
(-0.0117085 -0.0447675 0)
(0.126957 -0.0740992 -4.04987e-20)
(0.271464 -0.0467534 1.86388e-20)
(0.429034 -0.0226149 5.13264e-21)
(1.91253 0.392019 0)
(1.20523 0.215573 0)
(1.09403 -0.00509782 3.43037e-19)
(1.12917 -0.0524818 5.32571e-20)
(1.09008 -0.0224931 -4.48918e-21)
(0.71278 0.000830706 -1.29928e-19)
(0.781749 -0.00163509 3.23452e-19)
(0.896147 -0.00794048 -1.2632e-20)
(1.04933 0.0125474 2.54653e-19)
(1.29175 0.0667659 1.61348e-19)
(1.61462 0.0226482 1.24718e-19)
(1.74639 0.076828 3.61707e-19)
(1.90265 0.0557195 -1.69554e-19)
(2.46009 0.170915 1.66848e-20)
(2.12693 0.152719 1.23934e-19)
(0.87895 -0.456505 -1.88209e-20)
(0.865552 -0.544582 -1.64756e-19)
(0.856316 -0.640929 -1.10683e-19)
(0.78802 -0.708584 6.71346e-20)
(0.48104 -0.55804 1.27995e-19)
(0.781189 -0.357446 1.15203e-19)
(0.7276 -0.42071 2.23207e-19)
(0.657157 -0.491288 -4.82267e-20)
(0.548301 -0.553389 1.38741e-19)
(0.299459 -0.444745 5.37376e-20)
(0.633875 -0.218775 -1.29094e-19)
(0.551153 -0.257282 -5.23924e-20)
(0.452069 -0.304771 9.92801e-20)
(0.332437 -0.345965 -1.69612e-20)
(0.145797 -0.28032 -1.18963e-19)
(0.542397 0.00870026 -4.07015e-19)
(0.45755 -0.00592587 -3.36718e-19)
(0.34712 -0.0272686 2.72014e-19)
(0.218572 -0.0552956 1.64202e-19)
(0.0577942 -0.0656406 1.30623e-20)
(0.505573 0.216481 -1.49222e-19)
(0.417575 0.219525 -1.5229e-19)
(0.301745 0.224221 -6.15297e-20)
(0.170152 0.229186 1.89233e-20)
(0.0229464 0.163261 9.88839e-21)
(1.97995 -0.0359292 7.83664e-19)
(2.23899 -0.0997718 2.55239e-19)
(2.31093 -0.180937 -6.90144e-19)
(2.16953 -0.208484 -1.45994e-18)
(1.31388 -0.184788 1.26746e-19)
(1.96062 -0.117594 1.31229e-18)
(2.04595 -0.225316 1.74652e-18)
(2.06524 -0.343911 1.48809e-19)
(1.98664 -0.402445 2.64634e-19)
(1.2781 -0.354955 -1.74966e-19)
(1.6776 -0.273503 -3.36703e-18)
(1.74052 -0.387297 3.48456e-19)
(1.7822 -0.508175 1.06175e-18)
(1.722 -0.58257 -3.91569e-19)
(1.12133 -0.495294 6.30871e-19)
(1.47034 -0.39096 7.94352e-19)
(1.4826 -0.485784 -2.1345e-18)
(1.46669 -0.600312 -2.41658e-18)
(1.39879 -0.685941 7.36124e-19)
(0.904751 -0.566647 5.15861e-19)
(1.18364 -0.443696 1.65179e-19)
(1.13665 -0.534396 2.48885e-19)
(1.12587 -0.653283 -3.72079e-19)
(1.07265 -0.738968 -4.47572e-19)
(0.681438 -0.589221 -4.1374e-21)
(0.996835 0.0395381 6.44103e-21)
(1.0055 0.0692848 -1.21523e-21)
(1.09788 0.0819259 -7.46717e-22)
(0.815917 -0.00515553 -2.25497e-19)
(1.06319 -0.185055 -1.64836e-20)
(1.00513 0.0417487 -2.47432e-21)
(0.982247 0.0617047 3.69313e-20)
(1.11998 0.105413 -2.15966e-20)
(0.89236 0.0399528 1.81864e-19)
(0.96137 -0.0716968 -2.58107e-21)
(1.00864 0.0387709 -5.55825e-20)
(0.969112 0.0526241 -1.01428e-22)
(1.11301 0.10739 -1.16625e-20)
(0.906329 0.0712566 8.77718e-20)
(0.922041 -0.0132139 -2.074e-19)
(0.998627 0.0389009 7.06863e-20)
(0.985761 0.0425532 3.48221e-21)
(1.07927 0.112304 2.67761e-20)
(0.941341 0.102313 -3.33884e-20)
(0.850131 0.0977798 8.07497e-20)
(0.982573 0.0360006 1.72973e-20)
(1.01445 0.0390255 -2.54739e-20)
(1.04218 0.113189 3.87813e-20)
(0.971814 0.135238 4.57165e-20)
(0.832957 0.20104 -9.83439e-20)
(0.880289 0.0332897 0)
(0.754828 0.0304081 1.08246e-20)
(0.552042 0.019242 4.20752e-21)
(0.418159 -0.0100669 4.59899e-20)
(0.677417 -0.0430988 -1.51815e-19)
(0.97979 0.0622982 -6.08425e-20)
(1.02538 0.0863521 -9.20641e-21)
(0.960697 0.0731864 -4.8394e-20)
(0.839179 -0.0146332 -1.29438e-19)
(1.00327 -0.172123 -1.6094e-19)
(0.921773 -0.0613236 -3.3653e-20)
(1.00399 -0.030193 5.1702e-19)
(1.08748 0.0365448 3.06917e-19)
(0.962127 0.0516997 3.3015e-20)
(0.745731 0.0273888 0)
(1.26851 -0.296602 3.26466e-19)
(1.38104 -0.264242 1.45022e-18)
(1.54942 -0.148766 -1.5753e-18)
(1.64491 -0.0198465 -4.85295e-19)
(1.54391 0.0284154 3.71829e-19)
)
;

boundaryField
{
    left
    {
        type            fixedValue;
        value           uniform (1 0 0);
    }
    right
    {
        type            zeroGradient;
    }
    down
    {
        type            noSlip;
    }
    up
    {
        type            noSlip;
    }
    cylinder
    {
        type            noSlip;
    }
    defaultFaces
    {
        type            empty;
    }
}


// ************************************************************************* //
