# Selection   : all
# Cells       : 440
# Volume      : 7.374263e+01
# Time        	minMag(U)
9.925         	1.434626e-02
9.97          	9.600434e-03
