/*--------------------------------*- C++ -*----------------------------------*\
  =========                 |
  \\      /  F ield         | OpenFOAM: The Open Source CFD Toolbox
   \\    /   O peration     | Website:  https://openfoam.org
    \\  /    A nd           | Version:  13
     \\/     M anipulation  |
\*---------------------------------------------------------------------------*/
FoamFile
{
    format      ascii;
    class       volScalarField;
    location    "0.655";
    object      p;
}
// * * * * * * * * * * * * * * * * * * * * * * * * * * * * * * * * * * * * * //

dimensions      [0 2 -2 0 0 0 0];

internalField   nonuniform List<scalar> 
1800
(
5.74597
7.85308
10.0059
11.4343
12.2687
12.6793
12.8103
12.6528
11.4066
7.31443
9.59565
12.0714
14.5763
16.2603
17.3169
17.9796
18.4343
18.6734
17.9489
15.2711
15.9881
18.6128
21.2855
23.1488
24.409
25.2908
25.9416
26.3249
25.8537
24.0227
24.9833
27.5527
30.2011
32.1156
33.4809
34.49
35.2524
35.7044
35.2983
33.6136
36.042
38.4028
40.8551
42.6666
43.9911
44.9872
45.7418
46.1911
45.8409
44.2854
48.7189
50.7714
52.9151
54.5214
55.7124
56.6146
57.2969
57.7075
57.4263
56.0669
62.6674
64.3402
66.0959
67.4278
68.4299
69.1995
69.791
70.1679
69.9928
68.9041
77.5932
78.8348
80.1459
81.1552
81.9311
82.545
83.0391
83.3939
83.3606
82.6241
93.2114
93.9911
94.8226
95.4775
96.0003
96.4378
96.8206
97.144
97.2542
96.9197
109.24
109.545
109.877
110.151
110.389
110.61
110.827
111.041
111.202
111.229
-0.605114
-0.857692
-0.634938
-0.220254
0.252289
0.720105
1.07977
1.29077
1.43582
1.58244
-0.480992
-0.996314
-1.10572
-0.899462
-0.475436
-0.0513017
0.24162
0.484203
0.764249
1.03769
0.518395
-0.448853
-1.28062
-1.44617
-1.1192
-0.813204
-0.599378
-0.294021
0.113242
0.499103
0.911303
-0.229927
-1.42751
-1.76594
-1.5458
-1.392
-1.2667
-0.961453
-0.504493
0.00337566
0.480349
-0.487559
-1.42769
-1.71888
-1.66179
-1.67236
-1.63574
-1.37399
-0.882786
-0.188608
-0.222715
-0.739627
-1.14008
-1.26966
-1.29038
-1.35575
-1.34819
-1.13985
-0.615413
0.316969
-0.557536
-0.519813
-0.343371
-0.197433
-0.112966
-0.0926192
-0.0543958
0.115256
0.692883
1.92289
-0.0737999
0.512497
1.23342
1.7378
2.06726
2.28038
2.4297
2.64621
3.37669
5.03883
1.37361
2.48155
3.72995
4.6514
5.32135
5.81361
6.15357
6.49267
7.47941
9.76682
3.61557
5.25845
7.07661
8.45252
9.47522
10.2354
10.7577
11.2107
12.2717
14.4348
2.3003
2.43945
2.33266
2.08804
1.58523
1.18254
0.857514
0.583495
0.351306
0.133231
1.95122
2.41625
2.22867
2.00478
1.50193
1.10341
0.80746
0.566723
0.353306
0.138545
1.47364
2.38701
2.12761
1.91279
1.42666
1.03667
0.762398
0.548779
0.351674
0.14193
0.848986
2.30465
2.02772
1.80687
1.35137
0.977434
0.723475
0.532368
0.344964
0.141997
0.154928
2.12888
1.91733
1.68474
1.27039
0.921749
0.689256
0.517494
0.339013
0.141822
-0.417762
1.85008
1.77904
1.54482
1.18021
0.867236
0.658396
0.5039
0.336693
0.142793
-0.567252
1.50175
1.59961
1.38459
1.07866
0.812165
0.630282
0.491789
0.338186
0.144488
0.161331
1.17255
1.36999
1.19515
0.962034
0.754326
0.604076
0.481805
0.33854
0.144367
2.41771
1.03624
1.06948
0.951908
0.82175
0.690772
0.578624
0.472545
0.33125
0.136949
6.65266
1.40523
0.712231
0.634551
0.650123
0.619899
0.55321
0.458264
0.316649
0.124601
9.97914
2.576
0.688899
0.39294
0.473084
0.540474
0.518514
0.431146
0.291003
0.106268
11.7643
2.57163
0.265969
0.0573257
0.356296
0.505062
0.482755
0.387113
0.251928
0.0790488
12.8622
2.77679
0.39451
0.151013
0.467815
0.565729
0.482662
0.355356
0.213803
0.0503773
14.1828
4.36372
1.27897
0.725203
0.787828
0.714557
0.523621
0.340524
0.180994
0.0222051
16.3595
7.10803
2.70018
1.59043
1.24031
0.93288
0.606879
0.34719
0.157902
-0.00236757
19.25
9.87403
4.33413
2.55719
1.7715
1.20106
0.723972
0.375652
0.147621
-0.0204662
21.7543
11.9359
5.85213
3.51776
2.3383
1.49856
0.863572
0.422978
0.15122
-0.0300283
23.0334
13.1189
7.0492
4.41793
2.91224
1.81118
1.01713
0.485456
0.168392
-0.0299513
22.9733
13.4979
7.90981
5.26515
3.50165
2.14677
1.19087
0.566893
0.202757
-0.0184703
22.4205
13.7229
8.68111
6.12615
4.12786
2.52542
1.40692
0.684552
0.27303
0.0099642
111.785
97.8397
84.0749
71.0696
59.1302
48.35
38.7685
30.0918
20.0805
4.97537
112.765
99.4773
85.9765
72.97
60.9268
50.046
40.5128
32.2547
23.5896
11.4764
113.297
100.212
87.3315
75.0051
63.4663
52.8743
43.4444
35.2556
27.4693
18.3352
114.51
102.769
90.8103
78.9794
67.6227
57.0274
47.3943
38.7938
31.087
23.8239
115.087
104.075
93.1547
82.4636
72.1165
62.1921
52.7296
43.8191
36.0008
29.8219
115.436
104.709
94.2022
84.0404
74.3197
65.0903
56.331
48.0896
41.0479
36.0309
115.668
105.108
94.7969
84.8647
75.4219
66.5415
58.2326
50.5651
44.2111
40.0916
115.768
105.247
94.98
85.1085
75.7544
67.0085
58.9046
51.5113
45.3945
41.4348
115.718
105.032
94.6056
84.5864
75.1072
66.2746
58.1445
50.7751
44.5512
40.0984
115.594
104.647
93.9596
83.6821
73.9566
64.9064
56.6116
49.1169
42.6079
37.413
234.122
229.759
228.192
227.75
227.659
227.911
228.645
230.026
232.177
234.316
225.56
222.541
221.492
221.453
221.678
222.163
223.094
224.701
227.173
229.649
216.046
213.871
213.099
213.223
213.655
214.358
215.483
217.253
219.867
222.465
205.74
203.712
203.008
203.204
203.748
204.577
205.801
207.61
210.179
212.698
194.416
192.507
191.852
192.04
192.572
193.384
194.561
196.255
198.609
200.9
182.05
180.325
179.731
179.873
180.326
181.037
182.073
183.551
185.58
187.545
168.704
167.241
166.748
166.85
167.206
167.779
168.618
169.811
171.438
173.009
154.57
153.453
153.098
153.176
153.432
153.844
154.451
155.313
156.484
157.612
139.961
139.247
139.04
139.089
139.234
139.469
139.82
140.321
141.003
141.659
125.436
125.092
124.952
124.905
124.892
124.914
124.981
125.1
125.278
125.454
246.549
246.788
247.04
247.257
247.556
248.056
248.607
248.944
248.95
248.437
246.625
246.956
247.359
247.664
247.864
248.199
248.623
248.538
247.723
246.703
246.637
247.033
247.478
247.789
247.872
248.003
248.284
247.924
246.536
245.281
246.517
247.019
247.449
247.68
247.613
247.499
247.535
247.112
245.817
244.659
246.025
246.68
247.069
247.175
246.997
246.72
246.543
246.184
245.374
244.584
244.818
245.661
245.998
245.962
245.731
245.447
245.251
245.079
244.839
244.553
242.472
243.569
243.907
243.792
243.582
243.417
243.383
243.514
243.821
244.061
238.588
240.074
240.543
240.477
240.393
240.445
240.682
241.177
241.99
242.729
233.114
235.169
235.878
235.945
236.071
236.417
237.005
237.91
239.214
240.426
227.76
229.625
230.37
230.537
230.844
231.461
232.403
233.754
235.601
237.309
246.941
246.72
246.682
246.489
246.42
246.3
245.924
245.669
245.568
245.715
246.9
246.719
246.678
246.492
246.419
246.309
245.934
245.652
245.378
245.737
246.873
246.715
246.669
246.487
246.411
246.31
245.935
245.6
245.143
245.822
246.854
246.708
246.656
246.475
246.397
246.306
245.926
245.51
244.926
246.009
246.842
246.698
246.64
246.456
246.377
246.293
245.901
245.402
244.793
246.247
246.836
246.687
246.622
246.432
246.353
246.268
245.865
245.309
244.767
246.355
246.834
246.672
246.601
246.406
246.324
246.231
245.829
245.258
244.813
246.022
246.837
246.654
246.58
246.376
246.29
246.189
245.812
245.261
244.834
244.784
246.846
246.632
246.556
246.344
246.254
246.158
245.843
245.336
244.655
242.008
246.863
246.608
246.527
246.31
246.222
246.156
245.945
245.461
243.976
237.292
246.901
246.582
246.486
246.254
246.158
246.085
245.873
245.131
242.442
233.741
247.017
246.563
246.449
246.204
246.103
246.125
246.071
245.332
242.177
231.798
247.258
246.569
246.412
246.128
246.026
246.088
246.066
245.238
241.885
230.534
247.71
246.625
246.383
246.044
245.888
245.821
245.618
244.536
240.482
229.316
248.548
246.691
246.406
245.952
245.677
245.312
244.744
243.228
238.01
227.461
250.384
246.757
246.513
245.88
245.385
244.649
243.656
241.568
235.375
224.914
254.263
247.069
246.667
245.821
245.03
243.935
242.558
239.955
233.31
222.584
262.568
248.207
246.942
245.777
244.657
243.246
241.556
238.665
232.071
221.328
280.129
250.942
247.592
245.811
244.303
242.594
240.648
237.734
231.628
221.357
306.099
254.989
249.097
246.024
244.013
241.973
239.763
236.918
231.357
221.885
236.417
221.067
210.445
201.13
190.969
179.665
167.27
153.898
139.852
125.722
230.028
217.734
208.582
199.86
189.923
178.685
166.338
153.087
139.364
125.89
223.495
214.13
205.951
197.424
187.709
176.869
165.116
152.616
139.598
126.42
218.381
210.873
202.881
194.032
184.189
173.424
161.931
149.988
137.925
126.091
212.984
206.59
198.597
189.503
179.833
169.696
159.145
148.278
137.222
126.129
207.385
202.089
194.829
186.359
177.36
167.905
157.985
147.663
137.042
126.255
203.59
199.15
192.561
184.664
176.131
167.045
157.424
147.349
136.938
126.328
202.309
198.05
191.705
184.092
175.779
166.843
157.324
147.32
136.961
126.392
203.635
198.92
192.47
184.885
176.553
167.537
157.9
147.754
137.239
126.507
206.309
200.874
194.137
186.426
177.931
168.699
158.816
148.412
137.636
126.643
112.187
112.357
112.441
112.292
111.785
111.425
111.24
111.525
111.517
111.268
89.6119
90.0752
90.2939
89.8603
88.4283
87.3419
86.721
87.3826
87.4202
86.8337
68.7688
69.3965
69.6579
68.9911
67.0517
65.34
64.3198
64.8685
65.1729
64.6177
50.6511
51.2576
51.4472
50.6241
48.645
46.4789
45.1489
45.1843
45.9227
45.6893
36.0058
36.4143
36.4646
35.5832
33.7914
31.4754
29.8316
29.2664
30.074
30.2616
24.9535
25.057
24.935
24.0118
22.4343
20.4049
18.614
17.6724
17.9275
18.4275
17.067
16.9167
16.7018
15.7109
14.2965
12.7932
11.3056
10.2407
9.90093
10.2674
11.58
11.403
11.3546
10.3552
9.03637
8.03449
7.1428
6.29989
5.71146
5.62772
7.90591
7.81768
8.11372
7.24593
6.07994
5.48941
5.16047
4.77577
4.29184
3.91219
6.03724
5.83229
6.21778
5.48002
4.61067
4.33456
4.35846
4.34903
4.19644
3.80054
5.27038
5.03354
5.11591
4.42161
3.88934
3.83305
3.9827
4.12536
4.24646
4.30316
4.84354
4.73443
4.45706
3.79069
3.50469
3.5918
3.79484
3.96236
4.08211
4.16839
4.4653
4.42056
3.9888
3.43813
3.3179
3.4805
3.70508
3.88375
4.00172
4.06209
4.01116
3.95626
3.55018
3.19863
3.20833
3.41134
3.6241
3.78134
3.8799
3.92124
3.46363
3.37044
3.09713
2.97713
3.0937
3.31035
3.50038
3.63795
3.71922
3.74297
2.81301
2.71876
2.6591
2.74913
2.94567
3.15001
3.31579
3.43521
3.50213
3.51555
2.09005
2.10647
2.24112
2.47555
2.71111
2.90956
3.06478
3.17846
3.24472
3.26016
1.41708
1.53508
1.78628
2.07918
2.33502
2.54929
2.72506
2.86363
2.95109
2.97917
0.740781
0.875813
1.15063
1.47939
1.78896
2.06039
2.29763
2.48239
2.58724
2.62491
0.0685305
-0.0160499
0.219085
0.630495
1.05068
1.43259
1.75665
1.97184
2.07522
2.13843
3.65768
3.70093
3.57023
3.24416
2.59375
1.90636
1.3163
0.845149
0.456152
0.0967593
3.73036
3.67485
3.51975
3.22814
2.55432
1.85038
1.26407
0.807227
0.433788
0.0953902
3.75685
3.5689
3.40809
3.17406
2.51034
1.79758
1.21455
0.771579
0.413809
0.0957436
3.71785
3.39268
3.25543
3.07172
2.45312
1.74624
1.16775
0.738342
0.396322
0.0973159
3.61012
3.18456
3.08727
2.91847
2.37079
1.69185
1.12298
0.707521
0.381403
0.100113
3.44678
2.98682
2.92677
2.7346
2.25704
1.63052
1.0801
0.67954
0.369258
0.104113
3.25336
2.8195
2.78315
2.55202
2.1147
1.5586
1.03855
0.654823
0.360069
0.10917
3.04615
2.68248
2.65699
2.39493
1.95898
1.47347
0.997111
0.63348
0.353877
0.115011
2.82358
2.57116
2.54386
2.27042
1.81121
1.37646
0.954133
0.615184
0.350563
0.12124
2.57852
2.48832
2.43744
2.17227
1.686
1.27567
0.907638
0.599035
0.349891
0.127463
5.4189
3.97271
3.27446
2.89515
2.41427
1.8937
1.39461
0.940574
0.539132
0.132086
4.61508
3.75203
3.31055
2.95623
2.4548
1.90243
1.3821
0.921967
0.518479
0.121391
3.94516
3.65998
3.37125
3.02562
2.49406
1.91021
1.37076
0.905336
0.502578
0.112476
3.62531
3.66038
3.45663
3.10587
2.53522
1.91775
1.35978
0.889764
0.488816
0.105597
3.61058
3.70352
3.55834
3.19825
2.5811
1.92549
1.34783
0.873566
0.475457
0.100606
112.017
88.9501
67.8987
50.1268
36.1118
25.7913
18.6212
13.7457
10.5637
8.74954
111.796
88.3877
67.1924
49.3924
35.3095
24.7871
17.3175
12.2121
9.06928
7.56914
111.61
87.9074
66.5542
48.6518
34.3984
23.6144
15.8971
10.6772
7.5326
6.07463
111.4
87.3337
65.7138
47.587
33.0737
22.0203
14.1256
8.89267
5.80722
4.43159
111.146
86.6056
64.5846
46.1139
31.2736
19.9526
11.9569
6.92044
4.43729
3.62145
243.767
243.805
243.924
244.096
244.309
244.318
243.813
243.111
243.215
242.991
243.979
244.051
244.165
244.354
244.624
244.799
244.581
243.931
243.674
243.567
244.175
244.224
244.337
244.533
244.819
245.081
245.055
244.548
244.119
244.069
244.418
244.45
244.548
244.722
244.98
245.269
245.376
245.106
244.719
244.651
244.692
244.71
244.791
244.941
245.156
245.421
245.625
245.628
245.462
245.372
244.984
244.997
245.066
245.188
245.362
245.592
245.863
246.106
246.212
246.201
245.257
245.276
245.358
245.493
245.67
245.9
246.201
246.563
246.867
246.99
245.543
245.56
245.657
245.849
246.103
246.404
246.765
247.178
247.543
247.724
245.923
245.953
246.03
246.252
246.623
247.076
247.582
248.102
248.447
248.409
246.316
246.427
246.528
246.718
247.117
247.687
248.289
248.84
249.192
248.987
136.5
136.241
136.218
136.481
136.263
135.865
135.324
135.152
135.223
135.388
160.951
160.354
160.376
161.013
160.36
159.238
157.774
157.317
157.523
157.981
183.195
182.629
182.916
183.439
182.389
180.643
178.675
177.986
178.235
178.857
202.162
201.916
202.634
202.645
201.287
199.089
197.082
196.238
196.416
197.018
217.633
217.808
218.592
218.004
216.336
213.992
212.17
211.268
211.307
211.712
229.514
229.995
230.225
229.265
227.458
225.401
223.791
222.845
222.712
222.813
237.713
238.049
237.686
236.613
235.121
233.592
232.142
231.125
230.9
230.748
242.368
242.248
241.639
240.805
239.926
238.909
237.555
236.529
236.471
236.293
244.092
243.674
243.18
242.822
242.525
241.939
240.749
239.854
240.14
240.055
244.232
243.806
243.653
243.674
243.746
243.503
242.629
241.868
242.253
242.064
254.846
246.874
247.501
246.286
246.037
245.53
244.996
244.633
244.502
244.54
252.013
246.81
247.315
246.265
246.09
245.593
245.012
244.666
244.579
244.512
250.09
246.817
247.092
246.261
246.146
245.661
245.055
244.76
244.748
244.544
248.903
246.845
246.88
246.28
246.203
245.735
245.137
244.914
244.978
244.65
248.218
246.848
246.742
246.318
246.26
245.818
245.265
245.105
245.219
244.82
247.769
246.806
246.705
246.368
246.312
245.911
245.432
245.293
245.426
245.026
247.454
246.751
246.703
246.411
246.358
246.013
245.608
245.447
245.58
245.236
247.239
246.723
246.696
246.445
246.39
246.118
245.754
245.555
245.678
245.429
247.096
246.717
246.687
246.468
246.405
246.208
245.85
245.623
245.716
245.587
247.002
246.718
246.684
246.481
246.415
246.27
245.901
245.658
245.683
245.682
317.35
253.757
249.91
246.971
246.142
245.571
245.252
244.93
244.237
242.719
295.618
251.368
248.788
246.739
246.06
245.542
245.207
244.9
244.449
243.521
277.177
249.212
248.192
246.566
246.019
245.524
245.157
244.843
244.532
244.194
265.774
247.867
247.868
246.436
246.001
245.512
245.1
244.761
244.522
244.522
259.003
247.137
247.645
246.328
245.998
245.504
245.031
244.658
244.476
244.555
239.299
237.449
234.234
229.326
222.124
211.769
197.719
179.914
158.837
135.756
240.481
238.945
235.771
230.634
223.132
212.575
198.456
180.622
159.401
135.977
241.994
240.497
237.315
232.062
224.311
213.491
199.199
181.262
159.882
136.163
243.656
242.251
239.122
233.848
225.913
214.82
200.266
182.103
160.455
136.373
244.445
243.608
241.105
236.034
227.992
216.625
201.741
183.233
161.183
136.626
)
;

boundaryField
{
    left
    {
        type            zeroGradient;
    }
    right
    {
        type            fixedValue;
        value           uniform 0;
    }
    down
    {
        type            zeroGradient;
    }
    up
    {
        type            zeroGradient;
    }
    cylinder
    {
        type            zeroGradient;
    }
    defaultFaces
    {
        type            empty;
    }
}


// ************************************************************************* //
