/*--------------------------------*- C++ -*----------------------------------*\
  =========                 |
  \\      /  F ield         | OpenFOAM: The Open Source CFD Toolbox
   \\    /   O peration     | Website:  https://openfoam.org
    \\  /    A nd           | Version:  13
     \\/     M anipulation  |
\*---------------------------------------------------------------------------*/
FoamFile
{
    format      ascii;
    class       volScalarField;
    location    "0.655";
    object      strainRateViscosityModel:nu;
}
// * * * * * * * * * * * * * * * * * * * * * * * * * * * * * * * * * * * * * //

dimensions      [0 2 -1 0 0 0 0];

internalField   nonuniform List<scalar> 
1800
(
9.40488
9.1976
9.01006
8.80094
8.57614
8.34413
8.11546
7.89817
7.62423
7.3793
9.58523
9.41878
9.2669
9.09732
8.91116
8.71142
8.50356
8.28867
8.0273
7.70211
9.70219
9.56269
9.42803
9.27096
9.08868
8.87898
8.6409
8.36903
8.03058
7.61062
9.77539
9.65614
9.53324
9.38287
9.20049
8.98171
8.7228
8.41596
8.02878
7.55457
9.82168
9.7183
9.60558
9.46166
9.2807
9.05695
8.78549
8.45888
8.04776
7.55615
9.85185
9.76081
9.6573
9.52059
9.34355
9.11896
8.84034
8.50016
8.07152
7.57021
9.87179
9.78991
9.69398
9.56396
9.39147
9.16769
8.8842
8.53252
8.08735
7.57568
9.88475
9.80924
9.71888
9.59394
9.42494
9.20146
8.91309
8.55005
8.08853
7.56355
9.8926
9.82107
9.73416
9.6122
9.44467
9.21963
8.92484
8.54923
8.07121
7.52871
9.89646
9.82686
9.74153
9.6207
9.45309
9.22573
8.92512
8.53953
8.05038
7.49285
1.7915
1.40534
1.21151
1.32175
1.73032
2.24999
2.49547
2.44922
2.35991
2.33616
3.71979
1.78283
1.49364
1.98139
2.69362
2.97146
2.81849
2.67369
2.68938
2.74234
4.69615
2.57167
2.43707
3.17546
3.59487
3.34721
3.08405
3.12036
3.25963
3.33996
5.26595
3.88295
3.81576
4.21257
4.18019
3.83072
3.72294
3.85618
3.95843
4.00748
6.05463
5.2757
5.118
5.12092
4.91492
4.65399
4.57886
4.61293
4.61339
4.65323
6.95947
6.46004
6.22684
6.03809
5.78822
5.54555
5.3895
5.29381
5.22288
5.27554
7.77163
7.37775
7.11677
6.8602
6.58732
6.32053
6.08733
5.90118
5.77063
5.82426
8.40011
8.05531
7.79199
7.51572
7.22642
6.93114
6.64218
6.3864
6.19248
6.22956
8.84934
8.54537
8.29098
8.01027
7.70564
7.37942
7.03559
6.70114
6.41585
6.42193
9.16164
8.90153
8.66631
8.39664
8.09567
7.76572
7.40642
7.03565
6.7086
6.75253
2.19383
1.72964
1.33223
0.936777
0.618723
0.346575
0.17563
0.122077
0.134701
0.197401
2.5286
1.84934
1.40805
0.933104
0.593522
0.330778
0.162426
0.0845101
0.0769348
0.137819
2.94938
1.97879
1.48096
0.931407
0.559112
0.304603
0.148886
0.065026
0.039549
0.0648615
3.44185
2.1488
1.5525
0.934929
0.520953
0.271757
0.131772
0.0513539
0.0334339
0.0193372
3.984
2.38675
1.62995
0.944196
0.482868
0.23517
0.11191
0.0413533
0.0321844
0.0142457
4.52935
2.69777
1.72615
0.960596
0.447904
0.19675
0.0903834
0.0343353
0.0302533
0.0151693
4.99766
3.05742
1.84798
0.983319
0.416518
0.157772
0.0679982
0.0291253
0.025605
0.0308072
5.31339
3.44037
2.01505
1.02611
0.395491
0.12172
0.0454513
0.024321
0.0193152
0.0990216
5.34385
3.72373
2.16457
1.05803
0.372653
0.0881583
0.0284829
0.0159433
0.0573471
0.17348
5.20255
3.98989
2.40016
1.16177
0.389617
0.0715959
0.0122087
0.0278184
0.124938
0.237085
4.94497
3.94335
2.45701
1.17532
0.364046
0.0510283
0.0182553
0.104339
0.189901
0.312748
5.33106
3.34858
2.14012
0.997411
0.35574
0.131308
0.11226
0.175604
0.275717
0.396687
4.90505
3.04508
2.2462
1.20179
0.58633
0.287894
0.195581
0.247742
0.344672
0.463657
4.54624
3.63073
2.67976
1.63805
0.889528
0.490394
0.330411
0.336318
0.416126
0.520679
5.11377
4.74715
3.34203
2.16315
1.23665
0.726524
0.488995
0.438907
0.487626
0.567343
6.25436
5.66941
4.0571
2.67374
1.5983
0.979959
0.668269
0.556124
0.562949
0.606652
7.2627
6.37374
4.71388
3.15489
1.95759
1.24008
0.856089
0.681979
0.640666
0.640183
8.00012
6.91208
5.26003
3.58936
2.3005
1.50098
1.04901
0.813925
0.721515
0.670721
8.51877
7.33076
5.69749
3.97038
2.6208
1.75447
1.23723
0.942233
0.798545
0.696545
8.93101
7.69121
6.04987
4.28328
2.92546
2.02531
1.4498
1.09165
0.893323
0.730325
6.51282
6.43966
6.43044
6.44876
6.48737
6.52998
6.58204
6.7106
6.89531
6.82639
0.260689
1.05716
2.00777
2.92285
3.70382
4.31647
4.73326
4.98283
5.22196
5.72815
3.85075
3.54384
3.28458
3.11131
3.10637
3.25001
3.47227
3.71348
4.16508
4.84505
6.64419
6.62725
6.53714
6.34468
6.04324
5.65776
5.24943
4.89582
4.73916
4.54909
7.69185
7.67655
7.63213
7.5413
7.39614
7.18986
6.92707
6.61946
6.28589
5.65622
8.44952
8.43312
8.39436
8.32772
8.22958
8.09672
7.92838
7.71684
7.42792
6.90781
8.93968
8.92394
8.89029
8.83679
8.76167
8.66291
8.53816
8.37893
8.15468
7.80863
9.27299
9.25981
9.23246
9.18985
9.13052
9.05245
8.95269
8.82482
8.65282
8.43091
9.50446
9.49417
9.47307
9.44024
9.39426
9.33319
9.25424
9.15287
9.02289
8.87535
9.6899
9.68285
9.66852
9.64604
9.61405
9.5707
9.51361
9.43975
9.34638
9.2441
7.2482
7.52627
7.83695
8.08765
8.34478
8.59959
8.84136
9.06157
9.25458
9.46025
7.58318
7.94809
8.24096
8.4811
8.70932
8.92479
9.12229
9.299
9.45391
9.61806
7.49855
7.95739
8.32594
8.62048
8.87573
9.09772
9.28805
9.44951
9.58536
9.72226
7.44692
7.95762
8.37375
8.70198
8.97657
9.20596
9.39471
9.54806
9.67131
9.78824
7.45635
7.98066
8.4186
8.76489
9.05053
9.28355
9.46977
9.61591
9.72868
9.83022
7.48242
8.01168
8.46401
8.82146
9.11234
9.34474
9.52606
9.66446
9.76796
9.85764
7.50364
8.03786
8.50277
8.86862
9.16197
9.39189
9.56764
9.6989
9.79479
9.8757
7.51114
8.05246
8.52871
8.90209
9.19746
9.42521
9.5964
9.72213
9.81243
9.88729
7.49836
8.05045
8.53742
8.91898
9.21768
9.44503
9.61371
9.73606
9.82289
9.89404
7.48288
8.04358
8.53593
8.92344
9.22525
9.4533
9.62123
9.74217
9.82746
9.89693
2.55622
2.513
2.53127
2.74253
2.92631
2.55242
1.69775
1.18157
1.52247
4.19241
2.96393
2.87566
2.7163
2.71464
3.10405
3.43028
2.82063
1.906
2.12408
5.13389
3.4528
3.40914
3.25118
3.06504
3.26539
3.82389
3.80291
3.16019
3.28739
5.45471
3.9451
3.93419
3.90753
3.79816
3.89092
4.31825
4.58922
4.46705
4.6595
5.91219
4.4983
4.47081
4.54599
4.61732
4.78089
5.11421
5.43828
5.61856
5.8958
6.63061
5.1017
5.05917
5.19862
5.39676
5.65735
5.98058
6.30859
6.59517
6.90047
7.40619
5.65398
5.6177
5.8184
6.09077
6.40786
6.74089
7.06847
7.378
7.67856
8.08639
6.06694
6.05232
6.31526
6.64239
6.99498
7.33975
7.66721
7.97411
8.25888
8.61102
6.26052
6.27938
6.63106
7.0259
7.42008
7.78435
8.11666
8.41664
8.6828
8.98796
6.60024
6.57004
6.95606
7.37948
7.78129
8.14307
8.46649
8.75041
8.993
9.25187
0.110484
0.155637
0.11913
0.0595602
0.0145937
0.38705
0.924295
1.47922
1.94765
2.43052
0.0767523
0.140729
0.114742
0.0606234
0.0145345
0.377748
0.929041
1.5434
2.02806
2.69793
0.0549161
0.132414
0.113027
0.0638789
0.0232382
0.378189
0.937254
1.59522
2.10033
3.00964
0.0419434
0.130588
0.115186
0.0717632
0.0412694
0.38746
0.946007
1.63422
2.20517
3.39713
0.035626
0.134101
0.119752
0.0820133
0.0645558
0.399221
0.951941
1.67128
2.38375
3.86755
0.0348258
0.141624
0.124993
0.0918355
0.0888503
0.409602
0.958553
1.72947
2.65034
4.36461
0.0397267
0.153007
0.12954
0.0990662
0.109353
0.415741
0.970714
1.82529
2.98204
4.79518
0.051175
0.169002
0.133033
0.103826
0.125492
0.426181
1.01238
1.98414
3.34858
5.07968
0.0711893
0.189689
0.135545
0.1024
0.12919
0.427057
1.04946
2.13507
3.62684
5.08274
0.10243
0.212004
0.138669
0.104399
0.144992
0.474108
1.18581
2.39312
3.87667
4.89129
0.159705
0.239947
0.144832
0.101778
0.133945
0.475057
1.24929
2.50581
3.88586
4.67371
0.263167
0.270479
0.134267
0.0773392
0.0715834
0.379995
1.12
2.30344
3.43086
5.19298
0.428072
0.268859
0.102721
0.0155478
0.0148298
0.335122
1.14445
2.34844
3.25539
4.93834
0.6812
0.254678
0.0225955
0.0806625
0.105408
0.532384
1.42768
2.6209
3.71314
4.69754
1.06481
0.0478418
0.259619
0.240588
0.319676
0.887981
1.93183
3.2044
4.70585
5.17669
1.51472
0.120586
0.535878
0.421016
0.601806
1.30691
2.47345
3.91637
5.59836
6.22313
2.19479
0.68431
0.853268
0.694036
0.947672
1.7385
2.99235
4.59331
6.30242
7.21637
3.79213
1.70602
1.27315
1.04112
1.32332
2.15149
3.46186
5.1652
6.85415
7.9688
6.86012
3.5759
1.9625
1.42521
1.68417
2.5259
3.87438
5.63138
7.29521
8.50725
9.04905
6.38376
2.84307
2.00495
2.12007
2.89929
4.22527
6.0194
7.68654
8.93808
6.62483
6.6878
6.51104
6.38922
6.34881
6.3226
6.30559
6.31735
6.36196
6.47626
5.52892
5.01004
4.76618
4.52503
4.12681
3.5408
2.79882
1.93226
1.04477
0.28426
4.85011
4.23691
3.8273
3.61665
3.42978
3.31027
3.31518
3.45749
3.65529
3.87428
4.71183
4.88529
5.02787
5.33753
5.70187
6.05227
6.33391
6.52142
6.61657
6.64162
5.68745
6.28565
6.6122
6.91131
7.17237
7.38149
7.53183
7.62816
7.67672
7.69241
6.86582
7.3886
7.68445
7.90234
8.07661
8.21486
8.31782
8.38857
8.43056
8.44889
7.76513
8.12051
8.35199
8.51792
8.64797
8.751
8.82957
8.88583
8.92164
8.939
8.40455
8.63269
8.80888
8.94093
9.04401
9.12466
9.18596
9.23006
9.25855
9.2726
8.86615
9.01619
9.14761
9.25059
9.33082
9.39283
9.43944
9.47267
9.494
9.50442
9.24867
9.35044
9.44301
9.5163
9.57294
9.61588
9.64748
9.66956
9.68348
9.69012
9.50945
8.98532
8.23586
6.92823
5.59793
0.131166
3.36079
5.96036
7.21406
8.15184
9.4654
8.92154
8.1681
6.89056
5.54935
0.563763
2.62218
5.70599
6.91641
7.91393
9.36567
8.7828
8.02025
6.80958
5.36633
1.60347
1.41354
5.2066
6.30932
7.40328
9.18253
8.5451
7.77447
6.65509
5.18642
2.74001
0.723086
4.23835
5.42154
6.57145
8.86809
8.17356
7.40398
6.37691
5.0265
3.368
0.970947
2.63161
4.31693
5.39377
8.3505
7.62969
6.87337
5.91725
4.76508
3.44002
1.71923
1.30192
3.04929
3.98813
7.53601
6.89656
6.1555
5.22753
4.29965
3.26954
2.14307
1.17246
1.65628
2.55747
6.32535
6.03752
5.28128
4.23187
3.53348
2.91264
2.11842
1.4351
1.0685
1.23547
4.63166
5.23219
4.47429
2.99959
2.43717
2.27455
1.856
1.38471
1.12254
0.659106
2.67273
4.53945
4.02158
1.96678
1.39685
1.4884
1.40987
1.21154
1.06384
0.845
1.27668
3.78871
3.66655
1.3374
0.816251
0.897584
0.970891
0.956006
0.971472
1.0196
0.613428
2.96927
3.08193
0.956748
0.575308
0.639696
0.758988
0.819551
0.84359
0.876621
0.355333
2.1889
2.28497
0.688234
0.49231
0.594715
0.725704
0.810096
0.847952
0.872779
0.2653
1.55019
1.48877
0.521118
0.533734
0.673249
0.78675
0.857813
0.88129
0.891605
0.239667
1.01906
0.845196
0.513147
0.668448
0.802096
0.903326
0.966854
0.982619
0.97958
0.242931
0.493908
0.499315
0.635186
0.816171
0.953645
1.05144
1.10919
1.11978
1.11165
0.177764
0.203989
0.507248
0.755073
0.973466
1.11927
1.20909
1.25622
1.273
1.27357
0.0454521
0.251087
0.648654
0.921688
1.13516
1.25279
1.32897
1.39862
1.45494
1.47663
0.0602605
0.491939
0.821665
1.09572
1.22991
1.33864
1.48857
1.64662
1.73369
1.7493
0.69276
0.863905
1.04067
1.18473
1.32414
1.59685
1.90874
2.07843
2.08073
2.04799
0.362975
0.0803022
0.223297
0.549491
0.792716
0.889185
0.882941
0.830999
0.780992
0.757563
0.461878
0.201767
0.318389
0.520255
0.722216
0.808778
0.80446
0.7591
0.715895
0.706297
0.525334
0.37132
0.438998
0.512459
0.651993
0.729107
0.7277
0.687972
0.650849
0.654041
0.638172
0.586683
0.594178
0.55416
0.586107
0.642355
0.645836
0.614402
0.58501
0.600862
0.804972
0.802104
0.740485
0.636529
0.541002
0.555495
0.562026
0.539988
0.518941
0.546743
1.00832
0.997951
0.873692
0.735798
0.529865
0.474112
0.476746
0.464738
0.452753
0.491662
1.22634
1.16958
0.988644
0.82383
0.551644
0.408212
0.392782
0.389471
0.386812
0.435511
1.45118
1.32399
1.08765
0.886477
0.588216
0.367356
0.314341
0.315248
0.321367
0.378271
1.68405
1.46792
1.1745
0.921968
0.617918
0.352451
0.247906
0.24371
0.257082
0.319554
1.92603
1.6035
1.25467
0.935933
0.628476
0.351042
0.200865
0.177889
0.193913
0.260071
2.00906
0.747231
0.716691
0.963584
1.19475
1.28029
1.25397
1.17729
1.10752
1.01936
1.39442
0.482801
0.578268
0.873017
1.10685
1.19441
1.17285
1.10197
1.0354
0.960572
0.751656
0.287885
0.480489
0.796178
1.03278
1.12267
1.10525
1.03894
0.975936
0.912643
0.253503
0.170208
0.404938
0.724562
0.957942
1.04673
1.03188
0.970046
0.911084
0.860784
0.435909
0.0327306
0.266835
0.611906
0.862273
0.962876
0.956391
0.900725
0.846193
0.809063
9.35463
9.29004
9.14098
8.87308
8.43754
7.77887
6.87133
5.75928
4.58195
3.53704
9.19247
9.09564
8.88109
8.51164
7.94149
7.13643
6.10961
4.95507
3.84474
2.78679
9.02387
8.90025
8.6266
8.16102
7.46173
6.51612
5.37139
4.16861
3.08126
1.94238
8.8163
8.66219
8.32148
7.7479
6.90614
5.81421
4.55495
3.2948
2.22587
1.09009
8.58748
8.37937
7.92581
7.17743
6.11249
4.79207
3.35065
2.08518
0.994036
0.302034
1.06045
1.02468
1.01656
1.0201
0.915436
0.799832
1.29353
3.68297
3.85942
1.32315
0.949444
0.934037
0.9265
0.871075
0.719136
0.588806
0.91111
3.14133
3.10928
0.647521
0.986184
0.98266
0.965812
0.893031
0.747641
0.58478
0.698688
2.3717
2.34558
0.377501
1.05344
1.06531
1.06113
1.00133
0.889983
0.740928
0.656016
1.55632
1.63305
0.277306
1.18573
1.20981
1.21547
1.16776
1.07672
0.951713
0.78909
0.908935
0.918121
0.246203
1.35036
1.37026
1.3785
1.35329
1.28332
1.15007
0.928819
0.669056
0.357721
0.216653
1.55402
1.54996
1.51766
1.4753
1.42422
1.31752
1.0775
0.752775
0.272223
0.0663558
1.82115
1.81463
1.7321
1.57956
1.43997
1.34319
1.20779
0.899514
0.493338
0.0467623
2.10098
2.148
2.14595
1.95207
1.60946
1.3212
1.18564
1.05475
0.854105
0.674619
2.30948
2.35637
2.48057
2.53162
2.22885
1.62893
1.18093
1.06569
1.30233
2.03568
8.15165
7.21371
5.96
3.36029
0.131423
5.59647
6.92774
8.23567
8.98534
9.50955
7.91325
6.9153
5.70498
2.62158
0.563633
5.5455
6.8891
8.16752
8.92159
9.46571
7.40182
6.30743
5.20481
1.41544
1.59975
5.36183
6.80732
8.01938
8.78292
9.36626
6.56881
5.41865
4.23619
0.726254
2.73171
5.18169
6.65224
7.77349
8.54543
9.18356
5.38939
4.31244
2.63259
0.971036
3.35667
5.02054
6.37346
7.40305
8.1743
8.86985
3.97976
3.04139
1.31012
1.71328
3.42677
4.7562
5.91244
6.87249
7.63117
8.35347
2.54096
1.65335
1.18723
2.13295
3.25088
4.28296
5.21879
6.15458
6.89945
7.54134
1.21738
1.08764
1.45186
2.10733
2.88045
3.50302
4.21745
5.28199
6.04346
6.33606
0.671581
1.15304
1.40724
1.84244
2.23204
2.40026
2.98383
4.47924
5.24341
4.65564
0.88503
1.10258
1.24731
1.41286
1.46392
1.36908
1.94332
4.02625
4.56493
2.71678
2.08976
0.543232
1.06075
0.63065
0.663151
0.759093
0.632563
0.300106
0.0622824
0.356587
1.62989
0.236864
0.869366
0.480543
0.56919
0.681708
0.593346
0.356685
0.266133
0.488639
1.33387
0.0582059
0.641169
0.342426
0.480538
0.602177
0.561881
0.459497
0.473348
0.591225
1.09754
0.0147732
0.393048
0.234119
0.395673
0.518363
0.561975
0.625965
0.732393
0.758332
0.847338
0.0896899
0.18928
0.160551
0.317623
0.441632
0.608322
0.804628
0.973957
0.977109
0.635085
0.154525
0.0527788
0.103475
0.2454
0.385738
0.693685
0.973797
1.19245
1.22376
0.462765
0.209841
0.049877
0.0534825
0.181354
0.364311
0.786707
1.11651
1.38369
1.47905
0.330265
0.211248
0.107041
0.0106333
0.122617
0.372474
0.859236
1.23207
1.55446
1.73304
0.231493
0.197168
0.119989
0.0359783
0.0637324
0.388177
0.901113
1.3261
1.70755
1.97352
0.160308
0.175443
0.124366
0.054439
0.0273694
0.394388
0.918733
1.40676
1.84054
2.19694
9.33657
6.7703
2.66531
1.70028
1.20329
1.12208
0.966386
0.782685
0.796879
2.03324
8.21091
4.63639
2.21526
1.41839
1.07091
1.03708
0.892509
0.651876
0.528364
1.39867
6.12012
3.06388
1.78548
1.21115
0.966149
0.972598
0.83324
0.561923
0.329134
0.741006
4.13308
1.8758
1.49744
1.00475
0.860266
0.905233
0.776571
0.488165
0.228962
0.224909
2.8354
1.06121
1.24614
0.804285
0.757244
0.827363
0.686401
0.3565
0.0444352
0.398015
3.54772
4.58913
5.76319
6.87349
7.78041
8.43867
8.87386
9.14146
9.29031
9.35472
2.78091
3.84101
4.95231
6.10784
7.13582
7.9415
8.51185
8.88132
9.0958
9.19253
1.92838
3.07186
4.16213
5.36664
6.51357
7.46059
8.1606
8.62651
8.90028
9.02389
1.0554
2.20299
3.28154
4.54671
5.81
6.90392
7.74678
8.32102
8.66204
8.81628
0.300436
0.962461
2.06383
3.33742
4.7851
6.1089
7.17544
7.92486
8.379
8.58739
)
;

boundaryField
{
    left
    {
        type            calculated;
        value           nonuniform List<scalar> 
35
(
0.298738
0.568295
0.988241
1.62615
2.52422
3.69538
5.06608
6.47613
8.15852
9.4418
0.209919
0.129889
0.0780967
0.0474405
0.0319167
0.0270764
0.0321357
0.0511284
0.091244
0.159747
4.9334
4.06155
3.23467
2.51286
1.91704
1.42697
1.03032
0.723572
0.494282
0.327493
9.61573
8.97908
7.92207
6.84781
5.85943
)
;
    }
    right
    {
        type            calculated;
        value           nonuniform List<scalar> 
35
(
1.01893
0.96048
0.913047
0.862206
0.811815
0.761978
0.712441
0.661756
0.610001
0.55713
0.503031
0.447453
0.390199
0.330687
0.269455
0.204004
0.140604
0.0630049
0.0170136
0.0126837
0.01379
0.0311699
0.108652
0.192566
0.261075
0.339823
0.424874
0.491202
0.545761
0.588193
0.622036
0.649776
0.67531
0.69779
0.728382
)
;
    }
    down
    {
        type            calculated;
        value           nonuniform List<scalar> 
40
(
9.45431
7.2663
2.89622
1.78939
1.24393
1.1505
0.991971
0.82427
0.89796
2.26045
3.83289
4.88242
6.03391
7.09282
7.94457
8.55499
8.95445
9.19923
9.33563
9.39486
9.39477
9.33535
9.19871
8.95358
8.55366
7.94263
7.08991
6.02872
4.87314
3.81882
2.23217
0.847328
0.760553
0.995487
1.22639
1.30978
1.28083
1.20158
1.13068
1.03828
)
;
    }
    up
    {
        type            calculated;
        value           nonuniform List<scalar> 
40
(
9.0341
7.80885
6.16773
4.39501
3.03357
2.12017
1.52252
1.1406
0.923957
0.741936
9.72927
9.72305
9.71045
9.69064
9.66234
9.62377
9.57263
9.50586
9.42076
9.32814
9.33504
9.42655
9.51039
9.57622
9.62664
9.66461
9.69238
9.71168
9.72379
9.72952
9.27073
7.09628
3.23909
2.15647
2.2392
3.01897
4.34749
6.14902
7.81369
9.04494
)
;
    }
    cylinder
    {
        type            calculated;
        value           nonuniform List<scalar> 
80
(
1.98871
4.55658
5.52937
5.77434
6.30299
7.08997
7.86166
8.47475
8.91246
9.21291
9.44581
9.61872
9.72982
9.7983
9.84096
9.86846
9.8865
9.89817
9.90522
9.90869
9.50041
9.65061
9.74903
9.81047
9.849
9.87389
9.89016
9.90054
9.90657
9.90913
5.31807
6.23094
6.2101
6.31439
6.83348
7.52614
8.17603
8.68596
9.05067
9.30251
0.994499
0.471679
0.264266
0.183258
0.159647
0.165622
0.0828724
0.0422194
0.749203
2.42293
9.59445
9.55587
9.46743
9.30185
9.00977
8.51134
7.68624
6.36659
4.38741
2.23906
9.59434
9.55555
9.46682
9.30077
9.0079
8.50816
7.68049
6.35447
4.35812
2.19125
0.952736
0.442213
0.244296
0.170813
0.150275
0.165463
0.161453
0.0842268
0.0433576
0.731818
)
;
    }
    defaultFaces
    {
        type            empty;
    }
}


// ************************************************************************* //
