/*--------------------------------*- C++ -*----------------------------------*\
  =========                 |
  \\      /  F ield         | OpenFOAM: The Open Source CFD Toolbox
   \\    /   O peration     | Website:  https://openfoam.org
    \\  /    A nd           | Version:  13
     \\/     M anipulation  |
\*---------------------------------------------------------------------------*/
FoamFile
{
    format      ascii;
    class       volVectorField;
    location    "0.655";
    object      U;
}
// * * * * * * * * * * * * * * * * * * * * * * * * * * * * * * * * * * * * * //

dimensions      [0 1 -1 0 0 0 0];

internalField   nonuniform List<vector> 
1800
(
(0.0978011 -0.0883289 -4.48981e-20)
(0.286896 -0.241951 -3.41216e-20)
(0.473973 -0.379045 -4.85028e-19)
(0.657691 -0.500158 1.91471e-19)
(0.836611 -0.60717 7.43799e-20)
(1.00991 -0.701375 -3.90557e-20)
(1.17715 -0.783466 5.54941e-20)
(1.33793 -0.853675 1.97335e-19)
(1.49159 -0.912955 5.92219e-19)
(1.63352 -0.966889 8.10014e-19)
(0.119061 -0.0915029 -7.91154e-20)
(0.344291 -0.24771 -7.70614e-19)
(0.563283 -0.38475 3.78149e-21)
(0.775364 -0.504236 1.25766e-19)
(0.979505 -0.608921 -1.26267e-19)
(1.17521 -0.700694 7.65908e-20)
(1.36231 -0.780786 -2.80833e-19)
(1.54078 -0.850095 -5.02536e-20)
(1.7101 -0.910699 -6.93447e-19)
(1.86785 -0.967036 6.29731e-19)
(0.141651 -0.0923231 4.88228e-20)
(0.40368 -0.247732 2.09288e-19)
(0.653755 -0.382117 5.43326e-19)
(0.892178 -0.497905 -1.90264e-19)
(1.11866 -0.598385 -1.42997e-19)
(1.33321 -0.685812 7.56133e-20)
(1.53605 -0.761704 9.8262e-20)
(1.72743 -0.827295 1.94067e-19)
(1.90721 -0.884797 2.73602e-21)
(2.07421 -0.937863 1.50984e-19)
(0.163907 -0.089721 -4.57191e-20)
(0.461699 -0.23947 -2.04391e-19)
(0.741428 -0.367619 -1.8126e-19)
(1.00451 -0.476977 -1.42299e-19)
(1.25162 -0.571022 1.81312e-19)
(1.48351 -0.652127 -5.7091e-20)
(1.70092 -0.721905 -4.3107e-21)
(1.90453 -0.78162 2.93036e-21)
(2.09455 -0.833362 -1.6045e-19)
(2.27025 -0.880352 -1.05949e-19)
(0.184658 -0.0833565 -1.1404e-19)
(0.515894 -0.221807 8.76365e-20)
(0.823292 -0.339431 1.79842e-19)
(1.10931 -0.439063 2.43307e-19)
(1.37561 -0.524071 -2.85024e-19)
(1.62371 -0.596777 -3.58076e-21)
(1.85494 -0.658766 4.24982e-19)
(2.07042 -0.711261 -1.85054e-19)
(2.27083 -0.756162 -1.23989e-19)
(2.45578 -0.796394 -5.35621e-20)
(0.20319 -0.0735001 1.73592e-19)
(0.564471 -0.1952 1.02985e-18)
(0.896791 -0.298074 1.43255e-19)
(1.20351 -0.384735 -5.03142e-19)
(1.48719 -0.458227 -1.75504e-19)
(1.75003 -0.520669 6.37693e-19)
(1.9939 -0.573524 -1.4538e-19)
(2.22036 -0.617899 -4.31592e-19)
(2.43047 -0.655443 -3.16649e-19)
(2.62419 -0.688741 2.6159e-19)
(0.218899 -0.0605913 1.1634e-19)
(0.605745 -0.160701 -7.47594e-19)
(0.959314 -0.24503 -1.08561e-18)
(1.28371 -0.315798 3.83787e-19)
(1.58223 -0.375564 4.49946e-19)
(1.85767 -0.426128 -9.02066e-22)
(2.11239 -0.468739 -6.39686e-19)
(2.34829 -0.504325 2.19315e-19)
(2.56683 -0.534212 -3.64469e-19)
(2.76827 -0.560569 -3.11208e-19)
(0.231236 -0.0451723 -3.42487e-19)
(0.6382 -0.119684 -6.92606e-19)
(1.00849 -0.182294 1.21221e-18)
(1.34677 -0.2347 5.98703e-19)
(1.65694 -0.278852 -2.69759e-19)
(1.94224 -0.316136 -2.11497e-19)
(2.20543 -0.347515 0)
(2.44874 -0.373689 1.16806e-19)
(2.67398 -0.395622 -2.95842e-19)
(2.88171 -0.414969 -7.74314e-20)
(0.239766 -0.0278754 -2.04466e-19)
(0.660652 -0.0737558 5.62386e-19)
(1.04249 -0.112198 1.71009e-19)
(1.39031 -0.144289 -5.12495e-19)
(1.70841 -0.171277 -7.84196e-19)
(2.00037 -0.194053 3.66199e-20)
(2.26924 -0.213245 1.67124e-19)
(2.51752 -0.229293 -5.46843e-19)
(2.74731 -0.242784 -2.89762e-19)
(2.95953 -0.254777 -5.63592e-19)
(0.24426 -0.00940242 4.51409e-19)
(0.672453 -0.024704 3.4415e-19)
(1.0603 -0.0373616 -9.38597e-20)
(1.41303 -0.0477884 -1.29796e-20)
(1.73514 -0.0564621 -3.87508e-19)
(2.03041 -0.0637229 -8.57325e-20)
(2.30205 -0.0698098 -2.90578e-19)
(2.55276 -0.07489 6.46559e-19)
(2.7848 -0.0791708 1.71003e-19)
(2.99945 -0.0830116 2.22317e-21)
(-0.00234487 -0.0217916 -3.38237e-20)
(0.00861641 -0.0693457 -7.04395e-20)
(0.0249072 -0.120464 -7.31738e-21)
(0.0493357 -0.17114 -3.40933e-20)
(0.07769 -0.21652 -1.2729e-20)
(0.106539 -0.254668 -3.90018e-19)
(0.135574 -0.288605 -1.94745e-20)
(0.166367 -0.321917 1.19947e-19)
(0.199197 -0.355427 1.0962e-20)
(0.23309 -0.387791 -3.5821e-20)
(0.000846661 -0.024694 -9.77524e-20)
(0.0149477 -0.0850782 -2.12183e-19)
(0.0393452 -0.160292 -5.45177e-20)
(0.0692739 -0.225192 -1.10505e-19)
(0.0995038 -0.275482 -9.66747e-20)
(0.130483 -0.317919 -2.80017e-19)
(0.164508 -0.358907 2.00658e-19)
(0.202171 -0.400301 1.68522e-19)
(0.241675 -0.440211 -2.56452e-19)
(0.281189 -0.476589 8.12474e-20)
(0.00549467 -0.0315004 -8.54124e-20)
(0.0287789 -0.107423 -8.65806e-19)
(0.0628505 -0.196075 -1.29297e-19)
(0.0974501 -0.268925 9.35591e-20)
(0.131826 -0.32717 6.78467e-20)
(0.169672 -0.380231 -4.50673e-19)
(0.212968 -0.432244 3.57218e-20)
(0.259162 -0.481726 3.66984e-19)
(0.305515 -0.526183 -3.86332e-19)
(0.351469 -0.565575 -2.58489e-19)
(0.0113685 -0.040993 -1.77571e-21)
(0.0466248 -0.13088 1.89661e-19)
(0.0896369 -0.225317 1.62174e-21)
(0.133076 -0.307012 -1.08207e-20)
(0.177796 -0.377844 -3.01289e-20)
(0.227254 -0.443819 8.69403e-20)
(0.281108 -0.505572 7.32612e-20)
(0.335682 -0.560833 -1.36187e-19)
(0.38975 -0.609309 9.20918e-21)
(0.443924 -0.651871 -1.04421e-20)
(0.0185096 -0.0507763 0)
(0.0672385 -0.152432 5.46606e-21)
(0.121937 -0.25363 -5.09719e-19)
(0.178694 -0.345466 5.15109e-20)
(0.237811 -0.42856 -1.04211e-20)
(0.300519 -0.505062 6.05697e-21)
(0.365314 -0.574339 -2.54962e-20)
(0.429813 -0.635388 -7.77664e-21)
(0.493955 -0.688786 0)
(0.558151 -0.73479 -2.05859e-20)
(0.0273264 -0.059653 3.18063e-20)
(0.0918955 -0.172859 -1.5415e-19)
(0.161766 -0.282523 -4.58782e-20)
(0.234629 -0.383886 -5.83923e-20)
(0.309737 -0.476744 4.96531e-20)
(0.386737 -0.561518 5.34718e-21)
(0.464242 -0.637676 9.00332e-20)
(0.540938 -0.70491 -2.17596e-20)
(0.616909 -0.763403 -6.96456e-19)
(0.69216 -0.812601 -1.01049e-20)
(0.0379756 -0.0676065 6.86738e-22)
(0.121237 -0.192181 5.58004e-20)
(0.209163 -0.310618 -7.85144e-20)
(0.299926 -0.420175 -1.67052e-20)
(0.392135 -0.520664 -7.29153e-20)
(0.484775 -0.612117 -9.64104e-21)
(0.576698 -0.694307 9.78401e-21)
(0.666937 -0.767119 -2.11824e-19)
(0.75552 -0.830234 3.83623e-19)
(0.842312 -0.882283 9.71687e-19)
(0.0503619 -0.0746021 1.51412e-20)
(0.15513 -0.209612 -1.42303e-19)
(0.263462 -0.335965 -2.13823e-19)
(0.373669 -0.45211 8.90323e-20)
(0.484101 -0.558261 -6.43263e-20)
(0.593541 -0.654608 9.88467e-20)
(0.700939 -0.741263 1.96979e-19)
(0.805403 -0.81828 -1.0922e-19)
(0.907013 -0.885088 -3.06005e-19)
(1.00568 -0.939497 7.25444e-19)
(0.0642904 -0.0803604 -2.64797e-20)
(0.193286 -0.224027 -5.78134e-19)
(0.324297 -0.35656 5.24335e-19)
(0.455683 -0.477229 3.37512e-19)
(0.585737 -0.586742 -8.59211e-20)
(0.713221 -0.685654 3.08744e-19)
(0.837125 -0.774424 -1.59976e-19)
(0.956558 -0.853444 -7.73095e-19)
(1.07172 -0.922017 -4.03756e-19)
(1.18266 -0.977257 4.53727e-19)
(0.0795454 -0.0846664 -7.98259e-20)
(0.235846 -0.234418 -5.44354e-19)
(0.392392 -0.370525 -8.26777e-21)
(0.547541 -0.492794 6.88136e-20)
(0.699593 -0.602461 3.37775e-19)
(0.847389 -0.700429 -1.85406e-19)
(0.990009 -0.787434 -1.69508e-19)
(1.12653 -0.863817 1.89035e-19)
(1.2568 -0.928635 -3.5166e-19)
(1.38006 -0.980338 -5.84641e-19)
(0.403005 -0.531861 9.85733e-19)
(0.684938 -0.618274 -2.46272e-19)
(0.913798 -0.557521 -1.43545e-19)
(1.08759 -0.430933 2.70388e-19)
(1.2399 -0.279843 -2.313e-19)
(1.36203 -0.139026 -2.99666e-19)
(1.45886 -0.0326747 -2.65035e-19)
(1.51515 0.0199569 -3.18103e-20)
(1.53561 0.0292751 1.41321e-20)
(1.55162 0.0203635 3.02406e-20)
(0.468953 -0.619732 9.66117e-19)
(0.741597 -0.693706 7.18746e-20)
(0.966382 -0.617555 1.09458e-20)
(1.12484 -0.480133 -2.17473e-19)
(1.26544 -0.320136 -7.20988e-19)
(1.38046 -0.171549 0)
(1.47822 -0.0569868 -2.45524e-19)
(1.55085 0.00616563 5.18277e-20)
(1.58772 0.0230151 4.48186e-21)
(1.61489 0.0170782 -6.992e-21)
(0.55628 -0.705398 -9.981e-19)
(0.810895 -0.766685 -7.09985e-20)
(1.02565 -0.675459 1.5639e-19)
(1.16625 -0.527177 -5.37998e-20)
(1.29118 -0.359212 -3.62842e-20)
(1.39664 -0.203889 6.45441e-20)
(1.48976 -0.0829301 0)
(1.56894 -0.0118662 0)
(1.61984 0.0106363 -2.64939e-20)
(1.66881 0.0108241 0)
(0.665747 -0.787156 -2.24825e-19)
(0.895699 -0.835261 4.03781e-19)
(1.09207 -0.73017 2.68287e-20)
(1.21255 -0.571083 0)
(1.31802 -0.396196 6.07351e-19)
(1.4116 -0.235041 -1.45613e-19)
(1.49748 -0.108891 0)
(1.57527 -0.0312732 1.32963e-19)
(1.62626 -0.00500179 0)
(1.69903 -7.269e-05 -3.96924e-22)
(0.795765 -0.863853 -1.48959e-19)
(0.997702 -0.897448 4.54262e-19)
(1.16629 -0.780527 -1.46677e-20)
(1.26391 -0.611025 0)
(1.34662 -0.430283 1.78754e-19)
(1.42566 -0.264333 2.73365e-19)
(1.50328 -0.133729 4.77579e-20)
(1.57537 -0.0502716 6.73205e-21)
(1.62382 -0.0210142 -2.36908e-20)
(1.70024 -0.0118331 3.20859e-20)
(0.942254 -0.934733 -1.33056e-18)
(1.11652 -0.951892 -9.41239e-19)
(1.24893 -0.825259 4.76796e-21)
(1.3201 -0.646278 5.74392e-19)
(1.37735 -0.460691 -3.03041e-19)
(1.43884 -0.291269 1.47535e-19)
(1.50744 -0.156839 2.3558e-19)
(1.57243 -0.0682645 -1.88145e-19)
(1.6192 -0.0370927 -1.86575e-21)
(1.69664 -0.0228988 2.93796e-20)
(1.1001 -0.999419 -2.60277e-19)
(1.25003 -0.998404 2.86362e-19)
(1.34023 -0.863248 3.96053e-21)
(1.38084 -0.676147 -1.75901e-20)
(1.41033 -0.486638 -5.86958e-19)
(1.45116 -0.315315 5.42207e-20)
(1.50935 -0.17793 -9.39806e-20)
(1.56738 -0.0854703 -2.74323e-20)
(1.6147 -0.0517806 -1.96978e-21)
(1.68303 -0.0346183 -2.2629e-20)
(1.26431 -1.05681 -1.20093e-18)
(1.39475 -1.03759 2.09801e-19)
(1.43919 -0.893902 0)
(1.44516 -0.700202 3.44353e-20)
(1.44491 -0.507584 5.17703e-19)
(1.46228 -0.33595 -1.41827e-21)
(1.50795 -0.197027 -3.07081e-19)
(1.56005 -0.101632 5.55552e-20)
(1.60916 -0.0650949 -4.9454e-22)
(1.638 -0.0421338 -1.55338e-20)
(1.43199 -1.10347 3.39106e-18)
(1.54804 -1.07036 2.46218e-19)
(1.54563 -0.917925 4.63833e-19)
(1.51331 -0.718862 -3.17731e-20)
(1.48117 -0.523675 -3.43343e-20)
(1.47214 -0.353005 -4.26128e-19)
(1.50112 -0.214166 8.84062e-20)
(1.55122 -0.115799 3.06246e-21)
(1.57178 -0.0731311 -2.50553e-20)
(1.5771 -0.0443263 2.17606e-20)
(1.59923 -1.12816 -2.99828e-18)
(1.70185 -1.09557 1.27241e-18)
(1.65397 -0.937962 -2.32613e-19)
(1.58142 -0.735618 -7.87723e-19)
(1.51609 -0.538494 -6.54639e-19)
(1.47815 -0.370208 -2.55535e-19)
(1.48844 -0.231477 -6.48677e-20)
(1.5174 -0.129383 0)
(1.5102 -0.0742041 -5.0483e-20)
(1.50747 -0.04432 1.10366e-19)
(1.88817 -1.1702 -6.71264e-18)
(1.92738 -1.10512 -1.69218e-18)
(1.80488 -0.932175 -5.85799e-20)
(1.67309 -0.727489 1.12035e-19)
(1.56262 -0.533675 1.61332e-19)
(1.4857 -0.372518 -1.04667e-19)
(1.45312 -0.23748 -3.99405e-20)
(1.43303 -0.130202 6.83114e-20)
(1.42154 -0.071857 -5.56855e-20)
(1.41073 -0.0434808 -5.06571e-20)
(2.28932 -1.13484 4.95697e-19)
(2.17884 -1.05667 -2.86511e-19)
(1.94279 -0.865258 5.01102e-19)
(1.73576 -0.664702 -8.61223e-20)
(1.56273 -0.480499 1.26535e-20)
(1.42722 -0.333079 -6.4546e-20)
(1.34553 -0.215253 9.79142e-20)
(1.31444 -0.120124 -3.29289e-20)
(1.29756 -0.0663821 1.98825e-19)
(1.28206 -0.0406123 8.88276e-20)
(2.61059 -1.04358 2.27091e-18)
(2.35199 -0.948747 3.25855e-19)
(2.00838 -0.759423 -1.17903e-19)
(1.73272 -0.572871 1.60403e-36)
(1.50589 -0.410484 -2.54871e-20)
(1.33976 -0.286187 1.5091e-33)
(1.23635 -0.188323 -1.90015e-20)
(1.1876 -0.108359 -1.61777e-33)
(1.16547 -0.0598772 6.80016e-21)
(1.14561 -0.0367784 -1.55206e-20)
(2.78705 -0.893958 3.8874e-33)
(2.36949 -0.795607 2.9666e-18)
(1.97371 -0.630442 1.81861e-18)
(1.65361 -0.469341 0)
(1.40689 -0.334745 8.35064e-19)
(1.23021 -0.233301 4.32598e-19)
(1.1151 -0.155155 1.67987e-19)
(1.05402 -0.0924867 -2.82245e-33)
(1.02635 -0.0517866 -6.01998e-20)
(1.00302 -0.0319501 1.04086e-20)
(2.76367 -0.705885 3.84286e-18)
(2.24593 -0.629868 -1.46823e-19)
(1.8466 -0.490994 0)
(1.51562 -0.361672 0)
(1.27149 -0.255608 0)
(1.09762 -0.178187 0)
(0.981534 -0.120082 -1.26133e-20)
(0.91428 -0.0739782 -4.12634e-33)
(0.882099 -0.0422618 7.54463e-21)
(0.856005 -0.0263496 9.57743e-34)
(2.55118 -0.517033 3.26587e-18)
(2.02007 -0.46291 0)
(1.63859 -0.353632 0)
(1.3268 -0.256731 0)
(1.10106 -0.179657 0)
(0.941904 -0.125388 0)
(0.833897 -0.0855625 3.29266e-20)
(0.767338 -0.054358 -8.81903e-20)
(0.733132 -0.0317413 8.40856e-21)
(0.705635 -0.0202093 3.56536e-20)
(2.19012 -0.34271 0)
(1.70263 -0.303511 1.09838e-18)
(1.3613 -0.227603 1.09051e-18)
(1.09134 -0.161989 0)
(0.898453 -0.112318 6.67471e-19)
(0.76411 -0.0786144 4.05885e-19)
(0.671845 -0.054356 2.51809e-19)
(0.612228 -0.035572 8.18349e-20)
(0.579439 -0.0211417 -2.18062e-20)
(0.552624 -0.0139547 -4.96457e-21)
(1.70286 -0.191136 -6.73868e-19)
(1.30019 -0.165593 -2.74158e-19)
(1.02506 -0.121754 1.75637e-19)
(0.815095 -0.0844383 -2.11317e-34)
(0.667728 -0.0580747 -7.70305e-20)
(0.566229 -0.0409936 3.71539e-33)
(0.495745 -0.0288189 4.89214e-20)
(0.448405 -0.0194915 9.85908e-20)
(0.420787 -0.0116737 9.78563e-21)
(0.397411 -0.00816166 -3.20218e-21)
(1.10088 -0.0758211 3.40803e-18)
(0.82316 -0.0626783 -1.86528e-19)
(0.640586 -0.0442923 -5.88817e-19)
(0.506152 -0.028989 0)
(0.413828 -0.0195662 -6.40072e-19)
(0.350681 -0.0141057 -4.3241e-19)
(0.306223 -0.0102628 -2.03233e-19)
(0.27537 -0.00738273 -1.40459e-19)
(0.256492 -0.00448804 1.63995e-19)
(0.239958 -0.00345792 -2.51038e-20)
(0.397352 -0.0033188 0)
(0.287866 0.00159406 0)
(0.220893 0.00409428 0)
(0.173552 0.00624679 0)
(0.142374 0.00585417 0)
(0.121203 0.00471097 0)
(0.105897 0.00366599 5.62006e-20)
(0.094801 0.0025395 -2.17196e-34)
(0.0876012 0.00206245 1.235e-20)
(0.0809144 0.000850736 1.14159e-20)
(3.3671 -0.0863114 5.39207e-19)
(3.32642 -0.265086 -8.41897e-20)
(3.24735 -0.430656 8.5209e-19)
(3.13238 -0.582157 -6.04761e-19)
(2.98634 -0.718123 6.66391e-19)
(2.81523 -0.836379 2.75217e-19)
(2.6266 -0.934054 -1.92759e-18)
(2.4295 -1.00784 -7.74383e-20)
(2.22467 -1.05367 0)
(1.98485 -1.06654 4.26185e-19)
(3.86191 -0.0750591 7.07366e-18)
(3.79859 -0.234213 1.95636e-18)
(3.70428 -0.38731 -4.86728e-18)
(3.58426 -0.53199 -4.49079e-19)
(3.44238 -0.665892 3.55883e-18)
(3.28185 -0.787317 1.92339e-18)
(3.1065 -0.895063 -5.1685e-18)
(2.92204 -0.987695 -1.95211e-18)
(2.72758 -1.06338 2.20309e-18)
(2.49236 -1.1205 8.52159e-19)
(3.83308 -0.0533003 -1.2625e-19)
(3.82024 -0.171565 4.40364e-18)
(3.78546 -0.299761 -1.08827e-18)
(3.72434 -0.430918 -3.44613e-18)
(3.63618 -0.55873 -6.80018e-18)
(3.52372 -0.6788 1.02787e-17)
(3.39117 -0.788789 4.18062e-18)
(3.2435 -0.887978 -3.91177e-18)
(3.08161 -0.978707 -2.90273e-18)
(2.88723 -1.06299 -3.42497e-18)
(3.62866 -0.0472853 -4.83943e-18)
(3.61961 -0.144931 -4.35349e-18)
(3.59964 -0.24374 5.47224e-18)
(3.56736 -0.343094 1.91193e-18)
(3.52241 -0.442377 -8.97149e-18)
(3.46417 -0.540806 4.92217e-19)
(3.39184 -0.637043 3.88645e-18)
(3.30513 -0.730427 -1.05399e-18)
(3.205 -0.823059 1.27684e-18)
(3.08307 -0.914765 2.81764e-19)
(3.34405 -0.0365778 -9.16001e-19)
(3.339 -0.111656 3.00412e-18)
(3.3271 -0.188676 1.6196e-18)
(3.30744 -0.267172 -1.89427e-18)
(3.27986 -0.34607 -2.00139e-18)
(3.24466 -0.424137 -2.43406e-18)
(3.20204 -0.500334 3.79677e-19)
(3.15176 -0.574492 1.39014e-19)
(3.09549 -0.647755 -2.13979e-18)
(3.03288 -0.721299 -2.03445e-18)
(2.96257 -0.0265541 -1.82251e-18)
(2.95981 -0.0798886 -5.87234e-20)
(2.9533 -0.134599 -1.63754e-18)
(2.9424 -0.190903 3.1213e-19)
(2.92675 -0.24855 5.36786e-18)
(2.90629 -0.30693 -3.66755e-19)
(2.88092 -0.365115 4.43399e-20)
(2.85023 -0.422059 -2.60862e-18)
(2.81644 -0.476882 -3.49571e-18)
(2.78601 -0.529862 3.72799e-19)
(2.48713 -0.0175105 -2.89315e-20)
(2.48578 -0.0519346 -8.14318e-19)
(2.48259 -0.0872481 -2.61487e-18)
(2.47708 -0.123771 -3.43104e-18)
(2.4688 -0.161534 2.49657e-18)
(2.45745 -0.200267 1.50226e-18)
(2.44261 -0.239353 -1.38508e-18)
(2.4237 -0.277791 1.6245e-18)
(2.40275 -0.314483 -4.29718e-19)
(2.38953 -0.34954 -9.63779e-19)
(1.91464 -0.00968821 7.72463e-19)
(1.91408 -0.0282975 -8.31805e-19)
(1.91278 -0.0474396 -3.27694e-20)
(1.91031 -0.0673591 -3.47238e-20)
(1.90624 -0.0881301 -7.2741e-20)
(1.90013 -0.109614 -2.33196e-18)
(1.89151 -0.131404 -6.7868e-19)
(1.87978 -0.152782 2.62612e-18)
(1.86664 -0.172974 -6.03508e-19)
(1.86191 -0.192206 -1.35114e-18)
(1.23988 -0.00373756 -1.64283e-18)
(1.23967 -0.0106956 -8.48916e-19)
(1.23923 -0.0179012 2.33921e-18)
(1.23823 -0.0254786 -8.8978e-19)
(1.23625 -0.0334753 -6.74127e-19)
(1.2329 -0.0418316 1.35204e-18)
(1.22775 -0.0503499 -1.2959e-18)
(1.22038 -0.0586654 1.287e-18)
(1.21202 -0.0663423 -1.21032e-18)
(1.21007 -0.073508 -4.24828e-18)
(0.454916 -0.000257971 6.63084e-19)
(0.454827 -0.000700528 7.03058e-19)
(0.454692 -0.00115912 7.48185e-19)
(0.454325 -0.00164005 1.35398e-18)
(0.453496 -0.00214018 -6.71989e-19)
(0.451983 -0.00263719 -1.29962e-18)
(0.449567 -0.00309911 6.14717e-19)
(0.445992 -0.00359293 2.48372e-20)
(0.441737 -0.00439222 -4.9653e-20)
(0.44035 -0.00504562 1.1057e-19)
(1.65354 0.997243 -2.85764e-19)
(1.51226 0.941835 1.79979e-20)
(1.35878 0.880728 -2.28561e-19)
(1.19767 0.808425 1.76351e-19)
(1.02957 0.72397 -1.92009e-19)
(0.854822 0.627071 -1.0111e-19)
(0.673758 0.516939 2.31988e-19)
(0.487036 0.392146 -3.04929e-19)
(0.295891 0.250643 3.09878e-19)
(0.10143 0.091644 2.38726e-19)
(1.88637 0.992169 0)
(1.72967 0.934723 6.39223e-19)
(1.56083 0.872756 3.32377e-19)
(1.38228 0.801845 1.62793e-19)
(1.19453 0.719873 4.31316e-19)
(0.997532 0.625896 -8.68552e-20)
(0.79136 0.518601 -7.8544e-20)
(0.576347 0.39599 8.87806e-20)
(0.353318 0.255175 -1.04518e-18)
(0.122699 0.0943554 -1.66386e-20)
(2.09103 0.959022 1.56804e-19)
(1.92522 0.905057 0)
(1.74613 0.846454 -1.0074e-19)
(1.55493 0.779544 -3.83428e-19)
(1.3517 0.702079 5.37082e-20)
(1.13609 0.612788 3.97135e-19)
(0.907784 0.510088 -6.06891e-19)
(0.66659 0.391638 -2.0088e-19)
(0.412596 0.254045 7.83591e-19)
(0.145251 0.0947353 -1.75943e-19)
(2.28484 0.898344 1.88016e-19)
(2.11044 0.850553 1.20002e-20)
(1.92129 0.797856 2.45077e-20)
(1.71811 0.736997 3.60966e-20)
(1.50058 0.665854 -2.92668e-20)
(1.26793 0.583131 2.73263e-19)
(1.01926 0.487168 -2.06878e-19)
(0.753675 0.375531 -8.55577e-19)
(0.470271 0.244678 0)
(0.167388 0.0916966 0)
(2.46796 0.811812 -1.07076e-18)
(2.28435 0.770831 -6.09107e-19)
(2.08493 0.725058 -1.20664e-19)
(1.87003 0.671521 -6.65724e-20)
(1.6389 0.608294 0)
(1.39031 0.534137 2.40753e-19)
(1.12275 0.447434 2.67779e-19)
(0.834556 0.345835 2.86243e-19)
(0.52384 0.225953 -4.23748e-19)
(0.187908 0.0848981 -8.12352e-20)
(2.634 0.702089 7.66353e-19)
(2.44156 0.668061 -1.39173e-19)
(2.23244 0.629677 -2.21564e-19)
(2.00665 0.584305 0)
(1.76301 0.530279 0)
(1.49988 0.466488 0)
(1.21523 0.391464 -3.89806e-20)
(0.906685 0.30309 3.70275e-19)
(0.571499 0.198348 3.79144e-19)
(0.206083 0.0746243 -3.08567e-19)
(2.7758 0.572353 -1.19352e-18)
(2.5755 0.545259 -1.48133e-18)
(2.35787 0.514529 -3.03269e-22)
(2.1226 0.477946 -1.87662e-19)
(1.86818 0.434182 -9.28802e-20)
(1.59258 0.382318 -1.78841e-19)
(1.29333 0.321125 4.59093e-19)
(0.96749 0.248837 2.14862e-19)
(0.611584 0.162967 5.40027e-19)
(0.221315 0.0613403 2.02854e-19)
(2.88707 0.425747 -1.15707e-18)
(2.68027 0.405632 8.47056e-20)
(2.45576 0.38282 1.64525e-19)
(2.21297 0.355611 1.68179e-20)
(1.95004 0.323051 -3.14405e-19)
(1.66465 0.284469 -1.74212e-19)
(1.35398 0.238938 -6.21211e-19)
(1.01464 0.18514 1.1853e-19)
(0.642605 0.121237 5.14759e-20)
(0.233066 0.0456127 -6.26897e-21)
(2.9628 0.265187 1.01361e-19)
(2.75121 0.252354 3.97006e-19)
(2.52189 0.237904 -3.30293e-19)
(2.27394 0.22074 3.63017e-19)
(2.00524 0.200297 3.72549e-19)
(1.71322 0.176176 4.91897e-19)
(1.39481 0.147809 -6.35741e-19)
(1.04633 0.11439 -3.24416e-19)
(0.663412 0.0748098 -4.58505e-20)
(0.240916 0.0280952 -3.26995e-19)
(3.00053 0.0935775 5.81812e-19)
(2.78613 0.088786 -1.86157e-19)
(2.55425 0.0834443 4.79564e-19)
(2.30367 0.0771505 -3.10669e-19)
(2.03208 0.0697282 2.66478e-19)
(1.73679 0.0610621 6.05412e-19)
(1.41457 0.0509786 3.78886e-19)
(1.06162 0.0392347 3.09343e-19)
(0.673397 0.0255066 2.65862e-19)
(0.244654 0.00950724 5.43615e-19)
(0.239535 0.451991 -4.69053e-19)
(0.203939 0.418275 -1.87354e-19)
(0.168382 0.381202 1.39101e-19)
(0.134864 0.343552 -4.19361e-19)
(0.105138 0.307436 -1.19494e-19)
(0.0782416 0.270185 6.92667e-19)
(0.0518644 0.223778 3.35848e-19)
(0.0259512 0.15894 -1.55879e-19)
(0.00705616 0.0796843 1.14452e-19)
(-0.00112634 0.0224441 -6.07129e-20)
(0.288624 0.544259 4.11221e-19)
(0.248721 0.507468 4.58084e-19)
(0.208175 0.465424 -1.17709e-20)
(0.167852 0.418409 -1.32582e-19)
(0.131137 0.370301 -3.12831e-19)
(0.100607 0.322716 8.28058e-20)
(0.0734752 0.269398 2.24877e-19)
(0.0458886 0.196947 1.65274e-19)
(0.0183363 0.10188 -5.90681e-19)
(0.00278709 0.028869 -1.23575e-19)
(0.359668 0.633071 -6.00653e-19)
(0.313801 0.592928 -4.81269e-19)
(0.268 0.547095 2.5742e-19)
(0.221355 0.493793 1.38051e-19)
(0.17581 0.434044 -5.98366e-21)
(0.136273 0.371849 -1.39919e-19)
(0.10212 0.305595 -2.93365e-20)
(0.068436 0.224883 -5.55283e-19)
(0.0336665 0.126009 -2.69426e-19)
(0.00763569 0.0377892 -3.90706e-20)
(0.454236 0.717817 5.03132e-19)
(0.400076 0.673629 1.64735e-19)
(0.346379 0.622625 -1.49303e-19)
(0.292238 0.563589 6.32951e-20)
(0.237752 0.495501 -5.44022e-22)
(0.186587 0.420836 1.34562e-21)
(0.140104 0.34063 -1.32148e-19)
(0.0954595 0.250233 3.78668e-19)
(0.0514324 0.147721 -4.19356e-19)
(0.0135784 0.047702 -6.51528e-20)
(0.572019 0.797797 -2.82156e-19)
(0.507871 0.749711 -8.89038e-20)
(0.443588 0.692873 -1.43367e-20)
(0.378975 0.627163 -7.011e-20)
(0.313723 0.551915 5.84628e-20)
(0.249663 0.468026 5.25972e-20)
(0.188379 0.376685 -2.78839e-20)
(0.129323 0.276631 -2.82253e-19)
(0.0725245 0.167626 2.18398e-19)
(0.0209161 0.0568337 8.72908e-20)
(0.709418 0.870894 6.43421e-19)
(0.634369 0.819518 3.20949e-19)
(0.558133 0.757362 2.03347e-19)
(0.480857 0.685308 4.82067e-20)
(0.402413 0.603482 1.54839e-19)
(0.32387 0.512326 7.83043e-20)
(0.246465 0.412491 1.43205e-19)
(0.170863 0.303893 5.79272e-20)
(0.0980513 0.186788 -1.60023e-20)
(0.0299955 0.0650266 -1.3368e-20)
(0.862014 0.934824 -1.19759e-19)
(0.775536 0.880633 -8.25296e-19)
(0.686699 0.814016 -7.65045e-20)
(0.595721 0.736782 -5.17125e-20)
(0.502559 0.64959 -1.95099e-20)
(0.408122 0.552683 1.51395e-19)
(0.313476 0.44629 -4.38252e-20)
(0.219708 0.330399 6.50144e-20)
(0.128292 0.205072 -1.44614e-19)
(0.0409031 0.0724919 -1.24783e-21)
(1.02672 0.985999 -8.849e-19)
(0.928459 0.929606 5.94275e-20)
(0.826649 0.859677 -2.33662e-19)
(0.721457 0.77886 -7.25891e-20)
(0.612764 0.687985 -2.41835e-20)
(0.501454 0.58705 -7.51694e-20)
(0.388524 0.47588 5.62949e-20)
(0.275162 0.354187 6.03137e-20)
(0.162981 0.221554 -9.82164e-21)
(0.0535437 0.0791199 -1.03804e-19)
(1.20388 1.01791 1.23828e-19)
(1.09349 0.96092 5.23259e-19)
(0.978245 0.8897 1.55402e-21)
(0.858217 0.807538 -2.96965e-20)
(0.733141 0.715287 1.50953e-19)
(0.603888 0.612539 -3.4739e-19)
(0.471401 0.498744 -2.44416e-19)
(0.33683 0.373205 3.56133e-19)
(0.201771 0.235006 1.44193e-19)
(0.0677022 0.0845325 -3.62349e-20)
(1.40057 1.01545 7.39872e-19)
(1.27805 0.962329 3.23779e-19)
(1.14782 0.895353 5.59044e-20)
(1.01087 0.816394 -1.95051e-19)
(0.867267 0.726516 -1.64471e-20)
(0.717899 0.625333 4.6564e-19)
(0.563583 0.512001 -2.68245e-19)
(0.40534 0.385474 -1.8449e-19)
(0.244705 0.244319 3.35805e-19)
(0.0831142 0.0884411 -6.05239e-21)
(0.976415 0.0982708 8.70468e-21)
(1.14368 0.141945 -7.19214e-22)
(1.21352 0.19025 -2.32031e-20)
(1.32561 0.171068 0)
(1.37625 0.155832 1.14105e-21)
(1.27815 0.234643 -5.12352e-20)
(1.12886 0.385724 -5.44432e-20)
(0.949078 0.543481 -1.38657e-20)
(0.711522 0.648298 -3.02732e-19)
(0.416493 0.595486 4.29306e-19)
(0.981417 0.0792516 1.94723e-19)
(1.13582 0.114344 -3.01754e-20)
(1.2096 0.159952 1.90546e-21)
(1.31661 0.152594 1.20021e-20)
(1.37865 0.157974 3.60671e-21)
(1.29784 0.269123 -3.23337e-21)
(1.15883 0.43582 1.77896e-20)
(0.993751 0.6065 0)
(0.761468 0.727323 7.92847e-19)
(0.479393 0.686673 -5.64946e-19)
(0.985904 0.0605085 -1.13054e-19)
(1.13242 0.0877921 6.86902e-21)
(1.20878 0.13052 7.75519e-20)
(1.31364 0.132856 1.91711e-20)
(1.38154 0.159261 -2.29623e-20)
(1.31777 0.30143 -3.5019e-20)
(1.192 0.484383 -6.06428e-21)
(1.04394 0.667936 4.44733e-20)
(0.823115 0.803775 -1.23709e-21)
(0.5645 0.774448 -3.75812e-19)
(0.989697 0.0415372 -8.10304e-20)
(1.13304 0.0618219 1.54872e-20)
(1.21157 0.101767 7.54021e-20)
(1.31688 0.11291 3.03739e-20)
(1.38733 0.16005 -2.35935e-20)
(1.33802 0.331572 -2.62118e-20)
(1.2287 0.530724 6.84844e-20)
(1.10016 0.72667 2.6838e-20)
(0.899948 0.875399 -5.4412e-19)
(0.673738 0.856854 -1.78023e-19)
(0.992784 0.0220311 3.71267e-20)
(1.13697 0.0359426 -4.71548e-20)
(1.21762 0.0735838 -6.76709e-20)
(1.32495 0.0933526 2.20516e-20)
(1.39488 0.161364 0)
(1.35828 0.36002 0)
(1.26896 0.574211 7.36415e-20)
(1.16353 0.781322 -2.82276e-20)
(0.994729 0.939713 -1.17929e-19)
(0.805142 0.932246 -5.73885e-20)
(0.995214 0.0018416 3.50575e-21)
(1.14339 0.00974672 5.7783e-20)
(1.22605 0.045884 -2.07403e-19)
(1.33607 0.0747524 -7.61232e-20)
(1.40293 0.164005 -4.90539e-21)
(1.37841 0.386953 1.21304e-19)
(1.31298 0.613999 1.50544e-19)
(1.23558 0.830178 -1.80441e-20)
(1.10787 0.994916 -4.31285e-20)
(0.95378 0.999976 2.56895e-21)
(0.996328 -0.0193369 1.25752e-21)
(1.15151 -0.0171055 2.91715e-20)
(1.23588 0.0186863 -6.53828e-20)
(1.34884 0.0576566 -1.528e-19)
(1.41053 0.168205 1.18963e-20)
(1.39868 0.412057 7.43581e-21)
(1.36132 0.648981 -5.94347e-20)
(1.31743 0.871581 -1.10191e-19)
(1.23734 1.04072 -2.98353e-20)
(1.11388 1.06018 -9.80288e-19)
(0.994856 -0.0414026 1.48119e-20)
(1.16071 -0.0448908 -1.41777e-19)
(1.24633 -0.00784396 1.31984e-19)
(1.36207 0.0428333 1.01141e-19)
(1.41653 0.174437 5.0484e-21)
(1.41902 0.434895 -1.30213e-19)
(1.41388 0.67813 -6.17598e-22)
(1.40843 0.90459 -1.27492e-19)
(1.37936 1.07799 1.11072e-20)
(1.27986 1.1123 2.88359e-18)
(0.990307 -0.0636498 -8.68889e-20)
(1.17085 -0.0737219 7.94806e-20)
(1.25691 -0.0335513 1.89637e-19)
(1.37507 0.0303977 -1.13528e-19)
(1.42143 0.182461 -2.21748e-19)
(1.44098 0.455187 9.25875e-21)
(1.47194 0.701311 1.67475e-19)
(1.50855 0.929903 -5.69162e-19)
(1.53087 1.108 -2.68393e-20)
(1.44834 1.1533 -6.47447e-18)
(0.98354 -0.086513 4.11763e-21)
(1.1822 -0.103569 1.39916e-19)
(1.26738 -0.0582456 6.08594e-20)
(1.3866 0.0226338 -2.73699e-19)
(1.42301 0.196303 -2.40908e-19)
(1.46215 0.476524 -7.06675e-20)
(1.53117 0.722298 7.73755e-20)
(1.61164 0.950858 -2.11309e-19)
(1.68375 1.13038 -1.08704e-18)
(1.61561 1.17229 -7.95175e-18)
(0.973956 -0.117589 -1.4499e-20)
(1.19601 -0.143192 -3.22208e-20)
(1.27692 -0.0917232 -7.58541e-20)
(1.39745 0.00795395 1.38025e-19)
(1.42563 0.195195 1.99534e-19)
(1.49203 0.472149 -5.93207e-20)
(1.61194 0.711753 -1.41166e-19)
(1.75382 0.940013 -1.20373e-18)
(1.90279 1.13238 -1.59965e-18)
(1.89933 1.20863 3.28644e-18)
(0.961886 -0.156172 -4.0619e-19)
(1.21396 -0.19264 1.61824e-20)
(1.28071 -0.137872 -5.72285e-20)
(1.39801 -0.0137432 3.28909e-19)
(1.40515 0.173298 3.43006e-19)
(1.49391 0.427648 -5.81091e-21)
(1.66824 0.647513 -6.77079e-20)
(1.88073 0.865617 -2.92943e-19)
(2.13955 1.07123 2.75652e-19)
(2.2845 1.16075 -3.23373e-19)
(0.949366 -0.19652 -2.78803e-20)
(1.23885 -0.24249 -5.48014e-20)
(1.27942 -0.182202 3.05812e-20)
(1.39323 -0.0325394 2.70518e-20)
(1.3795 0.161983 1.72821e-33)
(1.47082 0.370725 2.54302e-21)
(1.68081 0.561093 -2.04625e-33)
(1.94918 0.759397 1.85401e-19)
(2.30197 0.9563 -9.31143e-19)
(2.58733 1.05839 -6.29306e-19)
(0.937031 -0.24309 1.41235e-18)
(1.27012 -0.282422 -7.7433e-34)
(1.24957 -0.228063 -4.0149e-20)
(1.27178 -0.0359926 -2.27919e-19)
(1.26392 0.144172 -4.47659e-19)
(1.38991 0.302047 -8.8792e-19)
(1.61947 0.459825 -5.07255e-33)
(1.9294 0.630938 -1.73829e-18)
(2.32588 0.802017 -3.17721e-18)
(2.75376 0.902546 1.67531e-18)
(0.927286 -0.300538 0)
(1.3159 -0.327152 -1.6211e-33)
(1.1128 -0.206769 0)
(1.10805 -0.0292374 0)
(1.12019 0.114919 0)
(1.25892 0.232622 0)
(1.48986 0.35527 -8.08214e-33)
(1.81515 0.49145 0)
(2.21354 0.634223 -3.39772e-19)
(2.73503 0.711984 1.2576e-18)
(0.916469 -0.360795 1.16116e-19)
(1.25177 -0.326237 -4.68947e-19)
(0.960071 -0.173902 -5.49298e-20)
(0.934554 -0.0256267 0)
(0.956942 0.082649 0)
(1.09035 0.165336 6.05566e-20)
(1.30652 0.253797 1.17867e-18)
(1.61605 0.354616 -1.95062e-19)
(1.99676 0.466169 -4.95303e-19)
(2.53248 0.520461 4.67292e-18)
(0.883459 -0.405316 -1.52016e-17)
(1.09212 -0.279923 1.08754e-18)
(0.792704 -0.13039 -7.27098e-20)
(0.747399 -0.0209575 -7.61441e-20)
(0.773394 0.0525505 -5.11593e-19)
(0.88975 0.104446 -7.72481e-19)
(1.07645 0.161202 -1.04882e-18)
(1.3461 0.228976 -1.38323e-18)
(1.68764 0.3061 -1.606e-18)
(2.17994 0.344439 3.61315e-18)
(0.808996 -0.394519 -4.13645e-19)
(0.886495 -0.207586 -1.21642e-18)
(0.605569 -0.0828029 -1.25706e-19)
(0.549912 -0.0152474 -8.41391e-20)
(0.572184 0.0276369 -9.84683e-34)
(0.661746 0.0545045 9.39008e-20)
(0.805542 0.0845402 -1.4862e-32)
(1.01624 0.122917 -1.93433e-19)
(1.29248 0.1673 2.98924e-19)
(1.69929 0.192069 7.05749e-19)
(0.664248 -0.288845 3.4255e-17)
(0.618263 -0.108095 -3.14026e-18)
(0.393383 -0.0350968 -2.40807e-19)
(0.339495 -0.00735416 -1.56845e-19)
(0.353926 0.00927085 3.93526e-19)
(0.410558 0.0183452 7.83845e-19)
(0.50125 0.0291714 7.95045e-19)
(0.636746 0.044876 4.59829e-19)
(0.820758 0.0634535 -1.90366e-19)
(1.10156 0.0762249 3.56928e-18)
(0.336835 -0.0768245 5.58808e-19)
(0.261852 -0.00230506 -6.76606e-33)
(0.144385 0.0190752 -3.0502e-19)
(0.120434 0.0033525 0)
(0.123667 -0.00234272 0)
(0.141886 -0.00540978 9.65076e-20)
(0.172393 -0.00624382 9.33581e-35)
(0.2203 -0.00417448 -1.23575e-19)
(0.28813 -0.00161868 -2.82587e-19)
(0.399008 0.00331843 1.00155e-18)
(2.00204 1.09638 -1.78973e-18)
(2.23905 1.07844 -2.30493e-18)
(2.44207 1.02909 0)
(2.63707 0.952492 -7.58121e-19)
(2.82358 0.852503 -1.7829e-18)
(2.99276 0.732387 -2.24949e-18)
(3.13709 0.59504 -4.76034e-19)
(3.25054 0.442697 1.26928e-18)
(3.32824 0.276965 -3.54791e-18)
(3.36764 0.0986985 1.35669e-18)
(2.49865 1.14194 2.67686e-19)
(2.73054 1.08189 1.39727e-18)
(2.92386 1.00418 1.43898e-19)
(3.10672 0.909789 6.7575e-19)
(3.28059 0.800653 -1.10398e-18)
(3.43996 0.678321 -5.00037e-18)
(3.58096 0.54401 2.46789e-18)
(3.70047 0.39932 1.27034e-17)
(3.79428 0.246324 1.04065e-19)