/*--------------------------------*- C++ -*----------------------------------*\
  =========                 |
  \\      /  F ield         | OpenFOAM: The Open Source CFD Toolbox
   \\    /   O peration     | Website:  https://openfoam.org
    \\  /    A nd           | Version:  13
     \\/     M anipulation  |
\*---------------------------------------------------------------------------*/
FoamFile
{
    format      ascii;
    class       volScalarField;
    object      p;
}
// * * * * * * * * * * * * * * * * * * * * * * * * * * * * * * * * * * * * * //

dimensions      [0 2 -2 0 0 0 0];

internalField   nonuniform List<scalar>
440
(
-916.60585159
-913.668616817
-910.78711152
-909.835718086
-911.073118643
-982.27925865
-978.861915585
-975.368065277
-974.518633071
-976.064353454
-1047.8514571
-1044.92891788
-1041.73006198
-1040.79538198
-1042.51901039
-1112.99875406
-1111.10513377
-1108.87920296
-1107.94429088
-1109.60051313
-1178.75940995
-1178.25935575
-1177.52444466
-1177.14447879
-1177.74822569
-701.64322115
-704.862603912
-702.008570628
-693.316788595
-682.918248777
-721.167054507
-725.778639706
-724.50677513
-716.848083285
-706.554623661
-753.896426725
-757.633938865
-757.207249132
-750.944283934
-741.215050381
-799.330539781
-800.611111855
-799.461281545
-794.110730656
-785.132338911
-853.501069429
-852.254379085
-849.706827712
-845.320481952
-838.156548384
-622.999227762
-498.841809173
-360.998753992
-217.811522801
-72.9203638501
-640.053070432
-508.66247531
-367.219504369
-221.267349496
-73.9911886402
-666.673881673
-524.250616412
-377.058230409
-226.820050464
-75.710507788
-702.291839406
-545.484156136
-390.370015438
-234.365283144
-78.0456015038
-744.349432886
-571.78910324
-406.956813531
-243.749031506
-80.9452830058
-783.759825266
-593.942348608
-419.897233338
-250.902070633
-83.5406610025
-808.209490892
-607.135583486
-425.904835269
-253.565835569
-84.3011989351
-823.820620463
-615.781751235
-430.476568591
-255.659916387
-84.8816780927
-827.682717405
-618.656333186
-432.842164441
-256.951099919
-85.2584832519
-826.499858848
-617.986566338
-433.196470292
-257.19885656
-85.312689301
-1178.98366354
-1114.03223894
-1049.67914224
-987.32625951
-931.765627935
-1182.03735184
-1124.66301918
-1067.34557999
-1010.46437901
-955.09639266
-1182.1493556
-1126.97154592
-1073.37694509
-1020.33142942
-965.414268194
-1182.28223073
-1127.34226726
-1073.47666107
-1019.70505424
-964.029925514
-1182.94788988
-1128.87591729
-1074.56503369
-1019.30458701
-963.258620221
-1510.01304771
-1511.313876
-1510.26073074
-1506.97314838
-1503.48057063
-1446.10513353
-1447.77566647
-1446.81287523
-1442.87864973
-1438.89236265
-1380.65748923
-1382.56313415
-1381.46067221
-1377.83067116
-1374.36066676
-1314.29848111
-1316.20966837
-1315.11471041
-1312.49453313
-1310.10800344
-1246.69553198
-1247.59296213
-1247.0209495
-1245.95324944
-1244.93035929
-1735.47880655
-1725.14116235
-1716.43434729
-1713.56236297
-1716.86480673
-1712.11208438
-1701.87642651
-1694.18614885
-1692.81995996
-1697.35658266
-1677.78422861
-1668.10872343
-1661.77673621
-1661.14917183
-1664.62960919
-1634.30696281
-1625.38822174
-1619.96672828
-1618.51984496
-1619.41764601
-1581.97179038
-1574.89609878
-1570.41927803
-1567.49749809
-1565.76836463
-2364.08824503
-2198.58868443
-2055.53067843
-1917.95570505
-1794.71063138
-2361.30032413
-2194.05446157
-2048.72890014
-1907.87352444
-1777.78743352
-2358.40027102
-2187.73623395
-2038.46198863
-1892.14875151
-1751.39779817
-2355.35110569
-2179.73677249
-2024.89968606
-1870.92338515
-1716.08890491
-2351.97585569
-2170.22258001
-2008.24542383
-1844.75236706
-1674.35204958
-2348.04307263
-2163.57354433
-1995.32324472
-1822.72782971
-1635.11375108
-2346.09161251
-2161.98200872
-1989.60621442
-1809.72817763
-1610.46942688
-2346.73414277
-2161.15068892
-1985.31000062
-1801.14106872
-1594.63614597
-2348.03696069
-2160.93958437
-1983.2412283
-1798.29020821
-1590.58278532
-2348.26025414
-2160.54351604
-1982.96959854
-1799.10872378
-1591.83443672
-1489.40063205
-1434.3228363
-1372.62150706
-1308.80547853
-1244.25055452
-1465.21789261
-1410.07029376
-1353.47409077
-1296.42762717
-1239.26628091
-1453.87229245
-1399.14212998
-1346.27640514
-1292.92491317
-1237.94346728
-1454.83048652
-1399.51997221
-1345.9897021
-1292.3718474
-1237.61336968
-1455.79334467
-1400.08852127
-1345.02088323
-1290.87815364
-1236.93926582
-1170.74574302
-1173.90546288
-1176.54829986
-1177.27928527
-1170.43394755
-1092.61490107
-1097.22034405
-1102.22939509
-1103.33085977
-1089.77771414
-1002.10073748
-1004.5509858
-1008.15072514
-1006.26009231
-993.267287682
-917.139388198
-919.217348118
-922.070984747
-920.691749186
-910.595597948
-841.761788916
-844.694139469
-845.865617418
-843.995251519
-836.76826323
-786.662663087
-790.508078326
-789.529999946
-783.700328252
-776.408445444
-744.389581553
-747.976187171
-745.76524499
-738.280827064
-729.240104272
-713.388053102
-715.333227931
-711.905562028
-703.949499271
-694.640413744
-696.450569927
-696.80657832
-692.378977633
-684.359461179
-675.00911784
-692.401005539
-694.18481777
-690.425027164
-681.78424939
-671.808966206
-680.450395839
-532.420964537
-383.823309646
-231.765235577
-77.2179819025
-649.279803258
-515.352368845
-372.464665217
-225.027528957
-75.1374014581
-627.973805665
-503.206078158
-364.347189253
-220.18508621
-73.6454464478
-616.885248495
-496.240477238
-359.626873499
-217.315330545
-72.762245953
-615.349035664
-494.736297736
-358.472526075
-216.500854049
-72.5126479488
-709.413307085
-546.47482981
-391.901739117
-236.332244774
-78.9731419184
-707.058227633
-544.582766107
-391.213508316
-236.128688982
-78.9273383483
-1152.65237015
-1058.81579213
-976.979930867
-898.604043854
-837.271377946
-1160.39781268
-1067.88183872
-979.43571388
-904.326813148
-842.022059968
-1639.47333711
-1632.00657177
-1625.8553596
-1624.43972383
-1627.88726966
-1687.37169833
-1678.24414882
-1670.56310606
-1668.05309226
-1671.38559718
-1722.65089746
-1713.32352736
-1705.28536679
-1701.6843515
-1703.51318257
-1742.78308175
-1733.45603411
-1725.39385346
-1720.8234636
-1721.05874405
-1746.30250407
-1736.35394539
-1727.67693407
-1723.82364569
-1725.49791785
-1238.88943679
-1231.43143125
-1231.28446375
-1233.25974635
-1235.90596582
-1321.33867691
-1307.24599006
-1307.49796122
-1311.48806473
-1315.12504777
-1419.70821502
-1406.18635909
-1403.47611966
-1406.04102961
-1407.47242585
-1503.62992809
-1493.07454075
-1491.03704811
-1493.08999393
-1494.40586201
-1578.41183162
-1570.87184998
-1568.49880528
-1569.08658953
-1571.47552533
-2376.67516099
-2191.76417348
-2035.44221107
-1885.49534977
-1736.61142811
-2374.51831054
-2197.2862354
-2046.55731636
-1902.50424554
-1768.10129354
-2371.9188954
-2200.65027442
-2054.21036517
-1914.48645438
-1789.57136903
-2369.35525388
-2201.9543756
-2058.29764107
-1921.19141751
-1800.73967417
-2366.76081858
-2201.25150981
-2058.73860667
-1922.37956441
-1802.30006006
-2378.49959373
-2188.79253333
-2027.85689803
-1871.50057442
-1707.22976694
-2378.33570412
-2188.70608016
-2028.44274563
-1873.40664374
-1709.7109282
-1577.67606178
-1515.60424453
-1435.78336292
-1352.30617364
-1257.13295693
-1573.16880973
-1510.07126712
-1433.59428025
-1343.3903862
-1249.30572973
)
;

boundaryField
{
    left
    {
        type            zeroGradient;
    }

    right
    {
        type            fixedValue;
        value           uniform 0;
    }

    down
    {
        type            zeroGradient;
    }

    up
    {
        type            zeroGradient;
    }

    cylinder
    {
        type            zeroGradient;
    }

    defaultFaces
    {
        type            empty;
    }
}

// ************************************************************************* //
