# Selection   : all
# Cells       : 440
# Volume      : 7.374263e+01
# Time        	minMag(U)
2             	2.534284e-02
2.05          	2.453767e-02
2.1           	2.166924e-02
