# Selection   : all
# Cells       : 440
# Volume      : 7.374263e+01
# Time        	min(p)
7.415         	-1.212810e+00
7.46          	-1.226861e+00
7.51          	-1.241903e+00
