/*--------------------------------*- C++ -*----------------------------------*\
  =========                 |
  \\      /  F ield         | OpenFOAM: The Open Source CFD Toolbox
   \\    /   O peration     | Website:  https://openfoam.org
    \\  /    A nd           | Version:  13
     \\/     M anipulation  |
\*---------------------------------------------------------------------------*/
FoamFile
{
    format      ascii;
    class       volScalarField;
    location    "0.965";
    object      strainRateViscosityModel:nu;
}
// * * * * * * * * * * * * * * * * * * * * * * * * * * * * * * * * * * * * * //

dimensions      [0 2 -1 0 0 0 0];

internalField   nonuniform List<scalar> 
1800
(
9.40487
9.1976
9.01007
8.80097
8.57617
8.34417
8.1155
7.89819
7.6242
7.37922
9.58523
9.41878
9.2669
9.09733
8.91118
8.71145
8.50359
8.28869
8.0273
7.70207
9.70218
9.56269
9.42803
9.27097
9.08869
8.879
8.64092
8.36904
8.03058
7.6106
9.77539
9.65614
9.53324
9.38287
9.2005
8.98172
8.72282
8.41597
8.02878
7.55456
9.82168
9.7183
9.60558
9.46167
9.28071
9.05696
8.7855
8.45889
8.04776
7.55614
9.85185
9.76081
9.6573
9.52059
9.34355
9.11896
8.84034
8.50016
8.07152
7.5702
9.87179
9.78991
9.69398
9.56396
9.39147
9.16769
8.8842
8.53252
8.08735
7.57567
9.88475
9.80924
9.71888
9.59394
9.42494
9.20146
8.91309
8.55005
8.08853
7.56355
9.8926
9.82107
9.73416
9.6122
9.44466
9.21962
8.92483
8.54922
8.07121
7.52871
9.89646
9.82685
9.74153
9.62069
9.45309
9.22573
8.92512
8.53953
8.05038
7.49285
1.80416
1.4051
1.20832
1.31912
1.73025
2.25209
2.49687
2.44867
2.35859
2.33492
3.73357
1.78022
1.49024
1.98094
2.69636
2.97276
2.81648
2.67063
2.68698
2.74053
4.7049
2.56886
2.43463
3.17707
3.59722
3.34569
3.08038
3.11738
3.25775
3.33845
5.27033
3.88101
3.81458
4.21386
4.18075
3.82869
3.72034
3.85444
3.9571
4.00609
6.05622
5.27483
5.11757
5.12147
4.91493
4.65295
4.57766
4.61189
4.61217
4.65186
6.95994
6.45973
6.2267
6.03831
5.78829
5.54528
5.38902
5.29311
5.22188
5.27445
7.77173
7.37766
7.11676
6.86034
6.58746
6.32056
6.08721
5.90081
5.77001
5.82356
8.40012
8.05529
7.79202
7.51582
7.22656
6.93127
6.64222
6.38628
6.19216
6.22914
8.84934
8.54537
8.29101
8.01034
7.70575
7.37954
7.03567
6.70113
6.4157
6.42166
9.16163
8.90154
8.66633
8.39669
8.09574
7.7658
7.40649
7.03566
6.70851
6.75235
2.19296
1.72872
1.33126
0.936774
0.619334
0.349642
0.188149
0.144648
0.164393
0.261527
2.52709
1.8476
1.40601
0.93174
0.592794
0.333636
0.178274
0.110019
0.112252
0.205743
2.94761
1.97659
1.47819
0.928856
0.556682
0.305929
0.166787
0.0954585
0.0746771
0.147378
3.44005
2.14652
1.54943
0.931649
0.517027
0.270243
0.149608
0.0845248
0.0707724
0.0897319
3.98238
2.38463
1.62688
0.940652
0.478204
0.230386
0.128227
0.0699855
0.0802428
0.0360306
4.52803
2.69587
1.72322
0.957031
0.44328
0.189575
0.103125
0.0563165
0.0632632
0.0745006
4.9966
3.05571
1.84524
0.979778
0.412227
0.149865
0.0768452
0.0439949
0.038709
0.143705
5.31251
3.43878
2.01248
1.02254
0.391464
0.113725
0.0528446
0.0259346
0.0557846
0.207386
5.34305
3.72225
2.16222
1.05447
0.368192
0.0818225
0.0306652
0.0251876
0.10815
0.268454
5.20181
3.98837
2.3978
1.15828
0.384536
0.0651898
0.010219
0.0634779
0.151828
0.318147
4.94414
3.94193
2.45497
1.17262
0.3596
0.0540201
0.0370496
0.109724
0.207272
0.373712
5.3301
3.34721
2.13974
0.99938
0.361537
0.14269
0.119184
0.177213
0.276877
0.433144
4.90464
3.04625
2.24957
1.20798
0.594035
0.297223
0.209628
0.246436
0.338125
0.47706
4.54703
3.63299
2.68299
1.64254
0.894602
0.497738
0.343641
0.334771
0.40312
0.512845
5.11448
4.74812
3.34323
2.16489
1.23875
0.730508
0.500561
0.437248
0.470805
0.541231
6.2545
5.6696
4.05706
2.67376
1.59844
0.981455
0.676253
0.553193
0.54321
0.565583
7.26268
6.3737
4.71352
3.1543
1.95689
1.23996
0.860541
0.676831
0.618645
0.58767
8.0001
6.91201
5.25969
3.58871
2.29966
1.50011
1.0504
0.806086
0.697546
0.61004
8.51875
7.33071
5.69722
3.96986
2.62017
1.7534
1.23663
0.932665
0.774207
0.631034
8.931
7.69117
6.04964
4.28291
2.92512
2.02397
1.44703
1.07958
0.869244
0.663055
6.51282
6.43966
6.43043
6.44873
6.48732
6.5299
6.58193
6.71045
6.89511
6.82613
0.260649
1.05706
2.00762
2.92263
3.70353
4.31611
4.73281
4.98228
5.22129
5.72744
3.85082
3.54395
3.28474
3.11152
3.10658
3.25017
3.47234
3.71342
4.16489
4.84463
6.64415
6.62721
6.53712
6.3447
6.04334
5.65798
5.24979
4.89631
4.73974
4.54966
7.69183
7.67653
7.63211
7.54128
7.39613
7.18986
6.9271
6.61956
6.28609
5.65659
8.4495
8.43311
8.39434
8.32771
8.22957
8.09671
7.92836
7.71683
7.42793
6.90785
8.93967
8.92393
8.89028
8.83679
8.76166
8.6629
8.53815
8.37892
8.15467
7.80861
9.27298
9.25981
9.23246
9.18985
9.13052
9.05245
8.95268
8.82481
8.65281
8.4309
9.50446
9.49417
9.47307
9.44024
9.39426
9.33319
9.25424
9.15286
9.02288
8.87534
9.6899
9.68285
9.66852
9.64604
9.61405
9.5707
9.51361
9.43975
9.34638
9.2441
7.24797
7.52613
7.83691
8.08767
8.34482
8.59963
8.84139
9.06159
9.25458
9.46024
7.58306
7.94803
8.24096
8.48113
8.70936
8.92482
9.12231
9.299
9.45391
9.61805
7.49847
7.95736
8.32596
8.62051
8.87576
9.09774
9.28806
9.44952
9.58535
9.72225
7.44687
7.9576
8.37377
8.702
8.97659
9.20597
9.39471
9.54806
9.6713
9.78823
7.45632
7.98066
8.41861
8.7649
9.05054
9.28356
9.46978
9.61591
9.72868
9.83022
7.4824
8.01168
8.46402
8.82147
9.11234
9.34475
9.52606
9.66446
9.76796
9.85764
7.50363
8.03786
8.50278
8.86863
9.16197
9.39189
9.56763
9.6989
9.79478
9.8757
7.51114
8.05246
8.52872
8.90209
9.19746
9.42521
9.5964
9.72212
9.81243
9.88729
7.49836
8.05045
8.53742
8.91898
9.21768
9.44503
9.61371
9.73605
9.82289
9.89404
7.48288
8.04358
8.53593
8.92344
9.22525
9.4533
9.62123
9.74216
9.82746
9.89693
2.56013
2.51645
2.53403
2.74574
2.93225
2.5603
1.70306
1.18365
1.52458
4.20274
2.96648
2.87819
2.71819
2.7155
3.10526
3.43432
2.8263
1.91035
2.12818
5.13857
3.45297
3.40967
3.2519
3.06521
3.26498
3.82409
3.80514
3.16436
3.29236
5.4576
3.94339
3.9327
3.9065
3.79745
3.89031
4.31784
4.58977
4.46939
4.66303
5.91479
4.4961
4.46866
4.54419
4.61607
4.78018
5.1139
5.4385
5.61971
5.89764
6.63227
5.09984
5.05734
5.19711
5.39573
5.65681
5.98041
6.30874
6.5957
6.90127
7.40697
5.65263
5.61643
5.81745
6.09019
6.40762
6.74087
7.06861
7.37826
7.67888
8.08667
6.06602
6.05153
6.31476
6.64216
6.99494
7.33982
7.66734
7.97425
8.25901
8.6111
6.25988
6.27889
6.63082
7.02585
7.42013
7.78445
8.11676
8.41672
8.68285
8.98797
6.59979
6.5697
6.95592
7.37947
7.78135
8.14314
8.46656
8.75046
8.99302
9.25186
0.114112
0.154142
0.122932
0.0655423
0.0160978
0.396752
0.934243
1.48659
1.95293
2.43464
0.0808843
0.139828
0.119071
0.0682973
0.0159486
0.390199
0.938246
1.54898
2.03122
2.70001
0.0592454
0.131538
0.117457
0.0715928
0.0250052
0.390574
0.943646
1.59804
2.1009
3.00939
0.0460822
0.129047
0.119229
0.0787421
0.0432305
0.397864
0.948538
1.63417
2.20361
3.39539
0.0393853
0.131536
0.123024
0.0879045
0.0663073
0.406553
0.950493
1.66897
2.3811
3.86538
0.0383854
0.138415
0.127283
0.0965404
0.0899392
0.413378
0.95366
1.7259
2.64754
4.3626
0.0433591
0.149994
0.130845
0.102513
0.109434
0.416081
0.963348
1.82141
2.97953
4.79346
0.0548359
0.166672
0.133369
0.106069
0.12442
0.423833
1.00365
1.98047
3.3464
5.0782
0.0744932
0.188078
0.13503
0.103192
0.127195
0.423298
1.04039
2.13183
3.62496
5.0814
0.105065
0.21102
0.137364
0.103685
0.142074
0.469901
1.17694
2.39014
3.87476
4.89004
0.161559
0.240126
0.142863
0.100814
0.130282
0.473486
1.24215
2.50327
3.88409
4.67245
0.264514
0.27223
0.133125
0.0752927
0.0688857
0.386221
1.11822
2.3021
3.42896
5.1916
0.429364
0.27183
0.0995332
0.0136615
0.0150397
0.349456
1.15136
2.35228
3.25645
4.93775
0.682609
0.255142
0.0231972
0.0824383
0.0992535
0.541323
1.43395
2.62628
3.71637
4.69871
1.06583
0.0478618
0.265656
0.23469
0.312675
0.89226
1.93467
3.20757
4.70775
5.178
1.51473
0.122626
0.539806
0.415869
0.594136
1.30862
2.47434
3.91762
5.59897
6.22349
2.19502
0.683181
0.85749
0.688543
0.940314
1.73835
2.99223
4.59366
6.30248
7.21636
3.79217
1.7062
1.27587
1.03637
1.31644
2.14992
3.46102
5.16514
6.85407
7.96875
6.86012
3.5756
1.96416
1.42109
1.67796
2.52334
3.873
5.6311
7.29512
8.50723
9.04906
6.3837
2.84345
2.00145
2.11471
2.89584
4.22322
6.01897
7.68649
8.9381
6.62432
6.68739
6.51071
6.38897
6.34864
6.32249
6.30553
6.31732
6.36195
6.47625
5.52775
5.00893
4.76524
4.52426
4.12619
3.54031
2.79847
1.93202
1.04462
0.284209
4.84949
4.23669
3.8273
3.61685
3.43013
3.31069
3.31558
3.4578
3.65548
3.87438
4.71272
4.88623
5.02868
5.33813
5.70223
6.05243
6.33394
6.52139
6.61652
6.64157
5.68815
6.28604
6.61241
6.91138
7.17237
7.38146
7.53179
7.62813
7.67669
7.69239
6.86592
7.38861
7.68442
7.9023
8.07657
8.21483
8.31779
8.38855
8.43054
8.44888
7.76509
8.12048
8.35195
8.5179
8.64796
8.75098
8.82956
8.88582
8.92164
8.93899
8.40453
8.63267
8.80887
8.94092
9.04401
9.12465
9.18596
9.23006
9.25854
9.27259
8.86615
9.0162
9.14761
9.2506
9.33082
9.39283
9.43944
9.47267
9.494
9.50442
9.24869
9.35045
9.44302
9.51631
9.57294
9.61588
9.64748
9.66957
9.68348
9.69012
9.50947
8.98534
8.2359
6.92826
5.59796
0.131167
3.36083
5.96039
7.2141
8.15188
9.46542
8.92156
8.16814
6.89059
5.54939
0.563769
2.62221
5.70602
6.91644
7.91397
9.36569
8.78283
8.02029
6.80962
5.36636
1.60348
1.41357
5.20663
6.30936
7.40332
9.18256
8.54514
7.77451
6.65513
5.18645
2.74003
0.723099
4.23839
5.42158
6.5715
8.86812
8.1736
7.40403
6.37696
5.02653
3.36803
0.97096
2.63163
4.31696
5.39382
8.35054
7.62974
6.87344
5.91731
4.76513
3.44004
1.71926
1.30194
3.04929
3.98815
7.53605
6.89662
6.15557
5.22759
4.29966
3.26954
2.14312
1.17256
1.65625
2.55742
6.32539
6.0376
5.28137
4.2319
3.53342
2.91258
2.11847
1.43529
1.06862
1.23534
4.63172
5.23228
4.47438
2.99958
2.43705
2.27441
1.85604
1.38496
1.12282
0.659193
2.67284
4.53962
4.02167
1.96666
1.39672
1.48831
1.40998
1.21189
1.0642
0.845365
1.27682
3.78913
3.66668
1.3371
0.816127
0.897681
0.971234
0.956487
0.971936
1.02002
0.613543
2.97014
3.08232
0.956365
0.575317
0.640146
0.75971
0.820308
0.844283
0.877234
0.355414
2.18998
2.2856
0.688155
0.492798
0.595686
0.726836
0.811199
0.848954
0.87368
0.265339
1.55092
1.4893
0.521805
0.535062
0.674747
0.788266
0.859286
0.882675
0.892884
0.239653
1.01867
0.845526
0.514926
0.670382
0.803974
0.905179
0.968678
0.984363
0.981229
0.242848
0.492496
0.500253
0.637165
0.81827
0.955778
1.05354
1.11118
1.12167
1.11349
0.176626
0.204018
0.50868
0.756787
0.975535
1.12132
1.21094
1.2579
1.27472
1.27538
0.0450863
0.252298
0.649653
0.923276
1.13653
1.25379
1.32985
1.39983
1.45655
1.47842
0.0615205
0.4927
0.822531
1.09601
1.22951
1.33839
1.48927
1.64824
1.73548
1.75092
0.698665
0.865972
1.04036
1.1828
1.32268
1.59721
1.91067
2.08028
2.08164
2.04842
0.363104
0.0806522
0.224129
0.551313
0.795666
0.892681
0.888488
0.842929
0.794142
0.756599
0.462231
0.202687
0.319628
0.52201
0.72475
0.81155
0.809615
0.772325
0.730913
0.708782
0.526014
0.372804
0.440695
0.514279
0.654075
0.731096
0.732427
0.702514
0.667902
0.660734
0.639316
0.588577
0.596295
0.556272
0.587799
0.643568
0.650239
0.630265
0.604071
0.612524
0.806558
0.804261
0.742863
0.638996
0.542483
0.55602
0.566219
0.557075
0.539942
0.564175
1.01018
1.00017
0.876145
0.738504
0.531383
0.47417
0.480927
0.482866
0.475543
0.515637
1.22823
1.17165
0.990954
0.826552
0.553343
0.408198
0.397243
0.408405
0.411174
0.466765
1.45285
1.32566
1.08956
0.888977
0.590033
0.367835
0.319571
0.334717
0.347163
0.417308
1.68517
1.4689
1.1757
0.923978
0.619662
0.353874
0.25467
0.263639
0.28403
0.36691
1.92619
1.60357
1.25485
0.937113
0.629873
0.353448
0.210216
0.198539
0.222623
0.315158
2.00921
0.747693
0.718397
0.966739
1.20001
1.28764
1.26257
1.18401
1.11262
1.00919
1.39446
0.483108
0.579841
0.875962
1.11167
1.201
1.18087
1.10978
1.04173
0.951248
0.751576
0.288091
0.481888
0.798881
1.03718
1.12856
1.11272
1.04764
0.983596
0.904581
0.253294
0.170457
0.406244
0.72705
0.961904
1.05187
1.03875
0.979793
0.920386
0.854507
0.435788
0.0326936
0.267675
0.613955
0.865649
0.967118
0.962506
0.911478
0.857431
0.805207
9.35465
9.29006
9.14101
8.87311
8.43757
7.77891
6.87137
5.75934
4.58203
3.53715
9.19249
9.09567
8.88112
8.51168
7.94154
7.13649
6.10967
4.95513
3.8448
2.78685
9.0239
8.90028
8.62663
8.16107
7.46179
6.51619
5.37147
4.16867
3.0813
1.94239
8.81633
8.66222
8.32152
7.74795
6.9062
5.81428
4.55501
3.29481
2.2258
1.0899
8.58751
8.37941
7.92586
7.17748
6.11255
4.79212
3.35063
2.08508
0.993819
0.301994
1.06012
1.02431
1.01608
1.01958
0.915021
0.799542
1.29331
3.68357
3.85997
1.32282
0.949046
0.933588
0.925952
0.870503
0.718595
0.588319
0.910607
3.14224
3.11033
0.647283
0.985818
0.982278
0.965383
0.892588
0.747099
0.584056
0.697904
2.37317
2.34745
0.377353
1.05331
1.06522
1.06107
1.00122
0.889684
0.74029
0.655204
1.55832
1.63576
0.277211
1.18614
1.21032
1.21604
1.16832
1.07708
0.95183
0.789136
0.910807
0.920713
0.246106
1.3516
1.37155
1.37985
1.3548
1.28499
1.15172
0.930265
0.670499
0.358675
0.216845
1.55644
1.55238
1.51994
1.47757
1.42688
1.32078
1.08062
0.754932
0.27265
0.0664526
1.82496
1.81862
1.73601
1.58283
1.44263
1.34606
1.21153
0.902926
0.494947
0.0467856
2.10557
2.15296
2.15164
1.95776
1.61364
1.3236
1.18774
1.05801
0.857773
0.676411
2.31392
2.36069
2.48541
2.53817
2.23623
1.63413
1.18321
1.06703
1.3055
2.04492
8.15169
7.21374
5.96003
3.36033
0.131423
5.5965
6.92777
8.2357
8.98536
9.50957
7.91329
6.91533
5.70501
2.62161
0.563638
5.54554
6.88914
8.16755
8.92162
9.46573
7.40186
6.30747
5.20484
1.41546
1.59976
5.36187
6.80736
8.01941
8.78296
9.36627
6.56885
5.41868
4.23622
0.726273
2.73172
5.18172
6.65229
7.77353
8.54547
9.18359
5.38944
4.31248
2.63266
0.971025
3.35668
5.02057
6.37351
7.4031
8.17435
8.86988
3.97983
3.04149
1.31019
1.7132
3.42678
4.75624
5.91251
6.87256
7.63123
8.35351
2.54112
1.65353
1.18714
2.13284
3.2509
4.28302
5.21887
6.15468
6.89954
7.54138
1.21767
1.08763
1.45165
2.10721
2.88049
3.50309
4.21752
5.28214
6.04361
6.33606
0.671614
1.15283
1.40699
1.84229
2.23202
2.40023
2.98384
4.47949
5.24365
4.65549
0.884748
1.10232
1.24696
1.41255
1.4637
1.36891
1.94325
4.02668
4.56529
2.71646
2.09016
0.543406
1.06114
0.628482
0.66034
0.758287
0.632611
0.300334
0.0618741
0.356454
1.63042
0.2368
0.870112
0.478117
0.566288
0.681181
0.593842
0.356924
0.265749
0.488411
1.33447
0.0584591
0.64203
0.339635
0.47767
0.602017
0.562762
0.459591
0.473181
0.590973
1.09838
0.0146539
0.394157
0.230926
0.392965
0.518587
0.563031
0.626125
0.73286
0.758296
0.848483
0.0888643
0.189711
0.157376
0.315282
0.442231
0.609367
0.805368
0.975285
0.977661
0.636316
0.153485
0.0531732
0.100522
0.243562
0.386542
0.694967
0.975676
1.19488
1.22525
0.464144
0.2086
0.0485455
0.0525525
0.180076
0.365325
0.788999
1.11996
1.38742
1.48176
0.331977
0.209239
0.106655
0.0107985
0.121851
0.374208
0.863392
1.23729
1.55952
1.73704
0.233761
0.194662
0.121425
0.0358797
0.0641137
0.391782
0.907634
1.33294
1.71363
1.97845
0.163265
0.173259
0.127097
0.0584049
0.0290577
0.400352
0.927449
1.41447
1.84681
2.20201
9.33657
6.77035
2.66477
1.69917
1.20155
1.12003
0.964211
0.781285
0.796209
2.0331
8.21092
4.63649
2.21487
1.41709
1.06884
1.03517
0.890695
0.650683
0.527802
1.39864
6.12016
3.06402
1.78516
1.20968
0.963834
0.970875
0.831803
0.561001
0.328668
0.741048
4.13322
1.87599
1.49732
1.0031
0.857714
0.903744
0.775562
0.487532
0.228571
0.225233
2.83568
1.06134
1.24622
0.802357
0.754552
0.82625
0.685961
0.356358
0.0444276
0.398171
3.54769
4.58915
5.76325
6.87356
7.78046
8.43871
8.87389
9.14149
9.29033
9.35474
2.78094
3.84107
4.95237
6.10791
7.13589
7.94155
8.51189
8.88135
9.09583
9.19255
1.92843
3.07191
4.1622
5.36671
6.51363
7.46064
8.16064
8.62655
8.90031
9.02392
1.05572
2.20317
3.28165
4.54678
5.81006
6.90398
7.74683
8.32105
8.66207
8.81631
0.300554
0.962796
2.06402
3.33753
4.78516
6.10895
7.17549
7.9249
8.37904
8.58742
)
;

boundaryField
{
    left
    {
        type            calculated;
        value           nonuniform List<scalar> 
35
(
0.297496
0.566202
0.986923
1.62639
2.52473
3.69555
5.06605
6.47603
8.15848
9.4418
0.214858
0.135163
0.0826905
0.0504031
0.0332306
0.027761
0.0332228
0.0527387
0.092503
0.159922
4.93339
4.06162
3.23482
2.51293
1.91705
1.42708
1.0308
0.724877
0.496847
0.331398
9.61573
8.97907
7.92204
6.84776
5.85938
)
;
    }
    right
    {
        type            calculated;
        value           nonuniform List<scalar> 
35
(
1.00872
0.950969
0.904597
0.855336
0.807133
0.760043
0.713843
0.667285
0.620472
0.573416
0.525991
0.477913
0.428742
0.377877
0.32462
0.268167
0.208009
0.14323
0.0788265
0.0268687
0.069488
0.152294
0.228118
0.294958
0.34759
0.4052
0.463708
0.505115
0.53665
0.559494
0.577789
0.594256
0.612381
0.631109
0.661024
)
;
    }
    down
    {
        type            calculated;
        value           nonuniform List<scalar> 
40
(
9.45431
7.26635
2.89571
1.78838
1.24233
1.14841
0.989673
0.822814
0.897308
2.26032
3.83286
4.88245
6.03397
7.09289
7.94462
8.55503
8.95448
9.19926
9.33565
9.39488
9.39479
9.33537
9.19874
8.95361
8.55369
7.94267
7.08995
6.02877
4.87321
3.81893
2.23233
0.847788
0.7623
0.998724
1.2318
1.31739
1.28966
1.20799
1.13554
1.02798
)
;
    }
    up
    {
        type            calculated;
        value           nonuniform List<scalar> 
40
(
9.0341
7.80881
6.16752
4.39469
3.0334
2.11894
1.51962
1.12862
0.901722
0.675508
9.72927
9.72305
9.71045
9.69064
9.66234
9.62377
9.57263
9.50586
9.42076
9.32814
9.33506
9.42656
9.5104
9.57623
9.62665
9.66461
9.69238
9.71169
9.72379
9.72952
9.27074
7.09624
3.23939
2.1533
2.23411
3.01534
4.34537
6.14863
7.81367
9.04497
)
;
    }
    cylinder
    {
        type            calculated;
        value           nonuniform List<scalar> 
80
(
2.00653
4.57643
5.54178
5.78087
6.30545
7.0907
7.86182
8.47476
8.91245
9.2129
9.4458
9.61871
9.72981
9.79829
9.84096
9.86846
9.8865
9.89817
9.90522
9.90869
9.50039
9.6506
9.74902
9.81046
9.849
9.87389
9.89016
9.90054
9.90657
9.90913
5.33053
6.23496
6.21169
6.31629
6.83491
7.52684
8.17627
8.68601
9.05066
9.3025
0.994215
0.471512
0.264177
0.1832
0.15953
0.165566
0.0828426
0.0423027
0.750421
2.43491
9.59446
9.55589
9.46745
9.30187
9.00979
8.51138
7.68626
6.36655
4.38715
2.23866
9.59436
9.55557
9.46684
9.30079
9.00793
8.5082
7.68053
6.3545
4.35817
2.19137
0.952864
0.44232
0.244377
0.170862
0.15029
0.165505
0.160683
0.083829
0.0433613
0.739208
)
;
    }
    defaultFaces
    {
        type            empty;
    }
}


// ************************************************************************* //
