/*--------------------------------*- C++ -*----------------------------------*\
  =========                 |
  \\      /  F ield         | OpenFOAM: The Open Source CFD Toolbox
   \\    /   O peration     | Website:  https://openfoam.org
    \\  /    A nd           | Version:  13
     \\/     M anipulation  |
\*---------------------------------------------------------------------------*/
FoamFile
{
    format      ascii;
    class       surfaceScalarField;
    location    "0.225";
    object      phi;
}
// * * * * * * * * * * * * * * * * * * * * * * * * * * * * * * * * * * * * * //

dimensions      [0 3 -1 0 0 0 0];

internalField   nonuniform List<scalar> 
3485
(
0.00326779
-0.029332
0.0260642
0.010984
-0.0895305
0.0818143
0.0206366
-0.126445
0.116793
0.0306956
-0.14187
0.131811
0.040556
-0.145328
0.135468
0.0500612
-0.143733
0.134228
0.0591832
-0.140463
0.131341
0.067887
-0.136822
0.128118
0.0760943
-0.133137
0.12493
-0.129243
0.121438
0.0839
0.00344563
-0.0327776
0.0111048
-0.0971897
0.0203776
-0.135718
0.0298621
-0.151355
0.0391004
-0.154566
0.0480492
-0.152681
0.0567764
-0.14919
0.0653706
-0.145416
0.0739766
-0.141743
-0.138194
0.0829272
0.0035982
-0.0363758
0.0111163
-0.104708
0.0198771
-0.144479
0.0286115
-0.160089
0.0369881
-0.162943
0.0450284
-0.160722
0.052814
-0.156976
0.0604066
-0.153009
0.0678428
-0.149179
-0.145486
0.075135
0.00373665
-0.0401125
0.0110498
-0.112021
0.0192255
-0.152655
0.0271606
-0.168024
0.0346712
-0.170454
0.0418622
-0.167913
0.0488506
-0.163965
0.0557094
-0.159868
0.0624881
-0.155958
-0.152319
0.0693206
0.00381832
-0.0439308
0.010802
-0.119005
0.0182477
-0.1601
0.0252374
-0.175014
0.0317306
-0.176947
0.0379015
-0.174084
0.043889
-0.169952
0.0497695
-0.165748
0.0555933
-0.161782
-0.158146
0.0614206
0.00383799
-0.0477688
0.0103675
-0.125534
0.0169628
-0.166696
0.0229131
-0.180964
0.0283206
-0.182354
0.0334221
-0.179185
0.0383733
-0.174903
0.0432498
-0.170625
0.0480916
-0.166624
-0.163001
0.0529466
0.00376972
-0.0515385
0.0096975
-0.131462
0.0153085
-0.172307
0.0201118
-0.185767
0.0243453
-0.186588
0.0282956
-0.183135
0.0321271
-0.178735
0.0359121
-0.17441
0.0396853
-0.170397
-0.166784
0.0434677
0.0036022
-0.0551407
0.00878378
-0.136643
0.013291
-0.176814
0.0168636
-0.18934
0.0198639
-0.189588
0.0226117
-0.185883
0.025271
-0.181394
0.0279061
-0.177045
0.0305433
-0.173034
-0.169424
0.0331842
0.00332432
-0.058465
0.00761887
-0.140938
0.0109145
-0.18011
0.0131956
-0.191621
0.0149214
-0.191314
0.0164298
-0.187392
0.0178789
-0.182843
0.0193237
-0.178489
0.0207833
-0.174494
-0.170885
0.0222437
0.00293809
-0.0614031
0.00621669
-0.144217
0.00822566
-0.182118
0.00918527
-0.192581
0.00961507
-0.191743
0.00986945
-0.187646
0.0100876
-0.183061
0.0103161
-0.178718
0.0105751
-0.174752
0.0108379
-0.171148
0.00183672
-0.00421934
0.00238261
0.00892407
-0.0143631
0.00727576
0.0197372
-0.0212369
0.0104237
0.0323555
-0.0244775
0.0118593
0.045547
-0.025463
0.0122716
0.0587142
-0.0253753
0.0122081
0.0716192
-0.0248683
0.0119633
0.0841877
-0.024236
0.0116675
0.0964106
-0.0235933
0.0113703
-0.0231343
0.108444
0.0111006
0.0018878
-0.00610713
0.0090144
-0.0214897
0.0198179
-0.0320405
0.0323846
-0.0370442
0.0454995
-0.0385779
0.0585797
-0.0384556
0.0713963
-0.0376848
0.0838798
-0.0367195
0.0960254
-0.0357389
-0.0350962
0.107987
0.0019623
-0.00806944
0.00914995
-0.0286774
0.0199459
-0.0428364
0.032445
-0.0495432
0.0454561
-0.051589
0.0584167
-0.0514162
0.0711099
-0.0503781
0.0834731
-0.0490827
0.0955071
-0.0477729
-0.046951
0.107362
0.00206481
-0.0101342
0.00933798
-0.0359505
0.0201262
-0.0536246
0.0325358
-0.0619529
0.0454093
-0.0644625
0.0582112
-0.064218
0.0707411
-0.062908
0.0829448
-0.0612864
0.0948303
-0.0596584
-0.0586601
0.106539
0.00219861
-0.0123329
0.00958148
-0.0433334
0.0203569
-0.0644
0.0326487
-0.0742447
0.0453437
-0.0771576
0.0579422
-0.0768166
0.0702652
-0.075231
0.0822687
-0.0732899
0.0939681
-0.0713578
-0.0701807
0.105489
0.00236382
-0.0146967
0.00987481
-0.0508444
0.0206232
-0.0751485
0.0327585
-0.08638
0.0452257
-0.0896247
0.0575705
-0.0891614
0.0696403
-0.0873008
0.0814038
-0.0850534
0.0928823
-0.0828363
-0.0814641
0.104166
0.00255565
-0.0172523
0.0101998
-0.0584885
0.020891
-0.0858397
0.0328161
-0.0983051
0.044993
-0.101802
0.0570238
-0.101192
0.0687891
-0.0990661
0.0802736
-0.0965378
0.0915
-0.0940627
-0.0924456
0.102482
0.00275977
-0.0200121
0.0105156
-0.0662443
0.0210915
-0.0964156
0.0327267
-0.10994
0.0445267
-0.113602
0.05616
-0.112826
0.0675462
-0.110452
0.0786888
-0.10768
0.089603
-0.104977
-0.102988
0.100146
0.00294741
-0.0229595
0.0107495
-0.0740465
0.0211065
-0.106773
0.0323245
-0.121158
0.0436073
-0.124884
0.0546952
-0.123913
0.0655481
-0.121305
0.0761864
-0.118319
0.086601
-0.115391
-0.112769
0.0963819
0.00310472
0.0108725
0.0208926
0.0315454
0.0421286
0.0524427
0.0624787
0.0722781
0.0818164
0.0904847
0.157039
-0.137953
0.0893585
0.18216
-0.0995887
0.0744672
0.194703
-0.0740895
0.0615471
0.200712
-0.0558305
0.0498215
0.2033
-0.0419622
0.0393744
0.20398
-0.0310008
0.0303208
0.203545
-0.022166
0.0226009
0.202424
-0.0148824
0.0160031
0.200866
-0.00895342
0.0105111
-0.0021649
0.00411719
0.156023
-0.185989
0.181188
-0.124754
0.193973
-0.0868738
0.200226
-0.0620835
0.203012
-0.0447484
0.203853
-0.0318424
0.203557
-0.0218695
0.202563
-0.0138881
0.201126
-0.00751725
-0.000336898
0.154272
-0.232899
0.179345
-0.149826
0.192402
-0.0999315
0.198994
-0.0686748
0.202092
-0.0478464
0.203218
-0.0329686
0.203188
-0.0218394
0.202451
-0.0131513
0.201269
-0.00633551
0.00123184
0.151746
-0.278106
0.176614
-0.174695
0.189989
-0.113306
0.197017
-0.0757028
0.200542
-0.0513713
0.202076
-0.0345019
0.202438
-0.0222023
0.202088
-0.0128014
0.201293
-0.00553977
0.0024072
0.14841
-0.321027
0.172989
-0.199274
0.186736
-0.127053
0.194302
-0.0832691
0.198371
-0.0554396
0.200432
-0.0365638
0.201313
-0.0230828
0.201477
-0.0129655
0.201197
-0.00525941
0.00305676
0.144217
-0.361079
0.168457
-0.223513
0.182649
-0.141245
0.190858
-0.0914786
0.195587
-0.0601685
0.198298
-0.0392744
0.199818
-0.0246031
0.20062
-0.0137675
0.200981
-0.00562083
0.00305061
0.139038
-0.397635
0.162976
-0.247451
0.177726
-0.155996
0.186695
-0.100448
0.192204
-0.0656777
0.195682
-0.0427521
0.197961
-0.0268816
0.199521
-0.0153276
0.200647
-0.00674661
0.00226221
0.132823
-0.430312
0.156419
-0.271047
0.171923
-0.1715
0.181811
-0.110335
0.188233
-0.0720991
0.192598
-0.0471175
0.195751
-0.030035
0.198186
-0.0177618
0.200194
-0.00875495
0.000569205
0.125298
-0.459229
0.148487
-0.294235
0.165035
-0.188048
0.176115
-0.121415
0.183643
-0.079627
0.189042
-0.052517
0.193195
-0.0341877
0.19662
-0.0211861
0.199625
-0.0117605
-0.00214627
0.11742
-0.486164
0.14015
-0.316966
0.157612
-0.20551
0.16984
-0.133644
0.178533
-0.0883197
0.18506
-0.0590446
0.190314
-0.0394418
0.194833
-0.0257044
0.198942
-0.0158702
-0.00599707
0.366356
-0.430954
-0.421566
0.338066
-0.288675
0.324508
-0.191953
0.318353
-0.127489
0.315178
-0.0851439
0.313244
-0.0571108
0.311936
-0.038134
0.31104
-0.0248081
0.310454
-0.0152842
-0.00576258
0.37942
-0.36831
-0.442064
0.348683
-0.257938
0.332769
-0.176039
0.324211
-0.118931
0.31918
-0.0801128
0.31598
-0.0539105
0.313854
-0.0360084
0.312448
-0.0234022
0.311564
-0.0144
-0.00542261
0.393663
-0.308346
-0.453627
0.36016
-0.224435
0.340996
-0.156875
0.329827
-0.107762
0.322977
-0.0732637
0.318575
-0.0495077
0.315674
-0.0331081
0.313784
-0.0215118
0.312613
-0.013229
-0.00497873
0.403397
-0.252259
-0.459483
0.369012
-0.19005
0.34789
-0.135753
0.334762
-0.0946339
0.326403
-0.0649042
0.320947
-0.0440517
0.317348
-0.0295091
0.315014
-0.0191775
0.313576
-0.0117918
-0.00443697
0.410416
-0.200478
-0.462197
0.376041
-0.155676
0.353618
-0.11333
0.338995
-0.0800101
0.329399
-0.0553091
0.323046
-0.0376985
0.318837
-0.0253003
0.31611
-0.0164501
0.314434
-0.0101158
-0.00380636
0.415356
-0.152802
-0.463033
0.381464
-0.121784
0.358224
-0.0900906
0.342494
-0.0642796
0.331922
-0.0447374
0.324833
-0.0306093
0.320112
-0.0205796
0.317051
-0.0133884
0.315169
-0.00823427
-0.00309821
0.418713
-0.108624
-0.46289
0.385482
-0.0885527
0.361763
-0.0663714
0.345246
-0.0477634
0.333937
-0.033428
0.326273
-0.0229453
0.321145
-0.0154513
0.317814
-0.0100572
0.315764
-0.00618463
-0.00232565
0.420669
-0.0669211
-0.462372
0.38808
-0.0559637
0.364136
-0.0424273
0.347123
-0.0307501
0.335312
-0.0216169
0.327243
-0.0148764
0.321822
-0.0100305
0.318296
-0.00653095
0.316122
-0.00401126
-0.00150494
0.417653
-0.0252669
-0.459308
0.385774
-0.0240843
0.362143
-0.0187959
0.345167
-0.0137745
0.33328
-0.00972958
0.325116
-0.00671231
0.319617
-0.00453162
0.316039
-0.00295307
0.313835
-0.00180773
-0.000672321
0.345164
-0.37043
0.321079
0.302283
0.288509
0.278779
0.272067
0.267535
0.264582
0.262775
0.454293
0.00978625
-0.453241
0.454544
0.021992
0.453967
0.033762
0.452501
0.0449334
0.449937
0.0555107
0.446653
0.0647041
0.441103
0.0748713
0.43683
0.0794075
0.425744
0.0940138
0.0880777
0.435919
0.00887425
-0.435007
0.437024
0.0208867
0.43823
0.0325563
0.439512
0.0436515
0.440627
0.0543957
0.441883
0.063448
0.442372
0.0743821
0.443407
0.0783725
0.444278
0.0931426
0.0902919
0.42067
0.00775308
-0.419549
0.422483
0.0190737
0.424923
0.0301164
0.427961
0.0406134
0.4315
0.0508565
0.43548
0.0594686
0.440011
0.0698509
0.44416
0.0742236
0.450006
0.087296
0.0866713
0.408822
0.0065617
-0.407631
0.411049
0.0168469
0.414274
0.0268919
0.418439
0.0364482
0.423542
0.0457533
0.429312
0.0536983
0.436276
0.0628875
0.442968
0.0675309
0.451923
0.0783412
0.0791113
0.399547
0.00531635
-0.398302
0.402073
0.0143217
0.405843
0.0231215
0.410791
0.0315004
0.416942
0.0396021
0.424003
0.0466376
0.43251
0.05438
0.441171
0.0588703
0.452045
0.0674672
0.0689588
0.392486
0.00402158
-0.391191
0.395223
0.0115848
0.399371
0.0189736
0.404861
0.0260105
0.411707
0.0327553
0.419664
0.0386808
0.429133
0.0449115
0.439127
0.048876
0.451147
0.0554473
0.0570733
0.387308
0.00267235
-0.385959
0.39021
0.00868334
0.394632
0.014551
0.400506
0.0201367
0.407817
0.0254445
0.416369
0.0301291
0.426417
0.0348634
0.437266
0.038027
0.449949
0.0427642
0.0441317
0.383316
0.00119414
-0.381838
0.386419
0.00558104
0.391127
0.00984299
0.397362
0.0139015
0.405068
0.0177389
0.414072
0.0211249
0.424485
0.0244503
0.435847
0.0266651
0.448841
0.0297698
0.0306005
0.372614
-0.000314702
-0.371106
0.376159
0.00203623
0.381528
0.00447429
0.388628
0.00680121
0.39734
0.00902695
0.407436
0.0110287
0.418904
0.0129827
0.431273
0.014296
0.444954
0.0160884
0.0162473
0.277449
-0.277763
0.279485
0.283959
0.29076
0.299787
0.310816
0.323799
0.338095
0.354183
0.07888
0.125216
-0.113777
-0.090319
0.0684256
0.127546
-0.117091
0.0586135
0.130428
-0.120616
0.0490653
0.133948
-0.124399
0.0395016
0.137862
-0.128298
0.0298034
0.141891
-0.132193
0.0200501
0.144871
-0.135117
0.0107465
0.142128
-0.132824
0.0032663
0.120931
-0.11345
0.0599529
-0.0566866
0.0772311
0.135051
-0.087066
0.0672561
0.137521
0.0573887
0.140296
0.0476874
0.143649
0.0380679
0.147482
0.0284627
0.151496
0.0189525
0.154381
0.0100243
0.151056
0.00297776
0.127977
0.0629307
0.0699166
0.143328
-0.0781933
0.0612549
0.146182
0.0524301
0.149121
0.0435503
0.152529
0.0346338
0.156398
0.0256898
0.16044
0.0168569
0.163214
0.00867246
0.159241
0.00241504
0.134234
0.0653457
0.0598714
0.150191
-0.066735
0.0526791
0.153375
0.0452048
0.156595
0.0375195
0.160214
0.0296762
0.164241
0.0217378
0.168378
0.013908
0.171044
0.0067906
0.166358
0.00164258
0.139383
0.0669883
0.0495982
0.155966
-0.0553733
0.0436029
0.15937
0.0373373
0.16286
0.0308296
0.166722
0.0241259
0.170945
0.0173097
0.175195
0.0106304
0.177723
0.00473602
0.172252
0.000821889
0.143297
0.0678102
0.0397725
0.160876
-0.0446827
0.0347328
0.16441
0.0294946
0.168099
0.0240617
0.172155
0.0184632
0.176543
0.012785
0.180873
0.00730263
0.183205
0.0027044
0.176851
-1.60589e-05
0.146017
0.0677941
0.0300784
0.164942
-0.0341436
0.02595
0.168538
0.0216937
0.172355
0.0173038
0.176544
0.0128008
0.181046
0.00827401
0.1854
0.00400712
0.187472
0.000626523
0.180231
-0.000682639
0.147326
0.0671115
0.0201968
0.168052
-0.0233071
0.0170567
0.171678
0.0138299
0.175582
0.0105132
0.179861
0.00712524
0.184434
0.0037694
0.188755
0.000738559
0.190503
-0.0012329
0.182203
-0.00132032
0.147414
0.0657911
0.0100706
0.170125
-0.0121431
0.00799663
0.173752
0.00586672
0.177712
0.00368674
0.182041
0.00147739
0.186644
-0.000661723
0.190895
-0.00234845
0.19219
-0.00295096
0.182805
-0.00192602
0.146389
0.0638651
-5.18646e-05
-0.000971408
-0.0010522
-0.0020587
-0.00307868
-0.00408093
-0.00492986
-0.00532093
-0.00463417
-0.002462
0.106522
0.0226169
-0.117845
-0.011294
0.0948425
0.0232242
-0.0115443
0.0828153
0.0238395
-0.0118123
0.0704273
0.0244888
-0.0121008
0.0576627
0.0251796
-0.0124151
0.0445092
0.0259054
-0.0127518
0.0310264
0.0265363
-0.0130536
0.0176563
0.026375
-0.0130048
0.0060275
0.0231601
-0.0115313
0.012319
-0.00629151
0.10564
0.0339033
-0.116926
0.0940134
0.0348505
0.0820527
0.0358002
0.0697436
0.0367979
0.05707
0.0378533
0.044019
0.0389564
0.0306518
0.0399035
0.017413
0.0396138
0.00592608
0.034647
0.0182451
0.104371
0.0451313
-0.115599
0.0928317
0.0463894
0.0809737
0.0476583
0.0687821
0.0489894
0.0562403
0.0503951
0.0433357
0.051861
0.030132
0.0531071
0.0170771
0.0526687
0.0057844
0.0459398
0.0240295
0.102633
0.0562658
-0.113767
0.0912219
0.0578
0.0795109
0.0593693
0.0674845
0.0610158
0.0551251
0.0627545
0.0424207
0.0645654
0.0294391
0.0660887
0.0166344
0.0654734
0.00559913
0.056975
0.0296286
0.100322
0.067269
-0.111325
0.0890914
0.0690305
0.0775871
0.0708736
0.0657897
0.0728132
0.0536782
0.074866
0.0412397
0.0770039
0.0285474
0.0787811
0.0160667
0.0779541
0.00537753
0.0676642
0.0350061
0.0973026
0.0780854
-0.108119
0.0863184
0.0800147
0.075091
0.0821011
0.063597
0.0843071
0.051812
0.086651
0.0397213
0.0890946
0.0274026
0.0910997
0.0153315
0.0900252
0.00507175
0.0779239
0.0400779
0.093498
0.0885836
-0.103996
0.0829223
0.0905904
0.0721247
0.0928987
0.0610578
0.095374
0.0496905
0.0980184
0.0380144
0.100771
0.0261242
0.10299
0.0145171
0.101632
0.00474082
0.0877002
0.0448187
0.0879969
0.0985682
-0.0979816
0.0779931
0.100594
0.0678214
0.10307
0.0574097
0.105786
0.046701
0.108727
0.0356727
0.111799
0.0244219
0.114241
0.0134599
0.112594
0.00431373
0.0968464
0.0491325
0.0841226
0.107483
-0.0930371
0.0749757
0.109741
0.0653116
0.112735
0.0552202
0.115877
0.0447874
0.11916
0.0340643
0.122522
0.0231824
0.125123
0.0126674
0.123109
0.00400376
0.10551
0.0531362
0.0737635
-0.0800577
0.0664134
0.0585316
0.0500095
0.0408711
0.0312006
0.0212056
0.0114906
0.00355038
0.201405
0.0140511
-0.0174663
0.203863
0.0247562
-0.0272138
0.20401
0.0301609
-0.0303087
0.204905
0.0320626
-0.0329575
0.204387
0.0381605
-0.0376423
0.202097
0.046691
-0.0444006
0.196618
0.0585633
-0.0530843
0.18589
0.0745465
-0.063819
0.162085
0.099618
-0.0758132
0.13471
-0.0904694
0.201192
0.0108486
0.20352
0.0224284
0.203612
0.0300686
0.204433
0.0312415
0.203809
0.0387849
0.201364
0.0491357
0.19569
0.0642377
0.184662
0.0855744
0.16077
0.12351
0.178554
0.200852
0.00798622
0.202895
0.0203855
0.202837
0.0301266
0.203451
0.0306275
0.202587
0.0396492
0.199863
0.051859
0.193891
0.07021
0.182466
0.0969994
0.158479
0.147497
0.221434
0.20038
0.00559577
0.201992
0.0187736
0.201696
0.0304232
0.201969
0.0303543
0.200732
0.0408858
0.197605
0.0549857
0.191219
0.0765961
0.17929
0.108929
0.155084
0.171704
0.26275
0.199769
0.00381615
0.200816
0.0177269
0.200202
0.0310374
0.199999
0.0305576
0.19826
0.0426245
0.194604
0.0586412
0.187674
0.0835265
0.175133
0.12147
0.15084
0.195997
0.302265
0.199011
0.00279447
0.199374
0.017364
0.198374
0.0320382
0.197554
0.0313767
0.195188
0.0449909
0.190877
0.0629524
0.183254
0.0911491
0.169992
0.134732
0.146191
0.219798
0.340337
0.198097
0.00268717
0.197677
0.0177845
0.19623
0.0334848
0.194652
0.0329552
0.191538
0.0481041
0.186442
0.0680492
0.17798
0.0996108
0.163826
0.148885
0.141159
0.242465
0.3775
0.197017
0.00366036
0.195736
0.0190651
0.193793
0.035428
0.191307
0.0354415
0.187338
0.0520731
0.181326
0.074061
0.171923
0.109014
0.156654
0.164154
0.135213
0.263907
0.414731
0.195768
0.00588173
0.193578
0.0212551
0.191086
0.0379204
0.187537
0.0389902
0.182613
0.0569973
0.175575
0.0810992
0.165233
0.119356
0.149391
0.179996
0.129654
0.283643
0.451348
0.194471
0.0094009
0.191229
0.0244969
0.188164
0.0409856
0.183331
0.043823
0.177447
0.0628816
0.169259
0.0892865
0.157392
0.131223
0.139872
0.197517
0.118889
0.304626
0.490179
0.303087
0.00832383
0.305347
0.0222372
0.30899
0.0373425
0.310583
0.0422302
0.312973
0.0604919
0.315778
0.0864813
0.320431
0.12657
0.330086
0.187861
0.355628
0.279084
0.430646
0.415162
0.303872
0.00646247
0.306469
0.0196403
0.310477
0.0333336
0.313047
0.0396607
0.316712
0.0568266
0.321679
0.0815149
0.329698
0.118551
0.344173
0.173386
0.374321
0.248936
0.371892
0.433075
0.304606
0.00386693
0.307714
0.0165316
0.31197
0.029078
0.315446
0.036185
0.320244
0.0520283
0.327025
0.0747339
0.337689
0.107887
0.355398
0.155677
0.387985
0.216348
0.313863
0.446015
0.305342
0.00053541
0.30895
0.0129236
0.313441
0.0245871
0.317683
0.0319429
0.323501
0.0462102
0.331822
0.0664132
0.344548
0.0951604
0.36458
0.135645
0.397923
0.183005
0.258446
0.45334
0.30612
-0.003574
0.310184
0.00885924
0.31485
0.0199208
0.319709
0.0270841
0.326401
0.0395186
0.335986
0.0568283
0.350277
0.0808689
0.371911
0.114011
0.404944
0.149972
0.206482
0.456908
0.306992
-0.00855547
0.31144
0.00441054
0.31617
0.0151916
0.321483
0.0217701
0.328886
0.0321164
0.33947
0.046244
0.354914
0.0654248
0.377574
0.0913513
0.409822
0.117723
0.158123
0.458181
0.30801
-0.0145555
0.312746
-0.000324802
0.31737
0.0105675
0.322967
0.0161732
0.330913
0.0241702
0.342249
0.0349074
0.358513
0.0491617
0.381767
0.0680971
0.413124
0.086366
0.113024
0.458224
0.309238
-0.0217838
0.314107
-0.00519316
0.318361
0.00631322
0.324057
0.0104778
0.332388
0.0158385
0.344256
0.0230398
0.361077
0.0323401
0.384635
0.0445394
0.4152
0.0558011
0.070641
0.457583
0.308805
-0.0285785
0.31303
-0.00941866
0.316761
0.00258291
0.322464
0.00477468
0.331027
0.00727584
0.343235
0.0108308
0.360423
0.0151526
0.384101
0.0208618
0.414177
0.0257245
0.0317563
0.453062
0.273432
0.264013
0.266596
0.271371
0.278647
0.289477
0.30463
0.325492
0.351216
0.382972
0.428438
-0.103595
0.431976
-0.0906043
0.434067
-0.0802847
0.436727
-0.0693942
0.439987
-0.0586336
0.443413
-0.0481089
0.44666
-0.0373908
0.449457
-0.0261043
0.451681
-0.0143664
-0.00253181
0.433209
-0.10373
0.432996
-0.0903915
0.432233
-0.0795213
0.432152
-0.0693135
0.432499
-0.0589807
0.432891
-0.0485002
0.433238
-0.0377384
0.433676
-0.0265423
0.434289
-0.0149789
-0.00324983
0.439685
-0.0973996
0.434955
-0.085661
0.430651
-0.0752173
0.426974
-0.0656372
0.424093
-0.0560998
0.421893
-0.0462999
0.42033
-0.0361757
0.419437
-0.025649
0.419197
-0.0147385
-0.00360182
0.443078
-0.0871376
0.434827
-0.0774093
0.427807
-0.0681983
0.421835
-0.0596644
0.416955
-0.0512198
0.413112
-0.0424577
0.410248
-0.0333112
0.408364
-0.0237653
0.407482
-0.013856
-0.00375091
0.444413
-0.0746427
0.433908
-0.0669041
0.424991
-0.0592818
0.417401
-0.0520737
0.411086
-0.0449047
0.40603
-0.0374024
0.402216
-0.0294965
0.399649
-0.0211984
0.39835
-0.0125572
-0.00370303
0.444423
-0.0608846
0.432519
-0.0550006
0.422313
-0.0490759
0.413607
-0.0433679
0.406322
-0.0376189
0.400448
-0.0315284
0.395987
-0.0250356
0.392951
-0.0181625
0.391354
-0.0109604
-0.00354032
0.443741
-0.0464015
0.430989
-0.0422488
0.419963
-0.0380502
0.410536
-0.0339404
0.402619
-0.029702
0.396207
-0.0251162
0.391315
-0.0201437
0.387965
-0.014812
0.386179
-0.00917473
-0.00332051
0.442612
-0.0314305
0.429305
-0.0289418
0.417772
-0.0265174
0.407882
-0.0240507
0.399542
-0.0213619
0.392756
-0.0183298
0.387555
-0.0149432
0.383978
-0.0112349
0.382061
-0.00725742
-0.00309808
0.437066
-0.0154342
0.423051
-0.0149273
0.410849
-0.014315
0.400255
-0.0134566
0.391188
-0.0122955
0.383687
-0.0108281
0.377837
-0.00909304
0.373739
-0.00713758
0.371484
-0.00500173
-0.00271993
0.367538
0.352611
0.338296
0.324839
0.312544
0.301716
0.292623
0.285485
0.280483
0.00783358
0.0750775
-0.082911
0.015077
0.179112
-0.186355
0.0181095
0.226249
-0.229281
0.0183023
0.239558
-0.239751
0.0172773
0.2396
-0.238575
0.0159294
0.236114
-0.234766
0.0145543
0.232257
-0.230882
0.0131909
0.22846
-0.227097
0.0118136
0.22352
-0.222143
0.213084
0.0104243
-0.211695
0.00938951
0.065688
0.0204473
0.168054
0.0278344
0.218862
0.0321571
0.235235
0.0350848
0.236673
0.0376885
0.23351
0.0403797
0.229566
0.0431458
0.225694
0.0454923
0.221174
0.212698
0.0458787
0.00996433
0.0557236
0.0238591
0.154159
0.03516
0.207561
0.0435299
0.226865
0.0503727
0.22983
0.0568332
0.22705
0.0634591
0.22294
0.0703246
0.218829
0.0768901
0.214608
0.208614
0.0809733
0.00955497
0.0461687
0.0249648
0.138749
0.0392563
0.193269
0.0511587
0.214963
0.0615629
0.219425
0.0715048
0.217108
0.0816036
0.212841
0.0920762
0.208356
0.102688
0.203996
0.19931
0.111992
0.008393
0.0377757
0.0239219
0.123221
0.0399885
0.177203
0.0545513
0.2004
0.0678575
0.206119
0.080657
0.204308
0.0935217
0.199976
0.106747
0.195131
0.120372
0.190371
0.185603
0.134079
0.00683459
0.0309411
0.0213471
0.108708
0.0379332
0.160617
0.0540751
0.184258
0.0693798
0.190815
0.0841969
0.189491
0.098935
0.185238
0.113867
0.180199
0.129143
0.175095
0.1697
0.145046
0.00525528
0.0256858
0.018136
0.0958274
0.0342664
0.144486
0.0509657
0.167559
0.0673249
0.174455
0.0832829
0.173533
0.0990219
0.169499
0.114722
0.164499
0.130487
0.159331
0.15351
0.146677
0.00392281
0.021763
0.01508
0.0846702
0.0302038
0.129362
0.0466688
0.151094
0.0632258
0.157898
0.0794744
0.157285
0.0953733
0.1536
0.110983
0.148889
0.126409
0.143905
0.138248
0.141671
0.00298411
0.0187789
0.0127193
0.0749351
0.0267479
0.115334
0.0426088
0.135233
0.0588954
0.141612
0.0750066
0.141174
0.0907631
0.137844
0.106172
0.13348
0.121332
0.128745
0.122806
0.136774
0.00240506
0.0163738
0.0111142
0.066226
0.0241547
0.102293
0.0392233
0.120164
0.0548479
0.125987
0.0702882
0.125733
0.0852101
0.122922
0.0994475
0.119243
0.112784
0.115408
0.110593
0.124997
0.00211884
0.014255
0.0102134
0.0581314
0.0225593
0.0899473
0.0369942
0.105729
0.0520863
0.110895
0.0671067
0.110713
0.0817548
0.108274
0.0959539
0.105044
0.109711
0.10165
0.0986677
0.121637
0.00200059
0.0122544
0.00975846
0.0503736
0.021654
0.0780517
0.0356198
0.0917636
0.0502752
0.0962396
0.064912
0.0960761
0.0792271
0.0939586
0.0931162
0.0911546
0.10657
0.0881966
0.0862462
0.118991
0.00193308
0.0103213
0.00946812
0.0428385
0.0210258
0.066494
0.0345889
0.0782005
0.0488141
0.0820144
0.0630117
0.0818786
0.0768826
0.0800877
0.0903166
0.0777206
0.103287
0.0752257
0.0738145
0.115719
0.00188085
0.00844045
0.00925101
0.0354684
0.0205541
0.0551909
0.0338019
0.0649527
0.0476797
0.0681366
0.0615193
0.0680391
0.0750324
0.0665746
0.088112
0.064641
0.100728
0.0626096
0.0615446
0.112998
0.00184113
0.00659932
0.00909284
0.0282166
0.0202187
0.0440651
0.0332487
0.0519227
0.0468891
0.0544962
0.0604899
0.0544382
0.0737753
0.0532891
0.086646
0.0517703
0.0990777
0.050178
0.0493837
0.111239
0.00181189
0.00478742
0.00898036
0.0210482
0.0199874
0.033058
0.0328757
0.0390344
0.0463658
0.041006
0.0598214
0.0409826
0.0729766
0.0401338
0.0857398
0.0390071
0.098092
0.0378257
0.0372685
0.110207
0.00179277
0.00299466
0.00890529
0.0139357
0.0198343
0.022129
0.0326324
0.0262364
0.0460302
0.0276082
0.0594003
0.0276125
0.0724841
0.0270501
0.0851946
0.0262966
0.0975159
0.0255044
0.0251673
0.109617
0.00178454
0.00121012
0.0088638
0.0068564
0.0197428
0.01125
0.0324821
0.0134971
0.0458206
0.0142697
0.0591375
0.0142956
0.0721789
0.0140087
0.0848615
0.0136141
0.0971704
0.0131954
0.0130681
0.10927
0.00178783
-0.000577712
0.00885421
-0.000209978
0.0197007
0.000403587
0.0323972
0.000800487
0.0456904
0.000976485
0.0589652
0.00102085
0.0719721
0.00100181
0.0846303
0.000955882
0.0969263
0.000899404
0.000975431
0.109019
0.0018049
0.00887068
0.019698
0.0323578
0.0456059
0.0588348
0.0717999
0.0844233
0.096693
0.108769
0.138117
0.266747
-0.283227
0.150189
0.116327
-0.128399
0.159655
0.0399453
-0.0494118
0.166949
0.00562217
-0.0129157
0.173053
-0.00788816
0.00178364
0.178482
-0.0119523
0.00652416
0.183459
-0.0119765
0.00699902
0.188083
-0.0103954
0.00577176
0.192397
-0.00835861
0.00404426
-0.00551922
0.00161112
0.141532
0.244206
0.156463
0.101396
0.16634
0.0300678
0.173294
-0.00133119
0.178599
-0.013193
0.183053
-0.0164068
0.186967
-0.0158902
0.19048
-0.0139086
0.193668
-0.0115464
-0.00830805
0.144587
0.215338
0.161914
0.0840689
0.172251
0.0197306
0.178891
-0.0079704
0.183589
-0.017892
0.187204
-0.0200214
0.19017
-0.0188566
0.192684
-0.0164226
0.194856
-0.0137176
-0.0100843
0.147488
0.180849
0.166783
0.0647734
0.177556
0.00895746
0.18395
-0.0143638
0.188065
-0.0220069
0.190932
-0.0228892
0.193058
-0.0209827
0.194687
-0.018051
0.195956
-0.0149867
-0.0109601
0.150338
0.14175
0.171094
0.0440174
0.182211
-0.00215949
0.188387
-0.0205398
0.192003
-0.0256233
0.194224
-0.0251098
0.195621
-0.0223798
0.19648
-0.0189103
0.196965
-0.0154716
-0.0110521
0.15274
0.0992167
0.174777
0.0219807
0.186186
-0.0135688
0.192182
-0.0265355
0.195383
-0.0288251
0.197061
-0.0267875
0.197845
-0.0231634
0.198056
-0.0191211
0.197878
-0.0152941
-0.0104813
0.154687
0.0541464
0.177783
-0.00111537
0.189445
-0.0252303
0.195307
-0.0323979
0.198185
-0.0317023
0.199429
-0.028032
0.199719
-0.0234533
0.199405
-0.0188076
0.198691
-0.0145798
-0.00937281
0.156145
0.00727082
0.180061
-0.0250311
0.191952
-0.0371214
0.19774
-0.0381856
0.200389
-0.0343514
0.201314
-0.0289571
0.201233
-0.0233722
0.200522
-0.018097
0.1994
-0.0134571
-0.00785491
0.157052
-0.0407618
0.181572
-0.049552
0.193678
-0.0492273
0.19946
-0.0439677
0.201983
-0.0368737
0.202706
-0.0296801
0.202379
-0.0230457
0.201401
-0.0171185
0.2
-0.0120568
-0.00605868
0.157366
0.182281
0.194601
0.200455
0.202955
0.203596
0.203151
0.202036
0.20049
0.152918
0.0160252
-0.168944
0.141186
0.0117327
0.135527
0.00565916
0.13392
0.00160619
0.134239
-0.000319005
0.135214
-0.000974103
0.136236
-0.00102212
0.13707
-0.000834488
0.137641
-0.000571175
-0.000219508
0.235705
0.0847372
-0.304417
0.20562
0.0418181
0.193906
0.0173733
0.190473
0.00503907
0.19045
-0.000296716
0.19162
-0.00214336
0.19299
-0.0023925
0.194152
-0.00199624
0.194975
-0.00139436
-0.000548776
0.243387
0.157339
-0.315988
0.21184
0.0733644
0.199739
0.029475
0.196303
0.00847468
0.196375
-0.000368453
0.197631
-0.00339998
0.199077
-0.00383828
0.200297
-0.00321643
0.201165
-0.00226224
-0.000898297
0.238358
0.223894
-0.304913
0.20954
0.102182
0.198824
0.0401909
0.196132
0.0111668
0.196562
-0.000798039
0.198008
-0.00484649
0.199537
-0.00536653
0.200794
-0.00447344
0.201677
-0.00314575
-0.00125265
0.232487
-0.291821
0.206271
0.19705
0.195301
0.196286
0.197964
0.199597
0.200895
0.201793
0.0160635
-1.25148e-05
-0.016051
0.018167
-0.00210347
0.0224382
-0.00427125
0.0293933
-0.00695512
0.0401616
-0.0107683
0.055652
-0.0154903
0.077936
-0.0222841
0.103947
-0.0260112
0.137725
-0.0337778
-0.0312187
0.0452232
-0.000842303
-0.0443934
0.0519497
-0.00883005
0.0651492
-0.0174707
0.0858015
-0.0276074
0.114418
-0.0393852
0.150083
-0.0511553
0.190891
-0.0630914
0.231067
-0.0661877
0.271645
-0.0743551
-0.0639911
0.0693906
-0.00289002
-0.0673429
0.0798874
-0.0193268
0.0992963
-0.0368796
0.127489
-0.0558004
0.162398
-0.074294
0.200138
-0.0888955
0.235768
-0.0987212
0.266568
-0.0969882
0.293931
-0.101717
-0.0860485
0.0874773
-0.00615278
-0.0842146
0.100247
-0.032096
0.122268
-0.0589014
0.151515
-0.0850473
0.183813
-0.106592
0.214801
-0.119884
0.241074
-0.124994
0.264962
-0.120876
0.28591
-0.122666
-0.105051
0.0998393
-0.0955678
0.113622
0.135694
0.162639
0.190127
0.215288
0.236972
0.257767
0.271875
0.0961865
-0.089793
0.0981063
-0.1045
0.0871085
-0.0923015
0.10138
0.077563
-0.0956205
0.105166
0.0671742
-0.0990233
0.109412
0.0558505
-0.10245
0.113774
0.0436425
-0.1059
0.118108
0.0307206
-0.108812
0.121734
0.0176317
-0.108078
0.121167
0.00607816
-0.0940426
0.105596
-0.0486619
0.0547401
0.105086
-0.0794535
-0.115425
0.0944173
-0.0816331
0.0829588
-0.0841621
0.0708032
-0.0868677
0.0580914
-0.089738
0.0449105
-0.092719
0.0313641
-0.0952659
0.0179072
-0.0946207
0.00616128
-0.0822967
-0.0425007
0.104374
-0.068209
-0.115618
0.0929907
-0.07025
0.081321
-0.0724924
0.0693066
-0.0748533
0.0568881
-0.0773196
0.0440233
-0.0798542
0.0307593
-0.0820019
0.017539
-0.0814004
0.00599632
-0.0707541
-0.0365043
0.106102
-0.0568572
-0.117454
0.094566
-0.0587136
0.0826934
-0.0606198
0.0704337
-0.0625935
0.0577531
-0.064639
0.0446374
-0.0667385
0.0311538
-0.0685184
0.0177563
-0.0680029
0.00608161
-0.0590793
-0.0304227
0.106845
-0.0454839
-0.118218
0.0951783
-0.0470469
0.0831594
-0.0486009
0.0707679
-0.050202
0.0579838
-0.0518549
0.0447922
-0.0535469
0.031252
-0.0549781
0.0178051
-0.0545561
0.00608325
-0.0473575
-0.0243395
0.1073
-0.0341206
-0.118663
0.0955993
-0.0353462
0.0835353
-0.0365369
0.0710921
-0.0377588
0.0582522
-0.0390151
0.0450025
-0.0402972
0.0314022
-0.0413778
0.017893
-0.0410469
0.0061166
-0.035581
-0.0182229
0.107546
-0.0227581
-0.118909
0.0958226
-0.0236225
0.083731
-0.0244453
0.0712577
-0.0252854
0.0583874
-0.0261448
0.045108
-0.0270178
0.0314787
-0.0277485
0.0179408
-0.027509
0.00614008
-0.0237803
-0.0120828
0.107605
-0.0113964
-0.118967
0.0958702
-0.0118876
0.0837684
-0.0123435
0.0712866
-0.0128036
0.0584097
-0.0132679
0.0451256
-0.0137337
0.0314933
-0.0141161
0.0179533
-0.013969
0.00614734
-0.0119743
-0.00593545
0.107455
-6.4252e-05
-0.118787
0.095726
-0.00015891
0.0836336
-0.000251146
0.0711645
-0.000334456
0.0583035
-0.00040687
0.0450386
-0.000468845
0.0314287
-0.000506255
0.0179137
-0.000453984
0.00613184
-0.000192518
0.000196388
0.107082
-0.11844
0.095379
0.0833155
0.0708802
0.0580582
0.0448376
0.0312777
0.0178189
0.00609512
0.0214504
-0.208683
-0.0244616
0.0166783
-0.217371
0.011467
-0.221886
0.0062527
-0.225667
0.00116298
-0.229676
-0.0036159
-0.233796
-0.00738725
-0.235979
-0.00852657
-0.228142
-0.0055405
-0.189341
-0.0884515
0.0523901
-0.202699
-0.0583743
0.0441399
-0.209121
0.0354448
-0.213191
0.0268511
-0.217074
0.0184705
-0.221296
0.0104085
-0.225734
0.00312881
-0.2287
-0.00207466
-0.222939
-0.00289973
-0.188516
-0.0913513
0.0786155
-0.192734
-0.0885809
0.0671558
-0.197661
0.0556256
-0.20166
0.0443693