/*--------------------------------*- C++ -*----------------------------------*\
  =========                 |
  \\      /  F ield         | OpenFOAM: The Open Source CFD Toolbox
   \\    /   O peration     | Website:  https://openfoam.org
    \\  /    A nd           | Version:  13
     \\/     M anipulation  |
\*---------------------------------------------------------------------------*/
FoamFile
{
    format      ascii;
    class       volVectorField;
    location    "0.95";
    object      U;
}
// * * * * * * * * * * * * * * * * * * * * * * * * * * * * * * * * * * * * * //

dimensions      [0 1 -1 0 0 0 0];

internalField   nonuniform List<vector> 
1800
(
(-0.0617067 0.061731 9.12326e-20)
(0.0112589 0.0325734 4.23115e-20)
(0.222976 -0.0929261 3.17846e-20)
(0.515355 -0.265828 5.89049e-20)
(0.832748 -0.446056 4.12605e-19)
(1.12937 -0.60542 2.88453e-19)
(1.37579 -0.728929 -2.17033e-19)
(1.5601 -0.812623 -8.07335e-19)
(1.68789 -0.854998 -4.87648e-19)
(1.74041 -0.876791 -4.16472e-19)
(-0.0377344 0.0347076 3.66599e-20)
(0.0912512 -0.0238878 -7.80135e-20)
(0.363055 -0.159114 5.07833e-22)
(0.709117 -0.324913 -1.83451e-19)
(1.06292 -0.485256 7.6608e-20)
(1.37431 -0.617482 6.71368e-19)
(1.61703 -0.711993 -7.15835e-19)
(1.78668 -0.768555 4.73313e-19)
(1.89294 -0.790682 9.34248e-19)
(1.94366 -0.805488 -5.03962e-19)
(-0.00448934 0.00824002 6.76797e-21)
(0.195142 -0.0772815 2.6876e-20)
(0.534731 -0.217395 -2.66454e-20)
(0.931893 -0.369356 -4.49558e-20)
(1.30996 -0.503839 -5.98986e-19)
(1.61941 -0.60593 1.94136e-19)
(1.84229 -0.672246 4.75751e-19)
(1.98378 -0.706862 -4.02995e-20)
(2.06161 -0.716193 -5.84668e-21)
(2.08487 -0.716284 -2.05338e-20)
(0.0389136 -0.0162325 -9.45825e-21)
(0.323126 -0.122567 -3.62936e-20)
(0.734308 -0.259615 -5.9621e-20)
(1.17392 -0.390051 5.07039e-20)
(1.55975 -0.494177 1.6624e-19)
(1.85042 -0.565433 2.20554e-20)
(2.04152 -0.605607 -1.98226e-20)
(2.14972 -0.620998 5.35347e-19)
(2.19846 -0.617573 5.0796e-19)
(2.20352 -0.612753 -1.99095e-19)
(0.0929638 -0.037057 8.90592e-20)
(0.47308 -0.154834 8.59701e-20)
(0.953454 -0.279171 -6.18725e-20)
(1.42042 -0.382129 -7.02027e-20)
(1.79517 -0.455549 -6.1375e-19)
(2.05229 -0.500124 7.08599e-21)
(2.20376 -0.521026 8.1067e-19)
(2.27665 -0.525002 2.8859e-19)
(2.29843 -0.517938 7.21514e-21)
(2.28605 -0.510474 -2.37511e-19)
(0.157156 -0.0520656 -7.02228e-20)
(0.639412 -0.168722 3.40155e-20)
(1.17911 -0.270203 4.41033e-19)
(1.65438 -0.342338 -3.4249e-19)
(2.00116 -0.387632 -5.10923e-19)
(2.21593 -0.411081 1.08276e-18)
(2.32687 -0.418766 -9.00056e-19)
(2.36864 -0.416249 -1.14438e-18)
(2.36964 -0.407371 8.50426e-19)
(2.34616 -0.400828 -1.41063e-20)
(0.229863 -0.0589692 7.12852e-20)
(0.813514 -0.160175 -2.87672e-19)
(1.39639 -0.230973 -1.28509e-18)
(1.86118 -0.273024 7.15701e-19)
(2.16857 -0.295888 1.45206e-18)
(2.33862 -0.305622 -5.01084e-21)
(2.41256 -0.307154 -2.53727e-18)
(2.42891 -0.303853 1.71241e-20)
(2.41444 -0.297986 2.59419e-18)
(2.38289 -0.294758 6.91503e-19)
(0.307802 -0.0554062 1.76721e-20)
(0.984223 -0.126437 3.43327e-19)
(1.59108 -0.161899 1.14398e-18)
(2.03057 -0.177006 -5.60276e-20)
(2.29387 -0.183305 -1.03119e-18)
(2.42226 -0.185162 -3.73879e-19)
(2.46583 -0.184827 0)
(2.46356 -0.18322 9.71742e-19)
(2.43915 -0.180973 -1.16047e-20)
(2.40362 -0.18167 -8.49899e-19)
(0.386609 -0.0400172 1.60544e-20)
(1.14084 -0.0681161 6.57132e-19)
(1.7538 -0.0669892 1.21918e-18)
(2.15912 -0.0599083 -1.36372e-18)
(2.379 -0.0556571 -1.15794e-18)
(2.47144 -0.0549654 3.93755e-19)
(2.4912 -0.0566928 -1.76221e-18)
(2.4755 -0.0594384 -1.30025e-18)
(2.44433 -0.0626831 1.54254e-18)
(2.40573 -0.0684045 1.32722e-18)
(0.461388 -0.0124619 7.80016e-20)
(1.27439 0.012154 4.94922e-19)
(1.87888 0.0491306 2.54827e-19)
(2.24621 0.0739165 -2.16705e-18)
(2.42641 0.0839823 1.60566e-20)
(2.48944 0.0837198 3.90822e-18)
(2.49158 0.0779424 -2.20863e-18)
(2.4671 0.0700326 -1.23983e-18)
(2.43236 0.0613613 4.36076e-19)
(2.3931 0.0509543 -9.85812e-19)
(-0.00641087 0.0302924 6.84468e-20)
(-0.0362727 0.0327443 -1.13778e-20)
(-0.0619816 0.00241802 -7.97886e-22)
(-0.0770667 -0.045056 -8.94504e-21)
(-0.0773628 -0.0989584 -3.67304e-21)
(-0.0629931 -0.152178 -1.96554e-19)
(-0.0357067 -0.200307 -4.91246e-20)
(0.00251833 -0.240898 2.42891e-19)
(0.0488267 -0.272392 5.12384e-21)
(0.0982834 -0.292477 -1.06966e-20)
(-0.0126229 0.0667468 5.44479e-22)
(-0.0423825 0.08853 2.78225e-20)
(-0.0618537 0.0481169 -5.4448e-20)
(-0.0676904 -0.0248579 -3.53908e-20)
(-0.0577356 -0.110666 -9.00585e-20)
(-0.0334157 -0.196734 -2.12262e-19)
(0.00270217 -0.27536 2.40681e-19)
(0.0482664 -0.342169 2.41291e-19)
(0.100425 -0.394887 -3.09204e-19)
(0.154074 -0.429941 7.24927e-20)
(-0.0236219 0.0983212 -6.26763e-20)
(-0.055225 0.136793 7.65289e-20)
(-0.066171 0.0867713 4.07032e-20)
(-0.0581375 -0.00978701 1.56499e-19)
(-0.0323776 -0.125155 4.96536e-20)
(0.00755636 -0.241642 -5.35415e-19)
(0.0579903 -0.348309 5.02868e-20)
(0.115369 -0.438987 4.41495e-19)
(0.17678 -0.510756 -4.47402e-19)
(0.237952 -0.559569 -2.26739e-19)
(-0.0379077 0.123224 -1.14928e-19)
(-0.0719088 0.174799 -4.85104e-21)
(-0.0713843 0.115944 3.24023e-20)
(-0.0446349 -0.00151261 -1.43591e-19)
(0.00262463 -0.143122 1.42397e-19)
(0.0640079 -0.286577 2.44335e-19)
(0.133974 -0.417762 1.47585e-19)
(0.207591 -0.528974 -1.61853e-19)
(0.281494 -0.61667 3.01012e-20)
(0.353606 -0.677359 -1.1289e-20)
(-0.0534947 0.139659 0)
(-0.0889969 0.199569 8.27461e-20)
(-0.0735094 0.132707 -6.76072e-20)
(-0.0229812 -0.00218909 -7.6531e-20)
(0.0514747 -0.165885 -3.55037e-19)
(0.140143 -0.331737 1.69382e-19)
(0.234759 -0.482845 -5.56155e-20)
(0.32859 -0.609986 -1.37108e-19)
(0.417662 -0.709348 0)
(0.504096 -0.778983 -2.6836e-20)
(-0.0681307 0.146384 4.43771e-20)
(-0.102658 0.208565 1.72546e-20)
(-0.0680158 0.134434 -9.84727e-20)
(0.0112726 -0.0146536 2.4632e-19)
(0.118095 -0.195518 -1.96013e-19)
(0.239481 -0.378084 -1.96996e-19)
(0.363392 -0.543381 6.3256e-19)
(0.480821 -0.680709 6.6638e-20)
(0.586611 -0.786389 -9.3697e-19)
(0.689629 -0.860709 -1.69888e-20)
(-0.0794632 0.142978 2.47696e-21)
(-0.108751 0.200393 -6.52536e-20)
(-0.051267 0.118449 1.88396e-19)
(0.0616745 -0.0414305 3.50881e-20)
(0.206648 -0.233729 2.04233e-19)
(0.364977 -0.426748 -2.30168e-19)
(0.521105 -0.59963 -4.1843e-19)
(0.663557 -0.740685 -5.62304e-19)
(0.785621 -0.846593 5.73414e-19)
(0.904141 -0.919814 7.86714e-19)
(-0.0853659 0.130615 -9.58656e-20)
(-0.103408 0.175452 7.56599e-20)
(-0.0179942 0.0843582 3.07194e-19)
(0.133115 -0.0831161 -1.42014e-19)
(0.319832 -0.281622 1.69499e-19)
(0.517423 -0.478221 3.8771e-19)
(0.70594 -0.651223 4.76241e-19)
(0.871491 -0.788903 -5.65243e-19)
(1.00647 -0.888542 -3.97874e-19)
(1.13362 -0.953535 6.43225e-19)
(-0.0848265 0.11146 -1.54157e-19)
(-0.083448 0.13643 -9.82949e-20)
(0.035982 0.0345653 -7.44794e-21)
(0.229702 -0.138083 2.11691e-20)
(0.46034 -0.337137 -2.22643e-19)
(0.696356 -0.529663 3.40813e-19)
(0.913277 -0.694488 1.14782e-19)
(1.09555 -0.821251 -1.29162e-18)
(1.23698 -0.907879 -4.24858e-19)
(1.3595 -0.957624 5.60048e-19)
(-0.0771628 0.0878323 3.49701e-20)
(-0.0461786 0.0873849 -1.32062e-19)
(0.114886 -0.026367 -1.89773e-19)
(0.355784 -0.201159 2.33127e-19)
(0.630727 -0.394359 7.53182e-20)
(0.900858 -0.574442 -3.52837e-19)
(1.13802 -0.722446 -4.86755e-19)
(1.32686 -0.830837 4.30079e-19)
(1.46612 -0.89762 -5.4063e-19)
(1.56522 -0.928783 -4.37788e-19)
(0.361859 -0.283564 1.59666e-19)
(0.692472 -0.203259 -1.26831e-19)
(0.830529 -0.156469 -1.10448e-20)
(0.917623 -0.121957 1.56775e-20)
(0.968353 -0.0946503 -7.56565e-21)
(0.997241 -0.0726373 -5.48665e-21)
(1.0144 -0.0556866 -6.63468e-21)
(1.02553 -0.0403413 -2.24168e-21)
(1.03189 -0.0331459 8.31702e-21)
(1.03833 -0.0183302 2.11509e-21)
(0.389664 -0.408077 1.77059e-19)
(0.710833 -0.267725 5.30545e-20)
(0.843156 -0.192585 6.56673e-22)
(0.927241 -0.142077 -1.33877e-20)
(0.975879 -0.106079 -2.73629e-20)
(1.00314 -0.0793447 0)
(1.01902 -0.0597607 -6.98993e-21)
(1.02907 -0.0428046 3.33065e-21)
(1.0348 -0.0348724 3.28862e-22)
(1.04038 -0.0192144 -3.17095e-21)
(0.43402 -0.522851 -2.58547e-19)
(0.737435 -0.332309 -4.80589e-20)
(0.860369 -0.228475 2.30405e-20)
(0.939358 -0.161906 -4.79001e-21)
(0.984781 -0.117284 -2.4448e-21)
(1.00981 -0.0858382 4.27448e-21)
(1.02409 -0.0636268 0)
(1.03288 -0.0450923 0)
(1.03787 -0.0364291 -3.14038e-21)
(1.04251 -0.0199903 0)
(0.501047 -0.624363 -4.27481e-20)
(0.772709 -0.395934 1.25448e-19)
(0.882449 -0.26384 -1.29083e-21)
(0.953985 -0.181264 0)
(0.995034 -0.128134 3.14121e-20)
(1.01724 -0.0920331 -5.75077e-21)
(1.0296 -0.0672319 0)
(1.03693 -0.0471717 7.72898e-21)
(1.04109 -0.0377924 0)
(1.04471 -0.0206458 1.16896e-21)
(0.596457 -0.708853 -1.51915e-19)
(0.817237 -0.456036 1.12789e-19)
(0.909516 -0.298101 1.91804e-21)
(0.971081 -0.200022 0)
(1.00658 -0.138531 9.14078e-21)
(1.0254 -0.0978559 1.20453e-20)
(1.03553 -0.0705278 3.99283e-21)
(1.04123 -0.0490119 6.42724e-22)
(1.04445 -0.0389394 -2.5486e-21)
(1.04697 -0.0211702 1.82229e-21)
(0.72406 -0.773987 -1.07907e-18)
(0.872944 -0.508996 -2.07593e-19)
(0.941963 -0.329912 -1.62351e-21)
(0.990654 -0.217867 4.25784e-20)
(1.01934 -0.148367 -1.51493e-20)
(1.03423 -0.103245 7.25824e-21)
(1.04182 -0.0734746 1.22035e-20)
(1.04573 -0.0505855 -1.48664e-20)
(1.04792 -0.0398492 -1.20536e-22)
(1.04927 -0.0215549 -1.4011e-21)
(0.882234 -0.820521 1.28316e-19)
(0.943503 -0.552196 7.11992e-20)
(0.981448 -0.357758 -6.65271e-21)
(1.01317 -0.234178 -1.32584e-21)
(1.03334 -0.157398 -2.94398e-20)
(1.04364 -0.108097 3.6455e-21)
(1.04843 -0.0760222 -5.9302e-21)
(1.0504 -0.0518636 -2.69808e-21)
(1.05147 -0.0405018 1.96236e-21)
(1.0516 -0.0217934 -1.21447e-21)
(1.06139 -0.850244 2.71218e-19)
(1.03075 -0.585615 1.07452e-19)
(1.03039 -0.381427 0)
(1.04011 -0.248581 4.28875e-21)
(1.04911 -0.165403 2.47079e-20)
(1.05375 -0.112301 2.71395e-22)
(1.05532 -0.0781127 -2.22766e-20)
(1.0552 -0.0528125 6.2523e-21)
(1.05506 -0.0408746 -8.89399e-23)
(1.05393 -0.0218806 -8.7733e-22)
(1.24704 -0.862666 -4.05876e-19)
(1.13017 -0.609507 -3.10996e-19)
(1.08851 -0.401145 6.87353e-20)
(1.07295 -0.261162 -3.6658e-21)
(1.06782 -0.172508 -1.6988e-21)
(1.06508 -0.115973 -2.16256e-20)
(1.0627 -0.0798212 6.78096e-21)
(1.0602 -0.0534647 3.25726e-22)
(1.05869 -0.0409752 -2.02114e-21)
(1.05627 -0.0218178 -8.04254e-22)
(1.42454 -0.853773 2.87402e-19)
(1.23293 -0.620519 -3.13288e-19)
(1.15004 -0.41489 -3.38086e-20)
(1.10989 -0.270879 -5.98743e-20)
(1.08957 -0.178277 -3.20188e-20)
(1.07813 -0.119022 -1.50113e-20)
(1.07091 -0.0812038 -6.16488e-21)
(1.06556 -0.0538868 0)
(1.06244 -0.0408567 -2.06031e-21)
(1.05862 -0.02161 2.50786e-21)
(1.65926 -0.801278 2.65433e-19)
(1.37436 -0.606108 1.20882e-19)
(1.23057 -0.414967 -1.4979e-19)
(1.15815 -0.272412 1.10338e-20)
(1.11915 -0.178574 1.14875e-20)
(1.0964 -0.118506 -8.8497e-21)
(1.08241 -0.0803426 -3.37287e-21)
(1.07292 -0.0530185 5.21887e-21)
(1.0674 -0.0398909 -2.92771e-21)
(1.06165 -0.0210614 -6.15328e-22)
(1.67135 -0.654891 3.57569e-20)
(1.37895 -0.483522 5.0492e-20)
(1.24249 -0.340199 9.00169e-20)
(1.17367 -0.233042 -1.36821e-20)
(1.13425 -0.157938 5.81031e-20)
(1.10904 -0.107117 3.90259e-20)
(1.09212 -0.0736153 2.61425e-20)
(1.07993 -0.0489672 -2.73108e-21)
(1.07255 -0.0371205 9.24856e-21)
(1.06485 -0.0196715 2.90119e-21)
(1.7154 -0.543932 -1.72059e-19)
(1.45759 -0.430517 -1.8636e-20)
(1.30666 -0.31525 1.16949e-20)
(1.21705 -0.218277 1.77204e-36)
(1.16138 -0.147312 -1.27961e-21)
(1.1259 -0.0991597 -1.04947e-34)
(1.10295 -0.0677424 -1.10957e-21)
(1.08704 -0.0448973 -1.16867e-34)
(1.07754 -0.0340021 4.46107e-22)
(1.06782 -0.0180433 -1.35921e-21)
(1.72876 -0.439649 -3.30159e-34)
(1.48965 -0.34984 -1.55642e-20)
(1.33697 -0.25818 -3.30034e-20)
(1.24246 -0.182752 0)
(1.18055 -0.126063 -2.47164e-20)
(1.13937 -0.0861211 -1.73918e-20)
(1.1122 -0.0593422 -1.12265e-20)
(1.09329 -0.0394859 -9.94762e-35)
(1.08199 -0.0300332 -3.67795e-21)
(1.07044 -0.0160043 1.21187e-21)
(1.73687 -0.347978 -1.03477e-19)
(1.51871 -0.285421 6.9346e-21)
(1.36512 -0.21352 0)
(1.2651 -0.152455 0)
(1.19725 -0.105674 0)
(1.151 -0.072379 0)
(1.12016 -0.049986 -9.91855e-23)
(1.09865 -0.0333075 -1.0897e-34)
(1.08582 -0.0254461 3.36798e-22)
(1.07264 -0.013633 1.37825e-34)
(1.74152 -0.267445 -2.96056e-20)
(1.53928 -0.220974 0)
(1.38576 -0.164746 0)
(1.28182 -0.118257 0)
(1.20988 -0.0826586 0)
(1.15998 -0.0569717 0)
(1.12637 -0.0395323 3.64517e-23)
(1.10284 -0.0264177 6.30114e-21)
(1.08881 -0.0203187 2.87864e-22)
(1.07426 -0.010966 2.15305e-21)
(1.74321 -0.194863 0)
(1.55007 -0.159552 -1.0165e-20)
(1.39639 -0.117149 -1.84061e-20)
(1.29012 -0.0837318 0)
(1.21615 -0.0587426 -1.18721e-20)
(1.16434 -0.0406821 -8.53888e-21)
(1.12914 -0.0283696 -5.88388e-21)
(1.1044 -0.0190326 -3.66119e-21)
(1.08964 -0.014784 4.39535e-21)
(1.07415 -0.00806403 5.6369e-23)
(1.71814 -0.124213 1.02098e-20)
(1.52817 -0.0980143 9.9559e-21)
(1.37636 -0.069945 -6.59306e-21)
(1.2723 -0.0493855 2.63302e-37)
(1.20087 -0.0346704 1.90097e-21)
(1.15083 -0.0240975 -6.2977e-35)
(1.11661 -0.0168958 -2.24007e-22)
(1.09244 -0.011407 5.2827e-22)
(1.07795 -0.00901394 1.91223e-22)
(1.06253 -0.00500068 -7.07693e-22)
(1.51112 -0.0575925 -4.98706e-20)
(1.35047 -0.0359236 1.4835e-20)
(1.22548 -0.0217013 1.64901e-20)
(1.14235 -0.0152258 0)
(1.08627 -0.0114759 8.11514e-21)
(1.04694 -0.00842901 5.5712e-21)
(1.01983 -0.00613049 3.4387e-21)
(1.00058 -0.00426418 2.36389e-21)
(0.988785 -0.00359021 -2.63702e-21)
(0.976066 -0.00210625 1.1451e-21)
(0.711808 -0.000516785 0)
(0.655073 0.00249434 0)
(0.621647 0.00301003 0)
(0.602809 0.00181408 0)
(0.588959 0.000850003 0)
(0.577779 0.000415762 0)
(0.569416 0.000203243 -3.94839e-22)
(0.563157 7.4008e-05 4.33532e-37)
(0.558929 -4.75378e-05 1.54917e-22)
(0.553831 -8.66634e-05 5.50481e-22)
(2.31185 0.0344398 9.29395e-19)
(2.3235 -0.0710684 6.24686e-20)
(2.32823 -0.169287 -1.24564e-19)
(2.30863 -0.268735 -3.78602e-19)
(2.28904 -0.358447 -1.15532e-19)
(2.23513 -0.458251 -1.92051e-19)
(2.19393 -0.540224 -5.72753e-19)
(2.09076 -0.652423 1.6645e-19)
(2.03 -0.70898 0)
(1.85118 -0.848985 1.42772e-19)
(2.22085 0.021307 2.63326e-19)
(2.22757 -0.0646392 -3.56531e-19)
(2.2364 -0.133688 -3.31216e-20)
(2.21687 -0.219418 -1.56208e-19)
(2.20729 -0.27647 6.22144e-20)
(2.16267 -0.370334 1.8028e-19)
(2.13587 -0.413564 -9.39347e-20)
(2.06663 -0.528525 7.59124e-20)
(2.01707 -0.547561 -1.10378e-19)
(1.93039 -0.690328 6.50218e-20)
(2.15277 0.0104407 -1.26911e-19)
(2.15628 -0.0624957 2.58822e-19)
(2.1623 -0.112342 2.03892e-19)
(2.14558 -0.186026 -2.78776e-19)
(2.13466 -0.222861 6.23302e-20)
(2.10119 -0.303651 2.43647e-19)
(2.07312 -0.327953 -2.78185e-20)
(2.02744 -0.423837 3.85181e-20)
(1.97792 -0.433845 5.36625e-20)
(1.92518 -0.547001 7.4211e-20)
(2.09775 -0.00144348 -2.60717e-19)
(2.1015 -0.0604057 1.11428e-20)
(2.10411 -0.097119 -6.65624e-20)
(2.09125 -0.156905 -5.47677e-20)
(2.07752 -0.183226 -5.88024e-20)
(2.05199 -0.247825 -1.17635e-19)
(2.02242 -0.265294 1.43911e-19)
(1.98821 -0.339381 2.41548e-20)
(1.94146 -0.348062 -7.14423e-22)
(1.90225 -0.432645 1.63623e-20)
(2.05346 -0.0115588 5.4477e-20)
(2.05804 -0.057519 8.80456e-20)
(2.0586 -0.0855175 -5.48903e-20)
(2.04895 -0.131585 2.44674e-19)
(2.03442 -0.151708 -6.32114e-21)
(2.01366 -0.200357 -1.91264e-19)
(1.98512 -0.214415 2.9658e-20)
(1.95627 -0.268791 -1.09325e-19)
(1.91433 -0.276854 1.20512e-19)
(1.88066 -0.337711 8.69042e-20)
(2.01694 -0.0214321 -1.40379e-19)
(2.02226 -0.0558044 -7.07715e-20)
(2.02233 -0.0770024 2.45798e-20)
(2.01508 -0.110628 1.02396e-19)
(2.0016 -0.125928 1.18936e-19)
(1.98394 -0.160643 -5.53328e-20)
(1.95809 -0.171616 4.57982e-21)
(1.93224 -0.209694 3.72285e-20)
(1.89518 -0.216294 8.35166e-20)
(1.86391 -0.258726 -6.56283e-20)
(1.97947 -0.0306729 -5.33809e-20)
(1.98503 -0.0550736 -1.0772e-19)
(1.98581 -0.0703083 -9.37365e-20)
(1.98073 -0.0933436 -1.74323e-19)
(1.97006 -0.103955 5.92124e-21)
(1.95571 -0.127244 1.46505e-20)
(1.93424 -0.134401 4.27506e-20)
(1.91205 -0.159698 9.86946e-22)
(1.87999 -0.163352 -4.8729e-20)
(1.85249 -0.192009 2.50795e-21)
(1.90592 -0.0385332 4.98476e-20)
(1.90912 -0.0535025 3.82283e-20)
(1.90937 -0.0622963 1.65595e-20)
(1.90608 -0.076131 -3.12741e-20)
(1.89818 -0.0816956 -2.67068e-20)
(1.89006 -0.0954031 1.48701e-20)
(1.87354 -0.0980942 -1.3803e-20)
(1.86248 -0.11283 -2.30568e-20)
(1.8348 -0.112545 4.32773e-21)
(1.8237 -0.129833 5.18149e-20)
(1.66415 -0.0434571 -4.51402e-20)
(1.6564 -0.0497735 -1.13494e-21)
(1.64709 -0.0529034 7.62857e-20)
(1.63912 -0.0578876 -2.65464e-21)
(1.62725 -0.0586645 -1.46885e-20)
(1.62361 -0.0630804 2.04988e-20)
(1.60783 -0.0616242 -1.88502e-21)
(1.6116 -0.0665048 -1.32778e-20)
(1.58738 -0.0626603 2.93914e-20)
(1.60297 -0.0695647 9.79933e-20)
(0.877369 -0.0156883 4.09557e-20)
(0.852008 -0.014435 3.03018e-20)
(0.829483 -0.0128344 2.72176e-20)
(0.809536 -0.0113975 3.76363e-20)
(0.792291 -0.00972559 -1.46913e-20)
(0.780157 -0.00847788 -9.08823e-21)
(0.767465 -0.00688514 -1.18543e-21)
(0.765375 -0.00599877 2.48337e-23)
(0.752219 -0.00366292 -2.95474e-22)
(0.767377 -0.00560126 6.9181e-23)
(1.46775 0.857893 -6.83853e-20)
(1.45105 0.90137 2.77395e-20)
(1.45182 0.952135 -5.21327e-19)
(1.45813 1.01038 2.41033e-19)
(1.46318 1.07256 9.76603e-19)
(1.4586 1.13141 -1.516e-19)
(1.42424 1.16692 -9.20038e-19)
(1.31439 1.13175 -5.05924e-20)
(1.04656 0.936453 -4.67188e-19)
(0.496286 0.458123 1.45027e-19)
(1.62189 0.831455 0)
(1.6116 0.874039 6.36677e-19)
(1.61015 0.92182 1.41049e-18)
(1.61654 0.978029 -8.51492e-19)
(1.62522 1.03921 -2.00942e-18)
(1.62478 1.09689 -1.51399e-19)
(1.59007 1.12982 -1.92394e-19)
(1.46784 1.09117 6.90027e-19)
(1.16538 0.895881 9.4822e-19)
(0.548691 0.432623 4.24131e-19)
(1.76217 0.796284 6.78925e-20)
(1.76247 0.838292 0)
(1.76461 0.883313 -6.96335e-20)
(1.77318 0.935295 8.7587e-19)
(1.78493 0.992045 5.62949e-20)
(1.78702 1.04508 -2.04857e-18)
(1.74983 1.07285 1.27639e-18)
(1.61295 1.02991 7.92706e-19)
(1.27449 0.837704 -8.43665e-19)
(0.594388 0.398222 -2.91927e-19)
(1.88589 0.745904 -1.53071e-19)
(1.89688 0.786588 -1.16321e-19)
(1.90641 0.828907 2.54574e-19)
(1.92 0.876496 -3.16239e-19)
(1.93557 0.927949 -1.49161e-18)
(1.93934 0.975032 -1.14053e-18)
(1.89782 0.996229 1.22265e-18)
(1.74387 0.948908 7.62278e-19)
(1.36869 0.762849 0)
(0.629851 0.355004 0)
(1.99617 0.679763 -8.78717e-19)
(2.0163 0.717933 -1.55769e-18)
(2.03392 0.757007 -6.09306e-19)
(2.05351 0.800007 -3.6186e-20)
(2.07295 0.845713 0)
(2.07718 0.885938 1.49591e-19)
(2.02877 0.900333 1.7582e-19)
(1.85539 0.848384 2.2103e-19)
(1.44144 0.67133 -3.24501e-19)
(0.651635 0.304141 -8.18151e-20)
(2.09343 0.597518 1.05683e-18)
(2.12119 0.63249 -4.59424e-20)
(2.14636 0.667919 -1.24384e-18)
(2.17187 0.706092 0)
(2.19458 0.745745 0)
(2.19762 0.778745 0)
(2.13958 0.784738 1.49131e-18)
(1.94191 0.731308 -1.66443e-18)
(1.48837 0.568251 -1.07014e-18)
(0.658412 0.247536 -1.53944e-20)
(2.18069 0.50399 -1.41454e-18)
(2.21362 0.534496 -2.96928e-18)
(2.24436 0.565362 -5.15347e-21)
(2.27422 0.59807 5.96461e-19)
(2.29844 0.630598 -4.37705e-20)
(2.29723 0.65546 1.30212e-18)
(2.2246 0.655264 -7.00729e-19)
(1.99824 0.601753 -2.00049e-18)
(1.50759 0.455178 1.70598e-19)
(0.649173 0.188198 1.19563e-19)
(2.25393 0.398908 -1.14553e-18)
(2.29102 0.424679 1.85409e-20)
(2.32603 0.4505 4.40879e-19)
(2.35866 0.477303 -4.23229e-19)
(2.38192 0.502864 6.46421e-19)
(2.37252 0.520145 1.7892e-18)
(2.28059 0.51452 -2.2339e-19)
(2.02298 0.462988 -1.11145e-18)
(1.49692 0.33716 2.72555e-19)
(0.623865 0.129419 4.9204e-20)
(2.31628 0.287416 4.333e-19)
(2.35495 0.307211 9.60684e-20)
(2.39146 0.327606 -4.65874e-19)
(2.42398 0.348243 -1.0584e-18)
(2.44269 0.366769 1.01854e-19)
(2.42061 0.376982 1.03824e-19)
(2.3045 0.367152 -1.50302e-18)
(2.01257 0.320503 5.92611e-19)
(1.45431 0.220161 1.82694e-19)
(0.582908 0.0744444 -1.49224e-19)
(2.36211 0.169259 8.54028e-19)
(2.402 0.184503 -1.28127e-18)
(2.43869 0.199177 2.0852e-19)
(2.46875 0.213407 2.59156e-18)
(2.4793 0.225211 1.31682e-18)
(2.43961 0.229572 -2.83478e-18)
(2.29413 0.218052 -2.75483e-18)
(1.96522 0.18026 1.28981e-18)
(1.37995 0.109896 1.97948e-21)
(0.527998 0.0262915 1.97445e-20)
(0.520793 0.281477 -1.77727e-19)
(0.482221 0.291833 -1.6869e-19)
(0.438254 0.302905 8.18587e-20)
(0.389696 0.314724 -2.70524e-19)
(0.33644 0.327161 -2.87665e-20)
(0.277722 0.339356 2.43813e-19)
(0.212687 0.347668 5.25525e-20)
(0.142007 0.340836 -1.76606e-20)
(0.0726891 0.292308 9.50388e-21)
(0.0139209 0.153694 1.76856e-20)
(0.556456 0.38473 1.45956e-19)
(0.518615 0.401407 1.92409e-19)
(0.476005 0.41944 4.36023e-20)
(0.429129 0.438882 -6.74274e-20)
(0.37769 0.459538 -2.60925e-19)
(0.320753 0.480046 -2.38722e-21)
(0.25691 0.494796 1.14176e-19)
(0.185327 0.486938 2.3336e-20)
(0.109914 0.417672 -9.1238e-20)
(0.0334899 0.218617 -3.08158e-20)
(0.610469 0.482536 -1.40207e-19)
(0.573859 0.505072 -1.33767e-19)
(0.533334 0.529495 1.2247e-19)
(0.489008 0.556051 9.98241e-20)
(0.440338 0.584583 -7.38417e-20)
(0.386152 0.613288 -6.67415e-20)
(0.32421 0.634602 -1.01089e-19)
(0.251328 0.62612 -3.09691e-20)
(0.166455 0.537036 -5.27645e-20)
(0.0630226 0.280077 3.01454e-21)
(0.679588 0.575992 6.39127e-20)
(0.644461 0.604637 -3.33913e-20)
(0.606819 0.635311 -1.02869e-19)
(0.566015 0.668472 7.81692e-22)
(0.521106 0.703982 -7.95965e-20)
(0.470646 0.739545 1.36818e-20)
(0.411361 0.765703 -2.10102e-19)
(0.336983 0.755025 3.87606e-21)
(0.2398 0.646187 -2.72444e-19)
(0.101198 0.335524 5.11623e-20)
(0.765755 0.656638 -1.12005e-20)
(0.732889 0.690165 2.57012e-21)
(0.699108 0.726074 -4.79505e-20)
(0.663051 0.765239 -2.21519e-19)
(0.623238 0.807497 9.97955e-20)
(0.577634 0.849992 -2.25416e-20)
(0.5215 0.881469 1.04958e-19)
(0.444661 0.86972 -8.49304e-20)
(0.330992 0.743474 3.36588e-19)
(0.147956 0.384383 2.51517e-19)
(0.863095 0.733664 -4.66448e-20)
(0.832244 0.772089 -1.28643e-19)
(0.802289 0.81211 8.83268e-20)
(0.770998 0.855576 9.75493e-20)
(0.736605 0.902709 2.90871e-19)
(0.696635 0.950107 1.86207e-19)
(0.644555 0.984538 5.20637e-19)
(0.565493 0.96943 2.27116e-19)
(0.433565 0.825644 1.7322e-19)
(0.200525 0.424277 2.07647e-19)
(0.970282 0.789449 -1.0491e-19)
(0.943765 0.832093 4.61309e-19)
(0.920196 0.876317 2.93849e-19)
(0.895818 0.924247 -3.54725e-19)
(0.868109 0.976129 -1.78973e-19)
(0.834146 1.02821 5.74688e-19)
(0.785715 1.06565 -1.05108e-19)
(0.70284 1.04799 -3.62188e-19)
(0.548758 0.889439 -3.86789e-20)
(0.258488 0.453869 2.32764e-19)
(1.08501 0.843424 2.39303e-19)
(1.05952 0.88729 5.90185e-20)
(1.04036 0.932311 -6.81532e-19)
(1.02297 0.982191 1.10024e-19)
(1.00361 1.0368 4.6378e-19)
(0.977721 1.09121 -2.91647e-19)
(0.934348 1.12882 -7.32702e-20)
(0.847686 1.10622 -1.54008e-19)
(0.669663 0.933554 1.55738e-20)
(0.318553 0.472101 -3.0693e-19)
(1.207 0.866477 2.22612e-20)
(1.19121 0.914144 -4.83759e-19)
(1.1799 0.960714 -3.87858e-21)
(1.16871 1.01208 3.95507e-19)
(1.1553 1.06914 -3.95795e-19)
(1.13523 1.12624 7.8495e-19)
(1.09486 1.16478 5.38925e-19)
(1.00182 1.13866 -8.24058e-19)
(0.796071 0.955698 -5.01292e-20)
(0.379723 0.478586 -3.21074e-19)
(1.30583 0.881144 -2.73563e-19)
(1.29977 0.929272 -2.65928e-19)
(1.30415 0.9774 2.75569e-19)
(1.30741 1.02993 6.43698e-19)
(1.30576 1.08716 2.47245e-19)
(1.29461 1.14353 -6.43762e-19)
(1.25826 1.17969 4.8248e-20)
(1.15808 1.14826 1.76847e-19)
(0.922617 0.957038 -2.41735e-19)
(0.439542 0.473891 -2.28427e-19)
(0.90307 0.0136422 2.95329e-21)
(1.08005 0.0384455 -1.80063e-20)
(0.98956 0.0613511 -1.48067e-20)
(1.02774 0.0740462 0)
(1.0174 0.083315 2.13992e-20)
(0.992112 0.0968037 2.89e-20)
(0.969516 0.113438 3.82418e-20)
(0.914612 0.141504 8.10403e-20)
(0.846307 0.179563 -1.17262e-19)
(0.688227 0.229228 -1.55877e-19)
(0.902903 0.0112948 3.83912e-20)
(1.07898 0.0358352 -5.94785e-20)
(0.988846 0.0605942 -5.396e-24)
(1.0285 0.0750217 -1.87373e-20)
(1.01976 0.0869891 1.07388e-20)
(0.99661 0.102526 -1.44203e-20)
(0.975968 0.125507 -9.10107e-20)
(0.925906 0.159284 0)
(0.858684 0.21631 2.43457e-19)
(0.718165 0.297219 -2.71e-19)
(0.902509 0.00916832 -3.22002e-20)
(1.0785 0.0333256 1.66055e-20)
(0.988216 0.0597183 4.15831e-20)
(1.02987 0.0757095 1.12164e-20)
(1.02247 0.0902325 -2.5667e-20)
(1.00217 0.108026 1.10804e-21)
(0.983105 0.136944 -6.32512e-20)
(0.940885 0.177042 -5.60402e-21)
(0.873774 0.252047 1.54343e-22)
(0.762116 0.362638 7.02207e-19)
(0.901905 0.00724573 -2.85883e-20)
(1.07853 0.0309098 2.6882e-21)
(0.987651 0.0587242 3.40362e-20)
(1.03182 0.0761263 2.0919e-20)
(1.02561 0.0930178 -1.23663e-20)
(1.0087 0.113355 -1.61322e-20)
(0.991195 0.147564 9.25138e-20)
(0.959194 0.194891 -1.66966e-21)
(0.891909 0.285828 -2.71874e-19)
(0.819329 0.424569 8.00175e-20)
(0.901112 0.00550271 2.03547e-20)
(1.079 0.0285762 -3.23119e-20)
(0.987136 0.0576063 -2.68355e-20)
(1.03433 0.0762711 1.19725e-20)
(1.02925 0.0953341 0)
(1.01608 0.118532 0)
(1.00059 0.157225 7.7953e-20)
(0.980226 0.213067 3.99315e-22)
(0.913718 0.316727 -1.25799e-19)
(0.888975 0.481928 9.52141e-20)
(0.900161 0.00389363 5.24387e-21)
(1.07983 0.0263062 2.66753e-20)
(0.986657 0.0563553 -6.96393e-20)
(1.03737 0.0761279 -2.60999e-20)
(1.03346 0.0971899 -3.51205e-22)
(1.02416 0.123543 6.6436e-20)
(1.0117 0.165782 1.20258e-19)
(1.00325 0.231955 -6.69364e-22)
(0.939686 0.343323 2.05924e-19)
(0.970533 0.536418 -2.14068e-19)
(0.899079 0.00240203 -2.4705e-20)
(1.08094 0.0240783 1.42143e-20)
(0.986213 0.0549579 -1.76759e-20)
(1.04091 0.0756675 -5.31337e-20)
(1.03829 0.098613 1.28059e-21)
(1.03282 0.12832 -1.47292e-21)
(1.02498 0.173196 -7.04024e-21)
(1.02722 0.251206 -2.2421e-19)
(0.97237 0.3654 1.52848e-19)
(1.05543 0.581169 -5.12656e-19)
(0.897855 0.00101533 -2.10517e-21)
(1.08231 0.0218549 -4.19525e-20)
(0.985843 0.0533918 3.58577e-20)
(1.04497 0.0748523 3.02902e-20)
(1.04376 0.0996458 7.19959e-22)
(1.042 0.13276 -7.67252e-20)
(1.04056 0.179464 -6.53363e-20)
(1.05211 0.270623 3.98045e-19)
(1.00892 0.383527 1.29646e-20)
(1.159 0.635061 8.13768e-19)
(0.896348 -0.000247652 1.437e-20)
(1.0841 0.0196025 1.92091e-20)
(0.985672 0.0516349 3.8699e-20)
(1.04964 0.0736634 -3.28493e-20)
(1.04988 0.100344 -8.14502e-20)
(1.0517 0.136683 1.40955e-21)
(1.05874 0.184456 -8.92173e-20)
(1.07596 0.287479 5.16586e-19)
(1.0649 0.387984 -8.12053e-21)
(1.23194 0.657141 -1.12596e-18)
(0.894138 -0.00124796 1.32604e-21)
(1.08684 0.0174977 3.01237e-20)
(0.985805 0.0498384 1.40307e-20)
(1.05513 0.0723007 -6.72093e-20)
(1.05637 0.10113 -7.71173e-20)
(1.0614 0.140731 -6.43368e-20)
(1.07612 0.192842 -1.59532e-19)
(1.09841 0.306754 -4.70441e-19)
(1.1123 0.41478 -2.56169e-19)
(1.35393 0.72369 -1.21022e-18)
(0.890296 -0.0032037 -3.83471e-21)
(1.09136 0.0140536 -6.74522e-21)
(0.987042 0.0457919 -1.47256e-20)
(1.06178 0.0684469 2.94853e-20)
(1.06662 0.0983039 5.53557e-20)
(1.07622 0.139699 -4.3408e-20)
(1.10571 0.187356 1.42852e-19)
(1.13046 0.313604 -4.42745e-19)
(1.18833 0.364164 -1.92449e-19)
(1.37963 0.715921 6.55682e-19)
(0.889074 -0.00710222 4.36974e-21)
(1.09577 0.00876933 1.47091e-20)
(0.992514 0.0383702 -8.31944e-21)
(1.06936 0.0613813 5.95721e-20)
(1.07885 0.0913201 8.8406e-20)
(1.09292 0.131317 1.28016e-19)
(1.13755 0.175808 3.02671e-20)
(1.15405 0.295717 2.25987e-19)
(1.28328 0.314418 3.24199e-19)
(1.4091 0.631023 1.05582e-20)
(0.888234 -0.0115128 -4.22877e-21)
(1.10088 0.00264855 -3.95329e-21)
(0.999623 0.0305419 1.92308e-21)
(1.07773 0.0535508 6.58967e-21)
(1.09056 0.0830679 2.53077e-34)
(1.11073 0.120041 -8.05769e-21)
(1.15975 0.16196 -5.68113e-34)
(1.18857 0.269119 1.9453e-20)
(1.33642 0.26182 -5.58149e-20)
(1.43765 0.557474 -5.47731e-20)
(0.887413 -0.0171069 1.67689e-20)
(1.10715 -0.00487781 -4.417e-35)
(1.0077 0.022079 -2.33557e-21)
(1.08646 0.0450233 -2.569e-20)
(1.10149 0.0733876 -3.81566e-20)
(1.12841 0.106982 -4.32803e-20)
(1.17458 0.145169 -6.98979e-34)
(1.22989 0.23787 -9.07565e-20)
(1.3559 0.215909 -1.44716e-19)
(1.46753 0.479489 9.49429e-20)
(0.88658 -0.024054 0)
(1.11505 -0.0137511 7.38332e-35)
(1.01689 0.0125204 0)
(1.09533 0.0359139 0)
(1.11169 0.0623803 0)
(1.14432 0.0927209 0)
(1.18647 0.125147 -4.31616e-34)
(1.26646 0.204256 0)
(1.36349 0.176447 -2.02806e-20)
(1.49657 0.394256 5.64266e-20)
(0.88567 -0.0324046 5.70991e-21)
(1.12488 -0.0238227 7.08158e-21)
(1.02746 0.00521196 -3.16296e-21)
(1.10443 0.0274985 0)
(1.12115 0.0507502 0)
(1.15758 0.0773977 6.86679e-21)
(1.1976 0.103084 3.29915e-20)
(1.29256 0.168679 -1.45245e-20)
(1.37175 0.140778 -2.95648e-20)
(1.51748 0.309152 2.16413e-19)
(0.885065 -0.0455551 -7.07019e-20)
(1.13757 -0.038288 -1.47233e-21)
(1.03912 -0.00690901 -3.5005e-21)
(1.11182 0.0176798 -1.22942e-20)
(1.12859 0.0381883 -1.59671e-20)
(1.16743 0.0608586 -1.18187e-20)
(1.20719 0.0802012 -2.56633e-20)
(1.309 0.130762 -3.63094e-20)
(1.38158 0.10804 -5.58384e-20)
(1.52885 0.228612 7.40506e-20)
(0.886033 -0.0519592 -9.83119e-21)
(1.14524 -0.0457844 -1.62351e-20)
(1.0427 -0.00960752 -3.94212e-21)
(1.11152 0.0118663 -5.76722e-21)
(1.12649 0.026431 3.1348e-35)
(1.16702 0.0436036 7.38455e-21)
(1.20738 0.057152 -9.47914e-34)
(1.3146 0.0907225 -1.46072e-20)
(1.38222 0.0771218 1.83662e-20)
(1.53511 0.152417 2.65853e-20)
(0.888764 -0.0870246 1.84563e-19)
(1.09829 -0.0715791 -3.40976e-21)
(0.971995 -0.0243615 -3.93729e-21)
(1.03632 0.00287654 8.19267e-21)
(1.05032 0.0130548 6.76604e-21)
(1.09453 0.025748 1.64386e-20)
(1.13666 0.0336342 1.03262e-20)
(1.25319 0.0520849 -6.70957e-21)
(1.3055 0.0467002 -1.8261e-20)
(1.49137 0.0830318 1.38026e-19)
(0.792821 -0.0445199 1.11208e-20)
(0.774112 -0.0328765 -8.52263e-35)
(0.585851 -0.00772503 -4.971e-21)
(0.628376 -0.00110225 0)
(0.624589 0.00226685 0)
(0.659238 0.00536867 7.56638e-21)
(0.699241 0.00584609 -8.14831e-36)
(0.784785 0.0105748 -1.45256e-20)
(0.834073 0.00792074 -2.69651e-20)
(0.976194 0.0151744 5.72735e-20)
(1.56309 0.754607 -1.93493e-19)
(1.65667 0.737485 -2.88632e-19)
(1.76136 0.706615 0)
(1.86081 0.659008 1.33398e-19)
(1.95335 0.596942 6.00034e-19)
(2.03667 0.520645 -1.29282e-19)
(2.11444 0.436206 1.65708e-18)
(2.18014 0.34143 -7.89923e-20)
(2.23852 0.244346 -3.88487e-19)
(2.27923 0.138699 3.58423e-19)
(1.58379 0.622607 9.25848e-20)
(1.65598 0.605577 1.15602e-19)
(1.74127 0.573343 -1.0312e-20)
(1.82644 0.526057 2.01879e-19)
(1.90809 0.469153 -1.70986e-19)
(1.98022 0.402858 -4.11012e-19)
(2.04885 0.334315 -1.18725e-19)
(2.104 0.257293 5.70988e-19)