/*--------------------------------*- C++ -*----------------------------------*\
  =========                 |
  \\      /  F ield         | OpenFOAM: The Open Source CFD Toolbox
   \\    /   O peration     | Website:  https://openfoam.org
    \\  /    A nd           | Version:  13
     \\/     M anipulation  |
\*---------------------------------------------------------------------------*/
FoamFile
{
    format      ascii;
    class       volVectorField;
    location    "0.495";
    object      U;
}
// * * * * * * * * * * * * * * * * * * * * * * * * * * * * * * * * * * * * * //

dimensions      [0 1 -1 0 0 0 0];

internalField   nonuniform List<vector> 
1800
(
(0.0978023 -0.08833 -4.4917e-20)
(0.286897 -0.241953 -3.4134e-20)
(0.473973 -0.379045 -4.85063e-19)
(0.65769 -0.500155 1.91484e-19)
(0.836606 -0.607163 7.43752e-20)
(1.0099 -0.701361 -3.90457e-20)
(1.17714 -0.783443 5.54717e-20)
(1.33791 -0.853642 1.9707e-19)
(1.49156 -0.912909 5.92056e-19)
(1.63349 -0.966828 8.09823e-19)
(0.119062 -0.0915038 -7.91232e-20)
(0.344293 -0.247711 -7.70627e-19)
(0.563284 -0.384751 3.7816e-21)
(0.775363 -0.504235 1.258e-19)
(0.979502 -0.608917 -1.2629e-19)
(1.17521 -0.700685 7.66424e-20)
(1.3623 -0.780771 -2.80967e-19)
(1.54076 -0.850072 -5.01682e-20)
(1.71008 -0.910667 -6.93196e-19)
(1.86782 -0.966993 6.29526e-19)
(0.141652 -0.0923239 4.88235e-20)
(0.403682 -0.247733 2.09291e-19)
(0.653757 -0.382118 5.43356e-19)
(0.892179 -0.497905 -1.90278e-19)
(1.11865 -0.598383 -1.43016e-19)
(1.33321 -0.685806 7.5629e-20)
(1.53604 -0.761695 9.83029e-20)
(1.72742 -0.82728 1.94083e-19)
(1.90719 -0.884776 2.73501e-21)
(2.07419 -0.937833 1.50988e-19)
(0.163908 -0.0897216 -4.57196e-20)
(0.461701 -0.239471 -2.04394e-19)
(0.74143 -0.36762 -1.81265e-19)
(1.00451 -0.476977 -1.42308e-19)
(1.25162 -0.571021 1.81325e-19)
(1.48351 -0.652124 -5.70942e-20)
(1.70092 -0.721899 -4.31171e-21)
(1.90452 -0.78161 2.96557e-21)
(2.09454 -0.833348 -1.60388e-19)
(2.27024 -0.880332 -1.06005e-19)
(0.184659 -0.083357 -1.14046e-19)
(0.515896 -0.221808 8.76352e-20)
(0.823295 -0.339432 1.7985e-19)
(1.10931 -0.439064 2.43317e-19)
(1.37562 -0.524071 -2.85042e-19)
(1.62371 -0.596775 -3.5808e-21)
(1.85494 -0.658762 4.25018e-19)
(2.07042 -0.711255 -1.8505e-19)
(2.27083 -0.756152 -1.23992e-19)
(2.45577 -0.796381 -5.36063e-20)
(0.203191 -0.0735005 1.73597e-19)
(0.564473 -0.195201 1.02987e-18)
(0.896795 -0.298076 1.43257e-19)
(1.20352 -0.384736 -5.03159e-19)
(1.48719 -0.458227 -1.75513e-19)
(1.75003 -0.520668 6.37724e-19)
(1.99391 -0.573522 -1.45397e-19)
(2.22036 -0.617895 -4.31632e-19)
(2.43047 -0.655437 -3.16608e-19)
(2.62419 -0.688732 2.61593e-19)
(0.2189 -0.0605917 1.16342e-19)
(0.605748 -0.160702 -7.4761e-19)
(0.959318 -0.245031 -1.08564e-18)
(1.28371 -0.315799 3.838e-19)
(1.58224 -0.375564 4.49966e-19)
(1.85768 -0.426128 -9.02126e-22)
(2.11239 -0.468738 -6.39724e-19)
(2.34829 -0.504322 2.19319e-19)
(2.56683 -0.534208 -3.6439e-19)
(2.76828 -0.560563 -3.11164e-19)
(0.231237 -0.0451725 -3.42494e-19)
(0.638203 -0.119685 -6.92618e-19)
(1.00849 -0.182295 1.21224e-18)
(1.34678 -0.2347 5.98714e-19)
(1.65694 -0.278853 -2.69769e-19)
(1.94225 -0.316135 -2.11503e-19)
(2.20544 -0.347514 0)
(2.44875 -0.373687 1.16815e-19)
(2.67399 -0.395619 -2.95846e-19)
(2.88172 -0.414965 -7.746e-20)
(0.239768 -0.0278756 -2.0447e-19)
(0.660656 -0.0737561 5.62401e-19)
(1.04249 -0.112199 1.71018e-19)
(1.39032 -0.14429 -5.12509e-19)
(1.70841 -0.171277 -7.84213e-19)
(2.00038 -0.194053 3.66215e-20)
(2.26925 -0.213244 1.67122e-19)
(2.51753 -0.229292 -5.46855e-19)
(2.74732 -0.242781 -2.89757e-19)
(2.95954 -0.254774 -5.63585e-19)
(0.244262 -0.00940247 4.51418e-19)
(0.672457 -0.024704 3.44161e-19)
(1.06031 -0.0373615 -9.38604e-20)
(1.41304 -0.0477881 -1.29839e-20)
(1.73515 -0.0564616 -3.87514e-19)
(2.03042 -0.0637221 -8.5732e-20)
(2.30206 -0.0698088 -2.90583e-19)
(2.55277 -0.0748887 6.46569e-19)
(2.78481 -0.0791692 1.71005e-19)
(2.99946 -0.0830097 2.22728e-21)
(-0.00235082 -0.0218235 -3.1129e-20)
(0.00868954 -0.0693145 -7.17758e-20)
(0.024996 -0.120199 -7.2807e-21)
(0.0494006 -0.170695 -3.43794e-20)
(0.0777514 -0.21602 -1.27041e-20)
(0.10663 -0.254193 -3.89699e-19)
(0.1357 -0.288157 -1.92469e-20)
(0.166507 -0.321458 1.19885e-19)
(0.199335 -0.35493 1.1015e-20)
(0.233226 -0.387255 -3.60755e-20)
(0.000837128 -0.0247392 -9.77613e-20)
(0.0149746 -0.0851115 -2.09696e-19)
(0.0393414 -0.160031 -5.69417e-20)
(0.069276 -0.224794 -1.10809e-19)
(0.0995599 -0.275088 -9.77348e-20)
(0.130599 -0.317549 -2.81089e-19)
(0.164651 -0.35852 2.01272e-19)
(0.202313 -0.39986 1.67815e-19)
(0.241814 -0.439716 -2.55381e-19)
(0.28134 -0.476061 8.08736e-20)
(0.00548846 -0.0315433 -8.54382e-20)
(0.0287863 -0.107443 -8.59696e-19)
(0.0628151 -0.195885 -1.27653e-19)
(0.097443 -0.268662 9.50289e-20)
(0.13188 -0.326909 6.80717e-20)
(0.169768 -0.379947 -4.54869e-19)
(0.213067 -0.431898 3.61386e-20)
(0.259255 -0.481314 3.66681e-19)
(0.305622 -0.525733 -3.85465e-19)
(0.351598 -0.5651 -2.58029e-19)
(0.0113672 -0.0410306 -1.81912e-21)
(0.0466235 -0.130887 1.88699e-19)
(0.0896091 -0.225211 1.6784e-21)
(0.133069 -0.30686 -1.11295e-20)
(0.177827 -0.377672 -3.0219e-20)
(0.227302 -0.443597 8.90179e-20)
(0.28115 -0.505281 7.43034e-20)
(0.335732 -0.560493 -1.36434e-19)
(0.389822 -0.608939 9.21616e-21)
(0.444013 -0.651475 -1.04396e-20)
(0.0185098 -0.0507991 0)
(0.0672348 -0.152435 5.41104e-21)
(0.121919 -0.253579 -5.06836e-19)
(0.178686 -0.345383 5.10658e-20)
(0.237818 -0.428447 -1.20575e-20)
(0.30053 -0.504901 7.90272e-21)
(0.365324 -0.574124 -2.60088e-20)
(0.429833 -0.635132 -7.82667e-21)
(0.493988 -0.688496 0)
(0.558192 -0.734469 -2.05916e-20)
(0.0273279 -0.0596656 3.16766e-20)
(0.0918936 -0.172863 -1.53373e-19)
(0.161756 -0.282502 -4.5319e-20)
(0.23462 -0.383841 -5.85453e-20)
(0.309731 -0.476673 4.97566e-20)
(0.38673 -0.56141 4.13507e-21)
(0.464234 -0.637527 9.22391e-20)
(0.540933 -0.704723 -2.17573e-20)
(0.616908 -0.76318 -6.97308e-19)
(0.692159 -0.812346 -1.01131e-20)
(0.0379775 -0.0676133 7.04906e-22)
(0.121237 -0.192185 5.63201e-20)
(0.209158 -0.31061 -7.87763e-20)
(0.299918 -0.420151 -1.67411e-20)
(0.392124 -0.520621 -7.28797e-20)
(0.484761 -0.612047 -1.03271e-20)
(0.576679 -0.694206 9.01779e-21)
(0.666916 -0.766985 -2.12788e-19)
(0.755497 -0.830066 3.84122e-19)
(0.842285 -0.882086 9.72305e-19)
(0.0503637 -0.0746059 1.51979e-20)
(0.155131 -0.209615 -1.42447e-19)
(0.263459 -0.335962 -2.14081e-19)
(0.373662 -0.452097 8.9124e-20)
(0.48409 -0.558235 -6.43258e-20)
(0.593525 -0.654563 9.94601e-20)
(0.700917 -0.741195 1.97824e-19)
(0.805375 -0.818185 -1.09803e-19)
(0.90698 -0.884964 -3.06294e-19)
(1.00564 -0.939348 7.25883e-19)
(0.0642918 -0.0803626 -2.64304e-20)
(0.193287 -0.224029 -5.78199e-19)
(0.324295 -0.356559 5.24461e-19)
(0.455677 -0.477222 3.37631e-19)
(0.585727 -0.586725 -8.59916e-20)
(0.713206 -0.685624 3.09103e-19)
(0.837104 -0.774378 -1.60019e-19)
(0.956531 -0.853377 -7.74152e-19)
(1.07169 -0.921928 -4.03989e-19)
(1.18262 -0.977146 4.54032e-19)
(0.0795466 -0.0846679 -7.98402e-20)
(0.235847 -0.234419 -5.44346e-19)
(0.392392 -0.370524 -8.20698e-21)
(0.547538 -0.49279 6.8762e-20)
(0.699586 -0.60245 3.37861e-19)
(0.847378 -0.700409 -1.85505e-19)
(0.989992 -0.787402 -1.69705e-19)
(1.1265 -0.86377 1.89238e-19)
(1.25677 -0.928571 -3.51863e-19)
(1.38002 -0.980256 -5.84927e-19)
(0.403159 -0.531186 9.95223e-19)
(0.68506 -0.617296 -2.66732e-19)
(0.913703 -0.556225 -1.49062e-19)
(1.08685 -0.42945 2.79688e-19)
(1.23798 -0.278557 -2.35898e-19)
(1.35783 -0.137443 -2.97337e-19)
(1.45031 -0.0320504 -2.56538e-19)
(1.50428 0.0130097 -3.16932e-20)
(1.52563 0.0169142 6.87079e-20)
(1.54254 0.010343 3.24994e-20)
(0.469169 -0.619072 9.72486e-19)
(0.741861 -0.692709 7.55601e-20)
(0.966549 -0.616155 1.08872e-20)
(1.12455 -0.478385 -2.27335e-19)
(1.26402 -0.318336 -7.55213e-19)
(1.37628 -0.168985 0)
(1.46786 -0.0544404 -2.3447e-19)
(1.53291 -0.000245618 5.37053e-20)
(1.56712 0.00883444 4.48838e-21)
(1.59756 0.00614159 -4.60063e-20)
(0.556493 -0.704781 -9.98531e-19)
(0.81122 -0.765705 -7.15164e-20)
(1.02599 -0.674016 1.58178e-19)
(1.16637 -0.525216 -5.32683e-20)
(1.29042 -0.356866 -3.55725e-20)
(1.39288 -0.20006 6.50171e-20)
(1.4788 -0.0774834 0)
(1.54245 -0.0154319 0)
(1.57804 -0.00182691 -5.43626e-20)
(1.62007 -0.000444663 0)
(0.665906 -0.7866 -2.24456e-19)
(0.896009 -0.834332 4.01368e-19)
(1.09247 -0.728749 2.68949e-20)
(1.21294 -0.569008 0)
(1.31792 -0.393363 6.28211e-19)
(1.40852 -0.229772 -1.56807e-19)
(1.48679 -0.0996688 0)
(1.54333 -0.0298767 1.44899e-19)
(1.57757 -0.0120664 0)
(1.61854 -0.00655162 2.05434e-20)
(0.795851 -0.863365 -1.49151e-19)
(0.997952 -0.896592 4.50978e-19)
(1.16667 -0.779179 -1.47545e-20)
(1.26441 -0.608949 0)
(1.34701 -0.427108 1.80929e-19)
(1.42335 -0.257618 2.90468e-19)
(1.493 -0.120222 4.83885e-20)
(1.54207 -0.043528 6.98197e-21)
(1.57597 -0.0221101 -2.98627e-20)
(1.61594 -0.0123256 3.01955e-20)
(0.942276 -0.934313 -1.32576e-18)
(1.1167 -0.951117 -9.36259e-19)
(1.24925 -0.824012 4.81368e-21)
(1.3206 -0.644287 5.66918e-19)
(1.37798 -0.457362 -2.99259e-19)
(1.4372 -0.283241 1.50947e-19)
(1.49748 -0.139148 2.50333e-19)
(1.5404 -0.0568396 -1.90085e-19)
(1.57452 -0.0320236 -1.83314e-21)
(1.61457 -0.0180162 1.80899e-20)
(1.10007 -0.999063 -2.58918e-19)
(1.25015 -0.997709 2.85027e-19)
(1.34049 -0.862109 4.05009e-21)
(1.38128 -0.67429 -1.73216e-20)
(1.41098 -0.483332 -5.74757e-19)
(1.44992 -0.306196 5.39312e-20)
(1.49991 -0.156613 -9.54426e-20)
(1.53866 -0.0699495 -2.91595e-20)
(1.57336 -0.0419152 3.7724e-21)
(1.61448 -0.023612 -2.1445e-20)
(1.26426 -1.05651 -1.20173e-18)
(1.3948 -1.03697 2.0893e-19)
(1.43938 -0.892868 0)
(1.44553 -0.698486 3.3732e-20)
(1.44542 -0.504418 5.05188e-19)
(1.46105 -0.326018 -9.62374e-22)
(1.49959 -0.172781 -2.90709e-19)
(1.53646 -0.0830536 4.72654e-20)
(1.5724 -0.0514943 1.972e-22)
(1.61233 -0.0294502 1.60835e-20)
(1.43192 -1.10323 3.39106e-18)
(1.54805 -1.06982 2.47182e-19)
(1.54577 -0.916995 4.61702e-19)
(1.51362 -0.717272 -3.14185e-20)
(1.48148 -0.520677 -3.3892e-20)
(1.47048 -0.342591 -4.11154e-19)
(1.49551 -0.188004 7.72814e-20)
(1.53249 -0.0956194 3.19908e-21)
(1.56868 -0.0598722 -2.6753e-20)
(1.58093 -0.0335807 -3.42773e-20)
(1.59915 -1.12797 -2.9987e-18)
(1.70182 -1.0951 1.2736e-18)
(1.65407 -0.937135 -2.30158e-19)
(1.5817 -0.734129 -7.80238e-19)
(1.51625 -0.535651 -6.48627e-19)
(1.47608 -0.35945 -2.53654e-19)
(1.4856 -0.204495 -5.44706e-20)
(1.52252 -0.108862 0)
(1.52897 -0.0638463 -1.64335e-20)
(1.52011 -0.0346212 6.58051e-20)
(1.88809 -1.17002 -6.71688e-18)
(1.92734 -1.10469 -1.69418e-18)
(1.80495 -0.931403 -5.84416e-20)
(1.67333 -0.726034 1.12576e-19)
(1.5625 -0.531068 1.66389e-19)
(1.48407 -0.364574 -1.11422e-19)
(1.46778 -0.215107 -3.40591e-20)
(1.4616 -0.113422 5.15517e-20)
(1.44415 -0.0607269 -4.50209e-20)
(1.43268 -0.0326049 -3.2477e-20)
(2.28924 -1.13464 4.95187e-19)
(2.17882 -1.05628 -2.7526e-19)
(1.94302 -0.864624 5.25654e-19)
(1.73652 -0.663583 -9.32868e-20)
(1.56482 -0.478647 6.13183e-20)
(1.43365 -0.327433 -3.76257e-20)
(1.36576 -0.200369 9.44055e-20)
(1.33918 -0.104859 -3.08338e-20)
(1.32438 -0.0537258 1.71549e-19)
(1.30927 -0.0300122 7.7316e-20)
(2.61057 -1.04342 2.27089e-18)
(2.3522 -0.948506 3.26137e-19)
(2.00901 -0.759008 -1.18453e-19)
(1.73413 -0.57207 1.41452e-36)
(1.50879 -0.40894 -2.55351e-20)
(1.34409 -0.281731 1.49764e-33)
(1.24965 -0.176585 -1.55393e-20)
(1.2115 -0.0947895 -1.575e-33)
(1.19197 -0.0479167 7.06055e-21)
(1.17539 -0.0266967 -2.00697e-20)
(2.78716 -0.893858 3.89112e-33)
(2.36984 -0.795431 2.96591e-18)
(1.97441 -0.630129 1.82138e-18)
(1.65481 -0.468748 0)
(1.40914 -0.333686 8.46919e-19)
(1.23333 -0.230266 4.41803e-19)
(1.12446 -0.147531 1.53899e-19)
(1.07351 -0.0817949 -2.63507e-33)
(1.05089 -0.0411694 -6.20086e-20)
(1.03284 -0.022992 1.53397e-20)
(2.76379 -0.705817 3.84363e-18)
(2.24618 -0.629756 -1.46886e-19)
(1.84707 -0.490805 0)
(1.51636 -0.361347 0)
(1.27297 -0.254981 0)
(1.09972 -0.176104 0)
(0.987635 -0.114946 -1.21755e-20)
(0.92934 -0.0662284 -3.92785e-33)
(0.903209 -0.0336769 7.40759e-21)
(0.883999 -0.018887 1.56598e-33)
(2.55125 -0.517 3.26673e-18)
(2.0202 -0.462865 0)
(1.63885 -0.353552 0)
(1.32721 -0.256592 0)
(1.10196 -0.17931 0)
(0.943286 -0.12405 0)
(0.837911 -0.0824636 3.2664e-20)
(0.77822 -0.0492861 -7.04064e-20)
(0.750112 -0.0254958 8.10803e-21)
(0.730276 -0.0145034 4.32915e-20)
(2.19016 -0.342699 0)
(1.7027 -0.303497 1.09935e-18)
(1.36143 -0.227575 1.09196e-18)
(1.09154 -0.161943 0)
(0.898961 -0.112138 6.72034e-19)
(0.764983 -0.0778169 4.1161e-19)
(0.674421 -0.0526706 2.48984e-19)
(0.619639 -0.0326462 7.1204e-20)
(0.592067 -0.017195 -1.54627e-21)
(0.572766 -0.0100636 -5.36838e-21)
(1.70287 -0.191132 -6.73837e-19)
(1.30022 -0.165589 -2.74103e-19)
(1.02513 -0.121744 1.75572e-19)
(0.815194 -0.0844297 -2.11878e-34)
(0.66799 -0.0579916 -7.69424e-20)
(0.566773 -0.0405799 3.73513e-33)
(0.497372 -0.0280712 4.94148e-20)
(0.453067 -0.0181034 9.70604e-20)
(0.429252 -0.00965177 9.33729e-21)
(0.412251 -0.00592956 -6.45293e-21)
(1.10089 -0.0758197 3.40789e-18)
(0.823173 -0.0626771 -1.86376e-19)
(0.640618 -0.044289 -5.88526e-19)
(0.506191 -0.0289913 0)
(0.41394 -0.019538 -6.40026e-19)
(0.35098 -0.013946 -4.31745e-19)
(0.307125 -0.0100444 -1.9784e-19)
(0.277855 -0.00694043 -1.30997e-19)
(0.261194 -0.00380399 1.37522e-19)
(0.248999 -0.00254459 -1.42397e-20)
(0.397353 -0.00331875 0)
(0.287869 0.00159331 0)
(0.220901 0.00409353 0)
(0.17356 0.00624044 0)
(0.142404 0.00583781 0)
(0.121318 0.00468545 0)
(0.106215 0.00356132 5.68492e-20)
(0.0955549 0.00236353 -2.13531e-34)
(0.0890111 0.00172249 1.18299e-20)
(0.0839028 0.000650958 1.24086e-20)
(3.36711 -0.0863091 5.39201e-19)
(3.32643 -0.265081 -8.41874e-20)
(3.24736 -0.430649 8.5207e-19)
(3.13239 -0.582147 -6.04835e-19)
(2.98634 -0.718108 6.66332e-19)
(2.81523 -0.836358 2.75102e-19)
(2.62658 -0.934023 -1.928e-18)
(2.42948 -1.0078 -7.72795e-20)
(2.22464 -1.05361 0)
(1.98481 -1.06646 4.26509e-19)
(3.86192 -0.0750557 7.07354e-18)
(3.79859 -0.234205 1.95635e-18)
(3.70428 -0.387299 -4.86704e-18)
(3.58425 -0.531975 -4.49008e-19)
(3.44237 -0.665871 3.55847e-18)
(3.28184 -0.787288 1.92312e-18)
(3.10648 -0.895021 -5.16765e-18)
(2.92201 -0.987637 -1.95174e-18)
(2.72754 -1.0633 2.20273e-18)
(2.49231 -1.12039 8.52091e-19)
(3.8331 -0.0532963 -1.26244e-19)
(3.82026 -0.171558 4.40379e-18)
(3.78549 -0.299752 -1.08839e-18)
(3.72437 -0.430907 -3.44617e-18)
(3.63621 -0.558715 -6.80061e-18)
(3.52374 -0.678779 1.02785e-17)
(3.39119 -0.788757 4.18051e-18)
(3.24351 -0.887933 -3.91142e-18)
(3.08161 -0.978643 -2.90245e-18)
(2.88722 -1.0629 -3.42453e-18)
(3.62867 -0.0472809 -4.83942e-18)
(3.61962 -0.144926 -4.35352e-18)
(3.59965 -0.243733 5.47234e-18)
(3.56737 -0.343084 1.91199e-18)
(3.52244 -0.442363 -8.97205e-18)
(3.4642 -0.540787 4.92277e-19)
(3.39188 -0.637019 3.88676e-18)
(3.30518 -0.730395 -1.05414e-18)
(3.20506 -0.823018 1.27698e-18)
(3.08314 -0.914715 2.81736e-19)
(3.34406 -0.0365741 -9.15993e-19)
(3.33901 -0.111652 3.00411e-18)
(3.32711 -0.188673 1.61956e-18)
(3.30745 -0.267169 -1.8941e-18)
(3.27988 -0.346066 -2.00142e-18)
(3.24468 -0.42413 -2.4344e-18)
(3.20207 -0.500322 3.79748e-19)
(3.1518 -0.574474 1.38885e-19)
(3.09555 -0.647728 -2.14001e-18)
(3.03295 -0.721264 -2.03474e-18)
(2.96257 -0.0265509 -1.8225e-18)
(2.95981 -0.0798861 -5.87249e-20)
(2.95331 -0.134597 -1.63753e-18)
(2.94241 -0.190901 3.12143e-19)
(2.92676 -0.248549 5.36783e-18)
(2.9063 -0.306928 -3.66787e-19)
(2.88093 -0.365112 4.43455e-20)
(2.85025 -0.422054 -2.60865e-18)
(2.81647 -0.476873 -3.49587e-18)
(2.78605 -0.529848 3.72631e-19)
(2.48713 -0.0175081 -2.89319e-20)
(2.48578 -0.0519328 -8.14317e-19)
(2.48259 -0.0872469 -2.61486e-18)
(2.47708 -0.12377 -3.43102e-18)
(2.4688 -0.161533 2.49654e-18)
(2.45745 -0.200266 1.50224e-18)
(2.44262 -0.239352 -1.38505e-18)
(2.42371 -0.277788 1.62447e-18)
(2.40276 -0.314479 -4.29758e-19)
(2.38955 -0.349535 -9.63797e-19)
(1.91464 -0.00968678 7.72459e-19)
(1.91408 -0.0282965 -8.31796e-19)
(1.91278 -0.047439 -3.27674e-20)
(1.91032 -0.0673587 -3.47276e-20)
(1.90624 -0.0881299 -7.27441e-20)
(1.90013 -0.109614 -2.33193e-18)
(1.89151 -0.131404 -6.78671e-19)
(1.87979 -0.152781 2.62606e-18)
(1.86665 -0.172973 -6.03482e-19)
(1.86192 -0.192204 -1.35108e-18)
(1.23988 -0.00373696 -1.64282e-18)
(1.23967 -0.0106952 -8.48908e-19)
(1.23923 -0.017901 2.3392e-18)
(1.23823 -0.0254785 -8.89772e-19)
(1.23625 -0.0334753 -6.74123e-19)
(1.2329 -0.0418316 1.35202e-18)
(1.22775 -0.0503499 -1.29588e-18)
(1.22038 -0.0586652 1.28697e-18)
(1.21202 -0.0663419 -1.21029e-18)
(1.21008 -0.0735071 -4.24813e-18)
(0.454916 -0.000257918 6.63082e-19)
(0.454826 -0.000700497 7.03054e-19)
(0.454692 -0.00115911 7.48182e-19)
(0.454324 -0.00164006 1.35397e-18)
(0.453495 -0.0021402 -6.71985e-19)
(0.451983 -0.00263722 -1.29961e-18)
(0.449567 -0.00309914 6.14709e-19)
(0.445992 -0.00359295 2.48366e-20)
(0.441736 -0.00439224 -4.96522e-20)
(0.44035 -0.00504563 1.1057e-19)
(1.65349 0.997119 -2.85615e-19)
(1.51221 0.941738 1.80046e-20)
(1.35875 0.880656 -2.28154e-19)
(1.19764 0.808375 1.76428e-19)
(1.02955 0.723937 -1.9233e-19)
(0.854815 0.627052 -1.0116e-19)
(0.673756 0.51693 2.32024e-19)
(0.487037 0.392144 -3.05026e-19)
(0.295894 0.250645 3.09881e-19)
(0.101432 0.0916457 2.38788e-19)
(1.88633 0.992082 0)
(1.72963 0.934657 6.38836e-19)
(1.5608 0.87271 3.31849e-19)
(1.38226 0.801813 1.63055e-19)
(1.19452 0.719854 4.31679e-19)
(0.997528 0.625886 -8.68802e-20)
(0.791361 0.518598 -7.8571e-20)
(0.57635 0.395991 8.88489e-20)
(0.353322 0.255178 -1.04524e-18)
(0.122701 0.0943573 -1.6603e-20)
(2.091 0.958964 1.56808e-19)
(1.9252 0.905015 0)
(1.74612 0.846425 -1.00753e-19)
(1.55492 0.779526 -3.8363e-19)
(1.35169 0.702069 5.37166e-20)
(1.13609 0.612784 3.97247e-19)
(0.907786 0.510089 -6.06975e-19)
(0.666595 0.391641 -2.00874e-19)
(0.412601 0.254048 7.83619e-19)
(0.145254 0.094737 -1.75977e-19)
(2.28482 0.898307 1.88197e-19)
(2.11042 0.850527 1.20552e-20)
(1.92128 0.797839 2.44738e-20)
(1.7181 0.736987 3.61236e-20)
(1.50058 0.665849 -2.92182e-20)
(1.26793 0.583131 2.73311e-19)
(1.01927 0.48717 -2.06893e-19)
(0.75368 0.375534 -8.55639e-19)
(0.470276 0.244681 0)
(0.167391 0.091698 0)
(2.46794 0.811789 -1.07052e-18)
(2.28435 0.770816 -6.08816e-19)
(2.08492 0.725048 -1.20623e-19)
(1.87003 0.671515 -6.65769e-20)
(1.63891 0.608293 0)
(1.39031 0.534137 2.40771e-19)
(1.12276 0.447437 2.67799e-19)
(0.834562 0.345838 2.86265e-19)
(0.523845 0.225956 -4.2378e-19)
(0.18791 0.0848992 -8.12414e-20)
(2.634 0.702076 7.66112e-19)
(2.44156 0.668053 -1.39179e-19)
(2.23244 0.629673 -2.21515e-19)
(2.00665 0.584303 0)
(1.76302 0.530279 0)
(1.49988 0.46649 0)
(1.21523 0.391466 -3.89837e-20)
(0.906692 0.303093 3.70281e-19)
(0.571504 0.19835 3.7914e-19)
(0.206085 0.0746252 -3.08579e-19)
(2.7758 0.572346 -1.19335e-18)
(2.57551 0.545255 -1.48117e-18)
(2.35787 0.514527 -3.03129e-22)
(2.12261 0.477946 -1.87679e-19)
(1.86819 0.434183 -9.28835e-20)
(1.59259 0.38232 -1.78857e-19)
(1.29334 0.321127 4.59112e-19)
(0.967497 0.248839 2.14862e-19)
(0.611589 0.162968 5.40047e-19)
(0.221317 0.0613409 2.02861e-19)
(2.88708 0.425744 -1.15701e-18)
(2.68028 0.405631 8.47076e-20)
(2.45577 0.38282 1.64523e-19)
(2.21298 0.355612 1.68225e-20)
(1.95005 0.323053 -3.14419e-19)
(1.66466 0.28447 -1.74225e-19)
(1.35399 0.23894 -6.21229e-19)
(1.01464 0.185142 1.18531e-19)
(0.64261 0.121238 5.14796e-20)
(0.233068 0.0456131 -6.2686e-21)
(2.96281 0.265186 1.01346e-19)
(2.75122 0.252354 3.97013e-19)
(2.5219 0.237905 -3.30296e-19)
(2.27395 0.220741 3.63032e-19)
(2.00525 0.200299 3.72557e-19)
(1.71323 0.176178 4.91909e-19)
(1.39482 0.147811 -6.35754e-19)
(1.04634 0.114391 -3.24422e-19)
(0.663417 0.0748105 -4.58502e-20)
(0.240918 0.0280954 -3.27003e-19)
(3.00054 0.0935785 5.81807e-19)
(2.78614 0.0887871 -1.86149e-19)
(2.55426 0.0834456 4.79571e-19)
(2.30368 0.0771517 -3.10684e-19)
(2.03209 0.0697293 2.6648e-19)
(1.7368 0.0610631 6.05427e-19)
(1.41458 0.0509794 3.78892e-19)
(1.06162 0.0392353 3.09353e-19)
(0.673401 0.0255069 2.65867e-19)
(0.244656 0.00950733 5.43625e-19)
(0.239277 0.451281 -4.67979e-19)
(0.203714 0.417595 -1.85793e-19)
(0.168203 0.380582 1.38657e-19)
(0.134739 0.343006 -4.19833e-19)
(0.105048 0.306941 -1.19825e-19)
(0.0781479 0.269689 6.92064e-19)
(0.0517578 0.223274 3.35977e-19)
(0.0258674 0.158526 -1.57803e-19)
(0.00703551 0.0795372 1.1323e-19)
(-0.0011391 0.0224075 -6.05752e-20)
(0.288537 0.543486 4.10254e-19)
(0.248637 0.506719 4.56655e-19)
(0.208096 0.464708 -1.22604e-20)
(0.167799 0.417767 -1.31911e-19)
(0.131119 0.369753 -3.10786e-19)
(0.100598 0.322241 8.27061e-20)
(0.0734437 0.268961 2.23678e-19)
(0.0458325 0.196571 1.6429e-19)
(0.0182916 0.101648 -5.88602e-19)
(0.00276563 0.028796 -1.23308e-19)
(0.35972 0.632306 -5.99596e-19)
(0.313841 0.592198 -4.80401e-19)
(0.26802 0.546399 2.56372e-19)
(0.22136 0.493146 1.37248e-19)
(0.175818 0.433483 -5.46751e-21)
(0.136285 0.371387 -1.39208e-19)
(0.102124 0.305226 -2.8593e-20)
(0.0684196 0.224598 -5.55788e-19)
(0.0336293 0.125803 -2.69487e-19)
(0.00761324 0.0377074 -3.91007e-20)
(0.454336 0.717103 5.02364e-19)
(0.400162 0.672963 1.64676e-19)
(0.346446 0.62201 -1.48887e-19)
(0.292279 0.56303 6.36204e-20)
(0.237774 0.495016 -4.63753e-22)
(0.186597 0.42044 1.53491e-21)
(0.140107 0.340329 -1.31275e-19)
(0.0954523 0.250017 3.79732e-19)
(0.0514094 0.147573 -4.19684e-19)
(0.0135589 0.0476387 -6.5416e-20)
(0.572094 0.797171 -2.82063e-19)
(0.507934 0.749137 -8.89503e-20)
(0.443639 0.69236 -1.42718e-20)
(0.37901 0.626717 -6.91646e-20)
(0.313741 0.551541 5.79718e-20)
(0.249667 0.467728 5.17606e-20)
(0.188375 0.376463 -2.75641e-20)
(0.129314 0.276478 -2.82732e-19)
(0.0725081 0.167528 2.18618e-19)
(0.0209006 0.0567943 8.73946e-20)
(0.709443 0.870377 6.43788e-19)
(0.634389 0.819053 3.21676e-19)
(0.558147 0.756958 2.04718e-19)
(0.480866 0.684971 4.81541e-20)
(0.402414 0.603212 1.53719e-19)
(0.323865 0.512118 7.73976e-20)
(0.246457 0.412341 1.42341e-19)
(0.170853 0.303794 5.78637e-20)
(0.0980394 0.186729 -1.63194e-20)
(0.0299853 0.0650057 -1.35665e-20)
(0.861995 0.934416 -1.19696e-19)
(0.775519 0.880274 -8.27401e-19)
(0.686682 0.813715 -7.84891e-20)
(0.595706 0.73654 -4.91285e-20)
(0.502545 0.649403 -1.86199e-20)
(0.40811 0.552546 1.50774e-19)
(0.313465 0.446196 -4.38663e-20)
(0.219699 0.33034 6.51818e-20)
(0.128284 0.205041 -1.44615e-19)
(0.0408977 0.0724825 -1.19481e-21)
(1.02667 0.985686 -8.85695e-19)
(0.928418 0.929338 5.94122e-20)
(0.826614 0.859461 -2.32437e-19)
(0.721429 0.778692 -7.32206e-20)
(0.612742 0.687861 -2.50697e-20)
(0.501438 0.586963 -7.50953e-20)
(0.388513 0.475824 5.63945e-20)
(0.275154 0.354155 6.03625e-20)
(0.162977 0.221539 -9.82362e-21)
(0.0535416 0.0791168 -1.03888e-19)
(1.20382 1.01768 1.2385e-19)
(1.09344 0.960727 5.24029e-19)
(0.978205 0.889549 1.56181e-21)
(0.858186 0.807424 -3.02426e-20)
(0.733118 0.715206 1.51388e-19)
(0.603873 0.612485 -3.47898e-19)
(0.471392 0.498711 -2.44609e-19)
(0.336825 0.373188 3.56247e-19)
(0.20177 0.235 1.44246e-19)
(0.0677021 0.0845323 -3.62996e-20)
(1.40051 1.01528 7.40573e-19)
(1.278 0.962193 3.24149e-19)
(1.14778 0.895248 5.57681e-20)
(1.01084 0.816318 -1.95625e-19)
(0.867249 0.726464 -1.65101e-20)
(0.717888 0.6253 4.6592e-19)
(0.563577 0.511983 -2.68367e-19)
(0.405339 0.385466 -1.84537e-19)
(0.244706 0.244318 3.35865e-19)
(0.0831153 0.0884422 -6.08646e-21)
(0.974026 0.0968253 8.99023e-21)
(1.14836 0.141933 1.13327e-21)
(1.21111 0.190114 -2.32381e-20)
(1.31946 0.171088 0)
(1.36519 0.157003 4.35164e-21)
(1.2728 0.2364 -3.92346e-20)
(1.12533 0.386251 -5.84126e-20)
(0.94716 0.543112 -2.56413e-20)
(0.710539 0.647525 -2.89378e-19)
(0.41607 0.594686 4.49655e-19)
(0.977796 0.0772429 1.88928e-19)
(1.1412 0.114867 -2.94498e-20)
(1.20605 0.160589 1.95507e-21)
(1.31144 0.154557 1.26772e-20)
(1.36575 0.159171 3.75864e-21)
(1.29242 0.269918 -3.76923e-21)
(1.15563 0.435772 4.41918e-20)
(0.992317 0.605738 0)
(0.760884 0.726334 7.61807e-19)
(0.479248 0.685774 -5.51691e-19)
(0.980718 0.0579802 -1.12977e-19)
(1.1379 0.0888612 7.71516e-21)
(1.20436 0.131863 7.71144e-20)
(1.30939 0.136888 1.96675e-20)
(1.36858 0.160227 -2.06192e-20)
(1.3127 0.300914 -3.53248e-20)
(1.18941 0.48365 1.43867e-20)
(1.04308 0.666789 4.38421e-20)
(0.822935 0.802611 -1.14532e-21)
(0.564574 0.773496 -4.07264e-19)
(0.982863 0.0387527 -8.28886e-20)
(1.13803 0.0633122 1.58454e-20)
(1.20651 0.103762 7.38718e-20)
(1.31305 0.118653 2.78115e-20)
(1.37498 0.160748 -2.22661e-20)
(1.33353 0.329699 -2.13883e-20)
(1.22682 0.529304 4.23133e-20)
(1.09982 0.725202 2.65674e-20)
(0.900074 0.874125 -5.3053e-19)
(0.673903 0.855908 -1.78972e-19)
(0.984686 0.0194319 3.92624e-20)
(1.14117 0.0376676 -4.84334e-20)
(1.21225 0.0761966 -6.57145e-20)
(1.32111 0.100326 1.96356e-20)
(1.38372 0.161741 0)
(1.35455 0.356859 0)
(1.2678 0.572175 5.88225e-20)
(1.16361 0.779634 -2.80579e-20)
(0.995012 0.938413 -1.1679e-19)
(0.805292 0.931365 -5.74654e-20)
(0.986716 -0.000256267 3.79489e-21)
(1.14692 0.0115599 5.60564e-20)
(1.22086 0.0491242 -2.00742e-19)
(1.33214 0.0825778 -7.28848e-20)
(1.39342 0.163909 -5.30077e-21)
(1.37557 0.382619 1.02467e-19)
(1.31241 0.611474 1.3921e-19)
(1.23591 0.828384 -1.80083e-20)
(1.10818 0.993669 -4.02163e-20)
(0.953864 0.999195 1.25131e-21)
(0.988696 -0.020844 8.04121e-22)
(1.15469 -0.0152668 2.59826e-20)
(1.23144 0.022596 -6.32029e-20)
(1.34501 0.0660466 -1.42953e-19)
(1.40306 0.167467 1.25513e-20)
(1.39677 0.40672 7.66419e-21)
(1.36118 0.646141 -5.84087e-20)
(1.31785 0.869793 -1.187e-19)
(1.2376 1.03957 -2.69755e-20)
(1.11389 1.05951 -9.81966e-19)
(0.989109 -0.0425642 1.48775e-20)
(1.16379 -0.0430466 -1.30571e-19)
(1.2431 -0.00321467 1.26561e-19)
(1.35865 0.0515332 9.64071e-20)
(1.41141 0.17292 5.24351e-21)
(1.41797 0.428809 -1.16976e-19)
(1.41398 0.675181 -4.71102e-21)
(1.40883 0.902893 -1.08591e-19)
(1.37954 1.07696 1.11315e-20)
(1.2798 1.11174 2.88444e-18)
(0.98648 -0.064777 -8.45389e-20)
(1.17377 -0.0718919 7.43341e-20)
(1.25511 -0.0282105 1.83217e-19)
(1.37235 0.0391829 -1.08059e-19)
(1.41888 0.180049 -1.99728e-19)
(1.44066 0.448664 9.24279e-21)
(1.47212 0.698451 1.59385e-19)
(1.5089 0.928343 -5.46691e-19)
(1.53097 1.1071 -2.6808e-20)
(1.44824 1.15283 -6.47253e-18)
(0.981158 -0.0876992 4.16359e-21)
(1.18468 -0.101742 1.32459e-19)
(1.26688 -0.052286 5.81507e-20)
(1.38483 0.0310693 -2.59541e-19)
(1.42311 0.192839 -2.2215e-19)
(1.46238 0.469915 -6.31307e-20)
(1.53137 0.719683 6.19315e-20)
(1.61191 0.94946 -2.33509e-19)
(1.68377 1.12961 -1.08997e-18)
(1.61549 1.17191 -7.95276e-18)
(0.972883 -0.118933 -1.4503e-20)
(1.19753 -0.141458 -3.03561e-20)
(1.27761 -0.0852854 -7.17117e-20)
(1.39713 0.0158543 1.21025e-19)
(1.42915 0.191033 1.86042e-19)
(1.493 0.465902 -5.37959e-20)
(1.61216 0.709376 -1.37772e-19)
(1.75402 0.938699 -1.21637e-18)
(1.90277 1.13169 -1.60188e-18)
(1.8992 1.20828 3.28742e-18)
(0.961709 -0.157495 -4.10244e-19)
(1.21373 -0.191167 1.04912e-20)
(1.28216 -0.131715 -5.33228e-20)
(1.39963 -0.00582096 3.01039e-19)
(1.41321 0.16953 3.32645e-19)
(1.49635 0.422748 -3.80874e-20)
(1.66898 0.645595 -7.50118e-20)
(1.88107 0.864438 -3.21564e-19)
(2.13955 1.07058 2.63853e-19)
(2.28437 1.16039 -3.22991e-19)
(0.949594 -0.197554 -2.78236e-20)
(1.23687 -0.241349 -5.41469e-20)
(1.28057 -0.175621 2.99453e-20)
(1.39644 -0.0270273 2.74927e-20)
(1.3919 0.157094 1.74627e-33)
(1.47528 0.367333 2.46176e-21)
(1.68271 0.559747 -2.07893e-33)
(1.95005 0.758539 1.86109e-19)
(2.30228 0.955843 -9.31809e-19)
(2.58731 1.0581 -6.29374e-19)
(0.937337 -0.243578 1.42251e-18)
(1.26677 -0.281499 -7.68036e-34)
(1.25272 -0.22342 -3.93998e-20)
(1.27917 -0.0337849 -2.2568e-19)
(1.2717 0.14142 -4.5164e-19)
(1.39323 0.299596 -9.01006e-19)
(1.62148 0.458697 -5.10498e-33)
(1.93051 0.630262 -1.73925e-18)
(2.32646 0.80167 -3.17562e-18)
(2.75394 0.902349 1.67579e-18)
(0.927345 -0.300512 0)
(1.31284 -0.326019 -1.6664e-33)
(1.11528 -0.205131 0)
(1.11327 -0.0280461 0)
(1.12527 0.11383 0)
(1.26096 0.23116 0)
(1.4913 0.354493 -8.15573e-33)
(1.81599 0.490966 0)
(2.21401 0.633972 -3.3997e-19)
(2.73525 0.711845 1.25801e-18)
(0.916398 -0.360671 1.16014e-19)
(1.25263 -0.326267 -4.67479e-19)
(0.961476 -0.172708 -5.48969e-20)
(0.938414 -0.0248966 0)
(0.96041 0.082177 0)
(1.09177 0.164476 6.11496e-20)
(1.30751 0.2533 1.18676e-18)
(1.61657 0.354328 -1.95091e-19)
(1.99704 0.466035 -4.95308e-19)
(2.53262 0.520387 4.67227e-18)
(0.883431 -0.405292 -1.52012e-17)
(1.09228 -0.279649 1.08568e-18)
(0.79356 -0.1297 -7.27143e-20)
(0.74997 -0.0206067 -8.12526e-20)
(0.775772 0.0524214 -5.06966e-19)
(0.890784 0.103955 -7.71562e-19)
(1.07713 0.160883 -1.05212e-18)
(1.34641 0.228815 -1.3868e-18)
(1.68779 0.306039 -1.60859e-18)
(2.18 0.344412 3.61534e-18)
(0.808971 -0.39451 -4.13596e-19)
(0.886642 -0.207522 -1.21645e-18)
(0.605956 -0.0824972 -1.25887e-19)
(0.551503 -0.015097 -8.38078e-20)
(0.573731 0.0276507 -9.62935e-34)
(0.662494 0.0542671 9.46671e-20)
(0.805994 0.0843576 -1.48996e-32)
(1.01641 0.122835 -1.93421e-19)
(1.29255 0.167274 2.98813e-19)
(1.69931 0.192061 7.05653e-19)
(0.664233 -0.288846 3.42562e-17)
(0.618291 -0.108054 -3.14038e-18)
(0.393533 -0.0349976 -2.41064e-19)
(0.340315 -0.00732659 -1.52237e-19)
(0.354796 0.0093193 3.91009e-19)
(0.411029 0.0182701 7.82378e-19)
(0.501513 0.0290976 7.94156e-19)
(0.636827 0.0448462 4.59747e-19)
(0.82078 0.0634451 -1.90116e-19)
(1.10155 0.0762233 3.56876e-18)
(0.336829 -0.0768264 5.58788e-19)
(0.261861 -0.00230719 -6.7664e-33)
(0.144434 0.0190475 -3.05264e-19)
(0.120657 0.00329642 0)
(0.12393 -0.00230771 0)
(0.142065 -0.00538698 9.70234e-20)
(0.172491 -0.00623148 9.26692e-35)
(0.220325 -0.0041667 -1.23579e-19)
(0.288131 -0.0016166 -2.8247e-19)
(0.399002 0.00331894 1.00139e-18)
(2.00196 1.09622 -1.78922e-18)
(2.23899 1.07832 -2.3048e-18)
(2.44202 1.029 0)
(2.63704 0.952434 -7.58491e-19)
(2.82356 0.852464 -1.78386e-18)
(2.99275 0.732363 -2.24945e-18)
(3.13708 0.595026 -4.7689e-19)
(3.25055 0.44269 1.2693e-18)
(3.32825 0.276962 -3.54788e-18)
(3.36765 0.098699 1.35668e-18)
(2.49856 1.14174 2.67405e-19)
(2.73047 1.08175 1.39689e-18)
(2.9238 1.00407 1.43861e-19)
(3.10668 0.909714 6.75599e-19)
(3.28056 0.800602 -1.10379e-18)
(3.43995 0.678288 -4.99962e-18)
(3.58095 0.543989 2.46747e-18)
(3.70047 0.399306 1.27024e-17)