# Selection   : all
# Cells       : 440
# Volume      : 7.374263e+01
# Time        	min(p)
8.415         	-1.545070e+00
8.46          	-1.569643e+00
8.51          	-1.632856e+00
