/*--------------------------------*- C++ -*----------------------------------*\
  =========                 |
  \\      /  F ield         | OpenFOAM: The Open Source CFD Toolbox
   \\    /   O peration     | Website:  https://openfoam.org
    \\  /    A nd           | Version:  13
     \\/     M anipulation  |
\*---------------------------------------------------------------------------*/
FoamFile
{
    format      ascii;
    class       volScalarField;
    location    "0.935";
    object      strainRateViscosityModel:nu;
}
// * * * * * * * * * * * * * * * * * * * * * * * * * * * * * * * * * * * * * //

dimensions      [0 2 -1 0 0 0 0];

internalField   nonuniform List<scalar> 
1800
(
9.40487
9.1976
9.01007
8.80097
8.57617
8.34417
8.1155
7.89818
7.6242
7.37922
9.58523
9.41878
9.2669
9.09733
8.91118
8.71144
8.50358
8.28869
8.0273
7.70207
9.70218
9.56269
9.42803
9.27097
9.08869
8.879
8.64092
8.36904
8.03058
7.6106
9.77539
9.65614
9.53324
9.38287
9.2005
8.98172
8.72281
8.41597
8.02878
7.55456
9.82168
9.7183
9.60558
9.46167
9.28071
9.05696
8.78549
8.45889
8.04776
7.55614
9.85185
9.76081
9.6573
9.52059
9.34355
9.11896
8.84034
8.50016
8.07152
7.5702
9.87179
9.78991
9.69398
9.56396
9.39147
9.16769
8.8842
8.53252
8.08735
7.57567
9.88475
9.80924
9.71888
9.59394
9.42494
9.20146
8.91309
8.55005
8.08853
7.56355
9.8926
9.82107
9.73416
9.6122
9.44466
9.21962
8.92483
8.54922
8.07121
7.52871
9.89646
9.82685
9.74153
9.62069
9.45309
9.22573
8.92512
8.53953
8.05038
7.49285
1.80372
1.40513
1.20845
1.31924
1.73029
2.25204
2.49686
2.44872
2.35867
2.33499
3.7331
1.78032
1.49038
1.98098
2.69629
2.97274
2.81657
2.67077
2.68709
2.74062
4.7046
2.56898
2.43474
3.17703
3.59715
3.34576
3.08053
3.11751
3.25783
3.33852
5.27018
3.88111
3.81464
4.21382
4.18073
3.82876
3.72045
3.85451
3.95716
4.00615
6.05618
5.27488
5.1176
5.12146
4.91493
4.65299
4.57771
4.61193
4.61221
4.65191
6.95994
6.45975
6.22672
6.03831
5.78829
5.54529
5.38904
5.29313
5.22192
5.27449
7.77173
7.37767
7.11676
6.86034
6.58746
6.32056
6.08721
5.90082
5.77003
5.82358
8.40012
8.0553
7.79202
7.51582
7.22656
6.93126
6.64221
6.38628
6.19217
6.22915
8.84934
8.54537
8.29101
8.01034
7.70575
7.37953
7.03567
6.70113
6.4157
6.42167
9.16164
8.90154
8.66633
8.39669
8.09574
7.7658
7.40648
7.03566
6.70851
6.75235
2.19302
1.72879
1.33135
0.936882
0.619498
0.349834
0.187969
0.143945
0.163054
0.257897
2.52717
1.8477
1.40613
0.931884
0.593001
0.333871
0.177897
0.109054
0.110909
0.20216
2.94769
1.97669
1.47833
0.929025
0.556922
0.306223
0.166302
0.0941247
0.072614
0.144209
3.44012
2.14662
1.54958
0.931829
0.51728
0.270627
0.149152
0.0831162
0.0682542
0.0869678
3.98244
2.38472
1.62703
0.940835
0.478441
0.230839
0.127872
0.068664
0.0779744
0.0351853
4.52808
2.69596
1.72337
0.957217
0.443481
0.190042
0.102879
0.0551412
0.0620797
0.0704717
4.99664
3.05578
1.84538
0.97997
0.412396
0.150294
0.0766237
0.0432032
0.0376598
0.138542
5.31254
3.43884
2.01261
1.02274
0.391606
0.114146
0.0523686
0.0260926
0.0530664
0.201789
5.34307
3.72232
2.16234
1.05467
0.368365
0.0820845
0.0307009
0.0242226
0.106329
0.263306
5.20183
3.98843
2.39792
1.15846
0.384724
0.0654511
0.0102393
0.0623429
0.150408
0.313562
4.94417
3.94199
2.45507
1.17274
0.359727
0.0537844
0.035735
0.109209
0.206526
0.370098
5.33014
3.34727
2.13975
0.999269
0.361205
0.142257
0.119065
0.176918
0.276661
0.430863
4.90466
3.04621
2.24942
1.20772
0.593671
0.296935
0.208829
0.246042
0.338166
0.476114
4.54701
3.63291
2.68286
1.64238
0.894393
0.497581
0.34307
0.334338
0.40334
0.513165
5.11446
4.74808
3.34319
2.16485
1.23869
0.730503
0.500041
0.436802
0.471126
0.542651
6.25449
5.6696
4.05707
2.67378
1.59847
0.981534
0.675913
0.552854
0.543646
0.567903
7.26268
6.3737
4.71353
3.15433
1.95694
1.24007
0.860317
0.676654
0.619214
0.590669
8.0001
6.91202
5.2597
3.58873
2.2997
1.50019
1.05026
0.806096
0.698264
0.613509
8.51875
7.33071
5.69723
3.96988
2.6202
1.75345
1.23653
0.932803
0.774987
0.634753
8.931
7.69117
6.04965
4.28293
2.92513
2.02397
1.44698
1.0799
0.870073
0.666819
6.51282
6.43966
6.43043
6.44873
6.48732
6.5299
6.58193
6.71046
6.89512
6.82614
0.260651
1.05706
2.00763
2.92264
3.70354
4.31612
4.73283
4.9823
5.22131
5.72746
3.85082
3.54394
3.28473
3.11152
3.10658
3.25016
3.47234
3.71343
4.1649
4.84465
6.64415
6.62721
6.53712
6.3447
6.04333
5.65797
5.24978
4.89629
4.73972
4.54964
7.69183
7.67653
7.63211
7.54128
7.39613
7.18986
6.9271
6.61956
6.28608
5.65657
8.4495
8.43311
8.39434
8.32771
8.22957
8.09671
7.92836
7.71683
7.42793
6.90785
8.93967
8.92393
8.89028
8.83679
8.76166
8.6629
8.53815
8.37892
8.15467
7.80861
9.27298
9.25981
9.23246
9.18985
9.13052
9.05245
8.95268
8.82481
8.65281
8.4309
9.50446
9.49417
9.47307
9.44024
9.39426
9.33319
9.25424
9.15286
9.02288
8.87534
9.6899
9.68285
9.66852
9.64604
9.61405
9.5707
9.51361
9.43975
9.34638
9.2441
7.24798
7.52614
7.83691
8.08767
8.34482
8.59963
8.84139
9.06159
9.25458
9.46024
7.58307
7.94804
8.24096
8.48113
8.70936
8.92482
9.12231
9.299
9.45391
9.61805
7.49847
7.95736
8.32596
8.62051
8.87576
9.09774
9.28806
9.44952
9.58535
9.72225
7.44687
7.9576
8.37376
8.702
8.97659
9.20597
9.39471
9.54806
9.6713
9.78823
7.45632
7.98066
8.41861
8.7649
9.05054
9.28356
9.46978
9.61591
9.72868
9.83022
7.48241
8.01168
8.46402
8.82147
9.11234
9.34475
9.52606
9.66446
9.76796
9.85764
7.50363
8.03786
8.50278
8.86863
9.16197
9.39189
9.56763
9.6989
9.79478
9.8757
7.51114
8.05246
8.52872
8.90209
9.19746
9.42521
9.5964
9.72212
9.81243
9.88729
7.49836
8.05045
8.53742
8.91898
9.21768
9.44503
9.61371
9.73605
9.82289
9.89404
7.48288
8.04358
8.53592
8.92344
9.22525
9.4533
9.62123
9.74216
9.82746
9.89693
2.55997
2.51631
2.53391
2.74561
2.93203
2.56001
1.70286
1.18356
1.52448
4.20239
2.96637
2.87808
2.7181
2.71545
3.1052
3.43417
2.82608
1.91017
2.128
5.13842
3.45296
3.40964
3.25186
3.06518
3.26498
3.82408
3.80505
3.16418
3.29215
5.4575
3.94345
3.93275
3.90653
3.79747
3.89032
4.31785
4.58975
4.46929
4.66288
5.91469
4.49618
4.46874
4.54426
4.61612
4.7802
5.1139
5.43849
5.61966
5.89756
6.6322
5.09991
5.0574
5.19717
5.39577
5.65683
5.98041
6.30873
6.59568
6.90123
7.40693
5.65268
5.61648
5.81749
6.09022
6.40763
6.74087
7.0686
7.37825
7.67887
8.08666
6.06606
6.05156
6.31478
6.64216
6.99494
7.33982
7.66733
7.97425
8.25901
8.61109
6.2599
6.27891
6.63083
7.02585
7.42013
7.78444
8.11676
8.41672
8.68285
8.98797
6.5998
6.56971
6.95593
7.37947
7.78135
8.14314
8.46655
8.75046
8.99302
9.25186
0.113947
0.154318
0.122993
0.0652809
0.0160599
0.396482
0.933886
1.48631
1.95272
2.43448
0.0806844
0.139972
0.119068
0.067976
0.0158693
0.389771
0.937871
1.54875
2.03108
2.69992
0.0590257
0.131666
0.11741
0.0712623
0.0248744
0.390069
0.943344
1.5979
2.10086
3.00939
0.0458661
0.129185
0.119167
0.0784419
0.0430716
0.397384
0.948376
1.63415
2.20366
3.39545
0.039191
0.131702
0.122974
0.0876587
0.0661444
0.406161
0.950489
1.66905
2.3812
3.86546
0.0382081
0.138587
0.127259
0.0963558
0.089798
0.413109
0.953801
1.72604
2.64765
4.36268
0.0431829
0.150128
0.130847
0.10239
0.109335
0.415942
0.963595
1.82157
2.97963
4.79353
0.0546636
0.166745
0.133395
0.105996
0.124373
0.423803
1.00396
1.98062
3.34649
5.07826
0.0743424
0.188086
0.135066
0.103188
0.127193
0.423333
1.04072
2.13196
3.62504
5.08145
0.104944
0.210963
0.137402
0.103742
0.142121
0.469967
1.17726
2.39025
3.87484
4.89009
0.161468
0.239967
0.142868
0.100847
0.1304
0.473472
1.2424
2.50336
3.88416
4.6725
0.264444
0.271964
0.133059
0.0753922
0.0689864
0.385927
1.11825
2.30213
3.42903
5.19165
0.429302
0.27151
0.099505
0.0137478
0.0150464
0.348892
1.15108
2.35212
3.25639
4.93776
0.682557
0.254968
0.0231211
0.0821699
0.0995435
0.541019
1.43374
2.62608
3.71625
4.69867
1.06581
0.0478035
0.265385
0.234782
0.312994
0.892135
1.93459
3.20746
4.70768
5.17795
1.51472
0.122643
0.539557
0.415888
0.59447
1.30858
2.47433
3.91758
5.59895
6.22347
2.19503
0.683208
0.857228
0.688594
0.940616
1.73837
2.99225
4.59365
6.30248
7.21636
3.79218
1.70623
1.27567
1.03641
1.3167
2.14998
3.46106
5.16514
6.85407
7.96876
6.86013
3.57562
1.96402
1.42113
1.67818
2.52343
3.87306
5.63112
7.29512
8.50724
9.04906
6.3837
2.84337
2.00149
2.11489
2.89594
4.2233
6.01899
7.6865
8.9381
6.62434
6.68741
6.51073
6.38898
6.34865
6.32249
6.30553
6.31732
6.36195
6.47625
5.5278
5.00897
4.76527
4.52429
4.12621
3.54033
2.79848
1.93203
1.04463
0.284211
4.84951
4.23669
3.8273
3.61685
3.43012
3.31068
3.31556
3.45779
3.65547
3.87438
4.71268
4.88619
5.02865
5.3381
5.70222
6.05242
6.33394
6.52139
6.61652
6.64157
5.68812
6.28603
6.6124
6.91138
7.17237
7.38146
7.53179
7.62813
7.67669
7.69239
6.86592
7.38861
7.68442
7.9023
8.07657
8.21483
8.31779
8.38855
8.43054
8.44888
7.7651
8.12048
8.35196
8.5179
8.64796
8.75098
8.82956
8.88582
8.92164
8.93899
8.40453
8.63267
8.80887
8.94092
9.04401
9.12465
9.18596
9.23006
9.25854
9.27259
8.86615
9.01619
9.14761
9.2506
9.33082
9.39283
9.43944
9.47267
9.494
9.50442
9.24869
9.35045
9.44302
9.51631
9.57294
9.61588
9.64748
9.66957
9.68348
9.69012
9.50947
8.98534
8.2359
6.92826
5.59797
0.131167
3.36083
5.96039
7.2141
8.15188
9.46542
8.92156
8.16814
6.89059
5.54939
0.563769
2.62221
5.70602
6.91644
7.91397
9.36569
8.78283
8.02029
6.80962
5.36636
1.60348
1.41357
5.20663
6.30936
7.40332
9.18256
8.54514
7.77451
6.65513
5.18645
2.74003
0.723099
4.23839
5.42158
6.5715
8.86812
8.1736
7.40403
6.37696
5.02653
3.36803
0.97096
2.63163
4.31696
5.39382
8.35054
7.62974
6.87344
5.91731
4.76513
3.44004
1.71926
1.30194
3.04929
3.98815
7.53605
6.89662
6.15557
5.22759
4.29966
3.26955
2.14312
1.17256
1.65626
2.55742
6.32539
6.03759
5.28136
4.2319
3.53342
2.91258
2.11847
1.43528
1.06862
1.23535
4.63172
5.23228
4.47438
2.99958
2.43705
2.27441
1.85604
1.38495
1.12281
0.65919
2.67284
4.53961
4.02167
1.96667
1.39672
1.48831
1.40997
1.21187
1.06418
0.845347
1.27681
3.78911
3.66668
1.33711
0.816132
0.897676
0.971217
0.956463
0.971913
1.02
0.613536
2.9701
3.08231
0.956379
0.575314
0.640123
0.759675
0.82027
0.844249
0.877203
0.355409
2.18995
2.28559
0.688153
0.492772
0.595639
0.726782
0.811146
0.848906
0.873637
0.265336
1.55091
1.48929
0.521769
0.534998
0.674677
0.788197
0.859219
0.882611
0.892825
0.239652
1.01871
0.845529
0.514847
0.670297
0.803893
0.9051
0.9686
0.984288
0.981157
0.24285
0.492571
0.500226
0.637087
0.818187
0.955694
1.05346
1.1111
1.1216
1.11341
0.176675
0.204023
0.508633
0.75673
0.975466
1.12125
1.21088
1.25785
1.27466
1.27532
0.0451019
0.252255
0.649631
0.923236
1.1365
1.25377
1.32984
1.3998
1.45651
1.47837
0.0614701
0.492682
0.822521
1.09603
1.22955
1.33842
1.48927
1.6482
1.73544
1.75088
0.698449
0.865912
1.04039
1.18289
1.32275
1.59723
1.91063
2.08025
2.08163
2.04843
0.363097
0.0806311
0.224093
0.551233
0.795529
0.892495
0.888253
0.842137
0.79296
0.755702
0.462213
0.20264
0.319569
0.521938
0.724641
0.811425
0.809455
0.771522
0.729662
0.707645
0.52598
0.372733
0.440613
0.514206
0.654001
0.731041
0.73235
0.701712
0.666588
0.659327
0.639262
0.588494
0.596197
0.556183
0.587754
0.643586
0.650241
0.629467
0.602705
0.610818
0.806489
0.804175
0.742763
0.638892
0.542455
0.556108
0.566294
0.556292
0.538539
0.562145
1.0101
1.00009
0.876058
0.738403
0.531359
0.474317
0.481061
0.482109
0.474124
0.513266
1.22817
1.17159
0.990892
0.826477
0.553321
0.408383
0.397417
0.407683
0.409761
0.464048
1.45281
1.32563
1.08953
0.888944
0.590037
0.368021
0.319749
0.334038
0.345777
0.414257
1.68515
1.4689
1.17571
0.923994
0.619715
0.354042
0.254796
0.263002
0.28268
0.36357
1.92622
1.60361
1.25491
0.937177
0.629985
0.353615
0.210213
0.197889
0.221315
0.3116
2.0092
0.747669
0.718306
0.966564
1.19972
1.28714
1.2619
1.18318
1.11178
1.00914
1.39446
0.483091
0.579757
0.875803
1.11141
1.20056
1.18028
1.10896
1.04082
0.951063
0.751581
0.28808
0.481815
0.798739
1.03694
1.12818
1.11222
1.04683
0.982629
0.904261
0.253306
0.170444
0.406178
0.726924
0.961698
1.05155
1.03833
0.978981
0.919348
0.854019
0.435794
0.0326951
0.267636
0.613857
0.865482
0.966869
0.962185
0.910685
0.85632
0.804526
9.35465
9.29006
9.14101
8.87311
8.43757
7.77891
6.87137
5.75934
4.58202
3.53715
9.19249
9.09567
8.88112
8.51168
7.94154
7.13649
6.10967
4.95513
3.8448
2.78685
9.0239
8.90028
8.62663
8.16107
7.46179
6.51619
5.37146
4.16867
3.0813
1.94239
8.81633
8.66222
8.32152
7.74795
6.9062
5.81428
4.55501
3.29481
2.22581
1.08991
8.58751
8.37941
7.92586
7.17748
6.11255
4.79211
3.35063
2.08509
0.993832
0.301997
1.06014
1.02432
1.01609
1.0196
0.915037
0.799553
1.29332
3.68355
3.85996
1.32283
0.94906
0.933604
0.925971
0.870524
0.718615
0.588337
0.910626
3.14221
3.1103
0.647292
0.98583
0.982292
0.965398
0.892605
0.747119
0.584082
0.697933
2.37312
2.34739
0.377358
1.05332
1.06523
1.06107
1.00122
0.889695
0.740314
0.655235
1.55825
1.63567
0.277214
1.18613
1.2103
1.21602
1.1683
1.07707
0.951827
0.789137
0.910742
0.92062
0.246109
1.35156
1.3715
1.3798
1.35474
1.28493
1.15166
0.930216
0.67045
0.358641
0.216837
1.55636
1.5523
1.51986
1.47749
1.42679
1.32066
1.08051
0.754857
0.272637
0.0664486
1.82483
1.81848
1.73587
1.58271
1.44253
1.34596
1.21139
0.902804
0.49489
0.0467859
2.1054
2.15278
2.15143
1.95755
1.61348
1.32351
1.18766
1.05789
0.857642
0.676357
2.31375
2.36052
2.48523
2.53793
2.23596
1.63393
1.18311
1.06697
1.30538
2.04461
8.15168
7.21374
5.96003
3.36033
0.131423
5.5965
6.92777
8.2357
8.98536
9.50957
7.91329
6.91533
5.70501
2.62161
0.563638
5.54554
6.88914
8.16755
8.92162
9.46573
7.40186
6.30747
5.20484
1.41547
1.59976
5.36187
6.80736
8.01941
8.78295
9.36627
6.56885
5.41868
4.23622
0.726273
2.73172
5.18172
6.65228
7.77353
8.54547
9.18359
5.38944
4.31248
2.63266
0.971026
3.35668
5.02057
6.37351
7.4031
8.17435
8.86988
3.97983
3.04148
1.31019
1.7132
3.42678
4.75624
5.9125
6.87256
7.63123
8.35351
2.54111
1.65352
1.18714
2.13285
3.2509
4.28302
5.21887
6.15468
6.89953
7.54138
1.21766
1.08763
1.45166
2.10722
2.88049
3.50309
4.21752
5.28213
6.0436
6.33606
0.671613
1.15284
1.407
1.84229
2.23202
2.40023
2.98384
4.47948
5.24364
4.6555
0.884758
1.10233
1.24697
1.41256
1.46371
1.36891
1.94325
4.02666
4.56527
2.71647
2.09014
0.543385
1.06115
0.628589
0.660399
0.758314
0.632608
0.300326
0.061887
0.356459
1.6304
0.236794
0.870105
0.478241
0.566351
0.681197
0.593826
0.356915
0.265762
0.488419
1.33445
0.0584318
0.642016
0.339779
0.477735
0.602022
0.562734
0.459586
0.473185
0.590981
1.09834
0.0146625
0.394125
0.231087
0.39303
0.51858
0.562999
0.626119
0.732844
0.758296
0.848427
0.0889283
0.189706
0.157554
0.315343
0.442214
0.609337
0.805344
0.97524
0.977641
0.636261
0.153564
0.0531952
0.100664
0.243618
0.386522
0.694934
0.975616
1.1948
1.2252
0.464088
0.208711
0.048647
0.0527085
0.180126
0.365308
0.788937
1.11984
1.38729
1.48167
0.331909
0.209399
0.106802
0.0108032
0.121937
0.374177
0.863274
1.23712
1.55934
1.7369
0.233669
0.194856
0.121602
0.0357611
0.064192
0.391697
0.907436
1.3327
1.71341
1.97827
0.163138
0.173458
0.127229
0.058214
0.0290757
0.400188
0.927163
1.41419
1.84657
2.20182
9.33657
6.77034
2.6648
1.69922
1.20159
1.1201
0.964275
0.781332
0.796232
2.0331
8.21092
4.63648
2.2149
1.41715
1.06888
1.03524
0.890748
0.650723
0.527821
1.39864
6.12016
3.064
1.7852
1.20975
0.963883
0.970934
0.831845
0.561032
0.328684
0.741047
4.13321
1.87597
1.49735
1.00318
0.857768
0.903794
0.775591
0.487553
0.228585
0.225223
2.83566
1.06132
1.24624
0.802451
0.754609
0.826287
0.685973
0.356363
0.0444281
0.398165
3.54769
4.58915
5.76325
6.87355
7.78046
8.43871
8.87389
9.14149
9.29033
9.35474
2.78094
3.84107
4.95237
6.10791
7.13589
7.94155
8.51189
8.88135
9.09583
9.19255
1.92843
3.07191
4.1622
5.36671
6.51363
7.46064
8.16064
8.62655
8.90031
9.02392
1.05571
2.20316
3.28165
4.54678
5.81006
6.90397
7.74682
8.32105
8.66207
8.81631
0.30055
0.962785
2.06401
3.33752
4.78516
6.10895
7.17549
7.9249
8.37903
8.58742
)
;

boundaryField
{
    left
    {
        type            calculated;
        value           nonuniform List<scalar> 
35
(
0.297545
0.566261
0.986935
1.62635
2.5247
3.69556
5.06607
6.47604
8.15848
9.4418
0.214656
0.134917
0.0824484
0.0502212
0.0331295
0.0276988
0.0331485
0.052653
0.0924471
0.159919
4.93339
4.06162
3.23482
2.51294
1.91706
1.42711
1.03082
0.724872
0.496786
0.331264
9.61573
8.97907
7.92204
6.84776
5.85938
)
;
    }
    right
    {
        type            calculated;
        value           nonuniform List<scalar> 
35
(
1.00867
0.950791
0.904292
0.854874
0.806489
0.759192
0.712761
0.665939
0.618832
0.571455
0.523688
0.47526
0.425751
0.374596
0.321127
0.264626
0.204579
0.140353
0.0765744
0.0263335
0.0654721
0.146586
0.222024
0.289446
0.342718
0.401401
0.461399
0.504296
0.53722
0.561235
0.580435
0.59753
0.616039
0.634921
0.66479
)
;
    }
    down
    {
        type            calculated;
        value           nonuniform List<scalar> 
40
(
9.45431
7.26635
2.89574
1.78842
1.24236
1.14849
0.989741
0.822863
0.89733
2.26033
3.83287
4.88245
6.03396
7.09289
7.94462
8.55503
8.95448
9.19926
9.33565
9.39488
9.39479
9.33537
9.19874
8.95361
8.55369
7.94267
7.08995
6.02877
4.87321
3.81893
2.23232
0.847764
0.762207
0.998544
1.2315
1.31687
1.28897
1.20716
1.1347
1.02796
)
;
    }
    up
    {
        type            calculated;
        value           nonuniform List<scalar> 
40
(
9.0341
7.80881
6.16752
4.39471
3.0334
2.11893
1.51956
1.12896
0.902455
0.679185
9.72927
9.72305
9.71045
9.69064
9.66234
9.62377
9.57263
9.50586
9.42076
9.32814
9.33506
9.42656
9.5104
9.57623
9.62665
9.66461
9.69238
9.71169
9.72379
9.72952
9.27074
7.09623
3.23932
2.15334
2.23427
3.01545
4.34545
6.14865
7.81367
9.04496
)
;
    }
    cylinder
    {
        type            calculated;
        value           nonuniform List<scalar> 
80
(
2.00591
4.57575
5.54135
5.78065
6.30537
7.09068
7.86182
8.47477
8.91245
9.2129
9.4458
9.61871
9.72981
9.79829
9.84096
9.86846
9.8865
9.89817
9.90522
9.90869
9.50039
9.6506
9.74902
9.81046
9.849
9.87389
9.89016
9.90054
9.90657
9.90913
5.33012
6.23485
6.21165
6.31623
6.83485
7.52681
8.17626
8.68601
9.05066
9.3025
0.994226
0.471518
0.26418
0.183202
0.159534
0.165568
0.0828432
0.0422992
0.750393
2.43452
9.59446
9.55589
9.46745
9.30187
9.00979
8.51137
7.68627
6.36655
4.38716
2.23868
9.59436
9.55557
9.46683
9.30079
9.00793
8.5082
7.68053
6.3545
4.35817
2.19136
0.952857
0.442314
0.244372
0.170859
0.150288
0.165501
0.160714
0.0838447
0.0433612
0.738934
)
;
    }
    defaultFaces
    {
        type            empty;
    }
}


// ************************************************************************* //
