/*--------------------------------*- C++ -*----------------------------------*\
  =========                 |
  \\      /  F ield         | OpenFOAM: The Open Source CFD Toolbox
   \\    /   O peration     | Website:  https://openfoam.org
    \\  /    A nd           | Version:  13
     \\/     M anipulation  |
\*---------------------------------------------------------------------------*/
FoamFile
{
    format      ascii;
    class       volVectorField;
    location    "3.3";
    object      U;
}
// * * * * * * * * * * * * * * * * * * * * * * * * * * * * * * * * * * * * * //

dimensions      [0 1 -1 0 0 0 0];

internalField   nonuniform List<vector> 
1800
(
(-0.0311065 0.0241527 1.19938e-20)
(-0.0759212 0.0412687 5.38132e-21)
(-0.0978174 0.046716 -3.33953e-20)
(-0.092492 0.0473584 5.09087e-20)
(-0.0533897 0.0471297 1.59168e-19)
(0.0244538 0.0473761 7.94118e-20)
(0.143985 0.0486216 -3.95937e-20)
(0.301449 0.0496186 -3.20581e-20)
(0.511923 0.0786136 1.01528e-19)
(0.607071 0.121861 1.29809e-19)
(-0.0464081 0.0346154 1.01891e-20)
(-0.0870344 0.0579037 -2.99117e-20)
(-0.0791972 0.0583711 3.08779e-22)
(-0.0228578 0.0459104 -5.60626e-20)
(0.0853027 0.0269531 2.33664e-20)
(0.246504 0.0050329 1.47429e-19)
(0.457653 -0.0170713 -8.34011e-20)
(0.707371 -0.0413657 4.50269e-20)
(1.00322 -0.0459672 -1.21306e-19)
(1.18012 -0.0511108 1.35649e-19)
(-0.0506649 0.0336796 3.93791e-21)
(-0.0707207 0.0534562 1.47303e-20)
(-0.0162943 0.0487343 -3.16003e-22)
(0.109377 0.0290051 -1.09416e-20)
(0.304042 0.00211793 -1.32237e-19)
(0.558941 -0.0263334 2.82241e-20)
(0.856749 -0.0522887 5.89059e-20)
(1.17478 -0.0732103 -2.31622e-20)
(1.49015 -0.0860814 -1.65003e-22)
(1.76486 -0.108369 -3.00416e-21)
(-0.0443753 0.0255062 -7.52687e-21)
(-0.0242326 0.0317721 -2.37685e-20)
(0.0978277 0.017696 -2.42464e-20)
(0.313187 -0.00762017 2.43759e-20)
(0.606835 -0.0356389 2.17155e-20)
(0.951111 -0.0602765 9.57314e-21)
(1.31027 -0.0783453 -3.06409e-21)
(1.64968 -0.0891139 8.56415e-20)
(1.94659 -0.0951963 7.89719e-20)
(2.17575 -0.0992239 -3.41074e-20)
(-0.0271799 0.0142442 5.92922e-20)
(0.0576732 0.00423527 5.48475e-20)
(0.271404 -0.0174003 -3.85727e-20)
(0.591119 -0.0412748 -4.75791e-20)
(0.977026 -0.0597498 -1.2427e-19)
(1.37683 -0.0697175 2.04163e-21)
(1.7424 -0.0720185 1.68709e-19)
(2.04276 -0.0697837 8.38037e-20)
(2.26372 -0.0652397 2.4431e-21)
(2.41818 -0.0684065 -8.07812e-20)
(0.00449817 0.00146553 -5.89486e-20)
(0.18166 -0.0215898 -1.31284e-20)
(0.506155 -0.0430095 1.97639e-19)
(0.926772 -0.0547512 -5.40935e-20)
(1.37106 -0.0548181 -1.38582e-19)
(1.77151 -0.0465912 2.87579e-19)
(2.08769 -0.0353152 -3.08374e-19)
(2.30883 -0.0252039 -4.35012e-19)
(2.44795 -0.0188386 3.6811e-19)
(2.52279 -0.0170698 1.0146e-21)
(0.0538901 -0.0105341 6.53731e-20)
(0.34838 -0.037695 -1.40313e-19)
(0.787404 -0.0469561 -4.76763e-19)
(1.2802 -0.0368787 2.31596e-19)
(1.73119 -0.0159762 5.22523e-19)
(2.08236 0.00631824 -2.06621e-21)
(2.32078 0.0241228 -1.15391e-18)
(2.46364 0.035297 4.89001e-21)
(2.53807 0.041317 1.4163e-18)
(2.57158 0.0391811 3.92328e-19)
(0.121588 -0.0180711 6.44282e-20)
(0.548868 -0.0353397 3.42989e-19)
(1.08577 -0.0203827 3.97522e-19)
(1.60641 0.0151262 -1.16741e-19)
(2.01967 0.0523 -4.84854e-19)
(2.29924 0.0808885 -1.85723e-19)
(2.46349 0.0985839 0)
(2.54664 0.107177 5.97939e-19)
(2.58075 0.109235 -9.323e-21)
(2.58635 0.105819 -5.72807e-19)
(0.204528 -0.0170011 5.71426e-20)
(0.765197 -0.0076225 3.56544e-19)
(1.36777 0.0397847 6.71503e-19)
(1.87555 0.0977159 -7.04933e-19)
(2.22858 0.143599 -6.19186e-19)
(2.43729 0.172024 2.53037e-19)
(2.54184 0.18576 -1.21339e-18)
(2.58324 0.189542 -9.15016e-19)
(2.59064 0.187593 1.13384e-18)
(2.58043 0.180106 9.89052e-19)
(0.296587 -0.00383837 -4.39804e-20)
(0.975855 0.0482382 2.82566e-19)
(1.60847 0.130514 1.78614e-19)
(2.07765 0.204414 -1.44057e-18)
(2.36592 0.252115 4.90601e-20)
(2.5139 0.275634 2.9204e-18)
(2.57407 0.282544 -1.69726e-18)
(2.58775 0.279977 -1.00261e-18)
(2.57951 0.272372 3.53126e-19)
(2.55968 0.260834 -8.1028e-19)
(-0.0133637 0.219164 1.57497e-19)
(-0.0628231 0.455885 -1.0509e-19)
(-0.127805 0.558676 1.23209e-21)
(-0.198806 0.589435 -2.15348e-20)
(-0.268216 0.589692 3.1912e-21)
(-0.334191 0.579293 2.18435e-19)
(-0.396002 0.56472 1.47183e-19)
(-0.453263 0.547118 -3.48735e-19)
(-0.508057 0.526511 1.38013e-20)
(-0.565302 0.503304 -4.4335e-20)
(-0.02962 0.251228 -1.0284e-20)
(-0.0788943 0.542711 1.61441e-21)
(-0.131954 0.680518 2.7475e-20)
(-0.186571 0.728082 4.47466e-20)
(-0.239353 0.733515 -1.0929e-19)
(-0.288901 0.722521 2.21376e-19)
(-0.334317 0.704839 -3.13943e-19)
(-0.374737 0.682809 -4.04491e-19)
(-0.411177 0.656651 3.68503e-19)
(-0.448522 0.626724 -1.17401e-19)
(-0.0439953 0.244914 -4.51478e-20)
(-0.0928976 0.56717 2.41556e-20)
(-0.131397 0.743436 -4.01658e-21)
(-0.164975 0.818269 -2.12992e-19)
(-0.196071 0.837077 -6.97361e-20)
(-0.224497 0.829989 7.48803e-19)
(-0.24945 0.811308 -2.4689e-19)
(-0.269844 0.785917 -4.29498e-19)
(-0.285178 0.754924 5.17666e-19)
(-0.298387 0.718592 3.07884e-19)
(-0.0500225 0.203798 -2.93451e-20)
(-0.0982102 0.52202 -5.67613e-21)
(-0.123852 0.731956 6.31723e-21)
(-0.137548 0.843922 -2.38266e-20)
(-0.146585 0.88802 1.61878e-19)
(-0.153104 0.893379 -2.56905e-19)
(-0.157131 0.878803 -2.16079e-19)
(-0.157886 0.853342 2.57391e-19)
(-0.154073 0.820119 4.29303e-21)
(-0.143565 0.779626 1.03123e-20)
(-0.0444892 0.141888 0)
(-0.0896651 0.416489 -5.37925e-21)
(-0.106907 0.63999 -7.75116e-21)
(-0.105809 0.790319 8.81363e-20)
(-0.0955627 0.872974 3.00224e-19)
(-0.0807599 0.9058 -2.24837e-19)
(-0.063118 0.906523 8.79379e-20)
(-0.0427725 0.887697 4.68769e-20)
(-0.0191014 0.856252 0)
(0.0140325 0.814475 2.1306e-20)
(-0.0297083 0.0783073 -2.94976e-20)
(-0.0674074 0.279444 7.06731e-20)
(-0.0811891 0.482363 4.5691e-20)
(-0.0743477 0.649999 -6.55357e-20)
(-0.0534175 0.767713 6.48434e-20)
(-0.023413 0.837448 1.42697e-19)
(0.0123594 0.868281 -4.02154e-19)
(0.0522614 0.870314 -4.02677e-20)
(0.0941734 0.851331 5.07131e-19)
(0.148193 0.814724 1.13019e-20)
(-0.012447 0.0294631 8.99497e-21)
(-0.0396689 0.151832 1.23366e-19)
(-0.0537286 0.305365 -7.04103e-20)
(-0.0505389 0.455653 -1.19531e-20)
(-0.0311709 0.58094 -5.37232e-20)
(0.00161636 0.672547 2.84952e-20)
(0.0446673 0.730375 1.11766e-19)
(0.0955588 0.75873 1.27925e-19)
(0.150405 0.763142 -1.57247e-19)
(0.216929 0.741566 -2.3045e-19)
(0.000348539 0.00173477 2.42066e-20)
(-0.0187884 0.0621891 -5.80207e-20)
(-0.036113 0.158831 -9.26086e-20)
(-0.0422614 0.267377 3.3947e-20)
(-0.0333934 0.369421 -3.3725e-21)
(-0.00918595 0.453867 1.47217e-19)
(0.0286351 0.516074 1.57489e-19)
(0.0775652 0.555924 -1.33623e-21)
(0.135431 0.576811 1.26279e-20)
(0.202136 0.562331 -1.02852e-19)
(0.00311545 -0.00580385 1.88401e-20)
(-0.0178392 0.0178432 -6.7425e-20)
(-0.0428691 0.0671489 1.22075e-19)
(-0.0608801 0.128723 1.51121e-19)
(-0.0651385 0.191943 -1.24565e-19)
(-0.0530642 0.248756 2.75858e-19)
(-0.024825 0.295081 -3.485e-20)
(0.0186137 0.329398 -3.78621e-19)
(0.0783772 0.350702 -4.4118e-20)
(0.157951 0.334572 -5.09613e-20)
(-0.00984774 0.0055044 -4.37704e-21)
(-0.0446903 0.0172404 -2.61572e-20)
(-0.077487 0.0359034 -1.35265e-20)
(-0.0992057 0.0597051 6.87795e-20)
(-0.10268 0.0860168 1.45249e-19)
(-0.082887 0.112582 -1.7857e-19)
(-0.0371594 0.13787 -1.74572e-19)
(0.0344698 0.160623 1.01009e-19)
(0.134864 0.180382 -7.02479e-20)
(0.258987 0.183285 -1.73645e-20)
(-0.858171 0.376477 6.69768e-19)
(-0.898439 0.0509985 -1.91883e-18)
(-0.376802 -0.278057 -5.17386e-19)
(0.109703 -0.43315 2.53524e-19)
(0.476946 -0.500395 -6.06423e-20)
(0.687963 -0.424602 -3.6227e-20)
(0.835862 -0.340803 -1.46325e-20)
(0.941027 -0.243927 -1.15032e-21)
(0.997781 -0.190915 1.341e-20)
(1.06411 -0.120426 3.2722e-21)
(-0.660982 0.458212 7.7786e-19)
(-0.59801 -0.00777964 7.18531e-19)
(-0.164341 -0.421911 -4.89918e-20)
(0.276309 -0.557427 -3.29248e-19)
(0.604653 -0.580273 -3.83631e-19)
(0.78651 -0.474628 0)
(0.90647 -0.3729 -3.01958e-20)
(0.984718 -0.264508 5.06072e-21)
(1.02663 -0.205705 3.35701e-22)
(1.07742 -0.129048 -7.24054e-21)
(-0.419514 0.510387 -8.65345e-20)
(-0.264127 -0.0626152 -4.05914e-19)
(0.117727 -0.533192 3.61731e-19)
(0.483217 -0.662913 1.04757e-19)
(0.750846 -0.649068 3.28733e-20)
(0.894451 -0.516817 -2.15882e-20)
(0.98416 -0.397844 0)
(1.03434 -0.279432 0)
(1.05992 -0.216154 -1.54326e-20)
(1.09263 -0.135388 0)
(-0.16931 0.536145 -5.95455e-20)
(0.0750482 -0.109016 6.6621e-19)
(0.424639 -0.618846 -1.35192e-19)
(0.714252 -0.746742 0)
(0.909197 -0.703001 3.46836e-19)
(1.0048 -0.549742 -6.30396e-20)
(1.06218 -0.415741 0)
(1.0855 -0.288827 5.76558e-20)
(1.09543 -0.222025 0)
(1.10902 -0.13917 7.97583e-21)
(0.0596844 0.541497 2.09585e-19)
(0.398653 -0.14378 2.81564e-19)
(0.732885 -0.682968 8.8339e-20)
(0.95138 -0.809732 0)
(1.0731 -0.740675 1.44318e-19)
(1.11488 -0.571876 1.46207e-19)
(1.13684 -0.426531 -9.50013e-21)
(1.13443 -0.293197 -1.44094e-21)
(1.1305 -0.223588 -1.37007e-20)
(1.12554 -0.140368 2.08669e-21)
(0.260555 0.534785 1.59702e-18)
(0.694855 -0.166396 -7.59592e-20)
(1.02872 -0.729318 -4.45515e-20)
(1.18056 -0.854374 3.84256e-19)
(1.23327 -0.763733 -2.50905e-19)
(1.22231 -0.583004 7.30478e-20)
(1.20715 -0.43 1.48405e-19)
(1.17913 -0.292927 -1.2495e-19)
(1.16297 -0.221346 1.84267e-22)
(1.1411 -0.139163 -1.86368e-20)
(0.40635 0.508991 3.37464e-20)
(0.96133 -0.183229 -9.27372e-20)
(1.30597 -0.758944 -1.18786e-19)
(1.39521 -0.881715 -1.18921e-20)
(1.38312 -0.774438 -2.05647e-19)
(1.32414 -0.584452 -2.32151e-20)
(1.27308 -0.426375 -6.06114e-20)
(1.21932 -0.288209 3.89501e-21)
(1.19166 -0.215753 1.70551e-20)
(1.15482 -0.135835 -8.19242e-22)
(0.457765 0.446851 -6.91742e-19)
(1.20356 -0.20442 -1.61792e-19)
(1.561 -0.773352 0)
(1.59099 -0.892137 1.10319e-19)
(1.51945 -0.774301 1.71444e-19)
(1.41811 -0.578031 -1.75555e-20)
(1.33465 -0.416532 -1.99552e-19)
(1.2557 -0.279298 5.25016e-20)
(1.21644 -0.207146 -8.67229e-22)
(1.16624 -0.13066 -9.41683e-21)
(0.458862 0.324763 7.88874e-19)
(1.44286 -0.24431 4.42331e-19)
(1.79229 -0.773782 -9.20806e-21)
(1.76391 -0.886178 -6.88638e-20)
(1.64023 -0.764194 1.52839e-20)
(1.50266 -0.565207 -1.94797e-19)
(1.39153 -0.401696 7.13677e-20)
(1.28914 -0.266743 -6.61157e-22)
(1.23787 -0.195902 8.11626e-22)
(1.17534 -0.123896 1.29866e-20)
(0.536894 0.16262 -4.93188e-19)
(1.69042 -0.302753 4.44742e-19)
(1.99762 -0.764842 1.94793e-19)
(1.91211 -0.867615 -1.72611e-19)
(1.74488 -0.745502 -1.7032e-19)
(1.57705 -0.547054 -1.0222e-19)
(1.443 -0.382967 -3.49831e-20)
(1.32011 -0.25124 0)
(1.25671 -0.182478 -2.54947e-20)
(1.18248 -0.115782 1.77774e-20)
(1.30332 0.0239496 -5.59544e-19)
(2.10561 -0.399954 -5.79528e-19)
(2.25208 -0.754498 1.68265e-19)
(2.0863 -0.830301 2.89388e-20)
(1.86522 -0.709335 3.39283e-20)
(1.65988 -0.514784 -8.20895e-20)
(1.49957 -0.351655 -6.67934e-20)
(1.35492 -0.226002 3.43694e-20)
(1.27723 -0.161644 -1.25651e-20)
(1.18982 -0.103897 -9.34862e-21)
(2.13846 -0.0426365 8.78854e-21)
(2.57073 -0.473144 -1.26921e-18)
(2.46463 -0.74748 -8.31006e-19)
(2.15204 -0.761764 4.65386e-20)
(1.88493 -0.612274 6.34824e-20)
(1.67136 -0.422056 1.68871e-19)
(1.51395 -0.276103 1.4578e-19)
(1.36861 -0.172715 -1.81536e-20)
(1.2894 -0.124161 5.42071e-20)
(1.19376 -0.0841465 6.51082e-21)
(2.4492 -0.123943 6.21083e-20)
(2.59419 -0.449669 1.12739e-20)
(2.39149 -0.640471 3.88188e-20)
(2.13945 -0.650863 1.96151e-35)
(1.93569 -0.530327 -3.61218e-20)
(1.7334 -0.363829 -5.35376e-34)
(1.5621 -0.229141 1.93588e-20)
(1.39811 -0.135299 4.91231e-34)
(1.30762 -0.0927466 -1.64562e-21)
(1.19961 -0.0653127 2.90772e-21)
(2.47336 -0.1571 -2.65427e-35)
(2.51447 -0.398022 4.59553e-19)
(2.38855 -0.578507 3.04799e-19)
(2.18068 -0.597477 0)
(1.95782 -0.464989 -6.18449e-20)
(1.72532 -0.285174 -1.0269e-19)
(1.5386 -0.155105 -9.54769e-20)
(1.37437 -0.0803304 1.42218e-33)
(1.29117 -0.0523619 -2.92379e-20)
(1.18981 -0.0427957 -3.91021e-21)
(2.43342 -0.178183 4.03655e-20)
(2.45594 -0.367277 -2.35247e-21)
(2.35857 -0.519209 0)
(2.15427 -0.513237 0)
(1.92886 -0.374828 0)
(1.6984 -0.205527 0)
(1.51305 -0.0924539 5.82008e-21)
(1.35087 -0.0366975 1.67198e-33)
(1.27156 -0.0203064 -2.49827e-21)
(1.1759 -0.0239859 -5.58819e-34)
(2.39542 -0.194573 7.09563e-20)
(2.40401 -0.337396 0)
(2.31164 -0.4589 0)
(2.08396 -0.43965 0)
(1.8233 -0.294647 0)
(1.5821 -0.129827 0)
(1.41016 -0.0288495 -1.22531e-20)
(1.27312 0.00849851 4.4782e-20)
(1.21465 0.0118439 -2.9187e-21)
(1.14028 -0.00563784 -1.6057e-21)
(2.35017 -0.201071 0)
(2.33045 -0.308777 1.40037e-19)
(2.17222 -0.390152 1.06071e-19)
(1.86598 -0.341494 0)
(1.57092 -0.194262 -4.70221e-20)
(1.34628 -0.0525273 -5.4439e-20)
(1.21665 0.0221178 -5.13875e-20)
(1.1298 0.0383204 -2.07513e-20)
(1.1074 0.0309125 1.46091e-20)
(1.06743 0.00642578 -6.93448e-21)
(2.21311 -0.189296 -4.78114e-21)
(2.09842 -0.256327 -3.15141e-21)
(1.80431 -0.280818 -7.55779e-22)
(1.41176 -0.213744 -1.41708e-35)
(1.11682 -0.0933663 1.09524e-20)
(0.957546 0.00463441 -2.3299e-34)
(0.910111 0.0481307 -1.4052e-20)
(0.897877 0.0486267 -3.07961e-20)
(0.920426 0.0354284 -3.20485e-21)
(0.920329 0.0111047 6.04393e-21)
(1.72984 -0.145446 3.20185e-20)
(1.4729 -0.159977 -3.14554e-20)
(1.07128 -0.128632 -1.67783e-20)
(0.700032 -0.0715373 0)
(0.50682 -0.0149825 -1.79321e-22)
(0.46359 0.0247995 7.70047e-22)
(0.507562 0.0407523 -9.99581e-21)
(0.561868 0.0350748 5.20577e-21)
(0.616784 0.0240046 -9.91982e-21)
(0.64519 0.00827119 -5.37976e-21)
(0.617735 -0.0258997 0)
(0.398604 -0.00783603 0)
(0.20144 -8.26364e-05 0)
(0.0697819 -0.00224669 0)
(0.0119686 -0.00133716 0)
(0.0253677 0.00364704 0)
(0.0834647 0.00652966 -1.38e-20)
(0.142207 0.00536434 4.75883e-35)
(0.189094 0.00343734 -3.583e-21)
(0.217065 0.00108564 -6.34518e-21)
(2.49868 0.235366 7.8364e-19)
(2.53761 0.167512 4.76763e-20)
(2.55356 0.0992171 -7.69315e-20)
(2.57116 0.0477752 -2.44839e-19)
(2.57369 -0.0134843 -4.42603e-20)
(2.54238 -0.0407423 -6.71822e-20)
(2.52511 -0.100465 -2.08977e-19)
(2.31433 -0.0882591 1.80836e-20)
(2.21025 -0.135824 0)
(1.56212 -0.0545057 2.55137e-20)
(2.4264 0.194113 2.52017e-19)
(2.42711 0.151219 -2.85444e-19)
(2.50451 0.0831771 -6.18828e-20)
(2.46795 0.051274 -1.2113e-19)
(2.56878 -0.0134632 9.93877e-20)
(2.47773 -0.0374333 1.71179e-19)
(2.60881 -0.0941861 -2.08551e-19)
(2.43488 -0.125318 5.25773e-21)
(2.54698 -0.151923 -3.67253e-20)
(2.24937 -0.200812 6.25859e-20)
(2.37953 0.160966 -1.13887e-19)
(2.34751 0.124955 2.58591e-19)
(2.45504 0.070741 1.55585e-19)
(2.39073 0.0357353 -2.61548e-19)
(2.51119 -0.00830264 -4.42638e-20)
(2.42167 -0.0505556 3.59572e-19)
(2.5428 -0.0760153 6.15066e-20)
(2.44816 -0.135386 -6.34616e-20)
(2.53591 -0.132678 -3.39583e-20)
(2.45217 -0.208561 -3.57971e-20)
(2.32628 0.129596 -2.98697e-19)
(2.30961 0.0919498 -5.30895e-20)
(2.39142 0.0564365 3.2886e-20)
(2.35879 0.0144698 -1.04297e-20)
(2.43409 -0.00979401 -2.27017e-19)
(2.39869 -0.060039 -8.04748e-20)
(2.45657 -0.0693887 2.04122e-19)
(2.43549 -0.128348 -1.2265e-20)
(2.46696 -0.123793 3.92102e-20)
(2.46682 -0.186267 1.53946e-20)
(2.27152 0.0982631 4.00324e-20)
(2.28328 0.062127 1.33198e-19)
(2.33041 0.0374621 -1.94663e-20)
(2.33496 -0.00237916 1.77208e-19)
(2.3703 -0.0197519 -5.67744e-20)
(2.37487 -0.0635286 -2.25339e-19)
(2.39554 -0.0733138 3.48089e-20)
(2.40621 -0.11911 -7.621e-20)
(2.41389 -0.12378 -4.19693e-21)
(2.43161 -0.169017 -1.67689e-20)
(2.22452 0.0651737 -1.65393e-19)
(2.25178 0.0347844 -7.16981e-20)
(2.28189 0.0144977 -7.8955e-21)
(2.30365 -0.0175042 1.10094e-19)
(2.32422 -0.0345703 2.69259e-19)
(2.34289 -0.067697 -6.64137e-20)
(2.3543 -0.0821204 6.03443e-21)
(2.37179 -0.115374 -7.65176e-20)
(2.37605 -0.128268 -1.1334e-19)
(2.39364 -0.16094 -3.18503e-20)
(2.17389 0.0320242 -5.50935e-20)
(2.20549 0.00814042 -1.24754e-19)
(2.22997 -0.00895622 -1.47993e-19)
(2.25708 -0.0335185 -2.68157e-19)
(2.27425 -0.0496309 7.36148e-20)
(2.29811 -0.0749957 6.66031e-20)
(2.30818 -0.0907225 -1.40679e-21)
(2.3305 -0.116913 8.20228e-20)
(2.33367 -0.132439 -8.77753e-20)
(2.35694 -0.159465 -5.16753e-20)
(2.06552 0.00135351 6.2088e-20)
(2.09575 -0.0158732 3.19153e-20)
(2.11218 -0.0285119 1.87417e-20)
(2.14159 -0.0464547 -3.9289e-20)
(2.15101 -0.0588511 -3.74775e-20)
(2.18168 -0.0781132 -4.51275e-20)
(2.18345 -0.0909446 -4.97723e-20)
(2.2178 -0.112122 1.00474e-19)
(2.21069 -0.125685 -4.55967e-20)
(2.25184 -0.149095 1.73995e-20)
(1.74755 -0.0226378 -6.5715e-20)
(1.76204 -0.0317643 -1.01173e-20)
(1.76285 -0.038725 1.2107e-19)
(1.77987 -0.0482097 -1.50312e-20)
(1.77425 -0.0550133 -3.47087e-20)
(1.79733 -0.0658515 7.24738e-20)
(1.78269 -0.0732468 -5.42143e-20)
(1.81538 -0.0863614 4.12047e-20)
(1.78773 -0.0951466 -1.40499e-20)
(1.83487 -0.11116 -7.70938e-20)
(0.878974 -0.0127587 5.09932e-20)
(0.865639 -0.0123338 4.26763e-20)
(0.850638 -0.0119705 4.2353e-20)
(0.839254 -0.0119078 6.95787e-20)
(0.823998 -0.012302 -3.56043e-20)
(0.815679 -0.0130539 -4.60037e-20)
(0.797141 -0.0143765 2.07574e-20)
(0.794074 -0.0165343 -2.67724e-21)
(0.763523 -0.0178585 4.01e-21)
(0.776541 -0.0256447 -5.89318e-21)
(1.57107 0.962274 -8.61622e-20)
(1.55483 1.00832 2.67093e-20)
(1.55849 1.06217 -6.45189e-19)
(1.56724 1.12341 2.34594e-19)
(1.57382 1.18792 1.20864e-18)
(1.56956 1.24765 -1.46671e-19)
(1.53243 1.28006 -1.06978e-18)
(1.41199 1.23291 5.1542e-23)
(1.11891 1.00996 -5.25388e-19)
(0.524422 0.485085 1.17508e-19)
(1.73594 0.932293 0)
(1.7245 0.976717 7.44673e-19)
(1.72437 1.02656 1.64877e-18)
(1.73262 1.08513 -1.0169e-18)
(1.74241 1.14803 -2.37315e-18)
(1.7414 1.20561 -1.54355e-19)
(1.70222 1.23411 -1.97875e-19)
(1.56678 1.18194 7.22892e-19)
(1.23577 0.959057 1.08844e-18)
(0.573522 0.453255 4.27315e-19)
(1.88834 0.891542 6.82926e-20)
(1.88568 0.935714 0)
(1.88677 0.982586 -6.74715e-20)
(1.8956 1.0366 1.03646e-18)
(1.90738 1.09463 5.59072e-20)
(1.90755 1.14674 -2.31081e-18)
(1.8637 1.16861 1.46057e-18)
(1.71026 1.11074 8.61317e-19)
(1.33985 0.890865 -9.31253e-19)
(0.613499 0.41228 -2.72626e-19)
(2.02248 0.843119 -1.89231e-19)
(2.02966 0.885137 -1.38844e-19)
(2.03599 0.928204 2.83105e-19)
(2.0476 0.976578 -3.50994e-19)
(2.06125 1.02796 -1.62204e-18)
(2.06085 1.07245 -1.26007e-18)
(2.00927 1.08599 1.3199e-18)
(1.8347 1.02022 8.76382e-19)
(1.42228 0.80479 0)
(0.639468 0.362292 0)
(2.14006 0.778537 -9.28166e-19)
(2.15574 0.818137 -1.70333e-18)
(2.16867 0.857678 -6.54112e-19)
(2.18425 0.900777 -3.36618e-20)
(2.19939 0.945396 0)
(2.19656 0.981133 1.35268e-19)
(2.13375 0.984187 1.55973e-19)
(1.93225 0.912872 1.94632e-19)
(1.47609 0.705252 -2.78039e-19)
(0.648165 0.304504 -6.95691e-20)
(2.24368 0.705176 1.1085e-18)
(2.26589 0.740361 -4.12595e-20)
(2.28446 0.775196 -1.29836e-18)
(2.30343 0.812177 0)
(2.3187 0.848565 0)
(2.30975 0.874519 0)
(2.22946 0.867749 1.48138e-18)
(1.9952 0.790519 -1.62996e-18)
(1.49639 0.59262 -1.02805e-18)
(0.636565 0.241535 1.7109e-20)
(2.33334 0.620153 -1.43819e-18)
(2.36038 0.650908 -3.01709e-18)
(2.38301 0.681103 -5.23267e-21)
(2.40361 0.711992 6.10935e-19)
(2.41588 0.740326 -3.68625e-20)
(2.39559 0.756147 1.28385e-18)
(2.29127 0.738931 -7.09816e-19)
(2.01898 0.656326 -1.86506e-18)
(1.47802 0.471706 1.00337e-19)
(0.603372 0.177446 7.83516e-20)
(2.41142 0.531312 -1.11748e-18)
(2.43987 0.556697 1.54921e-20)
(2.46368 0.581383 4.20817e-19)
(2.48291 0.605423 -4.06862e-19)
(2.48789 0.624965 6.33196e-19)
(2.44997 0.630063 1.67577e-18)
(2.31374 0.60232 -1.42964e-19)
(1.99725 0.516028 -9.74135e-19)
(1.41679 0.34934 2.19689e-19)
(0.549062 0.116851 4.01524e-20)
(2.47471 0.438629 4.07262e-19)
(2.50317 0.459594 7.96302e-20)
(2.52556 0.478724 -4.16917e-19)
(2.53965 0.495638 -9.7973e-19)
(2.53156 0.506089 6.63718e-20)
(2.46777 0.500516 4.91251e-20)
(2.29037 0.463383 -1.1909e-18)
(1.92414 0.37647 5.10778e-19)
(1.31096 0.232968 1.46234e-19)
(0.476269 0.0642472 -5.47668e-20)
(2.52442 0.348546 7.52703e-19)
(2.54973 0.364589 -1.12152e-18)
(2.56742 0.377653 1.65377e-19)
(2.57124 0.387112 2.21168e-18)
(2.54227 0.388407 1.06987e-18)
(2.44237 0.372877 -2.30867e-18)
(2.21398 0.328577 -2.12408e-18)
(1.7951 0.245345 8.87686e-19)
(1.16192 0.130259 -3.90291e-20)
(0.389836 0.023308 -1.01786e-19)
(0.545337 0.401734 -1.66392e-19)
(0.504602 0.415461 -1.63118e-19)
(0.458765 0.430067 7.26007e-20)
(0.408458 0.445702 -2.35955e-19)
(0.353361 0.462224 -1.97348e-20)
(0.292629 0.478182 2.14034e-19)
(0.225283 0.487619 3.3942e-20)
(0.151777 0.473509 4.24185e-21)
(0.0791979 0.399107 2.03763e-20)
(0.0161617 0.203388 1.30689e-20)
(0.589297 0.508861 1.32729e-19)
(0.549603 0.529271 1.69129e-19)
(0.505661 0.551151 4.67416e-20)
(0.457668 0.574653 -4.9349e-20)
(0.404977 0.599519 -2.15283e-19)
(0.346467 0.623762 -1.67344e-20)
(0.280446 0.639497 5.20357e-20)
(0.205482 0.624177 4.11534e-20)
(0.124879 0.528568 -1.25345e-19)
(0.0398039 0.270688 -4.33526e-20)
(0.65097 0.608261 -1.09476e-19)
(0.612598 0.634454 -9.54561e-20)
(0.571092 0.662601 9.53063e-20)
(0.526192 0.693182 6.52201e-20)
(0.476964 0.726056 -7.96514e-20)
(0.421964 0.758778 -1.82813e-20)
(0.358425 0.781457 -1.10531e-19)
(0.282035 0.765883 -8.4538e-20)
(0.190211 0.650463 -7.06981e-20)
(0.0736346 0.333591 2.83567e-22)
(0.73011 0.704047 3.17409e-20)
(0.693626 0.736666 -5.50546e-20)
(0.655478 0.771089 -7.82081e-20)
(0.614422 0.808017 -6.35888e-20)
(0.569103 0.847455 -6.59677e-20)
(0.517893 0.886633 -7.74686e-21)
(0.456981 0.913869 -2.89934e-19)
(0.378586 0.895918 6.37396e-20)
(0.272449 0.760542 -3.27532e-19)
(0.116123 0.389444 4.9236e-20)
(0.822138 0.783145 9.63161e-21)
(0.788294 0.820734 1.56297e-20)
(0.754841 0.860689 -4.99475e-20)
(0.719641 0.904058 -2.74132e-19)
(0.680534 0.950608 1.27093e-19)
(0.635086 0.996882 4.58026e-20)
(0.57786 1.02941 3.70483e-20)
(0.496831 1.01021 -1.89662e-19)
(0.372415 0.857133 3.95264e-19)
(0.167128 0.437582 2.86934e-19)
(0.930465 0.861629 -9.77714e-20)
(0.898178 0.903651 -1.91078e-19)
(0.86795 0.946857 1.2956e-20)
(0.837092 0.993744 1.00912e-19)
(0.803409 1.04465 3.76211e-19)
(0.763929 1.09542 2.79691e-19)
(0.711044 1.13036 6.65615e-19)
(0.627457 1.10713 2.72847e-19)
(0.482984 0.936071 1.47159e-19)
(0.223393 0.475167 2.07936e-19)
(1.04485 0.91332 -1.08599e-19)
(1.01883 0.96013 6.28097e-19)
(0.996526 1.00785 4.13055e-19)
(0.973325 1.05902 -5.35675e-19)
(0.946474 1.11423 -2.68117e-19)
(0.912922 1.16928 6.92394e-19)
(0.863443 1.20698 -1.07589e-19)
(0.775179 1.18102 -4.70556e-19)
(0.606182 0.995302 2.89716e-20)
(0.284685 0.501665 2.59361e-19)
(1.16577 0.966623 3.108e-19)
(1.13981 1.01377 5.93891e-20)
(1.12232 1.06181 -7.8746e-19)
(1.10735 1.11481 1.75066e-19)
(1.09009 1.17241 6.08374e-19)
(1.06542 1.22904 -3.32536e-19)
(1.02118 1.26583 -1.05685e-19)
(0.928397 1.23383 -1.93156e-19)
(0.733269 1.0335 1.95146e-20)
(0.347018 0.515832 -3.01182e-19)
(1.29631 0.984147 1.82365e-20)
(1.28099 1.03499 -5.77069e-19)
(1.27079 1.0839 -4.89308e-21)
(1.26135 1.13792 4.95181e-19)
(1.24994 1.19798 -5.15473e-19)
(1.23127 1.25737 1.00756e-18)
(1.18997 1.29484 6.75701e-19)
(1.08984 1.25874 -9.93795e-19)
(0.864542 1.04803 -7.90803e-20)
(0.40942 0.517308 -3.32835e-19)
(1.39864 0.994 -3.50298e-19)
(1.39525 1.04582 -3.29595e-19)
(1.40274 1.09644 3.04813e-19)
(1.40827 1.15107 8.12595e-19)
(1.4084 1.21035 2.89908e-19)
(1.39828 1.26794 -8.36077e-19)
(1.36035 1.30187 1.10821e-19)
(1.25163 1.25935 2.26122e-19)
(0.993927 1.0403 -3.03308e-19)
(0.469112 0.506887 -2.35528e-19)
(0.996228 0.0111527 6.11302e-22)
(1.01067 0.0414609 -1.76036e-20)
(1.02334 0.0515516 -1.35599e-20)
(1.02583 0.0758751 0)
(1.02389 0.0921355 1.59419e-20)
(1.02172 0.117476 2.31419e-20)
(0.999192 0.160175 3.09752e-20)
(0.958197 0.199518 7.06735e-20)
(0.875369 0.264806 -1.09733e-19)
(0.722986 0.333078 -1.57239e-19)
(0.997121 0.00926627 3.62754e-20)
(1.00838 0.0390844 -5.68373e-20)
(1.02289 0.0495198 2.06158e-22)
(1.02376 0.0755546 -1.70181e-20)
(1.02399 0.092499 8.08018e-21)
(1.02244 0.121934 -1.197e-20)
(1.00189 0.169154 -7.21308e-20)
(0.968065 0.218358 0)
(0.887936 0.301909 2.286e-19)
(0.759739 0.403188 -2.60397e-19)
(0.997627 0.00760721 -2.61435e-20)
(1.0071 0.0369876 1.5708e-20)
(1.02235 0.0472755 3.56982e-20)
(1.0235 0.0757063 9.05588e-21)
(1.02441 0.0923151 -1.96888e-20)
(1.02604 0.127036 1.15426e-21)
(1.00546 0.177283 -5.08525e-20)
(0.982746 0.237265 -6.4242e-21)
(0.90354 0.337304 1.91124e-22)
(0.810815 0.470428 7.03446e-19)
(0.997818 0.00607835 -2.92379e-20)
(1.00663 0.0351818 2.18928e-21)
(1.02188 0.0447103 2.91998e-20)
(1.02482 0.076353 1.93201e-20)
(1.02533 0.0914342 -9.92586e-21)
(1.03218 0.132875 -1.42852e-20)
(1.01005 0.184247 7.43513e-20)
(1.00209 0.256813 -2.03111e-21)
(0.921746 0.36982 -2.54608e-19)
(0.876038 0.53339 8.69894e-20)
(0.997799 0.00460074 2.0237e-20)
(1.00668 0.0336259 -2.90288e-20)
(1.02175 0.0417761 -2.34477e-20)
(1.02734 0.0774194 1.15197e-20)
(1.02709 0.0898249 0)
(1.04025 0.139383 0)
(1.01644 0.189953 6.33981e-20)
(1.02448 0.27695 7.29671e-22)
(0.945184 0.399378 -1.17178e-19)
(0.951062 0.590206 9.13244e-20)
(0.997682 0.00312025 5.68239e-21)
(1.00697 0.0322245 2.32702e-20)
(1.02228 0.0384708 -6.42068e-20)
(1.03069 0.0787499 -2.23761e-20)
(1.03006 0.0875346 -5.3601e-22)
(1.04983 0.146485 6.13685e-20)
(1.02477 0.194189 9.82901e-20)
(1.05053 0.298256 -4.62462e-22)
(0.970231 0.423722 1.94022e-19)
(1.04315 0.647226 -2.14351e-19)
(0.997549 0.00162906 -2.17975e-20)
(1.00728 0.0308424 1.22617e-20)
(1.02378 0.0348312 -1.77173e-20)
(1.03446 0.0801435 -4.78464e-20)
(1.03471 0.0846929 1.711e-21)
(1.06016 0.153912 -1.55288e-21)
(1.03644 0.197225 -5.1905e-21)
(1.07693 0.319937 -2.13645e-19)
(1.00614 0.44385 1.43452e-19)
(1.12878 0.687842 -5.30552e-19)
(0.997435 0.000133669 -3.69397e-21)
(1.00751 0.0293165 -3.52731e-20)
(1.02644 0.0309166 3.58633e-20)
(1.0384 0.0813977 2.55442e-20)
(1.04129 0.0814721 8.95813e-22)
(1.071 0.161233 -7.17457e-20)
(1.05126 0.199464 -5.55032e-20)
(1.1059 0.342069 3.82957e-19)
(1.04145 0.461124 1.43275e-20)
(1.24565 0.746212 8.33636e-19)
(0.997335 -0.00134083 1.48555e-20)
(1.0077 0.0274893 1.60327e-20)
(1.03028 0.0268188 4.22344e-20)
(1.04248 0.0823908 -2.81732e-20)
(1.04981 0.0779362 -7.4441e-20)
(1.08194 0.16859 1.03945e-21)
(1.07027 0.199029 -7.68379e-20)
(1.13465 0.362275 4.98126e-19)
(1.09702 0.460664 -8.82233e-21)
(1.31433 0.762928 -1.15694e-18)
(0.997253 -0.00273061 3.40501e-22)
(1.00796 0.0252231 2.50013e-20)
(1.03505 0.0229342 1.39105e-20)
(1.04708 0.082737 -5.65911e-20)
(1.05899 0.0760402 -7.31248e-20)
(1.09243 0.175721 -6.11758e-20)
(1.08996 0.206821 -1.41973e-19)
(1.15945 0.38553 -4.50421e-19)
(1.15502 0.488374 -2.43421e-19)
(1.45225 0.832546 -1.21477e-18)
(0.997356 -0.00507754 -1.06484e-21)
(1.0078 0.0217952 -5.46454e-21)
(1.04211 0.0152312 -1.60623e-20)
(1.05414 0.0822055 3.1298e-20)
(1.07037 0.0662232 5.55126e-20)
(1.11306 0.179616 -4.00377e-20)
(1.11175 0.190411 1.38564e-19)
(1.20487 0.394813 -4.1579e-19)
(1.21685 0.426204 -1.87049e-19)
(1.46583 0.823729 6.35833e-19)
(0.99803 -0.00855438 1.0808e-21)
(1.00694 0.016351 1.03575e-20)
(1.05379 0.00272561 -1.11397e-20)
(1.0597 0.0794326 5.74967e-20)
(1.0894 0.0488014 9.55891e-20)
(1.13219 0.176133 1.1852e-19)
(1.15062 0.164015 3.16956e-20)
(1.23197 0.379729 1.97845e-19)
(1.31504 0.374071 3.08288e-19)
(1.48553 0.72257 2.7533e-20)
(0.997799 -0.0119594 -1.39525e-21)
(1.00812 0.00849243 -3.88115e-21)
(1.06815 -0.00954798 3.82769e-21)
(1.06223 0.0743083 4.24704e-21)
(1.11642 0.0307059 2.92926e-34)
(1.14376 0.167648 -6.88523e-21)
(1.19638 0.138766 -4.97744e-34)
(1.24703 0.353033 1.83071e-20)
(1.38981 0.317248 -5.55218e-20)
(1.5261 0.63032 -5.62038e-20)
(0.994997 -0.0160211 1.45443e-20)
(1.01537 -0.0024023 -4.39481e-35)
(1.07974 -0.0205118 -4.349e-21)
(1.06889 0.0642842 -2.41196e-20)
(1.14405 0.0140718 -4.83528e-20)
(1.15572 0.155388 -4.02365e-20)
(1.23221 0.115208 -6.3734e-34)
(1.26917 0.321419 -7.59927e-20)
(1.42835 0.261366 -1.42232e-19)
(1.56301 0.538417 9.43487e-20)
(0.989069 -0.0215854 0)
(1.0309 -0.01596 2.03542e-35)
(1.08499 -0.0299526 0)
(1.08795 0.0475151 0)
(1.16565 -0.000137518 0)
(1.17567 0.137573 0)
(1.25328 0.0944899 -4.48059e-34)
(1.30104 0.282348 0)
(1.44301 0.213791 -1.96479e-20)
(1.59176 0.442644 5.58752e-20)
(0.98059 -0.0292766 2.56553e-21)
(1.05332 -0.0300197 2.11338e-21)
(1.08648 -0.0382668 -5.38549e-21)
(1.11957 0.0272431 0)
(1.17994 -0.00953563 0)
(1.20074 0.116337 6.03116e-21)
(1.26746 0.0776392 4.20992e-20)
(1.33263 0.238045 -1.31417e-20)
(1.45781 0.172381 -2.86597e-20)
(1.61481 0.349412 2.1572e-19)
(0.971477 -0.043814 -8.05483e-20)
(1.08036 -0.0505133 1.80733e-21)
(1.0875 -0.0523855 -5.96679e-21)
(1.15449 -0.00149406 -1.48997e-20)
(1.17626 -0.0181476 -2.94669e-20)
(1.21583 0.0896094 -1.3157e-20)
(1.26749 0.0612664 -3.51924e-20)
(1.35257 0.189015 -2.95732e-20)
(1.46954 0.133727 -5.45081e-20)
(1.62871 0.263138 6.70284e-20)
(0.964605 -0.0512517 -5.65936e-21)
(1.10248 -0.0590315 -1.7996e-20)
(1.07288 -0.0553989 -6.56349e-21)
(1.15496 -0.0187247 -5.02545e-21)
(1.10989 -0.0156531 -4.68979e-35)
(1.18761 0.0634857 6.33689e-21)
(1.20435 0.0462016 -8.29342e-34)
(1.33599 0.136536 -1.26889e-20)
(1.42903 0.0961399 1.78647e-20)
(1.61713 0.182673 2.55632e-20)
(0.958614 -0.0924594 1.96528e-19)
(1.05806 -0.0890114 -4.91805e-21)
(0.961359 -0.073542 -7.06742e-21)
(0.995964 -0.0351047 1.3568e-20)
(0.885745 -0.0122534 1.65396e-20)
(1.00425 0.0340563 1.44056e-20)
(0.978157 0.0299053 1.48918e-20)
(1.17283 0.0796264 -8.9127e-21)
(1.22688 0.0597233 -1.97017e-20)
(1.47276 0.103991 1.38927e-19)
(0.827153 -0.0463707 8.2063e-21)
(0.73036 -0.0337536 -9.34509e-35)
(0.534551 -0.0183241 -8.21145e-21)
(0.476806 -0.0027135 0)
(0.40161 0.000574431 0)
(0.480373 0.00937481 6.24207e-21)
(0.47658 0.00548953 -5.08275e-36)
(0.621074 0.0174393 -1.22492e-20)
(0.677913 0.0098441 -2.62011e-20)
(0.864165 0.0184118 5.514e-20)
(1.67382 0.84657 -1.91611e-19)
(1.77465 0.828292 -2.82663e-19)
(1.89205 0.792795 0)
(2.00036 0.749768 1.58103e-19)
(2.10117 0.689355 6.69003e-19)
(2.19112 0.624783 -1.15549e-19)
(2.27115 0.548385 1.70885e-18)
(2.34552 0.472106 -8.42928e-20)
(2.4049 0.389923 -3.70342e-19)
(2.46246 0.312763 3.26031e-19)
(1.70028 0.694745 9.86739e-20)
(1.77359 0.680483 1.12378e-19)
(1.87268 0.645174 -1.43763e-20)
(1.95507 0.608097 2.19265e-19)
(2.0512 0.551334 -1.78794e-19)
(2.11592 0.502264 -4.14123e-19)
(2.20095 0.435992 -1.25998e-19)
(2.24875 0.38386 5.6466e-19)
(2.32624 0.314227 -2.1719e-20)
(2.35438 0.264069 -4.79481e-19)