# Selection   : all
# Cells       : 440
# Volume      : 7.374263e+01
# Time        	maxMag(U)
7.915         	2.791519e+00
7.96          	2.790069e+00
8.01          	2.788221e+00
