/*--------------------------------*- C++ -*----------------------------------*\
  =========                 |
  \\      /  F ield         | OpenFOAM: The Open Source CFD Toolbox
   \\    /   O peration     | Website:  https://openfoam.org
    \\  /    A nd           | Version:  13
     \\/     M anipulation  |
\*---------------------------------------------------------------------------*/
FoamFile
{
    format      ascii;
    class       surfaceScalarField;
    location    "76";
    object      phi;
}
// * * * * * * * * * * * * * * * * * * * * * * * * * * * * * * * * * * * * * //

dimensions      [0 3 -1 0 0 0 0];

internalField   nonuniform List<scalar> 
823
(
-0.00486424
0.0163083
-0.0114441
0.0057175
0.00968534
-0.0202671
0.0560691
-0.0343524
-0.0159993
0.144314
-0.0928541
0.00460927
-0.12274
-0.00667161
0.273726
0.00593298
0.0103753
0.0524658
-0.0368475
0.14204
-0.123927
0.253057
-0.20387
-0.274204
0.404521
0.0229135
-0.0125381
0.107906
-0.12184
0.218738
-0.234759
0.325942
-0.311074
-0.355509
0.407247
0.0434861
-0.0560242
0.138715
-0.217068
0.222247
-0.318292
0.273788
-0.362615
-0.377132
0.29541
0.0562007
-0.112225
0.12638
-0.287248
0.166768
-0.35868
0.182988
-0.378834
0.191768
-0.385912
0.0144931
-0.0439831
0.02949
0.0294299
-0.0641519
0.049215
0.0494925
-0.0636321
0.0435695
0.0803402
-0.0528992
0.0220515
-0.0267048
0.121066
-0.0140215
0.00472582
-0.0487089
0.00225582
-0.0616819
0.000178139
-0.0615544
0.00747228
-0.0601933
-0.0470789
0.0278464
-0.0097861
-0.0389228
-0.0286363
-0.0428317
-0.0569086
-0.0332822
-0.0901783
-0.0269236
-0.0143616
-0.122896
-0.0203974
-0.0185254
-0.0486616
-0.0145674
-0.0788329
-0.00311096
-0.108462
0.0027058
0.0137765
-0.1366
-0.0299695
-0.064804
-0.0839142
-0.0765991
-0.0694942
0.380107
1.64209
-1.90113
0.453856
0.328991
-0.402739
0.481967
-1.86312
1.83501
0.512708
-0.93726
0.906518
-0.146541
0.130087
0.367653
1.30229
0.570958
0.125686
0.620217
-1.91238
0.57404
-0.891082
-0.11474
0.268223
0.911168
0.589487
-0.195578
0.576293
-1.89918
0.576779
-0.891568
-0.0810598
0.23289
0.541678
0.621923
-0.584612
0.534124
-1.81138
0.508489
-0.865933
-0.0743798
0.261447
0.210737
0.607754
-0.93092
0.526527
-1.73016
0.457331
-0.796736
-0.0704283
1.1717
0.133565
-1.09453
1.36633
-1.12555
1.02808
-1.39191
0.756427
-0.52508
-0.0221176
1.48362
0.0224478
-1.3725
1.3763
-1.01823
0.830748
-0.846358
0.575083
-0.269415
-0.080873
1.44384
-0.0844134
-1.33698
1.20223
-0.776617
0.811283
-0.45541
0.669049
-0.127181
-0.116302
1.36025
-0.159651
-1.28501
0.963849
-0.380221
0.652984
-0.144545
0.606776
-0.080973
-0.0746151
0.730972
-0.890623
0.350752
0.206207
0.125234
1.08656
0.144234
-1.03902
1.14828
0.233686
1.25093
0.3046
1.25018
0.405268
0.429378
1.00921
0.0790157
-0.943988
1.07488
0.168007
1.17508
0.204401
1.27011
0.310244
0.326983
0.944648
0.0402672
-0.905899
1.00864
0.104014
1.09117
0.121875
1.21082
0.190595
0.200819
0.895906
0.01183
-0.867469
0.962829
0.037092
1.03919
0.0455139
1.16013
0.0696502
0.0759454
0.662421
-0.650591
0.699514
0.745027
0.814678
0.12432
0.294657
-0.244643
-0.174333
0.0817687
0.300269
-0.257718
0.0441768
0.310404
-0.272812
0.0138077
0.300188
-0.269819
0.191274
-0.177467
0.0922297
0.330739
-0.128312
0.0576338
0.334865
0.0276836
0.340355
0.00471288
0.323159
0.195987
0.0542909
0.361675
-0.0852275
0.0256347
0.363521
0.00205211
0.363937
-0.00822117
0.333432
0.187766
-0.0166832
0.378688
-0.000328873
-0.0322215
0.379059
-0.0383163
0.370032
-0.0279939
0.32311
0.159772
-0.0949864
0.0877624
-0.0947614
-0.0834096
-0.0475472
0.203862
0.0982906
-0.2576
-0.044552
0.149294
0.102063
-0.0474952
0.093193
0.106267
-0.0501666
0.0381734
0.105704
-0.0506842
0.0743294
-0.036156
0.200406
0.143387
-0.245502
0.152541
0.149928
0.0993866
0.159422
0.0425064
0.162584
0.116836
0.143766
0.188709
-0.189087
0.101485
0.192208
0.0605194
0.200388
0.0221901
0.200913
0.139026
0.153619
0.222213
-0.187123
0.113776
0.232051
0.0695015
0.244662
0.0266983
0.243717
0.165724
0.0916625
-0.114093
0.0659955
0.0378452
0.0117424
0.405601
0.0499989
-0.0596207
0.428433
0.00272084
-0.0255525
0.411963
0.195289
-0.178819
0.397273
0.164988
-0.150297
0.426201
-0.286528
0.404529
0.04145
0.422372
-0.0151221
0.399834
0.217826
0.386772
0.178049
0.567471
0.399579
0.0378503
0.416007
-0.0315503
0.377483
0.25635
0.371835
0.183698
0.750218
0.398664
0.0351663
0.399593
-0.0324792
0.363724
0.292219
0.35035
0.197071
0.913446
0.392349
0.0387968
0.384293
-0.0244229
0.333788
0.342725
0.322938
0.20792
1.12229
0.632268
0.0105489
0.635292
-0.0274462
0.678691
0.299325
0.787122
0.0994901
0.938031
0.971382
0.647529
-0.03296
0.616789
0.00329428
0.700767
0.215347
0.762708
0.0375487
0.734325
0.966415
0.640399
-0.0693389
0.621925
0.0217682
0.714792
0.12248
0.771925
-0.0195847
0.511678
0.994572
0.607964
-0.0732825
0.638987
-0.00925456
0.745808
0.015659
0.750932
-0.024709
0.256811
1.0058
0.530738
0.521483
0.537142
0.512433
0.769245
0.998107
-0.201058
0.993988
-0.124192
0.997586
-0.0888255
1.007
-0.00973958
0.055734
0.929919
-0.164562
0.918975
-0.113249
0.905061
-0.0749112
0.923713
-0.0283918
0.0354584
0.936992
-0.106982
0.908196
-0.084453
0.887764
-0.0544791
0.887709
-0.0283366
0.0172679
0.939811
-0.0409947
0.892009
-0.0366503
0.86334
-0.0258102
0.852042
-0.0170393
0.00184133
0.72825
0.6916
0.665789
0.64875
0.0492649
0.180467
-0.229732
0.070212
0.370184
-0.391131
0.0684045
0.419574
-0.417767
0.0593097
0.416769
-0.407674
0.381665
0.047183
-0.369538
0.0777252
0.102742
0.143725
0.304184
0.171788
0.391512
0.175798
0.412759
0.393456
0.164007
0.0709508
0.0317908
0.182217
0.192918
0.258986
0.314743
0.296057
0.375688
0.402473
0.28704
0.0383715
-0.00658067
0.152537
0.0787528
0.272561
0.194718
0.373668
0.274581
0.350816
0.425325
0.0120129
-0.0185935
0.0815684
0.00919723
0.193199
0.083088
0.314617
0.153163
0.253104
0.412329
0.00305839
-0.0216519
0.0326444
-0.0203888
0.102833
0.0128998
0.19778
0.0582163
0.152616
0.298267
0.00183304
-0.023485
0.0113206
-0.0298763
0.0369368
-0.0127164
0.0765814
0.0185718
0.0793628
0.149835
-0.00291638
-0.0205686
-0.00462887
-0.0281639
-0.00407075
-0.0132745
-0.000467096
0.0149681
0.0563986
0.0224971
-0.00085617
-0.0197124
0.00323272
-0.0322527
0.0107461
-0.0207879
0.017454
0.0082602
0.0500328
0.0238199
0.00977755
0.0267398
0.0495214
0.0798331
0.115844
0.187817
1.17429
-1.06384
0.0572514
0.530378
-0.399812
0.244661
-0.338956
0.151547
0.35489
-0.32289
0.212661
-0.0209038
0.0413492
-0.0155026
1.33963
-0.14645
0.661325
0.271505
-0.756911
0.429246
-0.48063
-0.0103956
-0.298289
1.66041
-0.294079
0.657115
0.282642
-1.33363
0.44192
-0.639907
-0.0383013
-0.229629
1.91386
-0.114008
0.541495
0.273117
-1.72076
0.436427
-0.803217
-0.0928594
0.128571
0.267328
0.381575
0.484876
-0.15333
0.609467
-0.456137
-0.181912
0.0285813
-0.0294091
-0.152503
0.132708
-0.162117
-0.0584017
0.679661
-1.13403
0.30843
0.307474
0.358017
0.0907564
-0.010148
-0.0806084
0.142713
-0.0519566
0.218187
-0.0754744
0.344662
-0.126475
-0.111475
0.210713
-0.173678
0.322763
0.534328
0.833178
0.14739
-0.151682
0.182595
-0.178303
0.113103
-0.15836
0.192647
0.0736735
-0.167081
0.20651
0.0304325
-0.168238
0.211479
-0.119903
0.150336
0.19087
-0.110842
-0.23171
0.144797
-0.112288
0.0925441
-0.114827
0.0385111
-0.114205
-0.0813919
0.191982
-0.0598087
-0.243015
0.139912
-0.0602185
0.0870639
-0.0619791
0.0356015
-0.062743
-0.0457904
0.205325
-0.00732823
-0.257806
0.152144
-0.00703745
0.0971798
-0.00701484
0.0411401
-0.00670333
-0.0046503
0.209908
-0.261788
0.155375
0.0981938
0.0408063
0.0513068
-0.348071
-0.0727745
0.0224621
-0.37883
-0.00296548
-0.392339
-0.0151449
-0.378952
-0.244877
0.133794
-0.313973
-0.167892
0.0897564
-0.334792
0.045234
-0.347817
0.0103863
-0.344104
-0.23449
0.156483
-0.270868
-0.199588
0.109971
-0.28828
0.0646031
-0.302449
0.0234726
-0.302974
-0.211018
0.174122
-0.232456
-0.212534
0.128582
-0.242741
0.0798308
-0.253697
0.0323021
-0.255445
-0.178716
0.169626
-0.219488
0.119533
0.0723457
0.0283801
0.39212
0.0946011
-0.090742
0.394386
0.0855838
-0.0878498
0.360791
0.150446
-0.116851
0.31068
0.029793
0.0203178
-0.249207
0.381584
0.399315
0.0912655
0.409224
0.0756745
0.39788
0.161791
0.355688
0.0719846
-0.125228
0.404091
0.0831544
0.418442
0.0613229
0.411653
0.16858
0.378504
0.105134
0.0102613
0.407454
0.0716798
0.424069
0.0447085
0.420836
0.171813
0.395888
0.130081
0.148344
0.408039
0.427195
0.420188
0.399972
0.417277
0.0927735
0.336975
0.0803028
0.253738
0.0832369
0.269818
-0.0160807
-0.206659
0.476477
0.512083
0.504536
0.470922
0.475159
0.650084
0.382421
0.0940563
0.29875
0.0836709
0.200465
0.0982852
0.116742
0.0837227
0.0361334
0.524653
0.39579
0.294487
0.210319
)
;

boundaryField
{
    left
    {
        type            calculated;
        value           nonuniform List<scalar> 
17
(
-0.60402
-0.60402
-0.60402
-0.60402
-0.60402
-0.39598
-0.39598
-0.39598
-0.39598
-0.39598
-0.39598
-0.39598
-0.39598
-0.39598
-0.39598
-0.510051
-0.510051
)
;
    }
    right
    {
        type            calculated;
        value           nonuniform List<scalar> 
17
(
0.19111
0.340965
0.334444
0.418737
0.469826
0.490985
0.522104
0.529163
0.542239
0.543099
0.501809
0.453379
0.708116
0.633839
0.704478
0.565089
0.050619
)
;
    }
    down
    {
        type            calculated;
        value           uniform 0;
    }
    up
    {
        type            calculated;
        value           uniform 0;
    }
    cylinder
    {
        type            calculated;
        value           uniform 0;
    }
    defaultFaces
    {
        type            empty;
    }
}


// ************************************************************************* //
