/*--------------------------------*- C++ -*----------------------------------*\
  =========                 |
  \\      /  F ield         | OpenFOAM: The Open Source CFD Toolbox
   \\    /   O peration     | Website:  https://openfoam.org
    \\  /    A nd           | Version:  13
     \\/     M anipulation  |
\*---------------------------------------------------------------------------*/
FoamFile
{
    format      ascii;
    class       volVectorField;
    location    "76";
    object      U;
}
// * * * * * * * * * * * * * * * * * * * * * * * * * * * * * * * * * * * * * //

dimensions      [0 1 -1 0 0 0 0];

internalField   nonuniform List<vector> 
440
(
(-0.0969412 0.0708587 -6.16307e-20)
(-0.126392 0.0902676 -3.01452e-20)
(-0.00039887 0.0481394 1.11731e-19)
(0.368602 0.0682459 -7.81881e-21)
(0.352794 0.174958 2.70655e-20)
(-0.0865474 0.0494575 3.27641e-20)
(0.0457394 0.0217485 -1.04846e-19)
(0.513891 -0.0288751 -1.00391e-19)
(1.04713 -0.0549188 5.50106e-20)
(1.54493 -0.0765826 1.04881e-20)
(-0.021286 0.0081054 4.89382e-20)
(0.475482 -0.036301 6.70234e-19)
(1.22566 -0.0278396 -4.00553e-19)
(1.81368 -0.00621805 -1.3114e-18)
(2.30186 0.0169818 5.56391e-19)
(0.185531 -0.0420429 -1.65848e-19)
(1.14306 0.00302726 -5.02608e-19)
(1.90317 0.0683071 1.61e-18)
(2.32421 0.110021 1.7702e-18)
(2.41498 0.119008 -4.97821e-19)
(0.533033 -0.00624153 -2.77732e-19)
(1.67241 0.174069 -5.84495e-19)
(2.21187 0.252491 1.77916e-18)
(2.35422 0.265372 1.93413e-18)
(2.43696 0.245399 6.62965e-19)
(0.0415821 -0.2452 -2.61917e-20)
(0.0972223 -0.384249 6.20047e-20)
(0.128162 -0.36341 -2.03713e-19)
(0.178936 -0.252727 6.20514e-20)
(0.219094 -0.0492493 5.70939e-19)
(0.0824176 -0.289486 -1.09587e-19)
(0.110603 -0.395736 -4.26193e-19)
(0.0969417 -0.424517 -9.29284e-20)
(0.108354 -0.405769 -5.68919e-20)
(0.0838587 -0.282246 3.37892e-20)
(0.0998602 -0.256241 5.43604e-19)
(0.0733362 -0.30961 6.00521e-20)
(0.00396116 -0.29639 3.13281e-19)
(-0.0759276 -0.314829 -3.36465e-19)
(-0.163921 -0.28522 1.21871e-20)
(0.0918464 -0.186634 4.7631e-20)
(0.0268963 -0.243004 -1.19529e-20)
(-0.0692021 -0.215595 1.56145e-19)
(-0.156046 -0.193435 -7.25552e-19)
(-0.246341 -0.133466 2.69404e-19)
(-0.0250029 -0.0233785 -3.63104e-20)
(-0.154919 -0.0528513 -5.48322e-20)
(-0.244257 -0.0505921 -2.36472e-19)
(-0.232766 -0.035157 3.92023e-19)
(-0.233742 0.0252171 9.33171e-19)
(0.938929 1.30659 1.45276e-18)
(0.664257 0.255374 -2.16921e-18)
(1.4965 -1.31425 -1.03635e-19)
(1.06233 -0.650987 -9.55971e-19)
(1.33742 -0.0993939 -2.97706e-20)
(0.500267 1.05198 -1.72249e-18)
(0.88462 0.212243 3.40966e-19)
(2.00999 -1.25679 1.74527e-19)
(1.38594 -0.650348 1.49112e-18)
(1.37014 -0.112917 1.41156e-19)
(-0.386346 0.709635 -1.22874e-18)
(1.40339 -0.0416787 -9.85069e-19)
(1.88358 -1.34759 -9.08047e-20)
(1.47152 -0.630977 1.06299e-18)
(1.37216 -0.0769635 -3.25809e-21)
(-0.878417 0.518103 5.83689e-19)
(1.89785 -0.280344 3.80273e-20)
(1.97846 -1.2285 6.0211e-19)
(1.3111 -0.593725 -3.99315e-19)
(1.26781 -0.0643739 3.26755e-20)
(-0.543219 0.181003 -1.45912e-19)
(2.16239 -0.537132 5.6533e-20)
(2.15625 -1.14445 0)
(1.24641 -0.521623 1.78526e-19)
(1.14532 -0.0460322 -1.67967e-20)
(1.08412 0.0724962 -2.39137e-19)
(2.57567 -0.611249 -1.32804e-19)
(2.10675 -0.964876 -2.4893e-20)
(1.27502 -0.467152 9.7754e-20)
(1.17259 -0.0405766 2.16677e-20)
(1.91223 0.0785824 -2.01764e-20)
(2.80674 -0.732322 9.9799e-19)
(1.89852 -0.737298 -1.80149e-20)
(0.817648 -0.186572 -9.28682e-22)
(1.0496 0.0108603 0)
(2.20255 -0.0502923 -1.79049e-19)
(2.42244 -0.526152 -7.26684e-21)
(1.67015 -0.341943 1.15955e-19)
(1.01734 -0.138826 9.50934e-21)
(1.16636 -0.103403 1.17347e-20)
(2.25089 -0.0598293 1.08551e-19)
(2.12769 -0.449216 2.24216e-19)
(1.14072 -0.22491 -2.00457e-20)
(1.04064 -0.0259856 -2.03088e-34)
(0.935698 -0.051686 1.5938e-20)
(1.53406 -0.125026 1.03825e-19)
(0.802745 -0.00318141 8.32041e-20)
(0.388432 0.0343895 8.83906e-21)
(0.317249 -0.0739407 -6.55134e-21)
(0.083864 -0.0353035 -9.75294e-21)
(2.36495 0.247638 -8.38338e-19)
(2.5199 0.0699408 -1.00368e-18)
(2.41651 0.0579879 7.62019e-19)
(2.53862 -0.0638602 3.35973e-20)
(2.05392 -0.0196445 -3.96986e-20)
(2.15054 0.11684 5.75752e-20)
(2.32118 0.100807 -3.70245e-20)
(2.29673 -0.0528019 -1.14091e-19)
(2.35548 -0.0301678 -2.14829e-19)
(2.34745 -0.252284 -2.22798e-21)
(2.07551 0.0409744 6.65285e-20)
(2.13985 0.0599087 9.27559e-20)
(2.18265 -0.0704143 -1.08536e-19)
(2.19309 -0.0287671 3.5842e-20)
(2.24246 -0.167928 1.4003e-20)
(1.97597 0.0172449 1.03505e-19)
(2.04287 0.0217819 1.29496e-19)
(2.0618 -0.0475238 -1.60656e-20)
(2.11381 -0.0277207 -4.478e-20)
(2.12659 -0.106106 2.38954e-20)
(1.48411 -0.0153194 1.60906e-19)
(1.48397 -0.0192557 -1.05616e-20)
(1.49789 -0.0212166 1.76748e-20)
(1.4944 -0.0331447 -2.49374e-20)
(1.48944 -0.0264447 -2.72929e-21)
(1.52361 0.845347 1.06281e-18)
(1.48769 0.940434 -3.34552e-19)
(1.48952 1.06413 -1.25757e-18)
(1.41533 1.09866 6.82411e-19)
(0.864281 0.775279 -1.63908e-19)
(1.80492 0.792315 -5.42403e-19)
(1.77519 0.868016 -2.87347e-18)
(1.77961 0.972207 -1.10725e-18)
(1.68492 0.976256 -3.82457e-19)
(1.01721 0.665454 -6.09553e-19)
(2.08928 0.683516 7.29443e-19)
(2.07109 0.746168 1.8408e-19)
(2.04612 0.8233 -2.16824e-18)
(1.90122 0.803354 -5.87323e-19)
(1.10431 0.514774 4.24437e-19)
(2.25629 0.555487 2.20171e-18)
(2.24049 0.602944 1.5948e-18)
(2.22661 0.649246 -1.8165e-18)
(1.99834 0.601721 -1.35409e-18)
(1.07203 0.334268 -2.40696e-19)
(2.40119 0.40781 1.03605e-18)
(2.39748 0.428006 -7.42378e-19)
(2.29033 0.44302 5.31208e-19)
(1.94136 0.382774 4.12303e-19)
(0.886558 0.143099 -3.43478e-19)
(0.579888 0.421402 -7.06892e-19)
(0.488815 0.455737 -5.68424e-19)
(0.369625 0.490135 7.24e-20)
(0.22979 0.489636 -2.19752e-20)
(0.0556903 0.343644 6.70269e-20)
(0.684054 0.587461 5.16253e-20)
(0.617595 0.64032 -3.25021e-19)
(0.525389 0.702776 1.69993e-19)
(0.39658 0.759958 -7.86839e-20)
(0.169722 0.581544 1.12836e-19)
(0.768071 0.798891 1.71579e-19)
(0.695486 0.879947 4.14993e-19)
(0.637214 0.974556 7.1708e-20)
(0.550689 1.01541 -2.76941e-19)
(0.300581 0.749298 2.2566e-19)
(1.03364 0.876335 2.08473e-19)
(0.98394 0.958912 -6.352e-19)
(0.931972 1.05684 -1.79316e-18)
(0.847221 1.11912 7.23451e-19)
(0.497626 0.825913 -1.65732e-19)
(1.12137 0.92613 -1.11667e-19)
(1.14653 1.04243 -1.85775e-19)
(1.16352 1.15219 -3.3447e-19)
(1.10552 1.17595 -3.78448e-19)
(0.676544 0.837722 -6.09475e-21)
(1.00643 0.0413317 -7.94324e-20)
(1.00618 0.0118076 -2.81585e-20)
(1.04862 0.132797 -1.51345e-21)
(0.942119 0.110639 -1.60458e-19)
(0.902955 0.250351 2.87176e-19)
(0.993045 0.0390342 4.84548e-20)
(1.02801 0.00412962 1.08021e-19)
(1.02803 0.148015 1.05086e-19)
(0.972429 0.131464 1.75691e-20)
(0.939556 0.336843 1.55891e-20)
(1.00124 0.0371604 6.34752e-20)
(1.01509 -0.0045394 -4.32074e-21)
(1.06549 0.167816 -3.00233e-21)
(0.925216 0.133596 1.34478e-19)
(1.13424 0.470756 -4.27428e-19)
(0.999297 0.0354545 -2.96717e-22)
(1.03628 -0.0154756 -1.61111e-19)
(1.04486 0.195753 -5.58436e-20)
(1.01187 0.126124 -3.31515e-19)
(1.15239 0.530026 8.27084e-20)
(1.00611 0.0254903 -9.62807e-21)
(1.03164 -0.00888132 4.53061e-20)
(1.07457 0.19691 2.60618e-20)
(0.998204 0.155441 4.52156e-19)
(1.37306 0.662689 -4.252e-19)
(0.98262 0.0230033 -1.64398e-21)
(1.09155 -0.027257 9.24562e-20)
(1.02003 0.230952 -5.32383e-20)
(1.27333 0.0663627 9.22989e-19)
(1.31647 0.701271 -3.47755e-19)
(0.940586 -0.00956785 -1.39516e-21)
(1.17242 -0.00915162 -7.1701e-20)
(0.904499 0.151287 4.72953e-21)
(1.38818 0.0504244 -3.06822e-19)
(1.21157 0.525884 -3.78515e-20)
(0.989712 -0.029855 3.70745e-21)
(1.09515 0.0144512 1.2618e-35)
(1.00701 0.120148 1.8519e-21)
(1.31097 0.00102991 1.02238e-19)
(1.33394 0.375803 1.55341e-19)
(1.06949 -0.061891 3.86452e-21)
(0.901958 0.00961056 -2.88359e-20)
(1.26645 0.0305289 1.93731e-20)
(1.1397 -0.0277145 2.33062e-20)
(1.43954 0.248778 -2.34763e-19)
(0.958455 -0.0216519 -3.95598e-20)
(0.754193 -0.0198448 -2.52979e-21)
(1.02399 -0.0107138 2.18618e-20)
(0.695184 -0.00526929 -1.94222e-20)
(1.08088 0.0833011 -5.25415e-20)
(1.75058 0.643418 2.83372e-19)
(1.85613 0.644446 7.16215e-19)
(2.0997 0.534018 -1.01246e-18)
(2.18095 0.479324 2.20225e-20)
(2.37633 0.310091 4.26696e-19)
(1.67354 0.418541 6.11566e-20)
(1.72148 0.405208 9.122e-19)
(1.93722 0.355171 1.01243e-19)
(1.95833 0.277918 -8.38813e-19)
(2.17145 0.227519 -2.672e-19)
(1.66925 0.28325 -2.17282e-19)
(1.75852 0.250394 -1.41635e-19)
(1.8772 0.222267 1.65992e-19)
(1.93357 0.155165 -2.60999e-19)
(2.03683 0.142071 2.38918e-19)
(1.67126 0.185887 3.59574e-19)
(1.74881 0.156045 -1.84231e-21)
(1.8261 0.132274 2.02723e-19)
(1.8728 0.0888146 1.6445e-19)
(1.94607 0.0737765 -1.65319e-19)
(1.28337 0.0512936 -4.61682e-20)
(1.36534 0.0318175 2.29195e-19)
(1.40008 0.0186453 9.39161e-20)
(1.44593 0.00151431 -1.97722e-19)
(1.45573 -0.00523139 3.57042e-22)
(1.36578 -0.0274164 8.43492e-20)
(2.44383 -0.00795089 -6.12275e-19)
(2.66072 -0.00137933 1.6428e-18)
(2.62488 0.0468568 7.70097e-19)
(2.37287 0.0518878 -5.23408e-19)
(0.935638 0.114552 2.02237e-19)
(2.24124 0.150649 -6.89453e-19)
(2.64374 0.164611 -9.88895e-19)
(2.6414 0.17011 1.3665e-18)
(2.44251 0.165585 -1.02054e-18)
(0.364191 0.126126 -3.76205e-21)
(1.68118 0.253759 8.64234e-19)
(2.40417 0.310902 1.33934e-19)
(2.67465 0.329047 1.536e-18)
(2.61739 0.289536 8.61127e-19)
(0.0247472 0.0223864 2.53336e-19)
(0.835324 0.218821 3.0555e-19)
(1.72154 0.352715 -1.05126e-18)
(2.25313 0.42117 1.11143e-19)
(2.65733 0.46176 1.05745e-18)
(-0.0826299 -0.067986 1.99176e-19)
(0.199519 0.0669457 -2.34314e-19)
(0.870932 0.263361 -1.8936e-19)
(1.43368 0.407296 3.07203e-19)
(2.06204 0.575115 1.96203e-19)
(-0.0852237 -0.103024 6.4512e-20)
(-0.0416126 -0.0701096 1.05377e-19)
(0.283228 0.050433 8.00097e-20)
(0.593975 0.228527 -4.17299e-19)
(1.34732 0.496677 8.65355e-21)
(-0.073562 -0.129583 -5.09463e-20)
(-0.0935824 -0.159932 -2.81737e-20)
(0.0270764 -0.0879118 6.97642e-20)
(0.170259 0.100058 -6.59262e-20)
(0.615157 0.409377 -5.22341e-21)
(-0.0550049 -0.125649 -6.05724e-20)
(-0.0822472 -0.158953 6.05778e-21)
(-0.0386101 -0.0793935 -7.66732e-21)
(0.00832226 0.080693 -2.26477e-19)
(0.157728 0.31911 3.59754e-19)
(-0.0298634 -0.105196 -3.02085e-20)
(-0.036679 -0.155444 -1.15085e-19)
(0.00264558 -0.0697363 2.19754e-19)
(0.0631181 0.112915 3.73132e-19)
(0.140132 0.363753 -1.42132e-20)
(-0.00173216 -0.147816 1.48742e-20)
(0.0328003 -0.263148 -4.01639e-20)
(0.0813381 -0.212832 1.03033e-20)
(0.153582 -0.0471163 1.24535e-20)
(0.249236 0.207264 9.53649e-20)
(1.50479 0.723905 -5.97262e-21)
(0.117717 0.270999 -1.17565e-19)
(0.328803 -0.116075 -1.74034e-19)
(0.899214 -0.149188 -3.67578e-19)
(0.845262 -0.013782 4.72401e-23)
(1.38414 0.835373 1.49254e-19)
(-0.889213 0.433186 1.44721e-18)
(0.253557 -0.272517 1.02144e-18)
(1.00702 -0.239289 -2.38185e-20)
(1.05837 0.0046078 2.97568e-20)
(0.808695 1.02241 -5.16341e-19)
(-1.92136 0.430983 3.89066e-18)
(0.428523 -0.813396 2.02309e-19)
(0.87448 -0.373584 2.52192e-19)
(1.18773 0.00447165 3.22977e-20)
(0.299204 1.19365 8.23072e-19)
(-1.16199 0.368798 -5.01612e-18)
(0.538671 -1.0866 -9.16886e-19)
(0.758316 -0.486071 1.91091e-20)
(1.24127 -0.0302189 -9.91858e-21)
(0.422936 1.36849 1.83753e-19)
(0.255475 0.347181 3.90808e-20)
(1.01708 -1.2106 1.80527e-19)
(0.913027 -0.610726 -9.58602e-20)
(1.3198 -0.0818562 1.21345e-21)
(-0.260058 0.0668078 -3.52615e-20)
(-0.419459 -0.186639 0)
(-0.222707 -0.102523 -1.02571e-19)
(0.106643 -0.0714523 6.06589e-20)
(0.375108 -0.0238669 -2.43304e-20)
(1.74542 0.631295 0)
(0.781304 0.231334 0)
(0.519839 -0.067256 3.30979e-19)
(0.671875 -0.121491 2.0131e-19)
(0.668983 -0.0451165 1.88626e-20)
(0.74877 0.00702218 -1.30349e-19)
(0.82188 0.00300252 3.5717e-19)
(0.905666 0.0425345 -3.03665e-20)
(0.828996 0.0278125 3.97189e-19)
(1.13412 0.20959 2.20028e-19)
(1.70018 0.0453588 1.26524e-19)
(1.91296 0.0961714 5.50939e-19)
(1.95786 0.2011 -9.8161e-19)
(2.33302 0.281869 4.35507e-19)
(2.28855 0.501221 7.11268e-19)
(0.969853 -0.526685 2.32297e-20)
(0.962608 -0.625531 -2.14406e-19)
(0.961319 -0.732766 -1.80584e-19)
(0.896009 -0.810565 1.08722e-19)
(0.553486 -0.646531 1.50387e-19)
(0.865826 -0.433861 1.08956e-19)
(0.810163 -0.504631 1.46168e-19)
(0.735225 -0.581639 -1.10797e-19)
(0.621063 -0.650443 1.57988e-19)
(0.346698 -0.525463 4.25637e-20)
(0.685937 -0.295641 -1.1385e-19)
(0.597567 -0.341701 -6.30818e-20)
(0.497358 -0.399161 4.45169e-21)
(0.378793 -0.449639 -4.95103e-20)
(0.177047 -0.361568 -1.45394e-19)
(0.574676 -0.0643587 -4.38898e-19)
(0.488691 -0.0851674 -3.50785e-19)
(0.377589 -0.115211 2.85987e-19)
(0.248581 -0.151161 1.4212e-19)
(0.0770206 -0.140845 1.28622e-20)
(0.542659 0.146032 -1.35631e-19)
(0.456132 0.143459 -1.55385e-19)
(0.337085 0.136667 -3.79612e-20)
(0.196282 0.133765 5.52651e-20)
(0.0338191 0.0971627 1.44327e-20)
(2.2027 -0.0225462 9.9639e-19)
(2.42849 -0.0960059 3.66379e-19)
(2.52562 -0.188143 -9.22341e-19)
(2.41528 -0.215476 -1.9623e-18)
(1.50175 -0.214951 1.51947e-19)
(2.12084 -0.129744 1.61684e-18)
(2.24677 -0.245924 2.11258e-18)
(2.2844 -0.374989 1.76529e-19)
(2.21872 -0.437709 3.08505e-19)
(1.45439 -0.409931 -2.07047e-19)
(1.85309 -0.302156 -4.08752e-18)
(1.908 -0.425205 4.59544e-19)
(1.95441 -0.559227 1.30372e-18)
(1.91459 -0.643966 -5.16381e-19)
(1.26844 -0.56729 8.21962e-19)
(1.60037 -0.434131 1.00242e-18)
(1.62659 -0.541103 -2.64115e-18)
(1.62963 -0.669968 -3.04066e-18)
(1.57361 -0.768156 9.52774e-19)
(1.03055 -0.650777 6.28341e-19)
(1.30503 -0.503157 2.26934e-19)
(1.25988 -0.604152 2.93113e-19)
(1.25156 -0.734818 -4.69837e-19)
(1.20255 -0.831817 -5.70539e-19)
(0.773733 -0.676613 -5.46454e-21)
(1.06264 0.0502186 6.90947e-21)
(0.949129 0.049048 1.67938e-21)
(1.125 0.0762262 1.04444e-20)
(0.842297 -0.00979428 -2.69067e-19)
(1.15921 -0.231923 -2.22521e-20)
(1.07206 0.0517682 -2.29094e-21)
(0.942538 0.0438394 2.22086e-20)
(1.1247 0.094707 6.38863e-21)
(0.913266 0.0318932 2.37663e-19)
(1.04306 -0.118159 6.63676e-21)
(1.06905 0.0472657 -5.43081e-20)
(0.945089 0.0363146 -9.1565e-23)
(1.10751 0.0994725 -5.23398e-21)
(0.910441 0.0484517 1.31299e-19)
(0.996556 -0.0565934 -2.77865e-19)
(1.04959 0.0451353 6.40846e-20)
(0.967806 0.0284108 2.63358e-21)
(1.07406 0.107262 1.981e-20)
(0.940963 0.0739346 -6.79256e-20)
(0.889709 0.0509003 5.75008e-20)
(1.02227 0.0418014 1.58014e-20)
(0.997143 0.0229049 -2.27329e-20)
(1.0439 0.116518 3.16763e-20)
(0.958252 0.0955239 3.19004e-20)
(0.858019 0.151694 -1.45243e-20)
(0.888045 0.0335935 0)
(0.721991 0.0275525 8.35914e-21)
(0.615354 0.0208771 7.34023e-21)
(0.372335 -0.00970833 5.669e-20)
(0.732506 -0.0582077 -1.8268e-19)
(1.03101 0.071972 -6.23026e-20)
(0.95809 0.0677964 9.66087e-22)
(1.03597 0.0774362 -6.99677e-20)
(0.833306 -0.0116674 -1.59288e-19)
(1.09051 -0.213972 -1.93413e-19)
(1.02101 -0.0690015 -4.22802e-20)
(1.1136 -0.038051 6.11546e-19)
(1.22197 0.0362668 3.62306e-19)
(1.08683 0.0604398 2.86173e-20)
(0.848062 0.0329991 0)
(1.38031 -0.331846 4.13e-19)
(1.50532 -0.29174 1.74655e-18)
(1.70072 -0.16765 -1.88982e-18)
(1.79849 -0.01968 -6.03951e-19)
(1.74035 0.0389468 4.5642e-19)
)
;

boundaryField
{
    left
    {
        type            fixedValue;
        value           uniform (1 0 0);
    }
    right
    {
        type            zeroGradient;
    }
    down
    {
        type            noSlip;
    }
    up
    {
        type            noSlip;
    }
    cylinder
    {
        type            noSlip;
    }
    defaultFaces
    {
        type            empty;
    }
}


// ************************************************************************* //
