/*--------------------------------*- C++ -*----------------------------------*\
  =========                 |
  \\      /  F ield         | OpenFOAM: The Open Source CFD Toolbox
   \\    /   O peration     | Website:  https://openfoam.org
    \\  /    A nd           | Version:  13
     \\/     M anipulation  |
\*---------------------------------------------------------------------------*/
FoamFile
{
    format      ascii;
    class       volVectorField;
    location    "5.6";
    object      U;
}
// * * * * * * * * * * * * * * * * * * * * * * * * * * * * * * * * * * * * * //

dimensions      [0 1 -1 0 0 0 0];

internalField   nonuniform List<vector> 
440
(
(-0.0899773 0.0647336 -7.3466e-20)
(-0.122049 0.113411 -2.6069e-20)
(-0.0476307 0.101944 6.11098e-20)
(0.309948 0.156149 3.03659e-19)
(0.137496 0.35566 9.06364e-21)
(-0.0903266 0.0490252 2.66113e-20)
(-0.00257677 0.0343864 -9.62455e-20)
(0.382369 -0.00770155 -8.66864e-20)
(0.908122 -0.0216725 4.97365e-20)
(1.23393 0.00223577 1.93645e-21)
(-0.0447277 0.0192928 4.86387e-20)
(0.353987 -0.0122404 5.59804e-19)
(1.04843 0.00679742 -2.93233e-19)
(1.61436 0.0477935 -9.53908e-19)
(2.16774 0.0757217 3.24009e-19)
(0.134322 -0.0314314 -1.61328e-19)
(0.991169 0.0126867 -4.33123e-19)
(1.76616 0.0988621 1.37774e-18)
(2.26167 0.156209 1.5288e-18)
(2.41858 0.194004 -4.30315e-19)
(0.451502 -0.0093886 -2.68494e-19)
(1.57028 0.187289 -5.38897e-19)
(2.17621 0.296218 1.62917e-18)
(2.35889 0.335918 1.81756e-18)
(2.43916 0.321942 6.22661e-19)
(0.0223017 -0.343388 -1.73449e-19)
(-0.040574 -0.472586 1.07097e-19)
(-0.122867 -0.435886 -1.86666e-19)
(-0.20189 -0.363305 5.0889e-20)
(-0.25943 -0.27958 3.85005e-19)
(0.0295835 -0.21439 -2.22825e-20)
(-0.0664593 -0.278548 -4.54777e-20)
(-0.176949 -0.245617 -8.11545e-20)
(-0.272743 -0.186916 -6.5178e-20)
(-0.337565 -0.113634 1.07289e-19)
(-0.000160351 -0.0460305 1.60848e-19)
(-0.0917856 -0.0322153 7.34338e-21)
(-0.175539 -0.0273518 9.39216e-20)
(-0.241328 -0.025818 1.58376e-20)
(-0.288869 0.00184264 1.77561e-21)
(-0.00873441 0.00293505 2.66097e-21)
(-0.0695734 0.0524804 1.05871e-20)
(-0.121409 0.0900557 1.46149e-20)
(-0.161887 0.0952556 -2.30115e-19)
(-0.198422 0.107786 7.33374e-20)
(-0.0482162 0.0369615 -6.97825e-21)
(-0.139364 0.0875789 -1.76961e-20)
(-0.219556 0.147168 -9.47338e-20)
(-0.214069 0.202419 8.2839e-20)
(-0.229463 0.286029 -1.44053e-20)
(-0.361687 0.17613 1.77737e-18)
(-0.640342 0.808443 1.67635e-20)
(0.124449 0.243699 3.26486e-19)
(0.886132 -0.524706 -2.98691e-19)
(1.12745 -0.466794 1.16294e-21)
(-0.48476 0.248898 -1.27381e-18)
(-0.654628 0.697043 4.76718e-20)
(0.536225 -0.0180054 8.97629e-20)
(1.2245 -0.659773 2.30103e-19)
(1.32486 -0.507128 2.61699e-20)
(-0.421673 0.190533 -6.81665e-19)
(-0.197515 0.51048 -6.60278e-19)
(1.05066 -0.247596 -4.30741e-20)
(1.70446 -0.732638 -3.71512e-20)
(1.5394 -0.517668 2.20862e-20)
(-0.375587 0.187714 1.47e-19)
(0.39584 0.351303 1.2679e-19)
(1.50559 -0.415284 7.56461e-20)
(2.10942 -0.761565 6.3245e-20)
(1.75958 -0.492192 1.63607e-19)
(-0.294169 -0.0157588 -1.23928e-19)
(1.0087 0.0682848 4.6749e-19)
(1.81749 -0.585597 0)
(2.23298 -0.798936 -1.36016e-19)
(1.83637 -0.459454 4.07812e-20)
(1.18397 0.0375309 -2.50692e-19)
(1.80767 -0.108884 -1.53898e-19)
(2.17665 -0.654511 -8.73003e-21)
(2.28514 -0.77418 -3.2277e-20)
(1.80736 -0.408803 -8.33398e-20)
(1.94702 0.048202 -7.5955e-21)
(2.5226 -0.179078 6.36074e-19)
(2.53266 -0.66622 -4.45657e-21)
(2.20667 -0.676402 2.46193e-19)
(1.5606 -0.298451 0)
(2.1238 0.012225 -1.50503e-19)
(2.60889 -0.271728 -5.23713e-21)
(2.34121 -0.539671 3.97359e-19)
(1.77685 -0.420126 -7.65719e-20)
(1.22877 -0.1708 -4.89561e-21)
(2.22743 -0.0702916 8.19677e-20)
(2.37674 -0.245039 2.07391e-19)
(1.93134 -0.422203 5.79066e-21)
(1.23679 -0.279826 -1.71223e-34)
(0.69231 -0.0745447 5.87407e-20)
(1.58947 -0.0303897 8.53067e-20)
(1.36851 -0.126697 7.10376e-20)
(0.526707 -0.0349059 -1.13193e-19)
(0.0683399 0.0428393 3.59588e-21)
(-0.0690042 0.0188923 8.85898e-21)
(2.36923 0.32512 -7.68582e-19)
(2.54538 0.135817 -9.37903e-19)
(2.41908 0.16697 5.40577e-19)
(2.53834 0.0116229 8.40015e-20)
(1.90231 0.152429 -2.45688e-20)
(2.08212 0.216856 7.44779e-20)
(2.31029 0.140508 -3.6085e-20)
(2.23295 0.0600866 -1.22805e-19)
(2.37745 0.0124731 -1.99399e-19)
(2.28222 -0.124666 -4.61688e-21)
(2.00499 0.0982932 8.00447e-20)
(2.11485 0.117171 6.92038e-20)
(2.15691 -0.0151572 -6.53324e-20)
(2.18646 0.025894 2.69676e-20)
(2.2657 -0.0985258 -2.57176e-20)
(2.05432 0.0319548 1.15892e-19)
(2.10663 0.0563703 1.80793e-19)
(2.19564 -0.0353744 -2.04749e-20)
(2.19688 -0.0102799 -1.06607e-19)
(2.28995 -0.0862347 3.51213e-20)
(1.59903 -0.0225101 1.9074e-19)
(1.62248 -0.0180876 -1.19862e-20)
(1.63352 -0.0339627 1.84988e-20)
(1.62792 -0.0236787 -4.67432e-20)
(1.64454 -0.0445128 -3.81514e-20)
(1.56499 0.858679 1.06686e-18)
(1.52909 0.959783 -3.36926e-19)
(1.52926 1.08835 -1.29742e-18)
(1.45818 1.13004 7.12039e-19)
(0.893839 0.804972 -1.69459e-19)
(1.84486 0.820332 -5.5095e-19)
(1.81917 0.900963 -2.92327e-18)
(1.82558 1.00845 -1.13049e-18)
(1.72952 1.01028 -3.94013e-19)
(1.04411 0.687001 -6.27595e-19)
(2.1311 0.722857 7.12826e-19)
(2.11487 0.787102 1.88099e-19)
(2.0915 0.867011 -2.20013e-18)
(1.94069 0.842107 -5.86801e-19)
(1.11664 0.528516 4.18907e-19)
(2.28152 0.615634 2.16389e-18)
(2.27847 0.663151 1.577e-18)
(2.26123 0.700631 -1.80238e-18)
(2.01037 0.640341 -1.3186e-18)
(1.05279 0.335387 -2.26425e-19)
(2.42632 0.470236 1.02164e-18)
(2.41578 0.486278 -7.29204e-19)
(2.29735 0.494937 5.2345e-19)
(1.91195 0.411702 3.85976e-19)
(0.821788 0.131713 -3.08868e-19)
(0.584193 0.430549 -7.31867e-19)
(0.489773 0.465654 -5.748e-19)
(0.367211 0.500046 6.94119e-20)
(0.22742 0.498961 -1.67606e-20)
(0.0545687 0.351267 7.07375e-20)
(0.702274 0.596205 4.37929e-20)
(0.639738 0.653618 -3.47804e-19)
(0.546556 0.718549 1.74593e-19)
(0.412041 0.778386 -8.04368e-20)
(0.175862 0.597332 1.15732e-19)
(0.767151 0.812036 1.6616e-19)
(0.697706 0.89764 4.24177e-19)
(0.645754 0.997549 7.86053e-20)
(0.562323 1.04051 -2.88324e-19)
(0.307514 0.770758 2.38549e-19)
(1.06172 0.874925 2.08955e-19)
(1.0078 0.962321 -6.52623e-19)
(0.954884 1.06777 -1.86375e-18)
(0.87194 1.14178 7.58519e-19)
(0.513053 0.850919 -1.66627e-19)
(1.15562 0.943019 -1.17617e-19)
(1.1768 1.06198 -1.94262e-19)
(1.19304 1.17655 -3.45079e-19)
(1.13674 1.20532 -3.9892e-19)
(0.697444 0.865966 -6.4579e-21)
(0.987011 0.0469628 -8.86536e-20)
(1.02129 0.00943542 -2.98577e-20)
(1.03251 0.135393 -1.79687e-21)
(0.938869 0.104556 -2.04684e-19)
(0.915048 0.252849 3.08964e-19)
(0.9736 0.0439076 5.51133e-20)
(1.04515 0.00328422 1.11e-19)
(1.01318 0.152921 1.1415e-19)
(0.972316 0.120584 2.25674e-20)
(0.937453 0.327611 2.36218e-20)
(0.981355 0.0421315 7.42027e-20)
(1.03263 -0.00542887 -4.37993e-21)
(1.05054 0.172111 -3.2494e-21)
(0.920873 0.127108 1.46067e-19)
(1.14423 0.471271 -4.33873e-19)
(0.979602 0.0402315 -2.90568e-22)
(1.05069 -0.0157848 -1.65713e-19)
(1.03137 0.204823 -6.14101e-20)
(1.00878 0.113708 -3.79748e-19)
(1.20841 0.519042 7.85322e-20)
(0.98528 0.0320942 -1.20165e-20)
(1.04597 -0.0101576 4.68873e-20)
(1.06322 0.200672 2.896e-20)
(1.02066 0.132349 4.85153e-19)
(1.40524 0.65664 -4.40879e-19)
(0.967469 0.0311269 -5.0477e-21)
(1.09895 -0.0302043 9.37673e-20)
(1.0146 0.233731 -6.20838e-20)
(1.26372 0.0572182 9.9063e-19)
(1.35058 0.70447 -3.59143e-19)
(0.949191 -0.000378304 -1.36649e-21)
(1.15185 -0.0125244 -8.28512e-20)
(0.925409 0.157077 5.50668e-21)
(1.41484 0.0139279 -3.89134e-19)
(1.38049 0.491682 -1.91556e-20)
(0.979741 -0.0157613 2.99344e-21)
(1.10426 0.00725209 1.3841e-35)
(1.03235 0.101145 -8.0539e-21)
(1.38716 -0.0578038 1.10335e-19)
(1.31251 0.369302 1.55524e-19)
(1.04138 -0.0518092 3.90506e-21)
(0.968168 -0.00350398 -2.61345e-20)
(1.22552 0.00519762 2.20465e-20)
(1.14714 -0.035756 2.61228e-20)
(1.23537 0.284011 -2.24074e-19)
(0.950084 -0.0226098 -3.88811e-20)
(0.788495 -0.0230104 -1.9379e-21)
(0.968926 -0.00850272 2.64588e-20)
(0.669113 -0.00814663 -1.40665e-20)
(0.992222 0.0981945 -4.93315e-20)
(1.77943 0.637751 2.858e-19)
(1.89471 0.6594 6.92532e-19)
(2.11976 0.556895 -9.92358e-19)
(2.1958 0.530469 1.99915e-20)
(2.38487 0.356799 4.26656e-19)
(1.75194 0.450902 7.70689e-20)
(1.76084 0.459816 9.48021e-19)
(1.94251 0.416626 1.00075e-19)
(1.92451 0.362826 -8.33976e-19)
(2.13902 0.27713 -2.66507e-19)
(1.61318 0.374841 -2.09843e-19)
(1.64786 0.32867 -1.38607e-19)
(1.79011 0.318277 2.24322e-19)
(1.82485 0.219919 -2.70746e-19)
(1.97317 0.215355 2.52691e-19)
(1.56355 0.258544 3.58296e-19)
(1.65746 0.197495 2.13239e-21)
(1.78468 0.191203 2.13735e-19)
(1.8748 0.111686 1.83627e-19)
(1.9716 0.120862 -1.86102e-19)
(1.31792 0.0571597 -4.83928e-20)
(1.40314 0.0334527 2.38171e-19)
(1.49449 0.0198704 1.02091e-19)
(1.53507 -0.00176654 -2.19494e-19)
(1.58481 -0.00566708 2.6164e-22)
(1.32175 -0.0347471 7.15283e-20)
(2.40707 -0.0376471 -5.27099e-19)
(2.63179 -0.0326762 1.39834e-18)
(2.60796 0.014532 6.23873e-19)
(2.44018 0.0378975 -4.33216e-19)
(0.84215 0.100142 1.33871e-19)
(2.18141 0.102663 -5.25892e-19)
(2.63851 0.105407 -7.22545e-19)
(2.67301 0.115519 9.09898e-19)
(2.41802 0.106955 -6.16397e-19)
(0.260297 0.0909937 -2.91378e-20)
(1.51735 0.175789 5.65022e-19)
(2.31016 0.203996 8.41032e-20)
(2.68462 0.200807 6.28426e-19)
(2.81826 0.188431 2.81237e-19)
(-0.0405566 -0.0197426 2.36544e-19)
(0.591471 0.108734 2.40751e-19)
(1.48293 0.195911 -5.39037e-19)
(2.02356 0.234654 3.20888e-20)
(2.61441 0.262882 1.23187e-19)
(-0.111519 -0.0876451 1.70592e-19)
(0.0270896 -0.0355037 -1.97256e-19)
(0.571858 0.070996 -2.81691e-20)
(1.08079 0.11755 4.74712e-20)
(1.62467 0.222286 -2.14583e-20)
(-0.0886692 -0.0956137 -1.56985e-21)
(-0.132399 -0.142893 1.24618e-19)
(0.0291838 -0.137544 7.82879e-20)
(0.249229 -0.100683 -2.64712e-20)
(0.762926 0.0182657 6.31065e-21)
(-0.0600837 -0.0977143 -1.70094e-20)
(-0.110094 -0.224882 -9.62259e-20)
(-0.0799104 -0.280588 -3.36647e-20)
(-0.000912077 -0.272313 3.12972e-21)
(0.196725 -0.156622 1.06229e-20)
(-0.0551414 -0.167709 -1.32518e-20)
(-0.0677241 -0.381311 1.87615e-19)
(-0.0343964 -0.455244 -3.94083e-20)
(0.0263209 -0.439145 1.80141e-19)
(0.0835886 -0.359377 -9.79733e-20)
(-0.0474117 -0.309518 1.10539e-21)
(-0.0377953 -0.573216 7.88222e-20)
(-0.00993819 -0.617089 -3.96013e-19)
(0.0269528 -0.559255 -5.34515e-19)
(0.0582558 -0.469221 9.03483e-20)
(-0.0165545 -0.391194 -5.93557e-21)
(-0.0405359 -0.596761 3.62249e-20)
(-0.0737963 -0.571148 -1.65184e-20)
(-0.106866 -0.481027 -4.62792e-20)
(-0.128328 -0.380924 8.37519e-20)
(1.60416 0.550699 -7.85769e-20)
(1.28051 0.345989 6.15124e-19)
(0.672638 0.11453 -8.01544e-20)
(0.219493 -0.0439057 -7.709e-21)
(0.635035 -0.0978323 -1.37109e-21)
(1.34293 0.495031 2.40157e-20)
(1.10504 0.455355 7.26403e-20)
(0.356269 0.234468 2.02386e-20)
(-0.0779141 -0.0533853 -7.70542e-21)
(0.535662 -0.17423 1.21454e-20)
(1.0543 0.299803 3.36634e-20)
(0.915185 0.543926 6.61865e-19)
(-0.0472717 0.356482 6.02826e-20)
(-0.0965074 -0.115392 -6.45789e-19)
(0.554577 -0.270997 -1.21988e-20)
(0.574668 0.15483 -1.17674e-20)
(0.516598 0.698238 -1.9022e-18)
(-0.333267 0.449552 -2.31886e-19)
(0.160713 -0.244659 3.24744e-21)
(0.66707 -0.356411 -1.05221e-20)
(-0.00745907 0.169873 -1.7126e-19)
(-0.111197 0.82225 -5.46697e-20)
(-0.232083 0.427384 2.3819e-19)
(0.537133 -0.386978 -4.22275e-20)
(0.880964 -0.419457 -2.63924e-20)
(0.442122 0.160488 -5.52887e-20)
(-0.25842 -0.0844935 0)
(-0.15632 -0.107133 -4.83387e-20)
(0.0261418 -0.0530731 4.31675e-20)
(0.290631 -0.0213473 1.1863e-20)
(2.07033 0.531543 0)
(1.41534 0.306087 0)
(0.840835 0.0192156 3.69727e-19)
(0.552519 -0.0737592 1.54151e-20)
(0.774804 -0.0637138 -1.0974e-20)
(0.793959 0.00237097 -1.45435e-19)
(0.871032 -0.00273671 3.18109e-19)
(1.02637 0.0028472 -2.0594e-20)
(1.10092 0.010139 3.23026e-19)
(1.45028 0.0974257 2.12693e-19)
(1.7794 0.0279914 1.39284e-19)
(1.9526 0.0827479 3.89343e-19)
(2.09724 0.0759103 -2.90324e-19)
(2.68507 0.201099 3.05329e-20)
(2.39536 0.182313 1.59196e-19)
(0.963488 -0.521821 2.22314e-20)
(0.957048 -0.620036 -2.08929e-19)
(0.955304 -0.727477 -1.7759e-19)
(0.887592 -0.804601 1.06864e-19)
(0.54676 -0.639391 1.46848e-19)
(0.860017 -0.429798 1.12601e-19)
(0.803627 -0.498676 1.61747e-19)
(0.727565 -0.57332 -1.03321e-19)
(0.614479 -0.642696 1.54831e-19)
(0.343232 -0.520084 4.25581e-20)
(0.681838 -0.291714 -1.24585e-19)
(0.59313 -0.337321 -6.14667e-20)
(0.493403 -0.394591 2.41643e-20)
(0.375722 -0.444362 -4.48193e-20)
(0.175148 -0.357262 -1.42884e-19)
(0.576512 -0.0579695 -4.54397e-19)
(0.491029 -0.0776585 -3.65873e-19)
(0.379862 -0.107221 2.98326e-19)
(0.250179 -0.144067 1.55959e-19)
(0.0768201 -0.136119 1.39423e-20)
(0.546816 0.150913 -1.43962e-19)
(0.460449 0.150014 -1.63531e-19)
(0.340729 0.146202 -4.20659e-20)
(0.198316 0.148656 5.612e-20)
(0.0339181 0.110143 1.52529e-20)
(2.17619 -0.0355118 9.22037e-19)
(2.43955 -0.106729 3.14668e-19)
(2.52667 -0.198212 -8.31903e-19)
(2.39662 -0.224165 -1.80389e-18)
(1.4757 -0.215652 1.40939e-19)
(2.1422 -0.130154 1.56144e-18)
(2.23611 -0.246118 2.05461e-18)
(2.26073 -0.374866 1.71805e-19)
(2.19517 -0.437403 2.9881e-19)
(1.43472 -0.404988 -1.98153e-19)
(1.84044 -0.301316 -4.03454e-18)
(1.9064 -0.424683 4.46156e-19)
(1.95563 -0.557567 1.26488e-18)
(1.90544 -0.640403 -4.99115e-19)
(1.25575 -0.561155 7.96548e-19)
(1.60374 -0.433295 9.81093e-19)
(1.61905 -0.535879 -2.59291e-18)
(1.60916 -0.661174 -2.99358e-18)
(1.55181 -0.758824 9.35569e-19)
(1.01639 -0.642244 6.132e-19)
(1.29575 -0.501608 2.2558e-19)
(1.24852 -0.602617 2.85117e-19)
(1.24347 -0.732359 -4.58876e-19)
(1.19526 -0.826521 -5.56573e-19)
(0.766729 -0.66902 -5.32923e-21)
(1.01546 0.0454196 7.28817e-21)
(0.982719 0.0486919 -1.68444e-21)
(1.11887 0.0868368 5.6883e-21)
(0.836992 -0.0141051 -2.57465e-19)
(1.16122 -0.231292 -1.99551e-20)
(1.03397 0.0495711 -2.45115e-21)
(0.954851 0.0398615 3.7407e-20)
(1.12178 0.106413 -7.19442e-22)
(0.914774 0.0263545 2.1778e-19)
(1.03709 -0.118726 1.15296e-21)
(1.04076 0.0483365 -5.91577e-20)
(0.946628 0.0310359 2.26941e-22)
(1.10067 0.106515 -6.00524e-21)
(0.913002 0.04747 1.05421e-19)
(0.995615 -0.0561974 -2.59111e-19)
(1.02819 0.0492519 7.10218e-20)
(0.96958 0.0232406 2.54775e-21)
(1.06091 0.111717 2.20108e-20)
(0.944294 0.0707174 -4.57862e-20)
(0.890056 0.0520994 7.10668e-20)
(1.0035 0.0470652 1.75511e-20)
(1.00513 0.0200455 -2.32997e-20)
(1.02871 0.118071 3.4703e-20)
(0.95642 0.0922484 4.57886e-20)
(0.861372 0.149871 -2.61934e-20)
(0.873894 0.0333083 0)
(0.756803 0.0299011 9.64962e-21)
(0.584144 0.0198904 5.99797e-21)
(0.389982 -0.0135746 5.2369e-20)
(0.73261 -0.056099 -1.73576e-19)
(0.984458 0.0658358 -6.22068e-20)
(1.01388 0.0713114 -8.31905e-21)
(1.00692 0.0830253 -6.18683e-20)
(0.842633 -0.0172793 -1.44676e-19)
(1.06881 -0.214091 -1.81795e-19)
(1.02687 -0.0658913 -3.97404e-20)
(1.12026 -0.0351161 5.95736e-19)
(1.2262 0.0391932 3.55708e-19)
(1.09549 0.0613148 3.28886e-20)
(0.850072 0.033589 0)
(1.37948 -0.332523 3.99346e-19)
(1.50597 -0.293406 1.70687e-18)
(1.7015 -0.166838 -1.8681e-18)
(1.81137 -0.0226626 -5.8018e-19)
(1.7267 0.0356089 4.3256e-19)
)
;

boundaryField
{
    left
    {
        type            fixedValue;
        value           uniform (1 0 0);
    }
    right
    {
        type            zeroGradient;
    }
    down
    {
        type            noSlip;
    }
    up
    {
        type            noSlip;
    }
    cylinder
    {
        type            noSlip;
    }
    defaultFaces
    {
        type            empty;
    }
}


// ************************************************************************* //
