# Selection   : all
# Cells       : 440
# Volume      : 7.374263e+01
# Time        	max(p)
0.4           	1.742600e+00
0.45          	1.740738e+00
0.5           	1.747365e+00
