/*--------------------------------*- C++ -*----------------------------------*\
  =========                 |
  \\      /  F ield         | OpenFOAM: The Open Source CFD Toolbox
   \\    /   O peration     | Website:  https://openfoam.org
    \\  /    A nd           | Version:  13
     \\/     M anipulation  |
\*---------------------------------------------------------------------------*/
FoamFile
{
    format      ascii;
    class       volVectorField;
    location    "0.4525";
    object      U;
}
// * * * * * * * * * * * * * * * * * * * * * * * * * * * * * * * * * * * * * //

dimensions      [0 1 -1 0 0 0 0];

internalField   nonuniform List<vector> 
1800
(
(-0.00393402 -0.0104854 2.49003e-19)
(0.534703 -0.457442 1.16926e-19)
(1.04298 -0.858375 -1.13156e-18)
(1.32353 -1.04485 1.00543e-18)
(1.44011 -1.08386 1.96918e-18)
(1.47686 -1.055 7.38619e-19)
(1.48101 -1.00276 -3.83048e-19)
(1.47252 -0.946338 -7.97558e-19)
(1.46238 -0.886006 -4.14439e-19)
(1.42972 -0.834706 -2.80034e-19)
(0.0178494 -0.0276426 1.60728e-19)
(0.639884 -0.46288 -5.36394e-19)
(1.20394 -0.843152 1.08495e-20)
(1.50383 -1.01368 -8.015e-19)
(1.6199 -1.04423 2.25005e-19)
(1.64946 -1.01183 1.13437e-18)
(1.64577 -0.958203 -3.36911e-19)
(1.63129 -0.900303 2.3397e-19)
(1.61616 -0.839836 -2.24517e-19)
(1.59391 -0.796521 1.58288e-19)
(0.0471891 -0.0446534 -5.05093e-20)
(0.751821 -0.457065 1.64732e-19)
(1.36552 -0.807854 8.05799e-19)
(1.67913 -0.95913 -4.86241e-19)
(1.79102 -0.982029 -1.88504e-18)
(1.81106 -0.949123 2.87859e-19)
(1.79743 -0.898589 4.13404e-19)
(1.7738 -0.845646 -1.57745e-19)
(1.74989 -0.79224 -7.37827e-22)
(1.71881 -0.750886 -5.28011e-20)
(0.0841324 -0.0595915 4.63449e-20)
(0.868474 -0.437498 -1.92083e-19)
(1.5243 -0.750441 -5.81272e-19)
(1.84615 -0.879111 1.16604e-19)
(1.95149 -0.893901 4.34741e-19)
(1.96171 -0.860704 5.33151e-20)
(1.93886 -0.813048 -1.654e-20)
(1.90729 -0.76377 3.59752e-19)
(1.87609 -0.714157 6.90037e-20)
(1.84132 -0.677562 7.38525e-20)
(0.128348 -0.0709341 1.12084e-19)
(0.987103 -0.403595 3.01862e-19)
(1.67582 -0.672393 -1.28336e-19)
(1.99966 -0.777045 -1.52362e-19)
(2.09578 -0.785099 -1.38497e-18)
(2.09571 -0.753886 1.06749e-20)
(2.06411 -0.711619 6.54414e-19)
(2.02538 -0.668672 2.83035e-19)
(1.98784 -0.626141 4.07902e-20)
(1.94893 -0.594076 -4.16838e-22)
(0.178691 -0.0767711 -1.18871e-19)
(1.10407 -0.353979 4.98698e-19)
(1.8155 -0.573796 2.10145e-18)
(2.13524 -0.653817 -1.22482e-18)
(2.22017 -0.656403 -1.0097e-18)
(2.20997 -0.628506 1.27441e-18)
(2.17051 -0.592601 -8.53233e-19)
(2.12554 -0.55662 -8.85795e-19)
(2.08255 -0.52124 4.70829e-19)
(2.04023 -0.494802 -3.39149e-20)
(0.233653 -0.0756689 -9.685e-20)
(1.21559 -0.288767 -1.08436e-18)
(1.9391 -0.456899 -5.50101e-18)
(2.24907 -0.513112 1.98262e-18)
(2.32148 -0.512301 2.55839e-18)
(2.30182 -0.489485 -6.04125e-21)
(2.25578 -0.46135 -2.41576e-18)
(2.20596 -0.43349 -1.6969e-20)
(2.15888 -0.406256 1.6547e-18)
(2.11392 -0.385931 2.86517e-19)
(0.291015 -0.0663793 9.13675e-20)
(1.31744 -0.208429 7.82747e-19)
(2.04241 -0.323999 4.06575e-18)
(2.3377 -0.358154 -1.2258e-19)
(2.39704 -0.356188 -1.64518e-18)
(2.369 -0.339844 -4.1443e-19)
(2.31782 -0.320416 0)
(2.26444 -0.301371 8.86468e-19)
(2.21444 -0.28278 1.85957e-20)
(2.1677 -0.269214 -4.18329e-19)
(0.348137 -0.0482639 5.78163e-21)
(1.40561 -0.114545 1.74356e-18)
(2.12196 -0.178482 3.42968e-18)
(2.39876 -0.193157 -2.71997e-18)
(2.44536 -0.19241 -1.64511e-18)
(2.41039 -0.18366 4.32712e-19)
(2.35563 -0.173649 -1.70902e-18)
(2.30011 -0.163883 -1.15222e-18)
(2.24846 -0.154242 1.21842e-18)
(2.20084 -0.147708 7.86612e-19)
(0.402002 -0.0213665 1.08341e-19)
(1.47651 -0.00942484 1.15316e-18)
(2.1748 -0.02402 6.09686e-19)
(2.43074 -0.0223907 -3.82054e-18)
(2.46563 -0.0250914 4.50786e-20)
(2.42539 -0.0246209 4.06188e-18)
(2.36865 -0.0244556 -2.0438e-18)
(2.31236 -0.0241385 -1.12631e-18)
(2.26033 -0.0234981 3.48689e-19)
(2.2128 -0.0240861 -6.45668e-19)
(-0.00552414 0.00379925 1.85812e-19)
(-0.00315998 -0.088085 -9.70085e-20)
(0.0432777 -0.176797 6.85272e-22)
(0.104704 -0.225013 -1.82112e-20)
(0.171841 -0.242207 4.16573e-21)
(0.23736 -0.243349 3.36189e-19)
(0.2983 -0.237748 1.67479e-19)
(0.354146 -0.229868 -5.32811e-19)
(0.404446 -0.221606 2.70053e-21)
(0.452562 -0.214965 -8.15942e-21)
(-0.00755187 0.0158035 1.1329e-20)
(0.0101189 -0.133522 1.31063e-20)
(0.0715542 -0.283385 -4.84706e-20)
(0.140998 -0.364631 -1.66717e-20)
(0.210715 -0.392059 -6.64566e-20)
(0.276039 -0.391582 2.34644e-19)
(0.3356 -0.379481 -3.49562e-19)
(0.389705 -0.363566 -4.33603e-19)
(0.438048 -0.347232 4.36648e-19)
(0.485186 -0.334996 -1.30098e-19)
(-0.0113837 0.0261687 -6.75556e-20)
(0.0312153 -0.178661 8.59953e-20)
(0.117508 -0.386511 7.58451e-20)
(0.200322 -0.498579 3.11473e-19)
(0.27436 -0.535179 6.22717e-21)
(0.339386 -0.532746 3.34887e-19)
(0.396695 -0.5142 -1.30252e-19)
(0.447946 -0.490472 -3.63277e-19)
(0.493085 -0.46644 3.60029e-19)
(0.538725 -0.448797 2.33555e-19)
(-0.0164861 0.0342286 -1.20548e-19)
(0.0605679 -0.22313 -2.04316e-20)
(0.180974 -0.484297 3.03559e-20)
(0.282026 -0.623986 -1.05984e-19)
(0.36183 -0.668261 -8.53511e-21)
(0.426312 -0.663438 6.46656e-20)
(0.480454 -0.638554 -2.01702e-20)
(0.527748 -0.607354 6.09727e-20)
(0.56852 -0.57616 -8.87307e-21)
(0.612142 -0.553341 4.3643e-21)
(-0.0221126 0.039295 0)
(0.0987315 -0.266555 9.86301e-20)
(0.261637 -0.574891 7.92752e-19)
(0.38509 -0.738048 -5.87487e-19)
(0.471716 -0.788107 -7.76011e-19)
(0.53524 -0.780397 2.41133e-19)
(0.585281 -0.749375 -5.30526e-20)
(0.627571 -0.711187 -1.06833e-20)
(0.662944 -0.673527 0)
(0.70405 -0.645779 -2.90818e-21)
(-0.0272835 0.0407242 8.07995e-20)
(0.146338 -0.308466 1.87012e-19)
(0.358955 -0.656433 3.10673e-19)
(0.508036 -0.83806 2.19039e-19)
(0.602044 -0.89171 -1.73165e-19)
(0.664019 -0.880625 -4.66347e-19)
(0.709039 -0.843804 8.0825e-19)
(0.745382 -0.799283 2.0239e-20)
(0.774547 -0.755999 -8.73038e-19)
(0.812606 -0.723502 -8.77451e-21)
(-0.0307871 0.0380155 -1.1607e-20)
(0.204017 -0.34819 1.8058e-19)
(0.472069 -0.727028 1.19267e-20)
(0.648836 -0.921486 1.22651e-20)
(0.750188 -0.976379 4.88535e-19)
(0.809819 -0.961537 -7.00429e-19)
(0.848934 -0.919461 -6.95922e-19)
(0.878525 -0.869496 -7.14191e-19)
(0.900966 -0.821523 7.08477e-19)
(0.935192 -0.784212 9.44695e-19)
(-0.0312421 0.0309315 -1.92526e-19)
(0.272224 -0.384742 7.12124e-22)
(0.599639 -0.784768 2.82658e-19)
(0.804833 -0.986101 -2.57149e-19)
(0.912854 -1.03998 5.76623e-19)
(0.969162 -1.02133 1.39083e-18)
(1.00156 -0.97494 1.0786e-18)
(1.02371 -0.920906 -8.5559e-19)
(1.03924 -0.869376 -5.78722e-19)
(1.06774 -0.82686 8.7015e-19)
(-0.0274225 0.0197741 -2.50501e-19)
(0.350702 -0.41662 -7.32754e-19)
(0.739294 -0.827579 1.85308e-18)
(0.972183 -1.02985 1.71078e-18)
(1.0855 -1.08078 -1.29388e-18)
(1.13731 -1.0587 1.22379e-18)
(1.16219 -1.00955 2.68872e-19)
(1.17617 -0.953693 -1.656e-18)
(1.18476 -0.900172 -5.72969e-19)
(1.20271 -0.852302 8.1544e-19)
(-0.0186015 0.00557966 1.81167e-19)
(0.438332 -0.441623 -6.95633e-19)
(0.887689 -0.852953 -8.93501e-19)
(1.14591 -1.05027 1.47119e-18)
(1.26212 -1.0963 9.06807e-19)
(1.30736 -1.07108 -9.44927e-19)
(1.32289 -1.02043 -7.04998e-19)
(1.32681 -0.964657 4.51233e-19)
(1.3272 -0.909568 -6.46741e-19)
(1.32548 -0.857659 -2.9776e-19)
(0.628186 -0.174947 -3.15605e-19)
(0.804624 -0.132551 -4.03702e-19)
(0.889899 -0.103998 6.20859e-20)
(0.940184 -0.0814992 5.95721e-21)
(0.969345 -0.063241 1.84999e-20)
(0.986762 -0.048275 3.87507e-20)
(0.997567 -0.0359755 4.95707e-20)
(1.00439 -0.0257161 1.18668e-22)
(1.00851 -0.017562 -7.03887e-20)
(1.01125 -0.00724087 -1.74646e-21)
(0.645992 -0.249446 -6.45793e-20)
(0.816768 -0.171275 -3.62405e-20)
(0.898234 -0.124891 2.47276e-20)
(0.946539 -0.0932641 1.86753e-21)
(0.974393 -0.0701495 8.20389e-20)
(0.990831 -0.0524239 0)
(1.00088 -0.0385134 4.82385e-20)
(1.00712 -0.0272706 -1.06211e-20)
(1.01085 -0.0185097 1.43999e-22)
(1.01325 -0.00761014 1.44895e-20)
(0.674432 -0.321223 8.36915e-19)
(0.834314 -0.209389 -2.31801e-19)
(0.909319 -0.145604 1.4158e-19)
(0.954282 -0.104928 -3.68215e-20)
(0.980205 -0.0769598 -7.91884e-21)
(0.995349 -0.0564758 3.35167e-21)
(1.00446 -0.0409585 0)
(1.01002 -0.0287445 0)
(1.0133 -0.0193914 3.85411e-20)
(1.01534 -0.00794888 0)
(0.713482 -0.388788 2.54568e-20)
(0.856961 -0.246382 6.04429e-20)
(0.923142 -0.165923 4.5873e-20)
(0.963418 -0.116381 0)
(0.986777 -0.0836044 -3.9148e-20)
(1.00031 -0.0603891 2.55925e-20)
(1.0083 -0.043284 0)
(1.01309 -0.0301207 -7.79244e-20)
(1.01587 -0.0201965 0)
(1.01751 -0.00825329 -1.53992e-20)
(0.763102 -0.450696 5.30989e-19)
(0.884337 -0.281739 2.77234e-19)
(0.939664 -0.185641 -2.7621e-20)
(0.973948 -0.127515 0)
(0.994105 -0.0900183 -1.53548e-20)
(1.0057 -0.0641229 -5.39687e-20)
(1.0124 -0.0454638 9.0842e-22)
(1.01631 -0.0313813 1.73004e-21)
(1.01852 -0.0209144 2.24908e-20)
(1.01974 -0.00851975 7.8734e-22)
(0.822991 -0.505544 1.73503e-18)
(0.915996 -0.315064 -6.32639e-20)
(0.958792 -0.204604 1.46209e-20)
(0.985866 -0.138235 1.13921e-19)
(1.00218 -0.096143 2.42869e-20)
(1.01152 -0.0676379 -2.84729e-20)
(1.01674 -0.0474715 -1.00493e-19)
(1.01966 -0.0325091 1.33328e-19)
(1.02126 -0.0215344 -5.40963e-22)
(1.02204 -0.00874393 3.35564e-20)
(0.892064 -0.551682 -5.16151e-19)
(0.951045 -0.345637 -5.47237e-20)
(0.980267 -0.222691 4.85239e-20)
(0.999129 -0.148492 -2.40958e-21)
(1.01097 -0.101941 3.52208e-20)
(1.01772 -0.0709034 -1.98625e-21)
(1.0213 -0.0492845 4.12252e-20)
(1.02314 -0.0334881 -2.74561e-21)
(1.02406 -0.0220453 -2.61178e-20)
(1.02436 -0.00892071 -1.64849e-21)
(0.9687 -0.587383 5.53264e-19)
(0.987479 -0.372157 -3.93935e-19)
(1.003 -0.23925 0)
(1.01338 -0.157996 1.87978e-22)
(1.02036 -0.107287 -3.72191e-20)
(1.02426 -0.0738611 2.79816e-21)
(1.02604 -0.0508745 1.37618e-19)
(1.0267 -0.0343021 -5.07543e-20)
(1.02691 -0.0224377 1.28915e-21)
(1.02672 -0.00904693 1.72056e-20)
(1.05571 -0.61501 -1.64613e-18)
(1.02514 -0.396611 9.89795e-19)
(1.02546 -0.254989 1.81037e-21)
(1.02764 -0.166864 -2.56969e-21)
(1.02982 -0.112106 8.70394e-22)
(1.0309 -0.0764216 5.20968e-20)
(1.03086 -0.0521799 -3.70782e-20)
(1.03032 -0.034917 2.83742e-22)
(1.02977 -0.0226942 -3.23904e-21)
(1.02907 -0.00912077 -2.98355e-20)
(1.15895 -0.640943 7.82098e-19)
(1.07339 -0.421439 1.32302e-18)
(1.05065 -0.273955 1.23303e-19)
(1.04233 -0.17834 7.986e-20)
(1.03921 -0.118355 8.63802e-20)
(1.03742 -0.0796181 7.36363e-20)
(1.03562 -0.0537021 3.62064e-20)
(1.03392 -0.0355525 0)
(1.0326 -0.022905 3.92901e-20)
(1.03143 -0.00915246 -3.68603e-20)
(1.31414 -0.627548 1.90553e-18)
(1.17584 -0.420646 -6.01357e-19)
(1.10943 -0.275541 7.78396e-19)
(1.07592 -0.180127 -3.84216e-20)
(1.05879 -0.119419 -4.59531e-20)
(1.04941 -0.0799972 5.78952e-20)
(1.04338 -0.0536482 4.8139e-20)
(1.03918 -0.035303 -3.90001e-20)
(1.03647 -0.0226179 1.90041e-20)
(1.03448 -0.00901694 2.15663e-20)
(1.364 -0.513942 -2.78452e-19)
(1.20759 -0.358392 -1.01113e-19)
(1.13721 -0.244442 -3.40905e-19)
(1.09816 -0.164881 3.5835e-20)
(1.07484 -0.111277 -1.84687e-19)
(1.06062 -0.0752217 -1.62506e-19)
(1.05124 -0.0506468 -1.32833e-19)
(1.04484 -0.0333817 1.73898e-20)
(1.04074 -0.0214062 -7.45562e-20)
(1.0379 -0.00852515 -8.34064e-21)
(1.42102 -0.442257 -2.62461e-19)
(1.25767 -0.321468 4.97534e-20)
(1.17305 -0.224001 -7.9995e-20)
(1.12274 -0.152841 -6.97454e-36)
(1.09135 -0.103651 2.7813e-22)
(1.07177 -0.0701826 7.07734e-34)
(1.05892 -0.0472428 -4.91771e-21)
(1.05027 -0.0311018 -1.54934e-34)
(1.04485 -0.0199226 2.1399e-21)
(1.04111 -0.00792926 -9.87135e-21)
(1.45692 -0.362366 2.36412e-34)
(1.29283 -0.272689 1.2016e-19)
(1.20135 -0.195233 4.10204e-19)
(1.14361 -0.135779 0)
(1.10598 -0.0930201 1.75944e-19)
(1.08187 -0.0632903 1.16826e-19)
(1.06594 -0.0426795 8.36796e-20)
(1.05526 -0.0281061 -8.62289e-34)
(1.0486 -0.0180042 3.9903e-20)
(1.04403 -0.00716482 1.14429e-20)
(1.47929 -0.291785 -2.34425e-19)
(1.31969 -0.226136 -5.31036e-21)
(1.22436 -0.165301 0)
(1.16122 -0.116682 0)
(1.11866 -0.0806211 0)
(1.09072 -0.0550961 0)
(1.07215 -0.0372261 -2.39212e-21)
(1.0597 -0.024529 -9.61119e-34)
(1.05192 -0.0157186 2.85235e-21)
(1.04663 -0.0062569 1.55051e-33)
(1.4931 -0.226659 -2.64379e-19)
(1.33958 -0.18003 0)
(1.24237 -0.133994 0)
(1.1755 -0.0958389 0)
(1.12919 -0.0667407 0)
(1.0982 -0.0458022 0)
(1.07743 -0.0310104 5.6145e-21)
(1.06348 -0.0204487 -4.21093e-20)
(1.05478 -0.0131122 3.16087e-21)
(1.04884 -0.00522223 3.10582e-21)
(1.50111 -0.166657 0)
(1.35367 -0.135102 -4.34601e-20)
(1.25584 -0.102071 1.24425e-19)
(1.1865 -0.0738264 0)
(1.13748 -0.0517638 8.37528e-20)
(1.10416 -0.0356582 5.4173e-20)
(1.08166 -0.0241902 4.23641e-20)
(1.06652 -0.0159664 2.36779e-20)
(1.05706 -0.0102453 -2.74416e-20)
(1.05058 -0.00408341 2.11788e-20)
(1.50433 -0.110951 3.48925e-20)
(1.36181 -0.0906752 2.04947e-20)
(1.26414 -0.0691186 3.2991e-20)
(1.19349 -0.0504134 1.36437e-35)
(1.14278 -0.0355279 -1.26309e-20)
(1.10788 -0.024546 2.00395e-34)
(1.08421 -0.0166792 7.24287e-21)
(1.06822 -0.0110183 1.85563e-20)
(1.05823 -0.00706828 3.37911e-21)
(1.05136 -0.00281307 -1.58285e-20)
(1.48397 -0.054593 -1.04869e-19)
(1.34433 -0.0491712 1.54589e-19)
(1.24902 -0.0387438 5.12489e-20)
(1.17968 -0.0287037 0)
(1.1295 -0.0203656 9.54957e-21)
(1.09474 -0.0141193 8.31421e-21)
(1.07104 -0.00961346 1.31699e-20)
(1.05505 -0.00635925 3.81619e-21)
(1.04504 -0.00407863 -1.91591e-21)
(1.03815 -0.0016201 1.68675e-20)
(1.10701 -0.00243774 0)
(1.01968 -0.00647304 0)
(0.954211 -0.00604823 0)
(0.904052 -0.00470451 0)
(0.866962 -0.00338561 0)
(0.841076 -0.0023694 0)
(0.823341 -0.00162443 6.99504e-21)
(0.811314 -0.00108513 -2.59416e-35)
(0.803775 -0.000682272 3.57425e-21)
(0.798637 -0.000259384 1.54874e-20)
(2.12852 -0.0228449 3.21358e-19)
(2.11914 -0.128812 1.42184e-20)
(2.09206 -0.232822 -2.55002e-20)
(2.04732 -0.332547 -1.2593e-20)
(1.98698 -0.426052 -3.62824e-20)
(1.90954 -0.512548 -1.47218e-20)
(1.82592 -0.583461 1.69868e-19)
(1.71329 -0.659267 -1.07291e-20)
(1.63311 -0.679617 0)
(1.46757 -0.76425 -4.89538e-19)
(2.04304 -0.0160862 1.38214e-19)
(2.03537 -0.0955042 3.42315e-21)
(2.01455 -0.174048 -4.02469e-20)
(1.97907 -0.250661 2.19526e-20)
(1.93485 -0.322485 -4.48698e-20)
(1.87153 -0.394591 -1.32543e-19)
(1.81494 -0.445278 2.83401e-19)
(1.72006 -0.524969 1.41338e-19)
(1.66744 -0.526086 -1.82809e-19)
(1.55112 -0.619138 -1.67954e-19)
(1.9688 -0.0125095 -4.7945e-20)
(1.96292 -0.0758909 1.43163e-19)
(1.94683 -0.13815 7.36288e-20)
(1.91811 -0.199229 -1.00916e-19)
(1.88393 -0.255332 7.12803e-20)
(1.83217 -0.314994 -1.33796e-19)
(1.78862 -0.352221 -1.11103e-19)
(1.71397 -0.423713 2.29856e-19)
(1.66725 -0.421629 2.14478e-19)
(1.58294 -0.505112 2.08306e-19)
(1.91225 -0.0117735 -2.49561e-19)
(1.90747 -0.0602063 -1.12892e-19)
(1.89406 -0.107877 8.41303e-20)
(1.87016 -0.155358 -5.22527e-21)
(1.84163 -0.198702 3.54776e-20)
(1.79933 -0.246679 -2.21208e-20)
(1.76194 -0.275476 -1.27588e-19)
(1.70392 -0.334388 5.25639e-20)
(1.66093 -0.333682 -9.14141e-20)
(1.59773 -0.402045 -2.1868e-20)
(1.86798 -0.0101193 -2.91609e-20)
(1.86404 -0.0470583 1.28566e-19)
(1.85251 -0.0833341 4.09058e-20)
(1.83229 -0.119639 -1.74897e-20)
(1.80732 -0.152704 -1.27225e-20)
(1.77225 -0.189786 7.54469e-20)
(1.73851 -0.212354 -2.45548e-20)
(1.6921 -0.257897 4.90644e-20)
(1.65253 -0.259345 5.2731e-20)
(1.60232 -0.312104 2.41589e-20)
(1.83449 -0.00983402 -1.38597e-19)
(1.83122 -0.0368832 -2.03378e-20)
(1.82099 -0.0634475 -5.68899e-20)
(1.80337 -0.0901498 1.36105e-20)
(1.78067 -0.114636 8.03303e-20)
(1.75058 -0.142169 1.5109e-20)
(1.71921 -0.159668 -3.59722e-21)
(1.68021 -0.193409 7.24786e-20)
(1.64352 -0.196372 1.30209e-19)
(1.60115 -0.235582 5.47959e-20)
(1.81004 -0.0100137 -2.53842e-20)
(1.80734 -0.0285449 -8.25516e-20)
(1.79809 -0.0467159 -1.34197e-19)
(1.7823 -0.0650647 -1.60809e-19)
(1.76119 -0.0820759 6.95336e-20)
(1.73435 -0.101289 2.09085e-20)
(1.7046 -0.114057 -3.6171e-20)
(1.67011 -0.137842 -3.13179e-20)
(1.63562 -0.141164 7.19135e-20)
(1.59765 -0.169205 2.69393e-20)
(1.78922 -0.00962059 5.73694e-20)
(1.78765 -0.0205544 -3.37946e-20)
(1.77978 -0.0312307 5.91355e-21)
(1.76594 -0.0420908 -2.46296e-20)
(1.74659 -0.0523383 -2.98338e-20)
(1.72238 -0.0642725 -2.48008e-20)
(1.69415 -0.0724955 -4.91948e-20)
(1.66251 -0.0882577 5.70183e-20)
(1.6296 -0.0908353 -3.38703e-20)
(1.59386 -0.110932 8.76887e-21)
(1.71526 -0.0141361 -9.63626e-20)
(1.71524 -0.0164937 -4.89763e-20)
(1.71138 -0.0184732 7.94889e-20)
(1.70344 -0.020521 -4.22783e-20)
(1.69106 -0.0222924 7.95436e-21)
(1.67507 -0.0255892 -5.11171e-20)
(1.65427 -0.026801 4.48683e-20)
(1.6316 -0.0341769 -3.07614e-20)
(1.60328 -0.0332756 -4.63206e-20)
(1.57729 -0.0455507 -7.18772e-20)
(1.12365 -0.00861141 8.41229e-20)
(1.11548 -0.00560188 6.53352e-20)
(1.11043 -0.00256364 6.19589e-20)
(1.10882 0.000381046 8.85139e-20)
(1.10974 0.00316806 5.75594e-21)
(1.11404 0.00544846 -9.80102e-20)
(1.11736 0.00787711 9.28008e-21)
(1.12686 0.00780354 4.86657e-20)
(1.12453 0.0112184 -8.64625e-20)
(1.14073 0.00651302 9.78841e-20)
(1.38749 0.744565 -2.8576e-19)
(1.37197 0.789997 -8.08659e-21)
(1.37513 0.848072 -1.969e-18)
(1.38373 0.913171 1.00992e-20)
(1.39321 0.981773 2.26284e-18)
(1.39933 1.05077 -3.50418e-20)
(1.38515 1.10639 -1.72221e-18)
(1.28975 1.09296 4.86653e-19)
(0.985756 0.88054 -8.90452e-19)
(0.400051 0.36014 2.43196e-20)
(1.55976 0.729284 0)
(1.54964 0.77391 1.35873e-18)
(1.54767 0.825953 2.50898e-18)
(1.5532 0.886671 -1.24627e-18)
(1.56388 0.952949 -2.74683e-18)
(1.57379 1.02085 -1.81191e-19)
(1.56192 1.07561 -2.39655e-19)
(1.45713 1.06145 1.06554e-18)
(1.11242 0.851887 2.08653e-18)
(0.447343 0.342733 3.99156e-19)
(1.69407 0.710057 1.71071e-19)
(1.69786 0.752616 0)
(1.70291 0.799797 -1.29808e-19)
(1.71328 0.854687 6.07261e-19)
(1.72874 0.915634 7.89069e-20)
(1.74361 0.978939 -2.19781e-18)
(1.73399 1.02956 1.87956e-18)
(1.6189 1.01278 1.46991e-18)
(1.23258 0.808418 -1.5547e-18)
(0.48978 0.31819 -3.27442e-19)
(1.80238 0.673339 2.94097e-19)
(1.81884 0.712384 7.71707e-21)
(1.83522 0.755307 1.7851e-19)
(1.8552 0.804822 -2.43004e-19)
(1.87904 0.860094 -1.32416e-18)
(1.90108 0.917749 -1.12683e-18)
(1.89439 0.962872 1.6548e-18)
(1.76815 0.942763 1.6378e-18)
(1.33928 0.746709 0)
(0.522053 0.284375 0)
(1.89738 0.613971 -3.75378e-19)
(1.92357 0.649326 -9.72712e-19)
(1.95052 0.688441 -5.01994e-19)
(1.98062 0.733022 -4.32752e-20)
(2.01374 0.782528 0)
(2.04351 0.833887 1.834e-19)
(2.03926 0.872706 2.15755e-19)
(1.90024 0.849384 2.73321e-19)
(1.42778 0.666116 -3.89143e-19)
(0.541359 0.242314 -9.35011e-20)
(1.98429 0.53455 5.00408e-19)
(2.01746 0.565981 -5.59242e-20)
(2.05272 0.600939 -1.12466e-18)
(2.09143 0.640263 0)
(2.13281 0.683487 0)
(2.16924 0.72785 0)
(2.16577 0.759814 1.9883e-18)
(2.01146 0.734096 -2.879e-18)
(1.49538 0.569194 -1.55892e-18)
(0.546839 0.194973 -1.74828e-19)
(2.06174 0.439793 -8.82479e-19)
(2.09991 0.466594 -2.631e-18)
(2.14139 0.496384 -4.80797e-21)
(2.1868 0.529532 5.45632e-19)
(2.23475 0.565594 -5.32093e-20)
(2.27602 0.602114 1.4642e-18)
(2.27081 0.627312 -9.30845e-19)
(2.09964 0.599873 -3.27371e-18)
(1.53982 0.459886 1.86483e-19)
(0.539073 0.146438 1.61088e-19)
(2.12605 0.333686 -8.29549e-19)
(2.16799 0.354863 2.49619e-20)
(2.21407 0.37831 4.28749e-19)
(2.26445 0.404238 -4.06371e-19)
(2.31716 0.432165 6.46337e-19)
(2.36117 0.460404 2.064e-18)
(2.3524 0.477774 -2.86296e-19)
(2.16091 0.451976 -1.82073e-18)
(1.55985 0.344278 4.57281e-19)
(0.519422 0.0985464 4.54462e-20)
(2.17393 0.219248 2.96059e-19)
(2.21867 0.234018 1.1697e-19)
(2.26803 0.250145 -4.54538e-19)
(2.32185 0.267943 -9.86473e-19)
(2.37758 0.287005 1.17821e-19)
(2.42235 0.305511 1.14905e-19)
(2.40755 0.317741 -2.01692e-18)
(2.19374 0.295013 1.05937e-18)
(1.55577 0.223876 3.55706e-19)
(0.489235 0.0541938 -2.29311e-19)
(2.20334 0.0991561 6.20047e-19)
(2.24993 0.106703 -1.06576e-18)
(2.30125 0.114716 1.98067e-19)
(2.35701 0.123761 2.40766e-18)
(2.4141 0.133555 1.32128e-18)
(2.45762 0.14164 -3.47154e-18)
(2.43378 0.14942 -4.28603e-18)
(2.19879 0.135522 2.62665e-18)
(1.52728 0.10427 3.11663e-21)
(0.449797 0.0133767 1.11379e-19)
(0.511026 0.206232 -9.13556e-19)
(0.473275 0.213497 -7.20976e-19)
(0.429693 0.221439 5.29133e-19)
(0.381605 0.229907 -1.43613e-18)
(0.328607 0.238951 -2.09984e-19)
(0.270112 0.248433 8.41176e-19)
(0.205257 0.256454 2.48199e-19)
(0.133633 0.25351 -1.34744e-19)
(0.0612106 0.21322 -6.01685e-20)
(0.00926396 0.102021 1.0644e-19)
(0.538862 0.306057 6.1775e-19)
(0.502031 0.3203 1.0719e-18)
(0.459887 0.336112 -1.04145e-20)
(0.41336 0.352935 -4.21011e-19)
(0.362039 0.370815 -9.26839e-19)
(0.30537 0.38954 1.36951e-19)
(0.242163 0.405801 4.84988e-19)
(0.170314 0.403149 -3.22934e-20)
(0.0920046 0.337187 7.08074e-20)
(0.0239337 0.157004 8.12143e-20)
(0.583905 0.401842 -7.58655e-19)
(0.548698 0.422793 -9.52101e-19)
(0.509038 0.446052 5.60243e-19)
(0.465165 0.470801 5.02243e-19)
(0.41666 0.497079 4.95785e-21)
(0.363016 0.52458 -3.56636e-19)
(0.302491 0.548584 -1.46999e-20)
(0.230097 0.545948 -1.44323e-20)
(0.14172 0.454966 9.92329e-21)
(0.047042 0.208624 3.00979e-20)
(0.645063 0.491535 4.86221e-19)
(0.612147 0.518795 3.01141e-19)
(0.575949 0.548864 -2.77469e-19)
(0.535773 0.580903 4.9123e-19)
(0.491176 0.614947 -9.7944e-20)
(0.441702 0.650555 8.1158e-20)
(0.384842 0.681605 7.98414e-21)
(0.311607 0.678615 1.70103e-19)
(0.208988 0.563769 -1.11757e-19)
(0.0777075 0.255401 6.48731e-20)
(0.720752 0.573212 -2.12869e-19)
(0.690764 0.606274 -1.06561e-19)
(0.658983 0.642365 1.37861e-20)
(0.623553 0.6809 1.97947e-19)
(0.583965 0.721909 -6.57556e-20)
(0.539785 0.764773 -9.52552e-20)
(0.487472 0.801995 -1.03956e-19)
(0.413137 0.798172 -5.1943e-19)
(0.292091 0.661011 2.33472e-19)
(0.11494 0.296148 5.98421e-20)
(0.808982 0.645177 4.6367e-19)
(0.782393 0.68318 3.23874e-19)
(0.755754 0.724084 1.03379e-19)
(0.725905 0.768005 -9.60497e-21)
(0.692282 0.814971 -4.78633e-20)
(0.654441 0.864082 4.93597e-20)
(0.607506 0.90645 4.46057e-19)
(0.53173 0.901223 2.74219e-19)
(0.388589 0.743521 -1.36983e-19)
(0.157506 0.329182 8.79221e-20)
(0.907443 0.705226 5.66459e-20)
(0.885511 0.747559 -6.4372e-19)
(0.86552 0.79233 4.21256e-20)
(0.842616 0.840543 -1.2009e-19)
(0.816049 0.892275 -7.43492e-20)
(0.785371 0.946407 2.39541e-19)
(0.744197 0.992793 -1.62149e-20)
(0.66613 0.985766 -8.21684e-19)
(0.496997 0.809875 4.46521e-19)
(0.204361 0.353907 1.156e-19)
(1.00799 0.753381 -6.51045e-19)
(0.989711 0.797792 -1.9246e-20)
(0.976616 0.844388 -2.44954e-19)
(0.961972 0.895695 1.73554e-19)
(0.944528 0.951274 3.13624e-19)
(0.923297 1.00935 -1.2756e-19)
(0.889704 1.05842 -1.7157e-19)
(0.809667 1.04875 -3.40398e-19)
(0.61197 0.857063 3.15808e-20)
(0.252721 0.368715 -1.08113e-19)
(1.12653 0.776173 1.02072e-20)
(1.11758 0.823919 2.14887e-19)
(1.11284 0.871576 -4.41231e-21)
(1.10492 0.924862 3.90802e-19)
(1.09396 0.983689 -4.16969e-19)
(1.07958 1.04561 9.54644e-19)
(1.05118 1.09772 9.26614e-19)
(0.966304 1.08693 -1.74811e-18)
(0.735298 0.884481 -2.54039e-19)
(0.302916 0.374585 -1.6546e-19)
(1.19846 0.787261 -1.53376e-20)
(1.20386 0.838302 -3.18232e-19)
(1.21889 0.889586 1.29185e-19)
(1.22925 0.945389 9.54732e-19)
(1.23392 1.00536 1.86601e-19)
(1.23272 1.06769 -9.53355e-19)
(1.21332 1.11921 4.01664e-19)
(1.12488 1.10487 5.17659e-19)
(0.859339 0.893651 -6.11102e-19)
(0.352002 0.371807 -1.37135e-19)
(0.820583 0.0223299 1.24486e-19)
(1.16272 0.0424903 -1.67932e-20)
(0.911807 0.0489628 -8.5416e-20)
(1.03971 0.0518521 0)
(0.987093 0.0596369 -6.91046e-20)
(0.972471 0.0704818 7.40375e-20)
(0.948929 0.085619 8.91024e-20)
(0.897922 0.105486 1.61628e-19)
(0.828601 0.133887 -4.11501e-19)
(0.661123 0.169946 5.09641e-19)
(0.820023 0.0191301 9.74129e-20)
(1.1626 0.0425121 -1.26468e-19)
(0.912274 0.0510269 6.98174e-21)
(1.04146 0.0534573 7.97148e-21)
(0.98976 0.0636891 6.10557e-20)
(0.976505 0.0767704 -1.99663e-20)
(0.954247 0.0967533 -2.69004e-19)
(0.906158 0.1231 0)
(0.838196 0.171813 7.73043e-19)
(0.68331 0.234065 -7.15703e-19)
(0.819227 0.0161128 -3.01331e-19)
(1.16268 0.0423898 1.12214e-19)
(0.91266 0.0528357 1.12243e-19)
(1.04369 0.0548325 1.25596e-19)
(0.992765 0.0675021 -1.9935e-19)
(0.981302 0.0828574 4.62843e-20)
(0.960601 0.107599 -2.10554e-19)
(0.917337 0.140613 -2.09472e-20)
(0.851371 0.208655 1.52868e-20)
(0.718294 0.296437 -2.2471e-19)
(0.818189 0.0133554 6.99002e-20)
(1.16291 0.0421111 -6.56574e-20)
(0.912981 0.0543364 6.09892e-20)
(1.04642 0.0559782 7.80224e-20)
(0.996118 0.0710416 2.35166e-20)
(0.986851 0.0886905 -8.12088e-21)
(0.968083 0.118034 3.10874e-19)
(0.931255 0.157926 -9.5139e-21)
(0.868393 0.243828 -3.70131e-19)
(0.765466 0.356065 -2.52949e-19)
(0.816903 0.0108913 -2.5028e-20)
(1.16321 0.0416459 -2.6447e-19)
(0.913263 0.0554738 -3.12507e-20)
(1.04963 0.0569013 3.66101e-20)
(0.999823 0.074273 0)
(0.99313 0.0942179 0)
(0.976797 0.127953 2.45289e-19)
(0.947652 0.174975 1.11372e-20)
(0.889607 0.276733 -6.34826e-20)
(0.824 0.412045 2.182e-19)
(0.815367 0.00877678 -3.45852e-20)
(1.1635 0.0409613 1.8656e-19)
(0.913537 0.0561905 -9.83888e-20)
(1.05333 0.057617 -3.03441e-19)
(1.00387 0.0771606 1.03265e-19)
(1.00012 0.0993919 8.82604e-20)
(0.986846 0.137287 2.9873e-19)
(0.966234 0.191679 1.13801e-20)
(0.915431 0.306531 -5.23957e-19)
(0.892991 0.464744 -3.58347e-19)
(0.813576 0.00708351 -1.04365e-19)
(1.16369 0.0400212 1.93973e-19)
(0.913857 0.0564274 -4.64227e-20)
(1.05753 0.0581528 -5.32821e-19)
(1.00824 0.0796662 -2.43756e-19)
(1.00781 0.10418 -1.17271e-20)
(0.998315 0.145999 1.57627e-20)
(0.986617 0.207878 9.43668e-20)
(0.946615 0.331708 -4.7789e-19)
(0.969889 0.512003 -2.81213e-19)
(0.811523 0.00587489 1.00834e-19)
(1.16369 0.0387721 -4.12813e-19)
(0.91428 0.0561342 6.76153e-21)
(1.06217 0.0585502 4.20917e-19)
(1.01291 0.0817372 -1.00366e-19)
(1.0162 0.108563 -8.1333e-20)
(1.01123 0.154145 -6.52058e-20)
(1.00849 0.223963 -1.109e-19)
(0.98383 0.354845 -1.00571e-19)
(1.05382 0.562917 1.36516e-18)
(0.809201 0.00516563 -1.28281e-19)
(1.16351 0.0370756 1.83954e-19)
(0.914889 0.055243 6.50088e-20)
(1.06726 0.0588342 -4.62894e-19)
(1.0178 0.0832288 5.25672e-19)
(1.02521 0.112202 -5.46134e-21)
(1.02547 0.160556 2.63885e-20)
(1.03205 0.2358 -7.15966e-19)
(1.03034 0.365032 3.7614e-20)
(1.13575 0.588918 -4.24054e-19)
(0.806661 0.005442 5.41054e-20)
(1.16412 0.0351535 2.40966e-19)
(0.915506 0.0538985 -8.97089e-20)
(1.07273 0.0593615 -1.07073e-18)
(1.02261 0.0849553 3.2129e-19)
(1.0336 0.117239 -1.26554e-19)
(1.03766 0.170789 -1.37163e-20)
(1.04997 0.255829 2.28335e-19)
(1.07004 0.393698 7.13857e-19)
(1.22533 0.656563 -1.70056e-18)
(0.804448 0.00521143 -1.54156e-19)
(1.1672 0.0318492 -4.53585e-20)
(0.917048 0.0510314 6.23575e-20)
(1.0797 0.0581566 2.92237e-19)
(1.03164 0.0837895 3.63842e-19)
(1.04913 0.117128 -1.0483e-19)
(1.06268 0.170717 2.57588e-19)
(1.0895 0.253325 1.12234e-19)
(1.14007 0.374715 5.54524e-20)
(1.23493 0.635 -1.03806e-18)
(0.80513 0.00263624 1.05701e-19)
(1.17145 0.0273768 1.84362e-19)
(0.921421 0.0458087 -7.12207e-20)
(1.08566 0.0543053 5.16186e-19)
(1.04229 0.0788513 6.06628e-19)
(1.06477 0.110709 1.76376e-19)
(1.08665 0.160249 -7.82956e-22)
(1.12756 0.234254 -2.86647e-19)
(1.19163 0.341624 3.09351e-19)
(1.3174 0.530514 2.29745e-19)
(0.805484 -0.000532066 -1.585e-19)
(1.17623 0.0226498 5.98286e-20)
(0.926195 0.0402965 9.46468e-20)
(1.09172 0.0496688 1.42829e-19)
(1.05264 0.0727389 1.78014e-33)
(1.07956 0.102542 2.2278e-20)
(1.10844 0.147348 1.83124e-33)
(1.16072 0.212577 -8.8867e-20)
(1.22986 0.300409 1.57346e-19)
(1.38137 0.455468 1.19812e-19)
(0.805896 -0.00485388 2.23313e-19)
(1.18114 0.017295 5.18869e-34)
(0.931044 0.0342664 -9.50411e-20)
(1.09756 0.0440985 -1.25702e-19)
(1.06222 0.0651735 -2.16674e-19)
(1.09291 0.0922304 -5.74686e-20)
(1.12762 0.131502 2.19711e-33)
(1.18835 0.187848 2.68029e-19)
(1.2605 0.257296 -8.99711e-20)
(1.42469 0.37958 -1.91124e-19)
(0.80648 -0.0104223 0)
(1.18636 0.0113504 1.01956e-33)
(0.9359 0.0279161 0)
(1.10304 0.0377346 0)
(1.07079 0.0564321 0)
(1.10458 0.0801785 0)
(1.14406 0.113473 1.17625e-33)
(1.21055 0.160791 0)
(1.28536 0.213641 7.07773e-20)
(1.45034 0.30835 -9.48127e-20)
(0.807343 -0.0169725 1.72657e-19)
(1.19222 0.00490214 9.02933e-20)
(0.940764 0.0214892 -9.36719e-20)
(1.10802 0.0307547 0)
(1.07822 0.046758 0)
(1.11441 0.0667558 -2.95348e-20)
(1.15767 0.0938612 -7.49939e-20)
(1.22781 0.132074 4.49715e-20)
(1.3049 0.170886 1.0841e-19)
(1.46438 0.241521 -2.80214e-19)
(0.808534 -0.0263669 -1.10116e-19)
(1.19891 -0.00233262 -3.48798e-20)
(0.945625 0.0151452 -9.20585e-20)
(1.11233 0.0233629 -1.8291e-21)
(1.08436 0.036391 -4.77833e-20)
(1.12233 0.052309 -2.87873e-20)
(1.16842 0.0731542 6.71273e-20)
(1.24069 0.10233 1.0944e-19)
(1.31948 0.129583 8.02105e-20)
(1.47145 0.179286 -8.62121e-20)
(0.810216 -0.0318908 -2.37848e-19)
(1.20703 -0.00913001 7.13537e-20)
(0.950228 0.0103619 -8.87697e-20)
(1.11541 0.0155323 -1.0483e-19)
(1.0887 0.0253585 -3.91157e-33)
(1.12789 0.0368701 -3.56708e-20)
(1.17599 0.0513001 4.16424e-33)
(1.24948 0.071389 3.99653e-20)
(1.3293 0.0888336 -6.76008e-20)
(1.47484 0.119045 -3.38807e-20)
(0.80817 -0.0567742 5.62501e-19)
(1.20065 -0.0198175 -1.08213e-19)
(0.941523 0.00361097 -8.49648e-20)
(1.10438 0.00898048 -8.9317e-20)
(1.0788 0.0147116 -9.22937e-21)
(1.1187 0.022104 -5.6094e-20)
(1.16816 0.0305875 -6.35733e-20)
(1.24239 0.0425027 -1.57684e-20)
(1.32217 0.0516769 2.95213e-20)
(1.4657 0.0672076 -1.15339e-19)
(0.729046 -0.0379072 1.83304e-19)
(0.959533 -0.0177432 -7.49248e-35)
(0.717023 0.00320099 -9.22004e-20)
(0.866822 0.000204722 0)
(0.834057 0.00288108 0)
(0.869094 0.00446798 -3.85306e-20)
(0.910938 0.0060629 4.00881e-35)
(0.972657 0.00868784 4.0376e-20)
(1.03998 0.0100763 9.91623e-20)
(1.15004 0.0126432 -9.42649e-20)
(1.47515 0.632646 1.30387e-20)
(1.58381 0.621688 -1.05218e-18)
(1.67984 0.6131 0)
(1.76587 0.58644 -2.48715e-19)
(1.84664 0.53568 -3.22886e-19)
(1.92337 0.464752 -1.67395e-19)
(1.99284 0.379912 2.51252e-19)
(2.0506 0.2861 4.38387e-20)
(2.09363 0.186121 -2.5154e-19)
(2.11988 0.0830715 1.71068e-19)
(1.51139 0.519333 -3.09509e-19)
(1.58691 0.509854 2.99728e-19)
(1.6653 0.494186 -3.49043e-20)
(1.74257 0.461951 2.59201e-19)
(1.81497 0.414404 -1.30829e-19)
(1.88089 0.355556 -3.60274e-19)
(1.93787 0.288948 4.3043e-20)
(1.98349 0.216984 5.32914e-19)
(2.01671 0.141338 -2.55714e-21)
(2.03664 0.0632807 -2.69274e-19)
(1.54508 0.409113 3.91494e-20)