/*--------------------------------*- C++ -*----------------------------------*\
  =========                 |
  \\      /  F ield         | OpenFOAM: The Open Source CFD Toolbox
   \\    /   O peration     | Website:  https://openfoam.org
    \\  /    A nd           | Version:  13
     \\/     M anipulation  |
\*---------------------------------------------------------------------------*/
FoamFile
{
    format      ascii;
    class       surfaceScalarField;
    location    "67";
    object      phi;
}
// * * * * * * * * * * * * * * * * * * * * * * * * * * * * * * * * * * * * * //

dimensions      [0 3 -1 0 0 0 0];

internalField   nonuniform List<scalar> 
823
(
0.00624472
0.0110333
-0.017278
0.037377
-0.00985179
-0.0212805
0.105899
-0.0682212
-0.000300597
0.204794
-0.138795
0.0399005
-0.199688
0.0748768
0.329605
0.00975484
0.00127845
0.0674736
-0.0675706
0.168787
-0.169535
0.284021
-0.25403
-0.325592
0.409925
0.0268956
-0.0256171
0.119052
-0.159727
0.22853
-0.279013
0.325378
-0.350877
-0.385361
0.385147
0.049212
-0.0748291
0.144109
-0.254624
0.218822
-0.353726
0.25875
-0.390804
-0.399182
0.272571
0.0596204
-0.134449
0.125575
-0.320579
0.15967
-0.387821
0.172407
-0.403542
0.181652
-0.408427
-0.02763
0.0408487
-0.0132187
-0.0739728
0.046825
-0.000482214
-0.133065
0.0508943
0.00819774
-0.196313
0.0546649
0.00858285
0.0459789
-0.254262
0.0119707
-0.00806302
0.0489117
-0.0282356
0.0669976
-0.0508991
0.0735579
-0.0708049
0.0745708
0.06156
-0.0863861
0.014447
0.0344648
0.0296505
0.0517941
0.0503481
0.0528603
0.0805932
0.0443257
0.0258937
0.116259
0.0121273
0.0223375
0.0287225
0.0351988
0.0521746
0.0294083
0.0877935
0.00870677
-0.0202434
0.133931
0.0050595
0.0189778
0.0480855
0.0966928
0.151326
0.124457
-0.975532
0.596813
0.425717
-0.498791
0.197531
0.265831
1.85214
-1.69226
0.414772
-0.0953862
-0.0535549
-0.902366
0.861422
0.34304
-1.40496
0.453827
-0.609578
0.299371
2.0066
0.489319
-0.285334
-0.943986
0.426999
-1.7157
0.456849
-0.639428
0.441413
2.02203
0.555471
-0.399392
-0.981837
0.171193
-1.75296
0.226109
-0.694344
0.519215
1.72893
0.61964
-0.499818
-1.01531
0.00783501
-1.60947
-0.0321679
-0.654341
0.470527
1.22623
0.683451
-0.712741
-1.04353
0.956069
-1.30849
-1.25705
0.457198
-0.155471
0.926484
0.756947
1.24565
-1.0319
-0.939037
0.947969
-0.863466
-1.39299
0.705708
0.08679
1.18433
0.278324
1.25377
-1.10134
-0.758289
0.974918
-0.501597
-1.33679
0.964847
0.0968605
1.35358
-0.11041
1.09981
-0.847568
-0.480107
0.969141
-0.223246
-1.24749
1.05643
0.00957208
1.16977
-0.223752
0.719075
-0.396872
-0.157903
0.59939
-0.822636
0.608962
0.38521
-0.0116623
1.12583
0.147783
-1.09196
1.19417
0.204232
1.28698
0.292328
1.33223
0.364676
0.404791
1.03711
0.092911
-0.982235
1.10703
0.134313
1.19188
0.207472
1.29649
0.260071
0.308285
0.970841
0.0460173
-0.923947
1.02365
0.081509
1.10947
0.121648
1.21465
0.154894
0.186145
0.893301
0.0113113
-0.858595
0.947431
0.0273792
1.02724
0.0418432
1.12868
0.053452
0.0673313
0.63263
-0.621319
0.660009
0.701853
0.755305
0.145071
0.310411
-0.252874
-0.202609
0.0964842
0.314482
-0.265895
0.0539748
0.325005
-0.282495
0.0185836
0.317717
-0.282326
0.207564
-0.18898
0.10614
0.347146
-0.142875
0.0689123
0.35171
0.0352072
0.35871
0.00842662
0.344498
0.215991
0.0689171
0.382389
-0.10416
0.0368076
0.383819
0.00921166
0.386306
-0.0061661
0.359875
0.209825
-0.00781654
0.397433
-0.00722744
-0.0250763
0.401079
-0.0341888
0.395418
-0.0270811
0.352768
0.182744
-0.0856173
0.0746233
-0.0880797
-0.0804829
-0.048294
0.200699
0.106576
-0.253468
-0.0538073
0.14681
0.111275
-0.0573847
0.0912792
0.11655
-0.0610201
0.0371225
0.117049
-0.0628925
0.0837476
-0.0466251
0.191737
0.150303
-0.235464
0.145809
0.157203
0.0946148
0.167744
0.0401271
0.171537
0.123875
0.147641
0.196119
-0.193457
0.104564
0.20028
0.0631899
0.209118
0.0238307
0.210896
0.147705
0.15708
0.228842
-0.189803
0.117319
0.240041
0.0721526
0.254285
0.0281362
0.254912
0.175842
0.0946163
-0.118648
0.0687627
0.0405522
0.0131389
0.407441
0.0632931
-0.0747549
0.418687
0.058037
-0.0692829
0.41274
0.162587
-0.156639
0.392431
0.235314
-0.215005
0.474424
-0.335461
0.404553
0.0547197
0.412379
0.0502104
0.403074
0.171892
0.377963
0.260425
0.616923
0.397215
0.053484
0.406919
0.0405065
0.383194
0.195617
0.368709
0.27491
0.792176
0.392246
0.057218
0.394478
0.0382737
0.373577
0.216519
0.340288
0.308199
0.94266
0.383538
0.0696594
0.384808
0.0370037
0.342012
0.259315
0.3157
0.334511
1.13971
0.614813
0.0588664
0.656151
-0.0043345
0.698409
0.217058
0.752467
0.280452
0.854556
1.03762
0.624631
0.0382555
0.677926
-0.0576289
0.739279
0.155704
0.748717
0.271014
0.566026
1.03725
0.642749
-0.000472956
0.681845
-0.0967255
0.717802
0.119748
0.786865
0.201951
0.32309
1.0298
0.652368
-0.0488205
0.63191
-0.0762679
0.691798
0.0598603
0.817853
0.0758958
0.137302
1.00364
0.5552
0.478932
0.538792
0.614688
0.75199
1.06631
-0.231295
1.05172
-0.128284
1.0557
-0.108141
1.05063
-0.00216218
0.0332993
0.982087
-0.176136
0.97065
-0.116847
0.948348
-0.085839
0.963043
-0.0168576
0.0141076
0.964525
-0.110859
0.938214
-0.0905359
0.907619
-0.0552438
0.916639
-0.0258779
0.00679939
0.938404
-0.0456217
0.888727
-0.0408586
0.858826
-0.025343
0.850257
-0.0173094
-0.00153832
0.706368
0.66551
0.640167
0.622857
0.0508554
0.143254
-0.19411
0.0761262
0.323207
-0.348478
0.0763755
0.379843
-0.380092
0.0659158
0.384086
-0.373627
0.35301
0.0528656
-0.33996
0.0741212
0.0691331
0.149773
0.247556
0.185371
0.344245
0.189476
0.379981
0.373972
0.168514
0.0601423
0.00899079
0.179743
0.127955
0.278547
0.24544
0.34567
0.312859
0.369792
0.34985
0.027072
-0.0180812
0.129346
0.0256812
0.257573
0.117213
0.3859
0.184532
0.266302
0.48939
0.0037445
-0.0218257
0.0519813
-0.0225556
0.155662
0.0135318
0.285875
0.0543201
0.113455
0.438722
-0.00544733
-0.0163784
0.00466366
-0.0326666
0.051252
-0.0330566
0.130292
-0.0247196
0.014043
0.229704
-0.00700838
-0.00936999
-0.01145
-0.028225
-0.000991139
-0.0435155
0.0256432
-0.051354
-0.0410991
0.0807853
-0.00393376
-0.00543624
-0.00534597
-0.0268128
-0.00175883
-0.0471026
0.00646884
-0.0595817
-0.0622223
0.027592
-0.00359363
-0.00184261
-0.0051282
-0.0252782
-0.00818382
-0.044047
-0.0152334
-0.052532
-0.0551839
-0.0222719
-0.0150613
-0.0408217
-0.076671
-0.12062
-0.163833
0.400893
0.76917
-0.94036
0.375191
0.527585
-0.501884
0.111943
0.714458
-0.451209
0.0495
-0.0820859
0.144529
-0.609842
0.474172
0.440841
0.409114
0.485032
0.483395
0.216904
0.982586
0.115335
0.0194825
-0.695527
0.406641
0.0300647
0.506904
0.383133
0.248135
1.24135
0.178884
0.0887338
-0.764756
0.294054
-0.286261
0.524908
0.152278
0.281446
1.48482
0.261545
0.108635
-0.818065
0.146718
0.496528
0.289089
0.344169
-0.0309206
0.653997
-0.623077
-0.166612
0.135691
-0.183879
0.0172673
-0.032457
-0.151422
-0.206875
0.820763
-1.10713
0.45457
0.0206279
0.0137351
0.0858843
-0.013823
-0.0720612
0.141701
-0.0558163
0.252844
-0.111143
0.414293
-0.161449
-0.208784
0.197843
-0.1588
0.31054
0.549247
0.877188
0.138977
-0.135745
0.166117
-0.169349
0.106071
-0.140949
0.173855
0.068605
-0.147786
0.185252
0.0280066
-0.146773
0.187371
-0.101395
0.129402
0.180193
-0.0969885
-0.21895
0.136496
-0.0972513
0.086739
-0.0980295
0.0356791
-0.0957128
-0.0657162
0.182927
-0.047556
-0.23236
0.132353
-0.0466776
0.0814599
-0.047136
0.0328293
-0.0470822
-0.0328869
0.199141
0.00322258
-0.249919
0.147663
0.00480069
0.0942982
0.00622843
0.0397049
0.00751104
0.00681805
0.202564
-0.253149
0.14998
0.0951885
0.039807
0.0389176
-0.318724
-0.0601536
0.0139258
-0.348635
-0.0082232
-0.357943
-0.0169186
-0.339783
-0.211028
0.122748
-0.288234
-0.153238
0.0800524
-0.305939
0.0382656
-0.316156
0.0072869
-0.308804
-0.203741
0.141195
-0.248148
-0.181281
0.09898
-0.263724
0.0577596
-0.274936
0.0203329
-0.271377
-0.183408
0.161138
-0.213034
-0.196252
0.118286
-0.220872
0.0722657
-0.228915
0.0285458
-0.227657
-0.154863
0.156427
-0.203343
0.10941
0.0657469
0.0254608
0.388412
0.107614
-0.100047
0.386268
0.100815
-0.0986704
0.353848
0.150792
-0.118372
0.298776
0.0695456
-0.0144736
-0.207164
0.336591
0.396927
0.106667
0.400977
0.096764
0.3938
0.157969
0.344536
0.11881
-0.0815781
0.402557
0.10009
0.411197
0.0881238
0.408951
0.160215
0.369771
0.15799
0.0558331
0.40769
0.0883791
0.41685
0.0789645
0.41949
0.157576
0.388588
0.188891
0.194502
0.409604
0.419285
0.420222
0.394108
0.413366
0.0966852
0.32854
0.0848254
0.242813
0.0857277
0.241544
0.00126839
-0.182377
0.423921
0.506689
0.492844
0.4602
0.446994
0.601209
0.339185
0.0847367
0.263736
0.0754488
0.175518
0.0882178
0.101566
0.0739517
0.0295052
0.482602
0.361798
0.268735
0.189449
)
;

boundaryField
{
    left
    {
        type            calculated;
        value           nonuniform List<scalar> 
17
(
-0.60402
-0.60402
-0.60402
-0.60402
-0.60402
-0.39598
-0.39598
-0.39598
-0.39598
-0.39598
-0.39598
-0.39598
-0.39598
-0.39598
-0.39598
-0.510051
-0.510051
)
;
    }
    right
    {
        type            calculated;
        value           nonuniform List<scalar> 
17
(
0.174418
0.281032
0.18517
0.20102
0.248112
0.314854
0.387526
0.455716
0.530939
0.593322
0.653118
0.711665
1.14115
1.07302
0.821627
0.396871
-0.169565
)
;
    }
    down
    {
        type            calculated;
        value           uniform 0;
    }
    up
    {
        type            calculated;
        value           uniform 0;
    }
    cylinder
    {
        type            calculated;
        value           uniform 0;
    }
    defaultFaces
    {
        type            empty;
    }
}


// ************************************************************************* //
