/*--------------------------------*- C++ -*----------------------------------*\
  =========                 |
  \\      /  F ield         | OpenFOAM: The Open Source CFD Toolbox
   \\    /   O peration     | Website:  https://openfoam.org
    \\  /    A nd           | Version:  13
     \\/     M anipulation  |
\*---------------------------------------------------------------------------*/
FoamFile
{
    format      ascii;
    class       volVectorField;
    location    "67";
    object      U;
}
// * * * * * * * * * * * * * * * * * * * * * * * * * * * * * * * * * * * * * //

dimensions      [0 1 -1 0 0 0 0];

internalField   nonuniform List<vector> 
440
(
(-0.0697356 0.0613134 -6.49376e-20)
(-0.0323453 0.0823117 2.86159e-20)
(0.19709 0.0408977 2.87698e-20)
(0.629002 -0.0033434 9.39259e-20)
(0.93001 -0.0614426 4.35642e-22)
(-0.047345 0.0263776 4.46411e-20)
(0.202575 -0.0464853 -1.41415e-19)
(0.780543 -0.121496 -1.30449e-19)
(1.3661 -0.176345 3.21418e-20)
(1.91787 -0.22321 -2.00711e-20)
(0.0372231 -0.0198485 4.97711e-20)
(0.697418 -0.0980989 9.69258e-19)
(1.51936 -0.111077 -7.39153e-19)
(2.0989 -0.101168 -2.33371e-18)
(2.52447 -0.100745 1.07903e-18)
(0.284831 -0.0640508 -1.80539e-19)
(1.39212 -0.0268636 -7.32782e-19)
(2.14747 0.0195832 2.36381e-18)
(2.50977 0.0422422 2.71246e-18)
(2.52428 0.0430659 -7.41896e-19)
(0.668278 -0.00490923 -3.43845e-19)
(1.89178 0.1678 -7.72657e-19)
(2.40195 0.227965 2.41232e-18)
(2.50972 0.229422 2.51404e-18)
(2.59544 0.205387 8.47473e-19)
(-0.0375258 0.16121 2.16463e-19)
(-0.147461 0.122697 3.62981e-20)
(-0.283104 0.107231 -3.42473e-19)
(-0.432984 0.111836 3.82176e-20)
(-0.54474 0.0657566 2.30278e-20)
(-0.0741952 0.301743 -1.04489e-19)
(-0.139391 0.383756 -6.54209e-19)
(-0.207019 0.413514 1.03157e-19)
(-0.271341 0.41461 1.21656e-19)
(-0.282086 0.325786 -2.69524e-19)
(-0.0871124 0.267087 -2.83872e-19)
(-0.0928071 0.396541 4.53747e-19)
(-0.0699624 0.4391 -8.96622e-20)
(-0.0125624 0.451964 -1.4696e-18)
(0.0539537 0.400582 1.93778e-20)
(-0.0781424 0.156827 -1.71098e-20)
(-0.0933093 0.266734 1.03735e-20)
(-0.0507655 0.279556 3.3111e-20)
(0.0572211 0.236581 2.68676e-19)
(0.191456 0.133433 -3.9686e-20)
(-0.0755338 0.0944575 -5.00881e-21)
(-0.097071 0.159491 -1.91762e-20)
(-0.0202628 0.139235 -3.40461e-20)
(0.166772 0.0650943 2.56065e-20)
(0.389282 -0.00771307 8.36571e-20)
(-0.758852 -0.514733 -1.70859e-18)
(1.45246 -0.259888 -1.35795e-18)
(0.378206 1.23726 6.99824e-19)
(0.937787 -0.0144699 -8.12759e-19)
(1.15148 -0.621001 2.21808e-20)
(0.413927 -0.871223 2.49946e-18)
(1.60332 -0.407291 4.76392e-20)
(0.259243 1.33296 -9.28845e-20)
(1.18125 -0.152281 7.35996e-19)
(1.34108 -0.644608 -1.18598e-19)
(1.74806 -1.143 5.96461e-19)
(1.10422 -0.489332 1.20978e-18)
(0.754276 1.31599 1.04047e-19)
(1.40534 -0.241258 -5.40818e-19)
(1.49854 -0.668375 5.0734e-20)
(2.0177 -1.18335 7.44962e-20)
(-0.195148 -0.434602 -9.85709e-21)
(0.943214 1.27159 9.31427e-19)
(1.6484 -0.293982 5.34329e-19)
(1.64961 -0.670108 -1.87037e-19)
(1.94368 -1.05934 -3.9246e-19)
(-0.914892 -0.411946 1.14129e-18)
(0.392984 1.04768 0)
(1.9889 -0.383774 -5.63853e-20)
(1.79737 -0.660074 -8.61662e-20)
(2.48357 -0.819565 -7.02441e-19)
(0.861326 -0.312482 4.99037e-20)
(0.607182 0.431081 4.30865e-20)
(2.36036 -0.608425 -3.37887e-20)
(1.88908 -0.645935 1.72109e-19)
(2.26359 -0.773749 8.09716e-20)
(0.979867 0.078224 -3.04681e-19)
(1.30233 0.412435 1.98628e-20)
(2.48404 -0.645035 6.33357e-19)
(1.77634 -0.526422 0)
(2.19509 -0.343499 -5.26912e-19)
(1.14055 0.0531961 1.82319e-20)
(2.00842 -0.029974 4.02635e-19)
(2.34309 -0.677297 -3.71702e-19)
(1.36059 -0.418735 1.81553e-20)
(1.87195 -0.272037 -3.83829e-20)
(1.41989 0.0483373 7.23515e-20)
(2.06105 -0.125512 2.57554e-20)
(1.70621 -0.408434 1.20936e-33)
(0.657717 -0.187503 1.60741e-20)
(1.03167 -0.0147294 5.46104e-20)
(1.02219 -0.0316709 2.84924e-20)
(0.989033 -0.136472 -3.90591e-20)
(0.233842 -0.0571078 9.67339e-20)
(-0.279848 -0.00113569 -1.94074e-20)
(2.40282 0.216496 -1.09023e-18)
(2.69031 -0.0214164 -1.40797e-18)
(2.39208 -0.0175505 1.24673e-18)
(2.78455 -0.273426 -1.7219e-20)
(2.07952 -0.138563 -7.4131e-20)
(2.1329 0.163031 3.71993e-20)
(2.48217 -0.0371117 -4.58204e-20)
(2.24976 -0.0238373 -1.48243e-19)
(2.48657 -0.24437 -2.63164e-19)
(2.31283 -0.271037 -4.84866e-21)
(2.09966 0.062377 6.62642e-20)
(2.21507 -0.00519983 1.30355e-19)
(2.19163 -0.0733593 -1.89903e-19)
(2.23603 -0.129299 5.82051e-20)
(2.22932 -0.226662 7.89866e-20)
(2.01841 0.0171646 1.10781e-19)
(1.96731 -0.0215011 9.5622e-20)
(2.09459 -0.0534998 -1.57374e-20)
(2.01271 -0.0953009 4.16432e-20)
(2.12764 -0.124081 9.42569e-21)
(1.45165 -0.0182865 1.52106e-19)
(1.36868 -0.0139405 -1.22419e-20)
(1.46509 -0.0349297 2.48351e-20)
(1.33216 -0.0224118 -1.49562e-21)
(1.44984 -0.0542041 5.04551e-20)
(1.62719 0.853136 1.17692e-18)
(1.56991 0.951645 -3.6375e-19)
(1.56451 1.0856 -1.40724e-18)
(1.49882 1.13863 7.76665e-19)
(0.927193 0.831645 -1.86831e-19)
(1.9076 0.812154 -6.10732e-19)
(1.87371 0.891022 -3.1536e-18)
(1.88047 1.00194 -1.21564e-18)
(1.79893 1.02092 -4.43116e-19)
(1.10971 0.73031 -7.18981e-19)
(2.21243 0.690447 8.25658e-19)
(2.19354 0.760831 2.13814e-19)
(2.17156 0.852916 -2.40898e-18)
(2.04479 0.842857 -6.9109e-19)
(1.22386 0.571408 5.31899e-19)
(2.3884 0.564399 2.51838e-18)
(2.37037 0.612156 1.8436e-18)
(2.37325 0.669808 -2.14267e-18)
(2.17109 0.63209 -1.63686e-18)
(1.2081 0.377825 -3.14502e-19)
(2.51629 0.390266 1.2879e-18)
(2.54872 0.417938 -9.2274e-19)
(2.46273 0.445037 6.48783e-19)
(2.13756 0.395166 5.4472e-19)
(1.03088 0.168762 -4.76075e-19)
(0.574778 0.468798 -6.37674e-19)
(0.485709 0.504247 -4.90872e-19)
(0.367541 0.540131 5.70441e-20)
(0.229392 0.5508 -7.40301e-21)
(0.0575088 0.403442 9.051e-20)
(0.677221 0.647619 1.3014e-19)
(0.613759 0.709607 -2.8776e-19)
(0.527437 0.779777 1.92021e-19)
(0.402772 0.832799 -8.9328e-20)
(0.176094 0.633421 1.26041e-19)
(0.79163 0.826679 1.551e-19)
(0.716696 0.906669 4.81415e-19)
(0.659616 1.00688 9.9101e-20)
(0.576571 1.05857 -3.16067e-19)
(0.317433 0.790409 2.64062e-19)
(1.06832 0.917889 2.48544e-19)
(1.02318 1.00444 -7.28023e-19)
(0.971583 1.1036 -2.00181e-18)
(0.888414 1.17072 8.11428e-19)
(0.526216 0.87715 -1.79433e-19)
(1.14818 0.943426 -1.21886e-19)
(1.17981 1.0708 -2.01937e-19)
(1.20881 1.19312 -3.74831e-19)
(1.16052 1.22695 -4.30409e-19)
(0.717282 0.89082 -6.93839e-21)
(1.02394 0.0509806 -1.04449e-19)
(0.982755 0.04614 -3.85827e-20)
(1.03508 0.115177 -1.42538e-21)
(0.948645 0.155002 -3.30749e-19)
(0.888799 0.28818 3.24293e-19)
(1.01539 0.0479847 6.6391e-20)
(0.991768 0.046463 1.34867e-19)
(1.02695 0.119774 1.38058e-19)
(0.985112 0.185591 4.54636e-20)
(0.935863 0.366811 -1.77343e-20)
(1.02262 0.0467111 9.05544e-20)
(0.970348 0.0414226 -4.99378e-21)
(1.07924 0.136311 -7.41165e-21)
(0.938241 0.186134 1.64179e-19)
(1.15215 0.507703 -5.11815e-19)
(1.01733 0.047175 -4.2122e-22)
(0.981665 0.0338566 -1.85784e-19)
(1.08772 0.146925 -7.25846e-20)
(1.02546 0.197625 -4.12634e-19)
(1.16244 0.548911 1.03139e-19)
(1.01237 0.0423553 -1.62901e-20)
(0.981753 0.032225 5.10485e-20)
(1.14673 0.149502 3.46803e-20)
(0.982232 0.226734 4.77574e-19)
(1.44222 0.681 -4.84811e-19)
(0.973126 0.0467395 -1.36949e-20)
(1.03961 0.00696878 1.07721e-19)
(1.15288 0.175526 -9.40458e-20)
(1.20598 0.156143 8.72538e-19)
(1.30978 0.698618 -4.00266e-19)
(0.909461 0.0240961 -1.53382e-21)
(1.12723 -0.0134188 -1.08625e-19)
(1.14987 0.100041 4.83996e-21)
(1.29483 0.185834 -2.54461e-19)
(1.24854 0.426048 -1.49436e-20)
(0.951849 0.0272048 -9.11927e-21)
(1.13882 -0.0554502 1.50067e-35)
(1.15486 0.0899469 -6.11918e-20)
(1.20784 0.159844 7.66199e-20)
(1.4617 0.258442 1.75464e-19)
(1.0768 -0.028438 4.07209e-21)
(1.04312 -0.069438 -2.49215e-20)
(1.08681 0.0598374 1.70509e-20)
(1.18527 0.0914165 3.28019e-20)
(1.5768 0.135366 -2.64125e-19)
(0.999893 -0.0252134 -4.32492e-20)
(0.795151 -0.0226084 -2.53672e-21)
(0.826305 0.0156105 2.57048e-20)
(0.940308 0.00132163 -1.0328e-20)
(1.13455 0.0321037 -6.04261e-20)
(1.89524 0.654117 3.34951e-19)
(1.94349 0.665761 8.26744e-19)
(2.25357 0.539187 -1.18405e-18)
(2.25292 0.48906 4.73385e-20)
(2.52718 0.285302 5.01963e-19)
(1.80376 0.434538 7.03894e-20)
(1.77519 0.43269 1.04105e-18)
(2.09138 0.355427 1.0408e-19)
(1.97872 0.324379 -9.68546e-19)
(2.34312 0.168212 -3.16075e-19)
(1.72176 0.297178 -2.27077e-19)
(1.80249 0.254664 -1.52354e-19)
(1.93317 0.230869 2.3366e-19)
(1.96636 0.175893 -3.03679e-19)
(2.11402 0.115159 2.71734e-19)
(1.65975 0.163799 3.32414e-19)
(1.76812 0.133821 -3.97164e-21)
(1.77197 0.120809 2.16779e-19)
(1.90017 0.0836051 1.83706e-19)
(1.88396 0.0506982 -1.78866e-19)
(1.27314 0.0396939 -3.75847e-20)
(1.31853 0.0251926 2.1619e-19)
(1.32954 0.0189711 9.98675e-20)
(1.39609 0.00201117 -2.15476e-19)
(1.37162 -0.00196608 4.6713e-22)
(1.13803 -0.0249377 4.96951e-20)
(2.16847 -0.0486469 -4.07923e-19)
(2.40493 -0.0367225 1.15768e-18)
(2.39856 0.00602746 5.23186e-19)
(2.23451 0.0329528 -3.48301e-19)
(0.692414 0.0887775 8.58862e-20)
(1.94248 0.0780294 -4.23664e-19)
(2.41945 0.0815482 -5.66369e-19)
(2.46921 0.0940735 7.00486e-19)
(2.22597 0.0846276 -4.43496e-19)
(0.186656 0.067799 -3.22127e-20)
(1.29586 0.136971 4.41302e-19)
(2.07355 0.162958 6.76926e-20)
(2.48131 0.158349 4.46789e-19)
(2.63215 0.158163 2.35776e-19)
(-0.0632266 -0.0365862 1.96657e-19)
(0.440892 0.062112 1.93608e-19)
(1.27154 0.139724 -4.14949e-19)
(1.79384 0.182608 2.3664e-20)
(2.42251 0.217132 6.44581e-20)
(-0.115148 -0.0937664 1.29891e-19)
(-0.0352494 -0.0687891 -1.50841e-19)
(0.432837 0.0161024 -2.16299e-20)
(0.903949 0.0490545 6.82751e-21)
(1.39931 0.139388 -3.78319e-20)
(-0.0887652 -0.0944283 1.3517e-20)
(-0.160152 -0.143197 8.44607e-20)
(-0.0518617 -0.1547 5.79458e-20)
(0.126365 -0.136008 -5.87871e-20)
(0.570085 -0.0538695 6.07592e-21)
(-0.0488049 -0.0645956 -4.54134e-21)
(-0.133454 -0.149996 -4.00795e-20)
(-0.158577 -0.215323 -2.34595e-20)
(-0.129228 -0.242899 -4.69172e-21)
(0.0262673 -0.172336 1.11137e-21)
(-0.0201271 -0.0341818 9.26951e-21)
(-0.078348 -0.141784 1.48332e-19)
(-0.117542 -0.254486 -1.23205e-19)
(-0.135287 -0.334541 -3.82065e-19)
(-0.114652 -0.346111 1.07803e-19)
(-0.0120097 -0.0280067 -1.6523e-20)
(-0.0552082 -0.167832 -1.12792e-19)
(-0.0864032 -0.2989 3.28008e-19)
(-0.118997 -0.372186 3.26663e-19)
(-0.137889 -0.393029 -7.9979e-20)
(-0.0130718 0.0139828 3.72579e-21)
(-0.0843619 -0.114371 -2.45417e-20)
(-0.166979 -0.197243 8.03706e-21)
(-0.261717 -0.206464 4.68831e-20)
(-0.354049 -0.19738 4.7185e-20)
(1.42744 0.603329 -2.2315e-20)
(1.60318 0.337382 7.3034e-19)
(0.880112 0.38179 1.14569e-19)
(-0.240344 -0.0786853 6.40877e-20)
(0.467132 -0.359636 -4.20929e-20)
(1.0733 0.431078 4.11977e-20)
(1.72233 0.34681 -2.51141e-19)
(1.12114 0.563483 6.4393e-19)
(0.0667122 -0.0196364 1.74711e-21)
(0.50752 -0.431339 2.03796e-19)
(0.509815 0.160662 1.83227e-19)
(1.69152 0.337065 -4.76527e-19)
(1.06256 0.77174 -4.29381e-20)
(0.269071 0.0491145 -3.24677e-20)
(0.626807 -0.491478 -3.1533e-20)
(-0.19369 -0.129511 2.54699e-19)
(1.6703 0.2028 6.78537e-19)
(0.947328 0.926604 -5.39288e-19)
(0.508039 0.0761361 1.26419e-21)
(0.795632 -0.539141 -1.00982e-19)
(-0.834026 -0.281178 1.43635e-19)
(1.55722 0.00317203 2.67711e-19)
(0.747449 1.11294 6.29288e-19)
(0.727299 0.0906177 -2.18639e-20)
(0.979313 -0.57409 -1.1965e-19)
(0.129639 0.185261 -5.16382e-20)
(-0.273156 -0.159559 0)
(-0.333273 -0.0890209 1.21371e-20)
(-0.444412 -0.0631164 -2.16342e-21)
(0.340975 -0.046231 9.62265e-21)
(1.8319 0.553499 0)
(1.30573 0.318248 0)
(0.544186 0.117256 -6.5597e-20)
(-0.481445 -0.11998 -8.21899e-20)
(0.550234 -0.217924 1.2354e-19)
(0.709016 0.00167601 -1.13508e-19)
(0.734194 -0.00734442 9.48334e-20)
(1.0038 0.0047114 -4.59472e-20)
(0.936213 0.00192458 3.2516e-19)
(1.42615 0.0939101 2.28825e-19)
(1.61256 0.0259725 1.06343e-19)
(1.76422 0.0659814 1.85627e-19)
(1.95232 0.0428398 -3.35337e-19)
(2.51408 0.19066 1.07098e-21)
(2.26828 0.125022 1.6371e-19)
(0.886885 -0.463536 -1.2296e-20)
(0.87236 -0.550345 -1.46192e-19)
(0.86381 -0.644832 -1.16913e-19)
(0.792029 -0.709078 7.1014e-20)
(0.475815 -0.549665 1.15175e-19)
(0.793125 -0.370447 1.2766e-19)
(0.737621 -0.432787 2.57768e-19)
(0.661931 -0.499217 -3.79638e-20)
(0.5458 -0.553695 1.18988e-19)
(0.292389 -0.434093 4.15379e-20)
(0.634673 -0.231086 -1.64918e-19)
(0.543548 -0.267167 -4.3214e-20)
(0.441489 -0.31352 1.19062e-19)
(0.32564 -0.354887 -1.34841e-20)
(0.142447 -0.279505 -1.01151e-19)
(0.541791 0.00205921 -4.43057e-19)
(0.456576 -0.0114444 -3.67531e-19)
(0.3481 -0.0350562 2.87308e-19)
(0.222097 -0.0671795 1.86565e-19)
(0.0593003 -0.0706478 1.40999e-20)
(0.519647 0.207658 -1.83102e-19)
(0.434018 0.213186 -1.8055e-19)
(0.318845 0.217784 -8.13258e-20)
(0.183749 0.223956 1.7017e-20)
(0.0265237 0.168213 1.19176e-20)
(1.98878 -0.0398004 7.53372e-19)
(2.2418 -0.105351 2.71867e-19)
(2.31782 -0.188109 -7.05585e-19)
(2.16462 -0.214696 -1.42661e-18)
(1.28955 -0.185072 1.06499e-19)
(1.96565 -0.121032 1.26927e-18)
(2.05781 -0.228469 1.66243e-18)
(2.06896 -0.346528 1.35754e-19)
(1.98559 -0.40482 2.32907e-19)
(1.26149 -0.350887 -1.5357e-19)
(1.68812 -0.28026 -3.30466e-18)
(1.74257 -0.393426 3.9532e-19)
(1.78374 -0.51348 1.02647e-18)
(1.7193 -0.584766 -3.99054e-19)
(1.10679 -0.489931 6.19337e-19)
(1.47387 -0.397578 7.86951e-19)
(1.48967 -0.491476 -2.05332e-18)
(1.47394 -0.604423 -2.39056e-18)
(1.40196 -0.687694 7.33608e-19)
(0.896216 -0.560675 4.79658e-19)
(1.19466 -0.455007 1.65738e-19)
(1.14391 -0.544108 2.18448e-19)
(1.12892 -0.660423 -3.56761e-19)
(1.07013 -0.740755 -4.30545e-19)
(0.67141 -0.581888 -4.06288e-21)
(1.07145 0.0574569 7.88222e-21)
(0.914564 0.0572986 -6.3224e-21)
(1.12204 0.0772221 -8.46194e-21)
(0.790335 0.0132944 -1.76461e-19)
(1.09735 -0.205221 -6.00859e-21)
(1.08086 0.0610216 -2.62767e-21)
(0.913634 0.0556942 5.72987e-20)
(1.11717 0.094373 -5.6092e-20)
(0.879691 0.0595707 8.544e-20)
(0.975622 -0.0881623 -2.68358e-20)
(1.07901 0.0583341 -6.46228e-20)
(0.918096 0.0526402 6.0566e-22)
(1.10459 0.0947936 -2.22822e-20)
(0.877813 0.0845266 -6.35671e-21)
(0.953743 -0.0301018 -1.46662e-19)
(1.05981 0.0567574 7.92329e-20)
(0.947812 0.0493203 3.66128e-21)
(1.06536 0.100418 3.60553e-20)
(0.922659 0.110433 5.15188e-20)
(0.857674 0.0845076 1.2317e-19)
(1.03594 0.0531202 2.00412e-20)
(0.976672 0.0493631 -3.25207e-20)
(1.03417 0.103794 4.83932e-20)
(0.95102 0.139934 9.22282e-20)
(0.835042 0.18187 -1.31719e-19)
(0.890848 0.033918 0)
(0.701283 0.0281375 1.04592e-20)
(0.605191 0.0232627 2.48592e-21)
(0.334842 -0.00571539 4.14492e-20)
(0.651788 -0.0531902 -1.03643e-19)
(1.03852 0.0762374 -6.6282e-20)
(0.925292 0.0726242 -2.13182e-20)
(1.02595 0.0779353 -2.49075e-20)
(0.795585 0.00691368 -9.06296e-20)
(1.00877 -0.187452 -1.09659e-19)
(0.90613 -0.0620102 -2.49961e-20)
(0.98739 -0.0310281 4.39908e-19)
(1.07444 0.0366694 2.79337e-19)
(0.948367 0.0528359 2.2365e-20)
(0.735578 0.0274067 0)
(1.27345 -0.305904 2.47232e-19)
(1.38401 -0.270088 1.30922e-18)
(1.55486 -0.154066 -1.50194e-18)
(1.64244 -0.0214684 -4.68856e-19)
(1.54876 0.0260307 3.42709e-19)
)
;

boundaryField
{
    left
    {
        type            fixedValue;
        value           uniform (1 0 0);
    }
    right
    {
        type            zeroGradient;
    }
    down
    {
        type            noSlip;
    }
    up
    {
        type            noSlip;
    }
    cylinder
    {
        type            noSlip;
    }
    defaultFaces
    {
        type            empty;
    }
}


// ************************************************************************* //
