# Selection   : all
# Cells       : 440
# Volume      : 7.374263e+01
# Time        	minMag(U)
9.315         	6.449725e-03
9.36          	7.495593e-03
9.41          	8.637131e-03
