# Selection   : all
# Cells       : 440
# Volume      : 7.374263e+01
# Time        	maxMag(U)
2             	2.618240e+00
2.05          	2.611820e+00
2.1           	2.605328e+00
