/*--------------------------------*- C++ -*----------------------------------*\
  =========                 |
  \\      /  F ield         | OpenFOAM: The Open Source CFD Toolbox
   \\    /   O peration     | Website:  https://openfoam.org
    \\  /    A nd           | Version:  13
     \\/     M anipulation  |
\*---------------------------------------------------------------------------*/
FoamFile
{
    format      ascii;
    class       surfaceScalarField;
    location    "0.64";
    object      phi;
}
// * * * * * * * * * * * * * * * * * * * * * * * * * * * * * * * * * * * * * //

dimensions      [0 3 -1 0 0 0 0];

internalField   nonuniform List<scalar> 
823
(
0.0113777
-0.0505545
0.0391768
0.0387586
-0.133436
0.106055
0.0788324
-0.205877
0.165804
0.130172
-0.268869
0.217529
-0.323257
0.259411
0.194018
0.010703
-0.0612575
0.036143
-0.158876
0.0726481
-0.242383
0.117973
-0.314194
-0.375599
0.170315
0.00837701
-0.0696345
0.0282851
-0.178784
0.0567257
-0.270823
0.0918109
-0.349279
-0.41605
0.132262
0.00529928
-0.0749338
0.0179957
-0.19148
0.0362298
-0.289057
0.0588843
-0.371933
-0.442415
0.0852491
0.00196198
-0.0768957
0.00663008
-0.196148
0.0132898
-0.295717
0.0215221
-0.380166
0.0310625
-0.451955
0.00665019
-0.0107489
0.00409866
0.0221878
-0.0309024
0.0153647
0.0453918
-0.0484892
0.0252852
0.0745397
-0.0639256
0.0347777
-0.077013
0.108193
0.0433595
0.00575351
-0.0165024
0.0214764
-0.0466253
0.0466869
-0.0736997
0.07973
-0.0969688
-0.116083
0.1188
0.00639272
-0.0228951
0.0236539
-0.0638864
0.0512284
-0.101274
0.0879056
-0.133646
-0.160111
0.131934
0.0075361
-0.0304312
0.0270872
-0.0834375
0.0573163
-0.131503
0.0970227
-0.173352
-0.207894
0.144805
0.00874557
0.031363
0.0656633
0.10984
0.161357
0.322515
-0.957343
0.743022
0.474301
-0.82195
0.670163
0.573099
-0.353284
0.254486
0.61365
-0.0677029
0.0271523
0.00205067
-0.00682926
0.330427
-1.16897
0.471068
-0.96259
0.575009
-0.457225
0.632717
-0.125411
-0.0160432
0.336611
-1.37365
0.461237
-1.08722
0.562904
-0.558892
0.627787
-0.190294
-0.0427105
0.337489
-1.56633
0.448369
-1.1981
0.540654
-0.651178
0.61124
-0.260879
-0.0788676
0.327758
-1.73273
0.428347
-1.29868
0.508866
-0.731697
0.576238
-0.328251
-0.114077
1.19772
-1.59017
-1.34029
1.00789
-1.10885
0.891563
-0.615367
0.841701
-0.27839
-0.0928515
1.32989
-1.13296
-1.78711
0.982244
-0.761203
0.77461
-0.407733
0.687031
-0.190811
-0.0661728
1.1895
-0.607628
-1.71483
0.816376
-0.388079
0.61095
-0.202308
0.517853
-0.097713
-0.0354939
0.822387
-0.185284
-1.24473
0.545355
-0.111047
0.396511
-0.0534637
0.32547
-0.026672
-0.0105724
0.30672
-0.492004
0.195673
0.142209
0.115537
1.56259
0.0462506
-1.57778
1.52169
0.126158
1.46266
0.19129
1.39633
0.236647
0.250058
1.67586
0.0356517
-1.66527
1.69933
0.102696
1.73082
0.159798
1.76529
0.202175
0.228241
1.38797
0.0184775
-1.37079
1.43706
0.0536076
1.51388
0.082977
1.61016
0.105893
0.123571
0.977699
0.00531452
-0.964536
1.01588
0.0154231
1.07582
0.0230444
1.15388
0.0278275
0.0327221
0.392987
-0.387673
0.40841
0.431455
0.459282
0.128772
0.327624
-0.264664
-0.191732
0.0781586
0.273213
-0.2226
0.0385241
0.209793
-0.170159
0.01134
0.136444
-0.10926
0.0519536
-0.0406137
0.115952
0.378905
-0.167233
0.0714969
0.317668
0.035618
0.245672
0.0105609
0.161501
0.0625146
0.0888493
0.418274
-0.128219
0.0548106
0.351707
0.0272875
0.273195
0.00806485
0.180724
0.0705794
0.055241
0.443533
-0.0805004
0.0337631
0.373185
0.016655
0.290303
0.00486426
0.192515
0.0754437
0.0174806
-0.0259024
0.0104998
0.00508592
0.00145207
0.0725993
0.0873107
-0.107217
-0.0526927
0.0428636
0.073692
-0.0439564
0.0197222
0.0569248
-0.0337834
0.00513363
0.0367975
-0.022209
0.0132896
-0.00815597
0.076025
0.125889
-0.114603
0.0437235
0.105993
0.0196452
0.0810031
0.00509108
0.0513517
0.0183807
0.0844173
0.16855
-0.127078
0.0491011
0.14131
0.02274
0.107364
0.00617553
0.0679161
0.0245562
0.0940771
0.214676
-0.140203
0.0557826
0.179604
0.0265322
0.136615
0.00743019
0.0870181
0.0319864
0.107409
-0.157396
0.064413
0.0308691
0.00862732
0.512934
0.1744
-0.291354
0.561429
0.162822
-0.211316
0.496226
0.313127
-0.247925
0.334681
0.803402
-0.641856
1.04115
-0.813684
0.512836
0.057543
0.5587
0.116958
0.486857
0.384971
0.331228
0.95903
1.25777
0.512658
-0.0591355
0.545466
0.08415
0.466465
0.463972
0.328147
1.09735
1.45884
0.508987
-0.172143
0.524694
0.0684432
0.441852
0.546814
0.324009
1.21519
1.64265
0.498423
-0.274587
0.494634
0.0722328
0.412911
0.628537
0.312159
1.31594
1.79741
0.765379
-0.435945
0.846476
-0.0088641
0.956613
0.518399
1.16944
1.10311
1.6193
1.34755
0.708537
-0.540462
0.78406
-0.0843868
0.955276
0.347183
1.29787
0.760518
1.1434
1.77378
0.602401
-0.538843
0.633603
-0.115588
0.803762
0.177023
1.17257
0.391706
0.612026
1.70395
0.448465
-0.383287
0.405769
-0.0728925
0.536215
0.0465775
0.816014
0.111907
0.186913
1.24113
0.220733
0.14784
0.194418
0.306325
0.493239
1.40258
-0.246767
1.46574
-0.23039
1.52299
-0.185474
1.56316
-0.120663
-0.0405277
1.75267
-0.225661
1.71975
-0.197466
1.69062
-0.15635
1.67084
-0.10088
-0.0349529
1.60148
-0.123191
1.50876
-0.104753
1.43456
-0.0821468
1.38705
-0.053371
-0.0186944
1.15107
-0.0331318
1.0743
-0.0279873
1.0153
-0.0231427
0.977571
-0.0156445
-0.00565987
0.460107
0.43212
0.408977
0.393332
0.0025015
0.043008
-0.0455095
0.00732823
0.101055
-0.105882
0.0160958
0.148401
-0.157168
0.0165791
0.151915
-0.152398
0.114032
0.0148147
-0.112268
0.00682869
0.0361793
0.0201787
0.0877048
0.0409595
0.12762
0.0482569
0.144617
0.116386
0.0459034
0.00880969
0.0273696
0.0270778
0.0694367
0.0521528
0.102545
0.0730946
0.123676
0.114039
0.0754408
0.00780165
0.0195679
0.0255146
0.0517237
0.0497503
0.0783092
0.0774331
0.0959929
0.0992475
0.092225
0.00509912
0.0144688
0.0179739
0.0388489
0.0367676
0.0595155
0.0600097
0.0727507
0.0767494
0.0825078
0.0034241
0.0110447
0.0125812
0.0296919
0.0274434
0.0446532
0.0470557
0.0531384
0.0561587
0.0676463
0.0022234
0.0088213
0.00892997
0.0229853
0.0222626
0.0313205
0.0410091
0.0343918
0.034778
0.0623898
0.0016712
0.00715009
0.0101176
0.0145388
0.0261671
0.015271
0.0467157
0.0138432
0.0115355
0.0699582
0.00373398
0.00341609
0.0175269
0.000745815
0.0368595
-0.00406166
0.0598758
-0.00917309
-0.0143683
0.0857796
0.0075147
0.0236252
0.0448487
0.0704533
0.0994445
0.153773
0.0198829
-0.106009
0.243284
-0.130202
0.0406908
0.264612
-0.0379639
0.0166352
0.26987
0.00319053
-0.00844851
-0.00197459
-0.00443109
0.214725
-0.132452
0.325157
-0.240634
0.351272
-0.0640796
0.354056
0.000407054
-0.00478707
0.260035
-0.322529
0.391257
-0.371855
0.433404
-0.106227
0.434831
-0.00102027
-0.00286378
0.293295
-0.530045
0.43858
-0.517139
0.50234
-0.169987
0.508486
-0.00716635
0.00240046
0.312421
0.465445
0.549943
0.569929
0.0706595
0.0386854
-0.109345
0.0786191
-0.00795958
0.0829253
-0.00430627
0.0804247
0.00250059
0.00110394
0.194066
-0.26139
0.226797
0.239126
0.233178
0.0207326
-0.00433163
-0.0164009
0.0342832
-0.0135506
0.0567623
-0.0224791
0.0856223
-0.0288599
-0.0237226
0.0539251
-0.043442
0.0862778
0.13924
0.202605
0.0478343
-0.055143
0.0763505
-0.0690418
0.0275595
-0.0521631
0.0724379
0.0123376
-0.044376
0.0595979
0.00331788
-0.0300409
0.0390606
-0.0112611
0.014579
0.0454053
-0.0322561
-0.0682922
0.0249728
-0.0317305
0.00982889
-0.0292321
0.0021912
-0.0224032
-0.00906988
0.0560733
-0.00667189
-0.0816575
0.0331359
-0.00879318
0.014287
-0.0103831
0.00259228
-0.0107085
-0.00647759
0.0700904
0.021567
-0.0983294
0.0448225
0.0164748
0.0233615
0.0110779
0.00692179
0.00573127
0.000444201
0.0743765
-0.105502
0.0468949
0.0241895
0.00771177
0.0165858
-0.11403
-0.0148231
0.016095
-0.151908
0.00730694
-0.14838
0.00248924
-0.101064
-0.0430202
0.0482729
-0.116375
-0.0459281
0.0409334
-0.144568
0.0201647
-0.127611
0.00682151
-0.0877206
-0.0361987
0.073127
-0.113969
-0.0755329
0.0521253
-0.123566
0.0270662
-0.102552
0.00880664
-0.0694611
-0.0273921
0.077342
-0.0989698
-0.0923414
0.0496227
-0.095847
0.0254342
-0.0783638
0.00777587
-0.0518028
-0.0196162
0.0599545
-0.0825738
0.0365453
0.0177794
0.00503722
0.341934
0.583343
-0.529298
0.280575
0.225024
-0.163665
0.247622
0.0544394
-0.0214868
0.16536
0.114042
-0.0317803
-0.000851124
0.0971697
0.407859
0.571463
0.371477
0.261407
0.335807
0.0901091
0.233608
0.216242
0.164464
0.459992
0.507451
0.451533
0.269866
0.40936
0.132282
0.283779
0.341823
0.366586
0.495827
0.407604
0.51489
0.250803
0.461425
0.185747
0.317788
0.48546
0.586044
0.512229
0.551716
0.489538
0.333141
0.158667
0.351384
0.084771
0.0738956
0.0801191
0.00465194
0.0724428
0.00767631
-0.0369575
0.1094
0.332138
0.242368
0.225534
0.20143
0.261642
0.0856726
0.0237276
0.0567942
0.0288785
0.0342942
0.0224999
0.0207361
0.0135582
0.00433512
0.202796
0.139333
0.0862999
0.05393
)
;

boundaryField
{
    left
    {
        type            calculated;
        value           nonuniform List<scalar> 
17
(
-0.60402
-0.60402
-0.60402
-0.60402
-0.60402
-0.39598
-0.39598
-0.39598
-0.39598
-0.39598
-0.39598
-0.39598
-0.39598
-0.39598
-0.39598
-0.510051
-0.510051
)
;
    }
    right
    {
        type            calculated;
        value           nonuniform List<scalar> 
17
(
0.0793208
0.22985
0.276276
0.356868
0.432908
0.503222
0.5655
0.618428
0.650811
0.654454
0.647397
0.611448
0.820475
0.660353
0.487174
0.300549
0.104965
)
;
    }
    down
    {
        type            calculated;
        value           uniform 0;
    }
    up
    {
        type            calculated;
        value           uniform 0;
    }
    cylinder
    {
        type            calculated;
        value           uniform 0;
    }
    defaultFaces
    {
        type            empty;
    }
}


// ************************************************************************* //
