/*--------------------------------*- C++ -*----------------------------------*\
  =========                 |
  \\      /  F ield         | OpenFOAM: The Open Source CFD Toolbox
   \\    /   O peration     | Website:  https://openfoam.org
    \\  /    A nd           | Version:  13
     \\/     M anipulation  |
\*---------------------------------------------------------------------------*/
FoamFile
{
    format      ascii;
    class       surfaceScalarField;
    location    "5.67";
    object      phi;
}
// * * * * * * * * * * * * * * * * * * * * * * * * * * * * * * * * * * * * * //

dimensions      [0 3 -1 0 0 0 0];

internalField   nonuniform List<scalar> 
823
(
-0.000561823
0.0159914
-0.0154296
0.0128497
0.0146414
-0.0280529
0.0627196
-0.0180613
-0.0318086
0.152645
-0.0731915
-0.0167341
-0.0749593
-0.0464181
0.274023
0.00336796
0.0126234
0.0412063
-0.0231969
0.122402
-0.0992565
0.224722
-0.175512
-0.236724
0.386487
0.0192233
-0.00659983
0.0966222
-0.100596
0.207079
-0.209714
0.32113
-0.289563
-0.343909
0.428314
0.0388121
-0.0454119
0.135264
-0.197047
0.229902
-0.304352
0.297946
-0.357607
-0.376832
0.33087
0.055652
-0.101064
0.136328
-0.277723
0.189695
-0.357719
0.214129
-0.382041
0.226667
-0.38937
-0.0133517
-0.0484779
0.0618296
-0.0405423
-0.0638228
0.0910133
-0.0712794
-0.0562185
0.0869555
-0.101969
-0.043714
0.0744032
-0.0301579
-0.132173
0.0603623
-0.0247543
-0.0237236
-0.0636719
-0.0249051
-0.102197
-0.0176937
-0.136897
-0.0090131
0.00153748
-0.168593
-0.0202435
-0.0034801
-0.0503286
0.00518001
-0.0808697
0.0128474
-0.107243
0.0173605
0.0236477
-0.129354
-0.0078214
0.00434131
-0.0192695
0.0166281
-0.0345909
0.0281688
-0.0507851
0.0335548
0.0416783
-0.0688157
-0.0110883
-0.0225131
-0.0261529
-0.00933225
-0.0140721
-0.175405
0.225658
-0.182426
-0.0988533
1.10408
-1.18063
0.197969
0.26125
-0.558072
0.390438
-0.839064
0.646594
-0.707205
0.648431
-0.19647
0.253535
-0.0174466
0.925054
0.337225
-0.0934216
0.492745
-0.994584
-0.744458
-0.0883668
0.212548
0.157432
0.679255
0.504593
-0.440583
0.623165
-1.11315
-0.74355
0.040484
0.103249
0.33509
0.384649
0.621887
-0.72738
0.722192
-1.21346
-0.729894
0.126296
-0.03712
0.449772
0.0611735
0.648447
-0.926055
0.732824
-1.29784
-0.728935
0.934478
0.0589729
-1.03057
1.18897
-0.193317
1.32492
-1.06201
1.22872
-1.20163
-0.594862
1.37035
0.043483
-1.35486
1.51417
-0.337133
1.43254
-0.98038
1.148
-0.917094
-0.395898
1.43631
-0.0500279
-1.3428
1.49089
-0.391705
1.25537
-0.744862
0.917018
-0.578743
-0.218332
1.39724
-0.0855455
-1.36172
1.31493
-0.309391
0.966943
-0.396879
0.584295
-0.196095
-0.0462021
0.895989
-0.981535
0.586599
0.189719
-0.00637608
1.0917
0.18092
-1.04595
1.1675
0.255073
1.2528
0.343014
1.21203
0.42725
0.455485
0.995108
0.111733
-0.925922
1.06129
0.188891
1.1672
0.237106
1.26173
0.332716
0.362355
0.925309
0.056828
-0.870404
0.989777
0.124423
1.08533
0.141557
1.20964
0.208401
0.229192
0.923472
0.0149911
-0.881635
1.0011
0.0467952
1.09148
0.051182
1.21948
0.080399
0.086948
0.716211
-0.70122
0.763006
0.814188
0.894587
0.13058
0.30101
-0.249878
-0.181713
0.085913
0.307864
-0.263197
0.0461397
0.318499
-0.278726
0.0142825
0.308785
-0.276928
0.197697
-0.183415
0.0921625
0.337978
-0.12913
0.0568247
0.343202
0.0259047
0.349419
0.00267172
0.332018
0.200369
0.0480372
0.369471
-0.0795298
0.0187644
0.372474
-0.00430381
0.372487
-0.0119887
0.339703
0.18838
-0.0366353
0.383613
0.0224931
-0.0486489
0.384488
-0.0509921
0.37483
-0.03467
0.323381
0.15371
-0.117862
0.112105
-0.115415
-0.0983039
-0.0526464
0.2039
0.0997064
-0.258561
-0.0450453
0.148327
0.103774
-0.0482023
0.0919294
0.107759
-0.0513614
0.0374635
0.106843
-0.0523771
0.0752451
-0.0377817
0.207285
0.144649
-0.252227
0.158814
0.152245
0.103971
0.162602
0.0446311
0.166183
0.119876
0.142075
0.189755
-0.187182
0.100917
0.193403
0.0607351
0.202785
0.0224201
0.204498
0.142296
0.161539
0.225691
-0.197475
0.119427
0.235515
0.0733027
0.248909
0.0284826
0.249318
0.170779
0.0977437
-0.12193
0.070062
0.0402451
0.0126359
0.405523
0.0589764
-0.0685202
0.426957
-0.000815455
-0.0206184
0.40894
0.200057
-0.182039
0.39787
0.15553
-0.144461
0.421953
-0.282643
0.4045
0.0504564
0.421792
-0.0181076
0.39774
0.224109
0.385749
0.167521
0.555475
0.399336
0.0470999
0.415677
-0.0344487
0.374479
0.265308
0.369773
0.172226
0.738066
0.397205
0.0458742
0.398752
-0.0359956
0.360744
0.303316
0.35608
0.176891
0.896671
0.390396
0.0514577
0.38401
-0.02961
0.337237
0.350089
0.333275
0.180853
1.10802
0.629568
0.0259098
0.634819
-0.0348606
0.674824
0.310085
0.785234
0.0704431
0.90471
0.988539
0.644427
-0.014497
0.616468
-0.00690185
0.714628
0.211925
0.817637
-0.0325659
0.687219
1.03513
0.640856
-0.051333
0.630055
0.00389946
0.745878
0.0961018
0.793282
-0.0799696
0.508655
0.971846
0.619028
-0.066341
0.645062
-0.0221345
0.740056
0.00110757
0.698922
-0.0388355
0.285118
0.922459
0.537679
0.515545
0.516653
0.477817
0.762935
1.01657
-0.209743
1.0087
-0.121263
1.00553
-0.0763537
1.00984
0.0181807
0.0759917
0.969962
-0.144577
0.935333
-0.0866343
0.900006
-0.041027
0.912909
0.00527829
0.0629785
0.894752
-0.067483
0.861262
-0.0531438
0.838491
-0.0182558
0.850969
-0.00719954
0.0435432
0.877199
-0.0222233
0.849774
-0.0257187
0.844193
-0.0126751
0.849785
-0.012791
0.0116924
0.740712
0.714993
0.702318
0.689527
0.0548725
0.169289
-0.224162
0.0802997
0.361792
-0.387219
0.0802903
0.416156
-0.416146
0.0700963
0.417723
-0.407529
0.385255
0.0575511
-0.372709
0.0828843
0.0864049
0.160581
0.284095
0.19604
0.380697
0.200815
0.412948
0.404964
0.181105
0.0698628
0.0165422
0.19718
0.156777
0.297083
0.280794
0.362625
0.347406
0.400701
0.366888
0.0326452
-0.016103
0.147512
0.041911
0.284439
0.143868
0.416559
0.215285
0.297319
0.519941
0.00534867
-0.0214517
0.0632397
-0.01598
0.17754
0.0295669
0.316367
0.0764579
0.144693
0.468993
-0.00293887
-0.0185128
0.0156713
-0.0345902
0.0744065
-0.0291683
0.164805
-0.0139408
0.0340246
0.275474
0.00323656
-0.0217494
0.0171661
-0.0485198
0.044526
-0.0565282
0.0815038
-0.0509186
-0.0290177
0.144546
0.0152794
-0.0370288
0.040533
-0.0737735
0.0658962
-0.0818913
0.0891719
-0.0741943
-0.0594481
0.119602
0.020241
-0.0572698
0.0429358
-0.0964682
0.060019
-0.0989745
0.0732239
-0.0873992
-0.0716841
0.0854599
0.00455981
-0.00089509
-0.0129141
-0.0259101
-0.0372319
0.390479
0.773042
-0.888047
0.309855
0.598232
-0.517608
0.16525
0.273178
-0.128572
0.155219
-0.0656991
0.0757301
-0.224481
0.135349
0.367658
0.54993
0.240004
0.725886
0.0494237
0.463758
0.0844506
-0.100726
-0.34708
0.336761
0.332772
0.139792
0.922854
-0.0317087
0.635258
0.0884575
-0.220892
-0.475497
0.207351
0.210881
0.0172203
1.11298
-0.0375904
0.690069
0.164339
-0.422822
-0.575766
-0.0087769
-0.0764215
0.055576
0.279348
0.0533265
0.611641
-0.664967
-0.117474
0.170801
-0.037024
-0.0804501
0.0724186
-0.109443
-0.072085
0.91229
-1.1887
0.565483
0.35646
0.322748
0.0979982
-0.0155121
-0.0824861
0.157656
-0.0596578
0.274194
-0.116538
0.452647
-0.178453
-0.212321
0.218737
-0.176698
0.340185
0.590535
0.932024
0.147392
-0.15087
0.181692
-0.178214
0.113131
-0.157398
0.191659
0.0733264
-0.165869
0.205674
0.0299733
-0.166957
0.21031
-0.118891
0.148865
0.189803
-0.110238
-0.230435
0.143925
-0.11152
0.0919304
-0.113875
0.0382312
-0.113257
-0.0806602
0.190803
-0.059231
-0.24181
0.138839
-0.0595554
0.086322
-0.0613582
0.0352907
-0.0622261
-0.0453695
0.206693
-0.00686634
-0.259058
0.153549
-0.00641138
0.0983657
-0.00617439
0.0416992
-0.0055596
-0.00367027
0.211538
-0.26345
0.156924
0.0993886
0.0414519
0.0456975
-0.348984
-0.0694229
0.0183229
-0.380154
-0.00631689
-0.391507
-0.017205
-0.376331
-0.241367
0.134676
-0.31455
-0.16911
0.0884138
-0.333892
0.0433009
-0.346394
0.00908187
-0.342112
-0.232285
0.155726
-0.270865
-0.199411
0.109954
-0.28812
0.0648007
-0.301241
0.0234313
-0.300742
-0.208853
0.174497
-0.232282
-0.21308
0.127942
-0.241564
0.0786156
-0.251915
0.0315631
-0.25369
-0.17729
0.167951
-0.218541
0.118046
0.071806
0.0284257
0.389559
0.0895693
-0.0831487
0.396781
0.0814845
-0.0887067
0.359905
0.166992
-0.130116
0.309864
0.0219324
0.0281088
-0.250861
0.382511
0.39451
0.0910387
0.407916
0.0680784
0.39988
0.175029
0.354248
0.0675639
-0.127048
0.399301
0.0877177
0.414359
0.0530204
0.413254
0.176133
0.378566
0.102251
0.00970815
0.404304
0.0793932
0.41945
0.0378746
0.420057
0.175526
0.395995
0.126313
0.146645
0.406853
0.424109
0.417596
0.399448
0.422488
0.0875627
0.33776
0.0847283
0.251006
0.0867541
0.273925
-0.0229196
-0.206042
0.479968
0.514465
0.510487
0.467125
0.472314
0.648782
0.385175
0.0947928
0.300883
0.0842922
0.201859
0.0990235
0.117769
0.0840898
0.0352832
0.525034
0.396246
0.295859
0.210838
)
;

boundaryField
{
    left
    {
        type            calculated;
        value           nonuniform List<scalar> 
17
(
-0.60402
-0.60402
-0.60402
-0.60402
-0.60402
-0.39598
-0.39598
-0.39598
-0.39598
-0.39598
-0.39598
-0.39598
-0.39598
-0.39598
-0.39598
-0.510051
-0.510051
)
;
    }
    right
    {
        type            calculated;
        value           nonuniform List<scalar> 
17
(
0.144504
0.386011
0.244352
0.20705
0.216874
0.264609
0.352014
0.449211
0.529998
0.622257
0.708536
0.731865
1.09464
0.949038
0.739452
0.412165
-0.0525782
)
;
    }
    down
    {
        type            calculated;
        value           uniform 0;
    }
    up
    {
        type            calculated;
        value           uniform 0;
    }
    cylinder
    {
        type            calculated;
        value           uniform 0;
    }
    defaultFaces
    {
        type            empty;
    }
}


// ************************************************************************* //
