/*--------------------------------*- C++ -*----------------------------------*\
  =========                 |
  \\      /  F ield         | OpenFOAM: The Open Source CFD Toolbox
   \\    /   O peration     | Website:  https://openfoam.org
    \\  /    A nd           | Version:  13
     \\/     M anipulation  |
\*---------------------------------------------------------------------------*/
FoamFile
{
    format      ascii;
    class       volVectorField;
    location    "6.11";
    object      U;
}
// * * * * * * * * * * * * * * * * * * * * * * * * * * * * * * * * * * * * * //

dimensions      [0 1 -1 0 0 0 0];

internalField   nonuniform List<vector> 
440
(
(-0.0922037 0.0713111 -6.14399e-20)
(-0.121672 0.135138 -5.36269e-20)
(-0.0551819 0.125666 7.95783e-21)
(0.312709 0.190426 4.68594e-19)
(0.114344 0.390916 2.1211e-21)
(-0.0776036 0.041863 1.6742e-20)
(0.00872729 0.033702 -9.47586e-20)
(0.384313 -0.000723954 -6.20346e-20)
(0.918046 -0.0128526 2.02296e-20)
(1.21977 0.0297625 -1.82073e-20)
(-0.0364434 0.0151864 4.23622e-20)
(0.361061 -0.0160576 5.83865e-19)
(1.06347 0.0109659 -2.99513e-19)
(1.62746 0.0551506 -8.95815e-19)
(2.22118 0.0906762 2.90208e-19)
(0.14446 -0.0349336 -1.6382e-19)
(1.02213 0.0145483 -4.61579e-19)
(1.8107 0.106294 1.39446e-18)
(2.32156 0.166294 1.53265e-18)
(2.47512 0.206233 -4.13773e-19)
(0.473967 -0.0092886 -2.72953e-19)
(1.62599 0.195732 -5.55422e-19)
(2.22903 0.299616 1.66451e-18)
(2.38948 0.331541 1.79429e-18)
(2.44826 0.305164 6.069e-19)
(0.0348262 -0.397686 -1.46714e-19)
(-0.00435115 -0.605207 8.55819e-20)
(-0.075709 -0.603791 -2.03015e-19)
(-0.146302 -0.552346 5.92908e-20)
(-0.195372 -0.488243 5.25475e-19)
(0.0504562 -0.283493 -1.87638e-20)
(-0.025614 -0.415482 -4.80885e-20)
(-0.128986 -0.410565 -7.20082e-20)
(-0.222908 -0.374561 -5.56331e-20)
(-0.289615 -0.327409 8.81849e-20)
(0.0249179 -0.116686 1.66445e-19)
(-0.0527973 -0.176067 7.42933e-20)
(-0.136629 -0.195697 8.78114e-20)
(-0.211096 -0.201782 -1.07841e-19)
(-0.265015 -0.188604 3.02496e-21)
(0.00407592 -0.028014 1.39624e-20)
(-0.0586032 -0.040349 -2.13518e-20)
(-0.129441 -0.0477371 4.19618e-20)
(-0.203064 -0.0618316 -3.03191e-20)
(-0.271735 -0.0513571 3.38281e-20)
(-0.0614826 0.0495864 1.57018e-20)
(-0.163734 0.0859948 1.34549e-20)
(-0.25505 0.123739 -2.00856e-20)
(-0.26452 0.162512 -1.85119e-20)
(-0.299634 0.213475 -2.24471e-19)
(-0.275001 -0.108753 1.065e-18)
(0.168849 0.810196 -4.32249e-19)
(-0.419754 0.653752 1.51395e-19)
(0.882334 -0.410122 -9.10935e-19)
(1.17732 -0.51901 3.79695e-20)
(-0.469551 -0.103317 -1.36675e-18)
(-0.352766 0.799086 1.3036e-19)
(-0.0532751 0.482129 1.82162e-20)
(1.34301 -0.601321 5.70598e-19)
(1.4519 -0.565399 -3.03053e-20)
(-0.403688 -0.142458 -9.48197e-19)
(-0.578161 0.649472 -1.37348e-18)
(0.504147 0.187001 1.78373e-21)
(1.75803 -0.747373 5.37442e-20)
(1.72287 -0.586366 3.31053e-20)
(-0.401476 -0.0824458 2.41698e-19)
(-0.301391 0.520069 1.45262e-19)
(1.05764 -0.0861067 -5.86553e-20)
(1.97707 -0.864041 1.26005e-19)
(1.8416 -0.597356 1.15141e-19)
(-0.0958713 -0.228156 -1.55883e-19)
(0.303037 0.248263 8.45673e-19)
(1.56177 -0.294001 0)
(2.1595 -0.909432 -3.01837e-19)
(1.84759 -0.587853 1.43895e-20)
(1.42613 -0.0950584 -3.11864e-19)
(1.38674 0.0561314 -1.58803e-19)
(2.14362 -0.431785 4.55625e-21)
(2.3995 -0.870796 -1.93118e-19)
(1.85142 -0.541364 -3.49687e-20)
(2.03179 -0.0778376 1.22932e-20)
(2.18813 0.0127893 3.40294e-19)
(2.64431 -0.521276 4.2633e-21)
(2.47996 -0.775066 5.5739e-19)
(1.67274 -0.425477 0)
(2.05985 -0.00135293 -9.05478e-20)
(2.3712 -0.136276 -3.07489e-21)
(2.51229 -0.521315 4.75025e-19)
(1.99148 -0.524339 -1.624e-19)
(1.22728 -0.2486 -6.52043e-21)
(2.13708 -0.0613293 5.91275e-20)
(2.33315 -0.183154 1.68006e-19)
(2.05914 -0.421071 1.89261e-20)
(1.39474 -0.349708 1.12009e-34)
(0.645901 -0.119631 4.98129e-20)
(1.55984 -0.0232728 8.931e-20)
(1.47752 -0.121779 5.2378e-20)
(0.645435 -0.0756741 -1.30565e-19)
(0.0592316 0.0396742 2.80758e-20)
(-0.18301 0.0220773 9.08209e-21)
(2.36473 0.302527 -7.43475e-19)
(2.57022 0.122815 -9.57585e-19)
(2.4482 0.175286 5.33638e-19)
(2.61139 0.0153448 1.1194e-19)
(1.9204 0.191271 -3.13818e-20)
(2.1383 0.206448 7.05924e-20)
(2.3649 0.12026 -3.74781e-20)
(2.26658 0.0647937 -1.2927e-19)
(2.43278 -0.0106298 -2.32393e-19)
(2.31557 -0.117096 -4.9644e-21)
(2.03052 0.109978 7.78489e-20)
(2.0972 0.117722 7.6227e-20)
(2.15924 0.00722322 -7.72019e-20)
(2.15786 0.0328343 2.85766e-20)
(2.26303 -0.0763283 -2.1212e-20)
(1.97986 0.0546613 1.14757e-19)
(2.00269 0.0703539 1.76977e-19)
(2.1219 0.00523905 -1.97948e-20)
(2.10657 0.016332 -9.80614e-20)
(2.22243 -0.0354505 3.24387e-20)
(1.53809 -0.0142126 1.88991e-19)
(1.5535 -0.00265051 -1.12066e-20)
(1.60498 -0.0232829 1.75202e-20)
(1.58909 -0.0107047 -4.31045e-20)
(1.64999 -0.0335186 -2.95108e-20)
(1.55964 0.84238 1.04578e-18)
(1.51526 0.939434 -3.20091e-19)
(1.51345 1.06751 -1.26545e-18)
(1.44539 1.11292 6.9981e-19)
(0.88826 0.798677 -1.7108e-19)
(1.83432 0.805214 -5.45742e-19)
(1.8078 0.884636 -2.85227e-18)
(1.81225 0.990766 -1.10623e-18)
(1.71972 0.997634 -3.95581e-19)
(1.04467 0.687402 -6.31228e-19)
(2.12605 0.69527 6.97806e-19)
(2.1002 0.760103 1.88256e-19)
(2.07904 0.843053 -2.1668e-18)
(1.9413 0.826224 -5.93041e-19)
(1.12852 0.532395 4.2965e-19)
(2.28075 0.590178 2.11645e-18)
(2.27981 0.640272 1.54411e-18)
(2.26499 0.680848 -1.79025e-18)
(2.02721 0.630008 -1.3281e-18)
(1.08153 0.345454 -2.35983e-19)
(2.43235 0.443852 9.99869e-19)
(2.4164 0.463309 -7.28818e-19)
(2.31124 0.482905 5.20186e-19)
(1.95336 0.413907 3.97911e-19)
(0.85889 0.140828 -3.23342e-19)
(0.575311 0.418932 -7.17797e-19)
(0.482545 0.452736 -5.67095e-19)
(0.361827 0.485659 7.00032e-20)
(0.22388 0.485885 -1.921e-20)
(0.0539985 0.343727 7.00533e-20)
(0.688491 0.580556 5.40966e-20)
(0.624819 0.636116 -3.38014e-19)
(0.532394 0.699974 1.73735e-19)
(0.400403 0.756405 -7.96825e-20)
(0.170627 0.579883 1.14073e-19)
(0.768061 0.793505 1.94857e-19)
(0.69949 0.875495 4.08321e-19)
(0.644137 0.971866 6.0192e-20)
(0.557539 1.01644 -2.763e-19)
(0.303942 0.755358 2.25329e-19)
(1.03727 0.864164 2.10246e-19)
(0.988539 0.951534 -6.35669e-19)
(0.939125 1.05489 -1.8093e-18)
(0.857196 1.12481 7.36788e-19)
(0.50497 0.838236 -1.70674e-19)
(1.1413 0.913055 -1.21182e-19)
(1.1604 1.03287 -1.96357e-19)
(1.17807 1.14968 -3.34266e-19)
(1.12306 1.1834 -3.87303e-19)
(0.689789 0.853897 -6.29833e-21)
(0.989953 0.0523447 -8.86908e-20)
(1.01136 0.00642839 -3.25705e-20)
(1.04041 0.131139 -1.58853e-21)
(0.931791 0.11172 -2.20243e-19)
(0.901766 0.24817 3.05369e-19)
(0.975195 0.050394 5.4929e-20)
(1.03357 -0.00134859 1.21286e-19)
(1.02532 0.148538 1.11554e-19)
(0.964619 0.134364 2.60284e-20)
(0.928041 0.322608 1.94652e-20)
(0.981213 0.048915 7.29426e-20)
(1.02314 -0.0103055 -4.68161e-21)
(1.06506 0.167026 -3.94208e-21)
(0.91359 0.138593 1.44376e-19)
(1.11879 0.459285 -4.35541e-19)
(0.978008 0.0476257 -3.95329e-22)
(1.0446 -0.0225381 -1.78395e-19)
(1.05069 0.198597 -6.0625e-20)
(0.986139 0.141143 -3.72133e-19)
(1.17428 0.508182 8.21299e-20)
(0.981978 0.0383971 -1.16335e-20)
(1.04699 -0.0175134 5.16579e-20)
(1.07944 0.202487 2.88436e-20)
(0.989495 0.156571 4.74609e-19)
(1.40464 0.635148 -4.39659e-19)
(0.959264 0.0364331 -3.69667e-21)
(1.11167 -0.0396629 1.00585e-19)
(1.03366 0.236308 -6.54334e-20)
(1.232 0.086252 9.21544e-19)
(1.33073 0.675132 -3.67776e-19)
(0.934952 0.00178961 -1.55871e-21)
(1.18066 -0.0242029 -8.56137e-20)
(0.925311 0.172 4.89924e-21)
(1.34613 0.0611543 -3.56653e-19)
(1.36565 0.447073 -7.4037e-21)
(0.977239 -0.0176581 8.32921e-22)
(1.12109 -0.00375363 1.33513e-35)
(1.00094 0.141711 -7.0037e-21)
(1.34989 -0.0271193 1.18682e-19)
(1.43163 0.285528 1.5803e-19)
(1.05714 -0.0567857 4.17495e-21)
(0.947362 -0.00359996 -2.78998e-20)
(1.20827 0.0414271 2.10428e-20)
(1.22214 -0.0492823 3.1213e-20)
(1.32646 0.206251 -2.25005e-19)
(0.962131 -0.0227903 -4.02237e-20)
(0.759091 -0.0208358 -4.13536e-21)
(0.993165 -0.00461324 2.44122e-20)
(0.748737 -0.0182658 -1.34612e-20)
(0.935751 0.0864651 -4.88714e-20)
(1.78645 0.644686 2.93143e-19)
(1.89245 0.657034 7.09395e-19)
(2.13655 0.5456 -9.96928e-19)
(2.19978 0.512261 -4.47301e-21)
(2.40316 0.335293 4.37486e-19)
(1.78224 0.455573 7.94788e-20)
(1.81441 0.448676 9.83262e-19)
(2.01671 0.402393 1.14002e-19)
(2.00165 0.349739 -8.59551e-19)
(2.21708 0.259468 -2.70342e-19)
(1.68998 0.35349 -2.2305e-19)
(1.73718 0.301829 -1.43455e-19)
(1.84774 0.309184 2.0889e-19)
(1.884 0.214744 -2.75926e-19)
(1.991 0.213928 2.5633e-19)
(1.54505 0.246113 3.3154e-19)
(1.62173 0.188914 8.21882e-24)
(1.7096 0.195354 2.09939e-19)
(1.80358 0.116097 1.83265e-19)
(1.86917 0.131474 -1.87124e-19)
(1.22397 0.0672551 -4.25046e-20)
(1.30026 0.0408289 2.22904e-19)
(1.38702 0.0319969 9.88123e-20)
(1.4419 0.00639964 -2.21769e-19)
(1.49327 0.00876453 1.22871e-22)
(1.32031 -0.036681 6.65829e-20)
(2.416 -0.0415369 -5.1818e-19)
(2.64483 -0.035616 1.38732e-18)
(2.62452 0.0112086 6.19599e-19)
(2.46541 0.0378766 -4.244e-19)
(0.828649 0.0967847 1.19694e-19)
(2.18628 0.0957016 -5.11643e-19)
(2.65557 0.0969473 -6.99727e-19)
(2.69667 0.11067 8.76374e-19)
(2.4341 0.0992562 -5.81951e-19)
(0.237735 0.0842002 -3.43899e-20)
(1.50571 0.164898 5.39565e-19)
(2.31617 0.193082 8.24301e-20)
(2.70677 0.187237 5.78296e-19)
(2.86032 0.182943 2.66039e-19)
(-0.0580088 -0.0303275 2.35091e-19)
(0.558286 0.0934011 2.37996e-19)
(1.46953 0.179287 -5.28794e-19)
(2.01318 0.219383 3.05077e-20)
(2.63384 0.247425 7.97681e-20)
(-0.122354 -0.0965542 1.74382e-19)
(-0.00203025 -0.0482548 -1.9717e-19)
(0.541285 0.0569524 -2.86948e-20)
(1.05811 0.0968079 5.36449e-20)
(1.57791 0.188039 -3.59925e-20)
(-0.0887513 -0.0893856 -2.30434e-21)
(-0.147931 -0.131545 1.36229e-19)
(-0.00496824 -0.130903 1.26166e-19)
(0.212806 -0.109248 -7.89842e-20)
(0.684289 -0.0171113 7.14625e-21)
(-0.0501961 -0.0748134 -1.05853e-20)
(-0.109474 -0.203703 -1.16848e-19)
(-0.0926537 -0.285707 -6.32333e-20)
(-0.0236055 -0.313785 1.77705e-20)
(0.133014 -0.242853 1.74672e-20)
(-0.0449403 -0.135095 -1.98546e-21)
(-0.0611508 -0.368379 2.7333e-19)
(-0.0313083 -0.486167 -9.52941e-20)
(0.0296131 -0.508744 2.76343e-20)
(0.0735762 -0.468827 -8.27926e-20)
(-0.0419791 -0.278527 -1.2962e-20)
(-0.0277566 -0.59243 -2.3138e-20)
(0.00373924 -0.69003 -1.09864e-19)
(0.0453329 -0.665961 -3.12335e-19)
(0.0796197 -0.58965 4.70643e-20)
(-0.00842558 -0.39971 -1.66711e-22)
(-0.00510672 -0.684399 1.50321e-20)
(-0.0181195 -0.708903 -9.8595e-21)
(-0.0290656 -0.641777 -2.48459e-20)
(-0.0377482 -0.551364 1.13023e-19)
(1.67269 0.55379 -7.51708e-20)
(1.45926 0.348468 6.38564e-19)
(0.841035 0.160562 -6.58656e-20)
(0.122723 0.0235321 4.09542e-20)
(0.509536 -0.101281 -8.60553e-21)
(1.42062 0.429587 -4.79659e-21)
(1.26505 0.453234 4.1779e-20)
(0.588553 0.313432 1.13149e-19)
(-0.173655 0.0392715 -5.30989e-21)
(0.447976 -0.182008 7.4005e-20)
(1.02976 0.231252 1.99516e-20)
(1.08995 0.539064 4.65995e-19)
(0.284747 0.468359 5.19587e-20)
(-0.216713 0.0376308 -3.72805e-19)
(0.510207 -0.287003 -1.70128e-20)
(0.554547 0.0667016 1.20677e-19)
(0.895639 0.632661 -1.24367e-18)
(-0.0934695 0.60435 -3.0469e-19)
(0.0660138 -0.037048 4.90635e-21)
(0.675358 -0.381182 -2.90758e-20)
(0.0595915 0.00189431 -2.84897e-20)
(0.616355 0.745609 2.53871e-20)
(-0.418574 0.681384 2.3869e-19)
(0.483288 -0.196861 -3.65733e-20)
(0.922065 -0.454757 7.30973e-21)
(0.465748 0.172492 -4.32619e-20)
(-0.285057 -0.0980021 0)
(-0.194787 -0.114385 -4.27896e-20)
(-0.0602947 -0.0594222 5.99946e-20)
(0.234175 -0.0236682 1.38333e-20)
(2.09844 0.54089 0)
(1.49011 0.337181 0)
(0.921525 0.0379945 3.71597e-19)
(0.436472 -0.0547996 2.56972e-20)
(0.645969 -0.0711484 -2.6599e-21)
(0.803571 0.00244739 -1.44284e-19)
(0.871862 -0.00368817 2.58139e-19)
(1.05823 -0.00165962 -2.59821e-20)
(1.11537 0.0102795 3.29573e-19)
(1.50078 0.0873864 2.22032e-19)
(1.79843 0.0274922 1.37344e-19)
(1.9737 0.0824301 3.35585e-19)
(2.12431 0.0595244 -2.83194e-19)
(2.73806 0.205843 8.49437e-22)
(2.43078 0.15225 1.10801e-19)
(0.97192 -0.526661 2.61929e-20)
(0.964022 -0.624519 -2.06701e-19)
(0.959003 -0.728607 -1.85905e-19)
(0.88935 -0.802914 1.11986e-19)
(0.546662 -0.638136 1.43919e-19)
(0.862316 -0.434811 1.1014e-19)
(0.805486 -0.505061 1.50991e-19)
(0.730149 -0.582151 -1.06939e-19)
(0.617097 -0.650177 1.48842e-19)
(0.343289 -0.520645 3.76877e-20)
(0.681422 -0.2964 -1.26495e-19)
(0.59154 -0.34148 -5.89202e-20)
(0.491791 -0.399055 1.57342e-20)
(0.375272 -0.450548 -4.693e-20)
(0.175269 -0.360206 -1.37938e-19)
(0.573626 -0.0640648 -4.49369e-19)
(0.488885 -0.0846722 -3.62352e-19)
(0.379693 -0.115503 2.93225e-19)
(0.251423 -0.153228 1.55015e-19)
(0.0777816 -0.14113 1.35039e-20)
(0.541692 0.139218 -1.47787e-19)
(0.456563 0.137565 -1.64879e-19)
(0.338609 0.133339 -4.6084e-20)
(0.197638 0.135772 5.348e-20)
(0.0340788 0.102792 1.53516e-20)
(2.18404 -0.0385844 9.20472e-19)
(2.45481 -0.109768 3.2049e-19)
(2.54002 -0.20293 -8.42711e-19)
(2.40549 -0.227852 -1.81006e-18)
(1.47568 -0.217002 1.36327e-19)
(2.16318 -0.131185 1.56325e-18)
(2.25264 -0.249438 2.05393e-18)
(2.273 -0.380165 1.70286e-19)
(2.20759 -0.442557 2.93778e-19)
(1.43992 -0.407363 -1.94377e-19)
(1.84111 -0.305898 -4.05088e-18)
(1.90557 -0.42998 4.62584e-19)
(1.96078 -0.563441 1.27018e-18)
(1.91568 -0.645718 -5.07725e-19)
(1.26251 -0.565271 8.05861e-19)
(1.61533 -0.435209 9.761e-19)
(1.63558 -0.540279 -2.57379e-18)
(1.62641 -0.666889 -2.99596e-18)
(1.56656 -0.764984 9.44243e-19)
(1.02336 -0.646674 6.11916e-19)
(1.30447 -0.500477 2.26459e-19)
(1.25563 -0.600232 2.80973e-19)
(1.25125 -0.731691 -4.59124e-19)
(1.20325 -0.829338 -5.56921e-19)
(0.770336 -0.67247 -5.35655e-21)
(1.0208 0.0493696 7.27247e-21)
(0.967294 0.0443526 -1.92268e-21)
(1.1267 0.0839617 4.93264e-21)
(0.831482 -0.0118009 -2.52027e-19)
(1.17419 -0.235955 -1.78808e-20)
(1.04036 0.0544834 -2.46229e-21)
(0.942988 0.0356652 3.74171e-20)
(1.1244 0.102379 -5.43149e-21)
(0.909557 0.02927 2.01893e-19)
(1.04191 -0.122773 -2.213e-21)
(1.04686 0.0537155 -5.94845e-20)
(0.938349 0.0271176 2.05031e-22)
(1.1026 0.102543 -7.33788e-21)
(0.903428 0.0496941 9.12356e-20)
(0.999571 -0.060656 -2.45336e-19)
(1.03302 0.0544563 7.12722e-20)
(0.964216 0.0197179 2.68487e-21)
(1.06169 0.107926 2.27501e-20)
(0.936524 0.0737192 -3.20107e-20)
(0.887025 0.0488874 7.66622e-20)
(1.00726 0.0522894 1.75794e-20)
(0.997957 0.0161917 -2.46654e-20)
(1.03274 0.115421 3.46978e-20)
(0.949781 0.0970535 5.16677e-20)
(0.852345 0.143388 -3.80355e-20)
(0.872835 0.0333456 0)
(0.749462 0.0295571 9.4751e-21)
(0.596902 0.0205219 5.91802e-21)
(0.380935 -0.0129936 5.13157e-20)
(0.733729 -0.0586284 -1.6663e-19)
(0.987116 0.0682995 -6.20088e-20)
(0.998341 0.0675977 -8.72917e-21)
(1.02143 0.0820862 -5.89097e-20)
(0.839751 -0.0134697 -1.41558e-19)
(1.07795 -0.217526 -1.73048e-19)
(1.03104 -0.0657493 -3.77558e-20)
(1.12319 -0.0355979 5.80809e-19)
(1.23122 0.0385774 3.50192e-19)
(1.10253 0.0617768 3.02553e-20)
(0.853323 0.0338115 0)
(1.38799 -0.332016 3.81586e-19)
(1.5111 -0.293163 1.68237e-18)
(1.70808 -0.169061 -1.85626e-18)
(1.82422 -0.023186 -5.8081e-19)
(1.73374 0.0348172 4.28509e-19)
)
;

boundaryField
{
    left
    {
        type            fixedValue;
        value           uniform (1 0 0);
    }
    right
    {
        type            zeroGradient;
    }
    down
    {
        type            noSlip;
    }
    up
    {
        type            noSlip;
    }
    cylinder
    {
        type            noSlip;
    }
    defaultFaces
    {
        type            empty;
    }
}


// ************************************************************************* //
