/*--------------------------------*- C++ -*----------------------------------*\
  =========                 |
  \\      /  F ield         | OpenFOAM: The Open Source CFD Toolbox
   \\    /   O peration     | Website:  https://openfoam.org
    \\  /    A nd           | Version:  13
     \\/     M anipulation  |
\*---------------------------------------------------------------------------*/
FoamFile
{
    format      ascii;
    class       volVectorField;
    location    "2.6";
    object      U;
}
// * * * * * * * * * * * * * * * * * * * * * * * * * * * * * * * * * * * * * //

dimensions      [0 1 -1 0 0 0 0];

internalField   nonuniform List<vector> 
1800
(
(-0.0323906 0.0261263 9.38747e-21)
(-0.0771445 0.0522594 4.26455e-21)
(-0.0903361 0.0678721 -6.83848e-20)
(-0.064946 0.0756432 7.07904e-20)
(0.00583681 0.0766997 1.62367e-19)
(0.125343 0.0707858 5.93539e-20)
(0.294344 0.0594757 -1.17544e-20)
(0.505426 0.0409303 1.27023e-19)
(0.780354 0.0332317 1.98945e-19)
(0.93377 0.0490907 2.30528e-19)
(-0.0448788 0.0333236 8.37589e-21)
(-0.0782385 0.0547743 -5.93234e-20)
(-0.0536887 0.0545329 5.08704e-22)
(0.0305132 0.0399761 -6.60753e-20)
(0.177544 0.0159346 2.56386e-20)
(0.385316 -0.0142815 1.25876e-19)
(0.644822 -0.047356 -2.21923e-20)
(0.938695 -0.0834402 -1.01614e-20)
(1.26407 -0.110279 -1.90181e-19)
(1.48875 -0.137584 1.56068e-19)
(-0.0477594 0.0316174 5.57803e-21)
(-0.0522104 0.0439501 2.05501e-20)
(0.0301576 0.0313046 6.44999e-21)
(0.195392 0.00261564 -1.49772e-20)
(0.437243 -0.0342218 -1.5457e-19)
(0.73925 -0.0730497 2.84463e-20)
(1.07498 -0.109427 5.17856e-20)
(1.41566 -0.139878 -2.15436e-20)
(1.72809 -0.163663 -1.43376e-22)
(2.01059 -0.197687 1.24076e-21)
(-0.0385087 0.022581 -8.89938e-21)
(0.00787665 0.0189171 -2.80753e-20)
(0.170166 -0.00633485 -2.88773e-20)
(0.434441 -0.0430938 2.90258e-20)
(0.775569 -0.0818685 2.72689e-20)
(1.154 -0.11609 1.10874e-20)
(1.52618 -0.142461 -3.81423e-21)
(1.85516 -0.160963 1.09937e-19)
(2.12526 -0.174148 1.12891e-19)
(2.3122 -0.182388 -5.70744e-20)
(-0.0159472 0.0097604 6.65352e-20)
(0.107227 -0.0116677 6.16145e-20)
(0.370989 -0.0452671 -4.39105e-20)
(0.740722 -0.0800744 -5.38995e-20)
(1.16133 -0.108069 -1.61238e-19)
(1.57071 -0.126332 2.50719e-21)
(1.92082 -0.136048 2.31289e-19)
(2.18881 -0.140481 1.03719e-19)
(2.36936 -0.140872 1.41897e-22)
(2.48839 -0.149714 -1.05865e-19)
(0.0228272 -0.00460922 -6.41197e-20)
(0.249474 -0.0394407 -1.29749e-20)
(0.62743 -0.0717082 2.26488e-19)
(1.08775 -0.0926293 -7.84356e-20)
(1.54443 -0.101037 -1.79839e-19)
(1.93024 -0.100767 3.87378e-19)
(2.21517 -0.0967478 -3.92297e-19)
(2.40069 -0.0926028 -5.52388e-19)
(2.50973 -0.0905546 4.51132e-19)
(2.56073 -0.0913947 2.97884e-21)
(0.0798077 -0.0171588 6.8319e-20)
(0.431325 -0.0547337 -1.57969e-19)
(0.918689 -0.0729219 -5.75839e-19)
(1.43312 -0.0708797 2.95122e-19)
(1.87613 -0.0583525 6.61095e-19)
(2.20098 -0.0441626 -2.55775e-21)
(2.40849 -0.0330139 -1.40847e-18)
(2.52483 -0.0263779 9.89584e-21)
(2.57935 -0.0228092 1.66695e-18)
(2.59916 -0.0265357 4.56915e-19)
(0.153977 -0.0240044 6.23754e-20)
(0.640274 -0.0491074 3.56025e-19)
(1.2138 -0.0413009 5.09534e-19)
(1.73893 -0.013864 -1.11535e-19)
(2.13377 0.0145504 -5.89279e-19)
(2.38688 0.0355166 -2.25368e-19)
(2.5267 0.0477657 0)
(2.59106 0.053047 6.89544e-19)
(2.61197 0.0533488 -1.36019e-20)
(2.6075 0.0488656 -6.52684e-19)
(0.241307 -0.0211016 5.30901e-20)
(0.857286 -0.0165223 4.11383e-19)
(1.4832 0.0246748 7.83974e-19)
(1.98485 0.0740792 -8.45402e-19)
(2.31736 0.111378 -7.43548e-19)
(2.50376 0.133134 2.89187e-19)
(2.59021 0.142499 -1.36332e-18)
(2.61884 0.143852 -1.03043e-18)
(2.61745 0.140755 1.25903e-18)
(2.60082 0.132731 1.09514e-18)
(0.335171 -0.00534481 -2.49213e-20)
(1.06218 0.0445758 3.29176e-19)
(1.7075 0.120881 1.99461e-19)
(2.16602 0.18611 -1.63805e-18)
(2.43559 0.225869 4.28853e-20)
(2.56618 0.243618 3.23656e-18)
(2.61348 0.246935 -1.87233e-18)
(2.61838 0.242379 -1.08947e-18)
(2.60384 0.233719 3.86981e-19)
(2.57875 0.22148 -8.84115e-19)
(-0.0155569 0.264374 2.82805e-19)
(-0.0695644 0.508026 -1.38984e-19)
(-0.137628 0.589812 1.18751e-21)
(-0.209927 0.593863 -3.74882e-20)
(-0.278749 0.566784 2.57353e-21)
(-0.342683 0.527998 2.09085e-19)
(-0.401709 0.483623 1.86583e-19)
(-0.455298 0.435294 -3.29132e-19)
(-0.501942 0.383757 2.35239e-20)
(-0.54077 0.330051 -7.07018e-20)
(-0.0363245 0.302847 -9.14199e-21)
(-0.0940365 0.605988 2.01112e-20)
(-0.152513 0.720822 1.10855e-20)
(-0.210217 0.738151 4.54419e-20)
(-0.263886 0.713103 -1.93823e-19)
(-0.312867 0.670916 2.06257e-19)
(-0.357119 0.620292 -3.16548e-19)
(-0.39609 0.563626 -4.15024e-19)
(-0.427665 0.501812 2.51236e-19)
(-0.449144 0.435898 -7.7896e-20)
(-0.0561765 0.30456 -8.77829e-20)
(-0.117852 0.648392 5.37349e-20)
(-0.163973 0.802045 9.28357e-21)
(-0.20145 0.842964 -2.36615e-19)
(-0.234361 0.827637 -7.65903e-20)
(-0.26278 0.786799 8.19924e-19)
(-0.28658 0.732888 -3.2633e-19)
(-0.305418 0.669805 -3.89749e-19)
(-0.317149 0.598904 4.35404e-19)
(-0.316481 0.521134 2.22394e-19)
(-0.0678746 0.269002 -7.94027e-20)
(-0.13196 0.623833 -1.74528e-21)
(-0.166135 0.816259 2.07673e-20)
(-0.18347 0.891513 -8.7845e-20)
(-0.193019 0.897322 2.88868e-19)
(-0.197477 0.866508 -2.76252e-19)
(-0.197273 0.815798 -2.55334e-19)
(-0.191957 0.751758 3.07036e-19)
(-0.181775 0.675918 2.16503e-20)
(-0.158813 0.589682 6.88874e-21)
(-0.0671317 0.206875 0)
(-0.132115 0.535028 1.77854e-20)
(-0.158632 0.752964 -8.54327e-20)
(-0.160498 0.867262 1.18367e-19)
(-0.149641 0.905407 3.33426e-19)
(-0.131614 0.895247 -2.84649e-19)
(-0.108562 0.855813 1.17792e-19)
(-0.0809785 0.797053 1.89316e-21)
(-0.0492443 0.722141 0)
(-0.00302849 0.633624 1.59571e-20)
(-0.0546825 0.136379 -2.04154e-20)
(-0.116371 0.403655 6.24096e-20)
(-0.140434 0.620707 1.63123e-20)
(-0.1352 0.76449 -2.89123e-20)
(-0.111482 0.838988 3.77502e-20)
(-0.0763119 0.859942 2.12336e-19)
(-0.0337969 0.843191 -5.35362e-19)
(0.0140478 0.800204 -2.42647e-20)
(0.0647281 0.736547 6.19879e-19)
(0.12875 0.656501 9.87792e-21)
(-0.036304 0.0753459 9.75862e-21)
(-0.0896563 0.264891 1.23927e-19)
(-0.114424 0.450598 -5.90705e-20)
(-0.110584 0.598238 -9.59271e-21)
(-0.0841266 0.695699 -7.02403e-20)
(-0.0411064 0.745843 1.16624e-19)
(0.0134168 0.757241 2.12953e-19)
(0.0759786 0.738967 2.81606e-19)
(0.141823 0.696853 -2.69954e-19)
(0.216178 0.636722 -3.48112e-19)
(-0.0196609 0.0340803 2.33812e-20)
(-0.0632936 0.151145 -6.90616e-20)
(-0.0898671 0.286281 -9.86646e-20)
(-0.0923198 0.409082 3.76661e-20)
(-0.0708921 0.502914 -2.56442e-20)
(-0.0289993 0.563205 5.31785e-22)
(0.0287931 0.592283 -4.05405e-20)
(0.0984107 0.595534 1.66179e-19)
(0.174635 0.577462 1.23116e-19)
(0.258354 0.536815 -2.31922e-19)
(-0.011832 0.0149452 1.17314e-20)
(-0.0514875 0.0796369 -1.20336e-19)
(-0.0812057 0.16281 1.63692e-19)
(-0.0905312 0.244493 1.61581e-19)
(-0.0755647 0.312202 -9.34521e-20)
(-0.0366546 0.360498 1.59079e-19)
(0.0237709 0.389142 -4.24797e-20)
(0.103252 0.400968 1.09085e-19)
(0.198776 0.396923 1.01207e-19)
(0.321928 0.363788 -1.94644e-19)
(-0.0176322 0.015698 -1.11056e-20)
(-0.0611337 0.0521325 -6.31601e-20)
(-0.0909634 0.0942347 -1.97891e-20)
(-0.0968197 0.134364 7.61255e-20)
(-0.0724101 0.167568 1.37719e-19)
(-0.0147765 0.190829 -1.12051e-19)
(0.0771087 0.203887 -4.44319e-20)
(0.201873 0.207718 -3.75483e-20)
(0.361323 0.202731 1.15108e-19)
(0.54976 0.187621 1.47342e-19)
(-0.713238 0.054493 9.80346e-19)
(-0.552356 -0.394937 -1.59631e-18)
(0.0212004 -0.450425 -2.35027e-19)
(0.360593 -0.391509 5.45895e-20)
(0.655197 -0.318506 -1.20762e-20)
(0.824343 -0.233347 -8.51893e-21)
(0.933101 -0.177307 -7.93593e-21)
(1.00351 -0.123853 -2.67407e-21)
(1.03643 -0.0992015 1.11929e-20)
(1.07042 -0.0664073 2.44251e-21)
(-0.535064 0.0828536 1.00105e-18)
(-0.319848 -0.503284 7.30656e-19)
(0.145636 -0.58405 -3.92261e-20)
(0.456506 -0.48522 -1.14733e-19)
(0.714924 -0.380972 -1.20743e-19)
(0.860825 -0.272581 0)
(0.95564 -0.201339 -1.57327e-20)
(1.01663 -0.137837 4.94344e-21)
(1.04566 -0.107993 3.64771e-22)
(1.07508 -0.0710553 -4.80434e-21)
(-0.296699 0.0901164 -5.03404e-19)
(-0.0313963 -0.589501 -3.66047e-19)
(0.335188 -0.692783 1.98444e-19)
(0.589019 -0.567464 5.03135e-20)
(0.797275 -0.434574 8.50023e-21)
(0.91049 -0.306104 -1.26947e-21)
(0.985101 -0.221957 0)
(1.03308 -0.149916 0)
(1.05657 -0.11557 -8.3929e-21)
(1.08031 -0.0750253 0)
(-0.0314773 0.0839086 -1.02333e-19)
(0.276935 -0.652109 8.17416e-19)
(0.559511 -0.778196 -1.16559e-19)
(0.741519 -0.634561 0)
(0.894334 -0.477337 1.73356e-19)
(0.970758 -0.332329 -3.15544e-20)
(1.021 -0.238001 0)
(1.05289 -0.159399 2.90545e-20)
(1.0692 -0.121548 0)
(1.0861 -0.0781551 3.91365e-21)
(0.245258 0.0666349 2.18541e-21)
(0.593547 -0.695967 3.84185e-19)
(0.794493 -0.840784 7.96283e-20)
(0.898196 -0.685587 0)
(0.994564 -0.509314 7.33114e-20)
(1.03562 -0.351057 7.76941e-20)
(1.06107 -0.248943 1.93295e-21)
(1.07542 -0.165792 7.44877e-23)
(1.08338 -0.125587 -7.5658e-21)
(1.09238 -0.0802896 1.78033e-21)
(0.495766 0.0428847 4.24459e-19)
(0.903761 -0.724671 -3.98341e-19)
(1.03132 -0.880188 -4.21417e-20)
(1.05243 -0.720205 2.81239e-19)
(1.09026 -0.531122 -1.33882e-19)
(1.09871 -0.363074 4.28672e-20)
(1.10185 -0.255032 7.91029e-20)
(1.09932 -0.16898 -6.78262e-20)
(1.09864 -0.127479 2.81407e-24)
(1.09904 -0.0813103 -8.7316e-21)
(0.70844 0.0130775 1.19081e-19)
(1.1974 -0.74356 3.52238e-21)
(1.25954 -0.899519 -1.18756e-19)
(1.20132 -0.739319 -9.66202e-21)
(1.17944 -0.543383 -1.48204e-19)
(1.15631 -0.369322 -2.91973e-21)
(1.14015 -0.256988 -3.43785e-20)
(1.12279 -0.169231 -9.38867e-22)
(1.1142 -0.12721 9.1607e-21)
(1.10585 -0.0811631 -9.26989e-22)
(0.907634 -0.0359721 -4.62056e-19)
(1.46726 -0.754925 5.60327e-21)
(1.46999 -0.900583 0)
(1.34108 -0.744576 7.61472e-20)
(1.26277 -0.547045 1.28278e-19)
(1.20803 -0.370643 -6.89288e-21)
(1.17422 -0.255638 -1.17202e-19)
(1.14426 -0.167074 2.96869e-20)
(1.12908 -0.124972 -4.69094e-22)
(1.11245 -0.0798782 -4.809e-21)
(1.13243 -0.12269 4.70848e-19)
(1.71151 -0.757253 2.0899e-20)
(1.65658 -0.884626 1.24244e-19)
(1.46836 -0.737074 -5.01154e-20)
(1.34103 -0.543082 3.91879e-21)
(1.25549 -0.367781 -1.20611e-19)
(1.20421 -0.251796 3.98369e-20)
(1.16293 -0.1632 1.5642e-23)
(1.1424 -0.12118 -8.83553e-22)
(1.11842 -0.07759 5.93013e-21)
(1.39404 -0.214394 -3.28715e-19)
(1.9273 -0.74623 5.03729e-20)
(1.81584 -0.855406 1.08802e-19)
(1.58161 -0.718374 -2.40555e-19)
(1.4144 -0.531678 -1.44953e-19)
(1.30045 -0.360747 -6.89303e-20)
(1.23142 -0.245825 -2.29042e-20)
(1.17908 -0.158221 0)
(1.15372 -0.116404 -1.3481e-20)
(1.1234 -0.0745247 9.77884e-21)
(1.98367 -0.338349 -7.76103e-19)
(2.20726 -0.717786 -4.90769e-19)
(2.00434 -0.800383 -1.38388e-19)
(1.71881 -0.677326 4.15754e-20)
(1.50483 -0.503122 3.86995e-20)
(1.35599 -0.341717 -4.95906e-20)
(1.26376 -0.231624 -3.23101e-20)
(1.19708 -0.1484 1.93715e-20)
(1.16551 -0.108347 -7.62952e-21)
(1.12845 -0.0697603 -4.80693e-21)
(2.41183 -0.415353 1.2313e-19)
(2.3539 -0.695938 -8.90823e-19)
(2.03169 -0.716446 -3.10026e-19)
(1.72608 -0.57191 -8.52174e-21)
(1.52257 -0.410208 1.42558e-19)
(1.37893 -0.275744 1.28468e-19)
(1.28386 -0.188962 8.76706e-20)
(1.20994 -0.123021 -9.8112e-21)
(1.17474 -0.0920957 2.97268e-20)
(1.132 -0.0611969 4.36971e-21)
(2.4648 -0.400817 -4.20773e-20)
(2.31002 -0.578078 -2.13847e-20)
(2.06277 -0.59597 4.68177e-20)
(1.81911 -0.49292 1.53794e-35)
(1.61601 -0.360922 -2.21947e-20)
(1.44816 -0.240633 -3.88014e-34)
(1.3287 -0.161206 7.57211e-21)
(1.2352 -0.103278 1.23898e-34)
(1.18965 -0.0773125 -4.78335e-22)
(1.13741 -0.052509 8.18068e-22)
(2.41642 -0.360839 -3.33648e-34)
(2.28437 -0.510781 2.62752e-19)
(2.07111 -0.529251 8.79906e-20)
(1.82422 -0.415818 0)
(1.60975 -0.279482 -7.88491e-20)
(1.44077 -0.1737 -6.65362e-20)
(1.32648 -0.113164 -4.98729e-20)
(1.23614 -0.0726283 5.4996e-34)
(1.19289 -0.0567078 -1.47665e-20)
(1.13847 -0.0412523 -1.34069e-21)
(2.36409 -0.33008 -2.5179e-20)
(2.24826 -0.444136 7.10007e-21)
(2.06889 -0.442268 0)
(1.84805 -0.332667 0)
(1.635 -0.211516 0)
(1.45534 -0.12447 0)
(1.333 -0.0779688 2.63754e-21)
(1.23787 -0.0488826 6.42023e-34)
(1.19358 -0.0390504 -9.07717e-22)
(1.13725 -0.030597 -2.07228e-34)
(2.31644 -0.298631 5.93847e-20)
(2.21886 -0.388396 0)
(2.03856 -0.375159 0)
(1.8069 -0.259538 0)
(1.591 -0.138908 0)
(1.4177 -0.0648251 0)
(1.30506 -0.034776 -5.84953e-21)
(1.21828 -0.0211148 2.22288e-20)
(1.17993 -0.0197929 -1.1091e-21)
(1.12727 -0.0193038 4.61919e-22)
(2.26324 -0.270349 0)
(2.14031 -0.333085 7.18075e-20)
(1.9167 -0.295119 2.00036e-21)
(1.66684 -0.175455 0)
(1.46049 -0.0676942 -5.28523e-20)
(1.31257 -0.01395 -3.58348e-20)
(1.22686 -0.000561007 -2.69611e-20)
(1.16185 0.000640902 -1.08542e-20)
(1.13646 -0.00403102 8.4464e-21)
(1.0941 -0.00936161 -3.4425e-21)
(2.10851 -0.22899 6.82213e-22)
(1.89453 -0.253619 4.71492e-21)
(1.59473 -0.196401 -9.61732e-21)
(1.33753 -0.0908386 -6.88784e-36)
(1.17627 -0.00972392 1.42767e-20)
(1.08939 0.0215483 -2.18135e-34)
(1.05422 0.0212224 -7.18344e-21)
(1.02682 0.0137103 -1.3018e-20)
(1.02172 0.00567758 -1.27931e-21)
(0.997087 -0.00227826 2.57555e-21)
(1.60543 -0.159266 7.04588e-21)
(1.28297 -0.140888 -1.20262e-20)
(0.954451 -0.0776569 6.94101e-21)
(0.759751 -0.0131541 0)
(0.699133 0.0236871 1.18593e-20)
(0.704231 0.031311 1.07512e-20)
(0.730107 0.0238534 -4.85586e-22)
(0.744785 0.0147208 3.82282e-21)
(0.759956 0.00774107 -4.86862e-21)
(0.755534 0.00122295 -2.36888e-21)
(0.526911 -0.0219014 0)
(0.308528 -0.00574843 0)
(0.162385 0.00182205 0)
(0.115757 0.00495116 0)
(0.140109 0.00716985 0)
(0.189613 0.00653234 0)
(0.235123 0.00444927 -7.54516e-21)
(0.264494 0.00259412 2.18032e-35)
(0.283435 0.00139968 -1.48026e-21)
(0.289908 0.000281431 -2.71008e-21)
(2.51181 0.195518 8.54125e-19)
(2.54514 0.121613 5.26675e-20)
(2.56604 0.0420804 -8.72884e-20)
(2.57598 -0.0157354 -2.82498e-19)
(2.5913 -0.0903683 -5.3676e-20)
(2.55261 -0.119779 -8.33799e-20)
(2.57844 -0.199264 -2.81003e-19)
(2.38655 -0.171444 1.34058e-20)
(2.40563 -0.259933 0)
(1.79628 -0.107136 9.80911e-21)
(2.43479 0.153811 2.71402e-19)
(2.42357 0.112465 -3.15355e-19)
(2.51151 0.0252187 -6.63179e-20)
(2.45688 0.000638245 -1.37552e-19)
(2.57547 -0.0938166 1.14242e-19)
(2.46181 -0.0976154 2.00972e-19)
(2.62358 -0.201302 -2.71101e-19)
(2.4344 -0.190073 -1.99989e-20)
(2.60241 -0.289862 -8.15064e-21)
(2.33398 -0.273617 1.00997e-19)
(2.3746 0.122675 -1.23185e-19)
(2.3479 0.090701 2.79654e-19)
(2.44679 0.0148278 1.74683e-19)
(2.38639 -0.00733025 -2.93868e-19)
(2.49818 -0.0853077 -4.58348e-20)
(2.41299 -0.102736 4.24481e-19)
(2.52503 -0.176705 8.0193e-20)
(2.43994 -0.200561 -9.48228e-20)
(2.51897 -0.258499 -5.85879e-20)
(2.46169 -0.298427 -7.02414e-20)
(2.31521 0.0933557 -3.11271e-19)
(2.3146 0.0582907 -4.42087e-20)
(2.37666 0.00470777 1.88198e-20)
(2.35998 -0.0279396 -1.8903e-20)
(2.41394 -0.0788764 -2.36129e-19)
(2.39318 -0.113396 -1.00118e-19)
(2.42975 -0.157031 2.45407e-19)
(2.42078 -0.198086 -1.1988e-20)
(2.4331 -0.231676 5.06181e-20)
(2.44258 -0.280576 2.4263e-20)
(2.26643 0.0637717 4.75828e-20)
(2.28919 0.0281606 1.32883e-19)
(2.3206 -0.00920421 -3.1044e-20)
(2.33492 -0.0452244 2.17752e-19)
(2.35364 -0.0797474 -5.37824e-20)
(2.36515 -0.117481 -2.62189e-19)
(2.37026 -0.147653 4.22179e-20)
(2.38379 -0.187707 -1.07202e-19)
(2.37796 -0.214189 2.60167e-20)
(2.39398 -0.256404 5.55076e-21)
(2.22694 0.0334546 -1.7106e-19)
(2.25603 0.00235603 -7.91925e-20)
(2.2765 -0.0260253 3.49568e-21)
(2.29858 -0.0579208 1.24453e-19)
(2.30844 -0.084697 2.6851e-19)
(2.32557 -0.117658 -7.72592e-20)
(2.32618 -0.142551 7.14675e-21)
(2.34014 -0.176616 -6.37153e-20)
(2.3336 -0.200051 -8.90556e-20)
(2.34569 -0.235302 -5.69239e-20)
(2.17791 0.00508192 -6.07015e-20)
(2.20518 -0.0197211 -1.32807e-19)
(2.22236 -0.0419438 -1.44461e-19)
(2.24369 -0.0674028 -2.74676e-19)
(2.25264 -0.0891595 5.94087e-20)
(2.26949 -0.115745 6.16999e-20)
(2.27098 -0.137095 1.60194e-20)
(2.28513 -0.165094 7.70333e-20)
(2.27954 -0.185844 -1.04134e-19)
(2.29345 -0.215296 -5.01279e-20)
(2.06499 -0.0185363 6.2566e-20)
(2.08786 -0.0365017 4.27888e-20)
(2.09642 -0.0519493 2.14694e-20)
(2.11709 -0.0707373 -4.41771e-20)
(2.11805 -0.086218 -4.21697e-20)
(2.13877 -0.10653 -2.60956e-20)
(2.13192 -0.12227 -4.94086e-20)
(2.15531 -0.144663 8.07427e-20)
(2.13962 -0.160459 -4.16513e-20)
(2.1692 -0.185013 3.85471e-20)
(1.73881 -0.0336804 -5.90602e-20)
(1.74457 -0.0433121 -3.9844e-21)
(1.73697 -0.0512789 1.13065e-19)
(1.74397 -0.0613955 -8.65983e-21)
(1.72935 -0.0692127 -3.19513e-20)
(1.74141 -0.0809379 6.63803e-20)
(1.7175 -0.089105 -4.60635e-20)
(1.73853 -0.103281 3.03701e-20)
(1.70131 -0.11193 6.07806e-22)
(1.73744 -0.129056 -3.38097e-20)
(0.864448 -0.0142593 4.97478e-20)
(0.845132 -0.0139644 3.99534e-20)
(0.824401 -0.0137871 3.89352e-20)
(0.806073 -0.0137764 6.20746e-20)
(0.784411 -0.0142944 -3.14097e-20)
(0.768201 -0.0151682 -3.58809e-20)
(0.743374 -0.0166669 1.53935e-20)
(0.731217 -0.0186972 -2.8753e-21)
(0.695372 -0.020157 4.31487e-21)
(0.698664 -0.027683 -6.15139e-21)
(1.57928 0.959549 -8.66559e-20)
(1.56275 1.00592 2.78462e-20)
(1.56614 1.06003 -6.4941e-19)
(1.57478 1.12166 2.43924e-19)
(1.58143 1.18683 1.21576e-18)
(1.57752 1.24769 -1.52499e-19)
(1.54126 1.28208 -1.08497e-18)
(1.42221 1.23793 -6.74803e-21)
(1.13006 1.0179 -5.37874e-19)
(0.53216 0.492065 1.23583e-19)
(1.74526 0.928395 0)
(1.73378 0.973404 7.55504e-19)
(1.73359 1.02376 1.67235e-18)
(1.74188 1.08292 -1.02781e-18)
(1.75195 1.1467 -2.40046e-18)
(1.75163 1.20572 -1.59476e-19)
(1.71383 1.23668 -2.04273e-19)
(1.58041 1.18808 7.45288e-19)
(1.25056 0.968298 1.11417e-18)
(0.583602 0.461032 4.44889e-19)
(1.89956 0.88686 7.08285e-20)
(1.89714 0.931575 0)
(1.89824 0.978978 -7.04334e-20)
(1.90713 1.03365 1.04869e-18)
(1.91933 1.09271 5.81235e-20)
(1.92053 1.14654 -2.35429e-18)
(1.87867 1.17121 1.48785e-18)
(1.72789 1.11733 8.85312e-19)
(1.35871 0.900829 -9.58494e-19)
(0.626235 0.420605 -2.87041e-19)
(2.03428 0.837122 -1.90934e-19)
(2.04228 0.87983 -1.40499e-19)
(2.04921 0.92356 2.8936e-19)
(2.06135 0.972703 -3.5856e-19)
(2.07583 1.02524 -1.66147e-18)
(2.07708 1.07158 -1.28674e-18)
(2.02831 1.08824 1.35944e-18)
(1.85751 1.02767 8.9546e-19)
(1.4466 0.816046 0)
(0.655553 0.371182 0)
(2.15406 0.770069 -9.5854e-19)
(2.1705 0.810472 -1.74673e-18)
(2.18414 0.850838 -6.72802e-19)
(2.20053 0.894913 -3.56203e-20)
(2.21695 0.941037 0)
(2.21632 0.979479 1.44167e-19)
(2.15772 0.98544 1.67028e-19)
(1.9611 0.919123 2.0837e-19)
(1.50646 0.716465 -3.0002e-19)
(0.667671 0.313393 -7.52147e-20)
(2.2582 0.69468 1.14621e-18)
(2.28205 0.730569 -4.40949e-20)
(2.30204 0.76616 -1.34217e-18)
(2.32243 0.804133 0)
(2.33974 0.842156 0)
(2.33427 0.870834 0)
(2.25972 0.867801 1.54906e-18)
(2.03121 0.796015 -1.71293e-18)
(1.53391 0.603138 -1.09117e-18)
(0.659872 0.24999 1.28864e-20)
(2.34958 0.605409 -1.49815e-18)
(2.37829 0.637116 -3.14435e-18)
(2.40284 0.66823 -5.44981e-21)
(2.42561 0.700311 6.34302e-19)
(2.441 0.730512 -4.00905e-20)
(2.4257 0.749464 1.34341e-18)
(2.3287 0.736917 -7.3924e-19)
(2.06371 0.660531 -1.98392e-18)
(1.52393 0.4811 1.20049e-19)
(0.630876 0.185061 9.08003e-20)
(2.42815 0.512793 -1.17619e-18)
(2.45934 0.538549 1.69971e-20)
(2.48585 0.564037 4.44041e-19)
(2.50818 0.58935 -4.27909e-19)
(2.51764 0.611023 6.625e-19)
(2.48664 0.619729 1.77294e-18)
(2.35993 0.597438 -1.67774e-19)
(2.05248 0.518103 -1.05036e-18)
(1.47229 0.356902 2.41837e-19)
(0.5808 0.12301 4.4036e-20)
(2.49282 0.413691 4.31797e-19)
(2.52432 0.435248 8.79685e-20)
(2.55017 0.455351 -4.46623e-19)
(2.5686 0.473801 -1.03734e-18)
(2.56689 0.486835 7.80053e-20)
(2.51265 0.485531 6.43637e-20)
(2.34758 0.454696 -1.31245e-18)
(1.99198 0.375499 5.51051e-19)
(1.377 0.237739 1.60401e-19)
(0.511716 0.0682542 -7.68736e-20)
(2.54323 0.317633 8.09632e-19)
(2.57254 0.334024 -1.20449e-18)
(2.59477 0.3479 1.83719e-19)
(2.60468 0.358944 2.38202e-18)
(2.58478 0.363179 1.16718e-18)
(2.4979 0.352564 -2.51327e-18)
(2.28505 0.31538 -2.34364e-18)
(1.8777 0.240464 1.00692e-18)
(1.23874 0.131259 -3.22132e-20)
(0.42779 0.0246513 -8.1385e-20)
(0.537457 0.406463 -1.51425e-19)
(0.497245 0.420472 -1.58691e-19)
(0.452053 0.435423 6.63774e-20)
(0.402483 0.451475 -2.19117e-19)
(0.348203 0.46849 -1.57448e-20)
(0.288376 0.48502 2.07111e-19)
(0.222048 0.495087 2.91227e-20)
(0.149689 0.481512 9.85094e-21)
(0.078282 0.406881 2.33842e-20)
(0.0161717 0.20829 1.21243e-20)
(0.583446 0.512103 1.24377e-19)
(0.544147 0.532659 1.57413e-19)
(0.500701 0.554736 4.90959e-20)
(0.453287 0.578501 -4.39728e-20)
(0.401255 0.603713 -2.0692e-19)
(0.343498 0.62839 -2.01659e-20)
(0.278338 0.644634 4.28749e-20)
(0.204338 0.629804 4.43913e-20)
(0.124657 0.534207 -1.32097e-19)
(0.0401107 0.27442 -4.5787e-20)
(0.647039 0.610444 -9.71089e-20)
(0.608973 0.63674 -8.29417e-20)
(0.567843 0.665029 9.00616e-20)
(0.523372 0.695792 5.94988e-20)
(0.474632 0.728893 -8.22792e-20)
(0.420195 0.761896 -1.27344e-20)
(0.357311 0.784924 -1.13589e-19)
(0.281654 0.769762 -8.99695e-20)
(0.190498 0.654558 -7.32079e-20)
(0.0741388 0.336544 5.79326e-23)
(0.727674 0.704992 2.26497e-20)
(0.691416 0.737613 -6.1481e-20)
(0.653535 0.772096 -7.63297e-20)
(0.612793 0.809146 -7.22179e-20)
(0.567843 0.848772 -6.63937e-20)
(0.517068 0.888222 -9.05829e-21)
(0.456667 0.915861 -2.98612e-19)
(0.378846 0.89849 6.63004e-20)
(0.273189 0.763687 -3.34987e-19)
(0.11683 0.392045 4.99677e-20)
(0.821311 0.783584 1.35201e-20)
(0.787577 0.821178 1.76926e-20)
(0.75424 0.861175 -5.14378e-20)
(0.719189 0.904628 -2.8359e-19)
(0.680287 0.951311 1.30897e-19)
(0.63511 0.997787 4.74552e-20)
(0.578229 1.03067 3.828e-20)
(0.49762 1.0121 -1.92451e-19)
(0.373575 0.859852 4.02823e-19)
(0.168084 0.440161 2.92566e-19)
(0.930936 0.860935 -1.05789e-19)
(0.898775 0.902942 -2.00112e-19)
(0.868634 0.946195 1.23939e-20)
(0.837854 0.993182 1.03672e-19)
(0.804276 1.04427 3.84284e-19)
(0.764964 1.09536 2.83678e-19)
(0.712339 1.13091 6.75784e-19)
(0.6291 1.1087 2.77246e-19)
(0.484911 0.938928 1.51059e-19)
(0.22482 0.478097 2.12119e-19)
(1.04655 0.912456 -1.12315e-19)
(1.02049 0.959315 6.48494e-19)
(0.99817 1.00715 4.22327e-19)
(0.975004 1.05848 -5.43462e-19)
(0.948218 1.11389 -2.7081e-19)
(0.914776 1.16926 7.03659e-19)
(0.86551 1.20761 -1.10217e-19)
(0.777604 1.18288 -4.75286e-19)
(0.608943 0.998716 2.64024e-20)
(0.286726 0.505171 2.64627e-19)
(1.16922 0.964677 3.20181e-19)
(1.14315 1.01188 6.13743e-20)
(1.12547 1.06005 -8.05338e-19)
(1.11035 1.11328 1.75331e-19)
(1.09306 1.17127 6.14319e-19)
(1.06847 1.22852 -3.38506e-19)
(1.02449 1.26639 -1.05741e-19)
(0.932178 1.23613 -1.95123e-19)
(0.73744 1.0378 1.97763e-20)
(0.350014 0.520118 -3.09049e-19)
(1.30082 0.982299 1.92128e-20)
(1.2855 1.03338 -5.89709e-19)
(1.27526 1.08253 -4.95637e-21)
(1.26573 1.13678 5.00686e-19)
(1.25425 1.19718 -5.18582e-19)
(1.23564 1.2572 1.01353e-18)
(1.19468 1.2959 6.80831e-19)
(1.0952 1.26187 -1.00572e-18)
(0.870446 1.05346 -7.90727e-20)
(0.413637 0.522484 -3.41895e-19)
(1.40498 0.990968 -3.54539e-19)
(1.4012 1.04307 -3.33588e-19)
(1.40849 1.09411 3.11774e-19)
(1.41399 1.14924 8.18679e-19)
(1.41417 1.20918 2.94057e-19)
(1.40426 1.26777 -8.38476e-19)
(1.36692 1.30338 1.06464e-19)
(1.25918 1.26345 2.27598e-19)
(1.0022 1.04702 -3.07404e-19)
(0.474923 0.512996 -2.42797e-19)
(0.990011 0.0152437 7.99446e-22)
(1.01352 0.040623 -1.88659e-20)
(1.0221 0.0512337 -1.52945e-20)
(1.02017 0.0784266 0)
(1.02706 0.0982183 1.92241e-20)
(1.01971 0.133757 2.75221e-20)
(0.996117 0.172416 3.72376e-20)
(0.94909 0.205595 8.13562e-20)
(0.863097 0.269565 -1.21959e-19)
(0.712798 0.336699 -1.88859e-19)
(0.990451 0.0133412 3.93213e-20)
(1.01189 0.0385707 -6.11768e-20)
(1.02146 0.049739 1.84446e-22)
(1.01846 0.0771859 -1.93081e-20)
(1.0276 0.0989494 9.57018e-21)
(1.02162 0.138315 -1.39512e-20)
(1.0013 0.182509 -8.67179e-20)
(0.961672 0.225532 0)
(0.878654 0.306898 2.53274e-19)
(0.752048 0.406 -2.63435e-19)
(0.990575 0.0116611 -2.88405e-20)
(1.01099 0.0366745 1.69654e-20)
(1.02106 0.0481802 4.08596e-20)
(1.0185 0.0762471 1.01503e-20)
(1.02847 0.0991943 -2.30143e-20)
(1.02619 0.143247 1.1352e-21)
(1.00682 0.191574 -5.98913e-20)
(0.978677 0.245232 -5.71317e-21)
(0.896829 0.342555 8.41499e-24)
(0.805314 0.472477 7.43718e-19)
(0.99042 0.0101226 -3.2082e-20)
(1.01069 0.0349072 2.44267e-21)
(1.02099 0.0464125 3.33959e-20)
(1.02002 0.0756651 2.15439e-20)
(1.02986 0.0988181 -1.15127e-20)
(1.0331 0.14879 -1.61787e-20)
(1.01292 0.199334 8.65163e-20)
(0.999901 0.265222 -1.60961e-21)
(0.917442 0.375369 -2.78475e-19)
(0.87229 0.534741 9.37121e-20)
(0.990033 0.00867936 2.23802e-20)
(1.01087 0.0332146 -3.18749e-20)
(1.02142 0.0443456 -2.66661e-20)
(1.02263 0.075459 1.27631e-20)
(1.03212 0.0977422 0)
(1.04178 0.155005 0)
(1.02034 0.205653 7.25016e-20)
(1.02402 0.285565 2.39504e-22)
(0.942792 0.40505 -1.26619e-19)
(0.949226 0.59103 9.41893e-20)
(0.989457 0.00728941 6.30101e-21)
(1.0114 0.0315058 2.58338e-20)
(1.02257 0.0419487 -7.20805e-20)
(1.02596 0.0755799 -2.47214e-20)
(1.0356 0.0959658 -6.25949e-22)
(1.05177 0.161868 6.79328e-20)
(1.02933 0.210305 1.11147e-19)
(1.0515 0.306803 -8.48993e-22)
(0.969798 0.429459 2.10435e-19)
(1.04253 0.647152 -2.22141e-19)
(0.988719 0.00591353 -2.45337e-20)
(1.0122 0.0296573 1.37425e-20)
(1.02461 0.0392537 -1.95303e-20)
(1.02963 0.0758676 -5.27412e-20)
(1.04077 0.0936148 1.96599e-21)
(1.06229 0.169157 -1.62675e-21)
(1.04126 0.21351 -6.26866e-21)
(1.07927 0.328142 -2.30218e-19)
(1.00719 0.449618 1.54185e-19)
(1.13014 0.687292 -5.5025e-19)
(0.987828 0.00453872 -4.10606e-21)
(1.01325 0.0275337 -4.00096e-20)
(1.02759 0.0363392 3.94769e-20)
(1.03341 0.0761092 2.8149e-20)
(1.04785 0.090887 1.01683e-21)
(1.07307 0.176482 -7.85031e-20)
(1.05602 0.215655 -6.1176e-20)
(1.10959 0.349738 4.09813e-19)
(1.0438 0.466445 1.55217e-20)
(1.24832 0.744524 8.62003e-19)
(0.986777 0.00315352 1.69582e-20)
(1.01458 0.0250114 1.83678e-20)
(1.03148 0.0333105 4.5727e-20)
(1.0373 0.0761722 -3.10155e-20)
(1.05694 0.087885 -8.17498e-20)
(1.08365 0.183876 1.2188e-21)
(1.07497 0.214926 -8.38994e-20)
(1.13958 0.369205 5.29387e-19)
(1.10099 0.466351 -9.39252e-21)
(1.31843 0.76057 -1.19685e-18)
(0.985569 0.0018248 4.25395e-22)
(1.01623 0.0220387 2.89152e-20)
(1.03614 0.0304384 1.52069e-20)
(1.04151 0.0756878 -6.23818e-20)
(1.06692 0.0868487 -7.94912e-20)
(1.09355 0.191218 -6.59808e-20)
(1.09509 0.221644 -1.53079e-19)
(1.16576 0.391281 -4.74788e-19)
(1.1591 0.492979 -2.57579e-19)
(1.45883 0.828842 -1.25534e-18)
(0.984055 -0.000413389 -1.32096e-21)
(1.01795 0.0174666 -6.44667e-21)
(1.04318 0.0246102 -1.69633e-20)
(1.04711 0.0736048 3.44822e-20)
(1.08026 0.0772983 5.92978e-20)
(1.11254 0.19503 -4.32549e-20)
(1.11678 0.204531 1.45269e-19)
(1.21255 0.399877 -4.39898e-19)
(1.22414 0.431403 -1.95484e-19)
(1.47337 0.818686 6.64194e-19)
(0.983261 -0.00392798 2.25302e-21)
(1.01981 0.0103651 1.33697e-20)
(1.05362 0.015224 -1.12616e-20)
(1.05146 0.0684528 6.39135e-20)
(1.10252 0.0595945 9.97687e-20)
(1.12721 0.191998 1.27099e-19)
(1.15459 0.176821 3.29424e-20)
(1.24214 0.383484 2.08145e-19)
(1.32332 0.380418 3.14446e-19)
(1.49434 0.717134 2.63804e-20)
(0.982233 -0.00777841 -1.71726e-21)
(1.02372 0.00129637 -4.12619e-21)
(1.06438 0.00609387 3.70324e-21)
(1.05729 0.0601733 4.66005e-21)
(1.1296 0.0424078 3.00902e-34)
(1.13419 0.185274 -7.51477e-21)
(1.19823 0.148202 -5.39511e-34)
(1.2608 0.355692 1.98256e-20)
(1.39454 0.324309 -5.8919e-20)
(1.54162 0.624227 -5.85144e-20)
(0.980207 -0.0127036 1.43262e-20)
(1.03125 -0.00978183 -4.6581e-35)
(1.07276 -0.0033354 -4.23192e-21)
(1.07163 0.0477193 -2.84688e-20)
(1.15161 0.0279121 -4.86812e-20)
(1.14449 0.174562 -4.15556e-20)
(1.23242 0.11991 -6.8318e-34)
(1.28381 0.323052 -8.08794e-20)
(1.43477 0.267371 -1.471e-19)
(1.58643 0.530876 9.86233e-20)
(0.977101 -0.0192603 0)
(1.0427 -0.0222435 5.00943e-35)
(1.07904 -0.0143542 0)
(1.09765 0.0308335 0)
(1.16358 0.0164639 0)
(1.16619 0.157472 0)
(1.25353 0.0945583 -4.68701e-34)
(1.31358 0.281817 0)
(1.4561 0.218196 -2.10732e-20)
(1.60914 0.437842 5.83774e-20)
(0.973025 -0.0273439 3.03695e-21)
(1.05785 -0.0350916 4.71449e-21)
(1.08608 -0.0267907 -5.3784e-21)
(1.13079 0.0139303 0)
(1.1682 0.0101185 0)
(1.19524 0.135114 6.54609e-21)
(1.26952 0.0740488 4.21674e-20)
(1.34087 0.234759 -1.41363e-20)
(1.46984 0.176846 -3.07216e-20)
(1.61712 0.349859 2.26488e-19)
(0.968864 -0.0418945 -7.91749e-20)
(1.07779 -0.0543331 3.24667e-22)
(1.0949 -0.0463151 -6.03484e-21)
(1.15885 -0.00843759 -1.8002e-20)
(1.16014 0.00316154 -2.9244e-20)
(1.21699 0.104872 -1.02985e-20)
(1.27598 0.0563864 -3.44214e-20)
(1.35493 0.185452 -3.22414e-20)
(1.47449 0.139742 -5.48477e-20)
(1.62454 0.265694 6.51086e-20)
(0.966355 -0.0488443 -6.35603e-21)
(1.09696 -0.0623515 -1.84025e-20)
(1.08516 -0.0537696 -6.68902e-21)
(1.14552 -0.0189342 -5.24269e-21)
(1.10294 0.00380548 -5.22981e-35)
(1.20117 0.0730665 6.82255e-21)
(1.22713 0.0423445 -9.11023e-34)
(1.33943 0.135361 -1.36438e-20)
(1.43931 0.102249 1.89448e-20)
(1.62585 0.18273 2.69817e-20)
(0.962325 -0.0902483 1.96129e-19)
(1.05581 -0.0918225 -4.7521e-21)
(0.969777 -0.0728857 -7.20559e-21)
(0.980158 -0.0300249 1.43813e-20)
(0.900583 -0.000942493 1.53628e-20)
(1.03516 0.0372661 1.41208e-20)
(1.016 0.0286364 1.50566e-20)
(1.19363 0.0810237 -9.38127e-21)
(1.26165 0.062701 -2.21694e-20)
(1.5087 0.100867 1.47714e-19)
(0.830297 -0.0459254 8.72341e-21)
(0.732527 -0.0343276 -9.48385e-35)
(0.534471 -0.0171406 -8.39309e-21)
(0.475735 -0.00217842 0)
(0.42379 0.000975927 0)
(0.507997 0.00915975 6.79876e-21)
(0.506895 0.00547593 -5.95695e-36)
(0.647141 0.0177133 -1.31445e-20)
(0.712989 0.00974669 -2.77382e-20)
(0.89721 0.0171056 5.85186e-20)
(1.68211 0.843394 -2.00152e-19)
(1.78386 0.823547 -2.93783e-19)
(1.90228 0.787553 0)
(2.01076 0.742769 1.60864e-19)
(2.11375 0.679887 6.85589e-19)
(2.20247 0.613453 -1.23439e-19)
(2.28527 0.532147 1.77547e-18)
(2.35673 0.453544 -8.65449e-20)
(2.41895 0.364177 -3.94256e-19)
(2.47241 0.282494 3.49835e-19)
(1.70753 0.692293 1.03393e-19)
(1.78498 0.674518 1.17304e-19)
(1.88289 0.639754 -1.4509e-20)
(1.96817 0.599147 2.26092e-19)
(2.06253 0.541599 -1.85476e-19)
(2.12769 0.489522 -4.32768e-19)
(2.21194 0.419462 -1.30928e-19)
(2.25672 0.365 5.93432e-19)
(2.33585 0.28752 -2.30775e-20)
(2.35704 0.236405 -5.11246e-19)
(1.74327 0.575356 1.00851e-19)
(1.81155 0.552248 1.89576e-19)