/*--------------------------------*- C++ -*----------------------------------*\
  =========                 |
  \\      /  F ield         | OpenFOAM: The Open Source CFD Toolbox
   \\    /   O peration     | Website:  https://openfoam.org
    \\  /    A nd           | Version:  13
     \\/     M anipulation  |
\*---------------------------------------------------------------------------*/
FoamFile
{
    format      ascii;
    class       volScalarField;
    location    "3.45";
    object      p;
}
// * * * * * * * * * * * * * * * * * * * * * * * * * * * * * * * * * * * * * //

dimensions      [0 2 -2 0 0 0 0];

internalField   nonuniform List<scalar> 
1800
(
-1.10665
-1.10672
-1.10428
-1.09814
-1.08863
-1.07677
-1.06535
-1.05796
-1.05378
-1.09437
-1.13385
-1.13236
-1.1293
-1.12378
-1.11591
-1.10602
-1.09539
-1.08654
-1.0788
-1.10604
-1.17308
-1.16856
-1.16352
-1.15726
-1.14982
-1.14127
-1.1318
-1.12223
-1.11423
-1.11743
-1.22114
-1.21334
-1.20525
-1.19695
-1.18801
-1.17781
-1.16581
-1.15214
-1.13798
-1.12566
-1.28257
-1.27154
-1.26077
-1.24974
-1.23724
-1.22179
-1.20247
-1.17937
-1.15364
-1.12714
-1.35936
-1.34555
-1.3315
-1.31601
-1.29632
-1.27063
-1.23885
-1.2023
-1.16287
-1.12265
-1.4498
-1.43349
-1.41492
-1.39164
-1.35989
-1.31904
-1.27117
-1.21941
-1.16649
-1.1149
-1.54745
-1.52899
-1.50356
-1.46785
-1.41902
-1.35929
-1.29353
-1.22617
-1.16016
-1.09733
-1.64198
-1.62117
-1.58578
-1.53314
-1.4636
-1.38356
-1.3002
-1.21841
-1.1407
-1.06828
-1.72023
-1.69621
-1.64802
-1.57536
-1.48394
-1.3844
-1.28512
-1.19053
-1.10239
-1.02114
-1.05842
-1.06437
-1.07224
-1.08421
-1.10222
-1.126
-1.15434
-1.18654
-1.22406
-1.26923
-1.13172
-1.1351
-1.14069
-1.15219
-1.17104
-1.19674
-1.22791
-1.26338
-1.30358
-1.35069
-1.19867
-1.19864
-1.20136
-1.21175
-1.23054
-1.2568
-1.28919
-1.32622
-1.36705
-1.41283
-1.23792
-1.23354
-1.23344
-1.24187
-1.25903
-1.28404
-1.31559
-1.35226
-1.39248
-1.43518
-1.24302
-1.23485
-1.23144
-1.23628
-1.24955
-1.27061
-1.29839
-1.33172
-1.36924
-1.40889
-1.22076
-1.21081
-1.20439
-1.2039
-1.20977
-1.22203
-1.24031
-1.26394
-1.29208
-1.32214
-1.1858
-1.17684
-1.16904
-1.16329
-1.15992
-1.15966
-1.16324
-1.17111
-1.18368
-1.20071
-1.15024
-1.1444
-1.13746
-1.12892
-1.11864
-1.10747
-1.09687
-1.08843
-1.084
-1.08872
-1.12033
-1.11762
-1.11278
-1.10356
-1.09001
-1.07295
-1.05418
-1.03603
-1.02137
-1.01703
-1.09937
-1.09936
-1.09582
-1.0872
-1.07366
-1.05598
-1.03589
-1.01627
-0.999164
-0.987724
-1.52038
-1.54361
-0.87924
-0.393564
-0.158107
-0.0104445
0.0376918
0.0480051
0.0344489
0.0147304
-1.62025
-1.7096
-1.05668
-0.490185
-0.194814
-0.0240714
0.0325899
0.0455532
0.0329656
0.0141137
-1.69737
-1.86937
-1.22727
-0.58843
-0.235305
-0.0422487
0.0242876
0.0410507
0.0304944
0.013101
-1.72643
-1.99722
-1.37431
-0.683001
-0.277757
-0.0641235
0.0130857
0.0346389
0.0270774
0.0117087
-1.69534
-2.07579
-1.49358
-0.770024
-0.321265
-0.0888669
-0.000620929
0.0265475
0.0228036
0.00998591
-1.60172
-2.10342
-1.5819
-0.847603
-0.365728
-0.115985
-0.0164752
0.0170292
0.0177996
0.00800381
-1.45442
-2.07721
-1.63823
-0.91404
-0.410995
-0.145356
-0.0342951
0.0062752
0.0122005
0.00584186
-1.28068
-2.01055
-1.66414
-0.967538
-0.456005
-0.176824
-0.0540728
-0.00567013
0.00608071
0.00357278
-1.1185
-1.93083
-1.66495
-1.00799
-0.49884
-0.209761
-0.0757636
-0.0188937
-0.00060907
0.00122832
-0.988262
-1.84944
-1.65403
-1.03953
-0.538786
-0.243366
-0.0990943
-0.0334413
-0.00798794
-0.00121695
-0.85913
-1.78646
-1.58693
-1.01771
-0.554867
-0.273454
-0.125849
-0.0521248
-0.017959
-0.00447043
-0.880482
-1.5661
-1.40256
-0.936312
-0.552134
-0.303334
-0.157463
-0.0751664
-0.0303106
-0.00842213
-0.859721
-1.3341
-1.23245
-0.871669
-0.557097
-0.334654
-0.188974
-0.0974973
-0.0420897
-0.0118855
-0.832328
-1.14136
-1.08931
-0.819196
-0.567116
-0.370945
-0.224333
-0.122234
-0.0554562
-0.0156776
-0.787324
-0.985252
-0.967407
-0.778239
-0.586413
-0.414173
-0.261461
-0.144897
-0.0662657
-0.0181925
-0.733378
-0.862295
-0.865549
-0.746984
-0.60911
-0.457255
-0.297423
-0.167354
-0.0768293
-0.0203753
-0.678119
-0.765
-0.780979
-0.722973
-0.635023
-0.497784
-0.3275
-0.184125
-0.0842121
-0.021315
-0.625136
-0.693092
-0.720094
-0.705731
-0.65049
-0.520246
-0.344062
-0.194569
-0.0889884
-0.0218245
-0.587179
-0.657136
-0.689899
-0.693958
-0.652051
-0.522712
-0.348202
-0.198772
-0.0913131
-0.0220937
-0.563157
-0.653401
-0.695844
-0.695639
-0.647795
-0.515128
-0.345098
-0.20005
-0.0929557
-0.02296
-0.880838
-0.939765
-0.983829
-1.01848
-1.04541
-1.0736
-1.1005
-1.12622
-1.12126
-1.10203
-0.720646
-0.787277
-0.842088
-0.887748
-0.92588
-0.956315
-0.978744
-0.990151
-0.991617
-0.990176
-0.593251
-0.661955
-0.721244
-0.770605
-0.811514
-0.842485
-0.865653
-0.881385
-0.892688
-0.903948
-0.488779
-0.55762
-0.617735
-0.668786
-0.710923
-0.745494
-0.772815
-0.797047
-0.817032
-0.838158
-0.403681
-0.471652
-0.530974
-0.582965
-0.626156
-0.664051
-0.695001
-0.723788
-0.748063
-0.772529
-0.335113
-0.401674
-0.45999
-0.511974
-0.555746
-0.594735
-0.627199
-0.656869
-0.682243
-0.706574
-0.281135
-0.346149
-0.403546
-0.454549
-0.498031
-0.536123
-0.568217
-0.596581
-0.621224
-0.644029
-0.241137
-0.304811
-0.361323
-0.41076
-0.453156
-0.489185
-0.51968
-0.545435
-0.567896
-0.587435
-0.217122
-0.279969
-0.335864
-0.384293
-0.425911
-0.460312
-0.489193
-0.512036
-0.531661
-0.546624
-0.206574
-0.269791
-0.325929
-0.374739
-0.416407
-0.4509
-0.479297
-0.501006
-0.518629
-0.528768
0.528188
0.454953
0.371116
0.281344
0.184297
0.0775556
-0.0386869
-0.157727
-0.257405
-0.305418
0.325436
0.246534
0.158562
0.062263
-0.0442797
-0.162686
-0.291694
-0.422851
-0.53154
-0.582474
0.103339
0.0217254
-0.0686674
-0.169008
-0.281471
-0.407258
-0.544411
-0.683115
-0.797794
-0.849542
-0.110009
-0.19485
-0.289177
-0.394467
-0.512576
-0.644444
-0.787881
-0.931066
-1.04854
-1.09868
-0.301769
-0.391094
-0.490591
-0.601473
-0.725292
-0.862672
-1.01106
-1.15742
-1.27044
-1.32019
-0.472178
-0.565961
-0.670061
-0.78545
-0.91347
-1.05482
-1.20441
-1.34805
-1.45712
-1.5051
-0.621966
-0.718838
-0.825584
-0.943257
-1.07289
-1.21404
-1.36118
-1.49912
-1.60116
-1.64552
-0.754084
-0.850694
-0.956729
-1.07322
-1.20079
-1.33803
-1.47833
-1.60594
-1.69713
-1.7365
-0.865497
-0.959012
-1.06146
-1.17363
-1.29545
-1.42445
-1.55288
-1.6653
-1.7429
-1.77667
-0.954648
-1.04292
-1.1393
-1.24407
-1.35633
-1.47255
-1.58426
-1.6777
-1.74041
-1.76884
1.8565
1.87169
1.88736
1.90232
1.91567
1.92671
1.9347
1.93963
1.94364
1.94802
1.78672
1.79864
1.81025
1.82044
1.82849
1.83367
1.83526
1.83355
1.83177
1.83271
1.69577
1.70342
1.70973
1.71377
1.71503
1.71278
1.70634
1.69629
1.68718
1.68393
1.58562
1.58846
1.58844
1.58498
1.57789
1.56644
1.54999
1.52959
1.51137
1.50322
1.45604
1.45302
1.44572
1.43392
1.41764
1.39612
1.36872
1.33695
1.30859
1.29508
1.31114
1.30218
1.28668
1.26512
1.23802
1.20469
1.16463
1.11992
1.08031
1.06076
1.15089
1.13543
1.11172
1.08054
1.04255
0.997009
0.943545
0.885022
0.83343
0.807651
0.984654
0.961658
0.927546
0.884421
0.833617
0.774454
0.706663
0.633798
0.570112
0.538108
0.817323
0.786716
0.741797
0.685958
0.621178
0.546872
0.463081
0.374463
0.298006
0.25993
0.664006
0.615352
0.552667
0.480935
0.401126
0.311637
0.212304
0.108663
0.0203604
-0.0230859
1.58564
1.57157
1.56128
1.55611
1.55579
1.56066
1.58108
1.6195
1.68499
1.78822
1.57936
1.56628
1.55676
1.55058
1.55003
1.55243
1.57082
1.60366
1.65941
1.74526
1.57368
1.56103
1.55208
1.54462
1.54369
1.54305
1.55919
1.58468
1.62826
1.69047
1.56852
1.55586
1.54726
1.53825
1.53677
1.5325
1.54624
1.56235
1.59212
1.62321
1.56387
1.55082
1.54229
1.5315
1.52928
1.5208
1.53196
1.53647
1.55162
1.54239
1.55968
1.54595
1.53716
1.52444
1.52116
1.50802
1.51626
1.50698
1.50699
1.44724
1.55597
1.54127
1.53188
1.51709
1.51237
1.49423
1.49899
1.4739
1.45835
1.33619
1.55275
1.53679
1.52643
1.50951
1.50288
1.47952
1.47996
1.43744
1.40543
1.21075
1.55004
1.53254
1.52084
1.50172
1.49271
1.46407
1.45901
1.39779
1.34641
1.06909
1.54787
1.5285
1.51515
1.49373
1.48201
1.44804
1.43724
1.3568
1.28426
0.922814
1.54578
1.52399
1.50765
1.48375
1.46713
1.42685
1.40567
1.30567
1.21165
0.783939
1.54495
1.51976
1.49916
1.47283
1.44954
1.40448
1.37009
1.26205
1.14031
0.766476
1.54603
1.51664
1.49059
1.46261
1.43161
1.38416
1.33614
1.22749
1.08241
0.76159
1.54955
1.51465
1.48211
1.45326
1.41382
1.36604
1.30465
1.20036
1.03517
0.76185
1.55614
1.51358
1.47381
1.44492
1.39554
1.35032
1.27564
1.17993
0.998828
0.764776
1.56648
1.51348
1.46582
1.43749
1.3777
1.33682
1.2496
1.16511
0.972367
0.766665
1.58035
1.51235
1.45674
1.42821
1.35981
1.32461
1.2271
1.15397
0.953981
0.767625
1.60551
1.51577
1.45083
1.42092
1.34415
1.31415
1.20876
1.14634
0.942053
0.768915
1.61797
1.50826
1.43852
1.40876
1.33107
1.30716
1.1969
1.14274
0.936595
0.772411
1.69443
1.52125
1.44236
1.40562
1.32525
1.30449
1.19159
1.14268
0.934108
0.777458
0.516644
0.352093
0.15551
-0.0339004
-0.203129
-0.353747
-0.488176
-0.609015
-0.715248
-0.806592
0.47222
0.342982
0.194778
0.045002
-0.0936888
-0.221233
-0.338215
-0.448498
-0.550245
-0.642112
0.462298
0.352777
0.234297
0.11174
-0.00722335
-0.12125
-0.229365
-0.332266
-0.42725
-0.514786
0.480668
0.378681
0.272448
0.165985
0.0609844
-0.0417572
-0.141314
-0.236917
-0.32728
-0.411622
0.503711
0.407424
0.30899
0.212444
0.117425
0.0233513
-0.069523
-0.16015
-0.246927
-0.328686
0.526481
0.435413
0.342935
0.252882
0.164458
0.076217
-0.0119642
-0.0990799
-0.182959
-0.262323
0.547204
0.461056
0.373473
0.287844
0.203423
0.118679
0.0335029
-0.0510292
-0.132681
-0.210016
0.565421
0.483829
0.400413
0.317652
0.235039
0.151662
0.0677966
-0.0152339
-0.0953577
-0.1711
0.58157
0.503719
0.423529
0.34194
0.25897
0.174871
0.0906564
0.00777933
-0.072118
-0.147517
0.594302
0.518186
0.438825
0.356235
0.271563
0.186144
0.101312
0.018276
-0.0615422
-0.136905
-1.53741
-1.50071
-1.42243
-1.32351
-1.22277
-1.13074
-1.05151
-0.986228
-0.935241
-0.899011
-1.61097
-1.57869
-1.5132
-1.42846
-1.33949
-1.25658
-1.1844
-1.12465
-1.07833
-1.04665
-1.62241
-1.59397
-1.54234
-1.47475
-1.40099
-1.32999
-1.26673
-1.2134
-1.17147
-1.14236
-1.58381
-1.55851
-1.51965
-1.46969
-1.41312
-1.35637
-1.30416
-1.25902
-1.22275
-1.1969
-1.51346
-1.49106
-1.46237
-1.42762
-1.38748
-1.34542
-1.30497
-1.26842
-1.23751
-1.21307
-1.43087
-1.41164
-1.39028
-1.36645
-1.33931
-1.30999
-1.28056
-1.25259
-1.22789
-1.20765
-1.35176
-1.3362
-1.32009
-1.30322
-1.28481
-1.26506
-1.24482
-1.2252
-1.20707
-1.19118
-1.28505
-1.27347
-1.26151
-1.24905
-1.23586
-1.22191
-1.20759
-1.19289
-1.17994
-1.16865
-1.23349
-1.22565
-1.21728
-1.20817
-1.19845
-1.1883
-1.17798
-1.16806
-1.15822
-1.15781
-1.19539
-1.1908
-1.18547
-1.17914
-1.17212
-1.16471
-1.1572
-1.15073
-1.14232
-1.14752
-1.1674
-1.16523
-1.16213
-1.15797
-1.1531
-1.14794
-1.14301
-1.13881
-1.13289
-1.11329
-1.14794
-1.1469
-1.14485
-1.14177
-1.13807
-1.13417
-1.13032
-1.12649
-1.12074
-1.09838
-1.13626
-1.13521
-1.13363
-1.13155
-1.12916
-1.12669
-1.1244
-1.12223
-1.11902
-1.11148
-1.12744
-1.12663
-1.12639
-1.127
-1.12841
-1.13069
-1.13392
-1.13806
-1.143
-1.15112
-1.11205
-1.11262
-1.1148
-1.11909
-1.12544
-1.13384
-1.14433
-1.15691
-1.17159
-1.18953
-1.08458
-1.08758
-1.09237
-1.09961
-1.1094
-1.12162
-1.13604
-1.15229
-1.16909
-1.18255
-1.04715
-1.05272
-1.06027
-1.07013
-1.08303
-1.09907
-1.11793
-1.13896
-1.16226
-1.19209
-1.00806
-1.01546
-1.02454
-1.03558
-1.04992
-1.06774
-1.0885
-1.11181
-1.1395
-1.17639
-0.988436
-0.996663
-1.00629
-1.0179
-1.03326
-1.05245
-1.0747
-1.09977
-1.12999
-1.1691
-1.00504
-1.01266
-1.02183
-1.03378
-1.05046
-1.07181
-1.09682
-1.12517
-1.15899
-1.20098
-1.13836
-1.3287
-0.86013
-0.537992
-0.35313
-0.156119
-0.0383122
0.00921529
0.0179034
0.00942206
-1.21267
-1.38364
-0.810412
-0.429723
-0.275742
-0.124747
-0.03212
0.00877986
0.0172121
0.00920582
-1.29436
-1.41254
-0.742755
-0.315181
-0.202838
-0.0948446
-0.0239664
0.011124
0.0182386
0.0096066
-1.38394
-1.42541
-0.668885
-0.214399
-0.141372
-0.0671706
-0.013028
0.0163611
0.0207723
0.0104715
-1.45755
-1.42956
-0.604487
-0.145198
-0.0995023
-0.043239
2.58154e-06
0.0235469
0.024171
0.01158
-1.50097
-1.41989
-0.562571
-0.115149
-0.0797573
-0.0238049
0.0133059
0.0312137
0.0276974
0.0127096
-1.49007
-1.38937
-0.549432
-0.125782
-0.0778649
-0.00950136
0.0246535
0.0380167
0.0307614
0.013686
-1.44202
-1.35152
-0.56582
-0.168256
-0.0867205
-0.00106818
0.03294
0.0432896
0.0330593
0.0144141
-1.41443
-1.35051
-0.620141
-0.229023
-0.103421
0.00134204
0.0378829
0.0467845
0.0344692
0.0148499
-1.44036
-1.41397
-0.723911
-0.304508
-0.127268
-0.00191974
0.0394618
0.0483898
0.0349428
0.0149656
-0.988173
-0.980209
-0.800609
-0.675948
-0.454151
-0.192798
-0.0385887
0.0185108
0.0246162
0.0121156
-0.982892
-0.971609
-0.796323
-0.678423
-0.460518
-0.195572
-0.0395782
0.0181223
0.0243981
0.0120058
-0.993305
-1.01114
-0.808967
-0.679904
-0.463679
-0.198078
-0.0411112
0.0167214
0.0234788
0.011631
-1.02364
-1.09991
-0.83306
-0.669435
-0.457544
-0.194903
-0.042159
0.0143186
0.0218291
0.010954
-1.07558
-1.2333
-0.860019
-0.615268
-0.414314
-0.181644
-0.0421518
0.0112444
0.019724
0.0101311
-0.862657
-1.00339
-1.09953
-1.1619
-1.18002
-1.18678
-1.17091
-1.14446
-1.11251
-1.07388
-0.863481
-1.00643
-1.10121
-1.16204
-1.1752
-1.18175
-1.16409
-1.1338
-1.10763
-1.06557
-0.865943
-1.0105
-1.10445
-1.1636
-1.17437
-1.18053
-1.16092
-1.13397
-1.11164
-1.07823
-0.871746
-1.01826
-1.11257
-1.16967
-1.18153
-1.18412
-1.16561
-1.14447
-1.12655
-1.11444
-0.881698
-1.03065
-1.12596
-1.18119
-1.19533
-1.19267
-1.1774
-1.15844
-1.14462
-1.15177
1.44524
1.4356
1.41936
1.39944
1.37666
1.35001
1.31882
1.28486
1.25599
1.24254
1.5512
1.55327
1.54907
1.54053
1.52873
1.51315
1.49328
1.47047
1.45099
1.4424
1.65372
1.66115
1.66405
1.66368
1.66078
1.65489
1.64537
1.63299
1.62233
1.61827
1.74433
1.75623
1.76543
1.77237
1.77731
1.77968
1.77876
1.77493
1.77148
1.77148
1.82118
1.83649
1.85017
1.86229
1.87285
1.88128
1.88685
1.88964
1.89193
1.89526
1.8795
1.89704
1.91413
1.93042
1.94553
1.95886
1.96966
1.97771
1.98446
1.99052
1.91831
1.93728
1.95658
1.97553
1.99349
2.00985
2.02384
2.03512
2.04467
2.05249
1.9358
1.95523
1.97553
1.99575
2.01506
2.0328
2.04823
2.06092
2.07169
2.08026
1.93142
1.95042
1.97046
1.99044
2.00944
2.02676
2.04168
2.0538
2.06407
2.07234
1.90497
1.92258
1.94109
1.95933
1.97634
1.99142
2.00385
2.01339
2.02139
2.02826
-0.701122
-0.743511
-0.799246
-0.86888
-0.953134
-1.0513
-1.16014
-1.26931
-1.35751
-1.39832
-0.459852
-0.508353
-0.568909
-0.642263
-0.729515
-0.830753
-0.944454
-1.06041
-1.15541
-1.19883
-0.189155
-0.243368
-0.308429
-0.384766
-0.473632
-0.575632
-0.689201
-0.80572
-0.906296
-0.950673
0.090463
0.0322015
-0.0355913
-0.113036
-0.20132
-0.301207
-0.411467
-0.525299
-0.62263
-0.668664
0.3589
0.299522
0.23212
0.15674
0.0722616
-0.022292
-0.126142
-0.23321
-0.323944
-0.368299
0.601686
0.545277
0.482304
0.412807
0.335657
0.249731
0.155529
0.0584669
-0.0234979
-0.0640781
0.815591
0.765946
0.710949
0.650489
0.583366
0.508391
0.425906
0.340734
0.268957
0.233382
1.00801
0.966647
0.920898
0.870564
0.814319
0.750945
0.680711
0.607892
0.546656
0.516522
1.18764
1.15366
1.1154
1.07364
1.02716
0.974651
0.916248
0.855563
0.804725
0.780062
1.34515
1.31829
1.28617
1.25206
1.21526
1.17422
1.12855
1.08081
1.04083
1.02176
1.7004
1.6097
1.58797
1.5789
1.57432
1.58313
1.59611
1.62041
1.61666
1.56512
1.68286
1.60865
1.58786
1.5802
1.57616
1.58587
1.6017
1.63092
1.6453
1.63386
1.66704
1.60663
1.58686
1.58048
1.57706
1.58739
1.60612
1.64178
1.67323
1.70039
1.65283
1.6038
1.58517
1.57984
1.57706
1.58776
1.60892
1.6494
1.6957
1.75375
1.64003
1.6003
1.58292
1.57841
1.57626
1.58708
1.60995
1.65401
1.71247
1.79545
1.6285
1.59627
1.58019
1.57623
1.57468
1.58535
1.60923
1.65561
1.72322
1.82478
1.6181
1.59181
1.57704
1.57336
1.57233
1.58256
1.60682
1.65417
1.72777
1.84171
1.60871
1.58703
1.57353
1.56986
1.56924
1.5787
1.60277
1.64975
1.72608
1.84655
1.60023
1.58201
1.5697
1.56579
1.56543
1.57377
1.59711
1.64246
1.71835
1.83915
1.59257
1.57683
1.56561
1.56119
1.56093
1.56776
1.58987
1.63239
1.70465
1.81959
1.86764
1.61301
1.5805
1.56598
1.56288
1.5677
1.5682
1.57233
1.51399
1.46188
1.79321
1.60702
1.58152
1.56892
1.5646
1.56886
1.569
1.57371
1.51646
1.45883
1.77022
1.61191
1.5851
1.57188
1.56657
1.571
1.57184
1.57809
1.52701
1.45939
1.74349
1.61147
1.58671
1.57453
1.56891
1.57422
1.57788
1.58748
1.54698
1.47125
1.72023
1.61048
1.58755
1.57685
1.57154
1.57841
1.58558
1.60131
1.57597
1.49484
1.22859
1.1238
0.98324
0.802747
0.584797
0.336398
0.068924
-0.201103
-0.455476
-0.678289
1.22342
1.12197
0.986806
0.811401
0.598717
0.353963
0.0870168
-0.185844
-0.445666
-0.67463
1.23435
1.12932
0.992404
0.819023
0.61021
0.368034
0.100845
-0.174943
-0.439442
-0.673423
1.26649
1.1482
1.00126
0.826175
0.619462
0.378632
0.110511
-0.168248
-0.436954
-0.675513
1.32103
1.1811
1.01552
0.832893
0.625031
0.384769
0.116372
-0.164623
-0.43752
-0.681231
)
;

boundaryField
{
    left
    {
        type            zeroGradient;
    }
    right
    {
        type            fixedValue;
        value           uniform 0;
    }
    down
    {
        type            zeroGradient;
    }
    up
    {
        type            zeroGradient;
    }
    cylinder
    {
        type            zeroGradient;
    }
    defaultFaces
    {
        type            empty;
    }
}


// ************************************************************************* //
