/*--------------------------------*- C++ -*----------------------------------*\
  =========                 |
  \\      /  F ield         | OpenFOAM: The Open Source CFD Toolbox
   \\    /   O peration     | Website:  https://openfoam.org
    \\  /    A nd           | Version:  13
     \\/     M anipulation  |
\*---------------------------------------------------------------------------*/
FoamFile
{
    format      ascii;
    class       volScalarField;
    location    "0.235";
    object      strainRateViscosityModel:nu;
}
// * * * * * * * * * * * * * * * * * * * * * * * * * * * * * * * * * * * * * //

dimensions      [0 2 -1 0 0 0 0];

internalField   nonuniform List<scalar> 
1800
(
9.40499
9.19766
9.01003
8.8008
8.57586
8.34371
8.11492
7.89754
7.62358
7.37849
9.58529
9.41882
9.2669
9.09727
8.91104
8.71121
8.50326
8.28829
8.0269
7.70158
9.70222
9.56271
9.42804
9.27094
9.08862
8.87887
8.64073
8.36879
8.03031
7.61028
9.77541
9.65616
9.53325
9.38287
9.20046
8.98166
8.72271
8.41583
8.02863
7.5544
9.82169
9.71832
9.6056
9.46167
9.2807
9.05694
8.78545
8.45882
8.04769
7.55609
9.85186
9.76083
9.65732
9.5206
9.34356
9.11896
8.84034
8.50014
8.07151
7.5702
9.8718
9.78993
9.694
9.56398
9.39149
9.16771
8.88422
8.53254
8.08737
7.5757
9.88476
9.80926
9.7189
9.59397
9.42497
9.20149
8.91312
8.55008
8.08857
7.5636
9.89261
9.82108
9.73418
9.61223
9.4447
9.21966
8.92487
8.54927
8.07125
7.52877
9.89647
9.82687
9.74155
9.62072
9.45312
9.22577
8.92516
8.53957
8.05043
7.49292
1.75856
1.40079
1.19421
1.29569
1.71263
2.24539
2.48714
2.43047
2.33955
2.31812
3.72227
1.76341
1.47272
1.97345
2.70469
2.97702
2.80698
2.65927
2.68128
2.73844
4.70626
2.54978
2.42706
3.1898
3.61131
3.34636
3.07833
3.12162
3.26575
3.34684
5.26992
3.87142
3.81538
4.22369
4.18743
3.83291
3.72971
3.86731
3.96833
4.01548
6.05706
5.27224
5.11848
5.12544
4.91935
4.65981
4.58761
4.62157
4.61974
4.65832
6.96184
6.45983
6.22728
6.03986
5.79073
5.54915
5.39389
5.2978
5.22611
5.27847
7.77343
7.3783
7.11705
6.86064
6.58795
6.32145
6.08851
5.90244
5.77192
5.8256
8.40119
8.05578
7.79208
7.51558
7.22611
6.93075
6.64179
6.38614
6.19241
6.2297
8.8499
8.54563
8.29095
8.00996
7.70506
7.3786
7.03461
6.70016
6.41502
6.42143
9.1619
8.90166
8.66626
8.39638
8.09517
7.76498
7.40549
7.03463
6.70767
6.75188
2.18102
1.71898
1.31585
0.895135
0.52155
0.180772
0.0356016
0.013264
0.0108245
0.0100494
2.52798
1.85252
1.40979
0.914922
0.518246
0.172155
0.032381
0.0129261
0.0107304
0.0100392
2.95586
1.99209
1.4984
0.93826
0.514846
0.169176
0.0323237
0.0130173
0.0107709
0.0100488
3.44954
2.16664
1.58036
0.963443
0.510966
0.169399
0.0332487
0.0131713
0.0108269
0.0100618
3.99027
2.4046
1.66255
0.98859
0.505755
0.170341
0.0346424
0.0133707
0.0108975
0.0100779
4.53379
2.71363
1.75937
1.01503
0.49903
0.169948
0.0362219
0.0136181
0.0109798
0.0100961
5.00048
3.07125
1.88004
1.04331
0.489533
0.165871
0.0374395
0.0139085
0.0110694
0.0101156
5.31511
3.45311
2.04649
1.08992
0.483839
0.158706
0.0380196
0.0142347
0.0111624
0.010135
5.34516
3.73596
2.19542
1.12427
0.470414
0.144161
0.0363645
0.0143967
0.0112155
0.0101479
5.20312
4.00318
2.43411
1.23324
0.491583
0.140324
0.0374844
0.0150028
0.0110533
0.010039
4.94844
3.9607
2.49709
1.25378
0.46222
0.10686
0.0237355
0.0102278
0.0103813
0.0149631
5.34198
3.38003
2.18098
1.03271
0.322055
0.0327002
0.0170834
0.0621774
0.118113
0.17175
4.91555
3.04985
2.21786
1.12637
0.442947
0.141957
0.200202
0.308278
0.365499
0.401072
4.54003
3.60152
2.62153
1.5532
0.772396
0.386416
0.363936
0.43793
0.495948
0.539023
5.10356
4.72898
3.30572
2.11012
1.15233
0.635577
0.540506
0.594645
0.647198
0.685618
6.25226
5.66466
4.0452
2.65079
1.55186
0.929786
0.741144
0.740319
0.773362
0.802411
7.26336
6.37453
4.7132
3.14882
1.93857
1.22703
0.949286
0.886157
0.891081
0.904745
8.00073
6.91344
5.26206
3.59115
2.30242
1.5236
1.16285
1.02968
0.997951
0.990602
8.51893
7.3313
5.69894
3.97474
2.63588
1.80171
1.36366
1.16022
1.08855
1.05862
8.93086
7.69071
6.04986
4.2896
2.95497
2.09792
1.58801
1.30636
1.18573
1.12417
6.51294
6.43969
6.43049
6.44885
6.48754
6.53023
6.58232
6.71078
6.89536
6.82614
0.261073
1.05801
2.00907
2.92475
3.70638
4.31974
4.73729
4.98771
5.22796
5.73422
3.85011
3.54313
3.28343
3.1097
3.10485
3.24928
3.47293
3.71597
4.16958
4.85226
6.64487
6.6278
6.53746
6.34453
6.04219
5.65534
5.24537
4.89038
4.73312
4.54398
7.69223
7.67691
7.63251
7.54168
7.39648
7.19
6.9267
6.61815
6.28317
5.65115
8.44974
8.43333
8.39457
8.32797
8.22987
8.09708
7.92877
7.7172
7.42808
6.90746
8.93979
8.92404
8.89039
8.83691
8.76181
8.66308
8.5384
8.37925
8.1551
7.80919
9.27302
9.25985
9.2325
9.1899
9.13057
9.05252
8.95278
8.82495
8.65301
8.43122
9.50447
9.49418
9.47308
9.44025
9.39427
9.3332
9.25425
9.15289
9.02292
8.87541
9.68989
9.68284
9.66852
9.64603
9.61404
9.57069
9.51359
9.43972
9.34633
9.24404
7.25119
7.52807
7.8373
8.08723
8.34405
8.59886
8.84081
9.06125
9.25451
9.46041
7.58473
7.9487
8.24079
8.4806
8.70876
8.92432
9.12197
9.29885
9.45391
9.61818
7.49953
7.95764
8.32566
8.62004
8.8753
9.09739
9.28785
9.44944
9.58538
9.72234
7.44761
7.95776
8.37352
8.70165
8.97627
9.20574
9.39459
9.54803
9.67133
9.78829
7.4568
7.98074
8.41843
8.76467
9.05035
9.28343
9.46972
9.6159
9.72871
9.83026
7.48269
8.0117
8.4639
8.82133
9.11223
9.34468
9.52604
9.66447
9.76799
9.85767
7.50379
8.03786
8.50271
8.86856
9.16193
9.39187
9.56764
9.69891
9.79481
9.87572
7.51124
8.05247
8.52869
8.90207
9.19746
9.42521
9.59641
9.72215
9.81245
9.8873
7.49844
8.05048
8.53743
8.91899
9.2177
9.44505
9.61374
9.73608
9.82291
9.89406
7.48295
8.04363
8.53596
8.92347
9.22528
9.45333
9.62126
9.74219
9.82747
9.89695
2.50507
2.46572
2.48781
2.69074
2.84685
2.45656
1.63002
1.148
1.485
4.05367
2.93387
2.84644
2.69337
2.69849
3.08002
3.37841
2.75324
1.84792
2.06204
5.07072
3.45171
3.40532
3.24757
3.06621
3.26769
3.8173
3.77474
3.10559
3.2169
5.41528
3.967
3.95374
3.92351
3.81147
3.90046
4.32169
4.57997
4.43436
4.60993
5.87664
4.52742
4.49896
4.56972
4.63483
4.79139
5.11801
5.43386
5.60149
5.86956
6.60772
5.12737
5.08406
5.21877
5.41036
5.66446
5.98256
6.30588
6.58702
6.88875
7.3953
5.6729
5.63536
5.83131
6.09832
6.41084
6.74079
7.06624
7.374
7.67377
8.0824
6.07977
6.06336
6.32205
6.64536
6.99523
7.33849
7.66526
7.97193
8.25694
8.60993
6.26936
6.28607
6.63421
7.02648
7.41916
7.78283
8.11511
8.41537
8.682
8.98782
6.6065
6.57454
6.9577
7.37935
7.78033
8.1419
8.46547
8.74973
8.9927
9.25199
0.0896112
0.119145
0.0493314
0.0204204
0.0124152
0.240686
0.802037
1.38453
1.88051
2.37707
0.0584863
0.11553
0.050408
0.0226662
0.0163095
0.247606
0.831489
1.47542
1.9894
2.67211
0.039333
0.118038
0.0540856
0.0284612
0.0264926
0.271495
0.872928
1.55964
2.09295
3.01292
0.0286669
0.125171
0.0599721
0.0378382
0.0444936
0.307599
0.919888
1.63158
2.2236
3.41968
0.0235243
0.135929
0.0676712
0.0502953
0.0691084
0.349683
0.965758
1.69687
2.41677
3.89671
0.0220073
0.149582
0.0766705
0.064742
0.0973822
0.392244
1.00924
1.77406
2.68714
4.39257
0.0234742
0.16564
0.0863623
0.0793518
0.124626
0.429083
1.05037
1.87856
3.01656
4.8195
0.0286709
0.183914
0.0962947
0.0929514
0.149845
0.464887
1.11025
2.03901
3.37956
5.10072
0.0417174
0.204516
0.106211
0.101887
0.162107
0.48023
1.15345
2.18713
3.6542
5.10185
0.069134
0.226741
0.117587
0.111592
0.187216
0.536449
1.29016
2.44369
3.90425
4.90913
0.126068
0.256999
0.137645
0.116098
0.178487
0.521479
1.3351
2.55214
3.91208
4.69211
0.230913
0.295644
0.140457
0.105239
0.117302
0.371149
1.15332
2.33904
3.46261
5.21477
0.396113
0.304521
0.135104
0.0373903
0.0183545
0.229922
1.05986
2.31263
3.24783
4.95131
0.649571
0.299959
0.0330051
0.0772657
0.135661
0.404152
1.30661
2.53828
3.66179
4.68123
1.02474
0.0893186
0.22179
0.354943
0.417952
0.821009
1.85829
3.14553
4.67001
5.15421
1.5068
0.0718222
0.548731
0.551637
0.711116
1.27391
2.43721
3.89016
5.5848
6.21618
2.17774
0.685181
0.870055
0.844276
1.07064
1.74225
2.98291
4.58572
6.30024
7.21646
3.78439
1.68
1.30095
1.18407
1.44784
2.18396
3.4711
5.1665
6.85544
7.96975
6.85812
3.56988
1.99064
1.55362
1.80589
2.57991
3.89692
5.63672
7.29669
8.50761
9.04885
6.38495
2.88273
2.11161
2.23203
2.97394
4.2628
6.02777
7.6872
8.93782
6.63178
6.69358
6.51566
6.39287
6.35142
6.32427
6.30653
6.31782
6.36214
6.47639
5.54685
5.02749
4.78111
4.53749
4.13701
3.54884
2.80479
1.93627
1.04716
0.285117
4.8619
4.24232
3.82878
3.61447
3.4248
3.30369
3.30859
3.45233
3.65204
3.87275
4.69854
4.87036
5.01446
5.3273
5.69549
6.0492
6.33308
6.52177
6.61734
6.6424
5.67514
6.27845
6.60827
6.90972
7.17215
7.38189
7.53242
7.62875
7.67723
7.69284
6.86362
7.38807
7.68471
7.90292
8.07724
8.21541
8.31827
8.38894
8.43086
8.44915
7.76577
8.12112
8.35254
8.51838
8.64833
8.75127
8.82978
8.886
8.92178
8.93912
8.40507
8.63302
8.80911
8.94109
9.04413
9.12474
9.18603
9.23012
9.25859
9.27264
8.86623
9.01621
9.1476
9.25058
9.3308
9.39281
9.43942
9.47266
9.494
9.50442
9.24845
9.35025
9.44285
9.51618
9.57285
9.61581
9.64743
9.66953
9.68346
9.6901
9.50914
8.98479
8.23516
6.92745
5.59739
0.13117
3.36022
5.95962
7.21321
8.15108
9.46507
8.92098
8.16737
6.88975
5.54879
0.563688
2.62167
5.70527
6.91552
7.91312
9.36527
8.78217
8.01946
6.80873
5.36569
1.60326
1.41313
5.20593
6.30841
7.40237
9.18202
8.54437
7.77359
6.65416
5.18567
2.73968
0.722779
4.23769
5.42065
6.57045
8.8674
8.17267
7.40297
6.37587
5.02561
3.36747
0.970733
2.63088
4.31604
5.3927
8.34954
7.62859
6.87219
5.91601
4.764
3.43925
1.71919
1.30144
3.04817
3.98693
7.53476
6.89523
6.15409
5.22596
4.29808
3.26849
2.14304
1.173
1.65497
2.55585
6.32396
6.03597
5.27972
4.23
3.53114
2.9108
2.11839
1.43647
1.06882
1.23327
4.63093
5.23031
4.47253
2.99806
2.43494
2.27219
1.85583
1.38659
1.1244
0.659011
2.67398
4.53721
4.01872
1.96545
1.39585
1.48754
1.41072
1.21425
1.06623
0.847425
1.27942
3.78714
3.66288
1.3362
0.8165
0.899596
0.974707
0.960302
0.974779
1.0221
0.6161
2.96862
3.07936
0.957745
0.578154
0.645605
0.766755
0.827147
0.850023
0.882182
0.357332
2.18395
2.28067
0.693695
0.50003
0.604394
0.735748
0.819751
0.856575
0.88064
0.266635
1.53605
1.47734
0.530187
0.545408
0.683611
0.796084
0.866741
0.889704
0.899632
0.24059
0.996059
0.829564
0.521144
0.676087
0.808037
0.908144
0.971302
0.986748
0.983655
0.242715
0.474322
0.48826
0.631677
0.813222
0.950915
1.04841
1.10558
1.11573
1.10775
0.173426
0.197369
0.495544
0.741148
0.959883
1.10621
1.19544
1.24206
1.25913
1.26024
0.0440998
0.244823
0.632322
0.903029
1.11486
1.22998
1.30512
1.37611
1.43386
1.45583
0.0583539
0.482483
0.807269
1.07647
1.20376
1.3094
1.462
1.6234
1.71019
1.72434
0.671343
0.856407
1.02934
1.16039
1.29399
1.57205
1.89099
2.05948
2.05708
2.02265
0.363168
0.0783125
0.222648
0.548684
0.782315
0.860898
0.859465
0.854745
0.860079
0.879273
0.46533
0.210071
0.314198
0.512805
0.705175
0.771746
0.768993
0.767698
0.777185
0.79847
0.531212
0.375948
0.433931
0.498496
0.627217
0.681655
0.677378
0.677795
0.690322
0.712279
0.643928
0.585695
0.587005
0.534923
0.551973
0.583283
0.579635
0.583299
0.599166
0.620999
0.805828
0.791583
0.727273
0.612531
0.496758
0.483361
0.478706
0.485429
0.503739
0.524573
1.00029
0.977509
0.851136
0.704146
0.475822
0.387623
0.375282
0.384217
0.404553
0.424121
1.20826
1.14032
0.95583
0.780584
0.486646
0.306423
0.273018
0.280372
0.299533
0.315787
1.42526
1.28983
1.04755
0.831202
0.508105
0.250749
0.175735
0.178027
0.198453
0.214681
1.6555
1.43524
1.13398
0.860296
0.521372
0.218931
0.0947008
0.0646971
0.068257
0.0694998
1.90215
1.57941
1.22262
0.87849
0.523945
0.196581
0.0505652
0.0189926
0.0149018
0.0123921
2.00904
0.748308
0.727162
0.973836
1.20035
1.28637
1.28594
1.26387
1.24097
1.23153
1.39419
0.484755
0.589532
0.882848
1.11008
1.19446
1.19586
1.17929
1.16413
1.16205
0.751059
0.289768
0.491491
0.804872
1.03364
1.11693
1.11893
1.10624
1.09684
1.1005
0.252056
0.176519
0.414414
0.731126
0.955592
1.03422
1.03465
1.02506
1.02121
1.03072
0.433079
0.0333486
0.273709
0.615767
0.856716
0.942893
0.94569
0.939753
0.94131
0.956622
9.35424
9.28961
9.14047
8.87243
8.43667
7.77774
6.86996
5.75791
4.58086
3.53643
9.192
9.09513
8.88048
8.51086
7.9405
7.13521
6.10818
4.95361
3.84348
2.78598
9.02334
8.89967
8.6259
8.16016
7.46067
6.51486
5.36995
4.16716
3.07997
1.94157
8.81571
8.66153
8.32071
7.74697
6.90504
5.81298
4.55357
3.2933
2.22423
1.08818
8.58681
8.37864
7.92496
7.17643
6.11137
4.79084
3.34913
2.08329
0.991181
0.300808
1.06396
1.02904
1.02283
1.02716
0.92118
0.803694
1.29627
3.67427
3.85171
1.32797
0.955128
0.940597
0.934681
0.879807
0.727381
0.59599
0.918404
3.12923
3.09534
0.651313
0.992492
0.989256
0.973166
0.900574
0.756507
0.59623
0.711271
2.35227
2.31952
0.379926
1.05672
1.06794
1.06358
1.0042
0.895572
0.751679
0.669806
1.52843
1.59325
0.278838
1.18036
1.2031
1.20794
1.16069
1.07242
0.950783
0.789098
0.88167
0.879205
0.247669
1.33148
1.35031
1.35753
1.33053
1.25909
1.12602
0.906711
0.646734
0.343144
0.213349
1.51711
1.51295
1.48168
1.43832
1.38235
1.26941
1.03213
0.719789
0.264651
0.0647303
1.76378
1.75595
1.67528
1.52944
1.39536
1.2959
1.1527
0.851311
0.469146
0.0458515
2.03189
2.07481
2.06623
1.8748
1.54914
1.27919
1.14715
1.00697
0.804657
0.64274
2.24495
2.29151
2.4079
2.44216
2.13457
1.5593
1.14256
1.03877
1.25546
1.90738
8.15089
7.21285
5.95927
3.35971
0.131427
5.59592
6.92696
8.23496
8.98481
9.50924
7.91244
6.91442
5.70428
2.62105
0.563571
5.54493
6.8883
8.16678
8.92103
9.46538
7.40092
6.30654
5.20415
1.41497
1.59961
5.36118
6.80645
8.01858
8.7823
9.36586
6.56781
5.41776
4.23544
0.725924
2.73152
5.18091
6.65128
7.77259
8.54469
9.18306
5.38828
4.31149
2.63143
0.971058
3.35631
5.01963
6.37237
7.40198
8.17339
8.86918
3.97838
3.03989
1.30914
1.71406
3.42619
4.75512
5.91114
6.87118
7.62998
8.3526
2.53871
1.6509
1.18814
2.13403
3.25015
4.28153
5.21727
6.15288
6.89783
7.54034
1.2137
1.08756
1.45432
2.10853
2.87939
3.50156
4.21607
5.27965
6.04108
6.33548
0.670922
1.1554
1.41021
1.84406
2.23174
2.4002
2.98335
4.47555
5.23971
4.65702
0.888068
1.1055
1.25157
1.4167
1.46654
1.37112
1.94392
4.01997
4.55958
2.72097
2.08099
0.535951
1.04226
0.697338
0.731507
0.768427
0.626854
0.29651
0.0663758
0.358414
1.61809
0.244518
0.841108
0.543777
0.633415
0.68406
0.578864
0.351339
0.273525
0.492845
1.3248
0.0421632
0.610421
0.402833
0.536188
0.594842
0.539386
0.455349
0.476034
0.596643
1.07574
0.0221174
0.355228
0.282376
0.438444
0.500671
0.535095
0.618858
0.724546
0.76065
0.819938
0.106366
0.162253
0.198808
0.342236
0.413962
0.579279
0.78525
0.950632
0.969662
0.606313
0.168651
0.0278176
0.0882546
0.249753
0.349782
0.655719
0.933221
1.15024
1.20055
0.433909
0.190077
0.0542403
0.0110216
0.155761
0.319365
0.725746
1.04983
1.32102
1.43639
0.302433
0.17636
0.0579266
0.0245097
0.0554432
0.306192
0.765951
1.14045
1.47389
1.67156
0.20558
0.15172
0.0555109
0.025159
0.0186631
0.279439
0.780352
1.21798
1.61768
1.9008
0.136845
0.130924
0.0509105
0.0216211
0.0123754
0.2528
0.786978
1.29716
1.75493
2.1267
9.33644
6.76922
2.67991
1.75932
1.27003
1.1682
1.00461
0.805283
0.80361
2.03476
8.2107
4.63416
2.22396
1.47982
1.14267
1.07844
0.922913
0.670953
0.533338
1.39912
6.11901
3.06091
1.79079
1.27521
1.03985
1.00781
0.855938
0.576721
0.332628
0.740479
4.12944
1.87083
1.49512
1.06999
0.934967
0.933383
0.790799
0.49856
0.232806
0.221786
2.82844
1.059
1.2371
0.871274
0.82844
0.844935
0.690091
0.359591
0.044599
0.39605
3.54746
4.58815
5.76181
6.8721
7.77926
8.43779
8.87319
9.14094
9.28988
9.35433
2.78026
3.83994
4.95096
6.10646
7.13462
7.94051
8.51108
8.8807
9.09529
9.19206
1.92748
3.07074
4.16087
5.36531
6.51236
7.45954
8.15974
8.62582
8.89969
9.02336
1.05163
2.20055
3.2798
4.54536
5.80883
6.90284
7.74585
8.32024
8.66138
8.81568
0.298638
0.958225
2.0612
3.33557
4.78382
6.10779
7.17445
7.92401
8.37827
8.58673
)
;

boundaryField
{
    left
    {
        type            calculated;
        value           nonuniform List<scalar> 
35
(
0.286363
0.562649
0.993899
1.63392
2.53058
3.69364
5.0609
6.47532
8.15837
9.44176
0.198456
0.130038
0.0908278
0.070306
0.0605718
0.0572659
0.0590984
0.0682764
0.0943469
0.152258
4.93169
4.05486
3.22484
2.50514
1.90709
1.4087
1.00727
0.698602
0.469876
0.307623
9.61569
8.97918
7.92247
6.84837
5.85934
)
;
    }
    right
    {
        type            calculated;
        value           nonuniform List<scalar> 
35
(
1.23147
1.1624
1.10132
1.0321
0.958534
0.881398
0.800499
0.713772
0.621618
0.524141
0.422606
0.313334
0.211671
0.067234
0.0119849
0.0100197
0.0100134
0.0100147
0.0100171
0.0100207
0.0100254
0.010031
0.0100373
0.0100419
0.0100039
0.0167744
0.185017
0.418754
0.555584
0.700045
0.813651
0.91247
0.994939
1.06028
1.12291
)
;
    }
    down
    {
        type            calculated;
        value           nonuniform List<scalar> 
40
(
9.45419
7.26507
2.90895
1.84612
1.30876
1.19808
1.0328
0.847847
0.904557
2.26173
3.83246
4.88131
6.03247
7.09143
7.94345
8.55414
8.95381
9.19874
9.33522
9.39449
9.39439
9.33494
9.19823
8.95296
8.55283
7.94154
7.08858
6.02736
4.87205
3.81821
2.23211
0.848013
0.770608
1.00571
1.2325
1.31734
1.31499
1.29048
1.26473
1.25293
)
;
    }
    up
    {
        type            calculated;
        value           nonuniform List<scalar> 
40
(
9.03391
7.80807
6.16695
4.40023
3.064
2.19572
1.65831
1.34822
1.21218
1.14238
9.72926
9.72304
9.71044
9.69063
9.66233
9.62376
9.5726
9.50583
9.4207
9.32806
9.33478
9.42633
9.51022
9.5761
9.62655
9.66454
9.69233
9.71165
9.72377
9.7295
9.27057
7.09724
3.27157
2.25366
2.34712
3.09741
4.38659
6.15671
7.81382
9.04456
)
;
    }
    cylinder
    {
        type            calculated;
        value           nonuniform List<scalar> 
80
(
1.93495
4.56797
5.55472
5.78701
6.30866
7.09349
7.8639
8.476
8.91307
9.21319
9.44593
9.61877
9.72985
9.79831
9.84097
9.86847
9.88651
9.89818
9.90523
9.9087
9.50062
9.65076
9.74912
9.81052
9.84904
9.87392
9.89018
9.90056
9.90658
9.90914
5.15412
6.18115
6.19066
6.28923
6.81409
7.51643
8.1726
8.68519
9.05071
9.30273
0.998753
0.474405
0.265807
0.184279
0.161562
0.166228
0.0831101
0.0407685
0.719967
2.25496
9.59418
9.55558
9.46709
9.3014
9.00916
8.51054
7.6854
6.36661
4.39042
2.24439
9.59408
9.55526
9.46647
9.30031
9.00727
8.50726
7.67926
6.35313
4.35781
2.19312
0.955266
0.444307
0.245783
0.171881
0.151401
0.166973
0.159668
0.0836033
0.0422281
0.701368
)
;
    }
    defaultFaces
    {
        type            empty;
    }
}


// ************************************************************************* //
