/*--------------------------------*- C++ -*----------------------------------*\
  =========                 |
  \\      /  F ield         | OpenFOAM: The Open Source CFD Toolbox
   \\    /   O peration     | Website:  https://openfoam.org
    \\  /    A nd           | Version:  13
     \\/     M anipulation  |
\*---------------------------------------------------------------------------*/
FoamFile
{
    format      ascii;
    class       volVectorField;
    location    "0.235";
    object      U;
}
// * * * * * * * * * * * * * * * * * * * * * * * * * * * * * * * * * * * * * //

dimensions      [0 1 -1 0 0 0 0];

internalField   nonuniform List<vector> 
1800
(
(0.0978076 -0.0883349 -4.49399e-20)
(0.286909 -0.241967 -3.41491e-20)
(0.473988 -0.379066 -4.8499e-19)
(0.657705 -0.500181 1.91391e-19)
(0.836618 -0.607191 7.40681e-20)
(1.00991 -0.701387 -3.92185e-20)
(1.17713 -0.783462 5.55908e-20)
(1.33789 -0.853647 1.97449e-19)
(1.49152 -0.912894 5.92245e-19)
(1.63343 -0.966785 8.09865e-19)
(0.119066 -0.0915073 -7.91282e-20)
(0.344303 -0.24772 -7.70574e-19)
(0.563298 -0.384765 3.78108e-21)
(0.775379 -0.504253 1.25876e-19)
(0.979516 -0.608936 -1.26325e-19)
(1.17522 -0.700702 7.64105e-20)
(1.3623 -0.780782 -2.80804e-19)
(1.54075 -0.850073 -5.03108e-20)
(1.71006 -0.910652 -6.93407e-19)
(1.86778 -0.966955 6.29485e-19)
(0.141656 -0.0923265 4.8823e-20)
(0.403692 -0.24774 2.09286e-19)
(0.653771 -0.382129 5.43359e-19)
(0.892194 -0.497917 -1.90271e-19)
(1.11867 -0.598396 -1.429e-19)
(1.33322 -0.685818 7.56047e-20)
(1.53605 -0.761702 9.82424e-20)
(1.72742 -0.82728 1.94132e-19)
(1.90718 -0.884764 2.7355e-21)
(2.07417 -0.937805 1.51038e-19)
(0.163912 -0.0897238 -4.572e-20)
(0.461711 -0.239477 -2.04395e-19)
(0.741445 -0.367628 -1.81263e-19)
(1.00453 -0.476987 -1.42322e-19)
(1.25164 -0.571031 1.81325e-19)
(1.48353 -0.652132 -5.7102e-20)
(1.70094 -0.721904 -4.31057e-21)
(1.90454 -0.781611 2.92309e-21)
(2.09455 -0.83334 -1.60385e-19)
(2.27024 -0.880312 -1.06118e-19)
(0.184663 -0.0833589 -1.14053e-19)
(0.515907 -0.221813 8.76338e-20)
(0.823311 -0.339439 1.79862e-19)
(1.10933 -0.439072 2.43335e-19)
(1.37564 -0.524079 -2.8504e-19)
(1.62373 -0.596782 -3.58135e-21)
(1.85496 -0.658767 4.25019e-19)
(2.07044 -0.711255 -1.85081e-19)
(2.27084 -0.756147 -1.24007e-19)
(2.45578 -0.796367 -5.36949e-20)
(0.203196 -0.0735022 1.73605e-19)
(0.564486 -0.195205 1.02993e-18)
(0.896814 -0.298081 1.4326e-19)
(1.20354 -0.384742 -5.03185e-19)
(1.48722 -0.458233 -1.75518e-19)
(1.75006 -0.520673 6.3775e-19)
(1.99394 -0.573525 -1.45386e-19)
(2.22039 -0.617895 -4.31635e-19)
(2.4305 -0.655433 -3.16601e-19)
(2.62422 -0.688722 2.61614e-19)
(0.218905 -0.0605931 1.16351e-19)
(0.605763 -0.160705 -7.4766e-19)
(0.95934 -0.245035 -1.08571e-18)
(1.28374 -0.315803 3.83823e-19)
(1.58227 -0.375568 4.49987e-19)
(1.85772 -0.42613 -9.0214e-22)
(2.11243 -0.468739 -6.39724e-19)
(2.34833 -0.504321 2.19332e-19)
(2.56687 -0.534204 -3.6438e-19)
(2.76832 -0.560554 -3.1111e-19)
(0.231243 -0.0451737 -3.42516e-19)
(0.63822 -0.119687 -6.92649e-19)
(1.00852 -0.182298 1.21233e-18)
(1.34681 -0.234703 5.98751e-19)
(1.65698 -0.278854 -2.69781e-19)
(1.94229 -0.316136 -2.11512e-19)
(2.20548 -0.347513 0)
(2.4488 -0.373684 1.16801e-19)
(2.67404 -0.395614 -2.95863e-19)
(2.88177 -0.414957 -7.74753e-20)
(0.239775 -0.0278763 -2.04484e-19)
(0.660675 -0.0737574 5.62469e-19)
(1.04252 -0.1122 1.71048e-19)
(1.39035 -0.14429 -5.12546e-19)
(1.70846 -0.171276 -7.84259e-19)
(2.00043 -0.194051 3.6619e-20)
(2.2693 -0.213241 1.67167e-19)
(2.51759 -0.229287 -5.46855e-19)
(2.74738 -0.242776 -2.89827e-19)
(2.9596 -0.254767 -5.63677e-19)
(0.24427 -0.00940267 4.51459e-19)
(0.672478 -0.0247039 3.44209e-19)
(1.06034 -0.0373605 -9.38655e-20)
(1.41308 -0.047786 -1.29759e-20)
(1.7352 -0.0564584 -3.87546e-19)
(2.03047 -0.063718 -8.58216e-20)
(2.30212 -0.0698038 -2.90539e-19)
(2.55282 -0.0748831 6.4667e-19)
(2.78487 -0.0791633 1.70991e-19)
(2.99952 -0.0830038 2.31752e-21)
(-0.00240834 -0.0217208 -2.78784e-20)
(0.00857948 -0.0688627 -7.23771e-20)
(0.0247349 -0.119671 -7.32011e-21)
(0.0491915 -0.170513 -3.5194e-20)
(0.0775764 -0.216035 -1.27039e-20)
(0.106319 -0.254072 -3.86817e-19)
(0.135207 -0.287842 -1.61219e-20)
(0.165926 -0.321088 1.13818e-19)
(0.198733 -0.354585 1.13933e-20)
(0.232593 -0.386906 -3.7491e-20)
(0.000794801 -0.0244479 -9.64545e-20)
(0.014843 -0.0844401 -2.0843e-19)
(0.0393417 -0.159741 -5.81185e-20)
(0.0694099 -0.224708 -1.10187e-19)
(0.0996126 -0.274835 -9.90253e-20)
(0.130495 -0.317078 -2.73409e-19)
(0.16451 -0.358019 1.92591e-19)
(0.202244 -0.399457 1.63304e-19)
(0.241794 -0.439367 -2.56692e-19)
(0.281304 -0.475663 8.11175e-20)
(0.00544784 -0.0312708 -8.61128e-20)
(0.0287288 -0.107006 -8.72654e-19)
(0.0629907 -0.195799 -1.29083e-19)
(0.0976277 -0.268485 9.73538e-20)
(0.131958 -0.326488 6.73315e-20)
(0.169828 -0.379463 -4.34292e-19)
(0.213244 -0.431519 3.13826e-20)
(0.259528 -0.481015 3.64599e-19)
(0.305896 -0.52539 -3.84829e-19)
(0.351855 -0.564668 -2.5715e-19)
(0.0113395 -0.0408499 -2.30782e-21)
(0.0466342 -0.130683 1.9153e-19)
(0.0897554 -0.225142 1.93564e-21)
(0.133206 -0.306682 -1.19431e-20)
(0.17794 -0.377372 -2.95777e-20)
(0.227485 -0.443306 8.47784e-20)
(0.281432 -0.505041 7.16798e-20)
(0.33603 -0.560226 -1.3524e-19)
(0.390096 -0.608602 9.16994e-21)
(0.444286 -0.651063 -1.03898e-20)
(0.0184962 -0.0507166 0)
(0.0672615 -0.152358 5.60804e-21)
(0.122016 -0.253553 -5.08653e-19)
(0.178793 -0.34531 4.80743e-20)
(0.237939 -0.428319 -1.42109e-20)
(0.300699 -0.504756 6.53006e-21)
(0.365524 -0.573956 -2.57318e-20)
(0.430026 -0.634918 -7.43936e-21)
(0.494178 -0.688234 0)
(0.558389 -0.734155 -2.05068e-20)
(0.0273265 -0.0596421 3.19934e-20)
(0.0919221 -0.172856 -1.5517e-19)
(0.161821 -0.282523 -4.53502e-20)
(0.234698 -0.38385 -5.88175e-20)
(0.309818 -0.476652 4.97528e-20)
(0.386832 -0.561361 3.52093e-21)
(0.464341 -0.637444 9.32424e-20)
(0.541039 -0.704602 -2.19056e-20)
(0.617015 -0.76302 -6.96585e-19)
(0.692263 -0.812139 -1.00773e-20)
(0.037984 -0.0676162 6.59821e-22)
(0.121265 -0.19221 5.56406e-20)
(0.209205 -0.310657 -7.91003e-20)
(0.299971 -0.420201 -1.68221e-20)
(0.392178 -0.520658 -7.27968e-20)
(0.484813 -0.612063 -1.10962e-20)
(0.576728 -0.694195 8.56105e-21)
(0.666958 -0.766942 -2.13032e-19)
(0.75553 -0.829985 3.8389e-19)
(0.842302 -0.88196 9.71778e-19)
(0.0503733 -0.0746168 1.52751e-20)
(0.155155 -0.209648 -1.42456e-19)
(0.263493 -0.336014 -2.14561e-19)
(0.373698 -0.452157 8.9346e-20)
(0.484121 -0.558292 -6.43745e-20)
(0.593548 -0.654609 1.00073e-19)
(0.700929 -0.741222 1.98382e-19)
(0.805374 -0.818187 -1.099e-19)
(0.906962 -0.884934 -3.06292e-19)
(1.0056 -0.939277 7.25792e-19)
(0.064301 -0.0803732 -2.63213e-20)
(0.193306 -0.224059 -5.77982e-19)
(0.324319 -0.356603 5.24316e-19)
(0.455701 -0.477275 3.37634e-19)
(0.585744 -0.58678 -8.59304e-20)
(0.713213 -0.685673 3.09264e-19)
(0.837097 -0.774415 -1.60122e-19)
(0.956508 -0.853396 -7.74347e-19)
(1.07164 -0.92192 -4.04034e-19)
(1.18255 -0.977104 4.54033e-19)
(0.0795537 -0.0846754 -7.98557e-20)
(0.235862 -0.23444 -5.44193e-19)
(0.392409 -0.370556 -8.03766e-21)
(0.547554 -0.492828 6.85332e-20)
(0.699597 -0.602491 3.37789e-19)
(0.84738 -0.700447 -1.85305e-19)
(0.989982 -0.787433 -1.69493e-19)
(1.12648 -0.863786 1.89109e-19)
(1.25672 -0.928566 -3.51776e-19)
(1.37995 -0.980222 -5.8493e-19)
(0.40226 -0.530538 1.05225e-18)
(0.683096 -0.615039 -4.07914e-19)
(0.909453 -0.551367 -1.84867e-19)
(1.07733 -0.422969 3.32318e-19)
(1.21934 -0.2711 -2.60826e-19)
(1.32148 -0.134572 -2.74293e-19)
(1.38232 -0.058513 -2.54461e-19)
(1.41203 -0.0299769 -4.00178e-20)
(1.43082 -0.0194541 2.34835e-19)
(1.44512 -0.00854028 4.20042e-20)
(0.469013 -0.618247 1.01875e-18)
(0.741 -0.690027 1.09072e-19)
(0.963893 -0.610265 1.03254e-20)
(1.11723 -0.469769 -2.84535e-19)
(1.24674 -0.306766 -9.26396e-19)
(1.33864 -0.157702 0)
(1.39029 -0.0707817 -2.38608e-19)
(1.41622 -0.0369474 7.3108e-20)
(1.43339 -0.0236745 5.94878e-21)
(1.44623 -0.0103041 -7.06628e-20)
(0.556732 -0.703892 -1.00854e-18)
(0.811127 -0.762793 -8.28817e-20)
(1.02462 -0.667391 1.77607e-19)
(1.16142 -0.514597 -5.06862e-20)
(1.27553 -0.340796 -3.2856e-20)
(1.35571 -0.179136 6.84571e-20)
(1.39819 -0.0821189 0)
(1.42086 -0.0434745 0)
(1.4364 -0.0276277 -7.96051e-20)
(1.44783 -0.0119152 0)
(0.666226 -0.785775 -2.24236e-19)
(0.896238 -0.831393 3.97159e-19)
(1.09188 -0.721766 2.61902e-20)
(1.20997 -0.556795 0)
(1.30583 -0.372838 7.41484e-19)
(1.37308 -0.198949 -1.79247e-19)
(1.40654 -0.0925587 0)
(1.42602 -0.0494537 1.82966e-19)
(1.43988 -0.0311899 0)
(1.44989 -0.0133341 2.10448e-20)
(0.796084 -0.862674 -1.48325e-19)
(0.998135 -0.893792 4.31934e-19)
(1.16633 -0.772198 -1.46218e-20)
(1.26272 -0.595724 0)
(1.33758 -0.402547 1.9971e-19)
(1.39073 -0.217182 3.30113e-19)
(1.41541 -0.102153 5.73945e-20)
(1.43164 -0.0549015 9.79509e-21)
(1.44379 -0.0343516 -4.53211e-20)
(1.45238 -0.0145759 3.55553e-20)
(0.942359 -0.933763 -1.29463e-18)
(1.11665 -0.948544 -8.97733e-19)
(1.24876 -0.817305 4.80889e-21)
(1.31942 -0.630685 5.14096e-19)
(1.37058 -0.42954 -2.92612e-19)
(1.4084 -0.233853 1.63343e-19)
(1.42471 -0.111001 2.6648e-19)
(1.43764 -0.0598598 -2.40046e-19)
(1.44806 -0.0371133 -2.29996e-21)
(1.45526 -0.0156465 -6.1576e-21)
(1.10001 -0.998634 -2.53881e-19)
(1.2498 -0.995386 2.72624e-19)
(1.33965 -0.855833 3.84422e-21)
(1.38001 -0.660871 -1.4958e-20)
(1.40466 -0.453327 -5.10537e-19)
(1.42571 -0.248888 5.21541e-20)
(1.43432 -0.119149 -1.02867e-19)
(1.44398 -0.0643606 -4.21493e-20)
(1.45265 -0.0394694 2.01093e-20)
(1.45848 -0.0165624 -2.43699e-20)
(1.2641 -1.05618 -1.20802e-18)
(1.39421 -1.03489 1.99825e-19)
(1.43815 -0.887078 0)
(1.44382 -0.685656 2.64456e-20)
(1.43924 -0.473514 4.26842e-19)
(1.44194 -0.262329 -2.93374e-22)
(1.44378 -0.126724 -3.10016e-19)
(1.4506 -0.0684727 6.3795e-20)
(1.45752 -0.0414234 -5.08793e-22)
(1.46202 -0.0173425 1.00421e-22)
(1.43171 -1.10298 3.39526e-18)
(1.54727 -1.06797 2.59888e-19)
(1.54421 -0.911693 4.34351e-19)
(1.51142 -0.705232 -2.70061e-20)
(1.4747 -0.490161 -3.03707e-20)
(1.45703 -0.274379 -3.5483e-19)
(1.45291 -0.13373 7.55703e-20)
(1.45748 -0.0720237 4.95717e-21)
(1.46261 -0.0428725 -3.74339e-20)
(1.46584 -0.0179621 -4.83391e-20)
(1.59893 -1.1278 -3.00436e-18)
(1.70091 -1.09351 1.28913e-18)
(1.65223 -0.932311 -1.94103e-19)
(1.57913 -0.722914 -6.78349e-19)
(1.50884 -0.506526 -5.57277e-19)
(1.46912 -0.288097 -2.14456e-19)
(1.45972 -0.142736 -5.38267e-20)
(1.46374 -0.0761556 0)
(1.46758 -0.0442384 1.22055e-20)
(1.46975 -0.0185405 2.9686e-21)
(1.8878 -1.16975 -6.75521e-18)
(1.92619 -1.10292 -1.73266e-18)
(1.80267 -0.92628 -1.06584e-20)
(1.67004 -0.714435 1.07254e-19)
(1.55373 -0.503207 1.79473e-19)
(1.48585 -0.291573 -1.09028e-19)
(1.47094 -0.14876 -6.34439e-21)
(1.47298 -0.079944 1.53567e-20)
(1.47158 -0.0450664 -2.06345e-20)
(1.46774 -0.0187884 1.59707e-20)
(2.28872 -1.13392 4.96528e-19)
(2.17734 -1.05394 -2.2573e-19)
(1.94113 -0.859504 7.10385e-19)
(1.73632 -0.65367 -1.53263e-19)
(1.5689 -0.458619 4.21865e-19)
(1.47648 -0.271423 7.54846e-20)
(1.45525 -0.142518 1.30996e-20)
(1.43416 -0.0731447 -5.16025e-21)
(1.41223 -0.0379721 4.22776e-20)
(1.39397 -0.0168306 5.00303e-20)
(2.61018 -1.04267 2.26693e-18)
(2.3521 -0.946872 3.2705e-19)
(2.01098 -0.755514 -1.22059e-19)
(1.74246 -0.564908 -2.32234e-37)
(1.52801 -0.392246 -2.92558e-20)
(1.39579 -0.239653 1.28126e-33)
(1.33693 -0.129584 -1.40762e-20)
(1.30412 -0.0637127 -2.0197e-33)
(1.28298 -0.0301448 1.04261e-20)
(1.26824 -0.0138888 -3.35478e-20)
(2.78754 -0.893344 3.92001e-33)
(2.37166 -0.794235 2.93568e-18)
(1.97868 -0.627355 1.80265e-18)
(1.66428 -0.46273 0)
(1.42526 -0.320171 9.06523e-19)
(1.26752 -0.200459 4.27989e-19)
(1.19674 -0.110566 1.00395e-19)
(1.16336 -0.0531939 -3.17423e-33)
(1.14348 -0.0238948 -3.18653e-20)
(1.13009 -0.0111297 3.01622e-20)
(2.76447 -0.705466 3.84925e-18)
(2.24777 -0.628893 -1.47592e-19)
(1.85035 -0.488927 0)
(1.523 -0.357416 0)
(1.28442 -0.245906 0)
(1.124 -0.156619 0)
(1.04391 -0.0891939 -1.14387e-20)
(1.00686 -0.042839 -4.20023e-33)
(0.988058 -0.0181659 9.77275e-21)
(0.976394 -0.00848926 3.43359e-33)
(2.55162 -0.516859 3.27274e-18)
(2.02103 -0.462519 0)
(1.64059 -0.352661 0)
(1.33116 -0.254374 0)
(1.10957 -0.173411 0)
(0.960034 -0.111579 0)
(0.879266 -0.0657499 3.18471e-20)
(0.84092 -0.0320369 -1.55426e-20)
(0.823295 -0.0130588 9.77803e-21)
(0.813108 -0.00613769 5.10796e-20)
(2.19028 -0.342707 0)
(1.70301 -0.303428 1.11075e-18)
(1.3622 -0.227245 1.11369e-18)
(1.0937 -0.160772 0)
(0.90388 -0.108566 7.10152e-19)
(0.776558 -0.0707533 4.10589e-19)
(0.703432 -0.0432857 2.01603e-19)
(0.666534 -0.0215873 3.22317e-20)
(0.650382 -0.00853453 2.91502e-20)
(0.641642 -0.00406434 9.6282e-21)
(1.70288 -0.191163 -6.73497e-19)
(1.30027 -0.165596 -2.73465e-19)
(1.02538 -0.121642 1.74749e-19)
(0.816251 -0.0838733 -2.18373e-34)
(0.671047 -0.0561125 -7.98751e-20)
(0.574514 -0.0372382 3.64109e-33)
(0.516276 -0.0237995 4.98725e-20)
(0.484807 -0.0122357 8.98276e-20)
(0.471111 -0.00471397 9.73589e-21)
(0.463999 -0.00231184 -2.04629e-20)
(1.10085 -0.075836 3.40609e-18)
(0.823127 -0.0626871 -1.85906e-19)
(0.640637 -0.0442687 -5.88726e-19)
(0.506613 -0.0287983 0)
(0.415624 -0.0188274 -6.35662e-19)
(0.355522 -0.0128922 -4.10226e-19)
(0.317612 -0.00885333 -1.57405e-19)
(0.295727 -0.00482521 -9.29662e-20)
(0.286055 -0.00186656 7.85426e-20)
(0.281181 -0.000972951 1.16133e-20)
(0.397324 -0.00331949 0)
(0.287824 0.00159089 0)
(0.220866 0.00407133 0)
(0.17367 0.00616377 0)
(0.143036 0.0056837 0)
(0.122975 0.00429512 0)
(0.109527 0.00285265 5.70258e-20)
(0.101003 0.00168753 -1.8802e-34)
(0.0969837 0.00092446 1.13248e-20)
(0.0948907 0.000283796 2.11332e-20)
(3.36717 -0.0863041 5.39036e-19)
(3.32649 -0.265071 -8.41912e-20)
(3.24741 -0.430634 8.52045e-19)
(3.13242 -0.582127 -6.05049e-19)
(2.98636 -0.718081 6.66179e-19)
(2.81523 -0.836319 2.74744e-19)
(2.62656 -0.933968 -1.92972e-18)
(2.42943 -1.00772 -7.67845e-20)
(2.22456 -1.0535 0)
(1.98469 -1.06633 4.28014e-19)
(3.86197 -0.0750541 7.0731e-18)
(3.79864 -0.234185 1.95621e-18)
(3.70431 -0.387267 -4.86623e-18)
(3.58427 -0.531932 -4.48767e-19)
(3.44237 -0.66581 3.55711e-18)
(3.2818 -0.787198 1.92219e-18)
(3.1064 -0.89489 -5.16452e-18)
(2.92188 -0.987447 -1.95016e-18)
(2.72736 -1.06303 2.20096e-18)
(2.49207 -1.12003 8.52284e-19)
(3.83319 -0.0532923 -1.2617e-19)
(3.82035 -0.171539 4.40426e-18)
(3.78558 -0.299725 -1.08887e-18)
(3.72447 -0.430873 -3.446e-18)
(3.63631 -0.558667 -6.80165e-18)
(3.52381 -0.678703 1.02755e-17)
(3.39123 -0.788636 4.17868e-18)
(3.24349 -0.887746 -3.90812e-18)
(3.08151 -0.978362 -2.89975e-18)
(2.88703 -1.06248 -3.42063e-18)
(3.62873 -0.0472598 -4.83918e-18)
(3.61967 -0.144907 -4.35355e-18)
(3.59972 -0.243714 5.47273e-18)
(3.56746 -0.343057 1.9123e-18)
(3.52256 -0.442321 -8.97461e-18)
(3.46437 -0.540724 4.92713e-19)
(3.3921 -0.636929 3.88775e-18)
(3.30545 -0.73027 -1.05481e-18)
(3.20535 -0.822847 1.27729e-18)
(3.08341 -0.91448 2.81359e-19)
(3.34409 -0.0365536 -9.15946e-19)
(3.33904 -0.11164 3.00397e-18)
(3.32715 -0.188669 1.6194e-18)
(3.3075 -0.26717 -1.89336e-18)
(3.27994 -0.346068 -2.00156e-18)
(3.24477 -0.424124 -2.43605e-18)
(3.2022 -0.500295 3.801e-19)
(3.152 -0.574411 1.38464e-19)
(3.09584 -0.64762 -2.14173e-18)
(3.03334 -0.721106 -2.03682e-18)
(2.96259 -0.0265313 -1.82239e-18)
(2.95983 -0.0798743 -5.86982e-20)
(2.95333 -0.134593 -1.63747e-18)
(2.94243 -0.190905 3.12147e-19)
(2.92679 -0.24856 5.36754e-18)
(2.90634 -0.306945 -3.66949e-19)
(2.88099 -0.365132 4.43784e-20)
(2.85033 -0.422069 -2.60892e-18)
(2.81659 -0.476873 -3.49711e-18)
(2.78624 -0.529817 3.71712e-19)
(2.48714 -0.0174923 -2.89092e-20)
(2.48579 -0.0519233 -8.14269e-19)
(2.48261 -0.0872435 -2.61477e-18)
(2.47709 -0.123773 -3.43084e-18)
(2.46882 -0.161541 2.49641e-18)
(2.45746 -0.20028 1.50209e-18)
(2.44264 -0.23937 -1.38486e-18)
(2.42373 -0.27781 1.62421e-18)
(2.4028 -0.314504 -4.30008e-19)
(2.38961 -0.349557 -9.63959e-19)
(1.91464 -0.00967648 7.72428e-19)
(1.91408 -0.0282904 -8.31779e-19)
(1.91278 -0.0474369 -3.27678e-20)
(1.91032 -0.0673604 -3.47223e-20)
(1.90624 -0.0881351 -7.27315e-20)
(1.90013 -0.109623 -2.33181e-18)
(1.89151 -0.131415 -6.78576e-19)
(1.87978 -0.152796 2.62562e-18)
(1.86664 -0.17299 -6.03252e-19)
(1.86192 -0.192224 -1.35068e-18)
(1.23988 -0.00373228 -1.64275e-18)
(1.23966 -0.0106925 -8.4888e-19)
(1.23923 -0.0179001 2.33916e-18)
(1.23823 -0.0254794 -8.89755e-19)
(1.23625 -0.0334779 -6.741e-19)
(1.23289 -0.0418359 1.35195e-18)
(1.22774 -0.0503557 -1.29578e-18)
(1.22037 -0.0586725 1.28681e-18)
(1.212 -0.0663506 -1.21008e-18)
(1.21005 -0.0735173 -4.24694e-18)
(0.454911 -0.000257467 6.63067e-19)
(0.454824 -0.000700235 7.03041e-19)
(0.45469 -0.00115902 7.48173e-19)
(0.454322 -0.00164015 1.35395e-18)
(0.453493 -0.00214044 -6.71965e-19)
(0.451979 -0.0026376 -1.29956e-18)
(0.44956 -0.00309963 6.14665e-19)
(0.445983 -0.00359351 2.48381e-20)
(0.441723 -0.00439276 -4.96542e-20)
(0.440333 -0.00504588 1.10578e-19)
(1.65308 0.996286 -2.84645e-19)
(1.51189 0.941093 1.8052e-20)
(1.35851 0.880179 -2.25633e-19)
(1.19748 0.80804 1.7694e-19)
(1.02945 0.723718 -1.94307e-19)
(0.854761 0.626925 -1.01487e-19)
(0.673739 0.51687 2.32221e-19)
(0.487043 0.392129 -3.05648e-19)
(0.295911 0.250653 3.09886e-19)
(0.101444 0.0916564 2.39188e-19)
(1.88599 0.991495 0)
(1.72937 0.934216 6.36412e-19)
(1.5606 0.872393 3.28603e-19)
(1.38213 0.8016 1.64678e-19)
(1.19444 0.719723 4.33911e-19)
(0.997494 0.625819 -8.70473e-20)
(0.791358 0.518576 -7.87509e-20)
(0.576368 0.395997 8.93068e-20)
(0.353346 0.255195 -1.04566e-18)
(0.122716 0.0943689 -1.63653e-20)
(2.09074 0.958568 1.56841e-19)
(1.925 0.904725 0)
(1.74597 0.846223 -1.00846e-19)
(1.55483 0.779396 -3.84901e-19)
(1.35164 0.701996 5.37733e-20)
(1.13607 0.612754 3.97923e-19)
(0.907795 0.510088 -6.07489e-19)
(0.666618 0.391656 -2.00821e-19)
(0.412627 0.254067 7.83779e-19)
(0.145269 0.0947473 -1.762e-19)
(2.28464 0.898048 1.89418e-19)
(2.11029 0.850343 1.24123e-20)
(1.92119 0.797714 2.42631e-20)
(1.71805 0.736911 3.62904e-20)
(1.50055 0.665812 -2.8931e-20)
(1.26793 0.583121 2.73598e-19)
(1.01929 0.487178 -2.06973e-19)
(0.753708 0.375551 -8.56025e-19)
(0.470303 0.244698 0)
(0.167405 0.0917063 0)
(2.46784 0.811627 -1.06892e-18)
(2.28427 0.770704 -6.06918e-19)
(2.08488 0.724976 -1.20373e-19)
(1.87001 0.671475 -6.66062e-20)
(1.63891 0.608276 0)
(1.39033 0.534139 2.40887e-19)
(1.12278 0.447448 2.6793e-19)
(0.834593 0.345854 2.86407e-19)
(0.523872 0.22597 -4.23989e-19)
(0.187924 0.0849056 -8.12806e-20)
(2.63395 0.70198 7.64458e-19)
(2.44154 0.667989 -1.3922e-19)
(2.23243 0.629634 -2.21201e-19)
(2.00666 0.584284 0)
(1.76304 0.530275 0)
(1.49991 0.466496 0)
(1.21527 0.391479 -3.90011e-20)
(0.906726 0.303106 3.7031e-19)
(0.571531 0.198362 3.79112e-19)
(0.206098 0.0746299 -3.0865e-19)
(2.77579 0.572293 -1.19215e-18)
(2.57552 0.545222 -1.48012e-18)
(2.35789 0.514509 -3.02196e-22)
(2.12264 0.477941 -1.87792e-19)
(1.86822 0.434186 -9.29046e-20)
(1.59263 0.382329 -1.78957e-19)
(1.29337 0.321138 4.59233e-19)
(0.967533 0.24885 2.14862e-19)
(0.611616 0.162977 5.40168e-19)
(0.221329 0.0613444 2.02908e-19)
(2.8871 0.425718 -1.15657e-18)
(2.68031 0.405617 8.47202e-20)
(2.45581 0.382814 1.64503e-19)
(2.21302 0.355614 1.68554e-20)
(1.9501 0.323059 -3.14511e-19)
(1.66471 0.284479 -1.74318e-19)
(1.35403 0.238949 -6.21338e-19)
(1.01468 0.185151 1.18539e-19)
(0.642637 0.121244 5.15012e-20)
(0.233079 0.0456155 -6.26636e-21)
(2.96285 0.265177 1.0124e-19)
(2.75127 0.252351 3.97056e-19)
(2.52195 0.237907 -3.30306e-19)
(2.274 0.220746 3.63136e-19)
(2.0053 0.200305 3.72605e-19)
(1.71328 0.176185 4.91974e-19)
(1.39486 0.147818 -6.35822e-19)
(1.04638 0.114397 -3.24461e-19)
(0.663442 0.0748144 -4.58489e-20)
(0.240929 0.0280967 -3.27049e-19)
(3.00059 0.0935797 5.81738e-19)
(2.78619 0.0887907 -1.8605e-19)
(2.55432 0.0834507 4.79608e-19)
(2.30373 0.0771577 -3.10828e-19)
(2.03214 0.0697354 2.66467e-19)
(1.73685 0.0610688 6.0555e-19)
(1.41462 0.0509841 3.78959e-19)
(1.06166 0.0392387 3.09395e-19)
(0.673425 0.0255088 2.65894e-19)
(0.244665 0.00950782 5.43679e-19)
(0.237637 0.446849 -4.64324e-19)
(0.202294 0.413378 -1.78269e-19)
(0.167049 0.376694 1.3676e-19)
(0.133858 0.339487 -4.17992e-19)
(0.104372 0.303715 -1.20628e-19)
(0.0775417 0.266601 6.85377e-19)
(0.0511672 0.220313 3.36694e-19)
(0.0254063 0.156102 -1.69073e-19)
(0.00688262 0.0783711 1.06889e-19)
(-0.00120995 0.0220648 -5.96969e-20)
(0.287948 0.538609 4.03843e-19)
(0.248099 0.502044 4.48738e-19)
(0.207633 0.460297 -1.5188e-20)
(0.16747 0.413764 -1.2724e-19)
(0.130934 0.366224 -2.93287e-19)
(0.100467 0.319148 8.19115e-20)
(0.0732609 0.266245 2.19523e-19)
(0.0455573 0.194339 1.59166e-19)
(0.0180061 0.100067 -5.80615e-19)
(0.00263401 0.0282515 -1.22044e-19)
(0.359955 0.627418 -5.91889e-19)
(0.314018 0.587556 -4.74439e-19)
(0.268124 0.542025 2.50135e-19)
(0.221414 0.489123 1.31659e-19)
(0.175862 0.429955 -2.28039e-21)
(0.136319 0.368424 -1.34357e-19)
(0.102129 0.302871 -2.4019e-20)
(0.0683443 0.222827 -5.59898e-19)
(0.0333921 0.124449 -2.71375e-19)
(0.00746865 0.0371303 -3.94462e-20)
(0.454886 0.712515 4.97196e-19)
(0.400624 0.668682 1.64204e-19)
(0.3468 0.618067 -1.46349e-19)
(0.292519 0.559481 6.54964e-20)
(0.237908 0.491947 5.16179e-22)
(0.186652 0.417922 2.34158e-21)
(0.140119 0.338398 -1.25256e-19)
(0.0954124 0.24864 3.86959e-19)
(0.0512579 0.1466 -4.23238e-19)
(0.0134308 0.0471991 -6.73301e-20)
(0.572527 0.793128 -2.81211e-19)
(0.5083 0.745433 -8.91148e-20)
(0.443925 0.689047 -1.38368e-20)
(0.379204 0.623839 -6.32333e-20)
(0.313841 0.549136 5.49443e-20)
(0.249689 0.465815 4.70682e-20)
(0.188353 0.375037 -2.60793e-20)
(0.129256 0.275485 -2.86878e-19)
(0.0723981 0.166878 2.20617e-19)
(0.0207975 0.0565208 8.82122e-20)
(0.709586 0.867016 6.45602e-19)
(0.634504 0.816035 3.25708e-19)
(0.558229 0.754343 2.12447e-19)
(0.480908 0.682785 4.77857e-20)
(0.402415 0.601454 1.46734e-19)
(0.323831 0.51077 7.17939e-20)
(0.246405 0.41137 1.37213e-19)
(0.170788 0.303144 5.76475e-20)
(0.097959 0.186335 -1.88249e-20)
(0.0299159 0.0648586 -1.50239e-20)
(0.86186 0.931745 -1.19325e-19)
(0.775398 0.877932 -8.39913e-19)
(0.686574 0.811753 -9.03091e-20)
(0.595608 0.734961 -3.36302e-20)
(0.502456 0.648183 -1.3166e-20)
(0.40803 0.551649 1.4688e-19)
(0.313397 0.445578 -4.41065e-20)
(0.21964 0.32995 6.59676e-20)
(0.128231 0.204825 -1.44261e-19)
(0.0408598 0.0724151 -8.59032e-22)
(1.02634 0.983635 -8.90614e-19)
(0.928143 0.927589 5.93319e-20)
(0.826387 0.858043 -2.24989e-19)
(0.721247 0.777593 -7.70864e-20)
(0.612602 0.687045 -3.05182e-20)
(0.501335 0.586391 -7.46404e-20)
(0.388442 0.475452 5.70063e-20)
(0.275108 0.353939 6.0637e-20)
(0.162948 0.221436 -9.83202e-21)
(0.0535267 0.0790935 -1.04362e-19)
(1.20341 1.01614 1.23996e-19)
(1.0931 0.959458 5.28799e-19)
(0.977935 0.888553 1.61025e-21)
(0.857978 0.806678 -3.36146e-20)
(0.732968 0.714673 1.54084e-19)
(0.603772 0.61213 -3.5106e-19)
(0.471332 0.498496 -2.458e-19)
(0.336795 0.373078 3.56923e-19)
(0.201759 0.234959 1.44577e-19)
(0.067701 0.08453 -3.67087e-20)
(1.40009 1.01416 7.44964e-19)
(1.27766 0.961289 3.26447e-19)
(1.14752 0.89456 5.49454e-20)
(1.01065 0.815818 -1.99176e-19)
(0.86712 0.72612 -1.6886e-20)
(0.717809 0.625083 4.67661e-19)
(0.563538 0.511863 -2.69148e-19)
(0.405328 0.385416 -1.8483e-19)
(0.24471 0.24431 3.36241e-19)
(0.0831223 0.0884489 -6.30888e-21)
(0.959974 0.0910196 1.005e-20)
(1.16503 0.150289 -9.2346e-21)
(1.18726 0.185985 -3.71178e-20)
(1.27168 0.168562 0)
(1.29416 0.168623 9.36404e-21)
(1.23872 0.242975 -4.29931e-20)
(1.10281 0.3882 -9.33114e-20)
(0.935145 0.539992 -1.01543e-19)
(0.704299 0.642267 -2.05462e-19)
(0.413359 0.589514 5.76722e-19)
(0.959656 0.0701547 1.86585e-19)
(1.15831 0.127144 -5.28593e-20)
(1.18302 0.16198 2.25461e-21)
(1.26962 0.158439 1.25168e-20)
(1.29833 0.171683 -2.1891e-21)
(1.25812 0.269959 9.19132e-21)
(1.13549 0.433886 1.66282e-19)
(0.983165 0.600147 0)
(0.75704 0.719715 5.80057e-19)
(0.478236 0.679961 -4.69396e-19)
(0.958582 0.0503612 -1.18121e-19)
(1.15435 0.104064 7.43771e-21)
(1.18197 0.138087 6.67849e-20)
(1.27195 0.146835 2.23857e-20)
(1.30596 0.173053 3.79174e-21)
(1.2795 0.294697 -3.8175e-20)
(1.17272 0.47759 9.7567e-20)
(1.03709 0.658834 4.03287e-20)
(0.821477 0.794881 -6.06158e-22)
(0.564893 0.767338 -6.01891e-19)
(0.957406 0.0315624 -8.36325e-20)
(1.15313 0.0805611 1.69078e-20)
(1.18409 0.114305 4.80875e-20)
(1.27828 0.134082 1.06765e-20)
(1.31719 0.173424 -1.2804e-20)
(1.30297 0.317596 -3.42459e-21)
(1.21414 0.519041 -6.90184e-20)
(1.09685 0.71522 2.4658e-20)
(0.900487 0.865656 -4.46618e-19)
(0.674817 0.849769 -1.85491e-19)
(0.956783 0.013365 3.52063e-20)
(1.15477 0.0563394 -2.95414e-20)
(1.18932 0.0906708 -3.62452e-20)
(1.28806 0.120566 4.68088e-21)
(1.33154 0.173381 0)
(1.32819 0.33901 0)
(1.25915 0.55799 -1.17502e-20)
(1.16307 0.768144 -2.64697e-20)
(0.996462 0.929686 -1.07933e-19)
(0.806154 0.925605 -5.88218e-20)
(0.957136 -0.00476078 -1.97415e-22)
(1.15933 0.0312441 3.57493e-20)
(1.19751 0.0672968 -1.11477e-19)
(1.30065 0.10672 -5.50469e-20)
(1.34804 0.173437 -8.71084e-21)
(1.35458 0.359211 2.1348e-20)
(1.30735 0.594012 7.38337e-20)
(1.23697 0.816044 -1.73396e-20)
(1.10987 0.985171 -2.43653e-20)
(0.954333 0.994048 -6.27279e-21)
(0.958644 -0.0233276 2.71261e-20)
(1.16668 0.0052096 8.17588e-21)
(1.20843 0.0443406 -3.89218e-20)
(1.31539 0.0929251 -8.70114e-20)
(1.36581 0.173833 1.92752e-20)
(1.38175 0.378189 9.32786e-21)
(1.35885 0.626366 -5.21896e-20)
(1.31962 0.857299 -1.62871e-19)
(1.23902 1.03165 -8.70014e-21)
(1.11388 1.05507 -9.92742e-19)
(0.961058 -0.0427459 2.35527e-20)
(1.17645 -0.0218141 -6.54386e-20)
(1.22183 0.0220416 6.95824e-20)
(1.33161 0.0798133 7.11054e-20)
(1.38356 0.175254 7.57769e-21)
(1.40896 0.395993 -4.66487e-20)
(1.41339 0.654287 -1.73085e-20)
(1.41065 0.890836 2.75949e-21)
(1.38047 1.0698 1.1245e-20)
(1.2794 1.10799 2.89098e-18)
(0.963247 -0.0632569 -1.17039e-19)
(1.18793 -0.0498678 3.812e-20)
(1.23727 0.000619222 1.18563e-19)
(1.34891 0.0676331 -7.33125e-20)
(1.40146 0.177622 -9.62449e-20)
(1.43723 0.412658 9.55197e-21)
(1.47238 0.677692 1.26341e-19)
(1.51042 0.917142 -4.04297e-19)
(1.53139 1.10078 -2.65948e-20)
(1.44757 1.14974 -6.46128e-18)
(0.963821 -0.0859482 4.34593e-21)
(1.20036 -0.0788615 7.51773e-20)
(1.25383 -0.0199767 3.13862e-20)
(1.36638 0.0581954 -1.79881e-19)
(1.41691 0.184824 -1.28616e-19)
(1.46375 0.432026 -2.79142e-20)
(1.53192 0.70016 -1.80197e-20)
(1.61304 0.939378 -3.91872e-19)
(1.68371 1.12418 -1.11255e-18)
(1.61467 1.16946 -7.9634e-18)
(0.962737 -0.118848 -1.43997e-20)
(1.21386 -0.117732 -1.89195e-20)
(1.27189 -0.0494704 -4.18067e-20)
(1.38614 0.0412805 3.81571e-20)
(1.43742 0.17836 1.04508e-19)
(1.50021 0.427769 -3.68207e-20)
(1.61307 0.691165 -1.03242e-19)
(1.75476 0.929196 -1.33938e-18)
(1.90233 1.12667 -1.62141e-18)
(1.89826 1.20596 3.29693e-18)
(0.957974 -0.159736 -4.08026e-19)
(1.2268 -0.167896 -1.25821e-20)
(1.28651 -0.0944602 -3.42261e-20)
(1.3999 0.0172568 1.70231e-19)
(1.44004 0.155561 2.32482e-19)
(1.51199 0.388338 -1.80648e-19)
(1.67247 0.629968 -1.16507e-19)
(1.88255 0.855634 -4.9326e-19)
(2.13913 1.06565 1.94126e-19)
(2.28335 1.15787 -3.22126e-19)
(0.949367 -0.200972 -2.68604e-20)
(1.24216 -0.22 -4.89298e-20)
(1.29324 -0.136441 2.81262e-20)
(1.4101 -0.0091756 3.26932e-20)
(1.44235 0.137557 1.63952e-33)
(1.50506 0.341681 1.40212e-22)
(1.694 0.548537 -2.23678e-33)
(1.95532 0.751964 1.90584e-19)
(2.30395 0.952244 -9.35524e-19)
(2.58698 1.05595 -6.29334e-19)
(0.938535 -0.245958 1.49521e-18)
(1.26136 -0.263887 -7.03837e-34)
(1.28381 -0.186894 -3.69728e-20)
(1.32942 -0.0256871 -1.96457e-19)
(1.32682 0.123347 -4.55984e-19)
(1.42132 0.279902 -9.25595e-19)
(1.63605 0.44915 -5.2407e-33)
(1.93858 0.62502 -1.72434e-18)
(2.3305 0.798913 -3.15079e-18)
(2.75512 0.900855 1.67873e-18)
(0.927201 -0.300415 0)
(1.29587 -0.30728 -2.2984e-33)
(1.14912 -0.189542 0)
(1.15358 -0.0243041 0)
(1.16458 0.103923 0)
(1.27925 0.218389 0)
(1.50243 0.347399 -8.65702e-33)
(1.8227 0.487003 0)
(2.21755 0.631901 -3.41756e-19)
(2.73694 0.710766 1.26109e-18)
(0.915397 -0.359951 1.14316e-19)
(1.25841 -0.32361 -4.38033e-19)
(0.983928 -0.161781 -5.74637e-20)
(0.97086 -0.0214887 0)
(0.989349 0.0773459 0)
(1.10473 0.156892 6.56274e-20)
(1.31537 0.248685 1.25467e-18)
(1.62092 0.351888 -1.95688e-19)
(1.99924 0.464894 -4.95686e-19)
(2.53367 0.519788 4.66804e-18)
(0.882952 -0.405135 -1.51997e-17)
(1.09404 -0.276471 1.04195e-18)
(0.807021 -0.123291 -7.36055e-20)
(0.773011 -0.0185776 -1.09247e-19)
(0.796082 0.0504845 -4.69102e-19)
(0.900159 0.0996492 -7.61824e-19)
(1.08258 0.157975 -1.08564e-18)
(1.34901 0.22745 -1.42009e-18)
(1.68895 0.305515 -1.63124e-18)
(2.18047 0.344203 3.63367e-18)
(0.808647 -0.394441 -4.13336e-19)
(0.887646 -0.206399 -1.21756e-18)
(0.612598 -0.0795699 -1.26358e-19)
(0.56634 -0.0140226 -8.14253e-20)
(0.587209 0.0272593 -7.65554e-34)
(0.669207 0.0522212 1.00927e-19)
(0.809645 0.0827376 -1.5263e-32)
(1.01787 0.122142 -1.93445e-19)
(1.29306 0.167059 2.97925e-19)
(1.69944 0.192004 7.04893e-19)
(0.664068 -0.288839 3.42728e-17)
(0.618393 -0.107555 -3.13663e-18)
(0.396206 -0.0340771 -2.41268e-19)
(0.348184 -0.00706376 -1.20064e-19)
(0.362435 0.00951932 3.66717e-19)
(0.415207 0.0176433 7.67936e-19)
(0.503655 0.0284533 7.87734e-19)
(0.637524 0.044593 4.59593e-19)
(0.820935 0.0633798 -1.87727e-19)
(1.10152 0.076213 3.56437e-18)
(0.336776 -0.0768336 5.58837e-19)
(0.261865 -0.00232411 -6.771e-33)
(0.145222 0.0186575 -3.05405e-19)
(0.122822 0.00288866 0)
(0.126263 -0.00201588 0)
(0.143632 -0.00516032 1.01332e-19)
(0.1733 -0.00612377 8.65992e-35)
(0.220537 -0.00410133 -1.23693e-19)
(0.288135 -0.0015964 -2.81499e-19)
(0.39895 0.00332309 1.00008e-18)
(2.00144 1.09511 -1.78582e-18)
(2.23857 1.07749 -2.30407e-18)
(2.44171 1.02842 0)
(2.63681 0.952029 -7.61171e-19)
(2.82342 0.852195 -1.79078e-18)
(2.99267 0.732193 -2.24914e-18)
(3.13706 0.594924 -4.8298e-19)
(3.25056 0.442634 1.26942e-18)
(3.32829 0.276938 -3.54756e-18)
(3.3677 0.0986947 1.35659e-18)
(2.4979 1.14033 2.65025e-19)
(2.72992 1.0807 1.39416e-18)
(2.92336 1.00331 1.43703e-19)
(3.10635 0.909175 6.74166e-19)
(3.28033 0.800234 -1.10226e-18)
(3.43979 0.678043 -4.99386e-18)
(3.58086 0.54383 2.46434e-18)
(3.70043 0.399205 1.26949e-17)