/*--------------------------------*- C++ -*----------------------------------*\
  =========                 |
  \\      /  F ield         | OpenFOAM: The Open Source CFD Toolbox
   \\    /   O peration     | Website:  https://openfoam.org
    \\  /    A nd           | Version:  13
     \\/     M anipulation  |
\*---------------------------------------------------------------------------*/
FoamFile
{
    format      ascii;
    class       surfaceScalarField;
    location    "0.42";
    object      phi;
}
// * * * * * * * * * * * * * * * * * * * * * * * * * * * * * * * * * * * * * //

dimensions      [0 3 -1 0 0 0 0];

internalField   nonuniform List<scalar> 
823
(
0.0113773
-0.0505557
0.0391784
0.0387584
-0.133437
0.106056
0.0788342
-0.205878
0.165802
0.130179
-0.268866
0.217521
-0.32325
0.259397
0.194032
0.0107027
-0.0612584
0.0361427
-0.158877
0.072649
-0.242384
0.117977
-0.314194
-0.375598
0.170325
0.00837702
-0.0696354
0.0282855
-0.178786
0.0567271
-0.270826
0.0918144
-0.349281
-0.416052
0.132268
0.00529942
-0.0749348
0.0179963
-0.191483
0.0362312
-0.289061
0.058887
-0.371937
-0.442419
0.0852536
0.00196207
-0.0768969
0.00663035
-0.196151
0.0132903
-0.295721
0.021523
-0.380169
0.0310638
-0.451959
0.00669994
-0.0107093
0.00400931
0.0222641
-0.0308234
0.0152591
0.0454803
-0.0483828
0.0251667
0.0746321
-0.0638037
0.0346518
-0.0768774
0.108284
0.0432258
0.00578155
-0.0164909
0.0215503
-0.0465921
0.0468081
-0.0736406
0.0798937
-0.0968892
-0.115989
0.119005
0.00640343
-0.0228943
0.0236899
-0.0638785
0.0513011
-0.101252
0.0880186
-0.133607
-0.160059
0.132089
0.00753848
-0.0304328
0.0270973
-0.0834373
0.0573419
-0.131496
0.0970701
-0.173335
-0.207866
0.144878
0.00874556
0.0313645
0.06567
0.109856
0.161387
0.322242
-0.955374
0.741415
0.472516
-0.81782
0.667547
0.566246
-0.348201
0.254471
0.602354
-0.0795449
0.0434372
-0.00825482
0.00433026
0.330833
-1.1672
0.470658
-0.957646
0.567021
-0.444564
0.606659
-0.119182
-0.0149725
0.337249
-1.37236
0.462379
-1.08278
0.556755
-0.53894
0.600988
-0.163415
-0.0279181
0.337953
-1.56544
0.450275
-1.1951
0.538312
-0.626978
0.591201
-0.216304
-0.0511108
0.327944
-1.73199
0.429849
-1.297
0.509862
-0.70699
0.574544
-0.280987
-0.0860032
1.19739
-1.58916
-1.34023
1.00798
-1.10759
0.902744
-0.601758
0.869768
-0.24801
-0.0702152
1.33052
-1.13251
-1.78717
0.984217
-0.761281
0.783689
-0.40123
0.707979
-0.1723
-0.0496728
1.18988
-0.60749
-1.7149
0.816862
-0.388259
0.615344
-0.199712
0.533099
-0.0900551
-0.0272147
0.8225
-0.185255
-1.24473
0.545344
-0.111103
0.398406
-0.0527736
0.333541
-0.02519
-0.00829153
0.306741
-0.491995
0.195637
0.142864
0.117674
1.5626
0.0462522
-1.57779
1.52169
0.126167
1.46265
0.191307
1.3963
0.236674
0.250105
1.67589
0.0356533
-1.66529
1.69936
0.102697
1.73086
0.159804
1.76534
0.202191
0.228277
1.38798
0.0184778
-1.3708
1.43707
0.0536047
1.5139
0.0829724
1.6102
0.10589
0.123576
0.977701
0.00531459
-0.964537
1.01588
0.0154218
1.07581
0.023042
1.15388
0.0278247
0.0327206
0.392986
-0.387672
0.408408
0.43145
0.459275
0.128789
0.327606
-0.26463
-0.191766
0.0781642
0.273206
-0.222582
0.0385248
0.209794
-0.170154
0.0113396
0.136448
-0.109263
0.051957
-0.0406175
0.115955
0.378899
-0.167247
0.0714947
0.317666
0.035615
0.245673
0.0105594
0.161504
0.0625165
0.0888519
0.418274
-0.128227
0.0548101
0.351708
0.0272863
0.273197
0.00806418
0.180726
0.0705806
0.0552439
0.443536
-0.0805064
0.0337641
0.373188
0.0166551
0.290306
0.00486416
0.192517
0.0754448
0.0174821
-0.0259051
0.0105005
0.00508615
0.00145209
0.0723616
0.0870991
-0.106878
-0.0525826
0.0427129
0.073505
-0.0438562
0.0196465
0.0567666
-0.0337002
0.00511228
0.0366833
-0.0221491
0.0132375
-0.00812517
0.076095
0.125682
-0.114678
0.0437817
0.105818
0.0196821
0.0808663
0.00510411
0.0512612
0.0183416
0.0846165
0.168411
-0.127346
0.0492332
0.141202
0.0228092
0.10729
0.00619742
0.067873
0.0245391
0.0942337
0.214603
-0.140426
0.0558796
0.179556
0.0265807
0.136589
0.00744537
0.0870083
0.0319845
0.107479
-0.157506
0.0644527
0.0308877
0.00863292
0.509862
0.169106
-0.282989
0.552539
0.171504
-0.214181
0.491524
0.312086
-0.251071
0.332888
0.804338
-0.645702
1.03865
-0.812635
0.507624
0.0574623
0.548026
0.131101
0.482124
0.377988
0.33047
0.955993
1.25444
0.505891
-0.0524492
0.535746
0.101246
0.463347
0.450388
0.328599
1.09074
1.45569
0.502368
-0.158837
0.518877
0.0847372
0.441428
0.527837
0.324958
1.20721
1.64022
0.495055
-0.257913
0.49423
0.0855623
0.414392
0.607675
0.31308
1.30852
1.7958
0.770219
-0.424112
0.854605
0.00117643
0.957912
0.504368
1.16948
1.09695
1.61785
1.34743
0.71761
-0.537701
0.798077
-0.0792904
0.960012
0.342433
1.29901
0.757953
1.14294
1.77392
0.60469
-0.538371
0.638526
-0.113127
0.805452
0.175507
1.17306
0.390349
0.611929
1.70407
0.448965
-0.383316
0.408139
-0.0723007
0.537216
0.04643
0.816094
0.111471
0.186905
1.24112
0.220704
0.148404
0.194834
0.306304
0.49321
1.40252
-0.24685
1.46571
-0.230441
1.52299
-0.185504
1.56316
-0.12068
-0.0405352
1.75278
-0.225714
1.71983
-0.197489
1.69068
-0.156356
1.67088
-0.100877
-0.0349493
1.60154
-0.123188
1.5088
-0.104742
1.43458
-0.0821352
1.38706
-0.0533626
-0.0186903
1.15105
-0.0331233
1.07429
-0.0279789
1.01529
-0.0231366
0.97757
-0.0156408
-0.00565818
0.460086
0.432107
0.408971
0.39333
0.00250127
0.0430035
-0.0455047
0.0073276
0.101045
-0.105872
0.0160945
0.148389
-0.157156
0.0165778
0.151903
-0.152386
0.114022
0.0148134
-0.112258
0.00682803
0.0361754
0.0201769
0.0876966
0.0409564
0.127609
0.0482533
0.144606
0.116376
0.0458995
0.00880873
0.0273667
0.0270752
0.0694301
0.0521485
0.102536
0.0730896
0.123665
0.11403
0.0754354
0.00780066
0.0195661
0.0255119
0.0517189
0.0497459
0.0783018
0.0774276
0.0959835
0.0992377
0.0922201
0.00509858
0.0144675
0.0179722
0.0388452
0.036765
0.0595091
0.0600062
0.0727423
0.0767386
0.0825052
0.00342447
0.011043
0.0125821
0.0296876
0.0274436
0.0446475
0.0470539
0.053132
0.0561508
0.0676418
0.00222959
0.00881341
0.00894215
0.0229751
0.0222752
0.0313145
0.0410187
0.0343884
0.0347721
0.0623974
0.00166684
0.00714657
0.0100865
0.0145554
0.026104
0.015297
0.0466202
0.0138721
0.0115622
0.0698302
0.00366924
0.00347733
0.017404
0.000820588
0.0366831
-0.00398209
0.0596448
-0.00908976
-0.0142837
0.0854906
0.00748664
0.0235664
0.0447509
0.0703129
0.099255
0.153772
0.0197923
-0.105923
0.243161
-0.129882
0.0404932
0.264789
-0.0384294
0.0168011
0.272418
-0.00225852
-0.00537082
-0.00554962
-0.0025067
0.214575
-0.132385
0.324858
-0.240165
0.351395
-0.0649665
0.357043
-0.00790671
-0.0101738
0.259541
-0.322097
0.390512
-0.371135
0.433131
-0.107586
0.437716
-0.0124914
-0.0101823
0.292457
-0.529063
0.437123
-0.515801
0.500913
-0.171376
0.509792
-0.0213707
-0.00659046
0.311607
0.463352
0.546447
0.568514
0.0706653
0.038671
-0.109336
0.0786119
-0.0079466
0.0829387
-0.0043268
0.0812561
0.00168258
0.000650699
0.194122
-0.261374
0.226669
0.239143
0.235454
0.0207305
-0.00433119
-0.0163993
0.0342798
-0.0135493
0.0567571
-0.0224772
0.0856151
-0.028858
-0.0237211
0.0539201
-0.0434379
0.0862702
0.139228
0.20259
0.0478747
-0.0550959
0.0763203
-0.0690992
0.0275802
-0.0521149
0.0724094
0.0123409
-0.044343
0.0595824
0.0033173
-0.030033
0.0390566
-0.0112609
0.0145782
0.0455513
-0.0321705
-0.0684768
0.0250801
-0.0316438
0.00988652
-0.0291494
0.00220459
-0.0223511
-0.00905624
0.0561607
-0.00658025
-0.0817511
0.0332209
-0.00870392
0.0143598
-0.0102883
0.00262237
-0.0106136
-0.00643385
0.0698976
0.0215886
-0.0980664
0.0446986
0.0164952
0.023302
0.0111084
0.00691142
0.00577695
0.000477543
0.0739725
-0.104966
0.0466117
0.0240199
0.0076477
0.0165846
-0.114021
-0.0148218
0.0160941
-0.151896
0.00730644
-0.148368
0.00248906
-0.101054
-0.0430157
0.0482704
-0.116366
-0.0459246
0.0409309
-0.144557
0.0201632
-0.1276
0.00682094
-0.0877122
-0.0361947
0.0731263
-0.113961
-0.0755316
0.052122
-0.123552
0.0270639
-0.102542
0.00880575
-0.069454
-0.027389
0.0773427
-0.0989524
-0.0923513
0.0496193
-0.095829
0.025431
-0.0783536
0.00777459
-0.0517976
-0.0196144
0.0599679
-0.0825999
0.0365484
0.0177772
0.0050362
0.342302
0.582828
-0.52915
0.281774
0.223208
-0.16268
0.249025
0.0530987
-0.02035
0.16576
0.11688
-0.0336135
-9.64763e-05
0.0967571
0.40888
0.569927
0.373395
0.258693
0.337232
0.089262
0.233952
0.22016
0.165379
0.46184
0.504067
0.453669
0.266864
0.410256
0.132675
0.28373
0.346685
0.367358
0.500386
0.399661
0.517849
0.249401
0.460855
0.18967
0.316906
0.490634
0.586198
0.512652
0.547872
0.486471
0.331403
0.158674
0.351377
0.0849707
0.0737035
0.0807805
0.00419024
0.0725466
0.00823387
-0.0368547
0.109401
0.332278
0.243301
0.227142
0.201762
0.261665
0.0856679
0.0237335
0.0567887
0.0288792
0.0342907
0.022498
0.020734
0.0135567
0.00433465
0.202799
0.139327
0.0862929
0.053925
)
;

boundaryField
{
    left
    {
        type            calculated;
        value           nonuniform List<scalar> 
17
(
-0.60402
-0.60402
-0.60402
-0.60402
-0.60402
-0.39598
-0.39598
-0.39598
-0.39598
-0.39598
-0.39598
-0.39598
-0.39598
-0.39598
-0.39598
-0.510051
-0.510051
)
;
    }
    right
    {
        type            calculated;
        value           nonuniform List<scalar> 
17
(
0.0806054
0.233598
0.280475
0.361667
0.437724
0.506201
0.566254
0.606279
0.613377
0.613933
0.614394
0.609437
0.85398
0.687436
0.510641
0.314617
0.109382
)
;
    }
    down
    {
        type            calculated;
        value           uniform 0;
    }
    up
    {
        type            calculated;
        value           uniform 0;
    }
    cylinder
    {
        type            calculated;
        value           uniform 0;
    }
    defaultFaces
    {
        type            empty;
    }
}


// ************************************************************************* //
