# Selection   : all
# Cells       : 440
# Volume      : 7.374263e+01
# Time        	min(p)
4.715         	-1.772140e+00
4.76          	-1.784181e+00
4.81          	-1.772300e+00
