/*--------------------------------*- C++ -*----------------------------------*\
  =========                 |
  \\      /  F ield         | OpenFOAM: The Open Source CFD Toolbox
   \\    /   O peration     | Website:  https://openfoam.org
    \\  /    A nd           | Version:  13
     \\/     M anipulation  |
\*---------------------------------------------------------------------------*/
FoamFile
{
    format      ascii;
    class       volVectorField;
    location    "7.9";
    object      U;
}
// * * * * * * * * * * * * * * * * * * * * * * * * * * * * * * * * * * * * * //

dimensions      [0 1 -1 0 0 0 0];

internalField   nonuniform List<vector> 
440
(
(-0.0748878 0.0586533 -7.59455e-20)
(-0.0771069 0.108986 3.88097e-20)
(0.0715934 0.10381 3.126e-20)
(0.534882 0.100402 3.25817e-19)
(0.543471 0.193275 2.19961e-21)
(-0.0701833 0.0368275 3.01326e-20)
(0.107825 -0.00684625 -1.40666e-19)
(0.624137 -0.0519635 -1.00055e-19)
(1.19449 -0.085578 3.57131e-20)
(1.69733 -0.0936041 -9.28614e-21)
(0.00319829 -0.0049104 4.68811e-20)
(0.586978 -0.0604777 8.33803e-19)
(1.39639 -0.0533499 -5.11148e-19)
(1.98522 -0.0228733 -1.49427e-18)
(2.49766 -0.0128657 6.28625e-19)
(0.23951 -0.0541477 -1.77485e-19)
(1.31019 -0.00418312 -6.26448e-19)
(2.08489 0.0595729 1.95371e-18)
(2.50288 0.0897906 2.16201e-18)
(2.54377 0.102662 -5.78625e-19)
(0.629119 -0.0030262 -3.14667e-19)
(1.84912 0.183238 -6.87498e-19)
(2.37924 0.251329 2.11011e-18)
(2.48636 0.259489 2.18005e-18)
(2.57395 0.23112 7.27658e-19)
(-0.0405481 0.290211 2.44426e-19)
(-0.147921 0.350148 1.37809e-19)
(-0.244075 0.306654 -4.55308e-19)
(-0.326619 0.243306 5.77987e-20)
(-0.372376 0.156898 2.12607e-19)
(-0.0826217 0.373258 -4.73253e-20)
(-0.154342 0.51257 -3.67125e-19)
(-0.203875 0.486694 8.17852e-20)
(-0.24731 0.417659 8.3077e-20)
(-0.261426 0.320582 -1.61526e-19)
(-0.117488 0.34251 -2.77854e-19)
(-0.166078 0.561415 2.67516e-19)
(-0.163346 0.582688 -1.14766e-19)
(-0.135905 0.533425 -8.52444e-19)
(-0.0994606 0.450213 9.21579e-21)
(-0.0945706 0.201689 -9.46178e-21)
(-0.123313 0.418851 -2.01678e-20)
(-0.0840069 0.491911 7.93677e-20)
(-0.00291399 0.488378 5.86484e-19)
(0.0622087 0.460503 -1.33575e-19)
(-0.0709789 0.0883677 -3.95378e-20)
(-0.118037 0.212643 -5.36062e-20)
(-0.0962491 0.272603 -7.84513e-20)
(0.0449598 0.278957 -5.34637e-20)
(0.110277 0.352096 -4.20239e-19)
(-0.361903 -0.397537 -1.73659e-18)
(-0.144851 -0.745271 4.09051e-19)
(1.02453 0.408678 -5.15283e-19)
(-0.0745027 0.681031 -4.04036e-19)
(0.761045 0.0310646 -2.68353e-19)
(-0.028933 -0.36133 2.0472e-18)
(-0.515886 -0.925245 -1.61042e-19)
(0.923249 0.393864 -8.40065e-20)
(-0.135641 0.698345 2.29618e-19)
(0.971533 -0.108906 6.19691e-19)
(0.431643 -0.292076 7.96131e-19)
(0.0634034 -1.09612 7.20417e-19)
(1.02561 0.260951 1.95933e-20)
(0.0423515 0.677068 -4.91594e-20)
(1.24542 -0.266805 2.17253e-20)
(1.05223 -0.274931 -4.85421e-20)
(1.24716 -1.08766 -3.12278e-19)
(0.571388 0.224087 2.74802e-19)
(0.394824 0.671591 5.07161e-19)
(1.5696 -0.396186 1.16673e-19)
(1.42786 -0.474051 -2.242e-19)
(1.99053 -0.927515 7.07752e-19)
(-0.44195 0.249864 0)
(1.16812 0.444804 -5.06699e-19)
(1.8897 -0.48781 -1.25938e-19)
(1.82938 -0.498291 -5.75064e-19)
(2.61361 -0.692421 1.45715e-19)
(0.143218 0.23146 2.58346e-21)
(1.95477 -0.00130379 -2.00392e-19)
(2.11941 -0.553044 4.68198e-19)
(2.41109 -0.573713 6.60284e-20)
(2.04025 -0.46984 1.97754e-19)
(0.800092 0.404592 4.78038e-21)
(2.43604 -0.21725 7.93976e-20)
(2.12089 -0.512146 0)
(2.35014 -0.382295 -5.72764e-19)
(1.68847 -0.138551 2.39484e-20)
(1.37522 0.162401 2.51475e-19)
(2.47102 -0.416646 -1.38189e-19)
(1.71426 -0.410125 8.4764e-20)
(2.09003 -0.269285 2.78458e-20)
(1.43856 -0.0925849 1.22724e-19)
(1.72129 0.00050675 -1.86389e-21)
(1.95681 -0.37564 1.11326e-33)
(0.978447 -0.256637 -1.54694e-20)
(1.20464 -0.0497514 1.28563e-19)
(0.828117 0.00268755 -1.4397e-20)
(1.00468 -0.103132 -3.13956e-20)
(0.432911 -0.0591265 8.32121e-20)
(-0.204253 0.0220961 -3.77959e-20)
(2.44739 0.248577 -8.82343e-19)
(2.66989 0.011914 -1.17649e-18)
(2.49819 0.0778091 8.57286e-19)
(2.78019 -0.162204 7.87195e-20)
(2.14575 0.0683793 -2.45491e-20)
(2.15959 0.19025 6.82253e-20)
(2.47903 -0.0357954 -4.15906e-20)
(2.29857 0.0362831 -1.49307e-19)
(2.54242 -0.193814 -2.25945e-19)
(2.39135 -0.169861 -8.41206e-21)
(2.13296 0.084969 7.77447e-20)
(2.26913 -0.0230292 1.02635e-19)
(2.235 -0.0310036 -1.43745e-19)
(2.30661 -0.127221 5.03675e-20)
(2.30742 -0.164826 2.71059e-20)
(2.08204 0.0172827 1.16501e-19)
(2.0714 -0.0339177 1.3464e-19)
(2.15403 -0.0428553 -1.837e-20)
(2.1208 -0.0929696 -1.51795e-20)
(2.19721 -0.109425 2.51921e-20)
(1.5019 -0.0107144 1.73832e-19)
(1.42842 -0.0126907 -1.23287e-20)
(1.51318 -0.0237146 2.32075e-20)
(1.40929 -0.0216265 -1.63137e-20)
(1.5039 -0.0408505 2.70684e-20)
(1.59354 0.841269 1.18295e-18)
(1.54588 0.94187 -3.83099e-19)
(1.54501 1.0765 -1.4178e-18)
(1.47651 1.12509 7.63284e-19)
(0.905796 0.808158 -1.77323e-19)
(1.88115 0.810459 -6.07062e-19)
(1.84656 0.885715 -3.13271e-18)
(1.85516 0.991839 -1.19763e-18)
(1.76672 1.00507 -4.27523e-19)
(1.08166 0.708448 -6.90998e-19)
(2.19876 0.672412 7.77967e-19)
(2.17521 0.743497 2.09542e-19)
(2.14425 0.835632 -2.31973e-18)
(2.01312 0.825682 -6.62799e-19)
(1.19851 0.555184 5.08399e-19)
(2.36772 0.560536 2.34497e-18)
(2.34933 0.610302 1.72997e-18)
(2.34991 0.663926 -2.02428e-18)
(2.13822 0.624101 -1.53238e-18)
(1.18478 0.370099 -2.94888e-19)
(2.52019 0.394546 1.161e-18)
(2.5345 0.418645 -8.57752e-19)
(2.43068 0.447751 5.97068e-19)
(2.10514 0.397446 4.98511e-19)
(1.00708 0.167127 -4.29521e-19)
(0.566481 0.504921 -6.0829e-19)
(0.474394 0.544004 -4.41638e-19)
(0.357511 0.582563 4.40154e-20)
(0.223867 0.586306 4.81354e-21)
(0.0556604 0.421046 9.53696e-20)
(0.687149 0.663457 1.33424e-19)
(0.623581 0.722224 -2.88192e-19)
(0.535231 0.789692 1.94733e-19)
(0.409717 0.849299 -9.0437e-20)
(0.180609 0.648076 1.2724e-19)
(0.773035 0.867139 1.00155e-19)
(0.702172 0.952267 5.05746e-19)
(0.65091 1.05053 1.23309e-19)
(0.57055 1.08578 -3.25346e-19)
(0.315098 0.797423 2.73669e-19)
(1.06754 0.925132 2.50091e-19)
(1.01918 1.0061 -7.5735e-19)
(0.968035 1.10469 -2.02477e-18)
(0.88707 1.17288 8.07234e-19)
(0.524093 0.871067 -1.68648e-19)
(1.11986 0.978123 -1.06889e-19)
(1.16239 1.10057 -1.85788e-19)
(1.19304 1.21319 -3.84466e-19)
(1.14212 1.23005 -4.31624e-19)
(0.703094 0.876477 -6.85617e-21)
(1.01239 0.0594945 -1.0564e-19)
(0.99026 0.0325832 -3.92639e-20)
(1.0376 0.135553 -1.57392e-21)
(0.94303 0.148302 -3.0109e-19)
(0.897443 0.307688 3.25843e-19)
(1.0003 0.0581194 6.7071e-20)
(1.00334 0.0284246 1.3923e-19)
(1.02719 0.145237 1.44317e-19)
(0.985496 0.173551 4.38422e-20)
(0.939083 0.390895 -2.62861e-20)
(1.00452 0.0573538 9.20817e-20)
(0.98985 0.0214184 -5.33207e-21)
(1.07293 0.163454 -6.35526e-21)
(0.945005 0.170991 1.61155e-19)
(1.15345 0.536462 -5.29131e-19)
(0.998017 0.0577818 -3.31015e-22)
(1.00984 0.00952276 -1.9222e-19)
(1.0695 0.180743 -7.23788e-20)
(1.04392 0.172437 -4.02019e-19)
(1.1627 0.592581 9.96563e-20)
(0.993745 0.0506794 -1.59627e-20)
(1.01626 0.0105422 5.80457e-20)
(1.12173 0.181226 3.39255e-20)
(1.0183 0.204371 4.90364e-19)
(1.39976 0.722797 -5.04674e-19)
(0.954028 0.0525858 -1.02212e-20)
(1.09496 -0.0178056 1.18986e-19)
(1.10247 0.212653 -7.93029e-20)
(1.27783 0.116642 9.83186e-19)
(1.3052 0.77649 -3.77537e-19)
(0.899306 0.0206256 -1.58195e-21)
(1.19262 -0.0244881 -1.01062e-19)
(1.03153 0.132701 5.11167e-21)
(1.39307 0.12616 -2.92917e-19)
(1.19733 0.547543 -6.7706e-20)
(0.94976 0.00944201 -3.60686e-21)
(1.16252 -0.0375455 1.56333e-35)
(1.06911 0.106557 -2.85193e-20)
(1.28213 0.104898 9.33715e-20)
(1.33283 0.371352 1.92352e-19)
(1.07487 -0.0424616 4.33577e-21)
(1.00052 -0.0460613 -3.05202e-20)
(1.1362 0.0650351 1.9093e-20)
(1.14833 0.0591858 2.61398e-20)
(1.56483 0.217254 -2.98128e-19)
(0.995253 -0.0239576 -4.14084e-20)
(0.761909 -0.0209197 -4.75621e-21)
(0.905092 0.0132696 2.32794e-20)
(0.871915 -0.00190949 -1.91959e-20)
(1.19631 0.0498822 -6.82712e-20)
(1.85659 0.615845 3.06352e-19)
(1.9309 0.658139 7.77634e-19)
(2.21879 0.500812 -1.11526e-18)
(2.26338 0.487734 -2.26334e-20)
(2.49876 0.269938 5.01243e-19)
(1.78241 0.375779 9.81021e-20)
(1.76232 0.432758 1.06219e-18)
(2.06371 0.300633 1.37661e-19)
(1.98674 0.332671 -9.77067e-19)
(2.31672 0.133135 -2.92779e-19)
(1.74126 0.268175 -2.559e-19)
(1.81352 0.263614 -1.62596e-19)
(1.97916 0.193158 1.66221e-19)
(1.99296 0.186758 -3.05731e-19)
(2.16384 0.0845534 2.76286e-19)
(1.74249 0.141889 4.12277e-19)
(1.85431 0.123917 -5.34136e-21)
(1.88618 0.0859202 2.33454e-19)
(1.98162 0.0739044 2.01616e-19)
(1.99325 0.0255521 -1.91442e-19)
(1.34539 0.0321589 -5.02984e-20)
(1.41602 0.0220286 2.61432e-19)
(1.41252 0.0132217 1.15357e-19)
(1.47153 0.0047043 -2.29143e-19)
(1.43071 -0.00223722 2.72282e-22)
(1.08568 -0.0210571 4.96353e-20)
(2.09117 -0.0519012 -3.79631e-19)
(2.33194 -0.0422249 1.07299e-18)
(2.30892 -0.00164558 4.75752e-19)
(2.17849 0.0286584 -3.2716e-19)
(0.656151 0.0875704 8.52415e-20)
(1.86279 0.0714362 -3.88393e-19)
(2.33757 0.073377 -5.10576e-19)
(2.41802 0.0822234 6.09937e-19)
(2.13638 0.0733965 -3.68402e-19)
(0.182335 0.0652046 -2.80959e-20)
(1.21735 0.127395 3.95043e-19)
(1.98133 0.14285 5.55972e-20)
(2.37519 0.135014 2.77642e-19)
(2.60386 0.130491 9.17738e-20)
(-0.0551954 -0.0335354 1.77625e-19)
(0.398985 0.0507772 1.7168e-19)
(1.18323 0.11884 -3.46158e-19)
(1.68531 0.144117 1.57024e-20)
(2.26433 0.174413 -4.88886e-20)
(-0.106931 -0.0871541 1.21203e-19)
(-0.0413428 -0.0722903 -1.30684e-19)
(0.360957 -0.00165641 -2.47986e-20)
(0.835575 0.0277733 3.09295e-20)
(1.2065 0.067929 -4.17196e-20)
(-0.0756343 -0.0720819 6.7575e-21)
(-0.140674 -0.105788 7.0577e-20)
(-0.0674991 -0.107571 1.02486e-19)
(0.1229 -0.0903968 -1.19247e-19)
(0.421743 -0.0531083 7.40408e-21)
(-0.0306681 -0.0386365 -3.40826e-22)
(-0.0947341 -0.116456 -5.21981e-20)
(-0.120673 -0.193515 -4.63759e-20)
(-0.0990696 -0.244401 2.06684e-20)
(-0.0105464 -0.243657 1.23465e-20)
(-0.0190896 -0.0409179 9.83039e-21)
(-0.0654343 -0.159013 1.2241e-19)
(-0.094835 -0.258517 -5.51713e-20)
(-0.115796 -0.315399 -2.42693e-19)
(-0.115267 -0.33618 4.54012e-20)
(-0.0175572 -0.0291282 -3.94376e-21)
(-0.0939307 -0.138092 -4.43269e-20)
(-0.16755 -0.19658 1.42367e-19)
(-0.234361 -0.203239 -1.19396e-20)
(-0.285813 -0.196265 -4.15087e-20)
(-0.0175451 0.106902 -1.37418e-21)
(-0.137028 0.0879267 1.18133e-20)
(-0.258471 0.0676914 -1.23307e-20)
(-0.365681 0.0467308 6.76187e-20)
(-0.438575 0.000917776 2.19203e-19)
(1.4881 0.346202 -2.12319e-20)
(1.60538 0.271068 6.98173e-19)
(1.62988 0.154309 -5.32236e-20)
(0.93052 0.113968 -4.94913e-20)
(0.520177 0.0231328 6.17517e-21)
(0.911167 0.0969168 3.27132e-20)
(1.38621 0.215706 -4.64559e-19)
(1.68146 0.245934 -8.56103e-20)
(0.909417 0.244829 -1.06154e-21)
(0.471836 0.072083 -1.86243e-20)
(0.0452846 -0.10751 -1.2154e-19)
(0.989918 0.0766965 -6.49026e-19)
(1.56859 0.302657 9.38509e-21)
(0.745237 0.387168 -3.04644e-19)
(0.453112 0.131072 1.91256e-20)
(-0.521345 -0.168767 2.83197e-19)
(0.657117 -0.173915 1.29352e-19)
(1.40303 0.341026 8.74885e-21)
(0.48249 0.516995 -2.28346e-21)
(0.49682 0.152389 -6.9105e-20)
(-0.635584 -0.305394 1.72395e-19)
(0.354492 -0.494723 -2.08339e-20)
(1.2256 0.384354 -1.17076e-19)
(0.175837 0.622768 5.8421e-21)
(0.603359 0.123302 -3.0709e-19)
(0.724734 0.167106 -3.47378e-20)
(-0.0756906 -0.0539275 0)
(-0.116986 -0.109126 -1.64055e-20)
(-0.0482233 -0.0660696 5.88877e-20)
(0.201461 -0.0281266 -1.33438e-20)
(2.02607 0.365123 0)
(1.54326 0.317764 0)
(1.29155 0.105784 3.56349e-19)
(0.745574 -0.0326978 1.0453e-19)
(0.550869 -0.0442374 -1.19387e-20)
(0.689464 -0.000324106 -1.12072e-19)
(0.750075 -0.0026683 2.0564e-19)
(0.901121 -0.0196596 -1.16601e-20)
(1.07703 0.00979672 2.78793e-19)
(1.34144 0.0428239 1.74974e-19)
(1.5808 0.0178153 1.06337e-19)
(1.69944 0.068287 2.3122e-19)
(1.90684 0.018195 -1.44996e-20)
(2.51944 0.145429 -4.95472e-20)
(2.11489 0.0735333 4.15795e-20)
(0.874956 -0.446365 -3.35064e-20)
(0.858377 -0.53031 -1.34795e-19)
(0.843941 -0.621115 -9.44047e-20)
(0.768484 -0.683514 5.96477e-20)
(0.460472 -0.530505 1.12492e-19)
(0.771821 -0.347567 1.31831e-19)
(0.714209 -0.408091 2.81859e-19)
(0.639235 -0.474139 -2.38375e-20)
(0.526991 -0.529406 1.18413e-19)
(0.281894 -0.417048 4.60385e-20)
(0.628964 -0.205613 -1.7161e-19)
(0.540439 -0.24073 -4.26736e-20)
(0.438688 -0.285323 1.55213e-19)
(0.319792 -0.32522 -2.95131e-21)
(0.136374 -0.25866 -9.86643e-20)
(0.535222 0.0274794 -4.42317e-19)
(0.448369 0.0165577 -3.68036e-19)
(0.338112 -0.00281684 2.83779e-19)
(0.211918 -0.0312895 1.87263e-19)
(0.0527418 -0.0450709 1.35632e-20)
(0.518684 0.232361 -1.85604e-19)
(0.433251 0.238172 -1.81391e-19)
(0.317268 0.242897 -8.71004e-20)
(0.180319 0.251318 1.04876e-20)
(0.0243127 0.190242 1.12957e-20)
(1.91339 -0.0431929 7.09432e-19)
(2.18739 -0.10567 2.47937e-19)
(2.25059 -0.185068 -6.58339e-19)
(2.09509 -0.211982 -1.32362e-18)
(1.23892 -0.175954 1.03153e-19)
(1.91157 -0.118987 1.20284e-18)
(1.98852 -0.225131 1.58917e-18)
(2.00635 -0.341428 1.30465e-19)
(1.92242 -0.396574 2.25264e-19)
(1.21427 -0.336316 -1.47871e-19)
(1.62349 -0.274314 -3.13987e-18)
(1.69322 -0.386124 3.68051e-19)
(1.73737 -0.502998 9.76355e-19)
(1.66976 -0.571062 -3.71796e-19)
(1.07005 -0.472385 5.78801e-19)
(1.43455 -0.388864 7.38059e-19)
(1.44932 -0.481262 -1.94551e-18)
(1.43129 -0.591543 -2.25709e-18)
(1.35859 -0.670845 6.87985e-19)
(0.866766 -0.542437 4.58996e-19)
(1.15641 -0.441843 1.4925e-19)
(1.11107 -0.529682 2.12832e-19)
(1.10011 -0.643498 -3.34192e-19)
(1.04219 -0.721423 -4.0393e-19)
(0.652943 -0.564714 -3.76889e-21)
(1.05249 0.0595332 8.21554e-21)
(0.921309 0.0532395 -6.67559e-21)
(1.11223 0.0834949 -7.89933e-21)
(0.798954 0.0181659 -1.79687e-19)
(1.06972 -0.187654 -5.86749e-21)
(1.06875 0.0651718 -2.66002e-21)
(0.914488 0.0493175 5.63618e-20)
(1.10789 0.100949 -6.0675e-20)
(0.881472 0.0636118 9.17032e-20)
(0.964753 -0.0723056 -2.71294e-20)
(1.07047 0.0641136 -6.63729e-20)
(0.922058 0.0453142 5.74492e-22)
(1.09293 0.10306 -2.5493e-20)
(0.880223 0.0867435 5.49652e-21)
(0.940132 -0.0109302 -1.37477e-19)
(1.05197 0.0634146 8.0342e-20)
(0.954598 0.0410877 3.63148e-21)
(1.0586 0.111068 3.9339e-20)
(0.917811 0.110579 3.45042e-20)
(0.854758 0.0997535 1.26771e-19)
(1.02639 0.0604833 2.03686e-20)
(0.985093 0.0389469 -3.2703e-20)
(1.03091 0.120034 5.26399e-20)
(0.947023 0.135572 8.20469e-20)
(0.834623 0.201564 -1.45141e-19)
(0.880333 0.0337861 0)
(0.714611 0.0291025 1.06377e-20)
(0.593626 0.0238548 2.72197e-21)
(0.330415 -0.00620572 3.86166e-20)
(0.626385 -0.0494271 -1.0146e-19)
(1.01501 0.0760901 -6.64679e-20)
(0.942287 0.070925 -2.3338e-20)
(1.01401 0.0839631 -2.45701e-20)
(0.79993 0.0102214 -9.09716e-20)
(0.980351 -0.174525 -1.08735e-19)
(0.863668 -0.0612852 -2.43734e-20)
(0.944419 -0.0300438 4.26412e-19)
(1.02629 0.0355604 2.68239e-19)
(0.908271 0.0492663 2.39934e-20)
(0.703059 0.0255283 0)
(1.22978 -0.297593 2.36094e-19)
(1.33468 -0.263803 1.25195e-18)
(1.49614 -0.149423 -1.43081e-18)
(1.58959 -0.0226988 -4.4151e-19)
(1.48015 0.023601 3.26598e-19)
)
;

boundaryField
{
    left
    {
        type            fixedValue;
        value           uniform (1 0 0);
    }
    right
    {
        type            zeroGradient;
    }
    down
    {
        type            noSlip;
    }
    up
    {
        type            noSlip;
    }
    cylinder
    {
        type            noSlip;
    }
    defaultFaces
    {
        type            empty;
    }
}


// ************************************************************************* //
