/*--------------------------------*- C++ -*----------------------------------*\
  =========                 |
  \\      /  F ield         | OpenFOAM: The Open Source CFD Toolbox
   \\    /   O peration     | Website:  https://openfoam.org
    \\  /    A nd           | Version:  13
     \\/     M anipulation  |
\*---------------------------------------------------------------------------*/
FoamFile
{
    format      ascii;
    class       volScalarField;
    location    "0.275";
    object      strainRateViscosityModel:nu;
}
// * * * * * * * * * * * * * * * * * * * * * * * * * * * * * * * * * * * * * //

dimensions      [0 2 -1 0 0 0 0];

internalField   nonuniform List<scalar> 
440
(
9.41959
8.96966
8.54433
8.04226
7.58607
9.68998
9.35817
8.98174
8.48004
7.87563
9.80076
9.53086
9.15879
8.58514
7.84837
9.84964
9.6182
9.25866
8.64763
7.86617
9.86918
9.6561
9.30597
8.68102
7.90886
1.28736
1.77914
2.03694
2.28662
2.35051
3.36986
3.30032
3.31774
3.42768
3.49866
5.88823
5.27278
4.93259
4.73495
4.76507
7.76947
6.99396
6.42204
5.90811
5.83111
8.82079
8.15128
7.55209
6.91884
6.87263
1.83885
0.818164
0.310524
0.040915
0.0111277
2.62189
0.920758
0.271312
0.031942
0.0103025
3.52251
1.18651
0.253129
0.0287387
0.0103686
4.09759
1.48556
0.267584
0.0252575
0.0104194
4.60631
1.80484
0.349152
0.0249727
0.0100085
4.23962
1.78476
0.272642
0.0148536
0.0471961
3.70584
1.77382
0.47802
0.27872
0.430935
4.91461
3.1931
1.19578
0.663323
0.700453
7.01065
4.28639
1.88496
1.003
0.904419
8.27279
5.07882
2.50417
1.44863
1.13297
2.84905
3.68374
4.6216
5.5083
6.15239
3.68389
3.69599
3.77056
3.84974
3.36503
8.22698
8.08704
7.79976
7.38546
6.345
9.05303
8.99252
8.85927
8.62183
8.16061
9.60671
9.56995
9.487
9.338
9.1187
7.50454
8.01263
8.55911
9.01079
9.46443
7.79427
8.45139
8.98684
9.3778
9.70871
7.77896
8.55888
9.1593
9.54075
9.80946
7.81624
8.62753
9.25738
9.62276
9.8536
7.89137
8.67371
9.30539
9.65746
9.87035
2.48098
2.42235
2.22363
2.07131
1.99183
3.46764
3.41744
3.45141
3.66196
4.19037
4.65038
4.66961
5.05033
5.58993
6.42845
5.69886
5.83693
6.50149
7.18722
8.03713
6.76018
6.84636
7.58181
8.24305
8.93558
0.137379
0.0428153
0.203593
0.76511
1.975
0.102475
0.0585794
0.1746
0.825662
2.65299
0.0839434
0.0786995
0.164446
1.07933
3.46498
0.0753485
0.0991215
0.19337
1.41813
3.9729
0.0899665
0.125268
0.299382
1.7704
4.39037
0.164873
0.164456
0.285968
1.89752
4.125
0.305934
0.178557
0.189338
1.71548
3.8476
0.608468
0.403724
0.80285
3.00901
4.89644
2.24476
0.936793
1.5428
4.1559
6.96119
5.04473
2.62724
2.47341
5.04681
8.27876
5.95632
5.27362
4.40726
3.51325
2.78117
3.51625
3.98515
3.9666
3.87392
3.76314
6.31862
7.3522
7.77968
8.06843
8.21906
8.12204
8.60051
8.84983
8.98884
9.05217
9.11674
9.33769
9.48735
9.57049
9.60695
9.31029
7.91581
1.39828
3.62882
7.73567
9.08108
7.43953
3.20518
1.63977
6.78768
8.3974
6.57604
4.20725
1.00333
4.14562
6.81367
5.09262
3.4534
1.70138
1.03736
4.50201
3.14285
2.03709
1.37829
0.461565
2.59707
1.61818
1.00371
0.800859
0.930415
1.45329
0.779538
0.584351
0.619944
0.692687
0.78998
0.404471
0.591862
0.760181
0.833909
0.296479
0.498135
0.871867
1.03669
1.09817
0.155606
0.920119
1.26096
1.49507
1.549
0.193935
0.362856
0.693893
0.786629
0.79994
0.402538
0.491917
0.549331
0.617201
0.639008
0.613772
0.627972
0.416797
0.441484
0.471943
0.949365
0.760887
0.354727
0.245135
0.265438
1.30664
0.800943
0.338109
0.0938277
0.0496438
1.1088
0.873861
1.12922
1.16312
1.13789
0.279705
0.482776
0.861865
0.953043
0.95333
9.1905
8.83774
7.75732
5.72877
3.55913
8.58633
7.72159
5.84971
3.48904
0.862745
0.970593
0.866808
1.03226
1.62056
2.65725
0.825468
0.780622
0.71522
0.827448
1.51692
1.06054
1.01155
0.849052
0.55491
0.720727
1.3555
1.31748
1.12085
0.776454
0.214226
1.79905
1.75255
1.50492
1.19525
0.581605
7.7352
3.62571
1.39961
7.91404
9.31043
6.7838
1.63941
3.202
7.43641
9.08171
4.13146
1.01091
4.19329
6.57134
8.39895
1.03435
1.70791
3.43189
5.08327
6.82012
0.478699
1.37902
2.01413
3.12485
4.52474
1.28245
0.615689
0.57029
0.457919
0.18095
0.63773
0.372636
0.469144
0.5238
0.498089
0.353552
0.221388
0.354176
0.614143
0.804037
0.257049
0.0375891
0.30249
0.732635
1.19211
0.194272
0.0300957
0.2412
0.769065
1.52847
5.47315
2.50165
1.08537
0.991844
1.14695
2.86885
1.14542
0.761151
0.571804
0.246878
3.56888
5.73478
7.75852
8.83826
9.19065
0.838384
3.46886
5.84294
7.72022
8.58618
)
;

boundaryField
{
    left
    {
        type            calculated;
        value           nonuniform List<scalar> 
17
(
0.392838
1.03086
2.13843
3.90424
6.57832
0.277965
0.191134
0.15861
0.155892
0.198125
2.94765
2.02632
1.26285
0.754877
0.455175
6.97648
4.57582
)
;
    }
    right
    {
        type            calculated;
        value           nonuniform List<scalar> 
17
(
1.13829
0.953871
0.799783
0.63793
0.469049
0.259355
0.0452687
0.0106002
0.0101021
0.0100968
0.0100961
0.0100358
0.0625251
0.479759
0.740241
0.92276
1.1251
)
;
    }
    down
    {
        type            calculated;
        value           nonuniform List<scalar> 
20
(
5.98771
3.03135
1.19353
1.07531
1.85408
4.2695
6.38231
8.13003
9.01497
9.30867
9.3085
9.01433
8.12855
6.37805
4.26247
1.83165
0.948077
1.19703
1.22299
1.19019
)
;
    }
    up
    {
        type            calculated;
        value           nonuniform List<scalar> 
20
(
8.5483
5.40539
2.72898
1.58379
1.19702
9.69562
9.66614
9.59855
9.47414
9.29325
9.2961
9.4763
9.60011
9.66723
9.69602
5.69385
3.21763
2.71279
5.40174
8.56472
)
;
    }
    cylinder
    {
        type            calculated;
        value           nonuniform List<scalar> 
40
(
1.34751
3.57178
6.11425
7.96039
8.95726
9.50519
9.74579
9.8408
9.88146
9.89747
9.54774
9.76292
9.84857
9.88497
9.8985
2.22315
4.46308
6.67422
8.23034
9.07025
3.04411
1.84243
1.06643
0.413309
0.59324
9.51861
9.33127
8.74119
7.26792
4.9847
9.51844
9.33053
8.73915
7.25966
4.95595
2.9662
1.73105
1.06186
0.654669
0.100914
)
;
    }
    defaultFaces
    {
        type            empty;
    }
}


// ************************************************************************* //
