/*--------------------------------*- C++ -*----------------------------------*\
  =========                 |
  \\      /  F ield         | OpenFOAM: The Open Source CFD Toolbox
   \\    /   O peration     | Website:  https://openfoam.org
    \\  /    A nd           | Version:  13
     \\/     M anipulation  |
\*---------------------------------------------------------------------------*/
FoamFile
{
    format      ascii;
    class       volVectorField;
    location    "4.3";
    object      U;
}
// * * * * * * * * * * * * * * * * * * * * * * * * * * * * * * * * * * * * * //

dimensions      [0 1 -1 0 0 0 0];

internalField   nonuniform List<vector>
1800
(
(0.00765458268509 -0.0208632441016 -5.45783472347e-17)
(0.532774139464 -0.455432607946 -2.43607448222e-17)
(1.05784010565 -0.864851802874 7.60978954743e-18)
(1.345314607 -1.05764949996 1.43785802504e-17)
(1.45512825143 -1.09523834374 -4.36248657801e-18)
(1.48371239076 -1.0621321285 -4.09025770642e-18)
(1.48329085269 -1.00650628086 2.49535667585e-18)
(1.47358611401 -0.947808435125 1.50462750586e-19)
(1.46151667088 -0.88843496304 -1.93360327769e-18)
(1.4280433055 -0.840394697939 1.34654743196e-18)
(0.0305609782672 -0.0374271120442 1.18594305267e-18)
(0.636952505883 -0.460790956488 -1.31832238862e-18)
(1.21822793375 -0.848271735266 -2.94354009405e-20)
(1.52516941097 -1.02498773022 -5.87183863995e-19)
(1.63392787914 -1.05524113164 5.85878205365e-19)
(1.65479137239 -1.01983937456 1.27376047714e-18)
(1.64619368849 -0.963582877049 -8.58245649589e-19)
(1.630008398 -0.904060503549 5.37954726799e-19)
(1.6129846025 -0.845387231189 7.30953333906e-19)
(1.58933965346 -0.801586365413 -3.82018510356e-19)
(0.0606903150982 -0.0534163393401 -1.7679674523e-20)
(0.74769649304 -0.45452481872 1.4414615531e-19)
(1.37870648838 -0.810940208058 3.49214167684e-19)
(1.69957982257 -0.967923313237 -2.97456608077e-19)
(1.80410045429 -0.991247102805 -1.53866323044e-18)
(1.81539385287 -0.956115068022 3.398572151e-19)
(1.79685843257 -0.903288034195 5.95518821807e-19)
(1.77140190522 -0.84882500081 -7.77604192825e-20)
(1.74578726379 -0.796636346308 -4.97875716192e-21)
(1.71320884775 -0.755755706514 -3.42162141983e-20)
(0.0981197702333 -0.0671075150087 1.12268920461e-20)
(0.86294255825 -0.43452169059 -8.57917709465e-20)
(1.53582145849 -0.751550652555 -2.79869140419e-19)
(1.86511657207 -0.885469273743 7.09353763769e-20)
(1.96329300519 -0.901550994159 3.98647786109e-19)
(1.96504436215 -0.867136144978 3.68476466526e-20)
(1.93750279314 -0.817787005394 -2.42583381182e-20)
(1.9041374406 -0.767225127722 5.46334943536e-19)
(1.87141936843 -0.718820549684 4.51216429909e-19)
(1.83535172086 -0.682438359405 -1.49048777916e-19)
(0.142566329018 -0.0770448403334 8.9297539413e-20)
(0.980039404054 -0.40015808706 1.49462073074e-19)
(1.68529984068 -0.671507037605 -8.33866760147e-20)
(2.01677740937 -0.780817468771 -9.80530244998e-20)
(2.10631160906 -0.790865668564 -1.20295041886e-18)
(2.09840222732 -0.759253611977 1.06858893645e-20)
(2.06256051486 -0.715720223203 9.322123527e-19)
(2.02223718201 -0.671647658197 3.2304262002e-19)
(1.98353038601 -0.630080322932 2.30532194426e-20)
(1.94364539629 -0.598444126751 -1.9965120708e-19)
(0.192964035362 -0.0814563157371 -8.04552137046e-20)
(1.0954914169 -0.350342208541 1.61100474005e-19)
(1.8227089395 -0.571340358303 1.0959920601e-18)
(2.1502469712 -0.655427487217 -8.24582143615e-19)
(2.2293178664 -0.660666350418 -8.73353480156e-19)
(2.21206825779 -0.633175531104 1.44730352889e-18)
(2.16887181211 -0.596505546498 -1.04077631232e-18)
(2.12255657733 -0.559674267895 -1.14462009245e-18)
(2.07871256812 -0.525196995575 8.30281483139e-19)
(2.03562943467 -0.49933349573 -3.19950194117e-20)
(0.247776655297 -0.0789191432364 -1.69256516446e-20)
(1.20556035251 -0.285116256817 -4.78379392411e-19)
(1.9438831818 -0.453159701556 -2.90946531224e-18)
(2.26176240639 -0.512782990714 1.36814315871e-18)
(2.32919571605 -0.515116867068 2.2046953238e-18)
(2.30340813268 -0.493323918052 -6.3628638403e-21)
(2.25422227013 -0.46479131173 -2.81635164647e-18)
(2.20326486239 -0.436276705414 -2.50775918993e-21)
(2.15556143833 -0.40979105423 2.52178544521e-18)
(2.1100417976 -0.390177505654 6.6398544904e-19)
(0.304792193714 -0.0682657421915 5.36708550886e-20)
(1.30610751327 -0.205033131512 4.18535581184e-19)
(2.04472534515 -0.319443474739 2.2381724909e-18)
(2.3479819917 -0.35639019263 -8.0951743334e-20)
(2.40333687194 -0.357924640248 -1.41785554402e-18)
(2.37015005324 -0.34310158531 -4.36801028105e-19)
(2.31636555931 -0.32359445531 0)
(2.2621011066 -0.304083601745 9.8858303675e-19)
(2.21171443489 -0.286101497125 1.01496689928e-20)
(2.16456308732 -0.273304458614 -8.02938214928e-19)
(0.361310855567 -0.0488936072415 8.07722709047e-21)
(1.39313223234 -0.111659439658 8.44044307714e-19)
(2.12170568208 -0.173580289143 2.0132741331e-18)
(2.40658409694 -0.190474056927 -1.99603622728e-18)
(2.45020699439 -0.193391400769 -1.43572851308e-18)
(2.41106780544 -0.186464770094 4.47409470247e-19)
(2.35422535579 -0.17659498542 -1.88071440587e-18)
(2.29800081272 -0.166519140737 -1.27748501514e-18)
(2.24614434339 -0.157294295004 1.51935743628e-18)
(2.19823630238 -0.151498175912 1.29301581138e-18)
(0.414407596972 -0.0209533626315 5.45566766284e-20)
(1.46307685142 -0.00732042639365 5.88359442484e-19)
(2.17189357763 -0.0192600273463 3.7812465133e-19)
(2.43650067999 -0.0195482720371 -2.89220352603e-18)
(2.46909964756 -0.0258109954 4.1083614529e-20)
(2.42558868989 -0.0272001147683 4.27218084963e-18)
(2.367229217 -0.0271694249075 -2.26082918673e-18)
(2.31027096572 -0.0267313938769 -1.26848621093e-18)
(2.25808517171 -0.0263314904096 4.13438672259e-19)
(2.210379091 -0.0275249691265 -9.38688819688e-19)
(-0.00504761317985 0.00125544396068 1.02356772073e-19)
(-0.00376456142614 -0.0884890084803 6.1388957305e-20)
(0.0428828952933 -0.18020867004 -1.69159369064e-21)
(0.10551550868 -0.229649436661 -8.66566000374e-21)
(0.172748754303 -0.24556086673 -2.05359024266e-21)
(0.238175534894 -0.244808808683 -4.28637119103e-20)
(0.298812349632 -0.23777990841 1.56885196146e-20)
(0.354119245214 -0.229070783886 -2.8750120516e-20)
(0.404155535797 -0.220369824341 3.08641194561e-21)
(0.451431695195 -0.213442714813 -8.13715444214e-21)
(-0.00678829535654 0.0127270017318 2.98786067323e-20)
(0.00953996340072 -0.132428637865 7.70898171569e-20)
(0.0720700762788 -0.287557730938 -1.05491499601e-19)
(0.142961480874 -0.371273696743 -4.71521113131e-20)
(0.212425221277 -0.396777024438 -7.50078701107e-20)
(0.277296205562 -0.393161339878 -8.10463154369e-20)
(0.336351773123 -0.378659762608 2.87273932879e-20)
(0.389816341372 -0.361366998704 -2.14843441125e-20)
(0.437917552889 -0.344306698834 4.20473146505e-21)
(0.484216982426 -0.331579780546 -8.68805268837e-21)
(-0.0102038981556 0.0224099213004 -4.39105208949e-20)
(0.0305345011916 -0.176336274997 1.68338444407e-19)
(0.119322844616 -0.391454128212 7.23573984586e-20)
(0.2040348269 -0.507134170158 2.80307313499e-19)
(0.277299160264 -0.541229467609 5.08063668228e-20)
(0.341289789965 -0.534520886766 -2.835082999e-19)
(0.397754746592 -0.512678858133 -3.01389615411e-20)
(0.448188344815 -0.487081776223 8.66908959452e-20)
(0.493114578432 -0.462050722496 -3.38266272597e-20)
(0.537903100338 -0.443711152487 -3.59292649136e-21)
(-0.0147098146982 0.0295954932221 -1.12725853817e-19)
(0.059724281246 -0.219929264636 -2.58833103246e-20)
(0.18444146594 -0.490021528025 3.18857045036e-20)
(0.288013920686 -0.634309497026 -1.33633578823e-19)
(0.366391066099 -0.675583227058 6.43466820045e-20)
(0.429058020244 -0.665496177881 1.90248265461e-19)
(0.481903614962 -0.636538270417 5.26038397463e-20)
(0.528146653559 -0.603054008433 -1.10388728317e-20)
(0.56873594926 -0.570608431038 2.10723514844e-20)
(0.611485457428 -0.546887910342 -2.47558684823e-21)
(-0.0195024339274 0.0335874855025 0)
(0.0977401311978 -0.262895824063 8.80162879369e-20)
(0.267056319984 -0.58138862101 2.66794555981e-19)
(0.393782607687 -0.749926804527 -2.83098509441e-19)
(0.478228129914 -0.796601604049 -5.86127611055e-19)
(0.539007048709 -0.782840519785 1.98598507771e-19)
(0.587218836281 -0.747116765476 -2.74567698744e-20)
(0.628189555527 -0.706327116761 -9.89192099505e-20)
(0.663430730812 -0.667187748503 0)
(0.703625437284 -0.638339652903 -8.69723020889e-21)
(-0.0235520606991 0.0337858466442 5.49186010009e-20)
(0.145282225081 -0.304773026073 8.42400444233e-20)
(0.366549472176 -0.663659121413 4.53669527709e-20)
(0.51971998896 -0.851225376643 2.39976746573e-19)
(0.610739000119 -0.901251764301 -1.90288272508e-19)
(0.668954668249 -0.88357371071 -2.95320975622e-19)
(0.711581544789 -0.841601194036 5.09304174383e-19)
(0.746356827076 -0.794276211981 5.42967090576e-20)
(0.775470248755 -0.749307128137 -2.99317436499e-19)
(0.812600200059 -0.715538005899 -6.99277790921e-21)
(-0.0256380948382 0.0297924990745 -3.37844729162e-21)
(0.203009924797 -0.344825984297 6.42735379057e-21)
(0.481939691031 -0.73488574476 1.30508482857e-19)
(0.663628733301 -0.935645209626 2.5604779133e-20)
(0.761191445702 -0.986874149403 3.24487830131e-19)
(0.816063033328 -0.96520651519 -4.06941943432e-19)
(0.852277885775 -0.917754194085 -4.06633674526e-19)
(0.880149215481 -0.864913883651 -3.41290772076e-19)
(0.902700622684 -0.815094273892 2.50648074305e-19)
(0.936092593843 -0.776407821629 2.72458979863e-19)
(-0.024466131569 0.0215671930611 -1.27808902525e-19)
(0.271268056311 -0.381905220499 6.20319004761e-20)
(0.611621510728 -0.793054255018 2.96526440493e-19)
(0.822525785473 -1.0009376654 -1.77018073558e-19)
(0.926034582037 -1.0514383812 3.38844149871e-19)
(0.976729551186 -1.02614597048 8.01022102752e-19)
(1.00589362832 -0.974522358838 5.47554312606e-19)
(1.02641649337 -0.917810157179 -4.28947807059e-19)
(1.04237618591 -0.86442241611 -2.04129145326e-19)
(1.07031512796 -0.820620926261 2.95021398487e-19)
(-0.0189852847116 0.00964347398019 -1.79107128403e-19)
(0.349577886821 -0.41426554586 -2.74089487899e-19)
(0.752776487862 -0.835881000023 6.76716599196e-19)
(0.991931151682 -1.04484811136 7.78216565999e-19)
(1.09996472755 -1.09298851659 -7.60560709907e-19)
(1.14530064369 -1.06495254151 8.32586154983e-19)
(1.16659556721 -1.01118206382 1.37757465685e-19)
(1.17919851591 -0.953172655402 -9.8929927855e-19)
(1.18850344239 -0.898038418964 -2.44030030945e-19)
(1.20607022439 -0.849448222189 3.3426736053e-19)
(-0.00853512390052 -0.00488565132882 8.8919595235e-20)
(0.43686717475 -0.439543580852 -2.98192119856e-19)
(0.902051427974 -0.860614121118 -4.46898611958e-19)
(1.16682459001 -1.06451399673 7.79613738762e-19)
(1.27674557091 -1.1084427372 6.18071041451e-19)
(1.31440831322 -1.0781194855 -7.50170994557e-19)
(1.32554488621 -1.02361952502 -6.14339762729e-19)
(1.3278533658 -0.965931640608 3.64490905178e-19)
(1.3280676204 -0.909630943925 -3.82174435014e-19)
(1.32549539456 -0.858521368901 -2.26466139567e-19)
(0.622154139678 -0.173427074565 3.64017855005e-20)
(0.80002658327 -0.13261986462 -7.51920709959e-20)
(0.888409955102 -0.103572922434 5.71168941003e-21)
(0.939230484219 -0.080951354927 1.31267170567e-20)
(0.969091044717 -0.0627136961344 -6.18715523684e-21)
(0.986741975556 -0.04779498552 -3.0733102953e-21)
(0.997578080447 -0.0355526697135 -4.73295525555e-21)
(1.00438417141 -0.0253729805024 -3.14463023494e-21)
(1.00849578359 -0.0172498098531 7.81604691884e-21)
(1.01125531918 -0.00707706163482 2.95010992734e-21)
(0.639860623916 -0.246699087069 1.03919282108e-19)
(0.81183262001 -0.172244486295 1.57538054812e-20)
(0.896857986359 -0.125064443045 4.59372410256e-21)
(0.945636084418 -0.0928713697915 -7.60668249296e-21)
(0.974136865368 -0.0696315540642 -1.68949121692e-20)
(0.990797460623 -0.0519283303732 0)
(1.00086636932 -0.0380691268774 -4.95002324097e-21)
(1.00709131384 -0.0269081703263 3.86994797819e-21)
(1.01080382753 -0.0181807349459 4.77679865605e-22)
(1.01322719746 -0.00743773498461 -3.58752187885e-21)
(0.668014010268 -0.317514432142 -5.81213611824e-20)
(0.828758898625 -0.210967520868 -4.10926466098e-20)
(0.908091410407 -0.146248545334 1.86329729232e-20)
(0.953501370277 -0.104658159905 -9.16631848813e-21)
(0.979961778748 -0.076438437743 -3.89958059249e-21)
(0.995303985434 -0.055957854095 6.1985144697e-21)
(1.00443125095 -0.0404902094999 0)
(1.00997554515 -0.0283622101727 0)
(1.01322477568 -0.0190466250536 -2.13125951519e-21)
(1.01529309612 -0.00776869181505 0)
(0.706676357163 -0.384504713993 -3.2666071599e-20)
(0.850576277092 -0.248204906905 7.7574894861e-20)
(0.922036936832 -0.166855925392 8.65563405409e-21)
(0.962808177938 -0.11618496481 0)
(0.986565065441 -0.0830619211918 2.28420304251e-20)
(1.00025380178 -0.0598401470002 -3.51000220953e-21)
(1.00825866612 -0.0427894060137 0)
(1.01301961048 -0.0297180698223 4.27427368136e-21)
(1.01577482913 -0.0198369444549 0)
(1.01742036201 -0.0080656120261 6.02579231372e-22)
(0.755916740265 -0.44633476809 -2.89947049711e-20)
(0.877024758242 -0.283425164373 1.05363460624e-19)
(0.938582148509 -0.186625708306 -4.68148307651e-21)
(0.973527778203 -0.127327851278 0)
(0.99393497721 -0.0894338693093 5.05233017139e-21)
(1.00563501231 -0.0635337687379 6.88648836351e-21)
(1.01233664493 -0.0449400575441 5.9676781844e-21)
(1.01621388655 -0.0309590249999 1.0939449411e-21)
(1.01839875953 -0.0205409034133 -2.20222043327e-21)
(1.01961815486 -0.0083242020226 2.6952660368e-21)
(0.815571065663 -0.501666346047 -6.67063744805e-19)
(0.907790966616 -0.316165505616 -1.88825184964e-19)
(0.957581217682 -0.205349474084 1.87726851115e-21)
(0.985614779323 -0.137974781137 3.34265188156e-20)
(1.00205627335 -0.0954926292989 -7.84339627544e-21)
(1.01143676116 -0.0669994095152 4.95854066286e-21)
(1.01665511542 -0.046916533223 4.94036171035e-21)
(1.01954265282 -0.0320677865424 -9.17756784964e-21)
(1.02110107738 -0.021147732734 -2.11250213121e-22)
(1.02187466345 -0.00854017133965 1.73556376948e-22)
(0.884693646627 -0.548975687089 -1.96263079584e-20)
(0.942140605659 -0.345473679394 7.2397052579e-20)
(0.978732235585 -0.222789429382 3.66469796557e-21)
(0.998981877217 -0.148023043615 -9.34635404611e-22)
(1.01089541741 -0.101187057619 -2.43207993955e-20)
(1.01762871008 -0.070204757454 5.33322138662e-21)
(1.02118958273 -0.0486960877555 -3.43940352196e-21)
(1.02298993628 -0.0330284796769 -4.29142595092e-21)
(1.02387150911 -0.0216468874042 1.06673448794e-21)
(1.02415564181 -0.00870937732324 -1.86955522235e-21)
(0.961745322173 -0.587434082615 2.98973838746e-19)
(0.978185122386 -0.370724126899 8.10789210232e-20)
(1.00090098353 -0.238550238427 0)
(1.01324337146 -0.157255145152 -4.34021750892e-22)
(1.02031120226 -0.106417701721 1.93357396902e-20)
(1.02414883687 -0.0731028852091 1.14782844117e-21)
(1.0259089645 -0.0502545657333 -1.52005312559e-20)
(1.02654020421 -0.0338266772114 4.2440094872e-21)
(1.02668926615 -0.0220297844613 -3.93403348747e-23)
(1.02646392071 -0.00882938565689 -2.89373646239e-22)
(1.04957510989 -0.620167928207 -4.36529182931e-19)
(1.01568132272 -0.395481560097 -2.1322995139e-19)
(1.02254803181 -0.254420423442 5.0326969468e-20)
(1.02733406591 -0.166355081371 -1.68125833613e-22)
(1.0297874792 -0.111401542973 -2.28261203235e-21)
(1.03077324075 -0.0757440048663 -1.46515114567e-20)
(1.03069084886 -0.0515926534814 3.80911516686e-21)
(1.03012324865 -0.0344527496312 5.29755212211e-22)
(1.02952131215 -0.0222878998921 -3.22433884142e-21)
(1.02878359566 -0.00889888090468 -2.81763906487e-21)
(1.1544129831 -0.644357352229 3.02807249747e-19)
(1.06614355049 -0.415946568542 -2.1477114758e-19)
(1.04794310523 -0.270995359186 -3.79132526592e-20)
(1.04235523722 -0.176538316857 -4.05545901765e-20)
(1.03944611755 -0.117001199341 -2.30698160193e-20)
(1.03740521663 -0.0786078841209 -1.12996844233e-20)
(1.03549466115 -0.052940328462 -5.48812397639e-21)
(1.03370759273 -0.0350009642856 0)
(1.03233234838 -0.0224545608897 -3.34761797833e-22)
(1.03109370313 -0.00891182634879 2.03821180921e-21)
(1.30819891929 -0.631556655109 5.05848749134e-19)
(1.16589902519 -0.416614814975 1.60520259871e-19)
(1.10363331078 -0.272872740015 -1.0775521138e-19)
(1.07425240418 -0.178257565935 6.98889199092e-21)
(1.05823257193 -0.11795359673 8.81925744398e-21)
(1.04902872421 -0.0788907698307 -5.0603253562e-21)
(1.0430464545 -0.0528243518268 4.34349784777e-22)
(1.03888835334 -0.0347197007672 4.45569208697e-21)
(1.03612056014 -0.02215305696 -3.13206786357e-21)
(1.03405918628 -0.00877534455201 1.12069986601e-22)
(1.36121537473 -0.518140498561 -1.3377626993e-20)
(1.20106317839 -0.356300813886 1.52955146704e-19)
(1.13287827543 -0.242038245124 1.14739551971e-19)
(1.09721285083 -0.163306501826 -1.36796139535e-20)
(1.07458072262 -0.110081699233 5.37601785052e-20)
(1.06031012034 -0.0742940765048 3.50480408841e-20)
(1.05090014802 -0.0499367109113 2.40939227945e-20)
(1.04447419621 -0.0328675551811 -2.37707758906e-21)
(1.04037381475 -0.0209847316138 8.4602450934e-21)
(1.03740105294 -0.00830540530501 3.84082860464e-21)
(1.41936986623 -0.444517972423 -1.40162882977e-19)
(1.25185839508 -0.317456069564 -1.05884550837e-20)
(1.16803766592 -0.219448109469 5.59904197557e-21)
(1.12111303634 -0.150066120013 3.8314849402e-37)
(1.09075116913 -0.101941631428 8.6518016172e-22)
(1.07127211226 -0.0690422071472 -9.64151232183e-35)
(1.0584631168 -0.0464501861127 -2.9590444172e-21)
(1.04985678128 -0.0305616244975 -2.14482759171e-34)
(1.04439910027 -0.0195027343651 8.58596421025e-22)
(1.04054398496 -0.00771556590404 -2.55485677243e-21)
(1.45543688704 -0.365999404482 -1.99211155279e-34)
(1.28846673338 -0.270916779689 -3.9843954003e-20)
(1.1964387105 -0.19168936489 -4.06647416564e-20)
(1.14159666941 -0.133284520735 0)
(1.10511918356 -0.0914342096979 -2.28177259741e-20)
(1.08119464469 -0.0622297363261 -1.57005000823e-20)
(1.06536467967 -0.0419490213135 -9.09869142421e-21)
(1.05477480897 -0.0276112313034 -2.65882251402e-34)
(1.04808800667 -0.0176235523663 -2.80164842024e-21)
(1.0434138922 -0.00697402089972 2.42789901833e-21)
(1.47834174395 -0.294682167083 -8.66809641109e-20)
(1.31649086909 -0.225123350692 4.45932279955e-21)
(1.21961542455 -0.162392027562 0)
(1.15886472295 -0.114439146276 0)
(1.11752719782 -0.0791802413007 0)
(1.08991108901 -0.0541429113833 0)
(1.07147840568 -0.0365775467131 -5.86587005555e-22)
(1.05913835792 -0.0240935150502 -2.97434782833e-34)
(1.05137394715 -0.0153880625153 7.60092363087e-22)
(1.04593759509 -0.00609335563711 2.90722082467e-34)
(1.49239838513 -0.228993314143 -3.65912483361e-20)
(1.33730540151 -0.179708432441 0)
(1.23791139763 -0.131845957827 0)
(1.17293150321 -0.093986308492 0)
(1.12783669732 -0.0655213757527 0)
(1.09725503828 -0.0449983170483 0)
(1.07666916313 -0.0304665457021 9.90477856841e-22)
(1.06285792605 -0.0200866505263 5.66048733184e-21)
(1.05416732643 -0.0128403820776 7.15676959117e-22)
(1.04808310774 -0.00508894568217 3.22447263221e-21)
(1.50057342599 -0.168365385062 0)
(1.35212736376 -0.135136518736 -1.26920945838e-20)
(1.25170642404 -0.100547458446 -1.64882517151e-20)
(1.18383098363 -0.072362978301 0)
(1.13596886387 -0.0507728175704 -1.06032234311e-20)
(1.10310453305 -0.0350047803072 -7.57892273596e-21)
(1.08084034732 -0.0237502604924 -4.28960415493e-21)
(1.0658533037 -0.0156741579849 -3.32228635199e-21)
(1.05641520405 -0.0100297154211 4.46580476538e-21)
(1.04980048843 -0.00397925354256 1.42877208802e-21)
(1.50398165334 -0.111651711016 8.94038141797e-21)
(1.3609826492 -0.0913413948194 6.93059756428e-21)
(1.26048591782 -0.0686339862654 -3.8976588949e-21)
(1.19091733018 -0.0497558961345 2.96220829644e-36)
(1.14126655655 -0.0350860879902 5.43830727341e-22)
(1.10685941513 -0.0242652486608 -6.04955333605e-35)
(1.08341543619 -0.0164929782175 7.63184579231e-22)
(1.06761638395 -0.0108941509018 3.21662746915e-21)
(1.05764337387 -0.00697298573329 5.93128115668e-22)
(1.05063786198 -0.00276307965293 -1.98483112329e-21)
(1.48395890782 -0.0559912632037 -4.36519626359e-20)
(1.34499167798 -0.0506973044004 1.17306339204e-20)
(1.24699538218 -0.0392193140652 1.27535592544e-20)
(1.17839028297 -0.0287884490661 0)
(1.1290880507 -0.0204293421094 7.58688639497e-21)
(1.0947092603 -0.0141767379979 5.37808404413e-21)
(1.07120713151 -0.00965432000376 4.33478668071e-21)
(1.05533718504 -0.00638477317327 2.38564063897e-21)
(1.04532382408 -0.00409068021808 -2.2392868071e-21)
(1.03827708319 -0.00161935901837 2.42042794872e-21)
(1.11309248818 -0.00324459174453 0)
(1.02431449229 -0.00706316364737 0)
(0.955264965065 -0.00626703501368 0)
(0.905158706137 -0.00477311707276 0)
(0.868568227168 -0.00343006237015 0)
(0.842867226172 -0.00240247427115 0)
(0.825196960245 -0.001647199602 6.02742153663e-22)
(0.813204363614 -0.00109936209494 -3.71993051069e-36)
(0.805585106362 -0.000692463232499 5.88459848007e-22)
(0.800226246323 -0.000263346090017 1.82490388608e-21)
(2.12602840719 -0.0273791971923 8.64079831234e-19)
(2.11634217328 -0.133760471327 5.99157246594e-20)
(2.08878233351 -0.238015709443 -1.29795553841e-19)
(2.04363659377 -0.337718409969 -3.3757629905e-19)
(1.98270819352 -0.43111556385 -1.19551431734e-19)
(1.90529921421 -0.517049982337 -1.75761182487e-19)
(1.82126154808 -0.587572479123 -4.09153107429e-19)
(1.70886729878 -0.664569119231 1.32660333315e-19)
(1.63285239887 -0.681891319115 0)
(1.46510909917 -0.770512838017 3.35276138151e-20)
(2.03986717666 -0.020034992452 2.14621402121e-19)
(2.03188795307 -0.0996486832799 -3.34054600131e-19)
(2.01058341886 -0.178342582071 6.37023899835e-23)
(1.97518995441 -0.254802395248 -1.32758824491e-19)
(1.93018288125 -0.326943481569 1.42988574186e-20)
(1.86746557629 -0.398155993388 1.15134983334e-19)
(1.81022634226 -0.448697842819 3.34508517385e-20)
(1.71502641976 -0.530163077045 9.7611711231e-20)
(1.66499685512 -0.5276775404 -1.1908641815e-19)
(1.54697487886 -0.622609249732 2.17564756169e-20)
(1.96600938207 -0.0149062207252 -1.14114906929e-19)
(1.96002491701 -0.0781533452733 2.0478813641e-19)
(1.94358636973 -0.140336640611 1.89224166749e-19)
(1.91535241275 -0.200895670399 -2.20146089293e-19)
(1.88046723385 -0.257412269129 1.06802180788e-19)
(1.82968473989 -0.315743853557 1.05276463007e-19)
(1.78573621144 -0.353310375356 -6.95652690544e-20)
(1.71127759003 -0.425967009338 8.19462573859e-20)
(1.66600357564 -0.420775272316 8.30247350148e-20)
(1.58001848559 -0.505013574772 1.07219527174e-19)
(1.90934523006 -0.0136309610461 -1.86624451559e-19)
(1.90453097766 -0.0620636674163 5.26131597671e-20)
(1.89085986025 -0.10989129214 -1.13454180114e-19)
(1.86738275178 -0.157059348719 -6.73531994682e-20)
(1.83825108408 -0.20113956005 3.83797036225e-20)
(1.79667102909 -0.247996805605 -1.03591478765e-19)
(1.75877265065 -0.277727553686 7.45795212741e-20)
(1.70077365491 -0.337360041997 3.00520587724e-20)
(1.65818086894 -0.334733747873 -1.7230951708e-20)
(1.59384318045 -0.403451282283 8.2915314522e-21)
(1.86507150479 -0.0115168910382 5.54387065816e-20)
(1.8611036092 -0.0484404623741 4.34789408742e-20)
(1.84936462951 -0.0848830637864 -6.4559812692e-20)
(1.82942120382 -0.120971182447 2.28790971644e-19)
(1.80396133559 -0.154770257764 1.70203900056e-20)
(1.76934780861 -0.191027726737 -1.31126947199e-19)
(1.73511886093 -0.214627267736 1.97085127006e-20)
(1.68885520472 -0.260533221708 -8.50187240721e-20)
(1.64941264672 -0.260726269906 1.16183623979e-19)
(1.5984717085 -0.313763302672 8.45992127861e-20)
(1.83156110358 -0.0106805324374 -1.00626669937e-19)
(1.8282518773 -0.037721310116 -5.75587786916e-20)
(1.81785654045 -0.0644279238308 3.75558501692e-20)
(1.80036040519 -0.0909901137725 7.8770255934e-20)
(1.77734326005 -0.116058900549 3.27127335704e-20)
(1.74753214711 -0.143016139715 -3.92776805059e-20)
(1.71579976778 -0.161371938881 3.04529201353e-21)
(1.67708934756 -0.195277077586 5.65561349443e-20)
(1.6403415499 -0.197489616539 1.07185007497e-19)
(1.59737565116 -0.236968769108 -5.26492172067e-20)
(1.80718251736 -0.0102993215358 -4.27951670333e-20)
(1.80445280893 -0.0287786131297 -7.77737660369e-20)
(1.79505089615 -0.0470204688002 -4.67119287779e-20)
(1.77927302165 -0.065258963657 -9.63402286428e-20)
(1.75790932384 -0.0826669389314 -2.38797627232e-20)
(1.73119146623 -0.101508572901 -6.76731990602e-21)
(1.70114238355 -0.114945819486 4.75038540168e-20)
(1.66700486294 -0.138868025101 -1.80222549631e-20)
(1.6323836579 -0.141878260416 -3.08353646165e-20)
(1.59392704987 -0.170230619279 1.14862690256e-20)
(1.78722846788 -0.00983157338734 3.35727597703e-20)
(1.78553405404 -0.0206966072333 3.5318205922e-20)
(1.77747891933 -0.0312615218701 1.2499754798e-20)
(1.76348108618 -0.0418100453757 -2.17487347075e-20)
(1.74385150784 -0.0520495683233 -1.75291831828e-20)
(1.71957331495 -0.0634922234996 3.75613906352e-20)
(1.69088895384 -0.0719569203387 -1.14930918343e-21)
(1.65951186584 -0.0875249569493 -4.87117030853e-20)
(1.62631821054 -0.0900093317868 1.14363215375e-20)
(1.59012412359 -0.110094627419 4.94201867151e-20)
(1.71624320575 -0.0141375945415 -2.16994700807e-20)
(1.71635023554 -0.0164500163847 6.11881921525e-21)
(1.7128275286 -0.0184497000796 3.66337172138e-20)
(1.70501529646 -0.0204665808307 3.80503367546e-21)
(1.69244987465 -0.0224238315876 -1.14424701374e-21)
(1.67619482683 -0.0255923365368 -9.98077544905e-21)
(1.65478845746 -0.0272260693747 2.15235497564e-20)
(1.631616846 -0.0346698188143 -3.04110785638e-20)
(1.6028425808 -0.0341622678864 3.5177563361e-20)
(1.57532200448 -0.0465776305047 1.16414639876e-19)
(1.12273130331 -0.00858634258274 2.96215464377e-20)
(1.1150113152 -0.00556610098544 1.83129952253e-20)
(1.11026730063 -0.0026196190127 1.44398648827e-20)
(1.10904762081 0.00018973261093 1.51395773214e-20)
(1.1104399156 0.00279639663677 -1.17017845201e-21)
(1.11512022013 0.00497666995791 6.05676501312e-21)
(1.11887037104 0.00713843510812 -9.44988565772e-21)
(1.12858711331 0.00689746847688 3.09615275671e-21)
(1.1266258015 0.0101425023744 -4.91885733099e-21)
(1.14413086147 0.00528909077616 5.50387336085e-21)
(1.38320074702 0.747421559739 -5.45293383066e-20)
(1.36658859884 0.799845766511 2.36103651497e-20)
(1.37128676611 0.857104308274 -4.86201774145e-19)
(1.38194656223 0.920195512009 2.08444590803e-19)
(1.39226266557 0.987489311768 9.12920357313e-19)
(1.39858245449 1.05628875661 -1.32632423748e-19)
(1.38292930708 1.11304117152 -8.79330811988e-19)
(1.28301310951 1.09789220995 -1.99608341389e-20)
(0.978748907652 0.879561777472 -4.19363383555e-19)
(0.408289385537 0.36839516798 1.72092685201e-19)
(1.55104272217 0.721763723166 0)
(1.5428791227 0.772790157918 5.57334689395e-19)
(1.54307111275 0.825653373343 1.26721845962e-18)
(1.54994890165 0.886161045008 -7.69226611038e-19)
(1.56120682149 0.952815960013 -1.84038240987e-18)
(1.57147107611 1.02203307727 -1.39159303005e-19)
(1.55835865347 1.07935347331 -1.79254372085e-19)
(1.44885454887 1.06457789641 6.62570652666e-19)
(1.10336082212 0.849490461007 8.54545165142e-19)
(0.455213855723 0.349616863628 3.52916946314e-19)
(1.69044729271 0.703804474016 6.36384705873e-20)
(1.69526857808 0.750101375206 0)
(1.70067273453 0.797848069872 -6.55848361352e-20)
(1.71123733653 0.852664263878 7.73937632561e-19)
(1.72694844672 0.913940665697 5.24185755523e-20)
(1.74196945559 0.978591880341 -1.91160654858e-18)
(1.73081305429 1.03196521324 1.24214561382e-18)
(1.61027953369 1.01471332211 7.96689495046e-19)
(1.2220903034 0.804887120735 -7.66457184334e-19)
(0.497476840674 0.323911748888 -2.77727155455e-19)
(1.80141331772 0.67082848066 -1.26268287601e-19)
(1.81759785029 0.711679047239 -9.95830827914e-20)
(1.83353665335 0.754707202056 2.26922003877e-19)
(1.85363763467 0.804018617079 -2.85569540957e-19)
(1.87788485253 0.85939115849 -1.37328113053e-18)
(1.9001841553 0.918175875908 -1.07698457414e-18)
(1.89199643587 0.965788482704 1.19983738425e-18)
(1.75983454582 0.944757547508 8.17437657132e-19)
(1.32795357369 0.742984158345 0)
(0.530287950472 0.289540509809 0)
(1.89566419598 0.612584239621 -7.82433311263e-19)
(1.92126867872 0.649177954752 -1.39389739188e-18)
(1.94790669876 0.688338190679 -5.52293341699e-19)
(1.97841985723 0.732755601597 -3.30777066075e-20)
(2.0122558422 0.782352876039 0)
(2.04261915908 0.834827623349 1.3947159474e-19)
(2.03734070825 0.875930826806 1.66036233134e-19)
(1.8922287927 0.851290740997 2.14306953996e-19)
(1.41590305092 0.662317009728 -3.24971641824e-19)
(0.55044581415 0.24703331449 -8.04624601818e-20)
(1.98152844689 0.532310940844 9.53481775855e-19)
(2.01422598872 0.565161638644 -4.08458659066e-20)
(2.04938771495 0.600394242835 -1.14198375646e-18)
(2.08863707165 0.639723452863 0)
(2.13087563028 0.683173951795 0)
(2.16822636235 0.728737413549 0)
(2.16420101818 0.762802009577 1.52432660669e-18)
(2.00398705996 0.735232040233 -1.8764638903e-18)
(1.48347903822 0.565339997632 -1.06321044935e-18)
(0.556035009772 0.198918474703 -9.97861379413e-20)
(2.05869627493 0.436721833787 -1.28312706033e-18)
(2.09654503357 0.465088013622 -2.7123971374e-18)
(2.13803300641 0.495292631892 -4.79040466273e-21)
(2.18396179244 0.528542416944 5.68237288427e-19)
(2.23278175342 0.564968441107 -4.01442509314e-20)
(2.27523578872 0.602968303582 1.30552097481e-18)
(2.27013969365 0.629683570172 -7.54739664861e-19)
(2.09230830348 0.59898591604 -2.42254130812e-18)
(1.52756917318 0.457326531399 1.76100330225e-19)
(0.547501519661 0.151334218931 1.23709314079e-19)
(2.12306143972 0.330407819242 -1.03707285569e-18)
(2.16481643502 0.353009896881 1.53272422974e-20)
(2.2109935941 0.376813851838 4.11087739713e-19)
(2.26186556346 0.402842277475 -4.07674350425e-19)
(2.31556719632 0.431268658375 6.5216783495e-19)
(2.36129395426 0.460913732031 1.86161592373e-18)
(2.3527118261 0.481969673173 -2.2156236177e-19)
(2.15554537539 0.449496143582 -1.35286421661e-18)
(1.54480631289 0.340071747789 2.65459311512e-19)
(0.529040676602 0.104599874239 1.40760459748e-20)
(2.17100305204 0.216087827908 4.01443297481e-19)
(2.21575263973 0.231952270023 7.69921699371e-20)
(2.26533466132 0.248280101801 -4.35486687599e-19)
(2.31959373125 0.265999455716 -1.05706339569e-18)
(2.37658053391 0.285418067786 8.80067589826e-20)
(2.42368065915 0.305842368572 8.74147925824e-20)
(2.40969540341 0.319144433809 -1.69393979803e-18)
(2.18970699318 0.297015097473 7.29920733745e-19)
(1.53852819817 0.223973657988 1.88149962525e-19)
(0.500177955532 0.0568764793014 -1.37735514744e-19)
(2.20065578499 0.095900968521 7.86992205572e-19)
(2.24738288869 0.104092333799 -1.22362711849e-18)