/*--------------------------------*- C++ -*----------------------------------*\
  =========                 |
  \\      /  F ield         | OpenFOAM: The Open Source CFD Toolbox
   \\    /   O peration     | Website:  https://openfoam.org
    \\  /    A nd           | Version:  13
     \\/     M anipulation  |
\*---------------------------------------------------------------------------*/
FoamFile
{
    format      ascii;
    class       volVectorField;
    location    "0.485";
    object      U;
}
// * * * * * * * * * * * * * * * * * * * * * * * * * * * * * * * * * * * * * //

dimensions      [0 1 -1 0 0 0 0];

internalField   nonuniform List<vector> 
1800
(
(0.0978024 -0.0883301 -4.49187e-20)
(0.286898 -0.241953 -3.41352e-20)
(0.473973 -0.379045 -4.85066e-19)
(0.65769 -0.500155 1.91485e-19)
(0.836606 -0.607162 7.4375e-20)
(1.0099 -0.70136 -3.90446e-20)
(1.17714 -0.783441 5.54696e-20)
(1.33791 -0.853639 1.97046e-19)
(1.49156 -0.912904 5.92042e-19)
(1.63349 -0.966822 8.09806e-19)
(0.119062 -0.0915039 -7.9124e-20)
(0.344293 -0.247711 -7.70628e-19)
(0.563284 -0.384751 3.78161e-21)
(0.775363 -0.504235 1.25803e-19)
(0.979502 -0.608917 -1.26292e-19)
(1.17521 -0.700685 7.66473e-20)
(1.3623 -0.78077 -2.8098e-19)
(1.54076 -0.85007 -5.01605e-20)
(1.71008 -0.910664 -6.93174e-19)
(1.86782 -0.966989 6.29507e-19)
(0.141652 -0.092324 4.88236e-20)
(0.403682 -0.247733 2.09292e-19)
(0.653757 -0.382118 5.43359e-19)
(0.892179 -0.497905 -1.9028e-19)
(1.11865 -0.598382 -1.43018e-19)
(1.33321 -0.685806 7.56304e-20)
(1.53604 -0.761694 9.83067e-20)
(1.72742 -0.827278 1.94084e-19)
(1.90719 -0.884774 2.73492e-21)
(2.07419 -0.93783 1.50988e-19)
(0.163908 -0.0897217 -4.57197e-20)
(0.461701 -0.239472 -2.04395e-19)
(0.74143 -0.36762 -1.81265e-19)
(1.00451 -0.476977 -1.42309e-19)
(1.25162 -0.571021 1.81327e-19)
(1.48351 -0.652123 -5.70945e-20)
(1.70092 -0.721898 -4.31181e-21)
(1.90452 -0.781609 2.96881e-21)
(2.09454 -0.833347 -1.60383e-19)
(2.27024 -0.88033 -1.0601e-19)
(0.184659 -0.0833571 -1.14046e-19)
(0.515896 -0.221808 8.76351e-20)
(0.823295 -0.339432 1.7985e-19)
(1.10931 -0.439064 2.43318e-19)
(1.37562 -0.524071 -2.85044e-19)
(1.62371 -0.596775 -3.58081e-21)
(1.85494 -0.658762 4.25021e-19)
(2.07042 -0.711254 -1.85049e-19)
(2.27083 -0.756152 -1.23993e-19)
(2.45577 -0.79638 -5.36104e-20)
(0.203191 -0.0735006 1.73597e-19)
(0.564474 -0.195201 1.02988e-18)
(0.896795 -0.298076 1.43257e-19)
(1.20352 -0.384736 -5.03161e-19)
(1.4872 -0.458227 -1.75514e-19)
(1.75003 -0.520668 6.37727e-19)
(1.99391 -0.573522 -1.45399e-19)
(2.22036 -0.617895 -4.31635e-19)
(2.43047 -0.655437 -3.16604e-19)
(2.62419 -0.688731 2.61593e-19)
(0.2189 -0.0605917 1.16342e-19)
(0.605749 -0.160702 -7.47611e-19)
(0.959318 -0.245031 -1.08564e-18)
(1.28371 -0.315799 3.83801e-19)
(1.58224 -0.375564 4.49968e-19)
(1.85768 -0.426128 -9.02132e-22)
(2.11239 -0.468738 -6.39727e-19)
(2.34829 -0.504322 2.1932e-19)
(2.56683 -0.534208 -3.64382e-19)
(2.76828 -0.560562 -3.11159e-19)
(0.231237 -0.0451726 -3.42495e-19)
(0.638204 -0.119685 -6.92619e-19)
(1.0085 -0.182295 1.21224e-18)
(1.34678 -0.2347 5.98715e-19)
(1.65694 -0.278853 -2.6977e-19)
(1.94225 -0.316135 -2.11503e-19)
(2.20544 -0.347514 0)
(2.44875 -0.373687 1.16816e-19)
(2.67399 -0.395619 -2.95847e-19)
(2.88172 -0.414965 -7.74627e-20)
(0.239768 -0.0278756 -2.0447e-19)
(0.660657 -0.0737561 5.62403e-19)
(1.04249 -0.112199 1.71019e-19)
(1.39032 -0.14429 -5.1251e-19)
(1.70841 -0.171277 -7.84215e-19)
(2.00038 -0.194053 3.66217e-20)
(2.26925 -0.213244 1.67122e-19)
(2.51753 -0.229292 -5.46857e-19)
(2.74732 -0.242781 -2.89757e-19)
(2.95954 -0.254774 -5.63585e-19)
(0.244262 -0.00940247 4.51419e-19)
(0.672457 -0.024704 3.44162e-19)
(1.06031 -0.0373615 -9.38605e-20)
(1.41304 -0.0477881 -1.29843e-20)
(1.73515 -0.0564615 -3.87515e-19)
(2.03042 -0.0637221 -8.5732e-20)
(2.30207 -0.0698087 -2.90584e-19)
(2.55277 -0.0748886 6.4657e-19)
(2.78481 -0.079169 1.71005e-19)
(2.99946 -0.0830095 2.2278e-21)
(-0.00235127 -0.0218262 -3.08881e-20)
(0.008696 -0.0693118 -7.19295e-20)
(0.0250037 -0.120176 -7.27662e-21)
(0.0494055 -0.170655 -3.44052e-20)
(0.0777552 -0.215976 -1.27012e-20)
(0.106636 -0.254151 -3.89654e-19)
(0.135709 -0.288118 -1.9223e-20)
(0.166517 -0.321419 1.19883e-19)
(0.199345 -0.354887 1.10204e-20)
(0.233235 -0.387209 -3.61015e-20)
(0.000836298 -0.0247435 -9.77672e-20)
(0.0149772 -0.0851148 -2.09484e-19)
(0.0393409 -0.160006 -5.71376e-20)
(0.0692755 -0.224757 -1.10825e-19)
(0.099564 -0.275052 -9.78356e-20)
(0.130608 -0.317516 -2.81173e-19)
(0.164663 -0.358486 2.01322e-19)
(0.202325 -0.399821 1.67743e-19)
(0.241825 -0.439673 -2.55278e-19)
(0.281352 -0.476014 8.08371e-20)
(0.00548787 -0.0315473 -8.54433e-20)
(0.028787 -0.107444 -8.59125e-19)
(0.0628116 -0.195867 -1.27501e-19)
(0.097442 -0.268637 9.51353e-20)
(0.131885 -0.326885 6.80853e-20)
(0.169777 -0.379922 -4.5521e-19)
(0.213075 -0.431867 3.61672e-20)
(0.259263 -0.481277 3.6664e-19)
(0.305631 -0.525692 -3.85375e-19)
(0.351609 -0.565058 -2.57982e-19)
(0.011367 -0.041034 -1.82528e-21)
(0.0466233 -0.130888 1.88608e-19)
(0.0896064 -0.2252 1.68461e-21)
(0.133068 -0.306846 -1.11616e-20)
(0.17783 -0.377656 -3.02143e-20)
(0.227306 -0.443576 8.91978e-20)
(0.281154 -0.505255 7.43911e-20)
(0.335736 -0.560462 -1.36449e-19)
(0.389828 -0.608905 9.21717e-21)
(0.444021 -0.65144 -1.04392e-20)
(0.0185098 -0.0508012 0)
(0.0672344 -0.152435 5.40725e-21)
(0.121918 -0.253574 -5.06567e-19)
(0.178685 -0.345375 5.10272e-20)
(0.237819 -0.428436 -1.22025e-20)
(0.300531 -0.504886 8.06718e-21)
(0.365325 -0.574105 -2.6053e-20)
(0.429835 -0.635108 -7.8315e-21)
(0.493991 -0.688469 0)
(0.558196 -0.73444 -2.05919e-20)
(0.027328 -0.0596667 3.16645e-20)
(0.0918934 -0.172864 -1.53299e-19)
(0.161755 -0.282499 -4.52666e-20)
(0.234619 -0.383837 -5.85575e-20)
(0.30973 -0.476666 4.9765e-20)
(0.386729 -0.5614 4.02547e-21)
(0.464233 -0.637514 9.24324e-20)
(0.540933 -0.704705 -2.17569e-20)
(0.616908 -0.763159 -6.97378e-19)
(0.692159 -0.812323 -1.01137e-20)
(0.0379777 -0.0676139 7.06633e-22)
(0.121237 -0.192185 5.63695e-20)
(0.209157 -0.310609 -7.88003e-20)
(0.299917 -0.420149 -1.67444e-20)
(0.392124 -0.520616 -7.28754e-20)
(0.48476 -0.612041 -1.03899e-20)
(0.576678 -0.694197 8.94934e-21)
(0.666914 -0.766973 -2.12872e-19)
(0.755494 -0.830051 3.84165e-19)
(0.842282 -0.882068 9.72358e-19)
(0.0503638 -0.0746063 1.52031e-20)
(0.155131 -0.209615 -1.4246e-19)
(0.263459 -0.335962 -2.14104e-19)
(0.373662 -0.452095 8.91321e-20)
(0.484089 -0.558232 -6.43251e-20)
(0.593523 -0.654559 9.9517e-20)
(0.700915 -0.741188 1.979e-19)
(0.805373 -0.818177 -1.09854e-19)
(0.906977 -0.884953 -3.06319e-19)
(1.00564 -0.939334 7.25921e-19)
(0.064292 -0.0803628 -2.64259e-20)
(0.193287 -0.22403 -5.78206e-19)
(0.324295 -0.356559 5.24473e-19)
(0.455677 -0.477221 3.37642e-19)
(0.585726 -0.586724 -8.59988e-20)
(0.713205 -0.685621 3.09137e-19)
(0.837102 -0.774373 -1.60023e-19)
(0.956529 -0.853371 -7.74246e-19)
(1.07168 -0.92192 -4.0401e-19)
(1.18262 -0.977135 4.54059e-19)
(0.0795467 -0.084668 -7.98415e-20)
(0.235847 -0.23442 -5.44345e-19)
(0.392391 -0.370524 -8.20156e-21)
(0.547537 -0.492789 6.87576e-20)
(0.699585 -0.602449 3.37869e-19)
(0.847376 -0.700407 -1.85515e-19)
(0.989991 -0.787399 -1.69723e-19)
(1.1265 -0.863766 1.89256e-19)
(1.25677 -0.928565 -3.5188e-19)
(1.38002 -0.980248 -5.84952e-19)
(0.403168 -0.531127 9.96215e-19)
(0.685062 -0.61721 -2.6893e-19)
(0.913681 -0.55611 -1.49654e-19)
(1.08676 -0.429328 2.80652e-19)
(1.23777 -0.278457 -2.36385e-19)
(1.35735 -0.137315 -2.97044e-19)
(1.44943 -0.0322213 -2.55654e-19)
(1.50328 0.0121263 -3.17265e-20)
(1.52489 0.0158198 7.39181e-20)
(1.5419 0.00959836 3.27217e-20)
(0.469186 -0.619013 9.73191e-19)
(0.74188 -0.69262 7.59811e-20)
(0.966554 -0.616028 1.08814e-20)
(1.1245 -0.478234 -2.28373e-19)
(1.26385 -0.31818 -7.5886e-19)
(1.37579 -0.168752 0)
(1.46679 -0.0544259 -2.33496e-19)
(1.531 -0.00109407 5.40907e-20)
(1.56474 0.00760339 4.50205e-21)
(1.59566 0.00527812 -4.82917e-20)
(0.556511 -0.704726 -9.98608e-19)
(0.811246 -0.765617 -7.16038e-20)
(1.02601 -0.673884 1.58408e-19)
(1.16637 -0.525041 -5.32181e-20)
(1.29032 -0.356648 -3.55043e-20)
(1.39243 -0.199689 6.50387e-20)
(1.47766 -0.0771914 0)
(1.5397 -0.0159809 0)
(1.57418 -0.00277227 -5.58886e-20)
(1.61476 -0.00112484 0)
(0.665921 -0.78655 -2.24429e-19)
(0.896035 -0.834248 4.01168e-19)
(1.0925 -0.728617 2.69005e-20)
(1.21297 -0.568819 0)
(1.31787 -0.39309 6.30694e-19)
(1.40815 -0.229241 -1.57704e-19)
(1.4856 -0.0990203 0)
(1.54037 -0.0300247 1.46e-19)
(1.57359 -0.0126607 0)
(1.61279 -0.00690584 2.09471e-20)
(0.795859 -0.863321 -1.49166e-19)
(0.997974 -0.896514 4.50669e-19)
(1.1667 -0.779053 -1.47623e-20)
(1.26445 -0.608756 0)
(1.34701 -0.426794 1.81296e-19)
(1.42307 -0.256918 2.91824e-19)
(1.49176 -0.119198 4.84443e-20)
(1.53919 -0.0433223 7.01243e-21)
(1.57216 -0.0223688 -3.03067e-20)
(1.61034 -0.0124218 3.01746e-20)
(0.942278 -0.934275 -1.32532e-18)
(1.11672 -0.951046 -9.35769e-19)
(1.24928 -0.823895 4.81747e-21)
(1.32064 -0.6441 5.6607e-19)
(1.37801 -0.457026 -2.99072e-19)
(1.43701 -0.28238 1.5124e-19)
(1.49624 -0.137789 2.51444e-19)
(1.53772 -0.0563092 -1.90576e-19)
(1.57094 -0.0319288 -1.83502e-21)
(1.60911 -0.017829 1.68043e-20)
(1.10007 -0.999031 -2.58796e-19)
(1.25015 -0.997646 2.84894e-19)
(1.34051 -0.862002 4.05524e-21)
(1.38132 -0.674114 -1.72898e-20)
(1.411 -0.482994 -5.73613e-19)
(1.44978 -0.305194 5.38653e-20)
(1.49876 -0.154968 -9.55616e-20)
(1.53625 -0.0691156 -2.93137e-20)
(1.57005 -0.0414571 4.39787e-21)
(1.60912 -0.0231525 -2.13988e-20)
(1.26425 -1.05648 -1.20181e-18)
(1.39481 -1.03692 2.08841e-19)
(1.4394 -0.892771 0)
(1.44556 -0.698323 3.36404e-20)
(1.44543 -0.504094 5.03878e-19)
(1.46094 -0.324909 -9.35783e-22)
(1.49863 -0.170905 -2.8984e-19)
(1.53443 -0.0819367 4.72641e-20)
(1.56936 -0.050753 1.99488e-22)
(1.60804 -0.0286659 1.66714e-20)
(1.43191 -1.1032 3.39106e-18)
(1.54805 -1.06977 2.47289e-19)
(1.54578 -0.916907 4.61483e-19)
(1.51365 -0.717118 -3.13713e-20)
(1.48146 -0.520374 -3.38412e-20)
(1.47036 -0.341418 -4.0952e-19)
(1.49488 -0.185966 7.66066e-20)
(1.53094 -0.0943157 3.22059e-21)
(1.56659 -0.0589596 -2.69349e-20)
(1.58091 -0.0328081 -3.75866e-20)
(1.59914 -1.12795 -2.99875e-18)
(1.70182 -1.09506 1.27374e-18)
(1.65407 -0.937057 -2.29864e-19)
(1.58173 -0.733982 -7.79314e-19)
(1.51621 -0.535372 -6.47729e-19)
(1.47595 -0.35824 -2.53073e-19)
(1.48539 -0.202355 -5.37901e-20)
(1.52192 -0.107413 0)
(1.53033 -0.0631542 -1.38281e-20)
(1.52104 -0.0340573 6.22712e-20)
(1.88809 -1.17 -6.71731e-18)
(1.92733 -1.10465 -1.69442e-18)
(1.80496 -0.931328 -5.83143e-20)
(1.67335 -0.725883 1.12612e-19)
(1.56242 -0.530817 1.66815e-19)
(1.48402 -0.363553 -1.11843e-19)
(1.4687 -0.213164 -3.34305e-20)
(1.46382 -0.112148 4.98992e-20)
(1.44598 -0.0600705 -4.42342e-20)
(1.43428 -0.0320126 -3.1427e-20)
(2.28923 -1.13462 4.95146e-19)
(2.17882 -1.05624 -2.74212e-19)
(1.94304 -0.864561 5.28054e-19)
(1.73659 -0.663462 -9.40518e-20)
(1.56497 -0.478473 6.62218e-20)
(1.4344 -0.326754 -3.49403e-20)
(1.36786 -0.19897 9.33962e-20)
(1.34128 -0.103779 -3.05474e-20)
(1.32651 -0.0529177 1.69146e-19)
(1.31141 -0.0293597 7.63787e-20)
(2.61057 -1.04341 2.27087e-18)
(2.35222 -0.948482 3.26164e-19)
(2.00907 -0.758966 -1.18502e-19)
(1.73427 -0.571981 1.39365e-36)
(1.50906 -0.408787 -2.55565e-20)
(1.34456 -0.281213 1.49497e-33)
(1.25104 -0.175497 -1.52846e-20)
(1.21359 -0.0937323 -1.57673e-33)
(1.19416 -0.047133 7.10387e-21)
(1.17772 -0.0260802 -2.0404e-20)
(2.78717 -0.893848 3.8915e-33)
(2.36988 -0.795414 2.96578e-18)
(1.97447 -0.630097 1.82157e-18)
(1.65494 -0.468681 0)
(1.40937 -0.333574 8.48107e-19)
(1.23365 -0.229914 4.42318e-19)
(1.12549 -0.146811 1.52423e-19)
(1.0753 -0.0809381 -2.62757e-33)
(1.05295 -0.040446 -6.18628e-20)
(1.0352 -0.0224302 1.57107e-20)
(2.7638 -0.705811 3.84371e-18)
(2.2462 -0.629745 -1.46893e-19)
(1.84711 -0.490785 0)
(1.51644 -0.361308 0)
(1.27313 -0.25491 0)
(1.09993 -0.175861 0)
(0.988328 -0.114456 -1.21392e-20)
(0.93077 -0.0655821 -3.91682e-33)
(0.905026 -0.0330726 7.41702e-21)
(0.88622 -0.0184118 1.61252e-33)
(2.55126 -0.516997 3.26682e-18)
(2.02022 -0.462861 0)
(1.63887 -0.353544 0)
(1.32725 -0.256574 0)
(1.10206 -0.179268 0)
(0.943432 -0.123894 0)
(0.83838 -0.0821673 3.26407e-20)
(0.779287 -0.0488517 -6.88306e-20)
(0.751608 -0.025042 8.10125e-21)
(0.732245 -0.0141329 4.37159e-20)
(2.19016 -0.342699 0)
(1.70271 -0.303495 1.09946e-18)
(1.36145 -0.227572 1.09214e-18)
(1.09157 -0.161936 0)
(0.899018 -0.112114 6.72537e-19)
(0.765079 -0.0777247 4.12071e-19)
(0.674728 -0.0525103 2.48487e-19)
(0.620384 -0.032389 7.0224e-20)
(0.593207 -0.0168989 -1.38954e-22)
(0.574386 -0.0098064 -5.25583e-21)
(1.70288 -0.191132 -6.73834e-19)
(1.30022 -0.165588 -2.74097e-19)
(1.02513 -0.121743 1.75564e-19)
(0.815204 -0.0844275 -2.11946e-34)
(0.668021 -0.0579795 -7.69436e-20)
(0.566836 -0.0405328 3.73645e-33)
(0.497567 -0.0280014 4.94564e-20)
(0.453543 -0.0179783 9.68949e-20)
(0.430034 -0.00949441 9.3103e-21)
(0.413454 -0.00577929 -6.73818e-21)
(1.10089 -0.0758196 3.40787e-18)
(0.823175 -0.062677 -1.86362e-19)
(0.64062 -0.0442887 -5.88504e-19)
(0.506194 -0.028991 0)
(0.413954 -0.0195335 -6.40016e-19)
(0.351016 -0.0139283 -4.31629e-19)
(0.307234 -0.0100253 -1.97245e-19)
(0.278111 -0.00689967 -1.3014e-19)
(0.261638 -0.00374789 1.35532e-19)
(0.249739 -0.00248187 -1.34443e-20)
(0.397353 -0.00331875 0)
(0.287869 0.00159324 0)
(0.220901 0.00409342 0)
(0.17356 0.00623967 0)
(0.142408 0.00583603 0)
(0.121332 0.00468247 0)
(0.106252 0.00355008 5.69014e-20)
(0.0956318 0.00234786 -2.13105e-34)
(0.0891469 0.00169699 1.17913e-20)
(0.0841503 0.000637193 1.2529e-20)
(3.36711 -0.0863089 5.392e-19)
(3.32643 -0.265081 -8.41872e-20)
(3.24736 -0.430648 8.52069e-19)
(3.13239 -0.582146 -6.04842e-19)
(2.98634 -0.718107 6.66327e-19)
(2.81523 -0.836356 2.75091e-19)
(2.62658 -0.93402 -1.92804e-18)
(2.42948 -1.00779 -7.72648e-20)
(2.22464 -1.0536 0)
(1.9848 -1.06645 4.2654e-19)
(3.86192 -0.0750553 7.07353e-18)
(3.79859 -0.234204 1.95634e-18)
(3.70428 -0.387298 -4.86702e-18)
(3.58425 -0.531974 -4.49002e-19)
(3.44237 -0.665869 3.55844e-18)
(3.28184 -0.787285 1.92309e-18)
(3.10647 -0.895017 -5.16757e-18)
(2.922 -0.987631 -1.95171e-18)
(2.72754 -1.06329 2.20269e-18)
(2.4923 -1.12038 8.52085e-19)
(3.8331 -0.053296 -1.26243e-19)
(3.82026 -0.171558 4.40381e-18)
(3.78549 -0.299751 -1.08841e-18)
(3.72437 -0.430906 -3.44617e-18)
(3.63621 -0.558713 -6.80065e-18)
(3.52374 -0.678777 1.02785e-17)
(3.39119 -0.788754 4.1805e-18)
(3.24351 -0.887929 -3.91139e-18)
(3.08161 -0.978636 -2.90242e-18)
(2.88721 -1.06289 -3.42449e-18)
(3.62867 -0.0472805 -4.83942e-18)
(3.61962 -0.144925 -4.35352e-18)
(3.59965 -0.243733 5.47235e-18)
(3.56737 -0.343083 1.912e-18)
(3.52244 -0.442362 -8.9721e-18)
(3.46421 -0.540786 4.92283e-19)
(3.39189 -0.637016 3.88679e-18)
(3.30519 -0.730392 -1.05415e-18)
(3.20507 -0.823014 1.27699e-18)
(3.08315 -0.91471 2.81733e-19)
(3.34406 -0.0365737 -9.15992e-19)
(3.33901 -0.111652 3.00411e-18)
(3.32711 -0.188673 1.61956e-18)
(3.30745 -0.267169 -1.89408e-18)
(3.27988 -0.346066 -2.00142e-18)
(3.24468 -0.42413 -2.43443e-18)
(3.20207 -0.500321 3.79755e-19)
(3.15181 -0.574472 1.38872e-19)
(3.09555 -0.647726 -2.14003e-18)
(3.03296 -0.72126 -2.03477e-18)
(2.96257 -0.0265506 -1.8225e-18)
(2.95981 -0.0798859 -5.8725e-20)
(2.95331 -0.134597 -1.63753e-18)
(2.94241 -0.190901 3.12144e-19)
(2.92676 -0.248549 5.36783e-18)
(2.9063 -0.306928 -3.6679e-19)
(2.88093 -0.365112 4.43461e-20)
(2.85025 -0.422053 -2.60865e-18)
(2.81647 -0.476872 -3.49588e-18)
(2.78605 -0.529846 3.72615e-19)
(2.48713 -0.0175079 -2.89319e-20)
(2.48578 -0.0519327 -8.14317e-19)
(2.48259 -0.0872468 -2.61485e-18)
(2.47708 -0.12377 -3.43102e-18)
(2.4688 -0.161533 2.49654e-18)
(2.45745 -0.200266 1.50224e-18)
(2.44262 -0.239352 -1.38504e-18)
(2.42371 -0.277788 1.62446e-18)
(2.40276 -0.314479 -4.29762e-19)
(2.38955 -0.349534 -9.63799e-19)
(1.91464 -0.00968663 7.72459e-19)
(1.91408 -0.0282964 -8.31795e-19)
(1.91278 -0.0474389 -3.27672e-20)
(1.91032 -0.0673587 -3.47279e-20)
(1.90624 -0.0881298 -7.27444e-20)
(1.90013 -0.109614 -2.33193e-18)
(1.89151 -0.131404 -6.7867e-19)
(1.87979 -0.152781 2.62606e-18)
(1.86665 -0.172973 -6.03479e-19)
(1.86192 -0.192204 -1.35107e-18)
(1.23988 -0.00373689 -1.64281e-18)
(1.23967 -0.0106952 -8.48907e-19)
(1.23923 -0.017901 2.3392e-18)
(1.23823 -0.0254785 -8.89771e-19)
(1.23625 -0.0334753 -6.74123e-19)
(1.2329 -0.0418317 1.35202e-18)
(1.22775 -0.0503499 -1.29588e-18)
(1.22038 -0.0586652 1.28697e-18)
(1.21202 -0.0663419 -1.21029e-18)
(1.21008 -0.0735071 -4.24811e-18)
(0.454915 -0.000257912 6.63081e-19)
(0.454826 -0.000700494 7.03054e-19)
(0.454692 -0.0011591 7.48182e-19)
(0.454324 -0.00164006 1.35397e-18)
(0.453495 -0.0021402 -6.71984e-19)
(0.451983 -0.00263722 -1.29961e-18)
(0.449567 -0.00309914 6.14709e-19)
(0.445992 -0.00359296 2.48366e-20)
(0.441736 -0.00439224 -4.96521e-20)
(0.44035 -0.00504563 1.1057e-19)
(1.65348 0.997106 -2.85599e-19)
(1.51221 0.941728 1.80053e-20)
(1.35875 0.880649 -2.28111e-19)
(1.19764 0.808369 1.76436e-19)
(1.02955 0.723933 -1.92363e-19)
(0.854814 0.62705 -1.01165e-19)
(0.673756 0.516929 2.32028e-19)
(0.487037 0.392143 -3.05036e-19)
(0.295894 0.250645 3.09881e-19)
(0.101432 0.0916458 2.38794e-19)
(1.88632 0.992073 0)
(1.72963 0.934651 6.38796e-19)
(1.5608 0.872705 3.31794e-19)
(1.38226 0.80181 1.63082e-19)
(1.19452 0.719852 4.31717e-19)
(0.997528 0.625885 -8.68828e-20)
(0.791361 0.518597 -7.85738e-20)
(0.57635 0.395991 8.88559e-20)
(0.353323 0.255178 -1.04525e-18)
(0.122701 0.0943574 -1.65993e-20)
(2.09099 0.958958 1.56808e-19)
(1.9252 0.90501 0)
(1.74611 0.846422 -1.00755e-19)
(1.55492 0.779524 -3.83651e-19)
(1.35169 0.702068 5.37175e-20)
(1.13609 0.612784 3.97259e-19)
(0.907786 0.510089 -6.06984e-19)
(0.666595 0.391641 -2.00873e-19)
(0.412601 0.254048 7.83622e-19)
(0.145254 0.0947371 -1.75981e-19)
(2.28481 0.898303 1.88215e-19)
(2.11042 0.850524 1.20609e-20)
(1.92128 0.797837 2.44703e-20)
(1.7181 0.736986 3.61264e-20)
(1.50058 0.665849 -2.92131e-20)
(1.26793 0.583131 2.73315e-19)
(1.01927 0.48717 -2.06895e-19)
(0.753681 0.375534 -8.55646e-19)
(0.470277 0.244681 0)
(0.167391 0.0916981 0)
(2.46794 0.811787 -1.07049e-18)
(2.28434 0.770814 -6.08786e-19)
(2.08492 0.725047 -1.20619e-19)
(1.87003 0.671515 -6.65773e-20)
(1.63891 0.608292 0)
(1.39031 0.534138 2.40773e-19)
(1.12276 0.447437 2.67802e-19)
(0.834562 0.345839 2.86267e-19)
(0.523846 0.225956 -4.23784e-19)
(0.187911 0.0848993 -8.1242e-20)
(2.634 0.702075 7.66087e-19)
(2.44156 0.668052 -1.3918e-19)
(2.23244 0.629672 -2.2151e-19)
(2.00665 0.584303 0)
(1.76302 0.530279 0)
(1.49988 0.46649 0)
(1.21523 0.391466 -3.89841e-20)
(0.906693 0.303093 3.70281e-19)
(0.571505 0.198351 3.7914e-19)
(0.206086 0.0746253 -3.0858e-19)
(2.7758 0.572346 -1.19333e-18)
(2.57551 0.545254 -1.48116e-18)
(2.35787 0.514527 -3.03114e-22)
(2.12261 0.477946 -1.87681e-19)
(1.86819 0.434183 -9.28839e-20)
(1.59259 0.382321 -1.78858e-19)
(1.29334 0.321127 4.59114e-19)
(0.967498 0.248839 2.14862e-19)
(0.61159 0.162968 5.40049e-19)
(0.221317 0.061341 2.02862e-19)
(2.88708 0.425744 -1.157e-18)
(2.68028 0.405631 8.47078e-20)
(2.45577 0.38282 1.64523e-19)
(2.21298 0.355612 1.6823e-20)
(1.95005 0.323053 -3.1442e-19)
(1.66466 0.284471 -1.74226e-19)
(1.35399 0.23894 -6.21231e-19)
(1.01464 0.185142 1.18531e-19)
(0.642611 0.121238 5.148e-20)
(0.233068 0.0456132 -6.26856e-21)
(2.96281 0.265186 1.01344e-19)
(2.75122 0.252354 3.97014e-19)
(2.5219 0.237905 -3.30296e-19)
(2.27395 0.220742 3.63034e-19)
(2.00525 0.200299 3.72558e-19)
(1.71323 0.176178 4.9191e-19)
(1.39482 0.147811 -6.35756e-19)
(1.04634 0.114391 -3.24422e-19)
(0.663417 0.0748106 -4.58502e-20)
(0.240919 0.0280954 -3.27004e-19)
(3.00054 0.0935786 5.81806e-19)
(2.78614 0.0887872 -1.86148e-19)
(2.55426 0.0834457 4.79572e-19)
(2.30368 0.0771518 -3.10685e-19)
(2.03209 0.0697294 2.6648e-19)
(1.7368 0.0610632 6.05428e-19)
(1.41458 0.0509795 3.78893e-19)
(1.06162 0.0392354 3.09354e-19)
(0.673402 0.025507 2.65867e-19)
(0.244656 0.00950734 5.43626e-19)
(0.239251 0.451208 -4.67858e-19)
(0.203691 0.417525 -1.85627e-19)
(0.168186 0.380518 1.38609e-19)
(0.134727 0.342949 -4.19885e-19)
(0.105039 0.30689 -1.19861e-19)
(0.0781388 0.269638 6.92004e-19)
(0.0517471 0.223221 3.3599e-19)
(0.0258589 0.158483 -1.58006e-19)
(0.00703352 0.0795226 1.131e-19)
(-0.00114046 0.022404 -6.05612e-20)
(0.288528 0.543406 4.10153e-19)
(0.248629 0.506641 4.56504e-19)
(0.208088 0.464634 -1.23102e-20)
(0.167794 0.417701 -1.31845e-19)
(0.131118 0.369696 -3.10589e-19)
(0.100598 0.322192 8.26974e-20)
(0.0734406 0.268915 2.2356e-19)
(0.0458267 0.196532 1.64182e-19)
(0.0182871 0.101624 -5.88374e-19)
(0.00276341 0.0287888 -1.2328e-19)
(0.359726 0.632227 -5.9949e-19)
(0.313846 0.592123 -4.80313e-19)
(0.268022 0.546328 2.56267e-19)
(0.221361 0.493079 1.37173e-19)
(0.175819 0.433425 -5.41509e-21)
(0.136287 0.37134 -1.39141e-19)
(0.102124 0.305188 -2.85171e-20)
(0.0684179 0.224568 -5.55826e-19)
(0.0336255 0.125783 -2.69489e-19)
(0.00761095 0.0376992 -3.91034e-20)
(0.454347 0.71703 5.02288e-19)
(0.400171 0.672894 1.64671e-19)
(0.346452 0.621946 -1.48847e-19)
(0.292283 0.562972 6.36616e-20)
(0.237776 0.494966 -4.58678e-22)
(0.186598 0.4204 1.55611e-21)
(0.140107 0.340298 -1.31184e-19)
(0.0954515 0.249995 3.79833e-19)
(0.051407 0.147558 -4.19713e-19)
(0.0135569 0.0476324 -6.54419e-20)
(0.572101 0.797107 -2.82054e-19)
(0.507941 0.749077 -8.89557e-20)
(0.443644 0.692307 -1.42652e-20)
(0.379014 0.626671 -6.90653e-20)
(0.313743 0.551502 5.79203e-20)
(0.249667 0.467698 5.16723e-20)
(0.188375 0.376441 -2.75294e-20)
(0.129313 0.276462 -2.82776e-19)
(0.0725064 0.167519 2.18639e-19)
(0.0208991 0.0567904 8.74051e-20)
(0.709446 0.870324 6.43828e-19)
(0.634391 0.819005 3.21752e-19)
(0.558149 0.756917 2.0486e-19)
(0.480866 0.684937 4.81486e-20)
(0.402414 0.603184 1.53604e-19)
(0.323864 0.512097 7.73042e-20)
(0.246456 0.412326 1.42253e-19)
(0.170852 0.303783 5.78569e-20)
(0.0980381 0.186723 -1.63503e-20)
(0.0299842 0.0650036 -1.35861e-20)
(0.861993 0.934374 -1.1969e-19)
(0.775517 0.880237 -8.2762e-19)
(0.686681 0.813684 -7.86941e-20)
(0.595705 0.736515 -4.88623e-20)
(0.502544 0.649384 -1.85285e-20)
(0.408108 0.552531 1.50711e-19)
(0.313464 0.446186 -4.38705e-20)
(0.219698 0.330334 6.51991e-20)
(0.128283 0.205037 -1.44616e-19)
(0.0408971 0.0724815 -1.18934e-21)
(1.02666 0.985654 -8.85778e-19)
(0.928414 0.929311 5.94106e-20)
(0.826611 0.859438 -2.32311e-19)
(0.721426 0.778675 -7.32856e-20)
(0.61274 0.687848 -2.51605e-20)
(0.501436 0.586954 -7.50878e-20)
(0.388512 0.475818 5.64047e-20)
(0.275154 0.354152 6.03675e-20)
(0.162976 0.221537 -9.82382e-21)
(0.0535414 0.0791165 -1.03896e-19)
(1.20382 1.01765 1.23852e-19)
(1.09344 0.960706 5.24109e-19)
(0.978201 0.889533 1.56262e-21)
(0.858182 0.807412 -3.02987e-20)
(0.733116 0.715197 1.51433e-19)
(0.603871 0.61248 -3.4795e-19)
(0.471391 0.498708 -2.44629e-19)
(0.336824 0.373187 3.56259e-19)
(0.20177 0.234999 1.44252e-19)
(0.0677021 0.0845323 -3.63063e-20)
(1.40051 1.01526 7.40646e-19)
(1.27799 0.962178 3.24187e-19)
(1.14778 0.895237 5.57541e-20)
(1.01084 0.81631 -1.95684e-19)
(0.867247 0.726458 -1.65166e-20)
(0.717886 0.625296 4.65948e-19)
(0.563577 0.511981 -2.6838e-19)
(0.405339 0.385465 -1.84541e-19)
(0.244706 0.244318 3.35871e-19)
(0.0831154 0.0884423 -6.08995e-21)
(0.973789 0.096692 9.0174e-21)
(1.14878 0.141984 1.22192e-21)
(1.21079 0.190099 -2.33345e-20)
(1.31874 0.171036 0)
(1.36399 0.157135 4.60231e-21)
(1.27226 0.236569 -3.84006e-20)
(1.12497 0.386303 -5.89622e-20)
(0.94697 0.543072 -2.6898e-20)
(0.710442 0.647445 -2.88e-19)
(0.416029 0.594602 4.51734e-19)
(0.977454 0.0770612 1.88591e-19)
(1.14166 0.114982 -2.96011e-20)
(1.20566 0.160661 1.95991e-21)
(1.31083 0.154678 1.26663e-20)
(1.36449 0.159311 3.72974e-21)
(1.29188 0.26998 -3.66252e-21)
(1.15531 0.435764 4.68936e-20)
(0.992176 0.605658 0)
(0.760827 0.726232 7.5872e-19)
(0.479235 0.685681 -5.50352e-19)
(0.980252 0.0577582 -1.13079e-19)
(1.13836 0.0890356 7.79366e-21)
(1.20392 0.132012 7.70951e-20)
(1.30888 0.137184 1.97305e-20)
(1.36735 0.160347 -2.03e-20)
(1.3122 0.300847 -3.53486e-20)
(1.18915 0.483574 1.6298e-20)
(1.04299 0.666672 4.37851e-20)
(0.822918 0.802491 -1.13647e-21)
(0.564582 0.773398 -4.10383e-19)
(0.982275 0.038516 -8.31153e-20)
(1.13843 0.0635304 1.58781e-20)
(1.20605 0.103979 7.36576e-20)
(1.31259 0.11909 2.75529e-20)
(1.37383 0.160847 -2.21119e-20)
(1.33308 0.329507 -2.09281e-20)
(1.22664 0.529161 3.99348e-20)
(1.09979 0.725053 2.65417e-20)
(0.900087 0.873994 -5.29201e-19)
(0.67392 0.855811 -1.79066e-19)
(0.984007 0.0192145 3.94689e-20)
(1.14151 0.0379112 -4.84332e-20)
(1.21177 0.0764754 -6.54413e-20)
(1.32065 0.100868 1.93928e-20)
(1.3827 0.16181 0)
(1.35418 0.35655 0)
(1.26768 0.571971 5.74711e-20)
(1.16362 0.779463 -2.80408e-20)
(0.995041 0.93828 -1.16676e-19)
(0.805307 0.931274 -5.74729e-20)
(0.985997 -0.000432439 3.813e-21)
(1.14721 0.0118155 5.58502e-20)
(1.22038 0.0494633 -1.99863e-19)
(1.3317 0.0831943 -7.25682e-20)
(1.39255 0.163933 -5.34333e-21)
(1.37529 0.382202 1.00742e-19)
(1.31236 0.611221 1.38156e-19)
(1.23594 0.828202 -1.8004e-20)
(1.10821 0.993541 -3.99338e-20)
(0.953872 0.999114 1.121e-21)
(0.98802 -0.0209657 8.78333e-22)
(1.15496 -0.0150051 2.56803e-20)
(1.23101 0.0229963 -6.29299e-20)
(1.34459 0.0667112 -1.4198e-19)
(1.40238 0.16743 1.26261e-20)
(1.39658 0.406209 7.6857e-21)
(1.36117 0.645857 -5.83105e-20)
(1.31789 0.869611 -1.19515e-19)
(1.23763 1.03946 -2.66929e-20)
(1.11389 1.05944 -9.82131e-19)
(0.988569 -0.0426434 1.49162e-20)
(1.16407 -0.0427806 -1.29479e-19)
(1.24278 -0.00274663 1.25914e-19)
(1.35827 0.0522214 9.59286e-20)
(1.41094 0.172808 5.26734e-21)
(1.41787 0.428227 -1.15739e-19)
(1.41399 0.674884 -5.08173e-21)
(1.40887 0.90272 -1.06758e-19)
(1.37956 1.07686 1.1134e-20)
(1.2798 1.11168 2.88452e-18)
(0.986106 -0.0648488 -8.44621e-20)
(1.17405 -0.071624 7.38212e-20)
(1.2549 -0.0276726 1.82504e-19)
(1.37204 0.039873 -1.07433e-19)
(1.41864 0.179853 -1.9767e-19)
(1.44063 0.44804 9.24185e-21)
(1.47214 0.698162 1.5864e-19)
(1.50893 0.928184 -5.44494e-19)
(1.53098 1.10701 -2.6805e-20)
(1.44823 1.15279 -6.47233e-18)
(0.98092 -0.0877792 4.16742e-21)
(1.18494 -0.101472 1.31746e-19)
(1.2668 -0.0516881 5.78728e-20)
(1.38462 0.0317262 -2.57893e-19)
(1.42311 0.192544 -2.20396e-19)
(1.46241 0.469278 -6.24653e-20)
(1.53139 0.719417 6.04648e-20)
(1.61194 0.949317 -2.35714e-19)
(1.68378 1.12954 -1.09026e-18)
(1.61548 1.17188 -7.95287e-18)
(0.972772 -0.119036 -1.45023e-20)
(1.19773 -0.141196 -3.01983e-20)
(1.27767 -0.0846364 -7.13463e-20)
(1.39706 0.0164916 1.19836e-19)
(1.42946 0.190671 1.84774e-19)
(1.4931 0.465293 -5.33367e-20)
(1.61218 0.709133 -1.37385e-19)
(1.75405 0.938566 -1.2177e-18)
(1.90277 1.13162 -1.60211e-18)
(1.89918 1.20824 3.28752e-18)
(0.96169 -0.157608 -4.10541e-19)
(1.21377 -0.190934 1.00262e-20)
(1.28234 -0.131079 -5.29936e-20)
(1.39977 -0.00518742 2.99268e-19)
(1.41391 0.169193 3.31627e-19)
(1.4966 0.422254 -4.10304e-20)
(1.66905 0.645397 -7.57093e-20)
(1.8811 0.864317 -3.24344e-19)
(2.13956 1.07051 2.62683e-19)
(2.28436 1.16036 -3.22953e-19)
(0.949619 -0.197651 -2.78167e-20)
(1.23674 -0.241158 -5.40782e-20)
(1.28077 -0.174956 2.98959e-20)
(1.39679 -0.0266018 2.75456e-20)
(1.39303 0.156648 1.74736e-33)
(1.47573 0.366987 2.452e-21)
(1.6829 0.559607 -2.08187e-33)
(1.95013 0.758451 1.86177e-19)
(2.30231 0.955795 -9.31875e-19)
(2.58731 1.05807 -6.2938e-19)
(0.93737 -0.243628 1.42367e-18)
(1.26647 -0.281347 -7.67329e-34)
(1.25314 -0.222911 -3.93428e-20)
(1.27993 -0.033609 -2.2538e-19)
(1.27249 0.14114 -4.51929e-19)
(1.39358 0.299343 -9.02065e-19)
(1.62168 0.458579 -5.10796e-33)
(1.93062 0.630192 -1.7393e-18)
(2.32652 0.801634 -3.17544e-18)
(2.75396 0.902328 1.67584e-18)
(0.927351 -0.300509 0)
(1.31251 -0.325857 -1.67246e-33)
(1.11562 -0.204949 0)
(1.11382 -0.0279538 0)
(1.12579 0.113708 0)
(1.26118 0.231004 0)
(1.49145 0.35441 -8.16312e-33)
(1.81608 0.490915 0)
(2.21405 0.633946 -3.39991e-19)
(2.73528 0.71183 1.25805e-18)
(0.91639 -0.360657 1.16001e-19)
(1.25272 -0.326263 -4.67206e-19)
(0.961675 -0.172578 -5.49102e-20)
(0.938832 -0.0248351 0)
(0.960772 0.082123 0)
(1.09192 0.164385 6.12104e-20)
(1.30761 0.253247 1.18761e-18)
(1.61663 0.354298 -1.95095e-19)
(1.99707 0.466021 -4.9531e-19)
(2.53263 0.520379 4.6722e-18)
(0.883428 -0.405289 -1.52011e-17)
(1.0923 -0.279615 1.08535e-18)
(0.793679 -0.129624 -7.272e-20)
(0.750252 -0.0205757 -8.17083e-20)
(0.776021 0.0524046 -5.06472e-19)
(0.890894 0.103902 -7.71477e-19)
(1.0772 0.160849 -1.05248e-18)
(1.34644 0.228798 -1.38719e-18)
(1.68781 0.306033 -1.60887e-18)
(2.18001 0.34441 3.61557e-18)
(0.808968 -0.394509 -4.13592e-19)
(0.886658 -0.207513 -1.21646e-18)
(0.606011 -0.0824638 -1.25903e-19)
(0.551679 -0.0150829 -8.37727e-20)
(0.573893 0.0276505 -9.60541e-34)
(0.662574 0.0542418 9.47478e-20)
(0.806042 0.0843384 -1.49037e-32)
(1.01643 0.122826 -1.93419e-19)
(1.29256 0.167271 2.98801e-19)
(1.69931 0.19206 7.05643e-19)
(0.664231 -0.288846 3.42564e-17)
(0.618294 -0.108049 -3.14037e-18)
(0.393555 -0.0349868 -2.41083e-19)
(0.340406 -0.00732388 -1.51786e-19)
(0.354888 0.00932385 3.90728e-19)
(0.411079 0.018262 7.82223e-19)
(0.50154 0.0290899 7.94066e-19)
(0.636835 0.0448431 4.59739e-19)
(0.820782 0.0634442 -1.9009e-19)
(1.10155 0.0762231 3.56871e-18)
(0.336828 -0.0768266 5.58787e-19)
(0.261862 -0.00230744 -6.76645e-33)
(0.14444 0.0190439 -3.05282e-19)
(0.120682 0.00329078 0)
(0.123958 -0.00230393 0)
(0.142083 -0.00538456 9.70783e-20)
(0.172501 -0.00623016 9.25968e-35)
(0.220327 -0.00416589 -1.2358e-19)
(0.288131 -0.00161637 -2.82458e-19)
(0.399001 0.003319 1.00137e-18)
(2.00196 1.0962 -1.78917e-18)
(2.23899 1.0783 -2.30479e-18)
(2.44202 1.029 0)
(2.63703 0.952428 -7.5853e-19)
(2.82356 0.85246 -1.78396e-18)
(2.99275 0.732361 -2.24944e-18)
(3.13708 0.595025 -4.76979e-19)
(3.25055 0.44269 1.26931e-18)
(3.32825 0.276962 -3.54787e-18)
(3.36765 0.098699 1.35668e-18)
(2.49855 1.14172 2.67376e-19)
(2.73046 1.08173 1.39685e-18)
(2.9238 1.00406 1.43857e-19)
(3.10668 0.909707 6.75583e-19)
(3.28056 0.800597 -1.10377e-18)
(3.43994 0.678284 -4.99954e-18)
(3.58095 0.543987 2.46743e-18)
(3.70047 0.399305 1.27023e-17)