# Selection   : all
# Cells       : 440
# Volume      : 7.374263e+01
# Time        	maxMag(U)
7.215         	2.860198e+00
7.26          	2.853253e+00
7.31          	2.843408e+00
