/*--------------------------------*- C++ -*----------------------------------*\
  =========                 |
  \\      /  F ield         | OpenFOAM: The Open Source CFD Toolbox
   \\    /   O peration     | Website:  https://openfoam.org
    \\  /    A nd           | Version:  13
     \\/     M anipulation  |
\*---------------------------------------------------------------------------*/
FoamFile
{
    format      ascii;
    class       volScalarField;
    location    "3.735";
    object      p;
}
// * * * * * * * * * * * * * * * * * * * * * * * * * * * * * * * * * * * * * //

dimensions      [0 2 -2 0 0 0 0];

internalField   nonuniform List<scalar> 
440
(
-1.14189
-1.11675
-1.11433
-1.07671
-1.1861
-1.18352
-1.16085
-1.13512
-1.10591
-1.09295
-1.29929
-1.26607
-1.22838
-1.18615
-1.14372
-1.43134
-1.38162
-1.29951
-1.20445
-1.11072
-1.52732
-1.46337
-1.32047
-1.17534
-1.04533
-1.0263
-1.03586
-1.05889
-1.09204
-1.12534
-1.13888
-1.14125
-1.15858
-1.19038
-1.22635
-1.21375
-1.21134
-1.21945
-1.24442
-1.27733
-1.21461
-1.2032
-1.19577
-1.20171
-1.22518
-1.15894
-1.13961
-1.11836
-1.10055
-1.14128
-1.26086
-0.714497
-0.29032
-0.0254878
0.035335
-1.36413
-0.875172
-0.323204
-0.0395345
0.0348622
-1.40154
-0.99684
-0.358068
-0.058031
0.0276761
-1.33833
-1.07359
-0.400374
-0.0810135
0.0152497
-1.26057
-1.10796
-0.446003
-0.107024
0.00117898
-1.04423
-1.02837
-0.453018
-0.132122
-0.0173056
-0.822062
-0.824033
-0.437598
-0.161501
-0.0348021
-0.719461
-0.694161
-0.457863
-0.204493
-0.0461473
-0.61027
-0.594678
-0.469455
-0.241232
-0.0617226
-0.509671
-0.514698
-0.47674
-0.266326
-0.067799
-0.826825
-0.937133
-1.11437
-1.28766
-1.39495
-0.601248
-0.727719
-0.817582
-0.878013
-0.894926
-0.444894
-0.557295
-0.625803
-0.678621
-0.715059
-0.350472
-0.453075
-0.526304
-0.574756
-0.607638
-0.30835
-0.409994
-0.483196
-0.524713
-0.540307
0.546924
0.394511
0.200323
-0.0147921
-0.243892
0.127451
-0.0329905
-0.22551
-0.443859
-0.690696
-0.273784
-0.434521
-0.637422
-0.863853
-1.0964
-0.638817
-0.800225
-1.00045
-1.21647
-1.39156
-0.879846
-1.039
-1.223
-1.41676
-1.52647
1.60235
1.62892
1.65263
1.66272
1.65697
1.40719
1.42313
1.4317
1.42354
1.39428
1.19432
1.18076
1.14294
1.08177
0.995415
0.950425
0.915412
0.844462
0.743642
0.615619
0.749566
0.641396
0.502619
0.345588
0.158593
1.43514
1.38763
1.39203
1.45169
1.50599
1.42479
1.37749
1.37192
1.43127
1.41018
1.4155
1.36434
1.34968
1.39888
1.28099
1.40721
1.34968
1.32581
1.35447
1.10631
1.40006
1.33392
1.30183
1.30962
0.917494
1.39348
1.31091
1.27156
1.20813
0.706046
1.38762
1.28167
1.25813
1.11989
0.841264
1.39336
1.26617
1.24664
1.06842
0.889282
1.38971
1.24368
1.2396
1.01451
0.909519
1.42413
1.24005
1.23413
0.982183
0.917378
0.519484
0.215319
-0.126871
-0.442875
-0.639515
0.388553
0.183641
-0.0472407
-0.266052
-0.451291
0.369858
0.196201
0.0185572
-0.148861
-0.314338
0.410281
0.239488
0.0757705
-0.0762875
-0.224183
0.435903
0.26611
0.107641
-0.0401727
-0.183344
-1.48439
-1.36542
-1.21971
-1.10278
-1.03344
-1.5643
-1.50434
-1.39456
-1.30596
-1.2548
-1.50336
-1.45859
-1.39562
-1.34668
-1.31781
-1.37221
-1.33715
-1.30067
-1.27351
-1.25657
-1.27026
-1.25065
-1.23144
-1.2168
-1.22038
-1.21033
-1.20094
-1.19121
-1.18901
-1.16839
-1.18383
-1.18063
-1.17945
-1.18525
-1.18574
-1.15376
-1.16143
-1.17753
-1.20126
-1.22467
-1.05502
-1.06804
-1.09297
-1.12403
-1.14705
-0.997546
-1.01049
-1.03549
-1.06686
-1.09305
-1.15644
-0.479497
-0.237103
-0.0607124
0.00204266
-1.13967
-0.412244
-0.203893
-0.0427922
0.00883867
-1.10603
-0.402496
-0.198564
-0.0228164
0.017152
-1.10907
-0.453328
-0.218275
-0.013693
0.0247605
-1.1577
-0.551524
-0.252694
-0.015577
0.0312166
-0.876171
-0.612175
-0.340628
-0.0887174
-0.0016816
-1.07439
-0.561309
-0.286676
-0.0758746
0.00237411
-0.992376
-1.23078
-1.30076
-1.26663
-1.10101
-1.00971
-1.23539
-1.30729
-1.25497
-1.23211
1.32644
1.30924
1.27729
1.23172
1.17148
1.4999
1.51977
1.52806
1.52282
1.5039
1.64145
1.67238
1.699
1.71556
1.71882
1.71509
1.75067
1.78876
1.82013
1.83502
1.70128
1.73302
1.76719
1.79425
1.80557
-0.616585
-0.706045
-0.846169
-1.018
-1.20883
-0.066989
-0.183837
-0.339648
-0.526991
-0.754889
0.426004
0.303883
0.159217
-0.0102223
-0.21551
0.820961
0.728032
0.615452
0.479686
0.318824
1.13548
1.07207
0.989897
0.891868
0.778462
1.49745
1.41925
1.43245
1.44068
1.45976
1.48243
1.41575
1.43018
1.45516
1.51104
1.46966
1.4109
1.42697
1.47094
1.57221
1.45748
1.40467
1.41929
1.47451
1.57777
1.44593
1.39714
1.40714
1.46882
1.55944
1.55188
1.42724
1.42134
1.37472
1.32981
1.50778
1.41588
1.41941
1.3934
1.3504
1.02313
0.824056
0.476033
-0.0310878
-0.590791
1.10033
0.854738
0.492615
-0.0112242
-0.582689
)
;

boundaryField
{
    left
    {
        type            zeroGradient;
    }
    right
    {
        type            fixedValue;
        value           uniform 0;
    }
    down
    {
        type            zeroGradient;
    }
    up
    {
        type            zeroGradient;
    }
    cylinder
    {
        type            zeroGradient;
    }
    defaultFaces
    {
        type            empty;
    }
}


// ************************************************************************* //
