/*--------------------------------*- C++ -*----------------------------------*\
  =========                 |
  \\      /  F ield         | OpenFOAM: The Open Source CFD Toolbox
   \\    /   O peration     | Website:  https://openfoam.org
    \\  /    A nd           | Version:  13
     \\/     M anipulation  |
\*---------------------------------------------------------------------------*/
FoamFile
{
    format      ascii;
    class       volScalarField;
    location    "38.4";
    object      p;
}
// * * * * * * * * * * * * * * * * * * * * * * * * * * * * * * * * * * * * * //

dimensions      [0 2 -2 0 0 0 0];

internalField   nonuniform List<scalar> 
440
(
-1.12036
-1.10052
-1.09115
-1.06698
-1.12585
-1.19401
-1.17026
-1.14385
-1.11632
-1.0938
-1.3295
-1.28852
-1.23677
-1.17163
-1.10346
-1.47282
-1.41776
-1.30503
-1.17445
-1.04346
-1.56165
-1.48298
-1.30717
-1.12749
-0.966687
-1.19685
-1.27456
-1.44988
-1.6608
-1.86657
-1.31052
-1.32075
-1.35406
-1.40712
-1.4747
-1.2147
-1.19084
-1.16524
-1.1509
-1.14954
-1.14274
-1.11494
-1.08077
-1.04947
-1.04091
-1.08818
-1.07191
-1.04809
-1.01917
-1.03385
-1.65527
-0.510464
0.656013
0.151428
0.0138583
-1.71646
-0.546616
0.681951
0.0904159
0.0245111
-1.28598
-0.61263
0.486837
0.0482623
0.0279295
-1.09017
-0.672873
0.269153
0.0460476
0.00603533
-1.09179
-0.667498
0.173548
0.0775313
-0.0251153
-0.967056
-0.465254
0.222684
0.162924
-0.0374845
-0.518857
-0.0876566
0.137725
0.241161
0.0266155
-0.380092
0.0540375
0.243596
0.279267
0.0513987
-0.234432
0.0697584
0.223101
0.255225
0.0365912
-0.12549
0.0214548
0.261495
0.305403
0.0543708
-0.697221
-0.801573
-0.96793
-1.13358
-1.30942
-0.434614
-0.54618
-0.633651
-0.689931
-0.712014
-0.252248
-0.351344
-0.409695
-0.446751
-0.463727
-0.136463
-0.225044
-0.278945
-0.305079
-0.309083
-0.0797759
-0.166626
-0.215736
-0.230775
-0.214094
0.688297
0.526932
0.320768
0.0921074
-0.155753
0.250543
0.0801777
-0.126717
-0.362268
-0.631379
-0.171443
-0.345836
-0.565686
-0.809314
-1.06804
-0.543559
-0.722418
-0.948355
-1.18887
-1.39205
-0.789796
-0.976218
-1.1901
-1.41346
-1.54948
1.82389
1.85082
1.87282
1.87978
1.86962
1.61771
1.63387
1.64322
1.63454
1.60411
1.39552
1.3776
1.33499
1.26842
1.17432
1.13819
1.09889
1.02161
0.912316
0.772969
0.915021
0.800864
0.653929
0.486872
0.285117
1.62463
1.61665
1.59094
1.66081
1.72384
1.61374
1.60501
1.56908
1.63784
1.62592
1.60394
1.59064
1.54499
1.60228
1.5009
1.59532
1.57454
1.5195
1.55149
1.32446
1.58785
1.55735
1.49296
1.50274
1.13475
1.58238
1.53154
1.46049
1.39682
0.925987
1.57712
1.50166
1.44896
1.26777
1.0634
1.58463
1.48579
1.43122
1.22181
1.10064
1.58149
1.45625
1.41944
1.16185
1.12981
1.61649
1.45515
1.41435
1.12701
1.16545
0.651064
0.336581
-0.00891425
-0.3162
-0.506498
0.544586
0.318787
0.0868312
-0.119779
-0.28959
0.531139
0.351555
0.178842
0.0227886
-0.130486
0.613103
0.437933
0.269556
0.118431
-0.0219586
0.654986
0.474225
0.308689
0.163513
0.0310054
-1.08073
-0.969519
-0.827436
-0.712047
-0.643086
-1.15942
-1.10195
-0.993731
-0.906117
-0.852625
-1.10617
-1.06141
-0.999074
-0.945631
-0.909465
-0.987577
-0.953278
-0.915047
-0.883472
-0.857216
-0.89674
-0.878136
-0.85836
-0.842218
-0.846725
-0.868008
-0.861862
-0.850959
-0.848042
-0.810799
-0.794713
-0.793029
-0.787462
-0.788143
-0.781441
-0.907077
-0.945397
-1.00196
-1.04798
-1.07751
-0.582923
-0.619644
-0.698976
-0.790421
-0.834993
-0.51849
-0.667461
-0.913635
-1.14847
-1.28668
-0.861057
0.567098
0.178363
0.19279
-0.0339954
-0.801433
0.643691
0.152354
0.199333
-0.0433213
-0.687803
0.729978
0.168277
0.210341
-0.0391649
-0.689435
0.483733
0.281142
0.221536
-0.0250806
-1.06837
-0.164605
0.422975
0.202182
0.00315983
-0.405189
0.35572
0.136047
0.18941
1.3057e-05
-0.736322
0.436539
0.205273
0.203613
-0.0110486
-0.601834
-0.835015
-0.855991
-0.848288
-0.635788
-0.619401
-0.832531
-0.882894
-0.843067
-0.847319
1.57307
1.55828
1.52861
1.48542
1.42823
1.74006
1.76198
1.77163
1.76738
1.74949
1.87657
1.91014
1.93819
1.95572
1.95981
1.94773
1.9857
2.02574
2.05833
2.07368
1.92658
1.96056
1.99776
2.02788
2.0407
-0.251499
-0.339305
-0.475701
-0.643242
-0.820314
0.265348
0.152073
9.34668e-05
-0.181034
-0.395556
0.72859
0.609893
0.46855
0.303704
0.108345
1.09658
1.00604
0.895968
0.764067
0.609623
1.39018
1.3294
1.25067
1.15676
1.04809
1.69088
1.65047
1.63971
1.65752
1.68319
1.67499
1.64654
1.63704
1.66955
1.73281
1.66125
1.64135
1.63251
1.68379
1.79142
1.64829
1.63488
1.623
1.68614
1.79512
1.63603
1.62697
1.60858
1.67886
1.77599
1.74857
1.65923
1.63231
1.59161
1.56195
1.70207
1.64874
1.62593
1.60808
1.58045
1.29124
1.10635
0.779162
0.300785
-0.225059
1.3582
1.13182
0.793433
0.319261
-0.217819
)
;

boundaryField
{
    left
    {
        type            zeroGradient;
    }
    right
    {
        type            fixedValue;
        value           uniform 0;
    }
    down
    {
        type            zeroGradient;
    }
    up
    {
        type            zeroGradient;
    }
    cylinder
    {
        type            zeroGradient;
    }
    defaultFaces
    {
        type            empty;
    }
}


// ************************************************************************* //
