/*--------------------------------*- C++ -*----------------------------------*\
  =========                 |
  \\      /  F ield         | OpenFOAM: The Open Source CFD Toolbox
   \\    /   O peration     | Website:  https://openfoam.org
    \\  /    A nd           | Version:  13
     \\/     M anipulation  |
\*---------------------------------------------------------------------------*/
FoamFile
{
    format      ascii;
    class       surfaceScalarField;
    location    "3.555";
    object      phi;
}
// * * * * * * * * * * * * * * * * * * * * * * * * * * * * * * * * * * * * * //

dimensions      [0 3 -1 0 0 0 0];

internalField   nonuniform List<scalar> 
823
(
-0.00263262
0.0131305
-0.0104979
0.0171514
0.0105853
-0.0303693
0.0822826
-0.0241212
-0.04101
0.188232
-0.0876388
-0.0183106
-0.0917572
-0.05494
0.334929
0.00082008
0.0123105
0.0436002
-0.0321949
0.13853
-0.119051
0.251346
-0.200455
-0.268781
0.42837
0.0218968
-0.00958631
0.110813
-0.121111
0.23177
-0.240009
0.352769
-0.321453
-0.374099
0.458087
0.0460701
-0.0556564
0.151158
-0.226198
0.245045
-0.333896
0.305561
-0.381969
-0.395453
0.326915
0.0625992
-0.118256
0.140878
-0.304477
0.185649
-0.378666
0.201889
-0.39821
0.212227
-0.405791
-0.0252939
0.0626086
-0.0373147
-0.0683661
0.101784
-0.0587118
-0.114641
0.107244
-0.0609696
-0.159034
0.104315
-0.0599215
0.099406
-0.199589
-0.0588513
-0.000565005
0.0631736
-0.0165969
0.117816
-0.0412865
0.131934
-0.0671678
0.130196
0.121255
-0.0890165
0.0211426
0.042031
0.0420912
0.0968674
0.0535053
0.12052
0.0593665
0.124335
0.11873
0.0618914
0.0237857
0.0182453
0.0638649
0.0567883
0.102733
0.0816516
0.140017
0.0870513
0.0982553
0.160491
0.00774736
0.0341664
0.074808
0.143549
0.186864
-0.146329
0.387449
-0.440709
0.0994577
-0.468723
0.222936
0.232755
-0.692446
0.559149
0.332321
-0.586664
0.487098
-0.298826
0.254485
0.0315491
0.266884
0.241822
-0.678996
0.333568
-0.784192
0.385235
-0.638331
-0.320306
0.211161
0.117614
0.377302
-0.845137
0.443091
-0.849981
0.452223
-0.647464
-0.317175
0.339671
-0.0615663
0.452468
-0.957934
0.507251
-0.904764
0.503719
-0.643932
-0.303326
0.406193
-0.280895
0.495547
-1.04729
0.53495
-0.944166
0.527366
-0.636347
-0.291197
1.30298
-0.423619
-1.16025
1.23145
-0.975758
1.06699
-0.779708
0.892684
-0.462044
-0.200353
1.45031
-0.409119
-1.46481
1.24018
-0.765625
0.985436
-0.524965
0.794452
-0.27106
-0.123147
1.36704
-0.354379
-1.42178
1.1871
-0.585687
1.00243
-0.340289
0.831151
-0.099785
-0.0327376
1.24309
-0.245439
-1.35203
0.975243
-0.317837
0.764884
-0.129929
0.654563
0.0105356
0.0160107
0.695261
-0.9407
0.377424
0.247495
0.25803
1.12902
0.177516
-1.09431
1.22256
0.233376
1.32393
0.35671
1.31609
0.436211
0.490769
1.0441
0.11785
-0.984438
1.12684
0.150641
1.23334
0.250206
1.3537
0.315851
0.379661
0.990583
0.0653932
-0.938126
1.04822
0.0930006
1.14621
0.152218
1.27353
0.188533
0.231409
0.937317
0.0212658
-0.893189
0.995574
0.0347438
1.0897
0.0580947
1.20861
0.0696201
0.0879859
0.690256
-0.66899
0.724999
0.783094
0.852714
0.145098
0.303259
-0.247095
-0.201261
0.0972001
0.307712
-0.259814
0.0549973
0.317558
-0.275356
0.0194358
0.308615
-0.273053
0.198589
-0.179153
0.103254
0.339913
-0.139909
0.0665974
0.344369
0.0339538
0.350202
0.00800542
0.334563
0.206594
0.0739472
0.377773
-0.111807
0.0393257
0.37899
0.00994417
0.379583
-0.00592131
0.350428
0.200673
-0.0143065
0.394011
-0.0019313
-0.0308073
0.395491
-0.0383612
0.387137
-0.0295668
0.341634
0.171106
-0.0957597
0.0839798
-0.0984783
-0.0900074
-0.0528506
0.198027
0.109016
-0.249752
-0.0572915
0.145123
0.113158
-0.0602553
0.090612
0.118014
-0.0635023
0.0370263
0.118291
-0.0647055
0.0832854
-0.046259
0.183971
0.151209
-0.226164
0.139262
0.157867
0.089448
0.167828
0.0375232
0.170216
0.120809
0.139137
0.195732
-0.183659
0.0978833
0.199121
0.0584235
0.207288
0.0214125
0.207227
0.142221
0.147872
0.226087
-0.178227
0.110764
0.236229
0.0683636
0.249689
0.0266765
0.248914
0.168898
0.0836474
-0.104656
0.0600615
0.0343946
0.0102556
0.409807
0.033108
-0.0469358
0.423073
0.0484343
-0.0616994
0.417263
0.182269
-0.176459
0.391564
0.25686
-0.231162
0.517993
-0.376181
0.408283
0.020805
0.415988
0.0407284
0.405308
0.192949
0.378823
0.283345
0.670652
0.401806
0.0149782
0.410984
0.0315511
0.380948
0.222985
0.369421
0.294873
0.856414
0.397155
0.0138025
0.395431
0.0332757
0.368405
0.25001
0.338326
0.324952
1.01651
0.388083
0.021699
0.382705
0.0386534
0.33506
0.297656
0.319014
0.340998
1.23087
0.618469
0.00725065
0.646177
0.0109451
0.679538
0.264295
0.754273
0.266262
0.987471
0.997674
0.627731
-0.0164598
0.645089
-0.00641263
0.711947
0.197437
0.746038
0.232172
0.71674
1.01677
0.630076
-0.0425149
0.646641
-0.0229778
0.722478
0.1216
0.794953
0.159696
0.448373
1.06332
0.620228
-0.0587225
0.637436
-0.0401857
0.720428
0.038607
0.817209
0.0629159
0.209233
1.05635
0.545298
0.505112
0.543719
0.606635
0.815868
1.03788
-0.24147
1.02971
-0.131736
1.04466
-0.126756
1.03903
0.00369212
0.0287082
0.980266
-0.204968
0.970502
-0.121972
0.950587
-0.106842
0.962159
-0.00788001
0.00642994
0.990429
-0.132076
0.961193
-0.0927359
0.925909
-0.0715572
0.934484
-0.0164551
0.0027874
0.979191
-0.0549185
0.929446
-0.0429907
0.890945
-0.033057
0.887857
-0.0133669
-0.00254492
0.760949
0.717959
0.684902
0.671535
0.0473027
0.144115
-0.191418
0.071961
0.314549
-0.339207
0.0730801
0.36835
-0.369469
0.063382
0.371809
-0.362111
0.340489
0.0517313
-0.328839
0.0686201
0.0754953
0.139774
0.243396
0.174877
0.333246
0.180198
0.366489
0.36119
0.159497
0.0576599
0.0178355
0.168606
0.13245
0.261861
0.23999
0.328075
0.300276
0.351228
0.338037
0.0280103
-0.0101749
0.123998
0.0364624
0.244505
0.119483
0.361697
0.183084
0.247541
0.465384
0.00673468
-0.0169096
0.054641
-0.0114439
0.150135
0.0239896
0.265826
0.0673927
0.111342
0.402025
-0.0014491
-0.0154605
0.0116029
-0.0244958
0.0535435
-0.017951
0.121206
-0.000269912
0.0303253
0.202223
0.00284173
-0.0183022
0.00973128
-0.0313854
0.0237227
-0.0319425
0.0483336
-0.0248808
-0.0110834
0.0897423
-0.00280389
-0.0154983
-0.00965421
-0.0245351
-0.0162546
-0.0253421
-0.0190498
-0.0220856
-0.0158551
-0.0142781
-0.0227498
0.0072515
-0.0589166
0.0116318
-0.0960766
0.0118179
-0.130502
0.0123399
0.0141033
-0.16046
-0.0300632
-0.0771433
-0.126295
-0.173877
-0.218625
0.330592
0.536584
-0.664953
0.381168
0.192997
-0.243573
0.372519
-0.0295584
0.0382069
0.378343
-0.0454927
0.0396689
-0.0179381
-0.00214662
0.22415
0.402176
0.197805
0.219343
0.226947
-0.0587005
0.303622
-0.122168
-0.0723325
-0.0166171
0.404515
0.0217704
0.180955
0.165383
-0.202313
0.28293
-0.239715
-0.136523
-0.189398
0.433453
-0.0198414
0.0113982
0.163973
-0.386127
0.2891
-0.364842
-0.198191
-0.22588
0.0084539
0.181475
0.303731
0.195535
0.415907
-0.611441
0.073648
0.121887
0.134476
-0.0608282
0.206795
-0.0723192
-0.0315714
0.780691
-1.02974
0.659004
0.636383
0.603733
0.0852369
-0.0148047
-0.0704322
0.136247
-0.0510101
0.245426
-0.109179
0.413459
-0.168033
-0.197983
0.191
-0.154073
0.299486
0.528345
0.825696
0.136608
-0.12861
0.15949
-0.167488
0.103216
-0.133707
0.1671
0.0659088
-0.14072
0.178027
0.0265456
-0.140716
0.180079
-0.0985891
0.125135
0.174858
-0.0902691
-0.213199
0.132328
-0.0911767
0.0844492
-0.0928417
0.0349816
-0.0912483
-0.0636075
0.184221
-0.0426096
-0.23188
0.135049
-0.0420045
0.0841937
-0.0419869
0.0342447
-0.0412992
-0.0293628
0.196617
0.00735523
-0.246581
0.145532
0.00907964
0.0924532
0.0110922
0.038612
0.0125421
0.00924915
0.192759
-0.242695
0.141583
0.0891733
0.0370099
0.0387245
-0.309164
-0.0583987
0.0152757
-0.338663
-0.00646993
-0.347723
-0.0153301
-0.330347
-0.206748
0.120228
-0.279173
-0.15022
0.0782145
-0.296649
0.0378175
-0.307326
0.00755011
-0.30008
-0.199198
0.138993
-0.240433
-0.177733
0.0983135
-0.255969
0.0575944
-0.266607
0.0204685
-0.262954
-0.17873
0.158961
-0.205792
-0.193603
0.116139
-0.213147
0.0705472
-0.221015
0.0277211
-0.220128
-0.151008
0.154958
-0.20126
0.108911
0.0659226
0.0258737
0.393637
0.07835
-0.0760073
0.3936
0.124133
-0.124096
0.348437
0.154766
-0.109604
0.291845
0.0469842
0.0096075
-0.16136
0.285716
0.398206
0.076124
0.411087
0.111251
0.39266
0.173193
0.335768
0.103877
-0.0387905
0.401486
0.0706177
0.419605
0.0931318
0.412974
0.179824
0.361003
0.155848
0.0903322
0.406038
0.060559
0.423254
0.0759161
0.424508
0.178571
0.383256
0.1971
0.227007
0.409603
0.423819
0.425931
0.391869
0.425206
0.0848451
0.324767
0.100439
0.253296
0.0714711
0.267898
-0.0146018
-0.152765
0.420663
0.518889
0.495232
0.457099
0.452105
0.585056
0.335329
0.0853333
0.259288
0.0760417
0.171716
0.0875721
0.0991885
0.0725272
0.0287563
0.46913
0.351569
0.261408
0.183716
)
;

boundaryField
{
    left
    {
        type            calculated;
        value           nonuniform List<scalar> 
17
(
-0.60402
-0.60402
-0.60402
-0.60402
-0.60402
-0.39598
-0.39598
-0.39598
-0.39598
-0.39598
-0.39598
-0.39598
-0.39598
-0.39598
-0.39598
-0.510051
-0.510051
)
;
    }
    right
    {
        type            calculated;
        value           nonuniform List<scalar> 
17
(
0.238367
0.570015
0.398428
0.358016
0.34712
0.350769
0.360026
0.376662
0.406715
0.449092
0.48987
0.515237
0.80184
0.717247
0.740741
0.605815
0.274041
)
;
    }
    down
    {
        type            calculated;
        value           uniform 0;
    }
    up
    {
        type            calculated;
        value           uniform 0;
    }
    cylinder
    {
        type            calculated;
        value           uniform 0;
    }
    defaultFaces
    {
        type            empty;
    }
}


// ************************************************************************* //
