# Selection   : all
# Cells       : 440
# Volume      : 7.374263e+01
# Time        	max(p)
7.715         	2.436270e+00
7.76          	2.428978e+00
7.81          	2.428119e+00
