/*--------------------------------*- C++ -*----------------------------------*\
  =========                 |
  \\      /  F ield         | OpenFOAM: The Open Source CFD Toolbox
   \\    /   O peration     | Website:  https://openfoam.org
    \\  /    A nd           | Version:  13
     \\/     M anipulation  |
\*---------------------------------------------------------------------------*/
FoamFile
{
    format      ascii;
    class       volVectorField;
    location    "46";
    object      U;
}
// * * * * * * * * * * * * * * * * * * * * * * * * * * * * * * * * * * * * * //

dimensions      [0 1 -1 0 0 0 0];

internalField   nonuniform List<vector> 
440
(
(-0.0967144 0.0714633 -5.80978e-20)
(-0.126293 0.0914977 -1.55986e-20)
(0.00513969 0.0527045 1.0886e-19)
(0.382081 0.0697948 1.2671e-20)
(0.38222 0.173177 2.37717e-20)
(-0.0893753 0.0513637 3.1386e-20)
(0.0459619 0.022716 -1.10731e-19)
(0.522396 -0.0278947 -1.02585e-19)
(1.06022 -0.0556527 5.19944e-20)
(1.56961 -0.079514 8.5492e-21)
(-0.0214999 0.0080562 4.76762e-20)
(0.484555 -0.0370534 6.83076e-19)
(1.24235 -0.0295304 -4.11351e-19)
(1.8331 -0.00939694 -1.34006e-18)
(2.31971 0.0128278 5.72947e-19)
(0.188 -0.0425246 -1.66481e-19)
(1.1566 0.00317959 -5.09787e-19)
(1.91701 0.0671325 1.6325e-18)
(2.33345 0.10713 1.79416e-18)
(2.41707 0.11509 -5.05191e-19)
(0.539737 -0.00579735 -2.7898e-19)
(1.68357 0.174005 -5.88971e-19)
(2.2187 0.249757 1.79246e-18)
(2.3579 0.260666 1.94553e-18)
(2.44196 0.239734 6.66196e-19)
(0.0429064 -0.27269 -4.00972e-20)
(0.083228 -0.402179 1.94812e-19)
(0.102937 -0.377439 -4.95629e-19)
(0.150917 -0.268089 1.24437e-19)
(0.195358 -0.0831966 1.00787e-18)
(0.062853 -0.260143 -9.76408e-20)
(0.0452907 -0.336848 -3.69419e-19)
(-0.000857911 -0.374904 -1.19605e-19)
(-0.0426847 -0.378006 -8.26286e-20)
(-0.0833341 -0.264139 1.035e-19)
(0.0766801 -0.200039 4.87892e-19)
(0.0379345 -0.207376 -9.11411e-20)
(-0.0343258 -0.174664 2.86162e-19)
(-0.111651 -0.188648 2.16415e-19)
(-0.192784 -0.166345 4.88405e-21)
(0.0716657 -0.150014 3.6819e-20)
(0.00556816 -0.173736 3.43963e-21)
(-0.0807536 -0.124639 1.14e-19)
(-0.151113 -0.0926702 -6.82573e-19)
(-0.210882 -0.0443626 2.22652e-19)
(-0.029593 -0.0116531 -3.87531e-20)
(-0.151167 -0.0245047 -5.90689e-20)
(-0.23123 -0.00783284 -2.26236e-19)
(-0.210187 0.0127756 3.68409e-19)
(-0.182359 0.0712305 8.89416e-19)
(0.957704 1.30728 1.94629e-18)
(0.775717 0.179704 -2.07691e-18)
(1.35018 -1.36305 -1.64125e-19)
(1.07524 -0.598714 -8.51824e-19)
(1.34233 -0.0449776 -3.10014e-20)
(0.274611 1.0218 -1.97116e-18)
(1.05595 0.135021 3.0577e-19)
(2.023 -1.27527 1.67906e-19)
(1.33438 -0.616081 1.50972e-18)
(1.35908 -0.0637084 1.19181e-19)
(-0.560883 0.654691 -1.20547e-18)
(1.556 -0.169951 -8.01563e-19)
(1.97247 -1.34426 -8.87334e-20)
(1.46864 -0.577762 1.19462e-18)
(1.35817 -0.0287546 -3.99629e-21)
(-0.824951 0.496524 5.25691e-19)
(1.97847 -0.428471 -1.05248e-20)
(1.94448 -1.24032 5.30821e-19)
(1.30771 -0.537766 -4.15848e-19)
(1.26444 -0.0175189 -3.40359e-20)
(-0.36196 0.170083 -1.39764e-19)
(2.22086 -0.636162 -6.08387e-20)
(2.11035 -1.14039 0)
(1.16638 -0.459479 1.57914e-19)
(1.12366 -0.00354911 -6.2541e-20)
(1.18752 0.0520122 -2.63336e-19)
(2.60997 -0.675044 -1.14478e-19)
(2.05854 -0.959298 -2.50653e-20)
(1.18851 -0.405799 9.41811e-20)
(1.14544 -0.00738186 -2.72854e-20)
(1.94927 0.0413662 -1.68766e-20)
(2.80614 -0.786366 1.02331e-18)
(1.73631 -0.705001 -1.77019e-20)
(0.729345 -0.130469 2.47792e-20)
(1.05836 0.0252202 0)
(2.20657 -0.0894157 -1.87861e-19)
(2.39104 -0.525135 -5.91872e-21)
(1.57933 -0.311017 7.49649e-20)
(0.983274 -0.125385 -2.4938e-21)
(1.18815 -0.107554 2.21521e-20)
(2.26099 -0.0895824 1.05959e-19)
(2.05578 -0.456564 2.10298e-19)
(1.07058 -0.187285 -2.04525e-20)
(1.05853 -0.0164507 -1.77351e-34)
(0.946598 -0.0598327 1.47452e-20)
(1.49765 -0.129636 1.19068e-19)
(0.736054 0.0131637 6.98301e-20)
(0.395505 0.029337 1.46484e-20)
(0.334541 -0.0854208 -3.04988e-21)
(0.0778029 -0.0357077 -1.18976e-20)
(2.36539 0.242189 -8.44641e-19)
(2.52368 0.0619569 -1.01307e-18)
(2.41224 0.0523435 7.76536e-19)
(2.55466 -0.0741913 3.23849e-20)
(2.05786 -0.0223351 -4.03983e-20)
(2.15259 0.123406 5.48462e-20)
(2.33225 0.0946517 -3.72341e-20)
(2.29007 -0.0522096 -1.15029e-19)
(2.36338 -0.0408192 -2.14313e-19)
(2.34513 -0.253309 -2.49744e-21)
(2.07577 0.0498858 6.53744e-20)
(2.14212 0.054164 9.50165e-20)
(2.18098 -0.0640757 -1.11876e-19)
(2.1936 -0.0379799 3.67759e-20)
(2.23889 -0.165664 1.71085e-20)
(1.97772 0.0221013 1.0295e-19)
(2.04233 0.0158434 1.26098e-19)
(2.06368 -0.0441546 -1.61101e-20)
(2.11658 -0.0364999 -4.218e-20)
(2.12639 -0.107 2.44775e-20)
(1.49339 -0.016092 1.57797e-19)
(1.48425 -0.0195277 -1.05742e-20)
(1.50683 -0.0229082 1.85311e-20)
(1.49055 -0.0341223 -2.29635e-20)
(1.49469 -0.0301358 2.38388e-21)
(1.52231 0.843489 1.07158e-18)
(1.48488 0.938132 -3.38418e-19)
(1.487 1.0623 -1.26209e-18)
(1.41249 1.09652 6.82334e-19)
(0.86178 0.772426 -1.63365e-19)
(1.80693 0.792074 -5.4486e-19)
(1.77416 0.865983 -2.87809e-18)
(1.77694 0.968974 -1.10651e-18)
(1.68175 0.973039 -3.82029e-19)
(1.01511 0.663419 -6.09143e-19)
(2.09218 0.679758 7.3037e-19)
(2.07164 0.741865 1.8447e-19)
(2.04482 0.819496 -2.15798e-18)
(1.89977 0.7999 -5.86683e-19)
(1.10495 0.513816 4.2647e-19)
(2.26227 0.552617 2.19477e-18)
(2.24234 0.599348 1.58829e-18)
(2.22688 0.64577 -1.81426e-18)
(2.00034 0.599261 -1.35406e-18)
(1.07609 0.334976 -2.42113e-19)
(2.40236 0.403711 1.04019e-18)
(2.39962 0.423778 -7.43225e-19)
(2.29294 0.439713 5.32451e-19)
(1.94716 0.381456 4.1423e-19)
(0.89361 0.144667 -3.45869e-19)
(0.580337 0.426009 -7.02427e-19)
(0.489275 0.460577 -5.63689e-19)
(0.370263 0.495121 7.14814e-20)
(0.23032 0.494254 -2.11868e-20)
(0.0559007 0.346651 6.77453e-20)
(0.68311 0.590503 5.43763e-20)
(0.616279 0.642896 -3.22678e-19)
(0.524027 0.705366 1.70728e-19)
(0.395863 0.763412 -7.91024e-20)
(0.169888 0.584186 1.13346e-19)
(0.765466 0.804609 1.63191e-19)
(0.693221 0.885964 4.19037e-19)
(0.635229 0.97986 7.59524e-20)
(0.548877 1.01793 -2.78458e-19)
(0.299748 0.748727 2.27153e-19)
(1.03389 0.877774 2.09284e-19)
(0.983819 0.959075 -6.39747e-19)
(0.931742 1.05604 -1.79698e-18)
(0.846815 1.1177 7.22487e-19)
(0.49695 0.823916 -1.64502e-19)
(1.11566 0.929087 -1.09658e-19)
(1.14307 1.04487 -1.83904e-19)
(1.16099 1.15345 -3.35903e-19)
(1.10307 1.17561 -3.78103e-19)
(0.674932 0.836063 -6.07792e-21)
(1.00677 0.0402533 -7.92355e-20)
(1.00725 0.0135816 -2.78743e-20)
(1.04809 0.133934 -1.53472e-21)
(0.942371 0.111699 -1.55461e-19)
(0.903956 0.253834 2.86407e-19)
(0.993629 0.0376965 4.83429e-20)
(1.02914 0.00615762 1.07395e-19)
(1.02673 0.149215 1.06434e-19)
(0.97413 0.132217 1.71843e-20)
(0.940276 0.341142 1.29483e-20)
(1.00218 0.0356982 6.31948e-20)
(1.01564 -0.00239629 -4.30445e-21)
(1.06443 0.169199 -2.86183e-21)
(0.926793 0.133585 1.32708e-19)
(1.13327 0.475846 -4.30605e-19)
(1.00067 0.0338395 -2.95474e-22)
(1.03608 -0.0131331 -1.59868e-19)
(1.0428 0.19703 -5.58129e-20)
(1.01466 0.125338 -3.29889e-19)
(1.15097 0.53774 8.29159e-20)
(1.00798 0.0239256 -9.56685e-21)
(1.0296 -0.00619981 4.47429e-20)
(1.07282 0.197886 2.58558e-20)
(1.00225 0.154245 4.51198e-19)
(1.3739 0.669066 -4.29578e-19)
(0.985493 0.0216692 -1.68509e-21)
(1.08685 -0.0239681 9.10869e-20)
(1.0189 0.230559 -5.13737e-20)
(1.27925 0.0642798 9.20679e-19)
(1.30164 0.713337 -3.44952e-19)
(0.944591 -0.0104189 -1.37289e-21)
(1.16461 -0.00543499 -7.33051e-20)
(0.906078 0.15006 4.67874e-21)
(1.38914 0.0519144 -3.07289e-19)
(1.201 0.531563 -4.45317e-20)
(0.991012 -0.0296763 4.31834e-21)
(1.08789 0.018534 1.28562e-35)
(1.01333 0.116774 2.29887e-21)
(1.31521 0.00234705 1.05477e-19)
(1.34433 0.374408 1.57438e-19)
(1.06455 -0.0602682 3.85822e-21)
(0.905803 0.0107555 -2.7757e-20)
(1.27448 0.0247022 1.94381e-20)
(1.13568 -0.0269697 2.27914e-20)
(1.44828 0.253639 -2.38562e-19)
(0.954968 -0.0213879 -3.91168e-20)
(0.763219 -0.0205419 -2.44743e-21)
(1.02177 -0.01113 2.21338e-20)
(0.687357 -0.003659 -2.01681e-20)
(1.0866 0.0841732 -5.33409e-20)
(1.75846 0.642953 2.83433e-19)
(1.86266 0.64718 7.21453e-19)
(2.11085 0.53207 -1.02051e-18)
(2.18931 0.478359 2.28945e-20)
(2.38423 0.306216 4.25343e-19)
(1.68991 0.409037 6.44717e-20)
(1.73191 0.408985 9.11796e-19)
(1.95394 0.349623 1.0247e-19)
(1.96832 0.287535 -8.3968e-19)
(2.18724 0.223971 -2.68597e-19)
(1.67414 0.27281 -2.19015e-19)
(1.76241 0.250866 -1.41066e-19)
(1.87732 0.217192 1.65441e-19)
(1.93496 0.162601 -2.59429e-19)
(2.03703 0.138076 2.37772e-19)
(1.66802 0.182826 3.62441e-19)
(1.74866 0.158064 -1.65012e-21)
(1.81939 0.130403 2.00653e-19)
(1.87271 0.0926709 1.61529e-19)
(1.94124 0.0708609 -1.6287e-19)
(1.28651 0.0503848 -4.69403e-20)
(1.37144 0.0314397 2.29246e-19)
(1.40257 0.0180122 9.27062e-20)
(1.45355 0.00114888 -1.9536e-19)
(1.45762 -0.00548281 3.80136e-22)
(1.35598 -0.0262906 8.45909e-20)
(2.42889 -0.00814881 -6.07477e-19)
(2.64572 -0.00125482 1.63173e-18)
(2.61016 0.0462025 7.64892e-19)
(2.36142 0.0519085 -5.20335e-19)
(0.929435 0.114924 2.03641e-19)
(2.22632 0.150679 -6.86889e-19)
(2.62808 0.164479 -9.85851e-19)
(2.62575 0.169973 1.36228e-18)
(2.42409 0.164396 -1.01785e-18)
(0.365836 0.126885 -1.31996e-21)
(1.66965 0.254041 8.64844e-19)
(2.3884 0.310955 1.33042e-19)
(2.65901 0.328094 1.53404e-18)
(2.60404 0.289152 8.59725e-19)
(0.0295998 0.024969 2.50367e-19)
(0.831354 0.220434 3.04182e-19)
(1.70835 0.3528 -1.05922e-18)
(2.23511 0.420739 1.12569e-19)
(2.6378 0.460042 1.07148e-18)
(-0.0773878 -0.063592 1.94901e-19)
(0.204546 0.0725515 -2.33577e-19)
(0.866553 0.267304 -2.01589e-19)
(1.4209 0.408819 3.17404e-19)
(2.0393 0.574038 2.02937e-19)
(-0.0804809 -0.0968108 6.30364e-20)
(-0.0336255 -0.0590288 1.02857e-19)
(0.285055 0.0631416 8.97347e-20)
(0.596505 0.244049 -4.6199e-19)
(1.32786 0.505589 8.08661e-21)
(-0.0690226 -0.121647 -5.00657e-20)
(-0.0859328 -0.142336 -2.67875e-20)
(0.0313488 -0.0646705 6.36971e-20)
(0.172662 0.124553 -6.61873e-20)
(0.599997 0.421322 -6.27616e-22)
(-0.0494203 -0.108401 -5.76844e-20)
(-0.0710355 -0.127586 1.31011e-20)
(-0.0279822 -0.0393865 -3.55108e-20)
(0.0210009 0.12403 -2.26304e-19)
(0.164425 0.357938 3.0599e-19)
(-0.0237121 -0.0945349 -3.80167e-20)
(-0.0169184 -0.142054 -1.51794e-19)
(0.0326668 -0.0503472 2.92341e-19)
(0.103121 0.141114 3.69987e-19)
(0.190727 0.403587 -1.79612e-20)
(0.00194526 -0.168842 1.0838e-20)
(0.0462438 -0.285606 -2.69575e-20)
(0.101545 -0.225525 3.97995e-21)
(0.183154 -0.0511612 2.80929e-20)
(0.28717 0.206883 2.12827e-19)
(1.49037 0.733623 -2.70006e-20)
(-0.0474916 0.240607 -4.12242e-21)
(0.45131 -0.140886 -1.37643e-19)
(0.946071 -0.119441 -3.62323e-19)
(0.846747 -0.00584441 -4.15311e-22)
(1.34012 0.873739 1.53768e-19)
(-1.13217 0.377602 1.43067e-18)
(0.37748 -0.349078 1.34932e-18)
(1.06237 -0.186141 -2.27683e-20)
(1.0516 0.0169314 3.93076e-20)
(0.705451 1.0762 -7.21416e-19)
(-1.94912 0.34298 3.96732e-18)
(0.460477 -0.925964 1.89878e-19)
(0.959885 -0.304092 2.28962e-19)
(1.18769 0.0259836 3.14069e-20)
(0.252024 1.24755 9.32263e-19)
(-0.877535 0.276745 -4.65633e-18)
(0.534066 -1.15813 -7.50655e-19)
(0.861361 -0.413366 1.91199e-20)
(1.24728 0.00510386 -1.1756e-20)
(0.575013 1.402 1.56704e-19)
(0.478121 0.248882 1.9695e-19)
(0.934882 -1.26394 7.06885e-20)
(0.997077 -0.543633 -9.02181e-20)
(1.33081 -0.0345131 -2.7165e-20)
(-0.259944 0.0656665 -3.98125e-20)
(-0.432122 -0.187693 0)
(-0.165644 -0.101615 -1.00755e-19)
(0.127657 -0.0685645 5.7901e-20)
(0.378674 -0.0236465 -2.4597e-20)
(1.72918 0.634121 0)
(0.711691 0.212077 0)
(0.597729 -0.0801592 3.25315e-19)
(0.71422 -0.106096 1.99054e-19)
(0.681291 -0.0407089 2.18128e-20)
(0.745368 0.00687689 -1.29536e-19)
(0.814676 0.0029545 3.53245e-19)
(0.899987 0.0413556 -3.17108e-20)
(0.82281 0.0288686 4.01296e-19)
(1.12668 0.206508 2.22262e-19)
(1.69281 0.0449777 1.25674e-19)
(1.89763 0.095815 5.47948e-19)
(1.94346 0.199178 -9.85952e-19)
(2.32047 0.281518 4.40044e-19)
(2.26672 0.498241 7.23833e-19)
(0.96555 -0.523603 2.00829e-20)
(0.958152 -0.621991 -2.12001e-19)
(0.956241 -0.728647 -1.76539e-19)
(0.890678 -0.805916 1.06488e-19)
(0.550107 -0.642531 1.49555e-19)
(0.861228 -0.429895 1.09319e-19)
(0.805621 -0.50036 1.50122e-19)
(0.73117 -0.577309 -1.07667e-19)
(0.617709 -0.646199 1.57597e-19)
(0.344747 -0.522184 4.35608e-20)
(0.684157 -0.291772 -1.14693e-19)
(0.596302 -0.337633 -6.2876e-20)
(0.496172 -0.39465 1.01522e-20)
(0.377205 -0.444637 -4.76416e-20)
(0.175787 -0.357869 -1.44715e-19)
(0.573184 -0.0603491 -4.37558e-19)
(0.48705 -0.080798 -3.50112e-19)
(0.375785 -0.110268 2.85324e-19)
(0.246865 -0.14573 1.42813e-19)
(0.0760154 -0.136879 1.28566e-20)
(0.541521 0.150019 -1.35962e-19)
(0.454908 0.147434 -1.5515e-19)
(0.335916 0.14075 -3.88177e-20)
(0.195346 0.138073 5.38822e-20)
(0.0333863 0.100253 1.42628e-20)
(2.18667 -0.0231282 9.88363e-19)
(2.41482 -0.0956909 3.62285e-19)
(2.51218 -0.187335 -9.13116e-19)
(2.40096 -0.214618 -1.93965e-18)
(1.4915 -0.212907 1.51315e-19)
(2.11079 -0.128911 1.60073e-18)
(2.23507 -0.244781 2.09456e-18)
(2.27187 -0.373164 1.75236e-19)
(2.20564 -0.435674 3.06614e-19)
(1.44452 -0.406677 -2.05705e-19)
(1.84041 -0.300733 -4.05214e-18)
(1.89641 -0.423406 4.54434e-19)
(1.94402 -0.556953 1.29214e-18)
(1.90371 -0.640976 -5.09759e-19)
(1.2603 -0.563326 8.11591e-19)
(1.59215 -0.43211 9.9175e-19)
(1.61878 -0.538678 -2.61533e-18)
(1.62112 -0.666763 -3.00875e-18)
(1.56444 -0.76415 9.41322e-19)
(1.02399 -0.646383 6.22702e-19)
(1.29731 -0.500428 2.2419e-19)
(1.25268 -0.601009 2.91319e-19)
(1.24483 -0.73122 -4.65105e-19)
(1.19591 -0.827578 -5.64402e-19)
(0.769196 -0.672378 -5.39569e-21)
(1.06357 0.0499774 6.90223e-21)
(0.94906 0.0499815 1.68107e-21)
(1.12387 0.0768382 1.04521e-20)
(0.841562 -0.00888075 -2.6854e-19)
(1.15237 -0.229213 -2.21803e-20)
(1.07297 0.0513938 -2.28921e-21)
(0.942515 0.044962 2.19885e-20)
(1.12397 0.0953303 5.82998e-21)
(0.912947 0.0332984 2.38205e-19)
(1.03899 -0.115352 6.64202e-21)
(1.06993 0.0467153 -5.41802e-20)
(0.945064 0.0377235 -1.10159e-22)
(1.10691 0.100058 -5.58591e-21)
(0.910995 0.0500353 1.33185e-19)
(0.992929 -0.0537618 -2.76812e-19)
(1.05028 0.044445 6.39356e-20)
(0.967938 0.0299579 2.64376e-21)
(1.07383 0.10797 2.0201e-20)
(0.940903 0.075491 -6.99929e-20)
(0.888399 0.0534959 5.72558e-20)
(1.02275 0.0409279 1.57526e-20)
(0.997731 0.0246067 -2.2564e-20)
(1.04356 0.117214 3.22509e-20)
(0.95869 0.0971084 3.04287e-20)
(0.857472 0.15531 -1.77817e-20)
(0.888451 0.0336134 0)
(0.721717 0.0275903 8.4066e-21)
(0.613578 0.0209286 7.34054e-21)
(0.370759 -0.00938115 5.64306e-20)
(0.727598 -0.0576244 -1.81639e-19)
(1.03174 0.0718937 -6.23496e-20)
(0.958162 0.0684241 8.52591e-22)
(1.034 0.0778832 -6.97045e-20)
(0.831719 -0.011219 -1.59155e-19)
(1.08548 -0.211596 -1.92598e-19)
(1.01295 -0.069086 -4.20524e-20)
(1.10545 -0.0378996 6.07933e-19)
(1.2126 0.0361229 3.59675e-19)
(1.07837 0.0597545 2.86621e-20)
(0.840739 0.0326064 0)
(1.37198 -0.330194 4.10378e-19)
(1.49604 -0.290351 1.73352e-18)
(1.68977 -0.166602 -1.87366e-18)
(1.78812 -0.019641 -5.97766e-19)
(1.72617 0.0383165 4.53029e-19)
)
;

boundaryField
{
    left
    {
        type            fixedValue;
        value           uniform (1 0 0);
    }
    right
    {
        type            zeroGradient;
    }
    down
    {
        type            noSlip;
    }
    up
    {
        type            noSlip;
    }
    cylinder
    {
        type            noSlip;
    }
    defaultFaces
    {
        type            empty;
    }
}


// ************************************************************************* //
