/*--------------------------------*- C++ -*----------------------------------*\
  =========                 |
  \\      /  F ield         | OpenFOAM: The Open Source CFD Toolbox
   \\    /   O peration     | Website:  https://openfoam.org
    \\  /    A nd           | Version:  13
     \\/     M anipulation  |
\*---------------------------------------------------------------------------*/
FoamFile
{
    format      ascii;
    class       volScalarField;
    location    "76.6";
    object      p;
}
// * * * * * * * * * * * * * * * * * * * * * * * * * * * * * * * * * * * * * //

dimensions      [0 2 -2 0 0 0 0];

internalField   nonuniform List<scalar> 
440
(
-0.542465
-0.527443
-0.574698
-0.494611
-0.563203
-0.545047
-0.535812
-0.527562
-0.510749
-0.50122
-0.662411
-0.633076
-0.601616
-0.562456
-0.517338
-0.786995
-0.741597
-0.664752
-0.57228
-0.478595
-0.882529
-0.820908
-0.683647
-0.539401
-0.405759
-1.12897
-1.10311
-1.06816
-1.03249
-1.00509
-1.12111
-1.10532
-1.09142
-1.08562
-1.0972
-1.06607
-1.09429
-1.16567
-1.26854
-1.39024
-0.744214
-0.79417
-0.900129
-1.03751
-1.12799
-0.258297
-0.294511
-0.322541
-0.295399
-0.234075
-0.868995
-1.85424
-1.5247
0.136433
0.0126582
-0.751352
-1.736
-1.65439
0.0600166
-0.0168817
-0.60479
-1.49069
-1.60992
-0.00366062
-0.0273171
-0.413934
-1.19779
-1.43061
-0.0534466
-0.0281323
-0.200462
-0.992204
-1.23636
-0.0950301
-0.0334186
0.193354
-0.867245
-0.978321
-0.109959
-0.0368496
-0.0131311
-0.644672
-0.657162
-0.101413
-0.0318126
0.0177361
-0.409048
-0.454332
-0.134343
-0.0373561
0.0947608
-0.287775
-0.36202
-0.132687
-0.0515609
0.132361
-0.116937
-0.309889
-0.164046
-0.0577324
-0.173521
-0.303295
-0.435934
-0.590095
-0.646729
0.0543824
-0.0732812
-0.134059
-0.168031
-0.14903
0.198841
0.100293
0.038938
0.000907381
-0.0201045
0.292647
0.202479
0.130368
0.091531
0.066424
0.336655
0.246067
0.1704
0.132325
0.108506
1.02866
0.891543
0.717632
0.52161
0.300718
0.652067
0.501288
0.313935
0.101604
-0.134788
0.273691
0.117833
-0.0770064
-0.301257
-0.508835
-0.0437031
-0.205475
-0.401006
-0.612214
-0.771595
-0.266074
-0.421621
-0.600501
-0.786108
-0.888805
2.16162
2.19442
2.22639
2.24551
2.24714
1.98849
2.011
2.02955
2.03226
2.01451
1.7745
1.76825
1.74104
1.692
1.61823
1.52594
1.49517
1.43149
1.33803
1.2158
1.27893
1.18889
1.06797
0.923535
0.746704
1.89762
1.89152
1.87642
1.93678
2.03742
1.88898
1.88068
1.8611
1.91792
1.961
1.88136
1.86673
1.84285
1.88646
1.86283
1.87499
1.85038
1.82227
1.84241
1.71069
1.86989
1.83295
1.79984
1.79658
1.54837
1.86659
1.80554
1.7703
1.702
1.3655
1.86748
1.77542
1.75796
1.58396
1.39125
1.87263
1.76185
1.75087
1.52827
1.37807
1.86897
1.73745
1.74873
1.47909
1.36827
1.90788
1.72995
1.7488
1.45173
1.3774
1.00066
0.734624
0.41932
0.163856
-0.0309591
0.94337
0.754283
0.535137
0.351385
0.179551
0.955988
0.79369
0.625442
0.466787
0.32097
0.995286
0.843079
0.6931
0.545039
0.414739
1.02604
0.878388
0.7351
0.590093
0.461878
-1.88777
-1.6962
-1.48868
-1.31478
-1.20854
-1.97711
-1.88421
-1.71006
-1.55118
-1.43888
-1.90149
-1.8425
-1.71263
-1.57855
-1.45871
-1.74038
-1.68801
-1.61485
-1.52582
-1.43044
-1.57056
-1.54175
-1.50422
-1.457
-1.39808
-1.47262
-1.46213
-1.4293
-1.45964
-1.40122
-1.4339
-1.42885
-1.41594
-1.45821
-1.41641
-1.37162
-1.3711
-1.37474
-1.40029
-1.40613
-1.27129
-1.26487
-1.25898
-1.25666
-1.26086
-1.17726
-1.15962
-1.13369
-1.1056
-1.08475
-1.08741
-1.11575
-0.285121
0.268998
0.0818978
-1.11628
-1.2307
-0.21153
0.215298
0.0725163
-1.09875
-1.38512
-0.235205
0.188213
0.0686466
-0.943849
-1.58387
-0.657819
0.211902
0.0718325
-0.878289
-1.7699
-1.17318
0.196644
0.0484614
-0.671759
-1.18312
-0.392234
0.283352
0.0902101
-1.02036
-1.12375
-0.248784
0.310899
0.0910974
-1.14825
-1.35174
-1.36027
-1.25476
-1.0231
-1.17025
-1.37593
-1.37387
-1.30488
-1.22637
1.71071
1.67791
1.62554
1.55476
1.46169
1.92222
1.93845
1.93719
1.91644
1.8768
2.10465
2.13523
2.15655
2.1642
2.15674
2.21462
2.25369
2.29486
2.32791
2.34214
2.23419
2.27278
2.31601
2.35251
2.36963
-0.696435
-0.823497
-1.02233
-1.25737
-1.54847
-0.028485
-0.185118
-0.392467
-0.643095
-0.973477
0.586842
0.4267
0.233376
0.00383147
-0.292104
1.08233
0.95551
0.802137
0.616043
0.385851
1.47716
1.38819
1.27218
1.13242
0.965993
1.9558
1.91622
1.89823
1.8946
1.88959
1.94116
1.91447
1.89932
1.91639
1.96612
1.92884
1.91137
1.90056
1.93982
2.05277
1.9175
1.90685
1.89633
1.9491
2.07185
1.90709
1.90058
1.88806
1.94824
2.07305
2.01026
1.92003
1.88243
1.81138
1.74958
1.96552
1.91177
1.87871
1.83568
1.76132
1.34922
1.09392
0.657498
0.0277074
-0.655756
1.44068
1.13253
0.675291
0.0495283
-0.649109
)
;

boundaryField
{
    left
    {
        type            zeroGradient;
    }
    right
    {
        type            fixedValue;
        value           uniform 0;
    }
    down
    {
        type            zeroGradient;
    }
    up
    {
        type            zeroGradient;
    }
    cylinder
    {
        type            zeroGradient;
    }
    defaultFaces
    {
        type            empty;
    }
}


// ************************************************************************* //
