/*--------------------------------*- C++ -*----------------------------------*\
  =========                 |
  \\      /  F ield         | OpenFOAM: The Open Source CFD Toolbox
   \\    /   O peration     | Website:  https://openfoam.org
    \\  /    A nd           | Version:  13
     \\/     M anipulation  |
\*---------------------------------------------------------------------------*/
FoamFile
{
    format      ascii;
    class       surfaceScalarField;
    location    "7.505";
    object      phi;
}
// * * * * * * * * * * * * * * * * * * * * * * * * * * * * * * * * * * * * * //

dimensions      [0 3 -1 0 0 0 0];

internalField   nonuniform List<scalar> 
823
(
0.00547881
0.0122177
-0.0176965
0.0315026
0.00200932
-0.0280331
0.0948155
-0.0415986
-0.0217143
0.190966
-0.106475
0.0103251
-0.134433
0.00355922
0.32184
0.00679728
0.0054204
0.0567936
-0.047987
0.153328
-0.138133
0.264935
-0.218082
-0.288794
0.419296
0.0239188
-0.0184984
0.11297
-0.137038
0.228177
-0.25334
0.339982
-0.329887
-0.375897
0.427084
0.046832
-0.0653304
0.146637
-0.236843
0.232601
-0.339304
0.285135
-0.382421
-0.39322
0.302459
0.0603662
-0.125697
0.132616
-0.309093
0.172551
-0.379239
0.186961
-0.39683
0.197183
-0.403443
-0.0235574
0.0144877
0.00906969
-0.0617233
0.00755053
0.0306154
-0.102021
0.00180592
0.0384917
-0.140023
-0.00249918
0.040501
-0.010376
-0.173311
0.0436645
-0.0183684
0.0328561
-0.0513065
0.0404887
-0.0875787
0.0380781
-0.122592
0.0325143
0.0201669
-0.153135
-0.0071167
0.0399728
-0.0245687
0.0579407
-0.0444061
0.0579154
-0.0627969
0.0509051
0.0376722
-0.0803022
0.0131611
0.0268117
0.0264563
0.0446455
0.0383038
0.0460679
0.0526744
0.0365346
0.0322777
0.0580689
0.00911524
0.0257276
0.0500812
0.0969409
0.132778
0.0329541
-0.822746
0.616481
0.348423
-0.545702
0.230234
0.136075
1.43938
-1.22703
0.184005
0.708381
-0.756312
-0.548815
0.350636
-0.0216596
-0.954222
0.271754
-0.839116
0.214633
1.4965
0.299815
0.623199
-0.7328
-0.102627
-0.931897
0.0885079
-1.03025
0.2746
1.31041
0.453455
0.444345
-0.883347
-0.0385939
-0.835234
-0.0893988
-0.979446
0.257216
0.963796
0.633645
0.0679154
-0.978218
0.193302
-0.895759
-0.0555665
-0.730578
0.250627
0.657603
0.737921
-0.419379
-1.04684
1.15208
-0.864758
-1.18308
0.670079
-0.248572
0.853093
0.474589
1.33961
-0.905897
-0.997989
1.21586
-0.657217
-1.4234
1.01336
-0.0460668
1.30273
0.18522
1.41046
-1.01363
-0.811899
1.14872
-0.415726
-1.39021
1.09652
0.00613492
1.4027
-0.120961
1.20365
-0.814579
-0.512245
1.06545
-0.188534
-1.29265
1.10406
-0.0324696
1.21258
-0.229479
0.819269
-0.421272
-0.176019
0.683211
-0.871745
0.650741
0.421262
-9.38575e-06
1.11903
0.162205
-1.08405
1.2017
0.219794
1.30174
0.327039
1.3146
0.406441
0.453351
1.03328
0.101037
-0.972112
1.11118
0.14189
1.20753
0.230697
1.32335
0.290617
0.353297
0.984651
0.0508248
-0.934439
1.04021
0.0863334
1.13333
0.137571
1.25172
0.17223
0.214808
0.912416
0.0154002
-0.876992
0.966433
0.0323168
1.05228
0.05172
1.16028
0.0642337
0.082442
0.641032
-0.625632
0.673349
0.725069
0.789302
0.143897
0.30292
-0.246605
-0.200212
0.0960789
0.307975
-0.260157
0.053985
0.318489
-0.276396
0.0188142
0.310226
-0.275055
0.201073
-0.182258
0.102629
0.339331
-0.139041
0.0664858
0.344118
0.034131
0.350844
0.00822452
0.336133
0.209297
0.0721096
0.37608
-0.108859
0.038399
0.377829
0.00984785
0.379395
-0.00571925
0.3517
0.203578
-0.01116
0.39206
-0.00481929
-0.0277971
0.394466
-0.0358145
0.387413
-0.0278688
0.343754
0.175709
-0.0904824
0.0790992
-0.0928472
-0.0846737
-0.0500125
0.196749
0.105939
-0.24952
-0.053168
0.143321
0.110283
-0.0568548
0.088875
0.115047
-0.060601
0.0360412
0.115057
-0.062223
0.0820218
-0.0459806
0.193529
0.149425
-0.237014
0.14734
0.156472
0.09563
0.166757
0.0405685
0.170118
0.12259
0.138491
0.194313
-0.183379
0.0971072
0.197855
0.0578959
0.205969
0.0211502
0.206864
0.14374
0.156113
0.225998
-0.187799
0.116834
0.237134
0.071966
0.250837
0.0281651
0.250665
0.171906
0.0833247
-0.103931
0.0603023
0.0347435
0.0103529
0.404594
0.0785609
-0.0871753
0.422538
0.0217775
-0.0397218
0.411609
0.182778
-0.171849
0.393076
0.214565
-0.196031
0.477481
-0.333925
0.401926
0.0726149
0.417445
0.00625787
0.40262
0.197603
0.381305
0.235879
0.621772
0.396258
0.0723369
0.412701
-0.010186
0.382421
0.227883
0.368997
0.249304
0.807389
0.393697
0.0746199
0.400489
-0.016978
0.371416
0.256955
0.342351
0.27837
0.961941
0.387638
0.0829618
0.391337
-0.0206775
0.340243
0.308049
0.316693
0.30192
1.1747
0.628006
0.0589759
0.660891
-0.0535624
0.694005
0.274936
0.765576
0.230349
0.935905
1.00437
0.645982
0.0170143
0.662075
-0.0696555
0.719599
0.217412
0.754078
0.19587
0.674302
1.01568
0.653214
-0.0321791
0.652947
-0.0693886
0.702605
0.167754
0.771572
0.126902
0.411882
1.03399
0.636485
-0.0646433
0.618487
-0.051391
0.709286
0.0769547
0.806292
0.0298963
0.175049
1.04313
0.539377
0.487986
0.564941
0.594837
0.769886
1.03868
-0.234517
1.02787
-0.128234
1.03804
-0.11903
1.03378
-0.000550642
0.0288221
0.966648
-0.185484
0.955222
-0.116808
0.935458
-0.0992661
0.950658
-0.0157506
0.00736784
0.970113
-0.121604
0.949203
-0.0958983
0.917291
-0.067354
0.929723
-0.028183
0.00265207
0.97249
-0.0509689
0.920756
-0.044165
0.883445
-0.0300427
0.873174
-0.0179126
-0.00116506
0.718917
0.674752
0.644709
0.626797
0.0525303
0.144255
-0.196785
0.0789958
0.326606
-0.353072
0.0798837
0.38398
-0.384868
0.0689244
0.388819
-0.37786
0.357204
0.0564107
-0.34469
0.0759872
0.068268
0.154385
0.248209
0.191849
0.346516
0.196414
0.384254
0.381651
0.171967
0.0608051
0.00746291
0.184058
0.124956
0.286685
0.243889
0.360698
0.310241
0.371419
0.37093
0.0268631
-0.0194002
0.129969
0.0218495
0.261574
0.112285
0.391344
0.180471
0.252951
0.509812
0.00296175
-0.022362
0.0487453
-0.023934
0.151123
0.00990717
0.280295
0.051298
0.09573
0.437517
-0.00975978
-0.0126022
-0.0059692
-0.0277246
0.0355682
-0.0316302
0.111553
-0.0246868
-0.00295246
0.210235
-0.00321234
-0.00938986
0.00134037
-0.0322773
0.0199581
-0.0502479
0.0545183
-0.0592471
-0.0591441
0.11071
0.00767778
-0.0170676
0.0252005
-0.0498001
0.0455631
-0.0706105
0.0654511
-0.0791351
-0.0797914
0.0860984
0.00473478
-0.0218024
0.0102488
-0.0553141
0.00992604
-0.0702877
0.00429677
-0.0735058
-0.0723115
-0.00318316
-0.0127327
-0.0374315
-0.0692275
-0.102232
-0.130879
0.487789
0.403818
-0.681371
0.509687
0.486236
-0.508134
0.374394
0.33863
-0.203337
0.187627
0.287934
-0.101167
0.0066382
0.0308286
0.483727
0.0308007
0.530306
0.439657
0.348746
0.52019
0.145613
0.491068
0.0188044
0.344712
-0.227813
0.478826
0.305543
0.265051
0.733965
0.102663
0.653455
-0.0358061
0.181347
-0.412344
0.411951
0.0749395
0.175621
0.970295
0.0850432
0.744033
-0.166543
0.0732581
0.378431
0.121693
0.109414
0.140582
0.53034
-0.670923
-0.0916368
0.232219
-0.0684876
-0.0231492
0.0169821
-0.0854697
-0.0623114
0.959878
-1.11091
0.683963
0.457476
0.27084
0.0895689
-0.0160102
-0.0735588
0.145075
-0.055506
0.266216
-0.121141
0.447746
-0.181531
-0.223176
0.202037
-0.161637
0.318498
0.568287
0.896568
0.142604
-0.137782
0.168339
-0.173161
0.109126
-0.142946
0.176423
0.0706086
-0.149726
0.188244
0.0288161
-0.148946
0.190738
-0.103308
0.132124
0.181461
-0.0980862
-0.221157
0.136948
-0.0984327
0.0868715
-0.0996498
0.0357543
-0.0978288
-0.0675532
0.18559
-0.0484809
-0.235195
0.134883
-0.0477263
0.0834954
-0.0482618
0.0338363
-0.0481696
-0.0337169
0.199662
0.00266403
-0.250807
0.147909
0.00402626
0.0944505
0.00519709
0.0398216
0.00645932
0.00610464
0.203872
-0.254376
0.151043
0.0956396
0.0398759
0.0381545
-0.322658
-0.0601866
0.0135958
-0.353301
-0.00894591
-0.362326
-0.0175549
-0.344463
-0.21434
0.124111
-0.291292
-0.155477
0.0798556
-0.309046
0.0378186
-0.320289
0.00687082
-0.313515
-0.20747
0.141333
-0.250899
-0.181726
0.0998325
-0.267545
0.0585115
-0.278968
0.0206158
-0.27562
-0.186854
0.163935
-0.215812
-0.199021
0.120049
-0.22366
0.0730383
-0.231957
0.0287703
-0.231352
-0.158083
0.157523
-0.204996
0.110286
0.0665728
0.0259598
0.385273
0.110047
-0.0993409
0.388792
0.0844032
-0.0879217
0.356378
0.157808
-0.125395
0.302885
0.0628839
-0.00939103
-0.208825
0.338549
0.393345
0.112682
0.401369
0.0763789
0.394972
0.164206
0.348182
0.109674
-0.0817992
0.400017
0.108645
0.41104
0.0653563
0.408314
0.166932
0.37219
0.145797
0.0551957
0.405874
0.0987499
0.417668
0.053563
0.416721
0.167878
0.389591
0.172927
0.19398
0.407554
0.421395
0.417425
0.394321
0.415372
0.0946788
0.333097
0.0822756
0.243648
0.0894481
0.246048
-0.00239954
-0.18345
0.429498
0.505389
0.499743
0.463796
0.452005
0.607104
0.343716
0.0857814
0.267654
0.0760627
0.178698
0.0889552
0.103555
0.0751437
0.029996
0.487889
0.364931
0.272161
0.191828
)
;

boundaryField
{
    left
    {
        type            calculated;
        value           nonuniform List<scalar> 
17
(
-0.60402
-0.60402
-0.60402
-0.60402
-0.60402
-0.39598
-0.39598
-0.39598
-0.39598
-0.39598
-0.39598
-0.39598
-0.39598
-0.39598
-0.39598
-0.510051
-0.510051
)
;
    }
    right
    {
        type            calculated;
        value           nonuniform List<scalar> 
17
(
0.0792935
0.239357
0.15016
0.133446
0.157274
0.21578
0.293507
0.382185
0.483799
0.604002
0.728516
0.80654
1.29076
1.22437
0.903994
0.483042
-0.176028
)
;
    }
    down
    {
        type            calculated;
        value           uniform 0;
    }
    up
    {
        type            calculated;
        value           uniform 0;
    }
    cylinder
    {
        type            calculated;
        value           uniform 0;
    }
    defaultFaces
    {
        type            empty;
    }
}


// ************************************************************************* //
