/*--------------------------------*- C++ -*----------------------------------*\
  =========                 |
  \\      /  F ield         | OpenFOAM: The Open Source CFD Toolbox
   \\    /   O peration     | Website:  https://openfoam.org
    \\  /    A nd           | Version:  13
     \\/     M anipulation  |
\*---------------------------------------------------------------------------*/
FoamFile
{
    format      ascii;
    class       volScalarField;
    location    "8";
    object      p;
}
// * * * * * * * * * * * * * * * * * * * * * * * * * * * * * * * * * * * * * //

dimensions      [0 2 -2 0 0 0 0];

internalField   nonuniform List<scalar> 
440
(
-1.05952
-1.03779
-1.03863
-1.02697
-1.10889
-1.10828
-1.0848
-1.06158
-1.04124
-1.02497
-1.22852
-1.18939
-1.14196
-1.0848
-1.02601
-1.35757
-1.30249
-1.19824
-1.07751
-0.956885
-1.43543
-1.35911
-1.19127
-1.02032
-0.866726
-0.561503
-0.574051
-0.603265
-0.643129
-0.671331
-0.827503
-0.840871
-0.875819
-0.930949
-0.986681
-1.00168
-1.01094
-1.03951
-1.08986
-1.15482
-1.06649
-1.06319
-1.07256
-1.10053
-1.15223
-1.03797
-1.0216
-1.00818
-0.998824
-1.0279
-0.531743
-0.000601338
0.0300194
-0.0261792
-0.0643426
-0.80754
-0.0597623
0.283088
-0.05813
-0.177083
-1.09731
-0.132847
0.658705
-0.072349
-0.288192
-1.1844
-0.150781
0.864991
-0.0299197
-0.347364
-1.14907
-0.0212111
0.879802
0.0932589
-0.309222
-0.914541
0.268252
0.805807
0.215381
-0.215741
-0.52748
0.397729
0.555172
0.151806
-0.0994239
-0.340528
0.355188
0.692287
0.24911
-0.0217734
-0.187365
0.314696
0.770208
0.315059
-0.0352705
-0.100942
0.283809
0.792914
0.465844
0.00927403
-0.607426
-0.731332
-0.908362
-1.08137
-1.24294
-0.344966
-0.47457
-0.571237
-0.639503
-0.6772
-0.162708
-0.277741
-0.342973
-0.390354
-0.41575
-0.0541599
-0.155121
-0.216499
-0.251112
-0.259509
-0.00256884
-0.100911
-0.160625
-0.188167
-0.181108
0.867071
0.706071
0.500972
0.273339
0.0264896
0.414806
0.244953
0.0402142
-0.192671
-0.458933
-0.0248134
-0.19671
-0.41298
-0.653179
-0.907315
-0.414391
-0.590214
-0.80932
-1.04396
-1.24161
-0.680956
-0.85922
-1.06467
-1.2803
-1.41062
2.06621
2.09315
2.11551
2.12301
2.11329
1.84699
1.86338
1.87266
1.86379
1.83291
1.60788
1.5898
1.54745
1.48145
1.38739
1.33794
1.29975
1.22394
1.11576
0.976947
1.09931
0.986353
0.841691
0.677376
0.477055
1.8637
1.85428
1.83501
1.90505
1.96758
1.85178
1.84004
1.81077
1.87617
1.85944
1.84082
1.823
1.78456
1.83484
1.72554
1.83118
1.80298
1.75663
1.77898
1.53545
1.82296
1.78327
1.72743
1.72404
1.33518
1.8158
1.74783
1.69051
1.61185
1.11276
1.81213
1.71257
1.67235
1.50061
1.22944
1.81885
1.6902
1.65279
1.44592
1.26908
1.81094
1.66385
1.64431
1.3954
1.2789
1.84878
1.65611
1.64141
1.36286
1.28184
0.831768
0.500087
0.133375
-0.196468
-0.409264
0.710897
0.481499
0.231418
0.00505079
-0.189136
0.693266
0.505222
0.31584
0.142091
-0.0299119
0.743511
0.561199
0.384956
0.224408
0.0706873
0.772648
0.591239
0.42129
0.266433
0.119499
-0.576138
-0.471599
-0.334877
-0.225911
-0.161012
-0.615598
-0.565011
-0.466591
-0.388707
-0.346581
-0.532013
-0.489301
-0.438072
-0.401733
-0.384949
-0.393449
-0.361027
-0.329939
-0.309244
-0.299975
-0.296828
-0.279851
-0.261388
-0.246487
-0.266183
-0.23943
-0.232278
-0.216523
-0.202603
-0.189342
-0.238002
-0.232197
-0.220568
-0.209199
-0.206287
-0.25797
-0.251869
-0.245643
-0.238999
-0.230952
-0.281917
-0.279681
-0.278044
-0.275743
-0.270062
-0.344919
-0.348897
-0.361676
-0.377344
-0.382773
-0.228388
-0.0474059
-0.0138651
0.146958
0.0822241
-0.194541
0.0187135
-0.00257747
0.147973
0.0875177
-0.209675
0.0619456
-0.00509515
0.125017
0.0799821
-0.253681
0.106006
-0.0154394
0.0781541
0.0585808
-0.342342
0.0732942
-0.0161641
0.023768
0.0130029
0.075719
-0.1345
-0.126601
0.0966767
0.070041
-0.152526
-0.146902
-0.0646908
0.13695
0.0850044
-0.124038
-0.335992
-0.378082
-0.335773
-0.149108
-0.139679
-0.334059
-0.385368
-0.31813
-0.320578
1.91012
1.89694
1.8687
1.82667
1.77062
2.05602
2.07978
2.09033
2.08636
2.06869
2.17218
2.20692
2.23511
2.25246
2.25648
2.22398
2.2628
2.30332
2.33622
2.35181
2.18605
2.22089
2.259
2.29014
2.30345
0.204404
0.118939
-0.0159033
-0.181315
-0.356566
0.695424
0.582564
0.430977
0.249706
0.0337101
1.13134
1.01334
0.872759
0.708139
0.510927
1.47544
1.38694
1.27818
1.14644
0.991171
1.7483
1.68917
1.61121
1.51759
1.40883
1.9356
1.897
1.89691
1.9291
1.98229
1.91884
1.89156
1.89121
1.93692
2.01789
1.90389
1.88475
1.88434
1.94491
2.0657
1.88972
1.87663
1.87222
1.94145
2.058
1.87629
1.86678
1.85528
1.92833
2.02918
1.9934
1.90788
1.89316
1.87018
1.88027
1.94759
1.89686
1.8853
1.8863
1.8912
1.65195
1.48955
1.18661
0.732728
0.229417
1.71741
1.51194
1.19776
0.749205
0.236982
)
;

boundaryField
{
    left
    {
        type            zeroGradient;
    }
    right
    {
        type            fixedValue;
        value           uniform 0;
    }
    down
    {
        type            zeroGradient;
    }
    up
    {
        type            zeroGradient;
    }
    cylinder
    {
        type            zeroGradient;
    }
    defaultFaces
    {
        type            empty;
    }
}


// ************************************************************************* //
