/*--------------------------------*- C++ -*----------------------------------*\
  =========                 |
  \\      /  F ield         | OpenFOAM: The Open Source CFD Toolbox
   \\    /   O peration     | Website:  https://openfoam.org
    \\  /    A nd           | Version:  13
     \\/     M anipulation  |
\*---------------------------------------------------------------------------*/
FoamFile
{
    format      ascii;
    class       volVectorField;
    location    "8";
    object      U;
}
// * * * * * * * * * * * * * * * * * * * * * * * * * * * * * * * * * * * * * //

dimensions      [0 1 -1 0 0 0 0];

internalField   nonuniform List<vector> 
440
(
(-0.0754348 0.0595086 -7.5503e-20)
(-0.0738909 0.106102 3.77055e-20)
(0.0831767 0.0965148 3.19569e-20)
(0.546502 0.0902271 3.08645e-19)
(0.575217 0.170846 3.08883e-21)
(-0.069304 0.0368222 3.17333e-20)
(0.11623 -0.00901292 -1.40493e-19)
(0.641254 -0.0564989 -1.01697e-19)
(1.2125 -0.0907556 3.64329e-20)
(1.7238 -0.102288 -9.42387e-21)
(0.00723478 -0.00656309 4.70439e-20)
(0.60206 -0.0638695 8.46019e-19)
(1.41471 -0.0583922 -5.27087e-19)
(2.00343 -0.0299149 -1.54545e-18)
(2.50802 -0.0208371 6.56723e-19)
(0.246321 -0.0553655 -1.77853e-19)
(1.32456 -0.0062091 -6.36645e-19)
(2.097 0.0557026 1.9875e-18)
(2.50825 0.0846239 2.2037e-18)
(2.54477 0.0964741 -5.88459e-19)
(0.637378 -0.0028887 -3.18059e-19)
(1.85881 0.181522 -6.96619e-19)
(2.38503 0.247696 2.13996e-18)
(2.49063 0.254428 2.20727e-18)
(2.57684 0.225796 7.35899e-19)
(-0.0437344 0.291025 2.5984e-19)
(-0.161941 0.346195 1.63338e-19)
(-0.268041 0.305507 -5.2169e-19)
(-0.357514 0.244898 6.67775e-20)
(-0.403989 0.156387 2.37666e-19)
(-0.0850738 0.385896 -5.88553e-20)
(-0.157907 0.52614 -4.2306e-19)
(-0.206705 0.499349 8.39534e-20)
(-0.247802 0.427807 8.63048e-20)
(-0.256421 0.324617 -1.6895e-19)
(-0.117936 0.348002 -2.81504e-19)
(-0.162007 0.568674 2.80713e-19)
(-0.15393 0.589961 -1.11568e-19)
(-0.120508 0.539512 -8.82228e-19)
(-0.0807097 0.453838 9.31761e-21)
(-0.0942014 0.200857 -1.10592e-20)
(-0.119711 0.414195 -1.78268e-20)
(-0.0770212 0.483494 7.93095e-20)
(0.00901275 0.477059 5.90076e-19)
(0.0738187 0.447783 -1.32823e-19)
(-0.0711469 0.0884748 -3.87746e-20)
(-0.115263 0.208356 -5.27957e-20)
(-0.0888913 0.263029 -7.7367e-20)
(0.0580019 0.265308 -5.18193e-20)
(0.126199 0.332769 -4.05969e-19)
(-0.362287 -0.435441 -1.71162e-18)
(-0.0249463 -0.760542 4.36095e-19)
(1.0351 0.46728 -4.35559e-19)
(-0.103366 0.684216 -3.63509e-19)
(0.769263 0.00105106 -2.88167e-19)
(0.0542078 -0.42097 2.01708e-18)
(-0.51206 -0.926128 -1.38656e-19)
(0.905689 0.476302 -8.52241e-20)
(-0.124694 0.699798 1.73535e-19)
(0.974798 -0.138586 6.20809e-19)
(0.518988 -0.338501 7.92079e-19)
(-0.0776788 -1.08315 6.05231e-19)
(1.02762 0.340687 2.67091e-20)
(0.0870994 0.672684 -9.16829e-20)
(1.26144 -0.289774 2.48128e-20)
(1.14113 -0.309348 -1.12898e-19)
(1.11402 -1.09142 -3.06853e-19)
(0.675822 0.269339 3.68984e-19)
(0.446932 0.666446 4.98862e-19)
(1.5942 -0.412757 6.27872e-20)
(1.50736 -0.496765 -2.19633e-19)
(1.93778 -0.931479 7.16734e-19)
(-0.383829 0.276516 0)
(1.19243 0.459025 -4.79802e-19)
(1.90253 -0.501551 -1.42978e-19)
(1.85566 -0.521008 -5.73122e-19)
(2.60809 -0.681508 1.33401e-19)
(0.0664275 0.247362 3.52817e-21)
(1.96636 0.000640089 -1.84374e-19)
(2.11605 -0.566683 4.94778e-19)
(2.40389 -0.596593 6.82186e-20)
(2.02671 -0.45428 1.7986e-19)
(0.752093 0.43386 5.95081e-21)
(2.44344 -0.227374 5.99965e-20)
(2.11203 -0.521275 0)
(2.35582 -0.40068 -5.8567e-19)
(1.65693 -0.119601 2.40584e-20)
(1.36078 0.181926 2.87624e-19)
(2.4847 -0.426997 -1.42433e-19)
(1.70484 -0.417502 8.4601e-20)
(2.06906 -0.280012 2.53462e-20)
(1.39163 -0.0709939 1.14438e-19)
(1.72715 0.0109132 -2.5735e-23)
(1.96557 -0.384724 1.16198e-33)
(0.972045 -0.260074 -1.63254e-20)
(1.1636 -0.0465279 1.23332e-19)
(0.81519 0.008548 -1.79554e-20)
(1.03691 -0.105133 -3.29338e-20)
(0.44234 -0.0628072 8.7655e-20)
(-0.207805 0.0209211 -3.93734e-20)
(2.43991 0.240441 -8.89025e-19)
(2.66701 0.00564376 -1.18739e-18)
(2.4945 0.0682116 8.76931e-19)
(2.7834 -0.170155 7.44873e-20)
(2.15596 0.0547009 -2.54226e-20)
(2.14263 0.185566 6.8666e-20)
(2.46612 -0.042772 -4.16324e-20)
(2.28392 0.0292903 -1.49317e-19)
(2.5297 -0.202409 -2.24523e-19)
(2.38271 -0.175391 -8.40643e-21)
(2.12847 0.0804405 7.83614e-20)
(2.26877 -0.029766 1.02709e-19)
(2.23131 -0.0385215 -1.4464e-19)
(2.30578 -0.137428 5.08546e-20)
(2.30306 -0.172902 2.87212e-20)
(2.09836 0.00689468 1.17089e-19)
(2.08014 -0.0432315 1.33069e-19)
(2.1648 -0.0538373 -1.84242e-20)
(2.12244 -0.103656 -1.11857e-20)
(2.20132 -0.120587 2.46446e-20)
(1.49801 -0.0116707 1.73866e-19)
(1.41828 -0.0132171 -1.26031e-20)
(1.50148 -0.0251007 2.38366e-20)
(1.3902 -0.022372 -1.59614e-20)
(1.48705 -0.0431076 2.79087e-20)
(1.59229 0.839782 1.18307e-18)
(1.54485 0.940529 -3.84089e-19)
(1.54441 1.0753 -1.4192e-18)
(1.47578 1.12401 7.63516e-19)
(0.905399 0.807618 -1.77441e-19)
(1.88149 0.808976 -6.07169e-19)
(1.84638 0.883748 -3.1327e-18)
(1.85458 0.989562 -1.19792e-18)
(1.7666 1.00361 -4.28064e-19)
(1.08217 0.708517 -6.92245e-19)
(2.1977 0.66979 7.776e-19)
(2.17533 0.741487 2.09875e-19)
(2.14512 0.834044 -2.31959e-18)
(2.01443 0.824506 -6.6454e-19)
(1.20073 0.555761 5.11405e-19)
(2.36874 0.55785 2.34972e-18)
(2.35039 0.607507 1.73676e-18)
(2.35134 0.661777 -2.03349e-18)
(2.14165 0.622969 -1.54119e-18)
(1.18897 0.370996 -2.97561e-19)
(2.51771 0.390415 1.16968e-18)
(2.53571 0.415343 -8.63942e-19)
(2.43466 0.445162 6.01686e-19)
(2.11104 0.396114 5.0397e-19)
(1.01334 0.168003 -4.35668e-19)
(0.566923 0.504197 -6.10512e-19)
(0.474997 0.543065 -4.43643e-19)
(0.358155 0.581302 4.44114e-20)
(0.224333 0.5851 4.51666e-21)
(0.0557853 0.420776 9.55553e-20)
(0.68579 0.663171 1.33998e-19)
(0.622519 0.721943 -2.88696e-19)
(0.53456 0.789689 1.95138e-19)
(0.409342 0.849988 -9.06253e-20)
(0.180645 0.648926 1.27572e-19)
(0.770873 0.867643 9.81451e-20)
(0.699488 0.952643 5.0669e-19)
(0.648393 1.05074 1.24842e-19)
(0.568613 1.08497 -3.25806e-19)
(0.314214 0.79598 2.74196e-19)
(1.06956 0.923015 2.47008e-19)
(1.02006 1.00305 -7.50274e-19)
(0.968162 1.10106 -2.01817e-18)
(0.886889 1.16996 8.04845e-19)
(0.523855 0.869641 -1.68867e-19)
(1.11897 0.979891 -1.0669e-19)
(1.16202 1.10163 -1.85831e-19)
(1.19227 1.2133 -3.83111e-19)
(1.14121 1.22962 -4.29997e-19)
(0.702829 0.876374 -6.84203e-21)
(1.01163 0.0597033 -1.06571e-19)
(0.988502 0.033195 -3.92733e-20)
(1.03765 0.133648 -1.6029e-21)
(0.945039 0.148361 -3.03637e-19)
(0.897316 0.307839 3.2769e-19)
(0.999548 0.058524 6.76804e-20)
(1.00132 0.0291931 1.39834e-19)
(1.02777 0.142594 1.44655e-19)
(0.987728 0.173812 4.4299e-20)
(0.938024 0.391028 -2.65772e-20)
(1.00361 0.0579985 9.28542e-20)
(0.987807 0.0219687 -5.35154e-21)
(1.07386 0.160573 -6.28318e-21)
(0.946543 0.171648 1.6269e-19)
(1.15502 0.538156 -5.30932e-19)
(0.996834 0.0586616 -3.45946e-22)
(1.0079 0.0101556 -1.93338e-19)
(1.07065 0.176748 -7.24883e-20)
(1.04839 0.172799 -4.06985e-19)
(1.16728 0.59381 9.92778e-20)
(0.992099 0.0518816 -1.61477e-20)
(1.01455 0.0107082 5.80952e-20)
(1.1253 0.176409 3.40419e-20)
(1.02287 0.204933 4.89761e-19)
(1.39668 0.724098 -5.07128e-19)
(0.951765 0.0543113 -1.03028e-20)
(1.0942 -0.0188661 1.19126e-19)
(1.1087 0.207316 -8.02701e-20)
(1.2757 0.12024 9.84e-19)
(1.30155 0.78056 -3.76888e-19)
(0.895837 0.022624 -1.60093e-21)
(1.19398 -0.0267847 -1.02501e-19)
(1.03845 0.127832 5.12916e-21)
(1.39315 0.129031 -2.95142e-19)
(1.2062 0.546146 -6.8614e-20)
(0.948064 0.0120867 -3.60851e-21)
(1.16523 -0.0419682 1.56854e-35)
(1.07196 0.100773 -3.12554e-20)
(1.28043 0.109049 9.17934e-20)
(1.32485 0.374923 1.92039e-19)
(1.07381 -0.0408902 4.37704e-21)
(1.00765 -0.0502989 -3.00484e-20)
(1.1254 0.0627138 1.90028e-20)
(1.13885 0.0661555 2.58659e-20)
(1.55761 0.223793 -2.96775e-19)
(0.995068 -0.0239872 -4.15237e-20)
(0.766278 -0.0213555 -4.50123e-21)
(0.891662 0.0137449 2.33091e-20)
(0.872288 -0.000106016 -1.89117e-20)
(1.20682 0.0472429 -6.80244e-20)
(1.85714 0.613289 3.05966e-19)
(1.92989 0.655251 7.75331e-19)
(2.21715 0.497257 -1.11379e-18)
(2.25861 0.482831 -2.06677e-20)
(2.49365 0.26505 5.00832e-19)
(1.78463 0.376285 9.81611e-20)
(1.75556 0.433873 1.06351e-18)
(2.0588 0.300962 1.3632e-19)
(1.97258 0.332025 -9.75609e-19)
(2.30632 0.130256 -2.93066e-19)
(1.72667 0.27584 -2.53179e-19)
(1.79922 0.26867 -1.6182e-19)
(1.96833 0.196266 1.7392e-19)
(1.98348 0.187172 -3.06249e-19)
(2.15942 0.0820828 2.77165e-19)
(1.74147 0.143572 4.13029e-19)
(1.86123 0.12089 -5.0034e-21)
(1.89398 0.081637 2.35104e-19)
(1.99733 0.0662794 2.02876e-19)
(2.00495 0.0178485 -1.92375e-19)
(1.35803 0.0280212 -5.04208e-20)
(1.42652 0.0183844 2.62465e-19)
(1.42167 0.0105609 1.16048e-19)
(1.47641 0.0027023 -2.29517e-19)
(1.43093 -0.00325045 3.15639e-22)
(1.08567 -0.0213274 4.91405e-20)
(2.09234 -0.0523901 -3.78696e-19)
(2.33349 -0.0425968 1.07171e-18)
(2.31093 -0.00204361 4.75501e-19)
(2.18133 0.0286441 -3.26416e-19)
(0.65464 0.087206 8.39263e-20)
(1.86352 0.0706467 -3.87365e-19)
(2.33972 0.072478 -5.08569e-19)
(2.421 0.081767 6.06732e-19)
(2.13904 0.0726532 -3.64638e-19)
(0.179907 0.0644535 -2.85585e-20)
(1.21607 0.126226 3.92978e-19)
(1.98215 0.141655 5.54496e-20)
(2.37784 0.133556 2.72942e-19)
(2.60876 0.13001 9.08048e-20)
(-0.0571514 -0.0347076 1.7766e-19)
(0.395285 0.0490384 1.71454e-19)
(1.18194 0.117095 -3.44677e-19)
(1.68463 0.142684 1.55191e-20)
(2.26721 0.172881 -5.34031e-20)
(-0.108259 -0.0883011 1.21319e-19)
(-0.0447162 -0.0741694 -1.30477e-19)
(0.357573 -0.00350282 -2.4638e-20)
(0.833735 0.0254445 2.97578e-20)
(1.20289 0.06459 -4.43309e-20)
(-0.0759499 -0.0718149 6.02855e-21)
(-0.142687 -0.105443 7.15121e-20)
(-0.0710037 -0.108343 1.05548e-19)
(0.118991 -0.0934374 -1.20489e-19)
(0.414041 -0.0591848 6.96459e-21)
(-0.0298554 -0.0372882 1.57056e-22)
(-0.0939966 -0.116468 -5.30539e-20)
(-0.120669 -0.198084 -4.72106e-20)
(-0.0994847 -0.254756 2.19636e-20)
(-0.0143962 -0.259193 1.25674e-20)
(-0.0186045 -0.0421721 8.99412e-21)
(-0.0622104 -0.167671 1.28258e-19)
(-0.0886326 -0.275015 -5.14796e-20)
(-0.10699 -0.337615 -2.21258e-19)
(-0.105811 -0.362008 4.23494e-20)
(-0.0195298 -0.0428966 -5.21791e-21)
(-0.0926874 -0.166781 -4.42265e-20)
(-0.162777 -0.232603 1.33308e-19)
(-0.228546 -0.239378 2.27361e-21)
(-0.27816 -0.227477 -4.30218e-20)
(-0.0199179 0.0888081 -1.06138e-21)
(-0.145117 0.0594903 1.24313e-20)
(-0.274113 0.045944 -1.30031e-20)
(-0.389231 0.034352 6.8912e-20)
(-0.467241 -0.00671172 2.22093e-19)
(1.51519 0.357269 -1.87526e-20)
(1.5843 0.265151 7.26259e-19)
(1.64143 0.149132 -4.78121e-20)
(0.924727 0.117034 -4.06611e-20)
(0.508581 0.0242237 6.02843e-21)
(0.960954 0.110872 3.32678e-20)
(1.37751 0.211765 -4.74735e-19)
(1.7011 0.240759 -5.36745e-20)
(0.890074 0.251352 7.22537e-23)
(0.458494 0.0745039 -1.43576e-20)
(0.0919559 -0.0989603 -9.1591e-20)
(1.0083 0.0707756 -6.23636e-19)
(1.58237 0.302856 7.03821e-21)
(0.694592 0.397996 -3.25581e-19)
(0.445507 0.130844 1.97744e-20)
(-0.501946 -0.163031 2.64058e-19)
(0.706191 -0.17002 7.3123e-20)
(1.39919 0.358747 -1.80373e-20)
(0.410206 0.527295 -2.43461e-21)
(0.503098 0.142859 -8.77124e-20)
(-0.674836 -0.304615 1.67523e-19)
(0.463241 -0.494277 -5.60698e-20)
(1.22767 0.423362 -5.61871e-20)
(0.11462 0.63147 5.64709e-21)
(0.618238 0.10265 -3.57236e-19)
(0.707627 0.170079 -3.41393e-20)
(-0.0847625 -0.0591574 0)
(-0.10804 -0.108706 -1.5862e-20)
(-0.0454948 -0.0652443 5.72962e-20)
(0.20395 -0.0282702 -1.4026e-20)
(2.02636 0.372004 0)
(1.52555 0.314962 0)
(1.29286 0.102137 3.45385e-19)
(0.742484 -0.0317942 1.01555e-19)
(0.545245 -0.0437321 -1.13495e-20)
(0.69065 -0.000337918 -1.11892e-19)
(0.748887 -0.00277215 1.96642e-19)
(0.907103 -0.0199067 -1.37385e-20)
(1.07473 0.00988946 2.80272e-19)
(1.34952 0.0428518 1.7725e-19)
(1.58305 0.0178678 1.06038e-19)
(1.70171 0.0680484 2.24085e-19)
(1.91078 0.0167166 -2.0341e-20)
(2.52519 0.146483 -5.27739e-20)
(2.12102 0.0704355 3.77345e-20)
(0.875134 -0.446533 -3.3075e-20)
(0.858608 -0.530404 -1.34375e-19)
(0.844245 -0.62109 -9.45405e-20)
(0.768582 -0.683307 5.96599e-20)
(0.460259 -0.53012 1.12173e-19)
(0.772388 -0.347957 1.32093e-19)
(0.714682 -0.408386 2.8254e-19)
(0.639418 -0.474194 -2.36178e-20)
(0.526817 -0.529107 1.1786e-19)
(0.281563 -0.416469 4.57139e-20)
(0.628748 -0.20587 -1.72314e-19)
(0.539883 -0.240824 -4.23681e-20)
(0.438014 -0.28526 1.54988e-19)
(0.319284 -0.325058 -3.0029e-21)
(0.136122 -0.258289 -9.80126e-20)
(0.535283 0.0270514 -4.42701e-19)
(0.448409 0.0160679 -3.68298e-19)
(0.3382 -0.00344386 2.83667e-19)
(0.211964 -0.0319434 1.87623e-19)
(0.0527303 -0.0452297 1.35718e-20)
(0.518407 0.232597 -1.86328e-19)
(0.432846 0.238549 -1.81704e-19)
(0.316882 0.243473 -8.75002e-20)
(0.180142 0.251779 1.01354e-20)
(0.0242884 0.190351 1.12704e-20)
(1.91523 -0.0433776 7.08924e-19)
(2.18953 -0.105792 2.48211e-19)
(2.25226 -0.185314 -6.58547e-19)
(2.09615 -0.212211 -1.32329e-18)
(1.23918 -0.176177 1.0271e-19)
(1.91402 -0.119018 1.20257e-18)
(1.99034 -0.225235 1.5879e-18)
(2.00748 -0.341497 1.30233e-19)
(1.92334 -0.396719 2.2469e-19)
(1.21464 -0.336492 -1.47493e-19)
(1.62511 -0.274514 -3.14047e-18)
(1.69444 -0.386205 3.68927e-19)
(1.73831 -0.503005 9.75651e-19)
(1.67039 -0.57109 -3.71922e-19)
(1.07023 -0.472478 5.78705e-19)
(1.43623 -0.388949 7.37907e-19)
(1.45058 -0.481222 -1.944e-18)
(1.43195 -0.591383 -2.25661e-18)
(1.35892 -0.670719 6.87986e-19)
(0.86674 -0.542346 4.58353e-19)
(1.15726 -0.44204 1.49354e-19)
(1.11126 -0.52973 2.12166e-19)
(1.10013 -0.643494 -3.33985e-19)
(1.04213 -0.721348 -4.03587e-19)
(0.652692 -0.564505 -3.76695e-21)
(1.05081 0.0591506 8.198e-21)
(0.922131 0.0535916 -6.94601e-21)
(1.11316 0.0839846 -8.40075e-21)
(0.798005 0.0176367 -1.78642e-19)
(1.0717 -0.188552 -5.61337e-21)
(1.06711 0.0648537 -2.673e-21)
(0.914583 0.0497822 5.70393e-20)
(1.10894 0.101118 -6.14326e-20)
(0.881932 0.0632215 8.99904e-20)
(0.965319 -0.0730104 -2.76875e-20)
(1.06911 0.0638981 -6.6674e-20)
(0.921201 0.0457762 5.76068e-22)
(1.09412 0.102635 -2.56001e-20)
(0.880581 0.0865925 2.91425e-21)
(0.941265 -0.0116771 -1.35416e-19)
(1.05076 0.0633913 8.09317e-20)
(0.953511 0.0414532 3.63165e-21)
(1.05925 0.110209 3.96109e-20)
(0.918678 0.11056 3.67147e-20)
(0.855289 0.0995032 1.28036e-19)
(1.02531 0.0606056 2.05231e-20)
(0.983928 0.0393717 -3.27018e-20)
(1.03098 0.11871 5.2901e-20)
(0.948201 0.135573 8.31322e-20)
(0.835095 0.201385 -1.47186e-19)
(0.880129 0.0337217 0)
(0.716006 0.0293166 1.07457e-20)
(0.592013 0.023874 2.58691e-21)
(0.330333 -0.00641327 3.86506e-20)
(0.627361 -0.0494663 -1.0044e-19)
(1.01354 0.0756978 -6.63818e-20)
(0.944083 0.0713259 -2.41873e-20)
(1.01331 0.0842671 -2.38261e-20)
(0.799531 0.00973708 -8.97557e-20)
(0.980223 -0.175066 -1.07482e-19)
(0.86499 -0.0610265 -2.41422e-20)
(0.945528 -0.0298917 4.24758e-19)
(1.02731 0.0357047 2.67729e-19)
(0.909084 0.0493994 2.3786e-20)
(0.70343 0.0255794 0)
(1.2315 -0.297787 2.34084e-19)
(1.33652 -0.263934 1.24913e-18)
(1.49811 -0.149566 -1.43021e-18)
(1.59155 -0.0227096 -4.41426e-19)
(1.48156 0.0235536 3.26004e-19)
)
;

boundaryField
{
    left
    {
        type            fixedValue;
        value           uniform (1 0 0);
    }
    right
    {
        type            zeroGradient;
    }
    down
    {
        type            noSlip;
    }
    up
    {
        type            noSlip;
    }
    cylinder
    {
        type            noSlip;
    }
    defaultFaces
    {
        type            empty;
    }
}


// ************************************************************************* //
