/*--------------------------------*- C++ -*----------------------------------*\
  =========                 |
  \\      /  F ield         | OpenFOAM: The Open Source CFD Toolbox
   \\    /   O peration     | Website:  https://openfoam.org
    \\  /    A nd           | Version:  13
     \\/     M anipulation  |
\*---------------------------------------------------------------------------*/
FoamFile
{
    format      ascii;
    class       volVectorField;
    location    "7.955";
    object      U;
}
// * * * * * * * * * * * * * * * * * * * * * * * * * * * * * * * * * * * * * //

dimensions      [0 1 -1 0 0 0 0];

internalField   nonuniform List<vector> 
440
(
(-0.0750093 0.0595881 -7.4252e-20)
(-0.0726453 0.106257 3.54914e-20)
(0.0834997 0.0962455 2.95762e-20)
(0.544835 0.089826 3.10988e-19)
(0.572391 0.170608 2.72539e-21)
(-0.0684973 0.0364743 3.19809e-20)
(0.116024 -0.00892363 -1.38542e-19)
(0.637722 -0.0560474 -1.00296e-19)
(1.20807 -0.0895245 3.599e-20)
(1.71413 -0.100639 -9.78032e-21)
(0.00761121 -0.00662601 4.69713e-20)
(0.599195 -0.0637139 8.41114e-19)
(1.41 -0.0577817 -5.23899e-19)
(1.99708 -0.0291059 -1.53617e-18)
(2.50566 -0.0196388 6.52987e-19)
(0.245701 -0.0552661 -1.77402e-19)
(1.32072 -0.00604335 -6.34375e-19)
(2.09301 0.0564315 1.97804e-18)
(2.50682 0.0860369 2.19489e-18)
(2.54314 0.0984713 -5.85321e-19)
(0.635845 -0.00304438 -3.17098e-19)
(1.85645 0.181745 -6.94879e-19)
(2.38388 0.248465 2.13507e-18)
(2.48902 0.255406 2.20044e-18)
(2.57531 0.226682 7.333e-19)
(-0.0430624 0.268405 2.50644e-19)
(-0.160837 0.309915 1.53457e-19)
(-0.2676 0.267868 -4.92354e-19)
(-0.357921 0.209282 6.15347e-20)
(-0.40584 0.123307 2.02666e-19)
(-0.0837116 0.369795 -6.01385e-20)
(-0.15843 0.495274 -4.2219e-19)
(-0.210617 0.466105 8.54963e-20)
(-0.255352 0.396134 8.7479e-20)
(-0.26586 0.293985 -1.69817e-19)
(-0.117793 0.343073 -2.98081e-19)
(-0.163404 0.550123 2.87437e-19)
(-0.158283 0.565359 -1.21213e-19)
(-0.127657 0.513417 -8.5887e-19)
(-0.0907802 0.426907 8.2281e-21)
(-0.0958549 0.203687 -9.41768e-21)
(-0.12086 0.410378 -2.32932e-20)
(-0.0788209 0.474039 7.61876e-20)
(0.00510645 0.464642 6.19916e-19)
(0.0682463 0.432396 -1.38917e-19)
(-0.0723437 0.0910152 -3.45367e-20)
(-0.114955 0.210291 -4.79116e-20)
(-0.0880902 0.262852 -6.86251e-20)
(0.0579511 0.26446 -6.06006e-20)
(0.123223 0.331736 -4.16998e-19)
(-0.375379 -0.460354 -1.55854e-18)
(0.0803012 -0.721232 3.7875e-19)
(1.0159 0.525044 -3.47185e-19)
(-0.132741 0.676198 -3.54195e-19)
(0.783582 -0.0280693 -3.01752e-19)
(0.049209 -0.463341 1.88249e-18)
(-0.46996 -0.891996 -1.23204e-19)
(0.896013 0.549699 -7.98164e-20)
(-0.125102 0.68476 1.32913e-19)
(0.995125 -0.171861 6.20068e-19)
(0.501549 -0.380381 7.94232e-19)
(-0.206851 -1.04676 4.51052e-19)
(1.02459 0.419704 3.35087e-20)
(0.107035 0.655851 -1.63918e-19)
(1.28747 -0.322084 2.87978e-20)
(1.13594 -0.330812 -1.90871e-19)
(0.915305 -1.06445 -2.73474e-19)
(0.629039 0.333197 4.95094e-19)
(0.514316 0.641356 4.94399e-19)
(1.62377 -0.4391 -1.52592e-20)
(1.54009 -0.495359 -2.11517e-19)
(1.81457 -0.904096 8.03565e-19)
(-0.439685 0.297349 0)
(1.28498 0.414375 -4.1588e-19)
(1.92596 -0.523998 -1.67153e-19)
(1.88146 -0.521837 -5.63281e-19)
(2.57469 -0.643025 1.26292e-19)
(0.0547374 0.252457 5.69249e-21)
(2.01928 -0.0446369 -1.69084e-19)
(2.12352 -0.581356 5.09909e-19)
(2.39603 -0.597003 6.90153e-20)
(2.01375 -0.420468 1.23997e-19)
(0.804416 0.432252 7.03285e-21)
(2.47974 -0.26733 9.27311e-20)
(2.10929 -0.53124 0)
(2.35391 -0.393838 -5.80537e-19)
(1.64449 -0.103877 2.39603e-20)
(1.42382 0.169789 3.00268e-19)
(2.49815 -0.445815 -1.48545e-19)
(1.68821 -0.419698 8.1212e-20)
(2.06114 -0.274729 2.26687e-20)
(1.40535 -0.0636278 1.15523e-19)
(1.76386 -0.000269185 1.68586e-21)
(1.96159 -0.392991 1.19339e-33)
(0.956594 -0.259399 -1.62447e-20)
(1.16439 -0.044433 1.19103e-19)
(0.842735 0.00599402 -1.62201e-20)
(1.04413 -0.108044 -3.24129e-20)
(0.429001 -0.0603374 8.99607e-20)
(-0.216682 0.0218588 -3.8127e-20)
(2.43623 0.24073 -8.8421e-19)
(2.66805 0.00787245 -1.18436e-18)
(2.48944 0.0697472 8.7281e-19)
(2.78523 -0.167105 7.39201e-20)
(2.14389 0.0558805 -2.56972e-20)
(2.13821 0.185271 6.92551e-20)
(2.46919 -0.0409231 -4.15544e-20)
(2.28 0.0306258 -1.49178e-19)
(2.53134 -0.200195 -2.23993e-19)
(2.38062 -0.172749 -8.32952e-21)
(2.12744 0.0800558 7.86727e-20)
(2.2692 -0.0278647 1.02048e-19)
(2.23045 -0.0380389 -1.43113e-19)
(2.3056 -0.134687 5.05305e-20)
(2.30324 -0.171228 2.83216e-20)
(2.09503 0.00778767 1.17133e-19)
(2.07531 -0.0409571 1.34393e-19)
(2.16206 -0.0520836 -1.84455e-20)
(2.11787 -0.100812 -1.26551e-20)
(2.19979 -0.117775 2.44892e-20)
(1.49344 -0.0108287 1.74668e-19)
(1.41493 -0.0123554 -1.25308e-20)
(1.49973 -0.0243629 2.35449e-20)
(1.38902 -0.0214932 -1.66397e-20)
(1.48821 -0.042123 2.6449e-20)
(1.59144 0.83805 1.17896e-18)
(1.54356 0.93867 -3.82483e-19)
(1.54276 1.07335 -1.41589e-18)
(1.47428 1.12239 7.62023e-19)
(0.904611 0.806824 -1.77347e-19)
(1.87978 0.807415 -6.05877e-19)
(1.84502 0.882403 -3.12313e-18)
(1.85332 0.988305 -1.19441e-18)
(1.76536 1.00261 -4.27761e-19)
(1.08162 0.708149 -6.91253e-19)
(2.19632 0.668864 7.74443e-19)
(2.17379 0.740655 2.09747e-19)
(2.1435 0.833296 -2.31358e-18)
(2.01317 0.824027 -6.63102e-19)
(1.20018 0.555602 5.11198e-19)
(2.36683 0.557373 2.34167e-18)
(2.34903 0.607221 1.732e-18)
(2.35029 0.661548 -2.02983e-18)
(2.14046 0.622856 -1.53744e-18)
(1.18833 0.370911 -2.97285e-19)
(2.51602 0.390844 1.16564e-18)
(2.53415 0.415771 -8.62526e-19)
(2.43284 0.445543 5.99982e-19)
(2.10954 0.396456 5.03229e-19)
(1.01211 0.167797 -4.34787e-19)
(0.566801 0.501681 -6.13843e-19)
(0.47503 0.540316 -4.4742e-19)
(0.358223 0.578355 4.52757e-20)
(0.224321 0.582356 3.66787e-21)
(0.0557817 0.419092 9.51685e-20)
(0.684786 0.661172 1.32624e-19)
(0.62152 0.719872 -2.8999e-19)
(0.533643 0.787575 1.94893e-19)
(0.408511 0.84764 -9.04727e-20)
(0.180218 0.647136 1.27389e-19)
(0.770576 0.865102 1.0269e-19)
(0.699036 0.949747 5.03955e-19)
(0.647716 1.04767 1.22702e-19)
(0.567832 1.08219 -3.244e-19)
(0.313721 0.794267 2.72754e-19)
(1.0682 0.921092 2.44476e-19)
(1.01893 1.00111 -7.42929e-19)
(0.967028 1.09897 -2.00748e-18)
(0.885704 1.16795 8.01644e-19)
(0.523197 0.868446 -1.69323e-19)
(1.11751 0.977751 -1.06709e-19)
(1.16042 1.09956 -1.85777e-19)
(1.19081 1.2114 -3.81499e-19)
(1.13982 1.22792 -4.28443e-19)
(0.702037 0.875334 -6.82305e-21)
(1.01128 0.0598568 -1.06646e-19)
(0.988375 0.0324854 -3.94272e-20)
(1.03817 0.132889 -1.60273e-21)
(0.944998 0.148 -3.0562e-19)
(0.896552 0.306449 3.2873e-19)
(0.999098 0.0587142 6.77464e-20)
(1.00125 0.0283753 1.40198e-19)
(1.02857 0.141813 1.44468e-19)
(0.987245 0.173706 4.45858e-20)
(0.937324 0.38964 -2.57674e-20)
(1.00311 0.0582005 9.29797e-20)
(0.987874 0.0210956 -5.39428e-21)
(1.07467 0.159765 -6.31412e-21)
(0.945999 0.171646 1.62877e-19)
(1.15377 0.53655 -5.31213e-19)
(0.996331 0.0588526 -3.55917e-22)
(1.00812 0.00914021 -1.95676e-19)
(1.07174 0.175945 -7.25068e-20)
(1.04705 0.173728 -4.07761e-19)
(1.16564 0.591716 9.88011e-20)
(0.991604 0.0520191 -1.61492e-20)
(1.0152 0.00946019 5.79569e-20)
(1.12613 0.176001 3.40535e-20)
(1.02079 0.205616 4.89855e-19)
(1.39521 0.722101 -5.06505e-19)
(0.951431 0.0543542 -1.02106e-20)
(1.09512 -0.0201281 1.18413e-19)
(1.10925 0.207148 -8.07358e-20)
(1.27232 0.121976 9.79266e-19)
(1.30013 0.777392 -3.76413e-19)
(0.896038 0.0224853 -1.60875e-21)
(1.19499 -0.0278368 -1.02681e-19)
(1.03837 0.12853 5.10084e-21)
(1.38788 0.131135 -2.93202e-19)
(1.20661 0.542171 -6.66706e-20)
(0.948717 0.0115625 -3.74141e-21)
(1.16567 -0.0429033 1.56165e-35)
(1.06946 0.10308 -3.13071e-20)
(1.27664 0.110252 9.16436e-20)
(1.32958 0.370558 1.91319e-19)
(1.07453 -0.041538 4.38253e-21)
(1.00588 -0.0501014 -2.99946e-20)
(1.12299 0.0650313 1.89222e-20)
(1.14309 0.0652751 2.62801e-20)
(1.55938 0.218986 -2.95665e-19)
(0.99515 -0.0240147 -4.15635e-20)
(0.764249 -0.0212068 -4.571e-21)
(0.892954 0.0139284 2.3202e-20)
(0.877276 -0.000977908 -1.87528e-20)
(1.20166 0.046224 -6.77601e-20)
(1.85593 0.611914 3.05526e-19)
(1.9277 0.653571 7.73275e-19)
(2.21581 0.496194 -1.11095e-18)
(2.25561 0.482021 -2.32342e-20)
(2.49268 0.265466 5.00921e-19)
(1.78471 0.377048 9.83865e-20)
(1.75432 0.432929 1.06472e-18)
(2.06029 0.301726 1.37047e-19)
(1.96976 0.331341 -9.76754e-19)
(2.30894 0.131519 -2.92632e-19)
(1.72835 0.276755 -2.53199e-19)
(1.80032 0.267849 -1.62131e-19)
(1.96997 0.197726 1.71916e-19)
(1.98343 0.18658 -3.06801e-19)
(2.16081 0.0835448 2.77452e-19)
(1.74098 0.143133 4.1025e-19)
(1.85898 0.120139 -5.21772e-21)
(1.89145 0.0826179 2.35403e-19)
(1.99424 0.0663965 2.03589e-19)
(2.00104 0.0193968 -1.929e-19)
(1.35138 0.0289567 -4.99682e-20)
(1.41847 0.0195261 2.61704e-19)
(1.41491 0.0119886 1.16237e-19)
(1.46954 0.00383659 -2.30178e-19)
(1.42577 -0.0020979 2.97539e-22)
(1.0901 -0.0218527 4.88024e-20)
(2.09978 -0.052659 -3.80228e-19)
(2.34093 -0.0428505 1.07655e-18)
(2.31848 -0.00210296 4.78007e-19)
(2.18911 0.028757 -3.27381e-19)
(0.656483 0.0870914 8.29878e-20)
(1.87056 0.0703852 -3.88998e-19)
(2.34773 0.0722097 -5.10292e-19)
(2.42876 0.0818377 6.08801e-19)
(2.14631 0.0726546 -3.65173e-19)
(0.178748 0.064124 -2.94859e-20)
(1.22069 0.125991 3.9395e-19)
(1.98963 0.141602 5.59719e-20)
(2.38648 0.13352 2.74042e-19)
(2.61798 0.130407 9.28295e-20)
(-0.0590089 -0.0357666 1.79111e-19)
(0.395259 0.0483002 1.7273e-19)
(1.18653 0.116822 -3.46915e-19)
(1.69084 0.142762 1.56106e-20)
(2.27642 0.173125 -5.48954e-20)
(-0.109822 -0.0895432 1.23127e-19)
(-0.046779 -0.0753687 -1.31855e-19)
(0.358343 -0.00407482 -2.37865e-20)
(0.836378 0.0249589 3.03878e-20)
(1.20794 0.0644994 -4.52287e-20)
(-0.0768019 -0.0724742 6.25172e-21)
(-0.144638 -0.106418 7.32026e-20)
(-0.0727495 -0.109767 1.08208e-19)
(0.1179 -0.0954185 -1.20765e-19)
(0.414954 -0.060942 7.44142e-21)
(-0.0299618 -0.0373926 7.19259e-23)
(-0.0944855 -0.118203 -5.59355e-20)
(-0.120932 -0.2018 -5.02138e-20)
(-0.098953 -0.260361 2.26968e-20)
(-0.0141745 -0.265777 1.30522e-20)
(-0.0189928 -0.0444937 9.30571e-21)
(-0.0614736 -0.175538 1.29728e-19)
(-0.0856458 -0.286966 -5.29787e-20)
(-0.101209 -0.352162 -2.21228e-19)
(-0.0982922 -0.378248 3.92188e-20)
(-0.0206892 -0.0521322 -4.96739e-21)
(-0.0903766 -0.185891 -4.19035e-20)
(-0.155937 -0.257703 1.2649e-19)
(-0.217641 -0.267324 5.01266e-21)
(-0.263571 -0.254654 -4.06745e-20)
(-0.0199222 0.0691645 5.65483e-23)
(-0.140613 0.0270559 8.87692e-21)
(-0.266146 0.0106761 -1.13868e-20)
(-0.378567 0.000921643 6.49707e-20)
(-0.455972 -0.0363858 2.04116e-19)
(1.52527 0.359858 -1.72807e-20)
(1.59433 0.271748 6.91519e-19)
(1.63209 0.150894 -4.78361e-20)
(0.896163 0.118333 -3.47134e-20)
(0.492542 0.0232759 5.10412e-21)
(0.979468 0.110892 2.98367e-20)
(1.40146 0.224209 -4.25279e-19)
(1.69038 0.246723 -4.9097e-20)
(0.849082 0.253309 8.07852e-22)
(0.441307 0.0716669 -7.69943e-21)
(0.117783 -0.105809 -1.0359e-19)
(1.0459 0.0905467 -5.857e-19)
(1.56904 0.316799 8.84663e-21)
(0.643179 0.400604 -3.40849e-19)
(0.434377 0.124007 1.87773e-20)
(-0.477615 -0.174624 2.42437e-19)
(0.750869 -0.139424 2.01551e-19)
(1.38214 0.384016 -4.02467e-20)
(0.353769 0.528634 -2.64306e-21)
(0.501762 0.129425 -1.01836e-19)
(-0.671395 -0.315997 1.53192e-19)
(0.531195 -0.453161 -3.63087e-20)
(1.20818 0.462408 -8.00864e-21)
(0.0630978 0.629088 5.64781e-21)
(0.625851 0.0811842 -3.97554e-19)
(0.706014 0.171412 -3.18832e-20)
(-0.091474 -0.0608926 0)
(-0.113391 -0.109089 -1.60871e-20)
(-0.0493917 -0.0650962 5.70514e-20)
(0.198421 -0.0279678 -1.33696e-20)
(2.03507 0.375178 0)
(1.5284 0.318767 0)
(1.28651 0.101327 3.44008e-19)
(0.728102 -0.0319943 9.9566e-20)
(0.535736 -0.0434421 -9.75443e-21)
(0.693343 -0.00030953 -1.1195e-19)
(0.75137 -0.0028001 1.92219e-19)
(0.91186 -0.0199206 -1.40538e-20)
(1.07727 0.009981 2.83116e-19)
(1.35595 0.0432564 1.78985e-19)
(1.58882 0.0179743 1.06033e-19)
(1.70869 0.0682869 2.20994e-19)
(1.91748 0.016574 -2.15067e-20)
(2.53472 0.147492 -5.36484e-20)
(2.13004 0.0703337 3.61112e-20)
(0.877209 -0.448168 -3.16592e-20)
(0.860895 -0.532324 -1.35086e-19)
(0.846798 -0.623291 -9.6466e-20)
(0.771164 -0.685721 6.07844e-20)
(0.461862 -0.532062 1.12343e-19)
(0.774481 -0.349827 1.31977e-19)
(0.716721 -0.410423 2.81049e-19)
(0.64132 -0.476381 -2.47802e-20)
(0.52856 -0.531445 1.17742e-19)
(0.282596 -0.418215 4.51719e-20)
(0.62963 -0.207887 -1.72427e-19)
(0.540617 -0.243008 -4.23044e-20)
(0.438803 -0.287703 1.53397e-19)
(0.320224 -0.327711 -3.55403e-21)
(0.136777 -0.260159 -9.80426e-20)
(0.535863 0.0250067 -4.43403e-19)
(0.449055 0.0138019 -3.68774e-19)
(0.338941 -0.00601998 2.84023e-19)
(0.212729 -0.0347292 1.8776e-19)
(0.0532201 -0.0471655 1.35975e-20)
(0.518566 0.230521 -1.8667e-19)
(0.433043 0.236326 -1.82065e-19)
(0.317132 0.24104 -8.73957e-20)
(0.180439 0.249114 1.06434e-20)
(0.0244879 0.188451 1.13764e-20)
(1.92145 -0.0434027 7.11683e-19)
(2.19625 -0.10599 2.49951e-19)
(2.25927 -0.185891 -6.62428e-19)
(2.10324 -0.212786 -1.332e-18)
(1.24395 -0.177145 1.02706e-19)
(1.9206 -0.119272 1.20817e-18)
(1.99674 -0.225794 1.59433e-18)
(2.01366 -0.342364 1.30622e-19)
(1.92982 -0.397808 2.25074e-19)
(1.21934 -0.338013 -1.47771e-19)
(1.6303 -0.275282 -3.15637e-18)
(1.69948 -0.387177 3.7193e-19)
(1.74356 -0.5043 9.80168e-19)
(1.67592 -0.572712 -3.74762e-19)
(1.07418 -0.474394 5.82823e-19)
(1.44097 -0.389948 7.41826e-19)
(1.45522 -0.482397 -1.95315e-18)
(1.43641 -0.592831 -2.26994e-18)
(1.36344 -0.672602 6.92945e-19)
(0.869846 -0.544361 4.60253e-19)
(1.16083 -0.443336 1.50814e-19)
(1.11434 -0.531209 2.12475e-19)
(1.10326 -0.645354 -3.35945e-19)
(1.04544 -0.723587 -4.06017e-19)
(0.654867 -0.566518 -3.79536e-21)
(1.05015 0.0591054 8.19724e-21)
(0.922486 0.0531503 -6.99771e-21)
(1.11399 0.0837782 -8.53178e-21)
(0.798319 0.0170927 -1.78111e-19)
(1.07488 -0.189885 -5.51297e-21)
(1.06658 0.0648605 -2.67491e-21)
(0.914682 0.0492287 5.73282e-20)
(1.10958 0.10086 -6.15666e-20)
(0.8823 0.0626446 8.92043e-20)
(0.967219 -0.0742392 -2.79425e-20)
(1.06873 0.0639586 -6.67226e-20)
(0.921181 0.0451219 5.84635e-22)
(1.09455 0.102255 -2.55144e-20)
(0.88071 0.0859277 1.7144e-21)
(0.942851 -0.0129854 -1.34889e-19)
(1.05046 0.0634929 8.09989e-20)
(0.953497 0.0407647 3.63076e-21)
(1.05942 0.109705 3.95547e-20)
(0.918919 0.109955 3.79773e-20)
(0.855852 0.098313 1.28646e-19)
(1.02503 0.0607308 2.05368e-20)
(0.98384 0.0386807 -3.27756e-20)
(1.03124 0.118103 5.28219e-20)
(0.94824 0.135024 8.37686e-20)
(0.835132 0.200073 -1.47673e-19)
(0.879888 0.0337072 0)
(0.716551 0.0293178 1.0746e-20)
(0.592709 0.0238327 2.55193e-21)
(0.331328 -0.00648433 3.88412e-20)
(0.629839 -0.0497072 -1.00231e-19)
(1.01289 0.0756141 -6.63358e-20)
(0.944727 0.0710664 -2.42673e-20)
(1.01424 0.0841029 -2.37444e-20)
(0.800593 0.00938966 -8.93168e-20)
(0.98247 -0.176139 -1.07091e-19)
(0.868885 -0.0611041 -2.40717e-20)
(0.949569 -0.0300488 4.2524e-19)
(1.03191 0.0358057 2.685e-19)
(0.91329 0.0497282 2.3537e-20)
(0.706419 0.0257753 0)
(1.23583 -0.29857 2.34097e-19)
(1.34111 -0.264628 1.25282e-18)
(1.50342 -0.150055 -1.43656e-18)
(1.59736 -0.0227224 -4.43656e-19)
(1.48721 0.0237882 3.26908e-19)
)
;

boundaryField
{
    left
    {
        type            fixedValue;
        value           uniform (1 0 0);
    }
    right
    {
        type            zeroGradient;
    }
    down
    {
        type            noSlip;
    }
    up
    {
        type            noSlip;
    }
    cylinder
    {
        type            noSlip;
    }
    defaultFaces
    {
        type            empty;
    }
}


// ************************************************************************* //
