/*--------------------------------*- C++ -*----------------------------------*\
  =========                 |
  \\      /  F ield         | OpenFOAM: The Open Source CFD Toolbox
   \\    /   O peration     | Website:  https://openfoam.org
    \\  /    A nd           | Version:  13
     \\/     M anipulation  |
\*---------------------------------------------------------------------------*/
FoamFile
{
    format      ascii;
    class       volScalarField;
    location    "0.34";
    object      strainRateViscosityModel:nu;
}
// * * * * * * * * * * * * * * * * * * * * * * * * * * * * * * * * * * * * * //

dimensions      [0 2 -1 0 0 0 0];

internalField   nonuniform List<scalar> 
440
(
9.4196
8.96966
8.54434
8.04232
7.58631
9.68998
9.35816
8.98172
8.48001
7.87563
9.80076
9.53085
9.15877
8.5851
7.84831
9.84963
9.61819
9.25864
8.64759
7.86612
9.86918
9.65609
9.30595
8.68099
7.90883
1.2908
1.78489
2.04433
2.29469
2.35852
3.37227
3.30204
3.3204
3.431
3.50195
5.88907
5.27233
4.93222
4.73512
4.7655
7.76955
6.99359
6.42155
5.90784
5.83112
8.82081
8.15123
7.552
6.91884
6.87285
1.84592
0.829999
0.349451
0.0625902
0.0151262
2.62352
0.921137
0.302585
0.0393811
0.0103764
3.52187
1.17829
0.269043
0.0306396
0.0103251
4.0971
1.47148
0.268814
0.0251669
0.010335
4.60676
1.78949
0.338899
0.0198014
0.0103705
4.2354
1.76613
0.266513
0.0186935
0.0955935
3.70648
1.79825
0.531656
0.308524
0.462462
4.91568
3.20284
1.20455
0.613919
0.649698
7.01005
4.29037
1.89343
0.959628
0.840007
8.27287
5.07981
2.49649
1.38885
1.04551
2.84883
3.68349
4.62122
5.50777
6.15182
3.68377
3.69608
3.77099
3.85042
3.36607
8.22682
8.08685
7.79955
7.38533
6.34529
9.05299
8.99246
8.85918
8.62168
8.1604
9.60671
9.56995
9.48701
9.33802
9.11875
7.50417
8.01257
8.55922
9.01083
9.46437
7.79417
8.45146
8.98693
9.37782
9.70869
7.77896
8.55893
9.15934
9.54076
9.80946
7.81625
8.62754
9.25738
9.62276
9.8536
7.89136
8.67369
9.30537
9.65745
9.87035
2.49739
2.43876
2.23954
2.08621
2.00913
3.47165
3.4221
3.45781
3.67095
4.20698
4.64653
4.66685
5.05021
5.5927
6.43537
5.69464
5.83387
6.50043
7.18753
8.03844
6.75815
6.84502
7.58143
8.243
8.93558
0.159026
0.0461684
0.224491
0.796044
1.99067
0.121121
0.0620609
0.185068
0.841892
2.65482
0.0993812
0.078542
0.163106
1.07918
3.45812
0.0909752
0.0903622
0.18261
1.40938
3.96402
0.106713
0.110392
0.286502
1.76036
4.38261
0.177865
0.147385
0.275521
1.88658
4.11637
0.313616
0.166239
0.213437
1.74899
3.85172
0.628335
0.353449
0.793972
3.02139
4.90065
2.2568
0.885768
1.52834
4.15892
6.96095
5.04886
2.58976
2.45311
5.04406
8.27885
5.95323
5.27108
4.40558
3.51227
2.78071
3.51824
3.98715
3.9681
3.87478
3.76331
6.31959
7.3523
7.77947
8.06819
8.21886
8.12175
8.6003
8.84969
8.98876
9.05212
9.11681
9.33773
9.48737
9.57049
9.60695
9.31049
7.91617
1.39839
3.6293
7.73606
9.08135
7.43997
3.20541
1.64014
6.78817
8.39786
6.57664
4.20769
1.00332
4.14653
6.81436
5.09346
3.45421
1.70068
1.03805
4.50251
3.14406
2.03797
1.37781
0.460491
2.59642
1.6184
1.00268
0.797782
0.927478
1.4537
0.778807
0.580429
0.614219
0.687169
0.796436
0.403258
0.587456
0.755918
0.829533
0.302374
0.498377
0.874973
1.0394
1.10101
0.156355
0.926288
1.26902
1.50359
1.55747
0.191923
0.360592
0.695049
0.776477
0.773296
0.397472
0.492874
0.557154
0.620001
0.633028
0.610217
0.632595
0.433366
0.454758
0.474937
0.952798
0.771603
0.377256
0.287673
0.322382
1.31539
0.816639
0.37023
0.138066
0.103473
1.10638
0.863937
1.12023
1.13493
1.08774
0.282359
0.475581
0.857427
0.933584
0.914567
9.19073
8.83805
7.75783
5.72912
3.55901
8.58666
7.72204
5.85042
3.49016
0.86473
0.967802
0.863086
1.02993
1.62024
2.65731
0.820195
0.775033
0.710588
0.826324
1.52052
1.05973
1.01088
0.848178
0.554148
0.729721
1.36539
1.32777
1.13076
0.783893
0.21949
1.81802
1.77154
1.52242
1.20979
0.586572
7.73559
3.62619
1.39972
7.9144
9.31063
6.78429
1.63979
3.20222
7.43685
9.08198
4.13245
1.01087
4.19368
6.57196
8.3994
1.0352
1.70696
3.43256
5.08411
6.82079
0.477749
1.37793
2.01436
3.12583
4.52527
1.29457
0.588227
0.561267
0.458306
0.179155
0.65462
0.338919
0.467637
0.524092
0.493361
0.369681
0.215291
0.364003
0.61826
0.804362
0.269263
0.0530792
0.319407
0.747994
1.20349
0.213653
0.0304697
0.269855
0.798712
1.54847
5.47647
2.48215
1.06471
0.982818
1.14418
2.87714
1.1192
0.745321
0.56749
0.248692
3.56859
5.73506
7.75902
8.83858
9.19088
0.84036
3.46996
5.84365
7.72067
8.58651
)
;

boundaryField
{
    left
    {
        type            calculated;
        value           nonuniform List<scalar> 
17
(
0.410513
1.06535
2.15788
3.90805
6.57903
0.281336
0.18278
0.144526
0.144873
0.196875
2.95274
2.04253
1.29009
0.774504
0.468225
6.9774
4.57777
)
;
    }
    right
    {
        type            calculated;
        value           nonuniform List<scalar> 
17
(
1.08812
0.915553
0.774042
0.633448
0.47397
0.317966
0.0973816
0.0135957
0.0101615
0.010105
0.0101029
0.0113205
0.12329
0.51718
0.689613
0.857771
1.03724
)
;
    }
    down
    {
        type            calculated;
        value           nonuniform List<scalar> 
20
(
5.99075
3.0154
1.17348
1.06583
1.85311
4.2699
6.38283
8.13051
9.01526
9.30887
9.3087
9.01462
8.12904
6.37863
4.26304
1.83123
0.938499
1.18742
1.19358
1.1383
)
;
    }
    up
    {
        type            calculated;
        value           nonuniform List<scalar> 
20
(
8.54851
5.40694
2.72355
1.52866
1.10954
9.69562
9.66614
9.59856
9.47417
9.29332
9.29621
9.47636
9.60013
9.66724
9.69603
5.69747
3.18731
2.69265
5.39923
8.56498
)
;
    }
    cylinder
    {
        type            calculated;
        value           nonuniform List<scalar> 
40
(
1.35075
3.57501
6.11549
7.96055
8.95729
9.50519
9.74579
9.8408
9.88146
9.89746
9.54766
9.76289
9.84857
9.88497
9.89849
2.2428
4.4813
6.68149
8.23159
9.07019
3.04361
1.84531
1.07671
0.425344
0.59657
9.51876
9.33148
8.74158
7.26852
4.98504
9.51859
9.33075
8.73954
7.26031
4.95634
2.96511
1.73044
1.06744
0.663523
0.104305
)
;
    }
    defaultFaces
    {
        type            empty;
    }
}


// ************************************************************************* //
