# Selection   : all
# Cells       : 440
# Volume      : 7.374263e+01
# Time        	min(p)
8.515         	-1.639860e+00
8.56          	-1.684299e+00
8.61          	-1.718853e+00
