/*--------------------------------*- C++ -*----------------------------------*\
  =========                 |
  \\      /  F ield         | OpenFOAM: The Open Source CFD Toolbox
   \\    /   O peration     | Website:  https://openfoam.org
    \\  /    A nd           | Version:  13
     \\/     M anipulation  |
\*---------------------------------------------------------------------------*/
FoamFile
{
    format      ascii;
    class       volScalarField;
    location    "77";
    object      p;
}
// * * * * * * * * * * * * * * * * * * * * * * * * * * * * * * * * * * * * * //

dimensions      [0 2 -2 0 0 0 0];

internalField   nonuniform List<scalar> 
440
(
-0.697243
-0.692748
-0.762869
-0.675171
-0.748099
-0.642368
-0.642388
-0.651491
-0.65268
-0.652156
-0.763525
-0.733242
-0.705966
-0.673074
-0.634226
-0.879966
-0.835472
-0.761943
-0.673543
-0.582746
-0.974992
-0.914118
-0.77912
-0.636884
-0.505028
-1.26124
-1.23069
-1.1891
-1.14904
-1.12317
-1.21549
-1.18014
-1.13244
-1.08531
-1.04459
-1.20161
-1.21221
-1.24408
-1.28749
-1.33525
-1.00134
-1.07156
-1.20922
-1.36399
-1.45414
-0.205873
-0.347662
-0.520701
-0.599422
-0.574503
-0.715765
-1.79786
-1.23234
-0.224259
0.037927
-0.479543
-1.80158
-1.57254
-0.233893
0.0208083
-0.390996
-1.63069
-1.69013
-0.24724
0.00411609
-0.275994
-1.36406
-1.68897
-0.269171
-0.00997366
-0.197402
-1.04519
-1.56721
-0.288536
-0.0177876
0.307181
-0.716899
-1.3238
-0.275628
-0.0277527
-0.163737
-0.526918
-0.932224
-0.253327
-0.0451679
-0.0357382
-0.294301
-0.610668
-0.254256
-0.0664455
-0.0464676
-0.2176
-0.464066
-0.237488
-0.0783939
0.0116885
-0.0562793
-0.342786
-0.259868
-0.0928369
-0.275371
-0.408816
-0.556396
-0.71661
-0.783103
-0.0434934
-0.17422
-0.243789
-0.284149
-0.285096
0.104166
0.000857616
-0.0646953
-0.103035
-0.121232
0.199114
0.104588
0.0304874
-0.0144385
-0.0432209
0.243719
0.150184
0.0717581
0.0280757
0.0025214
0.942167
0.807896
0.637694
0.444128
0.223137
0.562738
0.413212
0.226765
0.0157066
-0.222222
0.182009
0.0269349
-0.168196
-0.391071
-0.599219
-0.139375
-0.30026
-0.494888
-0.70539
-0.863541
-0.361821
-0.516722
-0.694592
-0.879229
-0.980502
2.10478
2.13793
2.17082
2.19108
2.19362
1.93032
1.95264
1.97119
1.97413
1.95654
1.71404
1.70785
1.68091
1.63227
1.55893
1.46248
1.43181
1.36843
1.2752
1.1533
1.20698
1.11878
0.999609
0.856002
0.679672
1.8358
1.82812
1.81731
1.87271
1.98091
1.82688
1.81697
1.80188
1.8517
1.90418
1.81895
1.80257
1.78365
1.81754
1.80818
1.8123
1.78568
1.76281
1.77186
1.65732
1.80683
1.76786
1.73987
1.72283
1.495
1.80313
1.73862
1.70892
1.63064
1.31694
1.80344
1.7073
1.69072
1.52112
1.32377
1.80937
1.69292
1.67774
1.46251
1.28442
1.80341
1.66973
1.67306
1.41889
1.25767
1.84309
1.66072
1.67337
1.39493
1.25542
0.912213
0.643588
0.325538
0.0670569
-0.127933
0.858423
0.667895
0.446768
0.26036
0.085766
0.873455
0.714158
0.543881
0.381387
0.229901
0.913675
0.766066
0.61447
0.461036
0.32447
0.939709
0.796977
0.653712
0.503796
0.372254
-1.9067
-1.71788
-1.51395
-1.34298
-1.23957
-1.98122
-1.89379
-1.72624
-1.57588
-1.47141
-1.89472
-1.83814
-1.71753
-1.59465
-1.48805
-1.72559
-1.67316
-1.60464
-1.52599
-1.44475
-1.55288
-1.52255
-1.48382
-1.44346
-1.4095
-1.4589
-1.4474
-1.40496
-1.43817
-1.39745
-1.43507
-1.42312
-1.39567
-1.42334
-1.38694
-1.43105
-1.42203
-1.41413
-1.41977
-1.42773
-1.40009
-1.39585
-1.39638
-1.40885
-1.44441
-1.33341
-1.31968
-1.30566
-1.29455
-1.30195
-1.22726
-1.0155
-0.524929
-0.0267916
0.119001
-1.26752
-1.15206
-0.580889
-0.173697
0.121196
-1.30521
-1.3498
-0.590426
-0.28382
0.118569
-1.28591
-1.553
-0.487498
-0.272704
0.0959734
-1.0018
-1.70964
-0.734947
-0.234038
0.0614247
-0.680254
-1.08342
-0.6186
0.0556237
0.119075
-1.08688
-1.05226
-0.521631
0.0698379
0.118749
-1.18095
-1.39608
-1.39367
-1.30131
-1.05081
-1.20286
-1.41501
-1.41146
-1.34339
-1.2874
1.67117
1.63756
1.58396
1.51171
1.41699
1.87735
1.8934
1.89169
1.87032
1.82991
2.05598
2.08643
2.10707
2.11374
2.10529
2.1622
2.20142
2.24285
2.27631
2.29081
2.17992
2.2189
2.26258
2.29953
2.31691
-0.728169
-0.854723
-1.05302
-1.28788
-1.57962
-0.0591179
-0.216581
-0.425209
-0.677307
-1.0114
0.554891
0.39353
0.198834
-0.0323941
-0.332024
1.04869
0.921116
0.766596
0.578916
0.34619
1.44123
1.35162
1.23448
1.09308
0.924725
1.89519
1.85484
1.84108
1.8402
1.84151
1.88037
1.85275
1.84142
1.8604
1.91573
1.86783
1.84925
1.84224
1.88225
2.00035
1.85621
1.84433
1.83763
1.88955
2.0173
1.84553
1.8376
1.82908
1.88657
2.01735
1.94979
1.85896
1.82616
1.75804
1.70743
1.90502
1.85066
1.82216
1.78187
1.71608
1.3131
1.06109
0.627017
-0.00234099
-0.688144
1.40523
1.0997
0.644442
0.0193931
-0.681102
)
;

boundaryField
{
    left
    {
        type            zeroGradient;
    }
    right
    {
        type            fixedValue;
        value           uniform 0;
    }
    down
    {
        type            zeroGradient;
    }
    up
    {
        type            zeroGradient;
    }
    cylinder
    {
        type            zeroGradient;
    }
    defaultFaces
    {
        type            empty;
    }
}


// ************************************************************************* //
