/*--------------------------------*- C++ -*----------------------------------*\
  =========                 |
  \\      /  F ield         | OpenFOAM: The Open Source CFD Toolbox
   \\    /   O peration     | Website:  https://openfoam.org
    \\  /    A nd           | Version:  13
     \\/     M anipulation  |
\*---------------------------------------------------------------------------*/
FoamFile
{
    format      ascii;
    class       volScalarField;
    location    "19.8";
    object      p;
}
// * * * * * * * * * * * * * * * * * * * * * * * * * * * * * * * * * * * * * //

dimensions      [0 2 -2 0 0 0 0];

internalField   nonuniform List<scalar> 
440
(
-1.15473
-1.13484
-1.12509
-1.1187
-1.1684
-1.22139
-1.19635
-1.17126
-1.14538
-1.11859
-1.35258
-1.30999
-1.25286
-1.17789
-1.09643
-1.48827
-1.43042
-1.30848
-1.16651
-1.02362
-1.56295
-1.47796
-1.29056
-1.09933
-0.927718
-0.882103
-0.923136
-1.03436
-1.21573
-1.42384
-1.14236
-1.16024
-1.21603
-1.30616
-1.43369
-1.13673
-1.11921
-1.10109
-1.08913
-1.0994
-1.13063
-1.11322
-1.09849
-1.09829
-1.12788
-1.1307
-1.11386
-1.10209
-1.10039
-1.12619
-0.656379
-0.0156273
-0.306657
0.116098
-0.131951
-0.830897
-0.220106
-0.344417
0.153421
-0.15092
-0.941858
-0.177817
-0.0385345
0.189613
-0.191415
-1.1618
-0.0746869
0.501286
0.227571
-0.213671
-1.23772
-0.076221
0.73021
0.29395
-0.178831
-0.964136
0.0175902
0.515981
0.362501
-0.0882255
-0.446911
0.280984
0.181652
0.263124
0.0141612
-0.251617
0.381264
0.619504
0.265619
0.042322
-0.0775151
0.296591
0.649945
0.314815
0.0269901
-0.000538174
0.26227
0.73092
0.458777
0.0618265
-0.638153
-0.75754
-0.919518
-1.07627
-1.25451
-0.351096
-0.470537
-0.558494
-0.618245
-0.655067
-0.159028
-0.2623
-0.314439
-0.34887
-0.361654
-0.0447558
-0.131862
-0.177375
-0.196026
-0.188577
0.00924455
-0.0744834
-0.116968
-0.127669
-0.104275
0.825618
0.662999
0.45559
0.223331
-0.0316071
0.372281
0.198183
-0.0125228
-0.253867
-0.534293
-0.069901
-0.24937
-0.475215
-0.725262
-0.99873
-0.470027
-0.65204
-0.88644
-1.13409
-1.34966
-0.736406
-0.931389
-1.1545
-1.38695
-1.53262
2.014
2.04112
2.06429
2.0726
2.06349
1.79948
1.81556
1.82455
1.8155
1.784
1.56716
1.5491
1.50615
1.43894
1.3434
1.29747
1.25889
1.18199
1.07188
0.930122
1.06599
0.950828
0.803143
0.633962
0.428311
1.81482
1.80292
1.78417
1.84931
1.91542
1.80302
1.78985
1.7604
1.8216
1.81053
1.79234
1.7742
1.73451
1.78105
1.68154
1.7829
1.75676
1.70656
1.72895
1.49576
1.77478
1.73779
1.67746
1.67284
1.3007
1.76794
1.71125
1.64115
1.56402
1.08541
1.76158
1.67909
1.61952
1.45978
1.20979
1.76819
1.6608
1.59198
1.41292
1.22175
1.76181
1.63233
1.57539
1.36368
1.22555
1.79844
1.62986
1.56583
1.33797
1.22952
0.789754
0.465522
0.102001
-0.226595
-0.43621
0.675851
0.448906
0.202831
-0.0161904
-0.20303
0.664205
0.479784
0.294176
0.126189
-0.036649
0.720951
0.541088
0.369905
0.214898
0.0700748
0.744275
0.566831
0.406037
0.259905
0.121221
-0.658529
-0.553544
-0.41652
-0.30594
-0.239939
-0.709953
-0.657733
-0.55641
-0.475569
-0.428745
-0.636875
-0.593936
-0.539288
-0.495737
-0.469848
-0.50448
-0.471691
-0.438084
-0.413993
-0.398638
-0.410201
-0.392704
-0.374374
-0.364131
-0.386394
-0.357478
-0.351244
-0.337214
-0.334416
-0.317079
-0.349134
-0.347922
-0.345731
-0.351554
-0.358771
-0.328828
-0.330339
-0.337757
-0.35301
-0.365847
-0.336663
-0.333245
-0.333751
-0.332086
-0.317939
-0.362752
-0.3899
-0.465531
-0.575164
-0.631342
-0.437424
0.627312
0.318953
0.0997356
-0.028171
-0.370207
0.754254
0.242573
0.0856128
-0.0588369
-0.25492
0.906876
0.143402
0.0784467
-0.084122
-0.192642
0.807015
0.0355375
0.0850668
-0.104007
-0.345015
0.430469
-0.132143
0.0978101
-0.118323
0.00954412
0.387447
0.289055
0.107144
0.0159771
-0.323576
0.440119
0.352749
0.124409
0.00265634
-0.20174
-0.418501
-0.432379
-0.4184
-0.205366
-0.218059
-0.413313
-0.454703
-0.405348
-0.420084
1.83539
1.82183
1.79361
1.75217
1.69729
1.98451
2.00754
2.01788
2.01415
1.99712
2.10515
2.13924
2.16694
2.18389
2.1877
2.16101
2.19926
2.23936
2.27208
2.28769
2.13033
2.16477
2.20212
2.2323
2.24505
0.125854
0.0404579
-0.0930232
-0.256895
-0.428854
0.615172
0.50402
0.354836
0.176829
-0.0336655
1.05188
0.935556
0.797042
0.635317
0.443435
1.39668
1.30885
1.20156
1.07241
0.921231
1.67063
1.61205
1.53519
1.44325
1.33704
1.88488
1.84334
1.84204
1.87023
1.91632
1.86844
1.83827
1.83718
1.87867
1.95471
1.85402
1.83177
1.83094
1.88754
2.00511
1.84028
1.82393
1.81973
1.88479
2.00052
1.82716
1.81455
1.80369
1.87227
1.97467
1.94322
1.85352
1.83767
1.81043
1.81058
1.89647
1.84262
1.83038
1.82647
1.82342
1.5757
1.40988
1.10505
0.651502
0.151431
1.64003
1.43252
1.11675
0.668298
0.158613
)
;

boundaryField
{
    left
    {
        type            zeroGradient;
    }
    right
    {
        type            fixedValue;
        value           uniform 0;
    }
    down
    {
        type            zeroGradient;
    }
    up
    {
        type            zeroGradient;
    }
    cylinder
    {
        type            zeroGradient;
    }
    defaultFaces
    {
        type            empty;
    }
}


// ************************************************************************* //
