/*--------------------------------*- C++ -*----------------------------------*\
  =========                 |
  \\      /  F ield         | OpenFOAM: The Open Source CFD Toolbox
   \\    /   O peration     | Website:  https://openfoam.org
    \\  /    A nd           | Version:  13
     \\/     M anipulation  |
\*---------------------------------------------------------------------------*/
FoamFile
{
    format      ascii;
    class       volVectorField;
    location    "19.8";
    object      U;
}
// * * * * * * * * * * * * * * * * * * * * * * * * * * * * * * * * * * * * * //

dimensions      [0 1 -1 0 0 0 0];

internalField   nonuniform List<vector> 
440
(
(-0.0953798 0.0770876 -7.43251e-20)
(-0.0824311 0.10255 5.68094e-20)
(0.160601 0.0646041 4.76966e-20)
(0.634802 0.0263721 1.83741e-19)
(0.932061 -0.013146 1.56545e-21)
(-0.0808307 0.0466206 3.99131e-20)
(0.163184 -0.0150596 -1.50297e-19)
(0.785234 -0.0875988 -1.20025e-19)
(1.4041 -0.140425 3.89351e-20)
(1.9948 -0.184889 -1.57873e-20)
(0.0192464 -0.0125875 4.97944e-20)
(0.718629 -0.0843256 9.6809e-19)
(1.57746 -0.0979269 -6.79065e-19)
(2.18163 -0.0857227 -2.08016e-18)
(2.59027 -0.0927305 9.42361e-19)
(0.283795 -0.0622293 -1.84169e-19)
(1.4443 -0.0170887 -7.22215e-19)
(2.21044 0.0303207 2.31784e-18)
(2.55727 0.0474643 2.60313e-18)
(2.58356 0.049626 -7.08182e-19)
(0.697684 -0.000442726 -3.49601e-19)
(1.94888 0.174651 -7.75238e-19)
(2.45052 0.228493 2.39626e-18)
(2.56777 0.227378 2.47236e-18)
(2.65577 0.199311 8.2561e-19)
(-0.0400232 0.615125 4.67714e-19)
(-0.140705 0.859696 6.41273e-19)
(-0.22973 0.878841 -1.93174e-18)
(-0.298862 0.822735 3.92317e-19)
(-0.300345 0.682895 2.48497e-18)
(-0.0671859 0.506383 -8.89885e-20)
(-0.0422962 0.869939 -5.32452e-19)
(0.00855144 0.95032 -9.73378e-21)
(0.101375 0.90307 -1.52544e-20)
(0.116967 0.812584 2.5243e-20)
(-0.0754907 0.246938 1.41171e-20)
(-0.0780816 0.546158 -2.52891e-19)
(-0.0302491 0.641898 6.64076e-20)
(0.0783243 0.611888 9.47642e-21)
(0.102502 0.538753 3.67359e-21)
(-0.0723487 0.127572 -5.11239e-20)
(-0.117735 0.306032 7.81952e-20)
(-0.091027 0.391294 -2.37408e-20)
(-0.00761994 0.403536 2.3063e-19)
(0.0683933 0.365963 -9.65021e-20)
(-0.0844098 0.0957495 -2.80679e-20)
(-0.141493 0.194173 -3.74055e-20)
(-0.0905307 0.236959 -3.29581e-20)
(0.0805882 0.226053 -7.89937e-20)
(0.270165 0.22805 -4.06001e-19)
(0.576871 -0.562294 -1.23831e-18)
(0.716958 -1.20791 2.54146e-18)
(1.60178 0.779845 3.07009e-19)
(0.762429 0.596454 2.56479e-19)
(1.0286 -0.219521 -4.17931e-20)
(1.76231 -0.642532 1.33353e-18)
(0.255315 -1.2138 -1.1377e-19)
(1.59404 0.706151 -8.76366e-21)
(0.699388 0.649358 -3.15891e-19)
(1.17401 -0.249902 1.5531e-19)
(1.57699 -0.735637 6.3277e-19)
(-0.377783 -1.13293 -6.77821e-19)
(1.0087 0.688639 4.01966e-20)
(0.596795 0.634938 -3.19041e-19)
(1.34308 -0.32174 1.06122e-20)
(1.47484 -0.650065 -4.56473e-19)
(0.280283 -1.15836 -2.82935e-19)
(0.69475 0.475567 1.25225e-18)
(0.811785 0.529176 3.13372e-19)
(1.57304 -0.398124 -4.24531e-20)
(1.958 -0.709154 -1.99475e-19)
(1.83954 -1.1212 -2.11836e-19)
(0.451785 0.376406 0)
(1.25253 0.42903 -2.41692e-19)
(1.82272 -0.437549 -1.22318e-19)
(2.23125 -0.759917 -6.74332e-19)
(2.57814 -0.921583 1.84758e-19)
(0.490062 0.279757 -7.23626e-21)
(1.8503 0.142429 -5.5949e-20)
(2.01073 -0.493844 4.32387e-19)
(2.46651 -0.813304 6.70721e-20)
(1.32458 -0.502593 6.6154e-19)
(0.20031 0.624621 4.32184e-22)
(2.06701 -0.120518 -1.72333e-19)
(1.88074 -0.46592 0)
(2.32688 -0.451091 -6.33809e-19)
(1.30455 -0.159076 2.02919e-20)
(0.906373 0.19916 6.2358e-19)
(2.27547 -0.456806 -4.50992e-20)
(1.57216 -0.434319 1.69248e-20)
(1.96457 -0.364225 3.33988e-20)
(1.06856 -0.01748 3.04299e-20)
(1.60065 0.0899468 -1.29001e-21)
(1.8318 -0.358842 9.35104e-34)
(0.812994 -0.225792 -3.08942e-20)
(0.995622 -0.0378886 1.09615e-19)
(0.601259 0.00733188 -1.9952e-20)
(1.01907 -0.113914 -8.54245e-20)
(0.397745 -0.0933642 8.36887e-20)
(-0.231629 -0.00384901 -3.07944e-20)
(2.46867 0.217711 -1.01932e-18)
(2.74113 -0.0316604 -1.3524e-18)
(2.50818 0.000517514 1.12624e-18)
(2.84432 -0.260421 2.49566e-20)
(2.25576 -0.0914248 -4.34801e-20)
(2.15269 0.151928 4.92638e-20)
(2.46019 -0.0787018 -4.43049e-20)
(2.30179 -0.0137028 -1.52154e-19)
(2.52796 -0.263606 -2.41908e-19)
(2.40018 -0.245707 -8.12125e-21)
(2.10405 0.0370653 6.95274e-20)
(2.23102 -0.0515828 1.20818e-19)
(2.19446 -0.0874613 -1.80009e-19)
(2.26818 -0.172347 5.78323e-20)
(2.25716 -0.241025 5.25141e-20)
(2.04167 -0.00626414 1.11201e-19)
(2.01951 -0.055069 9.83316e-20)
(2.09049 -0.0720654 -1.65528e-20)
(2.04502 -0.130688 3.13678e-20)
(2.11204 -0.150431 1.82734e-20)
(1.46757 -0.0230203 1.54371e-19)
(1.37282 -0.019992 -1.25296e-20)
(1.45083 -0.0402998 2.59752e-20)
(1.31509 -0.0303444 -2.27992e-21)
(1.40863 -0.0650678 4.99703e-20)
(1.61605 0.838607 1.19518e-18)
(1.56473 0.942369 -3.87472e-19)
(1.56884 1.08254 -1.44208e-18)
(1.50263 1.13666 7.83221e-19)
(0.924327 0.824825 -1.82554e-19)
(1.91735 0.814396 -6.18698e-19)
(1.87811 0.890223 -3.21839e-18)
(1.87957 0.99699 -1.2389e-18)
(1.79779 1.01615 -4.41588e-19)
(1.10788 0.726905 -7.26241e-19)
(2.22709 0.661261 8.24661e-19)
(2.20841 0.739047 2.153e-19)
(2.18827 0.838609 -2.42571e-18)
(2.06045 0.831771 -7.06757e-19)
(1.23706 0.570956 5.41395e-19)
(2.42766 0.556767 2.48557e-18)
(2.40125 0.604687 1.83424e-18)
(2.39416 0.661617 -2.1565e-18)
(2.19888 0.627835 -1.65588e-18)
(1.23455 0.383962 -3.21966e-19)
(2.55021 0.37244 1.29619e-18)
(2.58256 0.403733 -9.31786e-19)
(2.50402 0.438531 6.53219e-19)
(2.18316 0.394803 5.50683e-19)
(1.06885 0.177823 -4.86902e-19)
(0.572979 0.501264 -6.12377e-19)
(0.48183 0.537911 -4.52676e-19)
(0.363807 0.573843 4.68659e-20)
(0.227625 0.579164 2.68025e-21)
(0.0567112 0.418555 9.34066e-20)
(0.685771 0.669377 1.29568e-19)
(0.62393 0.73077 -2.82226e-19)
(0.53753 0.800363 1.91737e-19)
(0.411906 0.858251 -8.95971e-20)
(0.181153 0.652646 1.26568e-19)
(0.777735 0.861395 9.42455e-20)
(0.703346 0.945262 5.04842e-19)
(0.651433 1.04623 1.31143e-19)
(0.572528 1.08641 -3.29065e-19)
(0.316265 0.799582 2.78986e-19)
(1.07789 0.929517 2.49781e-19)
(1.02913 1.01154 -7.6422e-19)
(0.976925 1.11029 -2.04722e-18)
(0.894937 1.17873 8.18419e-19)
(0.528098 0.876842 -1.67575e-19)
(1.13473 0.974272 -1.06223e-19)
(1.1771 1.09835 -1.85877e-19)
(1.206 1.21272 -3.94903e-19)
(1.15534 1.23488 -4.44711e-19)
(0.711942 0.886815 -7.0296e-21)
(1.02433 0.0454609 -1.0494e-19)
(0.992156 0.054029 -3.60316e-20)
(1.02982 0.130576 -1.45528e-21)
(0.946875 0.158356 -2.94809e-19)
(0.896506 0.312417 3.21161e-19)
(1.01636 0.0411256 6.65895e-20)
(1.00376 0.0548013 1.28758e-19)
(1.01672 0.138317 1.42141e-19)
(0.988083 0.185316 4.2591e-20)
(0.937829 0.389202 -2.35491e-20)
(1.02579 0.038964 9.07629e-20)
(0.981197 0.0498702 -4.83798e-21)
(1.06444 0.15756 -6.82922e-21)
(0.938991 0.180542 1.55937e-19)
(1.17006 0.539658 -5.16056e-19)
(1.02362 0.0379707 -3.1119e-22)
(0.987904 0.0452583 -1.77607e-19)
(1.0627 0.170969 -7.2352e-20)
(1.0483 0.184315 -3.98086e-19)
(1.16054 0.585625 9.85916e-20)
(1.02242 0.0332235 -1.56963e-20)
(0.97686 0.0459123 4.81468e-20)
(1.12508 0.167984 3.39088e-20)
(1.00743 0.212914 4.86566e-19)
(1.43601 0.720116 -4.91965e-19)
(0.989405 0.0383689 -1.28539e-20)
(1.02033 0.0217754 9.88685e-20)
(1.11657 0.194641 -8.30404e-20)
(1.26212 0.124965 9.43137e-19)
(1.29583 0.762455 -3.76737e-19)
(0.932293 0.0178199 -1.32659e-21)
(1.08622 0.0146468 -8.97249e-20)
(1.10693 0.0988229 5.30683e-21)
(1.41218 0.148929 -2.68771e-19)
(1.19774 0.516682 -5.93491e-20)
(0.953585 0.0262686 -1.42977e-21)
(1.10154 -0.0199515 1.49716e-35)
(1.19052 0.0510165 -5.25034e-20)
(1.283 0.138099 8.38399e-20)
(1.38003 0.36692 1.88549e-19)
(1.03922 -0.0200441 3.85329e-21)
(1.07527 -0.056181 -2.73324e-20)
(1.15468 0.0165228 1.90164e-20)
(1.10475 0.0987949 2.47634e-20)
(1.61562 0.220242 -2.85246e-19)
(0.975409 -0.0232276 -3.93527e-20)
(0.852692 -0.0264703 -1.4346e-21)
(0.821578 0.010743 2.90936e-20)
(0.859874 0.0126994 -1.49445e-20)
(1.23287 0.0425949 -6.63344e-20)
(1.88311 0.608432 3.03669e-19)
(1.9452 0.65159 7.89194e-19)
(2.2538 0.485528 -1.1501e-18)
(2.28087 0.478504 2.55985e-20)
(2.55092 0.242112 5.13251e-19)
(1.74408 0.344598 8.95273e-20)
(1.75334 0.394564 1.05029e-18)
(2.02777 0.264075 1.27087e-19)
(1.98116 0.295716 -9.53279e-19)
(2.28463 0.0973443 -2.98637e-19)
(1.73481 0.25938 -2.4158e-19)
(1.8187 0.238093 -1.57949e-19)
(1.95915 0.1754 2.03199e-19)
(1.98298 0.147011 -2.98349e-19)
(2.13079 0.0623048 2.68347e-19)
(1.74024 0.131468 4.02258e-19)
(1.85549 0.108537 -4.55104e-21)
(1.87069 0.0728026 2.28328e-19)
(1.96354 0.0531413 1.8872e-19)
(1.96073 0.0105192 -1.78554e-19)
(1.3566 0.0238755 -4.79893e-20)
(1.42668 0.0136193 2.52465e-19)
(1.40578 0.00753845 1.08605e-19)
(1.45742 -0.00473201 -2.14728e-19)
(1.40075 -0.0085733 5.18236e-22)
(1.07457 -0.0180533 5.28946e-20)
(2.06493 -0.0468927 -3.82232e-19)
(2.30189 -0.0359023 1.08053e-18)
(2.28839 0.00298066 4.8321e-19)
(2.13593 0.0307281 -3.32101e-19)
(0.662513 0.0899192 9.4804e-20)
(1.84283 0.0796536 -3.96288e-19)
(2.30948 0.082582 -5.29528e-19)
(2.37158 0.0917023 6.47386e-19)
(2.12008 0.0805201 -4.06127e-19)
(0.199537 0.0709377 -2.28586e-20)
(1.22283 0.13685 4.11916e-19)
(1.96256 0.157379 5.82363e-20)
(2.35511 0.149496 3.72131e-19)
(2.52383 0.146327 1.72463e-19)
(-0.0393497 -0.0238063 1.75722e-19)
(0.429727 0.0678793 1.74322e-19)
(1.19751 0.137875 -3.72981e-19)
(1.68684 0.171838 2.04514e-20)
(2.2764 0.201918 2.9021e-20)
(-0.0952597 -0.077836 1.17191e-19)
(-0.0116994 -0.0557845 -1.29358e-19)
(0.400827 0.0168275 -1.89403e-20)
(0.859166 0.0451014 6.88405e-21)
(1.26066 0.105231 -3.95044e-20)
(-0.0737722 -0.0759403 1.04531e-20)
(-0.126839 -0.11332 6.34734e-20)
(-0.0360494 -0.113733 6.17964e-20)
(0.150334 -0.0866923 -9.38823e-20)
(0.497644 -0.0317865 2.73942e-24)
(-0.0412029 -0.0613204 -1.06597e-20)
(-0.102396 -0.134779 -9.46979e-21)
(-0.118766 -0.191818 6.90091e-21)
(-0.0869818 -0.21703 8.95093e-21)
(0.0379036 -0.177054 1.14665e-20)
(-0.0236953 -0.0387317 -3.27329e-21)
(-0.0846147 -0.117488 -8.20197e-20)
(-0.135688 -0.192791 1.21215e-19)
(-0.17764 -0.236503 3.83486e-19)
(-0.175217 -0.233047 -4.39503e-20)
(-0.0164461 0.00934756 -7.06505e-21)
(-0.126346 -0.0317714 -3.09941e-20)
(-0.250496 -0.0524314 1.29154e-19)
(-0.387982 -0.025473 4.98419e-20)
(-0.497453 0.00347473 -1.02419e-19)
(-0.036215 0.292534 -1.6586e-20)
(-0.263911 0.405673 1.02917e-19)
(-0.498721 0.503256 -6.93556e-20)
(-0.723373 0.551591 1.73048e-19)
(-0.846159 0.485219 8.01778e-19)
(1.36546 0.584276 -5.8774e-21)
(1.35752 0.124095 1.44531e-18)
(1.24966 0.27531 1.24089e-19)
(0.106671 0.0826384 1.52589e-19)
(0.412882 -0.184464 -1.96643e-20)
(1.09852 0.439245 1.16964e-19)
(1.28032 0.0855242 -1.18653e-18)
(1.50072 0.430754 6.72982e-19)
(0.388195 0.16859 1.62111e-20)
(0.475161 -0.207278 9.27971e-20)
(0.226363 0.211166 3.85278e-19)
(1.05155 -0.0520802 -5.09594e-19)
(1.65009 0.561557 -9.10524e-20)
(0.597748 0.30483 7.96865e-21)
(0.604427 -0.205921 -4.22444e-21)
(-0.83981 0.090021 2.3224e-19)
(1.01663 -0.352883 -4.16867e-18)
(1.71506 0.661843 -4.32829e-19)
(0.70681 0.410846 -2.16817e-21)
(0.748701 -0.206895 -5.04893e-20)
(-0.926682 -0.193854 2.50943e-19)
(0.987792 -0.886114 -1.0764e-18)
(1.72156 0.708117 4.68979e-19)
(0.780346 0.520322 -3.81734e-21)
(0.898048 -0.199526 -8.99426e-20)
(0.250256 0.178749 -8.41961e-20)
(-0.243641 -0.133208 0)
(-0.0678305 -0.0936378 1.92327e-20)
(-0.179758 -0.0526405 2.45638e-20)
(0.262428 -0.0250482 -7.0883e-21)
(1.71161 0.509802 0)
(1.23197 0.221824 0)
(0.945287 0.0783745 1.98945e-20)
(-0.0545081 -0.0392077 -1.596e-20)
(0.450427 -0.115 6.30935e-20)
(0.678904 0.00053751 -1.12985e-19)
(0.703325 -0.0050134 1.40772e-19)
(0.938962 -0.006132 -4.49914e-20)
(0.934347 0.00845105 2.8595e-19)
(1.34819 0.0707026 2.02615e-19)
(1.54687 0.0226715 1.06307e-19)
(1.66552 0.0642619 2.06758e-19)
(1.86998 0.0311804 -2.80522e-19)
(2.4096 0.177267 -2.40404e-20)
(2.13915 0.0955068 1.27315e-19)
(0.861551 -0.442725 -3.21557e-20)
(0.845238 -0.525985 -1.35812e-19)
(0.832105 -0.616228 -9.19657e-20)
(0.758414 -0.67724 5.69482e-20)
(0.454775 -0.524208 1.12281e-19)
(0.763435 -0.345567 1.28784e-19)
(0.708045 -0.406064 2.74627e-19)
(0.634456 -0.471339 -2.42486e-20)
(0.522154 -0.524791 1.19884e-19)
(0.279189 -0.41278 4.78238e-20)
(0.62347 -0.204035 -1.65271e-19)
(0.535248 -0.238615 -4.37199e-20)
(0.43322 -0.282134 1.44726e-19)
(0.3151 -0.321256 -5.10568e-21)
(0.134735 -0.256191 -1.00352e-19)
(0.533694 0.0282125 -4.35265e-19)
(0.447451 0.0168422 -3.61553e-19)
(0.337555 -0.00320577 2.8143e-19)
(0.211258 -0.03246 1.83899e-19)
(0.0527658 -0.0464514 1.36774e-20)
(0.514255 0.235882 -1.78807e-19)
(0.428055 0.242536 -1.75463e-19)
(0.312652 0.248972 -8.16873e-20)
(0.178042 0.2563 1.1521e-20)
(0.0238499 0.189641 1.07439e-20)
(1.89738 -0.0410878 7.09559e-19)
(2.15532 -0.102793 2.45417e-19)
(2.22336 -0.180852 -6.49342e-19)
(2.06802 -0.207354 -1.30226e-18)
(1.2234 -0.171805 1.05104e-19)
(1.88168 -0.117535 1.1883e-18)
(1.96731 -0.221909 1.57139e-18)
(1.98266 -0.336145 1.2979e-19)
(1.89657 -0.390962 2.25853e-19)
(1.19681 -0.330185 -1.48437e-19)
(1.60998 -0.27077 -3.09149e-18)
(1.67335 -0.381279 3.56865e-19)
(1.71486 -0.497019 9.6297e-19)
(1.64633 -0.563631 -3.60836e-19)
(1.05397 -0.464293 5.63188e-19)
(1.41256 -0.384961 7.31171e-19)
(1.42876 -0.4766 -1.92595e-18)
(1.41301 -0.585778 -2.21582e-18)
(1.34025 -0.662998 6.69593e-19)
(0.854126 -0.533833 4.52839e-19)
(1.14295 -0.437964 1.47334e-19)
(1.09945 -0.525042 2.13044e-19)
(1.08718 -0.637157 -3.29944e-19)
(1.02799 -0.712762 -3.9716e-19)
(0.643637 -0.55618 -3.67934e-21)
(1.07498 0.0561469 7.91595e-21)
(0.917737 0.0630525 -5.9261e-21)
(1.1112 0.0824137 -6.58678e-21)
(0.789256 0.0208971 -1.83082e-19)
(1.05252 -0.18607 -7.12925e-21)
(1.08414 0.0588562 -2.61459e-21)
(0.917121 0.0623023 5.38491e-20)
(1.10935 0.100396 -5.41848e-20)
(0.877924 0.0676357 9.71851e-20)
(0.949946 -0.0701496 -2.38081e-20)
(1.08202 0.055149 -6.43407e-20)
(0.921747 0.0604276 4.76367e-22)
(1.09805 0.102036 -2.34862e-20)
(0.879437 0.0943675 1.05451e-20)
(0.931382 -0.00998617 -1.48147e-19)
(1.06213 0.0528533 7.88869e-20)
(0.95155 0.0574309 3.60607e-21)
(1.06162 0.109476 3.71294e-20)
(0.920212 0.119157 3.23095e-20)
(0.850714 0.102639 1.18349e-19)
(1.03703 0.048386 2.00537e-20)
(0.98314 0.0576795 -3.09619e-20)
(1.02985 0.115405 5.05532e-20)
(0.950405 0.146591 8.10917e-20)
(0.833457 0.20357 -1.34312e-19)
(0.892366 0.0340757 0)
(0.700624 0.0284898 1.06285e-20)
(0.59127 0.0235942 2.9566e-21)
(0.323297 -0.00530783 3.84603e-20)
(0.617249 -0.0490554 -1.05039e-19)
(1.04144 0.0759229 -6.6734e-20)
(0.92794 0.0765645 -2.12733e-20)
(1.01015 0.0819851 -2.62409e-20)
(0.784297 0.011077 -9.54121e-20)
(0.971414 -0.172026 -1.13258e-19)
(0.851052 -0.061005 -2.54923e-20)
(0.931221 -0.0290569 4.30004e-19)
(1.01076 0.0354469 2.67501e-19)
(0.892119 0.0482336 2.52405e-20)
(0.692704 0.0248242 0)
(1.21278 -0.295174 2.44513e-19)
(1.31883 -0.261144 1.25181e-18)
(1.47931 -0.147535 -1.41404e-18)
(1.56608 -0.0217626 -4.36281e-19)
(1.46462 0.0225205 3.27533e-19)
)
;

boundaryField
{
    left
    {
        type            fixedValue;
        value           uniform (1 0 0);
    }
    right
    {
        type            zeroGradient;
    }
    down
    {
        type            noSlip;
    }
    up
    {
        type            noSlip;
    }
    cylinder
    {
        type            noSlip;
    }
    defaultFaces
    {
        type            empty;
    }
}


// ************************************************************************* //
