/*--------------------------------*- C++ -*----------------------------------*\
  =========                 |
  \\      /  F ield         | OpenFOAM: The Open Source CFD Toolbox
   \\    /   O peration     | Website:  https://openfoam.org
    \\  /    A nd           | Version:  13
     \\/     M anipulation  |
\*---------------------------------------------------------------------------*/
FoamFile
{
    format      ascii;
    class       surfaceScalarField;
    location    "73.2";
    object      phi;
}
// * * * * * * * * * * * * * * * * * * * * * * * * * * * * * * * * * * * * * //

dimensions      [0 3 -1 0 0 0 0];

internalField   nonuniform List<scalar> 
823
(
0.00472904
0.0141027
-0.0188318
0.0354862
-0.0065154
-0.0242418
0.107181
-0.0672177
-0.0044766
0.211558
-0.139846
0.0354688
-0.20269
0.0691518
0.345096
0.0102898
0.0038129
0.070727
-0.0669526
0.175461
-0.171952
0.293975
-0.25836
-0.330186
0.421471
0.0285876
-0.0247747
0.123698
-0.162063
0.234942
-0.283196
0.331969
-0.355387
-0.389589
0.391372
0.0509309
-0.0757056
0.147323
-0.258454
0.221911
-0.357784
0.261151
-0.394628
-0.403433
0.274995
0.0611316
-0.136837
0.127515
-0.324838
0.161782
-0.392051
0.17512
-0.407966
0.184845
-0.413157
-0.03409
0.0680975
-0.0340074
-0.090827
0.0924756
-0.0357386
-0.155207
0.0989861
-0.0346066
-0.218156
0.0998663
-0.036917
0.0889988
-0.276609
-0.030546
0.0124152
0.0556823
0.0189539
0.0859368
0.0267269
0.0912132
0.04045
0.0861432
0.0727597
0.0566891
0.0232224
0.0324599
0.05268
0.0564793
0.0847947
0.0590985
0.121773
0.0491649
0.0321109
0.162422
0.0107844
0.0216755
0.0294197
0.0378439
0.0529068
0.0356115
0.0847696
0.017302
-0.00813358
0.125014
0.00284375
0.0164459
0.0475807
0.100352
0.16137
0.197152
-1.05736
0.583595
0.560817
-1.07304
0.709379
0.357375
1.82866
-1.62521
0.399491
0.315929
-0.358044
-0.771077
0.728633
0.43491
-1.43558
0.468163
-1.1063
0.321609
1.97521
0.461504
0.176033
-0.821973
0.375454
-1.64861
0.268676
-0.999518
0.343175
1.90071
0.525111
-0.00590301
-0.875385
0.0403165
-1.56391
0.0901692
-1.04937
0.475898
1.51498
0.61014
-0.140145
-0.92085
0.0502355
-1.45278
0.0350421
-1.03418
0.471283
1.07874
0.679622
-0.348484
-0.966563
1.1668
-1.3352
-1.28438
0.618874
-0.486249
0.847788
0.849826
1.231
-0.731699
-0.902306
1.00781
-0.923039
-1.41997
0.64076
-0.119199
1.02369
0.466901
1.23399
-0.942004
-0.759306
0.990556
-0.56305
-1.35055
0.858409
0.0129486
1.27384
0.0514734
1.12931
-0.797479
-0.494001
0.940731
-0.255972
-1.24781
0.956105
-0.002425
1.15563
-0.148049
0.753473
-0.395325
-0.168836
0.556169
-0.812141
0.553744
0.405695
0.0103698
1.13863
0.152007
-1.10579
1.21168
0.201946
1.30242
0.300628
1.35696
0.366934
0.417675
1.04046
0.0930377
-0.981494
1.11256
0.129851
1.20426
0.208929
1.31323
0.257964
0.310934
0.973464
0.043581
-0.924007
1.02584
0.0774793
1.11548
0.119286
1.22219
0.151257
0.182574
0.896861
0.00988641
-0.863166
0.949001
0.0253395
1.02818
0.0401103
1.12874
0.0506886
0.0635101
0.632493
-0.622607
0.657833
0.697943
0.748631
0.147034
0.31167
-0.252554
-0.20615
0.0977397
0.315201
-0.265907
0.0550053
0.325603
-0.282869
0.0192063
0.318372
-0.282573
0.207847
-0.188641
0.109576
0.349049
-0.146955
0.0714879
0.353289
0.0370828
0.360009
0.00960437
0.34585
0.217451
0.0742972
0.385922
-0.11117
0.0409154
0.38667
0.0119792
0.388945
-0.00505374
0.362883
0.212398
-0.00578511
0.401054
-0.00934665
-0.0235791
0.404464
-0.033327
0.398693
-0.0268319
0.356388
0.185566
-0.0834186
0.071315
-0.0869203
-0.0802782
-0.0487287
0.200129
0.108722
-0.252955
-0.0558965
0.14627
0.113435
-0.0595756
0.0908824
0.118718
-0.0633309
0.0369163
0.119174
-0.0652079
0.0850973
-0.0481809
0.191376
0.151995
-0.234648
0.145662
0.159149
0.0944562
0.169924
0.0400144
0.173616
0.125112
0.143656
0.197919
-0.18958
0.101054
0.20175
0.0607039
0.210274
0.0226239
0.211696
0.147736
0.158707
0.230022
-0.190809
0.118901
0.241556
0.0733763
0.2558
0.0288165
0.256256
0.176552
0.0898263
-0.112358
0.0654752
0.0384058
0.0120887
0.407991
0.0604324
-0.0724442
0.419002
0.0640574
-0.0750677
0.411434
0.17036
-0.162792
0.393307
0.238166
-0.220039
0.489734
-0.349382
0.405186
0.0512262
0.412475
0.0567683
0.401862
0.180973
0.378985
0.261043
0.634071
0.397741
0.0494649
0.406628
0.0478817
0.381681
0.205919
0.370545
0.272178
0.815036
0.392498
0.0529466
0.393439
0.0469403
0.373385
0.225974
0.342395
0.303167
0.966622
0.383247
0.0656788
0.383834
0.0463534
0.342244
0.267564
0.319923
0.325489
1.17419
0.613442
0.0562569
0.652236
0.00756012
0.701196
0.218603
0.758191
0.268494
0.889764
1.04261
0.621558
0.0387191
0.672109
-0.0429907
0.748715
0.141997
0.750403
0.266807
0.612894
1.02727
0.638959
0.00378091
0.684269
-0.0883014
0.729012
0.0972544
0.784081
0.211738
0.365793
1.03118
0.653007
-0.0452054
0.640999
-0.0762939
0.689249
0.0490042
0.814932
0.0860547
0.15749
1.02324
0.558815
0.482521
0.531525
0.61758
0.77507
1.07491
-0.238443
1.06012
-0.132169
1.06619
-0.117244
1.06032
-0.00347694
0.0258466
0.97635
-0.187521
0.965251
-0.121069
0.945431
-0.0974245
0.961236
-0.0192819
0.00558863
0.965398
-0.121736
0.940522
-0.0961924
0.908603
-0.0655063
0.918616
-0.0292941
0.000197067
0.953803
-0.0523042
0.90267
-0.0450593
0.868023
-0.0308591
0.858367
-0.0196379
-0.00460246
0.722765
0.677706
0.646847
0.627209
0.0494903
0.139788
-0.189278
0.0746725
0.315901
-0.341083
0.0752076
0.372289
-0.372824
0.064863
0.376736
-0.366391
0.345786
0.0520277
-0.33295
0.0715959
0.0681922
0.146003
0.241494
0.181565
0.336727
0.185837
0.372463
0.366837
0.164786
0.0581763
0.0100159
0.1747
0.12497
0.272199
0.239228
0.33953
0.305132
0.361443
0.344925
0.0263338
-0.0163178
0.12525
0.0260541
0.250572
0.113906
0.375993
0.179711
0.257653
0.479784
0.00390558
-0.0202234
0.0506034
-0.0206437
0.151154
0.0133553
0.277485
0.0533798
0.107288
0.42785
-0.0050296
-0.0151938
0.00457286
-0.0302462
0.0489676
-0.0310394
0.124564
-0.0222167
0.0122694
0.219583
-0.00591104
-0.00928276
-0.00920775
-0.0269494
0.00130748
-0.0415546
0.0279756
-0.0488848
-0.0399346
0.0801796
-0.00533955
-0.00394321
-0.00988827
-0.0224007
-0.0107249
-0.040718
-0.00723986
-0.0523698
-0.054957
0.00778255
-0.0101873
0.00624406
-0.0239634
-0.00862462
-0.0422468
-0.0224346
-0.0664279
-0.0281887
-0.0316898
-0.0896952
-0.0277633
-0.0721265
-0.129168
-0.194273
-0.256509
0.387062
0.758333
-0.925811
0.386345
0.447406
-0.446689
0.142723
0.676847
-0.433225
0.0550006
-0.00960888
0.0973315
-0.546244
0.439959
0.416621
0.421891
0.504919
0.359108
0.263467
0.918299
0.1282
0.125658
-0.605041
0.347611
0.0820632
0.549951
0.156768
0.313163
1.15509
0.190215
0.248606
-0.653681
0.213482
-0.221114
0.583092
-0.212842
0.348106
1.39007
0.266608
0.330104
-0.69326
0.105972
0.602509
0.367368
0.339428
-0.0248305
0.639199
-0.614368
-0.146865
0.122035
-0.16246
0.0155951
-0.0274998
-0.13496
-0.196183
0.793946
-1.08056
0.469291
0.051661
0.0140322
0.0840878
-0.013801
-0.0702867
0.138395
-0.0543071
0.248484
-0.110089
0.407671
-0.159187
-0.206697
0.193496
-0.155269
0.303974
0.53881
0.859406
0.137812
-0.133084
0.163238
-0.167966
0.105029
-0.138103
0.170886
0.067758
-0.144696
0.181968
0.0275599
-0.143539
0.183737
-0.0990397
0.1266
0.178268
-0.0945259
-0.216826
0.134931
-0.0947657
0.0857262
-0.0954919
0.0352312
-0.0930437
-0.0638085
0.182973
-0.0454141
-0.232085
0.132612
-0.0444042
0.0816974
-0.0445777
0.0329368
-0.0442831
-0.0308716
0.19869
0.00533124
-0.249435
0.147187
0.00709886
0.0938766
0.00873263
0.0394661
0.0101274
0.00859445
0.201742
-0.252307
0.149265
0.094667
0.0395865
0.0376986
-0.312346
-0.058303
0.0134221
-0.342115
-0.00823725
-0.351165
-0.0165521
-0.332768
-0.205831
0.119976
-0.282511
-0.149811
0.0779959
-0.300134
0.0371667
-0.310336
0.00697082
-0.302572
-0.19886
0.137951
-0.243344
-0.177119
0.096741
-0.258924
0.0563353
-0.26993
0.0197327
-0.26597
-0.179127
0.157467
-0.209009
-0.191801
0.115403
-0.21686
0.0702776
-0.224805
0.0275934
-0.223285
-0.151534
0.153295
-0.199066
0.10732
0.0644827
0.024934
0.388785
0.106998
-0.0998028
0.385838
0.104828
-0.101881
0.353292
0.15408
-0.121535
0.296623
0.0757978
-0.0191289
-0.195243
0.323901
0.397343
0.105634
0.400724
0.101447
0.393207
0.161597
0.343411
0.125594
-0.0686586
0.402978
0.0986357
0.411081
0.0933436
0.408562
0.164117
0.369162
0.164993
0.0684189
0.408079
0.0865367
0.41693
0.0844926
0.418671
0.162375
0.388375
0.19529
0.207358
0.410072
0.419497
0.41908
0.394331
0.413307
0.0967443
0.326986
0.0863212
0.239754
0.087232
0.236296
0.00345748
-0.176152
0.412448
0.506992
0.491433
0.45713
0.441459
0.589208
0.330196
0.082252
0.256743
0.0734528
0.170681
0.0860623
0.0987526
0.071928
0.0284658
0.472394
0.354046
0.262989
0.185106
)
;

boundaryField
{
    left
    {
        type            calculated;
        value           nonuniform List<scalar> 
17
(
-0.60402
-0.60402
-0.60402
-0.60402
-0.60402
-0.39598
-0.39598
-0.39598
-0.39598
-0.39598
-0.39598
-0.39598
-0.39598
-0.39598
-0.39598
-0.510051
-0.510051
)
;
    }
    right
    {
        type            calculated;
        value           nonuniform List<scalar> 
17
(
0.168683
0.257809
0.161286
0.186996
0.238855
0.306187
0.374801
0.441935
0.5124
0.578524
0.655604
0.725336
1.16675
1.09099
0.864007
0.428309
-0.158466
)
;
    }
    down
    {
        type            calculated;
        value           uniform 0;
    }
    up
    {
        type            calculated;
        value           uniform 0;
    }
    cylinder
    {
        type            calculated;
        value           uniform 0;
    }
    defaultFaces
    {
        type            empty;
    }
}


// ************************************************************************* //
