/*--------------------------------*- C++ -*----------------------------------*\
  =========                 |
  \\      /  F ield         | OpenFOAM: The Open Source CFD Toolbox
   \\    /   O peration     | Website:  https://openfoam.org
    \\  /    A nd           | Version:  13
     \\/     M anipulation  |
\*---------------------------------------------------------------------------*/
FoamFile
{
    format      ascii;
    class       volVectorField;
    location    "0.07";
    object      U;
}
// * * * * * * * * * * * * * * * * * * * * * * * * * * * * * * * * * * * * * //

dimensions      [0 1 -1 0 0 0 0];

internalField   nonuniform List<vector> 
440
(
(0.218627 -0.176952 -1.80171e-19)
(0.614045 -0.437845 1.05683e-18)
(0.985837 -0.64347 3.74942e-19)
(1.32948 -0.799822 1.33927e-18)
(1.63472 -0.922877 -2.64882e-19)
(0.305125 -0.177808 -5.42225e-19)
(0.819826 -0.429217 -1.00858e-18)
(1.28108 -0.620007 1.28364e-19)
(1.69327 -0.763561 -1.22145e-18)
(2.05514 -0.877874 -1.03159e-18)
(0.38509 -0.152485 -6.97457e-19)
(1.00523 -0.363259 1.57427e-18)
(1.54055 -0.518857 -1.9152e-18)
(2.00563 -0.633411 1.46154e-18)
(2.40682 -0.722619 1.39826e-18)
(0.446089 -0.102796 5.63567e-19)
(1.14659 -0.243214 -1.29624e-18)
(1.73808 -0.345035 -7.68222e-19)
(2.24362 -0.418554 1.94579e-18)
(2.67504 -0.47495 2.52231e-18)
(0.479467 -0.0361788 6.88767e-19)
(1.22406 -0.0848252 1.71358e-19)
(1.84641 -0.119502 2.53086e-18)
(2.37453 -0.144085 -1.07228e-18)
(2.82333 -0.162819 -4.89969e-19)
(-0.00208741 -0.0618638 1.85297e-19)
(0.0424275 -0.172587 -6.4663e-21)
(0.0967418 -0.264388 9.33244e-19)
(0.161035 -0.340454 -1.98564e-19)
(0.228485 -0.403857 -2.05286e-18)
(0.0152444 -0.0900322 -3.29636e-19)
(0.0885317 -0.245242 -8.65714e-19)
(0.172095 -0.380964 5.64252e-20)
(0.265205 -0.490349 3.74982e-20)
(0.360579 -0.574664 5.75287e-21)
(0.0453556 -0.117365 1.08531e-19)
(0.167759 -0.313555 8.05283e-19)
(0.298468 -0.48702 1.50605e-19)
(0.43489 -0.627334 1.11519e-18)
(0.569559 -0.730966 -2.05625e-20)
(0.0880769 -0.142638 6.74084e-20)
(0.278791 -0.373684 -7.58192e-20)
(0.472489 -0.574416 3.01892e-19)
(0.664714 -0.736271 -1.77984e-18)
(0.847449 -0.852698 9.22587e-19)
(0.142895 -0.162457 -2.33143e-19)
(0.421605 -0.415751 -4.26522e-19)
(0.693501 -0.627392 -7.00309e-19)
(0.952741 -0.792198 8.7057e-19)
(1.18802 -0.905872 3.22122e-18)
(0.578228 -0.635716 -3.569e-18)
(0.963617 -0.45654 2.57523e-19)
(1.1637 -0.201811 1.9202e-19)
(1.22265 -0.0870895 -5.99366e-19)
(1.25192 -0.0235529 -1.55838e-19)
(0.770298 -0.788646 4.77493e-18)
(1.02594 -0.549104 -1.73269e-19)
(1.20764 -0.235782 -2.80663e-19)
(1.24758 -0.0989304 7.64046e-20)
(1.26601 -0.0264356 2.81591e-19)
(1.02576 -0.920861 1.33584e-18)
(1.1383 -0.631438 2.58025e-18)
(1.25133 -0.266677 1.82901e-19)
(1.27497 -0.10821 1.3692e-19)
(1.28129 -0.0285142 -1.35253e-19)
(1.32469 -1.02638 1.4492e-18)
(1.30218 -0.692434 -3.36057e-19)
(1.30315 -0.291629 -3.9085e-19)
(1.30354 -0.11405 1.41005e-20)
(1.29719 -0.0296563 -3.39545e-20)
(1.62841 -1.0796 -1.15645e-19)
(1.48563 -0.733967 -6.20965e-19)
(1.36311 -0.314239 0)
(1.3308 -0.117517 1.48039e-19)
(1.31293 -0.0298071 7.29904e-20)
(2.15114 -1.13077 -1.76915e-18)
(1.74471 -0.720426 -6.07471e-19)
(1.4801 -0.302225 3.12142e-20)
(1.37298 -0.109624 -1.29768e-19)
(1.33314 -0.0273416 -1.91061e-19)
(2.61325 -0.895447 -1.60398e-18)
(1.88299 -0.54301 2.18718e-18)
(1.5303 -0.224109 3.4824e-20)
(1.39235 -0.0820285 1.80663e-19)
(1.33688 -0.0200234 0)
(2.47784 -0.524073 -6.968e-18)
(1.63052 -0.293453 -1.57477e-19)
(1.29608 -0.118595 2.05408e-18)
(1.17327 -0.0455407 -2.91211e-19)
(1.12275 -0.0115724 2.17681e-20)
(1.75734 -0.219556 6.92755e-18)
(1.08809 -0.116486 1.61387e-18)
(0.819594 -0.0474925 2.97287e-19)
(0.729505 -0.0177692 3.79204e-33)
(0.696115 -0.00436354 -2.54912e-19)
(0.680326 -0.00051081 1.6521e-18)
(0.394616 0.0222782 7.97703e-19)
(0.294015 0.0131734 -3.07397e-19)
(0.259344 0.0057099 1.40175e-19)
(0.245154 0.00230274 -5.2515e-20)
(3.58284 -0.168657 1.26981e-17)
(3.41797 -0.503441 -1.05011e-17)
(3.13731 -0.78812 7.12618e-18)
(2.78098 -0.998556 2.34202e-18)
(2.33355 -1.10666 -4.25711e-19)
(3.77615 -0.103491 1.0394e-17)
(3.70954 -0.323138 -6.63722e-19)
(3.57021 -0.549796 -4.26696e-18)
(3.37061 -0.782907 2.67863e-18)
(3.0921 -1.01562 -6.60044e-19)
(3.10883 -0.0605694 3.66611e-18)
(3.09279 -0.181518 -2.52637e-18)
(3.05425 -0.309231 5.03349e-18)
(2.9944 -0.444123 -1.54043e-19)
(2.92093 -0.592641 -4.83945e-18)
(2.18566 -0.027597 2.79635e-18)
(2.17859 -0.0833056 8.4542e-18)
(2.15936 -0.14391 -6.56114e-19)
(2.12884 -0.207115 -6.63985e-18)
(2.10785 -0.269128 1.9624e-18)
(0.877522 -0.00183117 5.22293e-18)
(0.87455 -0.00521698 -1.16949e-19)
(0.865386 -0.00953796 -4.11445e-20)
(0.848461 -0.0162217 -2.01561e-18)
(0.838963 -0.0228989 -3.61368e-18)
(1.65296 0.942532 2.31253e-18)
(1.34855 0.818859 -9.31268e-20)
(1.00389 0.660064 -6.67196e-20)
(0.628372 0.450256 -1.89726e-19)
(0.225518 0.182529 -1.34435e-19)
(2.07005 0.893409 -1.23369e-18)
(1.71059 0.77852 -1.26146e-18)
(1.29846 0.633093 7.16229e-19)
(0.834232 0.438993 -4.85484e-19)
(0.312259 0.182164 -5.22424e-21)
(2.41816 0.73593 -5.81514e-19)
(2.01948 0.645449 5.27635e-19)
(1.55498 0.528827 2.42426e-18)
(1.0176 0.370241 8.06827e-19)
(0.391392 0.155304 5.26696e-19)
(2.68178 0.486465 2.95912e-20)
(2.25235 0.428128 -2.6501e-19)
(1.74751 0.352244 -6.51893e-19)
(1.15489 0.247628 2.05744e-18)
(0.45041 0.104157 -3.27251e-19)
(2.82556 0.173543 -1.17357e-18)
(2.37753 0.152425 -1.61056e-18)
(1.84971 0.12523 -7.30106e-19)
(1.227 0.0877956 7.97207e-19)
(0.481013 0.0366902 -3.2595e-19)
(0.233662 0.442119 -2.489e-18)
(0.164481 0.378526 -1.86503e-18)
(0.0983161 0.29844 2.52989e-19)
(0.0424477 0.196445 5.58763e-20)
(-0.0014415 0.071624 7.52425e-20)
(0.369367 0.615159 -7.60118e-19)
(0.273067 0.529453 -6.01251e-19)
(0.178441 0.413812 4.19624e-20)
(0.0929801 0.267114 -3.84969e-20)
(0.0179601 0.0987778 3.11288e-20)
(0.582796 0.768702 2.13352e-18)
(0.447685 0.663197 -3.14252e-20)
(0.309568 0.516508 -6.21087e-20)
(0.175946 0.333497 -2.42293e-19)
(0.0494918 0.125464 1.69023e-19)
(0.863468 0.884931 -1.22645e-18)
(0.680943 0.766963 1.81493e-18)
(0.487074 0.599931 8.50496e-20)
(0.289875 0.391615 1.22715e-19)
(0.0934265 0.150214 -1.21527e-19)
(1.20422 0.931105 -4.5079e-19)
(0.970102 0.816721 -4.64351e-19)
(0.709678 0.648323 3.40512e-19)
(0.434312 0.430977 3.52858e-19)
(0.149034 0.169116 1.89339e-21)
(0.782354 0.14505 -9.83592e-19)
(1.33401 0.15117 8.42065e-20)
(1.14743 0.218557 4.24622e-20)
(0.983506 0.454676 -1.35539e-18)
(0.587467 0.659152 2.02644e-19)
(0.7762 0.0998699 3.26117e-19)
(1.34181 0.145257 6.4338e-19)
(1.18461 0.244269 1.77044e-19)
(1.03827 0.54397 7.94965e-20)
(0.775189 0.815072 8.43151e-19)
(0.770528 0.0556767 -2.95414e-19)
(1.36006 0.134713 -4.26082e-20)
(1.22241 0.266503 -1.55944e-19)
(1.14028 0.624544 -9.11427e-20)
(1.02932 0.947937 7.41407e-20)
(0.765467 0.0111128 -4.94063e-20)
(1.38678 0.120458 -9.80479e-19)
(1.26768 0.283761 -6.57662e-20)
(1.29524 0.683893 2.46674e-19)
(1.32767 1.0517 9.75822e-19)
(0.7616 -0.0307913 2.41809e-19)
(1.42181 0.103419 8.23714e-20)
(1.31958 0.30171 4.82543e-20)
(1.47059 0.724791 6.54651e-19)
(1.62984 1.10239 -3.03838e-18)
(0.76595 -0.094359 8.5651e-19)
(1.47046 0.0729642 4.72437e-19)
(1.42536 0.280684 -1.38887e-19)
(1.71636 0.703674 3.64334e-18)
(2.14163 1.1438 -5.62753e-18)
(0.781906 -0.194434 -5.7337e-20)
(1.51052 0.022627 -2.45863e-19)
(1.4913 0.207192 3.78452e-20)
(1.85009 0.532211 -2.61597e-18)
(2.57851 0.899476 1.60993e-18)
(0.761623 -0.374854 4.77349e-18)
(1.34513 -0.046292 3.5067e-35)
(1.31022 0.112013 -2.01055e-18)
(1.61975 0.287247 2.87696e-18)
(2.46182 0.525804 5.08184e-18)
(0.626579 -0.281335 1.81233e-19)
(0.840855 -0.0596469 2.38548e-19)
(0.821646 0.0418943 3.26167e-19)
(1.08519 0.113091 6.65602e-19)
(1.7562 0.218013 -8.67754e-18)
(0.319491 -0.0415586 -4.18596e-18)
(0.32774 -0.00398549 1.52036e-19)
(0.297701 -0.00333198 9.65561e-19)
(0.397057 -0.0224664 -8.3724e-19)
(0.684349 0.000382616 -1.46201e-18)
(2.34592 1.12107 4.67616e-18)
(2.78524 1.01215 3.47273e-18)
(3.13974 0.802744 -5.73901e-18)
(3.41863 0.518814 -1.47141e-17)
(3.5829 0.185145 1.58941e-17)
(3.07162 1.01288 4.96236e-18)
(3.34776 0.790865 2.56164e-17)
(3.55098 0.557506 7.2505e-18)
(3.69456 0.329437 -3.08571e-17)
(3.77018 0.109716 -5.17039e-18)
(2.90534 0.589183 -7.30837e-18)
(2.98352 0.446041 -3.41163e-18)
(3.04805 0.310835 -6.37137e-18)
(3.08997 0.181115 -6.9169e-18)
(3.10817 0.0582376 6.54204e-18)
(2.10224 0.265136 5.42231e-18)
(2.12555 0.205454 -4.11599e-19)
(2.15764 0.142945 4.88325e-18)
(2.17806 0.0820932 6.30849e-18)
(2.18561 0.0259818 -5.90309e-18)
(0.840576 0.0221738 -5.70876e-19)
(0.849963 0.0156921 3.52399e-18)
(0.866669 0.00913988 2.44908e-18)
(0.875553 0.00479131 -5.17828e-18)
(0.877919 0.00136227 -3.85348e-20)
(0.286534 0.0210449 5.5784e-19)
(0.666229 0.0410352 -7.52075e-19)
(0.985122 0.0447015 -7.99797e-19)
(0.956497 0.0279539 -1.51161e-18)
(0.708319 0.016731 -6.5936e-19)
(0.249748 0.0562259 7.59451e-19)
(0.600112 0.108624 1.42431e-18)
(0.875889 0.126932 -7.12143e-19)
(0.951513 0.0985649 1.9565e-18)
(0.73449 0.0543264 -2.68125e-18)
(0.188907 0.0752392 5.03635e-19)
(0.483677 0.148 -1.35828e-18)
(0.717387 0.187254 -9.11029e-19)
(0.867713 0.177591 -1.82188e-18)
(0.751354 0.102956 -2.8748e-18)
(0.125544 0.0784558 -7.61662e-19)
(0.350094 0.162758 -1.35542e-18)
(0.542082 0.217749 4.34674e-18)
(0.686391 0.235999 -3.66411e-19)
(0.722459 0.182336 2.19528e-18)
(0.0767332 0.0734525 -6.19351e-19)
(0.234228 0.162932 1.50576e-18)
(0.37738 0.227386 5.38633e-19)
(0.488153 0.259784 -1.24292e-18)
(0.568138 0.260619 -1.8336e-19)
(0.0461415 0.0653138 4.32537e-20)
(0.152965 0.151601 -1.06126e-18)
(0.251716 0.211659 -6.49028e-19)
(0.3296 0.230687 -3.42217e-19)
(0.380924 0.22166 -3.59904e-20)
(0.0259241 0.0568102 2.9946e-19)
(0.0975433 0.131476 2.45559e-19)
(0.163605 0.168664 -4.00599e-19)
(0.218474 0.173038 2.28137e-19)
(0.26441 0.161872 1.57485e-19)
(0.0119826 0.0455322 1.81714e-19)
(0.0610689 0.0875515 2.71447e-18)
(0.106444 0.0847074 -1.72711e-18)
(0.150318 0.0691871 -3.23955e-18)
(0.193128 0.0485602 6.11717e-19)
(0.0120297 0.0257105 -3.91434e-19)
(0.044639 0.00250569 -1.99355e-18)
(0.081181 -0.0255336 3.50418e-18)
(0.124342 -0.0566944 1.65252e-18)
(0.168824 -0.0887689 -3.43409e-19)
(-0.0037163 -0.0321478 6.04148e-20)
(0.0321607 -0.0936258 -2.88902e-19)
(0.0727962 -0.144408 8.8985e-20)
(0.121879 -0.19314 9.56821e-20)
(0.173313 -0.238532 -2.74796e-19)
(0.397567 0.0620995 1.74002e-20)
(0.656113 -0.0380655 -8.05139e-19)
(0.75764 -0.0293605 2.51804e-19)
(0.816745 -0.0142076 3.48873e-19)
(0.848053 -0.00431208 3.81126e-20)
(0.36268 -0.0632455 4.95959e-20)
(0.791099 -0.113786 9.37499e-19)
(0.947941 -0.0511742 9.891e-19)
(1.03084 -0.0236218 1.13346e-19)
(1.0768 -0.00702913 -1.05286e-19)
(0.371332 -0.178927 -6.34035e-19)
(0.853885 -0.185834 2.07477e-18)
(1.04769 -0.0861682 -2.33534e-19)
(1.15496 -0.0406637 -5.59534e-19)
(1.20853 -0.0114988 1.85759e-19)
(0.402105 -0.322613 9.79136e-19)
(0.890854 -0.274375 -1.02584e-18)
(1.08583 -0.126333 -5.35786e-19)
(1.18275 -0.057732 -5.77946e-20)
(1.22924 -0.015935 -1.21094e-20)
(0.462115 -0.475252 4.05145e-19)
(0.925457 -0.364308 -3.15948e-19)
(1.12212 -0.164744 4.04726e-19)
(1.20111 -0.0729951 2.22299e-19)
(1.23956 -0.0199489 -4.15616e-21)
(0.183179 -0.0461934 9.12251e-19)
(0.150695 -0.00389494 0)
(0.175447 0.00363462 1.24145e-19)
(0.188153 0.00246398 8.91288e-20)
(0.193443 0.000916396 -1.2784e-19)
(0.419703 0.0684161 0)
(0.427041 -0.00332575 0)
(0.505171 -0.0123276 3.0698e-19)
(0.543423 -0.00574668 2.39061e-19)
(0.560299 -0.00179176 -1.0927e-20)
(0.165527 -0.000827582 -3.71472e-19)
(0.189513 -0.00172519 3.11012e-18)
(0.216402 -0.00474029 -6.81722e-19)
(0.232666 -0.0145431 -3.08274e-18)
(0.247753 -0.016426 -7.54704e-19)
(0.439092 0.00455908 6.12943e-19)
(0.492021 0.0201867 4.09889e-18)
(0.544054 0.0477075 -6.66143e-18)
(0.575336 0.0819091 2.20736e-18)
(0.607125 0.164857 3.86947e-18)
(0.380804 -0.219697 -4.40733e-19)
(0.329176 -0.229165 -1.47486e-20)
(0.252129 -0.211736 -1.21407e-19)
(0.153645 -0.152785 3.15187e-19)
(0.0466661 -0.0659401 1.16151e-19)
(0.268439 -0.152761 5.26983e-19)
(0.220759 -0.16474 1.77106e-18)
(0.165234 -0.162985 4.98945e-19)
(0.0990398 -0.130438 2.37221e-19)
(0.0264259 -0.0573947 2.02773e-20)
(0.201829 -0.0314052 -4.66239e-19)
(0.156271 -0.0524471 -8.66587e-20)
(0.110072 -0.069878 1.95869e-18)
(0.0640291 -0.0771558 4.41652e-19)
(0.012766 -0.0442579 -3.26474e-19)
(0.177348 0.112712 -9.36492e-19)
(0.129858 0.0809861 -8.92715e-19)
(0.0838154 0.0492779 1.46209e-18)
(0.0451234 0.0202183 1.84502e-18)
(0.0129784 -0.0090227 2.79564e-19)
(0.178045 0.269774 3.48924e-21)
(0.123777 0.224811 -2.05426e-19)
(0.071908 0.174543 2.08204e-19)
(0.0285524 0.118014 4.58689e-19)
(-0.00715256 0.0433358 3.51103e-20)
(0.708314 -0.0166874 1.54379e-18)
(0.956496 -0.0279371 -1.79703e-18)
(0.984936 -0.0448374 2.27596e-18)
(0.666244 -0.0411026 3.81077e-19)
(0.286571 -0.0210546 5.42156e-19)
(0.734468 -0.0542296 1.80052e-18)
(0.951353 -0.0985873 7.91996e-18)
(0.875696 -0.127047 1.03108e-18)
(0.600173 -0.108673 1.35476e-18)
(0.249853 -0.0562501 -4.8303e-19)
(0.75122 -0.102756 -1.29215e-18)
(0.867136 -0.177466 -2.2794e-18)
(0.71732 -0.187328 2.91179e-18)
(0.483766 -0.148082 -9.49992e-20)
(0.189048 -0.0752847 3.29553e-19)
(0.721898 -0.182218 5.91232e-20)
(0.685821 -0.236011 -7.67592e-18)
(0.542108 -0.21804 -5.92443e-18)
(0.35025 -0.163053 1.05941e-18)
(0.125738 -0.0785636 5.03884e-19)
(0.566588 -0.259814 4.90841e-19)
(0.487501 -0.259624 5.11252e-19)
(0.377488 -0.227996 -8.52951e-19)
(0.234538 -0.163636 -8.52952e-19)
(0.0770703 -0.0737095 -4.96733e-21)
(0.706533 0.363268 1.07515e-18)
(0.995635 0.103309 -7.51002e-20)
(0.768086 0.0366898 2.19531e-19)
(0.671805 0.0417087 -4.65104e-19)
(0.411929 -0.0587377 -6.16726e-20)
(0.78133 0.369311 -1.53196e-19)
(1.25806 0.119889 -8.81892e-19)
(0.966525 0.0707291 4.43116e-19)
(0.816354 0.117006 1.20385e-18)
(0.384178 0.0712735 -1.23664e-20)
(0.798065 0.300248 -1.92246e-18)
(1.36911 0.131144 -7.14021e-20)
(1.06037 0.111755 9.01977e-20)
(0.882817 0.190226 9.20645e-19)
(0.395701 0.191638 -9.10465e-19)
(0.795013 0.24145 1.74649e-18)
(1.35181 0.144605 9.22603e-20)
(1.08896 0.153048 -1.39997e-19)
(0.917269 0.277912 2.35718e-19)
(0.424172 0.338606 -2.06677e-19)
(0.788949 0.191787 2.90957e-19)
(1.33755 0.151309 -1.6397e-19)
(1.11475 0.187911 -6.60081e-20)
(0.948914 0.365784 2.89693e-19)
(0.477942 0.494824 1.33487e-18)
(0.272372 0.0476441 0)
(0.260934 -0.00562879 5.56451e-19)
(0.176531 -0.0162705 1.14927e-19)
(0.155149 0.00351368 -2.68282e-19)
(0.184751 0.0452329 -1.74444e-18)
(0.562719 0.258128 -1.00398e-17)
(0.674698 0.0662469 -1.95351e-18)
(0.507823 0.0174049 9.54014e-19)
(0.436722 0.00525762 -4.93106e-19)
(0.423249 -0.0665623 -4.91975e-19)
(0.247957 0.0164444 2.11224e-20)
(0.232776 0.0146349 1.89267e-18)
(0.216489 0.00478923 5.30742e-19)
(0.189565 0.00173636 3.15951e-19)
(0.165543 0.00083169 0)
(0.607446 -0.164596 -3.31063e-19)
(0.575665 -0.0817308 2.49486e-18)
(0.544124 -0.0475148 -1.95162e-19)
(0.492075 -0.0201337 -2.96548e-19)
(0.439115 -0.00453623 7.69522e-19)
)
;

boundaryField
{
    left
    {
        type            fixedValue;
        value           uniform (1 0 0);
    }
    right
    {
        type            zeroGradient;
    }
    down
    {
        type            noSlip;
    }
    up
    {
        type            noSlip;
    }
    cylinder
    {
        type            noSlip;
    }
    defaultFaces
    {
        type            empty;
    }
}


// ************************************************************************* //
