# Selection   : all
# Cells       : 440
# Volume      : 7.374263e+01
# Time        	max(p)
4.205         	2.225353e+00
