/*--------------------------------*- C++ -*----------------------------------*\
  =========                 |
  \\      /  F ield         | OpenFOAM: The Open Source CFD Toolbox
   \\    /   O peration     | Website:  https://openfoam.org
    \\  /    A nd           | Version:  13
     \\/     M anipulation  |
\*---------------------------------------------------------------------------*/
FoamFile
{
    format      ascii;
    class       volVectorField;
    location    "0.39";
    object      U;
}
// * * * * * * * * * * * * * * * * * * * * * * * * * * * * * * * * * * * * * //

dimensions      [0 1 -1 0 0 0 0];

internalField   nonuniform List<vector> 
1800
(
(0.403767 -0.363386 1.19002e-19)
(1.00121 -0.857593 5.2732e-20)
(1.26662 -1.02716 -6.73771e-19)
(1.36128 -1.04686 5.35365e-19)
(1.39497 -1.01347 1.13536e-18)
(1.40529 -0.964131 4.65674e-19)
(1.40508 -0.911049 -2.37697e-19)
(1.39974 -0.858964 -6.21433e-19)
(1.39363 -0.80666 -3.23097e-19)
(1.36964 -0.758975 -2.61115e-19)
(0.471514 -0.361714 1.86121e-21)
(1.14761 -0.841343 -9.00612e-19)
(1.43673 -1.0012 6.70736e-21)
(1.53116 -1.01686 -4.11462e-19)
(1.55753 -0.981525 9.07802e-20)
(1.55907 -0.931411 1.09206e-18)
(1.55037 -0.878152 -7.95632e-19)
(1.53769 -0.825664 4.01671e-19)
(1.52446 -0.773616 6.66564e-19)
(1.50283 -0.732487 -3.39426e-19)
(0.541326 -0.351515 5.97842e-20)
(1.2935 -0.805044 2.59042e-19)
(1.60355 -0.951327 5.45592e-19)
(1.69616 -0.962901 -3.15418e-19)
(1.71433 -0.92694 -1.36226e-18)
(1.70661 -0.877968 2.97549e-19)
(1.68911 -0.826857 5.20693e-19)
(1.66844 -0.777124 -5.23371e-20)
(1.64786 -0.728794 -4.41172e-21)
(1.62051 -0.68918 -2.32382e-20)
(0.611915 -0.332257 -6.69918e-20)
(1.43549 -0.74849 -2.84353e-19)
(1.76296 -0.877755 -3.70519e-19)
(1.85221 -0.885327 5.07636e-20)
(1.86169 -0.849832 3.66579e-19)
(1.84484 -0.803293 2.77099e-20)
(1.81902 -0.755471 -2.13087e-20)
(1.79104 -0.709249 4.82678e-19)
(1.76381 -0.664596 4.05364e-19)
(1.73255 -0.628918 -1.42955e-19)
(0.681771 -0.303646 1.50639e-19)
(1.56997 -0.672263 3.46125e-19)
(1.91059 -0.781867 -6.27306e-20)
(1.99487 -0.786025 -6.88219e-20)
(1.9953 -0.752456 -1.09011e-18)
(1.96952 -0.710035 9.02102e-21)
(1.93584 -0.667144 8.40127e-19)
(1.90106 -0.626018 2.72438e-19)
(1.86775 -0.586719 1.1922e-20)
(1.83265 -0.555371 -1.85866e-19)
(0.749111 -0.265517 -6.16499e-20)
(1.69319 -0.577269 8.35889e-19)
(2.04232 -0.665335 1.34174e-18)
(2.12036 -0.666899 -8.51095e-19)
(2.11183 -0.636624 -7.93754e-19)
(2.07782 -0.599731 1.30857e-18)
(2.03721 -0.562952 -9.21325e-19)
(1.99655 -0.527893 -1.04522e-18)
(1.95814 -0.494634 7.36208e-19)
(1.9199 -0.468338 -1.61948e-20)
(0.811999 -0.218076 3.44815e-19)
(1.8015 -0.46528 -1.32954e-18)
(2.15435 -0.530893 -3.65914e-18)
(2.22514 -0.531022 1.37094e-18)
(2.20805 -0.505504 2.01593e-18)
(2.16677 -0.475612 -5.66248e-21)
(2.12028 -0.446189 -2.52624e-18)
(2.07482 -0.418294 1.28012e-20)
(2.03229 -0.392026 2.27047e-18)
(1.99148 -0.371444 5.92721e-19)
(0.86833 -0.161832 -1.55034e-19)
(1.89139 -0.338536 7.73293e-19)
(2.24336 -0.381599 2.82414e-18)
(2.30629 -0.381536 -3.23367e-20)
(2.28145 -0.362061 -1.30265e-18)
(2.23416 -0.340378 -4.0223e-19)
(2.18309 -0.319217 0)
(2.13396 -0.299225 8.90579e-19)
(2.08839 -0.280515 -1.01125e-20)
(2.04573 -0.266191 -7.36768e-19)
(0.916055 -0.0977465 -1.69288e-20)
(1.95989 -0.200024 1.89891e-18)
(2.30676 -0.221262 2.42286e-18)
(2.36161 -0.222299 -1.9956e-18)
(2.33018 -0.210032 -1.3645e-18)
(2.27838 -0.197572 4.02073e-19)
(2.22416 -0.185368 -1.66538e-18)
(2.17263 -0.173846 -1.1817e-18)
(2.12515 -0.163134 1.35416e-18)
(2.08135 -0.155447 1.14831e-18)
(0.953222 -0.0271375 2.73116e-19)
(2.00461 -0.0532271 1.21598e-18)
(2.34266 -0.054061 4.43103e-19)
(2.38953 -0.0572932 -2.84656e-18)
(2.35306 -0.0531465 8.64895e-21)
(2.29835 -0.0505389 3.83067e-18)
(2.24242 -0.0477104 -2.04804e-18)
(2.18979 -0.0449742 -1.09374e-18)
(2.14153 -0.0424769 3.83843e-19)
(2.09742 -0.0415937 -8.49325e-19)
(0.00594476 -0.0670279 1.21984e-19)
(0.0521575 -0.164298 1.40441e-19)
(0.116594 -0.203694 -2.03769e-21)
(0.183669 -0.214102 -5.11127e-21)
(0.247585 -0.213814 -1.54613e-21)
(0.306811 -0.209494 -3.33679e-20)
(0.361196 -0.203448 6.88814e-21)
(0.41085 -0.196722 -1.5743e-20)
(0.456259 -0.18988 1.46879e-21)
(0.497637 -0.184294 -3.71837e-21)
(0.0165454 -0.110489 8.2311e-20)
(0.0789408 -0.2767 1.3304e-19)
(0.149859 -0.342538 -1.225e-19)
(0.218278 -0.357477 -4.2724e-20)
(0.281747 -0.353808 -5.32221e-20)
(0.339864 -0.343348 -6.26063e-20)
(0.392869 -0.330129 2.52227e-20)
(0.441072 -0.315956 -1.04636e-20)
(0.484974 -0.301789 -5.74897e-22)
(0.525442 -0.290995 -5.5203e-21)
(0.0341015 -0.152771 1.17837e-20)
(0.123678 -0.38496 3.07064e-19)
(0.20549 -0.47579 8.1688e-20)
(0.276156 -0.49482 2.60252e-19)
(0.33886 -0.487713 4.11246e-20)
(0.395101 -0.471225 -2.25418e-19)
(0.445782 -0.45104 -1.97909e-20)
(0.491536 -0.429681 7.13644e-20)
(0.532898 -0.408528 -3.25715e-20)
(0.571889 -0.392711 -5.83766e-21)
(0.0585479 -0.193204 -9.83437e-20)
(0.185812 -0.48693 -7.01215e-20)
(0.282623 -0.600613 2.56684e-20)
(0.356299 -0.623099 -1.05484e-19)
(0.417847 -0.612486 4.48562e-20)
(0.471418 -0.590145 1.50974e-19)
(0.518825 -0.563309 4.3384e-20)
(0.561148 -0.535153 -1.16909e-20)
(0.598989 -0.507501 1.62966e-20)
(0.635929 -0.486911 -2.02891e-21)
(0.0897854 -0.231121 0)
(0.264535 -0.58051 7.56072e-20)
(0.380017 -0.714245 4.4391e-19)
(0.457273 -0.739375 -2.70893e-19)
(0.517188 -0.725189 -4.8134e-19)
(0.56726 -0.697252 1.59156e-19)
(0.61045 -0.664198 -2.26887e-20)
(0.648394 -0.629776 -7.77582e-20)
(0.681812 -0.596269 0)
(0.716108 -0.571206 -7.00829e-21)
(0.127671 -0.265842 -1.19691e-20)
(0.35877 -0.663658 3.00713e-19)
(0.496025 -0.81404 1.35778e-19)
(0.577186 -0.840853 1.88267e-19)
(0.634877 -0.823048 -1.50556e-19)
(0.680587 -0.789866 -2.37403e-19)
(0.718631 -0.751168 4.08607e-19)
(0.751295 -0.711164 4.25131e-20)
(0.779483 -0.6726 -2.41619e-19)
(0.810471 -0.643388 -5.57216e-21)
(0.171993 -0.296644 3.26805e-20)
(0.467132 -0.73441 3.76057e-19)
(0.628566 -0.897518 4.44459e-20)
(0.713662 -0.924946 1.73454e-20)
(0.768414 -0.903527 2.63517e-19)
(0.808861 -0.865574 -3.28995e-19)
(0.840859 -0.821953 -3.25131e-19)
(0.867398 -0.777215 -2.7537e-19)
(0.889642 -0.734517 2.00242e-19)
(0.916461 -0.701448 2.2005e-19)
(0.222411 -0.322722 -1.11539e-19)
(0.587864 -0.790883 -1.52172e-19)
(0.775076 -0.96242 1.68637e-19)
(0.863809 -0.98936 -1.39056e-19)
(0.914791 -0.96442 2.77964e-19)
(0.949074 -0.922299 6.57335e-19)
(0.974197 -0.874613 4.53437e-19)
(0.993863 -0.826123 -3.44249e-19)
(1.00958 -0.780265 -1.64514e-19)
(1.031 -0.74344 2.37719e-19)
(0.278375 -0.343161 -3.0213e-19)
(0.718797 -0.831286 -9.83417e-19)
(0.932513 -1.00675 9.83042e-19)
(1.02427 -1.03217 7.87053e-19)
(1.07057 -1.00396 -6.5088e-19)
(1.09784 -0.958442 7.05526e-19)
(1.11542 -0.907706 1.01856e-19)
(1.12765 -0.856633 -8.33129e-19)
(1.13656 -0.808528 -2.01665e-19)
(1.15056 -0.767555 2.66264e-19)
(0.339114 -0.356998 -3.26546e-20)
(0.85743 -0.853975 -8.48374e-19)
(1.09748 -1.0288 -4.58777e-19)
(1.1913 -1.05179 7.18232e-19)
(1.23186 -1.02076 5.60201e-19)
(1.25121 -0.972855 -6.34009e-19)
(1.26053 -0.92036 -5.20472e-19)
(1.2647 -0.868267 3.08055e-19)
(1.26682 -0.818443 -3.12373e-19)
(1.26831 -0.772617 -1.99964e-19)
(0.641501 -0.1495 -6.75912e-21)
(0.814873 -0.115498 1.88815e-20)
(0.889611 -0.0903229 1.5326e-20)
(0.936128 -0.0708081 -7.73542e-22)
(0.962722 -0.0548943 6.82291e-22)
(0.978577 -0.041737 4.13351e-21)
(0.988333 -0.0307874 2.03897e-21)
(0.994382 -0.0215256 -3.50015e-21)
(0.997913 -0.0137461 3.02899e-21)
(0.999976 -0.00519168 3.38491e-21)
(0.658765 -0.214813 5.3983e-20)
(0.824684 -0.151315 -1.34042e-20)
(0.896983 -0.109447 3.67096e-21)
(0.941669 -0.0815667 6.2935e-21)
(0.967154 -0.0611881 1.41233e-20)
(0.982183 -0.0455031 0)
(0.991304 -0.0330715 1.95917e-21)
(0.996877 -0.022897 3.12363e-21)
(1.00009 -0.0145305 5.64561e-22)
(1.00193 -0.00547079 -3.15997e-21)
(0.686887 -0.278027 -3.53349e-20)
(0.83888 -0.186401 -9.27229e-21)
(0.906896 -0.128403 1.10282e-21)
(0.94848 -0.0922368 -8.68461e-21)
(0.972288 -0.0674045 -4.27616e-21)
(0.986202 -0.0491948 6.65756e-21)
(0.994531 -0.0352859 0)
(0.999538 -0.0242099 0)
(1.00239 -0.015272 8.24024e-22)
(1.00398 -0.00573309 0)
(0.725638 -0.337938 -2.22227e-20)
(0.857391 -0.220231 1.67347e-20)
(0.919267 -0.14698 8.07381e-21)
(0.956562 -0.102712 0)
(0.978116 -0.073481 -6.06148e-21)
(0.990626 -0.0527741 2.78082e-21)
(0.997999 -0.037407 0)
(1.00236 -0.02545 -4.40109e-21)
(1.00481 -0.0159613 0)
(1.0061 -0.00597457 -4.45363e-22)
(0.774686 -0.393449 -2.77624e-20)
(0.880147 -0.252308 4.08289e-20)
(0.933978 -0.164954 -4.82192e-21)
(0.965909 -0.112893 0)
(0.984632 -0.0793588 -4.95893e-21)
(0.995445 -0.0562037 -6.51872e-21)
(1.0017 -0.0394114 6.99294e-21)
(1.00533 -0.0266025 1.4889e-21)
(1.00731 -0.0165888 -6.57747e-22)
(1.0083 -0.00619169 3.28592e-21)
(0.833452 -0.44356 -4.98949e-19)
(0.907084 -0.282225 -8.87708e-20)
(0.950884 -0.182106 2.19834e-21)
(0.976497 -0.12268 3.11758e-21)
(0.991822 -0.0849821 8.87857e-21)
(1.00064 -0.059448 -1.8203e-21)
(1.00562 -0.0412751 -1.08916e-20)
(1.00841 -0.0276507 5.23926e-21)
(1.00989 -0.0171458 -2.97028e-22)
(1.01056 -0.00638175 2.52324e-21)
(0.900947 -0.487194 7.86916e-21)
(0.938058 -0.309806 3.95481e-20)
(0.969798 -0.198305 5.12395e-21)
(0.988268 -0.132005 -2.02171e-23)
(0.99966 -0.0903066 -2.85399e-21)
(1.0062 -0.0624755 5.82264e-21)
(1.00975 -0.0429751 2.65274e-21)
(1.0116 -0.0285791 -5.50186e-21)
(1.01254 -0.0176231 -9.51886e-22)
(1.01286 -0.00654063 -2.36175e-21)
(0.975568 -0.52337 1.93872e-19)
(0.97243 -0.334359 5.33639e-20)
(0.990375 -0.213278 0)
(1.00108 -0.140749 -4.10597e-21)
(1.00809 -0.0952796 1.85269e-21)
(1.01208 -0.0652565 2.15658e-21)
(1.01404 -0.0444927 3.81164e-21)
(1.0149 -0.0293745 -9.90532e-22)
(1.01522 -0.0180111 6.2194e-23)
(1.01519 -0.00666348 7.127e-22)
(1.05462 -0.552689 -2.92381e-19)
(1.00858 -0.355803 -1.54869e-19)
(1.01139 -0.226873 2.64458e-20)
(1.01426 -0.148717 2.28725e-21)
(1.01679 -0.0997839 -2.0378e-21)
(1.01815 -0.067736 2.57171e-21)
(1.01845 -0.0458071 -2.67798e-21)
(1.01825 -0.0300301 6.9302e-22)
(1.01793 -0.0183059 -4.20476e-21)
(1.01753 -0.00675192 -5.18924e-21)
(1.13667 -0.578733 2.02392e-19)
(1.04446 -0.380806 -1.52547e-19)
(1.03031 -0.24425 -2.16203e-20)
(1.02594 -0.158867 -1.12614e-20)
(1.02467 -0.105284 -2.88778e-21)
(1.0238 -0.0705654 -1.22882e-21)
(1.02271 -0.0471809 -2.40462e-21)
(1.02154 -0.0306391 0)
(1.02062 -0.0185395 2.57333e-21)
(1.01988 -0.00680456 7.15615e-22)
(1.27359 -0.560556 2.87961e-19)
(1.13144 -0.375202 9.40255e-20)
(1.07974 -0.2444 -5.71441e-20)
(1.0544 -0.160179 1.96341e-21)
(1.0416 -0.106252 2.91796e-21)
(1.03437 -0.071 1.9605e-21)
(1.02964 -0.0472391 6.26702e-21)
(1.02635 -0.0305133 1.91526e-21)
(1.02426 -0.0183735 -2.58123e-21)
(1.02288 -0.00672225 1.16876e-21)
(1.32127 -0.472231 2.50966e-21)
(1.16858 -0.327043 8.71446e-20)
(1.10958 -0.221526 7.42377e-20)
(1.07616 -0.148948 -8.50188e-21)
(1.05669 -0.100188 3.0791e-20)
(1.04475 -0.0673803 1.86781e-20)
(1.0369 -0.0449283 1.38035e-20)
(1.03163 -0.0290284 -1.1459e-21)
(1.02836 -0.0174731 4.86603e-21)
(1.02631 -0.00638309 4.31522e-21)
(1.37001 -0.404291 -9.52336e-20)
(1.21271 -0.290352 -7.40609e-21)
(1.14144 -0.201795 2.07191e-21)
(1.09815 -0.137622 -6.43492e-37)
(1.07157 -0.0932556 2.92161e-21)
(1.05487 -0.0629253 -5.24201e-35)
(1.04393 -0.0419887 -4.90885e-21)
(1.03669 -0.0271146 -3.06071e-34)
(1.03227 -0.0163058 1.27156e-21)
(1.02956 -0.00594934 -3.69797e-21)
(1.40129 -0.334707 -1.60851e-34)
(1.24583 -0.248464 -1.69359e-20)
(1.16741 -0.177156 -2.38268e-20)
(1.11713 -0.122892 0)
(1.08485 -0.0840766 -1.37503e-20)
(1.06406 -0.0570041 -9.03904e-21)
(1.05037 -0.0381078 -3.43612e-21)
(1.04136 -0.0246163 -4.50071e-34)
(1.03587 -0.0147987 -6.75419e-22)
(1.03255 -0.00539528 3.63158e-21)
(1.42107 -0.271119 -4.80777e-20)
(1.27135 -0.207287 2.54189e-21)
(1.18862 -0.150902 0)
(1.1332 -0.106184 0)
(1.09639 -0.0732612 0)
(1.07217 -0.049897 0)
(1.05611 -0.0334267 -1.14971e-21)
(1.04553 -0.0216052 -5.0693e-34)
(1.03909 -0.0129874 1.21869e-21)
(1.03521 -0.00473293 4.45691e-34)
(1.43323 -0.212377 -8.26646e-21)
(1.29047 -0.166554 0)
(1.2054 -0.123382 0)
(1.14637 -0.0879031 0)
(1.10604 -0.0611108 0)
(1.07905 -0.0417985 0)
(1.06102 -0.0280605 2.12615e-21)
(1.0491 -0.0181496 3.32494e-21)
(1.04186 -0.0109102 1.19316e-21)
(1.03749 -0.00397427 4.10729e-21)
(1.44029 -0.158129 0)
(1.30427 -0.126678 -4.4144e-21)
(1.21813 -0.0951766 -9.57069e-21)
(1.15665 -0.0685069 0)
(1.11373 -0.0479352 -6.87215e-21)
(1.08461 -0.0329097 -4.83378e-21)
(1.065 -0.0221352 -1.17157e-21)
(1.05201 -0.0143281 -2.03729e-21)
(1.04412 -0.00861239 3.47384e-21)
(1.03935 -0.00313544 3.03612e-21)
(1.44367 -0.107393 2.93673e-21)
(1.31309 -0.0873157 2.72976e-21)
(1.2267 -0.0662297 -8.91537e-22)
(1.16371 -0.0480292 4.57257e-36)
(1.11909 -0.0337686 -1.20101e-21)
(1.08845 -0.0232504 -3.93597e-35)
(1.06772 -0.0156615 1.97682e-21)
(1.05395 -0.010143 6.40659e-21)
(1.04557 -0.00608949 1.06157e-21)
(1.04051 -0.0022104 -3.37308e-21)
(1.43583 -0.0599421 -1.20565e-20)
(1.30932 -0.051117 5.72463e-21)
(1.22384 -0.039469 7.36116e-21)
(1.16082 -0.0289011 0)
(1.11577 -0.0204199 4.72804e-21)
(1.08463 -0.0140944 3.33413e-21)
(1.06349 -0.00950417 4.15398e-21)
(1.04942 -0.00615615 1.44012e-21)
(1.04087 -0.00368604 -5.59335e-22)
(1.03571 -0.001331 3.61693e-21)
(1.24754 -0.00939427 0)
(1.14694 -0.00979519 0)
(1.07562 -0.00797046 0)
(1.02157 -0.00593032 0)
(0.982499 -0.00421693 0)
(0.955352 -0.00292232 0)
(0.936858 -0.00197406 1.87364e-21)
(0.92455 -0.00128067 -9.00888e-36)
(0.917072 -0.000754553 1.11427e-21)
(0.912658 -0.000263405 3.27783e-21)
(2.02072 -0.0373384 7.94139e-19)
(2.00767 -0.134915 5.33048e-20)
(1.97807 -0.22978 -1.0496e-19)
(1.93245 -0.320191 -3.16684e-19)
(1.87277 -0.40397 -9.53728e-20)
(1.79882 -0.480524 -1.50871e-19)
(1.71697 -0.54552 -3.95874e-19)
(1.61861 -0.604396 1.14144e-19)
(1.53087 -0.635373 0)
(1.39564 -0.700889 5.10892e-20)
(1.93934 -0.0274003 2.32187e-19)
(1.92928 -0.100859 -2.95593e-19)
(1.9073 -0.172801 -3.43277e-20)
(1.87277 -0.24247 -1.2743e-19)
(1.82897 -0.307085 5.25245e-20)
(1.77216 -0.369302 1.35354e-19)
(1.71327 -0.42008 -5.64918e-20)
(1.63543 -0.474949 5.84348e-20)
(1.57511 -0.494432 -7.89074e-20)
(1.47247 -0.567093 2.87797e-20)
(1.87178 -0.0210141 -1.04177e-19)
(1.86388 -0.0792499 2.22711e-19)
(1.84655 -0.13618 1.60754e-19)
(1.81872 -0.191859 -2.28371e-19)
(1.78405 -0.243194 3.30161e-20)
(1.73836 -0.294529 2.02513e-19)
(1.69165 -0.335239 -1.31071e-20)
(1.62984 -0.383253 2.40811e-20)
(1.58004 -0.399775 3.59937e-20)
(1.50463 -0.46439 4.8182e-20)
(1.81911 -0.017187 -2.39152e-19)
(1.81262 -0.0622631 -1.59758e-20)
(1.79829 -0.106388 -2.38926e-20)
(1.77527 -0.149964 -3.27913e-20)
(1.74653 -0.190097 -8.3837e-20)
(1.70922 -0.231167 -8.30922e-20)
(1.67022 -0.26349 1.15576e-19)
(1.62109 -0.302919 1.254e-20)
(1.57808 -0.317554 3.29735e-21)
(1.52084 -0.370159 9.96845e-21)
(1.77792 -0.0136877 3.44986e-20)
(1.77245 -0.0482682 9.1604e-20)
(1.76015 -0.0821271 -2.96208e-20)
(1.74061 -0.115726 1.67736e-19)
(1.71588 -0.146753 -1.83569e-20)
(1.68453 -0.178788 -1.49303e-19)
(1.6507 -0.204249 2.23022e-20)
(1.61047 -0.235347 -7.03277e-20)
(1.57223 -0.248323 6.12899e-20)
(1.52693 -0.288878 4.0561e-20)
(1.74636 -0.0111822 -1.25852e-19)
(1.74164 -0.0369443 -5.37819e-20)
(1.73076 -0.0622001 3.10657e-21)
(1.71364 -0.0873487 7.7419e-20)
(1.69163 -0.11074 1.31944e-19)
(1.66436 -0.134961 -4.14296e-20)
(1.6341 -0.154604 3.42707e-21)
(1.59979 -0.178315 2.90485e-21)
(1.56503 -0.189387 1.86483e-20)
(1.52739 -0.219609 -3.38635e-20)
(1.72295 -0.00921235 -3.96872e-20)
(1.71881 -0.0274159 -8.78907e-20)
(1.70893 -0.0452778 -9.58425e-20)
(1.69351 -0.0631193 -1.59522e-19)
(1.67339 -0.0798774 2.93946e-20)
(1.64884 -0.0972889 2.48567e-20)
(1.62102 -0.111751 1.48368e-20)
(1.59049 -0.129037 1.6795e-20)
(1.55819 -0.137914 -3.42641e-20)
(1.52526 -0.159661 -7.41796e-21)
(1.70493 -0.00748048 4.71892e-20)
(1.70137 -0.0188963 1.8657e-20)
(1.69246 -0.0301046 1.17169e-20)
(1.67844 -0.0413613 -2.25043e-20)
(1.65986 -0.0520554 -1.92715e-20)
(1.63731 -0.0633341 -1.49243e-20)
(1.61129 -0.0729094 -1.63302e-20)
(1.58321 -0.0846062 1.36024e-20)
(1.55254 -0.0909677 -6.31847e-21)
(1.52246 -0.106206 1.75623e-20)
(1.67004 -0.00731964 -5.28343e-20)
(1.66723 -0.0121157 -1.00543e-20)
(1.66002 -0.0167752 8.46429e-20)
(1.64852 -0.0215494 -1.34344e-20)
(1.633 -0.0261305 -1.74073e-20)
(1.61405 -0.03137 2.62221e-20)
(1.59141 -0.0357871 -1.30327e-20)
(1.56744 -0.0420776 3.81006e-21)
(1.53884 -0.0451971 1.76977e-21)
(1.51353 -0.0549683 1.6445e-20)
(1.35036 -0.00337176 4.28543e-20)
(1.34583 -0.00252328 3.42529e-20)
(1.34123 -0.00171425 3.21553e-20)
(1.3366 -0.00105234 4.852e-20)
(1.33155 -0.00055768 -1.95241e-20)
(1.3264 -0.000412379 -2.67119e-20)
(1.31931 -0.000339302 7.4795e-21)
(1.31377 -0.00109755 1.82541e-21)
(1.30093 -0.00066982 -3.04484e-21)
(1.29833 -0.00486359 3.09592e-21)
(1.3537 0.716411 -4.75443e-20)
(1.35008 0.761205 2.71146e-20)
(1.35487 0.813366 -3.51437e-19)
(1.36194 0.871743 2.33088e-19)
(1.36993 0.934263 6.84493e-19)
(1.37704 1.00039 -1.47499e-19)
(1.37764 1.06679 -7.75508e-19)
(1.34492 1.11119 -5.70549e-20)
(1.17768 1.02853 -5.23361e-19)
(0.610897 0.567454 7.49646e-20)
(1.49245 0.699925 0)
(1.49483 0.741897 4.7656e-19)
(1.50105 0.791024 1.05195e-18)
(1.51136 0.846852 -6.19287e-19)
(1.52457 0.907539 -1.52018e-18)
(1.5383 0.972333 -1.40258e-19)
(1.54587 1.0376 -1.79912e-19)
(1.51603 1.08123 6.71974e-19)
(1.33203 0.998939 1.16713e-18)
(0.691444 0.548995 5.00742e-19)
(1.6106 0.670997 6.25528e-20)
(1.62216 0.711334 0)
(1.63577 0.757447 -6.68705e-20)
(1.65284 0.809236 6.54467e-19)
(1.67285 0.865852 5.28312e-20)
(1.69401 0.926784 -1.70795e-18)
(1.70888 0.988426 1.12079e-18)
(1.68182 1.0294 7.94812e-19)
(1.48069 0.948068 -1.07624e-18)
(0.767702 0.518172 -3.02447e-19)
(1.71547 0.623165 -1.01946e-19)
(1.7359 0.661706 -8.35284e-20)
(1.75806 0.704665 2.06198e-19)
(1.78296 0.752205 -2.58716e-19)
(1.81062 0.804174 -1.26584e-18)
(1.83968 0.86026 -9.80361e-19)
(1.86193 0.917 1.13716e-18)
(1.8373 0.954284 8.13094e-19)
(1.61861 0.875077 0)
(0.836199 0.474604 0)
(1.81134 0.559239 -7.53822e-19)
(1.8389 0.594744 -1.26242e-18)
(1.86848 0.633635 -5.09879e-19)
(1.90072 0.676247 -3.56878e-20)
(1.93584 0.722779 0)
(1.97249 0.772974 1.48587e-19)
(2.00145 0.823576 1.76156e-19)
(1.97828 0.856272 2.26495e-19)
(1.74144 0.780692 -3.47887e-19)
(0.894229 0.419242 -8.98289e-20)
(1.89711 0.481549 8.84893e-19)
(1.93009 0.512649 -4.8113e-20)
(1.96572 0.546409 -1.0491e-18)
(2.00437 0.583224 0)
(2.0462 0.623376 0)
(2.08957 0.666584 0)
(2.12415 0.709744 1.47621e-18)
(2.10094 0.737278 -1.92478e-18)
(1.84558 0.667191 -1.60875e-18)
(0.939772 0.353991 1.22776e-19)
(1.97033 0.391734 -1.20264e-18)
(2.00743 0.417463 -2.50503e-18)
(2.04785 0.445203 -4.33639e-21)
(2.09181 0.475384 5.01116e-19)
(2.13926 0.50826 -4.39988e-20)
(2.18812 0.54333 1.20167e-18)
(2.2267 0.57812 -7.23368e-19)
(2.20213 0.599914 -2.47656e-18)
(1.92818 0.537612 1.70453e-19)
(0.971246 0.281195 1.36714e-19)
(2.02872 0.291976 -9.86246e-19)
(2.0689 0.311621 1.9875e-20)
(2.11296 0.332569 3.81913e-19)
(2.161 0.355339 -3.66762e-19)
(2.21276 0.380151 5.6459e-19)
(2.26555 0.406404 1.70063e-18)
(2.30643 0.431223 -2.43728e-19)
(2.27914 0.447256 -1.50002e-18)
(1.98643 0.397098 4.58047e-19)
(0.987686 0.204502 1.02529e-19)
(2.07019 0.184781 3.64671e-19)
(2.1126 0.197845 9.63076e-20)
(2.15924 0.211369 -4.15179e-19)
(2.21012 0.226076 -9.22655e-19)
(2.26481 0.242244 1.08326e-19)
(2.32003 0.259062 1.18381e-19)
(2.36139 0.273075 -1.73187e-18)
(2.32881 0.2837 8.74517e-19)
(2.01849 0.249325 3.48848e-19)
(0.989852 0.126363 -2.56599e-19)
(2.09345 0.0726898 7.3791e-19)
(2.13715 0.0785997 -1.11188e-18)
(2.18517 0.0843624 1.97645e-19)
(2.23761 0.0905299 2.33681e-18)
(2.29374 0.0972413 1.25726e-18)
(2.34968 0.104559 -2.91208e-18)
(2.38943 0.10927 -3.34427e-18)
(2.35001 0.115527 2.0261e-18)
(2.0243 0.0978122 -1.14974e-20)
(0.978184 0.0483125 -2.90907e-20)
(0.525432 0.181937 -2.08384e-19)
(0.490968 0.18829 -1.86027e-19)
(0.448171 0.195219 1.13327e-19)
(0.400857 0.202661 -3.75583e-19)
(0.349364 0.210692 -5.37455e-20)
(0.29248 0.219363 3.27421e-19)
(0.229126 0.228161 1.01518e-19)
(0.158444 0.233214 -7.34991e-20)
(0.0846831 0.21589 -1.65283e-20)
(0.0148814 0.123399 3.09972e-20)
(0.550843 0.279674 1.69334e-19)
(0.517304 0.29271 2.46848e-19)
(0.475874 0.307022 3.5892e-20)
(0.430063 0.322367 -1.0894e-19)
(0.380202 0.338896 -3.61505e-19)
(0.325122 0.356747 2.72417e-20)
(0.263664 0.375048 2.42852e-19)
(0.194266 0.387044 -1.06308e-20)
(0.118089 0.360172 -3.08931e-20)
(0.0337699 0.204793 -9.16872e-21)
(0.593146 0.373308 -1.89151e-19)
(0.561252 0.392769 -2.06878e-19)
(0.522173 0.414089 1.76485e-19)
(0.478914 0.436944 1.65689e-19)
(0.431798 0.461564 -6.3738e-20)
(0.379733 0.48816 -1.53516e-19)
(0.321415 0.515502 -8.68021e-20)
(0.254098 0.534055 5.44601e-20)
(0.173669 0.497891 -2.70566e-20)
(0.0649046 0.282193 7.03074e-21)
(0.651284 0.460734 1.08555e-19)
(0.621718 0.486246 2.94331e-21)
(0.585927 0.514027 -1.44879e-19)
(0.546222 0.543819 1.09635e-19)
(0.50292 0.575935 -1.02111e-19)
(0.455033 0.610642 4.79323e-20)
(0.401052 0.646357 -9.14896e-20)
(0.336588 0.670903 -7.6452e-20)
(0.250076 0.625877 -2.082e-19)
(0.107484 0.353833 5.30919e-20)
(0.723766 0.539975 -3.70741e-20)
(0.697178 0.571023 -1.59416e-20)
(0.665563 0.604553 -4.41688e-20)
(0.630381 0.640551 -1.38967e-19)
(0.591935 0.679411 5.84898e-20)
(0.549353 0.721422 -1.20644e-19)
(0.500842 0.764662 1.94677e-19)
(0.439917 0.794501 3.284e-20)
(0.345738 0.741138 2.79938e-19)
(0.160631 0.417991 2.22695e-19)
(0.808579 0.609354 1.44693e-20)
(0.785538 0.645244 -4.35189e-20)
(0.758877 0.683554 1.94931e-19)
(0.729075 0.724785 9.10368e-20)
(0.696431 0.769421 1.67409e-19)
(0.660208 0.817729 5.98098e-20)
(0.618236 0.867431 3.39622e-19)
(0.561481 0.901681 1.78903e-19)
(0.458306 0.840578 1.79152e-19)
(0.222949 0.472778 1.95703e-19)
(0.903671 0.666598 -9.73501e-20)
(0.88501 0.7066 2.37876e-19)
(0.864345 0.748718 1.2221e-19)
(0.840959 0.794164 -9.70649e-20)
(0.81508 0.843516 -5.70385e-20)
(0.78611 0.89701 4.15171e-19)
(0.751484 0.952061 -9.94693e-20)
(0.699252 0.989892 -2.66546e-19)
(0.585647 0.921895 -5.08354e-20)
(0.292984 0.516833 2.27592e-19)
(1.00403 0.711263 1.50704e-19)
(0.989663 0.753921 5.60577e-20)
(0.975561 0.798432 -5.1445e-19)
(0.959642 0.846985 2.04873e-20)
(0.941875 0.900033 2.65709e-19)
(0.921617 0.957554 -2.33991e-19)
(0.89566 1.0166 -3.94526e-20)
(0.848711 1.05679 -1.23907e-19)
(0.723778 0.98257 1.51177e-20)
(0.368452 0.54867 -2.79413e-19)
(1.11402 0.737865 2.56055e-20)
(1.10638 0.782912 -3.46978e-19)
(1.09989 0.828577 -2.43358e-21)
(1.09131 0.8789 2.54863e-19)
(1.08108 0.934482 -2.38777e-19)
(1.06901 0.995058 5.14635e-19)
(1.05136 1.0573 3.97981e-19)
(1.00914 1.09953 -7.09193e-19)
(0.871112 1.0209 -5.92488e-20)
(0.448001 0.567822 -3.21787e-19)
(1.20091 0.746891 -1.7163e-19)
(1.20474 0.794488 -1.76455e-19)
(1.21278 0.841831 2.23992e-19)
(1.21737 0.89356 4.15061e-19)
(1.21914 0.950513 1.87531e-19)
(1.21841 1.01249 -4.26615e-19)
(1.21105 1.07607 1.2294e-22)
(1.17447 1.11885 1.54263e-19)
(1.02283 1.0367 -2.77195e-19)
(0.529193 0.574065 -2.39609e-19)
(0.704543 0.0236568 1.91572e-20)
(1.20455 0.0351433 -2.34014e-20)
(0.906543 0.0402208 -3.3128e-21)
(1.01389 0.0438383 0)
(0.983477 0.0514207 2.27559e-20)
(0.965969 0.0617238 2.70139e-20)
(0.941501 0.0754278 3.38031e-20)
(0.894202 0.0930894 6.74419e-20)
(0.829329 0.117521 -9.56494e-20)
(0.66017 0.148871 -1.07336e-19)
(0.704262 0.0215267 4.16091e-20)
(1.20489 0.0356277 -8.02204e-20)
(0.907306 0.0428966 -1.67961e-21)
(1.01572 0.0456469 -1.21191e-20)
(0.986096 0.0551922 1.09842e-20)
(0.969656 0.0678169 -1.40749e-20)
(0.946337 0.0858736 -8.42542e-20)
(0.901332 0.110619 0)
(0.837925 0.152642 2.05187e-19)
(0.679736 0.209555 -2.55694e-19)
(0.703787 0.0194666 -6.39586e-20)
(1.20538 0.0359779 2.19362e-20)
(0.907977 0.0453374 3.03962e-20)
(1.01791 0.0472724 1.7542e-20)
(0.989076 0.0587886 -2.62137e-20)
(0.974021 0.0737549 -3.20483e-22)
(0.952253 0.0961352 -5.92737e-20)
(0.911091 0.128024 -4.80057e-21)
(0.850098 0.186999 2.34435e-22)
(0.711433 0.268432 6.39989e-19)
(0.70311 0.0175709 -8.53537e-21)
(1.20591 0.0361864 5.19188e-21)
(0.908563 0.0474795 2.78966e-20)
(1.02048 0.0487033 1.53766e-20)
(0.99242 0.0621793 -1.32015e-20)
(0.979062 0.079484 -1.61683e-20)
(0.959305 0.106106 8.82621e-20)
(0.923344 0.145151 -1.43081e-21)
(0.866023 0.220065 -2.49537e-19)
(0.754714 0.324506 6.84385e-20)
(0.702215 0.0159071 8.68348e-21)
(1.20648 0.0362307 -4.54794e-20)
(0.909088 0.0492574 -2.20179e-20)
(1.02344 0.0499351 6.33985e-21)
(0.996132 0.0653346 0)
(0.98477 0.0849533 0)
(0.967543 0.115695 7.4958e-20)
(0.937905 0.161841 2.58003e-22)
(0.885974 0.251193 -1.21215e-19)
(0.808802 0.376999 9.39299e-20)
(0.701083 0.0145552 -1.85591e-21)
(1.20697 0.0360756 3.84413e-20)
(0.909581 0.0506074 -4.17759e-20)
(1.02681 0.0509721 -3.51406e-20)
(1.0002 0.0682257 -6.20878e-22)
(0.991133 0.0901161 6.44259e-20)
(0.977011 0.124829 1.1692e-19)
(0.954545 0.177949 -7.64198e-22)
(0.910354 0.28012 2.0685e-19)
(0.872612 0.425364 -2.04259e-19)
(0.699689 0.0136131 -2.93307e-20)
(1.20727 0.035672 1.95475e-20)
(0.91008 0.0514641 -2.7105e-21)
(1.0306 0.0518304 -5.68247e-20)
(1.00461 0.0708235 1.71104e-21)
(0.998143 0.0949334 -1.07415e-21)
(0.98773 0.133449 -7.15159e-21)
(0.973133 0.193348 -2.03394e-19)
(0.939463 0.306252 1.59254e-19)
(0.944489 0.468263 -4.74773e-19)
(0.697994 0.0131812 1.24325e-20)
(1.20732 0.0349446 -5.71369e-20)
(0.910641 0.0517695 1.4724e-20)
(1.03483 0.0525402 4.52289e-20)
(1.00934 0.0731013 8.04988e-22)
(1.0058 0.0993892 -7.45354e-20)
(0.999725 0.14158 -6.42629e-20)
(0.993525 0.20829 3.68985e-19)
(0.973797 0.330076 1.20866e-20)
(1.02317 0.509537 7.56833e-19)
(0.695956 0.0133875 -1.80479e-21)
(1.20703 0.0337528 2.45193e-20)
(0.911344 0.0514641 -3.93906e-21)
(1.03948 0.0531595 -4.69368e-20)
(1.01431 0.0749964 -8.28623e-20)
(1.01403 0.103262 1.70015e-21)
(1.01291 0.148438 -8.86569e-20)
(1.01566 0.220078 4.83178e-19)
(1.01482 0.34456 -7.54565e-21)
(1.10383 0.535846 -1.03793e-18)
(0.693583 0.0146434 8.17389e-21)
(1.20692 0.0321875 3.51271e-20)
(0.91217 0.0505386 1.62536e-20)
(1.04441 0.0538535 -1.03069e-19)
(1.01897 0.0769821 -7.67962e-20)
(1.02134 0.107965 -6.17938e-20)
(1.02356 0.157868 -1.57658e-19)
(1.03166 0.238055 -4.49143e-19)
(1.04681 0.372086 -2.67704e-19)
(1.17807 0.586051 -1.13119e-18)
(0.694518 0.0152081 -2.28587e-20)
(1.20865 0.029966 -7.09238e-21)
(0.914293 0.0479156 -1.32215e-20)
(1.05052 0.0535043 7.24062e-22)
(1.02781 0.0764718 5.39876e-20)
(1.03592 0.108203 -4.27972e-20)
(1.04763 0.158223 1.41661e-19)
(1.07151 0.23644 -4.50443e-19)
(1.11546 0.356856 -1.90316e-19)
(1.24194 0.561834 6.39845e-19)
(0.695138 0.0134179 2.00598e-20)
(1.2124 0.0273888 1.32278e-20)
(0.918387 0.0433129 6.42418e-21)
(1.05589 0.0509669 4.05933e-20)
(1.03769 0.0725674 8.31344e-20)
(1.05073 0.102931 1.25763e-19)
(1.07036 0.149514 3.05124e-20)
(1.10658 0.219923 2.46487e-19)
(1.16371 0.322095 3.13789e-19)
(1.30515 0.481232 -1.4866e-20)
(0.695489 0.0111064 -2.284e-20)
(1.21618 0.024256 -4.65122e-21)
(0.922681 0.0386446 -1.29079e-20)
(1.06133 0.047317 1.96765e-20)
(1.04718 0.0673542 2.27584e-34)
(1.06467 0.0955713 -8.89405e-21)
(1.09106 0.137721 -5.78251e-34)
(1.13715 0.199451 2.05544e-20)
(1.2021 0.282832 -5.75844e-20)
(1.35476 0.409928 -4.95666e-20)
(0.695856 0.0079537 3.83502e-20)
(1.21979 0.0204926 -4.95944e-35)
(0.926877 0.0336145 1.26068e-20)
(1.06657 0.0426425 -1.68093e-20)
(1.05588 0.0608092 -3.28172e-20)
(1.07724 0.086265 -4.20827e-20)
(1.10922 0.123329 -7.24791e-34)
(1.16267 0.17624 -1.08095e-19)
(1.23281 0.242781 -1.47256e-19)
(1.38832 0.342181 9.19057e-20)
(0.69629 0.00392131 0)
(1.22336 0.0161659 -9.44816e-37)
(0.930895 0.0282698 0)
(1.07145 0.0370955 0)
(1.06361 0.0530969 0)
(1.08823 0.0752894 0)
(1.12473 0.106821 -4.38259e-34)
(1.18333 0.150885 0)
(1.25709 0.202577 -2.24194e-20)
(1.40886 0.2784 5.57387e-20)
(0.696855 -0.000855483 2.45684e-20)
(1.22706 0.0113655 -4.37873e-21)
(0.934703 0.0227113 1.18464e-20)
(1.0758 0.0308534 0)
(1.07027 0.0444217 0)
(1.09749 0.0629801 7.62934e-21)
(1.13753 0.0887543 3.09137e-20)
(1.19957 0.124107 -1.5421e-20)
(1.27578 0.163058 -3.33848e-20)
(1.42064 0.218924 2.07843e-19)
(0.697585 -0.00710869 -4.79327e-20)
(1.23099 0.00603502 5.64296e-21)
(0.938264 0.0170072 1.1417e-20)
(1.07952 0.0240873 -5.34652e-21)
(1.07572 0.0349859 -1.12705e-20)
(1.10493 0.0496439 -8.97977e-21)
(1.14762 0.0695661 -2.32688e-20)
(1.21186 0.0964629 -4.45655e-20)
(1.2896 0.124574 -6.15097e-20)
(1.42694 0.163659 9.14175e-20)
(0.698586 -0.0124578 -3.40504e-20)
(1.23544 0.000728916 -1.5966e-20)
(0.941424 0.0117481 1.06917e-20)
(1.0823 0.0169314 -1.4436e-20)
(1.0797 0.0248747 7.43981e-35)
(1.11034 0.0353907 8.27002e-21)
(1.15492 0.0493625 -1.06471e-33)
(1.22049 0.0679857 -1.57184e-20)
(1.29901 0.0866607 2.10503e-20)
(1.43007 0.111164 2.79028e-20)
(0.698376 -0.0255703 1.78769e-19)
(1.2342 -0.00535362 -9.40238e-21)
(0.938898 0.0057802 1.05781e-20)
(1.07891 0.0103891 2.82256e-21)
(1.07711 0.0151127 3.83997e-21)
(1.1087 0.0217294 1.50553e-20)
(1.15448 0.0301853 8.78113e-21)
(1.22087 0.0413965 -5.20553e-21)
(1.29948 0.0520858 -2.2598e-20)
(1.42703 0.0652853 1.44721e-19)
(0.654448 -0.0189733 2.86661e-20)
(1.10728 -0.00813764 -7.18346e-35)
(0.822613 0.00276381 9.99758e-21)
(0.956329 0.00162418 0)
(0.951572 0.0033333 0)
(0.980754 0.00476894 8.52455e-21)
(1.02277 0.00657827 -1.01532e-35)
(1.08281 0.00911837 -1.56994e-20)
(1.15443 0.0112429 -3.09684e-20)
(1.26357 0.0135738 6.16042e-20)
(1.41747 0.622495 -1.90237e-19)
(1.50925 0.619017 -2.82046e-19)
(1.60288 0.593517 0)
(1.68927 0.547146 9.14936e-20)
(1.7704 0.487227 4.51814e-19)
(1.84456 0.416975 -1.46788e-19)
(1.9086 0.337381 1.3576e-18)
(1.95987 0.25006 -5.17522e-20)
(1.99657 0.157011 -3.56363e-19)
(2.01705 0.0608804 3.09338e-19)
(1.45737 0.512814 7.69856e-20)
(1.53157 0.500582 1.15395e-19)
(1.61224 0.467737 -2.56691e-21)
(1.68463 0.42381 1.54048e-19)
(1.74945 0.37379 -1.4198e-19)
(1.80696 0.317964 -3.72508e-19)
(1.85566 0.256266 -7.43436e-20)
(1.89419 0.189513 5.27844e-19)
(1.92143 0.119075 -1.87107e-20)
(1.93659 0.0462572 -4.4036e-19)