/*--------------------------------*- C++ -*----------------------------------*\
  =========                 |
  \\      /  F ield         | OpenFOAM: The Open Source CFD Toolbox
   \\    /   O peration     | Website:  https://openfoam.org
    \\  /    A nd           | Version:  13
     \\/     M anipulation  |
\*---------------------------------------------------------------------------*/
FoamFile
{
    format      ascii;
    class       volScalarField;
    location    "0.445";
    object      p;
}
// * * * * * * * * * * * * * * * * * * * * * * * * * * * * * * * * * * * * * //

dimensions      [0 2 -2 0 0 0 0];

internalField   nonuniform List<scalar> 
440
(
7.85487
10.6114
12.9745
13.1578
10.1845
20.749
24.1324
27.128
27.8292
25.9425
41.2871
44.3185
47.0217
47.8145
46.6541
67.4208
69.5187
71.4322
72.0888
71.4016
96.698
97.515
98.312
98.712
98.6785
-0.400105
-0.499687
-0.0287646
0.529463
0.869742
-1.664
-2.32469
-2.05892
-1.36083
-0.723233
-2.02295
-2.90089
-2.81563
-2.05489
-0.934893
-0.671343
-0.80226
-0.392423
0.576885
2.44487
3.10433
4.41628
5.84736
7.28184
9.53457
2.12596
2.30998
1.3991
0.724912
0.242363
1.08728
2.10647
1.27706
0.666776
0.228907
-0.0666253
1.68585
1.13766
0.61682
0.218421
-0.368437
1.08305
0.924436
0.572193
0.21292
1.54697
0.500709
0.635917
0.52391
0.211427
4.42281
0.275782
0.354735
0.477428
0.207247
6.75669
0.726267
0.443567
0.478468
0.156385
10.018
2.47084
1.09885
0.597644
0.114027
13.9107
4.78654
2.16167
0.859041
0.110037
16.6483
7.15406
3.4857
1.31564
0.191656
100.723
75.8739
53.3586
33.1845
12.3827
102.418
78.9759
57.5705
39.0902
23.5167
104.319
82.736
62.5084
45.2674
32.9206
105.202
85.0558
66.5382
51.2198
40.6941
105.121
84.7783
66.3639
51.2873
40.9338
219.905
216.429
216.139
218.257
220.991
202.723
200.259
200.52
203.262
206.553
180.576
178.804
179.168
181.59
184.469
154.777
153.434
153.639
155.233
157.13
126.896
126.182
126.121
126.582
127.174
235.575
236.002
236.636
237.056
236.798
236.175
236.809
237.363
237.338
236.384
234.993
235.969
236.387
236.116
235.127
230.11
231.713
232.282
232.422
232.331
221.616
223.483
224.5
225.713
227.069
235.802
234.74
234.921
234.104
234.269
235.773
234.726
234.869
234.07
234.818
235.764
234.689
234.818
234.198
235.359
235.766
234.631
234.821
234.46
234.953
235.769
234.554
234.896
234.662
232.257
235.778
234.424
234.951
234.442
228.752
235.95
234.296
234.84
233.968
226.39
236.833
234.058
234.198
232.273
223.368
240.855
234.045
233.011
229.796
219.685
249.821
234.766
231.797
227.247
216.929
217.792
196.266
175.06
151.767
126.481
207.402
191.406
172.36
150.456
126.686
198.914
186.233
168.65
148.122
126.368
191.773
180.815
165.132
146.295
125.954
191.555
180.796
165.387
146.695
126.184
96.4259
95.5491
95.1013
94.3345
94.1779
57.349
55.402
53.6966
51.775
51.0092
29.522
27.1787
24.4161
22.1174
20.7931
15.0722
12.6558
10.1905
8.1706
7.20026
9.24368
7.35621
5.96951
4.99413
4.40707
6.0148
4.91267
4.3325
4.24345
4.33168
4.10953
3.64909
3.57563
3.73038
3.88371
2.80871
2.79212
3.02327
3.32518
3.48314
1.71109
2.0137
2.46207
2.81161
2.95623
0.6663
1.06279
1.63286
2.03267
2.2059
3.65353
3.22204
2.11028
1.01256
0.302254
3.70679
3.05184
2.01835
0.958117
0.290827
3.51082
2.79352
1.89025
0.906059
0.280228
3.19416
2.55431
1.7301
0.851681
0.270106
2.77714
2.40727
1.55326
0.791199
0.259473
4.52126
3.20722
2.02218
1.04605
0.328158
3.78477
3.29998
2.1129
1.04524
0.314117
94.9335
54.1793
27.5452
14.5235
9.5041
93.7124
51.17
23.0222
9.50854
5.299
232.154
232.235
232.186
231.672
230.596
232.745
232.918
233.148
233.188
232.814
233.305
233.477
233.862
234.259
234.43
233.894
234.044
234.446
235.044
235.459
234.625
234.86
235.36
235.967
236.221
142.005
141.813
140.985
140.475
139.563
185.235
184.426
182.447
180.681
178.703
215.53
214.16
211.81
208.996
206.622
229.163
228.155
226.106
223.609
221.164
232.01
231.395
230.424
229.043
227.145
238.84
234.471
234.584
233.518
232.911
237.145
234.51
234.672
233.69
232.932
236.392
234.597
234.775
233.913
233.259
236.034
234.676
234.875
234.103
233.627
235.869
234.726
234.93
234.166
233.931
252.274
235.806
234.941
233.454
231.997
243.182
234.717
234.52
233.396
232.713
226.95
221.876
208.77
182.057
141.254
231.146
226.904
213.324
185.081
142.477
)
;

boundaryField
{
    left
    {
        type            zeroGradient;
    }
    right
    {
        type            fixedValue;
        value           uniform 0;
    }
    down
    {
        type            zeroGradient;
    }
    up
    {
        type            zeroGradient;
    }
    cylinder
    {
        type            zeroGradient;
    }
    defaultFaces
    {
        type            empty;
    }
}


// ************************************************************************* //
