/*--------------------------------*- C++ -*----------------------------------*\
  =========                 |
  \\      /  F ield         | OpenFOAM: The Open Source CFD Toolbox
   \\    /   O peration     | Website:  https://openfoam.org
    \\  /    A nd           | Version:  13
     \\/     M anipulation  |
\*---------------------------------------------------------------------------*/
FoamFile
{
    format      ascii;
    class       volVectorField;
    location    "0.6725";
    object      U;
}
// * * * * * * * * * * * * * * * * * * * * * * * * * * * * * * * * * * * * * //

dimensions      [0 1 -1 0 0 0 0];

internalField   nonuniform List<vector> 
1800
(
(0.0250644 -0.0293578 1.41814e-19)
(0.496584 -0.42352 6.5562e-20)
(0.999003 -0.817098 -3.93186e-19)
(1.30559 -1.02553 5.00894e-19)
(1.43993 -1.08208 1.29916e-18)
(1.48319 -1.06022 5.68495e-19)
(1.48857 -1.00916 -2.96071e-19)
(1.47992 -0.951814 -7.46022e-19)
(1.46881 -0.890707 -3.96352e-19)
(1.4362 -0.839573 -3.25884e-19)
(0.0502059 -0.0453911 5.95362e-20)
(0.598052 -0.431707 -3.20985e-19)
(1.1564 -0.804142 4.47446e-21)
(1.48515 -0.995075 -4.45762e-19)
(1.62073 -1.04235 1.1869e-19)
(1.65747 -1.01684 1.30418e-18)
(1.65529 -0.964671 -9.4396e-19)
(1.64089 -0.906374 4.82154e-19)
(1.6252 -0.846207 7.96433e-19)
(1.60275 -0.801912 -4.10645e-19)
(0.0826461 -0.0608234 6.36351e-21)
(0.707201 -0.429471 9.60789e-20)
(1.31524 -0.771866 3.02125e-19)
(1.65977 -0.941393 -2.85052e-19)
(1.79227 -0.979642 -1.53054e-18)
(1.81959 -0.95313 3.49228e-19)
(1.80721 -0.904075 6.20558e-19)
(1.78323 -0.851028 -7.56204e-20)
(1.75833 -0.798043 -5.25718e-21)
(1.72624 -0.756303 -3.39097e-20)
(0.122335 -0.0737628 -1.02578e-20)
(0.82206 -0.413982 -1.10214e-19)
(1.47222 -0.717813 -2.5554e-19)
(1.82653 -0.862147 6.86919e-20)
(1.9533 -0.890564 3.97588e-19)
(1.97101 -0.863037 3.62414e-20)
(1.94944 -0.816658 -2.51118e-20)
(1.9175 -0.767209 5.69059e-19)
(1.88544 -0.717883 4.74118e-19)
(1.84989 -0.680876 -1.59677e-19)
(0.16897 -0.082842 1.07985e-19)
(0.94012 -0.38467 1.71425e-19)
(1.62307 -0.643682 -7.94557e-20)
(1.98011 -0.761276 -9.34281e-20)
(2.09794 -0.781146 -1.19578e-18)
(2.10533 -0.754946 1.07509e-20)
(2.07499 -0.713955 9.65451e-19)
(2.03592 -0.671067 3.3013e-19)
(1.99762 -0.629022 2.1464e-20)
(1.95794 -0.596738 -2.10398e-19)
(0.22133 -0.0861726 -7.68753e-20)
(1.05767 -0.339772 2.41482e-19)
(1.76301 -0.549088 1.00608e-18)
(2.11598 -0.639258 -7.87769e-19)
(2.22245 -0.651698 -8.67474e-19)
(2.21951 -0.628031 1.47472e-18)
(2.18123 -0.593276 -1.06594e-18)
(2.13592 -0.557448 -1.18565e-18)
(2.09223 -0.52259 8.57182e-19)
(2.04917 -0.496166 -3.009e-20)
(0.27791 -0.0824128 8.16673e-20)
(1.17098 -0.27923 -5.71598e-19)
(1.88782 -0.436242 -2.6753e-18)
(2.2304 -0.499982 1.31032e-18)
(2.32378 -0.507074 2.19083e-18)
(2.31105 -0.487728 -6.43058e-21)
(2.26617 -0.460639 -2.87829e-18)
(2.21606 -0.433033 1.37351e-21)
(2.16839 -0.406359 2.59604e-18)
(2.12278 -0.386212 6.8393e-19)
(0.336455 -0.0703772 -1.25415e-21)
(1.27561 -0.203253 4.47062e-19)
(1.99303 -0.307258 2.07361e-18)
(2.31981 -0.346618 -6.83251e-20)
(2.39917 -0.350609 -1.41013e-18)
(2.37761 -0.337002 -4.43632e-19)
(2.32749 -0.318509 0)
(2.27387 -0.299801 1.00942e-18)
(2.2234 -0.281806 6.01076e-21)
(2.17612 -0.268602 -8.27118e-19)
(0.394325 -0.0494837 2.98967e-21)
(1.36734 -0.113227 9.5619e-19)
(2.075 -0.165436 1.86678e-18)
(2.38191 -0.183398 -1.93248e-18)
(2.44723 -0.186661 -1.44113e-18)
(2.4182 -0.180009 4.50549e-19)
(2.36441 -0.1708 -1.90057e-18)
(2.30871 -0.161413 -1.30554e-18)
(2.25673 -0.152346 1.54529e-18)
(2.20871 -0.146303 1.31835e-18)
(0.448582 -0.0198065 1.11032e-19)
(1.44217 -0.0112634 6.54807e-19)
(2.13074 -0.0143869 3.51051e-19)
(2.41521 -0.0145942 -2.80987e-18)
(2.46715 -0.0192987 3.29076e-20)
(2.43231 -0.0205103 4.28811e-18)
(2.37646 -0.0209551 -2.28555e-18)
(2.32003 -0.0210449 -1.27455e-18)
(2.2678 -0.0209278 4.21551e-19)
(2.22002 -0.0220909 -9.57619e-19)
(-0.00378304 0.000295077 9.92591e-20)
(-0.00189294 -0.0800792 5.21203e-20)
(0.0396062 -0.168367 -1.60637e-21)
(0.099096 -0.221978 -8.85108e-21)
(0.165582 -0.243093 -2.1524e-21)
(0.231336 -0.245764 -5.22265e-20)
(0.292787 -0.240402 1.26813e-20)
(0.349108 -0.232334 -1.66297e-20)
(0.400014 -0.223838 3.24636e-21)
(0.447884 -0.217016 -8.45765e-21)
(-0.00497921 0.00926853 2.77189e-20)
(0.00998036 -0.119693 7.39946e-20)
(0.0664828 -0.268004 -1.01168e-19)
(0.135022 -0.358394 -4.54689e-20)
(0.204759 -0.392716 -7.90679e-20)
(0.270555 -0.394997 -9.06407e-20)
(0.330651 -0.383383 4.05516e-20)
(0.38518 -0.367193 -1.03941e-20)
(0.434089 -0.350492 -9.68877e-21)
(0.48093 -0.337973 -5.5003e-21)
(-0.00740987 0.0167016 -4.49546e-20)
(0.0287297 -0.159387 1.71423e-19)
(0.110017 -0.364613 7.01337e-20)
(0.193586 -0.48934 2.65703e-19)
(0.268757 -0.535614 5.07312e-20)
(0.334658 -0.537083 -3.04985e-19)
(0.392554 -0.519242 -2.83283e-20)
(0.444155 -0.495156 1.06127e-19)
(0.48981 -0.470629 -5.14498e-20)
(0.535071 -0.452609 -1.2216e-20)
(-0.0105001 0.02198 -1.19029e-19)
(0.0549432 -0.1989 -2.85164e-20)
(0.170147 -0.456494 3.31355e-20)
(0.274193 -0.612025 -1.40025e-19)
(0.356654 -0.668483 7.77386e-20)
(0.422558 -0.668583 1.99403e-19)
(0.477364 -0.644591 5.88422e-20)
(0.524917 -0.612955 -1.65732e-20)
(0.56614 -0.581139 2.27139e-20)
(0.609289 -0.557861 -2.87973e-21)
(-0.0134793 0.0246015 0)
(0.0893807 -0.237982 9.09325e-20)
(0.246693 -0.541993 2.29591e-19)
(0.375892 -0.72374 -2.63164e-19)
(0.467059 -0.788141 -5.81805e-19)
(0.532682 -0.786221 2.03653e-19)
(0.583486 -0.756236 -2.97654e-20)
(0.625934 -0.717539 -1.05193e-19)
(0.661692 -0.679132 0)
(0.70223 -0.650853 -9.52525e-21)
(-0.0155641 0.0241498 4.22528e-20)
(0.132753 -0.276395 1.12501e-19)
(0.339333 -0.619456 2.68776e-20)
(0.497318 -0.82187 2.50637e-19)
(0.59803 -0.891601 -1.97849e-19)
(0.662877 -0.886991 -3.01691e-19)
(0.708785 -0.851309 5.37021e-19)
(0.745195 -0.806218 5.68398e-20)
(0.774683 -0.762055 -3.21585e-19)
(0.812109 -0.728944 -7.44001e-21)
(-0.0159036 0.0199786 5.98294e-21)
(0.18551 -0.313657 5.34198e-20)
(0.447481 -0.68702 1.44145e-19)
(0.636595 -0.903883 2.79064e-20)
(0.746972 -0.976158 3.26357e-19)
(0.810302 -0.968311 -4.15725e-19)
(0.850451 -0.927455 -4.24745e-19)
(0.880036 -0.876897 -3.61867e-19)
(0.902772 -0.827914 2.64784e-19)
(0.936293 -0.789861 2.88681e-19)
(-0.0129513 0.0118302 -1.30457e-19)
(0.248547 -0.348768 3.50528e-20)
(0.569946 -0.742837 3.10811e-19)
(0.791101 -0.96757 -1.79925e-19)
(0.910544 -1.03971 3.38314e-19)
(0.971399 -1.02845 8.1956e-19)
(1.00498 -0.983434 5.76533e-19)
(1.02707 -0.928941 -4.49622e-19)
(1.04287 -0.87636 -2.14776e-19)
(1.07036 -0.833008 3.09681e-19)
(-0.00557914 0.000179849 -2.23246e-19)
(0.321865 -0.380282 -3.80174e-19)
(0.704475 -0.784865 6.14214e-19)
(0.956855 -1.01082 7.22204e-19)
(1.08387 -1.08037 -7.53264e-19)
(1.14095 -1.06594 8.55977e-19)
(1.16704 -1.01838 1.37917e-19)
(1.18079 -0.962348 -1.04994e-18)
(1.18939 -0.907875 -2.56955e-19)
(1.20562 -0.859406 3.46808e-19)
(0.00683911 -0.0139311 5.77238e-20)
(0.40457 -0.406005 -3.81618e-19)
(0.847929 -0.810498 -4.31025e-19)
(1.12893 -1.03095 7.48044e-19)
(1.26081 -1.09532 6.12028e-19)
(1.31181 -1.07756 -7.70366e-19)
(1.3283 -1.02843 -6.43946e-19)
(1.33161 -0.972316 3.84244e-19)
(1.33126 -0.91609 -3.98079e-19)
(1.32769 -0.864019 -2.43842e-19)
(0.626121 -0.176607 4.21866e-20)
(0.803216 -0.133751 -5.59765e-20)
(0.889974 -0.10489 6.13234e-21)
(0.940589 -0.0821975 1.10218e-20)
(0.970012 -0.0637836 -5.57661e-21)
(0.987569 -0.0487067 -2.83109e-21)
(0.99846 -0.0363358 -4.59601e-21)
(1.00535 -0.0260326 -3.08814e-21)
(1.00952 -0.0179149 7.85686e-21)
(1.01231 -0.0074624 2.91411e-21)
(0.643785 -0.251801 1.14654e-19)
(0.815486 -0.172839 1.14023e-20)
(0.898394 -0.125966 3.99687e-21)
(0.947 -0.0940664 -5.56112e-21)
(0.975102 -0.0707511 -1.42986e-20)
(0.991666 -0.0528901 0)
(1.00178 -0.038896 -4.80005e-21)
(1.00809 -0.0276033 3.81416e-21)
(1.01186 -0.0188791 4.69605e-22)
(1.01431 -0.00784221 -3.6011e-21)
(0.671972 -0.324257 -7.79634e-20)
(0.833206 -0.211275 -3.36969e-20)
(0.90959 -0.14685 1.44681e-20)
(0.954813 -0.105827 -8.51233e-21)
(0.98096 -0.0776158 -3.74847e-21)
(0.996215 -0.0569734 6.02172e-21)
(1.00538 -0.0413605 0)
(1.01099 -0.0290908 0)
(1.01431 -0.0197754 -2.19669e-21)
(1.01639 -0.00819116 0)
(0.710715 -0.392477 -3.64783e-20)
(0.856054 -0.248535 6.96447e-20)
(0.923544 -0.167326 7.61527e-21)
(0.964033 -0.117366 0)
(0.987588 -0.0843079 1.97741e-20)
(1.00121 -0.0609139 -3.23026e-21)
(1.00925 -0.0437024 0)
(1.01407 -0.0304775 4.31838e-21)
(1.01687 -0.0205926 0)
(1.01854 -0.0085043 6.68214e-22)
(0.760043 -0.454987 -3.94795e-20)
(0.883646 -0.284106 9.49542e-20)
(0.94021 -0.187184 -4.08701e-21)
(0.97466 -0.128572 0)
(0.994976 -0.0907612 4.11877e-21)
(1.00664 -0.0646698 6.34251e-21)
(1.01337 -0.0458949 5.87052e-21)
(1.01729 -0.0317468 1.07419e-21)
(1.01953 -0.0213195 -2.23461e-21)
(1.02077 -0.00877679 2.65346e-21)
(0.819712 -0.510331 -7.31276e-19)
(0.9155 -0.31761 -1.8159e-19)
(0.959489 -0.206278 1.57809e-21)
(0.986687 -0.139351 2.89138e-20)
(1.00312 -0.0969158 -6.43266e-21)
(1.01249 -0.068201 4.69003e-21)
(1.01773 -0.0479115 4.89918e-21)
(1.02066 -0.0328802 -9.33751e-21)
(1.02227 -0.021946 -2.06506e-22)
(1.02306 -0.00900615 1.12882e-23)
(0.888614 -0.556693 -5.64769e-21)
(0.950597 -0.348267 7.13515e-20)
(0.981089 -0.224473 2.7081e-21)
(1.00007 -0.149652 -8.37794e-22)
(1.01198 -0.102735 -2.25293e-20)
(1.01874 -0.0714773 5.27533e-21)
(1.02232 -0.0497295 -3.43185e-21)
(1.02414 -0.0338613 -4.22509e-21)
(1.02507 -0.0224606 1.13653e-21)
(1.02536 -0.00918667 -1.83609e-21)
(0.965463 -0.592415 2.8644e-19)
(0.986775 -0.374769 8.73984e-20)
(1.00379 -0.241084 0)
(1.0144 -0.15916 -5.01266e-22)
(1.02142 -0.108078 1.82881e-20)
(1.02532 -0.0744341 1.15819e-21)
(1.02708 -0.0513176 -1.52457e-20)
(1.02772 -0.0346734 4.34101e-21)
(1.02792 -0.0228525 -4.31883e-23)
(1.02772 -0.0093137 -3.62029e-22)
(1.0542 -0.620873 -4.22842e-19)
(1.0247 -0.39952 -2.36625e-19)
(1.02621 -0.257142 5.33207e-20)
(1.02868 -0.168162 -2.58634e-22)
(1.03092 -0.112945 -2.27495e-21)
(1.03199 -0.0770097 -1.45276e-20)
(1.03192 -0.052625 3.91863e-21)
(1.03135 -0.0352854 5.22098e-22)
(1.03077 -0.0231055 -3.16908e-21)
(1.03006 -0.00938645 -2.642e-21)
(1.15924 -0.647022 2.96834e-19)
(1.07493 -0.423682 -2.33766e-19)
(1.05227 -0.275779 -4.0193e-20)
(1.04377 -0.179561 -4.22634e-20)
(1.04048 -0.119182 -2.29837e-20)
(1.03858 -0.0802054 -1.13291e-20)
(1.03672 -0.0541462 -5.55901e-21)
(1.03495 -0.0359174 0)
(1.03361 -0.0233119 -4.79344e-22)
(1.03241 -0.00941552 2.16464e-21)
(1.31571 -0.632956 4.68521e-19)
(1.17796 -0.42365 1.54351e-19)
(1.11154 -0.277576 -1.21845e-19)
(1.07769 -0.181423 7.68583e-21)
(1.06023 -0.120268 9.11172e-21)
(1.05067 -0.0805852 -5.21616e-21)
(1.04452 -0.0540854 2.59288e-22)
(1.04025 -0.0356578 4.57264e-21)
(1.03747 -0.0230124 -3.16577e-21)
(1.03544 -0.00927466 1.48511e-23)
(1.36669 -0.517488 -7.09947e-21)
(1.20926 -0.360152 1.4571e-19)
(1.13887 -0.245621 1.23201e-19)
(1.09981 -0.165733 -1.48831e-20)
(1.07628 -0.111902 5.7113e-20)
(1.06191 -0.075691 3.66197e-20)
(1.05241 -0.0510157 2.49299e-20)
(1.0459 -0.0336943 -2.46133e-21)
(1.04175 -0.0217676 8.73234e-21)
(1.03884 -0.0087651 3.84116e-21)
(1.42469 -0.445446 -1.44264e-19)
(1.26026 -0.323299 -1.17986e-20)
(1.17504 -0.225131 6.35371e-21)
(1.12455 -0.153617 5.83807e-37)
(1.09288 -0.104197 7.02739e-22)
(1.0731 -0.0705893 -1.01669e-34)
(1.06011 -0.0475652 -2.89079e-21)
(1.05135 -0.0313795 -2.10706e-34)
(1.04584 -0.020251 8.3693e-22)
(1.04204 -0.00814871 -2.47485e-21)
(1.46099 -0.364688 -2.19513e-34)
(1.29575 -0.273993 -4.00078e-20)
(1.20348 -0.196035 -4.29582e-20)
(1.14551 -0.136361 0)
(1.10757 -0.093441 -2.47454e-20)
(1.08323 -0.0636126 -1.67185e-20)
(1.06715 -0.0429452 -9.69447e-21)
(1.05635 -0.02834 -2.56176e-34)
(1.04957 -0.0182917 -2.99522e-21)
(1.04494 -0.00736095 2.34082e-21)
(1.48362 -0.293509 -8.84936e-20)
(1.32286 -0.227153 4.7402e-21)
(1.2266 -0.16587 0)
(1.16318 -0.117089 0)
(1.12029 -0.0809184 0)
(1.09212 -0.0553313 0)
(1.07337 -0.0374299 -5.56137e-22)
(1.06078 -0.0247156 -2.85943e-34)
(1.05291 -0.0159599 7.34276e-22)
(1.04752 -0.00642519 2.79271e-34)
(1.49757 -0.227832 -3.36877e-20)
(1.34292 -0.180726 0)
(1.2447 -0.134333 0)
(1.17749 -0.0960731 0)
(1.13085 -0.0669164 0)
(1.09961 -0.0459482 0)
(1.07866 -0.0311463 9.19668e-22)
(1.06456 -0.0205846 5.93211e-21)
(1.05574 -0.0133016 6.87832e-22)
(1.0497 -0.00535731 3.18672e-21)
(1.50567 -0.167318 0)
(1.35714 -0.135456 -1.16086e-20)
(1.25823 -0.102174 -1.65337e-20)
(1.18852 -0.0738883 0)
(1.13915 -0.0518167 -1.13895e-20)
(1.10557 -0.0357144 -8.06801e-21)
(1.08289 -0.0242572 -4.63779e-21)
(1.06759 -0.0160471 -3.46395e-21)
(1.05801 -0.010378 4.59268e-21)
(1.05142 -0.00418282 1.28992e-21)
(1.50877 -0.111261 9.15899e-21)
(1.3652 -0.0907298 6.98011e-21)
(1.26645 -0.0690091 -4.14055e-21)
(1.19542 -0.0503176 2.52493e-36)
(1.14435 -0.0354656 7.5647e-22)
(1.10922 -0.024517 -6.17987e-35)
(1.08536 -0.0166805 6.7382e-22)
(1.06922 -0.0110445 3.00884e-21)
(1.0591 -0.00714259 5.6454e-22)
(1.05213 -0.00287527 -1.87511e-21)
(1.48639 -0.0537238 -4.51662e-20)
(1.34548 -0.0487475 9.98938e-21)
(1.24925 -0.0384269 1.1366e-20)
(1.17971 -0.0284823 0)
(1.12934 -0.0202141 7.16227e-21)
(1.09445 -0.0140225 5.07321e-21)
(1.07065 -0.00956058 4.00836e-21)
(1.05455 -0.00634048 2.21697e-21)
(1.04446 -0.00410133 -2.06749e-21)
(1.03748 -0.00164836 2.27512e-21)
(1.09127 -0.00160294 0)
(1.00594 -0.00606712 0)
(0.941383 -0.00580679 0)
(0.892135 -0.00453819 0)
(0.855654 -0.00326813 0)
(0.83019 -0.00229007 0)
(0.812733 -0.00157328 5.20733e-22)
(0.800866 -0.00105522 -3.51092e-36)
(0.793394 -0.000669928 5.61188e-22)
(0.788299 -0.000257879 1.72646e-21)
(2.13537 -0.0216735 8.90219e-19)
(2.12641 -0.128241 6.15552e-20)
(2.09966 -0.232987 -1.31781e-19)
(2.05525 -0.333439 -3.52995e-19)
(1.99507 -0.427855 -1.21828e-19)
(1.91757 -0.515466 -1.82439e-19)
(1.83445 -0.586248 -4.3896e-19)
(1.71979 -0.665042 1.39855e-19)
(1.6423 -0.684851 0)
(1.47604 -0.768045 4.54346e-20)
(2.04928 -0.0151587 2.24753e-19)
(2.0422 -0.0950754 -3.44188e-19)
(2.02185 -0.174158 -5.44154e-21)
(1.98651 -0.251161 -1.39796e-19)
(1.94272 -0.32351 2.32613e-20)
(1.87863 -0.396954 1.28836e-19)
(1.82326 -0.445909 1.4104e-20)
(1.72619 -0.530065 9.62435e-20)
(1.6741 -0.530343 -1.17929e-19)
(1.55904 -0.621486 2.62393e-20)
(1.97486 -0.0114604 -1.16533e-19)
(1.9694 -0.0750777 2.14262e-19)
(1.95369 -0.137768 1.92707e-19)
(1.92506 -0.199179 -2.31174e-19)
(1.89145 -0.255635 1.01161e-19)
(1.83882 -0.316663 1.2933e-19)
(1.79646 -0.351738 -6.3789e-20)
(1.72058 -0.427638 7.57109e-20)
(1.67351 -0.424333 7.76531e-20)
(1.59007 -0.505783 1.00825e-19)
(1.9181 -0.0112383 -1.97979e-19)
(1.91367 -0.0598396 4.64567e-20)
(1.9006 -0.107781 -1.06969e-19)
(1.87673 -0.155477 -6.58583e-20)
(1.84869 -0.198994 2.42711e-20)
(1.80565 -0.248107 -1.0602e-19)
(1.76904 -0.27503 8.55247e-20)
(1.71033 -0.337627 2.89557e-20)
(1.66669 -0.335749 -1.39537e-20)
(1.60407 -0.402681 9.49401e-21)
(1.87366 -0.00978772 5.46039e-20)
(1.87003 -0.046844 4.99885e-20)
(1.85878 -0.083309 -6.28099e-20)
(1.83862 -0.119772 2.30473e-19)
(1.81397 -0.152932 1.37561e-20)
(1.77843 -0.190854 -1.39705e-19)
(1.74512 -0.212009 2.12116e-20)
(1.6983 -0.260293 -8.8545e-20)
(1.65818 -0.260701 1.15057e-19)
(1.60831 -0.312514 8.3826e-20)
(1.84006 -0.00978992 -1.05542e-19)
(1.83709 -0.036888 -5.85501e-20)
(1.8271 -0.0635439 3.50261e-20)
(1.80957 -0.0903179 8.10753e-20)
(1.78708 -0.114825 4.35108e-20)
(1.7567 -0.142901 -4.11863e-20)
(1.72556 -0.159402 3.2536e-21)
(1.68624 -0.195035 5.36573e-20)
(1.64912 -0.197176 1.02094e-19)
(1.60688 -0.235823 -5.50279e-20)
(1.81555 -0.0102745 -4.33337e-20)
(1.81316 -0.0287665 -8.03226e-20)
(1.80413 -0.0469328 -5.25754e-20)
(1.78848 -0.0652749 -1.04443e-19)
(1.76748 -0.0822473 -2.00465e-20)
(1.74047 -0.101766 -4.41239e-21)
(1.71082 -0.113836 4.72935e-20)
(1.67604 -0.138832 -1.5895e-20)
(1.64127 -0.141527 -3.34791e-20)
(1.60322 -0.169184 1.01825e-20)
(1.79416 -0.00993766 3.57351e-20)
(1.79304 -0.0208585 3.38533e-20)
(1.78548 -0.0314805 1.25744e-20)
(1.77189 -0.0422474 -2.21324e-20)
(1.75273 -0.0524019 -1.79779e-20)
(1.72854 -0.0644741 3.48688e-20)
(1.70038 -0.0722394 -2.0012e-21)
(1.66844 -0.0887701 -4.67204e-20)
(1.63541 -0.0908993 1.07398e-20)
(1.59944 -0.110901 5.07843e-20)
(1.71335 -0.0153663 -2.75344e-20)
(1.7137 -0.0176286 3.6974e-21)
(1.71054 -0.0194517 4.20444e-20)
(1.70345 -0.0212647 2.92836e-21)
(1.69191 -0.0227247 -2.84613e-21)
(1.6768 -0.0258342 -5.95421e-21)
(1.65688 -0.026376 1.87773e-20)
(1.63474 -0.0339589 -2.87697e-20)
(1.60703 -0.0324972 3.67259e-20)
(1.58177 -0.0441407 1.20297e-19)
(1.1048 -0.00944396 3.03385e-20)
(1.09584 -0.00635034 1.96427e-20)
(1.09007 -0.00325892 1.56464e-20)
(1.08801 -0.000231401 1.70297e-20)
(1.08867 0.00269205 -2.80542e-21)
(1.09307 0.00514793 6.03164e-21)
(1.09663 0.00790333 -8.95033e-21)
(1.10685 0.00789418 2.08645e-21)
(1.10517 0.0116943 -3.39632e-21)
(1.12282 0.00760693 3.79089e-21)
(1.38215 0.745518 -5.65411e-20)
(1.36718 0.792056 2.50063e-20)
(1.3709 0.849737 -4.46563e-19)
(1.38079 0.915037 2.16726e-19)
(1.39121 0.983691 8.70341e-19)
(1.39704 1.05214 -1.37222e-19)
(1.37899 1.10499 -8.49068e-19)
(1.27657 1.08457 -4.5149e-20)
(0.981595 0.874519 -4.12917e-19)
(0.425199 0.385934 1.54993e-19)
(1.55899 0.723461 0)
(1.5491 0.770865 5.37959e-19)
(1.5467 0.823914 1.21271e-18)
(1.55203 0.885343 -7.38313e-19)
(1.56253 0.952165 -1.78848e-18)
(1.57145 1.0201 -1.40096e-19)
(1.55481 1.07277 -1.78886e-19)
(1.4417 1.05218 6.44183e-19)
(1.10696 0.844927 8.38917e-19)
(0.475749 0.368073 3.80289e-19)
(1.6991 0.705379 6.19002e-20)
(1.70279 0.750581 0)
(1.7065 0.798362 -6.49558e-20)
(1.71536 0.853509 7.6499e-19)
(1.72958 0.914789 5.24908e-20)
(1.74249 0.978157 -1.88054e-18)
(1.72675 1.02688 1.19133e-18)
(1.60167 1.00372 7.52636e-19)
(1.22602 0.801268 -7.66063e-19)
(0.521486 0.342899 -2.81639e-19)
(1.80932 0.673058 -1.34299e-19)
(1.82571 0.713506 -1.02519e-19)
(1.84065 0.756239 2.28869e-19)
(1.85898 0.805548 -2.86201e-19)
(1.88139 0.860906 -1.37073e-18)
(1.90094 0.91851 -1.06464e-18)
(1.88688 0.961658 1.1648e-18)
(1.749 0.934528 7.497e-19)
(1.33127 0.739806 0)
(0.55707 0.308429 0)
(1.90354 0.616888 -8.03251e-19)
(1.92976 0.652733 -1.42295e-18)
(1.95566 0.691327 -5.58657e-19)
(1.98462 0.735594 -3.36028e-20)
(2.01662 0.785125 0)
(2.04371 0.83641 1.41947e-19)
(2.03098 0.873268 1.69569e-19)
(1.8786 0.841834 2.17146e-19)
(1.4174 0.658837 -3.2717e-19)
(0.579692 0.2652 -8.22317e-20)
(1.98936 0.538453 9.79676e-19)
(2.0226 0.570177 -4.21162e-20)
(2.05725 0.604787 -1.1536e-18)
(2.09535 0.643985 0)
(2.13595 0.687337 0)
(2.16957 0.731671 0)
(2.15638 0.761939 1.49245e-18)
(1.98721 0.727686 -1.76089e-18)
(1.4811 0.560484 -1.08801e-18)
(0.588128 0.215344 -5.36685e-20)
(2.06644 0.44355 -1.31526e-18)
(2.1047 0.470785 -2.75272e-18)
(2.14586 0.500544 -4.82195e-21)
(2.19099 0.533811 5.68008e-19)
(2.23834 0.570127 -4.12066e-20)
(2.27653 0.606803 1.3007e-18)
(2.26114 0.629346 -7.58038e-19)
(2.07136 0.596032 -2.20133e-18)
(1.52101 0.452094 1.78149e-19)
(0.582669 0.163096 1.27877e-19)
(2.13101 0.337045 -1.06364e-18)
(2.17306 0.358803 1.62385e-20)
(2.21903 0.382464 4.14935e-19)
(2.26935 0.4087 -4.08386e-19)
(2.3215 0.436994 6.46711e-19)
(2.36228 0.464479 1.86506e-18)
(2.34108 0.481619 -2.25797e-19)
(2.12793 0.452007 -1.2507e-18)
(1.53695 0.335948 2.93633e-19)
(0.565008 0.111276 4.71047e-20)
(2.17946 0.22216 4.09291e-19)
(2.22438 0.237559 8.17687e-20)
(2.27379 0.254002 -4.41519e-19)
(2.32762 0.272223 -1.05368e-18)
(2.38281 0.291682 9.33826e-20)
(2.42365 0.310581 9.58258e-20)
(2.39406 0.32246 -1.69069e-18)
(2.15746 0.298781 7.08481e-19)
(1.5286 0.217291 2.07735e-19)
(0.535837 0.0622409 -1.67479e-19)
(2.20971 0.101503 8.07778e-19)
(2.2565 0.109715 -1.23951e-18)
(2.30793 0.118275 1.89274e-19)
(2.36375 0.127687 2.63405e-18)
(2.42014 0.137812 1.3788e-18)
(2.45895 0.1476 -3.20165e-18)
(2.41924 0.155352 -3.33416e-18)
(2.15846 0.141909 1.63024e-18)
(1.49665 0.100099 6.34734e-21)
(0.496522 0.0178419 5.25354e-20)
(0.511763 0.207692 -1.62343e-19)
(0.474401 0.214914 -1.48479e-19)
(0.430821 0.222833 8.07581e-20)
(0.382749 0.231327 -2.61103e-19)
(0.329784 0.240407 -3.17122e-20)
(0.271256 0.24986 2.1876e-19)
(0.206318 0.25749 5.17286e-20)
(0.13479 0.253484 -2.21709e-20)
(0.0637786 0.213588 4.10516e-21)
(0.0105593 0.10628 1.45414e-20)
(0.539723 0.307633 1.31273e-19)
(0.503229 0.321687 1.82601e-19)
(0.461051 0.337416 3.47792e-20)
(0.414548 0.354299 -6.95815e-20)
(0.363268 0.372246 -2.4755e-19)
(0.306547 0.3909 4.65033e-21)
(0.243144 0.406442 1.16934e-19)
(0.171212 0.401962 1.50391e-20)
(0.0944695 0.337135 -6.8359e-20)
(0.025862 0.164851 -2.28027e-20)
(0.584908 0.403538 -1.33346e-19)
(0.549948 0.42416 -1.36891e-19)
(0.510194 0.447283 1.22137e-19)
(0.466361 0.472117 1.04039e-19)
(0.41791 0.498486 -6.20141e-20)
(0.364185 0.525869 -7.48893e-20)
(0.303273 0.548833 -8.49248e-20)
(0.230496 0.543611 -1.60419e-20)
(0.143986 0.454452 -4.15594e-20)
(0.0501108 0.219932 3.42003e-21)
(0.646204 0.493339 6.46641e-20)
(0.613415 0.520134 -2.11403e-20)
(0.577039 0.550033 -1.02752e-19)
(0.536924 0.58217 2.8142e-20)
(0.492399 0.61632 -7.61107e-20)
(0.442806 0.65176 1.90606e-20)
(0.385293 0.681466 -1.65807e-19)
(0.31122 0.675173 -9.51392e-21)
(0.21101 0.562721 -2.26872e-19)
(0.0824769 0.269951 4.68636e-20)
(0.722029 0.575124 -1.53987e-20)
(0.692014 0.60762 -2.20096e-21)
(0.65996 0.643536 -4.23739e-20)
(0.624621 0.682176 -1.79259e-19)
(0.585128 0.72329 8.03639e-20)
(0.540773 0.765927 -3.93617e-20)
(0.487481 0.801508 1.09033e-19)
(0.411701 0.793698 -5.34754e-20)
(0.293804 0.659378 2.85866e-19)
(0.121875 0.313586 2.13708e-19)
(0.810416 0.647129 -2.82097e-20)
(0.783596 0.684446 -9.39416e-20)
(0.756542 0.725183 1.11615e-19)
(0.726791 0.769203 8.70189e-20)
(0.693272 0.816275 2.33252e-19)
(0.65518 0.865117 1.42318e-19)
(0.606876 0.905589 4.37876e-19)
(0.528951 0.895749 1.94748e-19)
(0.389815 0.741239 1.66595e-19)
(0.16694 0.349142 1.9063e-19)
(0.909092 0.707304 -9.36258e-20)
(0.88677 0.748907 3.52212e-19)
(0.866288 0.793586 2.16911e-19)
(0.843537 0.841879 -2.51998e-19)
(0.817091 0.893681 -1.3286e-19)
(0.786046 0.94747 4.89296e-19)
(0.743004 0.991708 -9.43846e-20)
(0.661924 0.979475 -3.04306e-19)
(0.497662 0.80696 -6.13233e-20)
(0.216617 0.375995 1.98834e-19)
(1.00922 0.756009 1.9048e-19)
(0.990048 0.79952 5.24981e-20)
(0.976235 0.846056 -5.70074e-19)
(0.961839 0.897379 7.70993e-20)
(0.94467 0.952957 3.77088e-19)
(0.923121 1.01058 -2.54136e-19)
(0.887271 1.0572 -6.17405e-20)
(0.803392 1.04166 -1.32705e-19)
(0.611634 0.853301 1.27194e-20)
(0.267986 0.392467 -2.86997e-19)
(1.12986 0.77829 2.08705e-20)
(1.1198 0.824946 -3.94416e-19)
(1.11412 0.872532 -3.1307e-21)
(1.10611 0.925639 3.25778e-19)
(1.09502 0.984462 -3.29113e-19)
(1.07982 1.04607 6.75877e-19)
(1.04833 1.09584 4.7493e-19)
(0.958417 1.07902 -7.26733e-19)
(0.734216 0.879965 -3.52641e-20)
(0.321528 0.399599 -2.86638e-19)
(1.19884 0.792919 -2.28281e-19)
(1.20276 0.842005 -2.23651e-19)
(1.21781 0.892747 2.37688e-19)
(1.22901 0.948218 5.45126e-19)
(1.23413 1.00792 2.154e-19)
(1.23227 1.06949 -5.67566e-19)
(1.2092 1.11809 4.22192e-20)
(1.11459 1.09689 1.57687e-19)
(0.856866 0.88846 -2.00277e-19)
(0.373879 0.397517 -2.03577e-19)
(0.822807 0.0217584 3.90336e-21)
(1.15812 0.0428156 -1.65113e-20)
(0.916695 0.0495956 -1.42669e-20)
(1.04021 0.052467 0)
(0.987696 0.0601838 1.6496e-20)
(0.973011 0.0710102 2.19119e-20)
(0.949893 0.0861755 2.80054e-20)
(0.899019 0.106119 5.72487e-20)
(0.829966 0.134602 -8.25952e-20)
(0.662889 0.171183 -1.05105e-19)
(0.822251 0.0185607 3.27751e-20)
(1.15796 0.0426859 -5.24591e-20)
(0.917127 0.0515601 1.3237e-22)
(1.04193 0.0540858 -1.33996e-20)
(0.990345 0.0642302 8.98074e-21)
(0.977051 0.0772689 -1.123e-20)
(0.955221 0.0973076 -6.95608e-20)
(0.907296 0.123616 0)
(0.839625 0.172432 1.7874e-19)
(0.685301 0.23552 -2.19666e-19)
(0.821463 0.0155529 -3.00578e-20)
(1.15802 0.0424216 1.66165e-20)
(0.917487 0.0532687 3.28965e-20)
(1.04414 0.0554704 1.21747e-20)
(0.993325 0.0680325 -2.18294e-20)
(0.981861 0.0833265 7.92174e-23)
(0.961574 0.108149 -4.93713e-20)
(0.918526 0.141025 -4.09576e-21)
(0.852868 0.209173 1.02424e-22)
(0.720598 0.298095 5.89346e-19)
(0.820439 0.0128038 -2.24342e-20)
(1.15822 0.0420134 -1.00657e-21)
(0.917786 0.0546712 2.47808e-20)
(1.04685 0.0566215 1.67461e-20)
(0.996648 0.0715569 -9.44856e-21)
(0.987426 0.0891336 -1.28622e-20)
(0.969049 0.11858 7.39383e-20)
(0.932495 0.158259 -1.16731e-21)
(0.869976 0.244303 -2.17466e-19)
(0.768127 0.357851 7.01256e-20)
(0.819174 0.0103447 1.60303e-20)
(1.15851 0.0414332 -2.91741e-20)
(0.918047 0.0557139 -1.8197e-20)
(1.05005 0.0575437 8.94375e-21)
(1.00032 0.0747699 0)
(0.993729 0.0946401 0)
(0.977758 0.128495 6.32883e-20)
(0.948967 0.17526 1.20189e-22)
(0.89126 0.277263 -1.04319e-19)
(0.82704 0.413852 8.36793e-20)
(0.817668 0.00823295 3.73084e-21)
(1.15879 0.0406495 2.0849e-20)
(0.918306 0.0563445 -4.5798e-20)
(1.05372 0.0582484 -2.71603e-20)
(1.00433 0.0776367 6.98882e-22)
(1.00075 0.0998002 5.24325e-20)
(0.987809 0.137822 9.94572e-20)
(0.967643 0.191967 -7.48722e-22)
(0.917155 0.307093 1.8229e-19)
(0.896442 0.466562 -1.91351e-19)
(0.815919 0.00653823 -2.07936e-20)
(1.15898 0.0396265 1.3486e-20)
(0.918606 0.0565109 -1.20296e-20)
(1.05789 0.0587549 -5.02159e-20)
(1.00867 0.0801226 -1.37376e-21)
(1.00848 0.104582 -8.44845e-22)
(0.999296 0.146532 -6.30858e-21)
(0.988119 0.208229 -1.81542e-19)
(0.948434 0.332284 1.40315e-19)
(0.973615 0.513601 -4.60167e-19)
(0.813922 0.00531891 -4.56275e-22)
(1.15899 0.0383071 -2.97303e-20)
(0.919001 0.0561712 2.35554e-20)
(1.06251 0.0590888 3.23143e-20)
(1.01331 0.0821807 -4.37111e-22)
(1.0169 0.108955 -6.21918e-20)
(1.01226 0.154661 -5.56601e-20)
(1.0101 0.224393 3.30979e-19)
(0.985727 0.35554 1.33502e-20)
(1.05787 0.564802 7.29073e-19)
(0.811674 0.00458022 9.69959e-21)
(1.15886 0.0365518 1.14014e-20)
(0.91957 0.0552741 2.98109e-20)
(1.06756 0.0592611 -3.31889e-20)
(1.0182 0.0836972 -5.92813e-20)
(1.02596 0.112623 1.57285e-21)
(1.02657 0.16113 -7.69903e-20)
(1.03379 0.236447 4.34744e-19)
(1.03253 0.365737 -8.07593e-21)
(1.13963 0.589798 -1.00096e-18)
(0.809204 0.00479034 1.6461e-21)
(1.15957 0.034595 1.3971e-20)
(0.920128 0.0539535 9.22389e-21)
(1.07305 0.0595984 -6.6985e-20)
(1.02302 0.0854341 -5.87157e-20)
(1.03447 0.117574 -5.20734e-20)
(1.03896 0.171218 -1.37792e-19)
(1.05202 0.256338 -4.01199e-19)
(1.07299 0.393733 -2.4463e-19)
(1.23205 0.657896 -1.04504e-18)
(0.806787 0.00447657 -4.62476e-21)
(1.16277 0.0313083 -2.83056e-21)
(0.921606 0.0510135 -1.00627e-20)
(1.08002 0.0582812 1.33785e-20)
(1.03206 0.0842512 4.77692e-20)
(1.04992 0.117466 -3.68094e-20)
(1.06385 0.171192 1.2245e-19)
(1.09113 0.253979 -3.9893e-19)
(1.14331 0.374167 -1.73785e-19)
(1.23422 0.641857 5.77953e-19)
(0.807349 0.00183721 3.51235e-21)
(1.167 0.0268387 8.51443e-21)
(0.926013 0.0456194 -6.99441e-21)
(1.08609 0.0544255 4.07638e-20)
(1.04277 0.0792338 7.48151e-20)
(1.06563 0.111102 1.07362e-19)
(1.08794 0.160825 2.63327e-20)
(1.12945 0.235023 2.10432e-19)
(1.19462 0.342004 2.58481e-19)
(1.31676 0.535986 3.37252e-21)
(0.807621 -0.00139283 -4.83975e-21)
(1.17177 0.0220344 5.45234e-23)
(0.930857 0.0400032 3.65751e-21)
(1.09224 0.0497339 1.01399e-20)
(1.05318 0.0730302 2.07607e-34)
(1.08044 0.102903 -8.01879e-21)
(1.10979 0.147863 -5.24382e-34)
(1.16273 0.213284 1.85197e-20)
(1.23248 0.300645 -5.42623e-20)
(1.38255 0.460369 -4.97039e-20)
(0.807964 -0.00581604 1.77798e-20)
(1.1767 0.0165456 -3.98639e-36)
(0.935796 0.0339069 -4.01337e-21)
(1.09819 0.0440957 -1.62249e-20)
(1.06282 0.065398 -3.00409e-20)
(1.09383 0.0925591 -3.61819e-20)
(1.12902 0.131958 -6.47963e-34)
(1.19044 0.188502 -9.14884e-20)
(1.26286 0.2575 -1.24891e-19)
(1.42673 0.383576 8.86179e-20)
(0.808489 -0.0114027 0)
(1.18202 0.0104369 -1.28147e-35)
(0.940769 0.0275068 0)
(1.10377 0.0376703 0)
(1.07146 0.0565955 0)
(1.10554 0.0804606 0)
(1.14552 0.113853 -3.85642e-34)
(1.21269 0.161372 0)
(1.28758 0.21377 -2.0374e-20)
(1.45282 0.311331 5.31275e-20)
(0.809274 -0.0180696 5.87366e-21)
(1.18797 0.00382226 -3.86917e-21)
(0.945785 0.0210311 -4.81008e-21)
(1.10885 0.0306471 0)
(1.07896 0.0468639 0)
(1.11542 0.0669819 6.73248e-21)
(1.15918 0.0941602 2.69233e-20)
(1.22997 0.132557 -1.35937e-20)
(1.30706 0.170939 -2.99231e-20)
(1.46699 0.243604 2.02513e-19)
(0.810423 -0.0277349 -6.24918e-20)
(1.19486 -0.0036314 5.40294e-21)
(0.950836 0.0146474 -5.1881e-21)
(1.11325 0.0232461 -5.5353e-21)
(1.08516 0.0364411 -1.07429e-20)
(1.12337 0.0524712 -8.26268e-21)
(1.16997 0.0733654 -2.04406e-20)
(1.24285 0.102694 -3.78551e-20)
(1.3216 0.129567 -5.22234e-20)
(1.47408 0.180572 7.05129e-20)
(0.812018 -0.0332562 -9.33867e-21)
(1.20326 -0.0103485 -6.67165e-21)
(0.955657 0.00985976 -5.53607e-21)
(1.11639 0.0154784 -8.3495e-21)
(1.08951 0.0253516 2.06293e-35)
(1.12891 0.0369771 7.25032e-21)
(1.17754 0.0514366 -9.37546e-34)
(1.25159 0.0716425 -1.37449e-20)
(1.33133 0.0888214 1.84741e-20)
(1.47744 0.119635 2.57205e-20)
(0.809553 -0.0584086 1.50231e-19)
(1.19551 -0.021627 -9.04346e-21)
(0.945837 0.0029767 -5.81759e-21)
(1.1041 0.00902281 4.22855e-21)
(1.07828 0.0145944 3.07417e-21)
(1.11844 0.0221173 1.38385e-20)
(1.16841 0.0305927 7.82449e-21)
(1.24323 0.0425771 -4.79383e-21)
(1.32286 0.0515805 -2.01164e-20)
(1.46726 0.0673268 1.38245e-19)
(0.72843 -0.0383726 9.72062e-21)
(0.945957 -0.018592 -4.96168e-35)
(0.712652 0.00293899 -6.72319e-21)
(0.856908 0.000164604 0)
(0.823757 0.00286755 0)
(0.859055 0.00442805 7.49578e-21)
(0.901149 0.00600948 -8.95624e-36)
(0.962975 0.00865412 -1.36953e-20)
(1.03007 0.00998436 -2.68406e-20)
(1.14006 0.0125885 5.5696e-20)
(1.47525 0.633941 -1.81269e-19)
(1.58591 0.614753 -2.69421e-19)
(1.68538 0.604764 0)
(1.77196 0.583814 1.17305e-19)
(1.8519 0.537984 5.49073e-19)
(1.9279 0.468644 -1.1554e-19)
(1.99732 0.383484 1.55069e-18)
(2.05545 0.28894 -7.98525e-20)
(2.09892 0.18833 -3.4651e-19)
(2.12595 0.0848458 3.29563e-19)
(1.51461 0.516472 8.2178e-20)
(1.59026 0.503488 1.06835e-19)
(1.6677 0.48984 -9.23248e-21)
(1.74414 0.462517 1.76802e-19)
(1.81674 0.41772 -1.50341e-19)
(1.88353 0.359185 -3.66855e-19)
(1.94165 0.291919 -1.11978e-19)
(1.98825 0.219253 5.04697e-19)
(2.02232 0.143105 -2.1816e-20)