/*--------------------------------*- C++ -*----------------------------------*\
  =========                 |
  \\      /  F ield         | OpenFOAM: The Open Source CFD Toolbox
   \\    /   O peration     | Website:  https://openfoam.org
    \\  /    A nd           | Version:  13
     \\/     M anipulation  |
\*---------------------------------------------------------------------------*/
FoamFile
{
    format      ascii;
    class       surfaceScalarField;
    location    "0.46";
    object      phi;
}
// * * * * * * * * * * * * * * * * * * * * * * * * * * * * * * * * * * * * * //

dimensions      [0 3 -1 0 0 0 0];

internalField   nonuniform List<scalar> 
3485
(
0.00196755
-0.00235155
0.000383998
0.00860375
-0.0581931
0.0515569
0.0180853
-0.110612
0.10113
0.028428
-0.138336
0.127993
0.0386575
-0.147972
0.137743
0.0484818
-0.148797
0.138973
0.0578603
-0.146204
0.136825
0.0667931
-0.142548
0.133615
0.0752284
-0.138576
0.130141
-0.13434
0.126177
0.0833912
0.00246101
-0.00481255
0.00949622
-0.0652283
0.0189431
-0.120058
0.0289298
-0.148323
0.0387029
-0.157746
0.0481557
-0.15825
0.0573877
-0.155436
0.0665211
-0.151681
0.075739
-0.147794
-0.144045
0.0854436
0.00289664
-0.0077092
0.0101906
-0.0725222
0.0193622
-0.12923
0.0286458
-0.157606
0.0374679
-0.166568
0.0458275
-0.166609
0.0538495
-0.163458
0.0616398
-0.159472
0.0692793
-0.155433
-0.151477
0.076712
0.0033399
-0.0110491
0.0108385
-0.0800208
0.0196742
-0.138066
0.0282456
-0.166178
0.0362032
-0.174525
0.04369
-0.174096
0.0508998
-0.170668
0.0579596
-0.166531
0.0649416
-0.162415
-0.158509
0.0719731
0.00370186
-0.014751
0.0112284
-0.0875474
0.0195112
-0.146349
0.0271417
-0.173808
0.0339946
-0.181378
0.0403361
-0.180438
0.0464048
-0.176737
0.0523377
-0.172464
0.0582172
-0.168295
-0.164374
0.0640827
0.00400221
-0.0187532
0.0114042
-0.0949493
0.0189874
-0.153932
0.0255786
-0.1804
0.0312843
-0.187084
0.0364808
-0.185634
0.0414409
-0.181697
0.046303
-0.177327
0.0511323
-0.173124
-0.169217
0.055975
0.00419137
-0.0229445
0.0112665
-0.102024
0.0179608
-0.160626
0.0233681
-0.185807
0.0278184
-0.191534
0.0317759
-0.189592
0.0355353
-0.185456
0.0392323
-0.181024
0.0429255
-0.176817
-0.172934
0.0466425
0.00426055
-0.0272051
0.0108139
-0.108578
0.0164563
-0.166269
0.0205823
-0.189933
0.0237269
-0.194679
0.0264124
-0.192277
0.0289374
-0.187981
0.0314265
-0.183513
0.033926
-0.179317
-0.175465
0.0364565
0.00418385
-0.0313889
0.0100214
-0.114415
0.0144559
-0.170703
0.0172317
-0.192709
0.0190352
-0.196482
0.020423
-0.193665
0.0216875
-0.189246
0.0229397
-0.184765
0.0242176
-0.180595
-0.176781
0.0255341
0.00395556
-0.0353445
0.00890793
-0.119368
0.0120122
-0.173807
0.0134199
-0.194116
0.013861
-0.196923
0.0139475
-0.193751
0.0139524
-0.189251
0.0139653
-0.184778
0.0140122
-0.180642
0.0141032
-0.176872
-0.000952882
0.000678056
0.000274827
0.00251332
-0.00856052
0.00509431
0.0111694
-0.0183101
0.00965401
0.0229855
-0.0240371
0.012221
0.0361562
-0.0264093
0.0132386
0.049673
-0.0269488
0.0134319
0.0630785
-0.0266711
0.0132656
0.0761966
-0.0260869
0.0129689
0.088978
-0.0254216
0.0126402
-0.0249604
0.101602
0.0123367
-0.000867062
0.00154512
0.00271112
-0.0121387
0.0114185
-0.0270175
0.0232161
-0.0358347
0.0363194
-0.0395126
0.0497412
-0.0403706
0.0630388
-0.0399688
0.076045
-0.0390931
0.0887172
-0.0380938
-0.0374789
0.101236
-0.000742673
0.00228779
0.00299792
-0.0158793
0.0117834
-0.035803
0.0235614
-0.0476127
0.0365755
-0.0525267
0.0498686
-0.0536636
0.0630184
-0.0531186
0.0758693
-0.0519441
0.0883881
-0.0506126
-0.049847
0.100756
-0.000568275
0.00285606
0.00339581
-0.0198434
0.0122912
-0.0446983
0.0240476
-0.0593691
0.0369482
-0.0654272
0.0500763
-0.0667918
0.0630373
-0.0660796
0.075691
-0.0645978
0.088015
-0.0629366
-0.062021
0.100189
-0.000337101
0.00319317
0.00391953
-0.0241
0.0129596
-0.0537384
0.0246921
-0.0711016
0.0374531
-0.0781882
0.0503803
-0.0797189
0.0631148
-0.0788141
0.0755359
-0.0770189
0.0876333
-0.075034
-0.0739621
0.0995743
-7.79437e-05
0.00327111
0.00456255
-0.0287405
0.0137852
-0.0629611
0.0254869
-0.0828033
0.0380779
-0.0907792
0.0507672
-0.0924082
0.0632425
-0.0912894
0.075407
-0.0891834
0.087261
-0.0868879
-0.0856329
0.0989318
0.000277692
0.00299342
0.00534677
-0.0338096
0.0147552
-0.0723695
0.0263923
-0.0944404
0.0387619
-0.103149
0.0511622
-0.104808
0.0633395
-0.103467
0.0752287
-0.101073
0.0868352
-0.0984945
-0.0969765
0.0981788
0.000707412
0.00228601
0.00622715
-0.0393293
0.0157915
-0.0819339
0.0272959
-0.105945
0.0393576
-0.115211
0.0513799
-0.116831
0.0631795
-0.115266
0.0747308
-0.112624
0.0860386
-0.109802
-0.107833
0.096895
0.00113529
0.00115072
0.00707944
-0.0452735
0.0167123
-0.0915667
0.0279565
-0.117189
0.0395611
-0.126815
0.0510387
-0.128308
0.0622703
-0.126498
0.0732594
-0.123613
0.0839874
-0.12053
-0.117775
0.09393
0.00153472
0.00781813
0.0173815
0.0281858
0.0391136
0.0497779
0.0601056
0.0701078
0.0797182
0.08812
0.15486
-0.152436
0.099178
0.181286
-0.10821
0.0817845
0.194552
-0.0809104
0.0676443
0.201091
-0.0612112
0.0546717
0.204049
-0.0461707
0.0432132
0.204967
-0.0343057
0.0333871
0.204691
-0.024808
0.0250841
0.20368
-0.0170239
0.0180354
0.202212
-0.0109319
0.0123995
-0.00323547
0.00514683
0.15366
-0.20486
0.180269
-0.13482
0.193831
-0.0944715
0.200627
-0.0680076
0.203786
-0.0493296
0.204866
-0.0353861
0.204726
-0.0246675
0.203837
-0.0161352
0.202487
-0.00958145
-0.00144619
0.151653
-0.255758
0.178358
-0.161524
0.192268
-0.108382
0.199419
-0.075158
0.202891
-0.0528026
0.204255
-0.03675
0.204378
-0.0247898
0.203742
-0.0154999
0.202642
-0.00848062
8.5662e-05
0.148833
-0.304402
0.175539
-0.18823
0.189862
-0.122706
0.197468
-0.0827637
0.201369
-0.0567034
0.203138
-0.0385192
0.20365
-0.0253016
0.203397
-0.0152474
0.202678
-0.00776178
0.00122451
0.145205
-0.350032
0.171806
-0.214831
0.186616
-0.137516
0.194782
-0.0909291
0.199226
-0.0611473
0.201521
-0.0408144
0.202546
-0.0263266
0.202802
-0.0155034
0.202594
-0.00755386
0.00183729
0.140755
-0.391856
0.167138
-0.241214
0.182533
-0.152911
0.191369
-0.0997654
0.196473
-0.0662514
0.199413
-0.0437541
0.201072
-0.027986
0.201962
-0.016393
0.202392
-0.00798424
0.0017938
0.135412
-0.429089
0.161481
-0.267283
0.177596
-0.169026
0.187236
-0.109405
0.193121
-0.0721369
0.196824
-0.0474566
0.199237
-0.0303996
0.20088
-0.0180353
0.202069
-0.00917359
0.000967745
0.129088
-0.461282
0.154709
-0.292904
0.171737
-0.186053
0.182367
-0.120035
0.189178
-0.0789471
0.193764
-0.0520431
0.197047
-0.0336829
0.19956
-0.0205479
0.201629
-0.0112423
-0.000765335
0.121825
-0.489177
0.146629
-0.317708
0.164757
-0.204181
0.17666
-0.131939
0.184601
-0.0868881
0.190227
-0.0576684
0.194509
-0.0379654
0.198009
-0.0240478
0.201071
-0.014304
-0.00352194
0.114517
-0.515574
0.138286
-0.341477
0.156856
-0.222751
0.170061
-0.145144
0.179333
-0.0961599
0.186182
-0.0645178
0.191613
-0.0433967
0.196226
-0.0286603
0.200398
-0.0184759
-0.00741898
0.377053
-0.456294
-0.436333
0.345596
-0.31002
0.329874
-0.207028
0.322394
-0.137664
0.318495
-0.092261
0.316163
-0.0621854
0.314612
-0.041846
0.313555
-0.0276034
0.312846
-0.0177661
-0.00712149
0.389469
-0.387058
-0.458705
0.354956
-0.275507
0.337583
-0.189655
0.328249
-0.128331
0.32266
-0.086672
0.319068
-0.0585934
0.316665
-0.0394432
0.315057
-0.0259947
0.314005
-0.016715
-0.00669516
0.405298
-0.322775
-0.469581
0.368111
-0.23832
0.34681
-0.168354
0.334459
-0.115979
0.326841
-0.0790543
0.321916
-0.0536685
0.318649
-0.0361757
0.316494
-0.0238403
0.315106
-0.0153262
-0.00613652
0.415513
-0.263171
-0.475118
0.377738
-0.200544
0.354326
-0.144942
0.339835
-0.101488
0.330578
-0.0697978
0.324504
-0.0475943
0.320466
-0.0321377
0.317814
-0.0211879
0.31611
-0.0136231
-0.00545415
0.422665
-0.208406
-0.47743
0.385265
-0.163143
0.360537
-0.120215
0.344424
-0.0853753
0.33383
-0.0592031
0.326779
-0.0405433
0.322073
-0.027432
0.318982
-0.0180972
0.317001
-0.011642
-0.00466312
0.427564
-0.158055
-0.477915
0.390952
-0.126531
0.365473
-0.0947362
0.34819
-0.0680921
0.336548
-0.047562
0.328705
-0.0327003
0.323443
-0.0221695
0.319983
-0.0146372
0.317764
-0.00942259
-0.00377598
0.430788
-0.111335
-0.477508
0.395065
-0.0908082
0.369206
-0.0688768
0.351119
-0.0500052
0.338701
-0.0351435
0.330243
-0.024243
0.324539
-0.0164651
0.320783
-0.0108818
0.318368
-0.00700753
-0.00280776
0.432408
-0.0669696
-0.476774
0.397468
-0.0558682
0.371512
-0.0429207
0.352965
-0.0314578
0.340041
-0.0222195
0.33117
-0.0153727
0.325164
-0.0104586
0.3212
-0.00691769
0.318645
-0.00445305
-0.00178126
0.42631
-0.0216817
-0.471598
0.392119
-0.0216776
0.366834
-0.0176349
0.3486
-0.0132242
0.33579
-0.00941013
0.326953
-0.00653545
0.320953
-0.00445809
0.316993
-0.00295817
0.314438
-0.00189812
-0.000753738
0.318501
-0.340183
0.296824
0.279189
0.265965
0.256554
0.250019
0.245561
0.242603
0.240705
0.469567
0.012481
-0.467945
0.470433
0.0246684
0.470412
0.0364772
0.469428
0.0476268
0.467114
0.0582888
0.464229
0.066968
0.458219
0.0779826
0.454569
0.0803617
0.442593
0.0974198
0.0896511
0.450873
0.0108839
-0.449276
0.452544
0.0229977
0.454203
0.0348187
0.455909
0.0459208
0.457192
0.0570049
0.458818
0.0653427
0.459078
0.0777228
0.460279
0.07916
0.460889
0.0968104
0.0918345
0.434683
0.00924521
-0.433044
0.436963
0.0207176
0.439798
0.0319838
0.443194
0.0425246
0.446969
0.0532298
0.451138
0.0611737
0.455821
0.0730403
0.45981
0.0751706
0.465994
0.0906268
0.0882469
0.422302
0.00759297
-0.42065
0.424938
0.0180814
0.428518
0.0284041
0.432981
0.038062
0.438375
0.0478357
0.444258
0.0552903
0.451598
0.0657003
0.458157
0.0686114
0.467536
0.0812485
0.0806648
0.412614
0.00594122
-0.410962
0.415507
0.0151885
0.419619
0.0242915
0.424846
0.0328352
0.431316
0.0413661
0.43849
0.0481163
0.447412
0.0567778
0.455971
0.0600525
0.467225
0.0699945
0.0704595
0.405287
0.00426681
-0.403613
0.408374
0.0121012
0.412855
0.0198112
0.418616
0.0270734
0.425772
0.0342105
0.433851
0.040037
0.443679
0.0469499
0.453607
0.0501244
0.465953
0.0576491
0.0584975
0.399943
0.00255217
-0.398228
0.403194
0.00885016
0.407952
0.0150526
0.414108
0.0209181
0.421716
0.0266018
0.430415
0.0313386
0.440761
0.0366039
0.451579
0.0393057
0.46449
0.044739
0.045479
0.395399
0.00065367
-0.3935
0.398923
0.0053254
0.404044
0.0099315
0.410649
0.0143132
0.418718
0.0185327
0.427966
0.0220906
0.438686
0.0258847
0.450103
0.0278888
0.463261
0.031581
0.031966
0.378551
-0.00124534
-0.376652
0.38255
0.00132617
0.388555
0.00392724
0.396393
0.00647429
0.405949
0.00897738
0.416865
0.0111744
0.429245
0.0135048
0.442324
0.0148091
0.456821
0.017085
0.0171886
0.245716
-0.246961
0.247042
0.250969
0.257444
0.266421
0.277595
0.2911
0.305909
0.322994
0.079813
0.128059
-0.115437
-0.0924351
0.0683157
0.129827
-0.11833
0.0577855
0.132595
-0.122064
0.0476999
0.136222
-0.126137
0.0376875
0.140288
-0.130276
0.0276109
0.144263
-0.134187
0.0176442
0.146177
-0.13621
0.00858069
0.139117
-0.130053
0.00213124
0.108675
-0.102226
0.0450362
-0.042905
0.0798231
0.139093
-0.090857
0.0685381
0.141112
0.0576117
0.143521
0.0470922
0.146742
0.0368154
0.150565
0.0266759
0.154403
0.0168315
0.156021
0.0080417
0.147906
0.00191987
0.114797
0.0469561
0.071786
0.14807
-0.0807628
0.0622798
0.150618
0.0525779
0.153223
0.042894
0.156426
0.0332768
0.160182
0.0237556
0.163924
0.0145763
0.165201
0.00656416
0.155919
0.00127995
0.120081
0.048236
0.0601926
0.15524
-0.0673627
0.0525766
0.158234
0.0445495
0.16125
0.0362594
0.164716
0.0278219
0.16862
0.0193682
0.172378
0.0112644
0.173305
0.00445085
0.162732
0.000443328
0.124089
0.0486794
0.0484927
0.161135
-0.0543877
0.0422901
0.164437
0.0356936
0.167847
0.0287659
0.171644
0.0216056
0.17578
0.0143797
0.179603
0.00753508
0.180149
0.00210909
0.168158
-0.000480793
0.126679
0.0481986
0.0376598
0.166114
-0.0426395
0.0324843
0.169613
0.0270149
0.173316
0.0212679
0.177391
0.0153108
0.181737
0.00931592
0.185598
0.00375587
0.185709
-0.000351508
0.172265
-0.00139022
0.127718
0.0468084
0.027369
0.17027
-0.0315249
0.0230979
0.173884
0.018636
0.177778
0.013986
0.182041
0.00920269
0.18652
0.00447009
0.190331
0.000303679
0.189876
-0.00218967
0.174759
-0.00203208
0.12756
0.0447763
0.0171643
0.173519
-0.0204131
0.0138435
0.177205
0.010399
0.181222
0.00683499
0.185605
0.00321036
0.190145
-0.00027842
0.19382
-0.00308668
0.192684
-0.00417804
0.17585
-0.00266739
0.126049
0.0421089
0.00684354
0.17576
-0.00908432
0.00455836
0.17949
0.00220529
0.183575
-0.000207996
0.188018
-0.00263332
0.19257
-0.00482703
0.196013
-0.00624984
0.194107
-0.00591858
0.175519
-0.00316854
0.123299
0.0389403
-0.00355143
0.00243911
-0.00470323
-0.00590585
-0.00713844
-0.00831957
-0.00922936
-0.00923893
-0.00752747
-0.00359585
0.103328
0.0237754
-0.114614
-0.0124896
0.09171
0.0244034
-0.0127855
0.0797252
0.025081
-0.0130962
0.0673603
0.0257942
-0.0134293
0.0546074
0.0265423
-0.0137895
0.0414695
0.0273047
-0.0141669
0.0280734
0.027857
-0.0144609
0.015112
0.0271493
-0.0141878
0.0046483
0.0224641
-0.0120004
0.0106097
-0.00596144
0.102571
0.0350448
-0.113841
0.0909843
0.0359903
0.0790456
0.0370197
0.0667411
0.0380986
0.0540623
0.0392212
0.0410122
0.0403548
0.0277206
0.0411485
0.0148843
0.0399857
0.00455634
0.032792
0.0151661
0.101479
0.0462807
-0.112715
0.0899449
0.0475241
0.0780786
0.048886
0.0658649
0.0503123
0.0532939
0.0517922
0.040369
0.0532797
0.0272252
0.0542924
0.0145663
0.0526446
0.00442764
0.0429306
0.0195937
0.0999407
0.0574571
-0.111117
0.0884931
0.0589717
0.0767376
0.0606415
0.0646569
0.062393
0.0522393
0.0642099
0.0394885
0.0660304
0.0265463
0.0672346
0.0141286
0.0650622
0.00424933
0.0528099
0.023843
0.0978012
0.0685295
-0.108874
0.0864964
0.0702764
0.0749174
0.0722206
0.0630395
0.0742709
0.0508448
0.0764046
0.0383356
0.0785396
0.025662
0.0799083
0.0135558
0.0771684
0.00401681
0.0623489
0.0278599
0.0948708
0.0794181
-0.10576
0.0837859
0.0813613
0.0724553
0.0835512
0.0608538
0.0858723
0.0489632
0.0882953
0.0367864
0.0907163
0.0244819
0.0922128
0.0127967
0.0888536
0.00370754
0.071438
0.0315674
0.0911408
0.0899273
-0.10165
0.0804993
0.0920029
0.069622
0.0944284
0.05845
0.0970444
0.046958
0.0997873
0.0351632
0.102511
0.0232553
0.104121
0.0120175
0.100091
0.00340526
0.0800503
0.0349726
0.0850921
0.0999123
-0.0950771
0.0750113
0.102084
0.064774
0.104666
0.0543161
0.107502
0.0435705
0.110533
0.0325188
0.113563
0.0213437
0.115296
0.0108422
0.110593
0.00293592
0.0879565
0.0379086
0.0821695
0.108479
-0.0907363
0.0730654
0.111188
0.063299
0.114432
0.0530196
0.117782
0.0423614
0.121191
0.031424
0.1245
0.0204519
0.126268
0.0102682
0.120777
0.00273609
0.0954886
0.0406447
0.0701171
-0.0770747
0.0629748
0.0553425
0.0469875
0.0379028
0.0282165
0.0182741
0.00899765
0.00226032
0.202114
0.0129723
-0.0170961
0.204576
0.0281586
-0.0306209
0.204985
0.0342289
-0.0346382
0.205955
0.0358975
-0.0368671
0.205054
0.0424843
-0.041583
0.20253
0.0511316
-0.0486077
0.196434
0.0638644
-0.0577693
0.185639
0.0806455
-0.0698501
0.159815
0.108691
-0.0828667
0.144618
-0.0994169
0.201848
0.00911438
0.204174
0.0258324
0.204533
0.0338699
0.20544
0.0349905
0.204458
0.0434666
0.201798
0.053791
0.19556
0.0701023
0.184452
0.0917544
0.158696
0.134447
0.189473
0.201453
0.00565091
0.203502
0.0237841
0.203718
0.0336538
0.204419
0.034289
0.203231
0.0446552
0.200314
0.056708
0.193851
0.0765652
0.182309
0.103296
0.156808
0.159948
0.233567
0.200926
0.00271509
0.202562
0.0221474
0.202549
0.0336671
0.202902
0.033936
0.201386
0.0461715
0.198091
0.0600023
0.19131
0.0833464
0.179197
0.115409
0.154195
0.184949
0.276645
0.20026
0.000444756
0.201362
0.0210458
0.201041
0.0339879
0.200901
0.0340764
0.198939
0.0481325
0.19515
0.0637913
0.187948
0.0905484
0.175089
0.128268
0.150934
0.209105
0.318706
0.19945
-0.00101555
0.199905
0.0205912
0.199209
0.0346838
0.198427
0.0348582
0.195912
0.0506476
0.191511
0.0681924
0.183777
0.0982824
0.169991
0.142054
0.14705
0.232046
0.359996
0.19849
-0.00151608
0.198201
0.0208804
0.197074
0.0358108
0.195497
0.0364352
0.192327
0.0538174
0.187191
0.0733284
0.178792
0.106682
0.164025
0.156821
0.142597
0.253475
0.400942
0.197379
-0.000905185
0.196264
0.0219954
0.194655
0.0374195
0.192122
0.0389684
0.188212
0.057727
0.18221
0.0793306
0.172951
0.115941
0.157118
0.172654
0.136728
0.273864
0.442593
0.196125
0.000959942
0.194118
0.0240017
0.191978
0.0395596
0.188317
0.0426293
0.1836
0.0624446
0.176643
0.0862879
0.166532
0.126052
0.150576
0.188611
0.131823
0.292617
0.48368
0.194834
0.00411585
0.191844
0.0269919
0.18905
0.0423537
0.184052
0.0476269
0.178326
0.0681709
0.169875
0.0947388
0.157836
0.13809
0.140194
0.206253
0.120585
0.312225
0.52719
0.30329
0.00283595
0.306769
0.0235127
0.310369
0.0387544
0.312956
0.045039
0.315849
0.0652787
0.319305
0.0912822
0.324887
0.132508
0.335991
0.19515
0.361101
0.287115
0.462262
0.426029
0.304193
0.000652727
0.307863
0.019843
0.312123
0.0344944
0.315462
0.0417004
0.319792
0.0609481
0.325402
0.0856724
0.334343
0.123567
0.3501
0.179393
0.379904
0.257312
0.398476
0.44369
0.305081
-0.00241785
0.309172
0.0157519
0.313864
0.0298028
0.317971
0.0375929
0.323518
0.0554007
0.330967
0.0782242
0.342552
0.111981
0.36117
0.160774
0.39473
0.223753
0.336307
0.456898
0.305985
-0.006393
0.310549
0.0111883
0.315548
0.0248037
0.320348
0.0327926
0.326921
0.0488276
0.335909
0.0692369
0.349523
0.0983669
0.370296
0.140002
0.405218
0.188831
0.277109
0.464416
0.306964
-0.0113467
0.312
0.00615231
0.317157
0.0196465
0.32252
0.0274293
0.329931
0.0414171
0.340165
0.0590024
0.355287
0.0832449
0.377666
0.117624
0.412364
0.154132
0.221449
0.468024
0.308084
-0.017421
0.313569
0.000667403
0.318676
0.0145403
0.324444
0.0216613
0.332506
0.0333551
0.343706
0.0478024
0.35991
0.0670405
0.383398
0.0941357
0.417148
0.120383
0.169341
0.469256
0.309373
-0.0247834
0.315292
-0.00525204
0.320075
0.00975785
0.32607
0.0156661
0.334606
0.0248187
0.346514
0.0358948
0.363466
0.0500879
0.387642
0.0699596
0.420278
0.0877468
0.120433
0.469186
0.311009
-0.0337822
0.31719
-0.0114332
0.321223
0.00572551
0.327229
0.00965913
0.336076
0.0159724
0.34847
0.0235003
0.365935
0.0326232
0.390481
0.0454131
0.422207
0.0560211
0.0742819
0.468358
0.309535
-0.0413069
0.314862
-0.01676
0.31789
0.00269684
0.323986
0.00356345
0.332972
0.00698633
0.345684
0.0107886
0.363501
0.0148061
0.388156
0.0207586
0.41949
0.0246864
0.0324356
0.461336
0.260703
0.243943
0.24664
0.250204
0.25719
0.267979
0.282785
0.303543
0.32823
0.360665
0.43866
-0.105066
0.44333
-0.0955271
0.445571
-0.0830033
0.447982
-0.0697737
0.451191
-0.0575966
0.454965
-0.0464138
0.458856
-0.0354157
0.462459
-0.0240164
0.465508
-0.0121332
2.39657e-06
0.443735
-0.105111
0.44235
-0.0941424
0.441461
-0.0821141
0.441845
-0.0701579
0.44294
-0.0586912
0.444174
-0.0476479
0.445372
-0.0366138
0.446593
-0.0252375
0.447908
-0.0134486
-0.00136546
0.450678
-0.0988912
0.445321
-0.0887851
0.440818
-0.077611
0.437398
-0.066738
0.434922
-0.0562154
0.433189
-0.045915
0.432138
-0.0355622
0.431771
-0.0248704
0.432077
-0.013755
-0.00233271
0.454094
-0.0885696
0.445287
-0.0799783
0.437919
-0.0702421
0.432033
-0.0608524
0.427517
-0.0516996
0.424143
-0.0425404
0.421773
-0.0331931
0.420389
-0.0234854
0.42001
-0.0133765
-0.00297267
0.455394
-0.0759394
0.444469
-0.0690529
0.435287
-0.0610609
0.427737
-0.0533024
0.421696
-0.0456585
0.417017
-0.0378608
0.413609
-0.0297851
0.411459
-0.0213354
0.410577
-0.0124951
-0.00335743
0.45535
-0.0620331
0.4431
-0.0568027
0.432687
-0.0506487
0.423999
-0.0446139
0.416924
-0.038584
0.41137
-0.032306
0.407269
-0.025685
0.404606
-0.0186719
0.403385
-0.0112737
-0.00358549
0.454533
-0.04738
0.441471
-0.0437413
0.430283
-0.0394605
0.420878
-0.0352092
0.413151
-0.0308564
0.407034
-0.0261897
0.402486
-0.0211366
0.399496
-0.0156818
0.398076
-0.00985393
-0.00373732
0.453051
-0.0320724
0.439369
-0.0300596
0.42763
-0.0277214
0.417722
-0.0253017
0.409531
-0.0226654
0.403001
-0.0196591
0.39811
-0.0162463
0.394876
-0.0124476
0.393331
-0.00830854
-0.00390656
0.444524
-0.0152604
0.429704
-0.0152393
0.416902
-0.0149194
0.405925
-0.0143249
0.396635
-0.0133751
0.388998
-0.0120218
0.383072
-0.0103206
0.378969
-0.00834424
0.376803
-0.00614275
-0.00375576
0.345405
0.330166
0.315246
0.300921
0.287546
0.275524
0.265204
0.25686
0.250717
0.0103568
0.0449122
-0.0552689
0.0208868
0.152839
-0.163369
0.025129
0.220129
-0.224371
0.0246881
0.244714
-0.244274
0.0220415
0.248762
-0.246115
0.0186968
0.246286
-0.242942
0.0151899
0.242481
-0.238974
0.0116412
0.238126
-0.234578
0.00811462
0.231179
-0.227653
0.214528
0.00500283
-0.211416
0.0118435
0.0330687
0.0266556
0.138027
0.0359549
0.21083
0.0401103
0.240559
0.0416517
0.24722
0.0423559
0.245582
0.0429488
0.241888
0.0434261
0.237649
0.0430134
0.231592
0.217957
0.0395847
0.0120522
0.0210165
0.0299026
0.120177
0.0438035
0.196929
0.0527003
0.231662
0.0586904
0.24123
0.0636587
0.240614
0.0685425
0.237005
0.0734418
0.23275
0.0773834
0.22765
0.218466
0.0768736
0.0109853
0.0100312
0.0300578
0.101104
0.0474165
0.17957
0.0606358
0.218443
0.0709755
0.23089
0.0801359
0.231453
0.0891782
0.227962
0.0984397
0.223488
0.107399
0.218691
0.212541
0.113325
0.00895717
0.00107399
0.027288
0.0827732
0.0464539
0.160404
0.0630059
0.201891
0.0771487
0.216748
0.0900891
0.218513
0.102816
0.215235
0.115825
0.21048
0.1291
0.205416
0.199996
0.141645
0.00646059
-0.0053866
0.0224473
0.0667865
0.0416268
0.141225
0.0600761
0.183442
0.0769752
0.199848
0.0928409
0.202647
0.108381
0.199695
0.124077
0.194784
0.140171
0.189322
0.183314
0.156853
0.00397455
-0.00936115
0.016836
0.0539251
0.0346529
0.123408
0.0535601
0.164535
0.07196
0.181449
0.0896641
0.184943
0.106969
0.18239
0.124199
0.177553
0.141533
0.171989
0.165417
0.15943
0.00186734
-0.0112285
0.0116116
0.0441808
0.0273374
0.107682
0.0455408
0.146331
0.0641593
0.16283
0.0824349
0.166668
0.100253
0.164572
0.117709
0.160097
0.135008
0.15469
0.148284
0.152141
0.00029479
-0.0115233
0.00763212
0.0368435
0.0213309
0.0939834
0.0383809
0.129281
0.0565669
0.144644
0.074813
0.148422
0.0927439
0.146641
0.110302
0.142539
0.127549
0.137443
0.130567
0.145266
-0.000525829
-0.0109974
0.00502546
0.0312922
0.0169302
0.0820786
0.0325254
0.113686
0.0495527
0.127617
0.0667281
0.131246
0.0834409
0.129929
0.0994413
0.126538
0.114429
0.122455
0.116793
0.128203
-0.000910648
-0.0100868
0.00366404
0.0267175
0.0144127
0.07133
0.028944
0.0991546
0.0451045
0.111456
0.0616237
0.114727
0.0778848
0.113667
0.0936398
0.110784
0.108802
0.107293
0.10419
0.121406
-0.00105344
-0.00903336
0.00303987
0.0226242
0.0130759
0.0612939
0.0268231
0.0854074
0.0422301
0.0960495
0.058075
0.098882
0.0737585
0.097984
0.0890283
0.0955138
0.103833
0.0924882
0.0906917
0.117331
-0.00111418
-0.00791918
0.00268057
0.0188294
0.0122011
0.0517734
0.0252954
0.0723132
0.0399848
0.0813601
0.0550969
0.0837699
0.070055
0.0830258
0.0846072
0.0809616
0.0986686
0.0784268
0.0772563
0.112104
-0.00113496
-0.00678422
0.00246402
0.0152304
0.0116234
0.042614
0.0242332
0.0597033
0.0383657
0.0672276
0.0528901
0.0692455
0.0672528
0.0686631
0.0812084
0.067006
0.094657
0.0649782
0.0641509
0.107762
-0.00113163
-0.0056526
0.00234438
0.0117544
0.0112673
0.0336911
0.0235535
0.0474172
0.0373089
0.0534722
0.0514366
0.0551179
0.0654075
0.0546922
0.0789935
0.05342
0.0921062
0.0518655
0.0512781
0.104979
-0.00112035
-0.00453225
0.00227904
0.00835505
0.0110524
0.0249177
0.0231359
0.0353338
0.0366586
0.0399494
0.0505479
0.0412286
0.0642954
0.0409446
0.0776893
0.040026
0.0906548
0.0389001
0.0385139
0.103419
-0.0011062
-0.00342605
0.00225103
0.00499782
0.0109357
0.016233
0.0228999
0.0233696
0.0362888
0.0265604
0.0500461
0.0274713
0.0636776
0.0273131
0.0769825
0.0267211
0.0898946
0.025988
0.0257864
0.102622
-0.00108444
-0.00234161
0.00225837
0.00165502
0.0108962
0.00759521
0.0227931
0.0114727
0.0361063
0.0132473
0.0497906
0.013787
0.0633617
0.013742
0.076626
0.0134568
0.0895224
0.0130916
0.0130649
0.102244
-0.00105419
-0.00128742
0.00230087
-0.00170004
0.0109223
-0.00102621
0.0227812
-0.000386183
0.0360455
-1.71005e-05
0.0496802
0.00015235
0.0632089
0.000213345
0.0764435
0.000222102
0.0893264
0.000208695
0.000350063
0.102041
-0.0010126
0.00238167
0.0110095
0.0228443
0.0360658
0.0496501
0.0631291
0.07632
0.0891689
0.101856
0.137432
0.287256
-0.303283
0.149519
0.121661
-0.133747
0.159368
0.0411133
-0.0509618
0.167103
0.00490514
-0.0126401
0.173492
-0.00895567
0.00256679
0.17914
-0.0130194
0.00737108
0.18431
-0.0129439
0.00777403
0.189105
-0.0112441
0.00644842
0.193585
-0.0091839
0.00470397
-0.00598882
0.00197934
0.13954
0.265046
0.155545
0.105656
0.16631
0.0303484
0.173599
-0.00238431
0.179146
-0.0145023
0.183786
-0.0176594
0.187872
-0.0170296
0.191539
-0.0149116
0.194876
-0.0125204
-0.00886679
0.142002
0.235148
0.160901
0.086757
0.172175
0.0190746
0.179217
-0.00942656
0.184151
-0.019436
0.18797
-0.0214791
0.191109
-0.0201685
0.19377
-0.0175726
0.19608
-0.0148302
-0.0107231
0.144836
0.198075
0.165767
0.065826
0.177439
0.00740183
0.184269
-0.0162561
0.18865
-0.023817
0.191731
-0.0245599
0.194028
-0.0224661
0.195797
-0.0193417
0.197196
-0.0162293
-0.0116712
0.14766
0.155394
0.170087
0.0433996
0.182061
-0.00457272
0.188695
-0.0228895
0.192609
-0.0277314
0.195052
-0.0270025
0.19662
-0.0240339
0.197614
-0.0203362
0.198222
-0.0168367
-0.0118286
0.150212
0.108601
0.173799
0.0198124
0.186017
-0.0167914
0.192489
-0.0293612
0.196012
-0.0312538
0.197918
-0.0289088
0.198871
-0.0249871
0.199212
-0.0206771
0.19915
-0.0167752
-0.0113173
0.152345
0.0588786
0.176843
-0.0046856
0.189269
-0.0292173
0.195621
-0.0357138
0.198836
-0.0344683
0.200313
-0.0303863
0.200771
-0.0254448
0.200583
-0.020489
0.199978
-0.0161706
-0.010263
0.15396
0.00716235
0.179166
-0.029891
0.191775
-0.0418269
0.198065
-0.0420041
0.201064
-0.0374671
0.202225
-0.0315473
0.20231
-0.0255299
0.201721
-0.0198995
0.200702
-0.0151519
-0.00879488
0.154958
-0.0457542
0.180707
-0.0556399
0.193508
-0.0546282
0.199802
-0.0482977
0.202682
-0.0403477
0.203643
-0.0325079
0.20348
-0.0253674
0.202619
-0.0190379
0.201317
-0.0138506
-0.00704489
0.155279
0.181424
0.19444
0.200814
0.20368
0.204559
0.204276
0.203273
0.201822
0.114614
-0.000967072
-0.113647
0.110892
0.00372187
0.108293
0.00259906
0.107979
0.000314095
0.108854
-0.000875577
0.110016
-0.00116143
0.111084
-0.00106778
0.111924
-0.000840482
0.112505
-0.000581127
-0.000232177
0.233531
0.0704038
-0.304902
0.201535
0.0357174
0.189489
0.0146451
0.186203
0.00359998
0.186386
-0.00105837
0.187751
-0.00252664
0.18929
-0.00260638
0.190595
-0.00214564
0.191557
-0.00154247
-0.000637398
0.249135
0.155961
-0.334692
0.213404
0.071448
0.200044
0.0280055
0.196356
0.00728711
0.196482
-0.00118424
0.197905
-0.00394938
0.199532
-0.00423283
0.200921
-0.00353498
0.201954
-0.00257562
-0.00107738
0.244139
0.235193
-0.32337
0.211588
0.103999
0.199636
0.039957
0.196617
0.0103062
0.197086
-0.00165296
0.198679
-0.0055424
0.200393
-0.00594657
0.201823
-0.00496559
0.202876
-0.00362875
-0.00152479
0.238978
-0.307067
0.20923
0.198225
0.195891
0.196805
0.198634
0.200461
0.201944
0.203019
0.0106364
0.000789697
-0.0114261
0.0106304
5.97455e-06
0.0108842
-0.00025379
0.0112657
-0.000381509
0.0131828
-0.00191706
0.018525
-0.00534224
0.0321177
-0.0135927
0.0510714
-0.0189537
0.0824847
-0.0314133
-0.031162
0.0324675
0.00168116
-0.033359
0.0357064
-0.00323291
0.0438982
-0.00844557
0.0594065
-0.0158899
0.0849392
-0.0274497
0.121689
-0.0420917
0.168155
-0.0600593
0.215946
-0.0667448
0.266054
-0.0815204
-0.0700102
0.0556204
0.00133278
-0.055272
0.0638978
-0.0115103
0.0819102
-0.026458
0.111657
-0.0456367
0.152119
-0.0679121
0.19857
-0.0885423
0.243187
-0.104676
0.280849
-0.104407
0.311845
-0.112517
-0.0928574
0.0772179
-0.000917832
-0.0749673
0.0899451
-0.0242375
0.114284
-0.0507968
0.149075
-0.0804273
0.189148
-0.107986
0.227792
-0.127187
0.258958
-0.135842
0.285262
-0.13071
0.305381
-0.132636
-0.110847
0.0944162
-0.0903312
0.109763
0.13584
0.168738
0.202397
0.232063
0.255651
0.277082
0.289712
0.0920338
-0.0877638
0.0973457
-0.101616
0.0830043
-0.0907209
0.0997504
0.0738458
-0.0943255
0.103484
0.063889
-0.0979615
0.107918
0.0528782
-0.101497
0.112508
0.0408439
-0.104895
0.116929
0.0280477
-0.107198
0.119994
0.0153139
-0.103813
0.116547
0.00480198
-0.0837012
0.094213
-0.037006
0.041808
0.104199
-0.0779319
-0.114031
0.0936464
-0.080168
0.0820809
-0.08276
0.0696579
-0.0855385
0.0566054
-0.0884444
0.0430804
-0.0913698
0.0292773
-0.0933948
0.0159057
-0.0904411
0.00501882
-0.0728143
-0.0319872
0.101722
-0.0667363
-0.112917
0.0902544
-0.0687007
0.0785037
-0.0710093
0.0664419
-0.0734767
0.0540063
-0.0760087
0.041143
-0.0785065
0.0279437
-0.0801955
0.0150909
-0.0775884
0.00465097
-0.0623743
-0.0273362
0.103643
-0.0554615
-0.114917
0.0921266
-0.0571846
0.0802597
-0.0591424
0.0679692
-0.0611862
0.0552222
-0.0632617
0.0420227
-0.065307
0.0285121
-0.0666849
0.0154052
-0.0644815
0.00477974
-0.0517488
-0.0225565
0.104154
-0.0441027
-0.115513
0.0924857
-0.0455166
0.080452
-0.0471086
0.0680266
-0.0487608
0.0551969
-0.050432
0.0419638
-0.0520739
0.0284523
-0.0531734
0.0153561
-0.0513853
0.0047414
-0.0411342
-0.0178151
0.104403
-0.0327528
-0.115753
0.0927254
-0.033839
0.080675
-0.0350583
0.0682289
-0.0363147
0.0553734
-0.0375765
0.0421089
-0.0388095
0.028562
-0.0396265
0.0154268
-0.03825
0.00477465
-0.0304821
-0.0130404
0.104466
-0.0214243
-0.115794
0.092793
-0.0221663
0.0807366
-0.0230019
0.0682793
-0.0238574
0.0554121
-0.0247093
0.0421377
-0.0255351
0.0285813
-0.0260701
0.0154333
-0.025102
0.00477393
-0.0198226
-0.0082665
0.104395
-0.0101084
-0.115711
0.09273
-0.0105015
0.0806796
-0.0109515
0.0682286
-0.0114064
0.055369
-0.0118497
0.0421038
-0.0122699
0.0285573
-0.0125237
0.0154195
-0.0119641
0.00476992
-0.00917309
-0.00349657
0.104189
0.00119426
-0.115491
0.0925374
0.00114992
0.0805014
0.00108455
0.0680675
0.00102746
0.0552287
0.000989088
0.0419881
0.000970684
0.0284702
0.000994167
0.015365
0.00114108
0.00474819
0.00144375
0.00125162
0.103826
-0.115121
0.09219
0.0801784
0.0677765
0.0549761
0.04178
0.0283133
0.0152665
0.00470982
0.0249484
-0.208627
-0.0277377
0.0188524
-0.221557
0.0118331
-0.227559
0.00472582
-0.231867
-0.00218386
-0.236032
-0.00852536
-0.239774
-0.0130948
-0.239704
-0.013621
-0.223845
-0.00790762
-0.169082
-0.0631766
0.055008
-0.203716
-0.0599192
0.0460109
-0.21256
0.0359627
-0.21751
0.0258759
-0.22178
0.0160332
-0.226189
0.00670923
-0.23045
-0.00130949
-0.231685
-0.0060203
-0.219135
-0.00513132
-0.169971