# Selection   : all
# Cells       : 1800
# Volume      : 7.372328e+01
# Time        	minMag(U)
2.65          	5.226240e-03
2.675         	3.584773e-03
2.7           	3.102349e-03
