/*--------------------------------*- C++ -*----------------------------------*\
  =========                 |
  \\      /  F ield         | OpenFOAM: The Open Source CFD Toolbox
   \\    /   O peration     | Website:  https://openfoam.org
    \\  /    A nd           | Version:  13
     \\/     M anipulation  |
\*---------------------------------------------------------------------------*/
FoamFile
{
    format      ascii;
    class       volScalarField;
    location    "0";
    object      Vc;
}
// * * * * * * * * * * * * * * * * * * * * * * * * * * * * * * * * * * * * * //

dimensions      [0 3 0 0 0 0 0];

internalField   nonuniform List<scalar> 
440
(
0.0260306
0.028033
0.0300353
0.0320377
0.03404
0.0260306
0.028033
0.0300353
0.0320377
0.0340401
0.0260307
0.028033
0.0300354
0.0320377
0.0340401
0.0260307
0.028033
0.0300354
0.0320377
0.0340401
0.0260307
0.028033
0.0300354
0.0320378
0.0340401
0.0260307
0.028033
0.0300354
0.0320377
0.0340401
0.0260306
0.028033
0.0300353
0.0320377
0.03404
0.0260306
0.028033
0.0300353
0.0320377
0.03404
0.0260306
0.028033
0.0300353
0.0320376
0.03404
0.0260306
0.028033
0.0300353
0.0320377
0.03404
0.313028
0.306974
0.300921
0.294868
0.288814
0.308461
0.304025
0.29959
0.295154
0.290719
0.29932
0.298107
0.296893
0.29568
0.294467
0.285591
0.289179
0.292766
0.296354
0.299941
0.267265
0.277191
0.287116
0.297042
0.306967
0.484431
0.484431
0.484431
0.484431
0.484431
0.484431
0.484431
0.484431
0.484431
0.484431
0.484431
0.484431
0.484431
0.484431
0.484431
0.484431
0.484431
0.484431
0.484431
0.484431
0.484431
0.484431
0.484431
0.484431
0.484431
0.0961213
0.096408
0.0968541
0.097211
0.097121
0.0942717
0.0950976
0.0966357
0.0986631
0.100859
0.0924221
0.0937873
0.0964172
0.100115
0.104596
0.0905725
0.0924769
0.0961988
0.101567
0.108334
0.0887229
0.0911666
0.0959804
0.103019
0.112071
0.03404
0.0320377
0.0300353
0.028033
0.0260306
0.0340401
0.0320377
0.0300353
0.028033
0.0260306
0.0340401
0.0320377
0.0300354
0.028033
0.0260307
0.0340401
0.0320377
0.0300354
0.028033
0.0260307
0.0340401
0.0320378
0.0300354
0.028033
0.0260307
0.0340401
0.0320378
0.0300354
0.028033
0.0260307
0.0340401
0.0320377
0.0300354
0.028033
0.0260307
0.0340401
0.0320377
0.0300354
0.028033
0.0260307
0.0340401
0.0320377
0.0300353
0.028033
0.0260306
0.03404
0.0320377
0.0300353
0.028033
0.0260306
0.288814
0.294868
0.300921
0.306974
0.313028
0.290719
0.295154
0.29959
0.304025
0.308461
0.294467
0.29568
0.296893
0.298107
0.29932
0.299941
0.296354
0.292766
0.289179
0.285591
0.306967
0.297042
0.287116
0.277191
0.267265
0.484431
0.484431
0.484431
0.484431
0.484431
0.484431
0.484431
0.484431
0.484431
0.484431
0.484431
0.484431
0.484431
0.484431
0.484431
0.484431
0.484431
0.484431
0.484431
0.484431
0.484431
0.484431
0.484431
0.484431
0.484431
0.097121
0.097211
0.0968541
0.096408
0.0961213
0.100859
0.0986631
0.0966357
0.0950976
0.0942717
0.104596
0.100115
0.0964172
0.0937873
0.0924221
0.108334
0.101567
0.0961988
0.0924769
0.0905725
0.112071
0.103019
0.0959804
0.0911666
0.0887229
0.0260307
0.028033
0.0300354
0.0320378
0.0340401
0.0260307
0.028033
0.0300354
0.0320377
0.0340401
0.0260307
0.028033
0.0300354
0.0320377
0.0340401
0.0260306
0.028033
0.0300353
0.0320377
0.0340401
0.0260306
0.028033
0.0300353
0.0320377
0.03404
0.0260306
0.028033
0.0300353
0.0320377
0.03404
0.0260306
0.028033
0.0300353
0.0320377
0.0340401
0.0260307
0.028033
0.0300354
0.0320377
0.0340401
0.0260307
0.028033
0.0300354
0.0320377
0.0340401
0.0260307
0.028033
0.0300354
0.0320378
0.0340401
0.267265
0.277191
0.287116
0.297042
0.306967
0.285591
0.289179
0.292766
0.296354
0.299941
0.29932
0.298107
0.296893
0.29568
0.294467
0.308461
0.304025
0.29959
0.295154
0.290719
0.313028
0.306974
0.300921
0.294868
0.288814
0.409066
0.409066
0.409066
0.409066
0.409066
0.409066
0.409066
0.409066
0.409066
0.409066
0.0220308
0.0284772
0.0411275
0.0595053
0.0829157
0.0230817
0.0288541
0.0400062
0.0557683
0.0750254
0.03404
0.0320377
0.0300353
0.028033
0.0260306
0.0340401
0.0320377
0.0300353
0.028033
0.0260306
0.0340401
0.0320377
0.0300354
0.028033
0.0260307
0.0340401
0.0320377
0.0300354
0.028033
0.0260307
0.0340401
0.0320378
0.0300354
0.028033
0.0260307
0.0340401
0.0320378
0.0300354
0.028033
0.0260307
0.0340401
0.0320377
0.0300354
0.028033
0.0260307
0.0340401
0.0320377
0.0300354
0.028033
0.0260307
0.0340401
0.0320377
0.0300353
0.028033
0.0260306
0.03404
0.0320377
0.0300353
0.028033
0.0260306
0.306967
0.297042
0.287116
0.277191
0.267265
0.299941
0.296354
0.292766
0.289179
0.285591
0.294467
0.29568
0.296893
0.298107
0.29932
0.290719
0.295154
0.29959
0.304025
0.308461
0.288814
0.294868
0.300921
0.306974
0.313028
0.409066
0.409066
0.409066
0.409066
0.409066
0.409066
0.409066
0.409066
0.409066
0.409066
0.0829157
0.0595053
0.0411275
0.0284772
0.0220308
0.0750254
0.0557683
0.0400062
0.0288541
0.0230817
)
;

boundaryField
{
    left
    {
        type            calculated;
        value           uniform 0;
    }
    right
    {
        type            calculated;
        value           uniform 0;
    }
    down
    {
        type            calculated;
        value           uniform 0;
    }
    up
    {
        type            calculated;
        value           uniform 0;
    }
    cylinder
    {
        type            calculated;
        value           uniform 0;
    }
    defaultFaces
    {
        type            empty;
    }
}


// ************************************************************************* //
