/*--------------------------------*- C++ -*----------------------------------*\
  =========                 |
  \\      /  F ield         | OpenFOAM: The Open Source CFD Toolbox
   \\    /   O peration     | Website:  https://openfoam.org
    \\  /    A nd           | Version:  13
     \\/     M anipulation  |
\*---------------------------------------------------------------------------*/
FoamFile
{
    format      ascii;
    class       volScalarField;
    location    "0.695";
    object      p;
}
// * * * * * * * * * * * * * * * * * * * * * * * * * * * * * * * * * * * * * //

dimensions      [0 2 -2 0 0 0 0];

internalField   nonuniform List<scalar> 
1800
(
5.7466
7.8537
10.0065
11.4349
12.2693
12.6798
12.8108
12.6533
11.4069
7.31467
9.5961
12.0718
14.5767
16.2607
17.3173
17.98
18.4347
18.6737
17.9492
15.2712
15.9884
18.6131
21.2858
23.1491
24.4093
25.291
25.9418
26.3251
25.8539
24.0228
24.9835
27.5529
30.2013
32.1158
33.4811
34.4902
35.2526
35.7045
35.2984
33.6136
36.0421
38.4029
40.8552
42.6668
43.9912
44.9873
45.7419
46.1912
45.841
44.2854
48.719
50.7715
52.9152
54.5214
55.7124
56.6147
57.2969
57.7075
57.4263
56.0669
62.6674
64.3402
66.0959
67.4279
68.4299
69.1995
69.791
70.1679
69.9928
68.9041
77.5932
78.8348
80.1458
81.1552
81.9311
82.5449
83.0391
83.3939
83.3605
82.6241
93.2114
93.991
94.8226
95.4774
96.0003
96.4377
96.8205
97.1439
97.2541
96.9197
109.24
109.545
109.877
110.151
110.389
110.61
110.827
111.041
111.202
111.229
-0.605817
-0.858551
-0.635707
-0.220934
0.251775
0.71977
1.07945
1.29039
1.43547
1.58221
-0.479125
-0.994933
-1.10486
-0.898909
-0.474926
-0.0509198
0.241738
0.48424
0.764429
1.03801
0.522035
-0.445869
-1.27874
-1.44472
-1.11775
-0.812094
-0.598745
-0.293543
0.113805
0.499719
0.91543
-0.226368
-1.42509
-1.76382
-1.54366
-1.39036
-1.26569
-0.960726
-0.503819
0.00402105
0.484171
-0.484164
-1.42509
-1.71648
-1.65949
-1.67058
-1.63456
-1.37314
-0.882103
-0.188005
-0.219669
-0.736836
-1.13772
-1.26745
-1.28831
-1.35406
-1.34694
-1.13895
-0.614748
0.317509
-0.555293
-0.517689
-0.341446
-0.195611
-0.111252
-0.0911335
-0.0532093
0.116136
0.6935
1.92336
-0.0722001
0.514051
1.23489
1.73921
2.06861
2.28161
2.43074
2.64701
3.37727
5.03925
1.37476
2.48268
3.73105
4.65247
5.32238
5.81458
6.15443
6.49338
7.47995
9.76721
3.61641
5.25929
7.07743
8.45333
9.47602
10.2361
10.7584
11.2113
12.2722
14.4351
2.30038
2.43958
2.33258
2.08753
1.584
1.18139
0.858787
0.584609
0.350371
0.133187
1.95168
2.41669
2.22894
2.00473
1.50103
1.10228
0.80836
0.56795
0.353373
0.139535
1.47428
2.38755
2.12809
1.91315
1.42623
1.03589
0.762944
0.549695
0.353082
0.144503
0.849577
2.30512
2.0282
1.80745
1.35131
0.97728
0.723886
0.533106
0.347129
0.146623
0.155348
2.12916
1.91764
1.68533
1.27046
0.92224
0.689763
0.518359
0.340604
0.147802
-0.417543
1.85015
1.77909
1.54529
1.18014
0.868133
0.659138
0.504866
0.339197
0.148838
-0.567209
1.50164
1.5994
1.38488
1.0783
0.813126
0.631177
0.492617
0.341938
0.149677
0.161258
1.17229
1.36953
1.19525
0.961305
0.755088
0.604766
0.482357
0.340617
0.147267
2.41759
1.03589
1.06881
0.951824
0.820685
0.69126
0.57881
0.471603
0.330939
0.137582
6.6525
1.4048
0.711396
0.634311
0.648936
0.620333
0.552499
0.455546
0.31426
0.12377
9.9785
2.57514
0.687741
0.392477
0.472215
0.541659
0.516698
0.42689
0.286892
0.103703
11.7636
2.57105
0.265695
0.0581737
0.357269
0.507239
0.4809
0.38231
0.246415
0.074957
12.8619
2.77709
0.395443
0.153021
0.469763
0.568281
0.481389
0.350821
0.207653
0.0451076
14.183
4.36458
1.28021
0.727178
0.789457
0.716609
0.523015
0.336789
0.174987
0.016314
16.3598
7.1086
2.7007
1.59141
1.24096
0.933926
0.606705
0.344563
0.15269
-0.00834636
19.2499
9.87399
4.33385
2.55721
1.77125
1.201
0.723853
0.374157
0.143639
-0.0260761
21.7541
11.9355
5.85151
3.51727
2.33746
1.49762
0.863352
0.42249
0.148654
-0.03495
23.0331
13.1185
7.04856
4.41729
2.91112
1.80974
1.01689
0.485849
0.167249
-0.0339925
22.973
13.4976
7.90925
5.26451
3.50044
2.14519
1.19082
0.568146
0.203051
-0.0214762
22.4202
13.7226
8.6806
6.12556
4.12673
2.52396
1.40733
0.686815
0.275207
0.00824351
111.785
97.8396
84.0748
71.0696
59.1301
48.3499
38.7684
30.0917
20.0804
4.97532
112.765
99.4773
85.9764
72.9699
60.9267
50.0458
40.5126
32.2544
23.5893
11.4761
113.297
100.212
87.3314
75.0051
63.4662
52.8743
43.4443
35.2555
27.4691
18.335
114.509
102.769
90.8102
78.9794
67.6228
57.0275
47.3944
38.794
31.0872
23.824
115.086
104.075
93.1546
82.4635
72.1165
62.192
52.7296
43.8192
36.001
29.8221
115.436
104.709
94.2021
84.0403
74.3196
65.0902
56.3309
48.0894
41.0478
36.0308
115.667
105.108
94.7968
84.8646
75.4218
66.5413
58.2325
50.5649
44.2109
40.0914
115.768
105.246
94.9799
85.1084
75.7543
67.0083
58.9045
51.5111
45.3943
41.4346
115.718
105.032
94.6055
84.5863
75.1071
66.2745
58.1444
50.7749
44.5511
40.0982
115.594
104.647
93.9595
83.682
73.9565
64.9063
56.6115
49.1167
42.6077
37.4128
234.122
229.758
228.191
227.749
227.658
227.909
228.643
230.024
232.176
234.315
225.559
222.54
221.491
221.452
221.677
222.162
223.093
224.7
227.172
229.648
216.046
213.871
213.098
213.223
213.654
214.357
215.482
217.252
219.866
222.464
205.739
203.712
203.008
203.204
203.748
204.577
205.801
207.609
210.178
212.697
194.416
192.507
191.852
192.04
192.572
193.383
194.56
196.254
198.609
200.899
182.049
180.325
179.731
179.873
180.326
181.037
182.073
183.55
185.58
187.545
168.703
167.241
166.747
166.85
167.206
167.779
168.618
169.811
171.438
173.009
154.569
153.453
153.098
153.176
153.431
153.844
154.451
155.313
156.484
157.611
139.961
139.247
139.04
139.089
139.234
139.469
139.819
140.321
141.003
141.659
125.436
125.092
124.952
124.905
124.892
124.914
124.981
125.1
125.278
125.453
246.552
246.79
247.042
247.26
247.559
248.059
248.611
248.947
248.953
248.44
246.626
246.957
247.36
247.666
247.866
248.201
248.625
248.541
247.724
246.705
246.637
247.033
247.478
247.79
247.873
248.003
248.285
247.925
246.537
245.281
246.516
247.018
247.448
247.68
247.612
247.498
247.533
247.11
245.816
244.658
246.024
246.679
247.068
247.173
246.995
246.718
246.541
246.181
245.372
244.582
244.817
245.66
245.996
245.96
245.729
245.444
245.248
245.076
244.836
244.55
242.471
243.568
243.905
243.79
243.579
243.415
243.38
243.511
243.818
244.058
238.587
240.073
240.542
240.475
240.391
240.442
240.68
241.175
241.988
242.726
233.114
235.168
235.876
235.943
236.069
236.415
237.003
237.908
239.212
240.424
227.759
229.624
230.369
230.536
230.842
231.459
232.401
233.752
235.599
237.307
246.94
246.72
246.681
246.489
246.421
246.303
245.927
245.672
245.571
245.717
246.899
246.719
246.677
246.492
246.42
246.313
245.936
245.654
245.379
245.738
246.871
246.715
246.668
246.487
246.412
246.314
245.937
245.6
245.143
245.822
246.853
246.708
246.655
246.475
246.398
246.309
245.926
245.509
244.925
246.008
246.841
246.698
246.639
246.456
246.378
246.296
245.9
245.401
244.791
246.246
246.834
246.686
246.62
246.432
246.354
246.27
245.864
245.308
244.766
246.354
246.833
246.672
246.6
246.405
246.324
246.232
245.828
245.257
244.812
246.021
246.836
246.654
246.579
246.376
246.289
246.19
245.811
245.26
244.833
244.784
246.845
246.632
246.554
246.343
246.253
246.158
245.843
245.336
244.655
242.008
246.862
246.608
246.525
246.309
246.22
246.155
245.945
245.461
243.976
237.292
246.9
246.581
246.485
246.252
246.156
246.084
245.874
245.133
242.442
233.742
247.015
246.562
246.447
246.202
246.101
246.123
246.071
245.333
242.177
231.799
247.257
246.568
246.409
246.125
246.024
246.085
246.063
245.237
241.885
230.535
247.708
246.623
246.38
246.04
245.887
245.819
245.615
244.534
240.48
229.316
248.546
246.689
246.403
245.948
245.675
245.311
244.743
243.227
238.009
227.46
250.382
246.755
246.511
245.877
245.383
244.649
243.657
241.568
235.374
224.914
254.262
247.067
246.665
245.819
245.028
243.935
242.559
239.956
233.311
222.584
262.567
248.205
246.94
245.775
244.655
243.245
241.557
238.667
232.072
221.328
280.127
250.94
247.59
245.81
244.301
242.593
240.649
237.736
231.629
221.358
306.097
254.986
249.096
246.023
244.01
241.972
239.764
236.919
231.358
221.885
236.417
221.067
210.445
201.13
190.969
179.665
167.27
153.898
139.852
125.722
230.028
217.734
208.582
199.861
189.923
178.685
166.338
153.087
139.364
125.89
223.495
214.13
205.951
197.424
187.709
176.869
165.116
152.615
139.598
126.42
218.38
210.873
202.881
194.031
184.188
173.423
161.931
149.988
137.925
126.091
212.983
206.589
198.596
189.502
179.833
169.695
159.145
148.277
137.222
126.129
207.385
202.089
194.829
186.359
177.36
167.905
157.985
147.663
137.042
126.255
203.591
199.15
192.561
184.664
176.131
167.045
157.424
147.349
136.938
126.328
202.309
198.051
191.705
184.092
175.779
166.843
157.324
147.32
136.961
126.392
203.635
198.92
192.47
184.885
176.553
167.537
157.9
147.754
137.239
126.507
206.309
200.874
194.137
186.426
177.931
168.699
158.816
148.412
137.636
126.643
112.187
112.357
112.441
112.293
111.786
111.425
111.24
111.525
111.517
111.268
89.6122
90.0755
90.2942
89.8606
88.4286
87.3422
86.7213
87.3829
87.4205
86.834
68.769
69.3967
69.658
68.9913
67.0519
65.3402
64.3199
64.8686
65.173
64.6178
50.6511
51.2576
51.4473
50.6241
48.645
46.479
45.1489
45.1843
45.9227
45.6893
36.0058
36.4142
36.4645
35.5832
33.7913
31.4754
29.8316
29.2663
30.0739
30.2616
24.9534
25.0569
24.9348
24.0117
22.4341
20.4047
18.6139
17.6723
17.9273
18.4273
17.0668
16.9165
16.7017
15.7107
14.2963
12.7929
11.3054
10.2404
9.9007
10.2672
11.5797
11.4028
11.3544
10.355
9.0361
8.03421
7.14256
6.29967
5.71123
5.62746
7.90559
7.81737
8.11343
7.24561
6.07959
5.48908
5.16021
4.77556
4.29163
3.91194
6.03682
5.83189
6.2174
5.47961
4.61025
4.33419
4.35819
4.34882
4.19626
3.80032
5.2698
5.03299
5.11541
4.42109
3.88885
3.83265
3.98241
4.12515
4.24627
4.30296
4.84279
4.73369
4.45636
3.79001
3.5041
3.59135
3.79451
3.96209
4.08185
4.16813
4.46437
4.41963
3.98789
3.43729
3.3172
3.47996
3.70466
3.88338
4.00136
4.06173
4.01005
3.95514
3.54907
3.19763
3.20749
3.41066
3.62351
3.7808
3.87939
3.92072
3.46227
3.36907
3.09587
2.97604
3.09276
3.30952
3.49962
3.63723
3.71852
3.74226
2.81134
2.71717
2.65774
2.748
2.94466
3.14906
3.31488
3.43433
3.50126
3.51468
2.08821
2.10482
2.23973
2.47433
2.70999
2.9085
3.06375
3.17747
3.24376
3.25922
1.41531
1.53341
1.78477
2.0778
2.33376
2.54812
2.72397
2.86263
2.95016
2.97827
0.738842
0.873745
1.14866
1.47767
1.7875
2.05916
2.29661
2.4815
2.58638
2.62404
0.0664765
-0.0183049
0.217022
0.628773
1.0493
1.43157
1.75589
1.97113
2.07448
2.13772
3.65733
3.70066
3.57001
3.24388
2.59313
1.90479
1.31402
0.842394
0.4552
0.0939224
3.72997
3.67447
3.51948
3.22786
2.55369
1.84885
1.26199
0.804624
0.432449
0.0922322
3.75638
3.56839
3.40771
3.17373
2.5097
1.79613
1.21275
0.7692
0.412083
0.0923367
3.71727
3.39201
3.25491
3.07128
2.45245
1.74492
1.16635
0.736263
0.394232
0.0937514
3.6094
3.18375
3.08659
2.91786
2.37008
1.69069
1.12208
0.705815
0.379001
0.0965071
3.44593
2.98593
2.92596
2.73381
2.25624
1.62953
1.07975
0.678273
0.366633
0.100612
3.25244
2.81859
2.78225
2.55106
2.11377
1.55775
1.0388
0.65405
0.357355
0.105946
3.04526
2.68165
2.6561
2.39386
1.95788
1.47269
0.997921
0.633238
0.351258
0.112263
2.82286
2.57055
2.54311
2.26936
1.80994
1.37563
0.955356
0.615474
0.348269
0.119192
2.57814
2.48807
2.43697
2.1714
1.68465
1.27468
0.909036
0.599808
0.348154
0.126313
5.41859
3.97233
3.27393
2.89448
2.41331
1.89182
1.39212
0.938124
0.540361
0.131353
4.61476
3.75168
3.3101
2.95565
2.4539
1.90059
1.37951
0.919365
0.519131
0.120249
3.94482
3.65967
3.37088
3.02512
2.49324
1.90842
1.36815
0.90259
0.5028
0.110899
3.62497
3.66012
3.45633
3.10546
2.53448
1.91602
1.35722
0.886926
0.488637
0.103585
3.61025
3.7033
3.55813
3.19792
2.58043
1.92385
1.34537
0.870711
0.474876
0.098159
112.018
88.9504
67.8988
50.1268
36.1117
25.7912
18.621
13.7455
10.5635
8.74931
111.797
88.388
67.1926
49.3924
35.3095
24.787
17.3173
12.2119
9.06907
7.5689
111.611
87.9077
66.5544
48.6518
34.3983
23.6143
15.897
10.677
7.53237
6.07435
111.4
87.334
65.714
47.5871
33.0736
22.0202
14.1254
8.89243
5.80693
4.43127
111.146
86.6059
64.5847
46.114
31.2735
19.9525
11.9566
6.92015
4.437
3.62116
243.768
243.806
243.926
244.097
244.31
244.319
243.814
243.112
243.216
242.992
243.98
244.052
244.166
244.355
244.626
244.801
244.582
243.932
243.675
243.568
244.177
244.225
244.338
244.534
244.82
245.082
245.056
244.549
244.121
244.07
244.419
244.452
244.55
244.724
244.981
245.271
245.377
245.107
244.721
244.653
244.694
244.711
244.793
244.942
245.158
245.423
245.627
245.63
245.464
245.374
244.986
244.999
245.068
245.19
245.364
245.594
245.865
246.108
246.214
246.203
245.26
245.278
245.36
245.496
245.672
245.902
246.203
246.566
246.87
246.993
245.545
245.563
245.66
245.851
246.106
246.407
246.768
247.181
247.547
247.728
245.926
245.956
246.032
246.255
246.626
247.08
247.586
248.106
248.451
248.413
246.32
246.43
246.531
246.721
247.121
247.691
248.293
248.844
249.197
248.992
136.5
136.241
136.219
136.481
136.263
135.865
135.324
135.152
135.224
135.389
160.951
160.355
160.376
161.014
160.361
159.238
157.774
157.318
157.524
157.982
183.196
182.63
182.917
183.44
182.389
180.644
178.675
177.987
178.235
178.858
202.163
201.917
202.635
202.646
201.288
199.09
197.083
196.239
196.417
197.019
217.635
217.809
218.593
218.005
216.337
213.993
212.171
211.269
211.308
211.713
229.515
229.996
230.226
229.267
227.459
225.402
223.793
222.846
222.713
222.814
237.714
238.05
237.688
236.614
235.122
233.593
232.143
231.126
230.901
230.75
242.369
242.249
241.64
240.807
239.928
238.91
237.556
236.531
236.472
236.294
244.094
243.675
243.182
242.824
242.526
241.94
240.75
239.855
240.141
240.056
244.233
243.807
243.654
243.675
243.747
243.505
242.631
241.869
242.255
242.065
254.847
246.873
247.501
246.286
246.037
245.53
244.997
244.634
244.504
244.542
252.013
246.81
247.315
246.264
246.09
245.593
245.013
244.667
244.58
244.513
250.091
246.817
247.092
246.26
246.146
245.661
245.056
244.761
244.749
244.545
248.904
246.845
246.88
246.279
246.203
245.735
245.137
244.915
244.979
244.651
248.218
246.848
246.742
246.318
246.259
245.818
245.265
245.106
245.221
244.821
247.769
246.806
246.704
246.367
246.312
245.911
245.433
245.294
245.428
245.028
247.455
246.751
246.703
246.411
246.358
246.014
245.609
245.448
245.582
245.238
247.239
246.723
246.695
246.445
246.39
246.119
245.755
245.558
245.681
245.431
247.095
246.717
246.686
246.469
246.406
246.209
245.852
245.625
245.719
245.59
247.002
246.718
246.683
246.482
246.415
246.272
245.904
245.661
245.685
245.685
317.351
253.757
249.91
246.972
246.142
245.57
245.252
244.931
244.238
242.721
295.618
251.368
248.788
246.74
246.059
245.542
245.208
244.901
244.45
243.522
277.177
249.212
248.192
246.566
246.019
245.523
245.158
244.844
244.533
244.195
265.774
247.867
247.868
246.436
246.001
245.512
245.1
244.762
244.523
244.523
259.003
247.137
247.645
246.328
245.998
245.504
245.031
244.659
244.477
244.556
239.3
237.45
234.235
229.327
222.125
211.771
197.72
179.915
158.838
135.756
240.482
238.947
235.772
230.636
223.133
212.576
198.457
180.623
159.401
135.978
241.995
240.498
237.317
232.064
224.312
213.492
199.2
181.263
159.882
136.164
243.657
242.252
239.124
233.849
225.914
214.821
200.267
182.104
160.456
136.374
244.446
243.609
241.106
236.035
227.993
216.626
201.742
183.234
161.184
136.627
)
;

boundaryField
{
    left
    {
        type            zeroGradient;
    }
    right
    {
        type            fixedValue;
        value           uniform 0;
    }
    down
    {
        type            zeroGradient;
    }
    up
    {
        type            zeroGradient;
    }
    cylinder
    {
        type            zeroGradient;
    }
    defaultFaces
    {
        type            empty;
    }
}


// ************************************************************************* //
