/*--------------------------------*- C++ -*----------------------------------*\
  =========                 |
  \\      /  F ield         | OpenFOAM: The Open Source CFD Toolbox
   \\    /   O peration     | Website:  https://openfoam.org
    \\  /    A nd           | Version:  13
     \\/     M anipulation  |
\*---------------------------------------------------------------------------*/
FoamFile
{
    format      ascii;
    class       volVectorField;
    location    "0.695";
    object      U;
}
// * * * * * * * * * * * * * * * * * * * * * * * * * * * * * * * * * * * * * //

dimensions      [0 1 -1 0 0 0 0];

internalField   nonuniform List<vector> 
1800
(
(0.0978009 -0.0883287 -4.48953e-20)
(0.286896 -0.241951 -3.41197e-20)
(0.473973 -0.379045 -4.85024e-19)
(0.657692 -0.500158 1.9147e-19)
(0.836611 -0.607171 7.43816e-20)
(1.00991 -0.701377 -3.90566e-20)
(1.17715 -0.783469 5.5497e-20)
(1.33793 -0.85368 1.97373e-19)
(1.49159 -0.912961 5.92243e-19)
(1.63353 -0.966898 8.10042e-19)
(0.119061 -0.0915027 -7.91143e-20)
(0.344291 -0.247709 -7.70613e-19)
(0.563282 -0.38475 3.78147e-21)
(0.775364 -0.504236 1.25761e-19)
(0.979505 -0.608922 -1.26264e-19)
(1.17521 -0.700695 7.65841e-20)
(1.36231 -0.780788 -2.80814e-19)
(1.54078 -0.850098 -5.02658e-20)
(1.7101 -0.910703 -6.93484e-19)
(1.86785 -0.967042 6.29761e-19)
(0.141651 -0.092323 4.88227e-20)
(0.40368 -0.247731 2.09288e-19)
(0.653755 -0.382117 5.43322e-19)
(0.892178 -0.497905 -1.90262e-19)
(1.11866 -0.598385 -1.42995e-19)
(1.33321 -0.685812 7.56111e-20)
(1.53605 -0.761706 9.82563e-20)
(1.72743 -0.827297 1.94065e-19)
(1.90721 -0.8848 2.73616e-21)
(2.07421 -0.937867 1.50984e-19)
(0.163907 -0.0897209 -4.57191e-20)
(0.461698 -0.23947 -2.04391e-19)
(0.741428 -0.367618 -1.8126e-19)
(1.00451 -0.476977 -1.42298e-19)
(1.25162 -0.571022 1.8131e-19)
(1.48351 -0.652127 -5.70905e-20)
(1.70092 -0.721906 -4.31056e-21)
(1.90453 -0.781621 2.92546e-21)
(2.09455 -0.833364 -1.60459e-19)
(2.27025 -0.880354 -1.05941e-19)
(0.184658 -0.0833565 -1.14039e-19)
(0.515894 -0.221807 8.76368e-20)
(0.823292 -0.339431 1.79841e-19)
(1.10931 -0.439063 2.43305e-19)
(1.37561 -0.524071 -2.85021e-19)
(1.62371 -0.596777 -3.58075e-21)
(1.85494 -0.658767 4.24977e-19)
(2.07042 -0.711262 -1.85055e-19)
(2.27083 -0.756163 -1.23988e-19)
(2.45578 -0.796396 -5.35559e-20)
(0.20319 -0.0735001 1.73591e-19)
(0.564471 -0.1952 1.02985e-18)
(0.896791 -0.298074 1.43255e-19)
(1.20351 -0.384735 -5.0314e-19)
(1.48719 -0.458227 -1.75502e-19)
(1.75003 -0.520669 6.37689e-19)
(1.9939 -0.573525 -1.45377e-19)
(2.22036 -0.6179 -4.31587e-19)
(2.43047 -0.655444 -3.16655e-19)
(2.62419 -0.688742 2.6159e-19)
(0.218898 -0.0605913 1.1634e-19)
(0.605745 -0.160701 -7.47592e-19)
(0.959313 -0.24503 -1.0856e-18)
(1.28371 -0.315798 3.83785e-19)
(1.58223 -0.375564 4.49943e-19)
(1.85767 -0.426128 -9.02059e-22)
(2.11239 -0.468739 -6.39681e-19)
(2.34829 -0.504325 2.19314e-19)
(2.56683 -0.534213 -3.6448e-19)
(2.76827 -0.560569 -3.11214e-19)
(0.231235 -0.0451723 -3.42487e-19)
(0.638199 -0.119684 -6.92604e-19)
(1.00849 -0.182294 1.21221e-18)
(1.34677 -0.2347 5.98701e-19)
(1.65693 -0.278852 -2.69758e-19)
(1.94224 -0.316136 -2.11496e-19)
(2.20543 -0.347515 0)
(2.44874 -0.373689 1.16805e-19)
(2.67398 -0.395622 -2.95841e-19)
(2.88171 -0.41497 -7.74274e-20)
(0.239766 -0.0278754 -2.04466e-19)
(0.660652 -0.0737558 5.62384e-19)
(1.04249 -0.112198 1.71008e-19)
(1.39031 -0.144289 -5.12494e-19)
(1.7084 -0.171277 -7.84194e-19)
(2.00037 -0.194053 3.66196e-20)
(2.26924 -0.213245 1.67124e-19)
(2.51752 -0.229293 -5.46841e-19)
(2.74731 -0.242784 -2.89763e-19)
(2.95953 -0.254778 -5.63593e-19)
(0.24426 -0.00940241 4.51408e-19)
(0.672452 -0.024704 3.44149e-19)
(1.0603 -0.0373616 -9.38596e-20)
(1.41303 -0.0477884 -1.29789e-20)
(1.73514 -0.0564622 -3.87507e-19)
(2.03041 -0.063723 -8.57328e-20)
(2.30205 -0.06981 -2.90578e-19)
(2.55276 -0.0748902 6.46558e-19)
(2.7848 -0.079171 1.71003e-19)
(2.99945 -0.0830119 2.22277e-21)
(-0.00234397 -0.0217864 -3.42194e-20)
(0.00860523 -0.0693498 -7.02797e-20)
(0.0248932 -0.120503 -7.32201e-21)
(0.0493244 -0.171206 -3.40518e-20)
(0.0776783 -0.216595 -1.27319e-20)
(0.106522 -0.254739 -3.90044e-19)
(0.135552 -0.288673 -1.95004e-20)
(0.166342 -0.321987 1.19952e-19)
(0.199172 -0.355503 1.09554e-20)
(0.233064 -0.387872 -3.57887e-20)
(0.000848033 -0.0246871 -9.77547e-20)
(0.0149436 -0.0850725 -2.12561e-19)
(0.0393454 -0.160329 -5.41354e-20)
(0.0692727 -0.225249 -1.10445e-19)
(0.0994943 -0.27554 -9.65256e-20)
(0.130465 -0.317973 -2.79833e-19)
(0.164485 -0.358964 2.00548e-19)
(0.202148 -0.400367 1.6861e-19)
(0.241652 -0.440285 -2.56604e-19)
(0.281164 -0.476668 8.12997e-20)
(0.00549546 -0.0314937 -8.54124e-20)
(0.0287776 -0.107419 -8.66705e-19)
(0.0628555 -0.196101 -1.29539e-19)
(0.0974509 -0.268963 9.33139e-20)
(0.131818 -0.327207 6.78045e-20)
(0.169657 -0.380272 -4.49976e-19)
(0.212953 -0.432295 3.56419e-20)
(0.259147 -0.481787 3.67009e-19)
(0.305498 -0.526249 -3.86446e-19)
(0.351449 -0.565645 -2.58549e-19)
(0.0113686 -0.0409872 -1.77258e-21)
(0.0466249 -0.130878 1.89804e-19)
(0.0896409 -0.225331 1.6152e-21)
(0.133077 -0.307033 -1.07821e-20)
(0.177791 -0.377868 -3.00984e-20)
(0.227247 -0.44385 8.66173e-20)
(0.281101 -0.505614 7.30946e-20)
(0.335674 -0.560882 -1.36139e-19)
(0.38974 -0.609363 9.20877e-21)
(0.44391 -0.651929 -1.04424e-20)
(0.0185094 -0.0507727 0)
(0.0672389 -0.152431 5.47641e-21)
(0.121939 -0.253637 -5.10145e-19)
(0.178695 -0.345478 5.15745e-20)
(0.23781 -0.428576 -1.01804e-20)
(0.300518 -0.505085 5.77809e-21)
(0.365312 -0.574369 -2.54166e-20)
(0.42981 -0.635425 -7.77017e-21)
(0.49395 -0.688828 0)
(0.558145 -0.734837 -2.05847e-20)
(0.0273261 -0.059651 3.18262e-20)
(0.0918957 -0.172858 -1.54265e-19)
(0.161767 -0.282526 -4.59609e-20)
(0.23463 -0.383892 -5.83663e-20)
(0.309737 -0.476753 4.96351e-20)
(0.386738 -0.561533 5.52623e-21)
(0.464243 -0.637696 8.97003e-20)
(0.540938 -0.704936 -2.17594e-20)
(0.61691 -0.763435 -6.96318e-19)
(0.69216 -0.812637 -1.01035e-20)
(0.0379752 -0.0676053 6.83964e-22)
(0.121237 -0.19218 5.57227e-20)
(0.209164 -0.310619 -7.8475e-20)
(0.299927 -0.420178 -1.66997e-20)
(0.392136 -0.52067 -7.2918e-20)
(0.484777 -0.612126 -9.5417e-21)
(0.5767 -0.694321 9.89691e-21)
(0.66694 -0.767138 -2.11678e-19)
(0.755524 -0.830257 3.83545e-19)
(0.842316 -0.882311 9.71587e-19)
(0.0503616 -0.0746014 1.51326e-20)
(0.15513 -0.209611 -1.42281e-19)
(0.263462 -0.335965 -2.13785e-19)
(0.37367 -0.452111 8.90181e-20)
(0.484102 -0.558265 -6.4325e-20)
(0.593544 -0.654614 9.87593e-20)
(0.700942 -0.741272 1.96854e-19)
(0.805407 -0.818293 -1.09134e-19)
(0.907018 -0.885105 -3.05961e-19)
(1.00569 -0.939518 7.25375e-19)
(0.0642902 -0.08036 -2.64873e-20)
(0.193286 -0.224026 -5.78125e-19)
(0.324297 -0.35656 5.24318e-19)
(0.455683 -0.47723 3.37496e-19)
(0.585738 -0.586744 -8.59124e-20)
(0.713223 -0.685658 3.08694e-19)
(0.837128 -0.77443 -1.59969e-19)
(0.956562 -0.853453 -7.72939e-19)
(1.07173 -0.922029 -4.03721e-19)
(1.18267 -0.977273 4.53681e-19)
(0.0795452 -0.0846661 -7.98238e-20)
(0.235846 -0.234417 -5.44356e-19)
(0.392392 -0.370525 -8.27714e-21)
(0.547541 -0.492795 6.8822e-20)
(0.699594 -0.602462 3.37763e-19)
(0.847391 -0.700431 -1.85393e-19)
(0.990012 -0.787438 -1.6948e-19)
(1.12653 -0.863823 1.89006e-19)
(1.25681 -0.928644 -3.5163e-19)
(1.38007 -0.980349 -5.84597e-19)
(0.402974 -0.531964 9.84566e-19)
(0.684906 -0.618425 -2.439e-19)
(0.913789 -0.557724 -1.4292e-19)
(1.08766 -0.431192 2.69292e-19)
(1.24011 -0.280097 -2.30769e-19)
(1.36246 -0.139328 -2.99766e-19)
(1.45993 -0.0332871 -2.65864e-19)
(1.51691 0.02021 -3.18617e-20)
(1.53767 0.0310753 4.08491e-21)
(1.55363 0.0221934 3.00476e-20)
(0.468917 -0.619832 9.65395e-19)
(0.74155 -0.693858 7.1483e-20)
(0.966341 -0.617769 1.09549e-20)
(1.12485 -0.480423 -2.16349e-19)
(1.26558 -0.320446 -7.17186e-19)
(1.38088 -0.171967 0)
(1.47948 -0.0578802 -2.4682e-19)
(1.55331 0.00623582 5.1851e-20)
(1.59062 0.0247754 4.5008e-21)
(1.61863 0.0187457 1.95591e-22)
(0.556247 -0.70549 -9.98098e-19)
(0.810842 -0.766832 -7.09911e-20)
(1.02559 -0.675676 1.56257e-19)
(1.16622 -0.52749 -5.38744e-20)
(1.29123 -0.359579 -3.63775e-20)
(1.397 -0.204451 6.44217e-20)
(1.49112 -0.084214 0)
(1.57226 -0.0123017 0)
(1.62552 0.0125532 -2.02898e-20)
(1.67432 0.0126817 0)
(0.665723 -0.787239 -2.24892e-19)
(0.89565 -0.8354 4.04164e-19)
(1.09201 -0.730381 2.68241e-20)
(1.21249 -0.571406 0)
(1.31799 -0.396611 6.05633e-19)
(1.41187 -0.23576 -1.43928e-19)
(1.49872 -0.110703 0)
(1.57957 -0.0324118 1.32747e-19)
(1.63395 -0.00419456 0)
(1.7126 0.00159101 -1.06155e-20)
(0.795752 -0.863925 -1.48924e-19)
(0.997663 -0.897576 4.54742e-19)
(1.16623 -0.780726 -1.46586e-20)
(1.26383 -0.611345 0)
(1.34652 -0.430728 1.78836e-19)
(1.42586 -0.265195 2.70668e-19)
(1.50426 -0.136177 4.76141e-20)
(1.58044 -0.0523727 6.7033e-21)
(1.63161 -0.0215531 -2.29142e-20)
(1.71919 -0.012089 3.28661e-20)
(0.942251 -0.934794 -1.3313e-18)
(1.1165 -0.952007 -9.4196e-19)
(1.24887 -0.825444 4.76208e-21)
(1.32003 -0.646583 5.75148e-19)
(1.37722 -0.461145 -3.04033e-19)
(1.43902 -0.292232 1.46994e-19)
(1.50819 -0.159961 2.33449e-19)
(1.5776 -0.0713029 -1.87967e-19)
(1.62672 -0.0390575 -1.89479e-21)
(1.71416 -0.0250566 2.53327e-20)
(1.1001 -0.999471 -2.60488e-19)
(1.25002 -0.998506 2.86561e-19)
(1.34019 -0.863417 3.94408e-21)
(1.38078 -0.676432 -1.76141e-20)
(1.41018 -0.487086 -5.88875e-19)
(1.45135 -0.316335 5.41526e-20)
(1.51 -0.18166 -9.3963e-20)
(1.57197 -0.0893282 -2.70901e-20)
(1.62244 -0.0544969 -1.23797e-21)
(1.69082 -0.0378297 -2.29027e-20)
(1.26432 -1.05685 -1.2008e-18)
(1.39474 -1.03768 2.09929e-19)
(1.43916 -0.894054 0)
(1.44511 -0.700463 3.44775e-20)
(1.44476 -0.508022 5.1932e-19)
(1.46254 -0.336995 -1.51396e-21)
(1.50862 -0.201291 -3.10816e-19)
(1.56401 -0.105783 5.97705e-20)
(1.61375 -0.0687777 -8.00182e-22)
(1.63951 -0.0447478 -2.54729e-20)
(1.432 -1.1035 3.39105e-18)
(1.54804 -1.07044 2.46088e-19)
(1.5456 -0.918061 4.64158e-19)
(1.51327 -0.7191 -3.17932e-20)
(1.48102 -0.524112 -3.43826e-20)
(1.47252 -0.354068 -4.27471e-19)
(1.50172 -0.218722 9.0839e-20)
(1.55412 -0.120563 3.06395e-21)
(1.56931 -0.0757145 -2.48111e-20)
(1.57627 -0.0466732 3.24573e-20)
(1.59924 -1.12819 -2.99822e-18)
(1.70185 -1.09564 1.27226e-18)
(1.65395 -0.938082 -2.3289e-19)
(1.58139 -0.735831 -7.88416e-19)
(1.51594 -0.538934 -6.54866e-19)
(1.47863 -0.371317 -2.54776e-19)
(1.48933 -0.23619 -6.69224e-20)
(1.51364 -0.133286 0)
(1.50687 -0.0767968 -5.65969e-20)
(1.50477 -0.0469122 1.20118e-19)
(1.88818 -1.17023 -6.71204e-18)
(1.92739 -1.10518 -1.69196e-18)
(1.80486 -0.932285 -5.84452e-20)
(1.67306 -0.727679 1.11935e-19)
(1.56247 -0.534093 1.60472e-19)
(1.48619 -0.373164 -1.03247e-19)
(1.44996 -0.24077 -4.03153e-20)
(1.42836 -0.133553 7.04757e-20)
(1.41695 -0.0746831 -5.77828e-20)
(1.4066 -0.0461229 -5.51965e-20)
(2.28933 -1.13487 4.95777e-19)
(2.17884 -1.05672 -2.88172e-19)
(1.94274 -0.865346 4.97543e-19)
(1.73565 -0.664836 -8.52362e-20)
(1.56233 -0.480802 5.88812e-21)
(1.42651 -0.333619 -6.80053e-20)
(1.34309 -0.217432 9.67782e-20)
(1.31016 -0.123104 -3.30521e-20)
(1.29279 -0.0693038 2.03845e-19)
(1.27689 -0.0432541 9.12228e-20)
(2.61059 -1.0436 2.2709e-18)
(2.35195 -0.94878 3.25814e-19)
(2.00828 -0.759481 -1.17816e-19)
(1.73253 -0.572964 1.62589e-36)
(1.50545 -0.410718 -2.55124e-20)
(1.33918 -0.286637 1.50739e-33)
(1.23473 -0.189946 -1.9631e-20)
(1.18388 -0.110834 -1.63948e-33)
(1.16083 -0.0625678 6.81922e-21)
(1.14001 -0.0392198 -1.4581e-20)
(2.78703 -0.893972 3.8869e-33)
(2.36944 -0.795631 2.96662e-18)
(1.97361 -0.630485 1.8181e-18)
(1.65346 -0.469408 0)
(1.40658 -0.334894 8.33466e-19)
(1.22978 -0.233607 4.30619e-19)
(1.11404 -0.156229 1.69486e-19)
(1.05113 -0.0943533 -2.87488e-33)
(1.02221 -0.054083 -5.90701e-20)
(0.997427 -0.0340831 9.4169e-21)
(2.76365 -0.705894 3.84275e-18)
(2.2459 -0.629883 -1.46815e-19)
(1.84654 -0.491019 0)
(1.51553 -0.361706 0)
(1.2713 -0.255689 0)
(1.09733 -0.178392 0)
(0.980874 -0.120789 -1.26865e-20)
(0.912165 -0.0752835 -4.17398e-33)
(0.878642 -0.0440522 7.62461e-21)
(0.850788 -0.0280878 8.37539e-34)
(2.55117 -0.517037 3.26576e-18)
(2.02005 -0.462916 0)
(1.63856 -0.353643 0)
(1.32675 -0.256743 0)
(1.10096 -0.179695 0)
(0.941717 -0.125516 0)
(0.833486 -0.0859899 3.29736e-20)
(0.765877 -0.05519 -9.07193e-20)
(0.730445 -0.0329984 8.50575e-21)
(0.70108 -0.0215106 3.36215e-20)
(2.19012 -0.342711 0)
(1.70263 -0.303513 1.09826e-18)
(1.36128 -0.227607 1.09037e-18)
(1.09131 -0.161992 0)
(0.898396 -0.112335 6.66971e-19)
(0.763998 -0.0786899 4.04949e-19)
(0.671595 -0.0545902 2.5167e-19)
(0.61127 -0.0360416 8.32847e-20)
(0.577507 -0.0219074 -2.60178e-20)
(0.548939 -0.0148229 -4.44872e-21)
(1.70286 -0.191136 -6.73872e-19)
(1.30018 -0.165594 -2.74164e-19)
(1.02505 -0.121756 1.75643e-19)
(0.815082 -0.0844377 -2.11268e-34)
(0.667701 -0.0580805 -7.70558e-20)
(0.566166 -0.0410329 3.71172e-33)
(0.495592 -0.0289261 4.88545e-20)
(0.447816 -0.0197105 9.8751e-20)
(0.419534 -0.0120489 9.88271e-21)
(0.394726 -0.00864907 -2.66743e-21)
(1.10088 -0.0758214 3.40804e-18)
(0.823158 -0.0626786 -1.86548e-19)
(0.640581 -0.044293 -5.88867e-19)
(0.506146 -0.0289882 0)
(0.413818 -0.0195675 -6.40083e-19)
(0.350649 -0.0141214 -4.32415e-19)
(0.306139 -0.0102969 -2.03791e-19)
(0.27506 -0.00745239 -1.41864e-19)
(0.255818 -0.0046064 1.69131e-19)
(0.238342 -0.00365255 -2.73326e-20)
(0.397352 -0.00331881 0)
(0.287866 0.00159417 0)
(0.220892 0.00409433 0)
(0.173551 0.00624739 0)
(0.142372 0.00585603 0)
(0.121193 0.00471387 0)
(0.105866 0.00367803 5.61016e-20)
(0.0947044 0.00256589 -2.17499e-34)
(0.087404 0.00212895 1.24428e-20)
(0.0803892 0.000894106 1.13438e-20)
(3.3671 -0.0863117 5.39208e-19)
(3.32642 -0.265086 -8.41901e-20)
(3.24735 -0.430657 8.52093e-19)
(3.13238 -0.582158 -6.04751e-19)
(2.98634 -0.718125 6.66399e-19)
(2.81524 -0.836382 2.75234e-19)
(2.6266 -0.934059 -1.92753e-18)
(2.42951 -1.00785 -7.74613e-20)
(2.22467 -1.05368 0)
(1.98485 -1.06656 4.26137e-19)
(3.86191 -0.0750596 7.07368e-18)
(3.79859 -0.234214 1.95637e-18)
(3.70428 -0.387311 -4.86731e-18)
(3.58426 -0.531992 -4.49089e-19)
(3.44238 -0.665895 3.55888e-18)
(3.28186 -0.787321 1.92343e-18)
(3.1065 -0.895069 -5.16862e-18)
(2.92204 -0.987703 -1.95217e-18)
(2.72759 -1.06339 2.20314e-18)
(2.49236 -1.12052 8.52169e-19)
(3.83308 -0.0533009 -1.26251e-19)
(3.82024 -0.171566 4.40361e-18)
(3.78546 -0.299762 -1.08826e-18)
(3.72434 -0.43092 -3.44613e-18)
(3.63618 -0.558732 -6.80012e-18)
(3.52371 -0.678803 1.02787e-17)
(3.39117 -0.788793 4.18063e-18)
(3.2435 -0.887985 -3.91182e-18)
(3.08161 -0.978716 -2.90276e-18)
(2.88723 -1.063 -3.42502e-18)
(3.62866 -0.0472859 -4.83943e-18)
(3.61961 -0.144932 -4.35349e-18)
(3.59963 -0.243741 5.47222e-18)
(3.56735 -0.343095 1.91192e-18)
(3.52241 -0.442379 -8.97142e-18)
(3.46416 -0.540809 4.92209e-19)
(3.39183 -0.637047 3.8864e-18)
(3.30512 -0.730431 -1.05397e-18)
(3.20499 -0.823065 1.27682e-18)
(3.08306 -0.914772 2.81767e-19)
(3.34405 -0.0365783 -9.16003e-19)
(3.339 -0.111656 3.00412e-18)
(3.3271 -0.188676 1.6196e-18)
(3.30744 -0.267172 -1.89429e-18)
(3.27986 -0.346071 -2.00139e-18)
(3.24465 -0.424138 -2.43402e-18)
(3.20204 -0.500335 3.79667e-19)
(3.15176 -0.574494 1.39032e-19)
(3.09549 -0.647759 -2.13976e-18)
(3.03287 -0.721304 -2.03441e-18)
(2.96257 -0.0265545 -1.82251e-18)
(2.95981 -0.079889 -5.87231e-20)
(2.9533 -0.134599 -1.63755e-18)
(2.9424 -0.190903 3.12128e-19)
(2.92675 -0.248551 5.36787e-18)
(2.90629 -0.30693 -3.6675e-19)
(2.88092 -0.365116 4.43391e-20)
(2.85023 -0.422059 -2.60861e-18)
(2.81644 -0.476883 -3.49569e-18)
(2.786 -0.529864 3.72822e-19)
(2.48713 -0.0175108 -2.89314e-20)
(2.48578 -0.0519348 -8.14317e-19)
(2.48259 -0.0872483 -2.61487e-18)
(2.47707 -0.123771 -3.43104e-18)
(2.4688 -0.161534 2.49657e-18)
(2.45744 -0.200268 1.50226e-18)
(2.44261 -0.239353 -1.38508e-18)
(2.4237 -0.277791 1.6245e-18)
(2.40275 -0.314483 -4.29712e-19)
(2.38953 -0.349541 -9.63776e-19)
(1.91464 -0.00968839 7.72463e-19)
(1.91408 -0.0282976 -8.31807e-19)
(1.91278 -0.0474397 -3.27698e-20)
(1.91031 -0.0673591 -3.47233e-20)
(1.90624 -0.0881301 -7.27406e-20)
(1.90013 -0.109614 -2.33196e-18)
(1.89151 -0.131405 -6.78681e-19)
(1.87978 -0.152782 2.62613e-18)
(1.86664 -0.172975 -6.03511e-19)
(1.86191 -0.192207 -1.35115e-18)
(1.23988 -0.00373764 -1.64283e-18)
(1.23967 -0.0106957 -8.48917e-19)
(1.23923 -0.0179012 2.33921e-18)
(1.23823 -0.0254786 -8.89781e-19)
(1.23625 -0.0334753 -6.74128e-19)
(1.2329 -0.0418316 1.35204e-18)
(1.22775 -0.0503499 -1.2959e-18)
(1.22038 -0.0586654 1.287e-18)
(1.21202 -0.0663424 -1.21033e-18)
(1.21007 -0.0735081 -4.2483e-18)
(0.454916 -0.000257978 6.63084e-19)
(0.454827 -0.000700532 7.03058e-19)
(0.454692 -0.00115912 7.48186e-19)
(0.454325 -0.00164005 1.35398e-18)
(0.453496 -0.00214018 -6.7199e-19)
(0.451984 -0.00263719 -1.29962e-18)
(0.449567 -0.0030991 6.14719e-19)
(0.445992 -0.00359293 2.48373e-20)
(0.441737 -0.00439222 -4.96532e-20)
(0.44035 -0.00504562 1.1057e-19)
(1.65355 0.997259 -2.85784e-19)
(1.51227 0.941847 1.7997e-20)
(1.35879 0.880737 -2.28613e-19)
(1.19767 0.808431 1.76341e-19)
(1.02957 0.723974 -1.91968e-19)
(0.854823 0.627074 -1.01103e-19)
(0.673759 0.51694 2.31984e-19)
(0.487035 0.392146 -3.04917e-19)
(0.295891 0.250643 3.09877e-19)
(0.10143 0.0916438 2.38718e-19)
(1.88638 0.99218 0)
(1.72967 0.934731 6.39272e-19)
(1.56083 0.872762 3.32444e-19)
(1.38228 0.801848 1.62759e-19)
(1.19453 0.719875 4.3127e-19)
(0.997533 0.625897 -8.68519e-20)
(0.79136 0.518601 -7.85405e-20)
(0.576346 0.39599 8.87716e-20)
(0.353318 0.255175 -1.04517e-18)
(0.122698 0.0943552 -1.66433e-20)
(2.09103 0.95903 1.56804e-19)
(1.92523 0.905062 0)
(1.74614 0.846458 -1.00738e-19)
(1.55493 0.779547 -3.83402e-19)
(1.3517 0.702081 5.37071e-20)
(1.13609 0.612789 3.97121e-19)
(0.907783 0.510088 -6.06881e-19)
(0.666589 0.391638 -2.00881e-19)
(0.412595 0.254044 7.83587e-19)
(0.145251 0.094735 -1.75939e-19)
(2.28484 0.898349 1.87993e-19)
(2.11044 0.850556 1.19932e-20)
(1.9213 0.797858 2.45119e-20)
(1.71811 0.736999 3.60933e-20)
(1.50058 0.665855 -2.92727e-20)
(1.26792 0.583131 2.73258e-19)
(1.01926 0.487168 -2.06876e-19)
(0.753674 0.375531 -8.55569e-19)
(0.470271 0.244678 0)
(0.167388 0.0916964 0)
(2.46796 0.811815 -1.07079e-18)
(2.28435 0.770833 -6.09143e-19)
(2.08493 0.725059 -1.20669e-19)
(1.87003 0.671521 -6.65718e-20)
(1.6389 0.608294 0)
(1.39031 0.534136 2.4075e-19)
(1.12275 0.447434 2.67777e-19)
(0.834555 0.345835 2.8624e-19)
(0.52384 0.225953 -4.23744e-19)
(0.187908 0.084898 -8.12344e-20)
(2.634 0.702091 7.66383e-19)
(2.44156 0.668062 -1.39172e-19)
(2.23244 0.629678 -2.2157e-19)
(2.00664 0.584305 0)
(1.76301 0.530279 0)
(1.49988 0.466488 0)
(1.21522 0.391463 -3.89803e-20)
(0.906685 0.30309 3.70275e-19)
(0.571498 0.198348 3.79144e-19)
(0.206083 0.0746242 -3.08566e-19)
(2.7758 0.572354 -1.19354e-18)
(2.5755 0.545259 -1.48135e-18)
(2.35786 0.514529 -3.03286e-22)
(2.1226 0.477946 -1.8766e-19)
(1.86818 0.434181 -9.28797e-20)
(1.59258 0.382318 -1.78839e-19)
(1.29333 0.321125 4.59091e-19)
(0.967489 0.248837 2.14862e-19)
(0.611583 0.162967 5.40025e-19)
(0.221314 0.0613402 2.02853e-19)
(2.88707 0.425748 -1.15707e-18)
(2.68027 0.405633 8.47053e-20)
(2.45576 0.38282 1.64525e-19)
(2.21297 0.355611 1.68173e-20)
(1.95004 0.323051 -3.14403e-19)
(1.66465 0.284468 -1.7421e-19)
(1.35398 0.238937 -6.21209e-19)
(1.01464 0.18514 1.1853e-19)
(0.642605 0.121237 5.14754e-20)
(0.233066 0.0456127 -6.26902e-21)
(2.9628 0.265187 1.01362e-19)
(2.75121 0.252354 3.97005e-19)
(2.52189 0.237904 -3.30292e-19)
(2.27394 0.22074 3.63016e-19)
(2.00524 0.200297 3.72548e-19)
(1.71322 0.176176 4.91896e-19)
(1.39481 0.147809 -6.35739e-19)
(1.04633 0.11439 -3.24415e-19)
(0.663412 0.0748097 -4.58506e-20)
(0.240916 0.0280951 -3.26994e-19)
(3.00052 0.0935773 5.81812e-19)
(2.78612 0.0887858 -1.86158e-19)
(2.55425 0.0834442 4.79563e-19)
(2.30367 0.0771503 -3.10668e-19)
(2.03208 0.069728 2.66478e-19)
(1.73679 0.061062 6.0541e-19)
(1.41457 0.0509785 3.78885e-19)
(1.06162 0.0392347 3.09342e-19)
(0.673396 0.0255066 2.65861e-19)
(0.244654 0.00950723 5.43614e-19)
(0.23957 0.452081 -4.6917e-19)
(0.20397 0.418361 -1.87543e-19)
(0.168407 0.381281 1.39153e-19)
(0.134882 0.343621 -4.19308e-19)
(0.105152 0.307498 -1.19455e-19)
(0.0782547 0.270247 6.92747e-19)
(0.0518786 0.223841 3.35833e-19)
(0.0259623 0.158992 -1.55644e-19)
(0.00705908 0.0797042 1.14599e-19)
(-0.0011248 0.0224493 -6.07307e-20)
(0.288637 0.544357 4.11339e-19)
(0.248734 0.507563 4.58257e-19)
(0.208186 0.465515 -1.17068e-20)
(0.16786 0.418491 -1.32674e-19)
(0.13114 0.370371 -3.13122e-19)
(0.10061 0.322777 8.28217e-20)
(0.0734795 0.269453 2.25041e-19)
(0.0458957 0.196995 1.65387e-19)
(0.0183422 0.101911 -5.90917e-19)
(0.00278984 0.028879 -1.23607e-19)
(0.359661 0.633169 -6.00794e-19)
(0.313796 0.593022 -4.81382e-19)
(0.267998 0.547184 2.57559e-19)
(0.221355 0.493876 1.3817e-19)
(0.17581 0.434116 -6.05136e-21)
(0.136272 0.371908 -1.40021e-19)
(0.10212 0.305642 -2.94334e-20)
(0.068438 0.22492 -5.55189e-19)
(0.0336714 0.126036 -2.69406e-19)
(0.00763862 0.0378003 -3.90659e-20)
(0.454223 0.717908 5.03237e-19)
(0.400065 0.673715 1.64744e-19)
(0.34637 0.622704 -1.49362e-19)
(0.292232 0.56366 6.32702e-20)
(0.237749 0.495564 -5.6134e-22)
(0.186586 0.420887 1.32496e-21)
(0.140104 0.340669 -1.32259e-19)
(0.0954603 0.25026 3.78513e-19)
(0.0514354 0.14774 -4.19302e-19)
(0.0135809 0.0477105 -6.51164e-20)
(0.572009 0.797877 -2.8217e-19)
(0.507862 0.749784 -8.88988e-20)
(0.443581 0.692939 -1.43449e-20)
(0.37897 0.62722 -7.0227e-20)
(0.31372 0.551963 5.85236e-20)
(0.249662 0.468065 5.26997e-20)
(0.188379 0.376714 -2.79214e-20)
(0.129324 0.276651 -2.8218e-19)
(0.0725266 0.167639 2.18366e-19)
(0.0209182 0.0568389 8.72769e-20)
(0.709415 0.87096 6.43377e-19)
(0.634366 0.819578 3.20858e-19)
(0.55813 0.757413 2.03173e-19)
(0.480855 0.685351 4.82133e-20)
(0.402412 0.603517 1.54981e-19)
(0.32387 0.512353 7.84206e-20)
(0.246466 0.41251 1.43316e-19)
(0.170865 0.303905 5.79348e-20)
(0.0980528 0.186796 -1.59578e-20)
(0.0299968 0.0650294 -1.33406e-20)
(0.862016 0.934877 -1.19767e-19)
(0.775538 0.880679 -8.25029e-19)
(0.686701 0.814055 -7.62507e-20)
(0.595723 0.736813 -5.20446e-20)
(0.50256 0.649613 -1.9625e-20)
(0.408124 0.5527 1.51475e-19)
(0.313477 0.446302 -4.38199e-20)
(0.219709 0.330406 6.49931e-20)
(0.128293 0.205076 -1.44615e-19)
(0.0409038 0.0724931 -1.25466e-21)
(1.02672 0.986038 -8.84799e-19)
(0.928464 0.92964 5.94293e-20)
(0.826653 0.859705 -2.33818e-19)
(0.72146 0.778882 -7.25075e-20)
(0.612766 0.688001 -2.40685e-20)
(0.501456 0.587061 -7.51791e-20)
(0.388525 0.475887 5.62819e-20)
(0.275162 0.354191 6.03073e-20)
(0.162982 0.221556 -9.82138e-21)
(0.0535439 0.0791203 -1.03793e-19)
(1.20389 1.01794 1.23825e-19)
(1.0935 0.960944 5.23161e-19)
(0.97825 0.88972 1.55302e-21)
(0.85822 0.807552 -2.96261e-20)
(0.733143 0.715297 1.50897e-19)
(0.60389 0.612546 -3.47324e-19)
(0.471402 0.498748 -2.44391e-19)
(0.33683 0.373207 3.56118e-19)
(0.201771 0.235006 1.44186e-19)
(0.0677021 0.0845325 -3.62264e-20)
(1.40058 1.01547 7.39782e-19)
(1.27805 0.962347 3.23732e-19)
(1.14783 0.895366 5.59218e-20)
(1.01087 0.816403 -1.94978e-19)
(0.86727 0.726522 -1.64391e-20)
(0.7179 0.625337 4.65604e-19)
(0.563583 0.512003 -2.68229e-19)
(0.405341 0.385475 -1.84484e-19)
(0.244705 0.244319 3.35798e-19)
(0.083114 0.0884409 -6.04789e-21)
(0.976745 0.0984817 8.6662e-21)
(1.14294 0.142068 -1.10571e-21)
(1.21366 0.19032 -2.3403e-20)
(1.32615 0.170884 0)
(1.37747 0.155674 6.37244e-22)
(1.27884 0.234407 -5.33472e-20)
(1.12933 0.385656 -5.42512e-20)
(0.949337 0.543528 -1.24861e-20)
(0.711656 0.648396 -3.04418e-19)
(0.416552 0.595588 4.26676e-19)
(0.981944 0.0795517 1.95997e-19)
(1.13494 0.114422 -3.06503e-20)
(1.20997 0.159946 1.89899e-21)
(1.31704 0.15211 1.17108e-20)
(1.38034 0.157831 3.51729e-21)
(1.29857 0.268994 -2.82147e-21)
(1.15927 0.435824 1.46309e-20)
(0.993949 0.606598 0)
(0.761549 0.72745 7.9701e-19)
(0.479414 0.686788 -5.66688e-19)
(0.986702 0.0608993 -1.13328e-19)
(1.13149 0.0878141 6.73941e-21)
(1.20935 0.130439 7.77299e-20)
(1.31398 0.132045 1.91608e-20)
(1.38337 0.159135 -2.31317e-20)
(1.31847 0.301469 -3.49529e-20)
(1.19236 0.484478 -8.95465e-21)
(1.04407 0.668087 4.45725e-20)
(0.823142 0.803926 -1.25024e-21)
(0.564492 0.774571 -3.71529e-19)
(0.990809 0.0419862 -8.09044e-20)
(1.13217 0.0617993 1.54394e-20)
(1.2123 0.101609 7.54988e-20)
(1.31719 0.11181 3.07488e-20)
(1.38913 0.159965 -2.37359e-20)
(1.33864 0.331806 -2.68539e-20)
(1.22896 0.530914 7.24357e-20)
(1.10021 0.726865 2.68789e-20)
(0.899932 0.875566 -5.4602e-19)
(0.673716 0.856976 -1.77891e-19)
(0.994148 0.0224713 3.68055e-20)
(1.13622 0.0358993 -4.67089e-20)
(1.21842 0.0733466 -6.77469e-20)
(1.32529 0.092042 2.23848e-20)
(1.39654 0.161326 0)
(1.35879 0.360446 0)
(1.26912 0.574487 7.59246e-20)
(1.16352 0.781548 -2.82518e-20)
(0.994692 0.939883 -1.18083e-19)
(0.805122 0.93236 -5.73777e-20)
(0.996625 0.00219924 3.43447e-21)
(1.14276 0.0097015 5.79227e-20)
(1.22682 0.0455584 -2.0772e-19)
(1.33646 0.0732975 -7.6609e-20)
(1.40436 0.164033 -4.85496e-21)
(1.3788 0.387555 1.24135e-19)
(1.31305 0.614342 1.52299e-19)
(1.23554 0.830418 -1.80483e-20)
(1.10783 0.995079 -4.3542e-20)
(0.953769 1.00008 2.75148e-21)
(0.997528 -0.019074 1.5802e-21)
(1.15096 -0.0171442 2.95986e-20)
(1.23651 0.018262 -6.55238e-20)
(1.34924 0.0561039 -1.54289e-19)
(1.41166 0.168325 1.18183e-20)
(1.39893 0.41281 7.39806e-21)
(1.36134 0.649366 -5.95824e-20)
(1.31738 0.871819 -1.08977e-19)
(1.23731 1.04087 -3.0234e-20)
(1.11388 1.06027 -9.8005e-19)
(0.995707 -0.0411728 1.48725e-20)
(1.16022 -0.0449204 -1.43251e-19)
(1.24676 -0.008374 1.32413e-19)
(1.36242 0.0412155 1.01898e-19)
(1.4173 0.174668 5.02672e-21)
(1.41915 0.43576 -1.32189e-19)
(1.41386 0.678528 -1.82391e-23)
(1.40837 0.904816 -1.30164e-19)
(1.37934 1.07812 1.11042e-20)
(1.27986 1.11237 2.88346e-18)
(0.990855 -0.0634216 -8.74968e-20)
(1.17044 -0.0737424 8.01647e-20)
(1.25712 -0.0341833 1.90326e-19)
(1.37533 0.0287508 -1.14303e-19)
(1.42181 0.182822 -2.24873e-19)
(1.44103 0.456114 9.25917e-21)
(1.47191 0.701695 1.6866e-19)
(1.50851 0.930109 -5.7231e-19)
(1.53086 1.10811 -2.68437e-20)
(1.44835 1.15336 -6.47471e-18)
(0.983878 -0.0862832 4.11017e-21)
(1.1819 -0.103586 1.41022e-19)
(1.26743 -0.0589718 6.12024e-20)
(1.38675 0.0210337 -2.75559e-19)
(1.42298 0.196824 -2.4346e-19)
(1.46212 0.47746 -7.18587e-20)
(1.53114 0.722646 7.95807e-20)
(1.61161 0.951042 -2.08271e-19)
(1.68374 1.13048 -1.08665e-18)
(1.61562 1.17233 -7.9516e-18)
(0.974114 -0.117354 -1.44973e-20)
(1.19591 -0.1432 -3.25389e-20)
(1.27685 -0.0925149 -7.64665e-20)
(1.39744 0.00653016 1.40419e-19)
(1.42508 0.195831 2.01293e-19)
(1.49191 0.473021 -6.02204e-20)
(1.61191 0.712068 -1.4154e-19)
(1.75379 0.940186 -1.20213e-18)
(1.90279 1.13247 -1.59936e-18)
(1.89934 1.20867 3.28631e-18)
(0.961928 -0.155969 -4.05516e-19)
(1.21413 -0.192632 1.7105e-20)
(1.28069 -0.138597 -5.7787e-20)
(1.39782 -0.0150866 3.33096e-19)
(1.40386 0.17387 3.44215e-19)
(1.49358 0.428305 -1.14834e-21)
(1.66814 0.647762 -6.6673e-20)
(1.88069 0.865772 -2.88927e-19)
(2.13955 1.07131 2.77273e-19)
(2.28452 1.1608 -3.23424e-19)
(0.949357 -0.19638 -2.78877e-20)
(1.23921 -0.242469 -5.48794e-20)
(1.27955 -0.183009 3.06785e-20)
(1.39293 -0.0336708 2.70143e-20)
(1.37765 0.162683 1.72439e-33)
(1.47021 0.371172 2.54919e-21)
(1.68055 0.561265 -2.04132e-33)
(1.94906 0.759509 1.853e-19)
(2.30193 0.956358 -9.31051e-19)
(2.58733 1.05843 -6.29297e-19)
(0.937006 -0.24303 1.41142e-18)
(1.2706 -0.282416 -7.74985e-34)
(1.2494 -0.228578 -4.02834e-20)
(1.27087 -0.0363882 -2.28241e-19)
(1.26289 0.144521 -4.46871e-19)
(1.38948 0.302363 -8.85675e-19)
(1.6192 0.459968 -5.06775e-33)
(1.92926 0.631026 -1.73806e-18)
(2.32581 0.802062 -3.17738e-18)
(2.75374 0.902572 1.67525e-18)
(0.927283 -0.30054 0)
(1.31624 -0.327205 -1.61861e-33)
(1.11265 -0.206949 0)
(1.10744 -0.029461 0)
(1.11953 0.115036 0)
(1.25867 0.232802 0)
(1.48968 0.355366 -8.07223e-33)
(1.81504 0.491512 0)
(2.21348 0.634255 -3.39747e-19)
(2.735 0.712002 1.25755e-18)
(0.916477 -0.360808 1.16125e-19)
(1.25168 -0.326219 -4.68876e-19)
(0.960008 -0.174039 -5.49701e-20)
(0.934112 -0.0257522 0)
(0.9565 0.0826964 0)
(1.09018 0.165441 6.04814e-20)
(1.30639 0.253858 1.17765e-18)
(1.61599 0.354652 -1.9506e-19)
(1.99673 0.466185 -4.95304e-19)
(2.53246 0.520471 4.67301e-18)
(0.883462 -0.405317 -1.52016e-17)
(1.0921 -0.279944 1.08748e-18)
(0.792662 -0.130468 -7.27202e-20)
(0.747109 -0.0210149 -7.53312e-20)
(0.773092 0.0525593 -5.1214e-19)
(0.889623 0.104506 -7.72629e-19)
(1.07636 0.161242 -1.04845e-18)
(1.34606 0.228996 -1.38279e-18)
(1.68763 0.306108 -1.60568e-18)
(2.17994 0.344442 3.61287e-18)
(0.808999 -0.394519 -4.13656e-19)
(0.886478 -0.207589 -1.21643e-18)
(0.605553 -0.0828381 -1.25676e-19)
(0.549734 -0.0152703 -8.4179e-20)
(0.571989 0.0276317 -9.87068e-34)
(0.661654 0.054533 9.38076e-20)
(0.805485 0.084563 -1.48575e-32)
(1.01622 0.122927 -1.93435e-19)
(1.29248 0.167304 2.98938e-19)
(1.69929 0.19207 7.05762e-19)
(0.664251 -0.288845 3.42549e-17)
(0.618259 -0.108098 -3.14021e-18)
(0.393378 -0.0351084 -2.40758e-19)
(0.339404 -0.00735808 -1.57495e-19)
(0.353818 0.00926377 3.93803e-19)
(0.410501 0.018354 7.84033e-19)
(0.501217 0.0291807 7.95164e-19)
(0.636736 0.0448798 4.59843e-19)
(0.820756 0.0634546 -1.90397e-19)
(1.10156 0.0762251 3.56935e-18)
(0.336836 -0.0768242 5.58814e-19)
(0.261851 -0.00230489 -6.76604e-33)
(0.144383 0.0190772 -3.04973e-19)
(0.120409 0.00336007 0)
(0.123635 -0.00234682 0)
(0.141865 -0.00541266 9.64465e-20)
(0.172381 -0.00624528 9.34445e-35)
(0.220297 -0.00417546 -1.23574e-19)
(0.28813 -0.00161893 -2.82602e-19)
(0.399009 0.00331836 1.00157e-18)
(2.00205 1.0964 -1.78979e-18)
(2.23906 1.07845 -2.30495e-18)
(2.44207 1.0291 0)
(2.63707 0.9525 -7.58073e-19)
(2.82358 0.852507 -1.78278e-18)
(2.99276 0.73239 -2.2495e-18)
(3.13709 0.595042 -4.75925e-19)
(3.25054 0.442698 1.26928e-18)
(3.32824 0.276965 -3.54792e-18)
(3.36764 0.0986984 1.35669e-18)
(2.49866 1.14196 2.67722e-19)
(2.73055 1.08191 1.39732e-18)
(2.92386 1.00419 1.43903e-19)
(3.10673 0.909799 6.7577e-19)
(3.2806 0.800659 -1.104e-18)
(3.43997 0.678325 -5.00046e-18)
(3.58096 0.544013 2.46795e-18)
(3.70047 0.399321 1.27035e-17)
(3.79428 0.246325 1.04066e-19)