/*--------------------------------*- C++ -*----------------------------------*\
  =========                 |
  \\      /  F ield         | OpenFOAM: The Open Source CFD Toolbox
   \\    /   O peration     | Website:  https://openfoam.org
    \\  /    A nd           | Version:  13
     \\/     M anipulation  |
\*---------------------------------------------------------------------------*/
FoamFile
{
    format      ascii;
    class       volScalarField;
    location    "0.23";
    object      strainRateViscosityModel:nu;
}
// * * * * * * * * * * * * * * * * * * * * * * * * * * * * * * * * * * * * * //

dimensions      [0 2 -1 0 0 0 0];

internalField   nonuniform List<scalar> 
440
(
9.41957
8.96968
8.54435
8.04211
7.58547
9.68998
9.35819
8.98179
8.48007
7.87554
9.80076
9.53087
9.15882
8.58518
7.8484
9.84964
9.61821
9.25869
8.64768
7.86623
9.86919
9.65611
9.30599
8.68105
7.9089
1.28773
1.7726
2.02782
2.27642
2.34053
3.37181
3.29849
3.31288
3.4209
3.49187
5.88893
5.27372
4.93197
4.73226
4.76169
7.76969
6.99468
6.42242
5.90727
5.82945
8.82078
8.15144
7.55218
6.9184
6.87156
1.83153
0.804147
0.275751
0.0313656
0.0104774
2.61866
0.916626
0.245882
0.0291214
0.0103399
3.52131
1.19085
0.240576
0.0284079
0.0104435
4.09677
1.4972
0.267794
0.026175
0.0105042
4.60461
1.81842
0.359164
0.0291009
0.0101293
4.2446
1.80669
0.286281
0.0143404
0.0250415
3.70699
1.74447
0.426008
0.24263
0.378758
4.91383
3.17839
1.19184
0.715048
0.751946
7.01136
4.27962
1.88136
1.05166
0.964228
8.27261
5.07652
2.51792
1.51368
1.21713
2.84918
3.68379
4.62161
5.50825
6.15208
3.68405
3.69602
3.77034
3.84939
3.36429
8.22714
8.08722
7.79997
7.38563
6.34481
9.05307
8.99258
8.85936
8.622
8.16087
9.60671
9.56995
9.487
9.33797
9.11863
7.50468
8.01262
8.55901
9.01074
9.46446
7.79431
8.45133
8.98676
9.37777
9.70873
7.77896
8.55884
9.15926
9.54074
9.80947
7.81624
8.62753
9.25738
9.62277
9.85361
7.89138
8.67373
9.3054
9.65747
9.87036
2.46498
2.40624
2.20845
2.05815
1.97878
3.46248
3.41184
3.44519
3.65457
4.17721
4.6524
4.67098
5.05018
5.5878
6.42281
5.70179
5.83908
6.50231
7.18699
8.036
6.76159
6.84734
7.58211
8.24308
8.93555
0.119007
0.0404722
0.187666
0.737184
1.961
0.0887181
0.0563356
0.167974
0.811648
2.65098
0.0733517
0.078862
0.165768
1.07918
3.4702
0.0643667
0.105803
0.201449
1.42587
3.98021
0.0767921
0.13756
0.309635
1.77989
4.3968
0.151426
0.181013
0.298818
1.91022
4.13413
0.298271
0.187446
0.168792
1.68232
3.84479
0.5865
0.449775
0.810099
2.99236
4.89186
2.23115
0.996047
1.56209
4.15173
6.96149
5.04038
2.67121
2.49778
5.04915
8.27866
5.95898
5.27589
4.4088
3.51417
2.7816
3.51462
3.98336
3.96516
3.87306
3.76296
6.31746
7.35202
7.77984
8.06866
8.21924
8.12236
8.60075
8.84998
8.98893
9.05222
9.11666
9.33764
9.48733
9.57048
9.60695
9.31013
7.91554
1.3982
3.62843
7.73537
9.08087
7.43919
3.20501
1.63946
6.78729
8.39704
6.57554
4.20686
1.00344
4.14472
6.81316
5.09182
3.45252
1.70243
1.03663
4.50191
3.14149
2.03609
1.37915
0.462909
2.59865
1.61818
1.00566
0.805937
0.935073
1.45342
0.780889
0.59067
0.629046
0.701417
0.781132
0.407473
0.600049
0.768237
0.842021
0.288264
0.50106
0.870399
1.0364
1.09758
0.156853
0.913705
1.25256
1.48656
1.54082
0.196253
0.365848
0.694563
0.799059
0.825748
0.410167
0.491306
0.54192
0.616011
0.644172
0.620717
0.623468
0.398068
0.426111
0.467459
0.948919
0.749606
0.328825
0.196842
0.193798
1.29926
0.784028
0.302426
0.0621634
0.0247876
1.11268
0.885719
1.14215
1.19594
1.18904
0.276184
0.491298
0.86952
0.976739
0.993138
9.19032
8.83749
7.75692
5.72868
3.55952
8.58608
7.72124
5.84909
3.48794
0.860242
0.974487
0.871886
1.03545
1.62126
2.65793
0.8329
0.788345
0.721476
0.829088
1.51339
1.0632
1.01409
0.851691
0.556743
0.710543
1.34691
1.30838
1.11187
0.769826
0.208239
1.78121
1.73452
1.48832
1.18197
0.57963
7.7349
3.62532
1.39952
7.91377
9.31028
6.7834
1.63912
3.20181
7.43606
9.0815
4.13057
1.01101
4.19292
6.57083
8.3986
1.03356
1.70899
3.43123
5.08251
6.81965
0.479675
1.38035
2.01394
3.12388
4.52462
1.26847
0.644408
0.581255
0.456436
0.18274
0.617172
0.41181
0.470994
0.522025
0.504373
0.336988
0.208031
0.343995
0.608453
0.804795
0.242825
0.0266128
0.280602
0.715672
1.18179
0.174159
0.0306277
0.215189
0.740054
1.51011
5.46933
2.52562
1.10823
1.00031
1.15068
2.85867
1.17674
0.779217
0.575795
0.24488
3.5693
5.73468
7.75813
8.83802
9.19047
0.836275
3.46793
5.84235
7.71987
8.58592
)
;

boundaryField
{
    left
    {
        type            calculated;
        value           nonuniform List<scalar> 
17
(
0.381088
0.993417
2.11556
3.89896
6.57753
0.281478
0.205625
0.177417
0.171808
0.205779
2.94094
2.00473
1.23449
0.735635
0.445219
6.9754
4.57294
)
;
    }
    right
    {
        type            calculated;
        value           nonuniform List<scalar> 
17
(
1.18953
0.993229
0.824614
0.641652
0.46274
0.186952
0.0221648
0.0101969
0.0101029
0.0101142
0.0101158
0.0100034
0.0331842
0.421072
0.791236
0.982781
1.20974
)
;
    }
    down
    {
        type            calculated;
        value           nonuniform List<scalar> 
20
(
5.98424
3.05147
1.21558
1.08439
1.85552
4.26908
6.38193
8.12963
9.01475
9.30851
9.30834
9.01411
8.12815
6.37763
4.26187
1.83258
0.959708
1.21063
1.25741
1.24321
)
;
    }
    up
    {
        type            calculated;
        value           nonuniform List<scalar> 
20
(
8.54798
5.40252
2.74032
1.64506
1.28175
9.69562
9.66614
9.59854
9.4741
9.29316
9.29599
9.47624
9.60008
9.66722
9.69602
5.69019
3.25425
2.73716
5.4039
8.56444
)
;
    }
    cylinder
    {
        type            calculated;
        value           nonuniform List<scalar> 
40
(
1.3504
3.57328
6.11433
7.96042
8.9572
9.50515
9.74579
9.8408
9.88146
9.89747
9.54779
9.76293
9.84858
9.88497
9.8985
2.20805
4.44833
6.66817
8.22923
9.07025
3.04555
1.84006
1.05542
0.398878
0.59402
9.51849
9.33111
8.74089
7.26751
4.98482
9.51833
9.33037
8.73883
7.25919
4.95602
2.96847
1.73293
1.05494
0.641994
0.0956106
)
;
    }
    defaultFaces
    {
        type            empty;
    }
}


// ************************************************************************* //
