/*--------------------------------*- C++ -*----------------------------------*\
  =========                 |
  \\      /  F ield         | OpenFOAM: The Open Source CFD Toolbox
   \\    /   O peration     | Website:  https://openfoam.org
    \\  /    A nd           | Version:  13
     \\/     M anipulation  |
\*---------------------------------------------------------------------------*/
FoamFile
{
    format      ascii;
    class       volVectorField;
    location    "78.1";
    object      U;
}
// * * * * * * * * * * * * * * * * * * * * * * * * * * * * * * * * * * * * * //

dimensions      [0 1 -1 0 0 0 0];

internalField   nonuniform List<vector> 
440
(
(-0.150776 0.158388 4.45438e-20)
(-0.161696 0.247415 -1.45588e-19)
(0.018076 0.177466 -1.38373e-19)
(0.433351 0.131715 2.55618e-19)
(0.568016 0.11108 -4.05255e-20)
(-0.0338317 0.0270341 -1.73201e-20)
(0.121386 0.0334817 -6.88149e-20)
(0.57478 -0.00492686 2.53998e-20)
(1.11529 -0.0376876 -1.02349e-19)
(1.60854 -0.0676095 -8.46572e-20)
(0.0107983 -0.00726809 2.43792e-20)
(0.507711 -0.0598496 7.68635e-19)
(1.25355 -0.0506229 -4.75235e-19)
(1.83375 -0.0281589 -1.38119e-18)
(2.3625 -0.0103879 7.12912e-19)
(0.213706 -0.0500699 -1.61879e-19)
(1.17565 -0.00738576 -5.87622e-19)
(1.94381 0.0639005 1.79172e-18)
(2.38248 0.110355 2.09137e-18)
(2.46032 0.128985 -5.48844e-19)
(0.557773 -0.00898877 -2.95598e-19)
(1.72557 0.176823 -6.4915e-19)
(2.27773 0.258489 2.01704e-18)
(2.40758 0.272737 2.1205e-18)
(2.47292 0.247099 7.1777e-19)
(0.0348282 -0.242127 -9.13806e-21)
(0.145746 -0.599157 -2.24101e-19)
(0.181982 -0.704689 3.75975e-19)
(0.161685 -0.644341 -7.84534e-20)
(0.124949 -0.534498 -7.13967e-19)
(0.107881 -0.348749 4.98154e-20)
(0.215365 -0.66793 1.6073e-19)
(0.165851 -0.6545 3.39473e-20)
(0.0721589 -0.509268 3.18217e-20)
(0.00340356 -0.392295 -5.75584e-20)
(0.16884 -0.37096 9.80854e-20)
(0.179129 -0.588946 2.81938e-19)
(0.0479952 -0.542146 -4.96097e-20)
(-0.0624096 -0.465712 -2.12312e-19)
(-0.103783 -0.44002 -1.31269e-21)
(0.0552018 -0.194092 1.25334e-19)
(-0.125226 -0.325063 -3.11907e-19)
(-0.305718 -0.323941 1.20488e-19)
(-0.380737 -0.348033 1.01316e-18)
(-0.37624 -0.375222 -1.90031e-19)
(-0.149716 0.114458 2.44811e-19)
(-0.260594 0.015221 2.95703e-19)
(-0.251325 -0.110604 4.73438e-19)
(-0.155685 -0.18292 -3.21622e-19)
(-0.0262291 -0.231977 -3.4611e-19)
(-0.262982 -0.278562 -1.23469e-18)
(1.57867 1.02435 -8.50356e-19)
(0.493102 0.787923 -3.10059e-19)
(1.28255 -0.87309 3.86643e-19)
(1.19927 -0.717528 -4.61937e-20)
(-0.230257 -0.45775 1.13137e-18)
(1.69703 0.923392 2.6915e-19)
(0.524795 0.85581 -1.17347e-19)
(1.55417 -0.9335 -5.23854e-19)
(1.33986 -0.724193 9.11075e-20)
(-0.0608806 -0.701031 1.13308e-20)
(0.684047 0.750953 -2.95661e-18)
(0.523057 0.810632 9.82571e-20)
(1.85312 -0.982573 -1.03817e-18)
(1.50353 -0.713247 4.97178e-20)
(-0.0552585 -0.710306 1.7713e-19)
(-0.48056 0.595924 1.21611e-19)
(0.918054 0.605801 3.46148e-19)
(2.06205 -1.00627 1.07473e-18)
(1.61587 -0.687619 1.85765e-19)
(1.00112 -0.865589 -4.79773e-19)
(-1.24845 0.385772 1.4769e-18)
(1.54695 0.232601 0)
(2.21183 -1.01063 -9.75689e-19)
(1.64362 -0.649227 2.81661e-20)
(2.33728 -0.446706 -6.25174e-19)
(0.193886 0.172027 -5.87508e-20)
(2.0001 -0.220371 2.39838e-20)
(2.31618 -0.964621 -4.44451e-19)
(1.62731 -0.594158 -3.87425e-20)
(2.15137 -0.458931 6.59809e-20)
(1.34619 0.399167 -8.62018e-20)
(2.49815 -0.349767 1.20115e-20)
(2.38082 -0.789318 8.2365e-19)
(1.46993 -0.428203 0)
(1.93788 -0.15587 -3.89292e-20)
(1.90488 0.0972591 3.71477e-21)
(2.54427 -0.523748 4.91565e-19)
(2.00202 -0.608853 -2.33673e-19)
(1.19627 -0.279534 -1.35046e-20)
(1.85272 -0.135752 -6.0098e-20)
(2.11039 0.015313 1.53198e-19)
(2.15245 -0.362889 3.84477e-20)
(1.36135 -0.355163 3.03308e-34)
(0.625488 -0.116546 4.66221e-20)
(1.24162 -0.00723486 4.83337e-20)
(1.38419 -0.117826 1.33548e-20)
(0.796051 -0.117794 -1.16201e-19)
(0.0956166 -0.00432817 5.61867e-20)
(-0.210877 -0.0032345 5.51119e-22)
(2.35162 0.243439 -8.90754e-19)
(2.5622 0.0704199 -1.21286e-18)
(2.37654 0.0499064 9.91127e-19)
(2.68362 -0.0993078 1.33382e-20)
(1.9292 -0.0424987 -1.13847e-19)
(2.10888 0.127322 5.81239e-20)
(2.40253 0.0829555 -4.20146e-20)
(2.19787 -0.028629 -1.36287e-19)
(2.44727 -0.104671 -2.68958e-19)
(2.24436 -0.227885 -2.1099e-21)
(2.09456 0.0515558 7.30744e-20)
(2.13808 0.0752152 1.02854e-19)
(2.20158 -0.0508517 -1.35773e-19)
(2.16699 -0.0433624 4.18112e-20)
(2.27571 -0.151204 4.21556e-20)
(2.02107 0.011042 1.16437e-19)
(1.96306 0.0316224 1.37511e-19)
(2.13435 -0.0383474 -1.75993e-20)
(2.02484 -0.0354925 -2.31427e-20)
(2.20329 -0.0839322 1.64433e-20)
(1.44309 -0.0147576 1.75463e-19)
(1.42887 -0.00501983 -1.17954e-20)
(1.48621 -0.0247858 2.11109e-20)
(1.42193 -0.0128192 -2.14354e-20)
(1.51269 -0.0383531 1.46253e-20)
(1.56827 0.851975 1.05846e-18)
(1.52536 0.947846 -3.09016e-19)
(1.52031 1.07294 -1.27215e-18)
(1.45337 1.1178 7.14384e-19)
(0.899763 0.810544 -1.8098e-19)
(1.84186 0.792274 -5.56333e-19)
(1.81882 0.876748 -2.89582e-18)
(1.82668 0.987156 -1.12691e-18)
(1.74074 1.00068 -4.13592e-19)
(1.06678 0.702435 -6.58745e-19)
(2.12656 0.696063 7.43497e-19)
(2.11222 0.761976 1.96798e-19)
(2.09466 0.844994 -2.24347e-18)
(1.96362 0.830326 -6.22306e-19)
(1.15718 0.545552 4.69214e-19)
(2.28659 0.564758 2.29648e-18)
(2.2894 0.617548 1.68555e-18)
(2.28775 0.668244 -1.94302e-18)
(2.06673 0.624227 -1.4508e-18)
(1.12159 0.354208 -2.68935e-19)
(2.43485 0.419353 1.11432e-18)
(2.4424 0.44061 -8.16662e-19)
(2.34675 0.45911 5.69789e-19)
(2.00497 0.398733 4.63791e-19)
(0.922009 0.149664 -3.90061e-19)
(0.574603 0.409105 -6.95467e-19)
(0.486593 0.441342 -5.62227e-19)
(0.368139 0.473455 7.33534e-20)
(0.228633 0.481236 -2.33716e-20)
(0.0563161 0.351112 7.56166e-20)
(0.671486 0.586336 9.13266e-20)
(0.607902 0.644972 -3.15911e-19)
(0.519992 0.713175 1.81326e-19)
(0.393197 0.767558 -8.34573e-20)
(0.168801 0.587271 1.18816e-19)
(0.778883 0.774555 2.07362e-19)
(0.705137 0.851901 4.29221e-19)
(0.645226 0.949621 5.69936e-20)
(0.55934 1.00464 -2.83517e-19)
(0.306275 0.754805 2.29871e-19)
(1.03694 0.87044 2.25082e-19)
(0.991465 0.958472 -6.37403e-19)
(0.94112 1.05848 -1.83315e-18)
(0.85771 1.12571 7.50102e-19)
(0.507626 0.844402 -1.83715e-19)
(1.15745 0.897542 -1.37474e-19)
(1.17024 1.0197 -2.14388e-19)
(1.18742 1.1416 -3.30631e-19)
(1.13411 1.184 -3.85983e-19)
(0.69981 0.864053 -6.38043e-21)
(1.01733 0.0541094 -9.57465e-20)
(0.980679 0.0240247 -3.69789e-20)
(1.04509 0.105226 -1.40289e-21)
(0.946511 0.133793 -3.11224e-19)
(0.882927 0.246304 3.14544e-19)
(1.0065 0.0528419 6.03465e-20)
(0.991221 0.0209504 1.30074e-19)
(1.0384 0.110375 1.18271e-19)
(0.975912 0.16726 3.81951e-20)
(0.922977 0.321415 7.65646e-21)
(1.01118 0.052376 8.2133e-20)
(0.975644 0.0143495 -5.03932e-21)
(1.08956 0.125442 -6.52815e-21)
(0.922813 0.173487 1.67685e-19)
(1.12012 0.456099 -4.53504e-19)
(1.00354 0.0530538 -4.65973e-22)
(0.995917 0.00300495 -1.82875e-19)
(1.09508 0.140975 -6.4885e-20)
(0.987855 0.191694 -4.072e-19)
(1.16003 0.495559 9.73487e-20)
(0.997858 0.046167 -1.47316e-20)
(1.00615 0.0025071 5.41527e-20)
(1.14155 0.149296 3.20822e-20)
(0.957399 0.214653 4.76467e-19)
(1.42012 0.619516 -4.37117e-19)
(0.955556 0.0480581 -9.11219e-21)
(1.08317 -0.02525 1.1519e-19)
(1.14159 0.177748 -9.00167e-20)
(1.15605 0.163397 8.35614e-19)
(1.32749 0.63412 -4.06661e-19)
(0.892219 0.0185922 -1.68377e-21)
(1.19141 -0.042489 -1.04509e-19)
(1.0859 0.12746 4.61433e-21)
(1.20585 0.170328 -2.63995e-19)
(1.39694 0.38559 2.7405e-20)
(0.959349 0.00699957 -6.34528e-21)
(1.16148 -0.0635656 1.35815e-35)
(1.05671 0.139857 -5.16384e-20)
(1.20726 0.0955325 8.1449e-20)
(1.49366 0.233222 1.59943e-19)
(1.10676 -0.048663 4.28242e-21)
(0.971315 -0.0559356 -2.56475e-20)
(1.08327 0.090158 1.71e-20)
(1.23803 0.0356827 3.49389e-20)
(1.44656 0.129662 -2.29044e-19)
(1.00892 -0.0257141 -4.29099e-20)
(0.726083 -0.0176998 -4.48186e-21)
(0.898766 0.0116417 2.04652e-20)
(0.915344 -0.0117986 -1.10302e-20)
(1.03129 0.0424954 -5.07337e-20)
(1.77276 0.663106 3.28773e-19)
(1.88219 0.641541 7.57807e-19)
(2.12144 0.547795 -1.06617e-18)
(2.1884 0.482591 1.56056e-20)
(2.38849 0.317095 4.71073e-19)
(1.74919 0.494131 5.10427e-20)
(1.79669 0.415304 9.99993e-19)
(2.00215 0.418324 9.75679e-20)
(1.98332 0.285743 -9.14114e-19)
(2.23413 0.254123 -2.97087e-19)
(1.68504 0.37802 -2.08995e-19)
(1.77795 0.269983 -1.45907e-19)
(1.86539 0.312264 2.54254e-19)
(1.95068 0.161187 -3.00606e-19)
(2.03226 0.197833 2.70521e-19)
(1.61179 0.222507 2.97108e-19)
(1.69138 0.14321 -1.39429e-21)
(1.74196 0.173351 2.22533e-19)
(1.86477 0.0724917 1.98034e-19)
(1.87089 0.104724 -1.90196e-19)
(1.23811 0.0512426 -3.39752e-20)
(1.2604 0.0290117 2.07412e-19)
(1.33486 0.028528 1.06319e-19)
(1.36985 0.00247032 -2.31662e-19)
(1.40762 0.00832911 2.48528e-22)
(1.30189 -0.0362622 5.71799e-20)
(2.39628 -0.0384311 -5.06878e-19)
(2.62526 -0.0284113 1.40037e-18)
(2.6218 0.0198115 6.4338e-19)
(2.41343 0.0405405 -4.23857e-19)
(0.816623 0.0941389 1.0423e-19)
(2.17318 0.09805 -5.23998e-19)
(2.63916 0.102897 -7.21389e-19)
(2.65327 0.1184 9.36158e-19)
(2.44675 0.111964 -6.35059e-19)
(0.22361 0.0805096 -4.18213e-20)
(1.51518 0.168097 5.62618e-19)
(2.32418 0.208868 9.49402e-20)
(2.7173 0.21132 7.86141e-19)
(2.77255 0.204863 4.54403e-19)
(-0.0723557 -0.0384382 2.40112e-19)
(0.573642 0.0959694 2.45664e-19)
(1.50142 0.195901 -6.00787e-19)
(2.06973 0.257969 4.54266e-20)
(2.7028 0.296391 2.93086e-19)
(-0.138638 -0.114577 1.85403e-19)
(-0.0067628 -0.0549635 -1.98204e-19)
(0.592402 0.0739515 -2.82074e-20)
(1.10754 0.136878 7.18132e-20)
(1.74864 0.280706 7.94439e-22)
(-0.106063 -0.114648 4.69978e-20)
(-0.170221 -0.142518 1.31618e-19)
(0.0203095 -0.131293 7.76228e-20)
(0.209447 -0.101127 -6.44144e-20)
(0.863084 0.0613898 1.66026e-20)
(-0.0619508 -0.0843009 -1.77894e-20)
(-0.154399 -0.180933 -9.54437e-20)
(-0.151239 -0.242684 -4.37418e-20)
(-0.100223 -0.252155 -3.20121e-20)
(0.149638 -0.0958093 -9.15668e-22)
(-0.0299984 -0.0604486 3.52431e-21)
(-0.0870653 -0.200603 2.70434e-19)
(-0.102743 -0.31681 -2.41507e-19)
(-0.0786625 -0.380363 -5.54643e-19)
(-0.032039 -0.342107 1.19159e-19)
(-0.0184162 -0.0832321 -2.23558e-20)
(-0.0294369 -0.303621 -1.37784e-19)
(-0.00607304 -0.481961 3.54329e-19)
(0.0354693 -0.570681 2.11607e-19)
(0.0501171 -0.596892 -3.81651e-20)
(-0.00693941 -0.143791 1.72383e-20)
(0.0347949 -0.449993 -5.62712e-20)
(0.0783711 -0.624574 1.92644e-20)
(0.0934521 -0.653621 9.83092e-23)
(0.0837995 -0.60086 -2.06541e-19)
(1.4584 0.727908 -3.13279e-20)
(1.745 0.399588 3.69848e-19)
(0.2176 0.352932 1.47181e-19)
(-0.283475 -0.228378 2.73243e-19)
(0.73019 -0.388271 -2.10582e-20)
(1.26325 0.576389 2.61179e-20)
(1.62356 0.520805 2.86289e-19)
(-0.167993 0.54761 1.03949e-18)
(0.0715388 -0.36193 1.37775e-20)
(0.738713 -0.513837 9.90933e-20)
(1.23425 0.374244 3.22661e-19)
(1.36329 0.769645 1.55409e-18)
(-0.435288 0.672361 -4.56405e-20)
(0.347215 -0.522263 -1.96184e-18)
(0.794938 -0.592479 -3.21556e-20)
(0.877758 0.0157476 -3.85639e-20)
(1.18741 0.909627 -2.75857e-18)
(-0.258365 0.755413 -4.41656e-19)
(0.631776 -0.702091 1.23471e-20)
(0.881692 -0.665834 -8.50437e-20)
(0.123772 -0.0289166 2.3564e-20)
(1.06725 1.1501 -2.9075e-19)
(0.129339 0.784908 9.08659e-20)
(1.01482 -0.788108 -1.0818e-19)
(1.03609 -0.696695 -1.99199e-19)
(-0.108385 0.161679 -5.82612e-20)
(-0.35891 -0.189131 0)
(-0.574498 -0.101092 1.59212e-21)
(-0.370348 -0.101069 -1.0958e-20)
(0.430183 -0.0485683 6.62189e-21)
(1.81954 0.653475 0)
(1.32882 0.360961 0)
(0.207268 0.0798196 -1.48551e-19)
(-0.367675 -0.182523 -1.20854e-19)
(0.73436 -0.219042 6.37446e-20)
(0.774521 0.00451103 -1.26292e-19)
(0.810466 -0.00777314 1.29635e-19)
(1.08173 0.0285555 -4.51189e-20)
(0.929237 -0.00171479 3.88735e-19)
(1.47264 0.154937 2.63862e-19)
(1.74453 0.0357606 1.19107e-19)
(1.94289 0.0767428 2.67048e-19)
(2.0983 0.0948545 -5.75304e-19)
(2.60234 0.236024 1.08196e-19)
(2.49451 0.23735 2.95932e-19)
(0.951957 -0.515147 3.03523e-20)
(0.940731 -0.610836 -1.89228e-19)
(0.938558 -0.715049 -1.79567e-19)
(0.871725 -0.788154 1.06834e-19)
(0.531799 -0.619704 1.3286e-19)
(0.854637 -0.426838 1.1629e-19)
(0.799305 -0.495043 1.82162e-19)
(0.722919 -0.567845 -8.79649e-20)
(0.605191 -0.630477 1.33915e-19)
(0.331614 -0.499519 3.33367e-20)
(0.668311 -0.291113 -1.41834e-19)
(0.575288 -0.333556 -5.0914e-20)
(0.474235 -0.388166 3.47436e-20)
(0.360414 -0.436332 -4.07838e-20)
(0.166635 -0.343695 -1.20516e-19)
(0.565029 -0.0577864 -4.47055e-19)
(0.481576 -0.0772481 -3.65158e-19)
(0.374382 -0.10857 2.92904e-19)
(0.247326 -0.147406 1.70269e-19)
(0.0752077 -0.132503 1.40544e-20)
(0.532091 0.145183 -1.64118e-19)
(0.446918 0.1461 -1.72519e-19)
(0.330879 0.144904 -6.03522e-20)
(0.193982 0.147065 3.99973e-20)
(0.0325881 0.111176 1.42025e-20)
(2.18466 -0.0341426 8.96804e-19)
(2.42076 -0.106956 3.33884e-19)
(2.51436 -0.199419 -8.47344e-19)
(2.37963 -0.224709 -1.77685e-18)
(1.45301 -0.213924 1.25137e-19)
(2.12809 -0.129364 1.507e-18)
(2.24003 -0.244242 1.95666e-18)
(2.25578 -0.371362 1.59646e-19)
(2.18308 -0.434819 2.72151e-19)
(1.41642 -0.399863 -1.80987e-19)
(1.84743 -0.300902 -3.889e-18)
(1.89362 -0.421711 4.67553e-19)
(1.93608 -0.552556 1.21592e-18)
(1.88591 -0.633864 -4.93771e-19)
(1.23623 -0.55264 7.72647e-19)
(1.59729 -0.427924 9.43469e-19)
(1.61529 -0.529947 -2.4532e-18)
(1.60691 -0.653405 -2.87282e-18)
(1.54316 -0.749383 9.03203e-19)
(1.0009 -0.629772 5.7413e-19)
(1.30138 -0.494723 2.14227e-19)
(1.24679 -0.591452 2.56033e-19)
(1.23175 -0.718248 -4.36185e-19)
(1.17645 -0.810756 -5.29075e-19)
(0.747304 -0.651462 -5.11338e-21)
(1.0643 0.0564218 7.50975e-21)
(0.922825 0.047854 -3.46203e-21)
(1.13622 0.0698591 -3.44247e-21)
(0.809569 -0.00459547 -2.13738e-19)
(1.17678 -0.239054 -1.13425e-20)
(1.07391 0.0603253 -2.52416e-21)
(0.91966 0.0437485 4.6612e-20)
(1.12931 0.0870783 -3.43273e-20)
(0.892537 0.0382268 1.2883e-19)
(1.03177 -0.123017 -1.65594e-20)
(1.07196 0.0582401 -6.14719e-20)
(0.923062 0.0375874 4.80793e-22)
(1.1145 0.087544 -1.47398e-20)
(0.885315 0.0595935 2.93375e-20)
(0.995638 -0.0641825 -2.05873e-19)
(1.0534 0.0573444 7.45668e-20)
(0.950493 0.032081 3.22951e-21)
(1.07364 0.092242 2.91423e-20)
(0.930149 0.0862427 2.51916e-20)
(0.876397 0.0496089 9.72953e-20)
(1.02979 0.0548401 1.86397e-20)
(0.976424 0.0295197 -2.98757e-20)
(1.04309 0.0958311 3.98759e-20)
(0.952436 0.115681 8.25498e-20)
(0.842958 0.140498 -7.42428e-20)
(0.888166 0.0336419 0)
(0.70914 0.0273325 9.32043e-21)
(0.626242 0.0219622 3.83968e-21)
(0.363599 -0.00899873 4.50144e-20)
(0.725314 -0.0612402 -1.35517e-19)
(1.03251 0.0751186 -6.43298e-20)
(0.933881 0.0662896 -1.2162e-20)
(1.04701 0.0722048 -4.12238e-20)
(0.823415 -0.00504743 -1.1725e-19)
(1.08677 -0.216703 -1.40259e-19)
(1.01969 -0.0660745 -3.17367e-20)
(1.1071 -0.0357489 5.23575e-19)
(1.21181 0.037793 3.27879e-19)
(1.07678 0.0614127 2.2659e-20)
(0.836245 0.033013 0)
(1.38722 -0.328835 3.20878e-19)
(1.50978 -0.289409 1.5591e-18)
(1.70196 -0.16753 -1.76883e-18)
(1.79834 -0.0212332 -5.62333e-19)
(1.72679 0.0341931 4.06102e-19)
)
;

boundaryField
{
    left
    {
        type            fixedValue;
        value           uniform (1 0 0);
    }
    right
    {
        type            zeroGradient;
    }
    down
    {
        type            noSlip;
    }
    up
    {
        type            noSlip;
    }
    cylinder
    {
        type            noSlip;
    }
    defaultFaces
    {
        type            empty;
    }
}


// ************************************************************************* //
