/*--------------------------------*- C++ -*----------------------------------*\
  =========                 |
  \\      /  F ield         | OpenFOAM: The Open Source CFD Toolbox
   \\    /   O peration     | Website:  https://openfoam.org
    \\  /    A nd           | Version:  13
     \\/     M anipulation  |
\*---------------------------------------------------------------------------*/
FoamFile
{
    format      ascii;
    class       surfaceScalarField;
    location    "0.27";
    object      phi;
}
// * * * * * * * * * * * * * * * * * * * * * * * * * * * * * * * * * * * * * //

dimensions      [0 3 -1 0 0 0 0];

internalField   nonuniform List<scalar> 
3485
(
0.00137155
-0.0112586
0.00988703
0.00505088
-0.0319079
0.0282285
0.0107639
-0.051384
0.045671
0.0183125
-0.0696775
0.0621289
0.027546
-0.0868347
0.0776012
0.0383502
-0.102899
0.092095
0.0506367
-0.117902
0.105616
0.0643626
-0.131864
0.118138
0.0796253
-0.144851
0.129588
-0.156881
0.139485
0.0970208
0.00150028
-0.0127589
0.00544571
-0.0358533
0.0114761
-0.0574144
0.0193238
-0.0775251
0.0287736
-0.0962845
0.0396485
-0.113774
0.0518043
-0.130058
0.0651332
-0.145193
0.079544
-0.159262
-0.172187
0.0948507
0.00147415
-0.014233
0.00532695
-0.0397061
0.0111745
-0.063262
0.0187212
-0.0850718
0.0277262
-0.10529
0.0379902
-0.124038
0.0493475
-0.141415
0.0616587
-0.157504
0.0747917
-0.172395
-0.186031
0.0886353
0.00133885
-0.0155719
0.00485906
-0.0432263
0.010211
-0.068614
0.0171176
-0.0919783
0.0253549
-0.113527
0.0347421
-0.133425
0.0451333
-0.151807
0.0564085
-0.168779
0.0684612
-0.184447
-0.198788
0.0812179
0.00116695
-0.0167388
0.0042561
-0.0463155
0.00897346
-0.0733314
0.0150824
-0.0980872
0.0223929
-0.120837
0.0307544
-0.141787
0.0400493
-0.161101
0.0501848
-0.178915
0.0610835
-0.195346
-0.210402
0.0726975
0.000980062
-0.0177189
0.00358813
-0.0489235
0.00758705
-0.0773303
0.0127848
-0.103285
0.0190275
-0.12708
0.0261947
-0.148954
0.0341946
-0.169101
0.0429577
-0.187678
0.0524293
-0.204818
-0.220551
0.0625781
0.000780782
-0.0184996
0.00286523
-0.051008
0.0060695
-0.0805345
0.0102438
-0.107459
0.015268
-0.132104
0.0210489
-0.154735
0.0275173
-0.17557
0.0346246
-0.194785
0.0423365
-0.21253
-0.228854
0.0506397
0.000569771
-0.0190694
0.00209372
-0.0525319
0.00443844
-0.0828793
0.00749365
-0.110514
0.0111702
-0.135781
0.0153989
-0.158964
0.0201304
-0.180301
0.0253332
-0.199988
0.0309911
-0.218188
-0.234971
0.0371089
0.000352581
-0.019422
0.00129603
-0.0534754
0.00274557
-0.0843288
0.00462925
-0.112398
0.00688783
-0.138039
0.00947493
-0.161551
0.0123577
-0.183184
0.0155172
-0.203148
0.0189484
-0.221619
-0.238689
0.0226659
0.000137871
-0.0195599
0.000502719
-0.0538402
0.00105747
-0.0848836
0.00177034
-0.113111
0.00261483
-0.138884
0.00356983
-0.162506
0.00461983
-0.184234
0.00575531
-0.204283
0.00697283
-0.222836
0.00827744
-0.239993
0.000499912
-0.00187428
0.00137437
0.00210965
-0.00623653
0.00462679
0.00544261
-0.0113424
0.00800945
0.010128
-0.0160972
0.0114118
0.0155583
-0.0200951
0.0146649
0.021459
-0.0234935
0.0175928
0.0279218
-0.0266686
0.0202058
0.0350982
-0.0298539
0.0226775
0.0429768
-0.0330059
0.0251273
-0.0359721
0.0514243
0.0275246
0.000422558
-0.00229684
0.00210912
-0.0079231
0.0054567
-0.01469
0.00986152
-0.020502
0.014954
-0.0251876
0.0208412
-0.0293808
0.0277015
-0.0335289
0.0354883
-0.0376407
0.043991
-0.0415086
-0.0450247
0.0530436
0.000680985
-0.00297782
0.00271956
-0.00996168
0.00580954
-0.01778
0.00981835
-0.0245108
0.0148924
-0.0302616
0.0212078
-0.0356962
0.0286989
-0.04102
0.0370864
-0.0460282
0.0461503
-0.0505725
-0.0546737
0.0557993
0.000869692
-0.00384752
0.00306873
-0.0121607
0.00610424
-0.0208155
0.0102456
-0.0286522
0.0157635
-0.0357796
0.0226421
-0.0425747
0.0306385
-0.0490165
0.039515
-0.0549046
0.049176
-0.0602336
-0.0650384
0.0595406
0.000924283
-0.0047718
0.00320621
-0.0144427
0.00653504
-0.0241443
0.011147
-0.0332641
0.0171809
-0.0418135
0.0245109
-0.0499047
0.0329442
-0.0574498
0.0423827
-0.0643431
0.0527635
-0.0706144
-0.0762294
0.0639545
0.000944374
-0.00571618
0.0033755
-0.0168738
0.00709973
-0.0278685
0.0121909
-0.0383553
0.0186592
-0.0482818
0.0263931
-0.0576386
0.0352951
-0.0663518
0.0453175
-0.0743655
0.0563813
-0.0816783
-0.0881768
0.0683287
0.000979985
-0.00669616
0.00358486
-0.0194787
0.00764443
-0.0319281
0.013114
-0.0438248
0.0199377
-0.0551056
0.0280296
-0.0657304
0.0373272
-0.0756494
0.0477843
-0.0848226
0.0593273
-0.0932213
-0.100661
0.0718111
0.00101779
-0.00771395
0.00376745
-0.0222283
0.0080713
-0.036232
0.0138213
-0.0495749
0.0209232
-0.0622075
0.0292883
-0.0740954
0.0388471
-0.0852083
0.0495428
-0.0955183
0.0613165
-0.104995
-0.113412
0.0740677
0.00105434
-0.00876828
0.00393602
-0.02511
0.00846007
-0.040756
0.0144814
-0.0555962
0.021874
-0.0696001
0.0305278
-0.0827492
0.0403477
-0.0950281
0.0512449
-0.106416
0.0631384
-0.116888
-0.126296
0.076023
0.00111874
0.00423728
0.00915227
0.015685
0.0236861
0.0330318
0.0436194
0.0553419
0.0680416
0.0812303
0.114233
-0.413049
0.35024
0.167762
-0.469086
0.415557
0.209208
-0.417422
0.375976
0.241716
-0.320908
0.2884
0.266081
-0.207891
0.183526
0.28197
-0.103231
0.0873421
0.289662
-0.0393124
0.03162
0.292635
-0.0160312
0.0130582
0.293253
-0.00919701
0.00857943
-0.00254105
0.00401235
0.116037
-0.476043
0.169681
-0.52273
0.21128
-0.459021
0.243575
-0.353204
0.267737
-0.232052
0.283003
-0.118498
0.290083
-0.0463919
0.292768
-0.0187159
0.293311
-0.00974008
-0.00108771
0.117984
-0.538228
0.170784
-0.57553
0.212218
-0.500455
0.24413
-0.385116
0.268085
-0.256008
0.282874
-0.133287
0.289702
-0.0532194
0.292467
-0.0214807
0.293182
-0.0104549
0.000110276
0.120411
-0.599098
0.171311
-0.626429
0.212103
-0.541247
0.243453
-0.416465
0.267206
-0.279761
0.281783
-0.147864
0.288719
-0.0601547
0.291839
-0.0246009
0.292941
-0.0115574
0.000832249
0.123294
-0.658438
0.17148
-0.674615
0.211028
-0.580796
0.241612
-0.447049
0.265138
-0.303286
0.279793
-0.162519
0.287167
-0.0675295
0.290892
-0.028325
0.292591
-0.0132565
0.000865495
0.126111
-0.71622
0.171355
-0.719859
0.209091
-0.618533
0.238672
-0.47663
0.2619
-0.326515
0.27691
-0.177529
0.285052
-0.0756709
0.289627
-0.0329008
0.292125
-0.0157543
-4.50818e-07
0.128005
-0.772414
0.170788
-0.762642
0.206384
-0.654129
0.234735
-0.504981
0.257541
-0.349321
0.273135
-0.193122
0.282375
-0.0849109
0.288053
-0.0385784
0.291545
-0.0192466
-0.00196894
0.128049
-0.826395
0.16932
-0.803913
0.202817
-0.687626
0.229802
-0.531965
0.25205
-0.371569
0.268409
-0.209482
0.27912
-0.0956216
0.286168
-0.0456264
0.290843
-0.023922
-0.00524737
0.12594
-0.876312
0.166556
-0.844529
0.19838
-0.71945
0.224018
-0.557603
0.245549
-0.3931
0.262777
-0.22671
0.275315
-0.108159
0.283985
-0.0542965
0.290017
-0.0299538
-0.0100393
0.122235
-0.917317
0.161695
-0.88399
0.192217
-0.749972
0.216763
-0.582149
0.237604
-0.413941
0.255872
-0.244978
0.270779
-0.123067
0.281407
-0.0649239
0.288948
-0.0374948
-0.0165227
0.583757
-0.919659
-0.581416
0.560853
-0.861085
0.523412
-0.712531
0.48668
-0.545417
0.458759
-0.38602
0.446798
-0.233017
0.447701
-0.12397
0.44867
-0.0658924
0.446427
-0.0352523
-0.0157132
0.682644
-0.870928
-0.731374
0.619486
-0.797927
0.554052
-0.647097
0.497957
-0.489321
0.457657
-0.345721
0.4401
-0.21546
0.433079
-0.116949
0.425068
-0.0578812
0.418086
-0.0282705
-0.0131303
0.754027
-0.774573
-0.850382
0.655582
-0.699482
0.565016
-0.556531
0.491343
-0.415648
0.437514
-0.291892
0.407449
-0.185395
0.393167
-0.102667
0.38521
-0.0499238
0.379913
-0.0229739
-0.0108582
0.779351
-0.641339
-0.912585
0.654632
-0.574762
0.548086
-0.449985
0.464416
-0.331978
0.404042
-0.231519
0.368003
-0.149355
0.350823
-0.0854875
0.342446
-0.0415466
0.337561
-0.0180899
-0.00859521
0.753306
-0.49228
-0.902365
0.61823
-0.439686
0.507435
-0.33919
0.422409
-0.246952
0.361795
-0.170904
0.323946
-0.111507
0.304532
-0.0660732
0.295638
-0.0326524
0.291251
-0.0137028
-0.00652373
0.685276
-0.345779
-0.831776
0.553057
-0.307467
0.447165
-0.233298
0.367423
-0.167209
0.311194
-0.114676
0.275206
-0.0755182
0.255488
-0.0463559
0.24637
-0.0235335
0.242308
-0.00964164
-0.00461849
0.582691
-0.213847
-0.714623
0.463051
-0.187827
0.369684
-0.139932
0.300775
-0.0983006
0.252843
-0.0667428
0.221687
-0.0443621
0.20356
-0.0282289
0.194829
-0.014803
0.191155
-0.00596736
-0.00291982
0.448781
-0.105524
-0.557104
0.351239
-0.0902843
0.277222
-0.065915
0.223976
-0.0450549
0.187522
-0.0302885
0.16355
-0.0203906
0.148828
-0.0135069
0.141359
-0.00733367
0.138277
-0.00288504
-0.00149138
0.286591
-0.0302229
-0.361893
0.220922
-0.0246149
0.172543
-0.0175363
0.138911
-0.011423
0.116201
-0.00757781
0.101024
-0.00521379
0.0911866
-0.00366949
0.085953
-0.00210015
0.0838608
-0.000792747
-0.000473792
0.10131
-0.131533
0.0766956
0.0591593
0.0477363
0.0401585
0.0349447
0.0312752
0.0291751
0.0283823
0.738834
0.0102249
-0.740782
0.733087
0.0284133
0.723445
0.0467505
0.710168
0.0639167
0.69357
0.0791763
0.674069
0.0921981
0.652257
0.103031
0.628686
0.112206
0.604228
0.119309
0.119833
0.845559
0.0134008
-0.848735
0.837329
0.0366435
0.827292
0.056788
0.816592
0.0746162
0.805243
0.090526
0.792879
0.104561
0.779254
0.116656
0.764542
0.126918
0.749058
0.134793
0.137517
0.845004
0.0114303
-0.843034
0.848906
0.032742
0.853046
0.0526477
0.856499
0.0711628
0.85886
0.0881657
0.859941
0.10348
0.859607
0.11699
0.857964
0.128561
0.855278
0.137479
0.142412
0.800225
0.00930932
-0.798104
0.805835
0.0271318
0.814438
0.0440455
0.825664
0.0599365
0.839041
0.0747889
0.853904
0.0886157
0.86949
0.101404
0.885139
0.112912
0.900035
0.122583
0.129862
0.737874
0.00704328
-0.735608
0.744164
0.0208421
0.754135
0.0340744
0.767519
0.0465529
0.784104
0.0582032
0.803692
0.0690276
0.826037
0.0790601
0.850694
0.0882552
0.876645
0.0966319
0.104141
0.653925
0.00485767
-0.65174
0.660209
0.0145588
0.670385
0.0238981
0.684229
0.0327086
0.701536
0.0408969
0.722126
0.048437
0.745828
0.0553588
0.772363
0.0617201
0.801268
0.0677267
0.0736329
0.549114
0.00291867
-0.547175
0.554815
0.00885764
0.564141
0.0145715
0.57691
0.0199404
0.59292
0.0248866
0.611975
0.0293823
0.63388
0.0334537
0.65842
0.0371802
0.685399
0.0407472
0.0444089
0.422792
0.00137712
-0.421251
0.427413
0.00423683
0.435008
0.00697603
0.445423
0.00952587
0.458471
0.0118384
0.473958
0.0138951
0.491699
0.015713
0.51153
0.0173488
0.533351
0.0189264
0.0206557
0.273827
0.000367096
-0.272817
0.276914
0.0011497
0.281998
0.00189184
0.288955
0.00256936
0.297629
0.00316428
0.307855
0.00366884
0.319481
0.00408764
0.332393
0.00443618
0.34656
0.00475985
0.00532264
0.100483
-0.100116
0.101633
0.103525
0.106094
0.109258
0.112927
0.117015
0.121451
0.126211
0.0779922
0.159447
-0.142416
-0.0950236
0.0630724
0.147416
-0.132496
0.0496503
0.134373
-0.120951
0.037625
0.12031
-0.108285
0.0270404
0.105157
-0.0945721
0.017986
0.088887
-0.0798327
0.0105771
0.071458
-0.0640491
0.00496501
0.05281
-0.047198
0.0013484
0.0328762
-0.0292596
0.0116404
-0.010292
0.077986
0.174394
-0.0929327
0.0639029
0.161499
0.0508612
0.147415
0.0389519
0.132219
0.0282844
0.115824
0.0190048
0.0981666
0.0112917
0.0791711
0.0053603
0.0587414
0.00147732
0.0367592
0.0131177
0.0732132
0.187902
-0.0867215
0.060393
0.174319
0.0483652
0.159443
0.0372576
0.143327
0.027208
0.125874
0.0183815
0.106993
0.0109774
0.0865753
0.00523543
0.0644833
0.00144956
0.0405451
0.0145672
0.0667962
0.200337
-0.0792315
0.0550501
0.186065
0.0440601
0.170433
0.0339279
0.153459
0.0247696
0.135032
0.0167282
0.115034
0.00998187
0.0933216
0.00475132
0.0697139
0.00130953
0.0439869
0.0158768
0.059331
0.211649
-0.0706424
0.0487278
0.196668
0.0388752
0.180286
0.0298456
0.162489
0.0217265
0.143151
0.0146303
0.122131
0.00870238
0.0992495
0.00412628
0.07429
0.00113086
0.0469823
0.0170076
0.0506111
0.221518
-0.0604805
0.0414198
0.20586
0.032933
0.188772
0.0252003
0.170221
0.0182852
0.150067
0.0122726
0.128143
0.00727495
0.104247
0.00343638
0.0781285
0.000937196
0.0494815
0.0179448
0.0404659
0.229565
-0.0485126
0.0330185
0.213307
0.02618
0.195611
0.0199792
0.176422
0.0144582
0.155588
0.00967766
0.132924
0.00572035
0.108205
0.00269362
0.0811553
0.000731766
0.0514433
0.0186766
0.0290593
0.235445
-0.0349393
0.0236545
0.218712
0.0187166
0.200549
0.0142561
0.180883
0.0102965
0.159547
0.00687746
0.136343
0.00405542
0.111027
0.00190411
0.0833066
0.000515215
0.0528322
0.0191918
0.0169196
0.23893
-0.0204054
0.013743
0.221889
0.0108553
0.203437
0.0082548
0.183483
0.00595121
0.161851
0.00396614
0.138328
0.00233187
0.112661
0.00109047
0.084548
0.000293172
0.0536295
0.019485
0.00482741
-0.00589043
0.00387972
0.0030332
0.00228256
0.00162739
0.00107138
0.000621185
0.000285592
7.48961e-05
0.0433881
0.0410327
-0.0522306
-0.0321902
0.0350672
0.0379987
-0.0296778
0.0274555
0.034622
-0.0270104
0.0207679
0.0310424
-0.0243548
0.0149929
0.0275111
-0.0217361
0.00989101
0.0239741
-0.0188722
0.00536579
0.0198493
-0.0153241
0.00192625
0.0142737
-0.0108341
0.000373182
0.00729656
-0.00574349
0.0020588
-0.00168561
0.0437709
0.0502008
-0.052939
0.0351217
0.0466479
0.0270889
0.0426549
0.019956
0.0381752
0.0140277
0.0334394
0.00929616
0.0287056
0.00551451
0.0236309
0.00255419
0.017234
0.00061074
0.00924002
0.00266954
0.0451886
0.0597883
-0.0547761
0.0362306
0.0556058
0.0279543
0.0509312
0.0204834
0.0456461
0.0141455
0.0397773
0.00919803
0.0336531
0.00557785
0.0272511
0.00291457
0.0198973
0.000810964
0.0113436
0.0034805
0.0477268
0.070021
-0.0579595
0.0382426
0.06509
0.0296197
0.0595541
0.0218977
0.0533682
0.0152087
0.0464663
0.00981426
0.0390475
0.00583522
0.0312302
0.00299817
0.0227343
0.000885901
0.0134559
0.00436641
0.0511922
0.0809981
-0.0621693
0.0410369
0.0752453
0.0318659
0.0687251
0.023742
0.0614921
0.016692
0.0535164
0.0108472
0.0448923
0.00634545
0.0357319
0.00309628
0.0259835
0.000891829
0.0156603
0.00525823
0.0548329
0.092644
-0.0664788
0.0440629
0.0860153
0.0343322
0.0784558
0.0257166
0.0701076
0.01824
0.060993
0.0119608
0.0511715
0.00697631
0.0407164
0.00330364
0.0296562
0.000916831
0.0180472
0.00617507
0.057816
0.104769
-0.069941
0.046614
0.0972173
0.0364705
0.0885993
0.027447
0.0791311
0.0195804
0.0688596
0.0129219
0.05783
0.00755182
0.0460865
0.00354125
0.0336667
0.000964673
0.0206237
0.00713974
0.0598097
0.117133
-0.0721734
0.0483973
0.10863
0.0380231
0.0989735
0.0287333
0.0884209
0.02058
0.0770129
0.0136322
0.0647778
0.00798088
0.0517378
0.00373104
0.0379166
0.00100803
0.0233467
0.00814777
0.0615753
0.129617
-0.0740595
0.0500497
0.120155
0.0394762
0.109547
0.0299269
0.0979702
0.021488
0.0854518
0.0142562
0.0720095
0.00834564
0.0576484
0.00388956
0.0423726
0.00104323
0.0261931
0.009191
0.0663966
-0.0791953
0.0540557
0.0426515
0.0323369
0.0232167
0.0153935
0.00899283
0.00416753
0.00110096
0.215212
0.0562558
-0.0734779
0.235221
0.0954603
-0.115469
0.256008
0.123388
-0.144175
0.266098
0.114985
-0.125075
0.265982
0.117749
-0.117633
0.247274
0.182025
-0.163317
0.215383
0.294075
-0.262184
0.17297
0.409633
-0.36722
0.117537
0.490489
-0.435056
0.457761
-0.392455
0.214294
0.0399511
0.233513
0.0762417
0.253714
0.103187
0.264516
0.104183
0.26548
0.116786
0.247864
0.199642
0.216214
0.325725
0.173395
0.452452
0.117748
0.546136
0.52257
0.213439
0.0245016
0.232295
0.0573863
0.251922
0.0835599
0.263145
0.0929599
0.264377
0.115553
0.247324
0.216695
0.215852
0.357197
0.172838
0.495465
0.118056
0.600918
0.58585
0.212712
0.00977925
0.231548
0.0385505
0.2506
0.0645079
0.261934
0.0816262
0.262753
0.114734
0.245682
0.233766
0.214305
0.388573
0.17155
0.538221
0.118936
0.653532
0.646827
0.212239
-0.00446972
0.231266
0.0195229
0.249683
0.0460909
0.260736
0.0705739
0.260531
0.114939
0.242914
0.251383
0.211631
0.419857
0.169845
0.580007
0.120476
0.702901
0.705133
0.21211
-0.0185903
0.231424
0.00020965
0.249068
0.0284462
0.259352
0.0602906
0.257559
0.116731
0.238998
0.269943
0.207965
0.45089
0.167955
0.620017
0.122245
0.748611
0.760899
0.21234
-0.032941
0.231955
-0.0194044
0.248631
0.0117701
0.257609
0.051312
0.253726
0.120615
0.233996
0.289673
0.203513
0.481373
0.165887
0.657643
0.123413
0.791085
0.814371
0.212829
-0.0477802
0.232747
-0.0393226
0.248223
-0.00370611
0.255288
0.0442475
0.248841
0.127061
0.227898
0.310617
0.198314
0.510957
0.163267
0.69269
0.123009
0.831343
0.865207
0.213325
-0.0631153
0.233653
-0.059651
0.247706
-0.0177591
0.252381
0.039573
0.243046
0.136396
0.220983
0.33268
0.192519
0.539421
0.159728
0.725481
0.120667
0.870404
0.911814
0.21378
-0.0789051
0.234396
-0.0802676
0.24701
-0.0303725
0.248481
0.0381021
0.235732
0.149144
0.21259
0.355823
0.185278
0.566732
0.154436
0.756324
0.116899
0.90794
0.949518
0.332962
-0.109857
0.371697
-0.119002
0.405946
-0.0646217
0.425526
0.0185219
0.442123
0.132547
0.468627
0.329319
0.506874
0.528486
0.54959
0.713608
0.581173
0.876357
0.944353
0.586338
0.33437
-0.142217
0.374865
-0.159497
0.409886
-0.0996432
0.428129
0.000279628
0.443222
0.117454
0.478872
0.293669
0.535248
0.47211
0.604677
0.644179
0.675242
0.805792
0.886799
0.732796
0.336178
-0.176385
0.376628
-0.199947
0.412517
-0.135532
0.430235
-0.0174385
0.440342
0.107347
0.479682
0.254328
0.549069
0.402723
0.639851
0.553397
0.742556
0.703088
0.782998
0.846356
0.339077
-0.213451
0.375407
-0.236277
0.395323
-0.155448
0.397621
-0.0197357
0.410075
0.0948924
0.458359
0.206045
0.537297
0.323785
0.64219
0.448504
0.767865
0.577413
0.646125
0.904738
0.345854
-0.257295
0.357429
-0.247853
0.346785
-0.144804
0.345962
-0.0189123
0.366142
0.0747124
0.417842
0.154345
0.499634
0.241993
0.609257
0.338881
0.744467
0.442203
0.495344
0.895248
0.341484
-0.296769
0.324336
-0.230704
0.294565
-0.115033
0.292307
-0.0166547
0.314384
0.0526354
0.363842
0.104887
0.441348
0.164486
0.546621
0.233608
0.679203
0.309621
0.347723
0.826825
0.314465
-0.309224
0.273205
-0.189444
0.23811
-0.0799378
0.234191
-0.0127361
0.254962
0.031865
0.298166
0.0616819
0.365651
0.0970017
0.458816
0.140443
0.579016
0.189421
0.21499
0.711748
0.273892
-0.281106
0.213749
-0.129301
0.177038
-0.0432265
0.172233
-0.00793109
0.188967
0.0151309
0.222397
0.0282523
0.274822
0.0445764
0.348934
0.0663313
0.447136
0.0912189
0.106101
0.556025
0.214644
-0.19374
0.140814
-0.0554719
0.110732
-0.0131438
0.105855
-0.00305449
0.116995
0.003991
0.138179
0.00706811
0.171445
0.0113106
0.220072
0.0177044
0.286354
0.0249363
0.0304016
0.362054
0.10827
0.0527985
0.0396547
0.0366002
0.0405912
0.0476593
0.0589699
0.0766743
0.101611
0.132012
0.608536
-0.117222
0.632233
-0.11663
0.655079
-0.109567
0.676252
-0.100405
0.695213
-0.0896031
0.711363
-0.0766303
0.724265
-0.0614152
0.733598
-0.0442725
0.739087
-0.0258943
-0.00758501
0.750167
-0.134592
0.765107
-0.13157
0.779341
-0.123801
0.792591
-0.113655
0.804674
-0.101687
0.815825
-0.0877813
0.826392
-0.0719822
0.836391
-0.0542711
0.844847
-0.0343507
-0.0114731
0.851018
-0.139254
0.853495
-0.134046
0.855035
-0.125341
0.855429
-0.114049
0.854588
-0.100846
0.852687
-0.0858799
0.849952
-0.0692479
0.846783
-0.0511022
0.843979
-0.031546
-0.010528
0.892777
-0.127293
0.878732
-0.120002
0.864016
-0.110625
0.849413
-0.0994451
0.835531
-0.0869644
0.823075
-0.0734234
0.81267
-0.0588435
0.804778
-0.0432101
0.79976
-0.0265277
-0.00887245
0.870543
-0.102588
0.845712
-0.0951713
0.822052
-0.0869649
0.800556
-0.0779495
0.781695
-0.0681026
0.765739
-0.0574674
0.752906
-0.0460105
0.743414
-0.0337186
0.737532
-0.0206459
-0.00694828
0.797116
-0.0728785
0.769006
-0.0670618
0.743164
-0.0611229
0.72006
-0.0548455
0.699984
-0.0480261
0.683119
-0.0406022
0.669646
-0.0325374
0.659772
-0.0238452
0.653729
-0.0146028
-0.00495903
0.683023
-0.0441526
0.656518
-0.040557
0.632407
-0.0370121
0.610878
-0.0333164
0.592142
-0.02929
0.576392
-0.0248521
0.563825
-0.0199705
0.554644
-0.0146644
0.549043
-0.00900117
-0.00309126
0.532507
-0.0206349
0.510899
-0.0189491
0.491263
-0.0173763
0.473691
-0.0157448
0.458339
-0.013938
0.445388
-0.0119005
0.43503
-0.00961248
0.427453
-0.00708768
0.422821
-0.00436897
-0.00152093
0.34677
-0.00535062
0.332628
-0.0048075
0.319735
-0.00448305
0.308122
-0.00413173
0.297896
-0.0037119
0.289205
-0.0032093
0.282211
-0.00261868
0.27707
-0.0019463
0.273909
-0.00120861
-0.000428589
0.126662
0.121854
0.117371
0.113239
0.109527
0.106318
0.103699
0.101753
0.100545
0.000185026
0.0116067
-0.0117917
0.000623635
0.0304403
-0.0308789
0.00123697
0.046233
-0.0468463
0.00197702
0.059457
-0.0601971
0.00277618
0.0700096
-0.0708088
0.00376893
0.0798758
-0.0808685
0.00396282
0.0772545
-0.0774484
0.00408416
0.0700306
-0.0701519
0.00394426
0.061069
-0.0609291
0.0499469
0.00350655
-0.0495092
0.000533308
0.0110734
0.00180357
0.0291701
0.00358451
0.0444521
0.00574035
0.0573012
0.00807155
0.0676784
0.0110379
0.0769094
0.0116741
0.0766183
0.0120788
0.0696258
0.0117716
0.0613763
0.0510692
0.0106493
0.000835356
0.010238
0.00283136
0.0271741
0.00563821
0.0416452
0.00904014
0.0538993
0.0127374
0.0639811
0.0172448
0.0724021
0.0187872
0.0750759
0.0195686
0.0688444
0.0193823
0.0615626
0.0524256
0.0180259
0.00105579
0.00918225
0.0035964
0.0246335
0.00719245
0.0380492
0.011554
0.0495377
0.016354
0.0591811
0.0217444
0.0670118
0.0250689
0.0717513
0.0263509
0.0675624
0.026599
0.0613146
0.0535575
0.0254671
0.00115124
0.00803101
0.00397861
0.0218061
0.00804038
0.0339874
0.0129949
0.0445832
0.0185488
0.0536272
0.0245538
0.0610067
0.029948
0.0663572
0.0320856
0.0654249
0.0330065
0.0603936
0.0540825
0.0324815
0.00111127
0.00691975
0.00396525
0.0189521
0.00818415
0.0297685
0.013388
0.0393794
0.019315
0.0477002
0.0257681
0.0545536
0.0324116
0.0597137
0.0363085
0.061528
0.0381198
0.0585823
0.0536989
0.0385034
0.00092606
0.00599369
0.00357224
0.0163059
0.00770913
0.0256316
0.0128794
0.0342092
0.0187835
0.0417961
0.0253343
0.0480027
0.0323169
0.0527311
0.0382721
0.0555729
0.0415849
0.0552695
0.0521753
0.0431085
0.000567862
0.00542583
0.00278609
0.0140877
0.00665587
0.0217619
0.0116186
0.0292464
0.0172009
0.0362138
0.0234436
0.04176
0.0302823
0.0458923
0.0371813
0.0486739
0.0425609
0.0498899
0.0489149
0.0458213
0.000104308
0.00532152
0.00176862
0.0124234
0.00517438
0.0183561
0.0098119
0.0246089
0.0149532
0.0310725
0.0206178
0.0360955
0.0269011
0.039609
0.0335859
0.041989
0.040086
0.0433898
0.0437834
0.0452175
-0.000174575
0.0054961
0.00108759
0.0111612
0.00385542
0.0155883
0.00788427
0.02058
0.0124982
0.0264586
0.0175702
0.0310234
0.0231788
0.0340004
0.0292536
0.0359142
0.0356426
0.0370008
0.0373536
0.0420724
-1.96157e-05
0.00551571
0.0011415
0.0100001
0.00327849
0.0134513
0.00641306
0.0174455
0.0102962
0.0225754
0.0148415
0.0264782
0.0199656
0.0288764
0.0255019
0.0303778
0.031244
0.0312586
0.0316739
0.0369237
0.000380741
0.00513497
0.00153669
0.00884419
0.00318687
0.0118011
0.00550029
0.0151321
0.00872833
0.0193474
0.0129232
0.0222832
0.0177829
0.0240167
0.0230573
0.0251034
0.0285565
0.0257594
0.0260287
0.0342018
0.000630422
0.00450455
0.00171848
0.00775613
0.00304427
0.0104753
0.00487359
0.0133027
0.00787986
0.0163411
0.011982
0.018181
0.016744
0.0192548
0.0219276
0.0199198
0.0274012
0.0202857
0.0203659
0.033064
0.000685871
0.00381868
0.00166089
0.0067811
0.00285126
0.00928492
0.00474916
0.0114048
0.00803533
0.0130549
0.012275
0.0139414
0.0171003
0.0144296
0.0223495
0.0146705
0.0279264
0.0147089
0.0145468
0.0337455
0.000670975
0.0031477
0.00157079
0.00588128
0.00302474
0.00783097
0.00562148
0.0088081
0.00941388
0.00926255
0.0139364
0.00941884
0.0189807
0.00938519
0.0244469
0.0092044
0.0302663
0.00888939
0.00844528
0.0363679
0.000593213
0.00255448
0.0017176
0.00475688
0.00406566
0.00548291
0.00751875
0.005355
0.0117634
0.00501794
0.0166019
0.00458025
0.0219336
0.00405354
0.0276988
0.00343921
0.0338461
0.00274209
0.00197451
0.0403168
0.000515223
0.00203926
0.00246193
0.00281016
0.00571426
0.00223057
0.00969664
0.00137262
0.0142703
0.000444315
0.0193879
-0.000537433
0.0250198
-0.00157832
0.0311241
-0.00266507
0.0376406
-0.0037744
-0.00489391
0.044509
0.000850412
0.00118884
0.00357453
8.60315e-05
0.00711631
-0.00131122
0.0112806
-0.00279164
0.0160507
-0.00432583
0.0214379
-0.00592466
0.0274034
-0.00754384
0.0338576
-0.00911924
0.0407164
-0.0106332
-0.0121154
0.0479379
0.00149023
-0.000301403
0.00410759
-0.00253134
0.0075079
-0.00471152
0.0116929
-0.00697665
0.0166752
-0.00930813
0.0223833
-0.0116328
0.0286507
-0.0138112
0.0353525
-0.0158211
0.0424606
-0.0177413
-0.0196295
0.0499747
0.00107296
0.0031684
0.00646632
0.0109014
0.0162582
0.0222182
0.0286128
0.0354692
0.0428553
0.0507504
0.0516526
0.0833074
-0.0980363
0.0776118
-0.00798033
-0.0179789
0.100045
-0.050902
0.0284686
0.113517
-0.0462978
0.0328262
0.121374
-0.0262917
0.0184342
0.125241
-0.00871244
0.0048456
0.12745
-0.000654299
-0.0015543
0.129513
0.000542072
-0.00260532
0.131867
-0.000485809
-0.00186871
-0.00204092
-0.00054142
0.0588389
0.0586702
0.0918443
-0.0409859
0.118879
-0.077937
0.134716
-0.0621341
0.143339
-0.0349146
0.14729
-0.0126635
0.149424
-0.00278853
0.151435
-0.00146881
0.153754
-0.00280502
-0.0044089
0.0667579
0.0249763
0.105028
-0.0792555
0.135919
-0.108828
0.155466
-0.0816815
0.165376
-0.0448243
0.16942
-0.0167072
0.171343
-0.00471147
0.173101
-0.00322733
0.175146
-0.00485017
-0.00635735
0.0754854
-0.0167636
0.117628
-0.121398
0.151397
-0.142598
0.174782
-0.105066
0.186798
-0.0568396
0.191168
-0.0210779
0.192873
-0.00641592
0.194271
-0.00462526
0.19588
-0.00645942
-0.00773716
0.084351
-0.0647468
0.129201
-0.166248
0.165081
-0.178478
0.191787
-0.131772
0.206795
-0.0718475
0.21206
-0.0263431
0.213678
-0.00803433
0.214689
-0.00563551
0.215771
-0.00754186
-0.00845996
0.0926222
-0.117052
0.139444
-0.213069
0.176915
-0.21595
0.206092
-0.16095
0.224431
-0.0901865
0.231484
-0.0333954
0.233342
-0.00989259
0.23404
-0.00633327
0.234585
-0.00808687
-0.00850172
0.0996865
-0.17223
0.14813
-0.261513
0.186855
-0.254674
0.217664
-0.191759
0.238944
-0.111466
0.248691
-0.0431421
0.251378
-0.0125796
0.251988
-0.00694391
0.252086
-0.00818427
-0.00791031
0.105242
-0.229534
0.155191
-0.311462
0.194916
-0.294399
0.226706
-0.223549
0.250008
-0.134769
0.26279
-0.0559233
0.267072
-0.0168625
0.267961
-0.00783267
0.267792
-0.00801513
-0.00680414
0.109293
-0.288852
0.1607
-0.362869
0.201203
-0.334902
0.233523
-0.255869
0.257794
-0.159041
0.27302
-0.0711491
0.279641
-0.0234832
0.281596
-0.00978773
0.281505
-0.0079237
-0.00537626
0.112138
0.164827
0.205901
0.238432
0.262917
0.27911
0.287247
0.290518
0.291174
0.0132012
0.00607568
-0.0192769
0.0109995
0.0022017
0.0115267
-0.000527171
0.0129222
-0.00139553
0.0136267
-0.000704561
0.0137797
-0.000152919
0.0136777
0.000101983
0.0135325
0.000145215
0.0134036
0.000128887
5.13206e-05
0.0372531
0.0232038
-0.0543812
0.0315401
0.0079147
0.0340637
-0.00305077
0.0380427
-0.00537454
0.0401691
-0.00283094
0.0406477
-0.000631566
0.0403764
0.000373347
0.0399847
0.000536874
0.0396746
0.000438991
0.000160265
0.0579887
0.0480546
-0.0828395
0.0509799
0.0149235
0.0559911
-0.00806193
0.0624456
-0.0118291
0.0660254
-0.00641071
0.0668933
-0.00149941
0.0665062
0.000760448
0.0659181
0.00112502
0.065482
0.000875064
0.000300453
0.0739544
0.0753083
-0.101208
0.0682339
0.020644
0.0765829
-0.016411
0.0857459
-0.020992
0.0909297
-0.0115946
0.0923069
-0.00287656
0.0918864
0.00118092
0.0911716
0.00183983
0.0906741
0.00137254
0.000438224
0.0815009
-0.104229
0.0841658
0.0962234
0.108057
0.114897
0.116866
0.116493
0.115728
0.115232
0.00273311
-0.000172889
-0.00256022
0.00326387
-0.000530757
0.0041759
-0.000912033
0.00548667
-0.00131078
0.00718273
-0.00169605
0.0092269
-0.00204418
0.0115832
-0.00235626
0.0141714
-0.00258824
0.0168568
-0.0026854
-0.00242009
0.00778587
-0.000645566
-0.00731319
0.00923247
-0.00197736
0.0117113
-0.0033909
0.015267
-0.00486646
0.0198804
-0.00630945
0.0254775
-0.00764122
0.0319589
-0.00883774
0.03915
-0.00977929
0.0467617
-0.0102971
-0.0100396
0.0124756
-0.00138348
-0.0117377
0.0147249
-0.00422662
0.018557
-0.00722305
0.02402
-0.0103294
0.0310734
-0.0133629
0.039579
-0.0161468
0.0493197
-0.0185785
0.0600426
-0.0205021
0.0714073
-0.0216619
-0.0214718
0.0168042
-0.00234725
-0.0158405
0.0197279
-0.00715032
0.0246703
-0.0121654
0.0316456
-0.0173047
0.0405428
-0.0222601
0.0510975
-0.0267015
0.0629278
-0.0304087
0.0756851
-0.0332595
0.0888543
-0.034831
-0.0338257
0.0207891
-0.0196298
0.0242881
0.0301486
0.038311
0.0485324
0.0603343
0.0730341
0.0855959
0.0959824
0.0315196
-0.0312663
0.0370846
-0.0373379
0.0256479
-0.0308626
0.0367343
0.0199789
-0.0300296
0.0356986
0.0147211
-0.0286344
0.0338922
0.0100879
-0.0264295
0.0310626
0.00622041
-0.0227529
0.0266204
0.00312563
-0.0176405
0.0207352
0.00102665
-0.0136165
0.0157155
-8.06984e-05
-0.010152
0.0112594
-0.0056271
0.0055464
0.029584
-0.0253884
-0.035462
0.0238546
-0.0251331
0.0183514
-0.0245264
0.0132504
-0.0235334
0.00880161
-0.0219807
0.00538792
-0.0193392
0.00304479
-0.0152973
0.00141419
-0.0119859
0.000308354
-0.00904618
-0.00531874
0.0295848
-0.0193867
-0.0355865
0.0237679
-0.0193161
0.0182374
-0.018996
0.0131094
-0.0184054
0.00858472
-0.017456
0.00511216
-0.0158666
0.0030495
-0.0132346
0.00167483
-0.0106112
0.000598592
-0.00796994
-0.00472015
0.031468
-0.0131175
-0.0377372
0.0254341
-0.0132821
0.019718
-0.0132798
0.0144064
-0.0130937
0.00963867
-0.0126883
0.00573697
-0.0119649
0.00325966
-0.0107573
0.00180027
-0.00915186
0.000746793
-0.00691645
-0.00397335
0.0349404
-0.00647419
-0.0415838
0.0285796
-0.00692128
0.0225724
-0.00727258
0.016986
-0.00750731
0.0119124
-0.0076147
0.00753331
-0.00758586
0.0041856
-0.0074096
0.00202313
-0.00698938
0.000808179
-0.00570149
-0.00316516
0.0390584
0.000594058
-0.0461267
0.0323156
-0.000178454
0.0259695
-0.000926407
0.0200924
-0.00163019
0.0147443
-0.0022666
0.00998823
-0.0028298
0.00590736
-0.00332873
0.00267038
-0.00375239
0.000718803
-0.0037499
-0.00244636
0.0426727
0.00804411
-0.0501228
0.0355625
0.00693183
0.0288464
0.00578967
0.0226213
0.00459491
0.0169828
0.0033719
0.0119678
0.00218524
0.00756382
0.00107523
0.00378696
2.44722e-05
0.00095833
-0.00092126
-0.00148802
0.0447856
0.0157631
-0.0525046
0.0374384
0.014279
0.0304633
0.0127648
0.0239022
0.0111561
0.0178965
0.00937757
0.0126205
0.00746122
0.00814304
0.00555272
0.00444733
0.00372019
0.00158354
0.00194254
9.55255e-05
0.0449144
0.0237685
-0.0529199
0.0373843
0.0218092
0.0303314
0.0198177
0.0236755
0.017812
0.0173997
0.0156534
0.0117032
0.0131577
0.00694355
0.0103124
0.00337622
0.00728753
0.00113206
0.00418671
0.00122759
0.0439743