/*--------------------------------*- C++ -*----------------------------------*\
  =========                 |
  \\      /  F ield         | OpenFOAM: The Open Source CFD Toolbox
   \\    /   O peration     | Website:  https://openfoam.org
    \\  /    A nd           | Version:  13
     \\/     M anipulation  |
\*---------------------------------------------------------------------------*/
FoamFile
{
    format      ascii;
    class       volScalarField;
    location    "0.27";
    object      strainRateViscosityModel:nu;
}
// * * * * * * * * * * * * * * * * * * * * * * * * * * * * * * * * * * * * * //

dimensions      [0 2 -1 0 0 0 0];

internalField   nonuniform List<scalar> 
1800
(
9.40494
9.19761
9.01001
8.80081
8.57591
8.34383
8.11513
7.89788
7.6241
7.37921
9.58526
9.4188
9.26688
9.09726
8.91105
8.71126
8.50336
8.28847
8.02718
7.70202
9.70221
9.56271
9.42803
9.27093
9.08862
8.87889
8.64078
8.36889
8.03049
7.61058
9.77541
9.65615
9.53325
9.38287
9.20046
8.98167
8.72274
8.41589
8.02874
7.55459
9.82169
9.71832
9.6056
9.46167
9.2807
9.05694
8.78546
8.45885
8.04775
7.55619
9.85186
9.76083
9.65732
9.5206
9.34356
9.11896
8.84034
8.50016
8.07153
7.57025
9.8718
9.78992
9.694
9.56398
9.39149
9.1677
8.88422
8.53254
8.08738
7.57572
9.88476
9.80926
9.7189
9.59397
9.42497
9.20148
8.91312
8.55008
8.08856
7.56359
9.89261
9.82108
9.73418
9.61223
9.44469
9.21966
8.92487
8.54926
8.07124
7.52875
9.89647
9.82687
9.74155
9.62072
9.45312
9.22576
8.92516
8.53956
8.05041
7.49288
1.71983
1.40882
1.21727
1.31244
1.70983
2.23218
2.48537
2.44136
2.35076
2.32641
3.66901
1.78638
1.49164
1.96767
2.68261
2.97226
2.82156
2.67308
2.68744
2.74089
4.67402
2.5686
2.43435
3.17371
3.59931
3.35557
3.08994
3.12437
3.26412
3.34533
5.25446
3.88071
3.81724
4.21618
4.18548
3.83736
3.73047
3.86428
3.96668
4.01563
6.05024
5.27516
5.11921
5.12273
4.91768
4.65901
4.58595
4.62071
4.62082
4.66016
6.95862
6.46016
6.22728
6.03859
5.78935
5.54817
5.39353
5.29852
5.22773
5.28019
7.77189
7.37796
7.1168
6.86003
6.58729
6.32109
6.08869
5.90325
5.77325
5.82701
8.40046
8.05543
7.79185
7.51531
7.22589
6.93073
6.64212
6.38688
6.19356
6.23097
8.84956
8.54541
8.29082
8.00987
7.70505
7.37874
7.035
6.70086
6.41607
6.42258
9.16175
8.90155
8.6662
8.39637
8.09524
7.76517
7.40585
7.03525
6.70858
6.75289
2.18563
1.72282
1.32079
0.906206
0.548444
0.216981
0.0482101
0.0148924
0.0114319
0.0102016
2.52984
1.8536
1.41103
0.921053
0.540719
0.204519
0.039236
0.0132338
0.0107684
0.0100361
2.95659
1.9908
1.49596
0.938683
0.531423
0.196022
0.0370443
0.0131718
0.01076
0.0100374
3.45042
2.16388
1.57493
0.958125
0.520535
0.190084
0.0370823
0.0132796
0.0107845
0.010044
3.99126
2.40139
1.65516
0.97812
0.507704
0.184538
0.0379843
0.0134612
0.0108335
0.0100552
4.53483
2.71068
1.75105
1.00041
0.493453
0.177499
0.0391241
0.0137128
0.0109055
0.010071
5.00178
3.06877
1.87145
1.02569
0.477307
0.166954
0.0396927
0.0140252
0.0109962
0.0100911
5.31665
3.4509
2.0377
1.07011
0.466309
0.153832
0.0392553
0.0143647
0.0110965
0.0101141
5.34679
3.73378
2.18658
1.10333
0.449834
0.134848
0.0361706
0.0145114
0.0111465
0.0101195
5.20497
4.00083
2.42432
1.21061
0.468651
0.127438
0.0359035
0.0145199
0.0104695
0.0100031
4.94917
3.95648
2.48497
1.22998
0.441162
0.0917959
0.0178005
0.0100302
0.0151707
0.0350852
5.33978
3.37022
2.16605
1.01695
0.32371
0.0364841
0.0264089
0.101788
0.182443
0.246619
4.91213
3.04529
2.22209
1.14386
0.485927
0.172641
0.212404
0.308081
0.366072
0.408028
4.54043
3.60808
2.63709
1.57626
0.807229
0.39524
0.343678
0.421403
0.490952
0.54329
5.10582
4.73407
3.31687
2.12604
1.18025
0.64772
0.518714
0.564581
0.622414
0.667519
6.25276
5.66627
4.04977
2.65879
1.56854
0.93299
0.710791
0.699174
0.73594
0.770966
7.26317
6.37452
4.71437
3.15194
1.94657
1.22313
0.916008
0.838635
0.843065
0.859976
8.00058
6.91321
5.26218
3.59153
2.30297
1.51152
1.12615
0.978035
0.942338
0.935168
8.51892
7.3313
5.69904
3.97382
2.6314
1.78405
1.32572
1.10722
1.02806
0.994724
8.93094
7.69105
6.05028
4.28742
2.94516
2.07466
1.54959
1.25412
1.12282
1.05348
6.51289
6.43967
6.43051
6.44891
6.48766
6.53042
6.58263
6.71125
6.89603
6.82709
0.26102
1.05795
2.00897
2.92459
3.70613
4.31941
4.73686
4.98718
5.22725
5.73357
3.8502
3.54314
3.28345
3.10976
3.10484
3.24907
3.47239
3.71499
4.16811
4.85029
6.64472
6.62768
6.53739
6.34454
6.04236
5.65577
5.24608
4.89129
4.73405
4.54454
7.69214
7.67683
7.63242
7.54159
7.39639
7.18995
6.92676
6.61843
6.28376
5.65226
8.44969
8.43329
8.39452
8.32791
8.2298
8.09698
7.92866
7.71709
7.42801
6.90751
8.93976
8.92402
8.89037
8.83688
8.76177
8.66304
8.53834
8.37916
8.15498
7.80902
9.27302
9.25984
9.23249
9.18989
9.13056
9.0525
8.95276
8.82491
8.65296
8.43114
9.50447
9.49418
9.47308
9.44025
9.39427
9.3332
9.25425
9.15289
9.02292
8.87541
9.68989
9.68284
9.66852
9.64603
9.61404
9.57069
9.5136
9.43974
9.34635
9.24407
7.25075
7.52783
7.83733
8.08739
8.34424
8.59904
8.84094
9.06132
9.25452
9.46037
7.58453
7.94866
8.24089
8.48075
8.70891
8.92444
9.12205
9.29889
9.45392
9.61816
7.49941
7.95765
8.32577
8.62016
8.87541
9.09747
9.2879
9.44946
9.58538
9.72233
7.44751
7.95777
8.3736
8.70175
8.97635
9.2058
9.39463
9.54804
9.67133
9.78828
7.45673
7.98074
8.41849
8.76473
9.0504
9.28347
9.46974
9.61591
9.72871
9.83025
7.48264
8.01171
8.46394
8.82137
9.11227
9.34471
9.52605
9.66448
9.76798
9.85767
7.50375
8.03786
8.50273
8.86858
9.16194
9.39189
9.56764
9.69892
9.79481
9.87572
7.5112
8.05246
8.5287
8.90208
9.19746
9.42522
9.59642
9.72215
9.81245
9.8873
7.49841
8.05047
8.53743
8.91899
9.2177
9.44505
9.61374
9.73608
9.82291
9.89406
7.48292
8.04361
8.53595
8.92347
9.22528
9.45333
9.62126
9.74219
9.82747
9.89695
2.51514
2.47635
2.50106
2.70741
2.8624
2.46719
1.63931
1.15876
1.49993
4.06673
2.93902
2.85083
2.69788
2.70632
3.09149
3.38743
2.76062
1.85961
2.07935
5.0769
3.45255
3.40552
3.24623
3.06539
3.27036
3.82153
3.77961
3.11606
3.23306
5.42057
3.96397
3.95094
3.92015
3.8075
3.8981
4.3219
4.58258
4.44147
4.62066
5.88261
4.52226
4.49425
4.56573
4.63126
4.7887
5.11699
5.43497
5.60536
5.87518
6.61182
5.12239
5.07937
5.21512
5.40782
5.66288
5.98193
6.30639
6.5888
6.8912
7.39727
5.66919
5.63193
5.82884
6.09688
6.41021
6.7407
7.06663
7.37481
7.67473
8.08309
6.07731
6.06126
6.32077
6.64481
6.99518
7.33871
7.66562
7.97235
8.2573
8.61008
6.26773
6.28488
6.63368
7.02643
7.41938
7.78315
8.11542
8.41562
8.68213
8.98781
6.60542
6.5738
6.95749
7.37946
7.78058
8.14216
8.46569
8.74987
8.99275
9.25194
0.0926988
0.126587
0.0595153
0.0244842
0.0120297
0.267366
0.826724
1.40419
1.89482
2.38803
0.0607952
0.12003
0.0598487
0.0262087
0.0154659
0.269761
0.851853
1.48992
1.99822
2.67787
0.0409148
0.120564
0.0632372
0.0319902
0.0255365
0.289317
0.887509
1.56773
2.09547
3.01312
0.0297337
0.126543
0.0691525
0.0416349
0.043952
0.320962
0.927349
1.63274
2.22058
3.41568
0.024414
0.136651
0.0770005
0.0542751
0.0689133
0.358128
0.965303
1.69165
2.4103
3.89088
0.0230091
0.149804
0.0860344
0.0684754
0.0969596
0.395324
1.00101
1.76405
2.67947
4.38681
0.0249145
0.165275
0.0954819
0.0822224
0.123299
0.426775
1.03555
1.86585
3.00908
4.81454
0.0312334
0.182981
0.10467
0.0944928
0.146983
0.457706
1.09084
2.02526
3.37269
5.09651
0.0463006
0.203408
0.113439
0.101645
0.157408
0.469821
1.13203
2.17358
3.64802
5.09807
0.0757208
0.225895
0.123752
0.110003
0.180507
0.523207
1.26792
2.43021
3.89805
4.90569
0.134027
0.255794
0.141861
0.11245
0.170312
0.509197
1.3162
2.5393
3.90582
4.68832
0.239597
0.292367
0.141903
0.0999655
0.107505
0.366302
1.14456
2.32803
3.45418
5.20963
0.405028
0.296749
0.131771
0.0320056
0.0164561
0.24379
1.07729
2.31808
3.24783
4.94753
0.657869
0.290224
0.0309717
0.0812458
0.135761
0.433066
1.33877
2.55805
3.67393
4.68451
1.03555
0.0768046
0.228793
0.329374
0.392666
0.835214
1.87917
3.16082
4.67936
5.15968
1.51013
0.0797208
0.542086
0.520353
0.683837
1.28144
2.44862
3.89737
5.5886
6.21799
2.18254
0.688913
0.861258
0.806188
1.0382
1.74043
2.9866
4.58794
6.301
7.21646
3.78667
1.68677
1.29009
1.14633
1.41477
2.17486
3.46939
5.16629
6.85522
7.96952
6.85866
3.5727
1.98051
1.51889
1.77318
2.56521
3.89136
5.63538
7.29638
8.50752
9.04891
6.3849
2.87026
2.08237
2.2018
2.95394
4.25307
6.02557
7.68708
8.93789
6.63058
6.69254
6.51481
6.39217
6.35091
6.32393
6.30632
6.3177
6.36207
6.47633
5.54289
5.02357
4.77774
4.53466
4.13468
3.54698
2.8034
1.93533
1.04659
0.284905
4.85878
4.24068
3.82812
3.61474
3.4258
3.30514
3.3101
3.45355
3.65282
3.87311
4.7014
4.87377
5.01761
5.32976
5.69706
6.04999
6.33332
6.52172
6.61718
6.64223
5.67819
6.28027
6.60929
6.91015
7.17224
7.38182
7.5323
7.62862
7.67711
7.69274
6.86421
7.38823
7.68466
7.90279
8.07709
8.21528
8.31817
8.38885
8.43079
8.44909
7.76562
8.12097
8.3524
8.51827
8.64824
8.7512
8.82973
8.88596
8.92175
8.93909
8.40494
8.63293
8.80905
8.94105
9.0441
9.12472
9.18601
9.2301
9.25858
9.27263
8.86621
9.0162
9.1476
9.25058
9.33081
9.39281
9.43943
9.47267
9.494
9.50442
9.24851
9.3503
9.44289
9.51621
9.57287
9.61583
9.64744
9.66954
9.68346
9.6901
9.50918
8.98485
8.23524
6.92757
5.59756
0.131169
3.36045
5.95979
7.21333
8.15118
9.46511
8.92104
8.16745
6.88987
5.54897
0.563709
2.62188
5.70545
6.91565
7.91322
9.36532
8.78224
8.01955
6.80884
5.36586
1.60335
1.41326
5.20612
6.30855
7.40248
9.18209
8.54445
7.77368
6.65427
5.18582
2.73983
0.722844
4.23789
5.4208
6.57057
8.8675
8.17277
7.40307
6.37597
5.02576
3.36766
0.970792
2.63105
4.31622
5.39284
8.34968
7.62871
6.8723
5.91614
4.76416
3.43945
1.71924
1.30149
3.04844
3.98715
7.53496
6.89538
6.15422
5.22619
4.2984
3.26875
2.14304
1.17272
1.65526
2.55627
6.32421
6.03613
5.27983
4.23035
3.53183
2.91141
2.11833
1.43586
1.06853
1.23391
4.63102
5.2305
4.47265
2.99839
2.43574
2.27312
1.85585
1.3857
1.12353
0.658917
2.67349
4.53731
4.01917
1.96607
1.39639
1.48798
1.41038
1.21304
1.06511
0.846439
1.27848
3.78634
3.66333
1.33734
0.816765
0.898864
0.973074
0.958405
0.973274
1.02105
0.615216
2.96625
3.07861
0.958475
0.577427
0.643021
0.763134
0.823621
0.847028
0.879672
0.356705
2.18211
2.27948
0.692332
0.496816
0.599581
0.730503
0.814741
0.852117
0.876665
0.266317
1.53762
1.47824
0.525872
0.539102
0.677357
0.790072
0.860943
0.884285
0.89461
0.240567
1.00285
0.832283
0.51469
0.669532
0.802061
0.902479
0.965856
0.981684
0.978899
0.243315
0.482598
0.488835
0.628239
0.809161
0.946527
1.04434
1.10224
1.1129
1.10499
0.177562
0.199115
0.495655
0.740828
0.95825
1.10504
1.1958
1.24313
1.25965
1.26017
0.0454769
0.244156
0.63384
0.903228
1.11758
1.23621
1.31167
1.38011
1.43584
1.45745
0.0564956
0.482477
0.80754
1.08272
1.21674
1.32116
1.467
1.62393
1.71174
1.72784
0.6645
0.850503
1.03605
1.17988
1.30981
1.57451
1.88582
2.05891
2.06301
2.03036
0.363048
0.079692
0.2208
0.545766
0.783775
0.866205
0.857653
0.840301
0.837835
0.855825
0.463793
0.205965
0.313662
0.51218
0.708993
0.7796
0.770114
0.75683
0.759615
0.781548
0.528171
0.371998
0.433481
0.500294
0.633726
0.692577
0.682268
0.67139
0.678299
0.702601
0.63983
0.582348
0.586597
0.538845
0.561737
0.597522
0.58876
0.582262
0.593724
0.619442
0.802165
0.790713
0.727977
0.61807
0.510036
0.501215
0.492444
0.49028
0.505563
0.531564
0.998686
0.979534
0.854076
0.71175
0.492397
0.409338
0.394379
0.39667
0.415145
0.440698
1.20954
1.14522
0.9616
0.791153
0.506473
0.332011
0.29712
0.29962
0.319259
0.342883
1.42926
1.29675
1.05569
0.844796
0.531991
0.27955
0.205685
0.207214
0.226923
0.248108
1.66148
1.44268
1.14299
0.875501
0.549148
0.251397
0.126807
0.104529
0.118357
0.135237
1.90855
1.58567
1.23045
0.892862
0.552958
0.233179
0.0744033
0.0314558
0.0274447
0.0263212
2.00878
0.74813
0.722486
0.967235
1.19496
1.2803
1.27091
1.23717
1.20505
1.18639
1.39408
0.484514
0.584528
0.876542
1.10592
1.19032
1.1827
1.15395
1.12953
1.11992
0.751171
0.289792
0.486438
0.798985
1.03058
1.11472
1.10793
1.08273
1.06423
1.06179
0.252241
0.174516
0.409579
0.725913
0.953902
1.03424
1.02623
1.00393
0.991297
0.996319
0.433992
0.0333879
0.26963
0.611419
0.856376
0.945552
0.940742
0.921992
0.915021
0.927362
9.35428
9.28966
9.14053
8.8725
8.43678
7.7779
6.87016
5.75809
4.58094
3.53637
9.19205
9.09518
8.88054
8.51095
7.94061
7.13536
6.10837
4.9538
3.84363
2.78603
9.02339
8.89973
8.62598
8.16025
7.46078
6.515
5.37014
4.16739
3.08019
1.94172
8.81577
8.6616
8.32079
7.74706
6.90514
5.81311
4.55376
3.29357
2.22458
1.08867
8.58689
8.37872
7.92506
7.17653
6.11149
4.791
3.34944
2.0838
0.992086
0.301232
1.0637
1.02847
1.0218
1.02584
0.920047
0.803045
1.29601
3.67571
3.85273
1.32695
0.954062
0.939264
0.932932
0.877815
0.725512
0.594568
0.917203
3.13082
3.09698
0.650477
0.990839
0.987451
0.971126
0.898446
0.754199
0.593584
0.708521
2.35475
2.32332
0.379394
1.05526
1.06652
1.0621
1.00264
0.893568
0.748639
0.666029
1.53252
1.60039
0.278556
1.18052
1.20349
1.20837
1.16083
1.07195
0.949673
0.787741
0.885999
0.887217
0.247475
1.33444
1.35365
1.36123
1.33428
1.2625
1.12911
0.909869
0.65041
0.34623
0.214536
1.52359
1.51955
1.4887
1.44631
1.39112
1.27808
1.03945
0.725452
0.26592
0.0653483
1.77462
1.76635
1.68488
1.53914
1.40632
1.30796
1.16403
0.85949
0.473281
0.0458689
2.04663
2.08981
2.08021
1.88641
1.55974
1.29098
1.16024
1.01811
0.812042
0.646901
2.25939
2.30727
2.42557
2.45863
2.14703
1.56976
1.15382
1.05106
1.26838
1.91841
8.15098
7.21297
5.95944
3.35995
0.131426
5.5961
6.92708
8.23504
8.98487
9.50928
7.91254
6.91455
5.70445
2.62126
0.563589
5.54511
6.88842
8.16687
8.92109
9.46542
7.40103
6.30668
5.20434
1.41511
1.59968
5.36135
6.80657
8.01867
8.78237
9.36591
6.56793
5.41792
4.23565
0.725987
2.73164
5.18108
6.6514
7.77269
8.54478
9.18312
5.38843
4.31167
2.63166
0.971078
3.35647
5.01979
6.37249
7.4021
8.1735
8.86927
3.97858
3.04014
1.30928
1.71402
3.42634
4.75528
5.91129
6.87133
7.63013
8.35271
2.53901
1.65122
1.18804
2.13392
3.25029
4.28174
5.21744
6.15308
6.89803
7.54046
1.21418
1.08759
1.45398
2.10837
2.87959
3.50178
4.21619
5.27993
6.04141
6.33552
0.671093
1.15511
1.40976
1.84382
2.23183
2.40018
2.98332
4.47609
5.24029
4.6567
0.887855
1.10515
1.25094
1.41607
1.46609
1.37078
1.94387
4.02105
4.56043
2.72012
2.08375
0.538996
1.04528
0.678787
0.715669
0.76671
0.628347
0.296716
0.0663823
0.358122
1.62183
0.242912
0.846584
0.527149
0.619408
0.684213
0.582369
0.35248
0.27154
0.491793
1.32762
0.0472167
0.617718
0.387779
0.525187
0.597548
0.544838
0.456648
0.475084
0.594963
1.08285
0.0193836
0.363203
0.273794
0.431561
0.506192
0.541841
0.621105
0.725568
0.759265
0.827552
0.103242
0.17318
0.189285
0.341165
0.422055
0.587035
0.790348
0.955135
0.970157
0.614067
0.166177
0.0333843
0.109453
0.253395
0.360485
0.666116
0.942976
1.15898
1.2044
0.441234
0.198012
0.0549997
0.0129096
0.172075
0.332289
0.741793
1.06511
1.3343
1.44448
0.308788
0.188523
0.0676435
0.0215808
0.0741083
0.325725
0.788453
1.16072
1.49096
1.68387
0.210708
0.165055
0.0666741
0.0295765
0.0232185
0.308997
0.807197
1.24115
1.63656
1.91576
0.140838
0.141781
0.0621361
0.0263771
0.0126834
0.282752
0.81424
1.31999
1.77283
2.14118
9.33648
6.76971
2.67449
1.74113
1.25133
1.15646
0.996553
0.800514
0.803369
2.0345
8.21076
4.63521
2.2201
1.46101
1.12315
1.06808
0.916621
0.666906
0.533549
1.39895
6.11935
3.06241
1.7876
1.25587
1.02041
0.999177
0.851348
0.573454
0.33318
0.740465
4.13058
1.87314
1.49386
1.05058
0.915936
0.926687
0.788058
0.496036
0.232849
0.221758
2.83064
1.06058
1.23748
0.852023
0.811135
0.84104
0.689544
0.358336
0.0445734
0.396278
3.54752
4.58829
5.762
6.87228
7.77941
8.4379
8.87327
9.141
9.28992
9.35437
2.78032
3.84004
4.95111
6.10661
7.13475
7.94062
8.51116
8.88077
9.09534
9.19211
1.92762
3.07089
4.16102
5.36546
6.51249
7.45965
8.15983
8.62589
8.89975
9.02342
1.05193
2.20077
3.27999
4.54552
5.80896
6.90295
7.74594
8.32032
8.66145
8.81574
0.299005
0.958732
2.0615
3.33579
4.78398
6.10791
7.17456
7.92411
8.37835
8.5868
)
;

boundaryField
{
    left
    {
        type            calculated;
        value           nonuniform List<scalar> 
35
(
0.290871
0.568466
0.996573
1.63339
2.52854
3.69337
5.06207
6.47553
8.15841
9.44178
0.19614
0.124954
0.0834854
0.0616446
0.0513459
0.0478534
0.049902
0.0604999
0.0899912
0.152298
4.93217
4.05675
3.22715
2.50649
1.9093
1.41326
1.01241
0.70289
0.472521
0.307983
9.6157
8.97916
7.92237
6.84823
5.8594
)
;
    }
    right
    {
        type            calculated;
        value           nonuniform List<scalar> 
35
(
1.18628
1.1203
1.06276
0.998054
0.929891
0.858892
0.784874
0.705752
0.622055
0.533387
0.441568
0.342716
0.247025
0.133522
0.0253498
0.010123
0.0100159
0.0100141
0.0100138
0.0100153
0.0100187
0.010024
0.0100309
0.0100316
0.0100327
0.0402102
0.263475
0.426351
0.560865
0.682774
0.783021
0.868333
0.939897
0.996542
1.05213
)
;
    }
    down
    {
        type            calculated;
        value           nonuniform List<scalar> 
40
(
9.45422
7.26558
2.90422
1.82855
1.29037
1.1859
1.02416
0.842863
0.90426
2.2615
3.83256
4.88149
6.03268
7.09163
7.9436
8.55425
8.95389
9.1988
9.33526
9.39453
9.39443
9.33498
9.19828
8.95303
8.55294
7.9417
7.08878
6.02754
4.87214
3.81814
2.23181
0.847858
0.766069
0.999026
1.22677
1.31078
1.2995
1.26348
1.22852
1.20699
)
;
    }
    up
    {
        type            calculated;
        value           nonuniform List<scalar> 
40
(
9.034
7.80849
6.16761
4.39824
3.05355
2.17196
1.62105
1.2972
1.14905
1.07001
9.72926
9.72304
9.71044
9.69064
9.66233
9.62376
9.57261
9.50584
9.42072
9.3281
9.33485
9.42639
9.51026
9.57613
9.62657
9.66456
9.69234
9.71166
9.72377
9.7295
9.27062
7.09725
3.26138
2.22686
2.31795
3.0765
4.37638
6.15467
7.81384
9.04466
)
;
    }
    cylinder
    {
        type            calculated;
        value           nonuniform List<scalar> 
80
(
1.88032
4.48236
5.5024
5.76142
6.29802
7.08902
7.86198
8.47516
8.91271
9.21304
9.44588
9.61875
9.72984
9.79831
9.84097
9.86847
9.88651
9.89818
9.90523
9.9087
9.50056
9.65073
9.7491
9.81051
9.84903
9.87391
9.89018
9.90056
9.90658
9.90914
5.16345
6.18049
6.18998
6.29234
6.81722
7.51808
8.17315
8.68527
9.05066
9.30266
0.997853
0.473776
0.265434
0.184059
0.161206
0.16646
0.0833644
0.0412809
0.724595
2.26606
9.59422
9.55562
9.46713
9.30146
9.00924
8.51064
7.6855
6.36655
4.38982
2.24334
9.59411
9.5553
9.46652
9.30038
9.00736
8.5074
7.67947
6.35341
4.35785
2.1925
0.954401
0.443565
0.245259
0.171568
0.151202
0.166773
0.162421
0.0851392
0.0429498
0.697247
)
;
    }
    defaultFaces
    {
        type            empty;
    }
}


// ************************************************************************* //
