/*--------------------------------*- C++ -*----------------------------------*\
  =========                 |
  \\      /  F ield         | OpenFOAM: The Open Source CFD Toolbox
   \\    /   O peration     | Website:  https://openfoam.org
    \\  /    A nd           | Version:  13
     \\/     M anipulation  |
\*---------------------------------------------------------------------------*/
FoamFile
{
    format      ascii;
    class       volVectorField;
    location    "0.27";
    object      U;
}
// * * * * * * * * * * * * * * * * * * * * * * * * * * * * * * * * * * * * * //

dimensions      [0 1 -1 0 0 0 0];

internalField   nonuniform List<vector> 
1800
(
(0.0978063 -0.0883338 -4.49529e-20)
(0.286905 -0.241961 -3.41578e-20)
(0.473981 -0.379055 -4.85079e-19)
(0.657695 -0.500163 1.91461e-19)
(0.836606 -0.607165 7.42332e-20)
(1.0099 -0.701353 -3.91103e-20)
(1.17712 -0.78342 5.54979e-20)
(1.33788 -0.853597 1.9692e-19)
(1.49151 -0.912837 5.9195e-19)
(1.63342 -0.966722 8.09613e-19)
(0.119066 -0.0915068 -7.91365e-20)
(0.344301 -0.247718 -7.70628e-19)
(0.563293 -0.384759 3.78155e-21)
(0.775371 -0.504242 1.25881e-19)
(0.979506 -0.60892 -1.26338e-19)
(1.17521 -0.700681 7.66061e-20)
(1.36229 -0.780755 -2.81069e-19)
(1.54074 -0.85004 -5.01275e-20)
(1.71004 -0.910614 -6.92984e-19)
(1.86777 -0.966913 6.29244e-19)
(0.141656 -0.0923264 4.88249e-20)
(0.40369 -0.247739 2.09296e-19)
(0.653767 -0.382125 5.43403e-19)
(0.892189 -0.497911 -1.90296e-19)
(1.11866 -0.598386 -1.42993e-19)
(1.33321 -0.685805 7.564e-20)
(1.53604 -0.761685 9.83303e-20)
(1.72741 -0.827259 1.94128e-19)
(1.90717 -0.88474 2.73395e-21)
(2.07416 -0.937777 1.51018e-19)
(0.163912 -0.0897237 -4.57211e-20)
(0.46171 -0.239476 -2.04401e-19)
(0.741442 -0.367626 -1.81273e-19)
(1.00453 -0.476983 -1.42328e-19)
(1.25164 -0.571025 1.81346e-19)
(1.48352 -0.652124 -5.71025e-20)
(1.70093 -0.721893 -4.31262e-21)
(1.90453 -0.781597 2.99332e-21)
(2.09454 -0.833324 -1.60303e-19)
(2.27023 -0.880294 -1.06138e-19)
(0.184663 -0.0833589 -1.14058e-19)
(0.515906 -0.221813 8.76348e-20)
(0.82331 -0.339438 1.79867e-19)
(1.10933 -0.43907 2.43341e-19)
(1.37563 -0.524075 -2.85071e-19)
(1.62373 -0.596777 -3.58111e-21)
(1.85496 -0.65876 4.25072e-19)
(2.07044 -0.711246 -1.85059e-19)
(2.27084 -0.756137 -1.24005e-19)
(2.45578 -0.796356 -5.37122e-20)
(0.203196 -0.0735022 1.73609e-19)
(0.564485 -0.195205 1.02994e-18)
(0.896812 -0.29808 1.43266e-19)
(1.20354 -0.384741 -5.032e-19)
(1.48722 -0.458231 -1.75532e-19)
(1.75006 -0.52067 6.37787e-19)
(1.99393 -0.573521 -1.45419e-19)
(2.22038 -0.61789 -4.31693e-19)
(2.43049 -0.655427 -3.16546e-19)
(2.62421 -0.688715 2.61609e-19)
(0.218905 -0.0605931 1.16351e-19)
(0.605762 -0.160705 -7.47665e-19)
(0.959338 -0.245035 -1.08573e-18)
(1.28374 -0.315803 3.83834e-19)
(1.58226 -0.375567 4.50011e-19)
(1.85771 -0.426129 -9.02233e-22)
(2.11243 -0.468737 -6.39784e-19)
(2.34833 -0.504318 2.19333e-19)
(2.56687 -0.534201 -3.64271e-19)
(2.76831 -0.56055 -3.11075e-19)
(0.231243 -0.0451737 -3.42517e-19)
(0.638219 -0.119687 -6.92652e-19)
(1.00852 -0.182298 1.21234e-18)
(1.34681 -0.234703 5.98751e-19)
(1.65698 -0.278854 -2.69792e-19)
(1.94229 -0.316135 -2.11517e-19)
(2.20548 -0.347512 0)
(2.44879 -0.373683 1.16823e-19)
(2.67403 -0.395612 -2.95862e-19)
(2.88176 -0.414955 -7.75076e-20)
(0.239775 -0.0278763 -2.04483e-19)
(0.660674 -0.0737575 5.62464e-19)
(1.04252 -0.1122 1.7105e-19)
(1.39035 -0.14429 -5.12551e-19)
(1.70845 -0.171276 -7.84265e-19)
(2.00042 -0.194051 3.66231e-20)
(2.26929 -0.213241 1.67141e-19)
(2.51758 -0.229287 -5.46875e-19)
(2.74737 -0.242775 -2.89786e-19)
(2.95959 -0.254767 -5.63626e-19)
(0.244269 -0.00940268 4.51454e-19)
(0.672477 -0.024704 3.44203e-19)
(1.06034 -0.0373609 -9.38642e-20)
(1.41308 -0.0477866 -1.29871e-20)
(1.73519 -0.0564591 -3.87542e-19)
(2.03047 -0.0637188 -8.57782e-20)
(2.30211 -0.0698045 -2.90567e-19)
(2.55282 -0.0748837 6.46639e-19)
(2.78487 -0.0791636 1.71e-19)
(2.99951 -0.0830038 2.28206e-21)
(-0.00240567 -0.0219401 -2.52759e-20)
(0.00875163 -0.0691904 -7.63328e-20)
(0.0249349 -0.119553 -7.20133e-21)
(0.0492725 -0.169927 -3.52335e-20)
(0.0776631 -0.215399 -1.2685e-20)
(0.106547 -0.253639 -3.89499e-19)
(0.135555 -0.287548 -1.77456e-20)
(0.166291 -0.320763 1.16066e-19)
(0.199074 -0.354174 1.13062e-20)
(0.232939 -0.386451 -3.72745e-20)
(0.000791481 -0.0247019 -9.65724e-20)
(0.0149247 -0.0848389 -2.02667e-19)
(0.0392495 -0.159428 -6.22021e-20)
(0.0693003 -0.22422 -1.1062e-19)
(0.0996683 -0.274537 -1.0012e-19)
(0.130694 -0.316917 -2.79148e-19)
(0.164705 -0.357791 1.97062e-19)
(0.202368 -0.399084 1.62908e-19)
(0.241896 -0.43892 -2.54124e-19)
(0.281436 -0.475223 8.05262e-20)
(0.00545197 -0.0314663 -8.53491e-20)
(0.0287424 -0.107217 -8.54771e-19)
(0.0628331 -0.19557 -1.26174e-19)
(0.0975395 -0.268267 9.55001e-20)
(0.132002 -0.326394 6.78034e-20)
(0.16989 -0.379321 -4.49306e-19)
(0.213221 -0.431223 3.3492e-20)
(0.259472 -0.480629 3.64787e-19)
(0.305881 -0.525015 -3.84575e-19)
(0.351876 -0.56432 -2.57482e-19)
(0.0113486 -0.0409797 -2.0714e-21)
(0.0466214 -0.130777 1.88852e-19)
(0.0896516 -0.225039 1.94272e-21)
(0.133138 -0.306577 -1.20659e-20)
(0.177913 -0.377274 -3.02084e-20)
(0.227426 -0.443128 8.92988e-20)
(0.281334 -0.504775 7.37624e-20)
(0.335958 -0.559942 -1.35895e-19)
(0.390067 -0.608324 9.21142e-21)
(0.444271 -0.650789 -1.04157e-20)
(0.0185018 -0.0507807 0)
(0.0672432 -0.152392 5.48729e-21)
(0.121949 -0.253495 -5.04342e-19)
(0.178728 -0.345224 4.85403e-20)
(0.23788 -0.428213 -1.57263e-20)
(0.300626 -0.504604 9.05701e-21)
(0.365449 -0.573765 -2.62766e-20)
(0.429971 -0.634703 -7.67493e-21)
(0.494133 -0.688 0)
(0.558344 -0.733908 -2.05536e-20)
(0.0273279 -0.0596668 3.17057e-20)
(0.0919049 -0.17286 -1.53417e-19)
(0.161776 -0.282478 -4.4544e-20)
(0.234646 -0.383777 -5.8874e-20)
(0.309765 -0.476556 4.98299e-20)
(0.386775 -0.561236 2.5968e-21)
(0.464285 -0.637289 9.51462e-20)
(0.540984 -0.704417 -2.18439e-20)
(0.616959 -0.76281 -6.98057e-19)
(0.69221 -0.811916 -1.01032e-20)
(0.0379825 -0.0676222 6.9903e-22)
(0.12125 -0.1922 5.659e-20)
(0.209174 -0.310618 -7.92986e-20)
(0.299933 -0.420138 -1.68281e-20)
(0.392137 -0.520574 -7.27593e-20)
(0.484769 -0.611957 -1.15578e-20)
(0.576681 -0.694063 7.78353e-21)
(0.66691 -0.766784 -2.14186e-19)
(0.755483 -0.829805 3.84602e-19)
(0.84226 -0.881768 9.7268e-19)
(0.0503703 -0.0746157 1.53075e-20)
(0.155143 -0.209634 -1.42632e-19)
(0.263471 -0.335981 -2.14664e-19)
(0.37367 -0.452105 8.93472e-20)
(0.48409 -0.558223 -6.43289e-20)
(0.593515 -0.654522 1.00623e-19)
(0.700894 -0.741114 1.99256e-19)
(0.805338 -0.818058 -1.10599e-19)
(0.906928 -0.884785 -3.06623e-19)
(1.00557 -0.939117 7.26283e-19)
(0.0642979 -0.0803704 -2.63115e-20)
(0.193297 -0.224046 -5.78177e-19)
(0.324304 -0.356577 5.24578e-19)
(0.455681 -0.477235 3.37821e-19)
(0.585721 -0.586727 -8.60863e-20)
(0.713189 -0.685605 3.09705e-19)
(0.837073 -0.774331 -1.60122e-19)
(0.956484 -0.853296 -7.75594e-19)
(1.07162 -0.921805 -4.04281e-19)
(1.18254 -0.976977 4.5436e-19)
(0.0795515 -0.0846733 -7.98666e-20)
(0.235855 -0.234431 -5.44265e-19)
(0.392399 -0.370538 -8.04702e-21)
(0.547541 -0.492801 6.85933e-20)
(0.699581 -0.602453 3.37957e-19)
(0.847363 -0.700398 -1.85561e-19)
(0.989965 -0.787372 -1.69875e-19)
(1.12646 -0.863713 1.89435e-19)
(1.25671 -0.928481 -3.52061e-19)
(1.37994 -0.980129 -5.85248e-19)
(0.402714 -0.530112 1.04092e-18)
(0.683894 -0.615065 -3.75363e-19)
(0.910888 -0.552294 -1.77114e-19)
(1.08021 -0.424726 3.21122e-19)
(1.22456 -0.273624 -2.5701e-19)
(1.33141 -0.134449 -2.78379e-19)
(1.40162 -0.051869 -2.4782e-19)
(1.43599 -0.0228897 -3.75567e-20)
(1.45648 -0.0149415 2.21257e-19)
(1.47368 -0.00695784 3.99242e-20)
(0.469263 -0.617898 1.00847e-18)
(0.741539 -0.690187 1.00288e-19)
(0.965 -0.61148 1.0498e-20)
(1.11976 -0.472089 -2.72451e-19)
(1.25188 -0.310418 -9.03073e-19)
(1.34923 -0.159852 0)
(1.4101 -0.0659494 -2.35505e-19)
(1.43965 -0.0306112 6.93538e-20)
(1.45856 -0.0196728 5.54557e-21)
(1.47407 -0.00906899 -7.02434e-20)
(0.55684 -0.703603 -1.00583e-18)
(0.811454 -0.763047 -7.95519e-20)
(1.02543 -0.668838 1.7282e-19)
(1.1635 -0.517475 -5.13165e-20)
(1.28035 -0.345675 -3.31511e-20)
(1.36669 -0.183507 6.69032e-20)
(1.4173 -0.0788051 0)
(1.44319 -0.0379354 0)
(1.46071 -0.0242376 -7.75689e-20)
(1.47471 -0.0110563 0)
(0.666251 -0.78551 -2.24153e-19)
(0.896445 -0.831697 3.97331e-19)
(1.09247 -0.723364 2.65213e-20)
(1.21162 -0.560162 0)
(1.31016 -0.378972 7.26206e-19)
(1.38405 -0.205371 -1.78133e-19)
(1.4246 -0.0907135 0)
(1.4472 -0.0447851 1.76898e-19)
(1.46335 -0.0284454 0)
(1.4759 -0.0128306 2.12015e-20)
(0.796071 -0.862418 -1.48999e-19)
(0.99832 -0.894104 4.36922e-19)
(1.16683 -0.773856 -1.47446e-20)
(1.26405 -0.59946 0)
(1.34134 -0.409885 1.96928e-19)
(1.40126 -0.225505 3.27858e-19)
(1.43229 -0.101752 5.40154e-20)
(1.45167 -0.051165 8.94207e-21)
(1.46644 -0.0322684 -4.29079e-20)
(1.47761 -0.0144088 3.3639e-20)
(0.942347 -0.933517 -1.30379e-18)
(1.11687 -0.948839 -9.09028e-19)
(1.24928 -0.818944 4.8422e-21)
(1.32059 -0.634629 5.27119e-19)
(1.3738 -0.437935 -2.93937e-19)
(1.41802 -0.243936 1.62107e-19)
(1.44033 -0.112043 2.65724e-19)
(1.45654 -0.057135 -2.29964e-19)
(1.46994 -0.0357169 -2.14391e-21)
(1.4798 -0.0158048 -5.20224e-21)
(1.10002 -0.998404 -2.5476e-19)
(1.25009 -0.995653 2.76577e-19)
(1.34025 -0.857398 3.95064e-21)
(1.38118 -0.664853 -1.55906e-20)
(1.40745 -0.462534 -5.23673e-19)
(1.43402 -0.260582 5.16333e-20)
(1.44854 -0.121657 -1.01176e-19)
(1.4618 -0.0627455 -3.85234e-20)
(1.47382 -0.0387942 1.81036e-20)
(1.48243 -0.0170567 -2.30899e-20)
(1.26411 -1.05597 -1.20597e-18)
(1.39455 -1.03513 2.02866e-19)
(1.43885 -0.888541 0)
(1.4451 -0.689518 2.84161e-20)
(1.44175 -0.483196 4.43535e-19)
(1.4486 -0.275431 -5.70253e-22)
(1.4564 -0.130725 -3.01732e-19)
(1.46737 -0.0680734 5.96715e-20)
(1.47803 -0.0415134 -4.08408e-22)
(1.4855 -0.018195 2.07265e-21)
(1.43172 -1.10279 3.39332e-18)
(1.54765 -1.06818 2.55409e-19)
(1.545 -0.913046 4.43873e-19)
(1.51285 -0.708853 -2.83197e-20)
(1.47707 -0.499941 -3.11808e-20)
(1.46174 -0.288664 -3.60183e-19)
(1.46355 -0.1394 7.39615e-20)
(1.47317 -0.0729987 4.48907e-21)
(1.48252 -0.0437813 -3.47943e-20)
(1.48896 -0.0191965 -5.01349e-20)
(1.59894 -1.12764 -3.00232e-18)
(1.70131 -1.09369 1.28374e-18)
(1.6531 -0.933555 -2.06342e-19)
(1.58069 -0.726227 -7.11118e-19)
(1.51114 -0.516071 -5.83499e-19)
(1.4717 -0.303326 -2.20617e-19)
(1.46772 -0.150196 -5.09454e-20)
(1.47801 -0.0788118 0)
(1.48667 -0.046205 1.64758e-20)
(1.49209 -0.0202318 -4.67281e-21)
(1.88784 -1.16965 -6.74321e-18)
(1.92668 -1.10321 -1.71809e-18)
(1.80369 -0.927691 -3.0532e-20)
(1.67183 -0.717813 1.10083e-19)
(1.55594 -0.512665 1.78709e-19)
(1.48578 -0.308186 -1.11602e-19)
(1.47543 -0.158635 -1.07757e-20)
(1.48332 -0.083992 1.52597e-20)
(1.48243 -0.0466444 -1.99126e-20)
(1.47543 -0.0201229 1.31117e-20)
(2.28886 -1.134 4.95392e-19)
(2.17801 -1.05451 -2.34886e-19)
(1.94214 -0.861041 6.57177e-19)
(1.73736 -0.656628 -1.36495e-19)
(1.56841 -0.465873 3.25651e-19)
(1.46895 -0.285962 5.67671e-20)
(1.4432 -0.151715 2.5702e-20)
(1.41741 -0.0770586 -9.79783e-21)
(1.39382 -0.0394809 6.8071e-20)
(1.37573 -0.0183506 5.65303e-20)
(2.61035 -1.04281 2.26861e-18)
(2.35242 -0.947304 3.26977e-19)
(2.01079 -0.756585 -1.2098e-19)
(1.74058 -0.567007 2.3e-37)
(1.52245 -0.397974 -2.81492e-20)
(1.3788 -0.251196 1.31729e-33)
(1.31523 -0.13869 -1.24887e-20)
(1.28469 -0.0676319 -1.87566e-33)
(1.2649 -0.0315687 9.57287e-21)
(1.25041 -0.0149062 -3.07087e-20)
(2.78751 -0.893452 3.91156e-33)
(2.3713 -0.794551 2.94793e-18)
(1.9776 -0.62822 1.81362e-18)
(1.66165 -0.464592 0)
(1.42068 -0.324909 8.95842e-19)
(1.25641 -0.208669 4.34934e-19)
(1.17847 -0.118364 1.046e-19)
(1.14383 -0.0575358 -2.92332e-33)
(1.12397 -0.0256833 -3.97724e-20)
(1.11025 -0.0122037 2.72031e-20)
(2.76432 -0.705541 3.8477e-18)
(2.24738 -0.629139 -1.47366e-19)
(1.84944 -0.489541 0)
(1.52104 -0.358703 0)
(1.28113 -0.249103 0)
(1.11573 -0.161941 0)
(1.02831 -0.0948392 -1.13434e-20)
(0.988914 -0.0465341 -4.00594e-33)
(0.969753 -0.0198226 9.03941e-21)
(0.957596 -0.00942997 3.06267e-33)
(2.55154 -0.516884 3.27114e-18)
(2.02084 -0.462619 0)
(1.64011 -0.35297 0)
(1.32995 -0.255149 0)
(1.10734 -0.175511 0)
(0.954231 -0.114992 0)
(0.867345 -0.0696576 3.18691e-20)
(0.825806 -0.0350337 -2.25333e-20)
(0.807122 -0.0145264 9.15808e-21)
(0.796135 -0.00693383 5.00352e-20)
(2.19027 -0.342693 0)
(1.70296 -0.303444 1.10689e-18)
(1.36201 -0.227368 1.10627e-18)
(1.09301 -0.161214 0)
(0.90238 -0.109837 7.00147e-19)
(0.772479 -0.0726473 4.15988e-19)
(0.69477 -0.0455783 2.14373e-19)
(0.654746 -0.0236424 3.8414e-20)
(0.637175 -0.00962794 2.75465e-20)
(0.627479 -0.00465464 5.67306e-21)
(1.7029 -0.191146 -6.73607e-19)
(1.30029 -0.165589 -2.73673e-19)
(1.02534 -0.121684 1.75003e-19)
(0.815899 -0.0840998 -2.16438e-34)
(0.670065 -0.0567756 -7.86474e-20)
(0.571783 -0.038096 3.69569e-33)
(0.510548 -0.0249007 5.00441e-20)
(0.476569 -0.0134054 9.07335e-20)
(0.461408 -0.00538582 9.39314e-21)
(0.453311 -0.00268299 -1.74628e-20)
(1.10088 -0.0758278 3.4067e-18)
(0.823164 -0.0626819 -1.85903e-19)
(0.640656 -0.0442786 -5.88391e-19)
(0.506461 -0.0288839 0)
(0.415049 -0.0190729 -6.37686e-19)
(0.353928 -0.0131314 -4.18118e-19)
(0.314416 -0.00918333 -1.67447e-19)
(0.290957 -0.00527804 -1.00202e-19)
(0.280159 -0.00215423 8.59958e-20)
(0.274504 -0.00114298 7.55487e-21)
(0.397338 -0.00331925 0)
(0.287846 0.00159146 0)
(0.220886 0.00407973 0)
(0.173623 0.00618742 0)
(0.142809 0.00573323 0)
(0.122414 0.00442922 0)
(0.10854 0.0030179 5.74275e-20)
(0.0995216 0.00181805 -1.93397e-34)
(0.0950441 0.00103962 1.12104e-20)
(0.0925932 0.000328516 1.8962e-20)
(3.36717 -0.0863031 5.39103e-19)
(3.32648 -0.26507 -8.41869e-20)
(3.2474 -0.430632 8.52034e-19)
(3.13242 -0.582123 -6.05047e-19)
(2.98635 -0.718074 6.66176e-19)
(2.81522 -0.836308 2.74762e-19)
(2.62656 -0.933952 -1.92944e-18)
(2.42943 -1.0077 -7.68121e-20)
(2.22456 -1.05347 0)
(1.9847 -1.06628 4.27708e-19)
(3.86197 -0.0750502 7.07317e-18)
(3.79863 -0.234184 1.95626e-18)
(3.7043 -0.387267 -4.86632e-18)
(3.58426 -0.531931 -4.48786e-19)
(3.44237 -0.66581 3.55729e-18)
(3.28181 -0.7872 1.92226e-18)
(3.10641 -0.894896 -5.16488e-18)
(2.92191 -0.987459 -1.95042e-18)
(2.7274 -1.06305 2.20133e-18)
(2.49212 -1.12006 8.52122e-19)
(3.83317 -0.0532887 -1.26193e-19)
(3.82034 -0.171538 4.40423e-18)
(3.78557 -0.299724 -1.0888e-18)
(3.72446 -0.430874 -3.44614e-18)
(3.6363 -0.558669 -6.80174e-18)
(3.52381 -0.678709 1.02767e-17)
(3.39124 -0.788651 4.17939e-18)
(3.24352 -0.887773 -3.9092e-18)
(3.08156 -0.978407 -2.90065e-18)
(2.88711 -1.06256 -3.42188e-18)
(3.62872 -0.047263 -4.83928e-18)
(3.61967 -0.144908 -4.35357e-18)
(3.5997 -0.243714 5.47268e-18)
(3.56745 -0.343057 1.91224e-18)
(3.52254 -0.442322 -8.97415e-18)
(3.46434 -0.540729 4.9258e-19)
(3.39207 -0.636938 3.88772e-18)
(3.30541 -0.730286 -1.05469e-18)
(3.20531 -0.822873 1.27732e-18)
(3.08338 -0.914522 2.81496e-19)
(3.34409 -0.0365573 -9.15957e-19)
(3.33904 -0.111641 3.00402e-18)
(3.32715 -0.188667 1.61943e-18)
(3.3075 -0.267165 -1.89347e-18)
(3.27993 -0.346062 -2.00153e-18)
(3.24475 -0.424118 -2.43574e-18)
(3.20218 -0.500293 3.80033e-19)
(3.15197 -0.574417 1.38482e-19)
(3.09578 -0.647635 -2.14124e-18)
(3.03326 -0.721133 -2.03627e-18)
(2.96259 -0.0265354 -1.82242e-18)
(2.95983 -0.0798757 -5.87125e-20)
(2.95333 -0.134592 -1.63748e-18)
(2.94243 -0.190901 3.12163e-19)
(2.92679 -0.248552 5.36763e-18)
(2.90634 -0.306934 -3.66917e-19)
(2.88098 -0.365119 4.43707e-20)
(2.85032 -0.422056 -2.60884e-18)
(2.81657 -0.476862 -3.49675e-18)
(2.7862 -0.529813 3.71918e-19)
(2.48714 -0.0174959 -2.89199e-20)
(2.48579 -0.0519248 -8.14292e-19)
(2.4826 -0.0872429 -2.6148e-18)
(2.47709 -0.12377 -3.43091e-18)
(2.46882 -0.161536 2.49643e-18)
(2.45747 -0.200272 1.50213e-18)
(2.44264 -0.239359 -1.38491e-18)
(2.42374 -0.277798 1.62429e-18)
(2.4028 -0.314489 -4.29943e-19)
(2.38961 -0.349541 -9.6391e-19)
(1.91464 -0.00967897 7.72437e-19)
(1.91408 -0.0282915 -8.31773e-19)
(1.91278 -0.0474367 -3.27644e-20)
(1.91032 -0.0673588 -3.47305e-20)
(1.90624 -0.0881321 -7.27418e-20)
(1.90013 -0.109618 -2.33183e-18)
(1.89151 -0.131409 -6.78608e-19)
(1.87979 -0.152788 2.62575e-18)
(1.86665 -0.17298 -6.03322e-19)
(1.86193 -0.192213 -1.35079e-18)
(1.23988 -0.00373347 -1.64276e-18)
(1.23966 -0.0106931 -8.4888e-19)
(1.23923 -0.0179001 2.33916e-18)
(1.23823 -0.0254788 -8.89752e-19)
(1.23625 -0.0334766 -6.74106e-19)
(1.23289 -0.0418339 1.35197e-18)
(1.22774 -0.050353 -1.29581e-18)
(1.22037 -0.0586689 1.28686e-18)
(1.21201 -0.0663461 -1.21014e-18)
(1.21007 -0.0735119 -4.2473e-18)
(0.454912 -0.000257587 6.6307e-19)
(0.454824 -0.0007003 7.03043e-19)
(0.45469 -0.00115903 7.48173e-19)
(0.454323 -0.0016401 1.35395e-18)
(0.453494 -0.00214035 -6.71969e-19)
(0.451981 -0.00263745 -1.29956e-18)
(0.449563 -0.00309944 6.14676e-19)
(0.445987 -0.00359328 2.48368e-20)
(0.441729 -0.00439253 -4.96525e-20)
(0.440341 -0.00504575 1.10575e-19)
(1.65318 0.99648 -2.84867e-19)
(1.51197 0.941243 1.80399e-20)
(1.35857 0.880288 -2.26171e-19)
(1.19752 0.808116 1.76815e-19)
(1.02948 0.723767 -1.93889e-19)
(0.854775 0.626953 -1.01409e-19)
(0.673744 0.516883 2.32192e-19)
(0.487042 0.392131 -3.05505e-19)
(0.295907 0.250651 3.09893e-19)
(0.101441 0.0916537 2.39095e-19)
(1.88608 0.991633 0)
(1.72944 0.934319 6.36938e-19)
(1.56066 0.872466 3.29284e-19)
(1.38217 0.801649 1.64335e-19)
(1.19446 0.719753 4.33449e-19)
(0.997505 0.625834 -8.70068e-20)
(0.791361 0.51858 -7.87073e-20)
(0.576365 0.395996 8.91934e-20)
(0.353341 0.255191 -1.04558e-18)
(0.122713 0.0943662 -1.64241e-20)
(2.09081 0.958662 1.56829e-19)
(1.92506 0.904793 0)
(1.74601 0.84627 -1.00823e-19)
(1.55486 0.779427 -3.84628e-19)
(1.35166 0.702014 5.37596e-20)
(1.13608 0.612762 3.97795e-19)
(0.907796 0.510088 -6.07387e-19)
(0.666615 0.391653 -2.00842e-19)
(0.412622 0.254063 7.83758e-19)
(0.145266 0.0947451 -1.76148e-19)
(2.28469 0.89811 1.89125e-19)
(2.11033 0.850387 1.23311e-20)
(1.92122 0.797744 2.43073e-20)
(1.71807 0.73693 3.6256e-20)
(1.50056 0.665822 -2.89826e-20)
(1.26793 0.583124 2.73542e-19)
(1.01929 0.487177 -2.06964e-19)
(0.753705 0.375548 -8.55947e-19)
(0.470299 0.244695 0)
(0.167402 0.0917047 0)
(2.46788 0.811667 -1.06929e-18)
(2.2843 0.770732 -6.07348e-19)
(2.0849 0.724995 -1.20425e-19)
(1.87002 0.671486 -6.65993e-20)
(1.63891 0.608282 0)
(1.39033 0.53414 2.40861e-19)
(1.12278 0.447447 2.67901e-19)
(0.834589 0.345852 2.86375e-19)
(0.523868 0.225967 -4.23942e-19)
(0.187921 0.0849045 -8.12719e-20)
(2.63397 0.702004 7.64858e-19)
(2.44155 0.668006 -1.39211e-19)
(2.23244 0.629645 -2.21267e-19)
(2.00666 0.58429 0)
(1.76304 0.530278 0)
(1.49991 0.466496 0)
(1.21526 0.391477 -3.90012e-20)
(0.906722 0.303104 3.7031e-19)
(0.571528 0.19836 3.79125e-19)
(0.206096 0.0746292 -3.08636e-19)
(2.7758 0.572307 -1.19244e-18)
(2.57552 0.545231 -1.48037e-18)
(2.3579 0.514515 -3.02401e-22)
(2.12264 0.477944 -1.87768e-19)
(1.86822 0.434187 -9.29e-20)
(1.59262 0.382329 -1.78936e-19)
(1.29337 0.321137 4.59208e-19)
(0.967529 0.248849 2.14866e-19)
(0.611613 0.162976 5.40144e-19)
(0.221327 0.0613439 2.02898e-19)
(2.88711 0.425726 -1.15668e-18)
(2.68031 0.405622 8.47176e-20)
(2.45581 0.382817 1.64508e-19)
(2.21302 0.355615 1.68479e-20)
(1.95009 0.323059 -3.14491e-19)
(1.66471 0.284478 -1.74298e-19)
(1.35403 0.238948 -6.21316e-19)
(1.01468 0.185149 1.18538e-19)
(0.642634 0.121243 5.14965e-20)
(0.233078 0.0456152 -6.26692e-21)
(2.96285 0.26518 1.01267e-19)
(2.75126 0.252353 3.97048e-19)
(2.52195 0.237908 -3.30306e-19)
(2.274 0.220746 3.63111e-19)
(2.00529 0.200305 3.72595e-19)
(1.71328 0.176185 4.91961e-19)
(1.39486 0.147817 -6.35812e-19)
(1.04637 0.114396 -3.24453e-19)
(0.66344 0.0748138 -4.58493e-20)
(0.240927 0.0280966 -3.27041e-19)
(3.00059 0.0935807 5.81763e-19)
(2.78619 0.088791 -1.86082e-19)
(2.55432 0.0834504 4.79602e-19)
(2.30373 0.077157 -3.10784e-19)
(2.03214 0.0697345 2.66476e-19)
(1.73684 0.0610679 6.05516e-19)
(1.41462 0.0509833 3.78939e-19)
(1.06165 0.0392381 3.0939e-19)
(0.673423 0.0255085 2.65889e-19)
(0.244664 0.00950776 5.4367e-19)
(0.238054 0.447807 -4.63962e-19)
(0.202647 0.414273 -1.78848e-19)
(0.167346 0.377528 1.36516e-19)
(0.134118 0.340285 -4.19669e-19)
(0.1046 0.304479 -1.21022e-19)
(0.0777167 0.267287 6.88427e-19)
(0.0512806 0.220877 3.36764e-19)
(0.0254754 0.156533 -1.67586e-19)
(0.00692519 0.0787343 1.07231e-19)
(-0.00120238 0.0221984 -5.97957e-20)
(0.288123 0.539704 4.05813e-19)
(0.248248 0.503073 4.50474e-19)
(0.20774 0.461239 -1.45727e-20)
(0.167548 0.414625 -1.2835e-19)
(0.131013 0.367031 -2.99272e-19)
(0.100542 0.319887 8.22243e-20)
(0.0733104 0.266855 2.19206e-19)
(0.045589 0.194786 1.59707e-19)
(0.018069 0.100468 -5.79767e-19)
(0.0026602 0.0284115 -1.22071e-19)
(0.359938 0.628544 -5.94408e-19)
(0.314012 0.588619 -4.76347e-19)
(0.268114 0.543009 2.51639e-19)
(0.22139 0.490003 1.33177e-19)
(0.175846 0.430734 -3.013e-21)
(0.136323 0.369108 -1.36011e-19)
(0.102137 0.303425 -2.50414e-20)
(0.0683534 0.223227 -5.58513e-19)
(0.0334463 0.124781 -2.70347e-19)
(0.00750236 0.0372858 -3.92925e-20)
(0.454775 0.713574 4.98642e-19)
(0.400537 0.669672 1.64409e-19)
(0.346736 0.618979 -1.47025e-19)
(0.292468 0.560293 6.51726e-20)
(0.237868 0.492639 9.95188e-23)
(0.186633 0.418495 2.39791e-21)
(0.140113 0.338846 -1.26552e-19)
(0.0954185 0.248963 3.85e-19)
(0.0512945 0.146841 -4.21973e-19)
(0.0134622 0.0473148 -6.67873e-20)
(0.572423 0.794062 -2.81548e-19)
(0.508213 0.746287 -8.91507e-20)
(0.443861 0.689814 -1.39459e-20)
(0.379162 0.624507 -6.45337e-20)
(0.313815 0.549692 5.56285e-20)
(0.249677 0.466255 4.79189e-20)
(0.188352 0.375367 -2.60638e-20)
(0.129266 0.27572 -2.85395e-19)
(0.0724241 0.167039 2.19998e-19)
(0.0208228 0.0565922 8.80041e-20)
(0.709547 0.867796 6.45404e-19)
(0.63447 0.816732 3.25037e-19)
(0.558204 0.754947 2.11097e-19)
(0.480894 0.683292 4.78811e-20)
(0.402411 0.601862 1.48314e-19)
(0.323834 0.511083 7.30854e-20)
(0.246412 0.411595 1.38283e-19)
(0.1708 0.303297 5.76339e-20)
(0.0979773 0.186431 -1.80761e-20)
(0.0299329 0.0648967 -1.46205e-20)
(0.861888 0.932365 -1.19391e-19)
(0.77542 0.878473 -8.3737e-19)
(0.686593 0.812205 -8.78964e-20)
(0.595625 0.735325 -3.68223e-20)
(0.502472 0.648465 -1.43524e-20)
(0.408044 0.551856 1.47787e-19)
(0.313408 0.44572 -4.40555e-20)
(0.21965 0.330041 6.58668e-20)
(0.128243 0.204877 -1.44447e-19)
(0.0408689 0.0724323 -9.32826e-22)
(1.02642 0.984111 -8.89561e-19)
(0.928205 0.927992 5.93435e-20)
(0.826437 0.858369 -2.26572e-19)
(0.721285 0.777845 -7.62523e-20)
(0.612631 0.687232 -2.93285e-20)
(0.501356 0.586521 -7.47417e-20)
(0.388456 0.475536 5.68684e-20)
(0.275117 0.353988 6.05828e-20)
(0.162954 0.22146 -9.83111e-21)
(0.05353 0.0790991 -1.04264e-19)
(1.20351 1.0165 1.23961e-19)
(1.09318 0.95975 5.27767e-19)
(0.977998 0.888781 1.59962e-21)
(0.858026 0.806848 -3.28801e-20)
(0.733001 0.714794 1.53492e-19)
(0.603794 0.612209 -3.50356e-19)
(0.471344 0.498543 -2.45536e-19)
(0.3368 0.373102 3.56785e-19)
(0.20176 0.234967 1.44502e-19)
(0.0677008 0.0845302 -3.66126e-20)
(1.40019 1.01442 7.44015e-19)
(1.27774 0.961497 3.25953e-19)
(1.14759 0.894717 5.51143e-20)
(1.0107 0.815931 -1.9841e-19)
(0.86715 0.726197 -1.68102e-20)
(0.717827 0.62513 4.67279e-19)
(0.563547 0.511889 -2.68968e-19)
(0.405329 0.385426 -1.84765e-19)
(0.244709 0.244311 3.36158e-19)
(0.0831203 0.088447 -6.25469e-21)
(0.96329 0.0919962 9.89652e-21)
(1.16232 0.14782 -5.30789e-21)
(1.19311 0.187419 -3.321e-20)
(1.28314 0.168802 0)
(1.31019 0.16551 8.8669e-21)
(1.24731 0.242034 -3.77564e-20)
(1.10831 0.388027 -8.67933e-20)
(0.938144 0.540838 -8.45174e-20)
(0.705856 0.643508 -2.24852e-19)
(0.414058 0.590692 5.47298e-19)
(0.963704 0.071184 1.86455e-19)
(1.1556 0.123859 -4.75573e-20)
(1.18835 0.162109 2.17553e-21)
(1.27993 0.157649 1.15804e-20)
(1.3131 0.168286 -5.80645e-22)
(1.26697 0.270476 6.82589e-21)
(1.14049 0.434657 1.45775e-19)
(0.985546 0.601597 0)
(0.75805 0.721293 6.2208e-19)
(0.47854 0.681303 -4.89087e-19)
(0.963231 0.0512603 -1.1833e-19)
(1.15166 0.10022 8.23654e-21)
(1.18696 0.137039 7.09798e-20)
(1.28144 0.145042 2.21109e-20)
(1.3195 0.16941 -1.92913e-21)
(1.28824 0.296488 -3.70674e-20)
(1.17699 0.479386 8.2673e-20)
(1.03877 0.660869 4.12598e-20)
(0.821928 0.796742 -7.35675e-22)
(0.56487 0.76877 -5.54406e-19)
(0.962467 0.0322248 -8.66368e-20)
(1.15044 0.0763037 1.67524e-20)
(1.18893 0.112182 5.59608e-20)
(1.28719 0.131284 1.53276e-20)
(1.32969 0.169678 -1.47589e-20)
(1.31117 0.320589 -5.84399e-21)
(1.21752 0.521887 -4.69362e-20)
(1.09784 0.717773 2.52051e-20)
(0.900484 0.867718 -4.67409e-19)
(0.67463 0.851205 -1.83823e-19)
(0.962147 0.01377 3.91791e-20)
(1.15211 0.0517412 -3.60193e-20)
(1.19418 0.0875579 -4.50029e-20)
(1.29652 0.116798 8.51464e-21)
(1.34299 0.169752 0)
(1.33541 0.343216 0)
(1.26162 0.561832 3.64316e-21)
(1.16348 0.771097 -2.69684e-20)
(0.996193 0.931836 -1.10416e-19)
(0.805965 0.926961 -5.82767e-20)
(0.962795 -0.00463844 1.64359e-21)
(1.15675 0.0263433 4.16481e-20)
(1.20251 0.0632659 -1.38342e-19)
(1.30869 0.102097 -5.94205e-20)
(1.35826 0.170181 -7.7388e-21)
(1.3605 0.364639 3.68496e-20)
(1.30898 0.598706 8.99266e-20)
(1.23697 0.819244 -1.75844e-20)
(1.10953 0.987289 -2.80005e-20)
(0.954232 0.995265 -4.54883e-21)
(0.964593 -0.0235291 1.72692e-20)
(1.16418 3.94671e-05 1.26321e-20)
(1.2136 0.0394596 -4.6213e-20)
(1.32296 0.0876437 -1.00495e-19)
(1.37453 0.171211 1.72555e-20)
(1.38618 0.384802 8.84287e-21)
(1.35981 0.631689 -5.37659e-20)
(1.31943 0.860573 -1.52721e-19)
(1.23874 1.03365 -1.33834e-20)
(1.1139 1.05612 -9.89916e-19)
(0.967115 -0.0433495 2.04859e-20)
(1.17387 -0.0272453 -8.14845e-20)
(1.22703 0.0163488 8.70869e-20)
(1.3386 0.0741532 7.66626e-20)
(1.3905 0.173499 6.85147e-21)
(1.41183 0.403666 -6.28396e-20)
(1.41389 0.659952 -1.5808e-20)
(1.41042 0.894028 -2.49612e-20)
(1.38031 1.07162 1.12272e-20)
(1.27951 1.10887 2.88893e-18)
(0.968894 -0.0643625 -1.03145e-19)
(1.18502 -0.0555976 4.78224e-20)
(1.2422 -0.00583667 1.38356e-19)
(1.35517 0.0618697 -8.09529e-20)
(1.40637 0.176944 -1.17669e-19)
(1.4386 0.421211 9.39448e-21)
(1.47262 0.683387 1.32507e-19)
(1.51026 0.920129 -4.41529e-19)
(1.53136 1.10239 -2.66533e-20)
(1.44774 1.15047 -6.46339e-18)
(0.968516 -0.0873376 4.29726e-21)
(1.1969 -0.0849344 9.20316e-20)
(1.25809 -0.0272087 3.96516e-20)
(1.37161 0.0526461 -1.96253e-19)
(1.41956 0.185439 -1.49598e-19)
(1.46376 0.441221 -3.61164e-20)
(1.53205 0.705592 3.41894e-22)
(1.61297 0.942075 -3.47326e-19)
(1.6838 1.12557 -1.106e-18)
(1.61488 1.17003 -7.95967e-18)
(0.965853 -0.119893 -1.43959e-20)
(1.20973 -0.124252 -2.23985e-20)
(1.27472 -0.0575828 -5.08021e-20)
(1.38987 0.0360554 5.74314e-20)
(1.43711 0.180148 1.2555e-19)
(1.49858 0.437314 -3.96168e-20)
(1.61307 0.696311 -1.13884e-19)
(1.75479 0.93176 -1.29985e-18)
(1.90253 1.12798 -1.61542e-18)
(1.89851 1.20651 3.29384e-18)
(0.959366 -0.159982 -4.11222e-19)
(1.2225 -0.174622 -6.43796e-21)
(1.28688 -0.103155 -3.90611e-20)
(1.40116 0.0130719 2.15315e-19)
(1.4359 0.158059 2.64504e-19)
(1.50821 0.397507 -1.50418e-19)
(1.67187 0.634521 -1.06384e-19)
(1.88242 0.858066 -4.50863e-19)
(2.13938 1.06699 2.09946e-19)
(2.28364 1.15851 -3.21896e-19)
(0.949762 -0.200642 -2.71685e-20)
(1.23901 -0.226475 -5.03469e-20)
(1.29103 -0.145686 2.8547e-20)
(1.40843 -0.0128783 3.10348e-20)
(1.43306 0.141188 1.7002e-33)
(1.49751 0.348844 1.09886e-21)
(1.69133 0.551832 -2.19783e-33)
(1.95414 0.753804 1.89426e-19)
(2.30365 0.953251 -9.34744e-19)
(2.58712 1.05652 -6.29462e-19)
(0.938441 -0.245571 1.47965e-18)
(1.26056 -0.269353 -7.23139e-34)
(1.27629 -0.196391 -3.75317e-20)
(1.31669 -0.0275737 -2.03958e-19)
(1.312 0.127872 -4.57243e-19)
(1.41308 0.285544 -9.25425e-19)
(1.6321 0.451963 -5.21647e-33)
(1.93644 0.626493 -1.73214e-18)
(2.32947 0.799687 -3.16026e-18)
(2.75484 0.901255 1.67807e-18)
(0.927337 -0.300448 0)
(1.29887 -0.313211 -2.1035e-33)
(1.13889 -0.194139 0)
(1.14277 -0.0250636 0)
(1.15364 0.106741 0)
(1.27379 0.22213 0)
(1.49933 0.349555 -8.52609e-33)
(1.82082 0.488148 0)
(2.21659 0.632496 -3.41214e-19)
(2.7365 0.711059 1.26025e-18)
(0.915724 -0.360103 1.14896e-19)
(1.25705 -0.324817 -4.45854e-19)
(0.97683 -0.164997 -5.66236e-20)
(0.961803 -0.0223629 0)
(0.980953 0.0787887 0)
(1.10081 0.159118 6.43939e-20)
(1.31316 0.250094 1.2351e-18)
(1.61968 0.352605 -1.95464e-19)
(1.99863 0.465228 -4.9553e-19)
(2.53339 0.519953 4.66906e-18)
(0.883126 -0.405167 -1.5199e-17)
(1.09346 -0.277413 1.05577e-18)
(0.802694 -0.12517 -7.32821e-20)
(0.766375 -0.0191358 -1.01782e-19)
(0.790111 0.0511285 -4.79643e-19)
(0.897332 0.100909 -7.65537e-19)
(1.08104 0.158858 -1.07532e-18)
(1.34826 0.227853 -1.40991e-18)
(1.68863 0.305669 -1.6245e-18)
(2.18034 0.344259 3.62835e-18)
(0.808756 -0.394453 -4.1344e-19)
(0.887402 -0.206784 -1.21727e-18)
(0.610399 -0.0804561 -1.263e-19)
(0.561977 -0.0143396 -8.20135e-20)
(0.58321 0.0274313 -8.22251e-34)
(0.667192 0.0528119 9.91622e-20)
(0.808605 0.0832246 -1.51499e-32)
(1.01745 0.122347 -1.93408e-19)
(1.29293 0.167121 2.98179e-19)
(1.69941 0.192018 7.05108e-19)
(0.664121 -0.288841 3.42675e-17)
(0.618379 -0.107709 -3.13824e-18)
(0.39531 -0.0343526 -2.41355e-19)
(0.345834 -0.00714945 -1.28968e-19)
(0.360162 0.00948938 3.73892e-19)
(0.413961 0.0178181 7.72589e-19)
(0.50304 0.0286455 7.89506e-19)
(0.637322 0.0446685 4.59561e-19)
(0.820898 0.0633982 -1.88485e-19)
(1.10153 0.0762148 3.56567e-18)
(0.336792 -0.0768318 5.58816e-19)
(0.261873 -0.00231976 -6.76969e-33)
(0.144961 0.018784 -3.05522e-19)
(0.122169 0.00300049 0)
(0.125568 -0.00209698 0)
(0.143168 -0.0052326 1.00118e-19)
(0.173064 -0.00615531 8.84254e-35)
(0.220474 -0.00412022 -1.2364e-19)
(0.288136 -0.00160257 -2.81782e-19)
(0.398966 0.00332186 1.00046e-18)
(2.00158 1.09538 -1.78664e-18)
(2.23869 1.07769 -2.3042e-18)
(2.44179 1.02856 0)
(2.63688 0.952128 -7.6048e-19)
(2.82346 0.852261 -1.78901e-18)
(2.9927 0.732235 -2.24922e-18)
(3.13707 0.59495 -4.81442e-19)
(3.25057 0.442649 1.2694e-18)
(3.32829 0.276945 -3.54767e-18)
(3.3677 0.0986975 1.35662e-18)
(2.49809 1.14069 2.65726e-19)
(2.73007 1.08097 1.39486e-18)
(2.92349 1.0035 1.43719e-19)
(3.10645 0.909312 6.7461e-19)
(3.2804 0.800328 -1.10269e-18)
(3.43984 0.678106 -4.99542e-18)
(3.58089 0.543871 2.46517e-18)
(3.70045 0.399231 1.2697e-17)