/*--------------------------------*- C++ -*----------------------------------*\
  =========                 |
  \\      /  F ield         | OpenFOAM: The Open Source CFD Toolbox
   \\    /   O peration     | Website:  https://openfoam.org
    \\  /    A nd           | Version:  13
     \\/     M anipulation  |
\*---------------------------------------------------------------------------*/
FoamFile
{
    format      ascii;
    class       volVectorField;
    location    "13";
    object      U;
}
// * * * * * * * * * * * * * * * * * * * * * * * * * * * * * * * * * * * * * //

dimensions      [0 1 -1 0 0 0 0];

internalField   nonuniform List<vector> 
440
(
(-0.0634338 0.0560143 -6.40636e-20)
(-0.0282227 0.0808049 2.38838e-20)
(0.18153 0.0464123 3.06757e-20)
(0.607515 0.00886717 8.61381e-20)
(0.85486 -0.0269475 1.46297e-21)
(-0.0401516 0.021542 4.11386e-20)
(0.200269 -0.0492191 -1.38546e-19)
(0.757972 -0.119016 -1.25826e-19)
(1.33008 -0.169006 2.78141e-20)
(1.8687 -0.2106 -2.05337e-20)
(0.0385061 -0.0203261 4.72623e-20)
(0.679902 -0.0958563 9.52312e-19)
(1.49127 -0.103869 -7.16476e-19)
(2.06594 -0.0908177 -2.24353e-18)
(2.5143 -0.0865807 1.03383e-18)
(0.284257 -0.06386 -1.76805e-19)
(1.3769 -0.0251329 -7.19185e-19)
(2.13059 0.0237817 2.29309e-18)
(2.50408 0.0477492 2.63149e-18)
(2.51694 0.0510699 -7.1557e-19)
(0.665324 -0.00476908 -3.34592e-19)
(1.88045 0.168377 -7.53094e-19)
(2.3891 0.227963 2.34731e-18)
(2.49024 0.228994 2.4297e-18)
(2.57083 0.202823 8.15461e-19)
(-0.0203329 0.0675641 1.59287e-19)
(-0.0904076 -0.0277282 -4.26605e-20)
(-0.202895 -0.0449209 -5.77806e-20)
(-0.338719 -0.00807081 -8.93748e-21)
(-0.454723 -0.0169486 -2.71363e-19)
(-0.063731 0.205087 -8.40667e-20)
(-0.156177 0.227771 -5.77862e-19)
(-0.276239 0.266109 1.00869e-19)
(-0.386364 0.285707 1.23768e-19)
(-0.415764 0.216236 -2.70359e-19)
(-0.089106 0.257584 -3.40732e-19)
(-0.120947 0.377273 5.78423e-19)
(-0.128156 0.423055 -1.25898e-19)
(-0.0808932 0.427395 -1.68009e-18)
(-0.00299973 0.356819 2.01481e-20)
(-0.0735485 0.152845 -7.018e-21)
(-0.0883382 0.269267 -1.17501e-20)
(-0.0436704 0.288792 6.90527e-20)
(0.0706062 0.243873 3.97615e-19)
(0.209707 0.142945 -6.4268e-20)
(-0.0664385 0.0809002 -7.48689e-21)
(-0.0871455 0.142248 -2.30275e-20)
(-0.015357 0.12267 -4.60931e-20)
(0.168611 0.0478632 4.10426e-20)
(0.374242 -0.0241572 1.11804e-19)
(-0.812499 -0.475139 -1.54444e-18)
(1.74222 -0.00756744 -9.18755e-19)
(0.904909 1.15511 6.00883e-19)
(1.04496 -0.296331 2.57994e-19)
(1.15477 -0.639562 -1.49141e-20)
(0.158891 -0.778372 2.57787e-18)
(1.26392 -0.202466 5.31904e-20)
(0.591668 1.30345 -1.16962e-19)
(1.28169 -0.366741 -1.62768e-19)
(1.33998 -0.664419 -6.27633e-20)
(1.54218 -1.11717 9.71985e-19)
(1.24795 -0.348961 1.47552e-18)
(0.812516 1.26029 9.86552e-20)
(1.55866 -0.408319 -5.43113e-19)
(1.51795 -0.672101 4.63147e-20)
(2.02854 -1.21049 9.36934e-20)
(0.522212 -0.327115 -5.27833e-20)
(0.748158 1.1766 5.51131e-19)
(1.77797 -0.49442 2.66052e-19)
(1.64397 -0.672384 -9.06567e-20)
(1.7676 -1.10064 -4.51447e-19)
(-1.14839 -0.271021 1.44401e-18)
(0.323815 1.06056 0)
(2.0636 -0.561916 -8.06726e-20)
(1.74749 -0.650333 -4.90312e-20)
(2.57591 -0.782236 -7.58545e-19)
(0.263311 -0.214786 -6.20073e-20)
(0.893644 0.372344 4.57918e-20)
(2.3933 -0.749077 -1.44985e-19)
(1.80602 -0.624302 7.48823e-20)
(2.28266 -0.701583 6.91409e-20)
(0.854139 0.172021 -4.27796e-19)
(1.63927 0.202461 1.43111e-20)
(2.46995 -0.709491 7.91122e-19)
(1.67464 -0.491254 0)
(2.14276 -0.28285 -3.74059e-19)
(1.29218 0.0516139 1.59191e-20)
(2.18746 -0.186882 3.81498e-19)
(2.23612 -0.651693 -3.51013e-19)
(1.29591 -0.344457 2.70871e-21)
(1.84413 -0.241912 -4.56175e-20)
(1.65058 0.024852 6.3578e-20)
(2.05715 -0.203296 2.38565e-20)
(1.56019 -0.407991 9.74908e-34)
(0.673115 -0.177965 2.92805e-20)
(1.08188 -0.0140049 4.92419e-20)
(1.09838 -0.0475088 4.66958e-20)
(0.900344 -0.115901 -6.08144e-20)
(0.166344 -0.0258799 8.99275e-20)
(-0.295537 0.00654968 -1.56312e-20)
(2.3804 0.210875 -1.03591e-18)
(2.6639 -0.0256496 -1.35622e-18)
(2.37707 -0.00171489 1.2001e-18)
(2.78576 -0.260456 -1.29376e-20)
(2.03579 -0.114267 -7.56428e-20)
(2.10872 0.154576 3.64697e-20)
(2.47277 -0.0334599 -4.38393e-20)
(2.21187 -0.0221437 -1.40585e-19)
(2.48487 -0.224242 -2.63732e-19)
(2.27815 -0.261705 -3.1575e-21)
(2.09662 0.0580966 6.53824e-20)
(2.20601 0.000542029 1.24103e-19)
(2.18247 -0.0711974 -1.77606e-19)
(2.21914 -0.113999 5.36657e-20)
(2.22782 -0.211535 7.55161e-20)
(2.03438 0.0160035 1.10169e-19)
(1.97113 -0.0178083 1.01625e-19)
(2.11413 -0.0496752 -1.54818e-20)
(2.01344 -0.0861441 3.02096e-20)
(2.15215 -0.113446 9.19712e-21)
(1.45952 -0.0170495 1.54676e-19)
(1.38507 -0.0128171 -1.19013e-20)
(1.47728 -0.031923 2.34263e-20)
(1.35309 -0.0203053 -4.58158e-21)
(1.46803 -0.0490842 4.32452e-20)
(1.59703 0.832395 1.14513e-18)
(1.54357 0.930629 -3.59707e-19)
(1.53794 1.0634 -1.37774e-18)
(1.47096 1.11553 7.53599e-19)
(0.90694 0.810024 -1.80373e-19)
(1.87424 0.793329 -5.97038e-19)
(1.84363 0.872028 -3.07242e-18)
(1.85149 0.980735 -1.1806e-18)
(1.76789 1.0001 -4.30831e-19)
(1.08855 0.713829 -6.96246e-19)
(2.18702 0.666621 7.86323e-19)
(2.16688 0.739265 2.0947e-19)
(2.14199 0.832388 -2.32999e-18)
(2.01592 0.824734 -6.71158e-19)
(1.20728 0.560402 5.22633e-19)
(2.35756 0.546866 2.40576e-18)
(2.34472 0.597159 1.77828e-18)
(2.34911 0.654948 -2.08602e-18)
(2.14769 0.620173 -1.58593e-18)
(1.19809 0.373069 -3.09195e-19)
(2.49757 0.379369 1.23499e-18)
(2.52806 0.407497 -9.00377e-19)
(2.43989 0.436326 6.28224e-19)
(2.12133 0.390164 5.33918e-19)
(1.02704 0.167965 -4.66935e-19)
(0.572131 0.467146 -6.49751e-19)
(0.482977 0.502388 -5.00078e-19)
(0.365818 0.537225 5.85621e-20)
(0.228473 0.543638 -9.02018e-21)
(0.0569318 0.395274 8.81815e-20)
(0.675447 0.636711 1.19071e-19)
(0.611693 0.695182 -2.99432e-19)
(0.524662 0.763342 1.90796e-19)
(0.400423 0.820401 -8.84042e-20)
(0.175439 0.626873 1.25035e-19)
(0.775201 0.830841 1.53994e-19)
(0.702091 0.911179 4.71947e-19)
(0.646404 1.00828 9.6652e-20)
(0.564011 1.05108 -3.09148e-19)
(0.310736 0.778796 2.57185e-19)
(1.05217 0.902983 2.33122e-19)
(1.00729 0.985652 -6.94854e-19)
(0.957387 1.08333 -1.92936e-18)
(0.875835 1.15176 7.79813e-19)
(0.518108 0.860406 -1.75451e-19)
(1.12234 0.942967 -1.1393e-19)
(1.15553 1.06643 -1.92436e-19)
(1.18474 1.18384 -3.66531e-19)
(1.13563 1.21063 -4.16652e-19)
(0.70095 0.871673 -6.70418e-21)
(1.02074 0.0519453 -1.01816e-19)
(0.984231 0.0376741 -3.85303e-20)
(1.03917 0.116697 -1.48681e-21)
(0.95246 0.149718 -3.13529e-19)
(0.889292 0.288509 3.28299e-19)
(1.01149 0.0494591 6.43665e-20)
(0.993921 0.0363418 1.36031e-19)
(1.03148 0.122067 1.35561e-19)
(0.989432 0.179155 4.45199e-20)
(0.933054 0.369638 -1.60947e-20)
(1.01695 0.0482456 8.73981e-20)
(0.975464 0.030562 -5.08325e-21)
(1.08333 0.137894 -6.62265e-21)
(0.942759 0.180862 1.58008e-19)
(1.13743 0.510941 -5.14347e-19)
(1.01079 0.048633 -4.3951e-22)
(0.990134 0.0207233 -1.89554e-19)
(1.08776 0.150592 -7.00212e-20)
(1.02613 0.193853 -4.0824e-19)
(1.15136 0.560238 9.77146e-20)
(1.00609 0.0428788 -1.55649e-20)
(0.991571 0.0200141 5.29026e-20)
(1.14236 0.153889 3.31677e-20)
(0.990321 0.221834 4.73078e-19)
(1.4144 0.686107 -4.90722e-19)
(0.966186 0.0464886 -1.14736e-20)
(1.05667 -0.00617291 1.08831e-19)
(1.1364 0.180062 -8.57641e-20)
(1.21296 0.152832 8.71323e-19)
(1.2836 0.726331 -3.83792e-19)
(0.91287 0.0210351 -1.59297e-21)
(1.13526 -0.0215003 -1.0682e-19)
(1.11687 0.109249 4.6406e-21)
(1.26478 0.178618 -2.59791e-19)
(1.26427 0.460204 -3.18574e-20)
(0.960405 0.020886 -4.51553e-21)
(1.12923 -0.0524882 1.48619e-35)
(1.12673 0.104148 -4.73214e-20)
(1.18678 0.1408 8.38398e-20)
(1.49614 0.2759 1.74964e-19)
(1.07853 -0.0326409 4.27041e-21)
(1.02329 -0.0611499 -2.57089e-20)
(1.10097 0.0666291 1.70975e-20)
(1.18923 0.0673755 3.19869e-20)
(1.574 0.150349 -2.60702e-19)
(0.997955 -0.0240519 -4.20673e-20)
(0.787231 -0.0226851 -3.42693e-21)
(0.855183 0.0144388 2.40933e-20)
(0.928382 -0.00235159 -1.28932e-20)
(1.1144 0.0385025 -5.90203e-20)
(1.85165 0.624211 3.13881e-19)
(1.90984 0.641304 7.91117e-19)
(2.21466 0.505074 -1.1327e-18)
(2.22513 0.465774 1.76782e-20)
(2.49061 0.263559 4.92388e-19)
(1.80257 0.412083 7.7356e-20)
(1.78402 0.420393 1.04417e-18)
(2.0901 0.334241 1.15048e-19)
(1.97714 0.312873 -9.53566e-19)
(2.33402 0.158571 -3.04324e-19)
(1.74438 0.30217 -2.29037e-19)
(1.82536 0.259351 -1.53417e-19)
(1.94743 0.234745 2.2986e-19)
(1.97789 0.174896 -2.99836e-19)
(2.11522 0.117987 2.67286e-19)
(1.67193 0.171144 3.40824e-19)
(1.77671 0.136533 -3.27385e-21)
(1.78822 0.124031 2.20207e-19)
(1.91449 0.0815634 1.82844e-19)
(1.89516 0.0527817 -1.7798e-19)
(1.2766 0.0422216 -3.9289e-20)
(1.32229 0.027184 2.23076e-19)
(1.34576 0.0208522 1.0155e-19)
(1.40443 0.00269994 -2.16438e-19)
(1.38789 -0.000829176 4.44769e-22)
(1.15993 -0.0258446 5.11103e-20)
(2.19788 -0.045787 -4.23009e-19)
(2.43254 -0.033453 1.19733e-18)
(2.42894 0.0103728 5.43103e-19)
(2.24666 0.0344553 -3.60028e-19)
(0.712056 0.0901312 8.96909e-20)
(1.97395 0.0830225 -4.41367e-19)
(2.44606 0.0874615 -5.96173e-19)
(2.48273 0.0999536 7.49204e-19)
(2.25748 0.0923862 -4.86801e-19)
(0.195238 0.070755 -3.32577e-20)
(1.3336 0.144586 4.64906e-19)
(2.11167 0.175361 7.3231e-20)
(2.51539 0.17333 5.32345e-19)
(2.62529 0.170156 2.94561e-19)
(-0.062684 -0.0356647 2.03947e-19)
(0.470688 0.0710302 2.01996e-19)
(1.31483 0.154104 -4.45106e-19)
(1.84791 0.204055 2.78669e-20)
(2.47706 0.240562 1.22084e-19)
(-0.118469 -0.0971918 1.38242e-19)
(-0.0251707 -0.0653706 -1.577e-19)
(0.472249 0.0293696 -1.70159e-20)
(0.946016 0.0704459 1.30428e-20)
(1.49186 0.181073 -2.67685e-20)
(-0.0940048 -0.103213 2.03569e-20)
(-0.161771 -0.151065 9.23427e-20)
(-0.0303454 -0.156908 4.91584e-20)
(0.149807 -0.129296 -6.00317e-20)
(0.661187 -0.0128912 6.88419e-21)
(-0.0568024 -0.0792002 -9.19692e-21)
(-0.144044 -0.166872 -3.89342e-20)
(-0.158703 -0.22563 -1.40875e-20)
(-0.119975 -0.241496 -1.24692e-20)
(0.0662779 -0.142737 1.38128e-21)
(-0.0253767 -0.0419772 3.72334e-21)
(-0.0910134 -0.145625 1.02858e-19)
(-0.133368 -0.256337 -1.03641e-19)
(-0.148839 -0.336579 -2.45955e-19)
(-0.117471 -0.338005 8.32425e-20)
(-0.0110238 -0.0226285 -1.72546e-20)
(-0.0494839 -0.159397 -1.18125e-19)
(-0.0741709 -0.299693 3.70215e-19)
(-0.100676 -0.384901 4.45717e-19)
(-0.116144 -0.412041 -8.80922e-20)
(-0.00948359 -0.00534237 1.01764e-20)
(-0.0476496 -0.160393 -3.55661e-20)
(-0.0954931 -0.268505 1.27189e-20)
(-0.164304 -0.290441 3.39199e-20)
(-0.233495 -0.272266 -8.55999e-20)
(1.38991 0.638798 -2.51905e-20)
(1.54347 0.347524 5.77373e-19)
(0.388745 0.417224 1.61277e-19)
(-0.0323145 -0.177367 1.98572e-19)
(0.458649 -0.425093 -3.98283e-20)
(1.21878 0.511117 4.88021e-20)
(1.62094 0.44612 -2.46655e-19)
(0.419889 0.561974 7.29053e-19)
(0.19865 -0.212295 6.61666e-21)
(0.563736 -0.475166 1.79322e-19)
(0.696665 0.239249 3.37645e-19)
(1.63333 0.52694 -4.21735e-19)
(0.457752 0.722148 -7.77318e-20)
(0.386606 -0.252426 -4.1192e-19)
(0.651392 -0.540172 -3.68354e-20)
(-0.0779061 -0.0334808 1.20075e-19)
(1.73611 0.495786 1.21804e-18)
(0.589399 0.867145 -4.22044e-19)
(0.650908 -0.264746 7.24232e-21)
(0.815752 -0.570246 -1.11193e-19)
(-0.727369 -0.239528 1.22424e-19)
(1.91717 0.358873 2.28091e-19)
(0.779724 1.0422 5.08811e-19)
(0.831121 -0.286007 -4.94346e-20)
(0.973675 -0.608907 -1.9272e-19)
(-0.00503584 0.170475 -5.87199e-20)
(-0.267688 -0.171502 0)
(-0.384307 -0.0579473 2.61642e-20)
(-0.635473 -0.0729991 -2.29489e-20)
(0.521874 -0.0782992 8.13589e-21)
(1.74195 0.586284 0)
(1.31715 0.318591 0)
(0.269366 0.150117 -2.79373e-19)
(-0.525731 -0.174985 -1.38018e-19)
(0.61279 -0.315814 1.42785e-19)
(0.711529 0.00243689 -1.141e-19)
(0.737309 -0.00783204 9.94339e-20)
(1.01264 0.0142691 -4.62582e-20)
(0.899546 -0.00240615 3.31853e-19)
(1.41957 0.115889 2.33898e-19)
(1.61827 0.0288361 1.07093e-19)
(1.78188 0.0663812 2.02406e-19)
(1.96284 0.0602316 -4.1356e-19)
(2.48751 0.202365 2.88469e-20)
(2.31178 0.159314 2.08571e-19)
(0.895166 -0.468633 -7.82435e-21)
(0.880276 -0.556628 -1.51368e-19)
(0.872342 -0.652731 -1.24638e-19)
(0.801517 -0.718581 7.54083e-20)
(0.482485 -0.557937 1.172e-19)
(0.798843 -0.376178 1.2573e-19)
(0.743297 -0.439512 2.46376e-19)
(0.667892 -0.507197 -4.482e-20)
(0.552305 -0.563184 1.2068e-19)
(0.297011 -0.442274 4.03428e-20)
(0.638853 -0.236549 -1.62615e-19)
(0.54788 -0.273679 -4.40506e-20)
(0.446386 -0.321526 1.11148e-19)
(0.330803 -0.364465 -1.59938e-20)
(0.145701 -0.287214 -1.0337e-19)
(0.543855 -0.00393572 -4.43377e-19)
(0.458498 -0.0185436 -3.66644e-19)
(0.350209 -0.0433917 2.86073e-19)
(0.22442 -0.0761565 1.83081e-19)
(0.0608804 -0.0772704 1.38715e-20)
(0.521451 0.201676 -1.81507e-19)
(0.435818 0.205615 -1.79722e-19)
(0.320197 0.208111 -7.93201e-20)
(0.184325 0.21303 1.98917e-20)
(0.0271248 0.160508 1.23647e-20)
(2.01446 -0.0375809 7.72016e-19)
(2.25835 -0.10481 2.81535e-19)
(2.34006 -0.188904 -7.26143e-19)
(2.1911 -0.215451 -1.47325e-18)
(1.31019 -0.18839 1.09184e-19)
(1.97947 -0.121758 1.29652e-18)
(2.07986 -0.230013 1.69684e-18)
(2.0928 -0.349027 1.38699e-19)
(2.01041 -0.408182 2.37871e-19)
(1.28073 -0.356792 -1.57118e-19)
(1.70802 -0.281945 -3.36456e-18)
(1.75978 -0.396205 4.03359e-19)
(1.8007 -0.51793 1.04996e-18)
(1.73894 -0.590704 -4.10707e-19)
(1.12233 -0.497461 6.37737e-19)
(1.4857 -0.400533 8.04779e-19)
(1.50346 -0.495954 -2.09892e-18)
(1.49061 -0.610578 -2.44472e-18)
(1.41995 -0.695495 7.5263e-19)
(0.909245 -0.569159 4.90939e-19)
(1.20784 -0.45924 1.70176e-19)
(1.15731 -0.549434 2.23134e-19)
(1.14146 -0.66682 -3.6581e-19)
(1.08254 -0.748657 -4.42089e-19)
(0.680239 -0.589893 -4.18555e-21)
(1.06709 0.056965 7.84483e-21)
(0.920148 0.0553419 -5.75376e-21)
(1.1239 0.0768702 -7.50928e-21)
(0.793057 0.00999632 -1.84009e-19)
(1.10755 -0.207515 -6.74665e-21)
(1.07696 0.0606451 -2.60523e-21)
(0.917429 0.0523807 5.51487e-20)
(1.12062 0.0949093 -5.38178e-20)
(0.882005 0.0563069 9.47773e-20)
(0.982764 -0.0906395 -2.52405e-20)
(1.07553 0.0581718 -6.40099e-20)
(0.920768 0.0479094 5.72141e-22)
(1.10822 0.0957867 -2.15655e-20)
(0.881454 0.0804373 4.55224e-21)
(0.958508 -0.0318656 -1.50716e-19)
(1.05698 0.0568984 7.81175e-20)
(0.949282 0.0434065 3.60436e-21)
(1.06909 0.10133 3.54189e-20)
(0.926829 0.106459 4.20131e-20)
(0.861267 0.0827762 1.21485e-19)
(1.03316 0.0537295 1.96742e-20)
(0.977847 0.0421196 -3.21899e-20)
(1.03785 0.105264 4.78233e-20)
(0.954983 0.134867 8.62361e-20)
(0.837721 0.18167 -1.32907e-19)
(0.889518 0.0339738 0)
(0.703929 0.0278788 1.02572e-20)
(0.607594 0.0231004 2.6847e-21)
(0.341013 -0.00580722 3.74178e-20)
(0.660729 -0.0545254 -1.08229e-19)
(1.03455 0.0758983 -6.5945e-20)
(0.931398 0.0715588 -1.96225e-20)
(1.02663 0.0771524 -2.77218e-20)
(0.802887 0.00513155 -9.49817e-20)
(1.01915 -0.189846 -1.13731e-19)
(0.920508 -0.0624099 -2.58814e-20)
(1.00232 -0.0313708 4.50084e-19)
(1.09142 0.0370414 2.85124e-19)
(0.962473 0.0540267 2.25641e-20)
(0.747331 0.02802 0)
(1.2847 -0.307878 2.55974e-19)
(1.39689 -0.271512 1.33864e-18)
(1.57083 -0.154999 -1.52963e-18)
(1.65755 -0.0206326 -4.7957e-19)
(1.57135 0.0274177 3.50336e-19)
)
;

boundaryField
{
    left
    {
        type            fixedValue;
        value           uniform (1 0 0);
    }
    right
    {
        type            zeroGradient;
    }
    down
    {
        type            noSlip;
    }
    up
    {
        type            noSlip;
    }
    cylinder
    {
        type            noSlip;
    }
    defaultFaces
    {
        type            empty;
    }
}


// ************************************************************************* //
