# Selection   : all
# Cells       : 440
# Volume      : 7.374263e+01
# Time        	max(p)
0.5           	1.747370e+00
0.55          	1.752165e+00
0.6           	1.767535e+00
