/*--------------------------------*- C++ -*----------------------------------*\
  =========                 |
  \\      /  F ield         | OpenFOAM: The Open Source CFD Toolbox
   \\    /   O peration     | Website:  https://openfoam.org
    \\  /    A nd           | Version:  13
     \\/     M anipulation  |
\*---------------------------------------------------------------------------*/
FoamFile
{
    format      ascii;
    class       surfaceScalarField;
    location    "0.6925";
    object      phi;
}
// * * * * * * * * * * * * * * * * * * * * * * * * * * * * * * * * * * * * * //

dimensions      [0 3 -1 0 0 0 0];

internalField   nonuniform List<scalar> 
3485
(
0.00219489
-0.00523002
0.00303512
0.00869852
-0.0524492
0.0459456
0.018028
-0.102912
0.0935821
0.0283802
-0.134122
0.12377
0.0387215
-0.147046
0.136705
0.0486895
-0.149536
0.139568
0.0582211
-0.147523
0.137991
0.0673144
-0.143978
0.134884
0.0759442
-0.139976
0.131346
-0.135723
0.127323
0.0843451
0.00266948
-0.0078995
0.00966605
-0.0594458
0.0190736
-0.112319
0.0291204
-0.144169
0.0389851
-0.156911
0.048512
-0.159063
0.0577993
-0.15681
0.066992
-0.15317
0.0762991
-0.149283
-0.145481
0.0860569
0.0030899
-0.0109894
0.010442
-0.0667979
0.0196898
-0.121567
0.0290897
-0.153569
0.0379961
-0.165817
0.0463802
-0.167447
0.0543819
-0.164812
0.0621233
-0.160912
0.0696781
-0.156838
-0.152812
0.0770085
0.00352545
-0.0145149
0.0111942
-0.0744666
0.0202384
-0.130611
0.0290081
-0.162338
0.037087
-0.173896
0.0446198
-0.17498
0.0518376
-0.172029
0.0588966
-0.167971
0.0658841
-0.163825
-0.159877
0.0729495
0.00387052
-0.0183854
0.0116606
-0.0822567
0.0202529
-0.139203
0.0281245
-0.17021
0.0350876
-0.180859
0.0414344
-0.181327
0.0474582
-0.178053
0.0533323
-0.173845
0.059151
-0.169644
-0.165686
0.0649597
0.00415776
-0.0225431
0.0119156
-0.0900146
0.0199034
-0.147191
0.0267854
-0.177092
0.0326119
-0.186686
0.0378099
-0.186525
0.0427208
-0.182964
0.0475212
-0.178645
0.052288
-0.174411
-0.170476
0.0570783
0.00432744
-0.0268706
0.0118285
-0.0975156
0.018991
-0.154354
0.0247151
-0.182816
0.0292795
-0.19125
0.0332216
-0.190467
0.0369145
-0.186657
0.0405349
-0.182266
0.0441553
-0.178031
-0.174127
0.0478057
0.00437545
-0.031246
0.0114019
-0.104542
0.0175536
-0.160505
0.0220152
-0.187278
0.0252676
-0.194502
0.0279277
-0.193127
0.030377
-0.189106
0.0327805
-0.184669
0.0351983
-0.180449
-0.176578
0.0376496
0.00427636
-0.0355224
0.0106001
-0.110866
0.0155701
-0.165475
0.0186853
-0.190393
0.0205854
-0.196403
0.021942
-0.194483
0.0231296
-0.190294
0.0242979
-0.185837
0.0254977
-0.181649
-0.177815
0.0267343
0.00403316
-0.0395555
0.00945465
-0.116287
0.0131202
-0.169141
0.0148353
-0.192108
0.0153674
-0.196935
0.0154211
-0.194537
0.015349
-0.190222
0.0152814
-0.18577
0.0152593
-0.181627
0.0152814
-0.177837
-0.000710576
0.000286429
0.000424147
0.00208832
-0.00733493
0.00453604
0.00979424
-0.0167256
0.00901966
0.0210091
-0.0231618
0.0119469
0.0339568
-0.0262322
0.0132845
0.0474667
-0.0271526
0.0136427
0.0609539
-0.02702
0.0135328
0.0741788
-0.0264668
0.0132419
0.0870715
-0.025795
0.0129022
-0.0253112
0.0997976
0.0125851
-0.000621584
0.000908012
0.00230638
-0.0102629
0.01009
-0.0245092
0.0213088
-0.0343806
0.0342025
-0.0391259
0.0476234
-0.0405736
0.061004
-0.0404005
0.0741156
-0.0395784
0.0868964
-0.0385757
-0.0379276
0.0995127
-0.000493462
0.00140147
0.00261842
-0.0133748
0.0105162
-0.032407
0.0217461
-0.0456105
0.0345696
-0.0519494
0.0478707
-0.0538746
0.061106
-0.0536359
0.0740616
-0.052534
0.0866859
-0.0512
-0.050388
0.0991463
-0.000313832
0.00171531
0.00304818
-0.0167368
0.0111035
-0.0404623
0.0223531
-0.0568601
0.0350886
-0.0646849
0.0482376
-0.0670236
0.0612892
-0.0666875
0.0740489
-0.0652937
0.086477
-0.0636282
-0.0626499
0.0987389
-9.20985e-05
0.0018074
0.00360701
-0.0204359
0.0118722
-0.0487275
0.0231515
-0.0681393
0.035781
-0.0773144
0.0487471
-0.0799897
0.061582
-0.0795225
0.0741154
-0.077827
0.0863206
-0.0758333
-0.0746784
0.0983491
0.000194792
0.00161261
0.00431122
-0.0245523
0.0128296
-0.0572459
0.0241388
-0.0794485
0.036637
-0.0898126
0.0493876
-0.0927402
0.0619783
-0.0921132
0.0742693
-0.0901181
0.0862444
-0.0878084
-0.0864428
0.0980087
0.000554214
0.0010584
0.00515488
-0.029153
0.0139498
-0.0660408
0.0252672
-0.0907659
0.0375862
-0.102132
0.0500692
-0.105223
0.0623763
-0.10442
0.0744082
-0.10215
0.0861536
-0.0995538
-0.0978861
0.0975969
0.000963844
9.45534e-05
0.00609142
-0.0342806
0.0151477
-0.0750971
0.0264067
-0.102025
0.0384501
-0.114175
0.0505589
-0.117332
0.0624781
-0.11634
0.0741562
-0.113828
0.0855794
-0.110977
-0.108814
0.0965071
0.00137051
-0.00127596
0.00699396
-0.039904
0.0162173
-0.0843204
0.0272746
-0.113082
0.0388665
-0.125767
0.0503973
-0.128863
0.0616899
-0.127632
0.0727266
-0.124865
0.0834705
-0.121721
-0.118765
0.0934216
0.00175916
0.00780076
0.0170624
0.0277501
0.0386877
0.0493928
0.0597516
0.0697714
0.0793968
0.0879544
0.154127
-0.155357
0.101028
0.181033
-0.110088
0.0831827
0.19455
-0.0822767
0.0687589
0.201234
-0.0622538
0.0555705
0.204272
-0.0469626
0.0439245
0.205237
-0.0349215
0.0339563
0.20499
-0.0253084
0.0255558
0.203997
-0.0174448
0.0184369
0.202549
-0.0113944
0.0128426
-0.00352532
0.00542612
0.152975
-0.208819
0.180031
-0.137145
0.19384
-0.0960854
0.200776
-0.0691903
0.204014
-0.0501998
0.205139
-0.0360463
0.205025
-0.025195
0.204155
-0.0165742
0.202822
-0.0100621
-0.00174615
0.151034
-0.260707
0.178142
-0.164253
0.192293
-0.110236
0.199577
-0.0764742
0.203124
-0.0537472
0.204531
-0.0374527
0.204678
-0.0253427
0.204059
-0.0159547
0.202975
-0.00897827
-0.000224656
0.148286
-0.310255
0.175353
-0.191319
0.189907
-0.124791
0.197638
-0.0842045
0.201608
-0.0577173
0.203417
-0.0392614
0.203951
-0.0258774
0.203713
-0.0157166
0.203009
-0.00827454
0.000905436
0.144728
-0.356633
0.171653
-0.218244
0.186684
-0.139823
0.194964
-0.0924842
0.199471
-0.0622243
0.201802
-0.0415921
0.202848
-0.026923
0.203117
-0.0159864
0.202923
-0.00808013
0.00151077
0.140338
-0.398963
0.167016
-0.244923
0.182625
-0.155432
0.191566
-0.101424
0.196725
-0.0673838
0.199696
-0.0445632
0.201374
-0.0286009
0.202275
-0.0168869
0.202717
-0.00852289
0.00145857
0.135042
-0.436408
0.161374
-0.271255
0.177708
-0.171766
0.187446
-0.111162
0.193381
-0.0733188
0.19711
-0.0482931
0.199539
-0.0310294
0.201191
-0.0185388
0.202391
-0.00972283
0.000625444
0.128793
-0.468694
0.154593
-0.297055
0.171847
-0.189019
0.182583
-0.121898
0.189441
-0.0801767
0.194053
-0.0529055
0.197351
-0.0343266
0.199871
-0.0210591
0.201948
-0.0117996
-0.0011138
0.121739
-0.497011
0.146596
-0.321911
0.164851
-0.207274
0.176863
-0.133911
0.184861
-0.0881744
0.190514
-0.0585586
0.19481
-0.0386229
0.198317
-0.024566
0.201386
-0.0148684
-0.00387757
0.114892
-0.523949
0.138732
-0.345751
0.157161
-0.225703
0.170338
-0.147088
0.179617
-0.0974536
0.186477
-0.0654188
0.191916
-0.0440617
0.196532
-0.0291821
0.200708
-0.0190447
-0.00778065
0.37941
-0.462842
-0.440517
0.347385
-0.313727
0.33112
-0.209438
0.323308
-0.139275
0.319227
-0.0933727
0.316793
-0.0629845
0.315181
-0.0424502
0.314084
-0.0280846
0.313339
-0.0182995
-0.00746535
0.391573
-0.392164
-0.462251
0.356416
-0.278569
0.338687
-0.191709
0.329147
-0.129735
0.323415
-0.0876406
0.319723
-0.059292
0.317249
-0.039976
0.315591
-0.0264266
0.314496
-0.0172048
-0.00701297
0.407585
-0.326747
-0.473002
0.369794
-0.240778
0.34806
-0.169975
0.335435
-0.117111
0.32764
-0.0798458
0.322596
-0.0542481
0.319248
-0.0366277
0.317034
-0.0242131
0.315591
-0.0157616
-0.00642331
0.41773
-0.266182
-0.478295
0.379427
-0.202475
0.355617
-0.146166
0.34085
-0.102343
0.331406
-0.0704021
0.325203
-0.0480447
0.321075
-0.0325002
0.318355
-0.0214929
0.316589
-0.0139957
-0.00570629
0.424876
-0.210565
-0.480493
0.386968
-0.164567
0.361858
-0.121056
0.345468
-0.0859533
0.334682
-0.0596156
0.327495
-0.0408581
0.322691
-0.0276958
0.319528
-0.0183304
0.317476
-0.0119441
-0.00487213
0.429787
-0.15945
-0.480902
0.392664
-0.127444
0.366808
-0.0951995
0.349249
-0.0683942
0.337415
-0.0477813
0.329432
-0.0328751
0.324064
-0.0223282
0.320525
-0.0147915
0.318228
-0.00964633
-0.00393722
0.43303
-0.112028
-0.480453
0.396782
-0.0911966
0.370544
-0.0689614
0.352182
-0.0500319
0.339567
-0.0351662
0.330969
-0.0242778
0.325161
-0.0165199
0.321324
-0.010954
0.318825
-0.0071478
-0.00291749
0.434573
-0.0668842
-0.479716
0.399082
-0.0557054
0.372758
-0.0426377
0.353951
-0.0312251
0.340843
-0.0220578
0.331838
-0.0152731
0.32573
-0.0104117
0.321687
-0.00691107
0.319049
-0.00450979
-0.00183929
0.427213
-0.0203999
-0.473697
0.392442
-0.0209342
0.3669
-0.0170964
0.348525
-0.01285
0.335619
-0.00915192
0.326709
-0.00636281
0.320648
-0.00435075
0.316636
-0.00289924
0.314014
-0.00188776
-0.00076518
0.311115
-0.331515
0.290181
0.273084
0.260234
0.251082
0.24472
0.240369
0.23747
0.235582
0.472309
0.0133917
-0.470419
0.473416
0.0256272
0.473627
0.0374386
0.47287
0.048563
0.470671
0.0592773
0.468095
0.0675359
0.46185
0.0791942
0.458435
0.080424
0.446726
0.097765
0.0905549
0.453431
0.0115782
-0.451617
0.455322
0.0237358
0.457178
0.0355821
0.459085
0.0466565
0.460453
0.0579088
0.462295
0.0656938
0.462497
0.0789925
0.463606
0.0793153
0.464493
0.0968783
0.0927965
0.437121
0.00974389
-0.435287
0.43959
0.0212675
0.442595
0.0325773
0.446162
0.0430888
0.450073
0.0539979
0.454347
0.0614199
0.459184
0.0741554
0.463159
0.0753404
0.46929
0.0907472
0.0890848
0.424632
0.00792602
-0.422814
0.427435
0.0184642
0.431169
0.0288434
0.435769
0.0384888
0.441316
0.0484515
0.447224
0.0555113
0.454764
0.0666162
0.461299
0.068805
0.470579
0.0814676
0.0813682
0.414865
0.00612166
-0.413061
0.417907
0.0154227
0.422161
0.0245896
0.427505
0.0331449
0.434123
0.0418329
0.441308
0.0483261
0.450425
0.0574996
0.458978
0.0602521
0.470181
0.0702648
0.0710562
0.407489
0.00430634
-0.405674
0.410715
0.0121977
0.415328
0.0199762
0.4212
0.0272729
0.428494
0.0345389
0.436599
0.0402206
0.446599
0.0474996
0.456527
0.0503248
0.468848
0.0579436
0.0590021
0.402108
0.00245085
-0.400252
0.405496
0.0088099
0.410386
0.0150854
0.416655
0.0210038
0.424394
0.0268001
0.433138
0.0314767
0.443631
0.0370071
0.454461
0.0394939
0.467365
0.0450404
0.0459139
0.397287
0.000343956
-0.39518
0.400971
0.00512562
0.406265
0.0097916
0.413038
0.0142305
0.421285
0.0185535
0.430645
0.0221162
0.441525
0.0261275
0.452989
0.0280298
0.466204
0.0318251
0.0324017
0.377735
-0.00159305
-0.375798
0.381907
0.000953872
0.388142
0.00355676
0.39627
0.00610272
0.406183
0.00864028
0.417454
0.0108451
0.430274
0.0133078
0.443697
0.014607
0.458565
0.0169567
0.0172694
0.239275
-0.240868
0.240229
0.243786
0.249888
0.258529
0.269374
0.282682
0.297289
0.314245
0.0779123
0.127713
-0.115541
-0.0900844
0.0667452
0.129631
-0.118464
0.0564943
0.132409
-0.122158
0.046667
0.136111
-0.126283
0.0368886
0.140237
-0.130458
0.0270301
0.144119
-0.13426
0.0173108
0.145478
-0.135759
0.00855493
0.137506
-0.12875
0.0022947
0.10823
-0.10197
0.0484888
-0.0461941
0.0800156
0.138901
-0.0912027
0.0685337
0.141113
0.05742
0.143522
0.0468042
0.146727
0.0365125
0.150528
0.0264208
0.15421
0.0167068
0.155192
0.00813423
0.146078
0.00212293
0.114241
0.0506117
0.0733145
0.148392
-0.0828063
0.0633178
0.15111
0.0532078
0.153632
0.043226
0.156708
0.0334063
0.160348
0.0237724
0.163844
0.0146044
0.16436
0.0067344
0.153948
0.00151605
0.11946
0.0521277
0.0613952
0.155948
-0.0689509
0.0534397
0.159065
0.0451121
0.16196
0.0365574
0.165263
0.0278959
0.16901
0.0192886
0.172452
0.0111669
0.172482
0.00450818
0.160607
0.000604883
0.123363
0.0527326
0.0486985
0.161967
-0.0547179
0.0424045
0.165359
0.0356994
0.168665
0.0286329
0.17233
0.0213253
0.176317
0.0140016
0.179775
0.00719332
0.17929
0.00196735
0.165833
-0.000357535
0.125688
0.0523751
0.0370946
0.166933
-0.0420604
0.0319489
0.170505
0.0264717
0.174142
0.0206709
0.17813
0.0146437
0.182345
0.00863123
0.185788
0.00324395
0.184677
-0.000539475
0.169616
-0.00124168
0.12639
0.0511334
0.0264207
0.171067
-0.0305542
0.0221808
0.174745
0.0177151
0.178608
0.0130209
0.182824
0.0081817
0.187184
0.00345085
0.190519
-0.000613895
0.188742
-0.00260745
0.17161
-0.00203122
0.125814
0.0491022
0.016062
0.174323
-0.0193188
0.0127394
0.178068
0.00926893
0.182078
0.00565701
0.186436
0.0019857
0.190855
-0.00147633
0.193981
-0.00396208
0.191228
-0.00460508
0.172253
-0.00265824
0.123867
0.0464439
0.00569665
0.176619
-0.00799242
0.003369
0.180395
0.000959404
0.184488
-0.00151831
0.188914
-0.00397816
0.193315
-0.00610961
0.196112
-0.00726332
0.192382
-0.00642184
0.171411
-0.00321587
0.120661
0.0432281
-0.00472444
0.00350701
-0.00595619
-0.00723806
-0.00854547
-0.00976767
-0.0105902
-0.0103166
-0.00804613
-0.00367254
0.103605
0.0240208
-0.114918
-0.0127071
0.0919707
0.0246439
-0.01301
0.07998
0.0253165
-0.0133258
0.0676083
0.026035
-0.0136632
0.0548451
0.0267909
-0.0140278
0.0417026
0.0275481
-0.0144055
0.028339
0.0280396
-0.014676
0.0154756
0.027203
-0.0143396
0.00499843
0.0226366
-0.0121595
0.0112397
-0.00624124
0.102834
0.0353191
-0.114132
0.0912304
0.036247
0.079285
0.0372619
0.0669731
0.0383469
0.0542841
0.03948
0.0412301
0.040602
0.0279732
0.0412965
0.0152388
0.0399374
0.00490219
0.0329732
0.0161419
0.101716
0.0465871
-0.112984
0.0901654
0.0477974
0.0782919
0.0491354
0.0660708
0.050568
0.0534904
0.0520604
0.0405636
0.0535288
0.0274582
0.0544019
0.0149059
0.0524897
0.00476638
0.0431128
0.0209082
0.100138
0.057798
-0.111349
0.0886744
0.0592612
0.0769114
0.0608984
0.0648234
0.062656
0.0523975
0.0644863
0.0396479
0.0662784
0.0267502
0.0672996
0.014448
0.0647919
0.00457883
0.0529819
0.0254871
0.0979389
0.0689089
-0.10905
0.0866193
0.0705807
0.075035
0.0724827
0.0631532
0.0745378
0.0509546
0.0766849
0.0384523
0.0787807
0.025832
0.0799199
0.0138535
0.0767704
0.00433559
0.0624998
0.0298227
0.0949286
0.0798389
-0.105859
0.0838264
0.081683
0.0724865
0.0838227
0.0608794
0.0861449
0.0489875
0.0885767
0.0368259
0.0909424
0.0245897
0.0921561
0.0130522
0.0883079
0.00400579
0.0715463
0.0338285
0.0911781
0.0903884
-0.101728
0.0805324
0.0923287
0.0696584
0.0946966
0.0584852
0.0973182
0.0469878
0.100074
0.0351991
0.102731
0.0233527
0.104002
0.0122631
0.0993974
0.00369821
0.0801111
0.0375267
0.0846821
0.100464
-0.0947577
0.0745828
0.102428
0.064366
0.104913
0.0539562
0.107728
0.0432751
0.110755
0.0323063
0.1137
0.0212683
0.115041
0.0109842
0.109682
0.00318823
0.0879071
0.0407149
0.0822979
0.109125
-0.0909591
0.0731872
0.111539
0.0633838
0.114717
0.0530489
0.118063
0.0423395
0.121464
0.0313833
0.124656
0.020473
0.125951
0.0104558
0.119699
0.00299742
0.0953654
0.0437123
0.0691298
-0.075546
0.0622045
0.0547635
0.0465431
0.0375492
0.0279451
0.0181369
0.00908604
0.00248175
0.202124
0.0123004
-0.0164348
0.204749
0.0284094
-0.031034
0.205286
0.0349287
-0.0354658
0.206239
0.0366936
-0.0376468
0.205347
0.0431904
-0.042298
0.202859
0.0518163
-0.0493282
0.196757
0.0646156
-0.0585136
0.18609
0.0814667
-0.0708002
0.160383
0.109658
-0.08395
0.146427
-0.100963
0.201851
0.00843965
0.204329
0.0259305
0.204816
0.0344419
0.20571
0.0357997
0.204741
0.04416
0.202117
0.0544402
0.195875
0.0708574
0.184882
0.0924597
0.159223
0.135317
0.191518
0.201453
0.00497623
0.203645
0.0237392
0.203984
0.0341025
0.204676
0.0351081
0.203504
0.0453314
0.200619
0.0573249
0.194155
0.077322
0.182708
0.103906
0.157277
0.160748
0.235811
0.200925
0.00204092
0.202695
0.0219696
0.202799
0.0339983
0.203146
0.0347604
0.20165
0.0468277
0.198382
0.0605935
0.1916
0.0841036
0.179551
0.115956
0.15459
0.185709
0.279052
0.200262
-0.000231154
0.201486
0.0207457
0.201273
0.0342114
0.201135
0.0348981
0.199196
0.0487669
0.195424
0.0643657
0.188224
0.0913031
0.175379
0.1288
0.151232
0.209856
0.321234
0.199458
-0.00169956
0.200024
0.0201794
0.19942
0.0348158
0.198655
0.0356634
0.196161
0.0512609
0.191766
0.0687605
0.184036
0.0990329
0.170204
0.142633
0.147223
0.232837
0.362599
0.198506
-0.00221616
0.19832
0.0203658
0.19726
0.0358761
0.195725
0.0371984
0.192569
0.0544166
0.187428
0.0739013
0.179026
0.107435
0.164147
0.157512
0.142635
0.254349
0.403506
0.197403
-0.00162961
0.196386
0.0213833
0.194808
0.0374535
0.192361
0.0396453
0.188446
0.0583321
0.182431
0.0799163
0.173156
0.11671
0.157126
0.173542
0.136646
0.274829
0.445394
0.196161
0.000199339
0.194255
0.0232892
0.192086
0.0396226
0.188585
0.0431465
0.183822
0.0630944
0.176843
0.0868955
0.166689
0.126864
0.150484
0.189748
0.131828
0.293485
0.486262
0.194899
0.00329005
0.191991
0.0261976
0.189118
0.0424954
0.184356
0.0479079
0.178557
0.0688943
0.170124
0.0953278
0.158078
0.13891
0.14028
0.207546
0.121319
0.312445
0.532036
0.303437
0.00186316
0.306861
0.0227737
0.310715
0.0386409
0.31332
0.0453031
0.316342
0.0658721
0.319788
0.0918825
0.325336
0.133362
0.336482
0.196401
0.362055
0.286872
0.469613
0.424478
0.304292
-0.000418765
0.30802
0.0190457
0.312443
0.034218
0.315858
0.0418876
0.320306
0.0614243
0.325946
0.0862426
0.334923
0.124385
0.350823
0.180501
0.38045
0.257245
0.405889
0.444173
0.305147
-0.00355586
0.309383
0.0148096
0.314189
0.0294128
0.318399
0.0376776
0.324044
0.0557787
0.331541
0.0787455
0.343209
0.112717
0.361933
0.161777
0.395425
0.223753
0.342727
0.458587
0.306054
-0.00759967
0.310812
0.0100515
0.315905
0.0243197
0.320805
0.0327781
0.327468
0.0491152
0.336519
0.0696949
0.350242
0.0989945
0.371114
0.140904
0.406049
0.188818
0.282208
0.466568
0.307062
-0.0126516
0.312328
0.00478598
0.317562
0.0190856
0.323006
0.0273335
0.330502
0.04162
0.340811
0.0593853
0.356054
0.0837521
0.378553
0.118405
0.413297
0.154074
0.225242
0.470263
0.308228
-0.0188694
0.313969
-0.00095507
0.319142
0.0139125
0.32496
0.021516
0.333102
0.0334772
0.344386
0.0481015
0.360713
0.0674251
0.38435
0.094768
0.418136
0.120288
0.171949
0.47143
0.309622
-0.0264811
0.315775
-0.00710811
0.320618
0.00906952
0.326612
0.0155224
0.335226
0.0248632
0.347221
0.0361058
0.364296
0.0503498
0.388646
0.070419
0.421287
0.0876469
0.121958
0.471278
0.311381
-0.0358523
0.317758
-0.0134843
0.321842
0.00498547
0.32776
0.00960401
0.336686
0.0159373
0.349169
0.0236227
0.366756
0.0327625
0.39149
0.0456854
0.423188
0.0559485
0.0748259
0.47032
0.309631
-0.0434728
0.31463
-0.0184834
0.317859
0.00175626
0.323747
0.00371581
0.332847
0.00683808
0.345653
0.0108163
0.363609
0.0148069
0.388465
0.0208289
0.419835
0.024579
0.0324396
0.462221
0.258537
0.240054
0.24181
0.245526
0.252364
0.26318
0.277987
0.298816
0.323395
0.355835
0.439359
-0.104966
0.445228
-0.0970722
0.447957
-0.0855351
0.450273
-0.071267
0.453219
-0.0576633
0.456828
-0.0456698
0.460723
-0.0344491
0.464451
-0.0230466
0.467667
-0.0112086
0.000754536
0.44523
-0.106022
0.444156
-0.0959987
0.442789
-0.0841673
0.44278
-0.0712583
0.443897
-0.0587809
0.44542
-0.0471922
0.446961
-0.0359902
0.448505
-0.0245903
0.450102
-0.0128066
-0.00076007
0.452296
-0.0997315
0.446871
-0.090573
0.442122
-0.0794188
0.438595
-0.0677313
0.436225
-0.0564103
0.434683
-0.0456504
0.433832
-0.0351393
0.433667
-0.0244248
0.434168
-0.0133084
-0.00187871
0.456095
-0.089258
0.447021
-0.0814994
0.439308
-0.071706
0.433229
-0.0616516
0.428743
-0.0519248
0.425538
-0.0424449
0.423377
-0.0329783
0.422193
-0.0232416
0.421998
-0.0131135
-0.00269445
0.457473
-0.0764684
0.446227
-0.0702536
0.436731
-0.0622094
0.429035
-0.0539554
0.423025
-0.045915
0.41848
-0.0379005
0.415237
-0.0297352
0.413251
-0.021255
0.41253
-0.0123927
-0.00322541
0.457408
-0.0624463
0.444869
-0.0577144
0.434182
-0.0515232
0.42537
-0.0451434
0.418313
-0.0388577
0.412862
-0.032449
0.408899
-0.0257728
0.406382
-0.0187377
0.405306
-0.0113166
-0.00359373
0.456526
-0.0476942
0.443211
-0.0444001
0.43178
-0.0400922
0.422269
-0.0356325
0.414555
-0.0311436
0.408525
-0.0264184
0.404096
-0.0213438
0.401238
-0.0158795
0.399957
-0.0100362
-0.00388872
0.45491
-0.0322842
0.440944
-0.0304338
0.428942
-0.0280905
0.418908
-0.0255986
0.410703
-0.0229389
0.404227
-0.0199426
0.399426
-0.0165425
0.396298
-0.0127512
0.394871
-0.00860944
-0.00419737
0.445174
-0.0152374
0.429915
-0.0151745
0.416719
-0.0148949
0.405476
-0.0143548
0.396014
-0.0134773
0.388261
-0.0121899
0.382254
-0.0105355
0.378099
-0.00859593
0.37592
-0.00643082
-0.00407541
0.340597
0.325423
0.310528
0.296173
0.282696
0.270506
0.25997
0.251374
0.244944
0.0102343
0.0505694
-0.0608037
0.0215262
0.149951
-0.161242
0.0265656
0.215042
-0.220082
0.0262291
0.242303
-0.241967
0.0230908
0.248454
-0.245316
0.0189226
0.246817
-0.242649
0.0144566
0.243161
-0.238695
0.00997447
0.238433
-0.233951
0.00587279
0.230084
-0.225983
0.210509
0.00321701
-0.207853
0.0118866
0.0386828
0.0278861
0.133951
0.0382875
0.204641
0.0427475
0.237843
0.043796
0.247405
0.0435544
0.247058
0.0429735
0.243742
0.0420978
0.239309
0.0401715
0.232011
0.214937
0.0357429
0.0123161
0.0263667
0.0316825
0.114585
0.0470362
0.189287
0.0565148
0.228365
0.062182
0.241738
0.0662888
0.242952
0.0700544
0.239976
0.0735958
0.235767
0.0756032
0.230003
0.218322
0.0722186
0.0114885
0.0148782
0.0321252
0.0939479
0.0510906
0.170322
0.0651329
0.214322
0.0754054
0.231466
0.0839237
0.234433
0.0920611
0.231839
0.100242
0.227587
0.107636
0.22261
0.215542
0.110416
0.009654
0.00522421
0.0292734
0.0743285
0.0498544
0.149741
0.067305
0.196872
0.0816511
0.21712
0.0942921
0.221792
0.106483
0.219648
0.118861
0.215209
0.131315
0.210155
0.20469
0.142167
0.00721837
-0.00199416
0.0239745
0.0575724
0.0440501
0.129665
0.0632427
0.177679
0.0805385
0.199824
0.0964944
0.205836
0.111973
0.204169
0.127582
0.1996
0.143592
0.194144
0.188109
0.160174
0.00466869
-0.00666285
0.0176781
0.044563
0.0357214
0.111622
0.0550597
0.158341
0.0739408
0.180943
0.0920816
0.187696
0.109795
0.186456
0.12746
0.181935
0.14529
0.176315
0.169488
0.163911
0.00236358
-0.00902643
0.0117209
0.0352058
0.027058
0.0962848
0.0453226
0.140076
0.0643589
0.161906
0.0832176
0.168837
0.101675
0.167998
0.119794
0.163817
0.137769
0.15834
0.151606
0.15565
0.00067029
-0.00969672
0.00723031
0.0286457
0.0201131
0.0834021
0.036934
0.123256
0.0554312
0.143409
0.0742872
0.149981
0.0929473
0.149338
0.111273
0.145491
0.129359
0.140254
0.133084
0.147881
-0.000359284
-0.00933744
0.00429792
0.0239885
0.0152105
0.0724894
0.0304317
0.108034
0.0476946
0.126146
0.0654656
0.13221
0.0829216
0.131882
0.0996846
0.128728
0.115416
0.124523
0.118613
0.129887
-0.000809532
-0.00852791
0.00281526
0.0203637
0.0124816
0.0628231
0.0265079
0.0940081
0.0427373
0.109917
0.059654
0.115293
0.0764345
0.115101
0.0927259
0.112437
0.10837
0.108879
0.105502
0.12148
-0.000952802
-0.00757511
0.00222487
0.0171861
0.0111849
0.0538631
0.0243912
0.0808019
0.0397976
0.0945104
0.0559561
0.0991346
0.0720762
0.0989813
0.0878035
0.0967095
0.103017
0.0936655
0.0916748
0.116844
-0.000983721
-0.00659139
0.00194903
0.0142533
0.0104193
0.0453929
0.0229542
0.0682669
0.0375866
0.0798779
0.0529347
0.0837866
0.0682484
0.0836675
0.0831842
0.0817737
0.09761
0.0792397
0.0779396
0.111345
-0.000972686
-0.0056187
0.00181126
0.0114694
0.00993617
0.0372679
0.0219593
0.0562438
0.0359693
0.065868
0.05064
0.0691158
0.0652585
0.0690491
0.0794949
0.0675373
0.0932119
0.0655227
0.0646126
0.106539
-0.000942467
-0.00467623
0.00175814
0.00876876
0.00965927
0.0293668
0.0213366
0.0445665
0.0349173
0.0522872
0.04912
0.0549131
0.0632665
0.0549026
0.0770497
0.053754
0.0903496
0.0522229
0.0515843
0.103378
-0.000914161
-0.00376207
0.00174174
0.00611285
0.0095042
0.0216043
0.020965
0.0331057
0.0342791
0.0389731
0.0481979
0.0409943
0.0620714
0.0410291
0.0756143
0.0402111
0.0887247
0.0391125
0.0386965
0.101612
-0.000887748
-0.00287432
0.00174851
0.0034766
0.00943114
0.0139217
0.0207659
0.021771
0.0339276
0.0258114
0.0476895
0.0272324
0.0614209
0.0272977
0.0748512
0.0267808
0.0878898
0.0260739
0.0258575
0.100729
-0.00085636
-0.00201796
0.00178081
0.000839431
0.00942522
0.0062773
0.0206918
0.0105044
0.0337697
0.0127335
0.047447
0.0135551
0.0611057
0.013639
0.0744847
0.0134019
0.0874999
0.0130586
0.0130282
0.100329
-0.000819932
-0.00119803
0.00184207
-0.00182257
0.00948031
-0.00136094
0.020713
-0.000728314
0.0337412
-0.000294645
0.0473657
-6.94599e-05
0.060977
2.76368e-05
0.0743218
5.7088e-05
0.0873205
6.00101e-05
0.000207505
0.100141
-0.000773887
0.00193958
0.00959829
0.0208169
0.0338067
0.04738
0.0609404
0.0742394
0.0872017
0.0999943
0.137951
0.294358
-0.310829
0.150014
0.123337
-0.135399
0.159621
0.0417502
-0.0513574
0.167289
0.0049595
-0.0126276
0.173683
-0.00910134
0.00270691
0.17936
-0.0131941
0.00751727
0.184566
-0.0131137
0.00790807
0.189398
-0.0114008
0.00656891
0.193918
-0.00936925
0.00484855
-0.00611007
0.00207257
0.139552
0.27165
0.155615
0.107274
0.166427
0.0309382
0.173765
-0.00237862
0.179339
-0.0146749
0.184014
-0.017869
0.188135
-0.017235
0.191837
-0.0151025
0.195211
-0.0127436
-0.00901333
0.14176
0.241235
0.160853
0.0881811
0.172272
0.0195198
0.179372
-0.00947907
0.184349
-0.0196514
0.188205
-0.0217256
0.191379
-0.0204091
0.194073
-0.0177956
0.196417
-0.0150881
-0.0108923
0.144439
0.203335
0.165658
0.066962
0.177509
0.00766857
0.184418
-0.0163876
0.18885
-0.0240836
0.191972
-0.0248473
0.194304
-0.0227415
0.196104
-0.019595
0.197535
-0.0165196
-0.0118608
0.147172
0.15954
0.169933
0.0442016
0.182105
-0.00450373
0.188837
-0.0231195
0.192812
-0.0280584
0.195298
-0.0273338
0.196901
-0.024344
0.197924
-0.020618
0.198561
-0.017157
-0.0120368
0.149649
0.111504
0.173606
0.0202447
0.186038
-0.0169363
0.192625
-0.0297065
0.196216
-0.0316493
0.198169
-0.0292862
0.199156
-0.0253314
0.199524
-0.0209859
0.19949
-0.0171234
-0.0115424
0.151713
0.06052
0.176619
-0.00466183
0.189273
-0.0295903
0.195755
-0.0361878
0.199044
-0.0349384
0.200569
-0.0308113
0.20106
-0.0258226
0.200897
-0.0208232
0.200319
-0.0165451
-0.0105036
0.153265
0.00758412
0.17892
-0.0303173
0.19177
-0.0424402
0.198198
-0.0426153
0.201275
-0.0380158
0.202485
-0.0320206
0.202602
-0.0259401
0.202036
-0.0202575
0.201043
-0.0155511
-0.00904975
0.15422
-0.046495
0.180449
-0.0565461
0.193499
-0.0554903
0.199936
-0.0490516
0.202897
-0.0409774
0.203906
-0.0330294
0.203775
-0.0258089
0.202936
-0.0194184
0.201657
-0.0142726
-0.00731254
0.154527
0.181164
0.194432
0.200951
0.203898
0.204825
0.204572
0.203591
0.202161
0.106991
-0.00398601
-0.103005
0.10541
0.001581
0.103706
0.00170357
0.103728
-2.17508e-05
0.104737
-0.00100867
0.105934
-0.00119746
0.107002
-0.00106755
0.107833
-0.000831302
0.108411
-0.000578054
-0.000234266
0.231812
0.0654107
-0.301209
0.199833
0.0335603
0.187722
0.0138144
0.184491
0.00320949
0.184722
-0.00123991
0.186125
-0.0026009
0.187693
-0.0026349
0.189021
-0.00215952
0.190009
-0.00156606
-0.000656665
0.250987
0.156241
-0.341817
0.213894
0.0706528
0.20013
0.0275786
0.196343
0.0069965
0.196465
-0.00136154
0.197916
-0.00405188
0.199578
-0.00429681
0.201002
-0.0035835
0.202074
-0.00263832
-0.00112043
0.2462
0.239425
-0.329384
0.212377
0.104476
0.199992
0.0399638
0.196834
0.0101547
0.197283
-0.00181081
0.198899
-0.00566825
0.200649
-0.00604616
0.202116
-0.00505057
0.20321
-0.00373264
-0.00159301
0.240915
-0.312319
0.209991
0.198598
0.196125
0.197021
0.19887
0.200732
0.20225
0.203366
0.0118828
0.000659933
-0.0125427
0.0122388
-0.000356012
0.0130866
-0.000847816
0.0140434
-0.000956807
0.0157973
-0.00175386
0.0195836
-0.00378625
0.0305148
-0.0109312
0.0459148
-0.0154
0.0738069
-0.0278921
-0.0291978
0.0343388
0.00158031
-0.0352592
0.0372972
-0.00331439
0.0444667
-0.00801734
0.0576109
-0.014101
0.0794036
-0.0235466
0.112072
-0.0364549
0.156506
-0.055365
0.204636
-0.0635299
0.258377
-0.0816333
-0.0720293
0.0559864
0.00163603
-0.0560421
0.0629628
-0.0102908
0.0784916
-0.0235461
0.105134
-0.0407437
0.143752
-0.062164
0.19166
-0.0843631
0.240929
-0.104634
0.283839
-0.10644
0.318169
-0.115964
-0.0956774
0.0756126
0.000121558
-0.0740981
0.08671
-0.0213881
0.109197
-0.0460332
0.143633
-0.0751797
0.186266
-0.104797
0.229527
-0.127624
0.264417
-0.139524
0.292325
-0.134348
0.312252
-0.13589
-0.112809
0.0918658
-0.0885273
0.106221
0.132406
0.167642
0.205012
0.237562
0.261948
0.28325
0.295241
0.0907904
-0.0880075
0.0971048
-0.0998877
0.0819552
-0.0906499
0.099485
0.0730407
-0.0941572
0.103072
0.0633078
-0.0977847
0.107518
0.0524789
-0.101324
0.112153
0.0405968
-0.104646
0.116528
0.0279628
-0.106615
0.119249
0.0154434
-0.102697
0.115216
0.00504151
-0.0835632
0.093965
-0.0397438
0.0447853
0.104788
-0.0780943
-0.114701
0.0942524
-0.0801144
0.0826611
-0.0825659
0.0701623
-0.0852859
0.0570093
-0.0881711
0.043397
-0.0910333
0.0295668
-0.0927845
0.0162558
-0.089386
0.00533904
-0.0726464
-0.0344048
0.101515
-0.0667788
-0.112831
0.089984
-0.068583
0.0782156
-0.0707975
0.066184
-0.0732543
0.0538144
-0.0758014
0.0410418
-0.0782607
0.027973
-0.0797156
0.0153064
-0.0767195
0.00493254
-0.0622725
-0.0294723
0.103785
-0.055449
-0.115115
0.0922625
-0.0570604
0.0804088
-0.0589438
0.0681324
-0.060978
0.0553926
-0.0630616
0.0422016
-0.0650697
0.028735
-0.066249
0.0157371
-0.0637216
0.00511092
-0.0516464
-0.0243613
0.104339
-0.0440433
-0.115745
0.0926503
-0.0453712
0.0806089
-0.0469024
0.0681803
-0.0485494
0.0553494
-0.0502307
0.0421252
-0.0518455
0.0286628
-0.0527867
0.0156814
-0.0507401
0.00507355
-0.0410385
-0.0192878
0.104626
-0.0326538
-0.116015
0.0929325
-0.0336777
0.0808793
-0.0348492
0.0684327
-0.0361028
0.0555751
-0.0373731
0.0423146
-0.038585
0.028808
-0.0392801
0.0157763
-0.0377085
0.00511864
-0.0303809
-0.0141691
0.104723
-0.0212918
-0.116085
0.0930342
-0.0219885
0.080973
-0.022788
0.0685116
-0.0236414
0.0556377
-0.0244992
0.0423623
-0.0253095
0.0288414
-0.0257591
0.0157937
-0.0246608
0.0051232
-0.0197104
-0.00904593
0.104672
-0.00994586
-0.116018
0.0929909
-0.0103073
0.0809351
-0.0107322
0.0684785
-0.0111848
0.0556103
-0.011631
0.0423416
-0.0120408
0.028828
-0.0122454
0.0157874
-0.0116202
0.00512258
-0.0090456
-0.00392335
0.104468
0.00138359
-0.115798
0.0928024
0.00135868
0.0807621
0.0013082
0.0683229
0.00125433
0.0554751
0.00121687
0.0422302
0.00120404
0.028744
0.00124069
0.0157347
0.00138907
0.00510177
0.00158736
0.00117842
0.104111
-0.115434
0.0924596
0.080442
0.0680331
0.0552222
0.0420208
0.0285854
0.0156349
0.00506282
0.0257861
-0.205775
-0.0278642
0.0197591
-0.219956
0.0123513
-0.226543
0.00469008
-0.231034
-0.0027484
-0.23521
-0.00939851
-0.238666
-0.0138623
-0.237503
-0.0138512
-0.220093
-0.00770203
-0.167392
-0.0685057
0.0548027
-0.20145
-0.059127
0.0460471
-0.2112
0.0359314
-0.216428
0.0256217
-0.220724
0.0155146
-0.225103
0.00599273
-0.229144