/*--------------------------------*- C++ -*----------------------------------*\
  =========                 |
  \\      /  F ield         | OpenFOAM: The Open Source CFD Toolbox
   \\    /   O peration     | Website:  https://openfoam.org
    \\  /    A nd           | Version:  13
     \\/     M anipulation  |
\*---------------------------------------------------------------------------*/
FoamFile
{
    format      ascii;
    class       volScalarField;
    location    "0.0725";
    object      p;
}
// * * * * * * * * * * * * * * * * * * * * * * * * * * * * * * * * * * * * * //

dimensions      [0 2 -2 0 0 0 0];

internalField   nonuniform List<scalar> 
1800
(
-0.856563
-0.752351
-0.64081
-0.535019
-0.44282
-0.363558
-0.294901
-0.234823
-0.181504
-0.136543
-1.00544
-0.890355
-0.766123
-0.64755
-0.543587
-0.453753
-0.375644
-0.307285
-0.24756
-0.197987
-1.14316
-1.01746
-0.881027
-0.75028
-0.635232
-0.535492
-0.448533
-0.372296
-0.305554
-0.248978
-1.26475
-1.12892
-0.981151
-0.839128
-0.71396
-0.605256
-0.510345
-0.427047
-0.354037
-0.291608
-1.36508
-1.21987
-1.06191
-0.909717
-0.775567
-0.658934
-0.556973
-0.467385
-0.388755
-0.320935
-1.43913
-1.28559
-1.1188
-0.957756
-0.815984
-0.692629
-0.584676
-0.489728
-0.406274
-0.333779
-1.48228
-1.32175
-1.14775
-0.979336
-0.831538
-0.702837
-0.5901
-0.490859
-0.403513
-0.327207
-1.49063
-1.32462
-1.14523
-0.971143
-0.819154
-0.686611
-0.57041
-0.46805
-0.377846
-0.298682
-1.46131
-1.29113
-1.10856
-0.930723
-0.776576
-0.641748
-0.52348
-0.419246
-0.327282
-0.246274
-1.39273
-1.21923
-1.0366
-0.856037
-0.702495
-0.566993
-0.44809
-0.343236
-0.250566
-0.168708
0.301942
0.326223
0.348381
0.363471
0.372709
0.377944
0.380343
0.380645
0.379382
0.377056
0.269904
0.297199
0.322552
0.340807
0.352913
0.360704
0.365379
0.367711
0.368257
0.36763
0.211536
0.243483
0.273724
0.296837
0.313336
0.325027
0.333162
0.338569
0.341849
0.343801
0.128697
0.166734
0.2034
0.232936
0.255237
0.272056
0.284722
0.294133
0.300956
0.306242
0.0238973
0.0692094
0.113673
0.151042
0.180416
0.203457
0.221593
0.235808
0.246845
0.256066
-0.099707
-0.0461656
0.00729802
0.0537473
0.091314
0.121539
0.145955
0.16565
0.181451
0.195077
-0.238357
-0.175802
-0.112289
-0.0556703
-0.00891875
0.0293419
0.0607585
0.0865243
0.107557
0.12598
-0.387814
-0.315572
-0.241089
-0.173331
-0.116481
-0.0693703
-0.0302443
0.00218171
0.0288985
0.0524745
-0.543594
-0.461079
-0.37482
-0.295042
-0.227204
-0.170378
-0.122727
-0.0829183
-0.0498626
-0.0205987
-0.701242
-0.607988
-0.509281
-0.4167
-0.33696
-0.269348
-0.211926
-0.163287
-0.122076
-0.0859024
0.336315
0.249699
0.211589
0.177485
0.146952
0.118907
0.0920123
0.0656086
0.0393285
0.0130813
0.337599
0.256057
0.216651
0.181358
0.149758
0.12086
0.0933264
0.0664414
0.0397852
0.0132195
0.332042
0.261733
0.221479
0.185297
0.152761
0.123025
0.0948276
0.0674163
0.0403293
0.0133867
0.319173
0.26642
0.226078
0.189283
0.155941
0.125391
0.0965071
0.0685274
0.040958
0.0135825
0.298532
0.269553
0.23041
0.19329
0.159273
0.127941
0.0983542
0.0697678
0.0416677
0.0138061
0.270025
0.270208
0.234337
0.197274
0.162724
0.130656
0.100356
0.0711295
0.0424541
0.014057
0.234248
0.267237
0.237557
0.201155
0.166255
0.133511
0.102499
0.0726033
0.0433126
0.0143342
0.191752
0.260275
0.239722
0.20484
0.169827
0.136485
0.104767
0.0741792
0.0442378
0.0146366
0.142787
0.248813
0.240373
0.208178
0.173393
0.139557
0.107151
0.0758508
0.0452262
0.0149637
0.0908449
0.234331
0.239978
0.211293
0.176992
0.142741
0.109656
0.0776201
0.0462799
0.0153202
0.0782594
0.234602
0.243723
0.215445
0.180628
0.145614
0.111769
0.0790504
0.0471342
0.0156595
0.0797108
0.223949
0.236784
0.212568
0.179917
0.145767
0.112157
0.0794028
0.0473734
0.015759
0.0970807
0.218402
0.231402
0.209698
0.178819
0.14556
0.11229
0.0795951
0.047522
0.0158256
0.118614
0.215145
0.226546
0.206645
0.177351
0.145023
0.112185
0.0796328
0.0475824
0.0158617
0.141336
0.213721
0.222235
0.203515
0.175607
0.144212
0.111867
0.0795284
0.0475603
0.015869
0.162055
0.213264
0.218354
0.200376
0.173677
0.143187
0.111372
0.0792988
0.0474633
0.0158494
0.178613
0.212918
0.214728
0.197261
0.17163
0.142004
0.110733
0.0789622
0.0472994
0.0158049
0.189737
0.211865
0.211123
0.194149
0.169505
0.1407
0.109976
0.0785327
0.0470744
0.0157368
0.194133
0.209065
0.207044
0.190818
0.16719
0.13921
0.109054
0.0779772
0.0467605
0.0156268
0.19608
0.209705
0.206639
0.190356
0.166874
0.13904
0.108977
0.0779458
0.0467492
0.0156258
-0.0297827
-0.105176
-0.159698
-0.19396
-0.209448
-0.208248
-0.192487
-0.165148
-0.128044
-0.0892317
0.121629
0.0473053
-0.0101263
-0.0512915
-0.0772409
-0.0897314
-0.0900819
-0.0824406
-0.0657551
-0.0517955
0.237596
0.166185
0.108581
0.064451
0.0330583
0.0129604
0.00331062
0.000315839
0.00602515
0.0090458
0.32691
0.257829
0.200628
0.155103
0.120675
0.0961788
0.0808315
0.0716149
0.069643
0.0660641
0.395226
0.328137
0.271515
0.225283
0.188984
0.161684
0.142536
0.129315
0.122146
0.114637
0.447143
0.381535
0.325386
0.278725
0.241194
0.212044
0.19038
0.174587
0.16405
0.154079
0.485723
0.42103
0.365076
0.317981
0.27948
0.248977
0.225579
0.20808
0.195362
0.183781
0.51303
0.448627
0.392449
0.344699
0.305205
0.273517
0.2488
0.230155
0.216133
0.203724
0.530371
0.465361
0.408224
0.359242
0.318327
0.285162
0.259032
0.23935
0.224607
0.212613
0.539328
0.472118
0.412528
0.360884
0.317241
0.281465
0.252958
0.231618
0.215629
0.205438
1.60527
1.56094
1.51333
1.46315
1.40777
1.34501
1.27295
1.19028
1.10088
1.01471
1.39897
1.34876
1.29536
1.23694
1.17131
1.09678
1.01146
0.914199
0.809776
0.708368
1.17828
1.12451
1.06602
1.00054
0.92628
0.841582
0.74442
0.63379
0.515465
0.399215
0.962421
0.903696
0.838869
0.765793
0.682805
0.588092
0.479427
0.355929
0.224515
0.0938413
0.755277
0.690883
0.619425
0.538787
0.447272
0.342894
0.223212
0.0874527
-0.0559926
-0.200429
0.558425
0.488735
0.411162
0.32361
0.224328
0.111145
-0.0186193
-0.165719
-0.319602
-0.47686
0.374633
0.300483
0.217699
0.12425
0.0183522
-0.102358
-0.240945
-0.398496
-0.560529
-0.729394
0.207212
0.129586
0.0426399
-0.0555241
-0.166635
-0.293136
-0.438805
-0.606825
-0.773864
-0.952495
0.0593612
-0.0207551
-0.110831
-0.212591
-0.32771
-0.458085
-0.607565
-0.786733
-0.957382
-1.13841
-0.0662368
-0.147931
-0.240098
-0.344265
-0.462409
-0.596718
-0.744649
-0.930289
-1.10887
-1.28428
2.90797
2.92877
2.95495
2.98394
3.01308
3.04151
3.06877
3.09425
3.11759
3.13387
2.8505
2.86943
2.89331
2.9197
2.946
2.97132
2.99516
3.01684
3.03614
3.04911
2.77214
2.7883
2.8087
2.83116
2.85317
2.87378
2.89242
2.90833
2.92144
2.92975
2.67354
2.68613
2.70197
2.71926
2.73562
2.75002
2.76179
2.77006
2.775
2.77732
2.55575
2.56405
2.57436
2.58535
2.59482
2.60166
2.60505
2.60404
2.5991
2.59331
2.42033
2.4237
2.42761
2.43129
2.43276
2.4308
2.42445
2.41267
2.39635
2.38039
2.26935
2.26731
2.26409
2.25957
2.25202
2.24014
2.22282
2.19894
2.16987
2.14201
2.10532
2.09753
2.08659
2.07305
2.05556
2.03275
2.00335
1.96621
1.92325
1.88208
1.93376
1.91996
1.90021
1.87633
1.84762
1.81264
1.76995
1.71839
1.66052
1.60495
1.76057
1.73689
1.70589
1.67043
1.62967
1.58177
1.52507
1.45841
1.38504
1.31438
3.10278
1.92506
2.77173
2.64659
2.62152
2.61922
2.63038
2.66126
2.73727
2.83589
3.09476
1.91531
2.76493
2.63832
2.61206
2.60793
2.61614
2.6426
2.70935
2.79631
3.08807
1.90412
2.7597
2.62989
2.60189
2.59541
2.59979
2.62038
2.67343
2.7445
3.08259
1.89163
2.75611
2.62127
2.59103
2.58169
2.58135
2.59455
2.62987
2.67999
3.07815
1.87805
2.75421
2.6124
2.57947
2.56679
2.56088
2.56503
2.57904
2.60238
3.07459
1.86363
2.75408
2.60315
2.56721
2.55075
2.5384
2.53172
2.52108
2.51186
3.07173
1.84874
2.75574
2.59337
2.55427
2.53359
2.51394
2.49449
2.45587
2.40894
3.06938
1.83375
2.75916
2.58287
2.54066
2.51535
2.48747
2.45341
2.38558
2.29234
3.06733
1.81912
2.76421
2.57143
2.52649
2.49609
2.45905
2.40875
2.31126
2.16058
3.06521
1.80539
2.77071
2.55888
2.51191
2.47595
2.42916
2.36216
2.23646
2.022
3.06349
1.79252
2.7666
2.54763
2.49438
2.4496
2.38857
2.29911
2.13809
1.86183
3.06556
1.78277
2.75174
2.5391
2.47687
2.42237
2.34776
2.23971
2.05493
1.76672
3.0685
1.77586
2.73903
2.53066
2.46088
2.39752
2.31134
2.18883
1.98891
1.70296
3.07303
1.77151
2.72861
2.52275
2.44657
2.37543
2.27961
2.14599
1.93737
1.65697
3.07993
1.76952
2.72047
2.51575
2.43415
2.35642
2.25282
2.11091
1.89807
1.62341
3.08998
1.76972
2.71448
2.50993
2.4238
2.34069
2.23105
2.08318
1.86904
1.5996
3.10393
1.77197
2.71044
2.50546
2.41566
2.32837
2.21425
2.06234
1.84859
1.58384
3.12375
1.77614
2.70798
2.50241
2.40983
2.31952
2.20235
2.04795
1.83546
1.57501
3.14641
1.78282
2.70664
2.50077
2.40639
2.31421
2.19534
2.03982
1.8292
1.57351
3.19256
1.78863
2.70751
2.49875
2.40397
2.31055
2.19048
2.03403
1.82427
1.57113
1.57666
1.39541
1.19333
0.99815
0.812894
0.636639
0.471104
0.319035
0.183174
0.0661917
1.4885
1.34649
1.18576
1.02469
0.868727
0.718084
0.574628
0.441072
0.319907
0.212999
1.43573
1.31708
1.18197
1.04296
0.90713
0.775443
0.649172
0.53035
0.42096
0.322729
1.40229
1.29832
1.1819
1.0603
0.939831
0.822015
0.708043
0.599752
0.499037
0.407606
1.38249
1.28842
1.18492
1.07571
0.966263
0.858462
0.753497
0.653028
0.558813
0.472428
1.37175
1.28452
1.18988
1.08944
0.987915
0.887328
0.788853
0.694025
0.604497
0.521776
1.3672
1.28471
1.19611
1.10169
1.00567
0.910095
0.816123
0.725194
0.638886
0.558652
1.36714
1.28792
1.20332
1.11278
1.02028
0.927914
0.836786
0.748277
0.663906
0.585088
1.37277
1.2959
1.21349
1.12477
1.03384
0.942829
0.852811
0.76513
0.681257
0.602581
1.38234
1.30846
1.22703
1.13869
1.04808
0.957125
0.866856
0.778583
0.693723
0.613602
-2.62407
-2.39458
-2.15682
-1.93626
-1.7577
-1.61207
-1.49445
-1.40095
-1.32864
-1.27577
-2.72849
-2.50509
-2.26742
-2.04943
-1.87005
-1.7241
-1.60632
-1.51267
-1.4401
-1.38718
-2.71974
-2.50392
-2.27189
-2.05825
-1.8807
-1.73589
-1.61857
-1.52474
-1.45138
-1.39662
-2.61236
-2.40691
-2.18476
-1.9788
-1.80602
-1.66431
-1.5487
-1.45532
-1.38127
-1.32457
-2.42833
-2.23626
-2.02774
-1.83296
-1.66818
-1.53209
-1.42011
-1.32856
-1.25473
-1.19725
-2.19236
-2.01602
-1.82434
-1.64409
-1.49057
-1.36294
-1.25704
-1.1695
-1.09776
-1.04148
-1.9274
-1.76828
-1.59573
-1.43276
-1.29331
-1.17679
-1.07949
-0.99839
-0.931087
-0.878335
-1.65196
-1.51072
-1.35841
-1.21442
-1.09097
-0.987507
-0.900745
-0.828043
-0.767264
-0.719908
-1.3792
-1.25573
-1.1237
-0.999281
-0.892755
-0.803461
-0.728468
-0.665456
-0.612486
-0.57252
-1.11759
-1.01113
-0.898545
-0.793286
-0.703616
-0.628631
-0.565641
-0.512377
-0.466271
-0.429462
-0.872145
-0.781497
-0.68701
-0.599947
-0.526727
-0.466368
-0.416762
-0.376384
-0.343607
-0.314974
-0.645447
-0.569031
-0.490684
-0.419867
-0.361238
-0.313571
-0.274954
-0.24397
-0.219408
-0.197495
-0.439165
-0.375267
-0.310905
-0.254097
-0.207924
-0.170915
-0.141301
-0.117766
-0.0992442
-0.0826823
-0.254904
-0.201864
-0.149417
-0.104503
-0.0688715
-0.0408704
-0.0188803
-0.00172299
0.0115435
0.0232822
-0.0943372
-0.0505644
-0.00808594
0.0269144
0.0537591
0.0742175
0.0897714
0.101463
0.110108
0.117491
0.0409157
0.0770125
0.111392
0.138377
0.158109
0.172425
0.182691
0.189836
0.194573
0.198228
0.14945
0.17955
0.207685
0.228529
0.242806
0.252385
0.258541
0.262117
0.263746
0.264397
0.230213
0.256108
0.279874
0.296455
0.306948
0.313227
0.316503
0.317557
0.316964
0.315433
0.282589
0.306124
0.327434
0.34164
0.350034
0.354484
0.356161
0.35581
0.353969
0.351188
0.306409
0.329419
0.350204
0.363922
0.371905
0.376011
0.377398
0.376796
0.37473
0.371683
-0.105969
0.0896236
0.13363
0.137675
0.128467
0.111358
0.0898167
0.0656918
0.039938
0.01336
-0.0174862
0.125711
0.147874
0.143623
0.130141
0.111294
0.0891722
0.0649893
0.0394425
0.0131933
0.0603389
0.154021
0.158782
0.147882
0.131519
0.111336
0.0886998
0.0644369
0.039044
0.0130577
0.125912
0.176119
0.167783
0.151838
0.132931
0.111547
0.0884139
0.064038
0.0387429
0.0129534
0.181017
0.193695
0.175527
0.155549
0.134424
0.111944
0.0883221
0.0637948
0.0385389
0.0128803
0.226902
0.207258
0.182451
0.159147
0.136047
0.112545
0.0884294
0.0637081
0.038432
0.0128379
0.263919
0.218154
0.188842
0.16272
0.137831
0.113363
0.0887392
0.0637784
0.0384216
0.0128261
0.292688
0.227135
0.194911
0.166316
0.139799
0.114404
0.0892532
0.0640051
0.0385071
0.0128448
0.314119
0.235315
0.200724
0.169967
0.141971
0.115676
0.0899715
0.0643871
0.0386877
0.0128937
0.32848
0.242787
0.206282
0.173687
0.144354
0.117177
0.0908923
0.0649226
0.038962
0.0129726
-0.292858
-0.00490582
0.086106
0.115968
0.11877
0.107434
0.0885509
0.0655138
0.0400915
0.0134886
-0.266312
0.00584635
0.0910017
0.118069
0.119638
0.107778
0.088659
0.0655273
0.0400767
0.0134784
-0.235592
0.0231452
0.0996841
0.121994
0.121313
0.108422
0.0888544
0.0655451
0.0400403
0.0134525
-0.201442
0.0432579
0.110293
0.126969
0.123451
0.109411
0.0892616
0.0656898
0.0400769
0.013453
-0.159991
0.0664852
0.122843
0.13298
0.126481
0.110734
0.0898623
0.0659501
0.0401786
0.0134764
-1.21044
-1.31451
-1.33545
-1.29025
-1.20017
-1.08671
-0.964232
-0.841174
-0.7164
-0.599254
-1.2148
-1.32421
-1.34429
-1.29196
-1.1895
-1.05731
-0.911106
-0.767865
-0.630779
-0.522221
-1.22131
-1.33181
-1.34772
-1.28693
-1.17289
-1.02957
-0.876899
-0.732705
-0.599476
-0.49789
-1.23203
-1.34174
-1.35275
-1.28479
-1.16302
-1.01334
-0.856958
-0.709766
-0.576295
-0.471527
-1.24819
-1.35853
-1.36582
-1.29189
-1.16383
-1.00869
-0.847916
-0.694415
-0.552928
-0.426608
2.32036
2.2995
2.27221
2.24197
2.20797
2.16836
2.12168
2.06676
2.00636
1.95008
2.46402
2.45598
2.44304
2.42745
2.40849
2.38477
2.35509
2.31834
2.27656
2.23766
2.59461
2.59358
2.59094
2.58734
2.58121
2.57124
2.55637
2.53555
2.51014
2.48631
2.7082
2.71333
2.71896
2.72486
2.72907
2.73034
2.72775
2.72032
2.70887
2.69757
2.80117
2.8116
2.82416
2.83792
2.85066
2.86122
2.86883
2.87258
2.87285
2.87153
2.87305
2.8878
2.90598
2.92607
2.94563
2.96364
2.97943
2.99221
3.00203
3.00809
2.92341
2.94146
2.96392
2.9888
3.01354
3.03719
3.0592
3.07886
3.09602
3.10735
2.95208
2.97237
2.99776
3.02591
3.05418
3.08168
3.10792
3.13226
3.1544
3.16965
2.95895
2.98046
3.00744
3.03736
3.06753
3.09709
3.1256
3.15245
3.17726
3.19476
2.94413
2.96584
2.99309
3.02328
3.05373
3.08359
3.11243
3.13965
3.16485
3.1827
-1.05224
-1.10755
-1.18122
-1.27557
-1.39324
-1.53754
-1.71207
-1.93693
-2.1676
-2.40292
-0.719107
-0.780379
-0.85883
-0.95661
-1.07607
-1.22068
-1.3965
-1.60883
-1.82581
-2.07367
-0.297331
-0.369725
-0.456753
-0.560382
-0.682916
-0.827743
-0.999178
-1.19837
-1.41177
-1.64855
0.165697
0.0812606
-0.0141007
-0.122454
-0.246172
-0.38837
-0.552863
-0.741477
-0.945723
-1.16099
0.616668
0.526671
0.428652
0.320626
0.2003
0.0648144
-0.0893678
-0.264503
-0.453461
-0.645425
1.02401
0.937028
0.843653
0.742145
0.630486
0.506199
0.36616
0.208195
0.0386519
-0.129182
1.37935
1.30136
1.21807
1.12788
1.02903
0.919474
0.796578
0.658416
0.510641
0.367177
1.68837
1.62125
1.55023
1.47358
1.38951
1.29635
1.19192
1.07458
0.949298
0.829631
1.96177
1.90359
1.84304
1.77915
1.70957
1.63263
1.54652
1.44974
1.3465
1.24937
2.18972
2.14091
2.08946
2.03795
1.98338
1.92336
1.85604
1.7799
1.69826
1.62229
3.25108
1.95145
2.91793
2.69428
2.6668
2.66363
2.66348
2.66092
2.61747
2.53428
3.23154
1.95184
2.89801
2.69581
2.66655
2.66415
2.66699
2.67393
2.65044
2.62832
3.21281
1.95237
2.87877
2.69517
2.66557
2.66389
2.67023
2.68577
2.68363
2.71031
3.195
1.95264
2.86055
2.69264
2.66365
2.66262
2.67184
2.69468
2.71344
2.77356
3.17819
1.95233
2.84357
2.68857
2.66066
2.66022
2.67172
2.70016
2.73841
2.8209
3.16246
1.95112
2.82797
2.68325
2.65658
2.6566
2.66981
2.70227
2.75639
2.85505
3.14791
1.94877
2.81379
2.67698
2.65143
2.65172
2.66601
2.70099
2.76773
2.87593
3.13462
1.9451
2.80108
2.67
2.64527
2.64553
2.66024
2.69626
2.77193
2.88399
3.12265
1.93996
2.78983
2.66252
2.63818
2.63805
2.65241
2.68806
2.76847
2.87942
3.11207
1.93328
2.78004
2.65468
2.63025
2.62927
2.64247
2.6764
2.75698
2.86355
3.40864
1.97846
2.93539
2.70468
2.66964
2.65787
2.64099
2.60952
2.50203
2.35135
3.35871
1.97263
2.93279
2.70439
2.66938
2.65842
2.64272
2.61302
2.50863
2.35388
3.32804
1.966
2.93304
2.70246
2.669
2.65934
2.64564
2.61905
2.52115
2.36039
3.2992
1.95972
2.93175
2.69929
2.66828
2.66053
2.65004
2.62852
2.54215
2.38383
3.27262
1.95386
2.92976
2.69498
2.66727
2.66186
2.65561
2.64129
2.57143
2.42718
2.07214
1.93636
1.71793
1.41628
1.04153
0.597601
0.114258
-0.348733
-0.731698
-1.01732
2.05439
1.90971
1.69276
1.40127
1.04443
0.621897
0.152777
-0.309503
-0.706975
-1.00971
2.06561
1.90783
1.68379
1.3958
1.04885
0.639627
0.180814
-0.283638
-0.693543
-1.009
2.10607
1.92799
1.69075
1.40105
1.05645
0.651717
0.196418
-0.271285
-0.690417
-1.01503
2.17654
1.96762
1.70771
1.40995
1.06314
0.659282
0.205529
-0.2643
-0.691032
-1.02508
)
;

boundaryField
{
    left
    {
        type            zeroGradient;
    }
    right
    {
        type            fixedValue;
        value           uniform 0;
    }
    down
    {
        type            zeroGradient;
    }
    up
    {
        type            zeroGradient;
    }
    cylinder
    {
        type            zeroGradient;
    }
    defaultFaces
    {
        type            empty;
    }
}


// ************************************************************************* //
