# Selection   : all
# Cells       : 440
# Volume      : 7.374263e+01
# Time        	min(p)
5.615         	-1.678240e+00
5.66          	-1.668628e+00
5.71          	-1.651556e+00
