/*--------------------------------*- C++ -*----------------------------------*\
  =========                 |
  \\      /  F ield         | OpenFOAM: The Open Source CFD Toolbox
   \\    /   O peration     | Website:  https://openfoam.org
    \\  /    A nd           | Version:  13
     \\/     M anipulation  |
\*---------------------------------------------------------------------------*/
FoamFile
{
    format      ascii;
    class       volScalarField;
    location    "0.57";
    object      p;
}
// * * * * * * * * * * * * * * * * * * * * * * * * * * * * * * * * * * * * * //

dimensions      [0 2 -2 0 0 0 0];

internalField   nonuniform List<scalar> 
1800
(
-1.12972
-1.12332
-1.08015
-0.999516
-0.901034
-0.803372
-0.714763
-0.636378
-0.56706
-0.510192
-1.32687
-1.31937
-1.26944
-1.17766
-1.06677
-0.957418
-0.858415
-0.77122
-0.695748
-0.63365
-1.51438
-1.50531
-1.44797
-1.34482
-1.22175
-1.10101
-0.991714
-0.895271
-0.811115
-0.739532
-1.68745
-1.67626
-1.6112
-1.49712
-1.36302
-1.23241
-1.11447
-1.01032
-0.919199
-0.841125
-1.84006
-1.82609
-1.75281
-1.62808
-1.4838
-1.34433
-1.21859
-1.10742
-1.00989
-0.925316
-1.96742
-1.95011
-1.86853
-1.73394
-1.58091
-1.4342
-1.30223
-1.18552
-1.08287
-0.993267
-2.0645
-2.04327
-1.95343
-1.80994
-1.64969
-1.49733
-1.36061
-1.23968
-1.13317
-1.0397
-2.12737
-2.10181
-2.00414
-1.85306
-1.68733
-1.53108
-1.3912
-1.26748
-1.15837
-1.0622
-2.15281
-2.12272
-2.01792
-1.86076
-1.6914
-1.53304
-1.39158
-1.26648
-1.15605
-1.05838
-2.13885
-2.10433
-1.99322
-1.83173
-1.66067
-1.50191
-1.36041
-1.23528
-1.1247
-1.02659
0.329571
0.336215
0.347136
0.360502
0.372375
0.380476
0.384552
0.385206
0.383189
0.379087
0.280132
0.286627
0.298378
0.313851
0.328704
0.340048
0.347254
0.350801
0.351426
0.349873
0.202523
0.208957
0.221971
0.240662
0.260055
0.276325
0.288278
0.296204
0.300827
0.303157
0.0983444
0.104665
0.119448
0.142466
0.167895
0.19067
0.208861
0.222519
0.232361
0.239774
-0.0302856
-0.0243047
-0.00714838
0.0213081
0.0541675
0.0848783
0.110632
0.131198
0.147306
0.160831
-0.181522
-0.174865
-0.155003
-0.12015
-0.078633
-0.0387627
-0.00433824
0.0240999
0.0473118
0.0677639
-0.350617
-0.344525
-0.32124
-0.278945
-0.227643
-0.177605
-0.133649
-0.0966276
-0.0657001
-0.037813
-0.534371
-0.528709
-0.501568
-0.451138
-0.389386
-0.328657
-0.274773
-0.228898
-0.190017
-0.154735
-0.728387
-0.722832
-0.691231
-0.631899
-0.559081
-0.487252
-0.423214
-0.368414
-0.321523
-0.27936
-0.928585
-0.922612
-0.88556
-0.815997
-0.730726
-0.646388
-0.570706
-0.505291
-0.448594
-0.399037
0.341812
0.272883
0.214997
0.170343
0.134806
0.105377
0.0794978
0.0557134
0.0330907
0.0110046
0.329009
0.266902
0.212326
0.168772
0.133601
0.104387
0.0787114
0.0551392
0.0327326
0.01087
0.308147
0.257088
0.208013
0.166528
0.132129
0.103303
0.0779093
0.0545788
0.0323907
0.010741
0.278691
0.243479
0.202022
0.163571
0.130373
0.102113
0.0770824
0.0540256
0.0320606
0.0106165
0.239922
0.226133
0.194314
0.159859
0.12831
0.100805
0.0762219
0.0534727
0.031739
0.0104961
0.191084
0.205148
0.184854
0.155341
0.125915
0.0993695
0.0753198
0.0529144
0.0314223
0.0103793
0.131621
0.180797
0.173713
0.149993
0.123166
0.0977946
0.074369
0.052345
0.0311076
0.0102661
0.0604264
0.152939
0.161021
0.143841
0.120059
0.0960782
0.0733667
0.0517604
0.0307924
0.0101571
-0.024396
0.120048
0.14622
0.136621
0.11646
0.094161
0.0722872
0.0511489
0.0304721
0.0100532
-0.11761
0.082851
0.129679
0.128452
0.112346
0.0920055
0.0711047
0.0504938
0.030137
0.00995443
-0.171264
0.0488462
0.110044
0.116816
0.105429
0.0878096
0.0685111
0.0489167
0.0293007
0.00973649
-0.187002
0.0144253
0.0827689
0.0986222
0.0939976
0.0806567
0.0640109
0.0461548
0.0278039
0.00926739
-0.186207
-0.00662804
0.063188
0.0837246
0.0837309
0.0738962
0.0596482
0.0434449
0.0263213
0.00879858
-0.182161
-0.024534
0.0452574
0.0697668
0.0739154
0.0673409
0.0553868
0.0407874
0.0248584
0.00833037
-0.173914
-0.0370954
0.0304984
0.0574928
0.0649253
0.061194
0.0513429
0.0382487
0.0234512
0.0078755
-0.164774
-0.0464378
0.0181313
0.0467584
0.0568401
0.0555649
0.0476016
0.0358843
0.0221294
0.00744312
-0.15681
-0.0536195
0.00780255
0.0375232
0.0497439
0.0505549
0.0442429
0.0337467
0.0209204
0.00704048
-0.151667
-0.0598698
-0.000948299
0.0297104
0.0437062
0.0462633
0.0413489
0.0318923
0.0198564
0.00668165
-0.147575
-0.0653763
-0.00853686
0.0230618
0.0386023
0.0426363
0.0388947
0.0303055
0.0189133
0.00634325
-0.153945
-0.071344
-0.0140036
0.0188361
0.0354724
0.0404312
0.0374067
0.0293441
0.0183358
0.0061366
-0.860751
-0.892182
-0.899897
-0.885232
-0.850134
-0.797015
-0.729642
-0.648924
-0.56177
-0.467722
-0.68258
-0.713325
-0.725589
-0.720441
-0.698505
-0.6631
-0.615508
-0.558487
-0.49744
-0.433129
-0.546763
-0.577114
-0.591838
-0.592364
-0.578463
-0.554349
-0.519105
-0.477256
-0.431093
-0.38122
-0.44225
-0.472149
-0.488514
-0.492727
-0.484336
-0.467439
-0.44043
-0.408373
-0.371851
-0.332511
-0.362979
-0.392356
-0.40979
-0.416383
-0.411861
-0.399688
-0.378564
-0.353225
-0.323503
-0.291408
-0.302765
-0.331913
-0.350254
-0.358575
-0.3569
-0.347963
-0.331017
-0.31019
-0.285069
-0.257778
-0.258244
-0.287486
-0.306641
-0.316285
-0.316715
-0.310031
-0.296016
-0.278199
-0.256284
-0.232241
-0.226476
-0.256552
-0.276689
-0.287475
-0.28951
-0.284442
-0.272441
-0.256578
-0.236781
-0.215267
-0.210529
-0.240062
-0.261133
-0.27331
-0.276725
-0.272735
-0.261619
-0.245993
-0.226077
-0.202518
-0.199216
-0.231578
-0.25485
-0.269512
-0.276026
-0.275234
-0.267732
-0.255025
-0.237244
-0.21421
0.451067
0.398404
0.337727
0.272013
0.199408
0.11758
0.0262111
-0.0684252
-0.14716
-0.180239
0.257979
0.201051
0.136466
0.0645327
-0.0168477
-0.109572
-0.21333
-0.32068
-0.409996
-0.446715
0.0506897
-0.0111436
-0.0805951
-0.158553
-0.247222
-0.348462
-0.461821
-0.579283
-0.678232
-0.717102
-0.144716
-0.213206
-0.28991
-0.376035
-0.473653
-0.584615
-0.708239
-0.83581
-0.945757
-0.985373
-0.32388
-0.399869
-0.484685
-0.579783
-0.687258
-0.808967
-0.943758
-1.08135
-1.20279
-1.24056
-0.4886
-0.571411
-0.663732
-0.767278
-0.884227
-1.01645
-1.16268
-1.31066
-1.43727
-1.47467
-0.638437
-0.726693
-0.825247
-0.93592
-1.06082
-1.20168
-1.35654
-1.52
-1.64079
-1.6824
-0.770246
-0.862753
-0.966386
-1.08302
-1.21469
-1.36305
-1.52856
-1.68987
-1.81125
-1.85491
-0.87995
-0.975797
-1.08334
-1.20447
-1.34132
-1.49541
-1.66442
-1.82762
-1.94745
-1.98951
-0.965581
-1.0636
-1.17353
-1.29747
-1.43755
-1.59503
-1.76591
-1.92949
-2.04586
-2.08447
1.62082
1.63477
1.6505
1.66619
1.68086
1.6939
1.70452
1.71225
1.71832
1.7233
1.5691
1.58104
1.59431
1.60719
1.61875
1.62836
1.63522
1.63906
1.64183
1.64509
1.49717
1.5063
1.51603
1.52487
1.53197
1.53664
1.53806
1.5363
1.53431
1.53515
1.40557
1.41117
1.41642
1.4201
1.42148
1.41981
1.41426
1.4053
1.39721
1.39496
1.29519
1.29673
1.29673
1.29429
1.28888
1.27964
1.26573
1.24815
1.23273
1.22676
1.16766
1.16474
1.15881
1.14938
1.13614
1.11816
1.09462
1.06712
1.04327
1.03319
1.02565
1.01809
1.00582
0.988768
0.966892
0.939189
0.904887
0.866316
0.833055
0.818517
0.87534
0.862363
0.842328
0.816085
0.784053
0.745144
0.698635
0.647692
0.604098
0.584992
0.722397
0.70391
0.675331
0.638773
0.595284
0.543709
0.483478
0.418772
0.363826
0.339848
0.578538
0.545705
0.502309
0.452229
0.395617
0.330476
0.25608
0.177454
0.111084
0.0825391
1.47042
1.378
1.48765
1.3723
1.40203
1.40721
1.41323
1.43746
1.47969
1.56351
1.46472
1.3729
1.4827
1.36638
1.39552
1.39923
1.40302
1.42368
1.45952
1.52991
1.45947
1.36789
1.47803
1.35981
1.38862
1.3905
1.39132
1.40728
1.43407
1.48458
1.45467
1.363
1.47364
1.35263
1.38138
1.381
1.37812
1.38815
1.40331
1.42708
1.45031
1.35827
1.46952
1.34487
1.37384
1.37072
1.36341
1.36612
1.36723
1.35674
1.44642
1.35375
1.46564
1.33658
1.36605
1.35962
1.34714
1.34105
1.32571
1.27295
1.44296
1.34951
1.46192
1.32783
1.35805
1.34764
1.32927
1.31284
1.27836
1.17478
1.43995
1.34561
1.45826
1.31875
1.34984
1.33473
1.3097
1.28137
1.22484
1.06438
1.4374
1.34215
1.45448
1.30954
1.34143
1.3209
1.28846
1.24643
1.164
0.938798
1.43552
1.3393
1.45032
1.30046
1.3327
1.30623
1.26592
1.20952
1.09932
0.811149
1.43346
1.33621
1.44494
1.29197
1.31997
1.28751
1.23667
1.16265
1.02684
0.692089
1.43335
1.33261
1.44047
1.28409
1.30521
1.26742
1.20623
1.1177
0.965625
0.648761
1.43446
1.32981
1.43698
1.27669
1.29175
1.24877
1.17859
1.07904
0.91683
0.616357
1.43813
1.32825
1.43422
1.27013
1.27965
1.23187
1.15408
1.04648
0.877377
0.594704
1.44421
1.32807
1.43209
1.26453
1.2691
1.21707
1.13311
1.01973
0.846759
0.58209
1.45316
1.32933
1.43054
1.25996
1.26023
1.20458
1.11583
0.998456
0.823964
0.575463
1.4652
1.33123
1.42944
1.25635
1.25313
1.19454
1.10227
0.982252
0.807817
0.573057
1.48505
1.33552
1.42941
1.25366
1.24793
1.18706
1.09242
0.970794
0.797337
0.574088
1.49951
1.33542
1.42727
1.25156
1.24481
1.18222
1.08632
0.963919
0.791504
0.578223
1.55038
1.34563
1.42984
1.24872
1.24443
1.17969
1.08347
0.96056
0.789142
0.580848
0.424935
0.259123
0.078931
-0.0884856
-0.241302
-0.383301
-0.514417
-0.631045
-0.72913
-0.805033
0.366878
0.239667
0.101731
-0.0308103
-0.154735
-0.271565
-0.380909
-0.479609
-0.564673
-0.634259
0.342793
0.240547
0.131295
0.0210897
-0.0848509
-0.18523
-0.279597
-0.365551
-0.440213
-0.501315
0.34081
0.250931
0.157972
0.0627586
-0.0299713
-0.11782
-0.200615
-0.276741
-0.343614
-0.399231
0.348289
0.26622
0.184158
0.100019
0.0166905
-0.0629477
-0.138287
-0.208025
-0.269905
-0.322038
0.360003
0.283352
0.208255
0.131378
0.0543157
-0.0198119
-0.0900101
-0.155233
-0.213541
-0.263136
0.372593
0.299901
0.229468
0.157426
0.0845724
0.0140926
-0.0527652
-0.115084
-0.171135
-0.219248
0.38483
0.314706
0.247336
0.178256
0.107879
0.0395224
-0.02541
-0.0860448
-0.140735
-0.187868
0.399179
0.330655
0.2643
0.19567
0.125507
0.0572269
-0.00770636
-0.0684267
-0.123444
-0.171222
0.412507
0.347503
0.281851
0.212732
0.142508
0.074006
0.00842228
-0.0531497
-0.109174
-0.158214
-3.25654
-3.19882
-3.04578
-2.84689
-2.65061
-2.47806
-2.33245
-2.21193
-2.11519
-2.04243
-3.33823
-3.29139
-3.15308
-2.96031
-2.76295
-2.58699
-2.43807
-2.31482
-2.21648
-2.14429
-3.31817
-3.28256
-3.16055
-2.9751
-2.77627
-2.59563
-2.44217
-2.31518
-2.2136
-2.1384
-3.1998
-3.17472
-3.06893
-2.89139
-2.69098
-2.50477
-2.34557
-2.21381
-2.10798
-2.02729
-2.99116
-2.9753
-2.88434
-2.71588
-2.51578
-2.32534
-2.16109
-2.02488
-1.91513
-1.82948
-2.70478
-2.69636
-2.61816
-2.46107
-2.26606
-2.07606
-1.91038
-1.77238
-1.66063
-1.57348
-2.36125
-2.35729
-2.28987
-2.14742
-1.96471
-1.78294
-1.62243
-1.48787
-1.37764
-1.29238
-1.9868
-1.98373
-1.92554
-1.80065
-1.63732
-1.4721
-1.32432
-1.19934
-1.09605
-1.01648
-1.60944
-1.6046
-1.55505
-1.44965
-1.31065
-1.16846
-1.04009
-0.930758
-0.83967
-0.772437
-1.2497
-1.24474
-1.20294
-1.11636
-1.00238
-0.885101
-0.778342
-0.686386
-0.606929
-0.546046
-0.924145
-0.918176
-0.883556
-0.814167
-0.723933
-0.631667
-0.548391
-0.477962
-0.418576
-0.367423
-0.638252
-0.631727
-0.603248
-0.548285
-0.478049
-0.406932
-0.343222
-0.289611
-0.245118
-0.204686
-0.392231
-0.38542
-0.361935
-0.31849
-0.264201
-0.209969
-0.161839
-0.121492
-0.0883283
-0.057768
-0.18448
-0.177511
-0.15806
-0.123975
-0.082742
-0.0425275
-0.00757775
0.0211839
0.0443378
0.0653348
-0.0130175
-0.00603253
0.0102405
0.0368394
0.0675716
0.0964115
0.120545
0.139611
0.154257
0.166874
0.124025
0.130864
0.144779
0.165661
0.188319
0.208354
0.224043
0.235439
0.243241
0.249058
0.228005
0.23464
0.246911
0.26366
0.280432
0.294007
0.303454
0.309117
0.311731
0.312384
0.299751
0.306403
0.317589
0.331613
0.344483
0.353753
0.359013
0.3608
0.359868
0.35698
0.340118
0.346842
0.357463
0.370064
0.380881
0.387867
0.390891
0.390592
0.387732
0.382897
0.34983
0.356564
0.367103
0.3795
0.390008
0.396633
0.39929
0.398637
0.395437
0.390221
-0.0528573
0.119996
0.153342
0.150679
0.134755
0.112869
0.0887352
0.0637802
0.0384648
0.0129086
0.0526306
0.155896
0.167826
0.15658
0.135835
0.112175
0.087556
0.0626818
0.0377199
0.0126532
0.137171
0.184579
0.179337
0.160358
0.136501
0.11146
0.0864497
0.0616632
0.0370314
0.0124157
0.201241
0.208341
0.189312
0.163908
0.137001
0.110763
0.0854209
0.0607222
0.0363959
0.0121951
0.250668
0.228649
0.197822
0.166741
0.137291
0.110068
0.0844573
0.059851
0.0358091
0.0119897
0.288262
0.245405
0.204641
0.168886
0.137387
0.109369
0.08355
0.0590433
0.0352673
0.0117983
0.315649
0.258473
0.209839
0.170398
0.137289
0.108654
0.0826889
0.0582922
0.0347664
0.0116194
0.334075
0.267836
0.213474
0.171296
0.136992
0.107911
0.0818636
0.0575908
0.0343025
0.0114519
0.344347
0.27334
0.215549
0.171589
0.136487
0.107126
0.0810636
0.0569321
0.0338714
0.0112944
0.346886
0.275026
0.216062
0.171275
0.135763
0.106286
0.0802785
0.0563087
0.0334689
0.0111456
-0.262142
-0.00479327
0.092612
0.123099
0.123911
0.109637
0.0886134
0.0646785
0.0394112
0.0133389
-0.236912
0.019727
0.102597
0.127293
0.12512
0.109924
0.0885932
0.0645656
0.0392886
0.013283
-0.20047
0.0366782
0.111256
0.131333
0.126851
0.11048
0.0886471
0.0644471
0.0391449
0.0132144
-0.161673
0.0594469
0.122935
0.136868
0.12929
0.111381
0.0888489
0.0643869
0.0390274
0.0131553
-0.118825
0.0896147
0.139215
0.144799
0.132721
0.112591
0.089182
0.0643793
0.0389338
0.0131055
-1.97728
-2.07751
-2.08313
-1.99868
-1.83533
-1.63095
-1.38069
-1.14637
-0.904932
-0.684637
-1.97478
-2.07176
-2.07223
-1.9822
-1.81629
-1.60906
-1.35594
-1.11568
-0.881333
-0.659635
-1.97681
-2.07388
-2.07052
-1.97378
-1.80003
-1.5804
-1.31997
-1.06288
-0.825537
-0.618461
-1.98661
-2.08576
-2.08001
-1.97525
-1.78929
-1.55024
-1.27907
-1.01075
-0.779087
-0.585086
-2.00528
-2.1067
-2.09862
-1.98576
-1.78695
-1.53153
-1.25184
-0.979599
-0.74268
-0.536193
1.0299
1.00725
0.976542
0.940841
0.900355
0.853136
0.797861
0.737889
0.686915
0.663414
1.16178
1.15457
1.13944
1.11824
1.09197
1.05946
1.01977
0.975595
0.938031
0.921261
1.28844
1.28655
1.27959
1.26834
1.25319
1.23313
1.2072
1.17723
1.15174
1.14106
1.40001
1.40311
1.40352
1.40098
1.39537
1.3858
1.37137
1.35322
1.33764
1.3319
1.4939
1.50091
1.5068
1.51085
1.51264
1.51135
1.5061
1.49747
1.49001
1.48848
1.56754
1.57787
1.5883
1.59773
1.60549
1.61083
1.61291
1.61184
1.61074
1.6124
1.62015
1.633
1.64686
1.66029
1.67248
1.68274
1.69027
1.69483
1.69842
1.70241
1.65173
1.66624
1.68238
1.69846
1.71357
1.72707
1.73817
1.7464
1.75304
1.7585
1.66231
1.67757
1.69477
1.7121
1.72858
1.74361
1.75641
1.76638
1.77443
1.78053
1.65198
1.66705
1.6841
1.70128
1.7176
1.73247
1.7451
1.75488
1.76273
1.76868
-1.845
-1.92052
-2.0167
-2.13464
-2.27691
-2.4461
-2.64076
-2.84331
-3.00841
-3.0749
-1.57057
-1.64881
-1.7446
-1.85975
-1.99793
-2.16189
-2.35092
-2.55629
-2.73132
-2.80132
-1.24155
-1.32069
-1.41567
-1.52802
-1.66151
-1.81904
-2.00049
-2.19468
-2.38145
-2.44849
-0.880905
-0.959849
-1.0534
-1.16231
-1.28983
-1.43894
-1.61031
-1.79579
-1.96975
-2.04303
-0.51361
-0.592339
-0.683474
-0.787349
-0.90701
-1.04568
-1.20482
-1.37685
-1.53234
-1.60371
-0.167801
-0.243509
-0.329042
-0.424605
-0.533245
-0.658275
-0.801308
-0.955276
-1.09193
-1.15711
0.140495
0.0729146
-0.00262892
-0.0862355
-0.180924
-0.289898
-0.41462
-0.548604
-0.666155
-0.722892
0.416308
0.359925
0.29656
0.226282
0.146083
0.0530091
-0.0539976
-0.168812
-0.268263
-0.316194
0.675102
0.628118
0.574
0.513899
0.445071
0.364925
0.27283
0.174612
0.0909461
0.0512498
0.90338
0.861914
0.812263
0.758825
0.699651
0.632281
0.555776
0.474871
0.406875
0.375286
1.5626
1.42924
1.53575
1.38973
1.44515
1.44227
1.43771
1.43596
1.3967
1.23022
1.54914
1.42453
1.53319
1.39116
1.44236
1.44266
1.44
1.44661
1.42878
1.31645
1.53697
1.41957
1.52959
1.39214
1.43925
1.44227
1.44289
1.45661
1.45687
1.40261
1.52596
1.41446
1.5252
1.39249
1.43586
1.44096
1.4441
1.46333
1.47797
1.469
1.51594
1.40926
1.52024
1.39208
1.43217
1.43869
1.44391
1.46734
1.49329
1.52108
1.50675
1.40404
1.51491
1.39084
1.42816
1.43551
1.44235
1.46871
1.50345
1.55888
1.49829
1.3988
1.50938
1.38874
1.42377
1.43146
1.43941
1.46747
1.50877
1.58351
1.49049
1.39357
1.50379
1.3858
1.41899
1.42658
1.43504
1.46369
1.50921
1.59584
1.48327
1.38835
1.49825
1.38205
1.41377
1.42089
1.42924
1.45743
1.50446
1.59646
1.47659
1.38316
1.49285
1.37753
1.40812
1.41443
1.42197
1.4487
1.49465
1.58565
1.69308
1.44599
1.54411
1.38643
1.44764
1.43545
1.41873
1.39049
1.29863
1.08221
1.63996
1.43966
1.54139
1.38912
1.44646
1.43695
1.42017
1.39378
1.30542
1.08729
1.61908
1.44081
1.54135
1.39018
1.44643
1.43815
1.42306
1.40016
1.31913
1.09874
1.59639
1.43793
1.53964
1.39023
1.44647
1.43941
1.42706
1.40932
1.33772
1.12093
1.57786
1.43381
1.53766
1.3895
1.44645
1.44065
1.43154
1.42066
1.3614
1.14482
0.722808
0.565969
0.358856
0.0872477
-0.233954
-0.575971
-0.91517
-1.24191
-1.54376
-1.79543
0.723035
0.567152
0.36722
0.10573
-0.206498
-0.546427
-0.890631
-1.22442
-1.53295
-1.79059
0.742528
0.582273
0.380307
0.12603
-0.178339
-0.518866
-0.870908
-1.21251
-1.52692
-1.78962
0.792846
0.613749
0.398193
0.144667
-0.155069
-0.496484
-0.856037
-1.20605
-1.52668
-1.79484
0.871236
0.663223
0.423763
0.161554
-0.139334
-0.482044
-0.846898
-1.20452
-1.53237
-1.8076
)
;

boundaryField
{
    left
    {
        type            zeroGradient;
    }
    right
    {
        type            fixedValue;
        value           uniform 0;
    }
    down
    {
        type            zeroGradient;
    }
    up
    {
        type            zeroGradient;
    }
    cylinder
    {
        type            zeroGradient;
    }
    defaultFaces
    {
        type            empty;
    }
}


// ************************************************************************* //
