/*--------------------------------*- C++ -*----------------------------------*\
  =========                 |
  \\      /  F ield         | OpenFOAM: The Open Source CFD Toolbox
   \\    /   O peration     | Website:  https://openfoam.org
    \\  /    A nd           | Version:  13
     \\/     M anipulation  |
\*---------------------------------------------------------------------------*/
FoamFile
{
    format      ascii;
    class       surfaceScalarField;
    location    "3.85";
    object      phi;
}
// * * * * * * * * * * * * * * * * * * * * * * * * * * * * * * * * * * * * * //

dimensions      [0 3 -1 0 0 0 0];

internalField   nonuniform List<scalar> 
3485
(
-0.00168592
0.00405101
-0.00236508
-0.00421147
0.00799098
-0.00546544
-0.00561693
0.00897535
-0.0075699
-0.0043173
0.00747063
-0.00877026
0.00103918
0.00354734
-0.00890382
0.0115844
-0.00281531
-0.00772988
0.02831
-0.0116418
-0.00508381
0.0517732
-0.0226209
-0.000842321
0.0825826
-0.0348715
0.00406205
-0.0406353
0.00727067
0.115947
-0.00066078
0.00471179
-0.000832616
0.00816282
0.00115166
0.00699108
0.00687378
0.00174851
0.0176989
-0.00727774
0.0346596
-0.0197761
0.0581868
-0.035169
0.088183
-0.052617
0.124404
-0.0710922
-0.0844577
0.168226
0.000326599
0.00438519
0.00275078
0.00573864
0.00884884
0.000893015
0.0202077
-0.00961037
0.0379227
-0.0249928
0.0623169
-0.0441702
0.0927227
-0.0655748
0.127564
-0.0874582
0.164915
-0.108443
-0.12574
0.206197
0.00098368
0.00340151
0.00578158
0.000940741
0.0161877
-0.00951312
0.0334257
-0.0268483
0.0577865
-0.0493536
0.0881917
-0.0745754
0.122448
-0.0998313
0.157859
-0.122869
0.191681
-0.142265
-0.157329
0.22327
0.00184084
0.00156067
0.00942363
-0.00664205
0.0244154
-0.0245049
0.0472294
-0.0496623
0.0764559
-0.0785802
0.109179
-0.107299
0.141982
-0.132634
0.171922
-0.15281
0.197088
-0.16743
-0.177337
0.217096
0.00299391
-0.00143323
0.0137237
-0.0173718
0.0330782
-0.0438594
0.0596962
-0.0762804
0.0901181
-0.109002
0.12025
-0.13743
0.146845
-0.159229
0.168208
-0.174173
0.184163
-0.183385
-0.188474
0.1953
0.00431311
-0.00574635
0.0180716
-0.0311303
0.0404445
-0.0662323
0.0678218
-0.103658
0.0954336
-0.136614
0.119544
-0.161541
0.138409
-0.178095
0.152075
-0.187838
0.161554
-0.192864
-0.195106
0.168186
0.00561179
-0.0113581
0.0215856
-0.0471041
0.0447483
-0.089395
0.0697777
-0.128687
0.0920983
-0.158934
0.109467
-0.17891
0.121763
-0.190391
0.129997
-0.196072
0.135441
-0.198308
-0.198648
0.138982
0.00665003
-0.0180082
0.0235156
-0.0639697
0.0451956
-0.111075
0.065965
-0.149457
0.0825102
-0.17548
0.0941133
-0.190513
0.101579
-0.197856
0.106164
-0.200657
0.108929
-0.201073
-0.20027
0.110551
0.00724492
-0.0252531
0.0235484
-0.0802732
0.0421628
-0.129689
0.0580941
-0.165388
0.0694428
-0.186828
0.0764873
-0.197557
0.0803799
-0.201749
0.0822864
-0.202563
0.083026
-0.201813
0.0829849
-0.200229
-0.00499737
0.00906321
-0.00406584
-0.0154632
0.0217714
-0.0113055
-0.02878
0.0290424
-0.0157257
-0.0435107
0.0325185
-0.0177878
-0.0589609
0.033999
-0.0185488
-0.0748293
0.0346411
-0.0187727
-0.0909669
0.0349455
-0.0188079
-0.107254
0.0350676
-0.0187803
-0.123577
0.0350744
-0.0187519
0.0353452
-0.140008
-0.0189134
-0.00284736
0.0119106
-0.00974281
0.0286668
-0.01946
0.0387596
-0.0309185
0.043977
-0.0432894
0.04637
-0.0560713
0.047423
-0.0689974
0.0478716
-0.0819024
0.0479725
-0.0946367
0.0478087
0.0477836
-0.107075
1.47713e-05
0.0118958
-0.00155155
0.0302331
-0.00547952
0.0426876
-0.0114426
0.04994
-0.0186754
0.0536028
-0.026462
0.0552096
-0.0343349
0.0557446
-0.0420423
0.0556799
-0.049425
0.0551913
0.0544102
-0.0560516
0.00238104
0.00951476
0.00606719
0.026547
0.00870821
0.0400466
0.00940626
0.0492419
0.00834943
0.0546596
0.0061932
0.0573658
0.0035885
0.0583493
0.000997653
0.0582708
-0.00127377
0.0574628
0.056267
-0.00313055
0.00351793
0.00599683
0.0107784
0.0192866
0.0190218
0.0318031
0.0264532
0.0418105
0.0323651
0.0487478
0.0368648
0.0528661
0.040462
0.0547521
0.0437378
0.054995
0.0471712
0.0540293
0.051918
0.0515202
0.00330369
0.00269314
0.0113371
0.0112532
0.0221277
0.0210125
0.0338678
0.0300704
0.0453184
0.0372972
0.0559019
0.0422827
0.0655591
0.0450948
0.0745243
0.0460298
0.0831176
0.045436
0.0431608
0.0918748
0.00225384
0.000439308
0.00857869
0.0049283
0.0181791
0.0114121
0.0299531
0.0182964
0.0428343
0.024416
0.0560286
0.0290884
0.0690764
0.032047
0.081798
0.0333082
0.0942196
0.0330144
0.0306842
0.106696
0.000888574
-0.000449266
0.0041289
0.00168797
0.00991227
0.00562873
0.0179909
0.0102178
0.0278591
0.0145477
0.0389544
0.0179931
0.0508077
0.0201937
0.0631308
0.0209851
0.0759156
0.0202297
0.0171802
0.0894196
-0.000713325
0.000264059
-0.0011271
0.00210175
-0.000226752
0.00472839
0.00243575
0.0075553
0.00692879
0.0100547
0.0131362
0.0117857
0.0208878
0.0124421
0.0300427
0.0118302
0.0405181
0.00975427
0.00567079
0.0520275
-0.00210103
-0.00546471
-0.00830623
-0.00952119
-0.00837033
-0.0043145
0.00304375
0.0140316
0.0278479
0.0407894
-0.228616
0.268294
-0.179687
-0.204781
0.317754
-0.341588
-0.0814347
0.161608
-0.284955
0.0254896
-0.166415
0.0594906
0.0971531
-0.398008
0.326344
0.145492
-0.416983
0.368644
0.174964
-0.379727
0.350255
0.191954
-0.28903
0.27204
0.203537
-0.236571
0.224988
-0.148094
0.141451
-0.181092
0.342311
-0.160463
0.297124
-0.0460043
0.0471498
0.0563824
-0.268802
0.122942
-0.464567
0.166916
-0.460957
0.191767
-0.404578
0.204883
-0.302146
0.21239
-0.244078
-0.15216
-0.109009
0.395268
-0.092724
0.280839
0.00277606
-0.0483502
0.0919407
-0.357966
0.151228
-0.523855
0.188977
-0.498705
0.208393
-0.423994
0.217538
-0.311291
0.221273
-0.247813
-0.153829
-0.0306646
0.422802
-0.017095
0.26727
0.0533183
-0.118763
0.129107
-0.433754
0.179645
-0.574394
0.210568
-0.529628
0.224303
-0.437729
0.229347
-0.316335
0.229634
-0.248101
-0.153396
0.0438384
0.430484
0.0522712
0.258837
0.103946
-0.170439
0.164786
-0.494594
0.206263
-0.615871
0.230489
-0.553854
0.238969
-0.446208
0.240027
-0.317393
0.237152
-0.245225
-0.151167
0.106622
0.415737
0.112146
0.253313
0.150047
-0.20834
0.197478
-0.542025
0.230035
-0.648427
0.247942
-0.571761
0.251905
-0.450172
0.249415
-0.314904
0.243681
-0.239491
-0.147424
0.151643
0.37079
0.160332
0.244624
0.189412
-0.237419
0.225606
-0.57822
0.249962
-0.672783
0.262397
-0.584197
0.262756
-0.45053
0.257398
-0.309546
0.249177
-0.231271
-0.142445
0.173969
0.286241
0.195399
0.223194
0.22125
-0.26327
0.248233
-0.605203
0.265414
-0.689964
0.273533
-0.592316
0.271292
-0.448289
0.263885
-0.302139
0.253648
-0.221033
-0.136512
0.169671
0.168597
0.218249
0.174615
0.245962
-0.290982
0.265071
-0.624312
0.27627
-0.701163
0.281322
-0.597368
0.277455
-0.444422
0.268817
-0.293501
0.257098
-0.209314
-0.129933
0.151335
0.0580512
0.233667
0.0922837
0.263805
-0.32112
0.275771
-0.636278
0.283262
-0.708654
0.286239
-0.600345
0.281464
-0.439647
0.272231
-0.284267
0.259552
-0.196636
-0.123029
0.413433
0.0319726
-0.387355
0.566764
-0.0610465
0.659101
-0.413457
0.662127
-0.639304
0.619323
-0.66585
0.56262
-0.543642
0.505026
-0.382053
0.456618
-0.23586
0.413972
-0.15399
-0.0973478
0.660503
0.00679689
-0.635328
0.740864
-0.141407
0.759907
-0.432501
0.706456
-0.585853
0.634322
-0.593716
0.567578
-0.476898
0.506333
-0.320808
0.456608
-0.186135
0.413862
-0.111244
-0.0710623
0.761052
-0.0312925
-0.722963
0.790554
-0.170909
0.754151
-0.396097
0.693445
-0.525147
0.635761
-0.536032
0.576988
-0.418125
0.514826
-0.258646
0.461009
-0.132318
0.414899
-0.0651345
-0.0431234
0.772164
-0.06457
-0.738886
0.777781
-0.176526
0.746425
-0.364741
0.704071
-0.482793
0.645998
-0.477959
0.575443
-0.34757
0.504536
-0.18774
0.447457
-0.0752387
0.402903
-0.0205805
-0.0172879
0.757317
-0.0883904
-0.733497
0.76047
-0.17968
0.736142
-0.340413
0.690584
-0.437235
0.622115
-0.40949
0.545804
-0.271259
0.477574
-0.11951
0.42556
-0.0232246
0.386528
0.0184506
0.00503848
0.740818
-0.104536
-0.724673
0.743264
-0.182125
0.717593
-0.314743
0.659853
-0.379494
0.57498
-0.324617
0.490371
-0.186649
0.425465
-0.0546042
0.382945
0.0192962
0.355658
0.0457374
0.0201997
0.721716
-0.112145
-0.714107
0.71651
-0.176919
0.670397
-0.26863
0.580178
-0.289276
0.473349
-0.217788
0.38949
-0.10279
0.339819
-0.00493334
0.316615
0.0425001
0.307787
0.0545659
0.0250528
0.674249
-0.101869
-0.684526
0.640221
-0.142891
0.550696
-0.179104
0.424131
-0.162711
0.311483
-0.105141
0.24664
-0.0379471
0.225377
0.0163294
0.227885
0.0399928
0.239569
0.0428813
0.0196506
0.522359
-0.0596092
-0.564619
0.443011
-0.0635429
0.32063
-0.0567238
0.199749
-0.0418291
0.12246
-0.0278523
0.0942409
-0.00972806
0.100827
0.00974344
0.122597
0.018223
0.146562
0.0189159
0.0086734
0.186002
-0.245611
0.122459
0.065735
0.0239058
-0.00394647
-0.0136745
-0.00393109
0.0142919
0.0332078
0.549228
0.0718067
-0.53805
0.56155
0.0982298
0.576495
0.124036
0.592445
0.152236
0.608084
0.17966
0.620713
0.204468
0.612913
0.23107
0.581329
0.237781
0.492033
0.257522
0.220626
0.529917
0.0607537
-0.518864
0.544663
0.0834841
0.560546
0.108152
0.582665
0.130118
0.603084
0.159242
0.630369
0.177182
0.649119
0.21232
0.665378
0.221522
0.664229
0.258671
0.249527
0.516094
0.0509591
-0.506299
0.531015
0.0685628
0.546426
0.092742
0.567889
0.108654
0.58968
0.137451
0.616422
0.15044
0.645281
0.183461
0.673639
0.193163
0.706222
0.226088
0.232787
0.506661
0.0411574
-0.496859
0.520451
0.0547729
0.536453
0.0767397
0.555742
0.089365
0.578962
0.114231
0.603702
0.125701
0.635392
0.15177
0.665878
0.162678
0.704787
0.187178
0.198687
0.499278
0.0309622
-0.489082
0.511899
0.0421518
0.52854
0.0600981
0.546747
0.0711578
0.570516
0.090462
0.594884
0.101333
0.626129
0.120526
0.65737
0.131437
0.695431
0.149118
0.160622
0.491901
0.0208581
-0.481797
0.503949
0.030104
0.520544
0.0435034
0.538689
0.0530128
0.562166
0.0669845
0.58695
0.0765494
0.617312
0.0901636
0.649057
0.0996921
0.685902
0.112272
0.121852
0.481156
0.0113604
-0.471658
0.492964
0.0182956
0.509071
0.0273968
0.527454
0.0346296
0.55048
0.0439585
0.575803
0.0512271
0.605743
0.0602228
0.638097
0.067338
0.674856
0.0755129
0.0826014
0.456215
0.00320114
-0.448055
0.467135
0.00737486
0.481999
0.0125332
0.499784
0.0168445
0.521737
0.0220056
0.546734
0.0262296
0.575943
0.0310142
0.60827
0.0350109
0.644796
0.0389872
0.0428718
0.384516
-0.00139075
-0.379925
0.391784
0.000107173
0.4024
0.00191765
0.415822
0.00342171
0.432745
0.0050834
0.452558
0.00641649
0.475813
0.00775863
0.50206
0.00876407
0.531475
0.00957214
0.00972832
0.192841
-0.194232
0.192948
0.194866
0.198288
0.203371
0.209788
0.217546
0.22631
0.235883
0.0714233
0.147751
-0.136099
-0.0830752
0.0607231
0.149919
-0.139219
0.0508547
0.152524
-0.142655
0.0412919
0.156
-0.146437
0.0317894
0.159692
-0.150189
0.0224431
0.162469
-0.153123
0.0136853
0.161615
-0.152857
0.00633886
0.151176
-0.143829
0.00149985
0.120775
-0.115936
0.056638
-0.0551382
0.067317
0.158176
-0.077742
0.0570484
0.160188
0.0471221
0.16245
0.0375493
0.165573
0.0282381
0.169003
0.0193053
0.171402
0.0112134
0.169707
0.00476659
0.157623
0.000888737
0.124653
0.0575267
0.0596134
0.167372
-0.0688101
0.050141
0.16966
0.0407971
0.171794
0.0317673
0.174603
0.023096
0.177674
0.0149585
0.17954
0.00784762
0.176818
0.00260566
0.162865
2.01472e-05
0.127239
0.0575469
0.0482317
0.175265
-0.0561241
0.040004
0.177888
0.0317238
0.180074
0.0236456
0.182681
0.0159501
0.18537
0.00894605
0.186544
0.00319979
0.182564
-0.000401271
0.166466
-0.00108196
0.127919
0.0564649
0.034704
0.182056
-0.0414948
0.0277148
0.184877
0.0206321
0.187157
0.0137023
0.189611
0.00720887
0.191863
0.00157794
0.192175
-0.00234398
0.186486
-0.0036856
0.167807
-0.00233851
0.126572
0.0541264
0.0192867
0.187751
-0.0249825
0.0135194
0.190644
0.00771961
0.192957
0.00211585
0.195214
-0.00291894
0.196898
-0.00674563
0.196001
-0.00854771
0.188288
-0.00748807
0.166748
-0.00366825
0.122752
0.0504582
0.00261852
0.192589
-0.00745566
-0.00206122
0.195324
-0.00662665
0.197522
-0.0108439
0.199432
-0.0142524
0.200307
-0.0161113
0.19786
-0.0154204
0.187597
-0.0114451
0.162772
-0.00494091
0.116248
0.0455173
-0.0160731
0.196291
0.012371
-0.0195301
0.198781
-0.0227338
0.200726
-0.0253925
0.20209
-0.0269094
0.201823
-0.0263535
0.197304
-0.0226656
0.183909
-0.0153765
0.155483
-0.00605814
0.10693
0.0394591
-0.0364525
0.198882
0.0338617
-0.038675
0.201004
-0.0404417
0.202493
-0.0413419
0.202991
-0.0406063
0.201088
-0.0371467
0.193845
-0.0299383
0.176701
-0.0189855
0.14453
-0.00688934
0.0948337
0.0325698
-0.0589403
0.057593
-0.0597496
-0.0598204
-0.0585785
-0.0550478
-0.0480314
-0.0367183
-0.0218772
-0.00731671
0.109822
0.0381824
-0.122042
-0.0259627
0.0973196
0.0392242
-0.0267216
0.0845232
0.0403544
-0.0275579
0.0714071
0.0415594
-0.0284433
0.0579536
0.0428207
-0.0293672
0.0441872
0.0440015
-0.0302351
0.0302929
0.0445648
-0.0306705
0.0169142
0.0429921
-0.0296134
0.00569819
0.0360278
-0.0248118
0.0182507
-0.0125525
0.108488
0.0503584
-0.120664
0.0961075
0.0516051
0.0834457
0.0530161
0.0704724
0.0545328
0.0571618
0.0561312
0.0435368
0.0576265
0.0297912
0.0583104
0.0165826
0.0562007
0.00555516
0.0470552
0.0238059
0.106764
0.062377
-0.118783
0.0944786
0.0638909
0.0819379
0.0655568
0.0691154
0.0673552
0.0559884
0.0692582
0.0425749
0.07104
0.0290659
0.0718194
0.016122
0.0691447
0.00536875
0.0578085
0.0291746
0.104453
0.0743927
-0.116469
0.0923195
0.0760245
0.0799248
0.0779515
0.067247
0.080033
0.0542835
0.0822217
0.0410864
0.0842371
0.0278784
0.0850274
0.0153331
0.08169
0.00503677
0.0681048
0.0342114
0.101612
0.0861557
-0.113375
0.0897041
0.0879326
0.0776247
0.090031
0.0653022
0.0923555
0.0526866
0.0948373
0.0398098
0.0971139
0.0269154
0.0979218
0.0147165
0.0938889
0.00479522
0.0780261
0.0390066
0.0976519
0.0979631
-0.109459
0.0858511
0.0997334
0.0738946
0.101988
0.0617939
0.104456
0.0495388
0.107092
0.0371569
0.109496
0.0248765
0.110202
0.0134001
0.105365
0.00425005
0.0871761
0.0432567
0.0934791
0.109112
-0.104628
0.082331
0.110881
0.0709859
0.113333
0.0593498
0.116092
0.0474368
0.119005
0.0353668
0.121566
0.0234596
0.122109
0.0124704
0.116354
0.00387793
0.0957686
0.0471346
0.0860128
0.120084
-0.0969839
0.0752728
0.121621
0.0645834
0.124022
0.0538146
0.126861
0.0428547
0.129965
0.0317416
0.132679
0.0207964
0.133055
0.0108095
0.126341
0.00321592
0.103362
0.0503505
0.0810998
0.129317
-0.0903336
0.0714543
0.131267
0.0612331
0.134243
0.0506661
0.137428
0.0399214
0.14071
0.0291607
0.14344
0.018752
0.143463
0.00949041
0.135603
0.00270191
0.110151
0.0530524
0.0700281
-0.0768096
0.0620759
0.0536639
0.0446546
0.0351752
0.0254918
0.0160977
0.00787133
0.00208572
0.201663
0.00370347
-0.00737631
0.20551
0.024757
-0.0286044
0.209632
0.0321233
-0.0362453
0.212203
0.0495151
-0.0520858
0.213978
0.0625226
-0.0642982
0.212974
0.0777665
-0.076762
0.208477
0.103393
-0.0988968
0.197308
0.134414
-0.123245
0.172287
0.188294
-0.163273
0.249687
-0.199441
0.201323
0.000370713
0.204674
0.0214055
0.208767
0.0280309
0.210646
0.0476357
0.212507
0.0606611
0.210655
0.0796193
0.206243
0.107805
0.194437
0.14622
0.169593
0.213138
0.298615
0.200949
-0.00258892
0.20369
0.0186648
0.207673
0.0240483
0.208733
0.0465754
0.210636
0.0587584
0.207755
0.0825004
0.203455
0.112104
0.190506
0.159169
0.166319
0.237326
0.346151
0.20052
-0.00511918
0.202563
0.0166219
0.206325
0.020286
0.206501
0.0464001
0.208352
0.0569073
0.2043
0.0865517
0.200157
0.116248
0.185617
0.173708
0.162518
0.260426
0.3922
0.200013
-0.00714243
0.201297
0.0153381
0.204717
0.0168662
0.203976
0.0471404
0.205629
0.0552548
0.20033
0.0918507
0.196269
0.120309
0.179926
0.190051
0.158097
0.282255
0.436921
0.199409
-0.0085612
0.199896
0.0148505
0.202846
0.0139163
0.201179
0.0488073
0.20246
0.0539742
0.195853
0.0984578
0.191789
0.124372
0.173215
0.208626
0.153329
0.30214
0.480791
0.198692
-0.00926322
0.19837
0.0151726
0.200717
0.0115691
0.198134
0.0513896
0.198819
0.0532895
0.190959
0.106318
0.186502
0.12883
0.166056
0.229071
0.147546
0.320651
0.523709
0.197858
-0.00913121
0.196728
0.0163023
0.19834
0.00995693
0.194856
0.0548739
0.194716
0.0534292
0.185637
0.115397
0.18053
0.133937
0.157589
0.252012
0.141546
0.336694
0.568271
0.196916
-0.00805714
0.194978
0.0182396
0.195736
0.0091989
0.191354
0.059256
0.190111
0.0546727
0.180023
0.125484
0.173845
0.140115
0.150385
0.275472
0.134741
0.352337
0.612679
0.195915
-0.00598211
0.193083
0.0210711
0.192987
0.0092948
0.187537
0.0647064
0.184949
0.0572605
0.173431
0.137002
0.165196
0.14835
0.139883
0.300786
0.128171
0.364049
0.66404
0.305066
-0.00903785
0.30743
0.0187074
0.317124
-0.000399413
0.318977
0.0628535
0.330505
0.045732
0.330778
0.136729
0.350081
0.129048
0.354833
0.296034
0.406585
0.312297
0.594602
0.476023
0.305176
-0.012204
0.308842
0.0150415
0.319522
-0.0110787
0.322906
0.0594688
0.335667
0.0329711
0.339808
0.132589
0.360238
0.108617
0.374786
0.281486
0.422327
0.264756
0.528434
0.488494
0.305199
-0.015393
0.311287
0.00895339
0.32156
-0.0213514
0.327704
0.0533245
0.340346
0.020329
0.349356
0.123579
0.368976
0.0889979
0.389948
0.260514
0.431792
0.222912
0.456931
0.503295
0.305608
-0.0189906
0.314789
-0.000228138
0.323386
-0.0299476
0.333574
0.0431358
0.344292
0.00961147
0.358109
0.109761
0.375205
0.0719027
0.401072
0.234647
0.441225
0.182759
0.38282
0.515336
0.306939
-0.023919
0.319168
-0.0124577
0.326121
-0.0369001
0.340071
0.0291857
0.349657
2.54055e-05
0.367572
0.0918461
0.38176
0.0577142
0.413038
0.203369
0.447206
0.148591
0.311171
0.518856
0.309241
-0.03115
0.324071
-0.0272879
0.329949
-0.042778
0.347122
0.012013
0.355704
-0.00855624
0.375612
0.0719376
0.387464
0.0458621
0.422266
0.168567
0.451816
0.119042
0.243061
0.519925
0.3126
-0.0417401
0.328684
-0.0433717
0.334276
-0.0483696
0.352636
-0.00634716
0.358002
-0.0139229
0.378694
0.0512461
0.388606
0.0359497
0.427141
0.130032
0.454913
0.09127
0.178115
0.519859
0.315781
-0.0555114
0.328889
-0.0564792
0.331455
-0.0509357
0.344431
-0.0193231
0.343786
-0.0132775
0.363501
0.0315311
0.373127
0.0263233
0.416702
0.086458
0.446595
0.061377
0.11342
0.511289
0.308609
-0.0621105
0.303672
-0.0515424
0.291176
-0.0384389
0.287579
-0.0157267
0.28061
-0.00630792
0.297924
0.014217
0.311126
0.0131215
0.359298
0.0382852
0.393098
0.0275774
0.0474655
0.459053
0.2399
0.188357
0.149918
0.134192
0.127884
0.142101
0.155222
0.193508
0.221085
0.26855
0.48909
-0.0961424
0.493477
-0.0821286
0.496865
-0.072198
0.499982
-0.0592417
0.504436
-0.0459491
0.509066
-0.0296123
0.51486
-0.0132494
0.521178
0.00605329
0.52928
0.0257597
0.048823
0.489329
-0.096977
0.489804
-0.0826037
0.489848
-0.0722417
0.48991
-0.0593038
0.491359
-0.047398
0.493459
-0.0317124
0.497492
-0.0172823
0.502828
0.000716676
0.509861
0.018727
0.0398201
0.496843
-0.0905252
0.493275
-0.0790357
0.489948
-0.0689139
0.487454
-0.0568103
0.48593
-0.0458739
0.486387
-0.0321697
0.488038
-0.0189329
0.491938
-0.00318374
0.497303
0.0133621
0.0308243
0.504311
-0.0795003
0.496071
-0.0707955
0.489495
-0.0623383
0.485101
-0.0524159
0.481572
-0.0423449
0.480613
-0.0312113
0.480708
-0.0190273
0.483957
-0.00643308
0.488534
0.0087852
0.022499
0.506697
-0.0673415
0.496633
-0.0607321
0.488231
-0.0539355
0.482192
-0.046377
0.477634
-0.0377874
0.475494
-0.0290713
0.475059
-0.0185916
0.477331
-0.00870601
0.481816
0.00430096
0.0152323
0.507079
-0.0544951
0.495989
-0.0496427
0.48662
-0.0445665
0.479334
-0.0390906
0.474022
-0.0324751
0.470846
-0.0258955
0.469926
-0.017672
0.471221
-0.0100003
0.475395
0.000126968
0.00882995
0.506085
-0.0407213
0.493856
-0.0374134
0.483349
-0.0340594
0.474772
-0.0305138
0.468368
-0.0260712
0.464032
-0.0215593
0.462181
-0.015821
0.462532
-0.0103512
0.465914
-0.00325584
0.00308596
0.495635
-0.0250674
0.48169
-0.0234682
0.469603
-0.0219721
0.459453
-0.0203644
0.451538
-0.0181559
0.44571
-0.0157318
0.442423
-0.012534
0.441399
-0.00932715
0.443421
-0.00527702
-0.00154882
0.442978
-0.00899285
0.428647
-0.00913735
0.41594
-0.00926443
0.404797
-0.00922139
0.395449
-0.00880796
0.387859
-0.00814211
0.382437
-0.00711206
0.379091
-0.00598076
0.378351
-0.00453682
-0.0031227
0.259558
0.25042
0.241156
0.231934
0.223127
0.214984
0.207872
0.201892
0.197355
0.00722297
0.0448103
-0.0520333
0.0170068
0.115958
-0.125741
0.0235259
0.162955
-0.169474
0.0258501
0.188018
-0.190343
0.0250292
0.198508
-0.197687
0.022354
0.200932
-0.198257
0.018765
0.199027
-0.195438
0.0148908
0.193852
-0.189978
0.011313
0.184167
-0.18059
0.166525
0.00862161
-0.163833
0.00863728
0.036173
0.0227395
0.101855
0.0345632
0.151131
0.0417373
0.180844
0.0448395
0.195406
0.0452436
0.200528
0.0440881
0.200183
0.0420294
0.195911
0.0392732
0.186924
0.17023
0.0355683
0.0092074
0.0269656
0.0269612
0.0841016
0.0443838
0.133709
0.057248
0.16798
0.0651415
0.187513
0.069239
0.196431
0.0708118
0.19861
0.0705818
0.196141
0.0685621
0.188943
0.174976
0.0638158
0.0088112
0.0181544
0.0286982
0.0642147
0.0512883
0.111118
0.0705063
0.148762
0.0842713
0.173748
0.0930703
0.187631
0.0981686
0.193512
0.10051
0.1938
0.100113
0.18934
0.179069
0.0960203
0.00757204
0.0105824
0.0273651
0.0444217
0.0534278
0.0850558
0.0789396
0.12325
0.0997338
0.152953
0.114728
0.172637
0.124647
0.183592
0.130557
0.18789
0.132951
0.186946
0.181502
0.130518
0.00581743
0.00476495
0.0232251
0.027014
0.0496336
0.0586473
0.0795158
0.0933682
0.107472
0.124997
0.130278
0.149832
0.14702
0.16685
0.158196
0.176714
0.164503
0.180639
0.179971
0.166034
0.00397271
0.000792238
0.0175123
0.0134744
0.0408035
0.035356
0.07106
0.0631118
0.10368
0.0923767
0.134323
0.119189
0.160123
0.14105
0.1799
0.156937
0.193749
0.166789
0.172681
0.201038
0.00237584
-0.0015836
0.011713
0.00413727
0.0296247
0.0174442
0.0558504
0.0368861
0.0880104
0.0602166
0.122527
0.084672
0.155878
0.1077
0.185163
0.127652
0.209045
0.142908
0.154079
0.227648
0.00118243
-0.00276603
0.00688552
-0.00156581
0.0190078
0.005322
0.0386415
0.0172523
0.0655067
0.0333514
0.0979107
0.052268
0.133291
0.0723195
0.168971
0.0919721
0.201539
0.110339
0.121757
0.233861
0.000395575
-0.0031616
0.00337623
-0.00454647
0.0106037
-0.00190542
0.0234595
0.00439652
0.0427543
0.0140567
0.0684115
0.0266107
0.0994024
0.0413286
0.134171
0.057203
0.170431
0.07408
0.087693
0.204494
-5.36598e-05
-0.00310794
0.00117498
-0.00577511
0.00492109
-0.00565154
0.0123486
-0.00303099
0.0244712
0.00193407
0.0419619
0.00912001
0.0649798
0.0183107
0.0930239
0.0291589
0.12563
0.0414737
0.0575538
0.155769
-0.000178899
-0.00292905
0.00027954
-0.00623354
0.00210779
-0.00747979
0.00599263
-0.00691583
0.0126317
-0.00470502
0.0226449
-0.000893218
0.0365264
0.00442927
0.0543422
0.0113432
0.0757298
0.020086
0.0325827
0.100701
0.000207252
-0.0031363
0.00109972
-0.00712601
0.00281754
-0.00919761
0.00550785
-0.00960614
0.00941526
-0.00861243
0.0149034
-0.00638135
0.0223004
-0.00296773
0.0319285
0.00171506
0.0440652
0.00794933
0.016021
0.060627
0.00103869
-0.00417498
0.00331401
-0.00940133
0.00635409
-0.0122377
0.00997391
-0.013226
0.0141999
-0.0128384
0.0192086
-0.0113901
0.025291
-0.00905006
0.0328784
-0.00587233
0.0426691
-0.00184137
0.00318054
0.0555095
0.00169428
-0.00586926
0.00482967
-0.0125367
0.00854734
-0.0159554
0.0126258
-0.0173044
0.0171545
-0.0173671
0.0223566
-0.0165922
0.0285157
-0.0152092
0.0359632
-0.0133199
0.0450712
-0.0109493
-0.00818087
0.0564326
0.00153047
-0.00739973
0.00374115
-0.0147474
0.00588012
-0.0180943
0.00797447
-0.0193987
0.0103135
-0.0197062
0.0132186
-0.0194973
0.0169727
-0.0189632
0.0218164
-0.0181636
0.0279577
-0.0170906
-0.0158272
0.035604
0.000287517
-0.00768725
-0.000384073
-0.0140758
-0.0020311
-0.0164473
-0.00413989
-0.01729
-0.00622447
-0.0176216
-0.00795953
-0.0177622
-0.00916845
-0.0177543
-0.00978685
-0.0175452
-0.00984171
-0.0170357
-0.0163046
-0.0093643
-0.00194088
-0.00574637
-0.00694486
-0.00907184
-0.0137239
-0.00966831
-0.0212588
-0.00975506
-0.0289393
-0.00994107
-0.036467
-0.0102345
-0.0437062
-0.0105151
-0.0505866
-0.0106648
-0.0570234
-0.0105989
-0.0104633
-0.0628647
-0.00427198
-0.00147439
-0.0134381
9.43117e-05
-0.0248946
0.00178818
-0.0373314
0.00268174
-0.0501572
0.00288468
-0.0631535
0.00276181
-0.0762205
0.00255185
-0.0892646
0.00237931
-0.102174
0.00231068
0.00232422
-0.114962
-0.00554022
-0.0167514
-0.0306889
-0.045795
-0.0614591
-0.07747
-0.093726
-0.110127
-0.126568
-0.143157
0.209105
0.131
-0.184335
0.205275
0.501101
-0.497271
0.168013
0.554543
-0.517281
0.160217
0.238497
-0.230701
0.174997
-0.0718734
0.0570937
0.184464
-0.172153
0.162686
0.188299
-0.143107
0.139271
0.192307
-0.0903906
0.0863827
0.197724
-0.0560967
0.0506796
-0.0323327
0.0256976
0.167304
0.0643964
0.197916
0.470489
0.178305
0.574154
0.181756
0.235045
0.187555
-0.0776722
0.184442
-0.16904
0.18397
-0.142635
0.188526
-0.094947
0.196203
-0.0637731
-0.0400481
0.135964
-0.0109409
0.178231
0.428222
0.176112
0.576274
0.183555
0.227601
0.176161
-0.0702778
0.165002
-0.157881
0.166528
-0.144161
0.176063
-0.104482
0.189095
-0.0768055
-0.0503788
0.114766
-0.0701975
0.145473
0.397515
0.155202
0.566545
0.160213
0.22259
0.14317
-0.0532341
0.134413
-0.149124
0.144966
-0.154714
0.162263
-0.12178
0.18144
-0.0959816
-0.0635261
0.0838434
-0.0976083
0.0986666
0.382692
0.112387
0.552825
0.112681
0.222295
0.100252
-0.0408053
0.106955
-0.155826
0.129613
-0.177372
0.153569
-0.145735
0.176922
-0.119335
-0.0783834
0.0310492
-0.0930535
0.0392068
0.374534
0.0493996
0.542632
0.0522971
0.219398
0.0660494
-0.0545576
0.0929765
-0.182753
0.12451
-0.208906
0.151703
-0.172928
0.176378
-0.14401
-0.0935099
-0.0422505
-0.0601673
-0.0387166
0.371001
-0.0237358
0.527651
0.00165516
0.194007
0.0514323
-0.104335
0.0915265
-0.222848
0.127157
-0.244537
0.154811
-0.200581
0.178759
-0.167958
-0.107893
-0.127168
0.0041364
-0.126181
0.370013
-0.0815974
0.483068
-0.0185187
0.130928
0.0513789
-0.174232
0.0976157
-0.269084
0.13435
-0.281271
0.160861
-0.227092
0.182926
-0.190024
-0.120967
-0.198391
0.0875655
-0.18983
0.361452
-0.105511
0.398748
-0.0161739
0.0415913
0.0598375
-0.250244
0.109239
-0.318486
0.145029
-0.317061
0.169179
-0.251242
0.188466
-0.209311
-0.1323
-0.235279
-0.215414
-0.101621
-0.000538984
0.0755613
0.12572
0.158914
0.179712
0.195389
0.0437743
0.0367485
-0.0805227
0.000715459
0.0430588
-0.0306234
0.0313388
-0.0462133
0.01559
-0.0404334
-0.00577992
-0.0138718
-0.0265616
0.0118243
-0.0256961
0.027666
-0.0158417
0.0358182
-0.00815219
-0.00322358
0.189877
0.116188
-0.269316
0.0711997
0.161736
-0.0169993
0.119538
-0.0468414
0.045432
-0.027354
-0.0252673
0.0167112
-0.0706268
0.0570518
-0.0660367
0.0826025
-0.0413924
0.0970515
-0.0226012
-0.00953431
0.336804
0.185188
-0.405804
0.185682
0.312858
0.0528133
0.252406
0.00540509
0.0928402
0.0284478
-0.04831
0.0708753
-0.113054
0.106857
-0.102019
0.129989
-0.0645244
0.144189
-0.0368006
-0.0165345
0.420779
0.21036
-0.445952
0.292597
0.441041
0.146294
0.398709
0.0827905
0.156343
0.0971625
-0.062682
0.129654
-0.145546
0.154027
-0.126391
0.16877
-0.0792671
0.178175
-0.046206
-0.0220591
0.412511
-0.386486
0.356281
0.237709
0.163351
0.157763
0.174903
0.187783
0.194899
0.199372
0.0115225
-0.000134027
-0.0113885
0.0131783
-0.00165582
0.0162268
-0.00304848
0.0206927
-0.0044659
0.0271548
-0.0064621
0.0342264
-0.00707162
0.0444024
-0.010176
0.05445
-0.0100476
0.0679287
-0.0134786
-0.0125941
0.0316113
-0.000824672
-0.0309206
0.0363478
-0.0063923
0.0449861
-0.0116868
0.0584384
-0.0179182
0.0773227
-0.0253465
0.100544
-0.0302925
0.133588
-0.04322
0.169411
-0.0458711
0.216582
-0.0606495
-0.0653279
0.0487778
-0.00237909
-0.0472234
0.0563334
-0.0139479
0.0699712
-0.0253246
0.0912529
-0.0391999
0.12011
-0.0542037
0.15834
-0.0685223
0.207667
-0.0925471
0.263299
-0.101503
0.334574
-0.131925
-0.136558
0.0629325
-0.00496127
-0.0603503
0.0728087
-0.0238242
0.0905497
-0.0430656
0.117319
-0.0659687
0.153298
-0.0901829
0.201309
-0.116533
0.255755
-0.146993
0.321925
-0.167673
0.392518
-0.202518
-0.189991
0.0742384
-0.070578
0.0859825
0.106733
0.136784
0.17712
0.226621
0.280666
0.34064
0.371983
0.0850224
-0.0799123
0.0877562
-0.0928663
0.0762415
-0.0811032
0.0898842
0.0670303
-0.0829904
0.0922015
0.0571525
-0.0850096
0.0948875
0.0465446
-0.0870576
0.0976655
0.035342
-0.088851
0.100054
0.023918
-0.0892806
0.100705
0.0130509
-0.0853269
0.096194
0.00423754
-0.0707626
0.0795759
-0.0354337
0.0396713
0.0941629
-0.0701465
-0.103929
0.0839737
-0.070914
0.0730981
-0.0721149
0.0616122
-0.0735238
0.0496798
-0.0751252
0.0374793
-0.0766505
0.0253019
-0.0771032
0.0138279
-0.0738529
0.00451839
-0.061453
-0.0309153
0.0962817
-0.0590213
-0.107407
0.0850514
-0.0596837
0.0736152
-0.0606787
0.0619726
-0.0618812
0.050085
-0.0632377
0.037942
-0.0645076
0.0257287
-0.0648898
0.0141074
-0.0622316
0.00460509
-0.0519507
-0.0263102
0.101962
-0.0475277
-0.113455
0.0903183
-0.0480402
0.0784408
-0.0488012
0.0662461
-0.0496864
0.0536798
-0.0506714
0.0407726
-0.0516003
0.0277611
-0.0518783
0.015341
-0.0498115
0.00509168
-0.0417014
-0.0212186
0.104666
-0.03553
-0.116664
0.0925441
-0.0359179
0.0801784
-0.0364355
0.0675419
-0.0370499
0.0546216
-0.0377511
0.041455
-0.0384337
0.0282436
-0.038667
0.0156319
-0.0371998
0.00519266
-0.0312622
-0.0160259
0.107638
-0.0233849
-0.119783
0.0952832
-0.0235636
0.0826814
-0.0238336
0.0697975
-0.0241661
0.0566035
-0.0245572
0.0431141
-0.0249443
0.0295121
-0.025065
0.0164437
-0.0241314
0.00552782
-0.0203463
-0.0104981
0.109292
-0.0110676
-0.121609
0.0967796
-0.0110513
0.0840085
-0.0110626
0.0709484
-0.0111059
0.0575724
-0.0111812
0.0438948
-0.0112667
0.0300922
-0.0112624
0.0168027
-0.0108419
0.0056635
-0.00920706
-0.00483459
0.110418
0.00128783
-0.122774
0.0978244
0.0015426
0.0849553
0.00180653
0.0717824
0.00206696
0.0582821
0.00231918
0.0444705
0.00254486
0.0305235
0.00268463
0.0170768
0.00260479
0.00577536
0.00209438
0.000940773
0.110817
0.0136435
-0.123173
0.0982087
0.0141509
0.0853158
0.0146994
0.072111
0.0152718
0.0585706
0.0158596
0.0447098
0.0164057
0.0307028
0.0166916
0.0171864
0.0161213
0.00581552
0.0134652
0.0067563
0.110552
-0.122871
0.097981
0.0851224
0.0719509
0.0584434
0.0446139
0.0306349
0.0171428
0.00579623
0.0143782
-0.161585
-0.0166265
0.00975736
-0.175969
0.00413161
-0.184352
-0.00163418
-0.189672
-0.00689537
-0.192996
-0.0108883
-0.193694
-0.0125437
-0.188687
-0.010697
-0.171321
-0.00525232
-0.131186
-0.0572856
0.0380209
-0.158221
-0.0413851
0.0316839
-0.169632
0.0241653
-0.176834
0.0163867
-0.181894
0.00886524
-0.185474
0.00217611
-0.187005
-0.00271193
-0.183799
-0.00460894
-0.169424
-0.00308967
-0.132705