# Selection   : all
# Cells       : 1800
# Volume      : 7.372328e+01
# Time        	minMag(U)
3.95          	5.226240e-03
3.975         	3.584773e-03
4             	3.102349e-03
