# Selection   : all
# Cells       : 1800
# Volume      : 7.372328e+01
# Time        	minMag(U)
1.65          	5.226240e-03
1.675         	3.584773e-03
1.7           	3.102349e-03
