/*--------------------------------*- C++ -*----------------------------------*\
  =========                 |
  \\      /  F ield         | OpenFOAM: The Open Source CFD Toolbox
   \\    /   O peration     | Website:  https://openfoam.org
    \\  /    A nd           | Version:  13
     \\/     M anipulation  |
\*---------------------------------------------------------------------------*/
FoamFile
{
    format      ascii;
    class       surfaceScalarField;
    location    "6.3";
    object      phi;
}
// * * * * * * * * * * * * * * * * * * * * * * * * * * * * * * * * * * * * * //

dimensions      [0 3 -1 0 0 0 0];

internalField   nonuniform List<scalar> 
823
(
0.00326868
0.0139625
-0.0172312
0.0213994
0.0113229
-0.0294537
0.074652
-0.0222827
-0.0309699
0.167255
-0.0808562
-0.0117467
-0.0837713
-0.0369514
0.287978
0.00449218
0.0094703
0.0451702
-0.0293551
0.130076
-0.107189
0.233162
-0.183942
-0.246718
0.396109
0.0196104
-0.0101401
0.0995973
-0.109342
0.212336
-0.219927
0.327201
-0.298807
-0.352512
0.432995
0.0405488
-0.0506889
0.138637
-0.20743
0.232088
-0.313379
0.29699
-0.363708
-0.379624
0.324102
0.0570951
-0.107784
0.13568
-0.286015
0.184625
-0.362324
0.204652
-0.383736
0.215761
-0.390732
-0.0104321
-0.0456026
0.0560347
-0.0343892
-0.0706625
0.0946196
-0.0626602
-0.071299
0.09957
-0.0902043
-0.0664354
0.0939795
-0.0610256
-0.114624
0.0854455
-0.0201466
-0.025456
-0.0539561
-0.036853
-0.0896682
-0.0355869
-0.123665
-0.0324386
-0.029967
-0.154724
-0.0206552
-0.00480071
-0.0524534
-0.00505488
-0.085635
-0.00240519
-0.117734
-0.000340023
0.00200533
-0.149706
-0.0135247
0.00872402
-0.0372188
0.0186393
-0.0664809
0.0268569
-0.0971195
0.0302986
0.0354785
-0.130593
-0.00850714
-0.0193215
-0.0234345
-0.00488265
-0.00635554
0.0335895
-0.398791
0.250578
0.0191436
0.862803
-0.848357
0.0659497
1.10724
-1.15405
0.383982
-0.426771
0.108739
-0.806061
0.71714
-0.0728991
-0.480616
-0.0378695
0.827773
0.162335
0.907039
0.509032
-0.773468
-0.874615
-0.152092
-0.47823
-0.0223633
0.698044
0.323827
0.560848
0.611628
-1.06127
-0.928546
-0.12888
-0.479943
0.0933448
0.47582
0.484154
0.170039
0.689113
-1.26623
-0.966196
0.0181918
-0.50449
0.245475
0.248537
0.600653
-0.185139
0.739773
-1.40535
-0.991431
0.875097
-0.307604
-1.07198
0.975435
0.148199
1.34673
-0.556438
1.32503
-1.38364
-0.856226
1.26072
-0.194172
-1.37415
1.39085
0.018071
1.54165
-0.707236
1.29548
-1.13747
-0.625113
1.28443
-0.122346
-1.35625
1.44273
-0.140232
1.39543
-0.659938
1.01212
-0.754167
-0.360726
1.28163
-0.0830892
-1.32089
1.33314
-0.191737
1.09545
-0.422251
0.646638
-0.305352
-0.0990099
0.872111
-0.9552
0.680374
0.258123
-0.0472286
1.09226
0.176728
-1.05323
1.17331
0.243049
1.26496
0.341344
1.23744
0.423637
0.453431
1.02014
0.110388
-0.953803
1.08705
0.176141
1.18733
0.241068
1.28635
0.324615
0.365626
0.948097
0.0590308
-0.896739
1.00753
0.116707
1.10135
0.147252
1.22375
0.202211
0.233125
0.898408
0.0185515
-0.857929
0.968246
0.0468692
1.05894
0.0565584
1.18081
0.0803372
0.0930475
0.678388
-0.659836
0.725257
0.781816
0.862153
0.134407
0.300457
-0.247783
-0.187081
0.0887182
0.306417
-0.260728
0.0483023
0.31684
-0.276424
0.0155731
0.307777
-0.275048
0.198285
-0.182712
0.0932086
0.337059
-0.12981
0.058211
0.341414
0.0274941
0.347557
0.00378006
0.331491
0.202065
0.0546452
0.369529
-0.087116
0.0242807
0.371779
-0.000406117
0.372243
-0.0100142
0.3411
0.192051
-0.0293155
0.383656
0.0151895
-0.0420929
0.384556
-0.0457631
0.375913
-0.0324144
0.327751
0.159636
-0.107998
0.100921
-0.107178
-0.0935886
-0.0518524
0.201311
0.0988387
-0.25498
-0.0451696
0.146704
0.102968
-0.0483604
0.0910234
0.107268
-0.0515875
0.0370223
0.106831
-0.0528297
0.0756609
-0.0386386
0.201051
0.143843
-0.246055
0.153319
0.1507
0.0999537
0.160633
0.0427261
0.164059
0.118387
0.145614
0.188828
-0.190599
0.103565
0.192749
0.0625191
0.201679
0.0233691
0.203209
0.141756
0.158704
0.223265
-0.193141
0.117822
0.233631
0.072343
0.247158
0.028096
0.247456
0.169852
0.096815
-0.121333
0.0697183
0.0404524
0.0128598
0.404968
0.0706402
-0.0796284
0.425244
-0.0024545
-0.0178217
0.410076
0.190913
-0.175745
0.39341
0.175448
-0.158783
0.421993
-0.283563
0.403312
0.0633074
0.420509
-0.0196513
0.399371
0.212051
0.38111
0.193709
0.557047
0.398324
0.0609629
0.415168
-0.036495
0.377426
0.249793
0.365235
0.2059
0.731683
0.396562
0.0603808
0.400882
-0.0408155
0.362384
0.288291
0.343737
0.224547
0.88228
0.390758
0.0656023
0.387807
-0.0378649
0.334505
0.341594
0.32187
0.237181
1.08282
0.631914
0.0377088
0.645797
-0.051748
0.675645
0.311746
0.765669
0.147157
0.852906
0.995579
0.649154
-0.00742456
0.633101
-0.0356949
0.700944
0.243903
0.784751
0.0633495
0.612204
1.02545
0.648661
-0.0520649
0.631292
-0.0183257
0.717794
0.1574
0.800777
-0.0196328
0.404517
1.00846
0.622342
-0.0703865
0.629191
-0.0251751
0.743314
0.0432773
0.761946
-0.0382649
0.211564
0.9549
0.533634
0.508459
0.551736
0.513471
0.725035
1.02045
-0.211948
1.0136
-0.122965
1.01297
-0.0864866
1.01501
0.0131488
0.0627067
0.969035
-0.15553
0.949483
-0.103413
0.921315
-0.058319
0.938824
-0.00436032
0.0477284
0.93725
-0.0843165
0.903978
-0.0701407
0.875407
-0.0297478
0.884495
-0.0134485
0.0354839
0.896984
-0.0264006
0.854841
-0.0279975
0.837052
-0.0119594
0.83485
-0.0112459
0.0124048
0.698634
0.670637
0.658678
0.647432
0.0557337
0.163771
-0.219505
0.0818915
0.356815
-0.382972
0.0820886
0.412738
-0.412935
0.0714312
0.415544
-0.404886
0.383314
0.05867
-0.370553
0.0833128
0.0804583
0.163169
0.276958
0.199858
0.37605
0.204436
0.410965
0.405101
0.182649
0.068695
0.0117632
0.19848
0.147173
0.301849
0.272681
0.372373
0.34044
0.398896
0.378578
0.0310079
-0.0192447
0.144939
0.033242
0.283423
0.134197
0.418383
0.205481
0.28653
0.530749
0.00387393
-0.0231186
0.0579326
-0.0208167
0.17099
0.0211387
0.31032
0.0661513
0.125073
0.471777
-0.00733245
-0.0157862
0.00447385
-0.032623
0.057561
-0.0319484
0.144646
-0.0209333
0.0148503
0.254869
0.000454721
-0.0162409
0.0121185
-0.0442868
0.0390851
-0.058915
0.0787864
-0.0606346
-0.0505915
0.144228
0.0143629
-0.0306038
0.0419186
-0.0718425
0.0722914
-0.0892878
0.10171
-0.0900531
-0.0830869
0.134205
0.0187326
-0.0493364
0.0427688
-0.0958786
0.0619657
-0.108485
0.0767894
-0.104877
-0.0942656
0.0879681
0.00669821
0.00543918
-0.00347547
-0.0143727
-0.0231928
0.447028
0.655051
-0.84721
0.397749
0.593898
-0.544619
0.214246
0.375415
-0.191912
0.115839
0.123637
-0.0252302
-0.186843
0.124839
0.453947
0.345332
0.363549
0.684296
0.121787
0.617177
0.0515011
0.193922
-0.295543
0.392282
0.0872556
0.299589
0.776989
0.0425684
0.874197
0.0412669
0.195224
-0.446801
0.266659
-0.0914352
0.21548
0.828168
0.0192797
1.0704
0.111505
0.102999
-0.597418
0.13595
0.11576
0.0321091
0.243847
0.0772946
0.612892
-0.690187
-0.130436
0.207731
-0.0725252
-0.0579112
0.0225055
-0.0950308
-0.0776842
0.954941
-1.18926
0.618053
0.36823
0.247969
0.0975547
-0.0159968
-0.0815579
0.15758
-0.0600256
0.28036
-0.122779
0.463966
-0.183607
-0.22622
0.218138
-0.175464
0.340762
0.59656
0.943702
0.147287
-0.149566
0.180479
-0.1782
0.113197
-0.155809
0.1899
0.0736487
-0.163896
0.203444
0.0303113
-0.164394
0.207731
-0.116093
0.146404
0.188309
-0.108879
-0.228996
0.142392
-0.109892
0.0905639
-0.112068
0.0374918
-0.111322
-0.078601
0.189104
-0.0580722
-0.239911
0.137401
-0.0581893
0.085235
-0.0599015
0.0347088
-0.0607954
-0.0438922
0.204692
-0.00613559
-0.256629
0.152112
-0.0056094
0.0975403
-0.00532982
0.041387
-0.00464213
-0.00250517
0.209503
-0.260808
0.155533
0.0986156
0.0411438
0.0436346
-0.346582
-0.0676061
0.0166109
-0.377862
-0.00773844
-0.388586
-0.0179272
-0.372784
-0.237432
0.133774
-0.312356
-0.168
0.0870225
-0.331111
0.0419756
-0.343539
0.00828785
-0.339096
-0.229144
0.152595
-0.268672
-0.196279
0.107768
-0.286283
0.0636488
-0.29942
0.0229396
-0.298387
-0.206205
0.175214
-0.230933
-0.212953
0.128838
-0.239907
0.0791192
-0.249701
0.0317104
-0.250978
-0.174494
0.167602
-0.218056
0.117594
0.0713368
0.02809
0.386931
0.0998716
-0.0908229
0.394561
0.073462
-0.0810917
0.360277
0.160488
-0.126204
0.310235
0.034606
0.0154357
-0.250462
0.382497
0.393261
0.10259
0.405597
0.0611262
0.398078
0.168006
0.353766
0.0789178
-0.125691
0.399122
0.0994482
0.41308
0.0471678
0.410827
0.170259
0.377027
0.112718
0.0114244
0.404794
0.0906339
0.418373
0.0335884
0.418265
0.170367
0.393436
0.137548
0.148231
0.406985
0.422752
0.417374
0.396139
0.419417
0.0906339
0.339309
0.0801077
0.251794
0.0875154
0.267257
-0.015463
-0.206181
0.473438
0.509862
0.508878
0.470189
0.470162
0.646478
0.37957
0.093868
0.296297
0.0832722
0.199007
0.0972904
0.115924
0.0830833
0.0343658
0.52229
0.39261
0.293621
0.208705
)
;

boundaryField
{
    left
    {
        type            calculated;
        value           nonuniform List<scalar> 
17
(
-0.60402
-0.60402
-0.60402
-0.60402
-0.60402
-0.39598
-0.39598
-0.39598
-0.39598
-0.39598
-0.39598
-0.39598
-0.39598
-0.39598
-0.39598
-0.510051
-0.510051
)
;
    }
    right
    {
        type            calculated;
        value           nonuniform List<scalar> 
17
(
0.10019
0.295123
0.177844
0.160201
0.192525
0.262123
0.363569
0.472902
0.577586
0.665558
0.726762
0.765009
1.18983
1.06436
0.747736
0.384921
-0.146238
)
;
    }
    down
    {
        type            calculated;
        value           uniform 0;
    }
    up
    {
        type            calculated;
        value           uniform 0;
    }
    cylinder
    {
        type            calculated;
        value           uniform 0;
    }
    defaultFaces
    {
        type            empty;
    }
}


// ************************************************************************* //
