/*--------------------------------*- C++ -*----------------------------------*\
  =========                 |
  \\      /  F ield         | OpenFOAM: The Open Source CFD Toolbox
   \\    /   O peration     | Website:  https://openfoam.org
    \\  /    A nd           | Version:  13
     \\/     M anipulation  |
\*---------------------------------------------------------------------------*/
FoamFile
{
    format      ascii;
    class       volScalarField;
    location    "0.935";
    object      p;
}
// * * * * * * * * * * * * * * * * * * * * * * * * * * * * * * * * * * * * * //

dimensions      [0 2 -2 0 0 0 0];

internalField   nonuniform List<scalar> 
440
(
7.82817
10.5845
12.947
13.1284
10.1519
20.7179
24.1012
27.0966
27.797
25.9087
41.2544
44.2857
46.9887
47.7813
46.6203
67.3872
69.485
71.3984
72.055
71.3675
96.6634
97.4804
98.2773
98.6774
98.6438
-0.449859
-0.550064
-0.0787139
0.482683
0.82594
-1.67059
-2.33845
-2.08046
-1.38597
-0.748506
-2.01436
-2.8978
-2.82321
-2.07148
-0.955292
-0.675203
-0.80854
-0.405623
0.555668
2.41887
3.08638
4.39761
5.82613
7.25626
9.50476
2.08822
2.26731
1.33557
0.681126
0.24018
1.06242
2.08179
1.21906
0.622343
0.236902
-0.0903539
1.67101
1.09104
0.576637
0.229092
-0.402398
1.06523
0.881093
0.545014
0.214947
1.5033
0.47387
0.59732
0.485899
0.187342
4.37278
0.245332
0.347157
0.411814
0.140309
6.71937
0.710406
0.450205
0.407082
0.0763911
9.98395
2.44791
1.09332
0.540626
0.0430395
13.8721
4.74601
2.13578
0.824158
0.0549188
16.6078
7.10708
3.45539
1.31465
0.162491
100.688
75.8393
53.3235
33.1483
12.3451
102.383
78.9419
57.5369
39.0569
23.483
104.284
82.7015
62.4746
45.2346
32.888
105.167
85.0204
66.5021
51.1828
40.6563
105.086
84.743
66.328
51.2504
40.8958
219.867
216.385
216.089
218.204
220.937
202.688
200.22
200.479
203.22
206.511
180.54
178.766
179.13
181.552
184.431
154.741
153.398
153.603
155.196
157.093
126.86
126.146
126.086
126.546
127.139
235.599
236.031
236.674
237.104
236.852
236.158
236.797
237.357
237.338
236.387
234.934
235.91
236.326
236.053
235.067
230.045
231.643
232.204
232.338
232.247
221.564
223.426
224.435
225.641
226.995
235.711
234.733
234.894
234.15
234.282
235.675
234.716
234.842
234.102
234.799
235.662
234.674
234.776
234.209
235.306
235.664
234.607
234.765
234.459
234.891
235.671
234.518
234.832
234.656
232.206
235.688
234.37
234.878
234.43
228.724
235.888
234.23
234.767
233.93
226.353
236.798
234
234.143
232.249
223.332
240.849
233.977
232.966
229.794
219.662
249.821
234.705
231.743
227.25
216.912
217.761
196.235
175.026
151.732
126.446
207.364
191.368
172.323
150.42
126.651
198.876
186.196
168.614
148.087
126.333
191.744
180.784
165.099
146.261
125.919
191.527
180.765
165.354
146.66
126.15
96.3954
95.5186
95.0709
94.304
94.1474
57.3132
55.3663
53.6609
51.7391
50.9731
29.4822
27.1389
24.3761
22.077
20.7524
15.03
12.6134
10.1479
8.12763
7.15704
9.20026
7.31248
5.92572
4.95048
4.36326
5.96952
4.86758
4.2882
4.19987
4.28825
4.06002
3.60097
3.52951
3.68569
3.83952
2.74991
2.73724
2.97192
3.27607
3.43468
1.65008
1.9549
2.40737
2.75847
2.90334
0.606142
1.00217
1.57515
1.97791
2.1526
3.60934
3.17591
2.06221
0.949452
0.268457
3.66278
3.00386
1.97005
0.893858
0.258315
3.46277
2.74087
1.84097
0.843448
0.251448
3.14222
2.49658
1.67787
0.793351
0.247663
2.72779
2.35107
1.49482
0.739164
0.244176
4.47665
3.15816
1.97495
0.994502
0.304658
3.74047
3.25392
2.06414
0.986127
0.282732
94.903
54.1433
27.5052
14.4813
9.46086
93.6817
51.1338
22.9816
9.46548
5.25507
232.146
232.227
232.176
231.659
230.581
232.733
232.906
233.135
233.173
232.797
233.296
233.469
233.856
234.254
234.424
233.899
234.051
234.456
235.06
235.48
234.649
234.886
235.392
236.008
236.27
141.98
141.788
140.96
140.45
139.538
185.216
184.406
182.428
180.661
178.684
215.515
214.145
211.796
208.981
206.607
229.153
228.145
226.095
223.597
221.152
232.001
231.387
230.415
229.032
227.132
238.823
234.448
234.525
233.516
232.899
237.118
234.49
234.614
233.684
232.916
236.349
234.58
234.718
233.907
233.246
235.975
234.663
234.822
234.112
233.628
235.793
234.717
234.89
234.2
233.948
252.266
235.788
234.881
233.453
231.982
243.171
234.694
234.463
233.397
232.702
226.938
221.864
208.756
182.038
141.23
231.135
226.892
213.309
185.062
142.453
)
;

boundaryField
{
    left
    {
        type            zeroGradient;
    }
    right
    {
        type            fixedValue;
        value           uniform 0;
    }
    down
    {
        type            zeroGradient;
    }
    up
    {
        type            zeroGradient;
    }
    cylinder
    {
        type            zeroGradient;
    }
    defaultFaces
    {
        type            empty;
    }
}


// ************************************************************************* //
