/*--------------------------------*- C++ -*----------------------------------*\
  =========                 |
  \\      /  F ield         | OpenFOAM: The Open Source CFD Toolbox
   \\    /   O peration     | Website:  https://openfoam.org
    \\  /    A nd           | Version:  13
     \\/     M anipulation  |
\*---------------------------------------------------------------------------*/
FoamFile
{
    format      ascii;
    class       surfaceScalarField;
    location    "0.935";
    object      phi;
}
// * * * * * * * * * * * * * * * * * * * * * * * * * * * * * * * * * * * * * //

dimensions      [0 3 -1 0 0 0 0];

internalField   nonuniform List<scalar> 
823
(
0.0113783
-0.0505538
0.0391755
0.0387598
-0.133435
0.106053
0.0788335
-0.205877
0.165804
0.130172
-0.26887
0.217532
-0.323261
0.259419
0.194014
0.0107034
-0.0612572
0.0361439
-0.158875
0.072649
-0.242382
0.117973
-0.314194
-0.375601
0.170313
0.00837712
-0.0696343
0.0282853
-0.178784
0.0567257
-0.270823
0.0918102
-0.349279
-0.41605
0.13226
0.00529925
-0.0749335
0.0179955
-0.19148
0.0362294
-0.289057
0.0588834
-0.371933
-0.442414
0.0852474
0.00196194
-0.0768955
0.00662995
-0.196148
0.0132895
-0.295716
0.0215216
-0.380165
0.0310617
-0.451954
0.00661373
-0.010768
0.00415417
0.0221238
-0.0309434
0.0154333
0.0453073
-0.0485475
0.0253641
0.0744391
-0.0639951
0.0348633
-0.0770921
0.108079
0.0434523
0.005738
-0.0165061
0.0214338
-0.0466393
0.0466147
-0.0737285
0.0796301
-0.0970104
-0.116135
0.118673
0.00638818
-0.0228943
0.0236372
-0.0638883
0.0511926
-0.101284
0.0878477
-0.133666
-0.16014
0.131853
0.00753532
-0.0304296
0.0270831
-0.0834361
0.0573045
-0.131505
0.0969993
-0.17336
-0.207908
0.144768
0.0087459
0.0313631
0.0656614
0.109833
0.161343
0.322412
-0.958584
0.744251
0.474598
-0.824208
0.672023
0.575357
-0.357915
0.257156
0.619215
-0.0700164
0.0261592
0.00275433
-0.00834765
0.330093
-1.17
0.470768
-0.964884
0.576767
-0.463914
0.643738
-0.136988
-0.0226091
0.336252
-1.3744
0.46049
-1.08912
0.562714
-0.566137
0.643898
-0.218172
-0.0659926
0.337229
-1.56686
0.447466
-1.19936
0.540436
-0.659107
0.615622
-0.293358
-0.105712
0.327613
-1.73313
0.427838
-1.29958
0.508699
-0.739968
0.571812
-0.35647
-0.136352
1.19774
-1.59055
-1.34032
1.00766
-1.1095
0.885257
-0.617569
0.825397
-0.296611
-0.113285
1.32965
-1.13312
-1.78709
0.981546
-0.761396
0.772705
-0.408728
0.676501
-0.200407
-0.0791203
1.18936
-0.607674
-1.7148
0.816077
-0.388118
0.609946
-0.202597
0.510921
-0.101382
-0.0417169
0.822343
-0.185289
-1.24473
0.545287
-0.111062
0.396272
-0.0535816
0.3222
-0.0273106
-0.0121216
0.306715
-0.492004
0.195653
0.142071
0.114761
1.56259
0.046249
-1.57778
1.52169
0.126153
1.46266
0.191283
1.39634
0.236635
0.250039
1.67586
0.0356505
-1.66526
1.69931
0.102694
1.7308
0.159794
1.76527
0.202166
0.228225
1.38797
0.0184771
-1.37079
1.43705
0.053608
1.51387
0.0829775
1.61014
0.105892
0.123568
0.977699
0.00531441
-0.964536
1.01588
0.0154233
1.07582
0.0230448
1.15388
0.0278276
0.0327214
0.392987
-0.387673
0.408411
0.431455
0.459283
0.128769
0.327629
-0.264673
-0.191725
0.0781585
0.273215
-0.222604
0.0385249
0.209792
-0.170158
0.0113404
0.136442
-0.109258
0.0519522
-0.0406118
0.115953
0.378907
-0.167231
0.0714991
0.317669
0.0356198
0.245671
0.0105617
0.1615
0.0625139
0.0888495
0.418274
-0.128217
0.0548115
0.351707
0.0272883
0.273195
0.0080652
0.180723
0.0705791
0.0552406
0.443533
-0.0804992
0.0337631
0.373184
0.0166551
0.290302
0.00486435
0.192514
0.0754434
0.0174805
-0.025902
0.0104997
0.00508593
0.00145208
0.0727005
0.0873804
-0.107359
-0.0527218
0.0429298
0.0737537
-0.0439829
0.019757
0.0569772
-0.0338043
0.00514425
0.0368359
-0.0222232
0.0133073
-0.00816303
0.0760117
0.125961
-0.114592
0.0437108
0.106055
0.0196364
0.0810516
0.00508784
0.0513844
0.0183951
0.084344
0.168598
-0.126981
0.049052
0.141347
0.0227139
0.10739
0.0061672
0.0679312
0.0245624
0.0940173
0.214699
-0.140119
0.0557451
0.179619
0.0265131
0.136622
0.00742407
0.0870202
0.0319865
0.107385
-0.157359
0.0643994
0.0308626
0.00862532
0.513557
0.177599
-0.295176
0.564184
0.158351
-0.208977
0.497941
0.314035
-0.247792
0.335377
0.802736
-0.640173
1.04193
-0.813907
0.515027
0.0585518
0.563169
0.110209
0.488806
0.388397
0.331596
0.959947
1.25893
0.515817
-0.0612854
0.550093
0.0759331
0.46791
0.47058
0.328005
1.09985
1.45995
0.512367
-0.177672
0.52767
0.0606296
0.442098
0.556152
0.323635
1.21832
1.64347
0.499799
-0.281492
0.494374
0.0660546
0.41232
0.638206
0.31181
1.31883
1.79792
0.761947
-0.439419
0.840911
-0.0129098
0.955986
0.523132
1.16944
1.10537
1.61978
1.34759
0.70511
-0.540508
0.778582
-0.0863816
0.953572
0.348142
1.29749
0.761452
1.14353
1.77373
0.60224
-0.538728
0.632374
-0.116516
0.803201
0.177315
1.17243
0.392223
0.612045
1.70391
0.448509
-0.383217
0.405091
-0.0730979
0.535845
0.046561
0.815995
0.112073
0.18691
1.24113
0.220803
0.147705
0.194266
0.306339
0.493249
1.4026
-0.246741
1.46575
-0.230375
1.523
-0.185465
1.56316
-0.120659
-0.0405263
1.75264
-0.225646
1.71972
-0.19746
1.69061
-0.156349
1.67083
-0.100881
-0.0349545
1.60146
-0.123193
1.50876
-0.104757
1.43456
-0.0821508
1.38705
-0.0533738
-0.0186959
1.15107
-0.0331348
1.07431
-0.0279901
1.0153
-0.0231447
0.977572
-0.0156457
-0.00566044
0.460114
0.432124
0.408979
0.393333
0.00250157
0.043009
-0.0455106
0.00732841
0.101057
-0.105884
0.0160961
0.148403
-0.157171
0.0165795
0.151918
-0.152401
0.114035
0.014815
-0.11227
0.00682888
0.0361801
0.0201792
0.0877067
0.0409603
0.127622
0.048258
0.14462
0.116388
0.0459044
0.00880997
0.0273702
0.0270786
0.0694381
0.0521541
0.102547
0.0730969
0.123677
0.114042
0.0754433
0.00780178
0.0195684
0.025515
0.0517248
0.0497512
0.0783106
0.0774356
0.0959929
0.0992471
0.0922303
0.00509888
0.0144695
0.0179732
0.0388505
0.0367678
0.059516
0.0600133
0.0727474
0.0767444
0.082516
0.00342319
0.0110463
0.012579
0.0296947
0.0274449
0.0446501
0.0470649
0.0531273
0.0561448
0.0676645
0.00222151
0.00882479
0.00893371
0.0229825
0.0222825
0.0313012
0.0410457
0.0343641
0.0347487
0.0624418
0.00168153
0.00714328
0.0101631
0.0145009
0.0262449
0.0152194
0.0468216
0.0137874
0.0114773
0.0700929
0.00377888
0.00336441
0.0176022
0.000677554
0.036958
-0.00413648
0.0599977
-0.00925236
-0.0144521
0.0859269
0.00751849
0.0236293
0.0448569
0.0704678
0.099468
0.153963
0.0195275
-0.105826
0.243687
-0.130667
0.0409433
0.265169
-0.038407
0.0169248
0.269843
0.00465198
-0.00932638
-0.000693138
-0.005192
0.215029
-0.133059
0.325698
-0.241336
0.352022
-0.0647305
0.354198
0.00247624
-0.00301016
0.26041
-0.323377
0.391917
-0.372844
0.434429
-0.107242
0.435416
0.00148965
-0.000772387
0.293657
-0.531107
0.439321
-0.518508
0.503695
-0.171616
0.509882
-0.00469712
0.0045422
0.312612
0.466126
0.551666
0.573129
0.0707071
0.038641
-0.109348
0.078721
-0.0080138
0.0831173
-0.00439633
0.0803681
0.00274923
0.00129913
0.19422
-0.261405
0.227149
0.239678
0.233101
0.0207331
-0.00433173
-0.0164013
0.034284
-0.0135509
0.0567634
-0.0224795
0.0856242
-0.0288608
-0.023724
0.0539263
-0.043443
0.0862798
0.139244
0.202613
0.0478222
-0.0551584
0.0763606
-0.0690244
0.0275537
-0.0521787
0.0724472
0.0123373
-0.0443863
0.0596027
0.00331836
-0.0300428
0.0390617
-0.0112608
0.0145792
0.0453549
-0.0322852
-0.0682282
0.0249363
-0.0317601
0.00980995
-0.02926
0.00218718
-0.02242
-0.00907361
0.056031
-0.00670674
-0.0816095
0.0330981
-0.0088273
0.0142571
-0.0104191
0.002581
-0.0107438
-0.0064926
0.0701399
0.0215518
-0.0983984
0.0448524
0.0164602
0.0233733
0.0110601
0.00692105
0.00570837
0.000428435
0.0745163
-0.105686
0.0469938
0.0242495
0.00773465
0.0165861
-0.114033
-0.0148234
0.0160951
-0.15191
0.00730704
-0.148383
0.00248927
-0.101066
-0.0430213
0.0482733
-0.116377
-0.0459289
0.0409339
-0.144571
0.020165
-0.127614
0.00682164
-0.0877227
-0.0361997
0.0731266
-0.113971
-0.0755327
0.0521258
-0.12357
0.0270667
-0.102555
0.00880682
-0.0694629
-0.0273928
0.077341
-0.0989751
-0.0923371
0.0496233
-0.0958524
0.0254349
-0.0783666
0.00777619
-0.0518041
-0.0196167
0.0599491
-0.0825636
0.0365439
0.0177799
0.0050375
0.341907
0.583358
-0.529286
0.280571
0.22499
-0.163653
0.247132
0.0559095
-0.0224711
0.16522
0.112866
-0.0309541
-0.00109655
0.0972921
0.407668
0.57167
0.37135
0.261307
0.335336
0.0919243
0.233469
0.214733
0.164144
0.45955
0.5081
0.451307
0.269551
0.409042
0.134189
0.283736
0.340039
0.36627
0.494351
0.409729
0.514067
0.249835
0.461473
0.186783
0.318015
0.483497
0.585887
0.510532
0.55139
0.490382
0.333706
0.15867
0.351381
0.0848043
0.0738652
0.0798198
0.00498453
0.0724147
0.00740517
-0.0369827
0.109397
0.332147
0.242359
0.224872
0.201323
0.261633
0.0856732
0.0237241
0.0567955
0.0288778
0.0342951
0.0225004
0.0207366
0.0135585
0.00433523
0.202793
0.139334
0.0863015
0.0539312
)
;

boundaryField
{
    left
    {
        type            calculated;
        value           nonuniform List<scalar> 
17
(
-0.60402
-0.60402
-0.60402
-0.60402
-0.60402
-0.39598
-0.39598
-0.39598
-0.39598
-0.39598
-0.39598
-0.39598
-0.39598
-0.39598
-0.39598
-0.510051
-0.510051
)
;
    }
    right
    {
        type            calculated;
        value           nonuniform List<scalar> 
17
(
0.079069
0.229208
0.275728
0.356515
0.433178
0.504567
0.569323
0.624808
0.669102
0.687282
0.655341
0.602452
0.802329
0.642337
0.473517
0.292605
0.102639
)
;
    }
    down
    {
        type            calculated;
        value           uniform 0;
    }
    up
    {
        type            calculated;
        value           uniform 0;
    }
    cylinder
    {
        type            calculated;
        value           uniform 0;
    }
    defaultFaces
    {
        type            empty;
    }
}


// ************************************************************************* //
