/*--------------------------------*- C++ -*----------------------------------*\
  =========                 |
  \\      /  F ield         | OpenFOAM: The Open Source CFD Toolbox
   \\    /   O peration     | Website:  https://openfoam.org
    \\  /    A nd           | Version:  13
     \\/     M anipulation  |
\*---------------------------------------------------------------------------*/
FoamFile
{
    format      ascii;
    class       surfaceScalarField;
    location    "0.255";
    object      phi;
}
// * * * * * * * * * * * * * * * * * * * * * * * * * * * * * * * * * * * * * //

dimensions      [0 3 -1 0 0 0 0];

internalField   nonuniform List<scalar> 
3485
(
0.00310463
-0.0253535
0.0222489
0.0106338
-0.0823466
0.0748174
0.0202577
-0.121077
0.111453
0.0304051
-0.139562
0.129415
0.0403872
-0.14522
0.135238
0.0500039
-0.14474
0.135123
0.0592203
-0.141897
0.132681
0.0680097
-0.138354
0.129565
0.0763096
-0.134638
0.126338
-0.130681
0.122748
0.0842418
0.00333303
-0.0286866
0.0109137
-0.0899273
0.0202547
-0.130418
0.0298813
-0.149189
0.0392571
-0.154596
0.0483132
-0.153796
0.0571267
-0.150711
0.0658056
-0.147033
0.0745128
-0.143346
-0.139753
0.0835846
0.003536
-0.0322226
0.0110798
-0.0974711
0.0199946
-0.139332
0.0289082
-0.158102
0.0374166
-0.163104
0.0455296
-0.161909
0.0533461
-0.158527
0.0609452
-0.154632
0.0683714
-0.150772
-0.147017
0.0756361
0.00372678
-0.0359494
0.0111695
-0.104914
0.0195821
-0.147745
0.027736
-0.166256
0.0353874
-0.170756
0.0426492
-0.169171
0.0496701
-0.165548
0.0565486
-0.16151
0.0633488
-0.157572
-0.153883
0.0702149
0.00385597
-0.0398053
0.0110586
-0.112116
0.0188024
-0.155489
0.0260263
-0.17348
0.032644
-0.177373
0.0388537
-0.175381
0.0448343
-0.171529
0.0506905
-0.167367
0.0564859
-0.163367
-0.15968
0.0622829
0.00392291
-0.0437282
0.0107521
-0.118946
0.0176961
-0.162433
0.0238936
-0.179677
0.0294178
-0.182897
0.0345453
-0.180508
0.0394792
-0.176463
0.0443249
-0.172212
0.049135
-0.168177
-0.164508
0.0539627
0.00389521
-0.0476235
0.0101849
-0.125235
0.0161737
-0.168422
0.0212213
-0.184725
0.0255533
-0.187229
0.0295088
-0.184464
0.0333041
-0.180258
0.0370414
-0.17595
0.0407674
-0.171903
-0.168247
0.044506
0.00376317
-0.0513866
0.00935141
-0.130824
0.0142506
-0.173321
0.0180591
-0.188534
0.0211419
-0.190312
0.0238808
-0.187203
0.0264933
-0.18287
0.029072
-0.178528
0.0316539
-0.174485
-0.170836
0.034243
0.00351275
-0.0548994
0.00823914
-0.13555
0.0119269
-0.177009
0.0144279
-0.191035
0.0162184
-0.192103
0.0177062
-0.18869
0.0191018
-0.184266
0.0204864
-0.179913
0.0218881
-0.175887
-0.172241
0.0232935
0.00314806
-0.0580474
0.00687132
-0.139273
0.00926027
-0.179398
0.0104158
-0.19219
0.0108925
-0.19258
0.0111155
-0.188913
0.0112762
-0.184427
0.0114456
-0.180082
0.0116541
-0.176096
0.011886
-0.172473
0.0014097
-0.00346693
0.00205723
0.00763352
-0.0129408
0.00671695
0.017704
-0.0201223
0.0100518
0.0299049
-0.0239875
0.0117867
0.042953
-0.025473
0.0124248
0.0561408
-0.025672
0.0124842
0.069145
-0.025294
0.0122897
0.0818435
-0.0247035
0.0120051
0.0942059
-0.0240644
0.0117019
-0.0235992
0.106384
0.0114214
0.00146796
-0.0049349
0.00775189
-0.0192247
0.0178373
-0.0302077
0.0300059
-0.0361562
0.0429892
-0.0384563
0.0560948
-0.0387776
0.0690105
-0.0382097
0.0816207
-0.0373137
0.0939003
-0.036344
-0.0356984
0.105999
0.00155171
-0.00648661
0.00792538
-0.0255984
0.0180373
-0.0403196
0.0301655
-0.0482844
0.0430616
-0.0513525
0.0560546
-0.0517705
0.0688473
-0.0510024
0.0813331
-0.0497995
0.0934942
-0.0485051
-0.0476817
0.105477
0.00166659
-0.0081532
0.00816464
-0.0320964
0.0183148
-0.0504698
0.0303904
-0.0603599
0.0431713
-0.0641334
0.0560157
-0.0646149
0.0686468
-0.0636335
0.0809697
-0.0621225
0.0929753
-0.0605107
-0.05951
0.104804
0.00181707
-0.00997027
0.00847609
-0.0387554
0.0186736
-0.0606673
0.0306786
-0.0723649
0.0433102
-0.076765
0.0559655
-0.0772702
0.0683943
-0.0760623
0.0805163
-0.0742445
0.092332
-0.0723263
-0.0711432
0.103965
0.00200473
-0.011975
0.00885729
-0.045608
0.0191024
-0.0709124
0.0310087
-0.0842713
0.0434477
-0.089204
0.055867
-0.0896895
0.0680508
-0.088246
0.079937
-0.0861308
0.091534
-0.0839233
-0.0825373
0.102928
0.00222613
-0.0142011
0.00929179
-0.0526737
0.0195672
-0.0811878
0.0313284
-0.0960325
0.0435144
-0.10139
0.0556372
-0.101812
0.067524
-0.100133
0.0791365
-0.0977433
0.0904869
-0.0952737
-0.0936281
0.101578
0.0024658
-0.0166669
0.00973322
-0.0599411
0.0199872
-0.0914418
0.0315235
-0.107569
0.0433642
-0.113231
0.0550974
-0.113546
0.0666003
-0.111636
0.0778613
-0.109004
0.088888
-0.1063
-0.104258
0.0995183
0.00269119
-0.0193581
0.0100974
-0.0673473
0.0202238
-0.101568
0.0314
-0.118745
0.0427428
-0.124573
0.0539215
-0.124724
0.0648639
-0.122578
0.0755807
-0.119721
0.0860589
-0.116779
-0.114075
0.0958755
0.00289079
0.0103609
0.0202455
0.0309152
0.0415796
0.0519787
0.0620812
0.0719247
0.0814846
0.0901581
0.156249
-0.141633
0.0917673
0.181828
-0.101803
0.076224
0.194654
-0.0757996
0.0629739
0.200827
-0.0571415
0.0509681
0.203513
-0.0429692
0.040284
0.204252
-0.0317831
0.0310438
0.203855
-0.0227891
0.0231865
0.202759
-0.0153884
0.0164842
0.201223
-0.00945048
0.0109863
-0.0024528
0.00439437
0.155245
-0.190879
0.180863
-0.127421
0.193931
-0.0888682
0.200349
-0.0635589
0.203231
-0.0458519
0.204131
-0.0326829
0.203871
-0.0225288
0.2029
-0.0144178
0.201484
-0.00803477
-0.00063479
0.153502
-0.238903
0.179029
-0.152947
0.192371
-0.10221
0.199125
-0.0703134
0.202318
-0.0490447
0.203501
-0.0338655
0.203505
-0.0225332
0.202791
-0.0137032
0.201628
-0.00687211
0.000924551
0.150976
-0.285075
0.176311
-0.178282
0.18997
-0.115869
0.197159
-0.0775024
0.200776
-0.0526618
0.202364
-0.035453
0.202759
-0.0229289
0.20243
-0.0133741
0.201652
-0.00609406
0.00209101
0.147637
-0.328748
0.172701
-0.203346
0.186731
-0.1299
0.194455
-0.0852266
0.198613
-0.056819
0.200726
-0.0375666
0.201638
-0.0238403
0.201821
-0.0135573
0.201557
-0.00582997
0.00273208
0.143449
-0.369269
0.168182
-0.228079
0.182659
-0.144377
0.191024
-0.093591
0.195838
-0.061633
0.198597
-0.0403258
0.200146
-0.0253892
0.200965
-0.014377
0.201341
-0.00620617
0.00271773
0.13832
-0.406011
0.162708
-0.252467
0.17775
-0.159419
0.186873
-0.102714
0.192464
-0.0672237
0.195987
-0.0438491
0.198292
-0.0276941
0.199868
-0.0159529
0.201007
-0.00734518
0.00192132
0.132163
-0.438656
0.156137
-0.276441
0.171946
-0.175227
0.181995
-0.112764
0.188498
-0.0737269
0.192908
-0.0482585
0.196086
-0.0308722
0.198534
-0.0184015
0.200554
-0.00936521
0.000220369
0.12479
-0.46757
0.148235
-0.299886
0.165052
-0.192044
0.176295
-0.124007
0.183909
-0.081341
0.189354
-0.0537035
0.193531
-0.0350497
0.196969
-0.0218392
0.199985
-0.0123812
-0.00250321
0.11724
-0.494652
0.140067
-0.322713
0.157687
-0.209664
0.17004
-0.136359
0.178806
-0.090107
0.185375
-0.0602728
0.190652
-0.0403269
0.195183
-0.0263698
0.199302
-0.0164998
-0.00636246
0.369266
-0.438067
-0.425851
0.34017
-0.293618
0.325893
-0.195387
0.319362
-0.129828
0.315998
-0.0867429
0.313961
-0.058236
0.31259
-0.0389561
0.311652
-0.0254321
0.311033
-0.0158802
-0.00611038
0.38203
-0.373841
-0.446256
0.350487
-0.262075
0.334099
-0.178999
0.325259
-0.120987
0.320055
-0.0815387
0.31674
-0.0549216
0.314537
-0.0367528
0.313077
-0.0239717
0.312147
-0.0149507
-0.00574639
0.396486
-0.312649
-0.457678
0.362218
-0.227807
0.342495
-0.159277
0.330981
-0.109473
0.323921
-0.0744786
0.31938
-0.0503806
0.316385
-0.0337578
0.314427
-0.022014
0.313199
-0.013723
-0.00527207
0.406224
-0.255528
-0.463345
0.37112
-0.192703
0.349468
-0.137624
0.335989
-0.0959939
0.327399
-0.0658896
0.321788
-0.0447697
0.318081
-0.0300507
0.315669
-0.0196018
0.314165
-0.0122187
-0.00469387
0.413249
-0.202853
-0.465924
0.37818
-0.157635
0.355253
-0.114697
0.340274
-0.0810155
0.330437
-0.0560523
0.323917
-0.0382493
0.319589
-0.0257231
0.316775
-0.0167878
0.315023
-0.0104667
-0.00402137
0.418183
-0.154372
-0.466664
0.383622
-0.123074
0.359894
-0.0909683
0.34381
-0.0649313
0.332989
-0.0452314
0.325724
-0.0309846
0.320877
-0.0208761
0.317722
-0.0136328
0.315757
-0.0085016
-0.00326657
0.421524
-0.109436
-0.46646
0.387644
-0.0891933
0.363446
-0.0667711
0.34658
-0.048065
0.335019
-0.0336706
0.327175
-0.0231409
0.321916
-0.0156167
0.318487
-0.0102038
0.316348
-0.00636267
-0.00244342
0.423391
-0.0669118
-0.465916
0.390155
-0.0559571
0.365751
-0.0423673
0.348404
-0.0307178
0.33635
-0.021617
0.328106
-0.0148964
0.322556
-0.0100663
0.318931
-0.00657961
0.316666
-0.00409753
-0.0015698
0.419306
-0.0241526
-0.462066
0.386797
-0.0234477
0.362814
-0.0183843
0.345604
-0.0135079
0.333546
-0.00955911
0.325255
-0.00660553
0.319659
-0.00447022
0.316005
-0.00292501
0.313722
-0.00181527
-0.000689053
0.337881
-0.362033
0.314433
0.296049
0.282541
0.272982
0.266376
0.261906
0.258981
0.257166
0.457854
0.0105825
-0.45655
0.45833
0.0228173
0.457956
0.0346169
0.45669
0.0457717
0.454228
0.0564253
0.451162
0.0653487
0.445475
0.075902
0.441397
0.0797134
0.43022
0.0947622
0.088611
0.439341
0.00947696
-0.438235
0.440623
0.0215347
0.441981
0.0332595
0.443421
0.0443318
0.444609
0.0552374
0.446018
0.0639397
0.446494
0.0754258
0.447534
0.0786728
0.44849
0.0938068
0.0908446
0.423889
0.00819153
-0.422604
0.425859
0.0195647
0.42844
0.030679
0.431613
0.0411584
0.435265
0.0515851
0.439329
0.0598764
0.443972
0.0707822
0.448117
0.0745284
0.454024
0.0878994
0.0871908
0.411912
0.00685556
-0.410576
0.414277
0.0172003
0.417631
0.0273248
0.421906
0.0368827
0.427137
0.046355
0.432949
0.0540636
0.440059
0.0636727
0.446739
0.0678477
0.455732
0.0789064
0.0795783
0.402539
0.00548145
-0.401165
0.405187
0.0145518
0.409078
0.0234338
0.414124
0.031837
0.420399
0.0400803
0.427494
0.0469687
0.436141
0.0550252
0.444803
0.059186
0.455729
0.0679809
0.0693832
0.395414
0.00406605
-0.393999
0.398267
0.0116996
0.402528
0.0191721
0.408112
0.0262537
0.415073
0.0331186
0.423071
0.0389706
0.432665
0.0454312
0.442671
0.0491803
0.454742
0.0559095
0.0574613
0.390191
0.00259641
-0.388721
0.393207
0.00868362
0.397743
0.0146362
0.403713
0.0202828
0.411134
0.0256979
0.419739
0.0303662
0.429895
0.0352747
0.440764
0.0383116
0.453493
0.0431803
0.0444942
0.385972
0.000976759
-0.384352
0.389212
0.00544361
0.394062
0.00978642
0.40043
0.0139144
0.408276
0.0178519
0.417377
0.0212654
0.427912
0.0247396
0.439319
0.0269045
0.452377
0.0301223
0.0309557
0.373236
-0.000604676
-0.371655
0.376913
0.00176651
0.382463
0.00423665
0.389785
0.00659212
0.398765
0.00887169
0.409127
0.0109035
0.420908
0.0129587
0.433533
0.01428
0.447497
0.0161583
0.0163868
0.269879
-0.270484
0.271646
0.275882
0.282474
0.291346
0.302249
0.315208
0.329488
0.345646
0.0782963
0.125623
-0.114155
-0.0897637
0.0678004
0.127927
-0.117431
0.0579796
0.130789
-0.120968
0.0484416
0.134345
-0.124807
0.0388905
0.138302
-0.128751
0.0292086
0.142289
-0.132607
0.0195065
0.144928
-0.135226
0.0103452
0.141246
-0.132085
0.00310366
0.118869
-0.111627
0.0583384
-0.0552347
0.077355
0.13564
-0.0873721
0.0671878
0.138094
0.0571543
0.140823
0.047336
0.144163
0.0376401
0.147998
0.0279925
0.151936
0.0184946
0.154426
0.00967814
0.150063
0.00283896
0.125708
0.0611773
0.0705774
0.14416
-0.0790972
0.0616425
0.147029
0.052561
0.149904
0.0434708
0.153254
0.0343936
0.157075
0.0253396
0.16099
0.0164706
0.163295
0.00836429
0.158169
0.00229025
0.131782
0.0634676
0.060417
0.151224
-0.0674818
0.0530096
0.154436
0.0453188
0.157595
0.0374326
0.16114
0.0294154
0.165092
0.0213473
0.169059
0.0134704
0.171172
0.00643777
0.165201
0.00149507
0.136725
0.0649626
0.0496317
0.157098
-0.0555057
0.0435335
0.160535
0.0371471
0.163981
0.0305045
0.167783
0.0236663
0.17193
0.0167458
0.175979
0.0100491
0.177868
0.00429095
0.17096
0.000623035
0.140393
0.0655857
0.0393195
0.162037
-0.0442578
0.03425
0.165604
0.0289581
0.169273
0.0234461
0.173295
0.0177588
0.177618
0.0120197
0.181718
0.00656164
0.183326
0.00216102
0.17536
-0.000209659
0.142763
0.065376
0.0293256
0.166114
-0.0334027
0.025184
0.169746
0.020894
0.173563
0.0164484
0.17774
0.0118822
0.182184
0.00732398
0.186276
0.00314712
0.187503
-6.38701e-05
0.178571
-0.000918224
0.143618
0.0644578
0.0192906
0.169245
-0.0224215
0.0161277
0.172909
0.0128622
0.176829
0.00949172
0.181111
0.00605177
0.185624
0.00267909
0.189649
-0.000277897
0.19046
-0.0018319
0.180125
-0.00156444
0.14335
0.0628934
0.00909569
0.171344
-0.0111951
0.00698181
0.175023
0.00480324
0.179007
0.00257052
0.183343
0.00032218
0.187872
-0.00178532
0.191757
-0.003299
0.191974
-0.00361635
0.180443
-0.00215815
0.141892
0.0607352
-0.00104
-8.89133e-05
-0.00211306
-0.00318811
-0.00427125
-0.00531248
-0.00613538
-0.00635149
-0.00530656
-0.00268778
0.106162
0.0229229
-0.117501
-0.0115841
0.094474
0.0235321
-0.0118442
0.0824397
0.0241558
-0.0121216
0.0700426
0.0248164
-0.0124193
0.0572668
0.0255187
-0.0127429
0.0441045
0.0262489
-0.0130866
0.0306352
0.0268497
-0.0133804
0.0173467
0.0265654
-0.0132769
0.00589141
0.023139
-0.0116837
0.0122161
-0.0063247
0.105282
0.0342258
-0.116585
0.0936463
0.0351676
0.081677
0.0361251
0.0693574
0.037136
0.0566712
0.0382049
0.0436107
0.0393094
0.0302572
0.0402033
0.0171013
0.0397213
0.00578974
0.0344505
0.0180059
0.104014
0.0454718
-0.11526
0.0924638
0.0467177
0.0805952
0.0479937
0.0683913
0.0493399
0.0558355
0.0507607
0.0429208
0.0522242
0.0297315
0.0533925
0.0167623
0.0526905
0.00564749
0.0455653
0.0236533
0.102279
0.0566303
-0.113438
0.0908525
0.0581445
0.079127
0.0597193
0.067085
0.0613819
0.0547092
0.0631364
0.0419933
0.0649401
0.0290267
0.0663592
0.0163104
0.0654068
0.00545754
0.0564182
0.0291109
0.0999676
0.0676675
-0.111005
0.0887149
0.0693972
0.0771922
0.0712419
0.0653772
0.0731969
0.0532481
0.0752655
0.0407976
0.0773907
0.0281213
0.0790354
0.0157328
0.0777952
0.00523143
0.0669196
0.0343423
0.0969131
0.0785247
-0.10777
0.0859022
0.080408
0.0746528
0.0824913
0.0631392
0.0847105
0.0513372
0.0870675
0.0392382
0.0894896
0.0269434
0.0913303
0.0149762
0.0897623
0.00491782
0.076978
0.0392601
0.0931091
0.0890462
-0.103631
0.0825223
0.0909949
0.0717141
0.0932996
0.0606305
0.0957941
0.049241
0.098457
0.0375472
0.101184
0.025672
0.103205
0.0141651
0.101269
0.00459004
0.0865531
0.0438502
0.087301
0.0990475
-0.0973023
0.0772963
0.101
0.0671368
0.103459
0.0567465
0.106184
0.0460624
0.109141
0.0350637
0.112182
0.0238726
0.114397
0.0130518
0.11209
0.00414198
0.0954629
0.0479922
0.0837838
0.10793
-0.0926667
0.0746398
0.110144
0.0649483
0.113151
0.0548115
0.116321
0.0443308
0.119622
0.0335746
0.122938
0.022706
0.125265
0.0123008
0.122495
0.00385026
0.103913
0.0518424
0.0730451
-0.0792701
0.0657575
0.0579398
0.0494537
0.0403249
0.0306562
0.0206956
0.0111062
0.0033923
0.201514
0.0136198
-0.0171442
0.204055
0.0253425
-0.0278832
0.204289
0.031066
-0.0312998
0.205198
0.0329722
-0.0338819
0.204667
0.0390656
-0.0385345
0.202358
0.047647
-0.0453378
0.196804
0.0596798
-0.0541262
0.186084
0.0758569
-0.0651369
0.162078
0.101397
-0.0773905
0.137198
-0.0926198
0.20129
0.0103196
0.203696
0.022936
0.203875
0.0308879
0.204714
0.0321328
0.204081
0.0396988
0.20162
0.0501076
0.195878
0.0654222
0.184849
0.086886
0.16073
0.125515
0.181343
0.20094
0.00736937
0.203059
0.020817
0.203085
0.0308617
0.20372
0.0314982
0.202851
0.0405681
0.200114
0.0528447
0.194081
0.0714545
0.18264
0.0983274
0.158357
0.149798
0.22444
0.20046
0.00489951
0.202146
0.0191303
0.201932
0.0310765
0.202227
0.0312029
0.200989
0.0418062
0.19785
0.0559837
0.191413
0.0778916
0.179449
0.110291
0.154961
0.174286
0.265964
0.199842
0.00304716
0.200964
0.018009
0.200427
0.0316125
0.200248
0.0313825
0.198511
0.0435434
0.194843
0.0596509
0.187871
0.0848645
0.175279
0.122882
0.15088
0.198685
0.305839
0.19908
0.00195721
0.199518
0.0175712
0.19859
0.0325402
0.197797
0.0321751
0.195435
0.0459059
0.191112
0.0639741
0.183451
0.0925253
0.170118
0.136214
0.146388
0.222416
0.344456
0.198164
0.00178332
0.197818
0.0179169
0.196438
0.0339203
0.194891
0.0337215
0.191784
0.0490135
0.186674
0.069084
0.178185
0.101015
0.163918
0.150481
0.141422
0.244912
0.382248
0.197085
0.00268799
0.195878
0.0191243
0.193993
0.0358055
0.191548
0.0361659
0.187585
0.052977
0.181558
0.0751107
0.172141
0.110431
0.156713
0.165909
0.135461
0.266164
0.420407
0.195845
0.00483309
0.193724
0.0212449
0.191278
0.0382518
0.187787
0.0396568
0.182864
0.0578998
0.175808
0.0821671
0.165464
0.120776
0.149489
0.181884
0.129936
0.285716
0.457676
0.194563
0.00825943
0.191385
0.0244232
0.188349
0.0412882
0.183588
0.0444179
0.177704
0.0637836
0.169492
0.0903792
0.157574
0.132693
0.1399
0.199558
0.119411
0.306205
0.497818
0.303193
0.00707652
0.305607
0.0220098
0.309347
0.0375477
0.311095
0.0426701
0.313576
0.0613024
0.316456
0.0874989
0.321224
0.127926
0.331077
0.189705
0.356903
0.280379
0.438372
0.416349
0.303977
0.00511022
0.306741
0.0192455
0.310869
0.0334197
0.313566
0.0399727
0.317349
0.0575195
0.322421
0.0824275
0.330578
0.119768
0.345275
0.175008
0.375483
0.250171
0.379081
0.434773
0.304725
0.00239536
0.308016
0.0159548
0.312402
0.0290338
0.315993
0.0363813
0.320916
0.0525964
0.327817
0.075527
0.338648
0.108937
0.356541
0.157115
0.389318
0.217394
0.320116
0.448282
0.305487
-0.00108187
0.309293
0.0121494
0.313916
0.0244104
0.318265
0.0320329
0.324209
0.0466522
0.332658
0.0670776
0.345567
0.0960286
0.365776
0.136906
0.399386
0.183784
0.263594
0.455908
0.306299
-0.00537114
0.310582
0.0078664
0.315375
0.0196182
0.320328
0.0270793
0.327143
0.0398375
0.336862
0.057359
0.351337
0.0815529
0.373173
0.115071
0.406469
0.150487
0.21049
0.459574
0.307231
-0.0105919
0.311917
0.0031806
0.31675
0.014785
0.322141
0.0216884
0.32966
0.0323185
0.340379
0.0466395
0.356004
0.0659286
0.378895
0.0921791
0.411363
0.118019
0.161014
0.460839
0.30833
-0.0169118
0.313325
-0.00181387
0.318013
0.0100964
0.32366
0.0160418
0.331715
0.0242633
0.343185
0.0351697
0.359622
0.0494918
0.38313
0.0686706
0.414656
0.0864927
0.114833
0.460837
0.309654
-0.024556
0.314795
-0.00695441
0.319052
0.00583927
0.324755
0.0103393
0.333188
0.0158302
0.345185
0.0231723
0.362177
0.0324995
0.386002
0.0448456
0.416702
0.0557928
0.0714396
0.460096
0.30894
-0.0314855
0.313228
-0.0112427
0.316889
0.00217777
0.322586
0.00464261
0.331244
0.00717186
0.343584
0.0108327
0.360951
0.0151327
0.384899
0.0208979
0.415151
0.0255402
0.0318538
0.454737
0.270525
0.259282
0.26146
0.266102
0.273274
0.284107
0.29924
0.320138
0.345678
0.377532
0.430366
-0.103781
0.434516
-0.0915225
0.436842
-0.0814226
0.439459
-0.070099
0.442649
-0.0586951
0.446075
-0.0476848
0.449408
-0.0367355
0.452359
-0.0253718
0.454815
-0.0136515
-0.00182401
0.435317
-0.104325
0.435271
-0.0914765
0.434389
-0.0805407
0.43421
-0.0699194
0.434626
-0.0591114
0.435218
-0.048277
0.435814
-0.0373314
0.43651
-0.0260676
0.437338
-0.0144794
-0.00272143
0.44201
-0.0980522
0.437259
-0.0867252
0.432881
-0.0761633
0.429169
-0.066207
0.426355
-0.056297
0.424296
-0.0462186
0.422902
-0.0359371
0.422178
-0.0253441
0.422098
-0.0143992
-0.00322687
0.44558
-0.0877243
0.437195
-0.0783401
0.430057
-0.0690256
0.424023
-0.0601735
0.419177
-0.0514501
0.415449
-0.042491
0.412736
-0.0332243
0.411009
-0.0236165
0.410277
-0.0136678
-0.00352589
0.446983
-0.0751328
0.436314
-0.0676712
0.427269
-0.0599806
0.419625
-0.0525302
0.413337
-0.0451621
0.408373
-0.0375269
0.404684
-0.0295347
0.402251
-0.0211841
0.401086
-0.0125027
-0.00360445
0.446993
-0.0612864
0.434936
-0.0556143
0.424606
-0.049651
0.415852
-0.043776
0.408588
-0.037898
0.402789
-0.031728
0.398435
-0.0251808
0.395519
-0.0182679
0.394043
-0.0110269
-0.00356014
0.446277
-0.0467267
0.433385
-0.0427227
0.422242
-0.0385075
0.412769
-0.0343031
0.404872
-0.030001
0.398526
-0.0253824
0.393731
-0.0203852
0.390491
-0.0150282
0.388823
-0.00935824
-0.00345862
0.445038
-0.0316685
0.431571
-0.0292564
0.419902
-0.0268383
0.40995
-0.0243512
0.401613
-0.0216633
0.394874
-0.0186434
0.38975
-0.0152614
0.386267
-0.0115452
0.384456
-0.00754768
-0.0033549
0.4385
-0.0154314
0.424209
-0.0149656
0.411768
-0.0143976
0.40101
-0.0135927
0.391838
-0.0124914
0.384267
-0.0110727
0.378372
-0.0093666
0.374252
-0.0074252
0.371999
-0.00529465
-0.00301011
0.3621
0.347135
0.332737
0.319144
0.306653
0.29558
0.286214
0.278788
0.273494
0.0082212
0.071507
-0.0797282
0.0161583
0.174216
-0.182153
0.0195776
0.223904
-0.227323
0.0196931
0.239621
-0.239737
0.0182824
0.240861
-0.23945
0.0163894
0.237784
-0.235891
0.0144091
0.233976
-0.231996
0.0124544
0.22996
-0.228005
0.0106173
0.22428
-0.222443
0.212121
0.00910846
-0.210612
0.00983197
0.0616751
0.0218
0.162248
0.029779
0.215925
0.0341493
0.235251
0.0366999
0.238311
0.0386973
0.235787
0.0406693
0.232004
0.0426391
0.22799
0.0441197
0.222799
0.212524
0.043717
0.0104306
0.0512444
0.0254252
0.147253
0.0375753
0.203775
0.0462
0.226626
0.0527898
0.231721
0.058703
0.229874
0.0646327
0.226074
0.0706725
0.22195
0.0761542
0.217318
0.209976
0.0787022
0.00998996
0.0412545
0.0265638
0.130679
0.0419182
0.188421
0.0543247
0.21422
0.0646898
0.221356
0.0742517
0.220312
0.0838013
0.216525
0.0936055
0.212146
0.103294
0.207629
0.202311
0.110959
0.00873792
0.0325165
0.0253042
0.114113
0.0424956
0.171229
0.0577701
0.198945
0.071297
0.207829
0.0839737
0.207635
0.0965424
0.203956
0.109386
0.199302
0.122497
0.194518
0.189591
0.135217
0.00703062
0.0254859
0.0222624
0.0988813
0.0398221
0.15367
0.056753
0.182015
0.0725047
0.192077
0.0874899
0.19265
0.102246
0.1892
0.117141
0.184407
0.132354
0.179306
0.173838
0.148106
0.00526161
0.0202243
0.0184254
0.0857175
0.0351967
0.136898
0.0526042
0.164607
0.0695449
0.175137
0.0859308
0.176264
0.102004
0.173127
0.118013
0.168397
0.1341
0.163219
0.157238
0.1507
0.0037312
0.0164931
0.0147185
0.0747302
0.0300607
0.121556
0.0470192
0.147649
0.0641541
0.158002
0.0809631
0.159455
0.0973853
0.156705
0.113498
0.152284
0.12943
0.147287
0.14143
0.145239
0.00262886
0.0138643
0.0118267
0.0655324
0.0256868
0.107696
0.0417889
0.131546
0.0585664
0.141224
0.0752742
0.142747
0.0916569
0.140322
0.107697
0.136244
0.123507
0.131477
0.12528
0.139657
0.00193965
0.0119246
0.00987172
0.0576003
0.0224571
0.0951105
0.0375373
0.116466
0.0535152
0.125246
0.0694883
0.126774
0.0850086
0.124802
0.0998514
0.121401
0.113776
0.117553
0.112506
0.12655
0.00160018
0.0103244
0.00879135
0.0504091
0.0205033
0.0833986
0.034772
0.102198
0.0500679
0.10995
0.0654995
0.111343
0.0806402
0.109661
0.0953386
0.106703
0.10956
0.103331
0.10025
0.121816
0.00147502
0.00884941
0.00828577
0.0435984
0.0194615
0.0722228
0.0331537
0.0885054
0.047905
0.095199
0.0628561
0.0963914
0.0775827
0.0949349
0.0919078
0.0923775
0.105783
0.0894559
0.0874856
0.118547
0.00141951
0.0074299
0.00800258
0.0370153
0.0188025
0.0614229
0.0320255
0.0752825
0.0462633
0.0809612
0.0606871
0.0819676
0.0748849
0.0807371
0.0886782
0.0785842
0.102003
0.0761306
0.0747327
0.114756
0.00138356
0.00604634
0.0078088
0.0305901
0.0183352
0.0508965
0.0311962
0.0624215
0.045019
0.0671384
0.059005
0.0679816
0.0727602
0.0669819
0.0861136
0.0652308
0.0989995
0.0632447
0.0622051
0.111527
0.00136048
0.00468586
0.00767864
0.0242719
0.0180197
0.0405554
0.030633
0.0498082
0.0441704
0.053601
0.0578581
0.054294
0.0713205
0.0535194
0.0843984
0.0521529
0.0970353
0.0506078
0.049843
0.109397
0.00134583
0.00334003
0.00759264
0.0180251
0.0178132
0.0303348
0.030268
0.0373534
0.0436255
0.0402434
0.0571303
0.0407892
0.070422
0.0402277
0.0833525
0.0392224
0.0958748
0.0380854
0.0375574
0.10816
0.00133814
0.00200189
0.00753972
0.0118235
0.0176844
0.0201902
0.0300411
0.0249967
0.0432905
0.0269941
0.0566894
0.0273902
0.069888
0.0270291
0.0827459
0.0263645
0.0952217
0.0256097
0.0252988
0.10748
0.00133862
0.000663268
0.00751676
0.00564537
0.0176162
0.0100907
0.029913
0.0127
0.0430967
0.0138104
0.0564332
0.0140538
0.0695794
0.0138829
0.0824003
0.0135436
0.0948574
0.0131526
0.0130468
0.107109
0.00134883
-0.000685561
0.0075235
-0.000529295
0.0175992
1.49252e-05
0.0298569
0.000442341
0.0429949
0.000672266
0.0562865
0.000762248
0.0693943
0.000775066
0.0821871
0.000750742
0.0946287
0.00071105
0.000803116
0.106872
0.00137167
0.00755933
0.017626
0.0298551
0.0429522
0.0561987
0.0692635
0.0820193
0.0944323
0.106657
0.138265
0.273461
-0.28991
0.150299
0.118462
-0.130495
0.159765
0.0406262
-0.0500918
0.167078
0.00564972
-0.0129628
0.173218
-0.00807579
0.0019357
0.178687
-0.0121796
0.00671007
0.183708
-0.0121921
0.00717121
0.188373
-0.0105883
0.00592338
0.19273
-0.008561
0.00420406
-0.00564153
0.00170575
0.141203
0.250805
0.156387
0.103277
0.166394
0.0306198
0.173418
-0.00137403
0.178771
-0.0134289
0.18327
-0.0166786
0.187226
-0.0161481
0.190777
-0.0141402
0.194004
-0.011788
-0.00845517
0.144049
0.221512
0.161757
0.0855695
0.172275
0.0201017
0.179006
-0.00810502
0.183766
-0.0181893
0.187429
-0.0203413
0.190437
-0.0191564
0.192988
-0.0166907
0.195195
-0.0139955
-0.0102537
0.146839
0.1862
0.166567
0.0658415
0.177553
0.00911555
0.18406
-0.0146111
0.188245
-0.0223744
0.191164
-0.0232608
0.193332
-0.0213245
0.194996
-0.018354
0.196299
-0.0152985
-0.0111497
0.149584
0.146014
0.170832
0.0445927
0.182187
-0.00223896
0.188492
-0.0209158
0.192187
-0.0260695
0.194462
-0.0255363
0.195901
-0.0227635
0.196794
-0.0192465
0.19731
-0.015815
-0.0112599
0.151965
0.102209
0.174485
0.0220732
0.186147
-0.0139016
0.192284
-0.0270523
0.195571
-0.0293566
0.197306
-0.0272712
0.198131
-0.0235888
0.198374
-0.0194891
0.198226
-0.0156673
-0.0107056
0.153909
0.0557808
0.177471
-0.00148874
0.189396
-0.0258274
0.195409
-0.0330645
0.198376
-0.0323242
0.19968
-0.0285746
0.200011
-0.0239198
0.199727
-0.0192059
0.199041
-0.0149809
-0.00961215
0.155359
0.00753075
0.179735
-0.0258648
0.191898
-0.0379902
0.197842
-0.0390083
0.200585
-0.0350674
0.20157
-0.0295596
0.20153
-0.0238794
0.200848
-0.0185242
0.199752
-0.0138845
-0.00810797
0.156258
-0.0418545
0.18124
-0.0508471
0.193623
-0.0503733
0.199566
-0.044951
0.202184
-0.0376859
0.202968
-0.030343
0.202681
-0.0235926
0.20173
-0.0175733
0.200354
-0.0125088
-0.00632429
0.15657
0.181947
0.194547
0.200564
0.203162
0.203863
0.203457
0.202368
0.200846
0.14371
0.0122392
-0.155949
0.134173
0.009537
0.129384
0.0047889
0.1281
0.00128411
0.128546
-0.000446029
0.129561
-0.0010149
0.130589
-0.00102802
0.13142
-0.000830795
0.131991
-0.000571498
-0.000222324
0.234594
0.0803953
-0.30275
0.20429
0.0398409
0.192509
0.0165704
0.189111
0.00468205
0.189138
-0.000473524
0.190353
-0.00222963
0.191761
-0.0024361
0.192954
-0.00202375
0.193809
-0.00142637
-0.000570115
0.245345
0.157146
-0.322096
0.212397
0.0727883
0.199852
0.0291152
0.19631
0.00822454
0.196382
-0.000546098
0.197675
-0.00352189
0.199163
-0.00392441
0.200423
-0.00328416
0.201333
-0.00233561
-0.000943328
0.240548
0.227566
-0.310968
0.210349
0.102987
0.19915
0.0403138
0.196317
0.0110576
0.196735
-0.000964349
0.198214
-0.00500049
0.199785
-0.00549536
0.201084
-0.00458295
0.20201
-0.00326225
-0.00132237
0.234691
-0.297035
0.207183
0.197405
0.1955
0.196471
0.198181
0.199857
0.201197
0.202139
0.0154418
9.08717e-05
-0.0155326
0.0172721
-0.00183038
0.0209989
-0.0037268
0.0269904
-0.00599148
0.0362695
-0.00927904
0.0496316
-0.0133621
0.0697101
-0.0200785
0.0933867
-0.0236767
0.125485
-0.0320979
-0.0304645
0.0435586
-0.000455769
-0.043012
0.0496377
-0.00790942
0.061726
-0.0158151
0.0808497
-0.0251152
0.107811
-0.0362404
0.142232
-0.0477827
0.183061
-0.0609081
0.224322
-0.0649376
0.267517
-0.075293
-0.0656972
0.0672321
-0.00213727
-0.0655506
0.0770287
-0.017706
0.0955029
-0.0342893
0.122967
-0.0525792
0.158018
-0.0712915
0.197368
-0.087133
0.235849
-0.0993884
0.269701
-0.0987898
0.299304
-0.104896
-0.0884888
0.0854188
-0.00505981
-0.0824963
0.0977251
-0.0300123
0.119516
-0.0560806
0.14939
-0.0824526
0.183566
-0.105468
0.217331
-0.120898
0.24596
-0.128017
0.271264
-0.124094
0.292377
-0.126009
-0.107079
0.0982985
-0.0942499
0.112003
0.134625
0.163131
0.192881
0.220089
0.242771
0.263916
0.277564
0.0952197
-0.0896098
0.0979169
-0.103527
0.0862249
-0.0920611
0.101056
0.076819
-0.0953847
0.104791
0.066558
-0.0988116
0.109073
0.0553213
-0.102252
0.113489
0.0431642
-0.105667
0.117824
0.0302882
-0.108381
0.121257
0.0172982
-0.107087
0.120077
0.00593086
-0.092345
0.103712
-0.0474022
0.0533331
0.105104
-0.0793268
-0.115387
0.0944535
-0.0814104
0.0829638
-0.083895
0.0707359
-0.0865837
0.0579342
-0.0894502
0.044671
-0.0924035
0.0310788
-0.0947888
0.0176567
-0.0936649
0.00604669
-0.080735
-0.0413556
0.103778
-0.0680446
-0.115061
0.0923705
-0.0700024
0.0806944
-0.0722189
0.0686951
-0.0745844
0.0563068
-0.0770618
0.0434809
-0.0795777
0.0302759
-0.0815838
0.0171756
-0.0805646
0.00583702
-0.0693964
-0.0355185
0.105763
-0.0566662
-0.117141
0.0942217
-0.0584613
0.0823501
-0.0603473
0.0700867
-0.062321
0.0573941
-0.0643692
0.0442631
-0.0664467
0.0307836
-0.0681043
0.0174583
-0.0672393
0.00594899
-0.0578871
-0.0295696
0.106483
-0.0452627
-0.117887
0.0948002
-0.0467785
0.0827694
-0.0483164
0.0703665
-0.0499181
0.0575711
-0.0515738
0.0443726
-0.0532482
0.0308489
-0.0545806
0.0174864
-0.0538768
0.00593997
-0.0463407
-0.0236296
0.106935
-0.0338798
-0.118317
0.0952241
-0.0350681
0.0831536
-0.0362459
0.0707032
-0.0374677
0.0578543
-0.0387249
0.0445978
-0.0399917
0.0310123
-0.040995
0.0175854
-0.0404499
0.0059824
-0.0347377
-0.0176472
0.107173
-0.0225054
-0.118547
0.095444
-0.0233393
0.0833482
-0.0241502
0.0708686
-0.024988
0.0579894
-0.0258457
0.0447032
-0.0267055
0.0310884
-0.0273802
0.0176322
-0.0269937
0.00600451
-0.02311
-0.0116427
0.107231
-0.0111339
-0.118603
0.0954922
-0.0116003
0.0833869
-0.0120449
0.070899
-0.0125002
0.0580133
-0.01296
0.0447222
-0.0134144
0.0311039
-0.013762
0.0176451
-0.0135349
0.00601187
-0.0114767
-0.00563081
0.107088
0.000209303
-0.118432
0.0953536
0.000134461
0.0832573
5.13444e-05
0.0707802
-2.30599e-05
0.0579089
-8.86636e-05
0.044636
-0.000141428
0.0310393
-0.000165287
0.0176046
-0.000100196
0.00599763
0.000130209
0.000366818
0.106716
-0.118091
0.0950064
0.0829362
0.0704938
0.0576623
0.0444342
0.0308885
0.0175114
0.00595789
0.0221335
-0.207803
-0.0249432
0.0171967
-0.217506
0.0116275
-0.222436
0.00598782
-0.226356
0.000482273
-0.230386
-0.00461464
-0.234354
-0.00846103
-0.235891
-0.00938237
-0.226402
-0.0058695
-0.185666
-0.0855977
0.0526504
-0.202134
-0.0583185
0.0443667
-0.209222
0.035467
-0.213536
0.0266041
-0.217493
0.0179444
-0.221726
0.00964861
-0.226058
0.0022632
-0.228505
-0.0027105
-0.221428
-0.00318149
-0.185195
-0.0887792
0.0785803
-0.192477
-0.0882373
0.0671417