/*--------------------------------*- C++ -*----------------------------------*\
  =========                 |
  \\      /  F ield         | OpenFOAM: The Open Source CFD Toolbox
   \\    /   O peration     | Website:  https://openfoam.org
    \\  /    A nd           | Version:  13
     \\/     M anipulation  |
\*---------------------------------------------------------------------------*/
FoamFile
{
    format      ascii;
    class       surfaceScalarField;
    location    "26.9";
    object      phi;
}
// * * * * * * * * * * * * * * * * * * * * * * * * * * * * * * * * * * * * * //

dimensions      [0 3 -1 0 0 0 0];

internalField   nonuniform List<scalar> 
823
(
-0.00472151
0.0175639
-0.0128424
0.0135944
0.00557331
-0.0238892
0.0798504
-0.0468681
-0.019388
0.184252
-0.115606
0.0112048
-0.157237
0.00558858
0.3359
0.00695399
0.0106099
0.0623583
-0.049831
0.165907
-0.150417
0.285988
-0.235687
-0.310002
0.438754
0.0269347
-0.0163248
0.121583
-0.144479
0.236359
-0.265193
0.341248
-0.340576
-0.380146
0.411392
0.0495733
-0.065898
0.148163
-0.243068
0.226985
-0.344016
0.270207
-0.383798
-0.393784
0.283845
0.0604525
-0.126351
0.127849
-0.310465
0.163304
-0.37947
0.176303
-0.396798
0.185296
-0.402776
-0.013237
0.0915278
-0.0782908
-0.0572154
0.155955
-0.111976
-0.103608
0.158149
-0.111756
-0.140826
0.14383
-0.106613
0.126388
-0.161893
-0.105321
0.0394928
0.052035
0.0719271
0.123521
0.0821017
0.147974
0.0818845
0.144047
0.12443
0.0838426
0.0336702
0.0183647
0.089166
0.0680248
0.136847
0.100293
0.170657
0.110237
0.107692
0.187395
0.0117828
0.00658196
0.047827
0.0319806
0.0948455
0.0532746
0.147728
0.0573546
0.0663548
0.189066
-0.00626046
0.00183096
0.0357176
0.104277
0.17622
0.249996
0.519382
-0.931271
0.554804
-1.60916
1.30435
0.53113
-0.984954
1.00863
0.501083
0.594783
-0.564736
0.223451
-0.172145
0.390432
0.212793
0.598247
-1.81697
0.590548
-0.977255
0.520546
0.664785
0.266369
0.274616
0.125573
0.41935
-1.96171
0.523229
-1.08113
0.504858
0.683156
0.284457
0.353284
-0.0386455
0.360841
-1.96927
0.421456
-1.14175
0.459918
0.644694
0.241902
0.485566
-0.347991
0.394952
-1.87865
0.335343
-1.08214
0.411821
0.568216
0.113461
1.50115
-0.598818
-1.25032
1.18321
-1.56072
0.710924
-0.609851
0.755337
0.523803
-0.0731227
1.46131
-0.646093
-1.41403
0.951092
-1.0505
0.546088
-0.204847
0.825127
0.244764
-0.233843
1.28981
-0.573254
-1.36265
0.827684
-0.588369
0.636114
-0.013277
0.947181
-0.0663027
-0.263758
1.09141
-0.348601
-1.31607
0.701247
-0.198203
0.706197
-0.0182274
0.795699
-0.155804
-0.12481
0.506883
-0.855484
0.308679
0.290452
0.134648
1.11077
0.147816
-1.07329
1.18758
0.207032
1.30053
0.29844
1.35051
0.38878
0.436084
1.00696
0.0928024
-0.951949
1.08302
0.130976
1.17678
0.204678
1.2986
0.266965
0.320646
0.971093
0.0455592
-0.92385
1.02871
0.073359
1.11358
0.119808
1.22861
0.15194
0.186597
0.947586
0.0076396
-0.909666
1.00056
0.0203874
1.08335
0.0370188
1.1878
0.0474854
0.0583319
0.69226
-0.684621
0.712648
0.749666
0.797152
0.140294
0.30251
-0.24793
-0.194874
0.0941457
0.308284
-0.262135
0.0531438
0.319163
-0.278161
0.0184941
0.310224
-0.275575
0.199249
-0.180755
0.0998588
0.338373
-0.135722
0.0639599
0.344183
0.032268
0.350855
0.00749646
0.334996
0.206746
0.0710819
0.374996
-0.107706
0.0384121
0.376852
0.0105296
0.378737
-0.00517722
0.350703
0.201569
-0.00926383
0.390115
-0.00585472
-0.0260558
0.393644
-0.0343374
0.387019
-0.0266899
0.343055
0.174879
-0.0855141
0.0728526
-0.0886673
-0.0811188
-0.0485282
0.198693
0.10914
-0.252428
-0.055405
0.144433
0.113312
-0.0590521
0.0892303
0.117899
-0.062696
0.0361404
0.117184
-0.0640937
0.0821838
-0.0460434
0.193726
0.152178
-0.236764
0.14736
0.159678
0.0956204
0.169639
0.0406336
0.17217
0.122817
0.136691
0.196895
-0.181408
0.0959441
0.200425
0.0569389
0.208644
0.0204855
0.208624
0.143303
0.152882
0.22891
-0.184898
0.114264
0.239043
0.0706104
0.252298
0.0276602
0.251574
0.170963
0.082748
-0.101768
0.0596555
0.0337929
0.00979213
0.408142
0.045055
-0.0572174
0.425844
0.046934
-0.064636
0.408461
0.209445
-0.192062
0.397327
0.21365
-0.202516
0.500409
-0.35551
0.406345
0.0346892
0.418391
0.0348885
0.398349
0.229487
0.385428
0.226572
0.649072
0.39994
0.0307289
0.411625
0.023204
0.374737
0.266375
0.372698
0.22861
0.840362
0.396674
0.0300349
0.39305
0.026828
0.365022
0.294402
0.355
0.238632
1.01047
0.387008
0.039006
0.379209
0.0346274
0.337104
0.336507
0.323489
0.252248
1.23219
0.620071
0.0229555
0.632314
0.0223838
0.688814
0.280008
0.795809
0.145252
1.03877
0.989227
0.629287
-0.00231093
0.616854
0.0348166
0.73606
0.160802
0.809335
0.0719765
0.814875
1.03323
0.627103
-0.0253931
0.646284
0.0156352
0.767902
0.0391841
0.797253
0.0426254
0.590149
1.02198
0.627185
-0.0485579
0.67493
-0.0321101
0.730911
-0.0167965
0.74165
0.0318863
0.301414
1.03038
0.555463
0.523352
0.506556
0.538442
0.839856
1.03082
-0.236469
1.01981
-0.124715
1.0309
-0.11879
1.02393
0.0011131
0.0234961
0.976141
-0.179381
0.951572
-0.100146
0.925615
-0.0928331
0.93452
-0.00779209
0.00606703
0.95121
-0.108611
0.928328
-0.0772636
0.900692
-0.0651968
0.914596
-0.0216963
-0.0031868
0.968358
-0.0465845
0.931867
-0.0407719
0.902312
-0.0356418
0.902044
-0.0214281
-0.0108092
0.793272
0.7525
0.716858
0.69543
0.0462734
0.149648
-0.195921
0.069791
0.321611
-0.345129
0.0703068
0.374152
-0.374668
0.0611029
0.375759
-0.366555
0.343949
0.048916
-0.331762
0.067953
0.0816947
0.136403
0.253161
0.169134
0.341421
0.173568
0.371325
0.360771
0.156746
0.058126
0.0235687
0.165743
0.145544
0.253724
0.25344
0.311366
0.313683
0.357996
0.31414
0.0283118
-0.00474304
0.124735
0.049121
0.241709
0.136466
0.354082
0.20131
0.273249
0.43883
0.00739592
-0.012139
0.0590374
-0.00252049
0.154521
0.0409826
0.26826
0.0875708
0.141958
0.399551
0.00171807
-0.013857
0.0155896
-0.016392
0.0563809
0.000191303
0.121578
0.0223737
0.0627565
0.200779
0.00362277
-0.0174798
0.0104736
-0.0232428
0.0241005
-0.0134355
0.0454523
0.00102194
0.0289176
0.0792911
0.0297412
-0.047221
0.053183
-0.0466847
0.0574211
-0.0176736
0.0551282
0.0033149
0.0203293
0.0637165
-0.0273014
-0.0199196
-0.073053
-0.000933036
-0.116605
0.0258786
-0.154301
0.0410109
0.0507491
-0.184721
-0.0982104
-0.21112
-0.296997
-0.362599
-0.417171
0.18369
1.10727
-1.09018
0.336111
-0.116348
-0.0360727
0.325217
0.173608
-0.162715
0.200639
0.231345
-0.106767
-0.134426
0.161292
0.131996
1.05456
0.294494
-0.278846
0.427975
0.0401276
0.316498
0.342822
-0.0780679
-0.0251498
1.14343
0.175044
-0.47904
0.528031
-0.312859
0.417823
0.45303
0.00227804
-0.256805
1.21551
0.13575
-0.871596
0.585836
-0.762945
0.495038
0.543827
0.0921106
-0.132929
0.299827
0.545511
0.524602
-0.0849511
0.63229
-0.547339
-0.0438652
-0.0410859
-0.0101674
-0.0336978
0.0408575
-0.0510248
-0.111495
0.579688
-1.03758
0.502529
0.306117
0.148325
0.0841186
-0.0127814
-0.0713372
0.135061
-0.0509423
0.233124
-0.0980626
0.37382
-0.140697
-0.173519
0.191531
-0.155396
0.297334
0.513412
0.811544
0.138786
-0.135256
0.16518
-0.16871
0.105389
-0.140712
0.174108
0.0674771
-0.147951
0.185863
0.0272088
-0.147997
0.188265
-0.10418
0.131388
0.178399
-0.0961005
-0.217554
0.134835
-0.097148
0.0858959
-0.0990116
0.0355259
-0.0976271
-0.0686537
0.188908
-0.0471709
-0.237838
0.138415
-0.0466547
0.0862815
-0.0468784
0.0351204
-0.046466
-0.0335333
0.201468
0.00437302
-0.253012
0.149171
0.0056418
0.0952526
0.00704036
0.0402202
0.00856649
0.00668688
0.20395
-0.254982
0.150539
0.0948838
0.0393565
0.0395476
-0.312208
-0.059101
0.0152779
-0.342285
-0.00632543
-0.353065
-0.0150912
-0.336363
-0.211012
0.118885
-0.281896
-0.149198
0.0776624
-0.301062
0.0375382
-0.312941
0.00748382
-0.306309
-0.203528
0.137259
-0.243322
-0.175832
0.0964726
-0.260276
0.0562229
-0.272691
0.0198341
-0.26992
-0.183694
0.154554
-0.209199
-0.188677
0.113098
-0.21882
0.0687435
-0.228336
0.0268631
-0.22804
-0.156831
0.152402
-0.196421
0.10769
0.0652169
0.0254428
0.392097
0.097474
-0.0935918
0.389597
0.107279
-0.104779
0.355422
0.163993
-0.129818
0.2964
0.0700381
-0.0110156
-0.187375
0.315065
0.399947
0.0935065
0.405066
0.10216
0.394311
0.174748
0.346066
0.118283
-0.0588632
0.404988
0.0844977
0.415173
0.0919756
0.409418
0.180502
0.371895
0.155807
0.0751938
0.408872
0.071605
0.42164
0.0792075
0.417607
0.184536
0.391072
0.182342
0.213254
0.410367
0.424939
0.417412
0.397238
0.415413
0.0946381
0.327405
0.0880082
0.237151
0.0902534
0.23797
-0.000818508
-0.173863
0.411833
0.511097
0.494327
0.454762
0.442928
0.584129
0.331317
0.0805159
0.258556
0.0727615
0.172518
0.0860381
0.100318
0.0721994
0.0289812
0.468224
0.352309
0.262515
0.185516
)
;

boundaryField
{
    left
    {
        type            calculated;
        value           nonuniform List<scalar> 
17
(
-0.60402
-0.60402
-0.60402
-0.60402
-0.60402
-0.39598
-0.39598
-0.39598
-0.39598
-0.39598
-0.39598
-0.39598
-0.39598
-0.39598
-0.39598
-0.510051
-0.510051
)
;
    }
    right
    {
        type            calculated;
        value           nonuniform List<scalar> 
17
(
0.152353
0.198122
0.173773
0.260139
0.337477
0.405206
0.444568
0.449777
0.477629
0.48677
0.502473
0.540262
0.941921
0.985847
0.977096
0.65675
0.00983838
)
;
    }
    down
    {
        type            calculated;
        value           uniform 0;
    }
    up
    {
        type            calculated;
        value           uniform 0;
    }
    cylinder
    {
        type            calculated;
        value           uniform 0;
    }
    defaultFaces
    {
        type            empty;
    }
}


// ************************************************************************* //
