/*--------------------------------*- C++ -*----------------------------------*\
  =========                 |
  \\      /  F ield         | OpenFOAM: The Open Source CFD Toolbox
   \\    /   O peration     | Website:  https://openfoam.org
    \\  /    A nd           | Version:  13
     \\/     M anipulation  |
\*---------------------------------------------------------------------------*/
FoamFile
{
    format      ascii;
    class       volVectorField;
    location    "4.455";
    object      U;
}
// * * * * * * * * * * * * * * * * * * * * * * * * * * * * * * * * * * * * * //

dimensions      [0 1 -1 0 0 0 0];

internalField   nonuniform List<vector> 
440
(
(-0.0666037 0.0387126 -7.52841e-20)
(-0.0977548 0.0686816 3.61075e-20)
(-0.00960731 0.0776072 1.25617e-19)
(0.429112 0.0859091 2.10219e-19)
(0.254981 0.330743 1.22052e-20)
(-0.0929315 0.05014 3.79636e-20)
(0.024426 0.0137354 -1.22771e-19)
(0.464013 -0.0229432 -1.18414e-19)
(1.02362 -0.0447583 7.82481e-20)
(1.39921 -0.0283211 2.72044e-20)
(-0.0349236 0.0153585 5.24433e-20)
(0.452752 -0.0273982 6.76239e-19)
(1.21489 -0.00576908 -3.48323e-19)
(1.76795 0.0347904 -1.05719e-18)
(2.32967 0.0602001 3.31587e-19)
(0.1805 -0.0387957 -1.69696e-19)
(1.15897 0.00950766 -4.7986e-19)
(1.9143 0.082459 1.49659e-18)
(2.3703 0.117833 1.54123e-18)
(2.44651 0.13206 -4.32414e-19)
(0.542577 -0.00161386 -2.70961e-19)
(1.69146 0.178786 -5.59773e-19)
(2.22575 0.252941 1.65884e-18)
(2.33816 0.264735 1.75776e-18)
(2.42217 0.23546 5.90316e-19)
(-0.0280514 0.0240483 -5.9474e-20)
(-0.153563 0.107126 1.63229e-19)
(-0.267426 0.160776 -2.96344e-19)
(-0.358589 0.20821 6.26669e-20)
(-0.428954 0.25778 5.25742e-19)
(-0.0532516 0.180518 -2.59453e-20)
(-0.173258 0.335443 -1.31989e-19)
(-0.275211 0.348988 -2.20662e-20)
(-0.353189 0.350369 -1.40673e-20)
(-0.412484 0.370152 1.41217e-20)
(-0.074857 0.212415 -4.3053e-21)
(-0.162783 0.487878 1.73993e-20)
(-0.214381 0.574922 2.14921e-20)
(-0.2409 0.559487 -2.45493e-19)
(-0.250639 0.518359 5.8173e-21)
(-0.0451989 0.0986716 -1.87273e-20)
(-0.107467 0.350109 3.13866e-20)
(-0.125621 0.525621 4.45471e-20)
(-0.125046 0.618042 -4.40546e-21)
(-0.099391 0.649889 -1.71312e-21)
(-0.0296558 0.0268057 -5.3852e-20)
(-0.105148 0.146638 -7.69495e-20)
(-0.14821 0.305335 -1.59017e-19)
(-0.0936197 0.399832 6.17496e-20)
(-0.0538695 0.592385 -1.7055e-19)
(-0.666398 0.511814 -2.50558e-20)
(-0.151638 0.224965 8.32959e-19)
(0.511856 -0.390738 1.9338e-19)
(0.761266 -0.521113 -2.03306e-19)
(0.955168 -0.326078 7.26158e-22)
(-0.66436 0.478093 -1.64684e-19)
(0.377137 0.0292751 -1.66402e-19)
(0.890782 -0.490391 1.21023e-19)
(1.16337 -0.570397 2.99094e-19)
(1.14768 -0.338729 4.87416e-20)
(-0.355025 0.338138 -1.44341e-19)
(0.846559 -0.172391 1.04057e-18)
(1.16146 -0.599345 -9.55113e-20)
(1.41791 -0.606859 2.06221e-19)
(1.31864 -0.335145 4.13648e-21)
(-0.029375 0.306171 3.60609e-19)
(1.38355 -0.296722 -9.53905e-20)
(1.51678 -0.65458 5.29967e-20)
(1.56992 -0.623936 -1.36583e-19)
(1.41051 -0.327928 9.47297e-20)
(0.284528 0.120725 -1.31809e-19)
(1.81893 -0.441709 -8.92054e-20)
(1.92776 -0.656079 0)
(1.75561 -0.592013 3.50913e-20)
(1.45885 -0.306195 2.81944e-20)
(1.50864 0.0334784 -2.7921e-19)
(2.30609 -0.498845 -4.89092e-20)
(2.29712 -0.607292 -2.36459e-20)
(1.95317 -0.497084 9.06434e-20)
(1.48493 -0.256615 -9.05025e-20)
(2.28968 -0.00577797 -9.19031e-21)
(2.5522 -0.581568 8.81535e-19)
(2.27428 -0.588905 -1.66014e-20)
(1.83106 -0.32324 -1.49098e-19)
(1.31983 -0.133841 0)
(2.42214 -0.0753504 -2.17915e-19)
(2.35264 -0.440469 -2.2593e-21)
(1.89806 -0.379482 7.39033e-20)
(1.68608 -0.164141 6.28661e-20)
(1.30244 -0.066954 -5.51626e-20)
(2.30859 -0.0762122 8.95743e-20)
(2.13362 -0.350513 2.26311e-19)
(1.4972 -0.332564 -1.59595e-20)
(1.12944 -0.0827775 -5.50756e-34)
(0.908163 0.00856771 5.31355e-20)
(1.56975 -0.0734161 9.89135e-20)
(1.03482 -0.0721234 7.57739e-20)
(0.381216 0.0112619 -3.17688e-20)
(0.206133 0.0331859 -1.6761e-20)
(0.256443 0.0109323 1.20925e-20)
(2.36033 0.260992 -7.04567e-19)
(2.56703 0.0417802 -8.61986e-19)
(2.42281 0.133551 4.87786e-19)
(2.65506 -0.0411212 9.52098e-20)
(1.9766 0.160046 2.74205e-21)
(2.10764 0.164283 7.61393e-20)
(2.42708 0.0138104 -3.32195e-20)
(2.2449 0.0234405 -1.14099e-19)
(2.4942 -0.0625006 -1.73455e-19)
(2.33811 -0.129938 -4.42477e-21)
(2.13089 0.0597868 7.71426e-20)
(2.28496 0.0118643 6.79347e-20)
(2.23438 -0.039849 -7.48004e-20)
(2.32568 -0.0440171 3.14777e-20)
(2.31536 -0.124688 -1.28351e-20)
(2.08892 -0.00494749 1.08989e-19)
(2.14545 -0.0123189 1.6106e-19)
(2.16183 -0.0516853 -1.75964e-20)
(2.19809 -0.040823 -7.86226e-20)
(2.2317 -0.0906239 3.12321e-20)
(1.52327 -0.0108834 1.8171e-19)
(1.51708 -0.0162811 -1.03638e-20)
(1.52233 -0.0166763 1.51979e-20)
(1.52282 -0.0225116 -3.59085e-20)
(1.53106 -0.0227379 -2.4733e-20)
(1.52109 0.838369 1.12221e-18)
(1.47707 0.924677 -3.71708e-19)
(1.47152 1.04208 -1.29846e-18)
(1.39122 1.07247 6.75589e-19)
(0.83812 0.744006 -1.52904e-19)
(1.77347 0.797126 -5.55352e-19)
(1.7464 0.864939 -2.89204e-18)
(1.75452 0.958519 -1.0868e-18)
(1.651 0.954278 -3.7021e-19)
(0.989742 0.644697 -5.89529e-19)
(2.09807 0.657075 7.13576e-19)
(2.05951 0.715863 1.82566e-19)
(2.01798 0.7958 -2.10454e-18)
(1.8752 0.778003 -5.72007e-19)
(1.08921 0.501022 4.1899e-19)
(2.23415 0.540543 2.09619e-18)
(2.21838 0.586932 1.52023e-18)
(2.20841 0.631541 -1.74485e-18)
(1.97943 0.585587 -1.30404e-18)
(1.06804 0.331444 -2.3724e-19)
(2.41051 0.382342 9.80342e-19)
(2.393 0.401376 -7.14081e-19)
(2.27017 0.426438 5.10946e-19)
(1.94272 0.373056 4.00803e-19)
(0.901256 0.147808 -3.37031e-19)
(0.580708 0.485897 -6.29536e-19)
(0.488531 0.520698 -4.80255e-19)
(0.369481 0.552955 5.40769e-20)
(0.229426 0.546815 -6.29399e-21)
(0.0566362 0.383675 7.97796e-20)
(0.674331 0.64721 1.01561e-19)
(0.608444 0.699569 -2.84269e-19)
(0.519464 0.762247 1.79979e-19)
(0.396008 0.817303 -8.39042e-20)
(0.173828 0.618179 1.18854e-19)
(0.759758 0.858996 9.67002e-20)
(0.683685 0.938678 4.71291e-19)
(0.626582 1.02741 1.16181e-19)
(0.543829 1.04874 -2.99616e-19)
(0.298969 0.756514 2.47755e-19)
(1.04695 0.922157 2.15355e-19)
(0.993226 0.991223 -6.78208e-19)
(0.936072 1.07706 -1.8478e-18)
(0.849492 1.1313 7.25725e-19)
(0.497321 0.82358 -1.58284e-19)
(1.07032 0.986724 -8.85862e-20)
(1.11682 1.0984 -1.62285e-19)
(1.14211 1.19309 -3.55042e-19)
(1.08081 1.18621 -3.85261e-19)
(0.657243 0.81963 -6.05185e-21)
(0.983329 0.0352751 -8.81392e-20)
(1.03197 0.0258367 -2.87355e-20)
(1.03425 0.12671 -2.66677e-21)
(0.968362 0.119888 -1.66068e-19)
(0.912021 0.305762 2.93117e-19)
(0.976101 0.0303777 5.58345e-20)
(1.05044 0.0250832 9.94496e-20)
(1.00992 0.133149 1.23442e-19)
(1.01228 0.142659 2.32424e-20)
(0.943027 0.398529 -1.74745e-20)
(0.985262 0.0280021 7.49659e-20)
(1.03106 0.0171952 -3.77461e-21)
(1.05464 0.155221 5.23308e-22)
(0.964285 0.137199 1.37144e-19)
(1.16482 0.542743 -5.00282e-19)
(0.984131 0.0254969 -3.16246e-22)
(1.04274 0.0108478 -1.32529e-19)
(1.0401 0.169633 -5.84305e-20)
(1.07591 0.121973 -3.05338e-19)
(1.15006 0.627247 8.68549e-20)
(0.988227 0.0200805 -1.25952e-20)
(1.03151 0.0124184 3.70997e-20)
(1.08531 0.165321 2.60861e-20)
(1.03983 0.170575 4.13224e-19)
(1.33895 0.755013 -4.80921e-19)
(0.974081 0.0207413 -9.32635e-21)
(1.06287 -0.00687525 8.01035e-20)
(1.06338 0.194563 -5.66419e-20)
(1.28978 0.0652977 9.89167e-19)
(1.29201 0.823542 -3.21672e-19)
(0.962189 -0.000539416 -1.1207e-21)
(1.10037 -0.00574743 -7.2322e-20)
(1.03489 0.103968 4.28229e-21)
(1.39623 0.0763089 -2.63356e-19)
(1.10994 0.63816 -9.61629e-20)
(0.980379 -0.00855797 4.52671e-21)
(1.08946 -0.0102952 1.27365e-35)
(1.09048 0.060715 -1.0093e-20)
(1.28286 0.0765359 8.29819e-20)
(1.19011 0.479827 1.74793e-19)
(1.01992 -0.0431125 3.38094e-21)
(1.01158 -0.0261569 -2.35438e-20)
(1.15625 0.00710234 1.64808e-20)
(1.06952 0.0654824 1.7528e-20)
(1.49867 0.30294 -2.75313e-19)
(0.938608 -0.0222365 -3.8274e-20)
(0.829469 -0.0244607 -1.37309e-21)
(0.882635 -0.00222877 2.0896e-20)
(0.741723 0.0100685 -2.29548e-20)
(1.24368 0.0729736 -6.42888e-20)
(1.78212 0.634478 2.68195e-19)
(1.84915 0.664006 7.24303e-19)
(2.13604 0.507884 -9.97263e-19)
(2.17244 0.486894 -1.97161e-20)
(2.40816 0.266998 4.33606e-19)
(1.70252 0.389503 9.31234e-20)
(1.68072 0.433992 9.35755e-19)
(1.99694 0.302311 1.2786e-19)
(1.91781 0.309955 -8.62646e-19)
(2.26316 0.138261 -2.52352e-19)
(1.68895 0.268072 -2.30095e-19)
(1.78348 0.263139 -1.48656e-19)
(1.97371 0.186784 1.31011e-19)
(1.98524 0.16586 -2.68988e-19)
(2.17368 0.0889641 2.50654e-19)
(1.78776 0.145306 4.28345e-19)
(1.89652 0.12278 -4.77893e-21)
(1.96747 0.0746659 2.10518e-19)
(2.00748 0.0522556 1.84808e-19)
(2.07138 0.0216042 -1.84978e-19)
(1.43368 0.028083 -5.44001e-20)
(1.51504 0.0169354 2.62241e-19)
(1.51407 0.00373487 1.06795e-19)
(1.52994 -5.11912e-05 -2.11917e-19)
(1.51362 -0.00796327 1.99451e-23)
(1.21122 -0.0245493 7.25804e-20)
(2.2481 -0.0380849 -4.71184e-19)
(2.48156 -0.0344185 1.25729e-18)
(2.46145 0.00768013 5.58035e-19)
(2.29724 0.0307595 -4.004e-19)
(0.779381 0.098035 1.37319e-19)
(2.01528 0.105065 -4.91343e-19)
(2.46455 0.106275 -6.81023e-19)
(2.5088 0.110279 8.70756e-19)
(2.2653 0.103104 -5.99962e-19)
(0.270928 0.0914974 -2.13899e-20)
(1.40891 0.184606 5.47214e-19)
(2.13906 0.208355 7.81522e-20)
(2.49531 0.209168 5.97228e-19)
(2.6242 0.18706 2.36482e-19)
(-0.00598682 -0.00378107 2.17527e-19)
(0.583185 0.125231 2.1707e-19)
(1.39215 0.20615 -4.73901e-19)
(1.88461 0.228303 2.80759e-20)
(2.41159 0.260568 1.16971e-19)
(-0.084786 -0.0730504 1.44782e-19)
(0.0557526 -0.0265114 -1.58908e-19)
(0.546567 0.0657106 -2.39721e-20)
(1.03124 0.120623 5.80601e-20)
(1.49917 0.206714 9.20609e-21)
(-0.0810172 -0.094554 1.23922e-20)
(-0.101299 -0.133829 7.05683e-20)
(0.0587931 -0.0954941 3.51843e-20)
(0.319505 -0.00435528 -1.00206e-19)
(0.729507 0.104226 7.26024e-21)
(-0.0613073 -0.104285 -2.70514e-20)
(-0.0942309 -0.191695 -3.66568e-20)
(-0.0568351 -0.189135 1.41343e-21)
(0.0495145 -0.122617 -6.97917e-21)
(0.234724 -0.011084 9.51261e-21)
(-0.0564203 -0.173277 -3.35144e-20)
(-0.0716725 -0.302329 -1.46644e-19)
(-0.0506712 -0.310884 1.32561e-19)
(-0.00575434 -0.257537 5.0013e-19)
(0.05885 -0.178257 -8.68176e-20)
(-0.0498053 -0.219488 2.66741e-20)
(-0.0948285 -0.31136 2.27612e-19)
(-0.125236 -0.275607 -6.98529e-19)
(-0.144742 -0.197765 -5.05667e-19)
(-0.144874 -0.109001 9.92103e-20)
(-0.0277171 -0.13848 -1.44637e-20)
(-0.12168 -0.139148 5.68053e-20)
(-0.2171 -0.083812 -1.80946e-20)
(-0.298965 -0.0139894 -4.55917e-20)
(-0.351918 0.0653138 1.25603e-20)
(1.43595 0.505969 -3.31694e-20)
(0.996622 0.251903 6.5391e-19)
(0.734813 -0.0157459 -1.02537e-19)
(0.693893 -0.0862553 -9.48872e-20)
(0.915827 -0.0375799 1.89983e-21)
(1.25316 0.425471 8.43167e-20)
(0.638194 0.297693 7.1763e-20)
(0.299261 0.0317776 -1.74682e-19)
(0.340071 -0.117942 -1.23308e-20)
(0.770508 -0.0791997 -2.59236e-20)
(0.738824 0.316369 1.39724e-19)
(-0.0894382 0.407244 4.51216e-19)
(0.0247534 0.0201947 6.47079e-20)
(0.209239 -0.22235 -6.48871e-20)
(0.734062 -0.147301 -3.91274e-21)
(0.0442586 0.406854 -5.57445e-20)
(-0.650263 0.447574 -1.71295e-18)
(0.0361652 -0.100818 -2.8628e-19)
(0.244493 -0.323686 6.72251e-21)
(0.759075 -0.217288 2.41326e-20)
(-0.455227 0.491601 -3.3023e-20)
(-0.63566 0.374409 -1.38175e-19)
(0.180876 -0.268453 2.75601e-19)
(0.414135 -0.434197 -4.37849e-20)
(0.824487 -0.28308 3.6845e-20)
(0.53933 0.138401 -7.4115e-20)
(-0.0902207 -0.0526306 0)
(0.0482399 -0.0817904 -4.57901e-20)
(0.217852 -0.046001 2.43331e-20)
(0.401445 -0.0208752 6.87799e-21)
(1.95578 0.42584 0)
(1.22633 0.231055 0)
(0.941157 -0.00461987 3.4963e-19)
(0.977097 -0.0669266 4.90589e-20)
(1.0437 -0.0315487 -5.69615e-21)
(0.73636 0.00147131 -1.32825e-19)
(0.812898 -0.000171686 3.23689e-19)
(0.918257 -0.0109499 -8.42648e-21)
(1.05834 0.020958 2.81195e-19)
(1.31215 0.0768244 1.75782e-19)
(1.66618 0.0222688 1.2736e-19)
(1.82701 0.0818939 3.88618e-19)
(1.93871 0.0766954 -1.82509e-19)
(2.50031 0.175185 3.55043e-20)
(2.17317 0.182975 1.78691e-19)
(0.903525 -0.473075 -1.25137e-20)
(0.892145 -0.562933 -1.79138e-19)
(0.884942 -0.661662 -1.25692e-19)
(0.817527 -0.734105 7.59961e-20)
(0.500603 -0.582403 1.35617e-19)
(0.80922 -0.378176 1.1638e-19)
(0.755747 -0.444081 2.14403e-19)
(0.682959 -0.515497 -5.99306e-20)
(0.569638 -0.576804 1.46009e-19)
(0.311479 -0.463787 5.37851e-20)
(0.648391 -0.237943 -1.2492e-19)
(0.56277 -0.278368 -5.63242e-20)
(0.462828 -0.329336 7.17079e-20)
(0.344066 -0.372979 -2.5426e-20)
(0.153258 -0.300278 -1.28309e-19)
(0.557015 -0.00396151 -4.23196e-19)
(0.470882 -0.0196851 -3.47985e-19)
(0.358834 -0.0423461 2.826e-19)
(0.228522 -0.0713209 1.62932e-19)
(0.0626737 -0.0788738 1.33569e-20)
(0.522776 0.20433 -1.48226e-19)
(0.433028 0.205162 -1.54888e-19)
(0.313473 0.206398 -5.84419e-20)
(0.176976 0.212009 2.40731e-20)
(0.0248916 0.154587 1.0426e-20)
(2.02342 -0.0314865 8.27273e-19)
(2.29485 -0.0946207 2.70301e-19)
(2.3768 -0.181887 -7.29786e-19)
(2.24141 -0.210288 -1.56266e-18)
(1.36387 -0.193574 1.33144e-19)
(2.03427 -0.121261 1.38848e-18)
(2.11479 -0.232673 1.84732e-18)
(2.12579 -0.354127 1.5666e-19)
(2.04629 -0.412603 2.76778e-19)
(1.32043 -0.369064 -1.83255e-19)
(1.72461 -0.283203 -3.60433e-18)
(1.78968 -0.400506 3.79355e-19)
(1.83715 -0.527444 1.12503e-18)
(1.7823 -0.604454 -4.21098e-19)
(1.16269 -0.516279 6.79006e-19)
(1.51122 -0.405831 8.41693e-19)
(1.51972 -0.501568 -2.26935e-18)
(1.50444 -0.618082 -2.58871e-18)
(1.44378 -0.708607 7.94528e-19)
(0.939219 -0.591177 5.49994e-19)
(1.21583 -0.458517 1.825e-19)
(1.17289 -0.554022 2.63729e-19)
(1.16813 -0.678953 -3.95556e-19)
(1.11787 -0.768754 -4.78525e-19)
(0.71082 -0.616059 -4.46023e-21)
(1.00741 0.0390722 7.03768e-21)
(1.00665 0.0635181 -2.50648e-21)
(1.10344 0.0857493 -7.47424e-22)
(0.831566 -0.00868984 -2.43603e-19)
(1.09048 -0.197762 -1.86241e-20)
(1.0193 0.0414881 -2.35623e-21)
(0.979116 0.055224 4.3617e-20)
(1.12168 0.107097 -2.07664e-20)
(0.909905 0.0336175 2.08171e-19)
(0.985776 -0.0841975 8.98014e-22)
(1.02433 0.0390515 -5.57747e-20)
(0.965852 0.0457645 4.6959e-22)
(1.11003 0.107212 -1.13519e-20)
(0.922222 0.0616022 1.06779e-19)
(0.948269 -0.0237118 -2.30229e-19)
(1.01383 0.0396974 6.85099e-20)
(0.98362 0.0364605 2.55704e-21)
(1.0755 0.110765 2.81661e-20)
(0.954103 0.0869077 -5.43923e-20)
(0.869615 0.0889468 7.48821e-20)
(0.994969 0.0370968 1.70496e-20)
(1.01636 0.0337989 -2.37752e-20)
(1.03705 0.111264 4.03698e-20)
(0.979789 0.115056 3.49725e-20)
(0.85406 0.193415 -7.93324e-20)
(0.882527 0.0330124 0)
(0.76479 0.0302703 1.07856e-20)
(0.558795 0.0191793 4.35721e-21)
(0.411744 -0.0118164 4.87966e-20)
(0.697074 -0.0456185 -1.64075e-19)
(0.985885 0.0616563 -6.1704e-20)
(1.03228 0.0823722 -1.30573e-20)
(0.972363 0.078208 -5.059e-20)
(0.840952 -0.0170893 -1.39837e-19)
(1.01915 -0.184862 -1.73232e-19)
(0.955525 -0.0613738 -3.62326e-20)
(1.0421 -0.0287817 5.49264e-19)
(1.12986 0.0384304 3.23576e-19)
(1.00172 0.0540875 3.25401e-20)
(0.770513 0.0290739 0)
(1.30106 -0.308471 3.65031e-19)
(1.42227 -0.275322 1.54095e-18)
(1.59951 -0.154566 -1.67509e-18)
(1.70345 -0.0207682 -5.15265e-19)
(1.5856 0.0315539 3.91047e-19)
)
;

boundaryField
{
    left
    {
        type            fixedValue;
        value           uniform (1 0 0);
    }
    right
    {
        type            zeroGradient;
    }
    down
    {
        type            noSlip;
    }
    up
    {
        type            noSlip;
    }
    cylinder
    {
        type            noSlip;
    }
    defaultFaces
    {
        type            empty;
    }
}


// ************************************************************************* //
