/*--------------------------------*- C++ -*----------------------------------*\
  =========                 |
  \\      /  F ield         | OpenFOAM: The Open Source CFD Toolbox
   \\    /   O peration     | Website:  https://openfoam.org
    \\  /    A nd           | Version:  13
     \\/     M anipulation  |
\*---------------------------------------------------------------------------*/
FoamFile
{
    format      ascii;
    class       surfaceScalarField;
    location    "0.715";
    object      phi;
}
// * * * * * * * * * * * * * * * * * * * * * * * * * * * * * * * * * * * * * //

dimensions      [0 3 -1 0 0 0 0];

internalField   nonuniform List<scalar> 
3485
(
0.00137166
-0.011258
0.00988635
0.00505113
-0.0319068
0.0282273
0.0107642
-0.0513829
0.0456699
0.0183125
-0.0696769
0.0621286
0.0275453
-0.086835
0.0776022
0.0383484
-0.102901
0.092098
0.0506331
-0.117906
0.105621
0.0643564
-0.131871
0.118147
0.0796157
-0.144861
0.129602
-0.156895
0.139503
0.0970069
0.00150033
-0.0127583
0.0054458
-0.0358523
0.0114761
-0.0574133
0.0193235
-0.0775243
0.0287728
-0.0962843
0.0396466
-0.113775
0.0518008
-0.13006
0.0651274
-0.145197
0.079535
-0.159268
-0.172197
0.0948373
0.00147417
-0.0142325
0.00532697
-0.0397051
0.0111745
-0.0632607
0.0187208
-0.0850706
0.0277252
-0.105289
0.0379883
-0.124038
0.0493442
-0.141416
0.0616533
-0.157506
0.0747836
-0.172399
-0.186037
0.0886234
0.00133886
-0.0155714
0.00485902
-0.0432252
0.0102108
-0.0686126
0.017117
-0.0919768
0.0253538
-0.113525
0.0347401
-0.133424
0.04513
-0.151806
0.0564035
-0.16878
0.0684537
-0.184449
-0.19879
0.0812074
0.00116693
-0.0167383
0.00425598
-0.0463143
0.00897313
-0.0733297
0.0150817
-0.0980853
0.0223916
-0.120835
0.0307523
-0.141785
0.040046
-0.1611
0.05018
-0.178914
0.0610767
-0.195346
-0.210402
0.0726883
0.000980022
-0.0177183
0.00358795
-0.0489222
0.0075866
-0.0773284
0.0127839
-0.103283
0.019026
-0.127078
0.0261925
-0.148951
0.0341913
-0.169099
0.0429532
-0.187676
0.0524232
-0.204816
-0.220549
0.0625701
0.000780725
-0.0184991
0.002865
-0.0510065
0.00606898
-0.0805323
0.0102429
-0.107457
0.0152665
-0.132101
0.0210467
-0.154732
0.0275142
-0.175566
0.0346204
-0.194782
0.0423311
-0.212526
-0.228851
0.0506327
0.000569703
-0.0190688
0.00209346
-0.0525302
0.00443787
-0.0828767
0.00749268
-0.110511
0.0111687
-0.135777
0.0153968
-0.15896
0.0201275
-0.180297
0.0253295
-0.199984
0.0309865
-0.218183
-0.234967
0.037103
0.000352507
-0.0194213
0.00129576
-0.0534735
0.00274502
-0.084326
0.00462834
-0.112395
0.00688648
-0.138035
0.0094731
-0.161546
0.0123553
-0.183179
0.0155143
-0.203143
0.0189448
-0.221614
-0.238684
0.0226616
0.000137795
-0.0195591
0.000502464
-0.0538382
0.00105697
-0.0848805
0.00176955
-0.113107
0.00261373
-0.13888
0.00356842
-0.162501
0.00461812
-0.184229
0.00575334
-0.204278
0.00697061
-0.222831
0.00827502
-0.239988
0.000489243
-0.00186955
0.00138031
0.0020911
-0.00625526
0.0046534
0.00543323
-0.0114201
0.00807798
0.010122
-0.0161926
0.0115038
0.0155478
-0.020185
0.0147592
0.021447
-0.0235812
0.0176819
0.027915
-0.0267621
0.0202942
0.0350998
-0.0299563
0.0227715
0.0429864
-0.0331161
0.0252294
-0.0360895
0.0514413
0.0276346
0.000427096
-0.00229665
0.00211157
-0.00793974
0.0054398
-0.0147484
0.00981858
-0.0205714
0.0148925
-0.025259
0.0207705
-0.0294592
0.0276252
-0.0336168
0.035405
-0.0377361
0.0438987
-0.0416098
-0.0451323
0.0529415
0.000682741
-0.00297939
0.00271636
-0.00997336
0.00578099
-0.017813
0.00976505
-0.0245554
0.0148206
-0.0303146
0.0211199
-0.0357585
0.028594
-0.0410909
0.0369635
-0.0461056
0.0460097
-0.050656
-0.054764
0.0556414
0.000868351
-0.00384774
0.0030609
-0.0121659
0.00607983
-0.0208319
0.0102027
-0.0286783
0.0157022
-0.035814
0.0225613
-0.0426176
0.0305382
-0.0490678
0.0393961
-0.0549635
0.0490397
-0.0602996
-0.0651114
0.0593872
0.000923056
-0.0047708
0.00320064
-0.0144435
0.00651961
-0.0241509
0.0111183
-0.0332771
0.0171373
-0.041833
0.0244514
-0.0499317
0.0328688
-0.0574852
0.042292
-0.0643867
0.052658
-0.0706656
-0.0762876
0.0638342
0.000943907
-0.0057147
0.00337282
-0.0168724
0.00709174
-0.0278698
0.0121751
-0.0383605
0.018634
-0.0482919
0.0263572
-0.0576549
0.0352476
-0.0663755
0.0452579
-0.074397
0.0563097
-0.0817173
-0.088223
0.068245
0.000979992
-0.0066947
0.00358413
-0.0194765
0.00764147
-0.0319271
0.0131073
-0.0438263
0.0199261
-0.0551106
0.0280114
-0.0657402
0.0373012
-0.0756654
0.0477495
-0.0848453
0.0592831
-0.093251
-0.100697
0.0717573
0.00101804
-0.00771273
0.00376782
-0.0222263
0.00807117
-0.0362305
0.0138198
-0.0495749
0.0209194
-0.0622102
0.0292809
-0.0741018
0.0388348
-0.0852192
0.0495243
-0.0955348
0.061291
-0.105018
-0.113441
0.0740346
0.00105465
-0.00876738
0.00393676
-0.0251084
0.00846099
-0.0407547
0.014482
-0.0555959
0.0218736
-0.0696018
0.0305254
-0.0827536
0.0403422
-0.095036
0.0512352
-0.106428
0.0631233
-0.116906
-0.126319
0.0760019
0.00111898
0.00423786
0.00915305
0.0156857
0.0236861
0.0330305
0.0436159
0.0553353
0.0680311
0.0812152
0.114348
-0.414472
0.351565
0.168153
-0.471696
0.41789
0.210283
-0.421751
0.379622
0.244127
-0.326391
0.292547
0.270876
-0.213991
0.187242
0.291355
-0.109391
0.0889124
0.304468
-0.0297157
0.0166035
0.309121
0.0128219
-0.0174747
0.309311
0.0237718
-0.0239619
0.0186809
-0.0172013
0.115933
-0.477463
0.169721
-0.525485
0.21183
-0.46386
0.245423
-0.359984
0.272318
-0.240886
0.293559
-0.130632
0.309315
-0.0454712
0.31775
0.00438734
0.320889
0.0206319
0.018711
0.117743
-0.539564
0.170552
-0.578294
0.21226
-0.505568
0.24525
-0.392974
0.272015
-0.267651
0.293541
-0.152158
0.310686
-0.0626163
0.322271
-0.00719754
0.329368
0.0135346
0.0160272
0.120122
-0.6003
0.170921
-0.629092
0.211751
-0.546398
0.243831
-0.425054
0.270206
-0.294027
0.291807
-0.173759
0.309567
-0.0803761
0.322519
-0.0201503
0.333299
0.00275502
0.00910565
0.123018
-0.659484
0.171032
-0.677106
0.210433
-0.585799
0.241355
-0.455975
0.267075
-0.319747
0.288656
-0.195339
0.306752
-0.0984724
0.320439
-0.0338373
0.332864
-0.00967028
-0.000219821
0.125874
-0.717113
0.170916
-0.722149
0.208392
-0.623275
0.237959
-0.485542
0.262763
-0.344551
0.284233
-0.216809
0.302644
-0.116883
0.317085
-0.0482786
0.33054
-0.0231252
-0.0106517
0.127811
-0.773167
0.170387
-0.764725
0.205675
-0.658562
0.233763
-0.513631
0.257411
-0.368199
0.278604
-0.238002
0.297367
-0.135646
0.312939
-0.0638506
0.326112
-0.0362981
-0.0199033
0.127891
-0.827023
0.168963
-0.805797
0.202145
-0.691743
0.228738
-0.540224
0.251078
-0.390539
0.271768
-0.258693
0.290949
-0.154827
0.307594
-0.0804958
0.318537
-0.0472407
-0.0261629
0.125811
-0.876832
0.166237
-0.846224
0.197751
-0.723257
0.22297
-0.565444
0.243901
-0.41147
0.263669
-0.27846
0.283294
-0.174452
0.298464
-0.0956663
0.306182
-0.054958
-0.0320152
0.122127
-0.917743
0.161408
-0.885505
0.19162
-0.753469
0.215748
-0.589572
0.235372
-0.431094
0.254273
-0.297362
0.271997
-0.192176
0.284447
-0.108116
0.291338
-0.0618488
-0.0383882
0.583947
-0.920217
-0.581473
0.561182
-0.86274
0.523957
-0.716243
0.487902
-0.553518
0.460521
-0.403712
0.444443
-0.281284
0.434497
-0.182229
0.42913
-0.102748
0.425834
-0.0585527
-0.036802
0.682865
-0.871624
-0.731457
0.619688
-0.799563
0.553901
-0.650457
0.496394
-0.496011
0.451031
-0.358349
0.419253
-0.249507
0.40067
-0.163645
0.392473
-0.0945518
0.387706
-0.0537858
-0.0340009
0.753994
-0.77519
-0.850427
0.655112
-0.700681
0.563426
-0.558771
0.487387
-0.419972
0.429566
-0.300528
0.389493
-0.209434
0.365129
-0.139281
0.353465
-0.0828884
0.347269
-0.0475893
-0.0302037
0.778986
-0.641691
-0.912485
0.653734
-0.575429
0.546256
-0.451293
0.460992
-0.334708
0.398062
-0.237597
0.354386
-0.165758
0.326795
-0.111691
0.312514
-0.0686071
0.304973
-0.0400482
-0.0256139
0.752976
-0.492436
-0.902232
0.617555
-0.440008
0.506172
-0.339909
0.420079
-0.248616
0.357523
-0.175041
0.314021
-0.122256
0.285709
-0.0833782
0.269896
-0.0527941
0.261302
-0.0314546
-0.020433
0.685103
-0.345836
-0.831703
0.552699
-0.307604
0.446449
-0.233658
0.365987
-0.168154
0.308281
-0.117335
0.268122
-0.0820967
0.241381
-0.0566373
0.225489
-0.0369022
0.216444
-0.0224101
-0.0149669
0.582619
-0.213861
-0.714593
0.46289
-0.187876
0.369318
-0.140086
0.299942
-0.0987783
0.250901
-0.0682941
0.216765
-0.0479604
0.193597
-0.0334696
0.179113
-0.022418
0.170465
-0.0137625
-0.00963652
0.448759
-0.105524
-0.557097
0.351179
-0.090296
0.277059
-0.0659659
0.223529
-0.0452483
0.186267
-0.0310319
0.160285
-0.0219784
0.142337
-0.0155224
0.130634
-0.0107141
0.123369
-0.00649833
-0.00495987
0.286591
-0.0302206
-0.361894
0.220911
-0.0246154
0.172491
-0.0175462
0.138713
-0.0114702
0.115478
-0.00779697
0.0991275
-0.00562788
0.0876422
-0.00403707
0.0798667
-0.00293859
0.0750338
-0.00166547
-0.00153897
0.101316
-0.131536
0.0767003
0.059154
0.0476839
0.0398869
0.034259
0.030222
0.0272834
0.0256179
0.738821
0.0102224
-0.740768
0.733075
0.0284076
0.723436
0.0467419
0.710163
0.0639059
0.69357
0.0791632
0.674076
0.0921822
0.652272
0.103011
0.628711
0.112184
0.604267
0.119282
0.1198
0.845549
0.0133983
-0.848724
0.837321
0.036635
0.827288
0.0567756
0.816593
0.0746004
0.80525
0.0905063
0.792895
0.104537
0.779282
0.116625
0.764585
0.12688
0.74912
0.134747
0.137463
0.844983
0.0114256
-0.84301
0.848883
0.0327351
0.85302
0.0526383
0.856471
0.0711489
0.858833
0.0881449
0.85992
0.10345
0.859595
0.11695
0.857967
0.128508
0.855299
0.137415
0.142335
0.800213
0.00930463
-0.798092
0.805821
0.0271272
0.814418
0.0440407
0.825637
0.0599306
0.839002
0.0747798
0.853851
0.0886007
0.869421
0.10138
0.885055
0.112874
0.899941
0.122529
0.12979
0.737866
0.00703889
-0.7356
0.744154
0.0208386
0.754123
0.0340716
0.767504
0.0465503
0.784084
0.0582001
0.803661
0.0690227
0.82599
0.0790515
0.850624
0.0882403
0.876545
0.0966072
0.104104
0.653921
0.00485408
-0.651736
0.660203
0.0145562
0.670378
0.0238963
0.684221
0.0327075
0.701525
0.040896
0.722112
0.048436
0.745806
0.0553569
0.77233
0.0617162
0.801218
0.0677192
0.0736196
0.549112
0.00291616
-0.547174
0.554812
0.00885595
0.564138
0.0145706
0.576905
0.01994
0.592915
0.0248867
0.611968
0.0293826
0.633871
0.033454
0.658407
0.0371802
0.68538
0.0407463
0.0444062
0.422793
0.00137576
-0.421252
0.427413
0.00423596
0.435007
0.00697561
0.445422
0.00952584
0.45847
0.0118387
0.473957
0.0138957
0.491697
0.0157138
0.511527
0.0173497
0.533347
0.0189271
0.0206562
0.273828
0.000366669
-0.272819
0.276915
0.00114944
0.281999
0.00189174
0.288955
0.0025694
0.297629
0.00316445
0.307856
0.00366913
0.319482
0.00408803
0.332395
0.00443666
0.346561
0.00476039
0.00532321
0.100484
-0.100117
0.101633
0.103525
0.106094
0.109259
0.112928
0.117016
0.121453
0.126213
0.0779318
0.159502
-0.142489
-0.0949452
0.0630278
0.147459
-0.132555
0.0496185
0.134405
-0.120996
0.0376034
0.120331
-0.108316
0.0270265
0.10517
-0.0945933
0.0179778
0.0888941
-0.0798455
0.0105728
0.0714605
-0.0640555
0.00496329
0.0528094
-0.0471999
0.00134801
0.0328744
-0.0292591
0.011639
-0.010291
0.0779412
0.174432
-0.0928713
0.0638714
0.161529
0.0508399
0.147436
0.0389382
0.132233
0.0282761
0.115832
0.0190003
0.09817
0.0112896
0.0791712
0.00535959
0.0587394
0.00147721
0.0367568
0.0131162
0.07318
0.187927
-0.086675
0.0603704
0.174338
0.0483506
0.159456
0.0372489
0.143335
0.0272032
0.125878
0.0183793
0.106994
0.0109766
0.0865739
0.00523534
0.0644807
0.00144963
0.0405425
0.0145659
0.0667715
0.200352
-0.0791966
0.0550335
0.186076
0.0440496
0.17044
0.0339218
0.153463
0.0247665
0.135033
0.016727
0.115033
0.00998166
0.0933192
0.00475146
0.0697109
0.00130965
0.0439843
0.0158755
0.0593129
0.211656
-0.0706168
0.0487156
0.196673
0.0388676
0.180288
0.0298413
0.162489
0.0217243
0.14315
0.0146296
0.122128
0.00870232
0.0992464
0.00412644
0.0742868
0.00113096
0.0469798
0.0170065
0.0505984
0.221521
-0.0604625
0.0414112
0.205861
0.0329276
0.188772
0.0251973
0.170219
0.0182837
0.150064
0.0122721
0.12814
0.00727495
0.104244
0.00343652
0.0781252
0.000937279
0.049479
0.0179437
0.0404574
0.229564
-0.0485005
0.0330128
0.213305
0.0261765
0.195608
0.0199773
0.176419
0.0144574
0.155584
0.00967744
0.13292
0.00572042
0.108201
0.00269375
0.0811519
0.000731835
0.0514409
0.0186756
0.0290542
0.235441
-0.0349319
0.0236513
0.218708
0.0187147
0.200545
0.0142551
0.180878
0.0102962
0.159543
0.00687751
0.136338
0.00405559
0.111023
0.00190426
0.0833032
0.000515279
0.0528299
0.0191909
0.0169175
0.238926
-0.020402
0.0137419
0.221884
0.0108549
0.203432
0.00825479
0.183478
0.00595146
0.161846
0.00396648
0.138323
0.00233217
0.112657
0.00109065
0.0845447
0.000293239
0.0536273
0.0194841
0.00482781
-0.00589042
0.00388039
0.003034
0.00228338
0.00162814
0.00107199
0.000621606
0.000285822
7.49692e-05
0.0436588
0.0413997
-0.0525555
-0.032503
0.0352819
0.0383508
-0.0299739
0.0276119
0.0349514
-0.0272814
0.0208755
0.0313368
-0.0246003
0.015075
0.0277695
-0.021969
0.00996896
0.0242114
-0.0191054
0.0054396
0.0200754
-0.0155461
0.00197438
0.014464
-0.0109988
0.000386358
0.00739525
-0.00580723
0.00208785
-0.00170149
0.0437637
0.0505728
-0.0529368
0.03511
0.0470045
0.0270669
0.0429945
0.0199171
0.0384866
0.0139773
0.0337094
0.00925467
0.028934
0.00550444
0.0238257
0.00257538
0.017393
0.000621467
0.00934918
0.00270932
0.0449477
0.0601323
-0.0545072
0.0360213
0.0559309
0.0277792
0.0512367
0.020338
0.0459277
0.0140238
0.0400236
0.00910133
0.0338565
0.00551663
0.0274104
0.00289278
0.0200169
0.000809578
0.0114324
0.0035189
0.0473755
0.0703212
-0.0575644
0.0379375
0.0653689
0.0293652
0.0598089
0.0216968
0.0535962
0.0150572
0.0466631
0.00970577
0.0392079
0.00576425
0.0313519
0.00296005
0.0228211
0.000875313
0.0135171
0.00439421
0.050841
0.0812493
-0.061769
0.0407355
0.0754744
0.0316165
0.0689278
0.0235464
0.0616663
0.0165484
0.0536612
0.0107491
0.0450072
0.00628384
0.0358171
0.00306249
0.0260424
0.000880689
0.0156989
0.0052749
0.054537
0.0928478
-0.0661355
0.0438144
0.086197
0.0341307
0.0786115
0.025561
0.070236
0.018127
0.0610952
0.0118849
0.0512493
0.00692993
0.0407721
0.00327925
0.0296931
0.00090876
0.0180694
0.00618366
0.0575892
0.104931
-0.0696722
0.0464284
0.0973578
0.0363242
0.0887157
0.0273367
0.0792235
0.0195018
0.0689301
0.01287
0.0578812
0.0075208
0.0461213
0.00352564
0.0336883
0.000959752
0.0206353
0.00714341
0.0596445
0.117259
-0.0719726
0.0482663
0.108736
0.0379231
0.0990589
0.0286603
0.0884864
0.0205294
0.0770609
0.0135997
0.0648109
0.00796208
0.0517589
0.00372204
0.0379283
0.00100538
0.023352
0.0081488
0.0614572
0.129713
-0.0739118
0.0499589
0.120234
0.0394091
0.109609
0.0298795
0.098016
0.0214563
0.0854841
0.0142366
0.0720306
0.0083348
0.0576607
0.00388469
0.0423784
0.00104194
0.0261947
0.00919073
0.0663125
-0.0790878
0.0539922
0.0426053
0.0323049
0.0231958
0.0153809
0.00898612
0.00416467
0.00110027
0.213901
0.0616714
-0.0775825
0.23658
0.0899749
-0.112654
0.261077
0.123513
-0.148011
0.276708
0.113098
-0.128729
0.275931
0.109883
-0.109106
0.253
0.178898
-0.155967
0.218825
0.293683
-0.259508
0.174803
0.412468
-0.368446
0.118398
0.494552
-0.438147
0.461588
-0.395746
0.21326
0.0464009
0.234813
0.0684222
0.258392
0.0999348
0.274577
0.0969135
0.27541
0.10905
0.253372
0.200936
0.219052
0.328004
0.174579
0.456941
0.118082
0.55105
0.526733
0.212992
0.0313983
0.233684
0.0477301
0.256391
0.0772284
0.272605
0.0807
0.273751
0.107903
0.252194
0.222493
0.217844
0.362354
0.173301
0.501483
0.117887
0.606464
0.590113
0.213021
0.0163667
0.2332
0.0275513
0.255147
0.0552816
0.27098
0.0648671
0.271251
0.107632
0.249593
0.244152
0.215352
0.396594
0.171351
0.545484
0.118399
0.659416
0.650948
0.213252
0.00110468
0.233227
0.00757624
0.254466
0.0340426
0.269303
0.0500303
0.267801
0.109133
0.245626
0.266327
0.211767
0.430454
0.169143
0.588108
0.119751
0.708808
0.70893
0.213585
-0.0144904
0.233562
-0.0124012
0.254044
0.0135606
0.267215
0.0368596
0.263286
0.113062
0.240396
0.289218
0.207338
0.463512
0.166948
0.628497
0.121479
0.754278
0.764273
0.213871
-0.0303716
0.234008
-0.032538
0.253607
-0.00603842
0.264492
0.0259746
0.257675
0.119878
0.234102
0.312791
0.202341
0.495272
0.164756
0.666083
0.122694
0.796339
0.817295
0.213957
-0.0463392
0.234421
-0.053002
0.252924
-0.0245405
0.2609
0.0179978
0.250883
0.129896
0.226863
0.336811
0.196828
0.525307
0.162137
0.700774
0.122373
0.836103
0.867696
0.213805
-0.062154
0.23476
-0.0739577
0.251855
-0.0416349
0.256466
0.0133865
0.243161
0.143202
0.21904
0.360931
0.190914
0.553434
0.158669
0.733018
0.120122
0.87465
0.913906
0.213678
-0.0778418
0.234972
-0.0952517
0.250377
-0.0570406
0.250836
0.0129283
0.233974
0.160064
0.209998
0.384906
0.183674
0.579758
0.15348
0.763212
0.116444
0.911686
0.951263
0.331884
-0.107716
0.370514
-0.133881
0.406901
-0.093428
0.424501
-0.00467159
0.439091
0.145474
0.467461
0.356536
0.506603
0.540616
0.549581
0.720234
0.581366
0.879901
0.946131
0.586498
0.333528
-0.139234
0.373017
-0.17337
0.408195
-0.128606
0.422548
-0.0190245
0.435926
0.132096
0.476058
0.316404
0.534326
0.482348
0.604478
0.650081
0.675398
0.80898
0.888549
0.732981
0.336234
-0.173457
0.375161
-0.212297
0.408489
-0.161935
0.418016
-0.0285516
0.427933
0.12218
0.474184
0.270153
0.546578
0.409954
0.638853
0.557807
0.742299
0.705535
0.784433
0.846415
0.340395
-0.211842
0.373208
-0.245111
0.384293
-0.173019
0.381185
-0.0254444
0.399299
0.104066
0.453062
0.21639
0.534226
0.32879
0.64057
0.451463
0.767108
0.578997
0.647038
0.904503
0.348454
-0.258286
0.35644
-0.253096
0.337538
-0.154118
0.33459
-0.022496
0.358774
0.0798813
0.414127
0.161038
0.497313
0.245604
0.607917
0.340859
0.743759
0.443155
0.495849
0.894947
0.340794
-0.297069
0.321113
-0.233416
0.287912
-0.120916
0.284157
-0.0187416
0.309055
0.054984
0.361158
0.108935
0.43979
0.166972
0.545779
0.23487
0.678777
0.310156
0.347976
0.82665
0.314272
-0.309331
0.271536
-0.190679
0.233639
-0.0830199
0.228745
-0.0138468
0.251141
0.0325876
0.296212
0.0638641
0.364637
0.0985464
0.45834
0.141167
0.578804
0.189693
0.2151
0.71168
0.273772
-0.281093
0.212869
-0.129776
0.17436
-0.0445112
0.168855
-0.00834195
0.186323
0.0151195
0.221001
0.0291864
0.27419
0.0453569
0.348691
0.0666669
0.447053
0.091331
0.106137
0.556015
0.214645
-0.193727
0.14047
-0.0556016
0.109382
-0.0134228
0.104121
-0.00308155
0.115398
0.00384321
0.137297
0.00728713
0.171105
0.0115488
0.219974
0.0177983
0.28634
0.0249647
0.0304071
0.36207
0.108283
0.0526814
0.0392586
0.036177
0.0400203
0.0473074
0.0588561
0.0766545
0.101619
0.132026
0.608654
-0.117101
0.632319
-0.116536
0.655137
-0.109493
0.676289
-0.100349
0.695233
-0.0895608
0.71137
-0.0765997
0.724263
-0.0613938
0.73359
-0.0442587
0.739075
-0.0258871
-0.00758338
0.750316
-0.134436
0.76522
-0.13144
0.779423
-0.123697
0.792647
-0.113573
0.804711
-0.101625
0.815847
-0.0877356
0.826402
-0.0719494
0.836392
-0.0542482
0.844841
-0.0343361
-0.0114669
0.851037
-0.139058
0.85348
-0.133884
0.854995
-0.125212
0.855373
-0.11395
0.854525
-0.100776
0.852624
-0.085835
0.849898
-0.0692228
0.84674
-0.051091
0.843947
-0.031543
-0.0105297
0.892558
-0.127114
0.878541
-0.119866
0.86386
-0.11053
0.849294
-0.099385
0.835449
-0.0869305
0.823021
-0.0734073
0.812636
-0.0588384
0.804756
-0.043211
0.799745
-0.0265312
-0.0088769
0.870317
-0.102484
0.845554
-0.0951026
0.821948
-0.0869243
0.800491
-0.0779285
0.781655
-0.0680944
0.765715
-0.0574668
0.75289
-0.046014
0.743403
-0.0337239
0.737523
-0.0206515
-0.00695342
0.797001
-0.0728346
0.768935
-0.0670373
0.743123
-0.0611118
0.720037
-0.0548429
0.699971
-0.0480285
0.683112
-0.0406072
0.669641
-0.0325434
0.659769
-0.0238513
0.653726
-0.0146083
-0.00496363
0.682985
-0.0441396
0.6565
-0.0405524
0.632401
-0.0370127
0.610878
-0.0333201
0.592145
-0.0292952
0.576395
-0.0248578
0.563828
-0.0199761
0.554646
-0.0146694
0.549043
-0.00900542
-0.00309464
0.532509
-0.0206337
0.510908
-0.0189507
0.491274
-0.0173794
0.473703
-0.0157487
0.45835
-0.0139421
0.445397
-0.0119045
0.435037
-0.00961606
0.427458
-0.00709073
0.422824
-0.00437144
-0.00152283
0.346788
-0.0053516
0.332646
-0.00480899
0.319752
-0.00448478
0.308137
-0.0041335
0.297908
-0.00371357
0.289214
-0.00321079
0.282218
-0.00261996
0.277075
-0.00194735
0.273913
-0.00120943
-0.000429204
0.126675
0.121866
0.117381
0.113247
0.109534
0.106323
0.103703
0.101756
0.100546
0.000185056
0.0116092
-0.0117942
0.000623734
0.0304464
-0.030885
0.00123716
0.0462415
-0.046855
0.00197732
0.0594673
-0.0602075
0.00277661
0.0700213
-0.0708206
0.00376953
0.0798889
-0.0808818
0.00396347
0.0772671
-0.077461
0.00408484
0.0700422
-0.0701636
0.00394496
0.0610795
-0.0609396
0.0499559
0.00350721
-0.0495181
0.000533395
0.0110758
0.00180386
0.0291759
0.00358507
0.0444603
0.00574123
0.0573111
0.00807281
0.0676897
0.0110396
0.0769221
0.011676
0.0766307
0.0120809
0.0696373
0.0117736
0.0613867
0.0510783
0.0106513
0.000835496
0.0102403
0.00283182
0.0271796
0.0056391
0.041653
0.00904154
0.0539087
0.0127394
0.0639919
0.0172474
0.0724141
0.0187902
0.075088
0.0195718
0.0688557
0.0193856
0.0615729
0.0524347
0.0180292
0.00105598
0.00918432
0.003597
0.0246385
0.00719362
0.0380564
0.0115558
0.0495465
0.0163566
0.0591911
0.0217478
0.0670229
0.0250728
0.071763
0.0263551
0.0675734
0.0266034
0.0613246
0.0535666
0.0254716
0.00115145
0.00803287
0.00397932
0.0218107
0.00804174
0.033994
0.012997
0.0445913
0.0185517
0.0536364
0.0245577
0.061017
0.0299523
0.0663684
0.0320902
0.0654354
0.0330116
0.0604033
0.0540913
0.0324868
0.00111149
0.00692138
0.00396601
0.0189562
0.00818563
0.0297744
0.0133903
0.0393866
0.0193181
0.0477085
0.0257722
0.054563
0.0324162
0.0597244
0.0363128
0.0615388
0.0381246
0.0585915
0.0537073
0.0385087
0.000926237
0.00599514
0.00357298
0.0163094
0.00771071
0.0256367
0.0128818
0.0342155
0.0187868
0.0418035
0.0253384
0.0480114
0.0323213
0.0527415
0.0382755
0.0555846
0.0415877
0.0552793
0.0521832
0.0431118
0.00056783
0.00542731
0.00278662
0.0140906
0.00665752
0.0217658
0.0116214
0.0292516
0.0172044
0.0362205
0.0234475
0.0417683
0.0302862
0.0459028
0.0371844
0.0486865
0.0425616
0.0499021
0.0489244
0.0458204
0.000103773
0.00532354
0.00176852
0.0124259
0.00517566
0.0183586
0.00981485
0.0246124
0.0149569
0.0310784
0.0206212
0.036104
0.0269036
0.0396204
0.0335872
0.0420028
0.0400852
0.0434041
0.0437959
0.0452136
-0.000175729
0.00549927
0.00108663
0.0111635
0.00385567
0.0155896
0.00788623
0.0205819
0.0125006
0.0264641
0.017571
0.0310336
0.0231769
0.0340145
0.0292491
0.0359306
0.0356356
0.0370176
0.0373695
0.0420621
-2.147e-05
0.00552074
0.00113945
0.0100026
0.0032769
0.0134522
0.00641218
0.0174466
0.0102935
0.0225827
0.0148349
0.0264922
0.0199547
0.0288948
0.0254869
0.0303983
0.0312245
0.03128
0.0316956
0.0368983
0.000376898
0.00514384
0.00153063
0.00884886
0.00317904
0.0118038
0.00548936
0.0151363
0.00870817
0.0193639
0.0128933
0.022307
0.0177448
0.0240433
0.0230117
0.0251315
0.0285028
0.0257889
0.0260594
0.034139
0.000623376
0.00452047
0.00170538
0.00776686
0.00302517
0.010484
0.00484423
0.0133172
0.00783477
0.0163734
0.0119238
0.018218
0.0166751
0.019292
0.021849
0.0199576
0.027313
0.0203248
0.0204064
0.032966
0.00067637
0.00384409
0.0016417
0.00680152
0.00282107
0.00930459
0.00470357
0.0114347
0.00797853
0.0130984
0.01221
0.0139866
0.0170278
0.0144741
0.0222703
0.0147151
0.0278409
0.0147542
0.0145934
0.0336539
0.000664136
0.00317996
0.0015549
0.00591074
0.00299812
0.00786137
0.00558831
0.00884449
0.00938361
0.00930311
0.0139098
0.00946039
0.0189573
0.0094266
0.0244268
0.00924563
0.0302503
0.00893067
0.00848754
0.0363562
0.000594451
0.0025855
0.00172039
0.0047848
0.00407244
0.00550931
0.00753652
0.0053804
0.0117964
0.00504322
0.0166514
0.00460539
0.0220001
0.00407794
0.0277832
0.00346251
0.0339493
0.00276454
0.00199713
0.0404397
0.00052689
0.0020586
0.00249602
0.00281566
0.00577063
0.00223469
0.00977514
0.00137588
0.0143723
0.000446011
0.0195166
-0.000538895
0.0251779
-0.00158337
0.0313134
-0.00267298
0.0378621
-0.00378418
-0.00490479
0.0447641
0.000881535
0.00117706
0.00363198
6.51919e-05
0.0071983
-0.00133164
0.0113884
-0.00281421
0.0161892
-0.00435477
0.0216113
-0.005961
0.0276131
-0.00758515
0.0341035
-0.00916342
0.0409994
-0.0106801
-0.0121653
0.0482599
0.00150695
-0.000329893
0.00413606
-0.00256393
0.0075595
-0.00475508
0.0117776
-0.00703235
0.0167976
-0.00937476
0.0225403
-0.0117037
0.0288381
-0.013883
0.0355699
-0.0158952
0.0427103
-0.0178204
-0.0197147
0.0502596
0.0010504
0.00313987
0.00646277
0.0109342
0.0163187
0.022297
0.0287081
0.0355844
0.0429934
0.0509133
0.0514094
0.0837409
-0.0982519
0.0773061
-0.00748504
-0.0184117
0.0999384
-0.0511625
0.0285302
0.113613
-0.0470785
0.0334035
0.121562
-0.0267744
0.0188258
0.125161
-0.00789845
0.00429942
0.126156
0.00353846
-0.0045337
0.126266
0.00737816
-0.00748797
0.126298
0.00732971
-0.00736129
0.00473039
-0.00551526
0.0586202
0.0592596
0.0916847
-0.0405497
0.11887
-0.0783478
0.13488
-0.0630889
0.143591
-0.0354853
0.147222
-0.0115288
0.147931
0.00282904
0.147683
0.00762646
0.147398
0.00761459
0.00426857
0.0666475
0.025578
0.105081
-0.078983
0.136103
-0.10937
0.155738
-0.0827233
0.165719
-0.0454669
0.169418
-0.0152269
0.169732
0.00251446
0.168961
0.00839784
0.168187
0.0083884
0.00427881
0.0755448
-0.0163129
0.117935
-0.121373
0.151854
-0.143289
0.17525
-0.10612
0.187281
-0.0574977
0.191312
-0.0192575
0.191266
0.00256045
0.189915
0.00974858
0.188565
0.00973809
0.00484983
0.0846165
-0.0645733
0.129779
-0.166536
0.165867
-0.179377
0.192576
-0.132829
0.207512
-0.0724342
0.212476
-0.0242207
0.212265
0.00277154
0.210374
0.0116393
0.208435
0.0116774
0.00601325
0.0930887
-0.117222
0.140277
-0.213724
0.178051
-0.217151
0.207325
-0.162103
0.225556
-0.0906646
0.232371
-0.0310358
0.23241
0.00273244
0.230141
0.0139079
0.227685
0.0141336
0.00773797
0.100297
-0.172755
0.149155
-0.262582
0.188308
-0.256305
0.219419
-0.193213
0.240713
-0.111959
0.250355
-0.0406776
0.251337
0.00175015
0.248999
0.0162458
0.246192
0.0169405
0.0099275
0.105891
-0.230386
0.156284
-0.312975
0.196581
-0.296602
0.228962
-0.225594
0.25266
-0.135656
0.265696
-0.053714
0.268601
-0.00115474
0.266693
0.0181543
0.263812
0.0198209
0.0124148
0.109853
-0.289979
0.161697
-0.36482
0.202896
-0.337801
0.236129
-0.258826
0.261445
-0.160973
0.27776
-0.0700287
0.283652
-0.00704664
0.282909
0.0188967
0.28037
0.0223602
0.0149528
0.112499
0.165569
0.20739
0.241111
0.26738
0.286263
0.29582
0.297242
0.295641
0.0132
0.00607816
-0.0192782
0.0109867
0.0022133
0.0115035
-0.000516787
0.0129249
-0.00142148
0.0136359
-0.00071096
0.0137489
-0.000112958
0.013522
0.000226832
0.0131697
0.000352333
0.0129098
0.000259955
0.000337394
0.0372472
0.0232166
-0.0543857
0.0314868
0.00797371
0.0339916
-0.0030216
0.0380436
-0.0054735
0.0402063
-0.00287368
0.0405921
-0.000498773
0.0399456
0.000873435
0.0389647
0.0013332
0.0380639
0.00116081
0.00112787
0.0579625
0.0480997
-0.0828456
0.0508713
0.0150649
0.0558725
-0.00802282
0.0624439
-0.0120449
0.0660966
-0.00652632
0.0668355
-0.00123765
0.065835
0.00187392
0.0642746
0.00289363
0.0627407
0.00269468
0.00229166
0.0739006
0.0754084
-0.101209
0.0680645
0.020901
0.0764202
-0.0163786
0.0857447
-0.0213694
0.0910443
-0.0118259
0.092278
-0.00247141
0.0910257
0.00312627
0.0889474
0.00497193
0.086852
0.00479013
0.00377596
0.0813924
-0.104236
0.0838816
0.0960331
0.108067
0.115067
0.116895
0.115488
0.112972
0.110401
0.00273367
-0.000172926
-0.00256075
0.00326455
-0.000530873
0.00417678
-0.000912234
0.00548784
-0.00131106
0.00718426
-0.00169641
0.00922882
-0.00204457
0.0115854
-0.00235659
0.0141737
-0.00258832
0.0168588
-0.00268511
-0.00241934
0.00778743
-0.0006457
-0.00731466
0.00923433
-0.00197777
0.0117137
-0.0033916
0.0152701
-0.00486745
0.0198844
-0.00631068
0.0254823
-0.00764256
0.0319647
-0.00883891
0.0391561
-0.00977972
0.0467674
-0.0102964
-0.0100376
0.0124781
-0.00138376
-0.01174
0.0147278
-0.00422747
0.0185606
-0.00722448
0.0240246
-0.0103314
0.0310792
-0.0133653
0.0395861
-0.0161494
0.049328
-0.0185809
0.0600513
-0.020503
0.0714154
-0.0216605
-0.0214678
0.0168074
-0.0023477
-0.0158435
0.0197317
-0.0071517
0.0246749
-0.0121677
0.0316514
-0.0173079
0.04055
-0.0222639
0.0511062
-0.0267056
0.0629374
-0.0304121
0.0756942
-0.0332599
0.0888606
-0.0348269
-0.0338167
0.020793
-0.0196335
0.0242925
0.030154
0.0383177
0.0485406
0.0603436
0.0730434
0.0856039
0.0959906
0.0314476
-0.031305
0.0371103
-0.0372528
0.0255868
-0.030902
0.0367627
0.019928
-0.0300693
0.0357281
0.0146813
-0.0286733
0.0339201
0.0100611
-0.0264649
0.0310851
0.00620542
-0.0227779
0.0266335
0.00311432
-0.0176474
0.0207385
0.0010178
-0.0136219
0.0157184
-8.65079e-05
-0.0101612
0.0112655
-0.00564175
0.00555524
0.0294655
-0.0254412
-0.0353293
0.0237492
-0.0251857
0.0182589
-0.024579
0.0131724
-0.0235868
0.00874277
-0.0220352
0.00535188
-0.019387
0.00302074
-0.0153162
0.00139721
-0.0119984
0.000298582
-0.00906257
-0.00534316
0.0294378
-0.0194526
-0.0354265
0.0236334
-0.0193812
0.0181156
-0.0190612
0.0130017
-0.0184729
0.00849455
-0.017528
0.00504511
-0.0159375
0.0030057
-0.0132768
0.00164563
-0.0106383
0.000583023
-0.00799996
-0.00476014
0.0313567
-0.0131893
-0.0376199
0.025328
-0.0133525
0.0196173
-0.0133505
0.0143111
-0.0131666
0.00954803
-0.012765
0.00565287
-0.0120423
0.00319816
-0.0108221
0.00176185
-0.00920197
0.000727378
-0.00696547
-0.00403275
0.0349539
-0.00653442
-0.0416088
0.0285809
-0.00697947
0.0225618
-0.00733141
0.0169628
-0.00756767
0.0118746
-0.00767678
0.00748176
-0.00764946
0.00413581
-0.00747613
0.00199324
-0.00705939
0.00079854
-0.00577077
-0.00323421
0.039268
0.000572359
-0.0463747
0.0324863
-0.000197817
0.0261023
-0.000947357
0.0201904
-0.00165575
0.0148112
-0.0022976
0.0100279
-0.0028661
0.00592405
-0.00337232
0.00267399
-0.00380932
0.000720604
-0.00381737
-0.0025136
0.0430991
0.0080881
-0.0506148
0.0359235
0.00697773
0.0291418
0.00583442
0.0228537
0.00463234
0.0171614
0.00339468
0.0121045
0.0021908
0.00766431
0.00106788
0.00384717
7.83433e-06
0.000979071
-0.000949265
-0.00153452
0.0453721
0.0158905
-0.0531745
0.0379459
0.0144039
0.0308934
0.012887
0.0242507
0.011275
0.018161
0.00948438
0.0128103
0.0075415
0.00827732
0.00560086
0.00453766
0.00374751
0.00163043
0.00195797
9.59185e-05
0.0455233
0.0239908
-0.0536236
0.0379075
0.0220197
0.0307799
0.0200147
0.0240531
0.0180018
0.0176951
0.0158423
0.0119003
0.0133363
0.00704547
0.0104557
0.0034165
0.00737649
0.0011471
0.00422738
0.00124302
0.0444661
-0.0529783
0.0365118
0.0292452
0.0226467
0.01652
0.0107509
0.00566058
0.00203831
0.000458473