/*--------------------------------*- C++ -*----------------------------------*\
  =========                 |
  \\      /  F ield         | OpenFOAM: The Open Source CFD Toolbox
   \\    /   O peration     | Website:  https://openfoam.org
    \\  /    A nd           | Version:  13
     \\/     M anipulation  |
\*---------------------------------------------------------------------------*/
FoamFile
{
    format      ascii;
    class       volVectorField;
    location    "0.715";
    object      U;
}
// * * * * * * * * * * * * * * * * * * * * * * * * * * * * * * * * * * * * * //

dimensions      [0 1 -1 0 0 0 0];

internalField   nonuniform List<vector> 
1800
(
(0.0978008 -0.0883286 -4.48941e-20)
(0.286896 -0.241951 -3.4119e-20)
(0.473973 -0.379045 -4.85022e-19)
(0.657692 -0.500158 1.91469e-19)
(0.836611 -0.607172 7.43825e-20)
(1.00991 -0.701378 -3.90569e-20)
(1.17715 -0.78347 5.54982e-20)
(1.33794 -0.853681 1.97389e-19)
(1.49159 -0.912964 5.92253e-19)
(1.63353 -0.966901 8.10054e-19)
(0.119061 -0.0915027 -7.91138e-20)
(0.344291 -0.247709 -7.70613e-19)
(0.563282 -0.38475 3.78147e-21)
(0.775364 -0.504236 1.25758e-19)
(0.979505 -0.608922 -1.26262e-19)
(1.17521 -0.700696 7.65814e-20)
(1.36231 -0.780789 -2.80806e-19)
(1.54078 -0.850099 -5.02709e-20)
(1.7101 -0.910705 -6.93499e-19)
(1.86785 -0.967045 6.29774e-19)
(0.14165 -0.092323 4.88227e-20)
(0.40368 -0.247731 2.09288e-19)
(0.653755 -0.382117 5.4332e-19)
(0.892178 -0.497905 -1.90262e-19)
(1.11866 -0.598385 -1.42994e-19)
(1.33321 -0.685813 7.56103e-20)
(1.53605 -0.761706 9.8254e-20)
(1.72743 -0.827298 1.94064e-19)
(1.90721 -0.884801 2.73622e-21)
(2.07421 -0.937869 1.50983e-19)
(0.163906 -0.0897208 -4.5719e-20)
(0.461698 -0.23947 -2.04391e-19)
(0.741428 -0.367618 -1.81259e-19)
(1.00451 -0.476977 -1.42297e-19)
(1.25162 -0.571022 1.81309e-19)
(1.48351 -0.652127 -5.70903e-20)
(1.70093 -0.721906 -4.3105e-21)
(1.90453 -0.781622 2.92343e-21)
(2.09455 -0.833365 -1.60463e-19)
(2.27025 -0.880356 -1.05938e-19)
(0.184658 -0.0833564 -1.14039e-19)
(0.515893 -0.221807 8.76369e-20)
(0.823292 -0.339431 1.7984e-19)
(1.10931 -0.439063 2.43305e-19)
(1.37561 -0.524071 -2.8502e-19)
(1.62371 -0.596777 -3.58075e-21)
(1.85494 -0.658767 4.24975e-19)
(2.07042 -0.711262 -1.85055e-19)
(2.27083 -0.756164 -1.23988e-19)
(2.45578 -0.796397 -5.35533e-20)
(0.20319 -0.0735 1.73591e-19)
(0.56447 -0.1952 1.02984e-18)
(0.896791 -0.298074 1.43255e-19)
(1.20351 -0.384735 -5.03139e-19)
(1.48719 -0.458227 -1.75502e-19)
(1.75003 -0.520669 6.37687e-19)
(1.9939 -0.573525 -1.45377e-19)
(2.22036 -0.6179 -4.31584e-19)
(2.43047 -0.655445 -3.16657e-19)
(2.6242 -0.688743 2.6159e-19)
(0.218898 -0.0605913 1.1634e-19)
(0.605745 -0.160701 -7.47591e-19)
(0.959313 -0.24503 -1.0856e-18)
(1.28371 -0.315798 3.83785e-19)
(1.58223 -0.375564 4.49942e-19)
(1.85767 -0.426128 -9.02055e-22)
(2.11239 -0.46874 -6.39679e-19)
(2.34829 -0.504325 2.19314e-19)
(2.56683 -0.534213 -3.64485e-19)
(2.76827 -0.56057 -3.11217e-19)
(0.231235 -0.0451722 -3.42486e-19)
(0.638199 -0.119684 -6.92603e-19)
(1.00849 -0.182294 1.21221e-18)
(1.34677 -0.2347 5.98701e-19)
(1.65693 -0.278852 -2.69757e-19)
(1.94224 -0.316136 -2.11496e-19)
(2.20543 -0.347515 0)
(2.44874 -0.373689 1.16805e-19)
(2.67398 -0.395622 -2.95841e-19)
(2.88171 -0.41497 -7.74257e-20)
(0.239766 -0.0278754 -2.04466e-19)
(0.660652 -0.0737557 5.62383e-19)
(1.04249 -0.112198 1.71008e-19)
(1.39031 -0.144289 -5.12493e-19)
(1.7084 -0.171277 -7.84193e-19)
(2.00037 -0.194053 3.66195e-20)
(2.26924 -0.213245 1.67124e-19)
(2.51752 -0.229293 -5.46841e-19)
(2.74731 -0.242784 -2.89764e-19)
(2.95953 -0.254778 -5.63594e-19)
(0.24426 -0.00940241 4.51408e-19)
(0.672452 -0.024704 3.44149e-19)
(1.0603 -0.0373616 -9.38596e-20)
(1.41303 -0.0477884 -1.29787e-20)
(1.73514 -0.0564622 -3.87506e-19)
(2.03041 -0.0637231 -8.5733e-20)
(2.30205 -0.06981 -2.90577e-19)
(2.55276 -0.0748903 6.46558e-19)
(2.7848 -0.0791711 1.71003e-19)
(2.99945 -0.083012 2.22261e-21)
(-0.0023436 -0.0217843 -3.43866e-20)
(0.00860046 -0.0693514 -7.02153e-20)
(0.0248871 -0.12052 -7.3239e-21)
(0.0493194 -0.171234 -3.40344e-20)
(0.0776732 -0.216626 -1.27331e-20)
(0.106515 -0.254769 -3.90054e-19)
(0.135542 -0.288701 -1.95108e-20)
(0.166332 -0.322016 1.19954e-19)
(0.199161 -0.355535 1.09528e-20)
(0.233053 -0.387907 -3.57754e-20)
(0.000848605 -0.0246841 -9.77556e-20)
(0.0149419 -0.08507 -2.12721e-19)
(0.0393454 -0.160345 -5.39723e-20)
(0.0692721 -0.225273 -1.10419e-19)
(0.0994902 -0.275564 -9.64631e-20)
(0.130457 -0.317996 -2.79753e-19)
(0.164476 -0.358989 2.005e-19)
(0.202138 -0.400395 1.68645e-19)
(0.241642 -0.440316 -2.56668e-19)
(0.281153 -0.476702 8.13216e-20)
(0.00549578 -0.0314908 -8.54125e-20)
(0.028777 -0.107417 -8.67086e-19)
(0.0628576 -0.196112 -1.29641e-19)
(0.0974512 -0.268978 9.32072e-20)
(0.131814 -0.327223 6.77859e-20)
(0.169651 -0.380289 -4.49674e-19)
(0.212947 -0.432316 3.56061e-20)
(0.259141 -0.481813 3.67019e-19)
(0.305491 -0.526277 -3.86494e-19)
(0.35144 -0.565675 -2.58574e-19)
(0.0113686 -0.0409846 -1.77151e-21)
(0.0466248 -0.130877 1.89864e-19)
(0.0896426 -0.225337 1.61262e-21)
(0.133077 -0.307042 -1.07664e-20)
(0.177789 -0.377878 -3.00841e-20)
(0.227244 -0.443863 8.6479e-20)
(0.281099 -0.505631 7.30227e-20)
(0.335671 -0.560903 -1.36118e-19)
(0.389735 -0.609385 9.20868e-21)
(0.443905 -0.651954 -1.04424e-20)
(0.0185094 -0.0507711 0)
(0.067239 -0.15243 5.48104e-21)
(0.12194 -0.25364 -5.10326e-19)
(0.178696 -0.345482 5.16011e-20)
(0.237809 -0.428582 -1.00789e-20)
(0.300517 -0.505094 5.65912e-21)
(0.365311 -0.574382 -2.53825e-20)
(0.429809 -0.63544 -7.76762e-21)
(0.493948 -0.688846 0)
(0.558142 -0.734856 -2.05842e-20)
(0.0273259 -0.0596502 3.18348e-20)
(0.0918957 -0.172858 -1.54315e-19)
(0.161767 -0.282527 -4.59961e-20)
(0.23463 -0.383894 -5.83549e-20)
(0.309738 -0.476757 4.96271e-20)
(0.386738 -0.561539 5.60225e-21)
(0.464243 -0.637705 8.95584e-20)
(0.540939 -0.704947 -2.17592e-20)
(0.61691 -0.763449 -6.96258e-19)
(0.69216 -0.812653 -1.0103e-20)
(0.0379751 -0.0676048 6.82767e-22)
(0.121237 -0.192179 5.56894e-20)
(0.209164 -0.310619 -7.84581e-20)
(0.299927 -0.420179 -1.66974e-20)
(0.392137 -0.520672 -7.29189e-20)
(0.484778 -0.61213 -9.49976e-21)
(0.576701 -0.694327 9.94465e-21)
(0.666941 -0.767146 -2.11616e-19)
(0.755525 -0.830267 3.83512e-19)
(0.842317 -0.882323 9.71544e-19)
(0.0503615 -0.0746011 1.51289e-20)
(0.15513 -0.209611 -1.42272e-19)
(0.263462 -0.335965 -2.13768e-19)
(0.37367 -0.452112 8.9012e-20)
(0.484103 -0.558266 -6.43242e-20)
(0.593545 -0.654616 9.87227e-20)
(0.700944 -0.741275 1.96802e-19)
(0.805408 -0.818298 -1.09097e-19)
(0.90702 -0.885112 -3.05942e-19)
(1.00569 -0.939527 7.25345e-19)
(0.06429 -0.0803598 -2.64905e-20)
(0.193286 -0.224026 -5.78122e-19)
(0.324297 -0.35656 5.2431e-19)
(0.455683 -0.47723 3.37489e-19)
(0.585738 -0.586745 -8.5909e-20)
(0.713224 -0.685659 3.08672e-19)
(0.837129 -0.774432 -1.59966e-19)
(0.956564 -0.853457 -7.72873e-19)
(1.07173 -0.922034 -4.03706e-19)
(1.18267 -0.977279 4.53661e-19)
(0.0795451 -0.084666 -7.98229e-20)
(0.235845 -0.234417 -5.44357e-19)
(0.392392 -0.370524 -8.2812e-21)
(0.547542 -0.492795 6.88257e-20)
(0.699594 -0.602463 3.37758e-19)
(0.847391 -0.700432 -1.85388e-19)
(0.990013 -0.78744 -1.69468e-19)
(1.12653 -0.863825 1.88994e-19)
(1.25681 -0.928648 -3.51617e-19)
(1.38007 -0.980354 -5.84578e-19)
(0.402961 -0.532008 9.84092e-19)
(0.684891 -0.61849 -2.42959e-19)
(0.913782 -0.557812 -1.42676e-19)
(1.08768 -0.431308 2.68859e-19)
(1.24019 -0.280216 -2.30559e-19)
(1.36263 -0.139471 -2.9977e-19)
(1.46037 -0.0336095 -2.66148e-19)
(1.51769 0.0201985 -3.18823e-20)
(1.53864 0.0317969 -8.98939e-22)
(1.55468 0.0229681 2.99934e-20)
(0.468901 -0.619874 9.65109e-19)
(0.741529 -0.693923 7.1332e-20)
(0.966323 -0.617861 1.09589e-20)
(1.12486 -0.480552 -2.15912e-19)
(1.26563 -0.320587 -7.15718e-19)
(1.38103 -0.172155 0)
(1.47999 -0.0583235 -2.47309e-19)
(1.55437 0.00612527 5.18719e-20)
(1.59194 0.025444 4.51096e-21)
(1.62044 0.0194316 3.70143e-21)
(0.556233 -0.705529 -9.98103e-19)
(0.81082 -0.766895 -7.09953e-20)
(1.02557 -0.675769 1.56215e-19)
(1.1662 -0.527627 -5.39057e-20)
(1.29125 -0.359741 -3.6415e-20)
(1.39713 -0.204697 6.43643e-20)
(1.49166 -0.0848204 0)
(1.57366 -0.012645 0)
(1.62786 0.0132737 -1.72683e-20)
(1.67693 0.0133763 0)
(0.665713 -0.787274 -2.24922e-19)
(0.89563 -0.835459 4.04331e-19)
(1.09198 -0.730472 2.68231e-20)
(1.21246 -0.571547 0)
(1.31797 -0.396791 6.05066e-19)
(1.41196 -0.236068 -1.4323e-19)
(1.49921 -0.111531 0)
(1.58136 -0.0330558 1.32988e-19)
(1.63724 -0.00395458 0)
(1.71815 0.00229154 -1.58187e-20)
(0.795746 -0.863955 -1.48909e-19)
(0.997647 -0.89763 4.54948e-19)
(1.1662 -0.780812 -1.46554e-20)
(1.2638 -0.611484 0)
(1.34648 -0.430918 1.78919e-19)
(1.42593 -0.265555 2.69544e-19)
(1.50463 -0.137273 4.7542e-20)
(1.5826 -0.0534222 6.68771e-21)
(1.63491 -0.0219179 -2.27837e-20)
(1.72807 -0.0122496 3.32711e-20)
(0.94225 -0.93482 -1.33162e-18)
(1.11649 -0.952056 -9.42273e-19)
(1.24885 -0.825523 4.75981e-21)
(1.32 -0.646715 5.75439e-19)
(1.37716 -0.461338 -3.04509e-19)
(1.43908 -0.292627 1.4677e-19)
(1.50844 -0.161346 2.32532e-19)
(1.57983 -0.0727797 -1.8785e-19)
(1.63003 -0.0400509 -1.90811e-21)
(1.72192 -0.0263105 2.13514e-20)
(1.1001 -0.999493 -2.6058e-19)
(1.25001 -0.99855 2.86648e-19)
(1.34017 -0.863489 3.93705e-21)
(1.38075 -0.676556 -1.76229e-20)
(1.41012 -0.487276 -5.89723e-19)
(1.45144 -0.316742 5.41088e-20)
(1.5102 -0.183308 -9.39899e-20)
(1.57393 -0.0911801 -2.69379e-20)
(1.62602 -0.0558873 -7.27203e-22)
(1.6936 -0.0393041 -2.30198e-20)
(1.26432 -1.05687 -1.20074e-18)
(1.39474 -1.03772 2.09987e-19)
(1.43914 -0.894119 0)
(1.44509 -0.700577 3.44891e-20)
(1.44468 -0.50821 5.19998e-19)
(1.46267 -0.3374 -1.55845e-21)
(1.50883 -0.203178 -3.12513e-19)
(1.56579 -0.107736 6.18862e-20)
(1.61528 -0.0705296 -9.49645e-22)
(1.64026 -0.045946 -2.99532e-20)
(1.432 -1.10352 3.39105e-18)
(1.54804 -1.07047 2.4603e-19)
(1.54559 -0.918119 4.64303e-19)
(1.51326 -0.719203 -3.17985e-20)
(1.48094 -0.524302 -3.44018e-20)
(1.4727 -0.354475 -4.27937e-19)
(1.50198 -0.22072 9.19701e-20)
(1.5552 -0.122851 3.06658e-21)
(1.56816 -0.0769707 -2.47052e-20)
(1.57585 -0.0478358 3.74111e-20)
(1.59924 -1.1282 -2.99819e-18)
(1.70185 -1.09566 1.2722e-18)
(1.65394 -0.938133 -2.33005e-19)
(1.58138 -0.735922 -7.88678e-19)
(1.51585 -0.539129 -6.54903e-19)
(1.47885 -0.371745 -2.54334e-19)
(1.4898 -0.238277 -6.78611e-20)
(1.51175 -0.135047 0)
(1.50531 -0.0780698 -5.94492e-20)
(1.50356 -0.0481746 1.24952e-19)
(1.88819 -1.17024 -6.71178e-18)
(1.92739 -1.10521 -1.69187e-18)
(1.80485 -0.932333 -5.83788e-20)
(1.67306 -0.727759 1.11891e-19)
(1.56238 -0.534279 1.60091e-19)
(1.48642 -0.373399 -1.02604e-19)
(1.4485 -0.24214 -4.04067e-20)
(1.42634 -0.135096 7.14143e-20)
(1.41484 -0.0760844 -5.87697e-20)
(1.4047 -0.0474204 -5.74131e-20)
(2.28933 -1.13488 4.95811e-19)
(2.17884 -1.05674 -2.88884e-19)
(1.94272 -0.865383 4.96008e-19)
(1.73561 -0.66489 -8.48708e-20)
(1.56215 -0.480938 3.00459e-21)
(1.42622 -0.333824 -6.94111e-20)
(1.3421 -0.218366 9.61482e-20)
(1.30825 -0.124467 -3.30818e-20)
(1.29062 -0.0707094 2.06199e-19)
(1.27452 -0.0445454 9.24191e-20)
(2.61059 -1.04361 2.2709e-18)
(2.35194 -0.948794 3.25797e-19)
(2.00824 -0.759505 -1.17777e-19)
(1.73245 -0.573001 1.63472e-36)
(1.50527 -0.41082 -2.55259e-20)
(1.33893 -0.286811 1.50628e-33)
(1.23406 -0.190619 -1.99127e-20)
(1.18227 -0.111949 -1.65086e-33)
(1.15874 -0.0638552 6.83507e-21)
(1.13743 -0.0404104 -1.41371e-20)
(2.78703 -0.893978 3.88669e-33)
(2.36942 -0.795641 2.96663e-18)
(1.97357 -0.630503 1.81788e-18)
(1.65339 -0.469435 0)
(1.40645 -0.334959 8.32786e-19)
(1.22959 -0.233724 4.29712e-19)
(1.11362 -0.15668 1.70041e-19)
(1.0499 -0.0951861 -2.90048e-33)
(1.02036 -0.0551706 -5.84681e-20)
(0.994856 -0.035119 8.95027e-21)
(2.76364 -0.705898 3.84271e-18)
(2.24588 -0.62989 -1.46812e-19)
(1.84651 -0.491029 0)
(1.51549 -0.361719 0)
(1.27123 -0.255723 0)
(1.0972 -0.178469 0)
(0.980612 -0.121084 -1.27189e-20)
(0.911276 -0.0758619 -4.19667e-33)
(0.877116 -0.0448929 7.66679e-21)
(0.848393 -0.0289279 7.81185e-34)
(2.55117 -0.517039 3.26571e-18)
(2.02004 -0.462918 0)
(1.63855 -0.353647 0)
(1.32673 -0.256748 0)
(1.10091 -0.179711 0)
(0.941637 -0.125564 0)
(0.833328 -0.0861683 3.29956e-20)
(0.76527 -0.0555569 -9.17651e-20)
(0.729271 -0.0335834 8.55408e-21)
(0.698995 -0.0221362 3.26139e-20)
(2.19011 -0.342712 0)
(1.70262 -0.303514 1.09822e-18)
(1.36128 -0.227609 1.09032e-18)
(1.0913 -0.161992 0)
(0.898373 -0.112341 6.66775e-19)
(0.763951 -0.0787173 4.04544e-19)
(0.671501 -0.0546881 2.51545e-19)
(0.610876 -0.0362482 8.38773e-20)
(0.576672 -0.0222605 -2.79879e-20)
(0.547255 -0.0152381 -4.16225e-21)
(1.70285 -0.191137 -6.73873e-19)
(1.30018 -0.165595 -2.74167e-19)
(1.02504 -0.121756 1.75646e-19)
(0.815076 -0.0844373 -2.1125e-34)
(0.667691 -0.0580825 -7.70675e-20)
(0.56614 -0.041047 3.71009e-33)
(0.495536 -0.0289713 4.88282e-20)
(0.447576 -0.0198068 9.88102e-20)
(0.418997 -0.0122199 9.92759e-21)
(0.393503 -0.00888082 -2.427e-21)
(1.10088 -0.0758216 3.40805e-18)
(0.823158 -0.0626787 -1.86556e-19)
(0.640579 -0.0442933 -5.88889e-19)
(0.506144 -0.0289878 0)
(0.413815 -0.0195678 -6.4009e-19)
(0.350637 -0.0141271 -4.32409e-19)
(0.306109 -0.0103116 -2.04e-19)
(0.274934 -0.00748331 -1.42461e-19)
(0.255532 -0.00465932 1.71501e-19)
(0.237607 -0.00374452 -2.83844e-20)
(0.397352 -0.00331882 0)
(0.287866 0.00159422 0)
(0.220891 0.00409436 0)
(0.17355 0.00624762 0)
(0.142372 0.00585677 0)
(0.121188 0.00471506 0)
(0.105855 0.00368284 5.60606e-20)
(0.0946647 0.00257707 -2.17595e-34)
(0.0873207 0.00215976 1.24835e-20)
(0.0801518 0.000914761 1.1321e-20)
(3.3671 -0.0863118 5.39208e-19)
(3.32642 -0.265086 -8.41902e-20)
(3.24735 -0.430657 8.52094e-19)
(3.13238 -0.582159 -6.04747e-19)
(2.98634 -0.718126 6.66403e-19)
(2.81524 -0.836383 2.75241e-19)
(2.6266 -0.93406 -1.92751e-18)
(2.42951 -1.00785 -7.74711e-20)
(2.22468 -1.05368 0)
(1.98486 -1.06656 4.26116e-19)
(3.86191 -0.0750598 7.07369e-18)
(3.79859 -0.234214 1.95637e-18)
(3.70428 -0.387312 -4.86733e-18)
(3.58426 -0.531993 -4.49093e-19)
(3.44238 -0.665896 3.5589e-18)
(3.28186 -0.787323 1.92345e-18)
(3.1065 -0.895071 -5.16867e-18)
(2.92204 -0.987706 -1.95219e-18)
(2.72759 -1.06339 2.20316e-18)
(2.49237 -1.12052 8.52174e-19)
(3.83308 -0.0533011 -1.26252e-19)
(3.82024 -0.171567 4.40361e-18)
(3.78546 -0.299762 -1.08825e-18)
(3.72434 -0.43092 -3.44613e-18)
(3.63618 -0.558732 -6.80009e-18)
(3.52371 -0.678804 1.02787e-17)
(3.39117 -0.788795 4.18064e-18)
(3.2435 -0.887987 -3.91184e-18)
(3.08161 -0.97872 -2.90278e-18)
(2.88723 -1.063 -3.42505e-18)
(3.62866 -0.0472861 -4.83943e-18)
(3.61961 -0.144932 -4.35349e-18)
(3.59963 -0.243741 5.47222e-18)
(3.56735 -0.343095 1.91191e-18)
(3.52241 -0.442379 -8.97138e-18)
(3.46416 -0.54081 4.92206e-19)
(3.39183 -0.637048 3.88638e-18)
(3.30512 -0.730433 -1.05396e-18)
(3.20499 -0.823067 1.27682e-18)
(3.08306 -0.914775 2.81769e-19)
(3.34405 -0.0365785 -9.16003e-19)
(3.339 -0.111656 3.00413e-18)
(3.3271 -0.188677 1.6196e-18)
(3.30744 -0.267172 -1.8943e-18)
(3.27986 -0.346071 -2.00139e-18)
(3.24465 -0.424138 -2.434e-18)
(3.20204 -0.500336 3.79663e-19)
(3.15176 -0.574495 1.3904e-19)
(3.09548 -0.64776 -2.13975e-18)
(3.03286 -0.721306 -2.0344e-18)
(2.96257 -0.0265547 -1.82251e-18)
(2.95981 -0.0798891 -5.8723e-20)
(2.9533 -0.134599 -1.63755e-18)
(2.9424 -0.190903 3.12127e-19)
(2.92675 -0.248551 5.36787e-18)
(2.90629 -0.30693 -3.66748e-19)
(2.88092 -0.365116 4.43388e-20)
(2.85023 -0.42206 -2.60861e-18)
(2.81644 -0.476883 -3.49569e-18)
(2.786 -0.529865 3.72832e-19)
(2.48713 -0.0175109 -2.89313e-20)
(2.48578 -0.0519349 -8.14317e-19)
(2.48259 -0.0872484 -2.61487e-18)
(2.47707 -0.123771 -3.43104e-18)
(2.4688 -0.161534 2.49658e-18)
(2.45744 -0.200268 1.50226e-18)
(2.44261 -0.239354 -1.38509e-18)
(2.4237 -0.277791 1.6245e-18)
(2.40275 -0.314483 -4.2971e-19)
(2.38953 -0.349541 -9.63776e-19)
(1.91464 -0.00968846 7.72463e-19)
(1.91408 -0.0282977 -8.31807e-19)
(1.91278 -0.0474397 -3.27699e-20)
(1.91031 -0.0673591 -3.4723e-20)
(1.90624 -0.0881301 -7.27404e-20)
(1.90013 -0.109614 -2.33197e-18)
(1.89151 -0.131405 -6.78681e-19)
(1.87978 -0.152782 2.62613e-18)
(1.86664 -0.172975 -6.03513e-19)
(1.86191 -0.192207 -1.35115e-18)
(1.23988 -0.00373767 -1.64283e-18)
(1.23967 -0.0106957 -8.48918e-19)
(1.23923 -0.0179012 2.33921e-18)
(1.23823 -0.0254786 -8.89782e-19)
(1.23625 -0.0334753 -6.74128e-19)
(1.2329 -0.0418316 1.35204e-18)
(1.22775 -0.0503499 -1.2959e-18)
(1.22038 -0.0586654 1.287e-18)
(1.21202 -0.0663425 -1.21033e-18)
(1.21007 -0.0735082 -4.24831e-18)
(0.454916 -0.000257981 6.63085e-19)
(0.454827 -0.000700533 7.03058e-19)
(0.454692 -0.00115912 7.48186e-19)
(0.454325 -0.00164005 1.35398e-18)
(0.453496 -0.00214018 -6.7199e-19)
(0.451984 -0.00263718 -1.29963e-18)
(0.449567 -0.0030991 6.14719e-19)
(0.445992 -0.00359292 2.48373e-20)
(0.441737 -0.00439221 -4.96532e-20)
(0.44035 -0.00504562 1.1057e-19)
(1.65355 0.997265 -2.85792e-19)
(1.51227 0.941852 1.79966e-20)
(1.35879 0.880741 -2.28635e-19)
(1.19767 0.808434 1.76337e-19)
(1.02957 0.723975 -1.91951e-19)
(0.854823 0.627075 -1.011e-19)
(0.673759 0.516941 2.31982e-19)
(0.487035 0.392146 -3.04912e-19)
(0.295891 0.250643 3.09877e-19)
(0.10143 0.0916437 2.38715e-19)
(1.88638 0.992185 0)
(1.72968 0.934734 6.39292e-19)
(1.56083 0.872765 3.32472e-19)
(1.38228 0.80185 1.62746e-19)
(1.19453 0.719876 4.31252e-19)
(0.997533 0.625897 -8.68506e-20)
(0.79136 0.518601 -7.8539e-20)
(0.576346 0.39599 8.87679e-20)
(0.353317 0.255175 -1.04516e-18)
(0.122698 0.0943551 -1.66452e-20)
(2.09104 0.959033 1.56804e-19)
(1.92523 0.905064 0)
(1.74614 0.846459 -1.00737e-19)
(1.55493 0.779548 -3.83392e-19)
(1.3517 0.702081 5.37066e-20)
(1.13609 0.612789 3.97115e-19)
(0.907783 0.510088 -6.06876e-19)
(0.666589 0.391638 -2.00881e-19)
(0.412595 0.254044 7.83586e-19)
(0.145251 0.094735 -1.75937e-19)
(2.28484 0.89835 1.87984e-19)
(2.11044 0.850558 1.19903e-20)
(1.9213 0.797859 2.45137e-20)
(1.71811 0.736999 3.60919e-20)
(1.50058 0.665855 -2.92751e-20)
(1.26792 0.583131 2.73255e-19)
(1.01926 0.487168 -2.06876e-19)
(0.753674 0.37553 -8.55566e-19)
(0.47027 0.244678 0)
(0.167388 0.0916964 0)
(2.46796 0.811816 -1.0708e-18)
(2.28435 0.770834 -6.09158e-19)
(2.08493 0.72506 -1.20671e-19)
(1.87003 0.671521 -6.65716e-20)
(1.6389 0.608294 0)
(1.39031 0.534136 2.40749e-19)
(1.12275 0.447434 2.67775e-19)
(0.834554 0.345835 2.86239e-19)
(0.523839 0.225953 -4.23742e-19)
(0.187908 0.0848979 -8.12341e-20)
(2.634 0.702091 7.66396e-19)
(2.44156 0.668062 -1.39172e-19)
(2.23244 0.629678 -2.21573e-19)
(2.00664 0.584305 0)
(1.76301 0.530278 0)
(1.49988 0.466487 0)
(1.21522 0.391463 -3.89802e-20)
(0.906684 0.30309 3.70275e-19)
(0.571498 0.198348 3.79145e-19)
(0.206083 0.0746242 -3.08565e-19)
(2.7758 0.572354 -1.19355e-18)
(2.5755 0.54526 -1.48135e-18)
(2.35786 0.514529 -3.03294e-22)
(2.1226 0.477946 -1.87659e-19)
(1.86818 0.434181 -9.28796e-20)
(1.59258 0.382318 -1.78839e-19)
(1.29333 0.321124 4.5909e-19)
(0.967489 0.248837 2.14862e-19)
(0.611583 0.162966 5.40024e-19)
(0.221314 0.0613402 2.02852e-19)
(2.88707 0.425748 -1.15708e-18)
(2.68027 0.405633 8.47052e-20)
(2.45576 0.38282 1.64526e-19)
(2.21297 0.355611 1.68171e-20)
(1.95004 0.323051 -3.14403e-19)
(1.66465 0.284468 -1.74209e-19)
(1.35398 0.238937 -6.21208e-19)
(1.01464 0.18514 1.1853e-19)
(0.642604 0.121237 5.14752e-20)
(0.233066 0.0456127 -6.26905e-21)
(2.9628 0.265187 1.01363e-19)
(2.75121 0.252354 3.97005e-19)
(2.52189 0.237904 -3.30292e-19)
(2.27394 0.22074 3.63015e-19)
(2.00523 0.200297 3.72547e-19)
(1.71322 0.176176 4.91895e-19)
(1.39481 0.147809 -6.35738e-19)
(1.04633 0.114389 -3.24414e-19)
(0.663411 0.0748097 -4.58506e-20)
(0.240916 0.0280951 -3.26994e-19)
(3.00052 0.0935773 5.81812e-19)
(2.78612 0.0887857 -1.86158e-19)
(2.55425 0.0834441 4.79562e-19)
(2.30367 0.0771503 -3.10667e-19)
(2.03208 0.069728 2.66478e-19)
(1.73679 0.0610619 6.0541e-19)
(1.41457 0.0509785 3.78885e-19)
(1.06161 0.0392346 3.09342e-19)
(0.673396 0.0255066 2.65861e-19)
(0.244654 0.00950723 5.43613e-19)
(0.239585 0.452118 -4.69215e-19)
(0.203984 0.418396 -1.8762e-19)
(0.168418 0.381313 1.39175e-19)
(0.134889 0.343649 -4.19286e-19)
(0.105157 0.307524 -1.19439e-19)
(0.0782603 0.270272 6.9278e-19)
(0.0518846 0.223867 3.35826e-19)
(0.0259669 0.159013 -1.55547e-19)
(0.00706032 0.0797126 1.14658e-19)
(-0.00112416 0.0224515 -6.07382e-20)
(0.288642 0.544398 4.11387e-19)
(0.248739 0.507603 4.58328e-19)
(0.208191 0.465552 -1.16801e-20)
(0.167864 0.418525 -1.32713e-19)
(0.131142 0.3704 -3.13245e-19)
(0.100611 0.322802 8.28286e-20)
(0.0734814 0.269476 2.2511e-19)
(0.0458987 0.197015 1.65432e-19)
(0.0183447 0.101924 -5.91013e-19)
(0.00279098 0.0288832 -1.23621e-19)
(0.359659 0.633209 -6.00853e-19)
(0.313795 0.593061 -4.81429e-19)
(0.267997 0.547221 2.57617e-19)
(0.221355 0.49391 1.38222e-19)
(0.17581 0.434146 -6.07962e-21)
(0.136272 0.371933 -1.40065e-19)
(0.10212 0.305662 -2.94737e-20)
(0.0684388 0.224935 -5.55147e-19)
(0.0336734 0.126048 -2.69397e-19)
(0.00763985 0.0378049 -3.90639e-20)
(0.454217 0.717947 5.03282e-19)
(0.40006 0.673751 1.64748e-19)
(0.346367 0.622737 -1.49388e-19)
(0.29223 0.56369 6.32617e-20)
(0.237748 0.49559 -5.69329e-22)
(0.186585 0.420908 1.31682e-21)
(0.140104 0.340686 -1.32304e-19)
(0.0954606 0.250272 3.78447e-19)
(0.0514366 0.147748 -4.19279e-19)
(0.013582 0.0477141 -6.5101e-20)
(0.572005 0.797911 -2.82176e-19)
(0.507858 0.749815 -8.88969e-20)
(0.443578 0.692966 -1.43484e-20)
(0.378968 0.627244 -7.0275e-20)
(0.313719 0.551983 5.85487e-20)
(0.249662 0.468081 5.27415e-20)
(0.188379 0.376726 -2.79364e-20)
(0.129325 0.276659 -2.82148e-19)
(0.0725275 0.167644 2.18352e-19)
(0.020919 0.0568411 8.72711e-20)
(0.709413 0.870988 6.43359e-19)
(0.634365 0.819603 3.20821e-19)
(0.558129 0.757435 2.03101e-19)
(0.480855 0.685369 4.8216e-20)
(0.402412 0.603532 1.5504e-19)
(0.32387 0.512364 7.84689e-20)
(0.246466 0.412518 1.43363e-19)
(0.170865 0.303911 5.79379e-20)
(0.0980534 0.186799 -1.59388e-20)
(0.0299974 0.0650305 -1.3329e-20)
(0.862017 0.934898 -1.1977e-19)
(0.775539 0.880698 -8.24919e-19)
(0.686701 0.814071 -7.61456e-20)
(0.595724 0.736826 -5.21823e-20)
(0.502561 0.649623 -1.96728e-20)
(0.408124 0.552707 1.51509e-19)
(0.313478 0.446307 -4.38177e-20)
(0.219709 0.330409 6.49842e-20)
(0.128293 0.205078 -1.44615e-19)
(0.0409041 0.0724936 -1.25749e-21)
(1.02672 0.986055 -8.84757e-19)
(0.928466 0.929654 5.94301e-20)
(0.826655 0.859716 -2.33883e-19)
(0.721462 0.778891 -7.24736e-20)
(0.612767 0.688007 -2.40207e-20)
(0.501457 0.587066 -7.51831e-20)
(0.388526 0.47589 5.62764e-20)
(0.275163 0.354193 6.03047e-20)
(0.162982 0.221556 -9.82127e-21)
(0.053544 0.0791205 -1.03789e-19)
(1.20389 1.01795 1.23824e-19)
(1.0935 0.960954 5.2312e-19)
(0.978252 0.889727 1.5526e-21)
(0.858222 0.807558 -2.95968e-20)
(0.733144 0.715301 1.50873e-19)
(0.603891 0.612549 -3.47296e-19)
(0.471403 0.498749 -2.44381e-19)
(0.33683 0.373208 3.56112e-19)
(0.201771 0.235007 1.44183e-19)
(0.0677021 0.0845325 -3.62229e-20)
(1.40058 1.01548 7.39745e-19)
(1.27806 0.962354 3.23713e-19)
(1.14783 0.895371 5.59289e-20)
(1.01087 0.816407 -1.94947e-19)
(0.867271 0.726525 -1.64357e-20)
(0.717901 0.625338 4.65589e-19)
(0.563584 0.512004 -2.68222e-19)
(0.405341 0.385475 -1.84481e-19)
(0.244705 0.24432 3.35795e-19)
(0.0831139 0.0884408 -6.04602e-21)
(0.976885 0.0985714 8.65027e-21)
(1.14261 0.142135 -1.27826e-21)
(1.2137 0.190364 -2.35101e-20)
(1.32633 0.170779 0)
(1.37794 0.155602 4.22651e-22)
(1.27913 0.234309 -5.42614e-20)
(1.12952 0.385629 -5.42094e-20)
(0.949446 0.543548 -1.19333e-20)
(0.711712 0.648437 -3.05112e-19)
(0.416576 0.59563 4.25585e-19)
(0.98217 0.0796803 1.96587e-19)
(1.13455 0.114473 -3.08857e-20)
(1.21011 0.159962 1.89631e-21)
(1.31718 0.151875 1.15673e-20)
(1.38104 0.157769 3.47334e-21)
(1.29888 0.268937 -2.61257e-21)
(1.15945 0.435826 1.33734e-20)
(0.994033 0.60664 0)
(0.761584 0.727503 7.98751e-19)
(0.479424 0.686835 -5.67414e-19)
(0.987049 0.0610682 -1.1348e-19)
(1.13107 0.0878453 6.68515e-21)
(1.20959 0.130426 7.7824e-20)
(1.31408 0.131668 1.91633e-20)
(1.38415 0.159076 -2.31877e-20)
(1.31876 0.301481 -3.49217e-20)
(1.19251 0.484517 -1.01685e-20)
(1.04412 0.668151 4.46159e-20)
(0.823154 0.803989 -1.25588e-21)
(0.564488 0.774622 -3.69724e-19)
(0.991298 0.0421823 -8.08781e-20)
(1.13178 0.061814 1.54199e-20)
(1.21261 0.101567 7.55299e-20)
(1.31729 0.111304 3.09078e-20)
(1.3899 0.159922 -2.3791e-20)
(1.3389 0.3319 -2.71171e-20)
(1.22907 0.530994 7.41352e-20)
(1.10023 0.726947 2.68968e-20)
(0.899926 0.875635 -5.46828e-19)
(0.673708 0.857027 -1.77835e-19)
(0.994751 0.0226644 3.66748e-20)
(1.13588 0.0359072 -4.64982e-20)
(1.21876 0.073272 -6.77575e-20)
(1.32541 0.0914435 2.25221e-20)
(1.39725 0.161302 0)
(1.35901 0.360623 0)
(1.26919 0.574603 7.69188e-20)
(1.16352 0.781643 -2.82623e-20)
(0.994676 0.939954 -1.1815e-19)
(0.805114 0.932407 -5.73727e-20)
(0.997249 0.0023563 3.40286e-21)
(1.14248 0.00971047 5.79749e-20)
(1.22715 0.0454464 -2.07786e-19)
(1.33661 0.0726347 -7.68105e-20)
(1.40497 0.164037 -4.8341e-21)
(1.37896 0.387808 1.25355e-19)
(1.31309 0.614487 1.53074e-19)
(1.23552 0.830519 -1.80501e-20)
(1.10781 0.995148 -4.37161e-20)
(0.953764 1.00012 2.82814e-21)
(0.998052 -0.0189565 1.73524e-21)
(1.15071 -0.0171308 2.97806e-20)
(1.23678 0.0181078 -6.55674e-20)
(1.34939 0.0553971 -1.54916e-19)
(1.41215 0.168368 1.17869e-20)
(1.39904 0.413128 7.38122e-21)
(1.36134 0.649528 -5.96459e-20)
(1.31735 0.87192 -1.08465e-19)
(1.23729 1.04093 -3.04023e-20)
(1.11388 1.06031 -9.7995e-19)
(0.996075 -0.0410683 1.49031e-20)
(1.16001 -0.0449019 -1.4388e-19)
(1.24694 -0.00857351 1.32571e-19)
(1.36256 0.0404793 1.02221e-19)
(1.41764 0.174759 5.01836e-21)
(1.41921 0.436125 -1.33047e-19)
(1.41386 0.678696 2.31435e-22)
(1.40835 0.904911 -1.31293e-19)
(1.37933 1.07817 1.1103e-20)
(1.27987 1.1124 2.88341e-18)
(0.991092 -0.0633179 -8.77724e-20)
(1.17027 -0.0737195 8.04599e-20)
(1.25722 -0.0344268 1.90611e-19)
(1.37543 0.0279999 -1.14625e-19)
(1.42197 0.182969 -2.26196e-19)
(1.44104 0.456507 9.25938e-21)
(1.4719 0.701857 1.69158e-19)
(1.50849 0.930196 -5.73639e-19)
(1.53085 1.10816 -2.68456e-20)
(1.44835 1.15338 -6.47481e-18)
(0.984025 -0.08618 4.10694e-21)
(1.18178 -0.103561 1.4151e-19)
(1.26745 -0.0592564 6.13508e-20)
(1.38681 0.0203052 -2.76393e-19)
(1.42296 0.19704 -2.44555e-19)
(1.46211 0.477856 -7.23865e-20)
(1.53113 0.722793 8.05055e-20)
(1.61159 0.95112 -2.06997e-19)
(1.68374 1.13052 -1.08648e-18)
(1.61563 1.17235 -7.95154e-18)
(0.974185 -0.117252 -1.44967e-20)
(1.19588 -0.143173 -3.26808e-20)
(1.27684 -0.0928283 -7.6733e-20)
(1.39745 0.00587438 1.41493e-19)
(1.42484 0.196097 2.0205e-19)
(1.49186 0.47339 -6.06188e-20)
(1.6119 0.712199 -1.41677e-19)
(1.75378 0.940259 -1.20148e-18)
(1.90279 1.13251 -1.59924e-18)
(1.89935 1.20869 3.28625e-18)
(0.961951 -0.155883 -4.05229e-19)
(1.21421 -0.192603 1.75063e-20)
(1.28071 -0.138882 -5.80252e-20)
(1.39776 -0.0157028 3.34974e-19)
(1.4033 0.17411 3.44739e-19)
(1.49343 0.42858 8.31436e-22)
(1.66809 0.647865 -6.62346e-20)
(1.88067 0.865837 -2.8722e-19)
(2.13955 1.07135 2.77962e-19)
(2.28452 1.16082 -3.23445e-19)
(0.949357 -0.196322 -2.78912e-20)
(1.23937 -0.242439 -5.49115e-20)
(1.27964 -0.183331 3.07229e-20)
(1.39283 -0.0341887 2.70013e-20)
(1.37685 0.162976 1.72273e-33)
(1.46995 0.371359 2.55173e-21)
(1.68044 0.561337 -2.0392e-33)
(1.94902 0.759556 1.85257e-19)
(2.30191 0.956383 -9.31012e-19)
(2.58733 1.05845 -6.29293e-19)
(0.936999 -0.243005 1.41109e-18)
(1.2708 -0.282398 -7.75244e-34)
(1.24936 -0.22878 -4.0345e-20)
(1.2705 -0.036567 -2.28351e-19)
(1.26246 0.144664 -4.46513e-19)
(1.38931 0.302494 -8.84688e-19)
(1.61909 0.460027 -5.06569e-33)
(1.9292 0.631062 -1.73795e-18)
(2.32578 0.802081 -3.17746e-18)
(2.75373 0.902582 1.67522e-18)
(0.927283 -0.30054 0)
(1.31638 -0.327216 -1.61799e-33)
(1.11261 -0.20702 0)
(1.10721 -0.029563 0)
(1.11926 0.115081 0)
(1.25857 0.232876 0)
(1.4896 0.355405 -8.06807e-33)
(1.815 0.491537 0)
(2.21346 0.634268 -3.39737e-19)
(2.73499 0.712009 1.25753e-18)
(0.916481 -0.360812 1.16128e-19)
(1.25165 -0.326211 -4.68813e-19)
(0.959996 -0.174094 -5.4992e-20)
(0.933937 -0.0258085 0)
(0.956316 0.0827142 0)
(1.09011 0.165484 6.04502e-20)
(1.30634 0.253883 1.17723e-18)
(1.61596 0.354667 -1.9506e-19)
(1.99671 0.466192 -4.95304e-19)
(2.53246 0.520475 4.67305e-18)
(0.883464 -0.405317 -1.52015e-17)
(1.09209 -0.279951 1.08741e-18)
(0.792653 -0.130499 -7.27264e-20)
(0.746995 -0.0210406 -7.49725e-20)
(0.772966 0.0525619 -5.12359e-19)
(0.889571 0.10453 -7.72695e-19)
(1.07633 0.161258 -1.04829e-18)
(1.34605 0.229004 -1.38261e-18)
(1.68762 0.306111 -1.60554e-18)
(2.17993 0.344443 3.61276e-18)
(0.809001 -0.394518 -4.13662e-19)
(0.886472 -0.20759 -1.21644e-18)
(0.60555 -0.0828522 -1.25664e-19)
(0.549664 -0.0152804 -8.4195e-20)
(0.571908 0.0276291 -9.88001e-34)
(0.661617 0.0545446 9.37696e-20)
(0.805461 0.0845724 -1.48556e-32)
(1.01621 0.122932 -1.93436e-19)
(1.29247 0.167305 2.98944e-19)
(1.69929 0.19207 7.05767e-19)
(0.664252 -0.288844 3.42549e-17)
(0.618258 -0.1081 -3.14018e-18)
(0.393378 -0.0351132 -2.40736e-19)
(0.339368 -0.0073598 -1.57773e-19)
(0.353772 0.00926074 3.93911e-19)
(0.410477 0.0183575 7.84112e-19)
(0.501203 0.0291845 7.95214e-19)
(0.636732 0.0448814 4.59849e-19)
(0.820755 0.0634551 -1.9041e-19)
(1.10156 0.0762252 3.56938e-18)
(0.336836 -0.076824 5.58816e-19)
(0.261851 -0.00230483 -6.76604e-33)
(0.144383 0.0190778 -3.04952e-19)
(0.120399 0.00336326 0)
(0.123621 -0.00234844 0)
(0.141856 -0.00541386 9.64219e-20)
(0.172376 -0.00624587 9.34803e-35)
(0.220296 -0.00417587 -1.23574e-19)
(0.28813 -0.00161903 -2.82608e-19)
(0.399009 0.00331833 1.00158e-18)
(2.00205 1.09641 -1.78982e-18)
(2.23906 1.07846 -2.30496e-18)
(2.44207 1.0291 0)
(2.63707 0.952503 -7.58053e-19)
(2.82358 0.852509 -1.78273e-18)
(2.99276 0.732392 -2.2495e-18)
(3.13709 0.595042 -4.7588e-19)
(3.25054 0.442699 1.26928e-18)
(3.32824 0.276965 -3.54792e-18)
(3.36764 0.0986984 1.35669e-18)
(2.49866 1.14197 2.67737e-19)
(2.73056 1.08192 1.39734e-18)
(2.92387 1.0042 1.43905e-19)
(3.10673 0.909803 6.75778e-19)
(3.2806 0.800662 -1.10401e-18)
(3.43997 0.678327 -5.0005e-18)
(3.58096 0.544014 2.46797e-18)
(3.70047 0.399322 1.27036e-17)
(3.79428 0.246325 1.04067e-19)