/*--------------------------------*- C++ -*----------------------------------*\
  =========                 |
  \\      /  F ield         | OpenFOAM: The Open Source CFD Toolbox
   \\    /   O peration     | Website:  https://openfoam.org
    \\  /    A nd           | Version:  13
     \\/     M anipulation  |
\*---------------------------------------------------------------------------*/
FoamFile
{
    format      ascii;
    class       surfaceScalarField;
    location    "2.085";
    object      phi;
}
// * * * * * * * * * * * * * * * * * * * * * * * * * * * * * * * * * * * * * //

dimensions      [0 3 -1 0 0 0 0];

internalField   nonuniform List<scalar> 
823
(
0.0071165
0.0225485
-0.029665
0.0523784
0.00101564
-0.0462776
0.142535
-0.0731885
-0.0169681
0.260491
-0.158484
0.0405275
-0.24148
0.129071
0.3729
0.014283
0.00826544
0.0881494
-0.0728508
0.200435
-0.185474
0.314757
-0.272807
-0.331677
0.404954
0.0331804
-0.024915
0.129737
-0.169407
0.230085
-0.285822
0.305302
-0.348024
-0.374192
0.347817
0.0520559
-0.0769709
0.138871
-0.256223
0.2022
-0.34915
0.236663
-0.382487
-0.391468
0.25394
0.0563667
-0.133338
0.114882
-0.314738
0.145726
-0.379994
0.15856
-0.395321
0.164132
-0.39704
-0.0278246
0.0547362
-0.0269116
-0.067016
0.069223
-0.0300316
-0.100749
0.0533961
-0.0196632
-0.124936
0.0323322
-0.00814514
0.0140193
-0.139679
0.000723973
-0.0187406
0.0734768
-0.0512694
0.101752
-0.0810136
0.0831402
-0.100053
0.051372
0.0168176
-0.102852
0.00700427
0.0664726
0.00342493
0.105331
-0.00538891
0.0919541
-0.00867925
0.0546623
-0.00254458
0.0106829
0.0223185
0.044154
0.0480493
0.0796002
0.0701931
0.0698103
0.0916598
0.0331957
-0.0490813
0.138196
0.0144891
0.0478117
0.100654
0.174377
0.254367
0.0487011
-0.485948
0.297567
0.256072
-0.574301
0.366931
0.354441
-0.324907
0.226538
0.395973
-0.194171
0.152639
-0.0813402
0.0722232
0.081663
-0.670462
0.258683
-0.751322
0.357032
-0.423256
0.398635
-0.235774
-0.0914007
0.178683
-0.838462
0.287166
-0.859804
0.365524
-0.501614
0.402389
-0.272639
-0.102773
0.29491
-0.995176
0.345854
-0.910748
0.385081
-0.540842
0.409068
-0.296626
-0.114525
0.361125
-1.10193
0.398154
-0.947777
0.410212
-0.5529
0.418872
-0.305285
-0.125945
1.16397
-0.99872
-1.26718
0.967398
-0.751208
0.806968
-0.392469
0.711104
-0.209421
-0.0908217
1.09083
-0.727408
-1.36215
0.868313
-0.528687
0.750254
-0.27441
0.690642
-0.14981
-0.0663569
1.11999
-0.511904
-1.33549
0.91785
-0.326547
0.783691
-0.140251
0.705138
-0.0712573
-0.033765
1.03996
-0.27123
-1.28063
0.844411
-0.131001
0.730556
-0.0263969
0.667279
-0.00798033
-0.00682018
0.60049
-0.87172
0.469489
0.443092
0.435112
1.10025
0.116037
-1.05216
1.1459
0.208295
1.23145
0.262267
1.28236
0.354036
0.388084
1.01987
0.0661101
-0.969946
1.0811
0.147071
1.16226
0.181106
1.26409
0.252205
0.290028
0.979957
0.0307703
-0.944617
1.04141
0.0856175
1.11662
0.105897
1.21804
0.150782
0.172576
0.934709
0.0038614
-0.9078
0.992962
0.0273636
1.06536
0.0334944
1.16441
0.0517353
0.0563568
0.70277
-0.698909
0.730134
0.763628
0.815363
0.117256
0.308832
-0.261644
-0.164444
0.0761947
0.315808
-0.274747
0.0404425
0.326539
-0.290787
0.0117839
0.318188
-0.289529
0.206317
-0.194533
0.097105
0.34645
-0.134723
0.0618492
0.351064
0.0297936
0.358595
0.00538141
0.3426
0.211698
0.0502102
0.373332
-0.0770925
0.0238194
0.377454
0.00203597
0.380378
-0.00840383
0.35304
0.203294
-0.00820585
0.390213
-0.00867499
-0.0246887
0.393937
-0.0333691
0.389058
-0.0256747
0.345346
0.177619
-0.0825696
0.0757428
-0.0839532
-0.0748893
-0.0442819
0.1889
0.108668
-0.239067
-0.0585007
0.137572
0.113792
-0.0624632
0.085117
0.119799
-0.067344
0.0344625
0.120972
-0.0703171
0.0865879
-0.0521254
0.184988
0.153279
-0.2296
0.139064
0.159716
0.0892989
0.169564
0.0374231
0.172847
0.124011
0.157515
0.198984
-0.20322
0.113402
0.203829
0.0696898
0.213277
0.0273659
0.215171
0.151377
0.152186
0.234875
-0.188077
0.111374
0.24464
0.067151
0.2575
0.0253031
0.257019
0.17668
0.113756
-0.140526
0.0836499
0.050363
0.0178525
0.411199
0.0273926
-0.0426117
0.418602
0.081833
-0.0892366
0.411242
0.192624
-0.185264
0.376311
0.252838
-0.217907
0.485334
-0.34809
0.408628
0.0147446
0.413053
0.0774073
0.402524
0.203153
0.368944
0.286418
0.624679
0.403514
0.00721036
0.40561
0.0753107
0.382666
0.226098
0.365204
0.30388
0.786663
0.397592
0.00559802
0.390743
0.08216
0.36825
0.248591
0.340727
0.331402
0.939314
0.389213
0.0123642
0.376376
0.0949975
0.336241
0.288725
0.313308
0.354335
1.1121
0.62033
-0.00394581
0.637856
0.077472
0.666842
0.259739
0.765377
0.255801
0.855836
1.02164
0.623037
-0.0229627
0.64469
0.055819
0.712221
0.192208
0.792151
0.175871
0.649292
0.998694
0.623526
-0.0424679
0.658725
0.0206191
0.737483
0.11345
0.795971
0.117383
0.436699
1.00856
0.618028
-0.0564753
0.660231
-0.0215845
0.73431
0.0393718
0.793577
0.0581156
0.213489
1.01679
0.547545
0.525961
0.565332
0.623448
0.836937
1.03247
-0.175275
1.02827
-0.13052
1.01787
-0.0666925
1.03309
-0.0239041
0.0566803
0.963795
-0.140376
0.9499
-0.116625
0.937289
-0.0540819
0.951136
-0.0377506
0.0378697
0.962858
-0.0946695
0.933518
-0.0872845
0.924055
-0.044619
0.922485
-0.0361809
0.0157376
0.965459
-0.0433415
0.921003
-0.0428281
0.902824
-0.0264399
0.890545
-0.0239025
-0.00151689
0.793596
0.750768
0.724328
0.700425
0.0496887
0.136656
-0.186345
0.0752725
0.30982
-0.335404
0.0759466
0.366417
-0.367091
0.0649734
0.372843
-0.36187
0.342852
0.0532117
-0.331091
0.0714527
0.0652037
0.147417
0.233856
0.185092
0.328742
0.191896
0.366039
0.365562
0.169187
0.0567853
0.00841848
0.174138
0.116503
0.275923
0.226958
0.350305
0.291656
0.351658
0.364209
0.0221265
-0.013708
0.116872
0.0217577
0.243396
0.100434
0.375403
0.15965
0.230748
0.496312
0.000421532
-0.0141295
0.0465219
-0.0243427
0.146406
0.000549599
0.27881
0.0272459
0.0738338
0.435724
0.00854177
-0.0226713
0.0376773
-0.0534783
0.0925444
-0.0543175
0.162901
-0.0431105
-0.00780061
0.244535
0.0171734
-0.0398448
0.0351367
-0.0714415
0.0502043
-0.0693852
0.061866
-0.0547721
-0.0330953
0.0871607
-0.0139004
-0.0259444
-0.0404975
-0.0448443
-0.0661806
-0.0437022
-0.083916
-0.0370367
-0.0302153
-0.0867961
-0.026599
0.000654655
-0.0643028
-0.00714057
-0.0953242
-0.0126807
-0.117146
-0.0152152
-0.0160406
-0.13132
-0.0262569
-0.0634291
-0.0957731
-0.119133
-0.13445
0.4151
0.352462
-0.523027
0.390505
0.241294
-0.216698
0.360494
0.134225
-0.104215
0.37835
0.0357285
-0.0535838
-0.0104926
-0.0119351
0.217102
0.222521
0.260947
0.197448
0.327496
0.0676757
0.378117
-0.0148932
-0.0327676
0.0668942
0.0688307
0.229695
0.0346471
0.331565
-0.0341935
0.382511
-0.0658391
-0.0501547
0.0460129
-0.108503
0.245426
-0.164766
0.343055
-0.131823
0.388403
-0.111187
-0.0625949
0.0546145
0.256779
0.351494
0.392946
0.246113
0.426864
-0.672978
0.186965
0.0591484
0.249784
-0.0628188
0.296725
-0.0469414
-0.0141178
0.973842
-1.07
0.816293
0.64926
0.548734
0.0852331
-0.0153727
-0.0698604
0.140853
-0.0556194
0.259668
-0.118815
0.441527
-0.181859
-0.231451
0.192317
-0.154478
0.305884
0.551279
0.865731
0.141147
-0.124136
0.156487
-0.173498
0.106876
-0.128621
0.162893
0.0690609
-0.134788
0.172603
0.0284406
-0.133189
0.173809
-0.0912678
0.119708
0.176512
-0.0861507
-0.214497
0.133957
-0.086067
0.0851387
-0.0859692
0.035027
-0.0830773
-0.0562408
0.173288
-0.0381058
-0.221332
0.124262
-0.0370413
0.0756465
-0.0373538
0.0301394
-0.0375702
-0.0261014
0.193055
0.0101573
-0.241318
0.143618
0.0123963
0.0918084
0.0144555
0.0385411
0.0156972
0.0124396
0.197261
-0.245605
0.147194
0.0943057
0.0396858
0.0394204
-0.309288
-0.0612233
0.0148172
-0.337267
-0.00741765
-0.344857
-0.0163334
-0.326488
-0.202679
0.122978
-0.279143
-0.153122
0.0804746
-0.294763
0.0390003
-0.303382
0.00793557
-0.295424
-0.194743
0.14293
-0.237989
-0.184084
0.0996726
-0.251506
0.0579105
-0.26162
0.0204157
-0.257929
-0.174327
0.158654
-0.202551
-0.194091
0.116633
-0.209486
0.0716478
-0.216635
0.0283889
-0.21467
-0.145938
0.157715
-0.20378
0.111122
0.0670905
0.02623
0.393252
0.0848296
-0.0821018
0.383279
0.119244
-0.109272
0.334276
0.110931
-0.0619271
0.296662
0.0503629
-0.0127488
-0.143423
0.266587
0.400434
0.0803747
0.402257
0.117422
0.370577
0.14261
0.326009
0.094931
-0.0319108
0.405016
0.0713383
0.414393
0.108045
0.390107
0.166895
0.348977
0.136061
0.0957337
0.409238
0.0580801
0.419126
0.0981567
0.407219
0.178803
0.365578
0.177702
0.219993
0.411448
0.420368
0.413906
0.373702
0.424303
0.0857482
0.337886
0.0864167
0.296643
0.0412429
0.300326
-0.00368271
-0.145337
0.445663
0.513697
0.490842
0.470158
0.453727
0.574976
0.353477
0.0921863
0.270218
0.0832589
0.175972
0.0942462
0.100254
0.0757174
0.0303938
0.463383
0.35255
0.262712
0.185307
)
;

boundaryField
{
    left
    {
        type            calculated;
        value           nonuniform List<scalar> 
17
(
-0.60402
-0.60402
-0.60402
-0.60402
-0.60402
-0.39598
-0.39598
-0.39598
-0.39598
-0.39598
-0.39598
-0.39598
-0.39598
-0.39598
-0.39598
-0.510051
-0.510051
)
;
    }
    right
    {
        type            calculated;
        value           nonuniform List<scalar> 
17
(
0.310843
0.522682
0.400777
0.400392
0.399898
0.400843
0.402574
0.40509
0.408695
0.413762
0.420819
0.430292
0.675981
0.666178
0.672546
0.640334
0.428292
)
;
    }
    down
    {
        type            calculated;
        value           uniform 0;
    }
    up
    {
        type            calculated;
        value           uniform 0;
    }
    cylinder
    {
        type            calculated;
        value           uniform 0;
    }
    defaultFaces
    {
        type            empty;
    }
}


// ************************************************************************* //
