# Selection   : all
# Cells       : 1800
# Volume      : 7.372328e+01
# Time        	max(p)
0.45          	1.187827e+00
0.475         	1.781951e+00
0.5           	1.842596e+00
