/*--------------------------------*- C++ -*----------------------------------*\
  =========                 |
  \\      /  F ield         | OpenFOAM: The Open Source CFD Toolbox
   \\    /   O peration     | Website:  https://openfoam.org
    \\  /    A nd           | Version:  13
     \\/     M anipulation  |
\*---------------------------------------------------------------------------*/
FoamFile
{
    format      ascii;
    class       volScalarField;
    location    "27.2";
    object      p;
}
// * * * * * * * * * * * * * * * * * * * * * * * * * * * * * * * * * * * * * //

dimensions      [0 2 -2 0 0 0 0];

internalField   nonuniform List<scalar> 
440
(
-0.916916
-0.900037
-0.89188
-0.853768
-0.904293
-0.993366
-0.974148
-0.94986
-0.919792
-0.893981
-1.11496
-1.08032
-1.03667
-0.980564
-0.918586
-1.25665
-1.20676
-1.11128
-0.997292
-0.882175
-1.35207
-1.28306
-1.12555
-0.962267
-0.81336
-1.04068
-1.07423
-1.13445
-1.18565
-1.21558
-1.0565
-1.06303
-1.08122
-1.11517
-1.12991
-1.03268
-1.02263
-1.01988
-1.03073
-1.04408
-0.966388
-0.947241
-0.921113
-0.896766
-0.883366
-0.881771
-0.866754
-0.838006
-0.790586
-0.781632
-1.31164
-0.590412
0.136162
0.088493
0.0140465
-1.23563
-0.910222
0.0508126
-0.00895313
0.0161173
-1.28581
-1.17208
-0.0176476
-0.020383
0.0189951
-1.10095
-1.23413
-0.0641755
0.0268997
0.0247935
-0.88145
-1.18476
-0.0960488
0.0595681
0.0279427
-0.591714
-0.982013
-0.109359
0.0468214
0.0262365
-0.355927
-0.6171
-0.117794
-0.0724534
-0.00731944
-0.273105
-0.370093
-0.115948
0.0844173
0.00738832
-0.191532
-0.23134
-0.125469
0.0246597
-0.00653596
-0.073422
-0.222919
-0.142559
0.0575634
0.000784061
-0.562244
-0.670144
-0.800279
-0.94279
-1.04027
-0.317331
-0.426127
-0.497122
-0.535104
-0.539233
-0.15096
-0.242956
-0.301549
-0.331389
-0.352372
-0.0439915
-0.127705
-0.186446
-0.216311
-0.232457
0.00764465
-0.0748226
-0.12768
-0.147858
-0.140077
0.735854
0.58193
0.386049
0.170145
-0.060607
0.319824
0.159343
-0.0358311
-0.257004
-0.505485
-0.0822486
-0.245492
-0.451491
-0.681586
-0.915748
-0.430098
-0.597264
-0.80575
-1.03035
-1.21156
-0.667217
-0.835872
-1.02999
-1.23306
-1.35106
1.78245
1.81225
1.83829
1.85004
1.84469
1.59353
1.61343
1.6269
1.62276
1.59734
1.38387
1.37108
1.33464
1.27512
1.18997
1.14636
1.11169
1.04071
0.93964
0.811334
0.938538
0.83262
0.694946
0.538083
0.350433
1.56815
1.56204
1.53485
1.60891
1.66863
1.55891
1.55182
1.51649
1.59209
1.57992
1.55082
1.53868
1.49548
1.56424
1.46217
1.54398
1.52268
1.4736
1.51957
1.29428
1.53828
1.50752
1.45133
1.4759
1.11319
1.53471
1.4818
1.42375
1.3762
0.905443
1.53401
1.45246
1.4233
1.24965
1.03838
1.53985
1.43781
1.42061
1.18297
1.0913
1.54064
1.41232
1.41316
1.12101
1.11661
1.57475
1.4098
1.41094
1.08061
1.16038
0.70524
0.400218
0.0648512
-0.227311
-0.411097
0.59628
0.386093
0.163117
-0.0293825
-0.194133
0.578037
0.410352
0.247818
0.101576
-0.0387016
0.637429
0.479523
0.330303
0.193017
0.0650794
0.687477
0.5243
0.37479
0.238666
0.114278
-1.6474
-1.50608
-1.3375
-1.19821
-1.11409
-1.75169
-1.6772
-1.53912
-1.42035
-1.34005
-1.70712
-1.65331
-1.55947
-1.46801
-1.3927
-1.58907
-1.5448
-1.48511
-1.41886
-1.34973
-1.46708
-1.44677
-1.41365
-1.3692
-1.31527
-1.43738
-1.43112
-1.40681
-1.39266
-1.30174
-1.38752
-1.37869
-1.36064
-1.35424
-1.29967
-1.43957
-1.44004
-1.43967
-1.43871
-1.41931
-1.50721
-1.55905
-1.64042
-1.71877
-1.8095
-1.13716
-1.23676
-1.3517
-1.44686
-1.51881
-1.05584
-0.0650736
0.246831
0.25169
-0.019975
-1.06484
-0.0408429
0.322157
0.26421
-0.021329
-1.14222
-0.053133
0.327685
0.247786
-0.0141189
-1.46549
-0.124714
0.239397
0.187252
-0.00306428
-1.56124
-0.319924
0.173547
0.127577
0.00598282
-0.619006
-0.251096
0.148257
0.228088
-0.00242234
-0.896295
-0.152484
0.229294
0.257072
-0.00601968
-1.06408
-1.29343
-1.31128
-1.24783
-1.01299
-1.08401
-1.30101
-1.33601
-1.26901
-1.20618
1.4187
1.39761
1.35986
1.30656
1.23599
1.61231
1.63173
1.63759
1.62792
1.60269
1.77421
1.80666
1.83325
1.84856
1.84975
1.86902
1.90741
1.94803
1.98096
1.99601
1.8666
1.90224
1.9416
1.9739
1.98835
-0.670371
-0.772774
-0.931397
-1.1232
-1.33953
-0.0856416
-0.213847
-0.385581
-0.592136
-0.845557
0.444345
0.310041
0.149592
-0.0386661
-0.26827
0.868536
0.764828
0.639005
0.487455
0.30644
1.20821
1.13634
1.04391
0.933662
0.80468
1.62805
1.58796
1.56788
1.57234
1.57041
1.61307
1.58561
1.56799
1.58866
1.63653
1.60046
1.5821
1.56671
1.6109
1.70966
1.5888
1.57725
1.56041
1.61989
1.72321
1.57798
1.57099
1.54931
1.61951
1.71381
1.68405
1.59392
1.55505
1.49489
1.43196
1.63835
1.58446
1.55001
1.51334
1.45308
1.09742
0.877294
0.499985
-0.0443948
-0.638397
1.17407
0.908277
0.517137
-0.0239116
-0.631354
)
;

boundaryField
{
    left
    {
        type            zeroGradient;
    }
    right
    {
        type            fixedValue;
        value           uniform 0;
    }
    down
    {
        type            zeroGradient;
    }
    up
    {
        type            zeroGradient;
    }
    cylinder
    {
        type            zeroGradient;
    }
    defaultFaces
    {
        type            empty;
    }
}


// ************************************************************************* //
