# Selection   : all
# Cells       : 1800
# Volume      : 7.372328e+01
# Time        	max(p)
2.35          	1.196698e+00
2.375         	1.799721e+00
2.4           	1.852414e+00
