# Selection   : all
# Cells       : 440
# Volume      : 7.374263e+01
# Time        	min(p)
4.005         	-2.012900e+00
4.05          	-1.664367e+00
4.1           	-1.673381e+00
