/*--------------------------------*- C++ -*----------------------------------*\
  =========                 |
  \\      /  F ield         | OpenFOAM: The Open Source CFD Toolbox
   \\    /   O peration     | Website:  https://openfoam.org
    \\  /    A nd           | Version:  13
     \\/     M anipulation  |
\*---------------------------------------------------------------------------*/
FoamFile
{
    format      ascii;
    class       volVectorField;
    location    "2.605";
    object      U;
}
// * * * * * * * * * * * * * * * * * * * * * * * * * * * * * * * * * * * * * //

dimensions      [0 1 -1 0 0 0 0];

internalField   nonuniform List<vector> 
440
(
(-0.101501 0.0753675 -9.23892e-20)
(-0.142467 0.149975 1.01854e-19)
(0.048475 0.1739 1.15656e-20)
(0.442889 0.177784 4.18941e-19)
(0.798603 0.136144 2.67089e-21)
(-0.108627 0.0573413 3.2636e-20)
(0.0635265 0.021838 -1.56335e-19)
(0.621451 -0.0289319 -9.52414e-20)
(1.23439 -0.0694853 5.25438e-20)
(1.81381 -0.108946 -9.95504e-21)
(-0.0316511 0.00907424 6.24204e-20)
(0.569848 -0.0475293 8.12518e-19)
(1.39697 -0.0529903 -4.41595e-19)
(2.00851 -0.0326705 -1.39479e-18)
(2.44282 -0.0313847 5.8737e-19)
(0.202098 -0.0456999 -1.87397e-19)
(1.26973 -0.000239107 -5.78961e-19)
(2.0514 0.0601668 1.93988e-18)
(2.43631 0.0926772 2.11166e-18)
(2.51061 0.102359 -5.99494e-19)
(0.584268 -0.00458435 -3.21489e-19)
(1.8028 0.182386 -6.78578e-19)
(2.3514 0.259107 2.07193e-18)
(2.50451 0.27264 2.23071e-18)
(2.5833 0.252098 7.4788e-19)
(-0.041349 0.327443 1.80462e-19)
(-0.153562 0.44832 6.94599e-20)
(-0.248571 0.41661 -2.8793e-19)
(-0.327472 0.358248 3.03709e-20)
(-0.371743 0.294164 -2.07913e-22)
(-0.0976072 0.431141 -2.02834e-20)
(-0.202932 0.623151 -2.62655e-19)
(-0.264574 0.5896 7.30084e-20)
(-0.298936 0.510907 7.25612e-20)
(-0.294154 0.421963 -1.36132e-19)
(-0.139762 0.414275 -2.51417e-19)
(-0.218336 0.703524 1.55528e-19)
(-0.21557 0.69807 -9.98517e-20)
(-0.168408 0.586742 -6.35864e-19)
(-0.101493 0.460253 4.77484e-21)
(-0.122395 0.25238 -2.81852e-20)
(-0.194862 0.564754 2.097e-20)
(-0.167163 0.645243 5.78311e-20)
(-0.0852415 0.586883 3.67447e-19)
(0.0433479 0.439831 -7.29267e-20)
(-0.0910812 0.114523 -6.59473e-20)
(-0.183237 0.319484 -8.42199e-20)
(-0.153508 0.426237 -6.45852e-20)
(-0.0455596 0.43 -8.7284e-20)
(0.233937 0.351598 -3.58516e-19)
(-0.383527 -0.101102 -9.7919e-19)
(0.17969 -0.420646 3.07149e-19)
(0.618964 -0.292488 3.70868e-21)
(0.855461 -0.190926 -1.56123e-21)
(1.00663 -0.0879239 -2.865e-21)
(0.0417896 -0.187209 1.41275e-18)
(0.391096 -0.55449 -1.34504e-19)
(0.717062 -0.38584 4.04764e-20)
(0.904608 -0.241685 3.39411e-20)
(1.02375 -0.107506 1.04823e-20)
(0.690536 -0.293022 5.44208e-19)
(0.813435 -0.616833 7.36427e-19)
(0.916609 -0.443448 -3.62657e-20)
(0.993392 -0.276551 6.57032e-20)
(1.05126 -0.1215 -3.94799e-21)
(1.26888 -0.431421 -3.16627e-19)
(1.26213 -0.643098 -2.95848e-19)
(1.18031 -0.454883 -4.44104e-20)
(1.12101 -0.284739 -7.83694e-20)
(1.09079 -0.125854 2.34659e-20)
(1.62593 -0.557085 -1.30774e-19)
(1.5737 -0.654551 -6.52036e-19)
(1.39883 -0.43964 0)
(1.25133 -0.266214 8.1876e-20)
(1.13604 -0.118229 1.42278e-20)
(2.23682 -0.552035 -4.38148e-19)
(1.91014 -0.613075 2.18224e-19)
(1.58188 -0.404623 -1.10904e-20)
(1.36315 -0.224163 6.65323e-20)
(1.18018 -0.0962216 -5.18314e-20)
(2.32663 -0.540229 4.48282e-20)
(1.77959 -0.470419 1.15731e-19)
(1.38272 -0.244509 -9.17052e-21)
(1.23215 -0.122876 -6.70182e-20)
(1.12677 -0.055363 0)
(2.27392 -0.367148 -4.93341e-19)
(1.87443 -0.323047 1.57825e-20)
(1.49792 -0.176333 -9.80893e-20)
(1.29495 -0.0980545 2.95542e-20)
(1.14424 -0.0447013 -1.40725e-20)
(2.12105 -0.29289 7.25297e-20)
(1.63247 -0.220209 9.80965e-20)
(1.30281 -0.053301 -2.37492e-20)
(1.15519 0.00100639 -2.5423e-34)
(1.05049 -0.00149252 1.17067e-20)
(1.29295 -0.0777164 1.52652e-19)
(0.759536 -0.0240102 4.92635e-21)
(0.610486 0.00718061 -3.36298e-21)
(0.621546 0.00678207 -5.4454e-21)
(0.62864 0.00128887 -2.38567e-22)
(2.43985 0.264632 -9.34498e-19)
(2.66108 0.0462296 -1.14718e-18)
(2.44303 0.0660266 8.01502e-19)
(2.73074 -0.167759 5.70763e-20)
(2.08692 0.00594466 -1.60995e-20)
(2.19837 0.172277 7.58175e-20)
(2.44716 0.0237008 -4.06394e-20)
(2.31042 0.0149993 -1.41959e-19)
(2.51087 -0.158891 -1.85331e-19)
(2.36531 -0.18792 -7.82076e-21)
(2.15631 0.0913144 8.25685e-20)
(2.25345 0.0249814 9.29194e-20)
(2.26189 -0.0299948 -1.2064e-19)
(2.30588 -0.104494 4.59663e-20)
(2.3216 -0.172299 9.97825e-21)
(2.1045 0.0273209 1.23128e-19)
(2.11559 -0.00549978 1.52128e-19)
(2.19987 -0.0458667 -2.06447e-20)
(2.17346 -0.0886283 -4.35241e-20)
(2.24837 -0.127968 3.348e-20)
(1.60468 -0.0200683 1.86014e-19)
(1.56595 -0.0187027 -1.32575e-20)
(1.6205 -0.0361477 2.48137e-20)
(1.53439 -0.033417 -2.54503e-20)
(1.5954 -0.0574545 1.14233e-20)
(1.6387 0.919439 1.20165e-18)
(1.59282 1.0148 -3.62339e-19)
(1.5951 1.14253 -1.39361e-18)
(1.52806 1.18178 7.79774e-19)
(0.944848 0.85605 -1.87774e-19)
(1.9342 0.854781 -6.05515e-19)
(1.90665 0.936151 -3.25085e-18)
(1.90611 1.04594 -1.26507e-18)
(1.81882 1.05195 -4.34011e-19)
(1.1126 0.736132 -7.13297e-19)
(2.19955 0.734046 8.71992e-19)
(2.19103 0.802011 2.0519e-19)
(2.18509 0.887115 -2.51857e-18)
(2.04748 0.866292 -6.91348e-19)
(1.20148 0.568357 4.83104e-19)
(2.39468 0.601437 2.53875e-18)
(2.38166 0.64751 1.83264e-18)
(2.36678 0.697404 -2.07961e-18)
(2.14494 0.648398 -1.59628e-18)
(1.1605 0.367892 -2.77532e-19)
(2.50148 0.424097 1.22188e-18)
(2.52085 0.451717 -8.54165e-19)
(2.44078 0.472579 6.23851e-19)
(2.08358 0.408901 4.78156e-19)
(0.958134 0.158104 -4.04587e-19)
(0.563461 0.490424 -5.01249e-19)
(0.476891 0.527305 -3.76164e-19)
(0.361954 0.568517 3.90798e-20)
(0.228022 0.591798 6.10749e-21)
(0.0583868 0.437267 9.70878e-20)
(0.669363 0.684113 1.78339e-19)
(0.605205 0.753349 -2.13659e-19)
(0.52037 0.829911 1.87978e-19)
(0.398785 0.876215 -8.91682e-20)
(0.175062 0.653611 1.2434e-19)
(0.81438 0.837526 8.10144e-20)
(0.739352 0.91644 5.17487e-19)
(0.681313 1.01977 1.31592e-19)
(0.597332 1.08091 -3.33099e-19)
(0.327815 0.806207 2.82724e-19)
(1.08773 0.95138 3.12183e-19)
(1.03663 1.0441 -8.76916e-19)
(0.982129 1.14502 -2.20383e-18)
(0.897572 1.20194 8.72356e-19)
(0.531003 0.892614 -1.73016e-19)
(1.22907 0.957062 -1.39934e-19)
(1.24615 1.08331 -2.18507e-19)
(1.25912 1.20604 -3.8465e-19)
(1.2009 1.24668 -4.47221e-19)
(0.737949 0.910452 -7.15626e-21)
(0.929815 0.028132 -1.05942e-19)
(1.0684 0.0558339 -3.76778e-20)
(1.00527 0.139692 -2.11505e-21)
(0.94849 0.178915 -3.45944e-19)
(0.867944 0.304325 2.83942e-19)
(0.929374 0.0225903 7.17781e-20)
(1.07123 0.0571212 1.31603e-19)
(1.00741 0.145792 1.25753e-19)
(0.976742 0.215928 5.05305e-20)
(0.931691 0.374308 -3.24909e-20)
(0.932724 0.0183962 9.80405e-20)
(1.06382 0.0546383 -4.73104e-21)
(1.04414 0.16071 -4.98178e-21)
(0.936442 0.220865 1.7229e-19)
(1.16755 0.524438 -4.75185e-19)
(0.93313 0.0144052 -1.44347e-21)
(1.06932 0.0518683 -1.70257e-19)
(1.04403 0.174941 -6.68287e-20)
(1.01808 0.231931 -4.34232e-19)
(1.20302 0.539778 1.16808e-19)
(0.933094 0.0102112 -2.12918e-20)
(1.06775 0.0533573 4.5681e-20)
(1.08179 0.180664 3.28255e-20)
(0.996571 0.246738 4.73723e-19)
(1.48819 0.69636 -4.48849e-19)
(0.917389 0.00695189 -1.72903e-20)
(1.09925 0.03806 9.00952e-20)
(1.07081 0.202503 -9.07015e-20)
(1.15257 0.186004 8.41383e-19)
(1.38469 0.650451 -4.26547e-19)
(0.916082 -0.0105301 -2.12545e-21)
(1.11245 0.0285082 -8.1238e-20)
(1.06784 0.15722 4.85989e-21)
(1.25237 0.159763 -2.7353e-19)
(1.45244 0.42845 1.43745e-20)
(0.924197 -0.01744 -6.6648e-21)
(1.10058 0.0194478 1.28606e-35)
(1.11289 0.119268 -4.29796e-20)
(1.30074 0.0930193 9.07938e-20)
(1.4838 0.308709 1.63403e-19)
(0.938163 -0.0428021 5.03166e-21)
(1.05739 -0.0108229 -2.41214e-20)
(1.15864 0.0465608 1.87368e-20)
(1.25289 0.0546254 3.50047e-20)
(1.49934 0.194956 -2.46904e-19)
(0.884448 -0.0230936 -3.57611e-20)
(0.874228 -0.0218695 -2.4035e-21)
(0.891361 0.00538129 2.84004e-20)
(0.921346 0.00711576 -1.53173e-20)
(1.16836 0.0590441 -5.60907e-20)
(1.87153 0.734508 3.55551e-19)
(1.96237 0.701555 8.64446e-19)
(2.2217 0.597435 -1.20698e-18)
(2.27654 0.524169 7.30802e-20)
(2.49849 0.330459 4.9258e-19)
(1.77035 0.50393 2.84316e-20)
(1.82413 0.443655 9.75069e-19)
(2.01535 0.409204 9.56429e-20)
(2.03462 0.324075 -9.75643e-19)
(2.26623 0.219175 -3.0745e-19)
(1.70932 0.342555 -2.1005e-19)
(1.80675 0.279373 -1.5436e-19)
(1.91872 0.273948 1.90438e-19)
(2.00138 0.193256 -3.15304e-19)
(2.12117 0.15685 2.81375e-19)
(1.69237 0.206862 3.41463e-19)
(1.7872 0.161926 -4.29761e-21)
(1.85834 0.153914 2.34228e-19)
(1.96109 0.0973426 2.0799e-19)
(2.00914 0.0765073 -1.99502e-19)
(1.37067 0.0486904 -4.11659e-20)
(1.43769 0.0290621 2.35885e-19)
(1.48758 0.0211808 1.11635e-19)
(1.5446 0.00113717 -2.36577e-19)
(1.55359 -0.00282609 3.98071e-22)
(1.06746 -0.0180848 5.53049e-20)
(2.04028 -0.0485108 -3.69078e-19)
(2.27618 -0.0382395 1.0133e-18)
(2.25206 -0.00166486 4.39862e-19)
(2.12612 0.0319835 -3.0931e-19)
(0.658239 0.0893068 9.47942e-20)
(1.82039 0.0759551 -3.70996e-19)
(2.28094 0.0749546 -4.84276e-19)
(2.36709 0.0849474 5.58243e-19)
(2.09219 0.0689428 -3.15783e-19)
(0.199917 0.0700063 -2.17307e-20)
(1.18998 0.128649 3.84789e-19)
(1.92372 0.141513 5.12446e-20)
(2.30399 0.12474 2.18381e-19)
(2.54204 0.125618 4.14849e-20)
(-0.0361403 -0.0209853 1.73696e-19)
(0.408476 0.0651703 1.74972e-19)
(1.14535 0.122801 -3.58408e-19)
(1.61527 0.139141 1.40828e-20)
(2.16626 0.152646 -1.23224e-19)
(-0.0814903 -0.0586896 1.22233e-19)
(-0.00519047 -0.0346109 -1.43567e-19)
(0.362383 0.0235165 -3.38083e-20)
(0.823637 0.0369673 1.49302e-20)
(1.09637 0.0399485 -6.92196e-20)
(-0.0470197 -0.0436268 -4.32068e-20)
(-0.091151 -0.107295 9.37084e-20)
(-0.0194266 -0.138256 8.78837e-20)
(0.150642 -0.134173 -1.01327e-19)
(0.378255 -0.134754 -8.57098e-21)
(-0.0490696 -0.0981857 -8.16363e-22)
(-0.0945894 -0.234403 -2.46134e-22)
(-0.0858187 -0.279257 1.0002e-20)
(-0.0378169 -0.260784 4.9742e-20)
(0.0569566 -0.217494 2.56552e-20)
(-0.0550299 -0.110544 -6.64046e-21)
(-0.141806 -0.19059 -2.11057e-19)
(-0.192068 -0.175885 1.95519e-19)
(-0.219338 -0.141441 4.53989e-19)
(-0.213251 -0.116404 -5.45364e-20)
(-0.0190764 0.0197019 1.44743e-20)
(-0.131587 0.003054 7.49793e-20)
(-0.230757 -0.0110526 -1.82115e-19)
(-0.305613 -0.0138263 -1.82039e-19)
(-0.345712 -0.0141051 -1.03617e-20)
(-0.00837404 0.178009 -4.28961e-21)
(-0.113801 0.232981 1.80176e-20)
(-0.216914 0.212596 -1.14036e-20)
(-0.304811 0.182382 4.34652e-20)
(-0.359017 0.148552 1.03029e-19)
(1.36025 0.288445 -2.62966e-20)
(1.31801 0.0711287 8.3969e-19)
(1.10892 0.0459919 -5.76514e-20)
(0.980886 0.0607069 -3.61415e-20)
(1.01597 0.0252977 -3.70886e-22)
(0.809339 0.162696 8.20643e-20)
(0.609948 0.122873 -3.97246e-19)
(0.71381 0.081225 -1.66424e-19)
(0.837475 0.0288502 -6.99307e-21)
(0.991684 -0.00135683 -9.00772e-21)
(-0.00782488 0.0996881 1.40828e-19)
(0.17463 0.0610797 -6.85342e-19)
(0.573351 -0.00346579 1.96662e-20)
(0.806462 -0.0187257 7.32282e-20)
(0.98536 -0.0160622 3.98119e-21)
(-0.404741 0.0322013 9.83737e-20)
(0.116656 -0.0731166 -4.67562e-21)
(0.567117 -0.09583 5.59334e-20)
(0.812353 -0.0811809 1.15877e-21)
(0.98879 -0.0444507 4.2433e-21)
(-0.483552 -0.0302876 7.66514e-20)
(0.129805 -0.244011 1.25766e-19)
(0.585103 -0.191609 -2.95842e-20)
(0.830378 -0.134601 -2.48493e-21)
(0.996098 -0.0653485 5.94954e-21)
(0.697836 0.0980123 -5.58527e-20)
(0.255663 -0.0590364 0)
(0.334196 -0.0815641 -2.7132e-20)
(0.462717 -0.0567786 3.7337e-20)
(0.554854 -0.021049 -1.13972e-21)
(1.80873 0.363489 0)
(1.66722 0.184097 0)
(1.50844 0.0149751 3.27053e-19)
(1.23433 -0.00928743 4.16927e-20)
(1.06745 -0.00136435 7.46444e-22)
(0.683158 -0.000470614 -1.17222e-19)
(0.717193 -0.00485237 1.81736e-19)
(0.917296 -0.0198715 -2.38217e-20)
(1.04519 0.00312915 2.22877e-19)
(1.3554 0.0290302 1.49599e-19)
(1.55391 0.0195876 1.10758e-19)
(1.64325 0.065575 1.97908e-19)
(1.89099 0.00109802 -8.09691e-21)
(2.44642 0.14292 -1.08906e-19)
(2.06747 0.0244867 -5.78005e-20)
(0.843722 -0.408106 -4.05642e-20)
(0.817945 -0.487742 -1.30298e-19)
(0.799066 -0.575895 -7.71751e-20)
(0.725442 -0.637576 4.70779e-20)
(0.434114 -0.496759 1.0911e-19)
(0.731109 -0.315073 1.16931e-19)
(0.677888 -0.373857 2.56422e-19)
(0.606749 -0.438023 -1.82486e-20)
(0.495735 -0.488993 1.15763e-19)
(0.262972 -0.385062 4.95304e-20)
(0.594886 -0.17641 -1.4544e-19)
(0.509793 -0.208502 -4.12355e-20)
(0.409058 -0.250673 1.37866e-19)
(0.294526 -0.290378 -3.38174e-21)
(0.124511 -0.234394 -9.49507e-20)
(0.512336 0.0520535 -3.93704e-19)
(0.430595 0.0436577 -3.35503e-19)
(0.324269 0.0248099 2.69226e-19)
(0.201113 -0.00773609 1.80994e-19)
(0.0480958 -0.0318871 1.36577e-20)
(0.498894 0.250285 -1.68861e-19)
(0.417313 0.262739 -1.66683e-19)
(0.307724 0.276374 -8.17525e-20)
(0.177625 0.284834 6.41337e-21)
(0.023094 0.205851 9.55966e-21)
(1.88135 -0.0387729 6.69021e-19)
(2.14465 -0.0981136 2.1517e-19)
(2.19964 -0.176126 -5.99893e-19)
(2.04609 -0.203388 -1.24618e-18)
(1.21644 -0.1705 1.08095e-19)
(1.86653 -0.106384 1.13768e-18)
(1.9377 -0.211181 1.52924e-18)
(1.95316 -0.325446 1.30024e-19)
(1.86939 -0.382707 2.30981e-19)
(1.18621 -0.327036 -1.51981e-19)
(1.59197 -0.255594 -2.94048e-18)
(1.65448 -0.36559 3.08682e-19)
(1.69133 -0.480657 9.27055e-19)
(1.62154 -0.549668 -3.3681e-19)
(1.04231 -0.458044 5.39614e-19)
(1.39037 -0.364873 6.78389e-19)
(1.40264 -0.454386 -1.82238e-18)
(1.38403 -0.561755 -2.05629e-18)
(1.30986 -0.640666 6.19729e-19)
(0.837968 -0.522168 4.47474e-19)
(1.131 -0.407686 1.23749e-19)
(1.08631 -0.493393 2.14623e-19)
(1.06491 -0.602518 -3.07371e-19)
(0.999783 -0.679296 -3.72529e-19)
(0.625475 -0.535852 -3.39254e-21)
(0.947295 0.0444232 6.0676e-21)
(1.0453 0.0739716 -4.01863e-21)
(1.03944 0.0580461 -1.46931e-20)
(0.78083 0.00827544 -1.59719e-19)
(1.03935 -0.15357 -8.58391e-21)
(0.947792 0.0453485 -2.69002e-21)
(1.04143 0.0710266 5.06008e-20)
(1.05618 0.0900258 -6.09575e-20)
(0.840797 0.0451417 6.7134e-20)
(0.914863 -0.0489915 -1.81005e-20)
(0.946914 0.0406058 -5.89486e-20)
(1.03595 0.065997 4.01517e-22)
(1.0597 0.102133 -2.16636e-20)
(0.846141 0.0819933 -1.38959e-20)
(0.883294 0.00508448 -1.31538e-19)
(0.940322 0.037698 7.90917e-20)
(1.04799 0.0587207 3.99058e-21)
(1.03165 0.120077 3.50024e-20)
(0.899566 0.11152 5.66629e-20)
(0.807618 0.110684 1.09881e-19)
(0.933499 0.033009 1.94469e-20)
(1.0614 0.0572419 -3.3078e-20)
(1.00909 0.128008 4.44861e-20)
(0.937088 0.152262 9.27354e-20)
(0.79688 0.200298 -1.23059e-19)
(0.859617 0.033314 0)
(0.759207 0.0296871 1.08652e-20)
(0.557488 0.0174725 1.68242e-22)
(0.495676 -0.00909999 3.60394e-20)
(0.645219 -0.0393543 -1.18627e-19)
(0.94097 0.0651498 -5.92366e-20)
(1.0387 0.0843615 -1.73289e-20)
(0.920705 0.046026 -2.30961e-20)
(0.874223 0.00118333 -8.9386e-20)
(0.947218 -0.146822 -1.23175e-19)
(0.896716 -0.048427 -2.4667e-20)
(0.970732 -0.01516 4.30996e-19)
(1.03997 0.0463032 2.6404e-19)
(0.904947 0.0525489 3.23794e-20)
(0.694075 0.0258446 0)
(1.20014 -0.276561 2.53669e-19)
(1.30677 -0.247777 1.23344e-18)
(1.47349 -0.135292 -1.36597e-18)
(1.56192 -0.0142156 -4.14766e-19)
(1.45459 0.0258932 3.16911e-19)
)
;

boundaryField
{
    left
    {
        type            fixedValue;
        value           uniform (1 0 0);
    }
    right
    {
        type            zeroGradient;
    }
    down
    {
        type            noSlip;
    }
    up
    {
        type            noSlip;
    }
    cylinder
    {
        type            noSlip;
    }
    defaultFaces
    {
        type            empty;
    }
}


// ************************************************************************* //
