/*--------------------------------*- C++ -*----------------------------------*\
  =========                 |
  \\      /  F ield         | OpenFOAM: The Open Source CFD Toolbox
   \\    /   O peration     | Website:  https://openfoam.org
    \\  /    A nd           | Version:  13
     \\/     M anipulation  |
\*---------------------------------------------------------------------------*/
FoamFile
{
    format      ascii;
    class       volVectorField;
    location    "7.785";
    object      U;
}
// * * * * * * * * * * * * * * * * * * * * * * * * * * * * * * * * * * * * * //

dimensions      [0 1 -1 0 0 0 0];

internalField   nonuniform List<vector> 
440
(
(-0.0723207 0.058595 -6.9253e-20)
(-0.0679767 0.105696 3.01242e-20)
(0.0831111 0.0944918 2.50137e-20)
(0.536395 0.0881013 3.09807e-19)
(0.556082 0.172134 -4.417e-22)
(-0.0646731 0.0344905 3.0855e-20)
(0.114195 -0.00892543 -1.33394e-19)
(0.621409 -0.0545484 -9.62488e-20)
(1.18761 -0.0850893 3.20237e-20)
(1.67233 -0.0943004 -1.20135e-20)
(0.00892629 -0.00688374 4.54855e-20)
(0.5855 -0.062994 8.25302e-19)
(1.3878 -0.0552765 -5.16614e-19)
(1.96863 -0.0258184 -1.51427e-18)
(2.49235 -0.0146985 6.45485e-19)
(0.242056 -0.0547112 -1.75312e-19)
(1.30198 -0.00544396 -6.26064e-19)
(2.07379 0.0593449 1.94273e-18)
(2.49789 0.0918932 2.16601e-18)
(2.53539 0.106467 -5.75546e-19)
(0.627563 -0.00379843 -3.12937e-19)
(1.84369 0.182589 -6.87427e-19)
(2.37664 0.251979 2.11507e-18)
(2.48143 0.260202 2.17566e-18)
(2.56781 0.231561 7.24525e-19)
(-0.038785 0.178184 2.15923e-19)
(-0.152322 0.167665 1.15253e-19)
(-0.259679 0.121753 -3.66951e-19)
(-0.351418 0.0722566 3.88605e-20)
(-0.405061 4.73761e-05 5.786e-20)
(-0.0754904 0.298477 -5.68618e-20)
(-0.155184 0.367336 -4.00478e-19)
(-0.219932 0.331166 9.32026e-20)
(-0.278311 0.269473 9.39245e-20)
(-0.298986 0.1787 -1.79061e-19)
(-0.114 0.313935 -3.58453e-19)
(-0.165778 0.468508 3.4731e-19)
(-0.173047 0.463869 -1.58119e-19)
(-0.15187 0.408701 -8.77849e-19)
(-0.123983 0.319627 6.00747e-21)
(-0.0991209 0.207925 -1.32413e-21)
(-0.123506 0.387396 -4.40684e-20)
(-0.0861251 0.430592 6.71106e-20)
(-0.0137037 0.409633 6.89251e-19)
(0.0431688 0.36455 -1.43903e-19)
(-0.0749663 0.0974748 -1.99528e-20)
(-0.113762 0.21337 -2.97441e-20)
(-0.0873588 0.258575 -3.34676e-20)
(0.052211 0.258526 -9.67455e-20)
(0.10739 0.325273 -4.47909e-19)
(-0.441833 -0.514591 -1.0482e-18)
(0.426226 -0.559105 2.46707e-19)
(0.930997 0.712651 -9.4369e-22)
(-0.194075 0.628398 -3.23099e-19)
(0.846093 -0.144268 -3.44334e-19)
(-0.00882195 -0.579922 1.41508e-18)
(-0.183735 -0.761986 -7.83673e-20)
(0.874239 0.772756 -5.91096e-20)
(-0.0738705 0.616088 -1.55846e-20)
(1.07853 -0.29287 5.48178e-19)
(0.433276 -0.5253 6.66392e-19)
(-0.45913 -0.905366 -9.45534e-20)
(0.964878 0.681658 4.64188e-20)
(0.243859 0.579217 -4.96169e-19)
(1.38641 -0.43278 4.31285e-20)
(1.06374 -0.429653 -4.00241e-19)
(0.220214 -0.933186 -1.35873e-19)
(0.399359 0.569336 8.45551e-19)
(0.809377 0.510834 4.88587e-19)
(1.72819 -0.524889 -2.99425e-19)
(1.62091 -0.504367 -1.87036e-19)
(1.2593 -0.792837 1.12445e-18)
(-0.613177 0.375994 0)
(1.59548 0.220096 -1.17473e-19)
(1.99509 -0.592844 -2.24514e-19)
(1.99614 -0.516184 -5.18218e-19)
(2.36028 -0.495443 1.07492e-19)
(0.0735865 0.264872 1.36796e-20)
(2.18485 -0.207922 -6.78056e-20)
(2.13916 -0.624564 5.06377e-19)
(2.37259 -0.592139 7.17207e-20)
(1.94889 -0.288215 -5.25401e-20)
(1.03576 0.40409 1.11241e-20)
(2.59693 -0.408118 2.16691e-19)
(2.08667 -0.561385 0)
(2.34165 -0.362377 -5.44761e-19)
(1.6104 -0.0489904 2.34094e-20)
(1.66037 0.112176 3.35299e-19)
(2.52903 -0.515112 -1.90228e-19)
(1.61832 -0.423548 7.07472e-20)
(2.03303 -0.252286 1.00561e-20)
(1.47302 -0.0391953 1.24677e-19)
(1.88879 -0.0466581 8.74231e-21)
(1.93604 -0.421731 1.2773e-33)
(0.896083 -0.254537 -1.399e-20)
(1.17205 -0.036812 1.03698e-19)
(0.951204 -0.00456628 -1.07173e-20)
(1.06245 -0.117882 -3.55741e-20)
(0.375736 -0.0502844 9.8278e-20)
(-0.249236 0.0248156 -3.31135e-20)
(2.42439 0.244105 -8.69989e-19)
(2.66995 0.0178638 -1.17801e-18)
(2.46972 0.0762881 8.64977e-19)
(2.78969 -0.155844 7.01529e-20)
(2.09273 0.0603102 -2.92098e-20)
(2.1229 0.185178 6.97783e-20)
(2.48079 -0.0313122 -4.13639e-20)
(2.26468 0.0355141 -1.48478e-19)
(2.53881 -0.189945 -2.24699e-19)
(2.36888 -0.164314 -7.79018e-21)
(2.12183 0.0792233 7.90097e-20)
(2.26892 -0.0191977 1.00548e-19)
(2.22658 -0.0354862 -1.39168e-19)
(2.30355 -0.122569 4.94871e-20)
(2.3034 -0.164567 2.86228e-20)
(2.07914 0.0122951 1.1672e-19)
(2.05494 -0.0311514 1.37926e-19)
(2.15012 -0.0448071 -1.83938e-20)
(2.09981 -0.0887576 -1.62619e-20)
(2.19346 -0.106174 2.34139e-20)
(1.47701 -0.00810296 1.76253e-19)
(1.40465 -0.00937713 -1.21801e-20)
(1.49441 -0.02178 2.24679e-20)
(1.38706 -0.018245 -1.83255e-20)
(1.49407 -0.0383838 2.2451e-20)
(1.58819 0.831493 1.16184e-18)
(1.53917 0.931919 -3.75724e-19)
(1.53716 1.06634 -1.40205e-18)
(1.4692 1.11675 7.56023e-19)
(0.90209 0.804343 -1.76977e-19)
(1.87317 0.802086 -6.00417e-19)
(1.84022 0.878252 -3.08686e-18)
(1.84897 0.984612 -1.18136e-18)
(1.76096 0.999646 -4.26427e-19)
(1.07955 0.706952 -6.87186e-19)
(2.19066 0.666441 7.62944e-19)
(2.16768 0.738535 2.09084e-19)
(2.13739 0.831378 -2.29306e-18)
(2.00814 0.82295 -6.57382e-19)
(1.19736 0.55491 5.094e-19)
(2.35847 0.556828 2.31417e-18)
(2.34341 0.607451 1.71489e-18)
(2.34567 0.661743 -2.01521e-18)
(2.13469 0.62308 -1.522e-18)
(1.18418 0.370189 -2.95506e-19)
(2.5097 0.39391 1.15133e-18)
(2.52721 0.418627 -8.56909e-19)
(2.42465 0.447918 5.93461e-19)
(2.10139 0.398058 4.99568e-19)
(1.0049 0.166492 -4.30226e-19)
(0.566473 0.491067 -6.27559e-19)
(0.475232 0.528809 -4.63137e-19)
(0.358482 0.566138 4.88236e-20)
(0.224243 0.570868 2.09644e-22)
(0.0557324 0.411732 9.31935e-20)
(0.681454 0.652588 1.25661e-19)
(0.618168 0.711008 -2.95352e-19)
(0.530471 0.778473 1.93369e-19)
(0.405492 0.837581 -8.9629e-20)
(0.17854 0.639502 1.26361e-19)
(0.769874 0.854402 1.20725e-19)
(0.697801 0.937728 4.92124e-19)
(0.645533 1.03506 1.13992e-19)
(0.565092 1.07112 -3.18486e-19)
(0.311912 0.787683 2.66791e-19)
(1.06273 0.913458 2.34923e-19)
(1.01445 0.993772 -7.15412e-19)
(0.962638 1.09136 -1.96634e-18)
(0.881119 1.16055 7.89437e-19)
(0.520635 0.863917 -1.70804e-19)
(1.11352 0.968942 -1.0682e-19)
(1.15526 1.09099 -1.85521e-19)
(1.18577 1.20352 -3.75555e-19)
(1.13487 1.22111 -4.22868e-19)
(0.699148 0.871385 -6.75233e-21)
(1.00978 0.0602846 -1.06084e-19)
(0.988247 0.0294755 -4.00559e-20)
(1.04019 0.130201 -1.60581e-21)
(0.944428 0.14624 -3.10146e-19)
(0.893869 0.300239 3.31507e-19)
(0.997175 0.059275 6.72847e-20)
(1.00147 0.0248991 1.42137e-19)
(1.03145 0.139206 1.42471e-19)
(0.984906 0.172885 4.50809e-20)
(0.934824 0.383328 -2.17437e-20)
(1.00105 0.0587941 9.21425e-20)
(0.988634 0.0173131 -5.42164e-21)
(1.07749 0.157096 -6.26513e-21)
(0.943366 0.171383 1.6285e-19)
(1.14893 0.529021 -5.29725e-19)
(0.99425 0.0594113 -3.89624e-22)
(1.00952 0.00549289 -1.90001e-19)
(1.07548 0.173551 -7.17993e-20)
(1.0409 0.176764 -4.10044e-19)
(1.15949 0.582203 9.66341e-20)
(0.989772 0.0523198 -1.59137e-20)
(1.01824 0.00508261 5.63794e-20)
(1.12828 0.175168 3.38982e-20)
(1.0121 0.207501 4.90601e-19)
(1.39042 0.71316 -5.01466e-19)
(0.950309 0.0542284 -9.75998e-21)
(1.09879 -0.0251949 1.19357e-19)
(1.10992 0.207246 -8.20938e-20)
(1.25922 0.127973 9.61582e-19)
(1.29717 0.762913 -3.74119e-19)
(0.897112 0.0216424 -1.63952e-21)
(1.19873 -0.0316175 -1.03743e-19)
(1.03609 0.131919 5.00407e-21)
(1.3679 0.138009 -2.87017e-19)
(1.21199 0.526071 -5.88149e-20)
(0.951381 0.0091622 -4.17507e-21)
(1.16673 -0.0455613 1.52584e-35)
(1.05885 0.112348 -3.09912e-20)
(1.26405 0.112673 9.11552e-20)
(1.34954 0.353688 1.88127e-19)
(1.07694 -0.0441214 4.39805e-21)
(0.99841 -0.0485555 -2.96983e-20)
(1.11581 0.0732038 1.86755e-20)
(1.16009 0.0600762 2.77183e-20)
(1.564 0.20137 -2.90382e-19)
(0.995023 -0.0240995 -4.1693e-20)
(0.756704 -0.0206229 -4.82491e-21)
(0.899851 0.0142538 2.28159e-20)
(0.893167 -0.00451247 -1.81586e-20)
(1.17891 0.0435218 -6.64731e-20)
(1.84893 0.605881 3.03675e-19)
(1.91898 0.647076 7.6424e-19)
(2.20862 0.492773 -1.09903e-18)
(2.24458 0.480495 -3.0993e-20)
(2.48752 0.268122 5.00493e-19)
(1.78172 0.379518 9.86263e-20)
(1.75063 0.429128 1.06748e-18)
(2.06247 0.304699 1.38575e-19)
(1.9602 0.328943 -9.77895e-19)
(2.31647 0.13674 -2.91323e-19)
(1.73339 0.280164 -2.53159e-19)
(1.8047 0.264616 -1.62808e-19)
(1.97396 0.203268 1.66163e-19)
(1.98266 0.183581 -3.0739e-19)
(2.16369 0.0896976 2.7744e-19)
(1.73722 0.142574 3.99098e-19)
(1.84782 0.118273 -5.8428e-21)
(1.87976 0.0874985 2.35244e-19)
(1.97898 0.0674014 2.04567e-19)
(1.9837 0.0267029 -1.93378e-19)
(1.32496 0.0334564 -4.82208e-20)
(1.38744 0.024271 2.57931e-19)
(1.38963 0.0174974 1.16158e-19)
(1.44372 0.00788159 -2.31322e-19)
(1.40755 0.00197612 2.36148e-22)
(1.11016 -0.0239775 4.81521e-20)
(2.13195 -0.0533622 -3.88349e-19)
(2.37278 -0.0435846 1.09942e-18)
(2.35075 -0.0020606 4.89376e-19)
(2.22166 0.0293374 -3.32747e-19)
(0.66637 0.0869127 8.07716e-20)
(1.90139 0.0700317 -3.96933e-19)
(2.3817 0.0718253 -5.20217e-19)
(2.46097 0.0827185 6.21475e-19)
(2.17714 0.0731863 -3.71594e-19)
(0.176002 0.0634371 -3.25074e-20)
(1.24251 0.126041 4.00293e-19)
(2.02207 0.142494 5.81904e-20)
(2.42282 0.134458 2.83867e-19)
(2.65477 0.132848 1.03026e-19)
(-0.0652253 -0.0392151 1.84894e-19)
(0.398542 0.0468112 1.78176e-19)
(1.2082 0.117281 -3.5829e-19)
(1.71855 0.144648 1.62747e-20)
(2.31541 0.175556 -5.66256e-20)
(-0.115319 -0.0938489 1.29892e-19)
(-0.0528669 -0.0788009 -1.37592e-19)
(0.364632 -0.00473022 -2.15753e-20)
(0.849875 0.0247554 3.31766e-20)
(1.23196 0.0663272 -4.79367e-20)
(-0.0798073 -0.0748012 6.75724e-21)
(-0.151172 -0.109628 7.97846e-20)
(-0.0774231 -0.114212 1.18113e-19)
(0.116277 -0.101304 -1.24118e-19)
(0.422919 -0.0651358 8.53409e-21)
(-0.0304424 -0.0380141 2.95609e-23)
(-0.0961569 -0.124817 -6.62038e-20)
(-0.120994 -0.21511 -5.90554e-20)
(-0.0950355 -0.279739 2.32172e-20)
(-0.0106485 -0.287828 1.32519e-20)
(-0.0207258 -0.0538171 8.41314e-21)
(-0.0585334 -0.204843 1.59881e-19)
(-0.0742314 -0.330518 -7.61012e-20)
(-0.0793177 -0.404149 -2.49551e-19)
(-0.0703886 -0.435997 4.07271e-20)
(-0.0232531 -0.0835478 -9.27134e-21)
(-0.0789141 -0.255914 -5.32724e-20)
(-0.128537 -0.349374 1.30303e-19)
(-0.175371 -0.368869 3.88746e-20)
(-0.207172 -0.35305 -3.56868e-20)
(-0.0201089 -0.00139989 9.51815e-23)
(-0.123333 -0.0941916 4.05417e-21)
(-0.232864 -0.123101 -6.56068e-21)
(-0.332612 -0.126647 4.85864e-20)
(-0.405593 -0.148153 1.32826e-19)
(1.5618 0.375054 -1.8055e-20)
(1.62266 0.293433 6.18626e-19)
(1.5887 0.15604 -4.95346e-20)
(0.786074 0.122772 -1.57171e-20)
(0.439481 0.017462 1.36428e-21)
(1.05558 0.11934 1.68752e-20)
(1.47584 0.265596 -3.23187e-19)
(1.63382 0.267221 -3.96067e-20)
(0.68965 0.258663 3.53291e-21)
(0.387775 0.0569949 1.96607e-20)
(0.226466 -0.119571 -9.50244e-20)
(1.16389 0.164643 -4.81953e-19)
(1.49736 0.365804 1.40713e-20)
(0.445735 0.404878 -3.81961e-19)
(0.406148 0.0915229 1.49078e-20)
(-0.372652 -0.205905 1.78552e-19)
(0.886903 -0.0224907 6.05874e-19)
(1.29546 0.470024 -1.07369e-19)
(0.148078 0.523656 -3.70317e-21)
(0.508638 0.0699291 -1.55635e-19)
(-0.645342 -0.339238 1.01799e-19)
(0.722046 -0.295182 4.74216e-20)
(1.11014 0.592623 1.46615e-19)
(-0.101476 0.605799 7.78792e-21)
(0.662936 -0.0110372 -5.49645e-19)
(0.695505 0.176475 -2.67308e-20)
(-0.120182 -0.0678424 0)
(-0.133469 -0.110368 -1.7776e-20)
(-0.0650358 -0.0646794 5.63618e-20)
(0.179386 -0.0269479 -1.07525e-20)
(2.06504 0.389832 0)
(1.53377 0.331642 0)
(1.25981 0.097304 3.47475e-19)
(0.67328 -0.0326991 9.38315e-20)
(0.504296 -0.0432385 -3.55113e-21)
(0.704988 -0.000163032 -1.13004e-19)
(0.762221 -0.00291946 1.78537e-19)
(0.931495 -0.0196966 -1.57329e-20)
(1.08679 0.0103919 2.93888e-19)
(1.38123 0.0453525 1.862e-19)
(1.61324 0.0185254 1.06836e-19)
(1.73811 0.0694277 2.12987e-19)
(1.94481 0.0167684 -3.26418e-20)
(2.57189 0.152367 -5.53397e-20)
(2.16706 0.071435 3.29359e-20)
(0.886298 -0.455432 -2.56491e-20)
(0.870909 -0.540858 -1.39128e-19)
(0.857936 -0.633077 -1.04849e-19)
(0.782544 -0.696511 6.56199e-20)
(0.469153 -0.540957 1.13664e-19)
(0.783495 -0.358074 1.31098e-19)
(0.725564 -0.419445 2.7305e-19)
(0.649684 -0.486142 -3.05759e-20)
(0.536381 -0.542001 1.1811e-19)
(0.287411 -0.426371 4.32334e-20)
(0.633749 -0.216727 -1.71691e-19)
(0.544236 -0.252636 -4.25059e-20)
(0.442673 -0.298494 1.44955e-19)
(0.324662 -0.339473 -6.35459e-21)
(0.139863 -0.268723 -9.91514e-20)
(0.538594 0.0160624 -4.45878e-19)
(0.45207 0.00391168 -3.70192e-19)
(0.342307 -0.0171823 2.85487e-19)
(0.216155 -0.0467812 1.8748e-19)
(0.0554183 -0.0557832 1.36971e-20)
(0.519582 0.221371 -1.868e-19)
(0.434226 0.226511 -1.82828e-19)
(0.318478 0.230303 -8.5971e-20)
(0.181852 0.23746 1.34672e-20)
(0.0253879 0.18008 1.18376e-20)
(1.94822 -0.0434227 7.25639e-19)
(2.22475 -0.106743 2.57196e-19)
(2.28926 -0.188235 -6.79161e-19)
(2.13394 -0.215069 -1.37127e-18)
(1.26517 -0.181307 1.03516e-19)
(1.94829 -0.120381 1.23503e-18)
(2.02404 -0.228203 1.62644e-18)
(2.04025 -0.346121 1.32859e-19)
(1.9579 -0.402472 2.28015e-19)
(1.24006 -0.344688 -1.49816e-19)
(1.65251 -0.278572 -3.23024e-18)
(1.72114 -0.391413 3.83826e-19)
(1.7662 -0.509981 1.0018e-18)
(1.69995 -0.579791 -3.87088e-19)
(1.09167 -0.482869 6.01431e-19)
(1.46096 -0.394345 7.60299e-19)
(1.47495 -0.487638 -1.99804e-18)
(1.45568 -0.59932 -2.33085e-18)
(1.38318 -0.680963 7.15028e-19)
(0.883686 -0.553394 4.70058e-19)
(1.17609 -0.449037 1.57427e-19)
(1.12786 -0.537799 2.15142e-19)
(1.1171 -0.653613 -3.45327e-19)
(1.06006 -0.733517 -4.17556e-19)
(0.664718 -0.575628 -3.9249e-21)
(1.04758 0.0588199 8.16959e-21)
(0.924287 0.0514135 -7.05601e-21)
(1.11719 0.0829992 -8.63952e-21)
(0.799966 0.0145899 -1.77884e-19)
(1.08788 -0.195466 -5.48566e-21)
(1.0645 0.0647434 -2.6748e-21)
(0.915409 0.0470277 5.78748e-20)
(1.11207 0.0999147 -6.06154e-20)
(0.884021 0.0600937 8.89404e-20)
(0.975275 -0.0794932 -2.81736e-20)
(1.06714 0.0640238 -6.66468e-20)
(0.921372 0.0424945 6.06077e-22)
(1.09622 0.100897 -2.47553e-20)
(0.881487 0.0829527 -1.1948e-24)
(0.949394 -0.0185347 -1.36087e-19)
(1.04923 0.063711 8.08712e-20)
(0.953626 0.037959 3.61782e-21)
(1.06016 0.107899 3.89073e-20)
(0.919949 0.107228 4.05513e-20)
(0.85831 0.0930832 1.29245e-19)
(1.02384 0.0610422 2.04621e-20)
(0.983737 0.0358153 -3.2999e-20)
(1.03231 0.115927 5.20043e-20)
(0.948294 0.132528 8.51384e-20)
(0.83547 0.194283 -1.46391e-19)
(0.878967 0.0336492 0)
(0.718879 0.0293119 1.07196e-20)
(0.595425 0.0236406 2.52362e-21)
(0.335615 -0.00675884 3.99976e-20)
(0.64046 -0.0507376 -1.0115e-19)
(1.01035 0.0752301 -6.60785e-20)
(0.947623 0.0700491 -2.41816e-20)
(1.01782 0.0834709 -2.4403e-20)
(0.805056 0.00779374 -8.92687e-20)
(0.992282 -0.180673 -1.07402e-19)
(0.885545 -0.0615141 -2.41598e-20)
(0.96701 -0.0307308 4.3059e-19)
(1.05182 0.0361987 2.73028e-19)
(0.931661 0.0511076 2.29035e-20)
(0.71967 0.0266213 0)
(1.25394 -0.302006 2.37622e-19)
(1.36047 -0.267658 1.27533e-18)
(1.52597 -0.152151 -1.46773e-18)
(1.62212 -0.0227908 -4.54244e-19)
(1.5117 0.0248132 3.32303e-19)
)
;

boundaryField
{
    left
    {
        type            fixedValue;
        value           uniform (1 0 0);
    }
    right
    {
        type            zeroGradient;
    }
    down
    {
        type            noSlip;
    }
    up
    {
        type            noSlip;
    }
    cylinder
    {
        type            noSlip;
    }
    defaultFaces
    {
        type            empty;
    }
}


// ************************************************************************* //
