/*--------------------------------*- C++ -*----------------------------------*\
  =========                 |
  \\      /  F ield         | OpenFOAM: The Open Source CFD Toolbox
   \\    /   O peration     | Website:  https://openfoam.org
    \\  /    A nd           | Version:  13
     \\/     M anipulation  |
\*---------------------------------------------------------------------------*/
FoamFile
{
    format      ascii;
    class       surfaceScalarField;
    location    "3.95";
    object      phi;
}
// * * * * * * * * * * * * * * * * * * * * * * * * * * * * * * * * * * * * * //

dimensions      [0 3 -1 0 0 0 0];

internalField   nonuniform List<scalar> 
3485
(
-0.00159768
0.00403421
-0.00243653
-0.00401462
0.0080202
-0.00560326
-0.00536833
0.00908335
-0.00772964
-0.00411131
0.00769544
-0.00895246
0.0010888
0.00394816
-0.00914827
0.0113514
-0.00215939
-0.00810319
0.0277005
-0.0106849
-0.00566425
0.0507604
-0.0213061
-0.00175385
0.0809731
-0.0331733
0.00296062
-0.0387444
0.00612099
0.113597
-0.000618059
0.00465226
-0.000748186
0.00815033
0.00121242
0.00712275
0.00680293
0.00210493
0.0173769
-0.00662583
0.0339913
-0.0187738
0.0571085
-0.0338021
0.086714
-0.0509116
0.122642
-0.0691016
-0.0821385
0.166036
0.000321573
0.00433069
0.00269682
0.00577508
0.00866752
0.00115206
0.0197896
-0.00901714
0.0371696
-0.0240059
0.0611765
-0.0427807
0.0912127
-0.0638383
0.125784
-0.0854831
0.163052
-0.106369
-0.123563
0.204477
0.000950974
0.00337972
0.00563797
0.00108808
0.0158343
-0.00904428
0.0327811
-0.025964
0.0568154
-0.0480401
0.0869436
-0.0729089
0.121058
-0.0979527
0.156515
-0.12094
0.190575
-0.140429
-0.155661
0.222673
0.00179169
0.00158803
0.00922516
-0.00634538
0.0239778
-0.0237969
0.0465165
-0.0485027
0.0755257
-0.0770493
0.10818
-0.105563
0.141106
-0.130879
0.171349
-0.151183
0.196936
-0.166016
-0.176152
0.217427
0.0029339
-0.00134588
0.0135002
-0.0169117
0.0326348
-0.0429315
0.0590734
-0.0749413
0.0894551
-0.107431
0.119725
-0.135834
0.146606
-0.15776
0.168325
-0.172902
0.184622
-0.182313
-0.187564
0.196033
0.00424758
-0.00559346
0.0178542
-0.0305184
0.040076
-0.0651532
0.0674102
-0.102276
0.0951352
-0.135156
0.119481
-0.160179
0.138629
-0.176908
0.152553
-0.186825
0.162231
-0.191991
-0.194332
0.168999
0.00554873
-0.0111422
0.0214074
-0.0463771
0.0445119
-0.0882577
0.0696111
-0.127375
0.0921108
-0.157656
0.109703
-0.177771
0.122205
-0.18941
0.130602
-0.195222
0.136162
-0.197552
-0.197959
0.139789
0.00659714
-0.0177393
0.0233991
-0.063179
0.045102
-0.109961
0.0659951
-0.148268
0.0827158
-0.174376
0.0944925
-0.189548
0.1021
-0.197018
0.106789
-0.199911
0.109627
-0.20039
-0.19963
0.111299
0.00720724
-0.0249466
0.0234977
-0.0794695
0.042183
-0.128646
0.0582475
-0.164332
0.0697438
-0.185873
0.0769169
-0.196721
0.0809069
-0.201008
0.0828817
-0.201886
0.0836688
-0.201177
0.083664
-0.199625
-0.00517357
0.00661491
-0.00144134
-0.0158899
0.0169808
-0.00626456
-0.0294162
0.023325
-0.00979868
-0.0443097
0.0265264
-0.0116329
-0.0598959
0.0279675
-0.0123813
-0.0758881
0.0286459
-0.0126537
-0.0921409
0.0290301
-0.0127773
-0.108532
0.0292837
-0.0128928
-0.124942
0.029484
-0.0130733
0.0299756
-0.14146
-0.013458
-0.00330729
0.0099222
-0.010881
0.0245545
-0.021249
0.0336931
-0.0333043
0.0385817
-0.0462611
0.0409243
-0.0596515
0.0420363
-0.0732224
0.042601
-0.0868123
0.0428736
-0.100277
0.0429489
0.0432182
-0.11352
-0.00054993
0.0104721
-0.00300587
0.0270105
-0.00779816
0.0384854
-0.014556
0.0453395
-0.0225505
0.0489188
-0.0311079
0.0505937
-0.0397855
0.0512785
-0.0483432
0.0514313
-0.0566206
0.0512263
0.0508819
-0.0642843
0.00186348
0.00860864
0.00463846
0.0242355
0.00632099
0.0368028
0.00614244
0.0455181
0.00428883
0.0507724
0.00138479
0.0534978
-0.00193106
0.0545944
-0.00517712
0.0546773
-0.00802591
0.0540751
0.0530698
-0.0102138
0.00310805
0.0055006
0.0095394
0.0178042
0.0168332
0.029509
0.023356
0.0389953
0.0284434
0.0456851
0.0321845
0.0497567
0.0350558
0.0517231
0.0376123
0.0521208
0.0403355
0.0513519
0.0494968
0.0439086
0.00301259
0.00248801
0.0103682
0.0104485
0.020287
0.0195902
0.0311194
0.0281629
0.0417111
0.0350934
0.0515082
0.0399596
0.0604423
0.0427889
0.06873
0.0438332
0.0766884
0.0433935
0.0413323
0.0848528
0.00206787
0.000420138
0.00789775
0.00461866
0.016782
0.010706
0.0277251
0.0172197
0.0397464
0.0230721
0.0521008
0.0276052
0.0643479
0.0305418
0.0763116
0.0318696
0.0880223
0.0316827
0.0295146
0.0998401
0.000783305
-0.000363168
0.00370758
0.00169439
0.00897998
0.00543358
0.0164001
0.00979966
0.0255124
0.0139597
0.0357997
0.0173179
0.0468247
0.0195167
0.0583202
0.0203741
0.0702862
0.0197167
0.0168071
0.0829936
-0.000734127
0.000370959
-0.00128764
0.0022479
-0.000664468
0.00481041
0.00158359
0.0075516
0.00554805
0.00999527
0.0111348
0.0117311
0.0181908
0.0124608
0.0265872
0.0119776
0.0362576
0.0100464
0.00609059
0.0469741
-0.00206557
-0.00542092
-0.00834016
-0.00974102
-0.00889402
-0.00526609
0.00153047
0.0117543
0.0247613
0.0369729
-0.229779
0.233105
-0.144786
-0.209322
0.356622
-0.37708
-0.0899312
0.264388
-0.383779
0.01752
-0.102221
-0.00523004
0.0921092
-0.381165
0.306576
0.143164
-0.42536
0.374305
0.174386
-0.402107
0.370885
0.192181
-0.31129
0.293495
0.203913
-0.25824
0.246508
-0.162594
0.1558
-0.191235
0.310821
-0.172506
0.337892
-0.0555417
0.147424
0.0493111
-0.207074
0.118748
-0.450602
0.165899
-0.472511
0.192409
-0.428618
0.206304
-0.325185
0.213835
-0.265771
-0.166608
-0.12267
0.369206
-0.10846
0.323683
-0.00763334
0.0465974
0.0852164
-0.299924
0.147917
-0.513303
0.189322
-0.513915
0.210324
-0.449619
0.220035
-0.334897
0.223624
-0.269359
-0.168063
-0.0430349
0.402027
-0.0320172
0.312665
0.0446236
-0.0300434
0.123237
-0.378537
0.177468
-0.567534
0.212132
-0.548579
0.227519
-0.465006
0.232895
-0.340273
0.232776
-0.269241
-0.167245
0.0340362
0.4119
0.0415179
0.305183
0.0971144
-0.08564
0.16075
-0.442173
0.205589
-0.612373
0.233153
-0.576144
0.243329
-0.475182
0.244588
-0.341531
0.241019
-0.265672
-0.164429
0.100475
0.396278
0.10517
0.300488
0.145287
-0.125756
0.19552
-0.492406
0.230915
-0.647769
0.25163
-0.596859
0.257208
-0.480759
0.254884
-0.339207
0.248215
-0.259004
-0.159889
0.147667
0.348451
0.15646
0.291695
0.186478
-0.155774
0.225503
-0.531431
0.252244
-0.67451
0.266984
-0.611599
0.268772
-0.482548
0.263602
-0.334037
0.254293
-0.249695
-0.153923
0.170877
0.260568
0.193315
0.269256
0.219813
-0.182271
0.249816
-0.561435
0.268961
-0.693654
0.278889
-0.621526
0.277813
-0.481472
0.270615
-0.326838
0.259223
-0.238303
-0.146859
0.165816
0.141725
0.216071
0.219002
0.245713
-0.211913
0.268182
-0.583904
0.280909
-0.706381
0.287316
-0.627933
0.284321
-0.478477
0.275868
-0.318385
0.262983
-0.225418
-0.139059
0.144701
0.033997
0.229334
0.134369
0.264949
-0.247528
0.280136
-0.599091
0.288822
-0.715067
0.292744
-0.631855
0.288573
-0.474307
0.279434
-0.309246
0.265586
-0.21157
-0.130885
0.395789
0.017228
-0.37902
0.545123
-0.0149647
0.652725
-0.35513
0.670205
-0.616572
0.634109
-0.678971
0.579035
-0.576782
0.520082
-0.415354
0.469493
-0.258657
0.423721
-0.165799
-0.102679
0.645966
0.00118558
-0.629923
0.728554
-0.0975534
0.765343
-0.391918
0.722644
-0.573873
0.652687
-0.609015
0.585202
-0.509296
0.521504
-0.351657
0.468765
-0.205917
0.422718
-0.119752
-0.0739851
0.752215
-0.0308633
-0.720167
0.792198
-0.137536
0.767066
-0.366786
0.708513
-0.515319
0.651054
-0.551556
0.592676
-0.450919
0.529057
-0.288037
0.472392
-0.149253
0.422903
-0.0702626
-0.0436652
0.76842
-0.0617085
-0.737575
0.782762
-0.151878
0.75582
-0.339844
0.716779
-0.476278
0.661972
-0.496749
0.591852
-0.380799
0.518419
-0.214604
0.457466
-0.0883
0.409069
-0.0218657
-0.0155221
0.755585
-0.0846057
-0.732688
0.764196
-0.160489
0.744455
-0.320103
0.703519
-0.435342
0.636785
-0.430014
0.558334
-0.302349
0.486587
-0.142857
0.431332
-0.0330443
0.389476
0.0199896
0.00840479
0.739982
-0.100221
-0.724367
0.74599
-0.166497
0.72556
-0.299673
0.672547
-0.382329
0.588106
-0.345573
0.499371
-0.213614
0.4296
-0.0730853
0.383709
0.0128468
0.354514
0.0491843
0.0243086
0.721377
-0.107373
-0.714225
0.719614
-0.164733
0.680282
-0.260341
0.59347
-0.295517
0.483045
-0.235149
0.392157
-0.122726
0.337081
-0.0180096
0.311136
0.0387919
0.301986
0.0583348
0.0288088
0.675318
-0.0975437
-0.685148
0.646544
-0.135959
0.563305
-0.177102
0.43608
-0.168292
0.31617
-0.115239
0.242894
-0.049449
0.216468
0.00841587
0.217321
0.0379387
0.230202
0.0454542
0.0221465
0.526622
-0.0576919
-0.566474
0.452997
-0.0623341
0.332962
-0.0570664
0.207638
-0.0429685
0.123185
-0.0307848
0.087851
-0.0141155
0.0901322
0.00613469
0.110721
0.0173498
0.136444
0.0197313
0.00965676
0.190741
-0.248433
0.128407
0.0713401
0.0283716
-0.00241327
-0.0165287
-0.0103941
0.0069557
0.026687
0.547718
0.0724879
-0.536542
0.560033
0.0989834
0.574961
0.124862
0.590814
0.153146
0.60629
0.180558
0.618316
0.205401
0.609258
0.231731
0.575666
0.238068
0.484472
0.257231
0.219049
0.528553
0.0614423
-0.517507
0.543351
0.0841849
0.559275
0.108939
0.581418
0.131003
0.601819
0.160156
0.628965
0.178255
0.647344
0.213352
0.662823
0.222589
0.660671
0.259383
0.249796
0.514814
0.0516644
-0.505036
0.529808
0.0691908
0.545225
0.0935217
0.566737
0.10949
0.588555
0.138339
0.615268
0.151542
0.64416
0.184461
0.672242
0.194507
0.704594
0.227031
0.234224
0.505374
0.0418571
-0.495567
0.519209
0.0553557
0.535228
0.0775031
0.554558
0.0901595
0.577822
0.115075
0.602586
0.126779
0.634357
0.15269
0.664797
0.164066
0.703684
0.188144
0.200333
0.498002
0.0315953
-0.487741
0.510665
0.0426935
0.52737
0.0607978
0.545635
0.0718948
0.569463
0.091247
0.593908
0.102333
0.625184
0.121414
0.656527
0.132723
0.694539
0.150132
0.162184
0.490827
0.0213767
-0.480609
0.502943
0.0305777
0.519636
0.044105
0.537873
0.0536578
0.561422
0.067698
0.58633
0.0774253
0.616721
0.0910226
0.648615
0.10083
0.685438
0.113309
0.123256
0.480355
0.0117623
-0.470741
0.492239
0.0186935
0.508452
0.0278924
0.526941
0.0351691
0.550052
0.0445867
0.575512
0.0519657
0.605512
0.0610225
0.638023
0.0683181
0.674816
0.0765155
0.0838468
0.455504
0.00349857
-0.447241
0.466511
0.00768717
0.481496
0.012907
0.499402
0.0172635
0.521484
0.0225042
0.546644
0.0268063
0.575991
0.0316751
0.608519
0.0357901
0.64519
0.0398445
0.0438885
0.383857
-0.00123531
-0.379123
0.391263
0.000281588
0.402055
0.00211427
0.415673
0.00364637
0.432831
0.00534557
0.452914
0.00672369
0.476474
0.00811459
0.503079
0.00918528
0.532879
0.0100444
0.0102936
0.192683
-0.193919
0.192965
0.195079
0.198725
0.204071
0.210795
0.218909
0.228095
0.238139
0.0712792
0.14734
-0.135712
-0.0829075
0.0605961
0.149509
-0.138825
0.05074
0.15211
-0.142254
0.0411885
0.155579
-0.146027
0.0316983
0.159259
-0.149769
0.0223665
0.162023
-0.152691
0.013627
0.161154
-0.152415
0.00630307
0.150715
-0.143391
0.00148674
0.120371
-0.115555
0.056424
-0.0549373
0.0671416
0.157751
-0.0775528
0.056887
0.159763
0.0469736
0.162024
0.037414
0.165138
0.0281179
0.168556
0.0192041
0.170937
0.0111362
0.169222
0.00471779
0.157133
0.000871175
0.124218
0.0572952
0.0593652
0.166923
-0.0685365
0.0499174
0.169211
0.0405966
0.171344
0.0315886
0.174146
0.0229401
0.177204
0.0148284
0.179049
0.00774997
0.176301
0.00254389
0.162339
-9.09567e-07
0.126763
0.0572943
0.0479509
0.1748
-0.0558283
0.0397437
0.177418
0.0314861
0.179602
0.0234314
0.182201
0.0157626
0.184873
0.00879224
0.186019
0.00308355
0.182009
-0.000460837
0.165884
-0.00110194
0.127404
0.0561923
0.0343748
0.181567
-0.041142
0.0274106
0.184383
0.0203543
0.186658
0.0134526
0.189102
0.00698985
0.191336
0.00139682
0.191612
-0.00246879
0.185875
-0.00376011
0.167175
-0.00236088
0.126004
0.0538315
0.0189184
0.187245
-0.0245961
0.013174
0.190127
0.0074016
0.192431
0.00183025
0.194674
-0.0031641
0.19633
-0.00694188
0.19539
-0.00868826
0.187621
-0.00756188
0.166049
-0.0036873
0.12213
0.0501442
0.00220952
0.192065
-0.00703007
-0.00244788
0.194784
-0.00698509
0.196968
-0.0111674
0.198856
-0.0145316
0.199694
-0.0163315
0.19719
-0.0155673
0.186857
-0.0115156
0.161997
-0.0049549
0.115569
0.0451893
-0.0165444
0.195739
0.0128707
-0.0199718
0.198212
-0.0231414
0.200137
-0.0257572
0.201472
-0.0272176
0.201155
-0.0265878
0.19656
-0.022812
0.183081
-0.0154372
0.154622
-0.00606385
0.106196
0.0391254
-0.0369776
0.198306
0.0344106
-0.0391702
0.200404
-0.0408975
0.201865
-0.0417445
0.202319
-0.0409365
0.200346
-0.0373836
0.193007
-0.03007
0.175768
-0.019025
0.143577
-0.00688319
0.0940541
0.0322422
-0.0595236
0.0582046
-0.0602965
-0.060318
-0.0590068
-0.0553812
-0.0482468
-0.0368115
-0.0218802
-0.00729564
0.110009
0.0377906
-0.122243
-0.0255562
0.0974896
0.0388249
-0.0263059
0.084675
0.0399476
-0.0271331
0.0715391
0.0411443
-0.0280084
0.0580639
0.0423966
-0.0289214
0.0442739
0.0435691
-0.0297791
0.0303541
0.0441305
-0.0302108
0.0169493
0.0425769
-0.029172
0.00571025
0.0356835
-0.0244445
0.0180791
-0.0123689
0.108606
0.049974
-0.120789
0.0962156
0.0512153
0.083543
0.0526203
0.0705572
0.0541301
0.0572327
0.055721
0.0435921
0.0572097
0.0298296
0.057893
0.0166039
0.0558027
0.00556208
0.0467253
0.0236412
0.106824
0.0619954
-0.118845
0.094534
0.063505
0.0819878
0.0651665
0.0691584
0.0669595
0.0560233
0.0688562
0.0426008
0.0706322
0.0290824
0.0714114
0.0161298
0.0687553
0.00537052
0.0574846
0.0290117
0.10447
0.0740077
-0.116483
0.0923379
0.0756374
0.0799434
0.0775611
0.0672644
0.0796385
0.0542981
0.0818224
0.0410969
0.0838335
0.0278841
0.0846241
0.0153347
0.0813047
0.00503618
0.0677831
0.0340479
0.101594
0.0857673
-0.113353
0.0896882
0.0875429
0.0776105
0.0896388
0.0652894
0.0919596
0.0526749
0.094437
0.0397989
0.0967094
0.0269055
0.0975175
0.0147088
0.0935014
0.00479152
0.0777004
0.0388394
0.0976142
0.097566
-0.109413
0.0858201
0.099337
0.0738688
0.10159
0.0617719
0.104057
0.0495194
0.106689
0.0371399
0.109089
0.0248625
0.109795
0.0133905
0.104973
0.00424611
0.0868448
0.0430855
0.0934248
0.108712
-0.104571
0.08228
0.110482
0.0709386
0.112931
0.0593071
0.115688
0.0473994
0.118597
0.0353351
0.121153
0.0234349
0.121695
0.0124545
0.115954
0.00387166
0.0954276
0.0469572
0.0859637
0.119673
-0.0969247
0.0752295
0.121216
0.0645433
0.123618
0.0537769
0.126454
0.0428199
0.129554
0.031711
0.132262
0.0207721
0.132634
0.0107941
0.125932
0.00321029
0.103011
0.0501675
0.0810272
0.128913
-0.0902671
0.0713811
0.130862
0.0611636
0.133835
0.0506025
0.137015
0.039865
0.140292
0.0291131
0.143014
0.0187157
0.143032
0.00946788
0.13518
0.00269358
0.109786
0.0528611
0.0699889
-0.0767878
0.0620255
0.0536065
0.044595
0.0351174
0.02544
0.0160566
0.00784546
0.00207623
0.20168
0.00355643
-0.00724712
0.205485
0.0243431
-0.0281476
0.209671
0.0316133
-0.0357997
0.212278
0.0487499
-0.0513561
0.214082
0.0620051
-0.0638094
0.213061
0.0771102
-0.0760891
0.208553
0.101278
-0.0967705
0.197438
0.131503
-0.120388
0.172505
0.185006
-0.160073
0.246391
-0.196129
0.201347
0.000199563
0.204636
0.0210533
0.208803
0.0274465
0.210709
0.046844
0.212604
0.0601099
0.210731
0.0789839
0.206304
0.105705
0.194522
0.143285
0.169734
0.209794
0.295336
0.200979
-0.00279
0.203646
0.0183867
0.207705
0.023387
0.208792
0.0457577
0.210723
0.0581789
0.207819
0.0818878
0.203505
0.110019
0.190556
0.156234
0.1664
0.233949
0.34289
0.200555
-0.00535473
0.202518
0.016423
0.206355
0.01955
0.206556
0.0455568
0.208425
0.0563095
0.20435
0.0859632
0.200195
0.114174
0.185649
0.170781
0.162553
0.257045
0.388961
0.200052
-0.00741665
0.201255
0.0152194
0.204744
0.0160616
0.204027
0.0462733
0.205687
0.0546495
0.200364
0.0912867
0.196296
0.118242
0.179947
0.18713
0.158102
0.27889
0.433709
0.199452
-0.00887853
0.199859
0.0148117
0.202869
0.0130518
0.201224
0.0479185
0.202501
0.0533725
0.19587
0.0979173
0.191807
0.122305
0.173235
0.205701
0.153308
0.298817
0.477604
0.19874
-0.00962867
0.198337
0.0152146
0.200734
0.0106547
0.198173
0.0504799
0.198842
0.0527028
0.190962
0.105798
0.186517
0.126751
0.166078
0.22614
0.147516
0.317379
0.520549
0.197912
-0.00955061
0.196697
0.0164293
0.19835
0.00900212
0.194888
0.0539413
0.194721
0.0528701
0.185627
0.114891
0.18055
0.131828
0.157627
0.249064
0.141491
0.333515
0.565115
0.196977
-0.00853739
0.194945
0.0184609
0.195736
0.00821117
0.191381
0.0582957
0.190096
0.0541551
0.180002
0.124986
0.173871
0.137959
0.150428
0.272507
0.134695
0.349248
0.609543
0.195984
-0.00653144
0.193042
0.0214026
0.192975
0.00827795
0.187559
0.0637118
0.184919
0.0567955
0.173406
0.136498
0.165234
0.146131
0.139927
0.297814
0.128095
0.36108
0.66085
0.30519
-0.0097111
0.307328
0.0192643
0.316976
-0.00137001
0.318923
0.0617645
0.330338
0.0453808
0.330444
0.136392
0.349546
0.127029
0.354063
0.293298
0.405402
0.309741
0.591531
0.474721
0.305312
-0.0130128
0.308709
0.0158675
0.319339
-0.0120004
0.322875
0.0582282
0.335447
0.0328092
0.339446
0.132394
0.359737
0.106738
0.373994
0.279041
0.421221
0.262514
0.525519
0.487233
0.305301
-0.0163032
0.311123
0.0100451
0.321383
-0.0222606
0.32769
0.0519209
0.340045
0.0204544
0.348958
0.123481
0.368559
0.0871364
0.389297
0.258304
0.430783
0.221028
0.454438
0.501864
0.305615
-0.0199081
0.314663
0.000996744
0.32329
-0.0308872
0.333506
0.0417046
0.343881
0.0100798
0.357718
0.109643
0.374937
0.069918
0.400534
0.232706
0.440132
0.18143
0.380781
0.51379
0.306827
-0.0247252
0.319142
-0.0113178
0.326124
-0.0378693
0.339847
0.0279819
0.34915
0.000776188
0.367283
0.0915108
0.381588
0.055613
0.412481
0.201813
0.446213
0.147698
0.309483
0.51751
0.309036
-0.0317511
0.324168
-0.0264492
0.329983
-0.0436844
0.346694
0.0112708
0.355231
-0.00776077
0.375488
0.0712531
0.387289
0.0438125
0.421743
0.167359
0.451041
0.1184
0.24194
0.518585
0.312392
-0.0421327
0.328873
-0.0429304
0.334234
-0.0490451
0.352083
-0.00657864
0.357716
-0.0133932
0.378718
0.0502506
0.388324
0.0342067
0.42654
0.129143
0.454016
0.0909237
0.177642
0.518314
0.315631
-0.0557531
0.329076
-0.0563759
0.331248
-0.0512167
0.343964
-0.0192948
0.343746
-0.0131756
0.363443
0.0305535
0.372451
0.0251993
0.415619
0.085975
0.445252
0.0612907
0.113252
0.509642
0.308495
-0.0622378
0.303667
-0.0515478
0.290903
-0.0384527
0.287353
-0.0157446
0.280579
-0.00640212
0.297366
0.0137661
0.309828
0.0127376
0.357677
0.0381257
0.391417
0.0275515
0.0473663
0.457302
0.239772
0.188225
0.149772
0.134027
0.127625
0.141391
0.154129
0.192255
0.219806
0.267172
0.487709
-0.0958962
0.492095
-0.0819389
0.495433
-0.0718746
0.498564
-0.0589591
0.50296
-0.0455382
0.507607
-0.0292428
0.513346
-0.012769
0.519677
0.00654012
0.527758
0.0263293
0.0494202
0.48801
-0.0966732
0.48845
-0.082379
0.488433
-0.0718573
0.488506
-0.0590324
0.4899
-0.046932
0.492052
-0.0313947
0.496049
-0.016766
0.501437
0.00115255
0.508444
0.019322
0.0403571
0.495395
-0.0902046
0.491803
-0.0787869
0.488484
-0.0685381
0.486022
-0.0565701
0.484516
-0.0454265
0.485022
-0.0319006
0.486648
-0.0183919
0.490638
-0.00283721
0.495967
0.0139925
0.0312879
0.50285
-0.0792647
0.494659
-0.0705958
0.488151
-0.0620305
0.48377
-0.0521886
0.480272
-0.0419288
0.4793
-0.0309286
0.479401
-0.0184931
0.48265
-0.00608575
0.487221
0.0094209
0.0229424
0.505399
-0.0671537
0.495332
-0.060529
0.486931
-0.0536297
0.480839
-0.0460964
0.476276
-0.0373653
0.474085
-0.0287378
0.473672
-0.0180799
0.475923
-0.00833707
0.480458
0.00488615
0.0156598
0.505694
-0.0542631
0.494547
-0.049382
0.485155
-0.0442376
0.477833
-0.038774
0.472552
-0.0320849
0.469379
-0.0255647
0.468544
-0.0172444
0.469869
-0.00966299
0.474155
0.000601018
0.00920551
0.504526
-0.0404752
0.492301
-0.0371571
0.481841
-0.0337778
0.473313
-0.0302458
0.467004
-0.0257762
0.462734
-0.0212951
0.461001
-0.0155114
0.461417
-0.010079
0.464929
-0.00291071
0.00339387
0.494053
-0.0248864
0.480186
-0.0232895
0.468193
-0.0217854
0.45813
-0.0201824
0.450314
-0.0179605
0.444562
-0.0155431
0.441373
-0.0123221
0.440414
-0.00912036
0.442538
-0.00503458
-0.00130864
0.441329
-0.0089137
0.427096
-0.00905551
0.414484
-0.00917398
0.403428
-0.00912616
0.39417
-0.008703
0.386662
-0.00803497
0.381335
-0.00699454
0.378076
-0.0058616
0.377446
-0.00440446
-0.00298598
0.258259
0.249203
0.240029
0.230903
0.2222
0.214165
0.207171
0.201309
0.196904
0.00732202
0.0453597
-0.0526817
0.017198
0.117354
-0.12723
0.0237438
0.164769
-0.171314
0.0260493
0.189935
-0.19224
0.0251935
0.200389
-0.199533
0.0224828
0.202744
-0.200034
0.0188614
0.20078
-0.197159
0.0149568
0.195561
-0.191656
0.011352
0.185836
-0.182231
0.168116
0.00864395
-0.165408
0.00875408
0.0366056
0.0229987
0.10311
0.0348931
0.152874
0.0420745
0.182753
0.0451552
0.197308
0.0455335
0.202366
0.0443576
0.201956
0.0422856
0.197633
0.0395219
0.1886
0.171823
0.0358156
0.00932947
0.0272761
0.0272751
0.085164
0.0448226
0.135327
0.0577287
0.169847
0.0656166
0.18942
0.069695
0.198288
0.0712538
0.200397
0.0710196
0.197867
0.0690041
0.190615
0.176571
0.0642554
0.00892519
0.0183509
0.0290418
0.0650474
0.0518209
0.112548
0.0711275
0.150541
0.0849057
0.175642
0.093686
0.189507
0.098763
0.19532
0.101094
0.195536
0.100697
0.191012
0.180661
0.0966076
0.00766803
0.0106829
0.0277038
0.0450117
0.0540221
0.0862292
0.0796936
0.124869
0.100539
0.154796
0.11552
0.174527
0.125407
0.185432
0.131296
0.189648
0.133687
0.18862
0.183101
0.131248
0.00589069
0.0047922
0.0235224
0.02738
0.0502311
0.0595205
0.0803637
0.0947364
0.10845
0.12671
0.131269
0.151707
0.147959
0.168743
0.159066
0.178541
0.165318
0.182368
0.181602
0.166817
0.00402359
0.000768613
0.0177455
0.0136581
0.0413357
0.0359303
0.0719176
0.0641544
0.104786
0.0938421
0.135545
0.120948
0.161335
0.142953
0.181022
0.158854
0.194757
0.168632
0.174423
0.201936
0.00240709
-0.00163847
0.0118759
0.00418936
0.0300414
0.0177647
0.0566092
0.0375866
0.0891161
0.0613352
0.123898
0.0861665
0.157379
0.109472
0.186647
0.129587
0.21041
0.144869
0.156053
0.228781
0.00119491
-0.00283339
0.00698006
-0.00159579
0.0192899
0.00545492
0.0392229
0.0176536
0.0664612
0.0340969
0.0992417
0.053386
0.13493
0.0737838
0.170798
0.0937181
0.203399
0.112268
0.123831
0.235621
0.000393185
-0.00322657
0.0034214
-0.00462401
0.0107799
-0.00190355
0.0238677
0.00456579
0.0434906
0.014474
0.0695369
0.0273397
0.100918
0.0424021
0.136022
0.058615
0.172486
0.0758036
0.0897547
0.206562
-5.46348e-05
-0.00317194
0.00122208
-0.00590072
0.00508559
-0.00576706
0.0127101
-0.00305873
0.0251126
0.00207154
0.0429571
0.00949524
0.0663827
0.0189765
0.0948547
0.030143
0.127891
0.0427674
0.0592879
0.158358
-0.00016751
-0.00300443
0.000360893
-0.00642913
0.00232584
-0.00773201
0.00641157
-0.00714446
0.0133146
-0.00483148
0.0236571
-0.000847287
0.0379361
0.00469749
0.0562033
0.0118758
0.078069
0.0209016
0.0338562
0.103501
0.000212517
-0.00321694
0.0011784
-0.00739501
0.00303867
-0.00959228
0.00591955
-0.0100253
0.0100472
-0.00895909
0.0157773
-0.0065774
0.0234276
-0.00295288
0.0333126
0.00199084
0.0456847
0.00852953
0.0170326
0.0625083
0.00107701
-0.00429396
0.00352358
-0.00984157
0.00683691
-0.0129056
0.0107756
-0.013964
0.0153202
-0.0135037
0.0206202
-0.0118775
0.0269556
-0.00928821
0.0347566
-0.0058102
0.0447239
-0.00143772
0.00401905
0.0577374
0.00185626
-0.00615022
0.0054335
-0.0134188
0.00975612
-0.0172282
0.0144985
-0.0187063
0.0196878
-0.018693
0.0255199
-0.0177096
0.0322737
-0.016042
0.0402908
-0.0138273
0.0499598
-0.0111068
-0.00784138
0.0618203
0.00190185
-0.00805206
0.00492414
-0.0164411
0.00806289
-0.020367
0.0112083
-0.0218517
0.0145994
-0.0220841
0.0185536
-0.0216639
0.0233661
-0.0208545
0.0292878
-0.019749
0.0365353
-0.0183543
-0.0167974
0.0454913
0.000844797
-0.00889686
0.00120671
-0.016803
0.000719721
-0.01988
-0.00025018
-0.0208818
-0.00125568
-0.0210786
-0.00198056
-0.020939
-0.00226474
-0.0205703
-0.0020717
-0.019942
-0.00147445
-0.0189515
-0.0175194
-0.000752442
-0.00127407
-0.00762279
-0.00514301
-0.0129341
-0.0107039
-0.0143191
-0.0170215
-0.0145642
-0.0234635
-0.0146366
-0.0296945
-0.0147079
-0.0355582
-0.0147067
-0.0409824
-0.0145179
-0.0458851
-0.0140487
-0.0134927
-0.0499118
-0.00371822
-0.00390457
-0.0119713
-0.00468101
-0.0225328
-0.0037576
-0.0340605
-0.00303654
-0.045908
-0.00278905
-0.0578134
-0.00280257
-0.0696603
-0.0028598
-0.0813543
-0.00282387
-0.0927838
-0.00261921
-0.00225829
-0.104018
-0.00534591
-0.0162915
-0.0298478
-0.0445172
-0.0596876
-0.0751438
-0.090781
-0.106498
-0.12219
-0.137907
0.212136
0.139853
-0.193631
0.204697
0.519063
-0.511625
0.162511
0.573057
-0.530871
0.15138
0.251626
-0.240494
0.165669
-0.06975
0.0554612
0.176002
-0.179659
0.169326
0.181764
-0.153827
0.148065
0.188127
-0.100344
0.0939807
0.195466
-0.0640336
0.0566943
-0.0361966
0.0286662
0.170538
0.0728164
0.198708
0.490893
0.173792
0.597972
0.173692
0.251726
0.178526
-0.0745845
0.175284
-0.176417
0.17632
-0.154862
0.183248
-0.107273
0.193144
-0.0739299
-0.0450786
0.139282
-0.00395749
0.18073
0.449445
0.173372
0.60533
0.177111
0.247988
0.167799
-0.0652732
0.155468
-0.164086
0.158069
-0.157463
0.169778
-0.118982
0.185141
-0.0892935
-0.0568144
0.1197
-0.0659205
0.150111
0.419035
0.155485
0.599956
0.156332
0.24714
0.135869
-0.0448103
0.125167
-0.153384
0.136458
-0.168754
0.155525
-0.138049
0.176892
-0.11066
-0.0714867
0.0924437
-0.096544
0.106193
0.405286
0.116555
0.589594
0.111613
0.252083
0.0938218
-0.0270196
0.0984829
-0.158045
0.121796
-0.192067
0.147029
-0.163283
0.172267
-0.135898
-0.0878508
0.0445137
-0.0955664
0.0508659
0.398934
0.0573427
0.583117
0.0524458
0.25698
0.0595192
-0.0340929
0.0853427
-0.183869
0.117626
-0.224351
0.14577
-0.191426
0.172022
-0.16215
-0.104379
-0.0232926
-0.0730263
-0.0190086
0.39465
-0.0145335
0.578642
-0.000894086
0.243341
0.044481
-0.079468
0.0846503
-0.224038
0.121218
-0.260918
0.149694
-0.219902
0.174961
-0.187417
-0.120012
-0.104624
-0.0183144
-0.105169
0.395195
-0.0780812
0.551554
-0.0252206
0.19048
0.0446118
-0.1493
0.0916412
-0.271067
0.129546
-0.298823
0.156806
-0.247162
0.179903
-0.210514
-0.134128
-0.179669
0.0573366
-0.175734
0.39126
-0.109551
0.485371
-0.0251181
0.106047
0.0535494
-0.227968
0.104447
-0.321965
0.141661
-0.336036
0.166489
-0.27199
0.186455
-0.23048
-0.146216
-0.225356
-0.211175
-0.109583
-0.00876609
0.0698421
0.122182
0.157031
0.178535
0.194564
0.0423772
0.0375242
-0.0799015
-0.000565708
0.042943
-0.0318458
0.0312801
-0.048311
0.0164652
-0.0435482
-0.00476274
-0.016757
-0.0267912
0.00962879
-0.0263858
0.0261965
-0.0165677
0.0349822
-0.00878572
-0.00354659
0.187809
0.119489
-0.269773
0.0679388
0.162813
-0.0210268
0.120246
-0.0523518
0.0477902
-0.0336603
-0.0234542
0.0113947
-0.0718462
0.0530223
-0.0680135
0.079753
-0.0432983
0.0952901
-0.0243228
-0.0104348
0.335791
0.191702
-0.408004
0.18152
0.317084
0.046146
0.25562
-0.00268908
0.0966253
0.0206051
-0.0467484
0.0645821
-0.115823
0.102285
-0.105716
0.12676
-0.0677734
0.142128
-0.0396907
-0.0180662
0.422168
0.21931
-0.449776
0.288753
0.450499
0.137933
0.40644
0.0725303
0.162028
0.0875188
-0.0617369
0.122173
-0.150477
0.148915
-0.132459
0.165477
-0.0843357
0.176212
-0.0504255
-0.0242374
0.417314
-0.391635
0.356188
0.231757
0.15329
0.147015
0.165864
0.18147
0.191115
0.197384
0.0116461
-0.000128734
-0.0115174
0.0133093
-0.00166325
0.016373
-0.00306366
0.0208455
-0.00447254
0.0273203
-0.00647475
0.0343473
-0.00702698
0.0444731
-0.0101258
0.0543514
-0.00987835
0.0676403
-0.0132889
-0.0122612
0.0319494
-0.000812494
-0.0312657
0.0367154
-0.00642921
0.0454072
-0.0117555
0.0589248
-0.0179902
0.0779025
-0.0254524
0.101149
-0.0302733
0.134256
-0.0432332
0.170044
-0.0456658
0.217162
-0.0604073
-0.0648721
0.0492921
-0.0023666
-0.047738
0.0569008
-0.0140379
0.0706314
-0.025486
0.0920461
-0.0394049
0.121069
-0.054475
0.159452
-0.0686562
0.209016
-0.0927978
0.264815
-0.101465
0.336358
-0.131951
-0.136518
0.0635802
-0.00495982
-0.060987
0.073528
-0.0239858
0.0913957
-0.0433537
0.118345
-0.0663544
0.154529
-0.0906588
0.202835
-0.116963
0.257582
-0.147544
0.324146
-0.168029
0.395442
-0.203246
-0.190853
0.0749794
-0.0712952
0.0868092
0.107711
0.137964
0.178553
0.228407
0.282799
0.34355
0.375925
0.0855727
-0.0808155
0.0886711
-0.0934284
0.0767579
-0.0820219
0.0908367
0.0675025
-0.0839337
0.0931892
0.0575693
-0.0859779
0.0959111
0.0468967
-0.0880533
0.0987259
0.0356215
-0.0898804
0.101155
0.0241181
-0.0903461
0.101849
0.0131677
-0.0863983
0.0973487
0.00427871
-0.0717131
0.0806021
-0.0359491
0.0402278
0.0947888
-0.071002
-0.104602
0.0845449
-0.071778
0.0736059
-0.0729947
0.0620503
-0.0744223
0.0500445
-0.0760474
0.0377667
-0.0776026
0.0255071
-0.0780864
0.0139479
-0.0748391
0.00456135
-0.0623265
-0.0313877
0.0969263
-0.0598072
-0.108121
0.0856278
-0.0604795
0.0741233
-0.0614901
0.0624117
-0.0627108
0.0504528
-0.0640885
0.0382338
-0.0653835
0.0259382
-0.0657909
0.0142307
-0.0631316
0.00464915
-0.052745
-0.0267386
0.102651
-0.0482401
-0.114219
0.0909347
-0.0487628
0.0789831
-0.0495385
0.0667121
-0.0504398
0.0540666
-0.0514431
0.0410769
-0.0523938
0.0279789
-0.0526929
0.0154697
-0.0506224
0.00513817
-0.0424134
-0.0216004
0.105319
-0.0361652
-0.117394
0.0931227
-0.036566
0.0806821
-0.0370979
0.0679707
-0.0377284
0.0549755
-0.0384478
0.0417328
-0.0391512
0.0284429
-0.039403
0.01575
-0.0379295
0.00523544
-0.0318988
-0.016365
0.108251
-0.0239538
-0.120463
0.0958302
-0.0241447
0.0831612
-0.024429
0.0702097
-0.0247769
0.056947
-0.0251851
0.0433864
-0.0255905
0.0297091
-0.0257257
0.0165617
-0.0247822
0.00557137
-0.0209085
-0.0107936
0.109825
-0.0115768
-0.122202
0.0972544
-0.0115743
0.0844247
-0.0115993
0.0713052
-0.0116574
0.0578688
-0.0117487
0.0441289
-0.0118506
0.030261
-0.0118578
0.0169035
-0.0114246
0.00570048
-0.00970552
-0.00509313
0.110866
0.000822958
-0.123266
0.0982255
0.00106634
0.0853084
0.00131776
0.0720863
0.00156474
0.0585351
0.00180251
0.0446706
0.00201386
0.0306677
0.00214503
0.0171628
0.0020803
0.00580697
0.00165035
0.000713845
0.111171
0.0132135
-0.123562
0.0985276
0.0137099
0.0855979
0.0142474
0.0723547
0.014808
0.058774
0.0153832
0.0448709
0.015917
0.0308189
0.016197
0.0172553
0.0156439
0.00584058
0.0130651
0.00655443
0.110818
-0.123161
0.0982222
0.0853365
0.0721361
0.0585979
0.0447358
0.030722
0.0171939
0.00581443
0.0145493
-0.163127
-0.0168302
0.00988136
-0.177563
0.00420746
-0.185983
-0.00160566
-0.191345
-0.00691545
-0.194724
-0.0109575
-0.195491
-0.0126524
-0.190545
-0.0108153
-0.173151
-0.005325
-0.132721
-0.0580067
0.0383922
-0.159701
-0.0418187
0.0319832
-0.171154
0.0243969
-0.178396
0.0165552
-0.183504
0.00897121
-0.18714
0.00221882
-0.188739
-0.00272768
-0.185599
-0.00465928
-0.17122