/*--------------------------------*- C++ -*----------------------------------*\
  =========                 |
  \\      /  F ield         | OpenFOAM: The Open Source CFD Toolbox
   \\    /   O peration     | Website:  https://openfoam.org
    \\  /    A nd           | Version:  13
     \\/     M anipulation  |
\*---------------------------------------------------------------------------*/
FoamFile
{
    format      ascii;
    class       volVectorField;
    location    "3.95";
    object      U;
}
// * * * * * * * * * * * * * * * * * * * * * * * * * * * * * * * * * * * * * //

dimensions      [0 1 -1 0 0 0 0];

internalField   nonuniform List<vector> 
1800
(
(-0.033234 0.0272617 1.34257e-20)
(-0.0789548 0.0484161 5.91321e-21)
(-0.103703 0.054971 -6.83205e-21)
(-0.105879 0.0557364 2.37938e-20)
(-0.0810124 0.0560924 9.1413e-20)
(-0.024711 0.0586386 4.74607e-20)
(0.0657791 0.0650051 -2.3711e-20)
(0.187921 0.0756512 4.61751e-21)
(0.351474 0.117565 1.04961e-19)
(0.434165 0.148669 1.04373e-19)
(-0.0455019 0.0344367 9.1496e-21)
(-0.088882 0.0619724 -1.90668e-20)
(-0.0896165 0.0671358 1.95063e-22)
(-0.04863 0.0594507 -4.12012e-20)
(0.0366353 0.0455386 1.70741e-20)
(0.168209 0.029178 9.79623e-20)
(0.345627 0.0129631 -5.46793e-20)
(0.561151 -0.00480497 3.16429e-20)
(0.824207 0.00396531 -1.60173e-19)
(0.972293 0.00777343 1.47726e-19)
(-0.0488982 0.032614 3.37242e-21)
(-0.0762182 0.0565834 1.2421e-20)
(-0.0388614 0.0583024 -1.11219e-22)
(0.0606563 0.04607 -8.24441e-21)
(0.221708 0.0270567 -9.75632e-20)
(0.439587 0.00628708 1.98286e-20)
(0.702866 -0.0124067 4.03086e-20)
(0.993612 -0.0276911 -1.71856e-20)
(1.2992 -0.0326564 1.23087e-22)
(1.55046 -0.0470959 -2.77894e-22)
(-0.0441602 0.0251118 -6.71472e-21)
(-0.0380995 0.0361905 -2.1298e-20)
(0.0574702 0.0293693 -2.16025e-20)
(0.237061 0.0122945 1.9971e-20)
(0.491398 -0.00756297 1.70012e-20)
(0.800925 -0.0247434 7.65062e-21)
(1.13713 -0.0362803 -2.15857e-21)
(1.46969 -0.0411051 5.7689e-20)
(1.77437 -0.0413118 4.5419e-20)
(2.02194 -0.0417729 -1.78376e-20)
(-0.0306148 0.0153756 5.20303e-20)
(0.0313071 0.0114526 4.90058e-20)
(0.209466 -0.00260878 -3.32792e-20)
(0.488045 -0.0188562 -4.10185e-20)
(0.83787 -0.0303188 -9.97172e-20)
(1.21623 -0.0339551 1.64337e-21)
(1.57901 -0.0304216 1.21902e-19)
(1.8929 -0.0225034 6.41944e-20)
(2.1386 -0.0134978 2.49818e-21)
(2.32058 -0.0113811 -5.99728e-20)
(-0.00399829 0.00406938 -5.28187e-20)
(0.140692 -0.0121155 -8.057e-21)
(0.423305 -0.026528 1.76336e-19)
(0.804931 -0.0320763 -4.25864e-20)
(1.22588 -0.0263887 -1.11687e-19)
(1.62368 -0.0123896 2.20739e-19)
(1.95419 0.00465501 -2.44611e-19)
(2.19869 0.0200263 -3.44879e-19)
(2.3616 0.0306502 2.98672e-19)
(2.45662 0.0355044 1.27719e-21)
(0.0395107 -0.00703948 6.20294e-20)
(0.293079 -0.0277352 -1.29805e-19)
(0.68916 -0.0313701 -4.1505e-19)
(1.15279 -0.0163567 1.91401e-19)
(1.5967 0.0100021 4.2727e-19)
(1.95908 0.038256 -1.7023e-21)
(2.21751 0.0616494 -9.57327e-19)
(2.38052 0.0772538 2.61751e-21)
(2.47105 0.0860702 1.20619e-18)
(2.51581 0.0859225 3.36475e-19)
(0.101328 -0.0145314 6.1037e-20)
(0.482216 -0.0269514 3.21437e-19)
(0.980987 -0.00799097 3.29341e-19)
(1.48539 0.0320991 -1.1324e-19)
(1.90334 0.0751079 -4.07801e-19)
(2.19867 0.109601 -1.56131e-19)
(2.38052 0.132079 0)
(2.47834 0.143891 5.21874e-19)
(2.52317 0.147835 -7.70659e-21)
(2.5368 0.14565 -5.06056e-19)
(0.179218 -0.0143517 5.64033e-20)
(0.69205 -0.00251075 3.18524e-19)
(1.26482 0.0477289 5.86139e-19)
(1.76674 0.110573 -6.00424e-19)
(2.12959 0.162505 -5.26171e-19)
(2.35335 0.196311 2.22744e-19)
(2.47176 0.213965 -1.08143e-18)
(2.5235 0.220215 -8.17189e-19)
(2.538 0.219646 1.02017e-18)
(2.53264 0.213022 8.91114e-19)
(0.267692 -0.00288309 -5.0826e-20)
(0.90136 0.0491371 2.49086e-19)
(1.51255 0.133747 1.60153e-19)
(1.98196 0.212922 -1.27378e-18)
(2.28113 0.266481 4.98678e-20)
(2.44179 0.294788 2.63496e-18)
(2.51219 0.304969 -1.53961e-18)
(2.53289 0.304352 -9.17069e-19)
(2.5294 0.297826 3.22723e-19)
(2.51335 0.287022 -7.41332e-19)
(-0.00976047 0.0525461 -7.68099e-20)
(-0.0647902 0.146849 -5.88248e-20)
(-0.136647 0.205278 1.51035e-21)
(-0.214811 0.232768 8.02165e-21)
(-0.291629 0.24287 4.00833e-21)
(-0.365307 0.245725 2.01292e-19)
(-0.435112 0.246148 4.65762e-20)
(-0.500863 0.245951 -2.54465e-19)
(-0.565127 0.245988 -6.8823e-21)
(-0.632577 0.247173 1.80062e-20)
(-0.0172152 0.107737 -1.95612e-20)
(-0.0694746 0.263358 -3.56102e-20)
(-0.132111 0.353382 5.41779e-20)
(-0.199125 0.394882 3.8465e-20)
(-0.265025 0.409798 1.16653e-20)
(-0.328152 0.413232 1.85932e-19)
(-0.387647 0.412246 -2.22943e-19)
(-0.442984 0.409247 -2.50597e-19)
(-0.495746 0.405062 3.07791e-19)
(-0.549908 0.400725 -8.82789e-20)
(-0.0261354 0.131634 -1.35383e-20)
(-0.0722726 0.328622 -2.53965e-20)
(-0.118268 0.452671 -1.57755e-20)
(-0.164506 0.516896 -1.50882e-19)
(-0.209778 0.543575 -4.67438e-20)
(-0.252951 0.551356 4.86768e-19)
(-0.293055 0.550733 -1.17254e-19)
(-0.329211 0.546064 -3.10723e-19)
(-0.361495 0.53883 3.57153e-19)
(-0.392469 0.530057 2.09693e-19)
(-0.0307265 0.120987 -3.57737e-21)
(-0.0702547 0.327837 -2.92658e-21)
(-0.0994013 0.48084 -1.05591e-21)
(-0.123401 0.57598 8.95296e-21)
(-0.145394 0.625074 5.54646e-20)
(-0.16597 0.644878 -1.62199e-19)
(-0.184591 0.648776 -1.24574e-19)
(-0.200515 0.644377 1.43226e-19)
(-0.21287 0.634849 -5.8969e-21)
(-0.218396 0.622192 7.0012e-21)
(-0.0272672 0.0866187 0)
(-0.0595757 0.267695 -8.83448e-21)
(-0.0761814 0.430379 2.80759e-20)
(-0.0823957 0.554435 3.87354e-20)
(-0.0831644 0.635672 1.64961e-19)
(-0.0809547 0.680868 -1.13571e-19)
(-0.0765794 0.700308 4.14467e-20)
(-0.0699286 0.702981 4.84719e-20)
(-0.0605082 0.694719 0)
(-0.0419877 0.679661 1.31245e-20)
(-0.0171481 0.0459982 -2.19231e-20)
(-0.0409553 0.175797 5.49004e-20)
(-0.0511102 0.319179 4.3804e-20)
(-0.0490327 0.450548 -5.07391e-20)
(-0.0378609 0.555075 4.76528e-20)
(-0.0201516 0.628639 4.75129e-20)
(0.00228582 0.673742 -1.64269e-19)
(0.0284788 0.695614 -3.18041e-20)
(0.0572013 0.699045 2.02125e-19)
(0.0959546 0.687359 6.22262e-21)
(-0.00534656 0.0140792 6.24655e-21)
(-0.0205028 0.0886552 8.84435e-20)
(-0.0294534 0.192156 -5.01526e-20)
(-0.0288779 0.303058 -8.46353e-21)
(-0.0181556 0.404951 -2.09827e-20)
(0.00204673 0.488399 -3.42723e-20)
(0.0304431 0.549898 6.77399e-21)
(0.0657676 0.589965 -1.82263e-20)
(0.106406 0.610748 -1.76488e-20)
(0.154634 0.608313 -2.50546e-20)
(0.00251307 -0.00274846 1.53699e-20)
(-0.00826599 0.0303524 -3.62678e-20)
(-0.0210549 0.0915759 -5.66416e-20)
(-0.0290246 0.166752 1.86134e-20)
(-0.0282387 0.243581 1.20761e-20)
(-0.017106 0.312968 1.72963e-19)
(0.00447956 0.369555 2.03322e-19)
(0.0360773 0.411227 -9.21072e-20)
(0.0782877 0.43766 -4.9577e-20)
(0.125819 0.433279 2.80802e-20)
(0.00202171 -0.00481467 1.37872e-20)
(-0.0145766 0.00580855 -2.84819e-20)
(-0.0368392 0.033857 6.86987e-20)
(-0.0568629 0.0724839 9.70187e-20)
(-0.0688878 0.115399 -9.53115e-20)
(-0.0697818 0.156681 2.18974e-19)
(-0.0579609 0.191837 -1.46624e-20)
(-0.0322187 0.217831 -4.11449e-19)
(0.009292 0.231316 -8.00238e-20)
(0.0627226 0.217944 5.15147e-20)
(-0.0133492 0.00917861 1.41004e-21)
(-0.0483659 0.0181384 -4.83611e-21)
(-0.0822975 0.0274318 -1.28677e-20)
(-0.109343 0.0395603 4.9194e-20)
(-0.123827 0.054985 9.03183e-20)
(-0.121831 0.0722232 -1.31784e-19)
(-0.100849 0.0898675 -1.49374e-19)
(-0.0592388 0.106944 1.08116e-19)
(0.00439822 0.12103 -1.17494e-19)
(0.0848109 0.123063 -7.32727e-20)
(-0.970442 0.262768 -4.9123e-19)
(-1.22203 0.507094 -1.19261e-19)
(-0.686708 0.448974 -4.33818e-19)
(-0.160083 -0.0672217 5.23447e-19)
(0.33033 -0.480829 -1.8001e-19)
(0.59085 -0.558026 -1.33615e-19)
(0.79663 -0.539505 -5.0875e-20)
(0.915793 -0.422656 5.88179e-21)
(0.980152 -0.353491 2.31961e-20)
(1.06416 -0.223704 3.86565e-21)
(-0.830492 0.377695 -1.29232e-19)
(-1.08449 0.475658 2.09322e-19)
(-0.543809 0.278692 -2.8929e-20)
(0.0263255 -0.220961 -5.60769e-19)
(0.49495 -0.582448 -8.52549e-19)
(0.73786 -0.628102 0)
(0.914809 -0.581617 -6.34686e-20)
(1.00216 -0.446873 1.71925e-21)
(1.0496 -0.369155 -1.82548e-22)
(1.10024 -0.233952 -1.30294e-20)
(-0.57969 0.47274 2.44766e-19)
(-0.784431 0.452235 -1.96654e-19)
(-0.291789 0.12557 4.3095e-19)
(0.257831 -0.359036 9.56588e-20)
(0.686778 -0.673655 5.60458e-20)
(0.898355 -0.689565 -6.011e-20)
(1.03858 -0.615205 0)
(1.08934 -0.464498 0)
(1.11864 -0.378306 -2.69465e-20)
(1.13676 -0.23973 0)
(-0.28211 0.53305 5.30326e-21)
(-0.407708 0.433658 2.31628e-19)
(0.0213342 0.00130246 -6.01048e-20)
(0.525326 -0.477571 0)
(0.895023 -0.752249 5.76336e-19)
(1.06352 -0.740072 -1.08618e-19)
(1.16383 -0.639124 0)
(1.17527 -0.474778 9.65841e-20)
(1.18436 -0.38102 0)
(1.17151 -0.241188 1.64305e-20)
(-0.00581973 0.557733 1.93764e-19)
(-0.022275 0.416048 9.56256e-20)
(0.353088 -0.0901678 3.39483e-20)
(0.808093 -0.572809 0)
(1.1114 -0.816197 2.13387e-19)
(1.22656 -0.778471 2.27468e-19)
(1.28541 -0.65331 -3.9618e-20)
(1.25804 -0.477431 -5.4624e-21)
(1.24537 -0.377378 -2.05928e-20)
(1.20306 -0.238523 1.66298e-21)
(0.224266 0.553109 1.56084e-18)
(0.32099 0.40408 1.89403e-19)
(0.672819 -0.153394 -1.43971e-20)
(1.08988 -0.645532 4.23975e-19)
(1.32704 -0.864406 -3.31515e-19)
(1.38343 -0.80457 9.80374e-20)
(1.39937 -0.658289 2.323e-19)
(1.33556 -0.472771 -1.97022e-19)
(1.30101 -0.367593 6.41986e-22)
(1.2307 -0.231952 -3.60228e-20)
(0.39239 0.509882 6.14411e-20)
(0.602001 0.391474 -1.38588e-19)
(0.967139 -0.19665 -3.01852e-20)
(1.35837 -0.697464 -9.65654e-21)
(1.53231 -0.896463 -1.78859e-19)
(1.53014 -0.818909 -6.0421e-20)
(1.50313 -0.654968 -8.75089e-20)
(1.406 -0.461574 1.77335e-20)
(1.35082 -0.352085 2.81157e-20)
(1.2542 -0.221741 -2.17807e-23)
(0.472415 0.414728 -5.78804e-19)
(0.806523 0.370588 -2.87515e-19)
(1.23351 -0.228348 0)
(1.60785 -0.729637 8.31299e-20)
(1.72084 -0.911782 1.13118e-19)
(1.66349 -0.821979 -3.11679e-20)
(1.59528 -0.644382 -2.66875e-19)
(1.46807 -0.444916 8.29067e-20)
(1.39438 -0.331533 -1.48632e-21)
(1.27357 -0.208239 -1.76315e-20)
(0.422669 0.269839 5.19292e-19)
(0.93772 0.322705 8.29456e-19)
(1.48083 -0.256191 -1.84214e-19)
(1.83508 -0.743425 -4.63317e-20)
(1.88847 -0.910548 2.88989e-20)
(1.78148 -0.814137 -1.9201e-19)
(1.67547 -0.627437 9.86129e-20)
(1.52127 -0.424029 -2.39935e-21)
(1.43129 -0.30694 6.23432e-21)
(1.28884 -0.19191 2.71954e-20)
(0.344299 0.0718402 -3.07321e-19)
(1.04638 0.229386 7.94098e-19)
(1.72564 -0.282507 1.60305e-19)
(2.03739 -0.744569 7.21764e-20)
(2.03252 -0.896708 -4.51668e-20)
(1.88291 -0.796978 -7.34001e-20)
(1.74393 -0.605073 -3.42528e-20)
(1.56582 -0.400161 0)
(1.46118 -0.279615 -4.73667e-20)
(1.3001 -0.173387 3.32272e-20)
(1.00436 0.00466011 -2.3391e-19)
(1.49493 0.0422792 -4.92096e-19)
(2.09824 -0.383645 5.08785e-19)
(2.2878 -0.752008 -2.11636e-20)
(2.19928 -0.868 -2.36546e-20)
(1.99636 -0.763763 -7.59912e-20)
(1.81694 -0.567837 -1.01313e-19)
(1.6105 -0.364293 5.20936e-20)
(1.48838 -0.241005 -2.00914e-20)
(1.30958 -0.147958 -1.85412e-20)
(1.92204 0.0284349 -3.8723e-20)
(2.22993 -0.0760302 -7.23336e-19)
(2.60649 -0.476585 -1.06455e-18)
(2.53589 -0.757516 1.40245e-19)
(2.29042 -0.810964 -3.16194e-19)
(2.02975 -0.674617 4.57507e-20)
(1.82991 -0.471087 1.62769e-19)
(1.61048 -0.283312 -2.92639e-20)
(1.4864 -0.174008 9.84802e-20)
(1.30465 -0.108744 9.90474e-21)
(2.29914 -0.0239858 5.74999e-20)
(2.57575 -0.157268 2.89903e-20)
(2.67659 -0.481571 -5.88871e-22)
(2.46621 -0.67251 1.39881e-35)
(2.25869 -0.711403 -3.986e-20)
(2.05131 -0.593496 -2.59585e-34)
(1.8634 -0.402018 3.27379e-20)
(1.63086 -0.227156 1.08744e-33)
(1.49279 -0.122545 -4.11266e-21)
(1.29987 -0.0749071 7.66021e-21)
(2.42148 -0.0561611 7.15651e-35)
(2.58786 -0.183872 3.41831e-19)
(2.59023 -0.436804 4.47997e-19)
(2.46686 -0.616853 0)
(2.30748 -0.661242 9.96744e-20)
(2.07279 -0.52882 -6.11115e-20)
(1.84267 -0.318324 -1.37597e-19)
(1.58683 -0.14792 2.73139e-33)
(1.44067 -0.0548973 -6.18433e-20)
(1.26126 -0.0350606 -9.57443e-21)
(2.42997 -0.0923058 5.10255e-20)
(2.51494 -0.196796 -7.00208e-21)
(2.53284 -0.414132 0)
(2.43901 -0.573638 0)
(2.24048 -0.58128 0)
(1.96991 -0.426935 0)
(1.7338 -0.222385 7.59124e-21)
(1.49359 -0.0741676 3.04951e-33)
(1.36319 0.000593881 -5.71963e-21)
(1.21033 -0.0032002 -1.35404e-33)
(2.40855 -0.115478 6.48158e-20)
(2.45077 -0.206273 0)
(2.47466 -0.38776 0)
(2.36257 -0.514719 0)
(2.10206 -0.493876 0)
(1.78521 -0.330364 0)
(1.53519 -0.136405 -1.43508e-20)
(1.32086 -0.00966271 7.93877e-20)
(1.2227 0.048184 -6.45936e-21)
(1.12112 0.0239071 -5.15217e-21)
(2.3696 -0.131666 0)
(2.38139 -0.208799 1.3206e-19)
(2.37395 -0.355084 1.64518e-19)
(2.15323 -0.435761 0)
(1.7723 -0.372697 2.90468e-20)
(1.41754 -0.209479 -3.02368e-20)
(1.19621 -0.0498558 -5.67103e-20)
(1.05073 0.0404073 -3.19325e-20)
(1.01298 0.0744521 2.63323e-20)
(0.984933 0.0371566 -1.63218e-20)
(2.24831 -0.132264 -6.46379e-21)
(2.20982 -0.195262 -5.49073e-21)
(2.06774 -0.285809 3.30287e-21)
(1.66931 -0.299907 -3.21814e-35)
(1.20527 -0.215861 2.74923e-22)
(0.880475 -0.094753 -3.66754e-35)
(0.743705 0.00603477 -1.42603e-20)
(0.703388 0.0575527 -4.96098e-20)
(0.740021 0.0717085 -6.7251e-21)
(0.784201 0.0349651 1.39203e-20)
(1.81124 -0.112013 3.87908e-20)
(1.6642 -0.147022 -3.62684e-20)
(1.33946 -0.151955 -2.81117e-20)
(0.864737 -0.11336 0)
(0.496986 -0.068451 -1.34168e-20)
(0.311762 -0.0259381 -1.24515e-20)
(0.28021 0.0164128 -2.62248e-20)
(0.326432 0.039417 -2.78851e-21)
(0.41135 0.043207 -9.24602e-21)
(0.493053 0.0207078 -1.24244e-20)
(0.719217 -0.0268553 0)
(0.530232 -0.0131983 0)
(0.321547 0.00167991 0)
(0.1531 -0.000401875 0)
(0.030915 -0.00780429 0)
(-0.0486756 -0.00706109 0)
(-0.0566293 0.000482301 -1.37293e-20)
(-0.00926911 0.00533693 7.00655e-35)
(0.0576938 0.0060807 -7.13812e-21)
(0.120258 0.00282146 -1.42497e-20)
(2.45877 0.261788 7.17374e-19)
(2.49688 0.200565 4.29611e-20)
(2.51343 0.139086 -6.69966e-20)
(2.53121 0.0944147 -2.13365e-19)
(2.5282 0.0411557 -3.49322e-20)
(2.49598 0.0180086 -5.21329e-20)
(2.44665 -0.0322325 -1.66595e-19)
(2.21018 -0.0255715 2.19092e-20)
(2.03298 -0.0643566 0)
(1.34772 -0.0132358 6.00186e-20)
(2.38448 0.222378 2.35059e-19)
(2.39856 0.179378 -2.57086e-19)
(2.46278 0.123719 -6.01479e-20)
(2.44473 0.0902963 -1.07934e-19)
(2.5268 0.0412412 9.10796e-20)
(2.45637 0.0120217 1.53284e-19)
(2.56113 -0.0263748 -1.80593e-19)
(2.39472 -0.0665858 1.40161e-20)
(2.46903 -0.0753167 -4.13723e-20)
(2.13991 -0.130991 5.25814e-20)
(2.33665 0.191703 -1.04065e-19)
(2.32282 0.147126 2.40062e-19)
(2.41357 0.112596 1.37476e-19)
(2.37126 0.0671462 -2.36515e-19)
(2.47296 0.0454967 -4.50976e-20)
(2.40508 -0.00787474 3.18783e-19)
(2.50797 -0.0106025 5.17608e-20)
(2.42887 -0.0778883 -4.91128e-20)
(2.49664 -0.0570025 -2.20909e-20)
(2.4151 -0.133211 -1.9153e-20)
(2.28996 0.159682 -2.86114e-19)
(2.28368 0.110654 -6.1638e-20)
(2.35869 0.0958789 4.61967e-20)
(2.33828 0.0419096 -3.68078e-21)
(2.40609 0.0395095 -2.1852e-19)
(2.38273 -0.0204441 -6.62116e-20)
(2.43368 -0.00971387 1.74455e-19)
(2.42357 -0.072493 -1.24563e-20)
(2.4473 -0.0527968 3.18599e-20)
(2.45549 -0.111256 1.0566e-20)
(2.24497 0.123922 3.239e-20)
(2.26072 0.0791682 1.32804e-19)
(2.30864 0.0709281 -9.53882e-21)
(2.31839 0.0230676 1.43442e-19)
(2.35358 0.0222375 -5.79369e-20)
(2.36416 -0.0263258 -1.96005e-19)
(2.38423 -0.0218048 2.9286e-20)
(2.40136 -0.0669636 -5.62017e-20)
(2.4082 -0.0614189 -1.81917e-20)
(2.4315 -0.0994959 -2.42784e-20)
(2.20573 0.0854556 -1.58714e-19)
(2.23488 0.0509734 -6.41697e-20)
(2.26747 0.0416099 -1.68124e-20)
(2.2922 0.0063554 9.69606e-20)
(2.31458 0.000464773 2.63632e-19)
(2.33725 -0.0336106 -5.71281e-20)
(2.35017 -0.0379034 5.1348e-21)
(2.37217 -0.0688807 -7.98692e-20)
(2.37814 -0.0734732 -1.17654e-19)
(2.39981 -0.100288 -1.83626e-20)
(2.15698 0.048288 -4.93196e-20)
(2.18989 0.023978 -1.15898e-19)
(2.21699 0.013387 -1.48233e-19)
(2.24648 -0.0108452 -2.56888e-19)
(2.26643 -0.0199229 8.22755e-20)
(2.29356 -0.0436155 6.77071e-20)
(2.30663 -0.0523558 -1.29031e-20)
(2.33254 -0.0752012 8.00445e-20)
(2.33911 -0.0842312 -7.21008e-20)
(2.36573 -0.105964 -4.76705e-20)
(2.04542 0.0146193 6.07493e-20)
(2.07798 -0.0014895 2.16138e-20)
(2.09806 -0.0104276 1.60031e-20)
(2.13119 -0.0266049 -3.40447e-20)
(2.14522 -0.0346897 -3.23943e-20)
(2.1807 -0.0514683 -5.86181e-20)
(2.18772 -0.0595083 -4.72255e-20)
(2.22772 -0.0774932 1.07148e-19)
(2.22613 -0.0860148 -4.40496e-20)
(2.27358 -0.105594 2.84528e-21)
(1.72816 -0.0129607 -7.12216e-20)
(1.74787 -0.02108 -1.58218e-20)
(1.75436 -0.0262635 1.25722e-19)
(1.77874 -0.0343067 -2.05414e-20)
(1.7801 -0.0390893 -3.59226e-20)
(1.81219 -0.0479667 7.4297e-20)
(1.80586 -0.0531386 -5.76122e-20)
(1.84882 -0.063787 4.63932e-20)
(1.83076 -0.0703438 -2.30583e-20)
(1.88876 -0.0836347 -9.62551e-20)
(0.876125 -0.0108016 5.13522e-20)
(0.868228 -0.0101799 4.45146e-20)
(0.859146 -0.00958242 4.46394e-20)
(0.854834 -0.0093317 7.4567e-20)
(0.846371 -0.00939627 -3.80247e-20)
(0.846878 -0.00978949 -5.28464e-20)
(0.835852 -0.0106671 2.40194e-20)
(0.843526 -0.012377 -2.25592e-21)
(0.821264 -0.0134322 3.38621e-21)
(0.845663 -0.0198494 -5.11542e-21)
(1.54718 0.949004 -8.1843e-20)
(1.53151 0.994699 2.58089e-20)
(1.53502 1.04798 -6.15929e-19)
(1.5434 1.10841 2.26709e-19)
(1.54953 1.17194 1.15827e-18)
(1.54469 1.23038 -1.41804e-19)
(1.50694 1.26121 -1.02821e-18)
(1.38656 1.21267 -1.83397e-21)
(1.09629 0.990764 -5.0292e-19)
(0.51211 0.473807 1.15888e-19)
(1.70883 0.9204 0)
(1.69786 0.964581 7.11926e-19)
(1.69778 1.01404 1.57921e-18)
(1.70573 1.07191 -9.75264e-19)
(1.71498 1.13381 -2.27947e-18)
(1.71317 1.18998 -1.48536e-19)
(1.67304 1.21655 -1.90306e-19)
(1.53734 1.16254 6.94056e-19)
(1.20931 0.940194 1.0375e-18)
(0.559019 0.441936 4.08407e-19)
(1.85729 0.883239 6.55323e-20)
(1.85513 0.926778 0)
(1.85651 0.973013 -6.4758e-20)
(1.86521 1.02611 9.93846e-19)
(1.87641 1.08286 5.36264e-20)
(1.87553 1.13314 -2.21888e-18)
(1.83024 1.15264 1.40168e-18)
(1.6761 1.09233 8.22899e-19)
(1.30863 0.872136 -8.84008e-19)
(0.596373 0.400883 -2.6002e-19)
(1.9887 0.836437 -1.80095e-19)
(1.99584 0.877977 -1.32735e-19)
(2.00227 0.920549 2.71066e-19)
(2.01369 0.96814 -3.36388e-19)
(2.02659 1.01825 -1.55464e-18)
(2.02472 1.0608 -1.20828e-18)
(1.97129 1.07136 1.26412e-18)
(1.79505 1.00306 8.32493e-19)
(1.38585 0.787223 0)
(0.619639 0.351212 0)
(2.10354 0.775711 -8.84442e-19)
(2.11894 0.814437 -1.62528e-18)
(2.13169 0.853212 -6.24662e-19)
(2.14683 0.89535 -3.19972e-20)
(2.16089 0.938426 0)
(2.15606 0.971538 1.27914e-19)
(2.09023 0.971655 1.46975e-19)
(1.88619 0.897299 1.82592e-19)
(1.43423 0.688374 -2.6074e-19)
(0.625469 0.294029 -6.5094e-20)
(2.20488 0.705163 1.05374e-18)
(2.22635 0.739662 -3.91107e-20)
(2.2444 0.773791 -1.23674e-18)
(2.26254 0.809803 0)
(2.27611 0.8447 0)
(2.26421 0.867976 0)
(2.17973 0.857603 1.39909e-18)
(1.94264 0.776575 -1.53249e-18)
(1.44858 0.576993 -9.61577e-19)
(0.611055 0.232086 1.7726e-20)
(2.29281 0.624583 -1.36132e-18)
(2.31859 0.654329 -2.85764e-18)
(2.34008 0.683698 -4.95595e-21)
(2.3592 0.713483 5.79342e-19)
(2.36894 0.74007 -3.43355e-20)
(2.34455 0.752968 1.21149e-18)
(2.23484 0.731639 -6.68943e-19)
(1.95907 0.64462 -1.73653e-18)
(1.42384 0.45812 8.78697e-20)
(0.575317 0.169506 6.97284e-20)
(2.36898 0.540125 -1.0517e-18)
(2.39582 0.564866 1.44935e-20)
(2.41795 0.588693 3.95412e-19)
(2.43493 0.611439 -3.82681e-19)
(2.43625 0.6289 5.96462e-19)
(2.3927 0.630679 1.56771e-18)
(2.2496 0.598358 -1.26169e-19)
(1.92908 0.507212 -8.97012e-19)
(1.35612 0.338511 1.99918e-19)
(0.519029 0.110882 3.66905e-20)
(2.43077 0.452791 3.80612e-19)
(2.457 0.47308 7.37679e-20)
(2.47704 0.4913 -3.8831e-19)
(2.48785 0.506752 -9.15528e-19)
(2.47454 0.514786 5.88203e-20)
(2.40316 0.505447 4.02261e-20)
(2.21723 0.463257 -1.0816e-18)
(1.8469 0.371157 4.68855e-19)
(1.24413 0.225564 1.33216e-19)
(0.445203 0.0605858 -4.15776e-20)
(2.47897 0.368356 6.97226e-19)
(2.50164 0.38377 -1.0384e-18)
(2.51602 0.395881 1.51223e-19)
(2.51501 0.403706 2.04134e-18)
(2.47867 0.402234 9.79106e-19)
(2.36879 0.382464 -2.10884e-18)
(2.13034 0.332669 -1.91987e-18)
(1.70833 0.244092 7.88054e-19)
(1.09007 0.126838 -4.10301e-20)
(0.359055 0.0220519 -1.08661e-19)
(0.551163 0.37429 -1.90586e-19)
(0.510076 0.387387 -1.72411e-19)
(0.463747 0.401294 8.29773e-20)
(0.412829 0.416153 -2.65916e-19)
(0.357026 0.431831 -2.64831e-20)
(0.295498 0.446979 2.30607e-19)
(0.227265 0.456015 4.35643e-20)
(0.152799 0.442949 -6.34089e-21)
(0.0793017 0.373318 1.51503e-20)
(0.0158119 0.190104 1.50223e-20)
(0.590911 0.482519 1.48489e-19)
(0.550989 0.502438 1.91197e-19)
(0.506681 0.523771 4.37366e-20)
(0.458219 0.546667 -5.99719e-20)
(0.404982 0.570876 -2.36474e-19)
(0.345862 0.594505 -9.98778e-21)
(0.279197 0.610019 7.53212e-20)
(0.203658 0.595817 3.43429e-20)
(0.122811 0.504729 -1.12237e-19)
(0.0384828 0.25843 -3.86348e-20)
(0.648836 0.583017 -1.34297e-19)
(0.610338 0.608832 -1.20993e-19)
(0.568581 0.636547 1.08227e-19)
(0.523329 0.666629 7.95392e-20)
(0.473679 0.698949 -7.59499e-20)
(0.418217 0.73116 -3.43003e-20)
(0.354243 0.753694 -1.05848e-19)
(0.277622 0.739207 -6.88677e-20)
(0.186169 0.628018 -6.4963e-20)
(0.0714239 0.321993 1.01238e-21)
(0.724565 0.679683 5.13602e-20)
(0.688047 0.71201 -4.26475e-20)
(0.649768 0.746109 -8.60597e-20)
(0.608501 0.782661 -4.09131e-20)
(0.562905 0.821664 -6.84839e-20)
(0.511381 0.860426 -2.15211e-21)
(0.450205 0.88756 -2.66349e-19)
(0.371847 0.870615 5.0164e-20)
(0.266601 0.739139 -3.10576e-19)
(0.113059 0.37824 4.88906e-20)
(0.813519 0.759859 -4.60825e-23)
(0.779658 0.797218 1.03876e-20)
(0.746097 0.836895 -4.80085e-20)
(0.710725 0.879931 -2.54224e-19)
(0.671416 0.926098 1.18098e-19)
(0.62577 0.971985 3.16466e-20)
(0.568443 1.00435 4.78535e-20)
(0.4877 0.985936 -1.6879e-19)
(0.364635 0.836369 3.77781e-19)
(0.163095 0.426524 2.75352e-19)
(0.919109 0.839111 -7.71095e-20)
(0.886959 0.880961 -1.68198e-19)
(0.856758 0.923959 2.82553e-20)
(0.825817 0.970555 9.7456e-20)
(0.791969 1.02109 3.52562e-19)
(0.752308 1.07146 2.59216e-19)
(0.699362 1.10619 6.30521e-19)
(0.61618 1.08359 2.60738e-19)
(0.473365 0.915754 1.4756e-19)
(0.218373 0.464179 2.03689e-19)
(1.03081 0.892042 -1.03893e-19)
(1.00482 0.938707 5.73899e-19)
(0.982504 0.986253 3.81819e-19)
(0.95926 1.03719 -4.95832e-19)
(0.932333 1.09206 -2.49932e-19)
(0.898681 1.14664 6.60944e-19)
(0.849197 1.18391 -1.0452e-19)
(0.761434 1.15821 -4.47917e-19)
(0.59442 0.975264 2.05119e-20)
(0.278513 0.490638 2.49751e-19)
(1.14964 0.946282 2.86705e-19)
(1.12392 0.99327 5.73201e-20)
(1.1064 1.04111 -7.5044e-19)
(1.09125 1.09381 1.63324e-19)
(1.07379 1.15103 5.77479e-19)
(1.04891 1.20718 -3.19695e-19)
(1.00459 1.24347 -1.00244e-19)
(0.912305 1.21153 -1.84794e-19)
(0.719376 1.01367 1.86153e-20)
(0.339641 0.504766 -2.94265e-19)
(1.2776 0.965484 1.8063e-20)
(1.26234 1.0163 -5.47885e-19)
(1.25215 1.06512 -4.65277e-21)
(1.24259 1.11886 4.72445e-19)
(1.23099 1.17841 -4.91778e-19)
(1.21207 1.23706 9.63779e-19)
(1.1706 1.27365 6.47697e-19)
(1.07091 1.23713 -9.53955e-19)
(0.848065 1.02841 -7.43592e-20)
(0.400607 0.506171 -3.21967e-19)
(1.37906 0.976895 -3.30094e-19)
(1.3754 1.02841 -3.12862e-19)
(1.38236 1.07879 2.92708e-19)
(1.38742 1.13309 7.75795e-19)
(1.38711 1.19187 2.78376e-19)
(1.37654 1.24869 -8.00585e-19)
(1.33823 1.28157 1.0452e-19)
(1.22978 1.23831 2.16498e-19)
(0.974694 1.02087 -2.89175e-19)
(0.458718 0.495686 -2.27106e-19)
(0.997638 0.00895318 5.55443e-22)
(1.01089 0.0377949 -1.63381e-20)
(1.02083 0.0483508 -1.19237e-20)
(1.03095 0.0708739 0)
(1.02606 0.0889451 1.33093e-20)
(1.02341 0.107752 1.9629e-20)
(1.00082 0.13897 2.56508e-20)
(0.960779 0.176375 6.09076e-20)
(0.882446 0.24066 -9.81662e-20)
(0.730392 0.308472 -1.20917e-19)
(0.998985 0.00697725 3.34503e-20)
(1.00827 0.0357273 -5.25827e-20)
(1.02006 0.0454574 2.09199e-22)
(1.02866 0.070564 -1.50006e-20)
(1.02562 0.0892137 6.86895e-21)
(1.02379 0.11246 -1.03347e-20)
(1.00172 0.147832 -6.00484e-20)
(0.96791 0.194586 0)
(0.89108 0.277129 2.05145e-19)
(0.762583 0.378946 -2.62867e-19)
(0.999776 0.00521475 -2.39039e-20)
(1.0069 0.0340986 1.44518e-20)
(1.01926 0.0422633 3.11958e-20)
(1.02811 0.0708571 8.16633e-21)
(1.02542 0.0888912 -1.69547e-20)
(1.02691 0.117886 1.27412e-21)
(1.00363 0.155942 -4.35963e-20)
(0.980265 0.213221 -7.27162e-21)
(0.903207 0.312082 4.05314e-22)
(0.809649 0.446634 6.60659e-19)
(1.00012 0.00354868 -2.65988e-20)
(1.00652 0.0328689 2.00279e-21)
(1.01856 0.0387463 2.56207e-20)
(1.02905 0.0717076 1.7322e-20)
(1.0257 0.0878941 -8.62689e-21)
(1.03242 0.124069 -1.27098e-20)
(1.00671 0.162926 6.47459e-20)
(0.997608 0.232759 -2.53079e-21)
(0.918371 0.344393 -2.32893e-19)
(0.871266 0.509989 7.75974e-20)
(1.0002 0.00187019 1.82937e-20)
(1.00678 0.0319494 -2.63189e-20)
(1.01816 0.0349284 -2.07135e-20)
(1.03114 0.0729855 1.03415e-20)
(1.02683 0.0862391 0)
(1.03972 0.130904 0)
(1.01177 0.168682 5.63226e-20)
(1.01827 0.25305 1.30312e-21)
(0.939057 0.373978 -1.09208e-19)
(0.943185 0.567419 8.93875e-20)
(1.00021 0.000147752 5.10769e-21)
(1.00733 0.0312253 2.09206e-20)
(1.01835 0.0308508 -5.735e-20)
(1.03405 0.0745197 -2.02877e-20)
(1.02922 0.0839858 -4.56333e-22)
(1.04842 0.138283 5.61732e-20)
(1.019 0.172989 8.81612e-20)
(1.04277 0.274603 -1.93148e-23)
(0.961823 0.398591 1.79325e-19)
(1.03203 0.624904 -2.05795e-19)
(1.0003 -0.00162782 -1.9498e-20)
(1.00783 0.0305575 1.08915e-20)
(1.01941 0.0265587 -1.6049e-20)
(1.0374 0.0761059 -4.33797e-20)
(1.03335 0.0812679 1.4959e-21)
(1.05779 0.1459 -1.52795e-21)
(1.02983 0.176107 -4.06004e-21)
(1.06785 0.296632 -1.9682e-19)
(0.995457 0.419311 1.34565e-19)
(1.1154 0.666398 -5.04177e-19)
(1.00056 -0.00344501 -3.26433e-21)
(1.00813 0.0297964 -3.10876e-20)
(1.02152 0.0220924 3.25719e-20)
(1.04099 0.0775269 2.32899e-20)
(1.03945 0.0782584 7.97243e-22)
(1.06758 0.153312 -6.65366e-20)
(1.04411 0.178324 -5.07527e-20)
(1.0956 0.319155 3.5557e-19)
(1.02915 0.43721 1.25797e-20)
(1.22879 0.72545 7.96671e-19)
(1.00099 -0.00526745 1.29872e-20)
(1.00824 0.0288026 1.40063e-20)
(1.02465 0.0174964 3.87596e-20)
(1.0449 0.0786499 -2.56879e-20)
(1.04743 0.0750016 -6.84147e-20)
(1.07749 0.160678 8.62141e-22)
(1.06275 0.178036 -7.11744e-20)
(1.1232 0.339946 4.67119e-19)
(1.08323 0.437913 -7.97921e-21)
(1.29671 0.742794 -1.10445e-18)
(1.00157 -0.00703085 3.06792e-22)
(1.00833 0.0274126 2.16571e-20)
(1.02844 0.0132513 1.27482e-20)
(1.04965 0.0792071 -5.16988e-20)
(1.05594 0.0733559 -6.78079e-20)
(1.08721 0.167297 -5.767e-20)
(1.08179 0.185531 -1.32392e-19)
(1.14651 0.363806 -4.27809e-19)
(1.1389 0.466723 -2.32444e-19)
(1.43031 0.814056 -1.16645e-18)
(1.00259 -0.00998635 -9.52678e-22)
(1.00807 0.0254685 -4.64241e-21)
(1.03389 0.00499599 -1.51165e-20)
(1.0575 0.0787129 2.82662e-20)
(1.06647 0.0643458 5.19325e-20)
(1.10678 0.171651 -3.75727e-20)
(1.10426 0.170001 1.33281e-19)
(1.19128 0.374496 -3.95785e-19)
(1.19873 0.40672 -1.79666e-19)
(1.44504 0.804411 6.11022e-19)
(1.00446 -0.0143224 2.85424e-22)
(1.0062 0.0224086 7.91738e-21)
(1.04392 -0.00834861 -1.0719e-20)
(1.06503 0.0752865 5.21972e-20)
(1.08405 0.048531 8.97534e-20)
(1.12437 0.169106 1.12358e-19)
(1.14518 0.144918 3.0881e-20)
(1.21908 0.361215 1.9402e-19)
(1.29674 0.356023 3.07141e-19)
(1.46378 0.705374 2.39516e-20)
(1.00555 -0.0184237 -1.22521e-21)
(1.00441 0.0171269 -3.65117e-21)
(1.05942 -0.0217908 3.80547e-21)
(1.06858 0.0696262 3.98481e-21)
(1.10911 0.0327905 2.75792e-34)
(1.1341 0.160608 -6.38725e-21)
(1.19486 0.120202 -4.53526e-34)
(1.23535 0.336858 1.68796e-20)
(1.37238 0.301798 -5.17709e-20)
(1.49876 0.616126 -5.31888e-20)
(1.00308 -0.0226017 1.49475e-20)
(1.00804 0.0081166 -4.13029e-35)
(1.0756 -0.0338441 -4.33952e-21)
(1.0725 0.0597289 -2.21756e-20)
(1.13487 0.0186927 -4.57013e-20)
(1.14584 0.146971 -3.81059e-20)
(1.23495 0.0968902 -5.97158e-34)
(1.25735 0.308565 -7.58166e-20)
(1.41129 0.249452 -1.39959e-19)
(1.53648 0.525286 8.95877e-20)
(0.995192 -0.0274311 0)
(1.02229 -0.00566942 -7.18107e-36)
(1.08671 -0.0433452 0)
(1.085 0.0442857 0)
(1.15553 0.00604241 0)
(1.16909 0.126704 0)
(1.25736 0.0768339 -4.36766e-34)
(1.28928 0.273373 0)
(1.42861 0.204286 -1.83527e-20)
(1.56667 0.431829 5.29978e-20)
(0.982493 -0.0340491 2.2764e-21)
(1.04726 -0.0217918 -2.21286e-22)
(1.09184 -0.0502302 -5.44719e-21)
(1.10947 0.0267164 0)
(1.17072 -0.00402098 0)
(1.20043 0.102676 5.81855e-21)
(1.26922 0.0612084 4.29082e-20)
(1.32228 0.232089 -1.2216e-20)
(1.44533 0.165829 -2.67914e-20)
(1.58511 0.34394 2.02738e-19)
(0.968601 -0.047122 -8.1946e-20)
(1.07959 -0.0458695 2.63578e-21)
(1.09045 -0.0604511 -6.04954e-21)
(1.1417 0.000394185 -1.39046e-20)
(1.17024 -0.0159788 -2.84254e-20)
(1.22204 0.0744436 -1.37169e-20)
(1.26248 0.0473741 -3.67026e-20)
(1.34088 0.185556 -2.93405e-20)
(1.45241 0.131149 -5.24151e-20)
(1.59859 0.261577 6.54797e-20)
(0.958898 -0.0537117 -5.25373e-21)
(1.10578 -0.0576122 -1.74586e-20)
(1.06796 -0.0588981 -6.60799e-21)
(1.14663 -0.0158179 -4.78796e-21)
(1.10878 -0.0175437 -4.42907e-35)
(1.19388 0.0495836 6.26054e-21)
(1.1856 0.0365859 -7.95532e-34)
(1.31571 0.135575 -1.16683e-20)
(1.40186 0.0958489 1.66754e-20)
(1.59048 0.181621 2.4164e-20)
(0.954064 -0.0943061 1.97469e-19)
(1.05933 -0.0888859 -4.87101e-21)
(0.952049 -0.0735111 -7.07528e-21)
(0.994984 -0.0346208 1.25195e-20)
(0.886343 -0.0163938 1.60756e-20)
(0.997445 0.0258912 1.54523e-20)
(0.944269 0.0261962 1.54446e-20)
(1.14169 0.0795738 -8.3879e-21)
(1.19234 0.0588804 -1.79195e-20)
(1.4402 0.102644 1.30969e-19)
(0.825201 -0.046775 7.92771e-21)
(0.727103 -0.033498 -9.21651e-35)
(0.530647 -0.018485 -8.16842e-21)
(0.475879 -0.00333541 0)
(0.39673 0.000161897 0)
(0.466555 0.00869703 6.22004e-21)
(0.449858 0.00529125 -4.4379e-36)
(0.595899 0.0171622 -1.12016e-20)
(0.650725 0.00949794 -2.44975e-20)
(0.834477 0.0183259 5.22095e-20)
(1.64698 0.835606 -1.83563e-19)
(1.74656 0.818015 -2.71995e-19)
(1.86067 0.786393 0)
(1.96769 0.744325 1.49741e-19)
(2.06581 0.688582 6.34173e-19)
(2.15482 0.626003 -1.10674e-19)
(2.23319 0.554894 1.6124e-18)
(2.30638 0.481939 -7.91633e-20)
(2.36542 0.405092 -3.47977e-19)
(2.42164 0.333158 3.03068e-19)
(1.67215 0.687398 9.31794e-20)
(1.74525 0.672921 1.08061e-19)
(1.84084 0.642424 -1.32629e-20)
(1.92443 0.604601 2.07646e-19)
(2.01556 0.554541 -1.69619e-19)
(2.08373 0.504534 -3.9356e-19)
(2.1622 0.44622 -1.17385e-19)
(2.2158 0.393264 5.35306e-19)
(2.28514 0.332536 -2.01639e-20)