/*--------------------------------*- C++ -*----------------------------------*\
  =========                 |
  \\      /  F ield         | OpenFOAM: The Open Source CFD Toolbox
   \\    /   O peration     | Website:  https://openfoam.org
    \\  /    A nd           | Version:  13
     \\/     M anipulation  |
\*---------------------------------------------------------------------------*/
FoamFile
{
    format      ascii;
    class       volScalarField;
    location    "0.6875";
    object      p;
}
// * * * * * * * * * * * * * * * * * * * * * * * * * * * * * * * * * * * * * //

dimensions      [0 2 -2 0 0 0 0];

internalField   nonuniform List<scalar> 
1800
(
-1.12687
-1.11971
-1.07971
-1.00219
-0.904746
-0.806545
-0.716616
-0.6368
-0.566285
-0.508628
-1.32208
-1.31385
-1.26753
-1.17914
-1.06948
-0.959766
-0.859637
-0.771264
-0.694794
-0.632012
-1.50772
-1.49798
-1.44464
-1.345
-1.22322
-1.10221
-0.991876
-0.894331
-0.809205
-0.736973
-1.67888
-1.66711
-1.60628
-1.49565
-1.36282
-1.23202
-1.11314
-1.00799
-0.915994
-0.837326
-1.8296
-1.81516
-1.74622
-1.62472
-1.48165
-1.34204
-1.21547
-1.10342
-1.00511
-0.919995
-1.95521
-1.93759
-1.86031
-1.7286
-1.57667
-1.42989
-1.29722
-1.17976
-1.07646
-0.986431
-2.05068
-2.02932
-1.94357
-1.8025
-1.6432
-1.49083
-1.35353
-1.23198
-1.12494
-1.03113
-2.11216
-2.08668
-1.99278
-1.84356
-1.67861
-1.5224
-1.38205
-1.25782
-1.14828
-1.05185
-2.13641
-2.10662
-2.00512
-1.84921
-1.68047
-1.52217
-1.38034
-1.25486
-1.14409
-1.04623
-2.12135
-2.0873
-1.97904
-1.8182
-1.6476
-1.48894
-1.34715
-1.22172
-1.11087
-1.01261
0.316701
0.323601
0.334784
0.348809
0.361695
0.371021
0.376289
0.377984
0.376831
0.373422
0.268003
0.274722
0.286621
0.302596
0.318367
0.330918
0.33934
0.343968
0.3455
0.344687
0.19153
0.198043
0.211057
0.230025
0.250198
0.267651
0.280865
0.289941
0.295543
0.298688
0.0886144
0.0951065
0.109639
0.132617
0.158645
0.182574
0.202091
0.216992
0.227912
0.236245
-0.0385695
-0.032235
-0.0156631
0.0123613
0.0456152
0.0774531
0.104613
0.126539
0.143843
0.158417
-0.187719
-0.181235
-0.162218
-0.128177
-0.0864554
-0.0454752
-0.00955362
0.0203696
0.0449091
0.0665483
-0.35518
-0.348865
-0.326876
-0.285909
-0.234679
-0.183608
-0.138109
-0.0995103
-0.067149
-0.0379654
-0.537194
-0.531017
-0.505605
-0.457012
-0.395634
-0.334007
-0.278612
-0.231144
-0.190798
-0.154191
-0.729679
-0.723261
-0.693754
-0.636678
-0.56446
-0.491834
-0.426317
-0.36992
-0.321563
-0.278082
-0.927562
-0.920929
-0.886554
-0.819696
-0.735219
-0.650147
-0.572976
-0.505902
-0.447699
-0.396797
0.338709
0.269067
0.211348
0.167252
0.132307
0.103417
0.0780267
0.0546899
0.0324877
0.010809
0.326295
0.263107
0.208835
0.165855
0.131247
0.102539
0.0773214
0.0541702
0.0321606
0.0106835
0.305995
0.253175
0.204637
0.163772
0.129916
0.101564
0.0765994
0.0536635
0.0318492
0.0105635
0.277264
0.239359
0.198734
0.160969
0.128298
0.100483
0.0758516
0.0531635
0.0315495
0.0104479
0.239351
0.221807
0.191111
0.157407
0.126372
0.0992842
0.07507
0.0526636
0.0312578
0.0103362
0.191457
0.200754
0.181763
0.153043
0.124117
0.0979579
0.074247
0.0521581
0.0309712
0.0102282
0.132922
0.176621
0.170811
0.147867
0.121514
0.0964955
0.0733763
0.0516415
0.0306862
0.0101238
0.0623767
0.149324
0.158406
0.141916
0.118564
0.0948956
0.0724554
0.0511104
0.0304011
0.0100237
-0.0220205
0.117377
0.144007
0.134939
0.115133
0.0930993
0.0714589
0.0505522
0.0301106
0.00992904
-0.114909
0.0814092
0.127962
0.127054
0.111202
0.0910684
0.07036
0.0499502
0.029805
0.00983943
-0.168277
0.0491094
0.109169
0.115849
0.104556
0.0870538
0.0678865
0.0484485
0.0290098
0.00963412
-0.183351
0.0160859
0.0828022
0.0982023
0.093467
0.0801293
0.0635377
0.0457821
0.0275657
0.00918081
-0.181802
-0.00377109
0.0642358
0.083954
0.0835897
0.073612
0.0593289
0.0431665
0.026134
0.00872713
-0.176984
-0.0209053
0.0470684
0.0705386
0.0741228
0.0672806
0.0552104
0.0405966
0.0247183
0.00827265
-0.168108
-0.0328685
0.0329485
0.0587397
0.0654464
0.0613363
0.051296
0.038137
0.0233529
0.00782962
-0.158454
-0.0417612
0.0210656
0.0483889
0.0576255
0.0558807
0.047666
0.0358405
0.0220671
0.00740732
-0.150083
-0.0486021
0.0110918
0.0394469
0.050739
0.0510107
0.0443972
0.0337576
0.0208869
0.00701241
-0.144621
-0.0546135
0.00256928
0.0318327
0.0448497
0.0468196
0.0415685
0.0319432
0.0198429
0.00665807
-0.140127
-0.059901
-0.00487897
0.0252916
0.0398261
0.0432475
0.0391498
0.0303774
0.0189093
0.00632142
-0.146627
-0.0661597
-0.0105334
0.0209903
0.0366601
0.0410195
0.0376476
0.0294075
0.0183239
0.00611039
-0.846959
-0.87976
-0.88898
-0.875846
-0.842277
-0.790531
-0.724545
-0.644978
-0.558968
-0.465393
-0.668818
-0.701278
-0.714942
-0.711081
-0.690338
-0.655921
-0.609502
-0.553232
-0.493062
-0.429654
-0.532702
-0.564535
-0.580612
-0.582399
-0.569576
-0.546351
-0.512154
-0.470837
-0.425473
-0.376602
-0.427986
-0.459227
-0.476788
-0.482164
-0.474743
-0.458694
-0.43261
-0.401045
-0.365268
-0.326744
-0.34862
-0.379179
-0.397704
-0.405367
-0.401732
-0.390377
-0.370063
-0.345212
-0.316201
-0.284816
-0.288247
-0.318511
-0.337882
-0.347208
-0.346373
-0.338234
-0.322029
-0.301711
-0.277269
-0.250592
-0.243633
-0.273929
-0.294066
-0.304659
-0.305898
-0.299999
-0.286687
-0.269397
-0.248137
-0.224631
-0.211749
-0.242853
-0.263977
-0.275688
-0.278502
-0.274194
-0.262849
-0.247519
-0.228356
-0.207299
-0.195748
-0.22638
-0.248371
-0.261491
-0.26576
-0.26259
-0.25217
-0.237061
-0.217865
-0.194764
-0.184461
-0.217775
-0.242017
-0.257568
-0.264835
-0.264744
-0.257783
-0.245537
-0.228304
-0.205659
0.485906
0.432921
0.371567
0.305194
0.232126
0.149978
0.0585256
-0.0363893
-0.115554
-0.149908
0.291504
0.234464
0.169597
0.097246
0.0154436
-0.0776821
-0.18168
-0.289547
-0.379271
-0.417505
0.0813229
0.0197488
-0.0496462
-0.127717
-0.216553
-0.317979
-0.431402
-0.549296
-0.648054
-0.688785
-0.117291
-0.185413
-0.261942
-0.348004
-0.445592
-0.556524
-0.680039
-0.807932
-0.916217
-0.957948
-0.29909
-0.374798
-0.459468
-0.554471
-0.661838
-0.783411
-0.918138
-1.05621
-1.17373
-1.21488
-0.465852
-0.548538
-0.640819
-0.744327
-0.861152
-0.993035
-1.13902
-1.28822
-1.40945
-1.45094
-0.617453
-0.705737
-0.804419
-0.915284
-1.04043
-1.18149
-1.33697
-1.49649
-1.61572
-1.65907
-0.750866
-0.84348
-0.947304
-1.06416
-1.19603
-1.34445
-1.50848
-1.67046
-1.78989
-1.83316
-0.862177
-0.958205
-1.06597
-1.18729
-1.32433
-1.47825
-1.64671
-1.81047
-1.92811
-1.96945
-0.950034
-1.04802
-1.15809
-1.28226
-1.42255
-1.57985
-1.75038
-1.91397
-2.02776
-2.0658
1.65989
1.67414
1.69021
1.70631
1.7214
1.73486
1.74592
1.75412
1.76071
1.76612
1.60734
1.61957
1.63315
1.64641
1.65837
1.66836
1.67561
1.6799
1.68314
1.68672
1.53458
1.54399
1.55402
1.56321
1.57066
1.57567
1.57744
1.57609
1.57453
1.57553
1.44214
1.44802
1.45357
1.45756
1.45926
1.45788
1.45264
1.44406
1.43631
1.43407
1.33091
1.33274
1.33303
1.3309
1.32575
1.31676
1.30313
1.28588
1.27069
1.26461
1.20256
1.19997
1.19434
1.18517
1.17214
1.15436
1.13103
1.10378
1.08003
1.06971
1.0597
1.05248
1.04053
1.02374
1.00205
0.974509
0.940418
0.902047
0.868746
0.853814
0.908876
0.896231
0.876468
0.850377
0.81841
0.779566
0.733209
0.682371
0.638594
0.618904
0.755404
0.737304
0.709057
0.67262
0.629127
0.577542
0.517396
0.452666
0.397383
0.372638
0.612978
0.579968
0.536242
0.485791
0.428911
0.363631
0.289289
0.21056
0.143822
0.114241
1.50122
1.40656
1.51213
1.40516
1.4341
1.43942
1.44579
1.47083
1.51451
1.60078
1.4954
1.4014
1.50713
1.39921
1.42752
1.43132
1.43539
1.45674
1.49379
1.56653
1.49005
1.3963
1.50237
1.39266
1.42055
1.42246
1.42349
1.43998
1.46772
1.52056
1.48515
1.39131
1.49787
1.38552
1.41323
1.41282
1.41009
1.42046
1.43628
1.46239
1.4807
1.38648
1.49362
1.37785
1.40561
1.40239
1.39515
1.39802
1.39949
1.39134
1.47674
1.38185
1.48958
1.36968
1.39773
1.39112
1.37866
1.37254
1.35732
1.30679
1.47319
1.37749
1.48569
1.36108
1.38961
1.37897
1.36056
1.34392
1.30945
1.20765
1.4701
1.37346
1.48186
1.35217
1.38127
1.36588
1.34076
1.31206
1.25559
1.09615
1.46748
1.36986
1.47794
1.34312
1.3727
1.35189
1.31928
1.27673
1.1946
0.969176
1.46561
1.36681
1.47376
1.33411
1.36383
1.33706
1.2965
1.23943
1.12954
0.84001
1.46348
1.36344
1.46843
1.3253
1.35104
1.31815
1.26694
1.19203
1.05649
0.719516
1.46343
1.35974
1.46364
1.31706
1.33623
1.29788
1.23623
1.14682
0.994909
0.676749
1.46493
1.35688
1.45975
1.30939
1.32268
1.27909
1.20837
1.10803
0.945823
0.644696
1.46863
1.35516
1.45658
1.30257
1.31048
1.26206
1.18367
1.07537
0.906028
0.622947
1.47482
1.35471
1.45408
1.29674
1.29983
1.24714
1.16254
1.04851
0.875054
0.610124
1.48398
1.35558
1.45219
1.29195
1.29086
1.23454
1.14511
1.02712
0.85195
0.603179
1.49632
1.35741
1.45078
1.28816
1.28368
1.2244
1.13142
1.01081
0.835546
0.60042
1.51632
1.36141
1.45048
1.28538
1.27841
1.21683
1.12146
0.999263
0.824864
0.601174
1.53137
1.36092
1.44761
1.28336
1.27522
1.2119
1.11526
0.992314
0.818878
0.605089
1.58616
1.37082
1.44973
1.28103
1.27477
1.20928
1.11236
0.988904
0.816435
0.607628
0.457202
0.290594
0.107378
-0.0631348
-0.218088
-0.361686
-0.494348
-0.612622
-0.712404
-0.790829
0.396427
0.268404
0.12839
-0.00650216
-0.132201
-0.250423
-0.361096
-0.461206
-0.547687
-0.617557
0.370284
0.266746
0.156119
0.0444231
-0.0628986
-0.1645
-0.260062
-0.347338
-0.423389
-0.485841
0.366987
0.275825
0.181837
0.0855424
-0.0084426
-0.0974753
-0.18137
-0.258672
-0.326785
-0.383636
0.373784
0.290326
0.207262
0.122305
0.0379478
-0.0427708
-0.119141
-0.189992
-0.253094
-0.306505
0.385046
0.30703
0.230952
0.153394
0.0754235
0.000250183
-0.0709563
-0.137242
-0.196705
-0.247485
0.397305
0.323307
0.251911
0.179253
0.105572
0.0340852
-0.0337541
-0.0970852
-0.154235
-0.203504
0.40935
0.337928
0.269607
0.199951
0.128793
0.0594496
-0.00644931
-0.0680653
-0.123803
-0.172029
0.423507
0.353856
0.286633
0.21743
0.146479
0.0771911
0.0112496
-0.0504828
-0.106564
-0.155426
0.437098
0.370972
0.304437
0.234571
0.163418
0.093874
0.027262
-0.0353353
-0.0923937
-0.14245
-3.19523
-3.13652
-2.98504
-2.78813
-2.59402
-2.42289
-2.27797
-2.15776
-2.06101
-1.98799
-3.28027
-3.2324
-3.09753
-2.9085
-2.71443
-2.54049
-2.39246
-2.26948
-2.17097
-2.09824
-3.26656
-3.23013
-3.11367
-2.93421
-2.73993
-2.5619
-2.40958
-2.28297
-2.18132
-2.10572
-3.15863
-3.13325
-3.03477
-2.86526
-2.67018
-2.4866
-2.32833
-2.19675
-2.09076
-2.00991
-2.96424
-2.94869
-2.86604
-2.70684
-2.5119
-2.32319
-2.15888
-2.02209
-1.9117
-1.82559
-2.69382
-2.68582
-2.61596
-2.46823
-2.27731
-2.08741
-1.92006
-1.78021
-1.66705
-1.57901
-2.36308
-2.35979
-2.30027
-2.16633
-1.98618
-1.80276
-1.63885
-1.50102
-1.38835
-1.30172
-1.99687
-1.99437
-1.94295
-1.82501
-1.66285
-1.49472
-1.34235
-1.213
-1.10631
-1.0248
-1.62205
-1.61859
-1.57414
-1.47388
-1.33512
-1.18962
-1.05639
-0.942389
-0.847584
-0.778315
-1.26273
-1.25806
-1.22007
-1.13724
-1.02316
-0.902822
-0.791608
-0.695205
-0.61205
-0.548808
-0.936218
-0.929553
-0.897816
-0.831037
-0.740583
-0.645721
-0.55865
-0.484322
-0.421523
-0.367521
-0.649092
-0.641684
-0.615245
-0.562029
-0.49155
-0.418364
-0.351638
-0.294936
-0.247701
-0.204878
-0.402391
-0.394896
-0.372746
-0.330384
-0.275752
-0.219785
-0.1692
-0.126347
-0.0909381
-0.058377
-0.194633
-0.187254
-0.168566
-0.135018
-0.0932859
-0.0515367
-0.0145501
0.0162513
0.0412227
0.0638236
-0.0236661
-0.0164901
-0.000540651
0.0259502
0.0573296
0.0875569
0.113389
0.134106
0.150203
0.16407
0.112627
0.119526
0.133438
0.154547
0.177992
0.199327
0.216481
0.22925
0.238236
0.245045
0.215723
0.222554
0.234995
0.252214
0.269894
0.284728
0.295491
0.302348
0.305972
0.307448
0.286815
0.293739
0.305203
0.319868
0.333747
0.344267
0.350757
0.35363
0.353601
0.351438
0.32686
0.333858
0.344813
0.358153
0.370048
0.378312
0.382498
0.38322
0.381206
0.377046
0.336588
0.343582
0.354444
0.367572
0.379131
0.386964
0.390833
0.391219
0.388869
0.384328
-0.0504423
0.11318
0.146607
0.145199
0.130491
0.109631
0.0863704
0.0621693
0.0375313
0.0126115
0.0546008
0.148371
0.161204
0.151265
0.13175
0.109072
0.0852842
0.0611311
0.0368199
0.0123666
0.138321
0.176789
0.172937
0.155302
0.132601
0.108491
0.084271
0.0601732
0.0361652
0.0121397
0.201261
0.200741
0.18323
0.159127
0.133291
0.107928
0.0833351
0.0592928
0.0355637
0.0119296
0.249524
0.2216
0.192135
0.162241
0.133771
0.107366
0.0824637
0.0584819
0.0350108
0.0117348
0.286171
0.23911
0.199379
0.16466
0.134052
0.106799
0.0816477
0.057734
0.0345026
0.0115538
0.31288
0.25295
0.204995
0.166434
0.134136
0.106213
0.0808763
0.0570419
0.034035
0.0113852
0.330894
0.262976
0.20901
0.167578
0.134014
0.105595
0.080139
0.0563987
0.033604
0.0112276
0.340992
0.268998
0.211415
0.168098
0.133676
0.104932
0.0794253
0.0557971
0.0332052
0.0110799
0.343566
0.271031
0.212201
0.167993
0.133112
0.104211
0.0787247
0.0552299
0.0328345
0.0109407
-0.264951
-0.0102065
0.0869305
0.11756
0.11948
0.106228
0.086112
0.0629772
0.0384304
0.0130272
-0.241806
0.0123094
0.0960627
0.121802
0.120657
0.106514
0.0860964
0.0628644
0.0383054
0.0129702
-0.200629
0.0297748
0.10443
0.125642
0.122369
0.107078
0.0861615
0.0627551
0.0381668
0.012903
-0.159627
0.0530849
0.116115
0.131171
0.124821
0.108004
0.086385
0.0627103
0.0380575
0.0128461
-0.115826
0.0836886
0.132505
0.139176
0.128304
0.109258
0.0867498
0.0627242
0.0379756
0.0127999
-1.92381
-2.03001
-2.04625
-1.97448
-1.82386
-1.63129
-1.38807
-1.15768
-0.917476
-0.693714
-1.92124
-2.02529
-2.03648
-1.95925
-1.80524
-1.60982
-1.36372
-1.12643
-0.892758
-0.668969
-1.92312
-2.02751
-2.03545
-1.95199
-1.79033
-1.5821
-1.32856
-1.07414
-0.836333
-0.624531
-1.93258
-2.03928
-2.04551
-1.95493
-1.78193
-1.55368
-1.28834
-1.01989
-0.78539
-0.58808
-1.95099
-2.06039
-2.06511
-1.96739
-1.7822
-1.53646
-1.2606
-0.987131
-0.747609
-0.537999
1.08182
1.05956
1.02902
0.993472
0.953277
0.90653
0.851948
0.792661
0.741892
0.718102
1.21053
1.20403
1.18964
1.16905
1.14331
1.11136
1.07229
1.02873
0.991464
0.974514
1.33583
1.33458
1.32825
1.31753
1.30285
1.28329
1.25792
1.22857
1.2035
1.19271
1.44585
1.44952
1.45053
1.44859
1.44354
1.43455
1.42075
1.40327
1.38822
1.38249
1.53862
1.54615
1.55258
1.55719
1.55953
1.55878
1.55411
1.54612
1.53921
1.53779
1.61118
1.62196
1.63289
1.64287
1.65117
1.65705
1.6597
1.65927
1.65875
1.66064
1.66279
1.67605
1.69036
1.70432
1.71703
1.72782
1.73589
1.74105
1.74523
1.74959
1.69341
1.70831
1.72486
1.74144
1.75706
1.77106
1.78269
1.79149
1.79872
1.80463
1.70309
1.7187
1.73629
1.75409
1.77105
1.78657
1.79986
1.81037
1.819
1.8256
1.69189
1.70728
1.72469
1.74232
1.7591
1.77442
1.78751
1.79781
1.80621
1.81264
-1.78688
-1.86195
-1.95778
-2.0752
-2.21677
-2.38482
-2.5781
-2.77995
-2.94421
-3.01171
-1.50999
-1.5876
-1.68305
-1.79774
-1.93532
-2.09834
-2.28653
-2.49199
-2.66452
-2.73643
-1.17843
-1.2574
-1.3524
-1.46458
-1.59759
-1.75441
-1.93538
-2.12999
-2.31202
-2.38446
-0.816474
-0.895703
-0.989556
-1.09853
-1.22573
-1.3743
-1.54489
-1.73014
-1.90275
-1.97881
-0.450138
-0.529103
-0.620471
-0.724371
-0.843643
-0.981584
-1.1396
-1.31108
-1.46742
-1.54039
-0.106931
-0.182456
-0.267895
-0.363254
-0.471322
-0.595475
-0.737297
-0.890635
-1.02843
-1.09495
0.198764
0.131814
0.0567043
-0.0264963
-0.120528
-0.228645
-0.352275
-0.485622
-0.60405
-0.661841
0.473638
0.417942
0.355063
0.285123
0.205385
0.112874
0.00658904
-0.107819
-0.207965
-0.256633
0.732765
0.685998
0.631934
0.571773
0.502986
0.422989
0.331233
0.233218
0.149041
0.108849
0.959714
0.91825
0.868091
0.814208
0.754924
0.687703
0.611647
0.531194
0.463089
0.431116
1.59569
1.45642
1.5594
1.42469
1.47764
1.4751
1.47146
1.4712
1.43475
1.27393
1.58184
1.45215
1.55691
1.42582
1.47489
1.47548
1.47378
1.48167
1.46649
1.35956
1.56933
1.44753
1.55345
1.42647
1.4718
1.47506
1.47653
1.49137
1.49401
1.44535
1.55803
1.44267
1.54921
1.42651
1.4684
1.47372
1.47762
1.4979
1.51476
1.51097
1.54774
1.43766
1.5444
1.42582
1.46467
1.47142
1.47731
1.50179
1.52987
1.56232
1.53833
1.43256
1.5392
1.42433
1.4606
1.46819
1.47564
1.50305
1.53986
1.59939
1.52968
1.4274
1.53377
1.42203
1.45615
1.46407
1.47257
1.50169
1.545
1.62333
1.5217
1.4222
1.52825
1.41893
1.45129
1.45911
1.46808
1.49776
1.54516
1.63501
1.51433
1.41699
1.52275
1.41506
1.446
1.45333
1.46213
1.49131
1.54012
1.635
1.50751
1.41177
1.51735
1.41045
1.44027
1.44676
1.4547
1.48234
1.52993
1.62356
1.73196
1.4711
1.56472
1.42316
1.47987
1.46805
1.45231
1.42548
1.33568
1.13087
1.67488
1.46507
1.56295
1.42498
1.47876
1.46961
1.45376
1.42884
1.3426
1.13537
1.65334
1.46663
1.56393
1.42554
1.47891
1.47086
1.45667
1.43527
1.35654
1.1458
1.63037
1.46413
1.56284
1.42536
1.47901
1.47219
1.4607
1.44448
1.37539
1.16644
1.61138
1.46047
1.56122
1.42457
1.47897
1.47349
1.46523
1.4559
1.3993
1.18903
0.775254
0.620321
0.416609
0.149891
-0.166686
-0.507163
-0.849198
-1.18073
-1.48584
-1.73914
0.774882
0.620893
0.424157
0.167145
-0.140618
-0.478445
-0.8244
-1.16229
-1.47418
-1.7338
0.795053
0.636361
0.436679
0.185877
-0.114374
-0.452246
-0.80484
-1.14978
-1.4676
-1.73251
0.846687
0.669386
0.454784
0.203479
-0.0926392
-0.431226
-0.790558
-1.14317
-1.46705
-1.73749
0.926658
0.720167
0.480531
0.219648
-0.0780902
-0.417932
-0.782026
-1.14157
-1.47242
-1.74997
)
;

boundaryField
{
    left
    {
        type            zeroGradient;
    }
    right
    {
        type            fixedValue;
        value           uniform 0;
    }
    down
    {
        type            zeroGradient;
    }
    up
    {
        type            zeroGradient;
    }
    cylinder
    {
        type            zeroGradient;
    }
    defaultFaces
    {
        type            empty;
    }
}


// ************************************************************************* //
