/*--------------------------------*- C++ -*----------------------------------*\
  =========                 |
  \\      /  F ield         | OpenFOAM: The Open Source CFD Toolbox
   \\    /   O peration     | Website:  https://openfoam.org
    \\  /    A nd           | Version:  13
     \\/     M anipulation  |
\*---------------------------------------------------------------------------*/
FoamFile
{
    format      ascii;
    class       volScalarField;
    location    "0.605";
    object      p;
}
// * * * * * * * * * * * * * * * * * * * * * * * * * * * * * * * * * * * * * //

dimensions      [0 2 -2 0 0 0 0];

internalField   nonuniform List<scalar> 
1800
(
5.74584
7.85295
10.0058
11.4342
12.2686
12.6792
12.8103
12.6529
11.4069
7.31494
9.5958
12.0715
14.5764
16.2605
17.3171
17.9799
18.4346
18.6738
17.9494
15.2717
15.9884
18.6132
21.2859
23.1492
24.4094
25.2912
25.942
26.3254
25.8543
24.0234
24.9838
27.5532
30.2017
32.1162
33.4815
34.4906
35.2531
35.7051
35.299
33.6144
36.0426
38.4035
40.8557
42.6673
43.9917
44.9879
45.7425
46.1919
45.8417
44.2862
48.7196
50.7722
52.9159
54.5221
55.7131
56.6154
57.2977
57.7083
57.4272
56.0678
62.6682
64.341
66.0967
67.4287
68.4308
69.2004
69.7918
70.1688
69.9937
68.905
77.5941
78.8357
80.1468
81.1561
81.932
82.5459
83.04
83.3949
83.3615
82.6251
93.2123
93.992
94.8236
95.4785
96.0013
96.4388
96.8215
97.1449
97.2552
96.9207
109.241
109.546
109.878
110.152
110.39
110.611
110.828
111.042
111.203
111.23
-0.602825
-0.85516
-0.63257
-0.218052
0.254201
0.721713
1.08133
1.29244
1.43742
1.58385
-0.482827
-0.997372
-1.10596
-0.899232
-0.475164
-0.0508521
0.242467
0.485165
0.764974
1.0382
0.51369
-0.452514
-1.28253
-1.4474
-1.12045
-0.81394
-0.59938
-0.293796
0.113322
0.499093
0.905781
-0.23455
-1.43033
-1.76829
-1.54818
-1.3936
-1.26733
-0.961645
-0.50461
0.0032968
0.475265
-0.491972
-1.43084
-1.7217
-1.66447
-1.67422
-1.63666
-1.37438
-0.88293
-0.188632
-0.226605
-0.743121
-1.1429
-1.27224
-1.29273
-1.35749
-1.34922
-1.14035
-0.615541
0.317034
-0.560181
-0.522275
-0.34552
-0.199415
-0.114769
-0.0940575
-0.0553584
0.114777
0.692817
1.92306
-0.0754476
0.51092
1.23197
1.73644
2.06602
2.27934
2.42896
2.64584
3.37669
5.03905
1.37267
2.48063
3.72909
4.65058
5.32059
5.81296
6.15309
6.49244
7.47945
9.76707
3.6151
5.25799
7.07617
8.4521
9.47482
10.235
10.7575
11.2106
12.2718
14.4352
2.30119
2.44023
2.3338
2.08988
1.58825
1.18528
0.856793
0.583696
0.353921
0.134028
1.95146
2.4165
2.22917
2.00581
1.50436
1.10616
0.8074
0.566729
0.354481
0.137961
1.47358
2.38705
2.12771
1.91311
1.42827
1.03885
0.762958
0.549081
0.350807
0.1391
0.848978
2.30482
2.02778
1.80678
1.35227
0.978609
0.72429
0.53271
0.343425
0.137148
0.15518
2.12934
1.91765
1.6846
1.27096
0.92191
0.689908
0.517551
0.337507
0.135538
-0.417199
1.85087
1.77977
1.54491
1.18089
0.86677
0.65868
0.503816
0.334283
0.136064
-0.566424
1.50282
1.60076
1.38505
1.07976
0.811601
0.63031
0.491935
0.334395
0.138267
0.162332
1.17383
1.37152
1.196
0.963696
0.754095
0.604317
0.482323
0.33609
0.140541
2.41878
1.03768
1.07131
0.953145
0.823974
0.691025
0.579604
0.474569
0.33182
0.13635
6.65379
1.40679
0.714318
0.636123
0.652594
0.620378
0.55534
0.462729
0.320073
0.125799
9.98102
2.57824
0.691539
0.394921
0.475178
0.540043
0.522374
0.437976
0.297038
0.109753
11.7663
2.57343
0.267267
0.0571527
0.355471
0.503055
0.48707
0.395017
0.259727
0.0844669
12.8635
2.77721
0.393875
0.148853
0.46543
0.563006
0.486079
0.362962
0.22267
0.0573595
14.1833
4.3632
1.27779
0.722958
0.785938
0.71244
0.525943
0.346987
0.189824
0.0300957
16.3599
7.10798
2.70011
1.5897
1.24001
0.932194
0.608224
0.35196
0.165774
0.00575337
19.2509
9.87496
4.33538
2.55801
1.77273
1.20203
0.724899
0.37861
0.153875
-0.0127191
21.7556
11.9373
5.854
3.51944
2.34055
1.50085
0.864369
0.424271
0.155551
-0.0231047
23.0348
13.1204
7.05112
4.4199
2.91501
1.81422
1.01776
0.48529
0.170752
-0.0241396
22.9746
13.4994
7.91162
5.26715
3.50458
2.15001
1.19108
0.56535
0.203099
-0.0140133
22.4218
13.7243
8.68284
6.12807
4.13067
2.52843
1.40633
0.681445
0.270734
0.0126917
111.786
97.8407
84.0759
71.0706
59.1312
48.351
38.7695
30.0928
20.0815
4.97633
112.766
99.4783
85.9775
72.971
60.9279
50.0471
40.514
32.256
23.591
11.4777
113.298
100.213
87.3324
75.006
63.4672
52.8752
43.4454
35.2567
27.4704
18.3363
114.511
102.77
90.8112
78.9803
67.6235
57.0281
47.3949
38.7944
31.0876
23.8245
115.088
104.076
93.1557
82.4646
72.1175
62.193
52.7305
43.8199
36.0015
29.8224
115.437
104.71
94.2032
84.0414
74.3208
65.0914
56.3321
48.0907
41.049
36.0319
115.669
105.109
94.798
84.8658
75.423
66.5425
58.2337
50.5662
44.2123
40.0929
115.769
105.248
94.981
85.1096
75.7554
67.0095
58.9058
51.5124
45.3956
41.436
115.719
105.033
94.6066
84.5875
75.1083
66.2757
58.1456
50.7762
44.5524
40.0996
115.595
104.648
93.9607
83.6832
73.9577
64.9075
56.6128
49.118
42.6091
37.4142
234.124
229.761
228.194
227.753
227.662
227.914
228.648
230.029
232.18
234.319
225.561
222.543
221.494
221.455
221.681
222.165
223.096
224.704
227.175
229.651
216.047
213.873
213.101
213.225
213.657
214.36
215.485
217.255
219.869
222.467
205.741
203.714
203.01
203.206
203.75
204.579
205.803
207.612
210.181
212.7
194.418
192.508
191.854
192.042
192.574
193.385
194.562
196.256
198.611
200.902
182.051
180.326
179.733
179.875
180.328
181.039
182.074
183.552
185.582
187.547
168.705
167.242
166.749
166.851
167.208
167.78
168.619
169.813
171.44
173.011
154.571
153.454
153.1
153.177
153.433
153.845
154.452
155.315
156.485
157.613
139.962
139.248
139.041
139.09
139.236
139.47
139.821
140.322
141.004
141.661
125.437
125.093
124.953
124.906
124.893
124.915
124.982
125.101
125.279
125.455
246.546
246.784
247.036
247.253
247.552
248.051
248.603
248.939
248.945
248.433
246.624
246.955
247.357
247.662
247.862
248.196
248.619
248.535
247.721
246.702
246.638
247.034
247.478
247.789
247.872
248.003
248.284
247.924
246.536
245.281
246.519
247.021
247.451
247.682
247.615
247.502
247.537
247.115
245.819
244.661
246.028
246.683
247.072
247.178
247.001
246.724
246.548
246.189
245.379
244.588
244.821
245.664
246.001
245.966
245.735
245.452
245.256
245.085
244.845
244.558
242.475
243.572
243.91
243.796
243.586
243.422
243.388
243.52
243.827
244.066
238.59
240.076
240.546
240.481
240.397
240.449
240.687
241.182
241.995
242.734
233.117
235.171
235.881
235.948
236.075
236.421
237.009
237.914
239.218
240.43
227.762
229.627
230.373
230.54
230.847
231.464
232.406
233.757
235.605
237.313
246.944
246.721
246.685
246.489
246.419
246.296
245.92
245.666
245.566
245.712
246.904
246.721
246.68
246.492
246.418
246.304
245.93
245.651
245.378
245.736
246.877
246.717
246.672
246.488
246.41
246.305
245.934
245.6
245.145
245.823
246.858
246.709
246.659
246.475
246.396
246.302
245.926
245.512
244.929
246.012
246.846
246.7
246.643
246.456
246.377
246.29
245.903
245.405
244.796
246.25
246.839
246.688
246.624
246.433
246.353
246.266
245.868
245.313
244.77
246.358
246.837
246.674
246.605
246.407
246.324
246.23
245.832
245.261
244.816
246.024
246.84
246.656
246.583
246.378
246.291
246.19
245.815
245.263
244.836
244.786
246.849
246.634
246.559
246.347
246.256
246.159
245.845
245.336
244.656
242.009
246.866
246.611
246.53
246.312
246.225
246.157
245.946
245.461
243.976
237.293
246.904
246.585
246.49
246.257
246.162
246.087
245.872
245.129
242.441
233.741
247.019
246.566
246.453
246.209
246.108
246.129
246.072
245.332
242.176
231.798
247.262
246.573
246.418
246.133
246.03
246.093
246.07
245.24
241.886
230.535
247.715
246.629
246.389
246.051
245.892
245.825
245.622
244.54
240.484
229.318
248.553
246.695
246.412
245.958
245.68
245.315
244.747
243.231
238.013
227.463
250.387
246.762
246.518
245.885
245.389
244.651
243.657
241.569
235.375
224.915
254.267
247.073
246.671
245.825
245.034
243.937
242.558
239.955
233.31
222.584
262.572
248.211
246.946
245.781
244.661
243.248
241.555
238.664
232.07
221.328
280.132
250.947
247.595
245.814
244.308
242.596
240.647
237.733
231.627
221.357
306.103
254.993
249.101
246.026
244.018
241.976
239.763
236.917
231.356
221.885
236.418
221.068
210.446
201.131
190.97
179.666
167.271
153.899
139.853
125.724
230.028
217.734
208.582
199.861
189.924
178.686
166.339
153.089
139.365
125.891
223.496
214.131
205.952
197.425
187.711
176.87
165.117
152.617
139.599
126.421
218.383
210.875
202.883
194.033
184.19
173.425
161.932
149.989
137.926
126.092
212.986
206.591
198.598
189.504
179.834
169.697
159.146
148.279
137.223
126.13
207.386
202.09
194.83
186.359
177.361
167.906
157.986
147.664
137.043
126.256
203.591
199.151
192.561
184.665
176.131
167.045
157.425
147.35
136.939
126.329
202.309
198.051
191.705
184.093
175.78
166.843
157.324
147.321
136.962
126.393
203.635
198.92
192.471
184.886
176.554
167.538
157.901
147.755
137.24
126.508
206.309
200.874
194.138
186.427
177.931
168.7
158.817
148.413
137.637
126.644
112.187
112.357
112.441
112.292
111.786
111.425
111.24
111.525
111.517
111.268
89.6124
90.0757
90.2943
89.8607
88.4288
87.3424
86.7215
87.3831
87.4207
86.8342
68.7695
69.3972
69.6585
68.9918
67.0524
65.3407
64.3205
64.8692
65.1736
64.6184
50.652
51.2585
51.4481
50.625
48.6459
46.4799
45.1498
45.1852
45.9236
45.6902
36.0069
36.4153
36.4656
35.5843
33.7925
31.4765
29.8327
29.2675
30.0751
30.2628
24.9548
25.0583
24.9362
24.013
22.4355
20.4061
18.6153
17.6737
17.9288
18.4288
17.0684
16.918
16.7032
15.7123
14.2979
12.7946
11.307
10.2421
9.90234
10.2689
11.5814
11.4045
11.356
10.3567
9.03786
8.03598
7.14425
6.3013
5.7129
5.6292
7.90748
7.81921
8.11522
7.24747
6.08153
5.49097
5.16195
4.77716
4.29323
3.91364
6.03895
5.83396
6.2194
5.4817
4.61238
4.33619
4.35997
4.35043
4.19782
3.80196
5.27231
5.03543
5.11773
4.42347
3.89116
3.83473
3.98422
4.12678
4.24784
4.30455
4.84576
4.73661
4.45916
3.79277
3.50664
3.59356
3.79642
3.96386
4.08357
4.16986
4.46779
4.42302
3.99122
3.44047
3.32003
3.48239
3.7068
3.88539
4.00333
4.0637
4.01393
3.95904
3.55293
3.20121
3.21066
3.41343
3.62604
3.78321
3.88174
3.92308
3.46678
3.37361
3.10013
2.97988
3.09622
3.31269
3.50262
3.64012
3.72136
3.7451
2.81666
2.72229
2.66228
2.75198
2.94831
3.15255
3.31826
3.43764
3.50453
3.51794
2.09401
2.11014
2.2444
2.47853
2.71394
2.91229
3.06746
3.18109
3.24728
3.2627
1.42099
1.53882
1.78976
2.08243
2.33808
2.55221
2.72784
2.86627
2.95363
2.98168
0.744991
0.88021
1.15484
1.4832
1.79236
2.06342
2.30032
2.48487
2.58968
2.62736
0.0729427
-0.0113242
0.223485
0.63433
1.05394
1.43528
1.75894
1.97403
2.07747
2.14063
3.65927
3.70239
3.57162
3.2456
2.59574
1.90962
1.32028
0.849463
0.457706
0.101084
3.732
3.67646
3.52122
3.22959
2.55633
1.85356
1.26777
0.811432
0.435978
0.10018
3.7586
3.57071
3.40971
3.17559
2.51235
1.8006
1.21784
0.775593
0.41664
0.100889
3.71977
3.39474
3.25727
3.0734
2.45514
1.74903
1.17048
0.742075
0.399764
0.102682
3.61227
3.18685
3.08935
2.92037
2.37286
1.69436
1.12504
0.710888
0.385387
0.105533
3.44916
2.98929
2.92908
2.7368
2.25922
1.63275
1.08138
0.682459
0.37366
0.109387
3.25587
2.82203
2.78562
2.55452
2.11709
1.5606
1.03903
0.657217
0.364698
0.114062
3.04864
2.68489
2.65948
2.39766
1.96167
1.47538
0.996845
0.635285
0.358472
0.119257
2.82581
2.57321
2.54614
2.27317
1.81422
1.3785
0.953327
0.61638
0.354815
0.124566
2.58018
2.48979
2.43924
2.17474
1.68919
1.27804
0.906651
0.599657
0.353479
0.129632
5.42043
3.97434
3.27631
2.89716
2.41671
1.89739
1.39875
0.944022
0.537196
0.133291
4.61663
3.75361
3.31229
2.95811
2.45715
1.90609
1.38642
0.925707
0.517443
0.123211
3.94673
3.66151
3.37289
3.02738
2.49632
1.91382
1.37514
0.90936
0.502225
0.114946
3.62689
3.66185
3.45814
3.10752
2.53738
1.92126
1.36413
0.894003
0.489106
0.10871
3.61215
3.70493
3.55974
3.19976
2.58315
1.92888
1.35205
0.877927
0.476399
0.104359
112.017
88.9506
67.8994
50.1277
36.1129
25.7925
18.6225
13.747
10.565
8.75096
111.797
88.3882
67.1932
49.3933
35.3106
24.7883
17.3188
12.2135
9.07067
7.57056
111.61
87.9079
66.5549
48.6527
34.3995
23.6156
15.8984
10.6786
7.53402
6.0761
111.4
87.3342
65.7146
47.588
33.0748
22.0215
14.1269
8.89409
5.80872
4.43314
111.146
86.6061
64.5853
46.1149
31.2747
19.9539
11.9583
6.92193
4.4388
3.62295
243.765
243.803
243.923
244.094
244.307
244.316
243.812
243.11
243.214
242.99
243.978
244.05
244.163
244.353
244.623
244.798
244.58
243.93
243.673
243.565
244.174
244.223
244.336
244.532
244.817
245.079
245.053
244.546
244.118
244.067
244.416
244.449
244.547
244.721
244.978
245.267
245.374
245.104
244.717
244.649
244.691
244.708
244.79
244.939
245.154
245.419
245.623
245.625
245.46
245.369
244.982
244.995
245.064
245.186
245.359
245.59
245.86
246.103
246.209
246.197
245.255
245.273
245.355
245.49
245.667
245.897
246.198
246.559
246.863
246.985
245.539
245.557
245.654
245.845
246.1
246.4
246.761
247.173
247.538
247.719
245.919
245.949
246.026
246.248
246.619
247.072
247.577
248.096
248.44
248.402
246.312
246.422
246.523
246.714
247.113
247.682
248.284
248.834
249.186
248.981
136.5
136.241
136.218
136.481
136.263
135.865
135.324
135.152
135.223
135.388
160.95
160.354
160.375
161.013
160.36
159.237
157.773
157.317
157.523
157.981
183.195
182.628
182.916
183.439
182.388
180.643
178.674
177.985
178.234
178.857
202.161
201.915
202.634
202.644
201.286
199.089
197.081
196.237
196.415
197.017
217.633
217.807
218.591
218.003
216.335
213.991
212.17
211.267
211.306
211.711
229.513
229.994
230.224
229.264
227.457
225.4
223.791
222.844
222.711
222.812
237.712
238.048
237.685
236.611
235.119
233.591
232.14
231.124
230.899
230.747
242.367
242.247
241.637
240.804
239.925
238.907
237.554
236.528
236.469
236.292
244.091
243.672
243.179
242.821
242.524
241.938
240.748
239.853
240.138
240.053
244.23
243.804
243.651
243.672
243.744
243.502
242.628
241.867
242.252
242.062
254.846
246.875
247.502
246.287
246.039
245.532
244.996
244.632
244.502
244.539
252.013
246.811
247.315
246.266
246.091
245.595
245.012
244.666
244.578
244.511
250.091
246.818
247.093
246.263
246.147
245.662
245.056
244.76
244.748
244.543
248.904
246.847
246.881
246.282
246.205
245.736
245.137
244.914
244.977
244.649
248.219
246.85
246.743
246.321
246.261
245.819
245.265
245.105
245.218
244.819
247.77
246.807
246.706
246.37
246.314
245.912
245.433
245.292
245.424
245.025
247.456
246.752
246.705
246.413
246.359
246.014
245.608
245.445
245.577
245.233
247.24
246.724
246.697
246.446
246.39
246.118
245.752
245.553
245.675
245.425
247.098
246.718
246.689
246.469
246.405
246.207
245.847
245.619
245.712
245.583
247.005
246.72
246.687
246.482
246.414
246.268
245.898
245.654
245.679
245.679
317.35
253.758
249.911
246.972
246.143
245.573
245.252
244.93
244.236
242.718
295.618
251.369
248.789
246.74
246.061
245.544
245.208
244.9
244.449
243.52
277.177
249.213
248.193
246.567
246.02
245.525
245.158
244.842
244.531
244.192
265.774
247.869
247.868
246.437
246.002
245.514
245.1
244.76
244.521
244.521
259.003
247.138
247.646
246.329
246
245.506
245.031
244.657
244.475
244.553
239.297
237.448
234.232
229.325
222.123
211.769
197.718
179.913
158.837
135.756
240.48
238.944
235.769
230.633
223.131
212.574
198.455
180.621
159.4
135.977
241.993
240.495
237.314
232.061
224.31
213.49
199.198
181.261
159.881
136.163
243.655
242.249
239.121
233.847
225.912
214.819
200.266
182.103
160.455
136.373
244.444
243.607
241.104
236.033
227.991
216.624
201.741
183.232
161.183
136.626
)
;

boundaryField
{
    left
    {
        type            zeroGradient;
    }
    right
    {
        type            fixedValue;
        value           uniform 0;
    }
    down
    {
        type            zeroGradient;
    }
    up
    {
        type            zeroGradient;
    }
    cylinder
    {
        type            zeroGradient;
    }
    defaultFaces
    {
        type            empty;
    }
}


// ************************************************************************* //
