/*--------------------------------*- C++ -*----------------------------------*\
  =========                 |
  \\      /  F ield         | OpenFOAM: The Open Source CFD Toolbox
   \\    /   O peration     | Website:  https://openfoam.org
    \\  /    A nd           | Version:  13
     \\/     M anipulation  |
\*---------------------------------------------------------------------------*/
FoamFile
{
    format      ascii;
    class       volVectorField;
    location    "0.605";
    object      U;
}
// * * * * * * * * * * * * * * * * * * * * * * * * * * * * * * * * * * * * * //

dimensions      [0 1 -1 0 0 0 0];

internalField   nonuniform List<vector> 
1800
(
(0.0978014 -0.0883292 -4.49025e-20)
(0.286896 -0.241952 -3.41245e-20)
(0.473973 -0.379045 -4.85036e-19)
(0.657691 -0.500158 1.91474e-19)
(0.83661 -0.607169 7.4378e-20)
(1.00991 -0.701372 -3.90538e-20)
(1.17715 -0.783461 5.54891e-20)
(1.33793 -0.853668 1.97274e-19)
(1.49158 -0.912944 5.92181e-19)
(1.63351 -0.966875 8.09969e-19)
(0.119061 -0.0915031 -7.91172e-20)
(0.344292 -0.24771 -7.70617e-19)
(0.563283 -0.38475 3.78151e-21)
(0.775364 -0.504236 1.25774e-19)
(0.979504 -0.608921 -1.26273e-19)
(1.17521 -0.700692 7.66022e-20)
(1.36231 -0.780783 -2.80864e-19)
(1.54077 -0.85009 -5.02339e-20)
(1.71009 -0.910692 -6.93389e-19)
(1.86784 -0.967026 6.29683e-19)
(0.141651 -0.0923233 4.8823e-20)
(0.40368 -0.247732 2.09289e-19)
(0.653756 -0.382118 5.43333e-19)
(0.892178 -0.497905 -1.90267e-19)
(1.11866 -0.598384 -1.43001e-19)
(1.33321 -0.685811 7.56168e-20)
(1.53605 -0.761702 9.82713e-20)
(1.72742 -0.827291 1.94071e-19)
(1.9072 -0.884792 2.73578e-21)
(2.0742 -0.937856 1.50985e-19)
(0.163907 -0.0897211 -4.57192e-20)
(0.461699 -0.23947 -2.04392e-19)
(0.741428 -0.367619 -1.81261e-19)
(1.00451 -0.476977 -1.42301e-19)
(1.25162 -0.571021 1.81315e-19)
(1.48351 -0.652126 -5.70917e-20)
(1.70092 -0.721903 -4.31092e-21)
(1.90453 -0.781618 2.93836e-21)
(2.09455 -0.833359 -1.60436e-19)
(2.27025 -0.880347 -1.05962e-19)
(0.184658 -0.0833566 -1.14041e-19)
(0.515894 -0.221808 8.76361e-20)
(0.823293 -0.339431 1.79844e-19)
(1.10931 -0.439063 2.43309e-19)
(1.37561 -0.524071 -2.85028e-19)
(1.62371 -0.596777 -3.58077e-21)
(1.85494 -0.658765 4.2499e-19)
(2.07042 -0.71126 -1.85053e-19)
(2.27083 -0.75616 -1.2399e-19)
(2.45577 -0.796391 -5.35722e-20)
(0.20319 -0.0735002 1.73593e-19)
(0.564471 -0.1952 1.02985e-18)
(0.896792 -0.298075 1.43256e-19)
(1.20351 -0.384735 -5.03146e-19)
(1.48719 -0.458227 -1.75506e-19)
(1.75003 -0.520669 6.377e-19)
(1.9939 -0.573524 -1.45384e-19)
(2.22036 -0.617898 -4.31601e-19)
(2.43047 -0.655442 -3.1664e-19)
(2.62419 -0.688739 2.61591e-19)
(0.218899 -0.0605914 1.1634e-19)
(0.605746 -0.160701 -7.47597e-19)
(0.959314 -0.245031 -1.08561e-18)
(1.28371 -0.315798 3.8379e-19)
(1.58223 -0.375564 4.4995e-19)
(1.85768 -0.426128 -9.0208e-22)
(2.11239 -0.468739 -6.39695e-19)
(2.34829 -0.504324 2.19316e-19)
(2.56683 -0.534211 -3.64451e-19)
(2.76827 -0.560567 -3.11198e-19)
(0.231236 -0.0451723 -3.42489e-19)
(0.638201 -0.119684 -6.92608e-19)
(1.00849 -0.182294 1.21222e-18)
(1.34677 -0.2347 5.98705e-19)
(1.65694 -0.278852 -2.69761e-19)
(1.94224 -0.316135 -2.11498e-19)
(2.20543 -0.347515 0)
(2.44875 -0.373688 1.16808e-19)
(2.67398 -0.395621 -2.95843e-19)
(2.88171 -0.414968 -7.74379e-20)
(0.239767 -0.0278754 -2.04467e-19)
(0.660653 -0.0737559 5.62389e-19)
(1.04249 -0.112198 1.71011e-19)
(1.39031 -0.144289 -5.12498e-19)
(1.70841 -0.171277 -7.842e-19)
(2.00037 -0.194053 3.66202e-20)
(2.26924 -0.213245 1.67123e-19)
(2.51753 -0.229293 -5.46846e-19)
(2.74732 -0.242783 -2.89761e-19)
(2.95954 -0.254777 -5.63591e-19)
(0.24426 -0.00940243 4.51411e-19)
(0.672454 -0.024704 3.44153e-19)
(1.0603 -0.0373616 -9.38598e-20)
(1.41303 -0.0477883 -1.29806e-20)
(1.73514 -0.056462 -3.87509e-19)
(2.03042 -0.0637228 -8.57322e-20)
(2.30206 -0.0698096 -2.9058e-19)
(2.55276 -0.0748897 6.46561e-19)
(2.7848 -0.0791705 1.71003e-19)
(2.99945 -0.0830112 2.22395e-21)
(-0.00234633 -0.0217996 -3.31931e-20)
(0.00863395 -0.069339 -7.07115e-20)
(0.0249288 -0.120402 -7.30967e-21)
(0.0493526 -0.171034 -3.41597e-20)
(0.0777071 -0.216402 -1.27241e-20)
(0.106564 -0.254556 -3.89969e-19)
(0.135608 -0.288499 -1.94295e-20)
(0.166404 -0.321808 1.19934e-19)
(0.199234 -0.355309 1.09732e-20)
(0.233127 -0.387663 -3.58753e-20)
(0.000844436 -0.0247048 -9.77492e-20)
(0.014954 -0.0850865 -2.11583e-19)
(0.0393446 -0.160231 -5.51161e-20)
(0.0692753 -0.2251 -1.10592e-19)
(0.0995183 -0.275391 -9.69153e-20)
(0.130512 -0.317832 -2.80295e-19)
(0.164543 -0.358816 2.0082e-19)
(0.202206 -0.400197 1.68371e-19)
(0.24171 -0.440094 -2.56208e-19)
(0.281227 -0.476465 8.11633e-20)
(0.00549333 -0.0315108 -8.54137e-20)
(0.0287807 -0.107428 -8.64379e-19)
(0.0628424 -0.196032 -1.28913e-19)
(0.0974488 -0.268865 9.39336e-20)
(0.131839 -0.32711 6.79092e-20)
(0.169695 -0.380165 -4.51735e-19)
(0.212992 -0.432164 3.58375e-20)
(0.259184 -0.48163 3.66935e-19)
(0.305541 -0.526078 -3.86145e-19)
(0.3515 -0.565464 -2.5839e-19)
(0.0113683 -0.0410021 -1.78226e-21)
(0.0466246 -0.130883 1.89437e-19)
(0.0896305 -0.225293 1.63316e-21)
(0.133074 -0.306978 -1.08859e-20)
(0.177803 -0.377805 -3.0169e-20)
(0.227265 -0.443768 8.74433e-20)
(0.281118 -0.505505 7.35177e-20)
(0.335693 -0.560754 -1.36257e-19)
(0.389767 -0.609223 9.21022e-21)
(0.443945 -0.651779 -1.04417e-20)
(0.0185097 -0.0507818 0)
(0.0672377 -0.152433 5.451e-21)
(0.121933 -0.253619 -5.09048e-19)
(0.178692 -0.345448 5.14076e-20)
(0.237812 -0.428535 -1.0805e-20)
(0.300522 -0.505026 6.49469e-21)
(0.365316 -0.57429 -2.56199e-20)
(0.429817 -0.635329 -7.78768e-21)
(0.493963 -0.688719 0)
(0.55816 -0.734716 -2.05875e-20)
(0.0273268 -0.0596561 3.17754e-20)
(0.0918952 -0.172861 -1.53969e-19)
(0.161763 -0.282519 -4.5748e-20)
(0.234627 -0.383876 -5.84312e-20)
(0.309735 -0.476728 4.96797e-20)
(0.386735 -0.561494 5.06385e-21)
(0.46424 -0.637642 9.05572e-20)
(0.540937 -0.704867 -2.17595e-20)
(0.616909 -0.763352 -6.96668e-19)
(0.69216 -0.812542 -1.0107e-20)
(0.0379761 -0.0676081 6.91024e-22)
(0.121238 -0.192182 5.59217e-20)
(0.209162 -0.310616 -7.8576e-20)
(0.299924 -0.42017 -1.67137e-20)
(0.392133 -0.520655 -7.29093e-20)
(0.484772 -0.612101 -9.79961e-21)
(0.576693 -0.694284 9.60451e-21)
(0.666932 -0.767089 -2.12054e-19)
(0.755515 -0.830195 3.83744e-19)
(0.842305 -0.882237 9.71839e-19)
(0.0503624 -0.074603 1.51546e-20)
(0.15513 -0.209613 -1.42336e-19)
(0.263461 -0.335965 -2.13884e-19)
(0.373668 -0.452107 8.90541e-20)
(0.484098 -0.558255 -6.43275e-20)
(0.593538 -0.654598 9.89872e-20)
(0.700934 -0.741247 1.97176e-19)
(0.805396 -0.818258 -1.09357e-19)
(0.907006 -0.885059 -3.06074e-19)
(1.00567 -0.939463 7.25551e-19)
(0.0642908 -0.0803609 -2.64681e-20)
(0.193286 -0.224028 -5.78149e-19)
(0.324296 -0.35656 5.24363e-19)
(0.455681 -0.477228 3.37538e-19)
(0.585734 -0.586739 -8.5936e-20)
(0.713218 -0.685647 3.08826e-19)
(0.83712 -0.774413 -1.59986e-19)
(0.956552 -0.853429 -7.73342e-19)
(1.07171 -0.921997 -4.03812e-19)
(1.18265 -0.977232 4.53801e-19)
(0.0795457 -0.0846668 -7.98292e-20)
(0.235846 -0.234418 -5.44352e-19)
(0.392392 -0.370525 -8.2533e-21)
(0.54754 -0.492793 6.88009e-20)
(0.699591 -0.602459 3.37794e-19)
(0.847386 -0.700424 -1.85428e-19)
(0.990005 -0.787427 -1.69553e-19)
(1.12652 -0.863806 1.89082e-19)
(1.25679 -0.928621 -3.51708e-19)
(1.38005 -0.980319 -5.8471e-19)
(0.403048 -0.531699 9.87714e-19)
(0.68498 -0.61804 -2.50411e-19)
(0.9138 -0.557209 -1.44652e-19)
(1.08746 -0.430553 2.72303e-19)
(1.23953 -0.279492 -2.3223e-19)
(1.36124 -0.138607 -2.99324e-19)
(1.45705 -0.0320421 -2.6339e-19)
(1.51253 0.0189808 -3.17329e-20)
(1.5328 0.0263335 2.777e-20)
(1.54909 0.0176211 3.06619e-20)
(0.469008 -0.619576 9.67383e-19)
(0.741668 -0.693469 7.25817e-20)
(0.966438 -0.617223 1.0932e-20)
(1.12481 -0.4797 -2.19472e-19)
(1.26518 -0.319684 -7.27822e-19)
(1.37968 -0.170931 0)
(1.47605 -0.0559148 -2.43158e-19)
(1.54695 0.00538925 5.19224e-20)
(1.58339 0.0198875 4.46284e-21)
(1.61007 0.0144048 -1.72665e-20)
(0.556332 -0.705253 -9.98138e-19)
(0.810976 -0.766454 -7.10498e-20)
(1.02574 -0.675121 1.5668e-19)
(1.1663 -0.526702 -5.36793e-20)
(1.29107 -0.358655 -3.61268e-20)
(1.39596 -0.203017 6.47043e-20)
(1.48746 -0.0812178 0)
(1.56345 -0.0119516 0)
(1.61051 0.00744637 -3.45935e-20)
(1.66013 0.00769443 0)
(0.665785 -0.787026 -2.24726e-19)
(0.895774 -0.835043 4.0319e-19)
(1.09217 -0.729839 2.6841e-20)
(1.21265 -0.570589 0)
(1.31805 -0.395548 6.10954e-19)
(1.41106 -0.233888 -1.48338e-19)
(1.49534 -0.106324 0)
(1.56816 -0.0302159 1.34635e-19)
(1.61422 -0.00663441 0)
(1.67739 -0.00230067 1.00609e-20)
(0.795785 -0.863739 -1.4901e-19)
(0.997762 -0.897248 4.53509e-19)
(1.16638 -0.780214 -1.46856e-20)
(1.26403 -0.610536 0)
(1.34676 -0.429575 1.78887e-19)
(1.42526 -0.262915 2.77651e-19)
(1.50144 -0.130153 4.79331e-20)
(1.5674 -0.0477303 6.7786e-21)
(1.61166 -0.0207534 -2.53482e-20)
(1.67505 -0.0116956 3.12298e-20)
(0.942259 -0.934635 -1.32943e-18)
(1.11657 -0.951711 -9.40114e-19)
(1.24901 -0.82497 4.77833e-21)
(1.32022 -0.645811 5.72999e-19)
(1.37755 -0.459961 -3.01771e-19)
(1.43854 -0.289634 1.4839e-19)
(1.50583 -0.152218 2.39057e-19)
(1.5645 -0.0643971 -1.88094e-19)
(1.60781 -0.034881 -1.84176e-21)
(1.67233 -0.0208822 2.94338e-20)
(1.10009 -0.999336 -2.59952e-19)
(1.25006 -0.998242 2.86059e-19)
(1.3403 -0.862985 3.98566e-21)
(1.38094 -0.675713 -1.75428e-20)
(1.41054 -0.485917 -5.84068e-19)
(1.45088 -0.313523 5.42493e-20)
(1.50783 -0.172382 -9.42186e-20)
(1.56026 -0.080469 -2.78908e-20)
(1.60385 -0.0484298 -1.93522e-21)
(1.66732 -0.0304871 -2.22577e-20)
(1.2643 -1.05674 -1.20112e-18)
(1.39476 -1.03744 2.09605e-19)
(1.43924 -0.893664 0)
(1.44524 -0.699802 3.43305e-20)
(1.44511 -0.506888 5.15059e-19)
(1.46195 -0.334051 -1.28545e-21)
(1.50649 -0.190706 -3.01998e-19)
(1.55423 -0.0960078 5.1128e-20)
(1.60042 -0.0604485 -1.63288e-22)
(1.63574 -0.0384344 -2.97988e-21)
(1.43197 -1.10341 3.39106e-18)
(1.54804 -1.07023 2.46419e-19)
(1.54567 -0.917711 4.63347e-19)
(1.51338 -0.718496 -3.17217e-20)
(1.48135 -0.522999 -3.42496e-20)
(1.47165 -0.351042 -4.23412e-19)
(1.50006 -0.207359 8.51128e-20)
(1.54643 -0.10964 3.07345e-21)
(1.57469 -0.0695835 -2.54254e-20)
(1.57811 -0.0413281 7.03028e-21)
(1.59921 -1.12812 -2.99838e-18)
(1.70184 -1.09546 1.27265e-18)
(1.654 -0.937772 -2.32144e-19)
(1.58147 -0.735284 -7.86411e-19)
(1.51626 -0.537832 -6.5391e-19)
(1.47752 -0.368172 -2.56059e-19)
(1.48747 -0.224499 -6.19707e-20)
(1.52141 -0.123751 0)
(1.51487 -0.0709374 -4.17133e-20)
(1.51126 -0.041041 9.79224e-20)
(1.88815 -1.17016 -6.71358e-18)
(1.92737 -1.10502 -1.69255e-18)
(1.8049 -0.932 -5.87263e-20)
(1.67314 -0.727178 1.12183e-19)
(1.56275 -0.533054 1.62608e-19)
(1.48509 -0.371223 -1.06655e-19)
(1.45746 -0.232181 -3.89543e-20)
(1.44021 -0.125553 6.48164e-20)
(1.42787 -0.0683328 -5.27358e-20)
(1.41658 -0.0400983 -4.47167e-20)
(2.2893 -1.13479 4.95571e-19)
(2.17883 -1.05658 -2.83902e-19)
(1.94286 -0.865117 5.06675e-19)
(1.73593 -0.664474 -8.76057e-20)
(1.5633 -0.48005 2.34161e-20)
(1.42845 -0.332066 -5.87429e-20)
(1.34971 -0.211833 9.86897e-20)
(1.32072 -0.115903 -3.25909e-20)
(1.30447 -0.0625491 1.9189e-19)
(1.28935 -0.0372532 8.57793e-20)
(2.61058 -1.04354 2.27091e-18)
(2.35204 -0.948694 3.25919e-19)
(2.00853 -0.759331 -1.18036e-19)
(1.73303 -0.572711 1.56626e-36)
(1.50656 -0.410128 -2.54651e-20)
(1.34069 -0.285361 1.50967e-33)
(1.23911 -0.185668 -1.8082e-20)
(1.19336 -0.104774 -1.59419e-33)
(1.17225 -0.0563156 6.81008e-21)
(1.15355 -0.0336443 -1.67975e-20)
(2.78707 -0.893936 3.88822e-33)
(2.36957 -0.795569 2.96653e-18)
(1.97386 -0.630373 1.81936e-18)
(1.65387 -0.469225 0)
(1.40738 -0.334513 8.37641e-19)
(1.2309 -0.232737 4.3536e-19)
(1.11695 -0.153427 1.65204e-19)
(1.05857 -0.089733 -2.75677e-33)
(1.03251 -0.0486968 -6.13548e-20)
(1.01095 -0.0291948 1.17681e-20)
(2.76369 -0.70587 3.84303e-18)
(2.24598 -0.629844 -1.46835e-19)
(1.8467 -0.490953 0)
(1.51577 -0.361612 0)
(1.27181 -0.255479 0)
(1.09808 -0.177803 0)
(0.982707 -0.118931 -1.25035e-20)
(0.917686 -0.0720293 -4.06363e-33)
(0.887303 -0.0398175 7.46039e-21)
(0.863418 -0.0240838 1.12362e-33)
(2.5512 -0.517025 3.26606e-18)
(2.0201 -0.4629 0)
(1.63865 -0.353615 0)
(1.32689 -0.256708 0)
(1.10125 -0.179591 0)
(0.942203 -0.125144 0)
(0.834644 -0.0848678 3.286e-20)
(0.769733 -0.0531046 -8.40716e-20)
(0.737238 -0.0300003 8.29146e-21)
(0.712128 -0.0184984 3.81727e-20)
(2.19013 -0.342707 0)
(1.70265 -0.303507 1.09858e-18)
(1.36133 -0.227596 1.09077e-18)
(1.09138 -0.161983 0)
(0.898552 -0.112288 6.68365e-19)
(0.764292 -0.0784689 4.07321e-19)
(0.672312 -0.0539761 2.51672e-19)
(0.613824 -0.0348602 7.94332e-20)
(0.582433 -0.0200656 -1.60295e-20)
(0.5579 -0.0128025 -5.44365e-21)
(1.70286 -0.191135 -6.73862e-19)
(1.3002 -0.165592 -2.74147e-19)
(1.02508 -0.121751 1.75625e-19)
(0.815116 -0.0844384 -2.11415e-34)
(0.667777 -0.0580626 -7.69959e-20)
(0.566337 -0.0409175 3.72081e-33)
(0.496035 -0.0286472 4.90356e-20)
(0.449394 -0.0191585 9.82924e-20)
(0.422756 -0.0111367 9.65198e-21)
(0.401274 -0.00750893 -3.99575e-21)
(1.10088 -0.0758207 3.408e-18)
(0.823164 -0.0626779 -1.86495e-19)
(0.640594 -0.0442913 -5.88741e-19)
(0.506161 -0.0289902 0)
(0.413847 -0.0195628 -6.40062e-19)
(0.350737 -0.0140756 -4.32353e-19)
(0.306383 -0.0102099 -2.02198e-19)
(0.275893 -0.00727756 -1.38241e-19)
(0.257565 -0.0043136 1.5678e-19)
(0.242295 -0.00319458 -2.20658e-20)
(0.397352 -0.00331878 0)
(0.287867 0.00159388 0)
(0.220895 0.00409417 0)
(0.173554 0.00624566 0)
(0.142379 0.00585091 0)
(0.121224 0.00470601 0)
(0.105956 0.00364494 5.63593e-20)
(0.0949619 0.00249782 -2.1655e-34)
(0.0879181 0.00196948 1.2212e-20)
(0.0816788 0.000792715 1.1577e-20)
(3.36711 -0.0863108 5.39206e-19)
(3.32642 -0.265085 -8.41892e-20)
(3.24735 -0.430654 8.52085e-19)
(3.13238 -0.582155 -6.04778e-19)
(2.98634 -0.71812 6.66378e-19)
(2.81523 -0.836374 2.75191e-19)
(2.6266 -0.934047 -1.92769e-18)
(2.4295 -1.00783 -7.74017e-20)
(2.22466 -1.05365 0)
(1.98484 -1.06652 4.2626e-19)
(3.86191 -0.0750583 7.07364e-18)
(3.79859 -0.234211 1.95636e-18)
(3.70428 -0.387307 -4.86723e-18)
(3.58425 -0.531987 -4.49063e-19)
(3.44238 -0.665887 3.55875e-18)
(3.28185 -0.78731 1.92333e-18)
(3.10649 -0.895053 -5.16831e-18)
(2.92203 -0.987682 -1.95203e-18)
(2.72757 -1.06336 2.20301e-18)
(2.49235 -1.12048 8.52143e-19)
(3.83308 -0.0532994 -1.26249e-19)
(3.82025 -0.171564 4.40367e-18)
(3.78547 -0.299759 -1.0883e-18)
(3.72435 -0.430916 -3.44614e-18)
(3.63619 -0.558726 -6.80027e-18)
(3.52372 -0.678795 1.02786e-17)
(3.39118 -0.788782 4.1806e-18)
(3.2435 -0.887968 -3.91169e-18)
(3.08161 -0.978693 -2.90267e-18)
(2.88722 -1.06297 -3.42487e-18)
(3.62867 -0.0472843 -4.83943e-18)
(3.61961 -0.14493 -4.3535e-18)
(3.59964 -0.243738 5.47226e-18)
(3.56736 -0.343091 1.91194e-18)
(3.52242 -0.442374 -8.97161e-18)
(3.46418 -0.540802 4.9223e-19)
(3.39185 -0.637038 3.88652e-18)
(3.30514 -0.73042 -1.05402e-18)
(3.20501 -0.82305 1.27687e-18)
(3.08309 -0.914754 2.81758e-19)
(3.34405 -0.036577 -9.15999e-19)
(3.339 -0.111655 3.00412e-18)
(3.3271 -0.188676 1.61959e-18)
(3.30744 -0.267171 -1.89423e-18)
(3.27987 -0.346069 -2.0014e-18)
(3.24466 -0.424135 -2.43414e-18)
(3.20205 -0.500331 3.79693e-19)
(3.15177 -0.574488 1.38985e-19)
(3.09551 -0.647749 -2.13983e-18)
(3.03289 -0.721291 -2.03451e-18)
(2.96257 -0.0265534 -1.82251e-18)
(2.95981 -0.0798881 -5.87239e-20)
(2.9533 -0.134598 -1.63754e-18)
(2.9424 -0.190903 3.12133e-19)
(2.92675 -0.24855 5.36786e-18)
(2.90629 -0.306929 -3.66762e-19)
(2.88092 -0.365114 4.43412e-20)
(2.85024 -0.422058 -2.60862e-18)
(2.81645 -0.476879 -3.49575e-18)
(2.78601 -0.529859 3.72761e-19)
(2.48713 -0.01751 -2.89317e-20)
(2.48578 -0.0519342 -8.14318e-19)
(2.48259 -0.0872479 -2.61486e-18)
(2.47708 -0.123771 -3.43103e-18)
(2.4688 -0.161534 2.49656e-18)
(2.45745 -0.200267 1.50226e-18)
(2.44262 -0.239353 -1.38507e-18)
(2.4237 -0.27779 1.62449e-18)
(2.40275 -0.314482 -4.29727e-19)
(2.38954 -0.349539 -9.63782e-19)
(1.91464 -0.00968791 7.72462e-19)
(1.91408 -0.0282973 -8.31803e-19)
(1.91278 -0.0474395 -3.2769e-20)
(1.91031 -0.067359 -3.47247e-20)
(1.90624 -0.08813 -7.27418e-20)
(1.90013 -0.109614 -2.33195e-18)
(1.89151 -0.131404 -6.78678e-19)
(1.87978 -0.152782 2.62611e-18)
(1.86664 -0.172974 -6.03502e-19)
(1.86192 -0.192206 -1.35112e-18)
(1.23988 -0.00373744 -1.64283e-18)
(1.23967 -0.0106955 -8.48914e-19)
(1.23923 -0.0179012 2.33921e-18)
(1.23823 -0.0254786 -8.89778e-19)
(1.23625 -0.0334753 -6.74126e-19)
(1.2329 -0.0418316 1.35203e-18)
(1.22775 -0.0503499 -1.2959e-18)
(1.22038 -0.0586653 1.28699e-18)
(1.21202 -0.0663422 -1.21032e-18)
(1.21007 -0.0735077 -4.24825e-18)
(0.454916 -0.00025796 6.63083e-19)
(0.454827 -0.000700522 7.03057e-19)
(0.454692 -0.00115911 7.48185e-19)
(0.454325 -0.00164006 1.35397e-18)
(0.453496 -0.00214018 -6.71988e-19)
(0.451983 -0.0026372 -1.29962e-18)
(0.449567 -0.00309911 6.14716e-19)
(0.445992 -0.00359293 2.4837e-20)
(0.441736 -0.00439222 -4.96528e-20)
(0.44035 -0.00504562 1.1057e-19)
(1.65353 0.997217 -2.85733e-19)
(1.51225 0.941815 1.79993e-20)
(1.35878 0.880713 -2.28475e-19)
(1.19766 0.808415 1.76368e-19)
(1.02956 0.723963 -1.92077e-19)
(0.85482 0.627067 -1.0112e-19)
(0.673758 0.516937 2.31996e-19)
(0.487036 0.392145 -3.0495e-19)
(0.295892 0.250643 3.09878e-19)
(0.10143 0.0916444 2.38739e-19)
(1.88636 0.992151 0)
(1.72966 0.934709 6.3914e-19)
(1.56082 0.872747 3.32265e-19)
(1.38228 0.801838 1.62848e-19)
(1.19453 0.719869 4.31393e-19)
(0.997531 0.625894 -8.68606e-20)
(0.79136 0.5186 -7.85498e-20)
(0.576348 0.39599 8.87954e-20)
(0.353319 0.255176 -1.04519e-18)
(0.122699 0.0943558 -1.66309e-20)
(2.09102 0.95901 1.56805e-19)
(1.92522 0.905048 0)
(1.74613 0.846448 -1.00742e-19)
(1.55493 0.77954 -3.83471e-19)
(1.3517 0.702077 5.371e-20)
(1.13609 0.612787 3.97158e-19)
(0.907784 0.510089 -6.06909e-19)
(0.666591 0.391639 -2.00878e-19)
(0.412597 0.254045 7.83596e-19)
(0.145252 0.0947356 -1.75951e-19)
(2.28483 0.898336 1.88055e-19)
(2.11044 0.850548 1.20119e-20)
(1.92129 0.797852 2.45005e-20)
(1.71811 0.736995 3.61023e-20)
(1.50058 0.665853 -2.92567e-20)
(1.26793 0.583131 2.73273e-19)
(1.01927 0.487169 -2.06881e-19)
(0.753676 0.375532 -8.5559e-19)
(0.470272 0.244679 0)
(0.167389 0.0916969 0)
(2.46795 0.811807 -1.07071e-18)
(2.28435 0.770828 -6.09045e-19)
(2.08493 0.725056 -1.20655e-19)
(1.87003 0.67152 -6.65733e-20)
(1.6389 0.608294 0)
(1.39031 0.534137 2.40757e-19)
(1.12275 0.447435 2.67783e-19)
(0.834557 0.345836 2.86248e-19)
(0.523841 0.225954 -4.23755e-19)
(0.187908 0.0848984 -8.12365e-20)
(2.634 0.702086 7.66302e-19)
(2.44156 0.668059 -1.39175e-19)
(2.23244 0.629676 -2.21554e-19)
(2.00665 0.584304 0)
(1.76301 0.530279 0)
(1.49988 0.466488 0)
(1.21523 0.391464 -3.89812e-20)
(0.906687 0.303091 3.70276e-19)
(0.5715 0.198349 3.79143e-19)
(0.206084 0.0746245 -3.0857e-19)
(2.7758 0.572352 -1.19348e-18)
(2.57551 0.545258 -1.4813e-18)
(2.35787 0.514528 -3.0324e-22)
(2.1226 0.477946 -1.87666e-19)
(1.86818 0.434182 -9.28809e-20)
(1.59258 0.382319 -1.78844e-19)
(1.29333 0.321125 4.59097e-19)
(0.967492 0.248837 2.14862e-19)
(0.611585 0.162967 5.40032e-19)
(0.221315 0.0613404 2.02855e-19)
(2.88707 0.425747 -1.15705e-18)
(2.68027 0.405632 8.4706e-20)
(2.45576 0.38282 1.64525e-19)
(2.21297 0.355612 1.68189e-20)
(1.95004 0.323051 -3.14408e-19)
(1.66466 0.284469 -1.74214e-19)
(1.35398 0.238938 -6.21215e-19)
(1.01464 0.185141 1.1853e-19)
(0.642606 0.121237 5.14767e-20)
(0.233066 0.0456128 -6.26889e-21)
(2.9628 0.265186 1.01357e-19)
(2.75121 0.252354 3.97008e-19)
(2.52189 0.237904 -3.30293e-19)
(2.27394 0.220741 3.6302e-19)
(2.00524 0.200297 3.72551e-19)
(1.71322 0.176177 4.919e-19)
(1.39481 0.14781 -6.35744e-19)
(1.04633 0.11439 -3.24417e-19)
(0.663413 0.0748099 -4.58505e-20)
(0.240917 0.0280952 -3.26997e-19)
(3.00053 0.0935777 5.81811e-19)
(2.78613 0.0887862 -1.86155e-19)
(2.55425 0.0834446 4.79565e-19)
(2.30367 0.0771508 -3.10672e-19)
(2.03208 0.0697284 2.66479e-19)
(1.73679 0.0610623 6.05415e-19)
(1.41457 0.0509788 3.78887e-19)
(1.06162 0.0392349 3.09345e-19)
(0.673398 0.0255067 2.65863e-19)
(0.244654 0.00950726 5.43617e-19)
(0.239477 0.451841 -4.68845e-19)
(0.203889 0.418131 -1.87034e-19)
(0.168342 0.381071 1.39011e-19)
(0.134835 0.343436 -4.19454e-19)
(0.105117 0.307332 -1.19561e-19)
(0.0782205 0.270081 6.92538e-19)
(0.0518411 0.223673 3.35875e-19)
(0.025933 0.158853 -1.56278e-19)
(0.00705147 0.079652 1.14202e-19)
(-0.00112897 0.0224358 -6.06833e-20)
(0.288603 0.544095 4.11021e-19)
(0.248701 0.507309 4.57791e-19)
(0.208157 0.465272 -1.18762e-20)
(0.167839 0.418272 -1.32433e-19)
(0.131132 0.370184 -3.12367e-19)
(0.100605 0.322615 8.27814e-20)
(0.0734681 0.269306 2.24612e-19)
(0.0458767 0.196868 1.65079e-19)
(0.0183265 0.10183 -5.9027e-19)
(0.00278253 0.0288529 -1.23519e-19)
(0.359678 0.632908 -6.00422e-19)
(0.313809 0.592773 -4.81082e-19)
(0.268004 0.546947 2.57192e-19)
(0.221356 0.493655 1.37864e-19)
(0.175811 0.433924 -5.87246e-21)
(0.136275 0.37175 -1.39756e-19)
(0.102121 0.305516 -2.91769e-20)
(0.0684327 0.224823 -5.55422e-19)
(0.0336584 0.125964 -2.69451e-19)
(0.00763085 0.0377711 -3.90779e-20)
(0.454257 0.717664 5.02962e-19)
(0.400095 0.673487 1.6472e-19)
(0.346394 0.622494 -1.49209e-19)
(0.292247 0.56347 6.33476e-20)
(0.237757 0.495397 -5.19987e-22)
(0.186589 0.420751 1.38229e-21)
(0.140105 0.340566 -1.31964e-19)
(0.0954581 0.250186 3.78913e-19)
(0.0514275 0.147689 -4.19439e-19)
(0.0135742 0.0476881 -6.52115e-20)
(0.572035 0.797664 -2.82134e-19)
(0.507885 0.749588 -8.89127e-20)
(0.443599 0.692763 -1.43229e-20)
(0.378983 0.627068 -6.99132e-20)
(0.313727 0.551835 5.83605e-20)
(0.249664 0.467963 5.2424e-20)
(0.188378 0.376638 -2.78194e-20)
(0.129321 0.276598 -2.82367e-19)
(0.072521 0.167605 2.18449e-19)
(0.0209128 0.0568251 8.73137e-20)
(0.709424 0.870784 6.43496e-19)
(0.634374 0.819419 3.21101e-19)
(0.558136 0.757276 2.03638e-19)
(0.480859 0.685236 4.81958e-20)
(0.402413 0.603425 1.54602e-19)
(0.323869 0.512282 7.81113e-20)
(0.246464 0.412459 1.4302e-19)
(0.170861 0.303871 5.79145e-20)
(0.0980488 0.186775 -1.60738e-20)
(0.0299933 0.0650221 -1.34122e-20)
(0.862011 0.934738 -1.19747e-19)
(0.775533 0.880557 -8.25741e-19)
(0.686696 0.813952 -7.69267e-20)
(0.595718 0.73673 -5.11612e-20)
(0.502556 0.64955 -1.93194e-20)
(0.40812 0.552654 1.51262e-19)
(0.313474 0.44627 -4.38341e-20)
(0.219706 0.330386 6.50497e-20)
(0.12829 0.205065 -1.44613e-19)
(0.040902 0.0724899 -1.23643e-21)
(1.02671 0.985932 -8.85068e-19)
(0.92845 0.929549 5.94244e-20)
(0.826642 0.859631 -2.33401e-19)
(0.721451 0.778825 -7.27243e-20)
(0.612759 0.687959 -2.43737e-20)
(0.501451 0.587032 -7.51535e-20)
(0.388522 0.475868 5.63164e-20)
(0.27516 0.354181 6.03241e-20)
(0.16298 0.221551 -9.82205e-21)
(0.0535433 0.0791193 -1.03822e-19)
(1.20387 1.01786 1.23833e-19)
(1.09348 0.960879 5.23423e-19)
(0.978237 0.889668 1.55568e-21)
(0.85821 0.807514 -2.98133e-20)
(0.733136 0.71527 1.51047e-19)
(0.603885 0.612528 -3.47499e-19)
(0.4714 0.498737 -2.44458e-19)
(0.336829 0.373202 3.56157e-19)
(0.201771 0.235004 1.44204e-19)
(0.0677022 0.0845325 -3.6249e-20)
(1.40056 1.01541 7.40021e-19)
(1.27804 0.962301 3.23858e-19)
(1.14781 0.895331 5.58755e-20)
(1.01086 0.816378 -1.95174e-19)
(0.867263 0.726505 -1.64606e-20)
(0.717897 0.625326 4.657e-19)
(0.563582 0.511997 -2.68271e-19)
(0.40534 0.385472 -1.845e-19)
(0.244705 0.244319 3.35818e-19)
(0.0831144 0.0884413 -6.0598e-21)
(0.975886 0.0979369 8.76775e-21)
(1.14481 0.14183 -1.67821e-22)
(1.21316 0.190195 -2.3009e-20)
(1.32452 0.171224 0)
(1.37408 0.156075 1.92349e-21)
(1.277 0.23503 -4.80356e-20)
(1.1281 0.385837 -5.49798e-20)
(0.948657 0.543404 -1.6248e-20)
(0.711305 0.648135 -2.99917e-19)
(0.416399 0.595317 4.33649e-19)
(0.980588 0.0787813 1.92989e-19)
(1.13715 0.114322 -2.96556e-20)
(1.20892 0.160042 1.91593e-21)
(1.31571 0.153211 1.23572e-20)
(1.37583 0.158207 3.70635e-21)
(1.29664 0.269322 -3.6841e-21)
(1.15813 0.435814 2.32536e-20)
(0.993431 0.606337 0)
(0.761337 0.727112 7.8606e-19)
(0.479359 0.686482 -5.62083e-19)
(0.984671 0.0599036 -1.12822e-19)
(1.13381 0.0878741 7.08906e-21)
(1.20782 0.130748 7.73519e-20)
(1.31292 0.133979 1.92196e-20)
(1.3786 0.15945 -2.25801e-20)
(1.31664 0.301346 -3.51109e-20)
(1.19143 0.484227 -1.41546e-21)
(1.04375 0.667689 4.43229e-20)
(0.823074 0.803525 -1.21632e-21)
(0.564515 0.774245 -3.82742e-19)
(0.988014 0.0408538 -8.1391e-20)
(1.13433 0.0619867 1.55648e-20)
(1.21041 0.102127 7.51759e-20)
(1.31623 0.114468 2.97557e-20)
(1.38447 0.160173 -2.33299e-20)
(1.33703 0.331175 -2.51487e-20)
(1.22828 0.530415 6.23285e-20)
(1.10008 0.726351 2.67755e-20)
(0.899974 0.875125 -5.41085e-19)
(0.673773 0.856652 -1.78232e-19)
(0.990749 0.0213611 3.76929e-20)
(1.13806 0.0361498 -4.77623e-20)
(1.21637 0.0740766 -6.74192e-20)
(1.32426 0.0952222 2.14845e-20)
(1.39227 0.161412 0)
(1.35745 0.359321 0)
(1.2687 0.573764 7.01335e-20)
(1.16355 0.780954 -2.81902e-20)
(0.99479 0.939433 -1.17682e-19)
(0.805175 0.932058 -5.74046e-20)
(0.993099 0.00129727 3.61991e-21)
(1.14431 0.00996514 5.75376e-20)
(1.22485 0.0465179 -2.06498e-19)
(1.33533 0.0768368 -7.5289e-20)
(1.40069 0.163946 -4.99092e-21)
(1.37779 0.38598 1.16902e-19)
(1.31285 0.613444 1.47883e-19)
(1.23565 0.829787 -1.80375e-20)
(1.10794 0.994648 -4.24625e-20)
(0.953798 0.999809 2.27303e-21)
(0.994494 -0.0197237 8.32839e-22)
(1.15232 -0.0168895 2.85104e-20)
(1.23488 0.0194749 -6.50644e-20)
(1.3481 0.0598864 -1.50273e-19)
(1.40877 0.168 1.20361e-20)
(1.39826 0.410849 7.49316e-21)
(1.36129 0.648357 -5.92042e-20)
(1.31752 0.871192 -1.12142e-19)
(1.2374 1.04047 -2.91917e-20)
(1.11388 1.06004 -9.80671e-19)
(0.99353 -0.0417292 1.4741e-20)
(1.16146 -0.0446826 -1.39472e-19)
(1.24564 -0.00688988 1.3119e-19)
(1.36141 0.0451585 9.98679e-20)
(1.41532 0.174053 5.09063e-21)
(1.41879 0.433513 -1.27172e-19)
(1.4139 0.677483 -1.58906e-21)
(1.40851 0.904222 -1.23199e-19)
(1.3794 1.07777 1.11126e-20)
(1.27985 1.11218 2.88379e-18)
(0.989446 -0.0639741 -8.60164e-20)
(1.17152 -0.0735246 7.84245e-20)
(1.25656 -0.0324393 1.88538e-19)
(1.37458 0.0327608 -1.12201e-19)
(1.42083 0.181874 -2.16822e-19)
(1.44091 0.453706 9.2595e-21)
(1.47198 0.700686 1.65571e-19)
(1.50863 0.929565 -5.64083e-19)
(1.53089 1.1078 -2.68323e-20)
(1.44832 1.1532 -6.47408e-18)
(0.98301 -0.0868456 4.12906e-21)
(1.18271 -0.103377 1.38257e-19)
(1.26734 -0.0569892 6.03609e-20)
(1.3863 0.0249424 -2.71137e-19)
(1.42304 0.195464 -2.37024e-19)
(1.46219 0.475028 -6.89035e-20)
(1.53121 0.721729 7.37958e-20)
(1.6117 0.950555 -2.16265e-19)
(1.68375 1.13022 -1.08769e-18)
(1.61558 1.17221 -7.95199e-18)
(0.973718 -0.117942 -1.45014e-20)
(1.19624 -0.14302 -3.17532e-20)
(1.2771 -0.0903697 -7.49607e-20)
(1.39746 0.00992146 1.34821e-19)
(1.42646 0.194175 1.96893e-19)
(1.49223 0.470746 -5.79961e-20)
(1.61199 0.711238 -1.40437e-19)
(1.75386 0.939728 -1.20644e-18)
(1.90278 1.13224 -1.60013e-18)
(1.8993 1.20855 3.28665e-18)
(0.961836 -0.156492 -4.07214e-19)
(1.21377 -0.192511 1.47984e-20)
(1.28086 -0.136616 -5.63854e-20)
(1.39837 -0.0118536 3.23361e-19)
(1.40715 0.172388 3.41266e-19)
(1.49445 0.426576 -1.31594e-20)
(1.66841 0.647103 -6.93602e-20)
(1.8808 0.865362 -2.99356e-19)
(2.13955 1.07109 2.73054e-19)
(2.28447 1.16068 -3.23292e-19)
(0.949402 -0.196752 -2.78694e-20)
(1.2383 -0.242408 -5.46729e-20)
(1.27943 -0.180819 3.04535e-20)
(1.39384 -0.0309436 2.71269e-20)
(1.38242 0.16085 1.73429e-33)
(1.4718 0.36999 2.53528e-21)
(1.68123 0.560807 -2.05389e-33)
(1.94937 0.759213 1.85559e-19)
(2.30203 0.956202 -9.3129e-19)
(2.58733 1.05833 -6.29321e-19)
(0.937085 -0.243193 1.41415e-18)
(1.26933 -0.282346 -7.73207e-34)
(1.25003 -0.22715 -3.99662e-20)
(1.27333 -0.0354051 -2.27155e-19)
(1.2656 0.143586 -4.48803e-19)
(1.39061 0.301524 -8.91312e-19)
(1.6199 0.459586 -5.08003e-33)
(1.92964 0.630793 -1.7386e-18)
(2.32601 0.801944 -3.1769e-18)
(2.7538 0.902504 1.67542e-18)
(0.927296 -0.300533 0)
(1.31529 -0.327002 -1.62724e-33)
(1.11316 -0.20645 0)
(1.1091 -0.0289136 0)
(1.12127 0.114708 0)
(1.25935 0.232317 0)
(1.49017 0.355108 -8.09831e-33)
(1.81533 0.491347 0)
(2.21364 0.63417 -3.39813e-19)
(2.73507 0.711955 1.25769e-18)
(0.916455 -0.360771 1.161e-19)
(1.25194 -0.326258 -4.68865e-19)
(0.960255 -0.173664 -5.48926e-20)
(0.935329 -0.0254392 0)
(0.957679 0.0825604 0)
(1.09065 0.165158 6.06794e-20)
(1.30673 0.253694 1.18038e-18)
(1.61616 0.354555 -1.95066e-19)
(1.99682 0.466141 -4.95302e-19)
(2.53251 0.520446 4.67278e-18)
(0.883453 -0.405312 -1.52015e-17)
(1.09215 -0.279878 1.08743e-18)
(0.79282 -0.130254 -7.27031e-20)
(0.747908 -0.0208703 -7.73658e-20)
(0.773898 0.0525301 -5.10647e-19)
(0.889964 0.104344 -7.72266e-19)
(1.07659 0.161136 -1.04949e-18)
(1.34617 0.228942 -1.38397e-18)
(1.68768 0.306088 -1.60655e-18)
(2.17996 0.344433 3.61361e-18)
(0.808991 -0.394518 -4.1363e-19)
(0.886524 -0.207577 -1.21641e-18)
(0.605618 -0.0827421 -1.25753e-19)
(0.550226 -0.0152118 -8.40698e-20)
(0.572511 0.027643 -9.80467e-34)
(0.661901 0.0544557 9.40573e-20)
(0.805638 0.0845019 -1.48697e-32)
(1.01628 0.1229 -1.9343e-19)
(1.2925 0.167295 2.989e-19)
(1.6993 0.192067 7.05728e-19)
(0.664245 -0.288846 3.42552e-17)
(0.618269 -0.108088 -3.14033e-18)
(0.393402 -0.0350768 -2.40879e-19)
(0.339656 -0.00734798 -1.55807e-19)
(0.354109 0.00928199 3.93032e-19)
(0.410656 0.0183301 7.8353e-19)
(0.501306 0.0291558 7.94851e-19)
(0.636763 0.0448697 4.5981e-19)
(0.820763 0.0634517 -1.90314e-19)
(1.10156 0.0762246 3.56917e-18)
(0.336834 -0.0768251 5.58801e-19)
(0.261854 -0.00230542 -6.76611e-33)
(0.144392 0.0190708 -3.05089e-19)
(0.120478 0.00334016 0)
(0.123722 -0.00233563 0)
(0.141923 -0.00540494 9.66114e-20)
(0.172414 -0.00624131 9.32141e-35)
(0.220305 -0.00417284 -1.23575e-19)
(0.28813 -0.00161826 -2.82562e-19)
(0.399007 0.00331854 1.00151e-18)
(2.00202 1.09635 -1.78962e-18)
(2.23904 1.07841 -2.30491e-18)
(2.44206 1.02907 0)
(2.63706 0.95248 -7.582e-19)
(2.82358 0.852494 -1.78311e-18)
(2.99276 0.732382 -2.24948e-18)
(3.13709 0.595037 -4.76215e-19)
(3.25055 0.442696 1.26929e-18)
(3.32824 0.276964 -3.54791e-18)
(3.36764 0.0986986 1.35669e-18)
(2.49863 1.1419 2.67625e-19)
(2.73053 1.08186 1.39719e-18)
(2.92385 1.00416 1.4389e-19)
(3.10672 0.909773 6.75718e-19)
(3.28059 0.800642 -1.10394e-18)
(3.43996 0.678314 -5.00021e-18)
(3.58096 0.544006 2.46781e-18)
(3.70047 0.399317 1.27032e-17)
(3.79428 0.246322 1.04062e-19)