/*--------------------------------*- C++ -*----------------------------------*\
  =========                 |
  \\      /  F ield         | OpenFOAM: The Open Source CFD Toolbox
   \\    /   O peration     | Website:  https://openfoam.org
    \\  /    A nd           | Version:  13
     \\/     M anipulation  |
\*---------------------------------------------------------------------------*/
FoamFile
{
    format      ascii;
    class       surfaceScalarField;
    location    "74.7";
    object      phi;
}
// * * * * * * * * * * * * * * * * * * * * * * * * * * * * * * * * * * * * * //

dimensions      [0 3 -1 0 0 0 0];

internalField   nonuniform List<scalar> 
823
(
-0.00432134
0.0177748
-0.0134535
0.0146792
0.00539835
-0.0243989
0.0816245
-0.0480099
-0.0189354
0.186749
-0.117211
0.0120874
-0.161182
0.00921405
0.338717
0.00725634
0.0105185
0.0635963
-0.0509417
0.168018
-0.152431
0.288937
-0.238131
-0.312608
0.440363
0.0272637
-0.0167452
0.122438
-0.146116
0.237085
-0.267078
0.341064
-0.34211
-0.381019
0.409475
0.04991
-0.0666553
0.148311
-0.244517
0.226332
-0.345099
0.26862
-0.384398
-0.394155
0.281756
0.060464
-0.127119
0.127261
-0.311314
0.162114
-0.379952
0.174841
-0.397126
0.183736
-0.403049
-0.0136429
0.0885654
-0.0749225
-0.0574896
0.153046
-0.109199
-0.103812
0.156525
-0.110203
-0.141202
0.143214
-0.105824
0.126551
-0.162971
-0.104782
0.0388646
0.0497008
0.0722919
0.119619
0.0843918
0.144425
0.0863783
0.141227
0.122839
0.0900903
0.0320174
0.0176834
0.0858469
0.0657894
0.132722
0.0975505
0.166587
0.107362
0.105715
0.183711
0.0107594
0.00692393
0.0448435
0.0317054
0.0902834
0.0521105
0.142129
0.0555162
0.0635224
0.184322
-0.00652955
0.000776949
0.0339521
0.101556
0.174292
0.255426
0.523657
-0.942054
0.569938
-1.65334
1.33883
0.543579
-1.03121
1.05757
0.506049
0.625727
-0.588198
0.250059
-0.196544
0.416254
0.197494
0.619501
-1.85659
0.602296
-1.014
0.525721
0.702302
0.296686
0.291773
0.0894324
0.432316
-1.99713
0.532922
-1.11461
0.510171
0.725052
0.322692
0.361475
-0.0877209
0.363474
-1.99913
0.433471
-1.18461
0.461951
0.696572
0.293017
0.483554
-0.396983
0.390691
-1.90627
0.334449
-1.12836
0.395152
0.635869
0.166968
1.49684
-0.634452
-1.25937
1.15954
-1.56897
0.66246
-0.631281
0.699448
0.598881
-0.0453033
1.45216
-0.672591
-1.41402
0.918664
-1.03548
0.484187
-0.196804
0.787611
0.295457
-0.229654
1.28513
-0.597406
-1.36031
0.816383
-0.566734
0.597281
0.0222981
0.937588
-0.0448505
-0.271978
1.07472
-0.361177
-1.31094
0.683076
-0.175096
0.691365
0.0140094
0.807264
-0.160749
-0.138151
0.485465
-0.846641
0.310369
0.324378
0.163629
1.11077
0.146515
-1.07355
1.18789
0.204632
1.30149
0.295882
1.35486
0.386993
0.434206
1.00482
0.0914549
-0.949764
1.08105
0.12841
1.17476
0.202171
1.29829
0.263463
0.318472
0.969255
0.0444119
-0.922211
1.02685
0.0708182
1.11096
0.11806
1.2263
0.148121
0.184459
0.94617
0.00703958
-0.908797
0.998191
0.0187965
1.08022
0.036029
1.1831
0.0452403
0.0566173
0.689958
-0.682919
0.708755
0.744784
0.790024
0.139991
0.302582
-0.24793
-0.194643
0.0938481
0.308257
-0.262113
0.052935
0.319086
-0.278172
0.0183865
0.310191
-0.275642
0.199293
-0.180906
0.100145
0.338482
-0.136045
0.0641796
0.344222
0.0324148
0.35085
0.00759806
0.335007
0.206891
0.0714803
0.375128
-0.108127
0.0388191
0.376883
0.0108934
0.378776
-0.00500645
0.350907
0.201884
-0.00864548
0.390134
-0.00636067
-0.0255078
0.393745
-0.0339336
0.387202
-0.0264756
0.343449
0.175409
-0.0842941
0.071379
-0.0876743
-0.0804245
-0.0482893
0.198467
0.108854
-0.252174
-0.0551476
0.14424
0.113017
-0.0587905
0.0891049
0.117581
-0.0624457
0.0360962
0.116854
-0.0638456
0.0819472
-0.045851
0.193884
0.151873
-0.236904
0.147511
0.159391
0.0957318
0.16936
0.0406836
0.171902
0.122631
0.136769
0.196678
-0.181574
0.0959863
0.200174
0.0569708
0.208376
0.0205102
0.208363
0.143141
0.153286
0.228774
-0.185383
0.114555
0.238905
0.0708152
0.252116
0.0277658
0.251413
0.170907
0.083494
-0.102649
0.0602854
0.0342287
0.00999928
0.408417
0.0442061
-0.0566436
0.425673
0.0485092
-0.0657653
0.408239
0.208881
-0.191446
0.397034
0.213452
-0.202247
0.498477
-0.353616
0.406574
0.0336114
0.418181
0.0369026
0.39808
0.228981
0.384977
0.226555
0.64655
0.400116
0.0294749
0.411278
0.0257411
0.374446
0.265813
0.372481
0.22852
0.837458
0.396658
0.0287969
0.392608
0.0297912
0.364934
0.293486
0.354659
0.238795
1.00673
0.386823
0.0379531
0.378761
0.037853
0.337138
0.335109
0.323967
0.251967
1.22805
0.619325
0.0226487
0.631653
0.0255249
0.689258
0.277504
0.794089
0.147136
1.03281
0.989334
0.627967
-0.00129796
0.617154
0.0363377
0.737906
0.156752
0.810553
0.0744887
0.81156
1.0318
0.626229
-0.0235063
0.647748
0.0148179
0.770249
0.0342514
0.798247
0.0464908
0.59021
1.0196
0.627993
-0.0474794
0.676284
-0.0334721
0.729477
-0.0189416
0.740898
0.035069
0.301736
1.02937
0.556541
0.523069
0.504127
0.539196
0.840932
1.03107
-0.236383
1.02013
-0.125104
1.03103
-0.119019
1.02386
0.000803037
0.0216932
0.974244
-0.178828
0.949439
-0.100299
0.923522
-0.0931029
0.932609
-0.00828421
0.00453884
0.949151
-0.108382
0.926339
-0.0774874
0.898931
-0.0656941
0.91306
-0.0224135
-0.00461266
0.967919
-0.0469273
0.931532
-0.041101
0.902088
-0.0362501
0.901606
-0.0219315
-0.0118034
0.794005
0.752904
0.716654
0.694722
0.0462954
0.150155
-0.19645
0.0697856
0.322333
-0.345823
0.0702968
0.37481
-0.375322
0.0611397
0.376326
-0.367169
0.344449
0.0490142
-0.332324
0.0680195
0.0821354
0.136359
0.253993
0.168961
0.342209
0.173292
0.371995
0.361261
0.156481
0.0582137
0.0239217
0.165781
0.146426
0.253496
0.254494
0.3108
0.314691
0.358752
0.313308
0.0284007
-0.00447895
0.124938
0.0498885
0.24173
0.137702
0.35373
0.202691
0.274544
0.437938
0.00735598
-0.0118349
0.058951
-0.00170651
0.154179
0.0424732
0.267285
0.0895856
0.144386
0.397443
0.00115128
-0.0129862
0.0142367
-0.0147919
0.0550498
0.00166008
0.1199
0.024735
0.0657146
0.198572
0.00254391
-0.0155301
0.00805191
-0.0202999
0.0201847
-0.0104727
0.0401191
0.0048006
0.0318052
0.0740286
0.0291738
-0.0447039
0.0535624
-0.0446884
0.0582909
-0.0152012
0.0566231
0.00646838
0.0238629
0.0645654
-0.0234477
-0.0212562
-0.064344
-0.00379219
-0.104587
0.0250415
-0.140328
0.0422095
0.0527406
-0.169206
-0.0961787
-0.20917
-0.294332
-0.357946
-0.409988
0.170542
1.12249
-1.09446
0.333822
-0.150768
-0.0125114
0.340261
0.112773
-0.119212
0.210916
0.24417
-0.114826
-0.107337
0.132988
0.109653
1.08687
0.280182
-0.321297
0.436267
-0.0433121
0.317203
0.363234
-0.0511431
-0.0424934
1.19392
0.168407
-0.532198
0.535333
-0.410238
0.418906
0.479661
0.0291909
-0.226417
1.25114
0.155523
-0.914138
0.580247
-0.834962
0.490826
0.569082
0.116945
-0.100906
0.323786
0.546392
0.527277
-0.0853267
0.629513
-0.544186
-0.0365798
-0.0487469
0.0129036
-0.0494834
0.0580815
-0.0451779
-0.0950383
0.572164
-1.03711
0.510906
0.34221
0.182207
0.0842768
-0.0128183
-0.0714585
0.135025
-0.0507477
0.232471
-0.0974465
0.372853
-0.140382
-0.171333
0.19185
-0.155654
0.297584
0.513445
0.811001
0.138989
-0.135506
0.165462
-0.168945
0.105557
-0.140969
0.174401
0.0675952
-0.148216
0.186178
0.027263
-0.14827
0.188602
-0.104397
0.13166
0.178376
-0.0963202
-0.217562
0.13479
-0.0973827
0.0858478
-0.0992741
0.0355032
-0.0979255
-0.0688937
0.188926
-0.0474028
-0.237843
0.138445
-0.0469022
0.0863184
-0.0471474
0.0351442
-0.0467513
-0.0337495
0.201468
0.00412064
-0.252992
0.149187
0.00537924
0.0952705
0.00676895
0.0402265
0.00829277
0.00647701
0.204015
-0.255042
0.150604
0.0949269
0.039374
0.0397575
-0.312755
-0.0593262
0.0154525
-0.342864
-0.00621737
-0.353652
-0.0150626
-0.336978
-0.211513
0.119116
-0.282378
-0.149493
0.0778069
-0.301555
0.0376174
-0.313462
0.00751142
-0.306872
-0.204001
0.137509
-0.243742
-0.176145
0.0966861
-0.260732
0.0563779
-0.273154
0.0199068
-0.270401
-0.184095
0.154905
-0.209573
-0.189074
0.113359
-0.219186
0.0689065
-0.228702
0.0269354
-0.22843
-0.157159
0.152636
-0.196747
0.10785
0.0653266
0.0254992
0.392117
0.0973418
-0.0934795
0.389482
0.1076
-0.104964
0.355336
0.1633
-0.129154
0.296493
0.0694413
-0.0105985
-0.188444
0.315992
0.39999
0.0933317
0.404957
0.102633
0.394249
0.174007
0.345966
0.117725
-0.0600406
0.405054
0.0842577
0.415085
0.0926021
0.409361
0.179731
0.371709
0.155376
0.073826
0.409003
0.0712341
0.421557
0.0800485
0.417478
0.18381
0.390844
0.182011
0.211678
0.41057
0.424853
0.417217
0.39698
0.415457
0.0945943
0.327449
0.0880078
0.237468
0.0899812
0.238472
-0.00100392
-0.174317
0.412788
0.511166
0.494209
0.455036
0.443434
0.585109
0.332077
0.0807111
0.259149
0.0729277
0.172929
0.0862207
0.10056
0.0723684
0.0291018
0.469074
0.352928
0.263003
0.185879
)
;

boundaryField
{
    left
    {
        type            calculated;
        value           nonuniform List<scalar> 
17
(
-0.60402
-0.60402
-0.60402
-0.60402
-0.60402
-0.39598
-0.39598
-0.39598
-0.39598
-0.39598
-0.39598
-0.39598
-0.39598
-0.39598
-0.39598
-0.510051
-0.510051
)
;
    }
    right
    {
        type            calculated;
        value           nonuniform List<scalar> 
17
(
0.15312
0.220156
0.185265
0.26101
0.338572
0.403072
0.447677
0.452535
0.479094
0.484165
0.491626
0.521201
0.911719
0.971961
0.979913
0.673436
0.0254785
)
;
    }
    down
    {
        type            calculated;
        value           uniform 0;
    }
    up
    {
        type            calculated;
        value           uniform 0;
    }
    cylinder
    {
        type            calculated;
        value           uniform 0;
    }
    defaultFaces
    {
        type            empty;
    }
}


// ************************************************************************* //
