/*--------------------------------*- C++ -*----------------------------------*\
  =========                 |
  \\      /  F ield         | OpenFOAM: The Open Source CFD Toolbox
   \\    /   O peration     | Website:  https://openfoam.org
    \\  /    A nd           | Version:  13
     \\/     M anipulation  |
\*---------------------------------------------------------------------------*/
FoamFile
{
    format      ascii;
    class       volScalarField;
    location    "22";
    object      p;
}
// * * * * * * * * * * * * * * * * * * * * * * * * * * * * * * * * * * * * * //

dimensions      [0 2 -2 0 0 0 0];

internalField   nonuniform List<scalar> 
440
(
-0.598366
-0.585117
-0.592116
-0.550513
-0.602889
-0.642014
-0.625098
-0.605031
-0.57942
-0.558838
-0.746061
-0.714242
-0.67674
-0.629707
-0.575663
-0.873636
-0.826348
-0.742809
-0.64248
-0.541116
-0.964661
-0.901414
-0.758967
-0.610387
-0.473132
-1.2194
-1.23496
-1.27035
-1.32874
-1.40886
-1.05732
-1.07936
-1.12942
-1.21047
-1.31677
-0.836093
-0.830437
-0.821926
-0.806048
-0.7798
-0.650001
-0.64352
-0.627174
-0.592818
-0.544755
-0.526019
-0.521977
-0.504461
-0.455153
-0.394581
-1.43697
-1.50415
-1.05044
0.451114
-0.0189467
-1.0381
-1.22845
-0.925109
0.311103
-0.0196755
-0.741202
-1.04762
-0.767935
0.128117
-0.0512875
-0.528889
-1.12136
-0.628894
0.0273015
-0.0828563
-0.381342
-1.1831
-0.521809
-0.0144015
-0.0795817
-0.159574
-1.09627
-0.377743
-0.054646
-0.0368431
-0.038479
-0.779149
-0.200979
-0.0526783
-0.0602293
0.0360917
-0.521893
-0.177125
-0.0213765
-0.0214734
0.0811654
-0.349088
-0.164182
-0.04387
-0.0429117
0.17424
-0.243018
-0.200309
-0.0440068
-0.027052
-0.23445
-0.351647
-0.470342
-0.605801
-0.667908
0.0030018
-0.11094
-0.170918
-0.207413
-0.196767
0.157033
0.0684578
0.0112594
-0.0198941
-0.0388504
0.254956
0.172289
0.107534
0.0749839
0.0503801
0.300744
0.216097
0.153025
0.125714
0.116674
1.00049
0.85545
0.673114
0.471657
0.251206
0.612167
0.45727
0.268052
0.0547162
-0.180671
0.2254
0.0671525
-0.129385
-0.351709
-0.564038
-0.103546
-0.265713
-0.462594
-0.674654
-0.838514
-0.333318
-0.491032
-0.671644
-0.85959
-0.965799
2.10078
2.13277
2.16311
2.18025
2.17987
1.92098
1.94318
1.96087
1.9621
1.94236
1.70627
1.69625
1.66459
1.61137
1.53357
1.46206
1.42959
1.3629
1.2665
1.14303
1.23258
1.13526
1.0078
0.860092
0.682707
1.85202
1.84679
1.82349
1.89543
1.97898
1.84332
1.83644
1.8066
1.8783
1.89843
1.83571
1.82288
1.78674
1.84938
1.79379
1.82937
1.80688
1.76531
1.80483
1.63618
1.82432
1.79004
1.74303
1.76039
1.46811
1.82091
1.76471
1.71431
1.65545
1.27379
1.82155
1.73559
1.71136
1.54415
1.35461
1.82619
1.72328
1.71095
1.48242
1.3832
1.82633
1.6959
1.70859
1.42157
1.38993
1.86249
1.69184
1.70796
1.38612
1.41512
0.980138
0.700733
0.37783
0.104486
-0.0911504
0.897683
0.701997
0.486755
0.296088
0.12859
0.891692
0.724218
0.563222
0.409637
0.274294
0.932784
0.773767
0.627446
0.489404
0.367711
0.977157
0.818955
0.673604
0.537082
0.413588
-1.7879
-1.60536
-1.40238
-1.23228
-1.1272
-1.8938
-1.79862
-1.62271
-1.46077
-1.34436
-1.83706
-1.77475
-1.63967
-1.49817
-1.36898
-1.6954
-1.64464
-1.56418
-1.45935
-1.34272
-1.54116
-1.51736
-1.47513
-1.40664
-1.30439
-1.44461
-1.43847
-1.415
-1.41895
-1.31204
-1.37964
-1.38208
-1.37097
-1.39859
-1.31318
-1.2876
-1.28395
-1.27719
-1.2869
-1.25334
-1.22251
-1.2043
-1.18261
-1.1644
-1.15163
-1.21971
-1.20986
-1.20221
-1.20336
-1.21461
-0.790252
-1.01776
0.164724
0.469256
0.0530004
-0.846034
-1.07122
0.0788367
0.532354
0.0403582
-1.00551
-1.29474
-0.486495
0.566611
0.00657949
-1.31896
-1.6794
-0.930832
0.557179
-0.00346465
-1.54496
-1.77035
-1.06359
0.526783
-0.0108534
-0.492515
-1.13944
0.0757374
0.387295
0.0714846
-0.743123
-1.03308
0.14437
0.425179
0.0717598
-1.06653
-1.25569
-1.25985
-1.13689
-0.905216
-1.08851
-1.2788
-1.27639
-1.18688
-1.07121
1.6694
1.64081
1.59376
1.52902
1.44317
1.87842
1.8959
1.89719
1.88022
1.84534
2.05625
2.08762
2.11124
2.12203
2.11793
2.16279
2.20182
2.24284
2.27565
2.28997
2.17633
2.21393
2.25575
2.29061
2.30676
-0.639704
-0.761333
-0.950796
-1.17621
-1.44795
-0.000105338
-0.148264
-0.345377
-0.583999
-0.891593
0.589523
0.43707
0.253483
0.0362478
-0.239182
1.06347
0.94406
0.799491
0.623982
0.409036
1.44339
1.35926
1.24998
1.11898
0.963677
1.91023
1.87098
1.85002
1.84948
1.84349
1.89554
1.86918
1.85096
1.87083
1.91768
1.88323
1.86616
1.85127
1.89451
2.0021
1.87191
1.86173
1.84619
1.90472
2.01868
1.86148
1.85571
1.83661
1.90522
2.01754
1.96513
1.87531
1.83491
1.76836
1.70037
1.92009
1.86667
1.83093
1.79186
1.71677
1.32057
1.0748
0.655653
0.0520996
-0.60023
1.4073
1.11051
0.673027
0.0730359
-0.594077
)
;

boundaryField
{
    left
    {
        type            zeroGradient;
    }
    right
    {
        type            fixedValue;
        value           uniform 0;
    }
    down
    {
        type            zeroGradient;
    }
    up
    {
        type            zeroGradient;
    }
    cylinder
    {
        type            zeroGradient;
    }
    defaultFaces
    {
        type            empty;
    }
}


// ************************************************************************* //
