/*--------------------------------*- C++ -*----------------------------------*\
  =========                 |
  \\      /  F ield         | OpenFOAM: The Open Source CFD Toolbox
   \\    /   O peration     | Website:  https://openfoam.org
    \\  /    A nd           | Version:  13
     \\/     M anipulation  |
\*---------------------------------------------------------------------------*/
FoamFile
{
    format      ascii;
    class       surfaceScalarField;
    location    "22";
    object      phi;
}
// * * * * * * * * * * * * * * * * * * * * * * * * * * * * * * * * * * * * * //

dimensions      [0 3 -1 0 0 0 0];

internalField   nonuniform List<scalar> 
823
(
-0.00402819
0.017049
-0.0130208
0.00856333
0.00979551
-0.022387
0.0620658
-0.035708
-0.0177945
0.153612
-0.0959933
0.00444708
-0.130394
-2.23771e-05
0.284028
0.00639217
0.0106568
0.0546726
-0.0384849
0.146732
-0.127768
0.259512
-0.208773
-0.280496
0.409615
0.0236776
-0.0130208
0.11029
-0.125097
0.221658
-0.239136
0.328101
-0.315216
-0.358433
0.406038
0.0444621
-0.057483
0.140041
-0.220676
0.222334
-0.321429
0.271794
-0.364676
-0.378308
0.291669
0.0566833
-0.114166
0.125713
-0.289706
0.164396
-0.360112
0.179399
-0.379679
0.18776
-0.38667
0.0115546
-0.0457984
0.0342438
0.01998
-0.0616732
0.0532478
0.0357765
-0.0624763
0.0466797
0.0652643
-0.0546529
0.0251651
-0.0315566
0.105511
-0.00868993
-0.00778113
-0.0380173
-0.0273317
-0.0421226
-0.0496094
-0.0401986
-0.0643291
-0.0399333
-0.0279377
-0.067948
-0.00829353
-0.0297237
-0.0237698
-0.0266464
-0.0502222
-0.0137461
-0.0835303
-0.0066252
0.00308205
-0.11455
-0.0173089
-0.0124149
-0.0391924
-0.00476286
-0.0599396
0.00700111
-0.0786286
0.0120638
0.0182515
-0.0937981
-0.0254356
-0.0525855
-0.0633789
-0.0468681
-0.0286389
0.4107
1.61416
-1.91935
0.461848
0.171037
-0.222186
0.460768
-1.98013
1.98121
0.514165
-0.873355
0.819958
-0.036783
0.0287507
0.347726
1.19848
0.615774
-0.0970106
0.610114
-1.97447
0.556179
-0.81942
-0.0109499
0.253458
0.830476
0.636931
-0.480484
0.589317
-1.92686
0.56465
-0.794753
0.0252701
0.249784
0.486894
0.620392
-0.851092
0.530194
-1.83666
0.505234
-0.769792
0.0313965
0.310046
0.14821
0.599212
-1.14026
0.502327
-1.73978
0.425378
-0.692843
0.0192669
1.23862
0.0269261
-1.11734
1.36062
-1.26225
0.951739
-1.3309
0.660109
-0.401213
0.0254813
1.49089
-0.0897947
-1.37417
1.29221
-1.06357
0.697555
-0.736246
0.501957
-0.205614
-0.0926957
1.42051
-0.177245
-1.33306
1.14562
-0.788688
0.765636
-0.356261
0.66312
-0.103098
-0.142706
1.32162
-0.213324
-1.28554
0.888594
-0.355661
0.628136
-0.0958038
0.614875
-0.0898363
-0.0903495
0.671216
-0.88454
0.315554
0.21975
0.129914
1.08613
0.143863
-1.04223
1.14831
0.229484
1.25322
0.301135
1.26178
0.401054
0.428467
1.00955
0.083398
-0.94908
1.07628
0.162751
1.17218
0.205234
1.27114
0.302093
0.32544
0.944107
0.0443384
-0.905048
1.0081
0.0987578
1.08909
0.124241
1.20772
0.183471
0.200099
0.897394
0.0128995
-0.865955
0.961921
0.0342306
1.04061
0.0455511
1.15881
0.0652684
0.0733722
0.666117
-0.653218
0.700348
0.745899
0.811167
0.124524
0.294813
-0.243868
-0.175469
0.0817118
0.299689
-0.256876
0.0441878
0.309573
-0.272049
0.0138897
0.299268
-0.26897
0.190514
-0.176625
0.0933794
0.330866
-0.129433
0.0586016
0.334466
0.0285271
0.339647
0.00541486
0.322381
0.195929
0.0570293
0.362496
-0.0886588
0.0279822
0.363513
0.0039252
0.363704
-0.0073662
0.333672
0.188563
-0.0138543
0.379087
-0.00273691
-0.0297885
0.379448
-0.03655
0.370466
-0.0271566
0.324279
0.161406
-0.0919357
0.0843527
-0.0921672
-0.0818132
-0.04724
0.203952
0.0990862
-0.257662
-0.0453765
0.14946
0.102826
-0.0483349
0.0933541
0.107103
-0.0509964
0.0382434
0.106646
-0.0515355
0.0749774
-0.036734
0.198951
0.144038
-0.243903
0.151194
0.150583
0.0982862
0.160011
0.0419465
0.162986
0.116924
0.141567
0.189205
-0.186734
0.0996062
0.192544
0.0591475
0.20047
0.0215185
0.200615
0.138442
0.153401
0.222228
-0.186425
0.113866
0.232079
0.0697606
0.244575
0.0269283
0.243447
0.165371
0.0890477
-0.110687
0.064251
0.036777
0.011254
0.406051
0.0477382
-0.0578098
0.428574
0.00652032
-0.029043
0.41177
0.196469
-0.179665
0.397942
0.167008
-0.15318
0.43347
-0.293189
0.404956
0.0387616
0.422338
-0.0108616
0.399881
0.218927
0.38759
0.179298
0.577157
0.399911
0.0348307
0.415999
-0.0269496
0.377542
0.257383
0.372959
0.183882
0.763381
0.398924
0.0318865
0.399183
-0.0272093
0.363921
0.292646
0.351349
0.196454
0.928305
0.392171
0.0356952
0.383669
-0.0187074
0.334353
0.341962
0.323958
0.206849
1.14158
0.631422
0.00829315
0.633937
-0.0212218
0.680137
0.295761
0.785098
0.101888
0.953396
0.973277
0.645852
-0.0335386
0.615141
0.00948921
0.700961
0.209942
0.758312
0.0445375
0.737074
0.974634
0.63812
-0.0676384
0.621392
0.0262171
0.71826
0.113074
0.777355
-0.0145581
0.515695
0.998734
0.607556
-0.0711744
0.642847
-0.00907362
0.746477
0.00944439
0.752999
-0.0210804
0.26244
1.00625
0.532846
0.523772
0.533217
0.512136
0.774576
1.00433
-0.206526
0.999471
-0.124569
1.00424
-0.0934295
1.00998
-0.00847553
0.052102
0.939608
-0.171501
0.927966
-0.112927
0.913417
-0.0788807
0.928846
-0.0239042
0.0318677
0.937934
-0.110701
0.908992
-0.083985
0.886582
-0.0564704
0.88764
-0.0249627
0.0144605
0.938011
-0.042457
0.890528
-0.0365017
0.860814
-0.0267571
0.852023
-0.0161716
0.000528742
0.732119
0.695618
0.668861
0.652689
0.0486837
0.17907
-0.227754
0.0695572
0.367282
-0.388155
0.0678704
0.416512
-0.414825
0.0588528
0.413703
-0.404686
0.378569
0.0469327
-0.366649
0.0765227
0.102548
0.141937
0.301868
0.169818
0.388631
0.173716
0.409805
0.390431
0.161854
0.0697755
0.0327722
0.17957
0.192074
0.255681
0.31252
0.292695
0.372792
0.399278
0.283847
0.0377831
-0.00501091
0.150008
0.0798486
0.268343
0.194185
0.368291
0.272844
0.347597
0.419972
0.0119561
-0.0169671
0.0799908
0.011814
0.189246
0.0849294
0.30747
0.154621
0.251634
0.403433
0.00273276
-0.0196998
0.0311534
-0.0166067
0.0989734
0.0171094
0.19036
0.0632342
0.153595
0.288399
0.00114148
-0.0208413
0.0089616
-0.0244268
0.0317107
-0.00563976
0.0690612
0.0258837
0.0840216
0.138634
-0.0041881
-0.0166532
-0.00667976
-0.0219351
-0.00688016
-0.00543936
-0.00470359
0.0237071
0.0664045
0.0129135
0.00335203
-0.0200052
0.0134426
-0.0320257
0.0271699
-0.0191667
0.0395646
0.0113124
0.0556803
0.0502888
0.0142386
0.0354608
0.0629738
0.0994514
0.146442
0.143452
1.22269
-1.07774
0.0400138
0.467704
-0.364266
0.299303
-0.522514
0.263225
0.398164
-0.309803
0.210942
0.00890583
0.0173462
-0.0923047
1.45362
-0.172015
0.547414
0.328532
-1.02306
0.450463
-0.431734
0.0270598
-0.330202
1.79674
-0.253755
0.470968
0.327632
-1.60445
0.455801
-0.559903
0.0142212
-0.153699
2.00073
0.00323208
0.314036
0.31214
-1.91336
0.456113
-0.703876
-0.0146146
0.227822
0.319673
0.387529
0.503611
-0.159753
0.609251
-0.449498
-0.173093
0.0133395
0.0131383
-0.186231
0.167007
-0.153869
-0.0479732
0.65012
-1.11861
0.299194
0.376188
0.433261
0.0900096
-0.0101631
-0.0798465
0.141238
-0.0512286
0.215668
-0.0744296
0.340523
-0.124856
-0.108974
0.208989
-0.172219
0.319615
0.529032
0.824148
0.146712
-0.150527
0.181349
-0.177534
0.112496
-0.157146
0.191362
0.0731537
-0.165802
0.205143
0.0301421
-0.166963
0.209974
-0.118985
0.149127
0.18991
-0.109788
-0.230648
0.14402
-0.111256
0.0920488
-0.11383
0.038306
-0.11322
-0.0806791
0.192062
-0.0589664
-0.242884
0.140144
-0.0593384
0.0872993
-0.060985
0.0357104
-0.061631
-0.0449686
0.205029
-0.00648691
-0.257509
0.15185
-0.00615921
0.0969428
-0.00607771
0.0410236
-0.00571185
-0.003945
0.209495
-0.261358
0.155
0.0979264
0.040679
0.0507011
-0.345425
-0.0719254
0.0222644
-0.376249
-0.00292195
-0.389639
-0.0149823
-0.376095
-0.242736
0.132974
-0.311673
-0.166726
0.0890879
-0.332363
0.0448368
-0.345388
0.0102844
-0.341543
-0.232452
0.154913
-0.268843
-0.197742
0.108889
-0.286339
0.0639637
-0.300463
0.0232059
-0.300785
-0.209246
0.172951
-0.230837
-0.210957
0.127703
-0.241091
0.0791808
-0.251941
0.0319767
-0.253581
-0.177269
0.168275
-0.217763
0.118546
0.0717486
0.0281422
0.392362
0.0939524
-0.0903351
0.394205
0.0877186
-0.0895609
0.36048
0.151554
-0.117829
0.30955
0.0322205
0.0187093
-0.244078
0.376094
0.399551
0.0903807
0.409094
0.0781764
0.39785
0.162797
0.355154
0.0749167
-0.119572
0.404327
0.0820336
0.418312
0.0641912
0.411772
0.169337
0.378285
0.108404
0.0158285
0.407726
0.0702877
0.424058
0.0478583
0.420826
0.17257
0.395923
0.133307
0.154243
0.408458
0.427273
0.420178
0.400304
0.417345
0.092706
0.336307
0.0810381
0.252628
0.083679
0.267957
-0.0153291
-0.203828
0.471784
0.512422
0.503899
0.469749
0.473129
0.645395
0.378756
0.0930286
0.295891
0.0828651
0.198477
0.0974137
0.115525
0.0829525
0.0356781
0.520661
0.392569
0.29224
0.208467
)
;

boundaryField
{
    left
    {
        type            calculated;
        value           nonuniform List<scalar> 
17
(
-0.60402
-0.60402
-0.60402
-0.60402
-0.60402
-0.39598
-0.39598
-0.39598
-0.39598
-0.39598
-0.39598
-0.39598
-0.39598
-0.39598
-0.39598
-0.510051
-0.510051
)
;
    }
    right
    {
        type            calculated;
        value           nonuniform List<scalar> 
17
(
0.214981
0.402634
0.371912
0.432309
0.46864
0.484949
0.517747
0.522198
0.530346
0.52843
0.499108
0.437507
0.653894
0.620134
0.71313
0.562518
0.0395645
)
;
    }
    down
    {
        type            calculated;
        value           uniform 0;
    }
    up
    {
        type            calculated;
        value           uniform 0;
    }
    cylinder
    {
        type            calculated;
        value           uniform 0;
    }
    defaultFaces
    {
        type            empty;
    }
}


// ************************************************************************* //
