/*--------------------------------*- C++ -*----------------------------------*\
  =========                 |
  \\      /  F ield         | OpenFOAM: The Open Source CFD Toolbox
   \\    /   O peration     | Website:  https://openfoam.org
    \\  /    A nd           | Version:  13
     \\/     M anipulation  |
\*---------------------------------------------------------------------------*/
FoamFile
{
    format      ascii;
    class       volScalarField;
    location    "3.5";
    object      p;
}
// * * * * * * * * * * * * * * * * * * * * * * * * * * * * * * * * * * * * * //

dimensions      [0 2 -2 0 0 0 0];

internalField   nonuniform List<scalar> 
1800
(
-1.08433
-1.08452
-1.08232
-1.07654
-1.06749
-1.05608
-1.04503
-1.0378
-1.0334
-1.07354
-1.11152
-1.1101
-1.1072
-1.10191
-1.09431
-1.08471
-1.07431
-1.06554
-1.05766
-1.08509
-1.15037
-1.14592
-1.14099
-1.13485
-1.12761
-1.11928
-1.11003
-1.10065
-1.09272
-1.09626
-1.19782
-1.19008
-1.18208
-1.17391
-1.16514
-1.15516
-1.14345
-1.1301
-1.11631
-1.10445
-1.25866
-1.24773
-1.23702
-1.2261
-1.21379
-1.19865
-1.17975
-1.15715
-1.13197
-1.10604
-1.33475
-1.32102
-1.30708
-1.29177
-1.27239
-1.24717
-1.21597
-1.18006
-1.14127
-1.10167
-1.42457
-1.40833
-1.38992
-1.36695
-1.3357
-1.29549
-1.24833
-1.19727
-1.14503
-1.09406
-1.52178
-1.50339
-1.47821
-1.44297
-1.39482
-1.33586
-1.27088
-1.20425
-1.13892
-1.07669
-1.61614
-1.59542
-1.5604
-1.50838
-1.43965
-1.36045
-1.27789
-1.19682
-1.11977
-1.04794
-1.69456
-1.67067
-1.62295
-1.55103
-1.46047
-1.36178
-1.26327
-1.16937
-1.08186
-1.00116
-1.04551
-1.05164
-1.05971
-1.07177
-1.08975
-1.11339
-1.14152
-1.17347
-1.21079
-1.25587
-1.11256
-1.11607
-1.12181
-1.13324
-1.15185
-1.17715
-1.2078
-1.24267
-1.28226
-1.32876
-1.17519
-1.17525
-1.17806
-1.18819
-1.20661
-1.23232
-1.26402
-1.30026
-1.34028
-1.38524
-1.21189
-1.20758
-1.20749
-1.21567
-1.23234
-1.25666
-1.28738
-1.32311
-1.36234
-1.40396
-1.21598
-1.20793
-1.20453
-1.2091
-1.22184
-1.24215
-1.26902
-1.30132
-1.33776
-1.37629
-1.19389
-1.18412
-1.17776
-1.1771
-1.18254
-1.19413
-1.21154
-1.23414
-1.26115
-1.29009
-1.15982
-1.15108
-1.14344
-1.13771
-1.13418
-1.13353
-1.13649
-1.14353
-1.1551
-1.17116
-1.12535
-1.11975
-1.11305
-1.10472
-1.09458
-1.0834
-1.07255
-1.06361
-1.05849
-1.06257
-1.09651
-1.09405
-1.08945
-1.08059
-1.06742
-1.05067
-1.03201
-1.0137
-0.998612
-0.99372
-1.07629
-1.07644
-1.07315
-1.06489
-1.05176
-1.03446
-1.01445
-0.994533
-0.976648
-0.963876
-1.50794
-1.55813
-0.915273
-0.426175
-0.183516
-0.0233827
0.0322072
0.0468073
0.0346614
0.0152235
-1.59636
-1.71923
-1.0962
-0.528263
-0.22315
-0.0383198
0.0266568
0.0441693
0.0330803
0.0145662
-1.66587
-1.87572
-1.27157
-0.631171
-0.266146
-0.0576896
0.0178665
0.0394092
0.0304666
0.0134841
-1.69027
-1.99963
-1.42191
-0.729584
-0.310608
-0.0806136
0.00615132
0.0326867
0.0268729
0.0120006
-1.65622
-2.07381
-1.54268
-0.819511
-0.355726
-0.106268
-0.00809552
0.0242382
0.0223976
0.0101742
-1.5614
-2.09663
-1.63049
-0.89886
-0.401482
-0.134207
-0.0245306
0.0143118
0.0171728
0.00808312
-1.41429
-2.07024
-1.68495
-0.965726
-0.447691
-0.164367
-0.0429944
0.00308808
0.0113319
0.00581003
-1.24139
-2.00432
-1.70827
-1.0183
-0.493135
-0.196584
-0.0634875
-0.00939878
0.00494069
0.0034275
-1.08028
-1.91626
-1.70501
-1.05674
-0.535748
-0.23017
-0.0859461
-0.0232374
-0.00206134
0.000964469
-0.953227
-1.82887
-1.689
-1.08548
-0.57506
-0.264298
-0.11007
-0.0384694
-0.00980429
-0.00160874
-0.825533
-1.76565
-1.61954
-1.05993
-0.588656
-0.294084
-0.137483
-0.057959
-0.0202685
-0.00503643
-0.856646
-1.55373
-1.4297
-0.970544
-0.581297
-0.322965
-0.169747
-0.081938
-0.0332266
-0.00919266
-0.839822
-1.3262
-1.25246
-0.898474
-0.582191
-0.35382
-0.202177
-0.10531
-0.0456249
-0.0128277
-0.816075
-1.13546
-1.10313
-0.839849
-0.588531
-0.38993
-0.238753
-0.131222
-0.0596983
-0.0168083
-0.773164
-0.979939
-0.975939
-0.792952
-0.604172
-0.433355
-0.277516
-0.155356
-0.0712587
-0.019457
-0.72078
-0.856604
-0.869457
-0.756335
-0.623636
-0.476541
-0.314806
-0.179016
-0.0824747
-0.02176
-0.666724
-0.758659
-0.780783
-0.727253
-0.646353
-0.517205
-0.345858
-0.196735
-0.0903536
-0.0227618
-0.614671
-0.685786
-0.716528
-0.706198
-0.659289
-0.539386
-0.362592
-0.207597
-0.0953796
-0.0233185
-0.577091
-0.649199
-0.684602
-0.69251
-0.659251
-0.543939
-0.366418
-0.211727
-0.0977774
-0.0236392
-0.552915
-0.645087
-0.690644
-0.694611
-0.653731
-0.537135
-0.362622
-0.212751
-0.0994076
-0.0245568
-0.861837
-0.920447
-0.964292
-0.998731
-1.02559
-1.05362
-1.08031
-1.10504
-1.09827
-1.07687
-0.702753
-0.769111
-0.823811
-0.86927
-0.907238
-0.937303
-0.959197
-0.96983
-0.970211
-0.96766
-0.576247
-0.644754
-0.703988
-0.753175
-0.793927
-0.824601
-0.847405
-0.862625
-0.873407
-0.883924
-0.472525
-0.541267
-0.601354
-0.652324
-0.694387
-0.728836
-0.756052
-0.780126
-0.799974
-0.820836
-0.38806
-0.456026
-0.515353
-0.567375
-0.610589
-0.648532
-0.679539
-0.708377
-0.732702
-0.757167
-0.320023
-0.386655
-0.445024
-0.497131
-0.541014
-0.580163
-0.612788
-0.642626
-0.66817
-0.692648
-0.266507
-0.331642
-0.389149
-0.440348
-0.48402
-0.52236
-0.554699
-0.583326
-0.608239
-0.631318
-0.22691
-0.290734
-0.347421
-0.397118
-0.439778
-0.476128
-0.506941
-0.533044
-0.555852
-0.57575
-0.203143
-0.266158
-0.322288
-0.371016
-0.412954
-0.447722
-0.476975
-0.500215
-0.520213
-0.53556
-0.19273
-0.256124
-0.312494
-0.361597
-0.403606
-0.438471
-0.467264
-0.489372
-0.507385
-0.5179
0.541976
0.468976
0.385402
0.295901
0.199135
0.0926929
-0.0232283
-0.141931
-0.241306
-0.289137
0.339833
0.261181
0.173478
0.0774617
-0.02878
-0.14686
-0.27551
-0.406282
-0.514618
-0.565348
0.118408
0.037053
-0.0530595
-0.153099
-0.265234
-0.39066
-0.527423
-0.665715
-0.779943
-0.831487
-0.094199
-0.178764
-0.272794
-0.377759
-0.495509
-0.626977
-0.769964
-0.912745
-1.02963
-1.07962
-0.285296
-0.374312
-0.473472
-0.583985
-0.707392
-0.844302
-0.992219
-1.13795
-1.25049
-1.30003
-0.455008
-0.548453
-0.652183
-0.767162
-0.894723
-1.03553
-1.18453
-1.32753
-1.43607
-1.4838
-0.604195
-0.700672
-0.806979
-0.924168
-1.05327
-1.19383
-1.3403
-1.47754
-1.57899
-1.62308
-0.735723
-0.831879
-0.937411
-1.05336
-1.18033
-1.3169
-1.45645
-1.5833
-1.67388
-1.713
-0.846523
-0.939552
-1.04146
-1.15304
-1.2742
-1.40245
-1.53006
-1.64167
-1.71868
-1.75223
-0.935124
-1.02287
-1.11868
-1.2228
-1.33434
-1.44975
-1.5606
-1.65323
-1.7154
-1.74364
1.86614
1.88144
1.89723
1.91232
1.9258
1.93697
1.9451
1.95015
1.95425
1.95869
1.79677
1.80881
1.82054
1.83087
1.83906
1.84438
1.84611
1.84454
1.84287
1.84387
1.70623
1.714
1.72044
1.72462
1.72603
1.72393
1.71763
1.70774
1.69875
1.69556
1.59648
1.59946
1.59957
1.59625
1.58931
1.57802
1.56172
1.54148
1.52339
1.51532
1.46734
1.46445
1.45729
1.44563
1.4295
1.40814
1.38091
1.3493
1.32109
1.30766
1.32288
1.31404
1.29868
1.27727
1.25033
1.21717
1.17729
1.13276
1.09331
1.07385
1.16309
1.14775
1.12418
1.09315
1.05533
1.00997
0.956696
0.898368
0.84695
0.821273
0.997297
0.974433
0.940472
0.897513
0.84689
0.787922
0.720341
0.647694
0.584203
0.552316
0.830405
0.799934
0.755177
0.699522
0.634944
0.560858
0.477307
0.388938
0.312706
0.274765
0.677437
0.628969
0.566496
0.494991
0.41542
0.326185
0.227127
0.123773
0.0357303
-0.00755907
1.59365
1.57972
1.56942
1.56408
1.56383
1.56863
1.58904
1.62757
1.69339
1.79726
1.58741
1.57447
1.56495
1.55861
1.55814
1.5605
1.57894
1.61193
1.66808
1.75464
1.58176
1.56924
1.56032
1.5527
1.55187
1.55121
1.56746
1.59315
1.63721
1.70019
1.57665
1.56411
1.55555
1.54638
1.54504
1.54076
1.55466
1.57102
1.60134
1.63327
1.57202
1.55911
1.55063
1.53969
1.53762
1.52915
1.54053
1.54533
1.56112
1.55282
1.56788
1.55427
1.54554
1.53268
1.52958
1.51646
1.52496
1.51605
1.51676
1.45805
1.5642
1.54963
1.5403
1.52539
1.52086
1.50276
1.50784
1.48316
1.46838
1.34741
1.561
1.5452
1.53489
1.51787
1.51144
1.48814
1.48895
1.44691
1.41572
1.22239
1.55832
1.54098
1.52934
1.51013
1.50135
1.47278
1.46813
1.40747
1.35697
1.08117
1.55617
1.53698
1.52369
1.5022
1.49071
1.45684
1.44651
1.36668
1.2951
0.935358
1.5541
1.53254
1.51623
1.49229
1.4759
1.43575
1.41506
1.31574
1.22265
0.796824
1.5533
1.52837
1.50778
1.48147
1.45841
1.41347
1.37956
1.27222
1.15138
0.779242
1.55439
1.52532
1.49923
1.47132
1.44056
1.39323
1.34566
1.2377
1.09355
0.774271
1.55792
1.52341
1.49078
1.46205
1.42285
1.3752
1.3142
1.21058
1.04633
0.774434
1.56453
1.52242
1.48252
1.45378
1.40464
1.35953
1.2852
1.19013
1.00995
0.777194
1.57489
1.52239
1.47459
1.44641
1.38686
1.34606
1.25913
1.17529
0.983495
0.778963
1.58878
1.5213
1.46557
1.43717
1.369
1.33382
1.23656
1.16414
0.965155
0.779882
1.61396
1.52476
1.45969
1.42997
1.3534
1.32329
1.21814
1.15653
0.953265
0.781149
1.62644
1.51725
1.44739
1.41784
1.34036
1.31623
1.20622
1.15297
0.947807
0.784577
1.70292
1.53025
1.45121
1.41477
1.33453
1.31352
1.20092
1.15296
0.945318
0.789589
0.530414
0.366369
0.170392
-0.0183639
-0.187018
-0.337052
-0.470977
-0.591269
-0.697043
-0.78794
0.486041
0.357224
0.209479
0.0602128
-0.0780282
-0.205079
-0.321654
-0.431449
-0.532916
-0.624412
0.476058
0.366883
0.248772
0.126614
0.00803715
-0.105582
-0.213365
-0.315899
-0.410637
-0.49788
0.494235
0.392556
0.286669
0.180552
0.0759102
-0.0264978
-0.125757
-0.221101
-0.311277
-0.395445
0.517057
0.421082
0.322989
0.226765
0.13207
0.0382599
-0.0543696
-0.144833
-0.231452
-0.313132
0.539672
0.448919
0.356765
0.267
0.178843
0.0908052
0.0028209
-0.0841733
-0.167919
-0.247264
0.560289
0.474436
0.38714
0.301757
0.217554
0.132983
0.0479687
-0.036465
-0.118027
-0.19537
0.578386
0.497064
0.413905
0.331366
0.248949
0.165733
0.0820045
-0.000946197
-0.0810256
-0.156804
0.594406
0.516812
0.436869
0.355498
0.272718
0.188774
0.10468
0.0218722
-0.0580023
-0.133443
0.607061
0.531188
0.452059
0.369682
0.2852
0.199937
0.115224
0.0322573
-0.0475434
-0.122954
-1.56162
-1.52454
-1.44542
-1.3455
-1.2438
-1.15094
-1.07099
-1.00512
-0.953664
-0.91708
-1.63597
-1.60338
-1.53718
-1.45153
-1.36164
-1.27792
-1.20503
-1.14469
-1.0979
-1.06587
-1.64772
-1.61904
-1.56685
-1.49847
-1.42387
-1.35209
-1.28813
-1.2342
-1.19177
-1.16227
-1.60901
-1.58353
-1.54424
-1.49366
-1.43636
-1.37888
-1.326
-1.28024
-1.24345
-1.21717
-1.53822
-1.51569
-1.48672
-1.45151
-1.41079
-1.36809
-1.32701
-1.28986
-1.25841
-1.2335
-1.45501
-1.43568
-1.41412
-1.39
-1.36244
-1.33261
-1.30262
-1.27408
-1.24882
-1.22807
-1.37519
-1.35954
-1.34332
-1.32627
-1.30759
-1.28748
-1.26681
-1.24671
-1.22808
-1.21171
-1.30777
-1.29611
-1.28407
-1.2715
-1.25816
-1.24401
-1.22939
-1.21434
-1.20094
-1.18914
-1.25556
-1.24765
-1.2392
-1.23002
-1.22024
-1.21
-1.19956
-1.18944
-1.17932
-1.17847
-1.21696
-1.21227
-1.20686
-1.20049
-1.19346
-1.18608
-1.17858
-1.17205
-1.16342
-1.1681
-1.18863
-1.18634
-1.18319
-1.17903
-1.17424
-1.16923
-1.16449
-1.16043
-1.15456
-1.13469
-1.16866
-1.16756
-1.1655
-1.1625
-1.15899
-1.15536
-1.15183
-1.14831
-1.14281
-1.12015
-1.15613
-1.15503
-1.15343
-1.1514
-1.14913
-1.14686
-1.14484
-1.14298
-1.14007
-1.13255
-1.14641
-1.1455
-1.14516
-1.14569
-1.14707
-1.14936
-1.15263
-1.15688
-1.16203
-1.17069
-1.13023
-1.13061
-1.13265
-1.13688
-1.14325
-1.15172
-1.16238
-1.17532
-1.19068
-1.20974
-1.10156
-1.1042
-1.10881
-1.11601
-1.12573
-1.13776
-1.15181
-1.16747
-1.1837
-1.1928
-1.06172
-1.06718
-1.07476
-1.08483
-1.09804
-1.11444
-1.13372
-1.15524
-1.17898
-1.20898
-1.01845
-1.02584
-1.03511
-1.04654
-1.06138
-1.07982
-1.10131
-1.12543
-1.15391
-1.19154
-0.991145
-0.99957
-1.0095
-1.02149
-1.03728
-1.05699
-1.07985
-1.10565
-1.13682
-1.17747
-0.999863
-1.00768
-1.01713
-1.02933
-1.04625
-1.06782
-1.09306
-1.12169
-1.15591
-1.19855
-1.15742
-1.35027
-0.879155
-0.552644
-0.364695
-0.16392
-0.0431661
0.00684501
0.0171661
0.00941022
-1.23196
-1.40812
-0.832024
-0.444488
-0.286285
-0.131844
-0.036924
0.00628398
0.0164087
0.00917798
-1.31376
-1.43967
-0.76694
-0.32914
-0.212093
-0.101248
-0.0286495
0.00865018
0.0174783
0.00960726
-1.40398
-1.45541
-0.695177
-0.226833
-0.149377
-0.0730871
-0.0175385
0.0140781
0.0201722
0.0105445
-1.4805
-1.46339
-0.632283
-0.156236
-0.10721
-0.0491784
-0.00436535
0.0215718
0.0238014
0.0117521
-1.53152
-1.4576
-0.59147
-0.125819
-0.0884957
-0.030355
0.00897457
0.0295608
0.0275609
0.0129853
-1.52114
-1.43004
-0.579553
-0.137909
-0.0894775
-0.0170508
0.0202499
0.0366289
0.0308142
0.0140527
-1.46956
-1.39011
-0.597073
-0.184078
-0.101984
-0.00980784
0.0283777
0.0420862
0.033241
0.0148507
-1.43028
-1.38173
-0.651278
-0.250409
-0.122303
-0.00874023
0.0330887
0.0456782
0.0347185
0.0153324
-1.44221
-1.43641
-0.754628
-0.331411
-0.149504
-0.0134501
0.0343616
0.047287
0.0352013
0.015468
-1.00535
-0.99458
-0.81266
-0.687744
-0.465738
-0.200548
-0.0426725
0.0169258
0.0243194
0.0122507
-1.00006
-0.985838
-0.808325
-0.69008
-0.472039
-0.203463
-0.0437666
0.0164883
0.0240792
0.0121385
-1.01061
-1.02583
-0.821285
-0.691881
-0.475348
-0.206122
-0.0454666
0.0149871
0.0231082
0.0117486
-1.04136
-1.11583
-0.846687
-0.682255
-0.469494
-0.203104
-0.0467169
0.0124135
0.0213663
0.0110389
-1.09407
-1.25186
-0.87609
-0.629093
-0.4262
-0.189815
-0.0469246
0.00908818
0.019118
0.0101647
-0.880354
-1.02216
-1.11891
-1.18165
-1.1997
-1.2064
-1.19009
-1.16342
-1.13101
-1.09211
-0.881182
-1.02523
-1.1206
-1.18176
-1.19484
-1.20127
-1.18322
-1.15266
-1.12607
-1.08371
-0.883668
-1.02933
-1.12388
-1.18334
-1.19406
-1.20003
-1.18021
-1.15291
-1.13031
-1.0966
-0.889531
-1.03717
-1.13208
-1.18949
-1.20135
-1.20376
-1.1852
-1.16375
-1.14574
-1.13335
-0.899583
-1.04968
-1.14563
-1.20117
-1.21539
-1.21263
-1.1974
-1.17831
-1.16459
-1.17145
1.44737
1.43753
1.42103
1.40081
1.37771
1.35072
1.31913
1.28473
1.25543
1.24174
1.55427
1.55625
1.55191
1.54317
1.53115
1.51532
1.49515
1.472
1.45219
1.44341
1.65781
1.6652
1.66802
1.66752
1.66448
1.65842
1.64869
1.63607
1.62517
1.62097
1.74942
1.76132
1.77048
1.77737
1.78222
1.78449
1.78344
1.77944
1.77583
1.77573
1.82721
1.84254
1.85622
1.86833
1.87886
1.88723
1.89273
1.89543
1.89762
1.90089
1.88636
1.90394
1.92107
1.93738
1.95251
1.96584
1.97661
1.98463
1.99133
1.99736
1.92589
1.94492
1.96428
1.98329
2.0013
2.01769
2.03171
2.043
2.05255
2.06037
1.94399
1.96351
1.98389
2.00419
2.02358
2.04139
2.05688
2.06962
2.08043
2.08902
1.94014
1.95924
1.97938
1.99947
2.01857
2.03599
2.051
2.0632
2.07353
2.08184
1.91417
1.93189
1.95051
1.96887
1.986
2.0012
2.01375
2.02339
2.03147
2.03838
-0.717597
-0.760358
-0.816571
-0.8868
-0.971774
-1.0708
-1.18063
-1.29086
-1.37998
-1.42124
-0.474309
-0.523216
-0.584279
-0.658249
-0.746238
-0.848346
-0.963049
-1.08011
-1.1761
-1.22002
-0.201302
-0.255966
-0.321574
-0.398556
-0.488176
-0.591052
-0.705626
-0.823245
-0.924866
-0.969771
0.0807511
0.0219909
-0.046387
-0.124504
-0.213555
-0.314317
-0.425566
-0.540478
-0.638822
-0.685428
0.351553
0.29164
0.223631
0.147572
0.0623341
-0.033071
-0.137874
-0.245975
-0.337669
-0.382587
0.596485
0.539537
0.475967
0.405814
0.32794
0.24121
0.146117
0.0480947
-0.034759
-0.0758673
0.812274
0.76212
0.706567
0.645502
0.577717
0.50201
0.418715
0.332673
0.260092
0.224037
1.00637
0.964547
0.9183
0.867428
0.810596
0.746572
0.675617
0.602025
0.540073
0.509514
1.18753
1.15315
1.11444
1.0722
1.02521
0.972133
0.913104
0.851746
0.800284
0.775254
1.34635
1.31916
1.28665
1.25212
1.21489
1.17339
1.12719
1.0789
1.03839
1.01902
1.70818
1.61757
1.59567
1.58645
1.58165
1.58991
1.60229
1.62615
1.62149
1.56869
1.69065
1.61655
1.59558
1.58777
1.58356
1.59279
1.60807
1.63687
1.65059
1.63825
1.67485
1.61455
1.59461
1.58808
1.58452
1.59444
1.61269
1.64803
1.67898
1.70555
1.66066
1.61175
1.59296
1.58748
1.58459
1.59494
1.61568
1.65592
1.70188
1.75963
1.64788
1.60828
1.59075
1.58609
1.58386
1.5944
1.6169
1.66078
1.71904
1.80198
1.63637
1.60428
1.58807
1.58395
1.58235
1.59279
1.61636
1.66262
1.73016
1.83187
1.62599
1.59985
1.58498
1.58113
1.58008
1.59012
1.61412
1.66141
1.73503
1.84926
1.61663
1.59509
1.58152
1.57768
1.57705
1.58637
1.61024
1.6572
1.73364
1.85453
1.60818
1.5901
1.57774
1.57365
1.57332
1.58154
1.60475
1.65012
1.7262
1.8475
1.60055
1.58495
1.57369
1.56911
1.56889
1.57564
1.59767
1.64026
1.71278
1.8283
1.87536
1.62078
1.58815
1.5735
1.57008
1.57424
1.57402
1.57758
1.518
1.46515
1.80092
1.6148
1.58918
1.57645
1.57182
1.57541
1.57482
1.57897
1.52047
1.46204
1.77794
1.61971
1.59277
1.57942
1.57381
1.57757
1.57768
1.58335
1.53106
1.46246
1.75122
1.61929
1.59438
1.58207
1.57617
1.58082
1.58378
1.5928
1.55115
1.47422
1.72798
1.61833
1.59523
1.58439
1.57882
1.58507
1.59155
1.60676
1.58037
1.49786
1.22944
1.12358
0.98167
0.799466
0.579486
0.328826
0.0589827
-0.213374
-0.469889
-0.694537
1.22425
1.12176
0.985277
0.808206
0.593541
0.34656
0.0772466
-0.197975
-0.459991
-0.690846
1.23517
1.12913
0.990909
0.815896
0.605149
0.360775
0.091211
-0.186973
-0.453713
-0.689632
1.26739
1.14807
0.999788
0.823089
0.614483
0.371477
0.100972
-0.180218
-0.451208
-0.691748
1.32216
1.18109
1.01407
0.829816
0.620087
0.377671
0.106888
-0.176563
-0.451786
-0.697525
)
;

boundaryField
{
    left
    {
        type            zeroGradient;
    }
    right
    {
        type            fixedValue;
        value           uniform 0;
    }
    down
    {
        type            zeroGradient;
    }
    up
    {
        type            zeroGradient;
    }
    cylinder
    {
        type            zeroGradient;
    }
    defaultFaces
    {
        type            empty;
    }
}


// ************************************************************************* //
