/*--------------------------------*- C++ -*----------------------------------*\
  =========                 |
  \\      /  F ield         | OpenFOAM: The Open Source CFD Toolbox
   \\    /   O peration     | Website:  https://openfoam.org
    \\  /    A nd           | Version:  13
     \\/     M anipulation  |
\*---------------------------------------------------------------------------*/
FoamFile
{
    format      ascii;
    class       surfaceScalarField;
    location    "3.5";
    object      phi;
}
// * * * * * * * * * * * * * * * * * * * * * * * * * * * * * * * * * * * * * //

dimensions      [0 3 -1 0 0 0 0];

internalField   nonuniform List<scalar> 
3485
(
-0.0018975
0.00397552
-0.00207802
-0.00455629
0.00772839
-0.0050696
-0.0057939
0.0084544
-0.00721679
-0.00392255
0.00653239
-0.00840373
0.00245343
0.00196055
-0.00833653
0.014454
-0.00528997
-0.00671064
0.0330096
-0.0152392
-0.00331643
0.0587431
-0.0275307
0.00179727
0.0921433
-0.0413795
0.00797936
-0.0478817
0.0116788
0.128346
-0.000790237
0.00476576
-0.00100604
0.00794419
0.00124356
0.0062048
0.00768163
9.43137e-05
0.0196803
-0.0100381
0.0382286
-0.0238382
0.0635563
-0.0405669
0.0952569
-0.0592313
0.132596
-0.0787181
-0.093265
0.177979
0.000332279
0.00443348
0.00295781
0.00531866
0.00960785
-0.000445232
0.0219359
-0.0122337
0.0410005
-0.0291027
0.0669156
-0.0497534
0.0987244
-0.0723756
0.134532
-0.0950394
0.172084
-0.116269
-0.133841
0.212659
0.00110116
0.00333232
0.0063227
9.71294e-05
0.0175372
-0.0116598
0.035896
-0.0305925
0.0614752
-0.0546819
0.0928551
-0.0811333
0.127522
-0.107043
0.1626
-0.130117
0.195362
-0.149032
-0.163343
0.224865
0.00202809
0.00130422
0.0101869
-0.00806165
0.0260741
-0.027547
0.0498789
-0.0543973
0.0798172
-0.0846203
0.112644
-0.11396
0.144813
-0.139212
0.173482
-0.158786
0.196986
-0.172536
-0.181572
0.215215
0.00322337
-0.00191915
0.0145661
-0.0194044
0.0347076
-0.0476885
0.0619004
-0.08159
0.0923287
-0.115049
0.121795
-0.143427
0.14722
-0.164636
0.167209
-0.178775
0.181897
-0.187224
-0.191709
0.192034
0.00455986
-0.00647901
0.0188653
-0.0337098
0.0417311
-0.0705544
0.0691502
-0.109009
0.0962164
-0.142115
0.11936
-0.166571
0.137135
-0.182411
0.149833
-0.191472
0.158574
-0.195966
-0.197826
0.164691
0.00584231
-0.0123213
0.0222046
-0.0500721
0.0454971
-0.0938468
0.0701641
-0.133676
0.0917384
-0.163689
0.108235
-0.183068
0.119744
-0.19392
0.127365
-0.199094
0.132364
-0.200965
-0.201042
0.13558
0.00683538
-0.0191567
0.0238847
-0.0671214
0.0453973
-0.115359
0.0656326
-0.153911
0.0814759
-0.179532
0.0924072
-0.193999
0.0993306
-0.200843
0.103519
-0.203282
0.106005
-0.203451
-0.202468
0.107431
0.00736836
-0.0265251
0.0236656
-0.0834186
0.041951
-0.133645
0.0573353
-0.169296
0.0681025
-0.1903
0.0746505
-0.200547
0.07817
-0.204363
0.0798129
-0.204925
0.0803647
-0.204003
0.0801787
-0.202282
-0.00415605
0.0162525
-0.0120964
-0.0135057
0.0354107
-0.026061
-0.0257782
0.0448746
-0.0326022
-0.0395227
0.0486476
-0.0349031
-0.0539625
0.0497588
-0.035319
-0.068744
0.0498332
-0.0350517
-0.0837019
0.0494731
-0.0345152
-0.0987226
0.0488161
-0.0337955
-0.113703
0.047893
-0.0329125
0.0470866
-0.128626
-0.0321631
-0.00148582
0.0177383
-0.00649032
0.0404152
-0.0144386
0.0528229
-0.0242428
0.0584518
-0.0349563
0.0604723
-0.0459881
0.0608651
-0.0570361
0.0605211
-0.0679337
0.0597136
-0.0785429
0.0585022
0.0572102
-0.0886665
0.00149077
0.0162475
0.00208892
0.0398171
0.000181163
0.0547307
-0.00398934
0.0626223
-0.00951258
0.0659955
-0.0155724
0.0669249
-0.0216643
0.0666131
-0.0275356
0.0655849
-0.0330316
0.0639981
0.0620551
-0.0378765
0.00374692
0.0125006
0.00961489
0.0339491
0.0143294
0.0500162
0.0168042
0.0601475
0.0173405
0.0654593
0.0167448
0.0675206
0.0157505
0.0676073
0.0148329
0.0665025
0.014251
0.06458
0.0620315
0.0142746
0.00466316
0.00783747
0.0140229
0.0245893
0.0243999
0.0396392
0.0336049
0.0509425
0.0409237
0.0581405
0.0466025
0.0618418
0.0512768
0.0629331
0.05559
0.0621893
0.060022
0.0601481
0.0568626
0.0651909
0.00419979
0.00363768
0.0141602
0.0146289
0.0271938
0.0266056
0.0409912
0.0371451
0.0541136
0.0450181
0.0659954
0.04996
0.0766764
0.052252
0.0864906
0.0523752
0.0957949
0.0508437
0.0474856
0.105172
0.00287835
0.000759337
0.0107784
0.00672885
0.0225142
0.0148698
0.0365656
0.0230936
0.0515768
0.0300069
0.0666223
0.0349144
0.0812253
0.0376491
0.0952372
0.0383632
0.108694
0.0373871
0.0341681
0.122011
0.00126955
-0.00051021
0.00564212
0.00235627
0.013177
0.00733496
0.0234075
0.0128631
0.0355828
0.0178316
0.0489532
0.021544
0.0629219
0.0236804
0.0771039
0.0241813
0.0914343
0.0230566
0.0193736
0.106229
-0.000552066
4.18559e-05
-0.000271193
0.0020754
0.0018767
0.00518707
0.0062497
0.00849011
0.0128009
0.0112805
0.0212934
0.0130515
0.0314659
0.0135079
0.0431121
0.0125351
0.0562124
0.00995629
0.0049443
0.0706417
-0.00203616
-0.00503037
-0.00706009
-0.00697372
-0.00402979
0.00231107
0.0125025
0.0268349
0.0447705
0.0613936
-0.206217
0.321598
-0.244007
-0.169071
0.134195
-0.171342
-0.049588
-0.133703
0.0142207
0.049091
-0.315355
0.216676
0.112634
-0.407927
0.344385
0.152823
-0.363186
0.322997
0.178138
-0.299433
0.274118
0.193629
-0.217085
0.201594
0.204511
-0.171021
0.160139
-0.106052
0.100459
-0.144944
0.377875
-0.113844
0.103096
-0.0133415
-0.234206
0.0763222
-0.405019
0.134084
-0.465689
0.169739
-0.398841
0.190562
-0.320256
0.202229
-0.228751
0.209879
-0.178671
-0.10997
-0.0737609
0.413759
-0.0470206
0.0763554
0.0316294
-0.312856
0.10813
-0.48152
0.157116
-0.514674
0.186932
-0.428657
0.203177
-0.336501
0.211253
-0.236827
0.215701
-0.183119
-0.112169
-0.00484451
0.432878
0.0192549
0.052256
0.0780323
-0.371633
0.141253
-0.54474
0.180529
-0.553951
0.203522
-0.45165
0.215019
-0.347997
0.219894
-0.241702
0.221519
-0.184744
-0.1128
0.061058
0.437011
0.0766749
0.0366391
0.122228
-0.417187
0.172502
-0.595015
0.202744
-0.584193
0.218984
-0.467889
0.225666
-0.354679
0.227605
-0.243641
0.226898
-0.184036
-0.112158
0.115455
0.426728
0.126807
0.025287
0.161589
-0.451968
0.199997
-0.633423
0.222313
-0.606509
0.23273
-0.478306
0.23497
-0.356919
0.234166
-0.242838
0.231552
-0.181422
-0.110575
0.155814
0.392926
0.167934
0.0131671
0.194985
-0.47902
0.222845
-0.661283
0.238473
-0.622137
0.244292
-0.484124
0.242867
-0.355494
0.239582
-0.239553
0.235366
-0.177205
-0.108361
0.17659
0.322565
0.19983
-0.0100726
0.221632
-0.500822
0.240381
-0.680032
0.250794
-0.632551
0.253372
-0.486703
0.249306
-0.351428
0.243955
-0.234202
0.238365
-0.171615
-0.105764
0.178233
0.214974
0.223741
-0.0555807
0.241525
-0.518606
0.252467
-0.690974
0.259132
-0.639216
0.259813
-0.487384
0.254211
-0.345825
0.247379
-0.227371
0.240642
-0.164878
-0.102982
0.173649
0.102718
0.240804
-0.122736
0.254051
-0.531853
0.260116
-0.697039
0.26411
-0.643211
0.263858
-0.487131
0.257603
-0.33957
0.249919
-0.219688
0.24231
-0.157269
-0.100187
0.491278
0.0349971
-0.423557
0.625539
-0.256996
0.658252
-0.564566
0.62411
-0.662897
0.566384
-0.585485
0.508697
-0.429444
0.457097
-0.28797
0.417041
-0.179631
0.385518
-0.125745
-0.0825804
0.712284
-0.0203187
-0.656968
0.755564
-0.300277
0.71973
-0.528732
0.645075
-0.588242
0.572754
-0.513164
0.51155
-0.36824
0.459736
-0.236157
0.419796
-0.139691
0.387596
-0.0935456
-0.0637989
0.780652
-0.0681836
-0.732787
0.765116
-0.284741
0.704533
-0.468148
0.642051
-0.525761
0.584277
-0.45539
0.525941
-0.309904
0.470491
-0.180707
0.426257
-0.0954574
0.390732
-0.0580207
-0.0431699
0.774008
-0.0996393
-0.742553
0.752093
-0.262826
0.708251
-0.424306
0.654005
-0.471514
0.589145
-0.390531
0.521572
-0.24233
0.461659
-0.120794
0.417431
-0.0512288
0.384301
-0.0248912
-0.0240177
0.755033
-0.12047
-0.734201
0.739653
-0.247446
0.699922
-0.384575
0.642359
-0.413952
0.57353
-0.321702
0.50607
-0.174869
0.448553
-0.0632779
0.406727
-0.00940245
0.376211
0.00562417
-0.00644593
0.737511
-0.134399
-0.723582
0.725435
-0.23537
0.68284
-0.341981
0.613819
-0.344931
0.533425
-0.241308
0.463898
-0.105342
0.412823
-0.0122026
0.379395
0.0240257
0.357089
0.0279305
0.00660154
0.717344
-0.139263
-0.71248
0.696345
-0.214371
0.631205
-0.276841
0.537673
-0.251399
0.447831
-0.151466
0.385563
-0.0430748
0.350096
0.023265
0.33237
0.0417515
0.323278
0.0370226
0.0127643
0.663595
-0.121765
-0.681093
0.610168
-0.160944
0.507671
-0.174344
0.391788
-0.135515
0.306822
-0.0665002
0.266411
-0.00266353
0.257023
0.032653
0.260388
0.0383862
0.266677
0.0307335
0.0114817
0.500802
-0.0668493
-0.555718
0.405309
-0.0654509
0.283812
-0.0528469
0.183199
-0.0349023
0.131911
-0.0152118
0.124443
0.00480384
0.140257
0.0168387
0.160303
0.0183411
0.17688
0.0141565
0.00540913
0.16691
-0.233759
0.101459
0.0486121
0.0137098
-0.00150203
0.00330181
0.0201405
0.0384816
0.0526381
0.554279
0.0688857
-0.542986
0.566516
0.0951934
0.581636
0.120461
0.597812
0.148516
0.614168
0.175677
0.628825
0.200559
0.625757
0.227933
0.602211
0.236205
0.521568
0.258622
0.226358
0.534498
0.0575875
-0.5232
0.548795
0.080896
0.564819
0.104437
0.586544
0.126791
0.607288
0.154932
0.634852
0.172995
0.655227
0.207558
0.674517
0.216916
0.678187
0.254951
0.247577
0.52053
0.0476251
-0.510567
0.535
0.0664255
0.550518
0.0889192
0.571548
0.105761
0.593475
0.133005
0.620047
0.146423
0.649247
0.178358
0.678193
0.18797
0.71226
0.220884
0.22705
0.510865
0.0380342
-0.501274
0.524388
0.0529025
0.540189
0.0731185
0.559213
0.0867368
0.582241
0.109977
0.606733
0.121931
0.638229
0.146862
0.668621
0.157577
0.707795
0.181711
0.192292
0.50264
0.0283858
-0.492992
0.515101
0.0404415
0.531231
0.0569889
0.54926
0.0687076
0.57255
0.0866872
0.596665
0.0978156
0.627524
0.116003
0.658441
0.126661
0.696366
0.143786
0.154456
0.494146
0.0188707
-0.484631
0.506083
0.0285043
0.522113
0.0409594
0.540097
0.050724
0.563044
0.0637398
0.587548
0.0733111
0.617465
0.0860864
0.648808
0.0953182
0.685352
0.107242
0.116226
0.482951
0.00980452
-0.473884
0.49467
0.0167853
0.510297
0.0253318
0.528502
0.0325189
0.551034
0.0412077
0.57605
0.0482951
0.60552
0.0566166
0.637443
0.063395
0.673773
0.070912
0.0775194
0.458377
0.0020038
-0.450577
0.469049
0.00611398
0.48341
0.0109704
0.500818
0.0151113
0.52214
0.0198852
0.546587
0.0238488
0.575037
0.028166
0.606631
0.0318011
0.642277
0.0352658
0.0387041
0.386626
-0.00202905
-0.382594
0.393286
-0.000545249
0.40315
0.00110602
0.415752
0.00250976
0.431625
0.00401134
0.450303
0.00517103
0.472168
0.00630089
0.496901
0.00706865
0.524519
0.00764726
0.0075053
0.192984
-0.195013
0.192439
0.193545
0.196055
0.200066
0.205237
0.211538
0.218607
0.226254
0.0721126
0.149004
-0.13726
-0.083857
0.0613367
0.151177
-0.140401
0.0514068
0.153794
-0.143864
0.0417865
0.1573
-0.14768
0.0322234
0.161035
-0.151472
0.0228077
0.163871
-0.154455
0.0139645
0.163088
-0.154245
0.00651283
0.15269
-0.145238
0.00156569
0.122152
-0.117205
0.0574082
-0.0558425
0.0681218
0.159496
-0.0786139
0.0577861
0.161513
0.047797
0.163783
0.0381617
0.166936
0.0287805
0.170416
0.0197624
0.172889
0.0115646
0.171286
0.00499021
0.159264
0.00096989
0.126173
0.0583781
0.0607386
0.168808
-0.0700502
0.0511529
0.171098
0.0417004
0.173236
0.0325674
0.176069
0.0237906
0.179193
0.0155364
0.181143
0.0082808
0.178542
0.002884
0.164661
0.000115847
0.128941
0.058494
0.0494307
0.176762
-0.0573848
0.0411186
0.179411
0.0327435
0.181611
0.0245638
0.184248
0.0167531
0.187003
0.00960558
0.188291
0.003698
0.184449
-0.000150059
0.168509
-0.000992712
0.129784
0.0575013
0.0361158
0.183658
-0.0430123
0.0290162
0.18651
0.0218167
0.188811
0.0147637
0.191301
0.00813642
0.193631
0.00234157
0.194086
-0.0018138
0.188605
-0.0033617
0.170057
-0.00223914
0.128661
0.0552621
0.0207976
0.189415
-0.0265545
0.0149439
0.192364
0.00903608
0.194718
0.00329974
0.197038
-0.00190023
0.198831
-0.00592448
0.19811
-0.00795477
0.190635
-0.00717061
0.169273
-0.00358091
0.125071
0.0516812
0.00430872
0.194325
-0.00921794
-0.00046376
0.197136
-0.00514635
0.199401
-0.0095065
0.201398
-0.0130956
0.20242
-0.0151936
0.200208
-0.0147988
0.19024
-0.0111355
0.16561
-0.0048709
0.118807
0.0468103
-0.0141536
0.198133
0.010345
-0.0177256
0.200708
-0.0210634
0.202739
-0.023892
0.204226
-0.0256337
0.204161
-0.0253713
0.199946
-0.022036
0.186905
-0.0150973
0.158671
-0.00601732
0.109727
0.040793
-0.0343089
0.200821
0.0316212
-0.0366505
0.20305
-0.0385724
0.204661
-0.0396816
0.205336
-0.0392296
0.203709
-0.036137
0.196853
-0.0293488
0.180117
-0.0187779
0.1481
-0.00689225
0.097841
0.0339007
-0.0565462
0.0550855
-0.0574993
-0.0577631
-0.0567902
-0.053628
-0.0470743
-0.0362534
-0.0217981
-0.00737567
0.109052
0.0393933
-0.121207
-0.0272383
0.0966211
0.0404637
-0.0280323
0.0839019
0.0416229
-0.0289036
0.0708692
0.0428603
-0.0298276
0.0575055
0.0441568
-0.0307931
0.0438356
0.0453711
-0.0317012
0.0300442
0.0459494
-0.032158
0.0167707
0.0443278
-0.0310543
0.00564817
0.0371518
-0.0260293
0.0188276
-0.0131795
0.107966
0.0515298
-0.120102
0.095631
0.0527986
0.0830206
0.0542332
0.0701039
0.055777
0.0568555
0.0574052
0.0432982
0.0589284
0.0296251
0.0596226
0.0164894
0.0574635
0.00552417
0.048117
0.0243518
0.10645
0.0635294
-0.11845
0.0941896
0.0650595
0.0816792
0.0667436
0.0688923
0.0685638
0.0558056
0.0704919
0.0424362
0.0722978
0.0289736
0.0730853
0.0160742
0.0703629
0.00535506
0.0588361
0.0297069
0.104306
0.0755449
-0.116322
0.0921787
0.0771869
0.0797943
0.079128
0.0671316
0.0812265
0.0541886
0.0834349
0.0410168
0.0854696
0.0278362
0.0862659
0.0153155
0.0828835
0.00503502
0.0691166
0.0347419
0.101619
0.0873114
-0.113385
0.0897097
0.0890957
0.0776326
0.0912051
0.065314
0.0935452
0.0527028
0.0960461
0.0398308
0.0983417
0.0269397
0.099157
0.0147389
0.0950844
0.00480746
0.079048
0.0395493
0.0977335
0.0991408
-0.109563
0.085918
0.100911
0.0739516
0.103172
0.0618463
0.10565
0.04959
0.108302
0.0372073
0.110724
0.0249226
0.111442
0.0134346
0.106572
0.00426544
0.0882172
0.0438148
0.0936711
0.110301
-0.104831
0.0825126
0.11207
0.0711554
0.114529
0.0595048
0.117301
0.0475758
0.120231
0.0354876
0.122813
0.023557
0.123372
0.0125359
0.117593
0.00390499
0.0968481
0.0477198
0.0862173
0.121301
-0.0972177
0.0754602
0.122827
0.0647597
0.125229
0.0539816
0.128079
0.04301
0.131203
0.0318798
0.133943
0.0209082
0.134344
0.0108832
0.127618
0.00324471
0.104487
0.0509645
0.0814113
0.130516
-0.0906254
0.0717688
0.132469
0.0615353
0.135463
0.0509468
0.138668
0.0401738
0.141976
0.0293767
0.14474
0.0189205
0.1448
0.00959814
0.136941
0.00274374
0.111341
0.0537082
0.0702986
-0.0770427
0.0623668
0.0539651
0.0449527
0.0354567
0.0257413
0.0162962
0.00799863
0.00213433
0.201628
0.00450824
-0.00814687
0.205578
0.0262124
-0.0301623
0.209398
0.0336703
-0.0374903
0.211905
0.0516377
-0.0541441
0.213651
0.0637469
-0.0654936
0.212724
0.0811905
-0.0802633
0.208161
0.111776
-0.107213
0.19668
0.144025
-0.132544
0.171332
0.198379
-0.173032
0.25974
-0.209615
0.201274
0.00122443
0.204795
0.0226907
0.20853
0.0299358
0.210404
0.0497639
0.212204
0.0619467
0.21046
0.0829342
0.206015
0.116222
0.194023
0.156017
0.16893
0.223472
0.308568
0.200882
-0.00166803
0.203843
0.0197304
0.207449
0.0263293
0.208528
0.0486851
0.210369
0.0601056
0.207603
0.0857004
0.203283
0.120541
0.19026
0.16904
0.165887
0.247845
0.356005
0.200434
-0.00411249
0.202727
0.0174377
0.206119
0.0229368
0.206316
0.0484881
0.208132
0.0582897
0.204191
0.0896418
0.200022
0.12471
0.185455
0.183607
0.162262
0.271038
0.401946
0.199907
-0.00602986
0.201459
0.0158855
0.204534
0.0198623
0.203816
0.0492065
0.205466
0.0566391
0.200262
0.0948458
0.196165
0.128807
0.179818
0.199954
0.15797
0.292885
0.446531
0.199281
-0.00732149
0.200053
0.0151136
0.202692
0.0172231
0.201048
0.050851
0.202359
0.0553285
0.195819
0.101385
0.191698
0.132928
0.17312
0.218533
0.153307
0.312697
0.490275
0.198543
-0.00787467
0.198526
0.0151306
0.200597
0.015152
0.198035
0.0534133
0.198782
0.0545815
0.19095
0.109217
0.186396
0.137482
0.165965
0.238964
0.147584
0.331079
0.533027
0.197688
-0.00757261
0.196894
0.0159239
0.198257
0.0137899
0.194785
0.0568846
0.194744
0.054623
0.185635
0.118326
0.180383
0.142734
0.157461
0.261886
0.141678
0.346862
0.577488
0.196725
-0.00630771
0.19517
0.0174791
0.195688
0.0132715
0.191307
0.0612657
0.190203
0.0557275
0.18002
0.128509
0.173651
0.149102
0.15023
0.285307
0.134824
0.362269
0.621686
0.195703
-0.00402048
0.193317
0.0198642
0.192973
0.0136157
0.18751
0.0667291
0.185088
0.0581489
0.173402
0.140195
0.164953
0.15755
0.139746
0.310514
0.12847
0.373545
0.673113
0.304696
-0.00670583
0.307989
0.0165708
0.317485
0.00412016
0.319107
0.0651068
0.331219
0.0460365
0.331959
0.139455
0.351847
0.137662
0.357441
0.304921
0.41012
0.320866
0.603119
0.480114
0.304804
-0.00949949
0.309563
0.0118116
0.319913
-0.00622974
0.322976
0.0620434
0.336625
0.0323875
0.340989
0.135092
0.361828
0.116823
0.377304
0.289445
0.425721
0.272449
0.535951
0.49289
0.304985
-0.0124745
0.312065
0.00473139
0.321914
-0.0160783
0.327827
0.05613
0.341608
0.0186069
0.350432
0.126268
0.370081
0.0971744
0.392172
0.267354
0.435621
0.228999
0.463318
0.508253
0.305705
-0.0161696
0.315324
-0.00488758
0.323598
-0.0243518
0.334006
0.0457218
0.345812
0.00680121
0.358864
0.113216
0.375883
0.0801548
0.403362
0.239875
0.445106
0.187255
0.388512
0.519913
0.307347
-0.021506
0.319096
-0.016637
0.326248
-0.0315039
0.341165
0.0308048
0.351137
-0.00317077
0.367875
0.0964786
0.382348
0.0656812
0.415233
0.20699
0.450371
0.152117
0.315483
0.523401
0.309833
-0.0293289
0.32336
-0.0301642
0.330288
-0.0384313
0.348846
0.0122466
0.356637
-0.0109622
0.375504
0.0776121
0.388154
0.0530313
0.424117
0.171026
0.454962
0.121273
0.245045
0.525399
0.313138
-0.040457
0.327706
-0.0447314
0.335016
-0.0457414
0.354426
-0.0071643
0.3581
-0.014636
0.378473
0.0572396
0.389913
0.0415914
0.429497
0.131442
0.458792
0.0919771
0.178527
0.52531
0.316169
-0.0546154
0.328193
-0.0567555
0.332578
-0.0501262
0.345482
-0.0200688
0.343297
-0.0124509
0.364254
0.0362823
0.376252
0.0295938
0.420785
0.0869088
0.451273
0.0614889
0.11374
0.516061
0.309004
-0.0616088
0.303824
-0.0515754
0.292134
-0.0384365
0.287779
-0.0157144
0.280832
-0.0055037
0.300984
0.0161308
0.316435
0.0141429
0.36491
0.0384333
0.398646
0.0277531
0.0477789
0.464607
0.240401
0.188826
0.150389
0.134675
0.129171
0.145302
0.159445
0.197878
0.225631
0.27341
0.493545
-0.0972885
0.498034
-0.0831032
0.501638
-0.073654
0.5047
-0.0604463
0.509384
-0.0476962
0.513883
-0.0310538
0.519908
-0.0152433
0.526084
0.00416927
0.534353
0.0233525
0.0464522
0.49391
-0.0983089
0.494487
-0.0836795
0.494599
-0.0737663
0.494555
-0.0604024
0.496118
-0.0492594
0.498007
-0.032943
0.502274
-0.0195102
0.507238
-0.000795053
0.514582
0.0160086
0.0378348
0.501608
-0.091664
0.497958
-0.0800289
0.494484
-0.0702926
0.491948
-0.0578664
0.490399
-0.0477105
0.490829
-0.0333727
0.492608
-0.0212892
0.496373
-0.00456047
0.50189
0.0104922
0.0291571
0.50869
-0.0804414
0.500457
-0.071796
0.493879
-0.0637147
0.489684
-0.0536714
0.486186
-0.0442127
0.4854
-0.0325864
0.485439
-0.0213276
0.488696
-0.00781818
0.493118
0.00607046
0.0210007
0.511412
-0.0684531
0.501574
-0.0619577
0.493287
-0.055428
0.487398
-0.047782
0.482714
-0.0395292
0.480563
-0.0304351
0.479754
-0.0205182
0.481909
-0.00997306
0.485884
0.00209489
0.0138933
0.512622
-0.0556757
0.501502
-0.0508378
0.491929
-0.0458558
0.484413
-0.0402658
0.478666
-0.0337817
0.475198
-0.0269672
0.473731
-0.0190512
0.474811
-0.0110532
0.478364
-0.00145766
0.0076257
0.511239
-0.0416043
0.49866
-0.0382589
0.487727
-0.0349234
0.47877
-0.0313085
0.471929
-0.0269405
0.467312
-0.0223508
0.465057
-0.0167953
0.465244
-0.0112407
0.468243
-0.00445642
0.00198414
0.50008
-0.0256235
0.48583
-0.0240086
0.47345
-0.0225436
0.463081
-0.0209393
0.454941
-0.0188002
0.448975
-0.0163853
0.445477
-0.0132972
0.44434
-0.0101038
0.44609
-0.00620694
-0.00250207
0.448258
-0.00927392
0.433685
-0.00943577
0.420741
-0.00959989
0.409383
-0.00958172
0.399791
-0.00920773
0.391962
-0.00855655
0.386232
-0.00756725
0.382576
-0.00644779
0.381427
-0.00505736
-0.00366896
0.264136
0.254701
0.245101
0.235519
0.226311
0.217755
0.210187
0.20374
0.198682
0.00691983
0.0428656
-0.0497854
0.0164325
0.111239
-0.120752
0.0228829
0.156931
-0.163381
0.0252729
0.181702
-0.184092
0.0245619
0.192337
-0.191626
0.0219938
0.195004
-0.192436
0.0184988
0.193311
-0.189816
0.0147097
0.188291
-0.184502
0.0112039
0.17874
-0.175235
0.161335
0.00855062
-0.158681
0.00827649
0.0345891
0.0219556
0.0975602
0.0335812
0.145305
0.040746
0.174537
0.0439195
0.189164
0.0444005
0.194523
0.0432991
0.194412
0.0412674
0.190323
0.0385137
0.181494
0.16506
0.034788
0.00882546
0.0257637
0.0260047
0.0803809
0.0430709
0.128239
0.0558299
0.161778
0.0637531
0.18124
0.0679097
0.190367
0.0695154
0.192806
0.0692765
0.190562
0.0672114
0.183559
0.169843
0.0624288
0.00844729
0.0173164
0.0276384
0.0611898
0.0496833
0.106194
0.0686691
0.142792
0.0824229
0.167487
0.0912932
0.181496
0.0964554
0.187644
0.0988146
0.188203
0.0983907
0.183983
0.17399
0.0942439
0.00725589
0.0100605
0.0262976
0.0421481
0.0516067
0.080885
0.0766833
0.117716
0.0973756
0.146794
0.112452
0.16642
0.122486
0.17761
0.128459
0.18223
0.130839
0.181602
0.176443
0.128386
0.00556581
0.00449466
0.0222575
0.0254564
0.0477528
0.0553897
0.0769174
0.0885512
0.104554
0.119158
0.127395
0.143579
0.144361
0.160644
0.155789
0.170802
0.162276
0.175116
0.174825
0.163894
0.00378978
0.000704888
0.0167237
0.0125224
0.0390691
0.0330444
0.0683418
0.0592784
0.100263
0.0872371
0.130643
0.113198
0.15658
0.134707
0.176727
0.150656
0.191002
0.16084
0.167157
0.19867
0.00226067
-0.00155578
0.0111425
0.00364062
0.0282154
0.0159715
0.0533543
0.0341395
0.0844592
0.0561323
0.118226
0.0794318
0.151281
0.101652
0.180753
0.121183
0.205138
0.136456
0.14767
0.224625
0.00112812
-0.0026839
0.00651654
-0.0017478
0.0179739
0.00451416
0.0366029
0.0155105
0.0622718
0.0304634
0.0935237
0.0481798
0.128025
0.0671502
0.163249
0.0859598
0.195867
0.103838
0.114847
0.22869
0.000357795
-0.00304169
0.00306606
-0.00445607
0.0097275
-0.00214728
0.0217212
0.00351674
0.0399049
0.0122798
0.064334
0.0237507
0.0941769
0.0373073
0.128065
0.0520719
0.163936
0.0679661
0.0805513
0.198232
-0.000180186
-0.00286151
0.00066581
-0.00530207
0.00379303
-0.0052745
0.0103834
-0.00307368
0.0214668
0.0011965
0.0377741
0.00744339
0.0595361
0.0155452
0.0863672
0.0252409
0.117865
0.0364684
0.0511605
0.147256
-0.000353729
-0.00250778
-0.000344962
-0.00531083
0.000837333
-0.0064568
0.00392514
-0.00616149
0.0096431
-0.00452145
0.0186108
-0.00152434
0.0313085
0.00284753
0.0478768
0.00867254
0.0680495
0.0162957
0.0272907
0.0919193
9.5013e-05
-0.00260279
0.000650271
-0.00586609
0.00188868
-0.00769521
0.00404355
-0.00831635
0.00739878
-0.00787669
0.0123114
-0.00643699
0.0191468
-0.00398787
0.0282793
-0.00045989
0.0399967
0.0045782
0.0112411
0.0560463
0.000789797
-0.00339259
0.00240336
-0.00747965
0.00456611
-0.00985796
0.00726971
-0.0110199
0.0106427
-0.0112497
0.0148989
-0.0106932
0.0203264
-0.00941536
0.0272903
-0.00742376
0.0365458
-0.00467738
-0.00113463
0.0489216
0.000923722
-0.00431631
0.00237783
-0.00893376
0.00399752
-0.0114777
0.0058552
-0.0128776
0.00818294
-0.0135774
0.0112674
-0.0137776
0.0154212
-0.0135692
0.020985
-0.0129875
0.0283432
-0.0120356
-0.0108625
0.038071
6.02231e-05
-0.00437653
-0.00052435
-0.00834919
-0.00169239
-0.0103096
-0.00306869
-0.0115013
-0.00428722
-0.0123589
-0.00506489
-0.0129999
-0.00519734
-0.0134368
-0.00453674
-0.0136481
-0.00300686
-0.0135655
-0.0132216
-0.000647717
-0.00163219
-0.00274435
-0.00566555
-0.00431582
-0.0110211
-0.00495404
-0.0168599
-0.00566254
-0.0226507
-0.00656814
-0.0280851
-0.00756551
-0.0329768
-0.00854511
-0.0372058
-0.00941907
-0.0406503
-0.010121
-0.0108708
-0.0430011
-0.00381833
0.00107398
-0.0118447
0.00371051
-0.0218711
0.00507239
-0.0326847
0.00515112
-0.0437401
0.00448724
-0.0548183
0.00351268
-0.0658109
0.00244743
-0.0766224
0.00139252
-0.0871433
0.00039985
-0.000622403
-0.0973917
-0.00540303
0.00647701
-0.0163004
0.0146079
-0.0296487
0.0184207
-0.0440088
0.0195112
-0.0588452
0.0193237
-0.0739941
0.0186615
-0.0893757
0.0178291
-0.104893
0.0169094
-0.120414
0.0159216
0.0149172
-0.135954
-0.00561943
-0.0170726
-0.0312541
-0.046646
-0.0626414
-0.0790315
-0.0957176
-0.112604
-0.129595
-0.14684
0.201563
0.101309
-0.155617
0.209076
0.444387
-0.4519
0.187843
0.490998
-0.469765
0.190652
0.194061
-0.19687
0.204293
-0.073185
0.0595439
0.207132
-0.138263
0.135423
0.203002
-0.103047
0.107177
0.200302
-0.058821
0.061521
0.201679
-0.0350987
0.0337211
-0.0231582
0.0181007
0.160005
0.0332239
0.198574
0.405818
0.196778
0.492794
0.21029
0.180548
0.21582
-0.0787147
0.208795
-0.131238
0.201551
-0.0958026
0.199308
-0.0565775
0.202105
-0.0378955
-0.0285775
0.128619
-0.0393488
0.174901
0.359536
0.189729
0.477966
0.20729
0.162987
0.202794
-0.0742183
0.191311
-0.119754
0.187602
-0.092094
0.190675
-0.0596507
0.198006
-0.0452264
-0.0356749
0.10003
-0.090457
0.134755
0.324811
0.160137
0.452583
0.177089
0.146034
0.16783
-0.0649586
0.161815
-0.113739
0.168542
-0.0988209
0.180104
-0.0712131
0.193075
-0.0581974
-0.0447575
0.0543406
-0.106727
0.077408
0.301744
0.108094
0.421897
0.123486
0.130643
0.123825
-0.0652976
0.134011
-0.123925
0.153625
-0.118435
0.172794
-0.0903829
0.189955
-0.0753578
-0.055113
-0.0141494
-0.0932249
0.00497128
0.282623
0.0374274
0.389441
0.0634617
0.104608
0.0903731
-0.092209
0.118655
-0.152207
0.147311
-0.147091
0.170496
-0.113568
0.18936
-0.0942218
-0.0657161
-0.102195
-0.0340307
-0.088722
0.26915
-0.0307867
0.331506
0.0233625
0.0504593
0.0764274
-0.145274
0.115443
-0.191223
0.147911
-0.179559
0.171977
-0.137633
0.190665
-0.11291
-0.0758344
-0.1847
0.0532775
-0.163335
0.247786
-0.0688479
0.237018
0.010438
-0.0288267
0.0754702
-0.210306
0.118983
-0.234735
0.152154
-0.21273
0.175475
-0.160955
0.193049
-0.130484
-0.0851206
-0.233738
0.151061
-0.198324
0.212372
-0.0767621
0.115456
0.0141938
-0.119783
0.0816962
-0.277809
0.126483
-0.279522
0.158547
-0.244794
0.180189
-0.182597
0.196124
-0.146418
-0.0933965
-0.239786
-0.198756
-0.0690789
0.0278148
0.0943909
0.137865
0.167189
0.186186
0.199906
0.0477741
0.0346647
-0.0824388
0.00543898
0.0423351
-0.0252838
0.0307227
-0.0385056
0.0132218
-0.0294238
-0.00908181
-0.00361722
-0.0258066
0.0193659
-0.0229831
0.0323344
-0.0129685
0.0383294
-0.00599497
-0.00225679
0.195644
0.107441
-0.26842
0.0816273
0.156352
-0.0029542
0.115304
-0.0275953
0.0378629
-0.0052917
-0.0313854
0.0354601
-0.0665583
0.0708625
-0.0583855
0.0918411
-0.0339472
0.102629
-0.0167833
-0.00683517
0.339972
0.167213
-0.399744
0.19869
0.297634
0.0750458
0.238948
0.0330793
0.0798294
0.0547906
-0.0530967
0.0915843
-0.103352
0.121511
-0.088312
0.139986
-0.0524225
0.15054
-0.0273376
-0.0120289
0.417246
0.184462
-0.434494
0.304368
0.410512
0.17324
0.370077
0.116819
0.13625
0.128352
-0.06463
0.152072
-0.127072
0.168203
-0.104443
0.177493
-0.0617128
0.183448
-0.0332927
-0.0159935
0.398927
-0.370082
0.357539
0.257851
0.197231
0.192145
0.200497
0.203231
0.203039
0.203467
0.0110934
-0.000148989
-0.0109444
0.012721
-0.00162758
0.0157102
-0.00298921
0.020143
-0.00443281
0.0265485
-0.00640547
0.0337673
-0.00721887
0.0440545
-0.0102872
0.054691
-0.0106365
0.0687256
-0.0140346
-0.0137132
0.0304666
-0.00085943
-0.0297561
0.0351062
-0.00626717
0.0435631
-0.0114461
0.0568083
-0.017678
0.0754088
-0.025006
0.0985799
-0.0303899
0.131485
-0.0431926
0.167569
-0.0467201
0.215018
-0.0614836
-0.0671156
0.0470618
-0.00241388
-0.0455073
0.0544497
-0.0136552
0.06779
-0.0247864
0.0886731
-0.0385611
0.117044
-0.0533765
0.154871
-0.0682175
0.203608
-0.0919296
0.258891
-0.102003
0.329589
-0.132181
-0.137271
0.0607931
-0.00496224
-0.0582447
0.0704467
-0.0233088
0.0877969
-0.0421366
0.114029
-0.0647933
0.149422
-0.0887691
0.196616
-0.115412
0.25028
-0.145594
0.315358
-0.167081
0.383952
-0.200775
-0.187813
0.071808
-0.0682196
0.0832872
0.10358
0.13303
0.172647
0.221129
0.274205
0.331749
0.359663
0.0832532
-0.0768774
0.0846941
-0.0910699
0.0745765
-0.0780143
0.086691
0.0655081
-0.0798189
0.0888873
0.0558103
-0.0817533
0.0914511
0.0454129
-0.0837059
0.0941033
0.0344455
-0.0853813
0.0963486
0.023278
-0.085682
0.0968495
0.0126782
-0.081697
0.0922968
0.00410628
-0.0675236
0.0760956
-0.0336544
0.0377607
0.0921317
-0.0672662
-0.101743
0.0821208
-0.0680035
0.0714516
-0.0691497
0.0601916
-0.0704933
0.0484977
-0.072012
0.0365485
-0.0734321
0.0246384
-0.0737719
0.0134405
-0.070499
0.0043789
-0.0584621
-0.0292755
0.0941399
-0.0563699
-0.105036
0.0831349
-0.0569986
0.0719254
-0.0579402
0.0605125
-0.0590803
0.0488633
-0.0603628
0.0369747
-0.0615434
0.0250354
-0.0618326
0.0137004
-0.059164
0.0044606
-0.0492223
-0.0248149
0.0996322
-0.045128
-0.110874
0.0882385
-0.0456049
0.0766137
-0.0463154
0.064678
-0.0471446
0.0523796
-0.0480644
0.039751
-0.0489149
0.027031
-0.0491126
0.0149105
-0.0470435
0.00493642
-0.0392482
-0.0198785
0.102404
-0.0333982
-0.114134
0.0905419
-0.0337429
0.0784361
-0.0342096
0.0660592
-0.0347677
0.0533987
-0.0354039
0.0404953
-0.0360115
0.0275561
-0.0361734
0.0152247
-0.034712
0.00504501
-0.0290686
-0.0148335
0.105473
-0.0214965
-0.117374
0.0933591
-0.0216294
0.0809977
-0.0218482
0.0683548
-0.0221248
0.0554047
-0.0224538
0.0421664
-0.0227732
0.0288283
-0.0228352
0.016035
-0.0219188
0.00537701
-0.0184106
-0.00945645
0.107378
-0.00939244
-0.119482
0.0950756
-0.00932728
0.0825163
-0.00928891
0.06967
-0.00927845
0.0565113
-0.00929513
0.0430573
-0.0093192
0.0294887
-0.00926662
0.0164425
-0.00887258
0.00553095
-0.00749902
-0.0039255
0.108774
0.00279328
-0.120959
0.0963534
0.00309304
0.0836619
0.00340265
0.0706709
0.00371255
0.0573575
0.0040182
0.0437401
0.0042982
0.0299971
0.00447639
0.0167626
0.00436194
0.00565958
0.00360403
0.00173409
0.109473
0.0150155
-0.121695
0.0970018
0.0155644
0.0842509
0.0161535
0.0711933
0.0167702
0.0578056
0.0174058
0.044105
0.0179989
0.0302675
0.0183138
0.0169276
0.0177019
0.00572101
0.0148106
0.0074551
0.109505
-0.121728
0.0970368
0.0842866
0.0712293
0.057842
0.0441396
0.0302954
0.016943
0.00572437
0.0138092
-0.156535
-0.0159556
0.00933479
-0.17076
0.0038582
-0.179026
-0.00176084
-0.184197
-0.00687039
-0.187327
-0.0107081
-0.187788
-0.0122346
-0.182565
-0.0103476
-0.165268
-0.00503233
-0.126067
-0.0548178
0.0368109
-0.153377
-0.0399685
0.0307061
-0.164655
0.0234031
-0.171723
0.0158242
-0.176618
0.00849986
-0.180002
0.00201108
-0.1813
-0.00268819
-0.177866
-0.00446856
-0.163488
-0.0029588