/*--------------------------------*- C++ -*----------------------------------*\
  =========                 |
  \\      /  F ield         | OpenFOAM: The Open Source CFD Toolbox
   \\    /   O peration     | Website:  https://openfoam.org
    \\  /    A nd           | Version:  13
     \\/     M anipulation  |
\*---------------------------------------------------------------------------*/
FoamFile
{
    format      ascii;
    class       volVectorField;
    location    "3.5";
    object      U;
}
// * * * * * * * * * * * * * * * * * * * * * * * * * * * * * * * * * * * * * //

dimensions      [0 1 -1 0 0 0 0];

internalField   nonuniform List<vector> 
1800
(
(-0.0314775 0.0247102 1.2582e-20)
(-0.0765415 0.0419497 5.59815e-21)
(-0.0998127 0.0466039 -2.35988e-20)
(-0.0976978 0.046333 4.19176e-20)
(-0.0642259 0.0455443 1.40484e-19)
(0.00560961 0.0459416 7.27326e-20)
(0.114671 0.0485774 -3.80627e-20)
(0.259644 0.0526497 -4.07973e-20)
(0.453074 0.0873463 8.9196e-20)
(0.542122 0.127478 1.08793e-19)
(-0.0462894 0.0346499 1.00434e-20)
(-0.0881837 0.0591237 -2.47251e-20)
(-0.0836556 0.060701 2.6278e-22)
(-0.0329292 0.0493495 -5.12674e-20)
(0.0671184 0.0316648 2.14321e-20)
(0.218024 0.0112324 1.36347e-19)
(0.417685 -0.00928483 -8.37844e-20)
(0.656035 -0.0318219 4.94066e-20)
(0.941412 -0.0319808 -1.1482e-19)
(1.10833 -0.0338643 1.30264e-19)
(-0.0503876 0.033543 3.68077e-21)
(-0.0733692 0.0549568 1.36767e-20)
(-0.025106 0.0523739 -6.8579e-22)
(0.0914366 0.0350001 -1.0021e-20)
(0.274682 0.0105664 -1.21698e-19)
(0.517366 -0.0155015 2.63129e-20)
(0.804166 -0.039195 5.61209e-20)
(1.11389 -0.0583006 -2.15393e-20)
(1.42712 -0.0686338 -1.42202e-22)
(1.69489 -0.0881192 -2.67652e-21)
(-0.0446572 0.0255713 -7.23598e-21)
(-0.0298439 0.0337098 -2.29294e-20)
(0.0828758 0.0222098 -2.33068e-20)
(0.286087 -0.0002964 2.28595e-20)
(0.566849 -0.0256484 2.03352e-20)
(0.900316 -0.0479092 8.94629e-21)
(1.25304 -0.0639313 -2.83672e-21)
(1.59162 -0.0728121 7.90452e-20)
(1.89221 -0.0770316 7.09953e-20)
(2.12919 -0.0800569 -2.97231e-20)
(-0.0287783 0.0148072 5.69552e-20)
(0.0477194 0.00709189 5.29471e-20)
(0.249198 -0.011819 -3.68492e-20)
(0.555362 -0.0330886 -4.54373e-20)
(0.930087 -0.0492338 -1.16191e-19)
(1.3241 -0.0571309 1.91614e-21)
(1.69022 -0.0575412 1.54354e-19)
(1.99626 -0.053495 7.81767e-20)
(2.22622 -0.0475865 2.62087e-21)
(2.38984 -0.0490308 -7.47297e-20)
(0.00111233 0.00252604 -5.70465e-20)
(0.166778 -0.018025 -1.16483e-20)
(0.477268 -0.0369724 1.906e-19)
(0.885627 -0.0465785 -4.98814e-20)
(1.32347 -0.0446852 -1.29465e-19)
(1.72446 -0.0345255 2.65225e-19)
(2.04645 -0.0213719 -2.87867e-19)
(2.27584 -0.0096123 -4.06331e-19)
(2.42278 -0.00193799 3.4677e-19)
(2.50405 0.000699162 8.31539e-22)
(0.048499 -0.00920565 6.43883e-20)
(0.328906 -0.0340586 -1.36679e-19)
(0.754054 -0.0413276 -4.55272e-19)
(1.2383 -0.0295012 2.17596e-19)
(1.68826 -0.00670531 4.90108e-19)
(2.04411 0.0175781 -1.94521e-21)
(2.28959 0.0371685 -1.08951e-18)
(2.43914 0.0496966 3.94321e-21)
(2.5188 0.0565189 1.3495e-18)
(2.55596 0.0549514 3.74811e-19)
(0.114274 -0.0167762 6.375e-20)
(0.525998 -0.0323154 3.36911e-19)
(1.05105 -0.0158935 3.7312e-19)
(1.56752 0.0212762 -1.16334e-19)
(1.98329 0.0604552 -4.58876e-19)
(2.26856 0.090975 -1.75771e-19)
(2.43877 0.110171 0)
(2.52678 0.119738 5.73314e-19)
(2.56441 0.122354 -8.52224e-21)
(2.57264 0.119299 -5.51218e-19)
(0.195644 -0.0160553 5.72852e-20)
(0.740663 -0.00574897 3.43336e-19)
(1.33436 0.0427647 6.42699e-19)
(1.84121 0.102465 -6.69428e-19)
(2.19811 0.150389 -5.87588e-19)
(2.41204 0.180555 2.43137e-19)
(2.52122 0.195521 -1.171e-18)
(2.56602 0.200055 -8.83097e-19)
(2.57576 0.198509 1.09769e-18)
(2.56716 0.19126 9.58118e-19)
(0.286671 -0.0034965 -4.71385e-20)
(0.951355 0.0486973 2.70936e-19)
(1.57787 0.131937 1.72622e-19)
(2.0479 0.207705 -1.38572e-18)
(2.34016 0.257362 4.98166e-20)
(2.49246 0.282428 2.82865e-18)
(2.55602 0.290369 -1.64655e-18)
(2.57204 0.288407 -9.76022e-19)
(2.56541 0.281136 3.43326e-19)
(2.54689 0.269834 -7.88391e-19)
(-0.0125893 0.181074 9.85998e-20)
(-0.0632079 0.388486 -9.34552e-20)
(-0.129635 0.485201 1.29904e-21)
(-0.202352 0.519152 -1.41133e-20)
(-0.273785 0.52538 3.37484e-21)
(-0.342051 0.521552 2.13426e-19)
(-0.406356 0.513723 1.22542e-19)
(-0.466361 0.503119 -3.27292e-19)
(-0.524435 0.489937 8.84546e-21)
(-0.585754 0.474744 -2.9596e-20)
(-0.0264905 0.217428 -1.22708e-20)
(-0.075296 0.480241 -7.75847e-21)
(-0.129357 0.611394 3.47273e-20)
(-0.185837 0.662015 4.34968e-20)
(-0.240897 0.673793 -7.87285e-20)
(-0.292998 0.67002 2.14675e-19)
(-0.341174 0.659894 -2.94643e-19)
(-0.384602 0.64578 -3.71722e-19)
(-0.424533 0.628009 3.62198e-19)
(-0.466039 0.607055 -1.1375e-19)
(-0.0391013 0.215963 -3.57977e-20)
(-0.0855788 0.509903 1.16898e-20)
(-0.124046 0.67833 -7.3784e-21)
(-0.158924 0.755814 -1.99223e-19)
(-0.191942 0.781208 -6.4804e-20)
(-0.22272 0.781838 6.9176e-19)
(-0.250276 0.771315 -2.15425e-19)
(-0.273519 0.754511 -4.09277e-19)
(-0.292091 0.732643 4.90932e-19)
(-0.309079 0.706092 2.93241e-19)
(-0.0441324 0.179938 -2.08127e-20)
(-0.0881621 0.469988 -5.38178e-21)
(-0.112673 0.669769 3.86317e-21)
(-0.127019 0.78315 -1.29204e-20)
(-0.137545 0.833854 1.31439e-19)
(-0.146048 0.84747 -2.35954e-19)
(-0.152402 0.84164 -1.94389e-19)
(-0.155786 0.825355 2.30356e-19)
(-0.154969 0.801898 8.7933e-22)
(-0.147795 0.77187 9.82996e-21)
(-0.0385317 0.123593 0)
(-0.0783791 0.371203 -7.29969e-21)
(-0.0937784 0.581082 4.43652e-21)
(-0.0930559 0.729484 7.52353e-20)
(-0.0842463 0.817325 2.67543e-19)
(-0.0714053 0.858484 -1.96482e-19)
(-0.0560431 0.868509 7.59618e-20)
(-0.0382374 0.859254 4.99924e-20)
(-0.0173959 0.837681 0)
(0.0123948 0.806439 1.99457e-20)
(-0.0246123 0.0657897 -2.80557e-20)
(-0.056516 0.243569 6.72182e-20)
(-0.0679724 0.430352 4.6156e-20)
(-0.0614546 0.591287 -6.28971e-20)
(-0.0423252 0.710161 6.13273e-20)
(-0.0148339 0.786029 1.16996e-19)
(0.0181249 0.82552 -3.40793e-19)
(0.0550781 0.837255 -3.87882e-20)
(0.0940712 0.82835 4.37218e-19)
(0.144535 0.801842 1.02727e-20)
(-0.0086964 0.0219272 8.22463e-21)
(-0.0303866 0.126602 1.1345e-19)
(-0.0418194 0.264499 -6.48393e-20)
(-0.0387866 0.40478 -1.09931e-20)
(-0.0215217 0.526471 -4.44105e-20)
(0.00804485 0.619765 9.99252e-21)
(0.0474138 0.6829 8.22453e-20)
(0.0945102 0.718738 8.85981e-20)
(0.146174 0.731901 -1.23454e-19)
(0.20835 0.718607 -1.84474e-19)
(0.00273088 -0.0021971 2.18918e-20)
(-0.0118159 0.0465114 -5.09997e-20)
(-0.0268262 0.130688 -8.21009e-20)
(-0.0332145 0.229075 2.96087e-20)
(-0.0267469 0.324852 1.16399e-21)
(-0.00644678 0.407011 1.57898e-19)
(0.0267262 0.470198 1.75563e-19)
(0.0709404 0.513355 -2.93293e-20)
(0.125421 0.538897 -3.33463e-21)
(0.186754 0.528567 -7.2216e-20)
(0.00440575 -0.00773595 1.84275e-20)
(-0.0135903 0.0089621 -5.26992e-20)
(-0.0372876 0.0498284 1.03558e-19)
(-0.0561981 0.103334 1.34258e-19)
(-0.063393 0.160216 -1.16465e-19)
(-0.055999 0.212835 2.65998e-19)
(-0.0332837 0.256512 -3.04596e-20)
(0.00459973 0.289087 -4.13215e-19)
(0.0596844 0.308821 -5.77748e-20)
(0.129467 0.293425 -2.4194e-20)
(-0.00976185 0.00524755 -2.32996e-21)
(-0.0438795 0.0139614 -1.68552e-20)
(-0.077291 0.0279605 -1.23942e-20)
(-0.10159 0.0469045 6.27647e-20)
(-0.109624 0.0692203 1.3216e-19)
(-0.0969101 0.0923594 -1.73938e-19)
(-0.0605911 0.114825 -1.83782e-19)
(0.000296633 0.135622 1.19769e-19)
(0.0878297 0.153676 -1.04536e-19)
(0.19426 0.156768 -5.43881e-20)
(-0.899687 0.391732 4.10408e-19)
(-1.03117 0.205261 -1.71262e-18)
(-0.479399 -0.112042 -5.64783e-19)
(0.0349999 -0.373952 3.35002e-19)
(0.436148 -0.525566 -8.97987e-20)
(0.660339 -0.47905 -5.7009e-20)
(0.818561 -0.401021 -2.16661e-20)
(0.926859 -0.293396 1.93601e-22)
(0.9861 -0.232521 1.51795e-20)
(1.06116 -0.145567 3.54439e-21)
(-0.699054 0.48635 5.86355e-19)
(-0.736472 0.160969 6.36676e-19)
(-0.264403 -0.267308 -4.54554e-20)
(0.212752 -0.507669 -4.01382e-19)
(0.577748 -0.61183 -5.05113e-19)
(0.773988 -0.533562 0)
(0.905112 -0.434954 -3.81151e-20)
(0.984211 -0.314555 4.61938e-21)
(1.02593 -0.247989 2.58481e-22)
(1.07981 -0.155096 -8.51262e-21)
(-0.447615 0.549474 1.74002e-20)
(-0.392218 0.123452 -3.72988e-19)
(0.0254291 -0.388454 4.11122e-19)
(0.436914 -0.621983 1.13386e-19)
(0.742053 -0.685882 4.06017e-20)
(0.896811 -0.579789 -3.17847e-20)
(0.99587 -0.461683 0)
(1.04559 -0.329677 0)
(1.06978 -0.258141 -1.86456e-20)
(1.10053 -0.161597 0)
(-0.185604 0.582846 -4.38486e-20)
(-0.0406866 0.0853052 5.4487e-19)
(0.338238 -0.47966 -1.21396e-19)
(0.684661 -0.715408 0)
(0.920891 -0.744236 4.04778e-19)
(1.02467 -0.615203 -7.45132e-20)
(1.08599 -0.480632 0)
(1.10618 -0.339035 6.86667e-20)
(1.11425 -0.263099 0)
(1.12201 -0.16493 1.00502e-20)
(0.0494105 0.594206 2.26571e-19)
(0.288674 0.0541768 2.30379e-19)
(0.653902 -0.548348 7.77816e-20)
(0.936279 -0.78861 0)
(1.10248 -0.78699 1.65342e-19)
(1.15337 -0.638632 1.68619e-19)
(1.17362 -0.491085 -1.63118e-20)
(1.16324 -0.342812 -2.31815e-21)
(1.15639 -0.26332 -1.58869e-20)
(1.14274 -0.165232 2.10526e-21)
(0.252372 0.587796 1.68262e-18)
(0.583035 0.0345376 8.49827e-21)
(0.957557 -0.598288 -3.8389e-20)
(1.18173 -0.842552 4.11058e-19)
(1.27762 -0.815809 -2.8267e-19)
(1.27745 -0.650879 8.12493e-20)
(1.25749 -0.49295 1.73937e-19)
(1.21588 -0.341017 -1.4582e-19)
(1.1945 -0.259257 2.81496e-22)
(1.1615 -0.162786 -2.29778e-20)
(0.405323 0.557268 3.17431e-20)
(0.838975 0.0178005 -1.09464e-19)
(1.24364 -0.631728 -9.98827e-20)
(1.41448 -0.877396 -1.19408e-20)
(1.44195 -0.831869 -2.12011e-19)
(1.39292 -0.65359 -3.29557e-20)
(1.33623 -0.48703 -6.97755e-20)
(1.26423 -0.333764 6.87706e-21)
(1.22808 -0.251221 2.00243e-20)
(1.17758 -0.157892 -7.02504e-22)
(0.459024 0.485744 -6.92185e-19)
(1.05959 -0.000298744 -2.19084e-19)
(1.50852 -0.651264 0)
(1.62768 -0.893149 1.12036e-19)
(1.59189 -0.835877 1.70461e-19)
(1.49748 -0.648308 -2.16717e-20)
(1.40853 -0.474693 -2.26523e-19)
(1.30857 -0.321533 6.15987e-20)
(1.25746 -0.239473 -1.02695e-21)
(1.1908 -0.150807 -1.13631e-20)
(0.413532 0.355303 7.66922e-19)
(1.27417 -0.0404705 6.08553e-19)
(1.75222 -0.65953 -6.78141e-20)
(1.81668 -0.890486 -6.84027e-20)
(1.72446 -0.828157 1.9397e-20)
(1.58984 -0.636103 -2.08554e-19)
(1.47325 -0.457404 8.20129e-20)
(1.349 -0.305228 -1.05329e-21)
(1.28326 -0.224456 1.90434e-21)
(1.20137 -0.141776 1.61886e-20)
(0.394319 0.177528 -4.64957e-19)
(1.51267 -0.111024 5.63191e-19)
(1.9747 -0.662303 2.05316e-19)
(1.97882 -0.87466 -1.17003e-19)
(1.83846 -0.810472 -1.5246e-19)
(1.66982 -0.617983 -1.04384e-19)
(1.52972 -0.436427 -3.75583e-20)
(1.38526 -0.285948 0)
(1.30589 -0.206839 -3.09834e-20)
(1.20972 -0.131074 2.14038e-20)
(1.12928 0.0568005 -4.7577e-19)
(1.96151 -0.253961 -5.30975e-19)
(2.26025 -0.679835 3.06779e-19)
(2.17013 -0.843513 1.76889e-20)
(1.96955 -0.775018 2.26828e-20)
(1.75854 -0.585469 -8.7299e-20)
(1.58977 -0.402583 -7.87857e-20)
(1.42399 -0.256166 4.01232e-20)
(1.32967 -0.180403 -1.46479e-20)
(1.2182 -0.115638 -1.15028e-20)
(2.02709 0.0186649 -1.01652e-20)
(2.53255 -0.35715 -1.16363e-18)
(2.55755 -0.698339 -9.71999e-19)
(2.277 -0.792607 7.30724e-20)
(2.00295 -0.684959 -1.71177e-20)
(1.7719 -0.489885 1.58178e-19)
(1.59979 -0.319179 1.60093e-19)
(1.43312 -0.194182 -2.14306e-20)
(1.33977 -0.134422 6.53841e-20)
(1.22119 -0.0907476 7.42261e-21)
(2.39915 -0.0644148 7.57895e-20)
(2.64051 -0.374395 1.95725e-20)
(2.49178 -0.615816 3.02393e-20)
(2.23345 -0.680153 1.92666e-35)
(2.0304 -0.595055 -3.85056e-20)
(1.82546 -0.424247 -5.28953e-34)
(1.6453 -0.266186 2.3575e-20)
(1.46059 -0.151694 6.5692e-34)
(1.35598 -0.0972119 -2.23507e-21)
(1.22545 -0.0677679 3.94971e-21)
(2.46823 -0.107158 3.27299e-35)
(2.55942 -0.339675 4.58443e-19)
(2.46406 -0.553401 3.66106e-19)
(2.27804 -0.627495 0)
(2.06645 -0.536132 -2.91019e-20)
(1.82616 -0.348312 -1.05301e-19)
(1.62053 -0.186946 -1.11784e-19)
(1.42916 -0.0889977 1.79618e-33)
(1.32976 -0.0494977 -3.67035e-20)
(1.20904 -0.0407552 -5.17164e-21)
(2.43843 -0.136884 5.18365e-20)
(2.49087 -0.320232 -4.71754e-21)
(2.43079 -0.507235 0)
(2.24671 -0.552347 0)
(2.01918 -0.443166 0)
(1.77645 -0.259961 0)
(1.57517 -0.114634 6.71857e-21)
(1.39027 -0.0374218 2.09519e-33)
(1.29777 -0.0114951 -3.28435e-21)
(1.18748 -0.0186213 -7.34481e-34)
(2.40216 -0.159597 7.07916e-20)
(2.4336 -0.302751 0)
(2.38021 -0.454346 0)
(2.17263 -0.480096 0)
(1.90139 -0.359409 0)
(1.63713 -0.178563 0)
(1.44398 -0.045343 -1.38437e-20)
(1.28709 0.0129744 5.47853e-20)
(1.22005 0.025022 -3.80051e-21)
(1.13913 0.00220929 -2.57972e-21)
(2.35821 -0.173054 0)
(2.36344 -0.284104 1.48847e-19)
(2.24995 -0.394522 1.33258e-19)
(1.94627 -0.383329 0)
(1.61785 -0.249611 -3.10669e-20)
(1.35984 -0.0893398 -5.47617e-20)
(1.20858 0.0136458 -5.65515e-20)
(1.10923 0.0468154 -2.49046e-20)
(1.08607 0.0451855 1.82855e-20)
(1.04997 0.0144991 -8.86007e-21)
(2.22967 -0.169132 -5.86881e-21)
(2.14924 -0.244421 -4.73941e-21)
(1.88879 -0.292186 9.49768e-22)
(1.47144 -0.246514 -1.86505e-35)
(1.12246 -0.130929 7.76174e-21)
(0.922612 -0.0187683 -2.1379e-34)
(0.857926 0.0447397 -1.5438e-20)
(0.844226 0.0571292 -3.73e-20)
(0.874808 0.0471682 -4.12087e-21)
(0.887201 0.0174283 7.77227e-21)
(1.76267 -0.13563 3.66166e-20)
(1.53964 -0.1599 -3.54639e-20)
(1.14402 -0.138973 -2.2555e-20)
(0.727643 -0.0872617 0)
(0.481218 -0.0320582 -4.84306e-21)
(0.402107 0.0125757 -1.96147e-21)
(0.434691 0.0384526 -1.54313e-20)
(0.494985 0.0400329 4.49131e-21)
(0.562423 0.0303783 -1.15656e-20)
(0.605726 0.0115633 -6.81822e-21)
(0.651241 -0.0264725 0)
(0.438879 -0.00912918 0)
(0.23386 0.000387051 0)
(0.0858346 -0.00307842 0)
(0.00228918 -0.0039671 0)
(-0.011582 0.000829404 0)
(0.0359797 0.00552939 -1.5077e-20)
(0.0988225 0.00610853 5.59765e-35)
(0.154411 0.00433176 -4.54325e-21)
(0.19215 0.00151918 -8.14493e-21)
(2.48796 0.244441 7.6236e-19)
(2.52671 0.178672 4.62025e-20)
(2.54293 0.112621 -7.39073e-20)
(2.56061 0.0634699 -2.34756e-19)
(2.56145 0.00486891 -4.16962e-20)
(2.5301 -0.0211897 -6.32171e-20)
(2.50206 -0.077135 -1.96583e-19)
(2.2846 -0.0685827 2.15178e-20)
(2.15022 -0.1098 0)
(1.49826 -0.0468111 4.08021e-20)
(2.41421 0.204211 2.46181e-19)
(2.42068 0.160136 -2.7646e-19)
(2.49206 0.0975625 -6.08328e-20)
(2.46407 0.0633405 -1.16728e-19)
(2.55547 0.00635357 9.55368e-20)
(2.47578 -0.0227557 1.64269e-19)
(2.59183 -0.0685207 -1.94221e-19)
(2.42891 -0.109088 1.12838e-20)
(2.51693 -0.121206 -4.34315e-20)
(2.22151 -0.182879 5.69931e-20)
(2.36774 0.171978 -1.1072e-19)
(2.34196 0.131354 2.52132e-19)
(2.44372 0.0859308 1.49683e-19)
(2.38791 0.0444244 -2.5252e-19)
(2.50041 0.0118017 -4.30647e-20)
(2.42071 -0.0389349 3.41798e-19)
(2.53227 -0.0507389 5.57691e-20)
(2.44662 -0.11934 -5.50825e-20)
(2.52367 -0.102535 -2.68847e-20)
(2.44376 -0.186203 -2.62578e-20)
(2.31893 0.139742 -2.94337e-19)
(2.30442 0.0968922 -5.56741e-20)
(2.38567 0.0701771 3.65575e-20)
(2.35596 0.0216827 -8.42213e-21)
(2.42985 0.00796094 -2.22145e-19)
(2.39759 -0.0491673 -7.55558e-20)
(2.45398 -0.0473058 1.92067e-19)
(2.43543 -0.111999 -1.18274e-20)
(2.46584 -0.096883 3.56848e-20)
(2.4663 -0.162915 1.32447e-20)
(2.26858 0.10632 3.76386e-20)
(2.28019 0.0666173 1.32843e-19)
(2.32892 0.0486486 -1.63957e-20)
(2.33373 0.00457265 1.65982e-19)
(2.3701 -0.0050411 -5.67689e-20)
(2.37549 -0.0528324 -2.14323e-19)
(2.39685 -0.0546346 3.27118e-20)
(2.40878 -0.103388 -6.86863e-20)
(2.41695 -0.100503 -8.99257e-21)
(2.43616 -0.147202 -1.96336e-20)
(2.22261 0.0714562 -1.63128e-19)
(2.24934 0.0397136 -6.91699e-20)
(2.28073 0.0235577 -1.07564e-20)
(2.30243 -0.010028 1.05505e-19)
(2.324 -0.0222546 2.66417e-19)
(2.34332 -0.0567602 -6.29616e-20)
(2.3555 -0.0660105 5.68801e-21)
(2.37431 -0.100144 -7.72639e-20)
(2.37918 -0.107785 -1.14482e-19)
(2.39864 -0.140694 -2.61966e-20)
(2.17002 0.0374669 -5.31105e-20)
(2.20143 0.0136964 -1.21695e-19)
(2.22688 -0.00117289 -1.47897e-19)
(2.25429 -0.0255249 -2.63845e-19)
(2.27259 -0.0390066 7.65161e-20)
(2.2973 -0.0639592 6.68317e-20)
(2.30857 -0.076738 -5.62926e-21)
(2.3322 -0.102289 8.11006e-20)
(2.33659 -0.114627 -8.14908e-20)
(2.3616 -0.140788 -5.01615e-20)
(2.05948 0.00607987 6.16233e-20)
(2.09052 -0.0106437 2.84115e-20)
(2.10822 -0.0220878 1.77551e-20)
(2.139 -0.0392732 -3.74018e-20)
(2.15015 -0.050286 -3.55948e-20)
(2.1826 -0.0685998 -4.99354e-20)
(2.18651 -0.0798639 -4.87843e-20)
(2.22293 -0.0999743 1.02989e-19)
(2.21825 -0.111786 -4.50965e-20)
(2.26173 -0.134172 1.15499e-20)
(1.74242 -0.0192967 -6.75837e-20)
(1.75893 -0.0280974 -1.20734e-20)
(1.76177 -0.0344961 1.22701e-19)
(1.78162 -0.0435002 -1.69314e-20)
(1.77841 -0.0496844 -3.5111e-20)
(1.80489 -0.0598865 7.31162e-20)
(1.79317 -0.0666634 -5.54574e-20)
(1.82957 -0.0789827 4.31645e-20)
(1.8055 -0.0872422 -1.75344e-20)
(1.85622 -0.102377 -8.53609e-20)
(0.879364 -0.012168 5.1142e-20)
(0.867872 -0.0116689 4.3319e-20)
(0.854848 -0.0112605 4.31407e-20)
(0.845843 -0.0111464 7.13024e-20)
(0.832825 -0.0114365 -3.64493e-20)
(0.827459 -0.0120879 -4.84037e-20)
(0.811329 -0.0132873 2.19392e-20)
(0.81184 -0.0153587 -2.54342e-21)
(0.783802 -0.0165784 3.79272e-21)
(0.800645 -0.0240779 -5.64564e-21)
(1.56468 0.95971 -8.51413e-20)
(1.54863 1.00562 2.63898e-20)
(1.5523 1.05928 -6.37956e-19)
(1.56098 1.12026 2.31872e-19)
(1.56745 1.18445 1.19619e-18)
(1.56301 1.24373 -1.44992e-19)
(1.52564 1.27556 -1.05861e-18)
(1.40508 1.22776 2.18047e-22)
(1.11255 1.00474 -5.18931e-19)
(0.520796 0.481778 1.16594e-19)
(1.72861 0.930006 0)
(1.71733 0.974312 7.36144e-19)
(1.71725 1.02402 1.63052e-18)
(1.72544 1.08235 -1.0063e-18)
(1.73509 1.14493 -2.34897e-18)
(1.73382 1.20202 -1.52511e-19)
(1.69428 1.22982 -1.95506e-19)
(1.55857 1.17684 7.14045e-19)
(1.22814 0.953751 1.07398e-18)
(0.569141 0.449845 4.21194e-19)
(1.87983 0.89021 6.73892e-20)
(1.87731 0.934159 0)
(1.87851 0.980819 -6.65403e-20)
(1.88734 1.03453 1.02562e-18)
(1.89897 1.09214 5.51603e-20)
(1.8988 1.14363 -2.28555e-18)
(1.85442 1.16465 1.4444e-18)
(1.70056 1.1058 8.50024e-19)
(1.33069 0.885511 -9.1738e-19)
(0.608241 0.408805 -2.68304e-19)
(2.01332 0.842079 -1.87108e-19)
(2.02042 0.883922 -1.37346e-19)
(2.02673 0.926823 2.79788e-19)
(2.03829 0.97495 -3.46961e-19)
(2.05171 1.02592 -1.60287e-18)
(2.05082 1.06977 -1.24569e-18)
(1.99854 1.08231 1.3036e-18)
(1.8232 1.01548 8.64026e-19)
(1.41138 0.799593 0)
(0.633279 0.358835 0)
(2.13009 0.778671 -9.15304e-19)
(2.14562 0.817965 -1.68152e-18)
(2.15845 0.85724 -6.45625e-19)
(2.17387 0.90001 -3.30854e-20)
(2.18866 0.944109 0)
(2.18515 0.97897 1.32699e-19)
(2.12125 0.981039 1.52831e-19)
(1.9187 0.908547 1.90504e-19)
(1.4634 0.700199 -2.72008e-19)
(0.641011 0.301204 -6.80057e-20)
(2.23317 0.705992 1.09257e-18)
(2.25503 0.740941 -4.04741e-20)
(2.27334 0.77554 -1.28028e-18)
(2.29199 0.81222 0)
(2.30668 0.848135 0)
(2.29674 0.873194 0)
(2.21497 0.865212 1.45625e-18)
(1.97953 0.78662 -1.59964e-18)
(1.48171 0.587922 -1.00673e-18)
(0.628447 0.238534 1.76283e-20)
(2.32229 0.622395 -1.41511e-18)
(2.34884 0.652806 -2.96888e-18)
(2.37101 0.682701 -5.14954e-21)
(2.39107 0.713201 6.0165e-19)
(2.40249 0.740961 -3.59717e-20)
(2.38082 0.755814 1.26187e-18)
(2.27461 0.737218 -6.97722e-19)
(2.00087 0.653066 -1.82438e-18)
(1.46118 0.467604 9.56739e-20)
(0.594341 0.174895 7.52318e-20)
(2.39981 0.534764 -1.09722e-18)
(2.42763 0.559966 1.51051e-20)
(2.45082 0.584374 4.12951e-19)
(2.46926 0.607986 -3.9949e-19)
(2.473 0.626861 6.22273e-19)
(2.43319 0.630876 1.64235e-18)
(2.29456 0.601611 -1.36814e-19)
(1.97637 0.513632 -9.49485e-19)
(1.39771 0.346065 2.13126e-19)
(0.539265 0.114907 3.89994e-20)
(2.46263 0.443814 3.9906e-19)
(2.49029 0.464549 7.74709e-20)
(2.51183 0.483373 -4.07738e-19)
(2.52478 0.499807 -9.60143e-19)
(2.51495 0.509482 6.35508e-20)
(2.44861 0.502685 4.56703e-20)
(2.26822 0.463872 -1.15507e-18)
(1.90019 0.375155 4.97594e-19)
(1.28966 0.230755 1.41976e-19)
(0.465982 0.0630413 -4.97962e-20)
(2.51186 0.355452 7.35117e-19)
(2.53624 0.371311 -1.09546e-18)
(2.55279 0.384078 1.60457e-19)
(2.55498 0.393024 2.15826e-18)
(2.52355 0.393442 1.04072e-18)
(2.42029 0.376541 -2.24543e-18)
(2.18832 0.330416 -2.05839e-18)
(1.76783 0.245316 8.5451e-19)
(1.13869 0.129312 -4.00676e-20)
(0.379473 0.0228959 -1.05082e-19)
(0.547426 0.394974 -1.73382e-19)
(0.506558 0.408513 -1.65649e-19)
(0.460544 0.422909 7.55823e-20)
(0.410025 0.43831 -2.44454e-19)
(0.354686 0.454579 -2.16783e-20)
(0.293684 0.470285 2.18498e-19)
(0.226038 0.479561 3.66367e-20)
(0.152204 0.465632 1.23351e-21)
(0.079305 0.392348 1.88628e-20)
(0.0160786 0.199807 1.36166e-20)
(0.590248 0.502503 1.37144e-19)
(0.550459 0.522772 1.75319e-19)
(0.50638 0.544493 4.58124e-20)
(0.45822 0.567816 -5.23124e-20)
(0.405337 0.592485 -2.20952e-19)
(0.346611 0.616532 -1.48393e-20)
(0.280357 0.632155 5.8313e-20)
(0.205167 0.617034 3.92517e-20)
(0.124418 0.52246 -1.21624e-19)
(0.0394651 0.267456 -4.20119e-20)
(0.650908 0.602251 -1.16349e-19)
(0.612474 0.62833 -1.02521e-19)
(0.570869 0.656348 9.8781e-20)
(0.52584 0.686781 6.90762e-20)
(0.476463 0.719492 -7.85368e-20)
(0.421296 0.75206 -2.25391e-20)
(0.357588 0.774666 -1.09146e-19)
(0.281066 0.759302 -8.03483e-20)
(0.189254 0.64484 -6.9115e-20)
(0.0730731 0.330598 4.76411e-22)
(0.72911 0.698382 3.7107e-20)
(0.692584 0.730922 -5.15835e-20)
(0.654368 0.765252 -8.01826e-20)
(0.613222 0.802068 -5.75384e-20)
(0.567793 0.841376 -6.65035e-20)
(0.516462 0.880421 -6.32498e-21)
(0.455435 0.907585 -2.83622e-19)
(0.376992 0.8898 6.03199e-20)
(0.271015 0.755262 -3.22876e-19)
(0.115339 0.386582 4.90913e-20)
(0.820319 0.777778 7.04336e-21)
(0.786452 0.815302 1.42284e-20)
(0.752949 0.855175 -4.93589e-20)
(0.717678 0.898444 -2.68639e-19)
(0.678487 0.944878 1.24653e-19)
(0.632951 0.991029 4.23692e-20)
(0.575656 1.02347 3.94407e-20)
(0.494644 1.00438 -1.84539e-19)
(0.370499 0.852036 3.90482e-19)
(0.166097 0.434756 2.83705e-19)
(0.927903 0.856557 -9.23008e-20)
(0.895633 0.898532 -1.8498e-19)
(0.865397 0.941675 1.65461e-20)
(0.834503 0.988473 9.98609e-20)
(0.800758 1.03926 3.69971e-19)
(0.761202 1.08989 2.74539e-19)
(0.70826 1.12471 6.56484e-19)
(0.624716 1.10152 2.69616e-19)
(0.480584 0.931086 1.46927e-19)
(0.222095 0.472338 2.06582e-19)
(1.04149 0.908589 -1.07172e-19)
(1.01547 0.95535 6.13889e-19)
(0.99315 1.00301 4.05066e-19)
(0.969931 1.0541 -5.25802e-19)
(0.943055 1.1092 -2.6366e-19)
(0.909467 1.1641 6.84053e-19)
(0.85996 1.20162 -1.0664e-19)
(0.77177 1.17558 -4.64815e-19)
(0.603194 0.990343 2.71823e-20)
(0.28306 0.498777 2.56642e-19)
(1.1619 0.96218 3.04416e-19)
(1.13598 1.00927 5.87362e-20)
(1.11847 1.05724 -7.77314e-19)
(1.10343 1.11013 1.72318e-19)
(1.0861 1.1676 6.00667e-19)
(1.06135 1.22405 -3.29017e-19)
(1.01705 1.26061 -1.04408e-19)
(0.924327 1.22846 -1.91022e-19)
(0.729661 1.0285 1.92799e-20)
(0.345025 0.51286 -2.98879e-19)
(1.29159 0.980187 1.81092e-20)
(1.27629 1.03099 -5.69273e-19)
(1.26611 1.07984 -4.83173e-21)
(1.25664 1.13375 4.89379e-19)
(1.24518 1.19363 -5.0963e-19)
(1.22643 1.25277 9.96716e-19)
(1.18504 1.28989 6.68641e-19)
(1.08494 1.25347 -9.83339e-19)
(0.860156 1.04298 -7.79578e-20)
(0.406971 0.514232 -3.2948e-19)
(1.39359 0.990464 -3.45187e-19)
(1.39016 1.04217 -3.25302e-19)
(1.39752 1.09268 3.01353e-19)
(1.40293 1.14717 8.03414e-19)
(1.40294 1.20626 2.86832e-19)
(1.39268 1.26356 -8.27517e-19)
(1.35459 1.29707 1.09718e-19)
(1.24583 1.2541 2.23716e-19)
(0.988658 1.03515 -2.99588e-19)
(0.466134 0.503695 -2.3289e-19)
(0.996951 0.0102299 5.84529e-22)
(1.01046 0.0405277 -1.71725e-20)
(1.02283 0.0509279 -1.30181e-20)
(1.02778 0.0748204 0)
(1.02414 0.0913133 1.50389e-20)
(1.02209 0.113495 2.19101e-20)
(0.999666 0.153542 2.91112e-20)
(0.959469 0.19357 6.73505e-20)
(0.878168 0.258991 -1.05841e-19)
(0.725666 0.327157 -1.45738e-19)
(0.997997 0.00834372 3.53239e-20)
(1.00802 0.0381847 -5.53906e-20)
(1.02232 0.0485959 2.08296e-22)
(1.02564 0.0745891 -1.63204e-20)
(1.0241 0.0916819 7.66494e-21)
(1.02266 0.118028 -1.14003e-20)
(1.0017 0.162395 -6.78606e-20)
(0.968432 0.212135 0)
(0.88956 0.295895 2.20699e-19)
(0.761165 0.397425 -2.606e-19)
(0.998605 0.00668432 -2.53708e-20)
(1.00668 0.0361703 1.52857e-20)
(1.02171 0.0460163 3.41653e-20)
(1.02528 0.0748826 8.74799e-21)
(1.02436 0.0914773 -1.87435e-20)
(1.02607 0.123241 1.18447e-21)
(1.00471 0.170443 -4.8259e-20)
(0.982352 0.230882 -6.68709e-21)
(0.904137 0.331126 2.58304e-22)
(0.811139 0.464837 6.89509e-19)
(0.998863 0.00514181 -2.83439e-20)
(1.00622 0.0344879 2.12158e-21)
(1.02114 0.0431072 2.79695e-20)
(1.02647 0.0757024 1.86428e-20)
(1.0251 0.0905664 -9.47435e-21)
(1.032 0.129196 -1.37381e-20)
(1.00882 0.17735 7.08964e-20)
(1.00106 0.250369 -2.18675e-21)
(0.921436 0.363527 -2.47175e-19)
(0.875389 0.527952 8.41671e-20)
(0.9989 0.0036288 1.95775e-20)
(1.00633 0.0330878 -2.81216e-20)
(1.02088 0.0398459 -2.25037e-20)
(1.02886 0.0769408 1.112e-20)
(1.02669 0.0889391 0)
(1.03983 0.13581 0)
(1.01483 0.183019 6.08342e-20)
(1.02291 0.270512 9.09262e-22)
(0.944086 0.393041 -1.14379e-19)
(0.949529 0.584963 9.05786e-20)
(0.998854 0.00209762 5.48922e-21)
(1.00667 0.0318704 2.24805e-20)
(1.02125 0.0362453 -6.18423e-20)
(1.03208 0.0784289 -2.1652e-20)
(1.02948 0.0866485 -5.10418e-22)
(1.04915 0.142993 5.9548e-20)
(1.02287 0.187235 9.46282e-20)
(1.0485 0.291875 -3.22848e-22)
(0.968447 0.417408 1.88989e-19)
(1.04076 0.642171 -2.11595e-19)
(0.998832 0.000539885 -2.10115e-20)
(1.007 0.0306994 1.18065e-20)
(1.02257 0.0323438 -1.7145e-20)
(1.03575 0.0799647 -4.62896e-20)
(1.03396 0.0838247 1.64085e-21)
(1.05922 0.15046 -1.54227e-21)
(1.03437 0.190269 -4.81838e-21)
(1.07449 0.31367 -2.08096e-19)
(1.00371 0.437646 1.40335e-19)
(1.1257 0.683067 -5.22574e-19)
(0.998882 -0.0010341 -3.55449e-21)
(1.00719 0.0294136 -3.38712e-20)
(1.02504 0.0281915 3.47236e-20)
(1.03962 0.0813449 2.4746e-20)
(1.04038 0.0806404 8.63342e-22)
(1.06978 0.157771 -6.98964e-20)
(1.04913 0.192498 -5.38111e-20)
(1.10309 0.335957 3.73977e-19)
(1.03856 0.45508 1.38123e-20)
(1.24172 0.741676 8.22475e-19)
(0.999003 -0.00259283 1.42325e-20)
(1.00725 0.0278564 1.53557e-20)
(1.02867 0.023867 4.1043e-20)
(1.0437 0.0824468 -2.72862e-20)
(1.04869 0.0771531 -7.23858e-20)
(1.08049 0.165086 9.78134e-22)
(1.06815 0.192103 -7.47758e-20)
(1.13151 0.35637 4.87907e-19)
(1.09369 0.454827 -8.57452e-21)
(1.30989 0.758667 -1.1412e-18)
(0.999189 -0.00407162 3.26145e-22)
(1.00733 0.0258752 2.38831e-20)
(1.03318 0.0197905 1.35086e-20)
(1.04842 0.0829265 -5.48286e-20)
(1.05761 0.0752456 -7.12938e-20)
(1.09084 0.171992 -5.99098e-20)
(1.08773 0.199915 -1.38571e-19)
(1.15585 0.37993 -4.42778e-19)
(1.151 0.482964 -2.39543e-19)
(1.44656 0.828833 -1.2e-18)
(0.999669 -0.00656239 -1.01894e-21)
(1.00695 0.0229282 -5.1895e-21)
(1.03981 0.0117465 -1.57394e-20)
(1.05587 0.0825212 3.02034e-20)
(1.06856 0.0656695 5.42493e-20)
(1.1113 0.175936 -3.91471e-20)
(1.10979 0.183746 1.36663e-19)
(1.20094 0.389663 -4.08855e-19)
(1.21239 0.421044 -1.84572e-19)
(1.46085 0.819829 6.27577e-19)
(1.00078 -0.0102207 7.98758e-22)
(1.00555 0.0182499 9.54911e-21)
(1.05119 -0.00132886 -1.10095e-20)
(1.06218 0.0797394 5.55228e-20)
(1.08679 0.048836 9.3588e-20)
(1.13029 0.172596 1.16241e-19)
(1.1495 0.157655 3.14094e-20)
(1.22832 0.374996 1.96016e-19)
(1.3104 0.369247 3.07019e-19)
(1.47824 0.719857 2.68797e-20)
(1.00091 -0.0137235 -1.33075e-21)
(1.00576 0.011164 -3.80021e-21)
(1.06623 -0.0143078 3.81765e-21)
(1.06476 0.0747707 4.14779e-21)
(1.11295 0.0314509 2.87234e-34)
(1.1419 0.163749 -6.70926e-21)
(1.19687 0.132606 -4.8337e-34)
(1.24324 0.349189 1.78237e-20)
(1.38436 0.313364 -5.43266e-20)
(1.51807 0.627899 -5.52925e-20)
(0.998037 -0.0177011 1.46562e-20)
(1.01223 0.00074025 -4.30509e-35)
(1.07936 -0.025787 -4.33762e-21)
(1.06982 0.0651187 -2.32306e-20)
(1.14031 0.0153787 -4.75559e-20)
(1.15453 0.150626 -3.95637e-20)
(1.23398 0.109524 -6.23573e-34)
(1.26449 0.318956 -7.54417e-20)
(1.42353 0.257931 -1.41514e-19)
(1.55714 0.535557 9.28463e-20)
(0.991266 -0.0229918 0)
(1.0281 -0.0129801 1.28667e-35)
(1.08603 -0.0351312 0)
(1.08607 0.0488844 0)
(1.16267 0.0012493 0)
(1.17579 0.131831 0)
(1.25489 0.0895823 -4.43687e-34)
(1.29675 0.280995 0)
(1.43953 0.210602 -1.9214e-20)
(1.58363 0.44121 5.49539e-20)
(0.981305 -0.0304221 2.46635e-21)
(1.05205 -0.027718 1.47819e-21)
(1.08785 -0.0425882 -5.37189e-21)
(1.11522 0.0291605 0)
(1.17862 -0.0089778 0)
(1.20237 0.109857 5.94316e-21)
(1.26769 0.0735061 4.23824e-20)
(1.32956 0.237528 -1.28254e-20)
(1.45347 0.170596 -2.80195e-20)
(1.60356 0.349763 2.11869e-19)
(0.970635 -0.0446792 -8.10096e-20)
(1.08103 -0.0492858 2.14355e-21)
(1.08741 -0.0549618 -5.94818e-21)
(1.14991 0.000436402 -1.43206e-20)
(1.17687 -0.0190487 -2.91533e-20)
(1.21841 0.0832057 -1.36794e-20)
(1.26488 0.0580901 -3.57247e-20)
(1.34904 0.189411 -2.89768e-20)
(1.46327 0.133466 -5.35085e-20)
(1.62017 0.26344 6.60878e-20)
(0.962851 -0.0520197 -5.51614e-21)
(1.10414 -0.0586129 -1.78067e-20)
(1.07022 -0.0562447 -6.53005e-21)
(1.15315 -0.017303 -4.94527e-21)
(1.11163 -0.0177412 -4.51065e-35)
(1.18856 0.058311 6.29406e-21)
(1.19666 0.0443541 -8.11868e-34)
(1.32989 0.137442 -1.23244e-20)
(1.42121 0.0960953 1.74665e-20)
(1.61182 0.182177 2.5123e-20)
(0.957128 -0.0930867 1.96795e-19)
(1.05864 -0.0888172 -4.97028e-21)
(0.957959 -0.073431 -7.02798e-21)
(0.997243 -0.0350891 1.32476e-20)
(0.886213 -0.0143559 1.64479e-20)
(0.999874 0.0314714 1.47549e-20)
(0.965922 0.0294321 1.50037e-20)
(1.16397 0.0799799 -8.91257e-21)
(1.21722 0.0591761 -1.91204e-20)
(1.46399 0.103534 1.36108e-19)
(0.82641 -0.0465019 8.10304e-21)
(0.729388 -0.0336441 -9.29987e-35)
(0.533462 -0.0184569 -8.15527e-21)
(0.477037 -0.00289989 0)
(0.399408 0.000430045 0)
(0.474659 0.00920466 6.21015e-21)
(0.467555 0.00547444 -4.81727e-36)
(0.613679 0.0173745 -1.188e-20)
(0.669558 0.00971237 -2.56614e-20)
(0.854863 0.0184857 5.42037e-20)
(1.6666 0.844674 -1.8893e-19)
(1.76702 0.826522 -2.79018e-19)
(1.88354 0.792027 0)
(1.9917 0.749122 1.56011e-19)
(2.09171 0.690155 6.59664e-19)
(2.18162 0.625969 -1.13545e-19)
(2.26095 0.551335 1.68131e-18)
(2.33516 0.475788 -8.30974e-20)
(2.39424 0.395456 -3.62941e-19)
(2.45153 0.319784 3.18712e-19)
(1.69264 0.693669 9.70107e-20)
(1.76593 0.679382 1.10877e-19)
(1.86453 0.645218 -1.41274e-20)
(1.94722 0.607965 2.15968e-19)
(2.04199 0.553222 -1.76048e-19)
(2.10762 0.503708 -4.07481e-19)
(2.19031 0.440152 -1.23797e-19)
(2.24008 0.387295 5.55066e-19)
(2.31454 0.321042 -2.12415e-20)
(2.34632 0.270005 -4.69646e-19)