/*--------------------------------*- C++ -*----------------------------------*\
  =========                 |
  \\      /  F ield         | OpenFOAM: The Open Source CFD Toolbox
   \\    /   O peration     | Website:  https://openfoam.org
    \\  /    A nd           | Version:  13
     \\/     M anipulation  |
\*---------------------------------------------------------------------------*/
FoamFile
{
    format      ascii;
    class       volScalarField;
    location    "0.115";
    object      p;
}
// * * * * * * * * * * * * * * * * * * * * * * * * * * * * * * * * * * * * * //

dimensions      [0 2 -2 0 0 0 0];

internalField   nonuniform List<scalar> 
1800
(
6.82897
8.92777
11.0717
12.4917
13.3148
13.7092
13.8167
13.6272
12.3434
8.22583
10.6903
13.1566
15.651
17.3245
18.3689
19.0162
19.4515
19.6661
18.9121
16.2067
17.0871
19.7034
22.3663
24.2199
25.4694
26.3388
26.9752
27.3414
26.8497
24.9971
26.087
28.6495
31.2898
33.1963
34.5531
35.5529
36.305
36.745
36.3249
34.6247
37.1532
39.5086
41.9544
43.7596
45.0773
46.0665
46.8134
47.2543
46.8944
45.3277
49.8409
51.8893
54.028
55.6292
56.815
57.7118
58.3884
58.7931
58.5052
57.138
63.8034
65.4731
67.225
68.5531
69.551
70.3164
70.9036
71.2763
71.0966
70.0026
78.7462
79.9855
81.2938
82.3001
83.0728
83.6834
84.1743
84.526
84.4894
83.7493
94.384
95.162
95.9915
96.6441
97.1645
97.5995
97.9798
98.3007
98.4083
98.0712
110.435
110.738
111.068
111.341
111.577
111.796
112.011
112.223
112.382
112.408
0.321634
0.0358689
0.123025
0.443741
0.870587
1.2851
1.6166
1.87093
2.08348
2.25987
0.673089
0.0573738
-0.258845
-0.175948
0.156382
0.507243
0.817368
1.12978
1.44199
1.70791
1.26757
0.357466
-0.426791
-0.630086
-0.444191
-0.210944
0.0460644
0.389361
0.775382
1.13987
1.33612
0.364604
-0.533883
-0.868462
-0.842072
-0.76316
-0.601858
-0.288396
0.140948
0.642326
0.909576
0.136623
-0.520515
-0.825162
-0.92225
-0.975339
-0.917468
-0.676046
-0.217767
0.472496
0.373031
-0.00700231
-0.238198
-0.368509
-0.458331
-0.541911
-0.547751
-0.390388
0.0892328
1.01257
0.216722
0.324705
0.58344
0.741167
0.803049
0.806114
0.810805
0.925375
1.45925
2.67725
0.834963
1.44889
2.20263
2.71546
3.0356
3.23116
3.34801
3.5193
4.21142
5.85741
2.37044
3.48429
4.74051
5.66303
6.32515
6.80127
7.1138
7.41579
8.36639
10.6314
4.66793
6.30667
8.12123
9.49254
10.5061
11.2501
11.7463
12.1626
13.1835
15.3165
3.00802
3.19249
3.1642
2.96346
2.45842
1.98112
1.54231
1.10826
0.667704
0.223443
2.63004
3.13216
3.0267
2.85566
2.37619
1.91928
1.49866
1.07979
0.651906
0.218484
2.13202
3.07866
2.89853
2.74201
2.29658
1.86183
1.45886
1.05424
0.637858
0.214106
1.50837
2.99395
2.78762
2.62511
2.21768
1.80785
1.42273
1.03157
0.62555
0.210304
0.834592
2.83916
2.68981
2.50877
2.13847
1.75641
1.3901
1.01175
0.614978
0.207083
0.294169
2.60154
2.59133
2.39592
2.05902
1.70678
1.36084
0.994757
0.606144
0.204453
0.182365
2.3086
2.47695
2.28613
1.97982
1.65872
1.33486
0.980607
0.59905
0.20243
0.947075
2.03993
2.32931
2.16754
1.8976
1.61187
1.31213
0.969329
0.593703
0.201035
3.23264
1.95804
2.11433
2.00527
1.80058
1.56477
1.29274
0.961035
0.590122
0.200321
7.4886
2.37632
1.84464
1.77128
1.67434
1.51407
1.27582
0.955444
0.588194
0.20032
10.8737
3.72438
2.06126
1.72226
1.57566
1.45075
1.24592
0.939612
0.579934
0.199095
12.8031
3.83727
1.62406
1.24794
1.32691
1.36409
1.20875
0.915716
0.565713
0.19624
13.962
3.92604
1.42922
0.979418
1.22453
1.36343
1.21716
0.915978
0.563857
0.196674
15.184
5.25949
1.99191
1.31837
1.45108
1.48135
1.25764
0.928424
0.566387
0.193309
17.284
7.90268
3.39803
2.26157
1.96765
1.68166
1.31216
0.943025
0.569194
0.185292
20.2036
10.7832
5.24019
3.46136
2.60984
1.91848
1.37331
0.954146
0.567599
0.175974
22.7714
12.9829
6.9566
4.61844
3.25761
2.17132
1.44407
0.967275
0.56558
0.168636
24.0811
14.2345
8.25757
5.62235
3.86176
2.43275
1.53142
0.989995
0.568547
0.165962
24.0285
14.6335
9.15197
6.49558
4.4312
2.70781
1.6435
1.02973
0.581133
0.16896
23.4791
14.8611
9.91715
7.32854
4.99666
3.01132
1.79683
1.09976
0.612205
0.178902
112.962
98.9883
85.1961
72.1628
60.1949
49.3853
39.7719
31.0583
21.0148
5.91558
113.942
100.628
87.1032
74.0731
62.0075
51.1057
41.553
33.2756
24.5933
12.4781
114.479
101.369
88.4649
76.117
64.5596
53.9527
44.5121
36.317
28.5272
19.3892
115.685
103.923
91.9426
80.09
68.7118
58.0967
48.4468
39.8336
32.1164
24.8445
116.262
105.232
94.2908
83.5793
73.2108
63.2628
53.7744
44.836
36.99
30.7881
116.611
105.865
95.3398
85.1599
75.422
66.1758
57.3991
49.1382
42.0733
37.0297
116.842
106.264
95.9347
85.9848
76.5254
67.6296
59.3071
51.627
45.2604
41.1277
116.942
106.402
96.1183
86.2296
76.8589
68.0975
59.9798
52.5743
46.4472
42.4802
116.891
106.188
95.7446
85.7086
76.2132
67.3654
59.2214
51.8397
45.6058
41.1466
116.767
105.803
95.0992
84.8052
75.0639
65.9988
57.6906
50.1844
43.6665
38.4665
235.629
231.282
229.718
229.275
229.181
229.429
230.159
231.535
233.681
235.814
227.026
224.016
222.967
222.926
223.148
223.629
224.554
226.156
228.62
231.089
217.471
215.302
214.529
214.651
215.079
215.778
216.899
218.663
221.27
223.861
207.127
205.104
204.399
204.593
205.134
205.96
207.18
208.984
211.547
214.061
195.769
193.864
193.209
193.395
193.925
194.734
195.908
197.598
199.949
202.235
183.371
181.65
181.056
181.197
181.649
182.358
183.392
184.867
186.894
188.856
169.996
168.536
168.042
168.145
168.5
169.072
169.91
171.102
172.728
174.297
155.834
154.719
154.365
154.443
154.698
155.11
155.717
156.579
157.749
158.876
141.197
140.484
140.278
140.328
140.474
140.709
141.06
141.562
142.244
142.901
126.643
126.301
126.162
126.116
126.105
126.128
126.195
126.316
126.494
126.671
247.889
248.103
248.374
248.667
249.008
249.448
249.913
250.17
250.054
249.53
248.091
248.382
248.746
249.097
249.385
249.693
249.99
249.887
249.158
248.249
248.231
248.606
249.009
249.346
249.53
249.654
249.756
249.402
248.334
247.269
248.206
248.706
249.114
249.363
249.396
249.31
249.199
248.769
247.803
246.837
247.766
248.428
248.81
248.923
248.816
248.588
248.354
247.997
247.399
246.747
246.548
247.407
247.753
247.728
247.535
247.292
247.097
246.95
246.822
246.609
244.155
245.269
245.628
245.532
245.347
245.208
245.189
245.347
245.708
245.981
240.223
241.722
242.212
242.166
242.099
242.166
242.416
242.928
243.764
244.515
234.712
236.775
237.497
237.577
237.712
238.064
238.658
239.57
240.881
242.095
229.325
231.196
231.946
232.117
232.424
233.041
233.982
235.332
237.178
238.882
248.861
248.608
248.572
248.268
247.967
247.632
247.229
247.027
246.967
247.096
248.822
248.598
248.561
248.266
247.971
247.644
247.262
247.078
246.879
247.225
248.797
248.591
248.555
248.262
247.971
247.652
247.298
247.106
246.751
247.417
248.784
248.586
248.552
248.258
247.968
247.658
247.33
247.098
246.62
247.681
248.781
248.583
248.553
248.253
247.964
247.662
247.352
247.052
246.529
247.946
248.788
248.583
248.556
248.246
247.958
247.665
247.357
246.981
246.493
248.034
248.805
248.585
248.562
248.239
247.952
247.662
247.343
246.902
246.487
247.654
248.831
248.588
248.568
248.231
247.945
247.658
247.32
246.834
246.433
246.366
248.867
248.594
248.575
248.223
247.938
247.66
247.326
246.819
246.179
243.551
248.913
248.605
248.581
248.215
247.933
247.683
247.394
246.855
245.432
238.804
248.98
248.628
248.587
248.215
247.922
247.635
247.188
246.287
243.696
235.124
249.103
248.658
248.615
248.235
247.941
247.732
247.448
246.481
243.339
233.06
249.328
248.699
248.655
248.248
247.927
247.778
247.668
246.639
243.184
231.804
249.786
248.797
248.71
248.264
247.832
247.579
247.412
246.221
242.04
230.735
250.681
248.974
248.793
248.192
247.614
247.063
246.48
244.912
239.643
228.957
252.464
249.113
248.889
248.056
247.334
246.383
245.187
243.018
236.838
226.333
256.302
249.339
248.961
247.937
247.033
245.688
243.921
241.174
234.579
223.889
264.586
250.36
249.097
247.815
246.721
245.045
242.841
239.759
233.234
222.576
282.158
253.015
249.595
247.768
246.421
244.457
241.931
238.791
232.757
222.591
308.154
257.029
250.973
247.9
246.171
243.907
241.093
237.994
232.488
223.117
237.851
222.482
211.829
202.484
192.296
180.968
168.55
155.155
141.085
126.928
231.378
219.056
209.893
201.164
191.218
179.968
167.608
154.339
140.593
127.093
224.812
215.435
207.26
198.735
189.015
178.162
166.393
153.872
140.831
127.628
219.78
212.262
204.261
195.399
185.535
174.742
163.217
151.243
139.151
127.29
214.445
208.017
199.983
190.848
181.142
170.975
160.4
149.512
138.437
127.325
208.755
203.424
196.136
187.645
178.63
169.161
159.228
148.891
138.254
127.449
204.881
200.433
193.836
185.933
177.392
168.296
158.663
148.574
138.147
127.52
203.578
199.323
192.975
185.358
177.037
168.091
158.56
148.542
138.168
127.583
204.899
200.188
193.736
186.147
177.808
168.782
159.133
148.974
138.444
127.696
207.567
202.136
195.399
187.684
179.182
169.941
160.048
149.631
138.84
127.832
113.305
113.479
113.566
113.418
112.909
112.547
112.362
112.649
112.64
112.387
90.7015
91.1742
91.3997
90.9684
89.5316
88.4431
87.8231
88.4887
88.5222
87.9267
69.8318
70.4735
70.7427
70.0773
68.1356
66.419
65.3995
65.9511
66.2526
65.6849
51.7012
52.3227
52.5172
51.6943
49.7148
47.5389
46.2034
46.2395
46.978
46.7288
37.0709
37.483
37.5234
36.6407
34.8473
32.5145
30.8564
30.2878
31.0981
31.2682
26.0939
26.1565
25.9816
25.0627
23.4837
21.4188
19.6023
18.6517
18.9055
19.3929
18.3991
18.096
17.7188
16.7583
15.3697
13.7937
12.2575
11.1751
10.8203
11.1773
13.2518
12.7414
12.3192
11.3685
10.1462
9.03359
8.05975
7.20455
6.59136
6.48464
9.75781
9.28082
9.02951
8.20112
7.17082
6.45606
6.01719
5.6415
5.14961
4.73861
7.40618
7.05147
7.0127
6.3716
5.59674
5.21604
5.14388
5.14954
5.01452
4.59903
6.07309
5.76516
5.74454
5.23685
4.74206
4.62274
4.73165
4.8875
5.0284
5.08702
5.3739
5.12984
4.9481
4.49797
4.2481
4.31851
4.52233
4.70182
4.83056
4.91965
4.89094
4.72514
4.40482
4.03413
3.97333
4.15873
4.40499
4.59762
4.72101
4.78191
4.40714
4.26272
3.93561
3.72206
3.80259
4.0453
4.28444
4.45678
4.56176
4.60448
3.8422
3.69142
3.49281
3.48028
3.66596
3.91627
4.12738
4.27881
4.36875
4.39669
3.17319
3.07805
3.09111
3.2648
3.51425
3.74541
3.9289
4.0627
4.14156
4.16245
2.4863
2.54263
2.72955
3.00713
3.27622
3.50229
3.68195
3.81625
3.89682
3.92056
1.91656
2.05456
2.32235
2.62987
2.91206
3.15712
3.36233
3.51895
3.61312
3.64778
1.32791
1.42665
1.69391
2.03399
2.36995
2.67218
2.92793
3.11529
3.22491
3.27975
0.698927
0.613997
0.833374
1.21726
1.6366
2.02439
2.33717
2.55364
2.69397
2.79473
4.39042
4.4622
4.33945
3.98015
3.29701
2.60855
1.96796
1.3767
0.811536
0.282671
4.44908
4.4123
4.29842
3.95806
3.24448
2.5529
1.92715
1.35082
0.79781
0.279524
4.4573
4.27313
4.19476
3.90507
3.18972
2.50014
1.88928
1.32717
0.785347
0.274474
4.39586
4.08353
4.04719
3.81155
3.12645
2.44938
1.85443
1.30578
0.774111
0.267629
4.27278
3.88823
3.88796
3.67717
3.04638
2.3975
1.82196
1.28652
0.764434
0.26056
4.11266
3.72485
3.7479
3.52527
2.94821
2.33973
1.78916
1.26824
0.755458
0.254137
3.93982
3.59621
3.63182
3.38573
2.84046
2.27116
1.74684
1.24309
0.742303
0.247756
3.75749
3.4856
3.52752
3.26855
2.73577
2.19649
1.69609
1.21038
0.724799
0.241725
3.55043
3.3784
3.41935
3.16528
2.6376
2.12067
1.64188
1.17415
0.704524
0.235124
3.30473
3.27644
3.29812
3.06565
2.54521
2.04817
1.59002
1.1397
0.685248
0.228982
6.21608
4.7261
4.02361
3.65791
3.12997
2.53781
1.92847
1.35136
0.793939
0.274018
5.39846
4.50066
4.06588
3.72166
3.17893
2.56673
1.94587
1.36126
0.800791
0.276942
4.71611
4.4098
4.12925
3.78919
3.22128
2.59067
1.96069
1.37056
0.806641
0.279673
4.3872
4.41238
4.21391
3.86224
3.26051
2.61101
1.97385
1.37952
0.812243
0.28189
4.36336
4.46848
4.31726
3.94344
3.29887
2.62767
1.98454
1.3874
0.817346
0.283805
113.13
90.0225
68.9303
51.118
37.0609
26.6984
19.4924
14.5928
11.398
9.57657
112.911
89.4674
68.2367
50.4013
36.2798
25.7151
18.2044
13.0644
9.8987
8.38932
112.728
88.9947
67.6115
49.6784
35.3889
24.5623
16.8015
11.5421
8.36582
6.89066
112.518
88.4242
66.7776
48.6223
34.0729
22.9762
15.0382
9.76623
6.64295
5.23656
112.264
87.6956
65.6486
47.1499
32.2742
20.9114
12.8692
7.78468
5.25832
4.4111
245.237
245.28
245.414
245.587
245.748
245.684
245.197
244.67
244.704
244.423
245.461
245.537
245.656
245.848
246.103
246.242
246.033
245.568
245.404
245.18
245.664
245.713
245.828
246.028
246.317
246.576
246.577
246.214
245.887
245.732
245.911
245.944
246.043
246.22
246.486
246.787
246.933
246.764
246.444
246.301
246.176
246.196
246.28
246.433
246.653
246.93
247.174
247.241
247.116
246.984
246.436
246.45
246.524
246.656
246.84
247.083
247.375
247.646
247.774
247.758
246.667
246.685
246.764
246.906
247.101
247.349
247.66
248.019
248.322
248.45
246.916
246.945
247.038
247.216
247.467
247.777
248.139
248.535
248.882
249.058
247.249
247.311
247.422
247.633
247.961
248.382
248.859
249.326
249.626
249.607
247.606
247.735
247.9
248.137
248.503
248.996
249.533
249.995
250.23
250.025
137.645
137.383
137.359
137.623
137.405
137.006
136.462
136.292
136.366
136.534
162.123
161.517
161.535
162.176
161.524
160.399
158.93
158.476
158.689
159.156
184.393
183.814
184.099
184.625
183.575
181.824
179.854
179.167
179.424
180.061
203.386
203.126
203.845
203.856
202.492
200.285
198.278
197.435
197.619
198.237
218.89
219.048
219.836
219.245
217.563
215.202
213.381
212.479
212.512
212.922
230.809
231.28
231.512
230.543
228.709
226.62
225.011
224.072
223.896
223.963
239.062
239.394
239.019
237.927
236.386
234.792
233.369
232.386
232.021
231.735
243.772
243.638
243.008
242.157
241.197
240.077
238.815
237.842
237.457
236.986
245.531
245.092
244.592
244.232
243.825
243.122
242.053
241.204
241.02
240.604
245.695
245.259
245.118
245.142
245.115
244.767
243.97
243.31
243.347
243.045
256.586
248.795
249.472
248.133
247.74
247.159
246.559
246.147
245.991
246.022
253.771
248.75
249.294
248.145
247.786
247.212
246.586
246.185
246.078
245.998
251.885
248.764
249.082
248.167
247.83
247.266
246.639
246.284
246.262
246.035
250.771
248.768
248.872
248.195
247.866
247.323
246.725
246.433
246.487
246.144
250.085
248.732
248.756
248.223
247.891
247.386
246.845
246.598
246.696
246.303
249.628
248.687
248.699
248.243
247.902
247.454
246.973
246.734
246.845
246.475
249.325
248.662
248.665
248.255
247.91
247.512
247.072
246.824
246.935
246.631
249.129
248.647
248.635
248.263
247.929
247.555
247.133
246.88
246.983
246.766
249.002
248.633
248.609
248.267
247.947
247.589
247.17
246.924
247.007
246.887
248.918
248.619
248.588
248.268
247.96
247.614
247.2
246.973
247.006
246.994
319.107
255.588
251.737
248.666
247.918
247.302
246.841
246.463
245.728
244.154
297.377
253.205
250.656
248.464
247.82
247.249
246.781
246.422
245.946
244.97
278.927
251.056
250.099
248.32
247.766
247.208
246.72
246.358
246.029
245.655
267.511
249.729
249.806
248.22
247.733
247.175
246.656
246.273
246.02
245.99
260.736
249.028
249.604
248.141
247.714
247.146
246.586
246.171
245.964
246.025
240.718
238.866
235.641
230.712
223.475
213.081
198.99
181.146
160.03
136.908
241.908
240.369
237.174
232.005
224.463
213.866
199.709
181.842
160.586
137.127
243.425
241.918
238.709
233.417
225.623
214.761
200.435
182.468
161.059
137.311
245.095
243.666
240.506
235.194
227.218
216.083
201.494
183.303
161.63
137.52
245.905
245.04
242.495
237.378
229.293
217.886
202.969
184.433
162.358
137.773
)
;

boundaryField
{
    left
    {
        type            zeroGradient;
    }
    right
    {
        type            fixedValue;
        value           uniform 0;
    }
    down
    {
        type            zeroGradient;
    }
    up
    {
        type            zeroGradient;
    }
    cylinder
    {
        type            zeroGradient;
    }
    defaultFaces
    {
        type            empty;
    }
}


// ************************************************************************* //
