/*--------------------------------*- C++ -*----------------------------------*\
  =========                 |
  \\      /  F ield         | OpenFOAM: The Open Source CFD Toolbox
   \\    /   O peration     | Website:  https://openfoam.org
    \\  /    A nd           | Version:  13
     \\/     M anipulation  |
\*---------------------------------------------------------------------------*/
FoamFile
{
    format      ascii;
    class       volScalarField;
    location    "0.405";
    object      strainRateViscosityModel:nu;
}
// * * * * * * * * * * * * * * * * * * * * * * * * * * * * * * * * * * * * * //

dimensions      [0 2 -1 0 0 0 0];

internalField   nonuniform List<scalar> 
440
(
9.41959
8.96967
8.54436
8.04232
7.58633
9.68997
9.35816
8.98172
8.48
7.8756
9.80075
9.53084
9.15876
8.58508
7.84828
9.84963
9.61818
9.25863
8.64757
7.86609
9.86917
9.65608
9.30593
8.68097
7.90881
1.29504
1.78801
2.04795
2.2985
2.36238
3.37582
3.30286
3.32073
3.43109
3.50198
5.89018
5.27216
4.93136
4.73384
4.76416
7.76967
6.9935
6.42117
5.90714
5.83033
8.82081
8.15124
7.55197
6.91867
6.87261
1.84974
0.836949
0.375641
0.0889907
0.026964
2.62315
0.919222
0.325903
0.0515882
0.0107551
3.52016
1.1703
0.28206
0.0347227
0.0103662
4.09605
1.46049
0.271604
0.0266243
0.0103092
4.60646
1.77799
0.333014
0.0163002
0.0138763
4.23306
1.7557
0.268957
0.0252729
0.154095
3.70772
1.81083
0.566913
0.320769
0.462366
4.91667
3.20678
1.21393
0.585566
0.617648
7.00973
4.29128
1.90104
0.933993
0.791246
8.27288
5.0796
2.49457
1.35332
0.984058
2.84866
3.68324
4.62079
5.50717
6.15103
3.68372
3.69622
3.77137
3.851
3.3668
8.2267
8.08673
7.79943
7.38529
6.34558
9.05296
8.99243
8.85912
8.6216
8.16029
9.60671
9.56995
9.48701
9.33804
9.11878
7.50385
8.01251
8.55929
9.01085
9.46431
7.79409
8.45151
8.98699
9.37784
9.70868
7.77896
8.55896
9.15936
9.54076
9.80945
7.81625
8.62754
9.25738
9.62276
9.85359
7.89135
8.67368
9.30536
9.65744
9.87034
2.50867
2.44998
2.25058
2.09694
2.02219
3.47405
3.42502
3.46231
3.67771
4.21945
4.64321
4.66444
5.05001
5.59477
6.4405
5.69125
5.8314
6.49955
7.18771
8.03934
6.75656
6.84396
7.58111
8.24295
8.93555
0.174998
0.0492346
0.241508
0.818764
2.00195
0.137037
0.0653018
0.195288
0.854766
2.65611
0.114013
0.0784251
0.16299
1.07923
3.4527
0.105211
0.0830749
0.174159
1.40286
3.95727
0.119969
0.0989486
0.276106
1.75311
4.37684
0.186387
0.135807
0.27086
1.88032
4.11092
0.319275
0.155454
0.231725
1.77095
3.85493
0.64064
0.318293
0.787842
3.02781
4.90328
2.26381
0.856671
1.52073
4.16038
6.96083
5.05151
2.56854
2.44129
5.04209
8.27892
5.95107
5.26933
4.40444
3.51161
2.7804
3.51966
3.98852
3.96911
3.87533
3.76342
6.32014
7.35232
7.77932
8.06802
8.21872
8.12156
8.60017
8.8496
8.98871
9.05209
9.11686
9.33776
9.48738
9.5705
9.60695
9.31063
7.91642
1.39848
3.62964
7.73633
9.08154
7.44028
3.20559
1.64039
6.7885
8.39818
6.57705
4.20799
1.00337
4.14707
6.81485
5.09399
3.45469
1.70044
1.03841
4.50296
3.14471
2.03842
1.37768
0.460022
2.59642
1.61857
1.00239
0.796744
0.926435
1.45429
0.778637
0.57911
0.61225
0.68523
0.799371
0.403388
0.586667
0.755227
0.828743
0.304862
0.500238
0.877907
1.04244
1.10405
0.157751
0.929994
1.27394
1.50898
1.56295
0.190935
0.359958
0.697436
0.772124
0.756274
0.395585
0.494241
0.56296
0.62247
0.626667
0.609862
0.636363
0.443746
0.465166
0.481497
0.956537
0.779105
0.391168
0.310506
0.34211
1.32141
0.826988
0.389248
0.171272
0.161004
1.10557
0.859154
1.11698
1.11978
1.05497
0.283535
0.47219
0.856728
0.923634
0.88892
9.19089
8.83827
7.75819
5.72946
3.5591
8.58689
7.72236
5.85089
3.49082
0.865637
0.966467
0.861202
1.02873
1.62017
2.6576
0.817557
0.772164
0.708136
0.825737
1.52282
1.05978
1.01101
0.848136
0.553924
0.735099
1.3722
1.33482
1.13748
0.788966
0.222664
1.83095
1.78443
1.5343
1.21985
0.590798
7.73586
3.62654
1.3998
7.91465
9.31077
6.78463
1.64006
3.20238
7.43716
9.08217
4.13311
1.01087
4.19394
6.57238
8.39972
1.03576
1.70641
3.43298
5.08467
6.82128
0.477164
1.37732
2.01451
3.12648
4.52575
1.30152
0.57067
0.556326
0.457703
0.178035
0.663876
0.320113
0.466946
0.523379
0.490757
0.380095
0.199884
0.370265
0.620075
0.80478
0.27629
0.0641546
0.328082
0.757427
1.21104
0.225718
0.0325591
0.289381
0.818838
1.5622
5.47837
2.47184
1.05244
0.976291
1.14292
2.88162
1.10513
0.736178
0.564191
0.249823
3.56847
5.73531
7.75938
8.8388
9.19104
0.841549
3.47072
5.84414
7.72099
8.58674
)
;

boundaryField
{
    left
    {
        type            calculated;
        value           nonuniform List<scalar> 
17
(
0.425215
1.08647
2.16883
3.90972
6.57948
0.287149
0.181126
0.138534
0.140842
0.199745
2.9554
2.05063
1.30753
0.788007
0.478027
6.97792
4.57865
)
;
    }
    right
    {
        type            calculated;
        value           nonuniform List<scalar> 
17
(
1.05532
0.890162
0.757615
0.628093
0.481843
0.339171
0.154244
0.0235755
0.010376
0.0101645
0.0102043
0.017861
0.19424
0.519737
0.657295
0.808308
0.975618
)
;
    }
    down
    {
        type            calculated;
        value           nonuniform List<scalar> 
20
(
5.9925
3.00732
1.16151
1.05909
1.85279
4.27012
6.38321
8.13086
9.01546
9.30902
9.30885
9.01482
8.12939
6.37906
4.26341
1.83121
0.9339
1.18382
1.17771
1.10441
)
;
    }
    up
    {
        type            calculated;
        value           nonuniform List<scalar> 
20
(
8.54858
5.40708
2.72288
1.49641
1.04808
9.69562
9.66614
9.59856
9.47419
9.29336
9.29628
9.4764
9.60015
9.66724
9.69603
5.69987
3.17067
2.68097
5.39744
8.56515
)
;
    }
    cylinder
    {
        type            calculated;
        value           nonuniform List<scalar> 
40
(
1.35606
3.57926
6.11673
7.96065
8.95728
9.50518
9.74578
9.84079
9.88145
9.89746
9.5476
9.76287
9.84856
9.88496
9.89849
2.25751
4.49487
6.68685
8.23245
9.07012
3.04359
1.84728
1.08308
0.43248
0.600037
9.51887
9.33163
8.74185
7.26897
4.98542
9.5187
9.3309
8.73982
7.26077
4.95675
2.96495
1.73076
1.07039
0.66719
0.105181
)
;
    }
    defaultFaces
    {
        type            empty;
    }
}


// ************************************************************************* //
