/*--------------------------------*- C++ -*----------------------------------*\
  =========                 |
  \\      /  F ield         | OpenFOAM: The Open Source CFD Toolbox
   \\    /   O peration     | Website:  https://openfoam.org
    \\  /    A nd           | Version:  13
     \\/     M anipulation  |
\*---------------------------------------------------------------------------*/
FoamFile
{
    format      ascii;
    class       volScalarField;
    location    "0.14";
    object      p;
}
// * * * * * * * * * * * * * * * * * * * * * * * * * * * * * * * * * * * * * //

dimensions      [0 2 -2 0 0 0 0];

internalField   nonuniform List<scalar> 
1800
(
6.44175
8.54541
10.6943
12.1188
12.9478
13.3505
13.4698
13.296
12.0301
7.92407
10.2914
12.7632
15.2635
16.9429
17.9938
18.6493
19.0946
19.3216
18.5822
15.8903
16.6808
19.302
21.9706
23.8297
25.0852
25.9613
26.6054
26.9806
26.4994
24.658
25.6736
28.2402
30.8853
32.7964
34.1581
35.1631
35.921
36.3675
35.9547
34.2629
36.7313
39.09
41.5397
43.3487
44.6703
45.6636
46.4149
46.8605
46.5058
44.9453
49.4089
51.4599
53.6015
55.2058
56.3947
57.2948
57.9747
58.3828
58.0986
56.7358
63.3595
65.0311
66.7854
68.1158
69.1163
69.8842
70.4739
70.8491
70.672
69.581
78.2887
79.5295
80.8396
81.8478
82.6224
83.235
83.7278
84.0813
84.0465
83.3084
93.9116
94.6908
95.5216
96.1757
96.6975
97.134
97.5157
97.838
97.947
97.6113
109.946
110.251
110.582
110.856
111.093
111.313
111.529
111.742
111.902
111.928
0.103571
-0.162644
-0.00664155
0.361081
0.81215
1.23894
1.55853
1.77884
1.96209
2.12761
0.438645
-0.168758
-0.427089
-0.287986
0.0921927
0.45078
0.723542
0.996932
1.29712
1.56443
1.24012
0.254796
-0.617868
-0.800484
-0.536839
-0.292824
-0.0786674
0.23956
0.628714
0.995253
1.41669
0.32701
-0.758637
-1.09093
-0.967734
-0.868479
-0.738646
-0.437261
-0.00440278
0.492929
0.935786
0.0487189
-0.767466
-1.06958
-1.09372
-1.13043
-1.08618
-0.840345
-0.3739
0.312831
0.28095
-0.173656
-0.4993
-0.635185
-0.690415
-0.761709
-0.76082
-0.584059
-0.0893711
0.83396
0.0144949
0.08563
0.298659
0.447902
0.522927
0.537541
0.558151
0.695781
1.24711
2.46848
0.554335
1.15431
1.89004
2.3978
2.72374
2.92939
3.06201
3.25416
3.9638
5.61664
2.03876
3.15003
4.40203
5.32384
5.99041
6.47521
6.80151
7.1217
8.08999
10.3656
4.30237
5.94377
7.76039
9.13414
10.1526
10.9049
11.4144
11.849
12.8897
15.0373
2.85266
3.01375
2.95869
2.74334
2.24992
1.79174
1.38664
0.996572
0.60118
0.201578
2.46888
2.95163
2.81806
2.62789
2.15858
1.72548
1.34193
0.967861
0.585312
0.196545
1.96497
2.89551
2.68627
2.50549
2.06836
1.66278
1.30056
0.941789
0.571069
0.192082
1.33384
2.80635
2.57098
2.37966
1.97843
1.60276
1.26238
0.918356
0.55847
0.188191
0.650667
2.64347
2.46626
2.25442
1.8887
1.5447
1.22725
0.897578
0.547535
0.184877
0.0982285
2.39213
2.35573
2.13185
1.79981
1.4883
1.19507
0.879495
0.53829
0.182154
-0.0281432
2.07939
2.22236
2.01002
1.71224
1.4338
1.16586
0.864174
0.530766
0.180048
0.720881
1.78707
2.04951
1.87621
1.6223
1.38103
1.13976
0.851712
0.525
0.178592
2.99168
1.68221
1.80704
1.69657
1.51715
1.3282
1.11708
0.842297
0.521051
0.177849
7.23621
2.07988
1.50894
1.44314
1.38098
1.27159
1.09723
0.835731
0.51884
0.177866
10.602
3.36535
1.6451
1.341
1.26471
1.20503
1.06745
0.820988
0.511383
0.176993
12.4723
3.42382
1.18701
0.869701
1.01453
1.12272
1.03798
0.804051
0.501722
0.175865
13.5901
3.52868
1.06679
0.676896
0.947226
1.14119
1.05729
0.809842
0.501648
0.175263
14.8332
4.94125
1.73363
1.09394
1.2058
1.2667
1.09498
0.818237
0.502077
0.169293
16.9616
7.63196
3.16358
2.0384
1.72645
1.4653
1.13935
0.822068
0.498739
0.159718
19.8773
10.4847
4.9495
3.18354
2.36189
1.71059
1.19694
0.824151
0.490516
0.148865
22.4231
12.6363
6.59946
4.28674
3.00761
1.98113
1.27272
0.833541
0.484452
0.140941
23.7179
13.8579
7.86036
5.26084
3.61688
2.26078
1.36738
0.855059
0.484509
0.137578
23.6585
14.2444
8.7393
6.12797
4.20005
2.55305
1.4871
0.895302
0.495226
0.139851
23.1052
14.4684
9.50535
6.97166
4.78736
2.87355
1.64758
0.967869
0.5262
0.149393
112.483
98.5298
84.7576
71.7447
59.7973
49.0083
39.4163
30.7258
20.7016
5.60069
113.463
100.168
86.6609
73.6485
61.6004
50.7156
41.1796
32.9188
24.2508
12.1383
113.998
100.905
88.0177
75.6855
64.1425
53.5486
44.1198
35.9352
28.1543
19.0222
115.206
103.459
91.4943
79.6564
68.2925
57.6908
48.0531
39.4507
31.7432
24.4789
115.783
104.768
93.8421
83.1458
72.7925
62.86
53.3872
44.4642
36.6328
30.4428
116.132
105.401
94.8899
84.7242
75.0001
65.7674
57.0044
48.7577
41.7079
36.6796
116.363
105.8
95.4841
85.5479
76.1016
67.2185
58.9079
51.2393
44.8845
40.7636
116.463
105.937
95.6668
85.7913
76.4335
67.6844
59.5783
52.1837
46.0669
42.1091
116.412
105.722
95.2922
85.269
75.786
66.9501
58.8175
51.4464
45.2221
40.7708
116.289
105.338
94.6461
84.3644
74.6351
65.5816
57.2843
49.7881
43.279
38.0859
234.947
230.601
229.044
228.609
228.522
228.775
229.509
230.889
233.04
235.178
226.362
223.357
222.315
222.279
222.507
222.993
223.923
225.53
227.999
230.473
216.83
214.665
213.897
214.024
214.456
215.16
216.285
218.053
220.665
223.261
206.508
204.488
203.787
203.984
204.529
205.358
206.582
208.389
210.956
213.474
195.172
193.268
192.615
192.804
193.336
194.148
195.324
197.018
199.371
201.66
182.793
181.073
180.481
180.623
181.077
181.788
182.823
184.3
186.329
188.293
169.438
167.978
167.485
167.589
167.945
168.518
169.357
170.55
172.177
173.747
155.295
154.18
153.826
153.904
154.16
154.573
155.18
156.042
157.213
158.341
140.678
139.965
139.758
139.808
139.954
140.189
140.54
141.042
141.724
142.38
126.144
125.801
125.661
125.615
125.603
125.626
125.693
125.813
125.99
126.166
247.119
247.338
247.595
247.846
248.146
248.588
249.086
249.385
249.323
248.795
247.31
247.61
247.98
248.297
248.521
248.816
249.173
249.092
248.306
247.32
247.436
247.812
248.222
248.536
248.656
248.77
248.961
248.607
247.346
246.155
247.401
247.896
248.306
248.54
248.522
248.427
248.398
247.966
246.796
245.7
246.958
247.614
247.998
248.109
247.974
247.737
247.546
247.184
246.45
245.701
245.752
246.606
246.954
246.933
246.733
246.486
246.304
246.145
245.945
245.679
243.383
244.494
244.855
244.764
244.579
244.44
244.423
244.571
244.9
245.15
239.475
240.975
241.468
241.426
241.363
241.431
241.681
242.188
243.013
243.757
233.985
236.052
236.779
236.864
237.003
237.359
237.954
238.865
240.175
241.389
228.614
230.491
231.25
231.428
231.742
232.362
233.307
234.66
236.508
238.216
248.014
247.759
247.728
247.445
247.184
246.877
246.498
246.276
246.199
246.328
247.976
247.751
247.718
247.443
247.187
246.893
246.538
246.328
246.105
246.452
247.95
247.745
247.712
247.44
247.187
246.906
246.581
246.355
245.97
246.639
247.934
247.74
247.708
247.435
247.185
246.919
246.621
246.344
245.832
246.899
247.928
247.737
247.707
247.428
247.182
246.93
246.648
246.295
245.737
247.165
247.931
247.734
247.707
247.42
247.178
246.937
246.655
246.225
245.707
247.261
247.942
247.733
247.709
247.41
247.173
246.937
246.642
246.153
245.716
246.894
247.961
247.732
247.711
247.4
247.167
246.934
246.621
246.101
245.684
245.623
247.99
247.733
247.714
247.389
247.16
246.936
246.631
246.107
245.454
242.823
248.026
247.737
247.716
247.378
247.155
246.96
246.705
246.165
244.731
238.089
248.08
247.748
247.694
247.37
247.138
246.909
246.526
245.666
243.057
234.442
248.193
247.763
247.71
247.378
247.145
247.003
246.791
245.883
242.747
232.428
248.422
247.793
247.736
247.374
247.113
247.037
246.977
245.995
242.577
231.196
248.893
247.884
247.774
247.36
246.998
246.814
246.662
245.495
241.362
230.098
249.794
248.042
247.837
247.273
246.775
246.288
245.717
244.166
238.925
228.292
251.585
248.159
247.923
247.149
246.498
245.604
244.462
242.327
236.156
225.681
255.43
248.388
248.009
247.043
246.189
244.899
243.236
240.551
233.955
223.269
263.718
249.445
248.179
246.939
245.866
244.241
242.177
239.177
232.647
221.977
281.289
252.128
248.718
246.912
245.555
243.633
241.266
238.223
232.184
222.001
307.279
256.157
250.134
247.062
245.298
243.063
240.413
237.422
231.917
222.529
237.191
221.827
211.193
201.869
191.702
180.393
167.994
154.618
140.567
126.429
230.746
218.434
209.284
200.57
190.638
179.403
167.058
153.805
140.076
126.595
224.202
214.834
206.667
198.151
188.441
177.601
165.845
153.34
140.315
127.129
219.159
211.649
203.658
194.806
184.955
174.177
162.669
150.712
138.638
126.794
213.801
207.388
199.371
190.255
180.568
170.418
159.859
148.987
137.927
126.831
208.129
202.816
195.545
187.068
178.068
168.612
158.692
148.369
137.746
126.955
204.279
199.842
193.257
185.364
176.835
167.751
158.13
148.054
137.641
127.027
202.986
198.738
192.4
184.792
176.483
167.548
158.029
148.024
137.663
127.091
204.313
199.608
193.165
185.585
177.256
168.242
158.605
148.457
137.94
127.205
206.985
201.56
194.831
187.125
178.633
169.403
159.521
149.116
138.338
127.342
112.821
112.992
113.077
112.928
112.421
112.06
111.876
112.161
112.152
111.903
90.2426
90.7077
90.9276
90.4946
89.0619
87.9754
87.3549
88.0174
88.0537
87.4652
69.396
70.0263
70.2889
69.6225
67.6832
65.971
64.9512
65.5006
65.8037
65.2456
51.2776
51.8867
52.0768
51.2538
49.2756
47.1081
45.777
45.8126
46.5507
46.3133
36.6377
37.046
37.0937
36.212
34.4202
32.1018
30.4556
29.8895
30.6974
30.8804
25.6039
25.6964
25.5634
24.6426
23.0627
21.0253
19.2308
18.2876
18.5417
19.0386
17.7605
17.5707
17.3218
16.3454
14.9346
13.4105
11.9155
10.8477
10.5026
10.8668
12.348
12.0885
11.9558
10.9795
9.68516
8.65166
7.74727
6.9078
6.31114
6.21944
8.67454
8.5147
8.6972
7.84983
6.71589
6.09395
5.74692
5.37785
4.89483
4.50387
6.65934
6.45024
6.77234
6.06821
5.21273
4.9178
4.92938
4.93356
4.79033
4.38828
5.79476
5.54417
5.64021
4.99162
4.46118
4.40285
4.55746
4.70826
4.83484
4.89035
5.32378
5.18628
4.94255
4.32284
4.05211
4.15155
4.36779
4.54074
4.66044
4.74446
4.92546
4.85778
4.44349
3.9308
3.83822
4.0232
4.26312
4.44707
4.56436
4.62205
4.46435
4.38993
3.99049
3.67186
3.70945
3.93389
4.15838
4.32064
4.4199
4.45981
3.90503
3.79657
3.54369
3.45652
3.59612
3.82308
4.01834
4.15932
4.24248
4.26664
3.24326
3.15354
3.12513
3.24718
3.45955
3.66775
3.83488
3.95658
4.02678
4.04256
2.54012
2.57795
2.73475
2.9835
3.22759
3.43216
3.59399
3.71508
3.78708
3.80551
1.9211
2.04436
2.29603
2.5891
2.85313
3.08092
3.27248
3.42065
3.50931
3.53807
1.27906
1.38649
1.65093
1.98367
2.3082
2.60041
2.85072
3.0334
3.13352
3.17652
0.6102
0.519369
0.753955
1.15548
1.57966
1.9689
2.28081
2.48354
2.59975
2.68314
4.22032
4.28627
4.16577
3.81422
3.12684
2.43351
1.81
1.25264
0.732674
0.254682
4.28588
4.24084
4.11988
3.79457
3.07725
2.3768
1.76807
1.22699
0.719998
0.252797
4.30076
4.11428
4.01039
3.74098
3.02443
2.32246
1.72872
1.20338
0.708486
0.249209
4.24816
3.93369
3.85849
3.64338
2.96133
2.26933
1.69183
1.18172
0.698006
0.243823
4.13382
3.73963
3.69615
3.50102
2.87902
2.2139
1.65626
1.16134
0.688181
0.237306
3.9786
3.56992
3.55209
3.33805
2.77569
2.15363
1.62185
1.14273
0.679721
0.231211
3.80574
3.43245
3.43184
3.18697
2.65944
2.08554
1.58368
1.12242
0.670187
0.225537
3.62026
3.31477
3.32514
3.06166
2.54534
2.01117
1.53695
1.09441
0.655618
0.219525
3.40838
3.20345
3.21638
2.95418
2.4409
1.93604
1.48611
1.06159
0.637579
0.213405
3.1562
3.09927
3.09453
2.851
2.34351
1.86219
1.43489
1.02794
0.618673
0.2072
6.00114
4.54042
3.84923
3.48018
2.96195
2.38361
1.79327
1.24276
0.72232
0.246752
5.19398
4.32105
3.89058
3.54211
3.00639
2.40611
1.8047
1.24838
0.726732
0.24879
4.52116
4.23321
3.95478
3.61015
3.04632
2.42487
1.8144
1.25408
0.730637
0.250978
4.19959
4.23749
4.04161
3.68631
3.0851
2.44096
1.82292
1.25985
0.734692
0.253012
4.18214
4.29146
4.14646
3.77277
3.12513
2.45425
1.82929
1.26478
0.738549
0.255066
112.65
89.5771
68.519
50.7408
36.7193
26.3922
19.2159
14.3364
11.1523
9.3368
112.43
89.0164
67.8156
50.0104
35.9219
25.3926
17.9156
12.8042
9.65731
8.15522
112.245
88.5378
67.1803
49.2738
35.0152
24.224
16.4989
11.2723
8.12168
6.65973
112.035
87.9649
66.3415
48.2108
33.6919
22.6308
14.7286
9.48997
6.39709
5.01442
111.78
87.2368
65.2122
46.7375
31.8913
20.5626
12.5579
7.51347
5.02367
4.20261
244.458
244.495
244.615
244.785
244.991
244.99
244.485
243.822
243.933
243.695
244.671
244.741
244.852
245.039
245.309
245.482
245.268
244.655
244.42
244.287
244.871
244.917
245.027
245.221
245.508
245.772
245.755
245.275
244.86
244.787
245.115
245.146
245.242
245.414
245.669
245.957
246.07
245.819
245.44
245.355
245.378
245.395
245.476
245.622
245.83
246.087
246.293
246.308
246.153
246.052
245.637
245.649
245.718
245.84
246.009
246.232
246.499
246.742
246.85
246.838
245.868
245.884
245.962
246.097
246.28
246.512
246.807
247.152
247.442
247.561
246.117
246.14
246.229
246.409
246.661
246.966
247.322
247.713
248.053
248.22
246.459
246.507
246.601
246.808
247.148
247.58
248.066
248.549
248.863
248.831
246.833
246.952
247.089
247.298
247.661
248.172
248.732
249.231
249.519
249.319
137.138
136.878
136.855
137.118
136.9
136.502
135.96
135.789
135.861
136.026
161.592
160.993
161.014
161.652
161
159.877
158.412
157.956
158.163
158.623
183.84
183.271
183.557
184.081
183.031
181.285
179.316
178.628
178.878
179.503
202.811
202.561
203.279
203.29
201.931
199.732
197.725
196.882
197.06
197.665
218.287
218.457
219.242
218.653
216.982
214.636
212.815
211.913
211.95
212.356
230.174
230.653
230.883
229.921
228.109
226.046
224.435
223.492
223.35
223.443
238.385
238.72
238.353
237.275
235.774
234.229
232.784
231.781
231.527
231.343
243.05
242.926
242.309
241.474
240.58
239.537
238.207
237.201
237.072
236.827
244.778
244.353
243.859
243.506
243.187
242.574
241.413
240.537
240.73
240.586
244.922
244.494
244.344
244.368
244.421
244.159
243.297
242.567
242.9
242.705
255.762
247.913
248.58
247.293
246.938
246.377
245.772
245.357
245.208
245.235
252.943
247.864
248.401
247.299
246.985
246.431
245.796
245.397
245.295
245.211
251.049
247.879
248.192
247.318
247.032
246.487
245.847
245.5
245.472
245.247
249.922
247.892
247.986
247.346
247.074
246.548
245.934
245.654
245.693
245.354
249.237
247.867
247.872
247.381
247.108
246.617
246.06
245.827
245.904
245.511
248.78
247.82
247.822
247.409
247.128
246.691
246.201
245.973
246.063
245.685
248.475
247.794
247.798
247.424
247.136
246.759
246.317
246.072
246.163
245.846
248.278
247.783
247.776
247.435
247.149
246.805
246.39
246.132
246.219
245.989
248.152
247.775
247.757
247.441
247.166
246.835
246.432
246.175
246.245
246.117
248.069
247.767
247.741
247.444
247.178
246.858
246.463
246.222
246.242
246.227
318.277
254.742
250.893
247.854
247.096
246.495
246.053
245.674
244.954
243.404
296.546
252.357
249.798
247.646
247.004
246.45
245.998
245.635
245.165
244.209
278.099
250.204
249.228
247.496
246.953
246.415
245.939
245.571
245.245
244.884
266.688
248.869
248.925
247.391
246.925
246.387
245.875
245.485
245.234
245.213
259.914
248.156
248.716
247.307
246.909
246.362
245.803
245.38
245.179
245.245
239.983
238.133
234.916
230.005
222.796
212.434
198.377
180.566
159.483
136.395
241.167
239.631
236.452
231.31
223.8
213.236
199.11
181.271
160.045
136.616
242.68
241.181
237.995
232.734
224.974
214.147
199.85
181.908
160.524
136.802
244.343
242.932
239.799
234.518
226.576
215.474
200.915
182.748
161.097
137.011
245.136
244.294
241.783
236.704
228.653
217.279
202.39
183.878
161.825
137.264
)
;

boundaryField
{
    left
    {
        type            zeroGradient;
    }
    right
    {
        type            fixedValue;
        value           uniform 0;
    }
    down
    {
        type            zeroGradient;
    }
    up
    {
        type            zeroGradient;
    }
    cylinder
    {
        type            zeroGradient;
    }
    defaultFaces
    {
        type            empty;
    }
}


// ************************************************************************* //
