/*--------------------------------*- C++ -*----------------------------------*\
  =========                 |
  \\      /  F ield         | OpenFOAM: The Open Source CFD Toolbox
   \\    /   O peration     | Website:  https://openfoam.org
    \\  /    A nd           | Version:  13
     \\/     M anipulation  |
\*---------------------------------------------------------------------------*/
FoamFile
{
    format      ascii;
    class       surfaceScalarField;
    location    "3.1";
    object      phi;
}
// * * * * * * * * * * * * * * * * * * * * * * * * * * * * * * * * * * * * * //

dimensions      [0 3 -1 0 0 0 0];

internalField   nonuniform List<scalar> 
3485
(
-0.00185976
0.003907
-0.00204724
-0.00406467
0.00749707
-0.00529216
-0.00431988
0.00792435
-0.00766914
-0.000919048
0.0054333
-0.00883414
0.00755482
-0.000109294
-0.00836458
0.0220639
-0.00856317
-0.00594591
0.0434226
-0.0200406
-0.00131812
0.0723182
-0.0340813
0.00518573
0.108931
-0.0502078
0.0135948
-0.0582967
0.0186822
0.148546
-0.000826728
0.00473373
-0.000772464
0.00744281
0.0022631
0.00488878
0.0100717
-0.0023753
0.0239871
-0.0140247
0.0449415
-0.0295176
0.0728309
-0.04793
0.106813
-0.0680638
0.145282
-0.0886762
-0.104715
0.1917
0.000363698
0.00437003
0.00335537
0.00445113
0.0109119
-0.0026677
0.0246924
-0.0161559
0.0456034
-0.0349357
0.073449
-0.0573631
0.106845
-0.0813263
0.143484
-0.104702
0.180751
-0.125944
-0.143526
0.219563
0.00127007
0.00309996
0.00710728
-0.00138608
0.0193847
-0.0149452
0.0391845
-0.0359557
0.0661916
-0.0619428
0.0985173
-0.0896888
0.133262
-0.116071
0.16739
-0.13883
0.198294
-0.156848
-0.169941
0.22471
0.00229523
0.000804734
0.0111932
-0.010284
0.0281843
-0.0319363
0.0530779
-0.0608493
0.0835892
-0.092454
0.11611
-0.122209
0.147037
-0.146999
0.173763
-0.165555
0.194993
-0.178079
-0.186017
0.211069
0.00353089
-0.00272616
0.015624
-0.0223771
0.0366147
-0.052927
0.0642335
-0.0884681
0.0942807
-0.122501
0.122552
-0.150481
0.146273
-0.17072
0.164461
-0.183743
0.177605
-0.191223
-0.194959
0.186548
0.00487108
-0.00759724
0.0197792
-0.0372853
0.0430371
-0.0761849
0.0701872
-0.115618
0.0962752
-0.148589
0.11803
-0.172236
0.134386
-0.187076
0.145899
-0.195256
0.153756
-0.19908
-0.200464
0.15926
0.00610872
-0.013706
0.0228209
-0.0539975
0.0460305
-0.0993945
0.0699969
-0.139585
0.0904772
-0.169069
0.105822
-0.18758
0.116346
-0.1976
0.123216
-0.202126
0.127671
-0.203535
-0.203275
0.130482
0.00702465
-0.0207306
0.024146
-0.0711188
0.0452451
-0.120494
0.0646596
-0.158999
0.0795532
-0.183963
0.0896309
-0.197658
0.09589
-0.203859
0.0996033
-0.205839
0.10176
-0.205692
-0.204475
0.10296
0.00746778
-0.0281984
0.0236104
-0.0872615
0.0413409
-0.138224
0.0559566
-0.173615
0.0659681
-0.193975
0.0718985
-0.203588
0.0749638
-0.206924
0.0762845
-0.20716
0.0766005
-0.206008
0.0762229
-0.204098
-0.00380515
0.0212957
-0.0174906
-0.012783
0.0441515
-0.0351736
-0.0246889
0.0541059
-0.0421999
-0.0379947
0.0570984
-0.0437927
-0.0518674
0.0570468
-0.0431741
-0.0659261
0.0558681
-0.0418094
-0.0799892
0.0542231
-0.0401601
-0.09393
0.0522434
-0.0383025
-0.107631
0.0499388
-0.0362375
0.0476437
-0.121032
-0.0342431
-0.00105614
0.0223519
-0.0057083
0.0488037
-0.0134313
0.0618289
-0.023007
0.0666741
-0.0334088
0.0674486
-0.0440151
0.0664744
-0.0545034
0.0647115
-0.0646853
0.0624254
-0.0743996
0.059653
0.0566754
-0.0834313
0.0019643
0.0203876
0.00284845
0.0479195
0.000915311
0.063762
-0.00338635
0.0709758
-0.00900293
0.0730652
-0.0150677
0.0725392
-0.0210616
0.0707053
-0.0267123
0.0680761
-0.0318388
0.0647795
0.0609606
-0.036124
0.00435269
0.0160349
0.0106871
0.0415851
0.0153587
0.0590904
0.0174571
0.0688774
0.0175354
0.0729869
0.0165316
0.073543
0.0152037
0.0720332
0.0140156
0.0692642
0.0132191
0.065576
0.0610948
0.0130849
0.00543281
0.0106021
0.0157133
0.0313046
0.026466
0.0483377
0.0354623
0.0598811
0.0422381
0.066211
0.0472802
0.068501
0.0513417
0.0679717
0.0550742
0.0655318
0.0589111
0.061739
0.0566133
0.0633926
0.00501707
0.00558499
0.0163346
0.0199871
0.0304516
0.0342206
0.0447165
0.0456163
0.0577303
0.0531972
0.0691233
0.057108
0.0791179
0.0579771
0.088148
0.0565017
0.0965806
0.0533064
0.0483497
0.104844
0.00358022
0.00200477
0.0129789
0.0105884
0.0263804
0.0208191
0.041788
0.0302087
0.0576412
0.037344
0.0730134
0.0417358
0.0875108
0.0434797
0.101065
0.0429476
0.11371
0.0406608
0.0362696
0.125791
0.00178105
0.000223716
0.00753449
0.00483497
0.01697
0.0113836
0.0292264
0.0179523
0.0432631
0.0233074
0.0581762
0.0268227
0.0733022
0.0283537
0.0882031
0.0280467
0.102716
0.026148
0.0215675
0.117418
-0.000112277
0.000335993
0.00137565
0.00334704
0.0053883
0.00737091
0.0120813
0.0112593
0.0212026
0.0141861
0.0323598
0.0156654
0.0452183
0.0154952
0.0595531
0.0137118
0.0754454
0.0102557
0.0038
0.0932129
-0.00171125
-0.00365637
-0.0039546
-0.00152945
0.00429207
0.0140116
0.0281887
0.0470863
0.0709368
0.093419
-0.177986
0.25895
-0.201996
-0.120643
-0.0994627
0.0421193
-0.0116305
-0.324185
0.215172
0.0734678
-0.368142
0.283044
0.128548
-0.355207
0.300126
0.163363
-0.279509
0.244694
0.185757
-0.2148
0.192406
0.199206
-0.149879
0.13643
0.207699
-0.115671
0.107179
-0.0726745
0.0690794
-0.122288
0.297807
-0.0725755
-0.149175
0.0176791
-0.414439
0.0949338
-0.445397
0.144275
-0.404548
0.174294
-0.309528
0.192701
-0.233208
0.203511
-0.160689
0.210318
-0.122479
-0.0755351
-0.0586003
0.320283
-0.0151467
-0.192628
0.0549426
-0.484529
0.119542
-0.509996
0.161631
-0.446637
0.186511
-0.334408
0.200652
-0.247349
0.208481
-0.168518
0.213312
-0.12731
-0.077577
0.00536987
0.327998
0.0394084
-0.226667
0.0943568
-0.539477
0.144975
-0.560613
0.178607
-0.48027
0.198434
-0.354234
0.208734
-0.257649
0.213752
-0.173536
0.216557
-0.130114
-0.0787829
0.0631489
0.328242
0.0901585
-0.253677
0.132089
-0.581408
0.169852
-0.598377
0.194374
-0.504792
0.209027
-0.368887
0.216062
-0.264684
0.218803
-0.176278
0.219823
-0.131134
-0.0792482
0.113904
0.319182
0.134797
-0.274569
0.165405
-0.612016
0.192415
-0.625387
0.208502
-0.520879
0.21798
-0.378364
0.222122
-0.268826
0.22317
-0.177326
0.222843
-0.130807
-0.0791806
0.151802
0.293171
0.171518
-0.294286
0.192952
-0.63345
0.211104
-0.643538
0.220449
-0.530224
0.225318
-0.383233
0.226817
-0.270325
0.226593
-0.177102
0.225386
-0.1296
-0.0788594
0.174388
0.236201
0.199927
-0.319825
0.214224
-0.647748
0.225272
-0.654585
0.229822
-0.534774
0.231132
-0.384544
0.230308
-0.2695
0.229043
-0.175837
0.227321
-0.127878
-0.0785723
0.187096
0.142318
0.220737
-0.353465
0.229041
-0.656052
0.234744
-0.660289
0.236435
-0.536465
0.235474
-0.383582
0.232821
-0.266848
0.230663
-0.17368
0.228638
-0.125853
-0.0785601
0.199145
0.0365918
0.233913
-0.388233
0.237293
-0.659432
0.240306
-0.663301
0.240603
-0.536762
0.23847
-0.38145
0.234561
-0.262939
0.231663
-0.170781
0.229436
-0.123626
-0.0789915
0.58423
-0.0728811
-0.474757
0.649698
-0.453702
0.626503
-0.636236
0.569107
-0.605906
0.505965
-0.47362
0.452732
-0.328217
0.411342
-0.221548
0.383146
-0.142585
0.363272
-0.103752
-0.0682759
0.746537
-0.13704
-0.682379
0.726834
-0.433999
0.654026
-0.563428
0.575648
-0.527528
0.50944
-0.407411
0.457407
-0.276185
0.416578
-0.180719
0.387371
-0.113378
0.365829
-0.0822101
-0.0562332
0.771351
-0.166944
-0.741446
0.717352
-0.38
0.649156
-0.495232
0.588387
-0.466759
0.529583
-0.348607
0.474796
-0.221398
0.428535
-0.134458
0.394702
-0.0795455
0.369657
-0.0571647
-0.0422878
0.754927
-0.179454
-0.742417
0.712546
-0.337619
0.655896
-0.438582
0.593367
-0.40423
0.528236
-0.283476
0.469515
-0.162677
0.423137
-0.0880804
0.391041
-0.0474491
0.367695
-0.0338188
-0.028796
0.736585
-0.185127
-0.730912
0.703607
-0.304641
0.650558
-0.385533
0.588671
-0.342343
0.524516
-0.219321
0.466052
-0.104212
0.419535
-0.0415633
0.387562
-0.0154766
0.364796
-0.0110531
-0.0156422
0.720334
-0.185526
-0.719934
0.691918
-0.276225
0.63563
-0.329245
0.564596
-0.27131
0.495654
-0.150379
0.439898
-0.0484557
0.39935
-0.00101607
0.373042
0.0108323
0.354857
0.00713149
-0.004689
0.699011
-0.176475
-0.708061
0.660032
-0.237247
0.585385
-0.254598
0.500856
-0.186781
0.431694
-0.0812169
0.386413
-0.00317457
0.358825
0.0265714
0.343302
0.0263553
0.333153
0.0172803
0.00238896
0.63934
-0.143334
-0.672481
0.569242
-0.167149
0.467532
-0.152888
0.374831
-0.0940791
0.318117
-0.0245034
0.294713
0.0202299
0.288402
0.0328825
0.288111
0.0266462
0.288334
0.0170568
0.00452621
0.469761
-0.0729481
-0.540147
0.366281
-0.0636686
0.258155
-0.0447627
0.186095
-0.0220191
0.161166
0.000425735
0.166932
0.0144636
0.182041
0.0177736
0.195075
0.0136127
0.20355
0.0085819
0.00263248
0.145263
-0.218211
0.0815946
0.0368319
0.0148128
0.0152385
0.0297021
0.0474757
0.0610883
0.0696702
0.55858
0.0646948
-0.547052
0.570418
0.0911219
0.58585
0.115051
0.601893
0.143217
0.619288
0.169152
0.635743
0.194614
0.638597
0.221856
0.62526
0.2329
0.558879
0.25808
0.232668
0.538313
0.0531205
-0.526738
0.551706
0.0777288
0.568094
0.0986621
0.58874
0.122571
0.610294
0.147599
0.637322
0.167585
0.660412
0.198766
0.682574
0.210738
0.694277
0.246378
0.244566
0.523573
0.0432994
-0.513752
0.537242
0.0640598
0.552784
0.08312
0.572893
0.102462
0.5951
0.125392
0.621003
0.141682
0.650921
0.168848
0.680189
0.18147
0.716366
0.2102
0.219486
0.512368
0.0343173
-0.503386
0.525597
0.0508311
0.540819
0.0678975
0.559621
0.0836597
0.581999
0.103014
0.606396
0.117285
0.637082
0.138163
0.667612
0.15094
0.70637
0.171442
0.183439
0.503063
0.0253218
-0.494067
0.51567
0.0382236
0.530971
0.0525968
0.54922
0.0654103
0.571445
0.0807901
0.59572
0.0930101
0.625361
0.108522
0.656301
0.12
0.693098
0.134644
0.145625
0.494873
0.016248
-0.485799
0.507036
0.0260598
0.522355
0.0372783
0.540519
0.0472463
0.562499
0.0588095
0.587017
0.0684926
0.615812
0.0797269
0.646916
0.088896
0.682286
0.0992739
0.107977
0.484694
0.00751787
-0.475964
0.496369
0.0143855
0.51137
0.0222771
0.529377
0.0292391
0.55103
0.0371562
0.575639
0.0438836
0.604028
0.0513384
0.63529
0.0576339
0.670347
0.0642163
0.070263
0.460602
0.000245241
-0.45333
0.470749
0.00423871
0.484289
0.00873762
0.50092
0.0126078
0.521119
0.0169572
0.544489
0.0205137
0.571486
0.0243417
0.601663
0.0274566
0.635476
0.0304035
0.0332575
0.38784
-0.00284522
-0.384749
0.393481
-0.0014024
0.402165
5.28846e-05
0.413431
0.00134242
0.42772
0.00266818
0.444617
0.00361689
0.464421
0.00453727
0.486849
0.00502845
0.511853
0.00539977
0.00496363
0.192004
-0.194849
0.190602
0.190655
0.191997
0.194665
0.198282
0.202819
0.207848
0.213248
0.0731456
0.149926
-0.13806
-0.0850121
0.0622621
0.152102
-0.141219
0.0522382
0.154729
-0.144705
0.0425281
0.158263
-0.148553
0.0328715
0.162042
-0.152385
0.0233506
0.164949
-0.155428
0.0143803
0.164272
-0.155302
0.00677485
0.153988
-0.146383
0.00166603
0.123435
-0.118326
0.0581991
-0.0565331
0.0692689
0.160515
-0.0798575
0.0588349
0.162536
0.0487507
0.164813
0.0390212
0.167992
0.029538
0.171525
0.0203981
0.174089
0.0120469
0.172623
0.00528919
0.160746
0.0010816
0.127642
0.0592807
0.0622005
0.169939
-0.0716245
0.0524865
0.17225
0.0428991
0.174401
0.0336298
0.177262
0.0247108
0.180444
0.0163014
0.182498
0.00886305
0.180062
0.00324367
0.166365
0.000246707
0.130639
0.0595274
0.050902
0.177948
-0.0589113
0.0425073
0.180645
0.0340312
0.182877
0.0257363
0.185556
0.0177881
0.188393
0.0104644
0.189822
0.00435549
0.186171
0.000239285
0.170481
-0.00086064
0.131739
0.0586668
0.03789
0.18496
-0.0449016
0.0306653
0.18787
0.0233273
0.190215
0.0161229
0.192761
0.00932907
0.195186
0.0033196
0.195831
-0.00113765
0.190628
-0.0029694
0.172313
-0.00211154
0.130881
0.0565552
0.022647
0.19077
-0.0284569
0.0167103
0.193806
0.0106837
0.196241
0.00479171
0.198653
-0.000609988
0.200588
-0.00486461
0.200086
-0.00717424
0.192938
-0.0067379
0.171877
-0.00345204
0.127596
0.0531032
0.00648824
0.195783
-0.0115013
0.00159264
0.198702
-0.00323056
0.201065
-0.00776191
0.203184
-0.0115693
0.204396
-0.0139666
0.202483
-0.0139417
0.192913
-0.0106812
0.168616
-0.00474934
0.121664
0.0483538
-0.011692
0.199698
0.00777651
-0.0153858
0.202396
-0.0188767
0.204556
-0.0219046
0.206212
-0.0239155
0.206406
-0.0240116
0.202579
-0.0211214
0.190022
-0.0146498
0.162145
-0.00592133
0.112935
0.0424325
-0.0314341
0.202521
0.0286112
-0.0339296
0.204891
-0.0360433
0.206669
-0.0374068
0.207576
-0.037301
0.2063
-0.0346653
0.199944
-0.0284213
0.183778
-0.0183822
0.152106
-0.00684232
0.101395
0.0355902
-0.0532964
0.05172
-0.054413
-0.0549036
-0.0542524
-0.0515399
-0.0455709
-0.0354073
-0.0215257
-0.00739181
0.10806
0.0402404
-0.120123
-0.0281775
0.0957278
0.0413391
-0.0290064
0.083113
0.0425267
-0.0299119
0.0701904
0.0437963
-0.0308738
0.0569428
0.0451286
-0.031881
0.0433952
0.0463794
-0.0328318
0.0297322
0.0469842
-0.0333212
0.0165895
0.0453471
-0.0322044
0.00558418
0.0380364
-0.0270311
0.0193051
-0.0137209
0.107237
0.0523117
-0.119308
0.0949722
0.0536039
0.0824372
0.0550617
0.0696013
0.0566323
0.0564392
0.0582906
0.0429742
0.0598445
0.0293985
0.0605599
0.0163609
0.0583847
0.00548062
0.0489166
0.0247857
0.105963
0.064273
-0.117924
0.0937481
0.0658188
0.0812884
0.0675215
0.068557
0.0693636
0.0555307
0.0713169
0.0422262
0.0731489
0.0288315
0.0739547
0.015998
0.0712182
0.00533155
0.0595831
0.0301173
0.104046
0.0762642
-0.116037
0.0919455
0.0779193
0.0795919
0.0798751
0.0669633
0.0819922
0.0540575
0.0842228
0.0409249
0.0862815
0.0277829
0.0870967
0.0152949
0.0837062
0.0050339
0.0698441
0.0351512
0.101532
0.0880268
-0.113294
0.0896322
0.0898188
0.0775683
0.0919391
0.0652662
0.0942943
0.0526739
0.0968151
0.0398211
0.0991343
0.0269465
0.0999713
0.0147541
0.0958986
0.00481872
0.0797794
0.0399699
0.097825
0.0998646
-0.109663
0.0860025
0.101641
0.0740306
0.103911
0.0619222
0.106403
0.0496651
0.109072
0.0372819
0.111517
0.0249923
0.112261
0.0134887
0.107402
0.00429109
0.0889771
0.044261
0.0939253
0.111037
-0.105098
0.0827557
0.112811
0.0713859
0.115281
0.0597197
0.118069
0.0477718
0.12102
0.0356606
0.123629
0.0236991
0.124222
0.0126339
0.118467
0.00394718
0.0976638
0.0482082
0.0865652
0.12207
-0.0975975
0.0757835
0.123593
0.0650627
0.126002
0.0542653
0.128866
0.0432712
0.132014
0.0321105
0.134789
0.0210953
0.135238
0.0110087
0.128554
0.00329626
0.105376
0.0515044
0.0819828
0.131305
-0.0912184
0.0723094
0.133266
0.0620351
0.136276
0.0514
0.139501
0.0405758
0.142838
0.0297196
0.145646
0.0191894
0.145768
0.00977296
0.13797
0.00281357
0.112336
0.054318
0.0709148
-0.0776696
0.0629621
0.0545326
0.0454812
0.0359342
0.0261518
0.0166176
0.00820539
0.00221506
0.201629
0.00597092
-0.00961056
0.205546
0.0272468
-0.0311633
0.208996
0.0344775
-0.0379272
0.211655
0.052832
-0.0554912
0.213411
0.0651378
-0.0668944
0.212502
0.0873972
-0.0864878
0.207622
0.120815
-0.115935
0.195622
0.151569
-0.139568
0.169977
0.205525
-0.17988
0.266674
-0.21682
0.201272
0.00268825
0.204826
0.0236938
0.208118
0.0311855
0.210216
0.0507335
0.211994
0.0633594
0.21035
0.0890412
0.20565
0.125515
0.193277
0.163942
0.16791
0.230892
0.315275
0.200866
-0.000188023
0.20392
0.0206394
0.207042
0.028064
0.208422
0.0493538
0.210198
0.0615835
0.20755
0.0916889
0.203022
0.130044
0.18978
0.177183
0.165148
0.255525
0.362499
0.200395
-0.00259372
0.20284
0.0181952
0.205738
0.0251656
0.206264
0.048828
0.208004
0.0598435
0.204168
0.0955251
0.199812
0.134399
0.185117
0.191878
0.161748
0.278894
0.408209
0.19984
-0.00444439
0.201599
0.0164364
0.204192
0.0225727
0.203788
0.0492321
0.205383
0.0582486
0.200249
0.100659
0.195982
0.138666
0.179584
0.208277
0.157639
0.300838
0.452554
0.199187
-0.00564121
0.20022
0.0154029
0.202399
0.0203943
0.201047
0.0505841
0.20232
0.0569753
0.195793
0.107186
0.191517
0.142942
0.172956
0.226838
0.153126
0.320668
0.496017
0.198424
-0.00607562
0.198726
0.0151012
0.200352
0.0187686
0.198064
0.0528719
0.198782
0.0562568
0.190884
0.115085
0.186186
0.14764
0.16585
0.247174
0.147527
0.338991
0.538446
0.197553
-0.00563845
0.197137
0.0155172
0.198052
0.0178527
0.194845
0.0560798
0.194776
0.0563251
0.185498
0.124363
0.18012
0.153018
0.157362
0.269932
0.14173
0.354624
0.582578
0.196582
-0.00423043
0.195464
0.0166345
0.195512
0.0178053
0.191394
0.0601973
0.190261
0.0574587
0.179797
0.134827
0.173326
0.159489
0.150153
0.293105
0.134926
0.36985
0.626285
0.195558
-0.0017987
0.193675
0.0185172
0.192811
0.0186698
0.187623
0.0653857
0.18515
0.0599313
0.173093
0.146884
0.16463
0.167952
0.13977
0.317965
0.128819
0.380802
0.677435
0.304476
-0.00426448
0.308814
0.0141796
0.317394
0.0100893
0.319329
0.0634511
0.332127
0.0471328
0.332984
0.146027
0.35337
0.147567
0.359683
0.311651
0.412677
0.327807
0.6064
0.483713
0.304662
-0.00691662
0.310546
0.00829618
0.319733
0.000902341
0.323248
0.0599354
0.337767
0.0326138
0.341702
0.142092
0.363077
0.126192
0.379717
0.295011
0.429049
0.278475
0.538759
0.49669
0.305061
-0.00996761
0.312976
0.000381604
0.321748
-0.00787027
0.328358
0.0533254
0.342806
0.0181663
0.350546
0.134352
0.371041
0.105696
0.39489
0.271162
0.438931
0.234434
0.466059
0.511632
0.306029
-0.0139864
0.315806
-0.00939527
0.323806
-0.0158705
0.334857
0.0422746
0.346823
0.00620005
0.358417
0.122758
0.376814
0.0873001
0.405958
0.242018
0.448012
0.19238
0.389934
0.524136
0.307763
-0.019739
0.318866
-0.0204986
0.326934
-0.023938
0.342455
0.0267529
0.351499
-0.00284349
0.367159
0.107098
0.383172
0.0712868
0.417508
0.207682
0.454251
0.155637
0.315036
0.529149
0.310162
-0.0278913
0.322416
-0.0327526
0.331614
-0.0331358
0.350142
0.00822481
0.356082
-0.00878328
0.374935
0.0882449
0.389054
0.0571678
0.426534
0.170202
0.459639
0.122532
0.244314
0.530362
0.313305
-0.0391857
0.32663
-0.0460775
0.336747
-0.0432538
0.355044
-0.0100714
0.356845
-0.0105846
0.378728
0.0663618
0.391827
0.0440686
0.432282
0.129748
0.462417
0.0923968
0.178787
0.527944
0.316339
-0.0535144
0.327678
-0.0574166
0.334066
-0.0496415
0.344966
-0.0209716
0.34256
-0.00817822
0.366763
0.0421588
0.380328
0.0305034
0.424337
0.0857391
0.454369
0.0623647
0.114477
0.518679
0.309453
-0.0609576
0.303984
-0.051947
0.292735
-0.0383925
0.287095
-0.0153319
0.282439
-0.00352186
0.306458
0.0181399
0.322621
0.0143396
0.370084
0.0382765
0.40404
0.0284091
0.0479578
0.470559
0.241053
0.189106
0.150713
0.135381
0.131859
0.149999
0.164339
0.202615
0.231024
0.278982
0.49738
-0.0986789
0.501947
-0.0844247
0.50561
-0.075288
0.508645
-0.0619463
0.51353
-0.0497859
0.517931
-0.0328587
0.524256
-0.0178263
0.530214
0.00181855
0.538762
0.0200636
0.0434299
0.497518
-0.0995073
0.498161
-0.085068
0.498263
-0.0753902
0.498386
-0.0620688
0.500087
-0.0514873
0.502044
-0.0348153
0.506539
-0.0223212
0.511092
-0.00273466
0.518721
0.0124351
0.0354122
0.505108
-0.0929836
0.501772
-0.0817323
0.498523
-0.0721414
0.496316
-0.0598615
0.494785
-0.0499562
0.495266
-0.0352968
0.496827
-0.0238815
0.500402
-0.00630984
0.505618
0.00721898
0.0272786
0.513382
-0.0822298
0.505411
-0.0737612
0.498897
-0.0656276
0.494578
-0.055542
0.49068
-0.0460585
0.489519
-0.0341356
0.488931
-0.0232936
0.491808
-0.00918714
0.495573
0.00345403
0.0194657
0.517024
-0.0701054
0.506732
-0.0634689
0.497868
-0.0567639
0.491274
-0.0489474
0.485882
-0.040667
0.483153
-0.0314066
0.481713
-0.0218533
0.483576
-0.0110507
0.48699
4.04529e-05
0.0123882
0.516803
-0.0565467
0.504879
-0.0515449
0.494613
-0.0464975
0.486511
-0.0408456
0.480341
-0.0344973
0.476638
-0.0277037
0.474952
-0.0201671
0.476084
-0.0121828
0.479357
-0.00323185
0.00594608
0.513394
-0.0419963
0.500503
-0.0386539
0.489416
-0.0354107
0.480446
-0.0318756
0.473666
-0.027717
0.469198
-0.023236
0.467016
-0.0179852
0.467358
-0.012525
0.47028
-0.00615307
0.000261726
0.502797
-0.0261145
0.488718
-0.0245754
0.476533
-0.0232254
0.466368
-0.0217104
0.458356
-0.0197051
0.452482
-0.0173626
0.448926
-0.0144293
0.447698
-0.0112963
0.449127
-0.00758224
-0.00394115
0.454136
-0.00969223
0.439456
-0.00989538
0.426337
-0.0101065
0.414745
-0.0101174
0.404818
-0.00977841
0.396595
-0.00913962
0.390353
-0.00818717
0.386136
-0.00707921
0.384298
-0.00574487
-0.00439216
0.26929
0.259395
0.249288
0.239171
0.229392
0.220253
0.212066
0.204986
0.199242
0.00670554
0.0409644
-0.04767
0.0160562
0.106978
-0.116328
0.0224923
0.151682
-0.158118
0.0249506
0.176306
-0.178764
0.0243246
0.187131
-0.186505
0.0218286
0.190056
-0.18756
0.0183894
0.188585
-0.185146
0.0146441
0.183729
-0.179984
0.0111676
0.174298
-0.170821
0.157057
0.00851455
-0.154404
0.00801412
0.0329503
0.02143
0.0935618
0.0329675
0.140144
0.0401654
0.169108
0.043408
0.183889
0.043944
0.18952
0.0428669
0.189662
0.0408273
0.185769
0.0380327
0.177092
0.160857
0.0342332
0.00853646
0.0244139
0.0253447
0.0767536
0.0422327
0.123256
0.0549864
0.156354
0.062972
0.175903
0.0671816
0.18531
0.068795
0.188049
0.0685069
0.186057
0.0663386
0.17926
0.165765
0.0614307
0.00815505
0.0162588
0.026871
0.0580377
0.0486201
0.101507
0.0675549
0.137419
0.0813913
0.162067
0.0903633
0.176338
0.0955853
0.182827
0.0979417
0.1837
0.0974497
0.179752
0.170036
0.0931787
0.00697931
0.0092795
0.0254632
0.0395538
0.0503108
0.0766595
0.0752273
0.112503
0.0960086
0.141286
0.111267
0.16108
0.12145
0.172643
0.127481
0.177669
0.129822
0.177411
0.172592
0.127266
0.00532096
0.00395854
0.0214227
0.0234521
0.0462731
0.0518091
0.0750527
0.0837231
0.102671
0.113667
0.125767
0.137985
0.143083
0.155327
0.154816
0.165936
0.161487
0.17074
0.170903
0.163177
0.00358898
0.000369558
0.0159639
0.0110771
0.0375412
0.0302319
0.066131
0.0551333
0.0977087
0.0820893
0.128164
0.107529
0.154507
0.128985
0.175206
0.145237
0.190026
0.155921
0.162842
0.198086
0.0021131
-0.00174354
0.0105156
0.00267464
0.026808
0.0139394
0.0510481
0.0308933
0.081405
0.0517323
0.114798
0.0741365
0.147948
0.095835
0.177948
0.115237
0.2031
0.130768
0.142202
0.223741
0.00100315
-0.00274669
0.00594831
-0.00227052
0.0166563
0.00323143
0.0343144
0.0132352
0.0589758
0.0270709
0.0894117
0.0437006
0.123478
0.0617684
0.158752
0.0799638
0.191864
0.0976552
0.10844
0.225626
0.000145169
-0.00289186
0.00228069
-0.00440604
0.00810083
-0.00258871
0.0190781
0.00225792
0.036181
0.00996804
0.0596262
0.0202554
0.0887748
0.0326198
0.122428
0.0463103
0.158721
0.0613628
0.073224
0.193936
-0.000562368
-0.00232949
-0.000470456
-0.00449795
0.00171834
-0.00477751
0.00727738
-0.00330112
0.01723
1.54048e-05
0.0324834
0.00500202
0.0533326
0.0117706
0.079531
0.0201118
0.110783
0.0301106
0.0436489
0.140358
-0.000622252
-0.00170724
-0.00108919
-0.00403101
-0.000432374
-0.00543433
0.00211608
-0.00584957
0.00731968
-0.00518819
0.0157012
-0.00337948
0.0278154
-0.000343639
0.0438803
0.00404691
0.0637991
0.0101918
0.0198008
0.0876472
7.50373e-05
-0.00178228
0.000665816
-0.00462179
0.00205598
-0.0068245
0.0044867
-0.00828028
0.00820108
-0.00890258
0.0134632
-0.00864162
0.0205827
-0.00746311
0.0299132
-0.00528355
0.0419638
-0.00185884
0.00357383
0.0581908
0.000635282
-0.00241756
0.00197843
-0.00596494
0.00387537
-0.00872144
0.00635895
-0.0107639
0.00953135
-0.012075
0.0135416
-0.0126518
0.0185911
-0.0125126
0.0249648
-0.0116572
0.0331402
-0.0100343
-0.00774048
0.0444545
0.000241393
-0.00265895
0.000418793
-0.00614234
0.000476148
-0.00877879
0.000571124
-0.0108588
0.000922302
-0.0124262
0.00177521
-0.0135048
0.00340456
-0.014142
0.00613225
-0.0143849
0.0103421
-0.0142441
-0.0139331
0.0165347
-0.00104732
-0.00161163
-0.00363876
-0.0035509
-0.00712482
-0.00529274
-0.0109456
-0.00703806
-0.0146676
-0.00870417
-0.0179423
-0.01023
-0.0204819
-0.0116024
-0.0220533
-0.0128135
-0.0224674
-0.01383
-0.0148687
-0.0215319
-0.00296561
0.00135398
-0.00924401
0.0027275
-0.0171237
0.00258694
-0.0256021
0.00144032
-0.0341796
-0.00012666
-0.0423969
-0.00201271
-0.0501152
-0.00388409
-0.0572065
-0.00572224
-0.0635435
-0.00749292
-0.00936527
-0.0690469
-0.00482783
0.00618181
-0.0144747
0.0123744
-0.0262101
0.0143223
-0.0386904
0.0139206
-0.05132
0.012503
-0.0640476
0.0107148
-0.0767285
0.00879684
-0.0892736
0.00682284
-0.101578
0.00481145
0.00271642
-0.11366
-0.0058074
0.0119892
-0.017288
0.0238549
-0.0311719
0.0282063
-0.0459558
0.0287045
-0.0610883
0.0276356
-0.076417
0.0260435
-0.091883
0.0242629
-0.10742
0.0223599
-0.122946
0.0203375
0.0182975
-0.138527
-0.00550136
-0.0168201
-0.0308137
-0.045902
-0.0614405
-0.0772064
-0.0931037
-0.109046
-0.124946
-0.140892
0.202185
0.0735117
-0.135338
0.217782
0.403548
-0.419145
0.211753
0.425445
-0.419416
0.222692
0.144305
-0.155244
0.228107
-0.0656031
0.0601883
0.218552
-0.0932389
0.102794
0.206669
-0.0601259
0.0720082
0.201018
-0.0319741
0.0376254
0.20213
-0.0221393
0.0210272
-0.0184164
0.0132848
0.163298
-0.00213877
0.207709
0.359137
0.221976
0.411178
0.240372
0.125909
0.236687
-0.0619176
0.219502
-0.0760538
0.206205
-0.0468295
0.201518
-0.0272874
0.203608
-0.024229
-0.0234077
0.128254
-0.0722017
0.181409
0.305982
0.211878
0.380709
0.232913
0.104874
0.221766
-0.0507706
0.204276
-0.0585636
0.196429
-0.0389826
0.196984
-0.0278429
0.202216
-0.0294602
-0.0290075
0.0856976
-0.113445
0.135252
0.256428
0.178191
0.337769
0.197998
0.0850674
0.186927
-0.0396996
0.179467
-0.0511038
0.183282
-0.0427973
0.19138
-0.0359418
0.200319
-0.0383985
-0.0353419
0.0288513
-0.125761
0.0726428
0.212636
0.122085
0.288327
0.141722
0.0654299
0.14563
-0.0436071
0.156719
-0.0621932
0.173273
-0.0593516
0.187733
-0.0504014
0.199288
-0.0499531
-0.0420177
-0.0467423
-0.100551
-0.00679261
0.172686
0.0490121
0.232523
0.0860682
0.0283738
0.116382
-0.0739212
0.144428
-0.0902393
0.169191
-0.0841145
0.186876
-0.0680864
0.199419
-0.0624961
-0.0485322
-0.131878
-0.03772
-0.0944518
0.13526
-0.00936726
0.147438
0.0551108
-0.0361043
0.105125
-0.123936
0.141895
-0.127009
0.16969
-0.11191
0.188027
-0.0864238
0.200398
-0.0748663
-0.0545633
-0.196186
0.0448063
-0.145772
0.0848464
-0.0318016
0.0334677
0.0469723
-0.114878
0.104757
-0.18172
0.144359
-0.166611
0.172373
-0.139923
0.190152
-0.104204
0.201836
-0.0865502
-0.06
-0.222355
0.128634
-0.159449
0.0219402
-0.0334732
-0.0925083
0.0492836
-0.197635
0.108949
-0.241386
0.148781
-0.206443
0.175909
-0.167051
0.192705
-0.121
0.20353
-0.0973749
-0.0648388
-0.214254
-0.150194
-0.0275299
0.0578789
0.116619
0.15487
0.180225
0.195655
0.20546
0.049536
0.0346032
-0.0841392
0.0097524
0.0397836
-0.0199922
0.0297446
-0.0302375
0.0102453
-0.0160745
-0.014163
0.00903915
-0.0251136
0.0278397
-0.0188006
0.0370503
-0.00921052
0.0408437
-0.00379343
-0.00146418
0.197726
0.1064
-0.269523
0.0884504
0.14906
0.0105797
0.107615
-0.00663427
0.0274592
0.0191914
-0.0399887
0.0576877
-0.0636099
0.0863978
-0.0475107
0.101461
-0.0242739
0.108559
-0.0108914
-0.0046017
0.341944
0.161927
-0.397471
0.207617
0.283386
0.0949137
0.220319
0.061507
0.0608659
0.0825732
-0.061055
0.113506
-0.0945426
0.136738
-0.0707423
0.149889
-0.0374255
0.157046
-0.0180481
-0.00835938
0.416888
0.172167
-0.427128
0.313256
0.387018
0.197324
0.336251
0.150561
0.107629
0.157804
-0.068298
0.170984
-0.107722
0.179304
-0.079062
0.18418
-0.0423014
0.187937
-0.021805
-0.0114364
0.393718
-0.356889
0.361591
0.278425
0.230811
0.222701
0.217772
0.210719
0.206043
0.205265
0.0106968
-0.000159168
-0.0105376
0.0122985
-0.00160171
0.0152258
-0.00292733
0.0196262
-0.00440042
0.0259764
-0.00635015
0.0333639
-0.00738752
0.0436723
-0.0103084
0.0549625
-0.0112902
0.0693664
-0.0144039
-0.0147728
0.0294488
-0.000885138
-0.0287229
0.0340154
-0.00616826
0.0423175
-0.0112294
0.055438
-0.0175209
0.0738733
-0.0247855
0.0971339
-0.0306481
0.130156
-0.0433306
0.166848
-0.0479821
0.214857
-0.0624134
-0.0694383
0.0455753
-0.00244257
-0.0440178
0.0528444
-0.0134374
0.0659591
-0.0243441
0.086621
-0.0381828
0.114713
-0.0528772
0.152483
-0.0684182
0.201183
-0.0920313
0.256619
-0.103418
0.327596
-0.13339
-0.139314
0.0589774
-0.00497155
-0.0564484
0.0684764
-0.0229363
0.085562
-0.0414298
0.111478
-0.064099
0.146586
-0.0879846
0.19345
-0.115282
0.246885
-0.145467
0.311506
-0.168038
0.379094
-0.200979
-0.187348
0.0697772
-0.0662342
0.081074
0.101075
0.130155
0.169436
0.217331
0.26995
0.325653
0.3503
0.0817605
-0.0741083
0.0819249
-0.0895771
0.0731645
-0.075199
0.083795
0.0642197
-0.0769343
0.0858791
0.0546802
-0.0787943
0.0883339
0.0444664
-0.0806585
0.0908722
0.0337017
-0.0822189
0.0929837
0.0227518
-0.0823871
0.0933369
0.0123746
-0.0783474
0.0887247
0.0039993
-0.0644974
0.0728727
-0.0319578
0.0359571
0.0903684
-0.0646341
-0.0998426
0.0805163
-0.0653469
0.070028
-0.066446
0.0589641
-0.0677305
0.0474774
-0.0691717
0.0357475
-0.0704891
0.0240705
-0.07071
0.0131112
-0.0673882
0.00426189
-0.0556481
-0.0276959
0.0921548
-0.0539455
-0.102843
0.081357
-0.0545491
0.0703575
-0.0554464
0.0591596
-0.0565326
0.0477351
-0.0577472
0.0360856
-0.0588395
0.0244019
-0.0590264
0.0133307
-0.056317
0.00432999
-0.0466474
-0.0233659
0.0974159
-0.0429507
-0.108411
0.0862663
-0.0433994
0.0748872
-0.0440674
0.0632014
-0.0448467
0.0511588
-0.0457047
0.0387946
-0.0464753
0.0263496
-0.0465814
0.0145102
-0.0444776
0.00479259
-0.0369298
-0.0185733
0.100145
-0.0314876
-0.111608
0.0885434
-0.0317976
0.0766963
-0.0322203
0.0645771
-0.0327275
0.0521752
-0.0333027
0.0395349
-0.033835
0.0268684
-0.0339149
0.0148174
-0.0324266
0.00489688
-0.0270092
-0.0136764
0.103259
-0.0198438
-0.114902
0.091397
-0.0199361
0.0792855
-0.0201088
0.0668918
-0.0203338
0.0541926
-0.0206035
0.0412112
-0.0208536
0.0281411
-0.0208448
0.0156254
-0.0199109
0.00522616
-0.01661
-0.00845028
0.105332
-0.00797048
-0.117205
0.0932578
-0.00786192
0.0809269
-0.00777794
0.0683103
-0.0077172
0.0553841
-0.00767741
0.0421687
-0.00763822
0.0288489
-0.007525
0.0160606
-0.00712252
0.00538989
-0.00593929
-0.00306039
0.106952
0.00401759
-0.11894
0.0947292
0.00436109
0.0822375
0.00471375
0.0694494
0.00507093
0.0563431
0.00542888
0.0429394
0.00576549
0.0294201
0.00599426
0.0164178
0.00587977
0.00553208
0.00494648
0.00247168
0.107917
0.0160794
-0.119979
0.09561
0.0166684
0.0830271
0.0172967
0.0701416
0.0179565
0.0569312
0.0186393
0.0434148
0.0192819
0.029771
0.019638
0.016632
0.0190187
0.00561248
0.015966
0.00808417
0.108233
-0.120331
0.0958948
0.0832796
0.0703623
0.0571206
0.0435707
0.0298875
0.0167019
0.00563676
0.0133171
-0.152337
-0.0153848
0.00895161
-0.166456
0.00358336
-0.174615
-0.0019301
-0.179633
-0.00692948
-0.182561
-0.01065
-0.182785
-0.0120705
-0.177344
-0.0101304
-0.160058
-0.00488182
-0.121577
-0.0525518
0.0358275
-0.149365
-0.0387998
0.0299153
-0.160543
0.0227814
-0.167482
0.015353
-0.172204
0.00817428
-0.175382
0.00183463
-0.176445
-0.00271692
-0.172792
-0.00439612
-0.158379