/*--------------------------------*- C++ -*----------------------------------*\
  =========                 |
  \\      /  F ield         | OpenFOAM: The Open Source CFD Toolbox
   \\    /   O peration     | Website:  https://openfoam.org
    \\  /    A nd           | Version:  13
     \\/     M anipulation  |
\*---------------------------------------------------------------------------*/
FoamFile
{
    format      ascii;
    class       volVectorField;
    location    "3.1";
    object      U;
}
// * * * * * * * * * * * * * * * * * * * * * * * * * * * * * * * * * * * * * //

dimensions      [0 1 -1 0 0 0 0];

internalField   nonuniform List<vector> 
1800
(
(-0.030656 0.0237145 1.11215e-20)
(-0.0749714 0.0416267 5.02637e-21)
(-0.0949209 0.0488891 -4.34452e-20)
(-0.0855274 0.0511112 5.93591e-20)
(-0.0395095 0.0518896 1.71814e-19)
(0.0480868 0.0518217 8.03228e-20)
(0.179457 0.0512193 -3.64517e-20)
(0.350527 0.0484296 -3.28173e-21)
(0.579438 0.06955 1.25199e-19)
(0.684726 0.112135 1.60285e-19)
(-0.0458731 0.0340926 9.9641e-21)
(-0.0845418 0.056135 -3.64666e-20)
(-0.0727292 0.0557994 3.60542e-22)
(-0.00987392 0.0425264 -5.9732e-20)
(0.107457 0.0224189 2.4653e-20)
(0.280135 -0.00117746 1.52857e-19)
(0.503789 -0.0252784 -7.60789e-20)
(0.765514 -0.0517638 3.45663e-20)
(1.07137 -0.0615619 -1.37532e-19)
(1.25999 -0.0712965 1.43685e-19)
(-0.0501343 0.0332703 4.27645e-21)
(-0.0663236 0.0509153 1.60367e-20)
(-0.00492014 0.0438765 1.09793e-21)
(0.130742 0.0216805 -1.22515e-20)
(0.337645 -0.00778546 -1.42131e-19)
(0.605283 -0.0387746 2.97407e-20)
(0.914097 -0.0672108 6.0176e-20)
(1.23983 -0.0902627 -2.36803e-20)
(1.55609 -0.105936 -1.7393e-22)
(1.8365 -0.131457 -2.43667e-21)
(-0.0432106 0.0249439 -7.85218e-21)
(-0.0165494 0.0287068 -2.47757e-20)
(0.115842 0.0116791 -2.54187e-20)
(0.344152 -0.0166814 2.57293e-20)
(0.651016 -0.0475487 2.35557e-20)
(1.00572 -0.0747149 1.01001e-20)
(1.37024 -0.0949643 -3.31467e-21)
(1.70886 -0.107777 9.30877e-20)
(2.00048 -0.11583 8.84427e-20)
(2.21961 -0.120898 -3.99987e-20)
(-0.0246377 0.0132504 6.1395e-20)
(0.0699203 0.000388975 5.67157e-20)
(0.296878 -0.0243414 -4.01188e-20)
(0.630534 -0.0510931 -4.94519e-20)
(1.02715 -0.0721036 -1.34291e-19)
(1.43147 -0.0843036 2.17708e-21)
(1.79479 -0.0886268 1.86122e-19)
(2.08784 -0.0882792 8.98256e-20)
(2.29848 -0.0851261 1.96672e-21)
(2.44329 -0.0900628 -8.79165e-20)
(0.0089197 2.44577e-05 -6.05447e-20)
(0.198934 -0.0260049 -1.36687e-20)
(0.538095 -0.0502308 2.05271e-19)
(0.970659 -0.0643648 -6.00183e-20)
(1.42017 -0.0666149 -1.4947e-19)
(1.81847 -0.0605062 3.14414e-19)
(2.1274 -0.0512249 -3.31852e-19)
(2.33933 -0.0428066 -4.68164e-19)
(2.47025 -0.0377382 3.92173e-19)
(2.53842 -0.0367636 1.45079e-21)
(0.0603804 -0.0121714 6.62705e-20)
(0.370113 -0.0419977 -1.44742e-19)
(0.823092 -0.0535385 -5.02066e-19)
(1.32346 -0.0454805 2.48096e-19)
(1.77404 -0.0267182 5.5975e-19)
(2.11926 -0.00658004 -2.20241e-21)
(2.3498 0.00937343 -1.22604e-18)
(2.48556 0.0192142 6.19999e-21)
(2.55454 0.0244897 1.49017e-18)
(2.58429 0.0218349 4.11585e-19)
(0.129967 -0.0195849 6.43608e-20)
(0.573562 -0.0388502 3.47674e-19)
(1.1218 -0.0256378 4.26395e-19)
(1.64541 0.00791186 -1.15994e-19)
(2.05496 0.0428512 -5.13665e-19)
(2.32801 0.0693955 -1.9683e-19)
(2.48585 0.085569 0)
(2.56389 0.0932079 6.24765e-19)
(2.59436 0.0947376 -1.04309e-20)
(2.59718 0.0909917 -5.96542e-19)
(0.214338 -0.018072 5.64225e-20)
(0.790914 -0.0098386 3.71297e-19)
(1.4015 0.0361648 7.02555e-19)
(1.90909 0.0920385 -7.43794e-19)
(2.25741 0.135706 -6.53991e-19)
(2.46039 0.162327 2.63556e-19)
(2.56007 0.174835 -1.25796e-18)
(2.59794 0.1779 -9.49254e-19)
(2.60292 0.175593 1.17196e-18)
(2.59101 0.16792 1.02163e-18)
(0.307209 -0.00422831 -3.94972e-20)
(1.00085 0.0475128 2.95378e-19)
(1.63859 0.128515 1.84718e-19)
(2.10602 0.200297 -1.49781e-18)
(2.38974 0.245918 4.76983e-20)
(2.53313 0.267856 3.01516e-18)
(2.58977 0.273745 -1.75e-18)
(2.60102 0.270595 -1.0296e-18)
(2.59108 0.262674 3.63417e-19)
(2.56986 0.250919 -8.33094e-19)
(-0.0141337 0.246349 2.07171e-19)
(-0.0639075 0.499904 -1.15936e-19)
(-0.128892 0.602525 1.18635e-21)
(-0.199456 0.627049 -2.7783e-20)
(-0.26793 0.619471 3.01798e-21)
(-0.332579 0.600933 2.20563e-19)
(-0.392809 0.578179 1.66161e-19)
(-0.448192 0.552353 -3.59333e-19)
(-0.500327 0.523396 1.77866e-20)
(-0.553476 0.491576 -5.58758e-20)
(-0.0323717 0.277449 -8.98313e-21)
(-0.0835356 0.586553 9.56947e-21)
(-0.137331 0.724341 2.08333e-20)
(-0.191869 0.765203 4.5439e-20)
(-0.243996 0.76214 -1.37785e-19)
(-0.292502 0.742276 2.23214e-19)
(-0.336645 0.71556 -3.2516e-19)
(-0.375541 0.684282 -4.24981e-19)
(-0.409807 0.648566 3.59242e-19)
(-0.44357 0.608663 -1.15109e-19)
(-0.0485706 0.27004 -5.62477e-20)
(-0.101025 0.611778 3.53609e-20)
(-0.1412 0.788982 -5.12866e-23)
(-0.175211 0.856827 -2.22958e-19)
(-0.206021 0.866374 -7.34917e-20)
(-0.233701 0.849591 7.90924e-19)
(-0.257566 0.821014 -2.75645e-19)
(-0.276549 0.785394 -4.35338e-19)
(-0.28995 0.743707 5.23987e-19)
(-0.300057 0.696165 3.06414e-19)
(-0.0559956 0.227003 -4.10625e-20)
(-0.109019 0.567378 -5.3833e-21)
(-0.136843 0.780916 9.69172e-21)
(-0.151141 0.886657 -3.89606e-20)
(-0.159939 0.921075 1.97451e-19)
(-0.165674 0.916057 -2.72229e-19)
(-0.168492 0.890897 -2.34632e-19)
(-0.167698 0.854365 2.80454e-19)
(-0.161989 0.809328 8.88666e-21)
(-0.148616 0.756404 1.01589e-20)
(-0.0510803 0.161615 0)
(-0.10208 0.46017 -1.20864e-21)
(-0.121702 0.69157 -2.60874e-20)
(-0.120905 0.838431 1.00852e-19)
(-0.109958 0.912018 3.26705e-19)
(-0.093908 0.934009 -2.51685e-19)
(-0.0746376 0.923676 9.98996e-20)
(-0.0523613 0.893692 3.88367e-20)
(-0.0265385 0.850556 0)
(0.00939473 0.796453 2.15939e-20)
(-0.035968 0.0933277 -2.92914e-20)
(-0.0802024 0.317602 7.17518e-20)
(-0.0966663 0.532719 4.14968e-20)
(-0.0898287 0.701795 -6.2697e-20)
(-0.0675297 0.813513 6.38248e-20)
(-0.0355401 0.87341 1.68704e-19)
(0.00246693 0.892983 -4.59606e-19)
(0.0446834 0.883457 -3.93527e-20)
(0.0888895 0.852802 5.67648e-19)
(0.145091 0.804951 1.18435e-20)
(-0.0176493 0.0396923 9.60047e-21)
(-0.0514935 0.181524 1.29883e-19)
(-0.0685039 0.349174 -7.26143e-20)
(-0.0651886 0.505808 -1.22896e-20)
(-0.043786 0.630292 -6.2e-20)
(-0.00801887 0.716084 5.15538e-20)
(0.0382812 0.765235 1.4327e-19)
(0.0923103 0.783583 1.71091e-19)
(0.149634 0.77724 -1.90795e-19)
(0.218237 0.746992 -2.70856e-19)
(-0.00348691 0.00801543 2.55812e-20)
(-0.0283729 0.0827438 -6.40457e-20)
(-0.0482629 0.192189 -1.00093e-19)
(-0.0539145 0.309324 3.71401e-20)
(-0.0422216 0.414885 -9.03341e-21)
(-0.01376 0.498498 1.21708e-19)
(0.0288959 0.556814 1.20692e-19)
(0.0826195 0.591023 3.74433e-20)
(0.143724 0.605193 3.58008e-20)
(0.21425 0.587182 -1.36383e-19)
(0.000643437 -0.00236162 1.83908e-20)
(-0.024207 0.0304795 -8.34144e-20)
(-0.0504277 0.0894057 1.38783e-19)
(-0.06676 0.158875 1.62424e-19)
(-0.0668419 0.227141 -1.25382e-19)
(-0.0488327 0.286404 2.66142e-19)
(-0.0134505 0.333039 -3.8523e-20)
(0.0375182 0.366764 -2.87161e-19)
(0.10358 0.387416 -1.48e-20)
(0.193276 0.371019 -8.63747e-20)
(-0.0105518 0.00657156 -6.51514e-21)
(-0.0466099 0.0229809 -3.59997e-20)
(-0.0786014 0.0474319 -1.46083e-20)
(-0.0969952 0.0763807 7.3377e-20)
(-0.0940842 0.106671 1.52555e-19)
(-0.0656201 0.135522 -1.72884e-19)
(-0.00924011 0.161358 -1.51187e-19)
(0.0750259 0.183855 6.80275e-20)
(0.189891 0.202747 -1.79596e-20)
(0.331599 0.204501 3.42107e-20)
(-0.822584 0.319672 8.44486e-19)
(-0.781761 -0.104831 -2.01335e-18)
(-0.270598 -0.385985 -4.46562e-19)
(0.179918 -0.455801 1.85607e-19)
(0.519762 -0.457905 -3.89476e-20)
(0.719749 -0.366633 -2.22228e-20)
(0.859897 -0.285265 -1.06329e-20)
(0.959207 -0.201031 -1.98753e-21)
(1.01086 -0.156788 1.23497e-20)
(1.06719 -0.1003 2.99774e-21)
(-0.632978 0.387372 9.04826e-19)
(-0.489563 -0.177355 7.70077e-19)
(-0.076873 -0.523169 -4.95146e-20)
(0.331504 -0.571178 -2.5974e-19)
(0.632127 -0.532047 -2.85888e-19)
(0.800615 -0.413505 0)
(0.913809 -0.315891 -2.42246e-20)
(0.990772 -0.220546 5.21399e-21)
(1.03129 -0.170238 3.70358e-22)
(1.07671 -0.107774 -6.29494e-21)
(-0.398344 0.428608 -2.06835e-19)
(-0.165806 -0.241872 -4.09146e-19)
(0.185321 -0.630187 3.12811e-19)
(0.517143 -0.669191 9.03856e-20)
(0.762491 -0.595881 2.52024e-20)
(0.894107 -0.452354 -1.35184e-20)
(0.977166 -0.339728 0)
(1.02864 -0.23532 0)
(1.05562 -0.180456 -1.27452e-20)
(1.08769 -0.113619 0)
(-0.151799 0.446344 -7.74559e-20)
(0.16666 -0.294763 7.42131e-19)
(0.478127 -0.71384 -1.39343e-19)
(0.723849 -0.7459 0)
(0.900473 -0.64691 2.93689e-19)
(0.9906 -0.482829 -5.28035e-20)
(1.04385 -0.356739 0)
(1.07003 -0.245005 4.76487e-20)
(1.08278 -0.18695 0)
(1.09986 -0.117526 6.36812e-21)
(0.0807528 0.446517 1.70659e-19)
(0.492311 -0.334468 3.27157e-19)
(0.776728 -0.775062 9.23988e-20)
(0.940835 -0.801137 0)
(1.04198 -0.682922 1.23167e-19)
(1.08479 -0.504368 1.24734e-19)
(1.10844 -0.367436 -4.52492e-21)
(1.1114 -0.249947 -8.01747e-22)
(1.11096 -0.189674 -1.16139e-20)
(1.11262 -0.119345 2.0141e-21)
(0.284753 0.439739 1.40491e-18)
(0.796205 -0.362498 -1.92924e-19)
(1.06486 -0.817266 -4.74091e-20)
(1.15429 -0.837926 3.52485e-19)
(1.18274 -0.703978 -2.16629e-19)
(1.17525 -0.516364 6.41453e-20)
(1.16829 -0.372135 1.25354e-19)
(1.14989 -0.250747 -1.06262e-19)
(1.13818 -0.188953 1.11515e-22)
(1.12518 -0.119115 -1.49903e-20)
(0.430519 0.417405 5.12514e-20)
(1.07446 -0.383248 -5.71834e-20)
(1.33274 -0.842576 -1.29155e-19)
(1.35366 -0.858665 -1.14424e-20)
(1.31692 -0.712262 -1.92593e-19)
(1.26141 -0.519222 -1.54245e-20)
(1.22315 -0.371002 -5.1956e-20)
(1.18418 -0.247883 1.78902e-21)
(1.16288 -0.185255 1.44115e-20)
(1.13675 -0.117021 -8.8182e-22)
(0.505393 0.362572 -6.66999e-19)
(1.33062 -0.405696 -1.04362e-19)
(1.57664 -0.852074 0)
(1.53443 -0.864236 1.03542e-19)
(1.44046 -0.709979 1.63504e-19)
(1.34251 -0.514285 -1.38626e-20)
(1.27393 -0.36448 -1.72609e-19)
(1.21443 -0.241696 4.46561e-20)
(1.18427 -0.179017 -7.31545e-22)
(1.14669 -0.113313 -7.79747e-21)
(0.582598 0.249178 7.59108e-19)
(1.57782 -0.436724 3.16876e-19)
(1.7939 -0.846109 4.92259e-20)
(1.69365 -0.855561 -6.60414e-20)
(1.55118 -0.698644 1.14954e-20)
(1.41767 -0.502988 -1.74742e-19)
(1.32152 -0.353355 6.07891e-20)
(1.24168 -0.232607 -3.73804e-22)
(1.20248 -0.170678 6.95855e-23)
(1.15473 -0.108262 1.04513e-20)
(0.758432 0.102774 -4.72927e-19)
(1.81847 -0.473748 3.57419e-19)
(1.98229 -0.828205 1.7359e-19)
(1.83039 -0.835472 -2.14107e-19)
(1.64836 -0.679587 -1.72724e-19)
(1.48592 -0.486308 -9.46973e-20)
(1.3661 -0.338289 -3.14475e-20)
(1.26704 -0.221013 0)
(1.21818 -0.160669 -2.11215e-20)
(1.161 -0.102121 1.49084e-20)
(1.51565 -0.0530809 -6.65265e-19)
(2.19246 -0.524647 -6.2413e-19)
(2.2124 -0.797311 4.90065e-20)
(1.99177 -0.795242 3.70569e-20)
(1.76071 -0.643174 3.95685e-20)
(1.56373 -0.455469 -7.36731e-20)
(1.41737 -0.31118 -5.50971e-20)
(1.2966 -0.20093 2.91113e-20)
(1.23537 -0.14472 -1.08194e-20)
(1.16736 -0.0930321 -7.6699e-21)
(2.24958 -0.139852 4.14208e-20)
(2.55233 -0.568131 -1.26641e-18)
(2.35393 -0.766018 -6.73854e-19)
(2.02875 -0.712387 2.44048e-20)
(1.77338 -0.543126 1.12337e-19)
(1.57816 -0.367819 1.65256e-19)
(1.43658 -0.244431 1.28484e-19)
(1.31252 -0.156474 -1.52232e-20)
(1.24761 -0.114859 4.52025e-20)
(1.17143 -0.0775217 5.74553e-21)
(2.47893 -0.201472 3.68695e-20)
(2.52138 -0.507087 2.26282e-21)
(2.29578 -0.6453 4.37548e-20)
(2.05074 -0.607358 1.92253e-35)
(1.84329 -0.470114 -3.29012e-20)
(1.64578 -0.316646 -5.08348e-34)
(1.48612 -0.202972 1.53489e-20)
(1.34273 -0.124172 3.50791e-34)
(1.2662 -0.0889562 -1.18863e-21)
(1.17781 -0.0623253 2.1171e-21)
(2.46768 -0.217132 -1.01804e-34)
(2.45705 -0.444971 4.26637e-19)
(2.30453 -0.584544 2.42937e-19)
(2.08118 -0.550385 0)
(1.85243 -0.397451 -7.93759e-20)
(1.6327 -0.237785 -9.4407e-20)
(1.46684 -0.135597 -7.96232e-20)
(1.32716 -0.0766881 1.10051e-33)
(1.25778 -0.0551463 -2.38013e-20)
(1.17281 -0.0437217 -2.94473e-21)
(2.42394 -0.22708 2.3314e-20)
(2.40692 -0.403796 3.27688e-22)
(2.27721 -0.513105 0)
(2.06489 -0.462459 0)
(1.84314 -0.312475 0)
(1.62421 -0.166851 0)
(1.45568 -0.0818255 4.82571e-21)
(1.31469 -0.0399218 1.29249e-33)
(1.24695 -0.0281748 -1.88338e-21)
(1.16433 -0.027748 -4.26763e-34)
(2.3837 -0.232157 6.92782e-20)
(2.36073 -0.363182 0)
(2.23431 -0.448685 0)
(1.99927 -0.389108 0)
(1.75236 -0.235566 0)
(1.53183 -0.0957056 0)
(1.3787 -0.0238365 -1.03405e-20)
(1.25849 0.000131815 3.65016e-20)
(1.20675 -0.000133759 -2.22494e-21)
(1.1387 -0.0115985 -8.93228e-22)
(2.33531 -0.228199 0)
(2.28324 -0.325376 1.23114e-19)
(2.09186 -0.37378 7.59854e-20)
(1.79737 -0.293022 0)
(1.53376 -0.144999 -5.52378e-20)
(1.33634 -0.027756 -5.07882e-20)
(1.22352 0.0210101 -4.43663e-20)
(1.14555 0.0271016 -1.71982e-20)
(1.12224 0.01814 1.22083e-20)
(1.07966 8.01443e-05 -5.52627e-21)
(2.18896 -0.206536 -3.36188e-21)
(2.03948 -0.261956 -1.16219e-21)
(1.72733 -0.262943 -2.83866e-21)
(1.37116 -0.177393 -1.11904e-35)
(1.12512 -0.0603108 1.3307e-20)
(0.996632 0.0195392 -2.4453e-34)
(0.958703 0.0446466 -1.21341e-20)
(0.944308 0.0382672 -2.45887e-20)
(0.95784 0.0248664 -2.47479e-21)
(0.947613 0.0059267 4.71532e-21)
(1.69314 -0.152831 2.58036e-20)
(1.40804 -0.157357 -2.60358e-20)
(1.01407 -0.116252 -1.01285e-20)
(0.693407 -0.053952 0)
(0.548857 0.000120039 1.97579e-21)
(0.531905 0.0323193 4.69764e-21)
(0.577711 0.0386509 -5.61127e-21)
(0.62231 0.0290702 5.0973e-21)
(0.664238 0.0182643 -8.12372e-21)
(0.680223 0.00558044 -4.24726e-21)
(0.585977 -0.025088 0)
(0.362981 -0.00693189 0)
(0.176504 -0.000176881 0)
(0.0654293 -0.000427142 0)
(0.0355646 0.00145886 0)
(0.0697909 0.00567705 0)
(0.130151 0.00651641 -1.20995e-20)
(0.181797 0.00450123 3.90854e-35)
(0.219496 0.00266649 -2.79792e-21)
(0.239375 0.000753029 -4.95273e-21)
(2.50706 0.225364 8.06025e-19)
(2.54532 0.155532 4.92314e-20)
(2.56164 0.0844314 -8.01738e-20)
(2.57811 0.0307929 -2.5606e-19)
(2.58337 -0.0338621 -4.70963e-20)
(2.55061 -0.0620078 -7.18186e-20)
(2.54588 -0.126916 -2.27259e-19)
(2.33967 -0.109773 1.54567e-20)
(2.27217 -0.167721 0)
(1.62645 -0.0632523 1.55406e-20)
(2.43556 0.183266 2.58232e-19)
(2.43032 0.141958 -2.95026e-19)
(2.51355 0.0673995 -6.31423e-20)
(2.46801 0.0386999 -1.26043e-19)
(2.57861 -0.0356373 1.03818e-19)
(2.47541 -0.0526532 1.7954e-19)
(2.62251 -0.123769 -2.25586e-19)
(2.43618 -0.141729 -1.04349e-21)
(2.57405 -0.189255 -3.05103e-20)
(2.27388 -0.218898 7.30579e-20)
(2.38553 0.150058 -1.17083e-19)
(2.34968 0.118328 2.65445e-19)
(2.45992 0.0548178 1.6171e-19)
(2.39018 0.026838 -2.71426e-19)
(2.51511 -0.0303214 -4.52156e-20)
(2.41934 -0.0621844 3.78957e-19)
(2.54614 -0.104656 6.71607e-20)
(2.44652 -0.151169 -7.20123e-20)
(2.54031 -0.167779 -4.04801e-20)
(2.45751 -0.23138 -4.46233e-20)
(2.32676 0.120152 -3.02957e-19)
(2.31095 0.0865241 -5.03011e-20)
(2.39043 0.0424183 2.91082e-20)
(2.35849 0.0066137 -1.27304e-20)
(2.43169 -0.0290627 -2.31399e-19)
(2.39685 -0.0714963 -8.59214e-20)
(2.45267 -0.0941185 2.16506e-19)
(2.4322 -0.145302 -1.25005e-20)
(2.46166 -0.154182 4.25937e-20)
(2.46283 -0.210747 1.76716e-20)
(2.27029 0.0903282 4.25396e-20)
(2.28436 0.0563018 1.33448e-19)
(2.32852 0.0255427 -2.27055e-20)
(2.33503 -0.0110462 1.89237e-19)
(2.36751 -0.0361735 -5.65257e-20)
(2.37315 -0.0760805 -2.36917e-19)
(2.39141 -0.0945852 3.70287e-20)
(2.40196 -0.136802 -8.46607e-20)
(2.40796 -0.150365 2.31949e-21)
(2.42427 -0.192963 -1.23764e-20)
(2.22577 0.058062 -1.67703e-19)
(2.25458 0.0279619 -7.42657e-20)
(2.28277 0.0041091 -4.71319e-21)
(2.30544 -0.0273515 1.14892e-19)
(2.3239 -0.0487133 2.7133e-19)
(2.34263 -0.0812784 -7.00621e-20)
(2.35202 -0.100443 6.40222e-21)
(2.36868 -0.13337 -7.46111e-20)
(2.37108 -0.151234 -1.09814e-19)
(2.38702 -0.183985 -3.86448e-20)
(2.17834 0.0253283 -5.71219e-20)
(2.21001 0.000973854 -1.27808e-19)
(2.23303 -0.0180968 -1.47762e-19)
(2.25961 -0.0433313 -2.72018e-19)
(2.27488 -0.0616312 7.0025e-20)
(2.29765 -0.0879257 6.59512e-20)
(2.30559 -0.105957 3.50047e-21)
(2.32634 -0.133295 8.2156e-20)
(2.32722 -0.151214 -9.40533e-20)
(2.34845 -0.179525 -5.25368e-20)
(2.07087 -0.00424841 6.2507e-20)
(2.09972 -0.0219601 3.56141e-20)
(2.11442 -0.0357634 1.97581e-20)
(2.1417 -0.0544326 -4.11408e-20)
(2.14895 -0.0679808 -3.93284e-20)
(2.177 -0.0882044 -3.97378e-20)
(2.17627 -0.102161 -5.04497e-20)
(2.2077 -0.124458 9.65975e-20)
(2.19775 -0.139068 -4.5491e-20)
(2.23587 -0.163574 2.37711e-20)
(1.75033 -0.0261242 -6.36638e-20)
(1.76227 -0.0355728 -8.05098e-21)
(1.76066 -0.0430003 1.1923e-19)
(1.77454 -0.0528636 -1.30428e-20)
(1.76627 -0.0601703 -3.41237e-20)
(1.78548 -0.0715132 7.13304e-20)
(1.76793 -0.0793408 -5.24698e-20)
(1.79643 -0.0930854 3.86881e-20)
(1.76547 -0.10209 -1.00798e-20)
(1.80862 -0.11881 -6.66162e-20)
(0.876866 -0.0133045 5.07457e-20)
(0.861628 -0.0129117 4.19369e-20)
(0.844613 -0.0125627 4.14612e-20)
(0.830841 -0.0125814 6.76586e-20)
(0.813372 -0.0130537 -3.45861e-20)
(0.80223 -0.0138712 -4.32984e-20)
(0.781432 -0.0152845 1.93685e-20)
(0.774982 -0.0174874 -2.77666e-21)
(0.742299 -0.0188936 4.17974e-21)
(0.751644 -0.0268238 -6.07211e-21)
(1.57609 0.963398 -8.68058e-20)
(1.55964 1.00958 2.70525e-20)
(1.56325 1.06358 -6.50102e-19)
(1.57203 1.12504 2.37476e-19)
(1.57869 1.18985 1.21702e-18)
(1.57457 1.24999 -1.48459e-19)
(1.53768 1.28304 -1.07846e-18)
(1.4175 1.23666 -9.7762e-22)
(1.1242 1.01414 -5.30897e-19)
(0.527616 0.487989 1.18878e-19)
(1.74165 0.933197 0)
(1.73008 0.977761 7.51128e-19)
(1.72991 1.02775 1.66275e-18)
(1.73819 1.08653 -1.02463e-18)
(1.7481 1.14975 -2.39112e-18)
(1.74732 1.20781 -1.56144e-19)
(1.70853 1.23707 -2.00152e-19)
(1.57351 1.18586 7.31186e-19)
(1.24229 0.963489 1.10041e-18)
(0.577473 0.456325 4.33334e-19)
(1.89497 0.891766 6.91761e-20)
(1.89226 0.936145 0)
(1.89328 0.983213 -6.84304e-20)
(1.9021 1.03749 1.04446e-18)
(1.91403 1.09593 5.66524e-20)
(1.91454 1.14864 -2.33175e-18)
(1.87125 1.17138 1.47414e-18)
(1.7184 1.11462 8.71069e-19)
(1.34774 0.89536 -9.42675e-19)
(0.618298 0.415434 -2.77134e-19)
(2.02947 0.843079 -1.90698e-19)
(2.03685 0.885292 -1.39944e-19)
(2.04328 0.92854 2.85904e-19)
(2.05502 0.977158 -3.54391e-19)
(2.06892 1.02892 -1.63862e-18)
(2.06902 1.07402 -1.27201e-18)
(2.01823 1.08852 1.33534e-18)
(1.84454 1.02419 8.85675e-19)
(1.4319 0.809531 0)
(0.645275 0.36552 0)
(2.14782 0.777414 -9.39862e-19)
(2.16371 0.817324 -1.72196e-18)
(2.17681 0.857143 -6.61595e-19)
(2.1926 0.900569 -3.42667e-20)
(2.20813 0.945714 0)
(2.20599 0.982338 1.38003e-19)
(2.14434 0.986317 1.59311e-19)
(1.944 0.916384 1.98836e-19)
(1.48757 0.709814 -2.84645e-19)
(0.654948 0.307621 -7.12475e-20)
(2.25185 0.703484 1.12287e-18)
(2.27449 0.738913 -4.21251e-20)
(2.29341 0.774 -1.31471e-18)
(2.31275 0.811287 0)
(2.32865 0.848106 0)
(2.32073 0.874971 0)
(2.24199 0.86943 1.50476e-18)
(2.00913 0.793656 -1.65902e-18)
(1.50991 0.596811 -1.04923e-18)
(0.644353 0.244396 1.62761e-20)
(2.34213 0.617078 -1.45971e-18)
(2.36963 0.64818 -3.06257e-18)
(2.39279 0.678692 -5.31055e-21)
(2.41398 0.709975 6.19358e-19)
(2.42717 0.738857 -3.78342e-20)
(2.40829 0.755656 1.3044e-18)
(2.30597 0.739854 -7.2071e-19)
(2.0354 0.658894 -1.90465e-18)
(1.49379 0.475368 1.05682e-19)
(0.612182 0.179918 8.18208e-20)
(2.42067 0.527177 -1.13714e-18)
(2.44977 0.552717 1.59315e-20)
(2.47428 0.57767 4.28483e-19)
(2.49436 0.602122 -4.13903e-19)
(2.50063 0.622308 6.43259e-19)
(2.46465 0.628482 1.70779e-18)
(2.33098 0.602291 -1.49924e-19)
(2.01654 0.517802 -9.98423e-19)
(1.435 0.35226 2.2641e-19)
(0.558818 0.118773 4.13346e-20)
(2.48441 0.432682 4.15335e-19)
(2.51366 0.453868 8.203e-20)
(2.53697 0.473309 -4.26236e-19)
(2.55226 0.490699 -9.98676e-19)
(2.54598 0.501914 6.96056e-20)
(2.48484 0.49757 5.32339e-20)
(2.31066 0.462165 -1.22763e-18)
(1.94672 0.377208 5.23567e-19)
(1.3317 0.234894 1.50539e-19)
(0.486744 0.0654594 -6.06095e-20)
(2.53449 0.340929 7.70592e-19)
(2.56078 0.357108 -1.14775e-18)
(2.57968 0.370435 1.70739e-19)
(2.5852 0.380379 2.26519e-18)
(2.55876 0.38253 1.09963e-18)
(2.46239 0.36838 -2.37185e-18)
(2.23793 0.325984 -2.19044e-18)
(1.82134 0.244817 9.22352e-19)
(1.18506 0.130953 -3.74766e-20)
(0.400646 0.0237177 -9.70616e-20)
(0.543111 0.406327 -1.60394e-19)
(0.502522 0.420207 -1.61118e-19)
(0.456872 0.434984 7.00638e-20)
(0.406784 0.450813 -2.28855e-19)
(0.351933 0.467551 -1.80793e-20)
(0.291474 0.483732 2.10596e-19)
(0.224433 0.493346 3.17437e-20)
(0.151264 0.479198 6.74547e-21)
(0.0790207 0.40411 2.16692e-20)
(0.0162127 0.206145 1.26248e-20)
(0.587987 0.513025 1.29099e-19)
(0.548402 0.533543 1.64031e-19)
(0.504605 0.555547 4.76091e-20)
(0.456786 0.579192 -4.69291e-20)
(0.404293 0.604222 -2.10947e-19)
(0.346006 0.628638 -1.82962e-20)
(0.280231 0.644506 4.71864e-20)
(0.205524 0.629134 4.27025e-20)
(0.125124 0.532916 -1.28447e-19)
(0.0400446 0.27309 -4.44711e-20)
(0.650501 0.61208 -1.03887e-19)
(0.61221 0.63836 -8.97289e-20)
(0.570816 0.666609 9.2623e-20)
(0.526051 0.697306 6.22432e-20)
(0.476977 0.730309 -8.06676e-20)
(0.422148 0.763161 -1.50781e-20)
(0.358793 0.785928 -1.11766e-19)
(0.282571 0.770284 -8.77183e-20)
(0.19082 0.654328 -7.19681e-20)
(0.0740339 0.335752 1.41102e-22)
(0.730387 0.707483 2.74235e-20)
(0.693965 0.740153 -5.79317e-20)
(0.6559 0.774645 -7.68315e-20)
(0.614946 0.811661 -6.82433e-20)
(0.569745 0.851208 -6.57334e-20)
(0.518667 0.890509 -8.73919e-21)
(0.457888 0.917853 -2.94789e-19)
(0.379592 0.899892 6.6065e-20)
(0.273413 0.764103 -3.31295e-19)
(0.116686 0.391495 4.94263e-20)
(0.823062 0.786359 1.16519e-20)
(0.789242 0.823995 1.67227e-20)
(0.755832 0.864011 -5.04929e-20)
(0.720695 0.907459 -2.78633e-19)
(0.681671 0.954105 1.29041e-19)
(0.63632 1.00049 4.80464e-20)
(0.57919 1.03312 3.58117e-20)
(0.498216 1.01394 -1.9306e-19)
(0.373697 0.860531 3.99132e-19)
(0.167864 0.439605 2.89622e-19)
(0.932068 0.864488 -1.02018e-19)
(0.899795 0.906544 -1.95834e-19)
(0.869583 0.9498 1.08106e-20)
(0.83875 0.996758 1.01904e-19)
(0.805108 1.04776 3.80982e-19)
(0.765688 1.09866 2.83294e-19)
(0.712869 1.13377 6.72433e-19)
(0.629303 1.11066 2.75366e-19)
(0.484664 0.939405 1.47807e-19)
(0.224351 0.47723 2.09296e-19)
(1.04703 0.915975 -1.09934e-19)
(1.02103 0.962833 6.39209e-19)
(0.998745 1.01061 4.19013e-19)
(0.975574 1.06186 -5.42547e-19)
(0.948753 1.11717 -2.71111e-19)
(0.915237 1.17235 6.98849e-19)
(0.8658 1.21025 -1.08505e-19)
(0.777535 1.1845 -4.74605e-19)
(0.608328 0.998701 2.96969e-20)
(0.285922 0.503844 2.61684e-19)
(1.1685 0.968943 3.15847e-19)
(1.14249 1.01614 6.00367e-20)
(1.12499 1.06426 -7.95863e-19)
(1.11005 1.11736 1.76754e-19)
(1.09285 1.17512 6.13779e-19)
(1.06824 1.23194 -3.35427e-19)
(1.02407 1.26901 -1.0646e-19)
(0.931321 1.23733 -1.94694e-19)
(0.735968 1.03704 1.96897e-20)
(0.348599 0.518166 -3.036e-19)
(1.29985 0.986169 1.84491e-20)
(1.28449 1.03708 -5.83376e-19)
(1.27425 1.08606 -4.93812e-21)
(1.26478 1.14018 4.99394e-19)
(1.25338 1.20041 -5.19402e-19)
(1.23476 1.26005 1.01488e-18)
(1.19355 1.29791 6.80635e-19)
(1.09348 1.26229 -1.00166e-18)
(0.867951 1.05176 -7.97548e-20)
(0.411441 0.519827 -3.36044e-19)
(1.40247 0.995682 -3.53868e-19)
(1.3991 1.04762 -3.32637e-19)
(1.40666 1.09838 3.07792e-19)
(1.41226 1.15315 8.18785e-19)
(1.41246 1.21263 2.92285e-19)
(1.40244 1.27054 -8.41438e-19)
(1.36468 1.30494 1.10873e-19)
(1.25611 1.26304 2.2775e-19)
(0.998182 1.04427 -3.06072e-19)
(0.471664 0.509607 -2.38075e-19)
(0.995146 0.0122599 6.48564e-22)
(1.01112 0.0419657 -1.80391e-20)
(1.02346 0.0517622 -1.4112e-20)
(1.02382 0.076595 0)
(1.02419 0.0932423 1.68989e-20)
(1.02138 0.12216 2.44491e-20)
(0.99862 0.165919 3.29217e-20)
(0.956366 0.203722 7.40662e-20)
(0.872129 0.268736 -1.13682e-19)
(0.720107 0.337005 -1.68215e-19)
(0.995892 0.0103602 3.72564e-20)
(1.00901 0.0396251 -5.83088e-20)
(1.02302 0.0500006 2.02519e-22)
(1.02184 0.0760879 -1.77429e-20)
(1.02441 0.093615 8.51562e-21)
(1.02234 0.126579 -1.25712e-20)
(1.00204 0.175115 -7.66245e-20)
(0.967117 0.222885 0)
(0.885758 0.305999 2.36602e-19)
(0.7579 0.406915 -2.60783e-19)
(0.996288 0.00868225 -2.6964e-20)
(1.00782 0.0375201 1.61368e-20)
(1.02254 0.0480645 3.72871e-20)
(1.02168 0.0760013 9.38245e-21)
(1.02497 0.0934673 -2.0676e-20)
(1.02616 0.131592 1.13364e-21)
(1.00619 0.183409 -5.36069e-20)
(0.982542 0.242004 -6.17937e-21)
(0.902284 0.341541 1.27866e-22)
(0.809895 0.473951 7.17099e-19)
(0.996395 0.00715054 -3.01635e-20)
(1.00736 0.0356593 2.2618e-21)
(1.02219 0.0458256 3.04837e-20)
(1.0231 0.0763695 2.00125e-20)
(1.02603 0.0926447 -1.04008e-20)
(1.03252 0.137327 -1.48643e-20)
(1.01125 0.190503 7.80374e-20)
(1.00249 0.261658 -1.88546e-21)
(0.921317 0.374181 -2.62233e-19)
(0.875914 0.536724 8.95324e-20)
(0.996294 0.00569398 2.09231e-20)
(1.00738 0.0340043 -2.99556e-20)
(1.02222 0.0432144 -2.44342e-20)
(1.02573 0.0771544 1.19224e-20)
(1.02795 0.0910938 0)
(1.04081 0.143742 0)
(1.01798 0.196305 6.61469e-20)
(1.02542 0.281828 5.60529e-22)
(0.945453 0.403798 -1.20116e-19)
(0.951699 0.593353 9.21532e-20)
(0.996072 0.00424682 5.88233e-21)
(1.00766 0.0324625 2.40831e-20)
(1.02294 0.0402145 -6.66617e-20)
(1.02916 0.0782274 -2.31187e-20)
(1.03108 0.0888499 -5.62492e-22)
(1.0506 0.150775 6.33235e-20)
(1.02653 0.200603 1.02199e-19)
(1.05191 0.303099 -5.94957e-22)
(0.971151 0.428149 1.99202e-19)
(1.04444 0.65013 -2.17009e-19)
(0.995792 0.0028039 -2.26326e-20)
(1.00802 0.0309 1.2731e-20)
(1.02464 0.0368615 -1.83029e-20)
(1.03298 0.0793905 -4.94369e-20)
(1.0359 0.0860437 1.78492e-21)
(1.06112 0.158176 -1.56824e-21)
(1.0383 0.203661 -5.5526e-21)
(1.0787 0.324666 -2.1913e-19)
(1.00763 0.44823 1.46736e-19)
(1.13073 0.69051 -5.37804e-19)
(0.995476 0.00136572 -3.83585e-21)
(1.00838 0.0291558 -3.6733e-20)
(1.02749 0.0332239 3.70316e-20)
(1.03693 0.0804384 2.63705e-20)
(1.04266 0.0828502 9.30475e-22)
(1.07211 0.165526 -7.37484e-20)
(1.0531 0.205892 -5.72756e-20)
(1.10805 0.346634 3.91817e-19)
(1.04334 0.465371 1.47815e-20)
(1.24832 0.748593 8.43907e-19)
(0.995119 -5.14434e-05 1.55131e-20)
(1.00879 0.0270768 1.67416e-20)
(1.03148 0.0294036 4.34258e-20)
(1.04097 0.0812473 -2.90894e-20)
(1.05139 0.0793404 -7.66016e-20)
(1.08315 0.172941 1.10096e-21)
(1.07205 0.2054 -7.90307e-20)
(1.13714 0.366614 5.08329e-19)
(1.09944 0.464802 -9.04036e-21)
(1.31768 0.764974 -1.17145e-18)
(0.994729 -0.00138234 3.58815e-22)
(1.00935 0.0245468 2.61763e-20)
(1.0364 0.0257688 1.43233e-20)
(1.04543 0.0814008 -5.84286e-20)
(1.06085 0.0775689 -7.50475e-20)
(1.09364 0.180282 -6.25712e-20)
(1.09182 0.213019 -1.45519e-19)
(1.16243 0.38948 -4.58175e-19)
(1.1579 0.492154 -2.47556e-19)
(1.45627 0.834201 -1.22869e-18)
(0.994397 -0.00363569 -1.12188e-21)
(1.00958 0.0206798 -5.75601e-21)
(1.04372 0.0185312 -1.63726e-20)
(1.05204 0.0805961 3.2406e-20)
(1.07278 0.0676066 5.68037e-20)
(1.11419 0.184186 -4.10042e-20)
(1.11337 0.196376 1.40601e-19)
(1.20814 0.398443 -4.2304e-19)
(1.22009 0.429964 -1.89649e-19)
(1.47027 0.825051 6.44627e-19)
(0.99462 -0.00702506 1.40711e-21)
(1.00941 0.0145552 1.12351e-20)
(1.0554 0.00681171 -1.12337e-20)
(1.05692 0.0775296 5.95719e-20)
(1.09284 0.0496901 9.74585e-20)
(1.13288 0.180744 1.21038e-19)
(1.15135 0.169734 3.20284e-20)
(1.23529 0.382902 2.0038e-19)
(1.31942 0.377443 3.10033e-19)
(1.49176 0.72312 2.769e-20)
(0.994082 -0.0104482 -1.47185e-21)
(1.01152 0.00607565 -3.95933e-21)
(1.06885 -0.0045694 3.82384e-21)
(1.05983 0.0718576 4.36041e-21)
(1.1206 0.0311913 2.97801e-34)
(1.14364 0.172893 -7.07418e-21)
(1.19568 0.143952 -5.11733e-34)
(1.25149 0.35517 1.8793e-20)
(1.39416 0.320387 -5.6674e-20)
(1.53071 0.631488 -5.70514e-20)
(0.991459 -0.0146894 1.4435e-20)
(1.01919 -0.00510645 -4.48005e-35)
(1.07905 -0.0149985 -4.34829e-21)
(1.06862 0.0612142 -2.52716e-20)
(1.14774 0.0144873 -4.89426e-20)
(1.15461 0.161573 -4.08198e-20)
(1.23075 0.11933 -6.51617e-34)
(1.27435 0.322579 -7.69913e-20)
(1.43097 0.264739 -1.43144e-19)
(1.56884 0.538979 9.58215e-20)
(0.98644 -0.0205456 0)
(1.03383 -0.0184007 2.84543e-35)
(1.08362 -0.0247384 0)
(1.09059 0.0440213 0)
(1.16744 0.000644793 0)
(1.17374 0.144554 0)
(1.25224 0.0974514 -4.53317e-34)
(1.30504 0.282816 0)
(1.4464 0.216415 -2.00887e-20)
(1.60237 0.441392 5.67777e-20)
(0.979437 -0.0284206 2.6808e-21)
(1.05425 -0.0318836 2.79566e-21)
(1.08573 -0.0341882 -5.40403e-21)
(1.12411 0.0238104 0)
(1.17909 -0.00758935 0)
(1.19845 0.123641 6.15015e-21)
(1.26775 0.0796362 4.19257e-20)
(1.33551 0.237447 -1.34666e-20)
(1.46356 0.173314 -2.93224e-20)
(1.62441 0.348224 2.19211e-19)
(0.97187 -0.0430834 -8.00965e-20)
(1.07924 -0.0516109 1.42775e-21)
(1.08872 -0.0501541 -6.00042e-21)
(1.15829 -0.00404124 -1.56806e-20)
(1.17328 -0.0148785 -2.96773e-20)
(1.21404 0.0962546 -1.23544e-20)
(1.2708 0.0623552 -3.47855e-20)
(1.35566 0.187465 -3.05489e-20)
(1.4752 0.133958 -5.53636e-20)
(1.63216 0.263482 6.73681e-20)
(0.966023 -0.0504841 -5.8275e-21)
(1.10057 -0.0596281 -1.81621e-20)
(1.07633 -0.0548388 -6.61441e-21)
(1.155 -0.0199709 -5.10531e-21)
(1.10708 -0.0118057 -4.87047e-35)
(1.18881 0.0683272 6.42292e-21)
(1.21275 0.0464417 -8.52697e-34)
(1.34047 0.135137 -1.30475e-20)
(1.43436 0.0968817 1.82398e-20)
(1.61914 0.183646 2.59829e-20)
(0.960036 -0.091801 1.9633e-19)
(1.0574 -0.0894657 -4.86727e-21)
(0.964661 -0.0736502 -7.12285e-21)
(0.992956 -0.0346334 1.38574e-20)
(0.886458 -0.00944325 1.65514e-20)
(1.01106 0.0361166 1.41519e-20)
(0.990551 0.029739 1.48795e-20)
(1.18002 0.0793912 -8.87987e-21)
(1.23562 0.0606672 -2.03554e-20)
(1.48154 0.104224 1.41955e-19)
(0.828008 -0.0462399 8.32949e-21)
(0.731216 -0.0338937 -9.39033e-35)
(0.535231 -0.018099 -8.28314e-21)
(0.476235 -0.0025403 0)
(0.40522 0.000708109 0)
(0.487311 0.0094494 6.32672e-21)
(0.485557 0.00547386 -5.37213e-36)
(0.628011 0.0175144 -1.26006e-20)
(0.68662 0.00995181 -2.66901e-20)
(0.873783 0.0182096 5.60653e-20)
(1.67954 0.84717 -1.94369e-19)
(1.78053 0.828738 -2.86332e-19)
(1.89846 0.792579 0)
(2.00676 0.749335 1.59712e-19)
(2.10843 0.687648 6.76655e-19)
(2.19833 0.622755 -1.17916e-19)
(2.27932 0.544663 1.73365e-18)
(2.35351 0.467859 -8.52613e-20)
(2.41346 0.383673 -3.77935e-19)
(2.47063 0.30522 3.33557e-19)
(1.70521 0.695209 1.00301e-19)
(1.77897 0.680519 1.13909e-19)
(1.87835 0.644493 -1.45505e-20)
(1.96125 0.607065 2.22141e-19)
(2.05848 0.548822 -1.81317e-19)
(2.12302 0.499913 -4.20658e-19)
(2.20975 0.43141 -1.27902e-19)
(2.25581 0.37989 5.74221e-19)
(2.33554 0.30698 -2.21983e-20)
(2.36001 0.257833 -4.897e-19)