/*--------------------------------*- C++ -*----------------------------------*\
  =========                 |
  \\      /  F ield         | OpenFOAM: The Open Source CFD Toolbox
   \\    /   O peration     | Website:  https://openfoam.org
    \\  /    A nd           | Version:  13
     \\/     M anipulation  |
\*---------------------------------------------------------------------------*/
FoamFile
{
    format      ascii;
    class       volScalarField;
    location    "16.3";
    object      p;
}
// * * * * * * * * * * * * * * * * * * * * * * * * * * * * * * * * * * * * * //

dimensions      [0 2 -2 0 0 0 0];

internalField   nonuniform List<scalar> 
440
(
-0.46381
-0.44661
-0.464968
-0.408076
-0.475709
-0.508705
-0.493769
-0.475908
-0.449821
-0.434196
-0.613883
-0.584156
-0.550256
-0.508127
-0.460713
-0.740347
-0.694591
-0.616695
-0.523039
-0.428387
-0.834273
-0.773005
-0.636007
-0.492362
-0.359011
-1.03268
-1.03126
-1.03555
-1.05032
-1.081
-0.950016
-0.965831
-1.00364
-1.06031
-1.15375
-0.736443
-0.74052
-0.75499
-0.783315
-0.817357
-0.539275
-0.537645
-0.531968
-0.512501
-0.473523
-0.371479
-0.371339
-0.355796
-0.298999
-0.245039
-1.11137
-1.67025
-1.19921
0.424041
0.00350166
-0.859645
-1.39557
-1.15456
0.303831
0.00631112
-0.616772
-1.12442
-0.992542
0.157673
-0.0137007
-0.398508
-1.04754
-0.844375
0.0582822
-0.0407503
-0.239865
-1.12787
-0.720735
-0.00192805
-0.0427773
-0.0141406
-1.07628
-0.55045
-0.0596067
-0.0539404
0.0365655
-0.799385
-0.359196
-0.0615116
-0.0514233
0.0855919
-0.531772
-0.28073
-0.0829014
-0.0330361
0.146212
-0.33186
-0.241294
-0.100983
-0.0582878
0.214511
-0.16098
-0.236855
-0.115411
-0.0492814
-0.125861
-0.250281
-0.376329
-0.521169
-0.571993
0.109024
-0.0160807
-0.0763085
-0.11389
-0.0958868
0.253242
0.157502
0.0992071
0.0644251
0.0432544
0.344253
0.256766
0.188048
0.151943
0.124512
0.38734
0.298556
0.227507
0.193643
0.175
1.11323
0.971155
0.79114
0.590774
0.369455
0.726598
0.572727
0.383356
0.169854
-0.0663213
0.34243
0.184455
-0.0121954
-0.236972
-0.446461
0.0148053
-0.147877
-0.344027
-0.555382
-0.715971
-0.2156
-0.371744
-0.550211
-0.735304
-0.838339
2.22011
2.25261
2.28357
2.30122
2.30127
2.0433
2.06627
2.08527
2.08802
2.06972
1.83038
1.82124
1.79064
1.73846
1.66139
1.58425
1.5525
1.48662
1.39055
1.26638
1.35315
1.25751
1.13101
0.982843
0.804195
1.96187
1.95823
1.93678
2.00408
2.09572
1.95313
1.9475
1.92053
1.98609
2.01587
1.94547
1.93365
1.90126
1.95601
1.91534
1.93907
1.9175
1.88002
1.91118
1.7604
1.93396
1.90029
1.85735
1.86596
1.59605
1.93071
1.87374
1.8277
1.76164
1.41006
1.93177
1.84461
1.8208
1.64555
1.46938
1.9371
1.83196
1.8189
1.58824
1.4866
1.93447
1.80304
1.81813
1.53357
1.4897
1.97249
1.79756
1.81835
1.50075
1.50842
1.08512
0.810492
0.491565
0.223957
0.0227519
1.0062
0.808338
0.597325
0.411152
0.23678
1.00399
0.833046
0.670981
0.515692
0.373254
1.04606
0.882862
0.732522
0.589596
0.463326
1.08576
0.925405
0.777204
0.635349
0.508504
-1.72061
-1.53819
-1.33686
-1.16855
-1.0656
-1.81885
-1.72744
-1.55702
-1.40217
-1.29272
-1.75334
-1.6939
-1.56723
-1.43667
-1.31998
-1.60315
-1.55343
-1.48055
-1.38937
-1.28941
-1.44264
-1.41847
-1.38141
-1.32614
-1.24775
-1.34777
-1.34277
-1.31785
-1.3336
-1.24376
-1.27076
-1.27082
-1.25717
-1.28697
-1.22103
-1.19553
-1.19369
-1.19151
-1.20611
-1.18847
-1.09396
-1.08286
-1.06671
-1.05465
-1.04868
-1.04687
-1.03079
-1.01105
-0.99406
-0.983009
-0.800856
-0.912118
-0.0406216
0.358872
0.0332349
-0.795667
-0.961094
0.00993945
0.419073
0.0268482
-0.771467
-1.10483
-0.231088
0.474774
0.00469946
-0.851617
-1.4599
-0.758476
0.499677
-0.0068451
-1.07597
-1.78303
-1.07429
0.484738
-0.00383004
-0.480995
-1.02606
-0.12134
0.276211
0.0392845
-0.754059
-0.940016
-0.0303911
0.320762
0.0432374
-1.00628
-1.21074
-1.2203
-1.11089
-0.883866
-1.02826
-1.2321
-1.23681
-1.15642
-1.0585
1.77788
1.74808
1.69954
1.63306
1.54505
1.98864
2.0058
2.00628
1.98798
1.95143
2.1688
2.19995
2.22291
2.23276
2.22762
2.27699
2.31623
2.35746
2.39043
2.40473
2.29342
2.33165
2.37425
2.41004
2.42674
-0.567486
-0.68983
-0.880564
-1.10766
-1.38321
0.0837306
-0.0666489
-0.266563
-0.508528
-0.822526
0.682622
0.527524
0.340888
0.120009
-0.161621
1.1641
1.04237
0.895015
0.716036
0.496163
1.54957
1.46362
1.35192
1.21798
1.05891
2.02037
1.98257
1.96122
1.95976
1.95471
2.00567
1.9808
1.9623
1.98135
2.02995
1.9933
1.97776
1.96298
2.00484
2.11615
1.98191
1.9733
1.95827
2.01471
2.13234
1.97142
1.96724
1.94927
2.01466
2.13275
2.07516
1.98672
1.9458
1.87809
1.81186
2.03025
1.9782
1.94189
1.90186
1.82706
1.42509
1.17566
0.750034
0.136666
-0.528217
1.51342
1.21225
0.76776
0.158093
-0.521618
)
;

boundaryField
{
    left
    {
        type            zeroGradient;
    }
    right
    {
        type            fixedValue;
        value           uniform 0;
    }
    down
    {
        type            zeroGradient;
    }
    up
    {
        type            zeroGradient;
    }
    cylinder
    {
        type            zeroGradient;
    }
    defaultFaces
    {
        type            empty;
    }
}


// ************************************************************************* //
