/*--------------------------------*- C++ -*----------------------------------*\
  =========                 |
  \\      /  F ield         | OpenFOAM: The Open Source CFD Toolbox
   \\    /   O peration     | Website:  https://openfoam.org
    \\  /    A nd           | Version:  13
     \\/     M anipulation  |
\*---------------------------------------------------------------------------*/
FoamFile
{
    format      ascii;
    class       volVectorField;
    location    "3";
    object      U;
}
// * * * * * * * * * * * * * * * * * * * * * * * * * * * * * * * * * * * * * //

dimensions      [0 1 -1 0 0 0 0];

internalField   nonuniform List<vector> 
440
(
(-0.082313 0.0559996 -7.88371e-20)
(-0.135682 0.129595 9.51977e-20)
(-0.0167258 0.173023 6.36312e-20)
(0.371465 0.217258 4.3815e-19)
(0.45466 0.313691 1.31766e-21)
(-0.100379 0.0495796 2.50629e-20)
(0.0255564 0.0203151 -1.56996e-19)
(0.514413 -0.0137403 -1.03828e-19)
(1.09505 -0.0360882 5.12608e-20)
(1.60347 -0.0402188 -2.0952e-21)
(-0.0444034 0.0145819 5.62769e-20)
(0.478258 -0.031212 7.54953e-19)
(1.28569 -0.0203532 -3.91129e-19)
(1.90481 0.0151262 -1.17162e-18)
(2.44324 0.0250268 4.3085e-19)
(0.171662 -0.0414269 -1.83891e-19)
(1.20026 0.0111893 -5.47572e-19)
(2.01228 0.0877401 1.76803e-18)
(2.46288 0.128988 1.92416e-18)
(2.54009 0.152343 -5.39418e-19)
(0.549199 -0.00599853 -3.05429e-19)
(1.78015 0.198335 -6.43411e-19)
(2.35653 0.285751 1.95862e-18)
(2.50136 0.306186 2.09516e-18)
(2.59261 0.27976 6.98123e-19)
(-0.041359 0.367966 1.70603e-19)
(-0.15556 0.534444 6.84422e-20)
(-0.260534 0.526007 -3.20302e-19)
(-0.353792 0.481594 4.62929e-20)
(-0.414158 0.425791 2.23166e-19)
(-0.0938708 0.446321 -2.3759e-21)
(-0.186479 0.70079 -2.04504e-19)
(-0.245258 0.715439 6.12262e-20)
(-0.290416 0.666633 6.10082e-20)
(-0.301729 0.59221 -1.18682e-19)
(-0.126472 0.384235 -1.76835e-19)
(-0.20029 0.729347 8.47533e-20)
(-0.207016 0.801784 -6.5778e-20)
(-0.176703 0.758005 -5.94523e-19)
(-0.129677 0.677483 6.36334e-21)
(-0.10009 0.207777 -2.54055e-20)
(-0.170766 0.533382 2.96976e-20)
(-0.159655 0.673764 5.63243e-20)
(-0.0901387 0.688431 3.32347e-19)
(-0.0303314 0.638238 -7.84655e-20)
(-0.0677458 0.0818994 -6.84836e-20)
(-0.157875 0.277677 -8.59614e-20)
(-0.164749 0.419405 -9.86976e-20)
(-0.0780103 0.478893 -1.00828e-19)
(0.0188601 0.5325 -5.74566e-19)
(-0.519686 0.0699131 -1.08595e-18)
(0.0770275 -0.415946 6.93249e-19)
(0.51326 -0.376622 2.65457e-20)
(0.775848 -0.264324 -1.05171e-20)
(0.984599 -0.12471 -3.70587e-22)
(-0.0625686 0.00351623 1.03127e-18)
(0.443465 -0.543796 -1.72653e-19)
(0.703116 -0.467768 7.30773e-20)
(0.872903 -0.323369 7.08326e-20)
(1.01623 -0.150389 1.1384e-20)
(0.573383 -0.0958894 2.44782e-19)
(0.955575 -0.60508 7.51774e-19)
(1.01784 -0.508488 -6.06661e-20)
(1.03492 -0.352251 1.09872e-19)
(1.06775 -0.164704 -4.14986e-21)
(1.13459 -0.241925 -1.70809e-19)
(1.36463 -0.655751 -2.66079e-19)
(1.32138 -0.514983 -4.46877e-20)
(1.22434 -0.346303 -1.17785e-19)
(1.13461 -0.163026 4.30833e-20)
(1.51773 -0.404847 -1.14444e-19)
(1.65358 -0.683152 -4.50958e-19)
(1.51458 -0.509449 0)
(1.3699 -0.319499 1.0251e-19)
(1.19599 -0.147097 2.15997e-20)
(2.19529 -0.412444 -4.32004e-19)
(2.03601 -0.623555 1.72931e-19)
(1.68908 -0.472401 -1.47519e-20)
(1.46698 -0.275882 7.74698e-20)
(1.23934 -0.11852 -6.46252e-20)
(2.43523 -0.468879 3.47767e-20)
(2.01318 -0.534264 2.45088e-19)
(1.51514 -0.307805 -1.15899e-20)
(1.28731 -0.153914 -7.49407e-20)
(1.14672 -0.0665627 0)
(2.34232 -0.321317 -4.80479e-19)
(2.01756 -0.354277 1.36468e-20)
(1.63232 -0.201191 -1.07145e-19)
(1.37585 -0.110167 4.16113e-20)
(1.17382 -0.0517906 -1.77208e-20)
(2.20678 -0.273893 9.20057e-20)
(1.71564 -0.279668 1.2362e-19)
(1.33935 -0.0896789 -2.62094e-20)
(1.16073 0.00673969 -3.50703e-34)
(1.03648 0.0061632 1.75372e-20)
(1.37676 -0.0846259 1.63651e-19)
(0.751907 -0.0303051 1.56454e-20)
(0.527789 0.00896251 -4.75927e-21)
(0.53444 0.0108524 -8.23371e-21)
(0.561444 0.00240483 1.20195e-21)
(2.45699 0.302177 -8.53643e-19)
(2.70394 0.0652965 -1.08716e-18)
(2.4819 0.138612 6.67981e-19)
(2.8078 -0.108737 1.07133e-19)
(2.04122 0.141849 -1.59645e-21)
(2.17329 0.222907 7.99204e-20)
(2.506 0.0222624 -3.96107e-20)
(2.30314 0.0742955 -1.45064e-19)
(2.58672 -0.136153 -2.02897e-19)
(2.39191 -0.126406 -8.5255e-21)
(2.13143 0.121072 8.26101e-20)
(2.26793 0.0251338 8.92917e-20)
(2.25157 0.00515304 -1.14882e-19)
(2.32527 -0.0842195 4.36881e-20)
(2.34643 -0.12991 -2.45895e-21)
(2.08968 0.0502128 1.20589e-19)
(2.10918 0.000203047 1.56555e-19)
(2.19483 -0.0163386 -2.03826e-20)
(2.18587 -0.0716944 -5.70085e-20)
(2.26029 -0.0940806 3.56979e-20)
(1.59302 -0.0137518 1.85812e-19)
(1.55033 -0.0157852 -1.25684e-20)
(1.62438 -0.0272428 2.3099e-20)
(1.54507 -0.0293165 -2.78832e-20)
(1.61575 -0.0464395 5.88507e-21)
(1.62874 0.873839 1.17016e-18)
(1.58082 0.974603 -3.67101e-19)
(1.58159 1.10777 -1.3917e-18)
(1.51359 1.15618 7.67394e-19)
(0.931115 0.837731 -1.80026e-19)
(1.92906 0.837962 -5.96184e-19)
(1.89553 0.919095 -3.16633e-18)
(1.89429 1.02738 -1.22743e-18)
(1.80466 1.03723 -4.25822e-19)
(1.10319 0.72882 -6.98939e-19)
(2.21198 0.711399 8.18753e-19)
(2.20012 0.783518 2.04282e-19)
(2.18231 0.874268 -2.424e-18)
(2.04395 0.859022 -6.7423e-19)
(1.202 0.566962 4.83189e-19)
(2.39961 0.603576 2.39507e-18)
(2.3828 0.653011 1.7565e-18)
(2.37278 0.701906 -2.01686e-18)
(2.14675 0.653457 -1.53175e-18)
(1.16146 0.370863 -2.72257e-19)
(2.52646 0.439516 1.16498e-18)
(2.54281 0.462896 -8.30436e-19)
(2.44257 0.486779 5.98378e-19)
(2.08255 0.422092 4.61048e-19)
(0.947223 0.158872 -3.8311e-19)
(0.568736 0.488581 -5.46354e-19)
(0.481761 0.522222 -4.15767e-19)
(0.365986 0.558123 4.51307e-20)
(0.230246 0.575317 1.35615e-21)
(0.0587633 0.422041 9.07868e-20)
(0.665944 0.674632 1.4374e-19)
(0.602922 0.741623 -2.35272e-19)
(0.518439 0.816523 1.81388e-19)
(0.396866 0.864411 -8.59782e-20)
(0.173786 0.645255 1.20839e-19)
(0.800291 0.841057 1.04146e-19)
(0.725862 0.9189 4.82417e-19)
(0.669527 1.0196 1.27495e-19)
(0.585473 1.07252 -3.2182e-19)
(0.320308 0.793377 2.74967e-19)
(1.06755 0.931581 2.74617e-19)
(1.01886 1.02103 -8.17298e-19)
(0.969261 1.12322 -2.10011e-18)
(0.889245 1.18587 8.35377e-19)
(0.525057 0.878476 -1.6363e-19)
(1.19524 0.957518 -1.1784e-19)
(1.21539 1.08076 -1.95041e-19)
(1.23119 1.1999 -3.88918e-19)
(1.17443 1.23273 -4.44886e-19)
(0.72002 0.891093 -7.00403e-21)
(0.944651 0.0291591 -9.98904e-20)
(1.05467 0.0495527 -3.39587e-20)
(1.01998 0.136743 -2.00059e-21)
(0.94879 0.180604 -3.00607e-19)
(0.873974 0.313752 2.93777e-19)
(0.94353 0.0236282 6.69419e-20)
(1.05955 0.0505555 1.21607e-19)
(1.01647 0.141379 1.19526e-19)
(0.983889 0.220177 4.6956e-20)
(0.92754 0.377359 -2.5217e-20)
(0.948209 0.0197647 9.07721e-20)
(1.04839 0.046861 -4.49617e-21)
(1.0603 0.157762 -4.38538e-21)
(0.931545 0.220336 1.53683e-19)
(1.1644 0.53747 -4.82239e-19)
(0.948226 0.0161169 -1.26468e-21)
(1.05566 0.0429066 -1.61426e-19)
(1.0572 0.172566 -6.41421e-20)
(1.01731 0.236784 -4.04447e-19)
(1.18243 0.553447 1.00157e-19)
(0.948927 0.0115192 -1.91259e-20)
(1.05187 0.0442777 4.37534e-20)
(1.09905 0.180585 3.09283e-20)
(0.988377 0.248217 4.51142e-19)
(1.48163 0.70197 -4.5379e-19)
(0.932762 0.0095422 -1.48475e-20)
(1.08401 0.0266457 9.05813e-20)
(1.09203 0.204149 -8.27591e-20)
(1.1545 0.187128 8.20848e-19)
(1.33728 0.69304 -3.8305e-19)
(0.930353 -0.0086918 -2.00288e-21)
(1.1044 0.0151438 -8.00696e-20)
(1.07571 0.156839 4.45651e-21)
(1.2413 0.178528 -2.60268e-19)
(1.40839 0.440429 -1.0183e-20)
(0.942084 -0.0166164 -4.53156e-21)
(1.09086 0.00810651 1.19488e-35)
(1.10658 0.124287 -3.66218e-20)
(1.28826 0.110149 9.05972e-20)
(1.51112 0.30416 1.66149e-19)
(0.962563 -0.0436864 4.7699e-21)
(1.03664 -0.0158374 -2.31763e-20)
(1.152 0.049295 1.77344e-20)
(1.25121 0.058513 3.3038e-20)
(1.54292 0.186478 -2.53721e-19)
(0.901483 -0.0226747 -3.67649e-20)
(0.856615 -0.0231385 -2.33933e-21)
(0.888147 0.0050406 2.69257e-20)
(0.914652 0.00593411 -1.56053e-20)
(1.17026 0.0561407 -5.77302e-20)
(1.86433 0.660241 3.18075e-19)
(1.95285 0.677747 8.019e-19)
(2.22741 0.544792 -1.14125e-18)
(2.27869 0.529721 2.33963e-20)
(2.51665 0.317259 4.85752e-19)
(1.79841 0.431576 6.19383e-20)
(1.82407 0.437366 9.80242e-19)
(2.04888 0.354995 1.14164e-19)
(2.01923 0.35348 -9.60118e-19)
(2.3051 0.189541 -2.93029e-19)
(1.74589 0.3078 -2.2004e-19)
(1.81899 0.277912 -1.53341e-19)
(1.94112 0.241288 1.64691e-19)
(1.98641 0.214195 -3.0743e-19)
(2.13334 0.134898 2.76013e-19)
(1.70085 0.186788 3.41261e-19)
(1.79262 0.160762 -4.91007e-21)
(1.84822 0.140315 2.2776e-19)
(1.94907 0.113193 2.03381e-19)
(1.99435 0.0713594 -1.97959e-19)
(1.34666 0.0473412 -4.11413e-20)
(1.41705 0.0313228 2.3296e-19)
(1.45219 0.0217977 1.09371e-19)
(1.52256 0.00585597 -2.31939e-19)
(1.5221 -0.00157332 2.61571e-22)
(1.07965 -0.0170273 5.9128e-20)
(2.05259 -0.0447203 -3.83116e-19)
(2.28523 -0.0353564 1.04604e-18)
(2.26069 0.00168363 4.54981e-19)
(2.12385 0.0324804 -3.22493e-19)
(0.676278 0.0921809 1.05161e-19)
(1.83264 0.0826636 -3.86267e-19)
(2.28668 0.0829578 -5.12493e-19)
(2.3608 0.0899002 6.0692e-19)
(2.09416 0.0760451 -3.69273e-19)
(0.21934 0.0760373 -1.89759e-20)
(1.21793 0.139781 4.01047e-19)
(1.93882 0.154352 5.27513e-20)
(2.31213 0.14142 2.82298e-19)
(2.51778 0.135729 7.4359e-20)
(-0.0240946 -0.0154675 1.70299e-19)
(0.442251 0.0746981 1.70277e-19)
(1.18034 0.137333 -3.56566e-19)
(1.64737 0.156524 1.65738e-20)
(2.18851 0.175111 -4.92879e-20)
(-0.0846126 -0.0672079 1.24846e-19)
(0.0083221 -0.0392994 -1.32654e-19)
(0.389785 0.0295923 -2.45508e-20)
(0.856808 0.0560958 3.6545e-20)
(1.1582 0.080234 -4.0602e-20)
(-0.0573074 -0.0555807 -3.24761e-21)
(-0.0899773 -0.0896694 7.12323e-20)
(-0.00471182 -0.0876216 8.64746e-20)
(0.189086 -0.0576203 -1.23589e-19)
(0.440498 -0.0350078 -7.03464e-23)
(-0.0432606 -0.078501 -1.26681e-20)
(-0.0808997 -0.170378 -6.19314e-21)
(-0.0717472 -0.203783 9.48493e-21)
(-0.022977 -0.190753 2.25861e-20)
(0.0785535 -0.155334 1.64681e-20)
(-0.0449232 -0.0897233 -1.72953e-20)
(-0.115789 -0.153565 -1.95946e-19)
(-0.158406 -0.149998 1.63211e-19)
(-0.181574 -0.122583 4.23784e-19)
(-0.170862 -0.0940017 -5.62194e-20)
(-0.0175527 0.0311184 1.44383e-20)
(-0.127182 0.0391549 9.77968e-20)
(-0.231098 0.0365263 -2.7562e-19)
(-0.314279 0.0394034 -2.64013e-19)
(-0.362142 0.0454137 1.62881e-20)
(-0.00739043 0.206515 -4.04064e-21)
(-0.120357 0.293536 2.02787e-20)
(-0.235868 0.287537 -1.35709e-20)
(-0.338022 0.266637 3.95598e-20)
(-0.408264 0.240234 1.65654e-19)
(1.29669 0.348138 -1.77029e-20)
(1.23061 0.0727341 8.2583e-19)
(1.14225 -0.000198168 -6.43547e-20)
(0.997174 0.0368793 -8.30447e-20)
(1.01788 0.0265514 4.90698e-22)
(0.853513 0.199079 8.34978e-20)
(0.553214 0.0977886 -3.00829e-19)
(0.667035 0.0523976 -1.62679e-19)
(0.765651 0.0183363 -1.15254e-20)
(0.963218 -0.000862989 -1.48163e-20)
(0.0494638 0.160131 6.41195e-20)
(0.00572741 0.0682105 -3.92146e-19)
(0.455466 -0.0466868 2.68154e-20)
(0.699419 -0.0484936 1.34027e-19)
(0.949589 -0.0258882 2.98483e-21)
(-0.46917 0.130184 1.82403e-19)
(-0.10043 -0.0508273 -5.57419e-19)
(0.432683 -0.144882 5.49042e-20)
(0.704101 -0.121104 2.66526e-21)
(0.954831 -0.0626503 8.68571e-21)
(-0.624674 0.101996 1.16131e-19)
(-0.0688082 -0.227491 2.12845e-20)
(0.448206 -0.261512 -2.62527e-20)
(0.729783 -0.192484 -8.2254e-21)
(0.966687 -0.0933699 1.48516e-20)
(0.715571 0.102328 -6.52042e-20)
(0.187899 -0.0467677 0)
(0.284099 -0.0737058 -2.84267e-20)
(0.407157 -0.0561756 2.58035e-20)
(0.516481 -0.0241211 8.10423e-22)
(1.7837 0.352042 0)
(1.47272 0.190336 0)
(1.45546 0.00690549 3.72983e-19)
(1.28213 -0.0191099 4.99285e-20)
(1.09979 -0.00456232 -1.07946e-21)
(0.684936 -0.000185298 -1.19441e-19)
(0.720854 -0.00331398 2.38019e-19)
(0.895036 -0.0186647 -1.66874e-20)
(1.03953 0.00699511 2.22382e-19)
(1.30911 0.0380043 1.43773e-19)
(1.5556 0.0211297 1.13613e-19)
(1.63945 0.0662513 2.54929e-19)
(1.87336 0.0184196 -3.68421e-20)
(2.41114 0.146615 -6.17171e-20)
(2.05395 0.0640739 3.28492e-21)
(0.84502 -0.417932 -3.65175e-20)
(0.822107 -0.499337 -1.37325e-19)
(0.804155 -0.588556 -8.40585e-20)
(0.731734 -0.650146 5.13236e-20)
(0.440668 -0.506956 1.1275e-19)
(0.734346 -0.321475 1.15406e-19)
(0.681253 -0.381124 2.46794e-19)
(0.612349 -0.447942 -2.42872e-20)
(0.505229 -0.503673 1.21831e-19)
(0.271061 -0.399286 5.17232e-20)
(0.603428 -0.182312 -1.41696e-19)
(0.521097 -0.215767 -4.41035e-20)
(0.421266 -0.258328 1.38381e-19)
(0.304167 -0.298129 -4.17243e-21)
(0.129311 -0.242517 -1.00762e-19)
(0.516735 0.0419403 -3.92683e-19)
(0.434318 0.0321243 -3.31641e-19)
(0.326786 0.0135897 2.66837e-19)
(0.202379 -0.0164832 1.74994e-19)
(0.0491575 -0.0379564 1.34682e-20)
(0.494145 0.245049 -1.61689e-19)
(0.411027 0.255663 -1.60955e-19)
(0.300928 0.267933 -7.34856e-20)
(0.172768 0.274181 1.13612e-20)
(0.0225973 0.194467 9.60521e-21)
(1.88277 -0.0391402 6.91369e-19)
(2.14573 -0.0985311 2.21669e-19)
(2.20645 -0.176275 -6.13212e-19)
(2.05667 -0.203354 -1.27616e-18)
(1.22737 -0.17147 1.12251e-19)
(1.87067 -0.108439 1.1627e-18)
(1.94582 -0.213463 1.56158e-18)
(1.96407 -0.327738 1.33155e-19)
(1.88124 -0.384657 2.37307e-19)
(1.19638 -0.329939 -1.56334e-19)
(1.59471 -0.258919 -3.00314e-18)
(1.66138 -0.36874 3.11599e-19)
(1.70033 -0.484022 9.46367e-19)
(1.6316 -0.553171 -3.42104e-19)
(1.05126 -0.46214 5.49922e-19)
(1.40097 -0.368339 6.93074e-19)
(1.41264 -0.458625 -1.86946e-18)
(1.3924 -0.566416 -2.107e-18)
(1.31837 -0.645603 6.3475e-19)
(0.845016 -0.526929 4.57812e-19)
(1.1339 -0.412953 1.31478e-19)
(1.08887 -0.499055 2.21205e-19)
(1.07095 -0.60974 -3.19113e-19)
(1.00913 -0.687912 -3.84403e-19)
(0.633231 -0.543019 -3.49892e-21)
(0.964895 0.042717 6.13101e-21)
(1.03107 0.0757665 -2.91696e-21)
(1.06084 0.0660448 -1.00662e-20)
(0.783116 0.00401993 -1.77279e-19)
(1.03252 -0.159079 -1.07866e-20)
(0.966546 0.0439579 -2.61415e-21)
(1.02242 0.070969 4.62709e-20)
(1.08198 0.0963429 -4.75111e-20)
(0.849182 0.0476168 9.29278e-20)
(0.919397 -0.0514768 -1.34259e-20)
(0.966615 0.0396267 -5.72567e-20)
(1.01425 0.0642131 2.14765e-22)
(1.0839 0.105392 -1.78159e-20)
(0.858442 0.0838333 1.76919e-20)
(0.883965 0.00378549 -1.52845e-19)
(0.95882 0.0376994 7.55936e-20)
(1.02799 0.0550635 3.89148e-21)
(1.0534 0.119722 3.11503e-20)
(0.906178 0.116592 3.25522e-20)
(0.813895 0.108783 1.00417e-19)
(0.949709 0.0335151 1.84968e-20)
(1.04568 0.0524594 -3.06864e-20)
(1.02508 0.125415 4.07283e-20)
(0.943527 0.156448 7.90571e-20)
(0.800699 0.203813 -1.22597e-19)
(0.87005 0.0333646 0)
(0.752987 0.0302289 1.12249e-20)
(0.548363 0.0185725 1.44512e-21)
(0.463801 -0.00814846 3.50572e-20)
(0.644158 -0.0400982 -1.26736e-19)
(0.956948 0.0643768 -5.98921e-20)
(1.03151 0.0881289 -1.47829e-20)
(0.929702 0.0547904 -3.31958e-20)
(0.857792 -0.00449115 -1.03713e-19)
(0.961943 -0.148987 -1.32889e-19)
(0.884319 -0.0550085 -2.68841e-20)
(0.960451 -0.0219496 4.49309e-19)
(1.03246 0.0413508 2.72088e-19)
(0.904164 0.0504064 3.22233e-20)
(0.694858 0.025392 0)
(1.20841 -0.278103 2.67308e-19)
(1.31303 -0.249773 1.27191e-18)
(1.47335 -0.13805 -1.3995e-18)
(1.56471 -0.0161306 -4.25911e-19)
(1.45317 0.0246865 3.28569e-19)
)
;

boundaryField
{
    left
    {
        type            fixedValue;
        value           uniform (1 0 0);
    }
    right
    {
        type            zeroGradient;
    }
    down
    {
        type            noSlip;
    }
    up
    {
        type            noSlip;
    }
    cylinder
    {
        type            noSlip;
    }
    defaultFaces
    {
        type            empty;
    }
}


// ************************************************************************* //
