/*--------------------------------*- C++ -*----------------------------------*\
  =========                 |
  \\      /  F ield         | OpenFOAM: The Open Source CFD Toolbox
   \\    /   O peration     | Website:  https://openfoam.org
    \\  /    A nd           | Version:  13
     \\/     M anipulation  |
\*---------------------------------------------------------------------------*/
FoamFile
{
    format      ascii;
    class       volScalarField;
    location    "0.095";
    object      p;
}
// * * * * * * * * * * * * * * * * * * * * * * * * * * * * * * * * * * * * * //

dimensions      [0 2 -2 0 0 0 0];

internalField   nonuniform List<scalar> 
1800
(
-0.881979
-0.797126
-0.690788
-0.58464
-0.490916
-0.410311
-0.340582
-0.279599
-0.225547
-0.180313
-1.03959
-0.945887
-0.827249
-0.708034
-0.602324
-0.510982
-0.431693
-0.362396
-0.302012
-0.25213
-1.18656
-1.0841
-0.953536
-0.821788
-0.704702
-0.603171
-0.51475
-0.437291
-0.369565
-0.312229
-1.31787
-1.20698
-1.06519
-0.921816
-0.794372
-0.683654
-0.587071
-0.502354
-0.428169
-0.364812
-1.42831
-1.30951
-1.15747
-1.00358
-0.866958
-0.7481
-0.644259
-0.553051
-0.473052
-0.4041
-1.51282
-1.38683
-1.22576
-1.06275
-0.918357
-0.792607
-0.682605
-0.585877
-0.500898
-0.42712
-1.56667
-1.43449
-1.26584
-1.09533
-0.944816
-0.813584
-0.698657
-0.597506
-0.508511
-0.430806
-1.58585
-1.44864
-1.27408
-1.09802
-0.943188
-0.807996
-0.689494
-0.585123
-0.493175
-0.412521
-1.56722
-1.42622
-1.24781
-1.06838
-0.911109
-0.773513
-0.652863
-0.546554
-0.45278
-0.370209
-1.50883
-1.3654
-1.18584
-1.00449
-0.847094
-0.708772
-0.587441
-0.480467
-0.385935
-0.302449
0.324232
0.34883
0.369258
0.383289
0.39163
0.395871
0.39717
0.396301
0.39382
0.390267
0.289216
0.316051
0.339466
0.356715
0.368053
0.374978
0.378679
0.379963
0.379414
0.37769
0.22793
0.258144
0.286144
0.308325
0.324241
0.335252
0.342593
0.34713
0.349494
0.350545
0.142088
0.176672
0.210741
0.239441
0.261393
0.277767
0.289865
0.298631
0.304764
0.309396
0.0339794
0.0737892
0.115281
0.151932
0.181227
0.204096
0.221923
0.235749
0.246352
0.255204
-0.0934741
-0.0476843
0.0024359
0.0483044
0.0860887
0.116435
0.140824
0.160401
0.176038
0.18959
-0.23671
-0.184259
-0.124453
-0.0682548
-0.0209802
0.017706
0.0493857
0.0753157
0.0964607
0.115107
-0.391616
-0.33187
-0.26146
-0.193954
-0.136296
-0.0884764
-0.0488134
-0.0159513
0.011168
0.0352877
-0.553741
-0.486104
-0.404294
-0.324604
-0.255718
-0.197958
-0.149567
-0.109129
-0.0754249
-0.0453835
-0.718605
-0.642536
-0.548648
-0.455953
-0.374923
-0.306157
-0.247802
-0.198345
-0.156277
-0.119375
0.346773
0.2635
0.219052
0.181154
0.148481
0.119318
0.0919013
0.065331
0.0390927
0.0129918
0.34587
0.267368
0.222563
0.183979
0.150547
0.120738
0.0928408
0.0659155
0.0394078
0.0130842
0.338235
0.26991
0.225527
0.186708
0.152723
0.122321
0.0939363
0.0666232
0.0398001
0.0132024
0.323263
0.270991
0.22797
0.189333
0.154991
0.124055
0.0951789
0.067448
0.0402666
0.0133459
0.300263
0.270287
0.229904
0.191838
0.15733
0.125923
0.0965586
0.0683832
0.0408036
0.0135139
0.268821
0.267151
0.231263
0.194196
0.159712
0.12791
0.0980635
0.0694211
0.041407
0.0137057
0.229284
0.260611
0.231845
0.196355
0.162106
0.129992
0.0996804
0.0705532
0.0420724
0.0139207
0.18242
0.249852
0.231345
0.198246
0.164478
0.132151
0.101395
0.07177
0.0427948
0.0141578
0.128099
0.234477
0.229255
0.199706
0.166779
0.134364
0.103198
0.0730651
0.0435707
0.0144166
0.0700396
0.21623
0.226025
0.20087
0.169053
0.136647
0.105092
0.0744392
0.0444011
0.0147015
0.0492126
0.209319
0.225522
0.202209
0.170826
0.138293
0.106406
0.0753671
0.0449773
0.0149519
0.0458551
0.194141
0.215187
0.196741
0.168265
0.137176
0.105948
0.0751844
0.0449214
0.0149578
0.0585305
0.18552
0.207143
0.191745
0.165569
0.135832
0.105307
0.0748803
0.0447939
0.0149365
0.0754236
0.179675
0.200029
0.186857
0.162691
0.134271
0.104494
0.0744617
0.0445992
0.014891
0.0941541
0.176127
0.193866
0.182187
0.159734
0.132562
0.103549
0.0739483
0.0443471
0.0148243
0.111631
0.173887
0.188469
0.177778
0.156787
0.130772
0.102513
0.0733634
0.0440488
0.0147395
0.12571
0.172073
0.183625
0.173642
0.153916
0.128961
0.101426
0.0727302
0.0437156
0.0146396
0.135094
0.169862
0.17907
0.169742
0.151153
0.127169
0.100317
0.0720665
0.0433554
0.0145266
0.13856
0.166156
0.174196
0.16576
0.14832
0.125288
0.0991143
0.0713233
0.0429301
0.0143775
0.138502
0.165293
0.172604
0.164402
0.147343
0.124645
0.0987123
0.0710807
0.0427973
0.0143354
-0.161255
-0.227211
-0.272095
-0.29663
-0.302409
-0.291652
-0.26656
-0.230137
-0.184641
-0.13653
-0.00778513
-0.0731993
-0.121544
-0.153549
-0.170313
-0.17381
-0.165235
-0.149146
-0.124436
-0.10148
0.109878
0.0468623
-0.00225979
-0.0379014
-0.0608211
-0.0727034
-0.0741617
-0.0695562
-0.0563057
-0.0449231
0.200627
0.139404
0.0901537
0.0525774
0.0260604
0.00922667
0.00150006
-0.000656298
0.00445345
0.00833982
0.269987
0.210355
0.161269
0.122558
0.0937145
0.0736414
0.0616162
0.055008
0.0544703
0.0536711
0.322734
0.264257
0.21531
0.175832
0.145397
0.123132
0.108189
0.0986578
0.0943816
0.0905567
0.361947
0.304143
0.255144
0.214983
0.183315
0.15945
0.142478
0.130978
0.124221
0.118369
0.389706
0.332025
0.282636
0.241659
0.20883
0.183621
0.165143
0.152332
0.144067
0.137083
0.407187
0.348847
0.298415
0.256125
0.2218
0.195054
0.175099
0.161217
0.152169
0.145579
0.41683
0.355909
0.302672
0.257339
0.219889
0.190155
0.16746
0.151704
0.141245
0.13628
1.39954
1.35391
1.30388
1.25098
1.19284
1.12709
1.05167
0.965766
0.876566
0.800593
1.19801
1.14634
1.09088
1.03018
0.962019
0.884584
0.795938
0.695478
0.591714
0.502773
0.981169
0.926053
0.865913
0.798496
0.721962
0.634585
0.534291
0.420609
0.303422
0.202064
0.77068
0.710682
0.644265
0.569285
0.484064
0.386732
0.274999
0.14845
0.018458
-0.0948145
0.570391
0.504637
0.43149
0.34886
0.255046
0.147998
0.0252083
-0.113751
-0.255721
-0.380174
0.381086
0.309938
0.230584
0.140964
0.0393223
-0.0765733
-0.20946
-0.359927
-0.512476
-0.647047
0.205208
0.129537
0.0449067
-0.0506681
-0.158963
-0.282375
-0.424005
-0.58495
-0.746051
-0.889156
0.0460938
-0.033109
-0.121978
-0.222363
-0.335976
-0.465226
-0.613812
-0.784751
-0.9524
-1.09978
-0.0929512
-0.174715
-0.26679
-0.370871
-0.488678
-0.622155
-0.774316
-0.954269
-1.12679
-1.27484
-0.20932
-0.292723
-0.386874
-0.493266
-0.613935
-0.751505
-0.904511
-1.08713
-1.26649
-1.4105
2.66367
2.6831
2.70741
2.73417
2.76088
2.78665
2.81098
2.83325
2.85331
2.86807
2.6082
2.62579
2.64781
2.67197
2.69582
2.71847
2.73934
2.7578
2.77392
2.78548
2.53203
2.54691
2.5655
2.58573
2.6053
2.62323
2.6389
2.6516
2.66174
2.66871
2.43585
2.44725
2.46133
2.47641
2.49034
2.50207
2.51087
2.51595
2.51817
2.51961
2.32077
2.32796
2.33658
2.34539
2.35244
2.35662
2.35705
2.35286
2.34553
2.33975
2.18835
2.1907
2.19298
2.19452
2.19361
2.18901
2.1797
2.16479
2.14647
2.13167
2.04051
2.03762
2.03294
2.02637
2.0165
2.00202
1.98175
1.95479
1.92415
1.89885
1.87992
1.87151
1.85929
1.8438
1.82406
1.79869
1.76636
1.72619
1.68213
1.64518
1.71264
1.69855
1.67772
1.65193
1.62095
1.58337
1.53769
1.48311
1.4246
1.37509
1.54595
1.52158
1.48907
1.45143
1.40825
1.35768
1.2979
1.22819
1.15465
1.09206
2.80891
1.92106
2.60475
2.42317
2.39282
2.38883
2.39762
2.42484
2.4933
2.59499
2.80116
1.91233
2.59829
2.41517
2.38379
2.37815
2.38421
2.40733
2.46729
2.55694
2.79452
1.90263
2.59316
2.40669
2.3739
2.36621
2.36872
2.38647
2.43387
2.50664
2.78887
1.89207
2.5894
2.39771
2.36318
2.35305
2.35121
2.36218
2.39322
2.44373
2.7841
1.8808
2.58702
2.38818
2.35166
2.33871
2.33173
2.33436
2.34552
2.36803
2.78008
1.86904
2.58603
2.37801
2.33938
2.32325
2.31033
2.30288
2.29054
2.28001
2.77672
1.85705
2.58638
2.36707
2.3264
2.30672
2.28703
2.26762
2.22889
2.17933
2.7739
1.84511
2.58798
2.35524
2.31281
2.28919
2.26182
2.22868
2.16257
2.06476
2.77151
1.83358
2.59065
2.34237
2.29877
2.27073
2.23478
2.18631
2.09197
1.93489
2.76931
1.82287
2.59416
2.32835
2.28447
2.25149
2.20635
2.14202
2.02037
1.79891
2.76736
1.81233
2.59002
2.31654
2.26741
2.22641
2.16799
2.08263
1.92834
1.64595
2.76883
1.80372
2.57823
2.30864
2.25039
2.20044
2.12934
2.02649
1.84962
1.55884
2.77153
1.79756
2.56789
2.30097
2.235
2.17674
2.09478
1.9783
1.78678
1.50118
2.77606
1.79369
2.55925
2.29388
2.22134
2.15571
2.06468
1.93769
1.73759
1.46037
2.78308
1.79195
2.55242
2.28765
2.20956
2.13762
2.03927
1.90441
1.70014
1.43115
2.7933
1.79223
2.54738
2.28252
2.19981
2.12269
2.01863
1.8781
1.67259
1.41084
2.80714
1.79438
2.54396
2.27862
2.19218
2.111
2.00271
1.85833
1.65333
1.39774
2.82665
1.79828
2.54187
2.276
2.18675
2.10263
1.99144
1.84468
1.64107
1.3908
2.84831
1.80455
2.54066
2.27468
2.1836
2.09765
1.98487
1.83707
1.63544
1.39067
2.89639
1.81098
2.54185
2.27279
2.18166
2.09451
1.9807
1.83213
1.63158
1.38944
1.37242
1.19666
0.999471
0.809897
0.631522
0.462715
0.304868
0.160815
0.0334178
-0.0744007
1.28821
1.15139
0.995996
0.840581
0.691333
0.548024
0.41215
0.286471
0.17351
0.0748284
1.24105
1.12779
0.998532
0.864998
0.73519
0.610113
0.490735
0.379071
0.277136
0.186745
1.21277
1.11372
1.0029
0.886602
0.771803
0.660207
0.552763
0.45126
0.357638
0.27362
1.19748
1.10788
1.00966
0.90558
0.801477
0.699513
0.600733
0.506728
0.41926
0.339893
1.19041
1.10726
1.01758
0.922087
0.825655
0.730615
0.638053
0.549426
0.466377
0.390388
1.18864
1.10995
1.02605
0.93642
0.845294
0.755052
0.666788
0.581865
0.501841
0.428135
1.19053
1.11491
1.03481
0.948933
0.861193
0.774005
0.688445
0.605809
0.527591
0.455179
1.19763
1.1241
1.04602
0.961839
0.875567
0.789635
0.705087
0.623166
0.545318
0.472917
1.20798
1.13798
1.06129
0.977642
0.891735
0.805811
0.720858
0.638127
0.559033
0.484891
-2.74716
-2.55466
-2.32087
-2.09801
-1.91438
-1.76398
-1.64212
-1.54475
-1.46892
-1.4129
-2.83486
-2.64829
-2.41488
-2.19274
-2.00785
-1.85682
-1.73454
-1.63682
-1.56066
-1.50498
-2.80743
-2.62851
-2.4009
-2.18191
-1.99815
-1.84779
-1.72563
-1.62748
-1.55027
-1.49244
-2.67983
-2.51053
-2.29305
-2.08119
-1.90156
-1.75378
-1.63292
-1.53487
-1.45662
-1.39621
-2.47488
-2.31725
-2.11358
-1.91286
-1.74089
-1.59841
-1.48088
-1.38437
-1.30602
-1.2444
-2.21834
-2.07402
-1.88731
-1.70156
-1.54097
-1.40699
-1.29555
-1.20303
-1.12669
-1.06621
-1.93439
-1.80445
-1.63698
-1.46935
-1.32346
-1.20108
-1.09864
-1.01292
-0.94133
-0.88474
-1.64261
-1.52743
-1.38032
-1.23276
-1.10386
-0.99537
-0.904199
-0.827536
-0.763111
-0.712564
-1.35683
-1.25615
-1.12939
-1.00256
-0.89175
-0.798491
-0.720055
-0.653995
-0.598268
-0.556186
-1.08561
-0.998625
-0.891208
-0.784552
-0.691705
-0.613745
-0.548172
-0.492618
-0.444381
-0.406069
-0.833801
-0.759351
-0.669785
-0.582143
-0.506738
-0.44432
-0.392955
-0.351036
-0.31676
-0.286809
-0.603539
-0.540186
-0.466396
-0.395606
-0.335611
-0.286664
-0.247
-0.21513
-0.189753
-0.166855
-0.395955
-0.34217
-0.281925
-0.225556
-0.178658
-0.140982
-0.110878
-0.0869697
-0.0681666
-0.0511668
-0.212167
-0.16652
-0.117729
-0.0735468
-0.0377199
-0.00957995
0.0124023
0.0294543
0.042535
0.0541909
-0.053387
-0.0145655
0.0247229
0.0587926
0.0854076
0.105578
0.120721
0.131922
0.14002
0.146928
0.0792093
0.112444
0.144092
0.170023
0.189208
0.202913
0.212461
0.218823
0.222733
0.225605
0.184617
0.213491
0.239316
0.259042
0.272549
0.281285
0.286501
0.289075
0.289661
0.28929
0.262086
0.287867
0.30967
0.325113
0.334697
0.339986
0.342175
0.342079
0.340295
0.337575
0.311175
0.335197
0.354771
0.367851
0.375273
0.378661
0.379177
0.3776
0.374489
0.370427
0.331792
0.355425
0.374553
0.387173
0.394191
0.397235
0.397458
0.395623
0.392279
0.387939
-0.0719617
0.105309
0.143587
0.144719
0.13335
0.114662
0.0919559
0.0669912
0.0406308
0.0135758
0.0163094
0.141134
0.157986
0.150643
0.134909
0.114459
0.0911834
0.0661916
0.0400756
0.013389
0.0926256
0.169492
0.168979
0.154721
0.136144
0.114339
0.0905666
0.0655313
0.0396113
0.0132313
0.155833
0.191877
0.178102
0.158645
0.137391
0.114361
0.0901184
0.0650128
0.0392378
0.013103
0.2084
0.209636
0.185985
0.162273
0.138675
0.114539
0.0898438
0.0646372
0.0389544
0.0130034
0.2514
0.223597
0.192983
0.165699
0.140029
0.114885
0.0897458
0.0644042
0.0387604
0.0129323
0.285332
0.234925
0.199318
0.168986
0.141478
0.115408
0.0898257
0.0643131
0.038655
0.0128893
0.311047
0.244045
0.205091
0.172163
0.14304
0.116111
0.0900834
0.0643626
0.0386371
0.0128741
0.329563
0.251882
0.210315
0.175246
0.144724
0.116999
0.0905175
0.0645507
0.0387052
0.0128863
0.341317
0.258343
0.214971
0.178243
0.146538
0.118069
0.0911249
0.0648747
0.0388577
0.0129257
-0.259718
0.00467371
0.0928677
0.121289
0.123032
0.110712
0.0908668
0.0670135
0.0409332
0.0137613
-0.230025
0.0165543
0.0982888
0.123617
0.12403
0.111066
0.0909507
0.0669978
0.0408955
0.0137418
-0.200733
0.0344167
0.107389
0.12779
0.125837
0.111735
0.0911321
0.0669922
0.0408388
0.0137073
-0.167485
0.0552757
0.118495
0.133081
0.128089
0.112746
0.0915171
0.0671051
0.0408503
0.013698
-0.126894
0.0799803
0.131764
0.139531
0.131253
0.114088
0.0920838
0.0673224
0.0409197
0.0137093
-1.34604
-1.43639
-1.43977
-1.37086
-1.25276
-1.11067
-0.962836
-0.823434
-0.687747
-0.564487
-1.3493
-1.44228
-1.44299
-1.36748
-1.23967
-1.08397
-0.91728
-0.758488
-0.607547
-0.48789
-1.3553
-1.44821
-1.44395
-1.36008
-1.22159
-1.05511
-0.882045
-0.722874
-0.578799
-0.468715
-1.36634
-1.45822
-1.44838
-1.35664
-1.21021
-1.03756
-0.861881
-0.700436
-0.55719
-0.444109
-1.38331
-1.47529
-1.46092
-1.36249
-1.20954
-1.03174
-0.852579
-0.68544
-0.535186
-0.402291
2.06819
2.04766
2.01993
1.9885
1.95308
1.91177
1.8629
1.80565
1.74513
1.69494
2.21051
2.20281
2.18943
2.17256
2.15198
2.12636
2.09437
2.05518
2.01272
1.97795
2.341
2.33979
2.33633
2.33123
2.32336
2.31138
2.29414
2.27078
2.2442
2.22281
2.45509
2.45972
2.46424
2.46846
2.47075
2.46986
2.4648
2.45472
2.44158
2.43131
2.54875
2.5584
2.56961
2.58153
2.59223
2.60052
2.60557
2.60657
2.60471
2.60326
2.62142
2.63522
2.65191
2.67005
2.68748
2.70312
2.71628
2.72622
2.73356
2.73859
2.67282
2.68977
2.71061
2.73346
2.75598
2.77718
2.79647
2.81316
2.82749
2.83764
2.70276
2.72185
2.74551
2.77155
2.79753
2.82251
2.84596
2.86724
2.8863
2.90023
2.71114
2.73135
2.75653
2.78428
2.81209
2.83907
2.86474
2.88846
2.91005
2.92606
2.698
2.71835
2.74375
2.77173
2.79978
2.82702
2.85296
2.877
2.89891
2.9152
-1.20822
-1.26696
-1.34387
-1.44163
-1.56322
-1.71216
-1.89088
-2.11497
-2.34486
-2.54137
-0.8966
-0.959778
-1.03999
-1.13966
-1.26137
-1.40847
-1.58693
-1.80253
-2.02356
-2.22961
-0.497762
-0.569162
-0.655773
-0.759568
-0.88298
-1.02944
-1.2034
-1.4062
-1.61987
-1.82313
-0.0530461
-0.134638
-0.228202
-0.335681
-0.459507
-0.602821
-0.769515
-0.960981
-1.16354
-1.35147
0.386256
0.299138
0.203061
0.09613
-0.0240468
-0.160387
-0.316507
-0.494051
-0.680633
-0.849734
0.786064
0.701282
0.609432
0.508822
0.397276
0.272211
0.13039
-0.0297261
-0.196821
-0.345359
1.13576
1.05937
0.977217
0.8877
0.788867
0.678538
0.553961
0.413814
0.268241
0.140944
1.44104
1.37509
1.30483
1.22863
1.14441
1.05035
0.944187
0.824851
0.701268
0.59491
1.71342
1.6562
1.59571
1.53162
1.4614
1.38313
1.29494
1.1959
1.09363
1.00715
1.94111
1.89319
1.841
1.78825
1.7323
1.67049
1.6008
1.52218
1.44087
1.37312
2.94716
1.95921
2.73022
2.45359
2.42937
2.42735
2.42592
2.42271
2.37847
2.27857
2.92855
1.95755
2.71461
2.45741
2.42965
2.42815
2.42957
2.4353
2.41074
2.37282
2.91095
1.95596
2.69904
2.45914
2.42942
2.42826
2.43303
2.44681
2.44274
2.45647
2.89439
1.95417
2.68387
2.45896
2.42844
2.42748
2.43491
2.45551
2.47097
2.52143
2.87888
1.95196
2.66938
2.4571
2.4265
2.42566
2.43515
2.46096
2.49466
2.57021
2.86442
1.94912
2.65579
2.45382
2.42352
2.4227
2.43369
2.46313
2.51188
2.60558
2.85105
1.9455
2.64323
2.44934
2.41945
2.41853
2.43043
2.46201
2.52243
2.62808
2.83879
1.94095
2.63179
2.44387
2.41431
2.41307
2.42528
2.45762
2.52614
2.63794
2.82768
1.93538
2.62154
2.4376
2.40813
2.40631
2.41814
2.44996
2.52266
2.6352
2.81774
1.92875
2.61252
2.43067
2.40095
2.39822
2.40893
2.43903
2.51176
2.62104
3.10078
1.98665
2.74739
2.46124
2.43075
2.42096
2.40397
2.37355
2.2675
2.1002
3.04955
1.98044
2.74459
2.46121
2.43056
2.4216
2.40563
2.37681
2.27371
2.10261
3.0207
1.97443
2.74479
2.45952
2.43039
2.42264
2.40854
2.38271
2.28621
2.10901
2.99301
1.96845
2.74287
2.45669
2.43
2.42396
2.41287
2.39187
2.30673
2.13212
2.96777
1.96268
2.74
2.45287
2.42942
2.42545
2.4183
2.40411
2.33485
2.1739
1.81244
1.67683
1.46017
1.15891
0.785784
0.35082
-0.110881
-0.542244
-0.897713
-1.16591
1.79484
1.65141
1.43777
1.14798
0.793142
0.377786
-0.0736496
-0.508288
-0.877919
-1.1602
1.80856
1.6523
1.43187
1.14649
0.802546
0.399705
-0.0449405
-0.48513
-0.867378
-1.16058
1.85138
1.67433
1.44023
1.15407
0.813794
0.415685
-0.0270099
-0.472837
-0.865273
-1.16724
1.92453
1.71643
1.45877
1.16468
0.82291
0.425947
-0.0160118
-0.465735
-0.867007
-1.17846
)
;

boundaryField
{
    left
    {
        type            zeroGradient;
    }
    right
    {
        type            fixedValue;
        value           uniform 0;
    }
    down
    {
        type            zeroGradient;
    }
    up
    {
        type            zeroGradient;
    }
    cylinder
    {
        type            zeroGradient;
    }
    defaultFaces
    {
        type            empty;
    }
}


// ************************************************************************* //
