# Forces      
# CofR        : (0.000000e+00 0.000000e+00 0.000000e+00)
# Time        forces(pressure viscous)	moments(pressure viscous)
7.115         	((8.223306e+00 2.274739e+00 4.867686e-19) (1.208799e+00 1.357716e-01 1.349979e-18)) ((8.310124e-20 -3.302621e-19 3.443002e-07) (4.438876e-18 3.013888e-20 -9.572137e-02))
7.12          	((8.218664e+00 2.288854e+00 4.862203e-19) (1.208441e+00 1.368881e-01 1.354679e-18)) ((8.325057e-20 -3.296143e-19 3.497706e-07) (4.441012e-18 2.705774e-20 -9.572992e-02))
7.125         	((8.213807e+00 2.304656e+00 4.865353e-19) (1.208088e+00 1.380085e-01 1.359305e-18)) ((8.382351e-20 -3.296558e-19 3.562473e-07) (4.443137e-18 2.405357e-20 -9.573718e-02))
7.13          	((8.208563e+00 2.319535e+00 4.864756e-19) (1.207736e+00 1.391320e-01 1.363944e-18)) ((8.433820e-20 -3.296781e-19 3.614758e-07) (4.445260e-18 2.102592e-20 -9.574317e-02))
7.135         	((8.203147e+00 2.335451e+00 4.864452e-19) (1.207383e+00 1.402600e-01 1.368594e-18)) ((8.482018e-20 -3.294914e-19 3.665462e-07) (4.447381e-18 1.799382e-20 -9.574789e-02))
7.14          	((8.198137e+00 2.351397e+00 4.862747e-19) (1.207029e+00 1.413924e-01 1.373249e-18)) ((8.519247e-20 -3.291520e-19 3.715832e-07) (4.449503e-18 1.495743e-20 -9.575134e-02))
7.145         	((8.193164e+00 2.367158e+00 4.858335e-19) (1.206675e+00 1.425290e-01 1.377909e-18)) ((8.540960e-20 -3.285879e-19 3.765926e-07) (4.451627e-18 1.191653e-20 -9.575351e-02))
7.15          	((8.188141e+00 2.382735e+00 4.848999e-19) (1.206320e+00 1.436695e-01 1.382575e-18)) ((8.535663e-20 -3.276176e-19 3.815882e-07) (4.453755e-18 8.871102e-21 -9.575440e-02))
7.155         	((8.185490e+00 2.401769e+00 4.936954e-19) (1.205967e+00 1.448180e-01 1.387229e-18)) ((9.053306e-20 -3.345900e-19 3.863632e-07) (4.455879e-18 5.814576e-21 -9.575403e-02))
7.16          	((8.180654e+00 2.418050e+00 4.948664e-19) (1.205614e+00 1.459713e-01 1.391884e-18)) ((9.160242e-20 -3.353383e-19 3.913508e-07) (4.458013e-18 2.772250e-21 -9.575239e-02))
7.165         	((8.176123e+00 2.434512e+00 4.959517e-19) (1.205261e+00 1.471294e-01 1.396543e-18)) ((9.258673e-20 -3.360066e-19 3.962299e-07) (4.460161e-18 -2.733943e-22 -9.574948e-02))
7.17          	((8.174744e+00 2.453243e+00 5.077993e-19) (1.204912e+00 1.482951e-01 1.401169e-18)) ((9.933512e-20 -3.454973e-19 3.996815e-07) (4.462330e-18 -3.290803e-21 -9.574530e-02))
7.175         	((8.167415e+00 2.468466e+00 5.052548e-19) (1.204560e+00 1.494642e-01 1.405836e-18)) ((9.876154e-20 -3.431436e-19 4.063299e-07) (4.464428e-18 -6.338812e-21 -9.573985e-02))
7.18          	((8.161311e+00 2.483032e+00 5.036027e-19) (1.204206e+00 1.506358e-01 1.410601e-18)) ((9.851259e-20 -3.416953e-19 4.113767e-07) (4.466576e-18 -9.459237e-21 -9.573314e-02))
7.185         	((8.156090e+00 2.500007e+00 5.028509e-19) (1.203852e+00 1.518130e-01 1.415436e-18)) ((9.853482e-20 -3.409625e-19 4.164850e-07) (4.468792e-18 -1.265142e-20 -9.572517e-02))
7.19          	((8.151042e+00 2.515354e+00 5.023265e-19) (1.203499e+00 1.529947e-01 1.420543e-18)) ((9.877912e-20 -3.405917e-19 4.214321e-07) (4.471151e-18 -1.607826e-20 -9.571592e-02))
7.195         	((8.146188e+00 2.530702e+00 5.020323e-19) (1.203150e+00 1.541820e-01 1.426163e-18)) ((9.906032e-20 -3.402031e-19 4.259474e-07) (4.473802e-18 -1.991858e-20 -9.570539e-02))
7.2           	((8.141996e+00 2.549299e+00 5.027334e-19) (1.202794e+00 1.553717e-01 1.429768e-18)) ((1.000539e-19 -3.405121e-19 4.320656e-07) (4.475354e-18 -2.208281e-20 -9.569361e-02))
7.205         	((8.137513e+00 2.566692e+00 5.032295e-19) (1.202436e+00 1.565666e-01 1.434312e-18)) ((1.008633e-19 -3.406844e-19 4.374330e-07) (4.477394e-18 -2.504425e-20 -9.568057e-02))
7.21          	((8.133046e+00 2.584666e+00 5.039534e-19) (1.202079e+00 1.577676e-01 1.438913e-18)) ((1.018201e-19 -3.410249e-19 4.429803e-07) (4.479460e-18 -2.805863e-20 -9.566629e-02))
7.215         	((8.128631e+00 2.603438e+00 5.049513e-19) (1.201722e+00 1.589756e-01 1.443533e-18)) ((1.029571e-19 -3.415667e-19 4.487637e-07) (4.481534e-18 -3.109648e-20 -9.565076e-02))
