/*--------------------------------*- C++ -*----------------------------------*\
  =========                 |
  \\      /  F ield         | OpenFOAM: The Open Source CFD Toolbox
   \\    /   O peration     | Website:  https://openfoam.org
    \\  /    A nd           | Version:  13
     \\/     M anipulation  |
\*---------------------------------------------------------------------------*/
FoamFile
{
    format      ascii;
    class       surfaceScalarField;
    location    "44";
    object      phi;
}
// * * * * * * * * * * * * * * * * * * * * * * * * * * * * * * * * * * * * * //

dimensions      [0 3 -1 0 0 0 0];

internalField   nonuniform List<scalar> 
823
(
0.000269977
0.0154879
-0.0157579
0.0275596
-6.44284e-05
-0.0272252
0.10232
-0.0583348
-0.0164253
0.213615
-0.130433
0.019137
-0.189322
0.0368768
0.366061
0.0088173
0.00667063
0.0707602
-0.0620073
0.180644
-0.168219
0.306574
-0.256363
-0.330429
0.447681
0.029295
-0.0226244
0.128734
-0.161446
0.245196
-0.284681
0.347314
-0.358481
-0.394759
0.411645
0.0529599
-0.0755842
0.152684
-0.26117
0.228843
-0.360839
0.268307
-0.397945
-0.40735
0.280897
0.0626496
-0.138234
0.128396
-0.326917
0.160984
-0.393428
0.172519
-0.409481
0.180298
-0.415128
0.00679385
0.0989291
-0.105723
-0.00250724
0.159289
-0.149988
-0.0081098
0.165915
-0.160313
-0.00418834
0.149295
-0.153216
0.122134
0.0107453
-0.137068
0.0421154
0.0568137
0.0856981
0.115706
0.12008
0.131533
0.149074
0.120301
0.101334
0.169874
0.0288844
0.0279293
0.0730341
0.0715562
0.114407
0.0901606
0.148239
0.0864691
0.0783979
0.171175
0.0128031
0.0151262
0.0435313
0.040828
0.0828416
0.0508503
0.12668
0.042631
0.0350846
0.169993
-0.000631741
0.0129711
0.0473961
0.109164
0.181125
0.116868
-0.47291
0.366787
0.313738
-1.8312
1.63433
0.497744
0.590583
-0.77459
0.401341
0.941748
-0.845344
-0.166697
0.169442
0.202433
-0.505469
0.25103
-1.8798
0.509235
0.332378
0.421017
1.02997
-0.191561
0.199732
-0.534026
0.230933
-1.911
0.391048
0.172263
0.405884
1.01513
-0.287706
0.468576
-0.832609
0.40865
-1.85107
0.322655
0.258258
0.455222
0.882564
-0.427717
0.517535
-1.16902
0.501445
-1.83498
0.387961
0.371741
0.561187
0.709338
-0.558354
1.32514
-1.1744
-1.31976
0.927507
-1.43735
0.73599
0.563259
1.09731
0.348017
-0.625211
1.19205
-0.898473
-1.46797
0.508281
-0.753581
0.608189
0.463351
1.1345
-0.178291
-0.606541
1.14252
-0.666878
-1.37412
0.651224
-0.262281
0.859846
0.254729
1.14139
-0.459833
-0.462287
0.935162
-0.335506
-1.26653
0.727674
-0.054793
0.974244
0.00815895
0.84008
-0.325669
-0.183784
0.46939
-0.804896
0.414597
0.422756
0.0970863
1.14409
0.145669
-1.10946
1.23603
0.18896
1.33467
0.312999
1.40777
0.374578
0.454073
1.02695
0.0838931
-0.965171
1.10629
0.10962
1.21261
0.20668
1.33389
0.253289
0.319994
0.980063
0.034567
-0.930737
1.02864
0.0610429
1.12153
0.113788
1.23438
0.140442
0.180253
0.925285
0.00407227
-0.89479
0.969314
0.017014
1.0473
0.0358013
1.14406
0.0436824
0.0577805
0.650618
-0.646545
0.667632
0.703433
0.747115
0.146472
0.309041
-0.251609
-0.203904
0.0982859
0.313869
-0.265683
0.0560545
0.324664
-0.282432
0.0200173
0.316968
-0.28093
0.205835
-0.185818
0.106356
0.345581
-0.142896
0.0692993
0.350925
0.0360023
0.357961
0.00948531
0.343485
0.21532
0.0786956
0.384522
-0.117636
0.0443687
0.385252
0.0145593
0.38777
-0.00367648
0.36172
0.211644
-0.000598707
0.400285
-0.0151649
-0.0195833
0.404237
-0.0301694
0.398356
-0.0250985
0.35665
0.186545
-0.0777293
0.0628865
-0.0829729
-0.0780443
-0.0483115
0.19739
0.112262
-0.250668
-0.0589842
0.143481
0.116798
-0.0628898
0.08874
0.121639
-0.0668978
0.0359576
0.12133
-0.0685478
0.0859594
-0.0500018
0.194274
0.154576
-0.236588
0.148547
0.162525
0.0966822
0.173504
0.0410968
0.176916
0.127056
0.13587
0.200252
-0.181546
0.0947117
0.203683
0.0561531
0.212063
0.0202118
0.212857
0.147268
0.156274
0.231858
-0.18788
0.116915
0.243043
0.0721324
0.256845
0.0283469
0.256642
0.175615
0.0827182
-0.102469
0.0600783
0.0344909
0.0102029
0.409019
0.0515525
-0.0645923
0.421356
0.069328
-0.0816647
0.408286
0.195311
-0.18224
0.395434
0.234626
-0.221774
0.517063
-0.372297
0.406631
0.0409015
0.414199
0.0617591
0.398785
0.210725
0.381858
0.251553
0.662333
0.399357
0.0375244
0.407424
0.0536918
0.376882
0.241268
0.374007
0.254428
0.854794
0.394179
0.0393249
0.391135
0.0567359
0.370545
0.261858
0.349029
0.275943
1.01594
0.383753
0.0515517
0.380661
0.0598281
0.340715
0.301804
0.3244
0.292258
1.23787
0.613061
0.0425108
0.639512
0.0333775
0.702778
0.238538
0.788231
0.206805
1.00501
1.0211
0.618529
0.0280022
0.644844
0.00706276
0.761938
0.121443
0.781079
0.187665
0.784804
1.00128
0.628488
0.0035342
0.678057
-0.0425059
0.763516
0.0359846
0.777785
0.173395
0.533318
1.02927
0.647008
-0.0394532
0.668326
-0.0638237
0.695403
0.008907
0.780147
0.0886511
0.245713
1.06775
0.564567
0.500744
0.509651
0.598302
0.844014
1.05532
-0.238123
1.04341
-0.130988
1.05514
-0.129364
1.05113
-0.0111592
0.00455811
0.950919
-0.18776
0.941279
-0.121349
0.925717
-0.113802
0.943523
-0.0289651
-0.0170897
0.968088
-0.126577
0.949224
-0.102486
0.918501
-0.0830784
0.929688
-0.0401519
-0.0181388
0.999263
-0.0580864
0.949528
-0.0527505
0.90932
-0.042871
0.89763
-0.0284619
-0.015299
0.785928
0.733177
0.690306
0.661844
0.046728
0.136603
-0.183331
0.0714943
0.305717
-0.330483
0.0725527
0.360818
-0.361876
0.0627071
0.364954
-0.355109
0.334163
0.0502254
-0.321681
0.066998
0.0696045
0.138121
0.234594
0.173008
0.325931
0.177587
0.360375
0.354371
0.15738
0.0553455
0.014259
0.165354
0.124585
0.258899
0.232386
0.324558
0.294716
0.347443
0.331485
0.0258961
-0.0116371
0.119367
0.0311143
0.238315
0.113438
0.356309
0.176723
0.246832
0.45692
0.00514187
-0.016779
0.0505929
-0.0143367
0.145703
0.0183273
0.26443
0.0579956
0.104128
0.407135
-0.00368334
-0.0130956
0.00637787
-0.0243979
0.0474507
-0.0227456
0.11619
-0.0107433
0.0193793
0.200938
-0.0011343
-0.0119613
0.00106034
-0.0265925
0.0125839
-0.0342691
0.0366047
-0.0347641
-0.0240765
0.0800604
-0.0024485
-0.00951284
-0.00656756
-0.0224734
-0.0135521
-0.0272845
-0.0222024
-0.0261138
-0.0244523
-0.0218266
-0.0355445
0.0260317
-0.0942181
0.0362002
-0.168513
0.04701
-0.24988
0.0552536
0.0505759
-0.324908
-0.0796913
-0.193479
-0.306781
-0.404744
-0.491236
0.333088
0.831833
-0.963983
0.454279
0.0239383
-0.145129
0.254093
0.541597
-0.341411
0.114114
0.208828
-0.0688488
-0.294221
0.261798
0.340347
0.571546
0.511572
-0.147287
0.367601
0.685568
0.207913
0.368515
-0.277356
0.195015
0.354704
0.52589
-0.478162
0.453826
0.757632
0.286147
0.536194
-0.240626
-0.0238905
0.0536862
0.564424
-1.06648
0.509365
0.812691
0.345589
0.69997
-0.20168
-0.0707629
0.497094
0.535195
0.389821
-0.021349
0.611251
-0.589902
-0.0549903
0.0336413
-0.0554
0.000409722
0.0165571
-0.0719571
-0.128985
0.678142
-1.03087
0.566654
0.225653
0.0848469
0.0814686
-0.01365
-0.0678186
0.132652
-0.0511831
0.239402
-0.10675
0.391239
-0.151838
-0.198663
0.186387
-0.149812
0.292584
0.517319
0.822401
0.136328
-0.12946
0.159241
-0.166109
0.103529
-0.134292
0.167091
0.0663529
-0.14067
0.177846
0.0267579
-0.13963
0.179225
-0.0966711
0.123429
0.175014
-0.0910385
-0.213436
0.13219
-0.0914679
0.0839859
-0.092466
0.0345257
-0.0901696
-0.0621453
0.184714
-0.0425074
-0.233245
0.134688
-0.0414422
0.0834249
-0.0412029
0.0337552
-0.0405
-0.0283901
0.198845
0.00846677
-0.249819
0.147125
0.0102782
0.0937189
0.0122028
0.0393402
0.0138788
0.0109501
0.201027
-0.251545
0.148416
0.0937207
0.0390517
0.0362442
-0.302321
-0.0556046
0.0130393
-0.331904
-0.00784157
-0.340995
-0.0156377
-0.322687
-0.198968
0.115178
-0.273316
-0.144183
0.0745395
-0.291265
0.0354425
-0.301898
0.00653474
-0.293779
-0.192434
0.132669
-0.235804
-0.170181
0.0931829
-0.251779
0.0540918
-0.262807
0.0188396
-0.258527
-0.173594
0.150966
-0.20273
-0.18404
0.11027
-0.211083
0.0667481
-0.219285
0.0259054
-0.217684
-0.147689
0.14815
-0.191639
0.104158
0.0627192
0.0242596
0.39028
0.103417
-0.0977178
0.386116
0.112147
-0.107983
0.352765
0.161971
-0.128621
0.293205
0.0836016
-0.0240415
-0.174443
0.301539
0.398707
0.10069
0.401479
0.109376
0.392256
0.171194
0.342227
0.133631
-0.0456514
0.404181
0.0924888
0.412028
0.101528
0.407941
0.17528
0.368868
0.172704
0.0899719
0.408917
0.0795516
0.41836
0.0920847
0.416397
0.177244
0.388524
0.200578
0.228676
0.410939
0.421359
0.416362
0.395165
0.413763
0.0962877
0.324591
0.0891721
0.234186
0.0904051
0.22852
0.00566624
-0.165811
0.394331
0.508621
0.48981
0.451595
0.43322
0.568948
0.316401
0.07793
0.246251
0.0701498
0.16363
0.0826205
0.0948063
0.0688239
0.0269877
0.455238
0.341348
0.253788
0.178429
)
;

boundaryField
{
    left
    {
        type            calculated;
        value           nonuniform List<scalar> 
17
(
-0.60402
-0.60402
-0.60402
-0.60402
-0.60402
-0.39598
-0.39598
-0.39598
-0.39598
-0.39598
-0.39598
-0.39598
-0.39598
-0.39598
-0.39598
-0.510051
-0.510051
)
;
    }
    right
    {
        type            calculated;
        value           nonuniform List<scalar> 
17
(
0.145542
0.21766
0.146537
0.191048
0.249418
0.306643
0.357582
0.398596
0.44588
0.502028
0.595233
0.691824
1.16417
1.11583
0.997133
0.561577
-0.0866978
)
;
    }
    down
    {
        type            calculated;
        value           uniform 0;
    }
    up
    {
        type            calculated;
        value           uniform 0;
    }
    cylinder
    {
        type            calculated;
        value           uniform 0;
    }
    defaultFaces
    {
        type            empty;
    }
}


// ************************************************************************* //
