/*--------------------------------*- C++ -*----------------------------------*\
  =========                 |
  \\      /  F ield         | OpenFOAM: The Open Source CFD Toolbox
   \\    /   O peration     | Website:  https://openfoam.org
    \\  /    A nd           | Version:  13
     \\/     M anipulation  |
\*---------------------------------------------------------------------------*/
FoamFile
{
    format      ascii;
    class       surfaceScalarField;
    location    "9.08";
    object      phi;
}
// * * * * * * * * * * * * * * * * * * * * * * * * * * * * * * * * * * * * * //

dimensions      [0 3 -1 0 0 0 0];

internalField   nonuniform List<scalar> 
823
(
-0.00200188
0.0168459
-0.014844
0.0187155
0.00703605
-0.0277535
0.0856121
-0.0417138
-0.0251828
0.19027
-0.109781
0.0051237
-0.146204
0.000505599
0.335968
0.00614314
0.0107027
0.0595507
-0.0463715
0.161538
-0.143701
0.280213
-0.228456
-0.302397
0.436406
0.02593
-0.0152273
0.119566
-0.140008
0.236542
-0.260677
0.345951
-0.337865
-0.380371
0.423924
0.0488308
-0.0640581
0.14919
-0.240368
0.231757
-0.343243
0.278754
-0.384862
-0.396012
0.294395
0.0611817
-0.12524
0.131558
-0.310744
0.16952
-0.381205
0.183818
-0.39916
0.19284
-0.405034
-0.0108456
0.0567034
-0.0458579
-0.0375501
0.10191
-0.0752059
-0.0666732
0.109078
-0.0799552
-0.0902841
0.102836
-0.0792256
0.0921163
-0.103728
-0.0786721
0.0125602
0.0441432
0.0183718
0.0960988
0.0140202
0.11343
0.00508308
0.111774
0.10247
-0.0052706
0.0204772
0.0236661
0.0504881
0.0660878
0.0755234
0.0883947
0.0941244
0.0931726
0.0867597
0.109835
0.0125852
0.0110809
0.041805
0.036868
0.076287
0.0539127
0.114512
0.054948
0.0542
0.147071
-0.00376313
0.00535137
0.0340813
0.094153
0.148859
0.162634
0.543063
-0.809425
0.513343
-1.38069
1.02998
0.457131
-1.50544
1.56165
0.353766
0.418259
-0.314894
0.448152
-0.401261
0.268531
0.269261
0.612527
-1.72469
0.479798
-1.37271
0.307336
0.590722
0.463706
0.267939
0.111157
0.481204
-1.93795
0.391253
-1.28275
0.292155
0.68982
0.437973
0.361311
-0.103083
0.393216
-1.96986
0.269896
-1.15943
0.306076
0.65364
0.368073
0.397451
-0.351675
0.355461
-1.92787
0.146648
-0.950622
0.245236
0.555052
0.163259
1.358
-0.476835
-1.23284
1.11792
-1.6878
0.586322
-0.41902
0.583948
0.557426
-0.14038
1.50389
-0.541599
-1.43913
0.973859
-1.15777
0.593085
-0.0382466
0.859356
0.291156
-0.331863
1.33213
-0.501894
-1.37184
0.808742
-0.634374
0.691451
0.0790443
1.04663
-0.0640257
-0.343699
1.14271
-0.324716
-1.31988
0.719609
-0.211276
0.769408
0.0292455
0.887308
-0.181925
-0.178429
0.545635
-0.870351
0.334359
0.363605
0.181679
1.12016
0.15411
-1.08143
1.2029
0.211651
1.31148
0.315345
1.34824
0.39965
0.451368
1.0193
0.0939233
-0.959114
1.09712
0.133834
1.20026
0.212203
1.31892
0.280992
0.331158
0.966728
0.0451275
-0.917933
1.02519
0.075375
1.11435
0.12304
1.2356
0.15974
0.194922
0.942501
0.00782893
-0.905202
0.996635
0.0212408
1.08004
0.0396306
1.18893
0.0508535
0.0639683
0.694658
-0.686829
0.715899
0.75553
0.806383
0.139564
0.303865
-0.249963
-0.193466
0.0936145
0.310378
-0.264429
0.0526489
0.321605
-0.280639
0.0181882
0.312742
-0.278281
0.201045
-0.182857
0.100316
0.340668
-0.137119
0.0641572
0.346537
0.0322898
0.353472
0.00733538
0.337697
0.20838
0.0701429
0.376638
-0.106113
0.0373799
0.3793
0.00957125
0.381281
-0.00570451
0.352972
0.202676
-0.0115086
0.392893
-0.0047463
-0.0281269
0.395918
-0.0360692
0.389223
-0.0277287
0.344632
0.174947
-0.0883717
0.0762305
-0.0916131
-0.0835949
-0.0497071
0.195445
0.109659
-0.249006
-0.0560979
0.141571
0.113962
-0.0600886
0.0872933
0.118596
-0.064318
0.0352409
0.118003
-0.0659507
0.08286
-0.0476191
0.196405
0.153246
-0.239991
0.149565
0.160802
0.0971686
0.170992
0.0413565
0.173815
0.124216
0.137165
0.197809
-0.181728
0.0965141
0.201453
0.0574122
0.210094
0.0207338
0.210494
0.14495
0.154794
0.230387
-0.187372
0.11554
0.240707
0.071304
0.25433
0.0278867
0.253911
0.172837
0.084421
-0.103997
0.0606993
0.0343902
0.0100195
0.406023
0.064734
-0.0747773
0.423423
0.040626
-0.0580258
0.407255
0.209391
-0.193224
0.395856
0.211698
-0.200299
0.498336
-0.351487
0.403625
0.0570883
0.41584
0.0284112
0.397567
0.227665
0.385919
0.223345
0.644265
0.397505
0.0555631
0.409392
0.0165244
0.37635
0.260707
0.373489
0.226207
0.836025
0.394573
0.0569693
0.393834
0.0172643
0.367524
0.287017
0.35718
0.23655
1.00583
0.386405
0.0665436
0.382908
0.0207611
0.341395
0.32853
0.325597
0.252347
1.22743
0.621924
0.0486395
0.645817
-0.00313127
0.700936
0.273411
0.810196
0.143087
1.0448
0.992835
0.635927
0.0167333
0.643871
-0.011076
0.747399
0.169884
0.809916
0.0805696
0.832244
1.02247
0.640298
-0.0195443
0.658789
-0.0295673
0.754572
0.0741004
0.77887
0.0562717
0.599934
1.01118
0.63711
-0.0526341
0.65492
-0.0473766
0.715525
0.0134948
0.739125
0.032672
0.303096
1.03596
0.551386
0.50401
0.517504
0.550176
0.853272
1.03269
-0.233318
1.02346
-0.127895
1.03391
-0.116555
1.03069
-0.00153412
0.025497
0.971121
-0.181972
0.947079
-0.103852
0.926637
-0.0961131
0.93667
-0.0115676
0.00305372
0.943145
-0.113938
0.921042
-0.0817489
0.89585
-0.0709211
0.908445
-0.024162
-0.00643432
0.971706
-0.0496802
0.933375
-0.0434183
0.901034
-0.03858
0.89968
-0.0228077
-0.0119569
0.803592
0.760174
0.721594
0.698786
0.0472411
0.145705
-0.192946
0.0720373
0.317221
-0.342017
0.0732293
0.371106
-0.372298
0.0636792
0.374012
-0.364462
0.342201
0.0521279
-0.33065
0.0684061
0.0772991
0.139275
0.246352
0.174091
0.336291
0.179066
0.369037
0.362459
0.158808
0.0574423
0.0198569
0.16779
0.136004
0.260121
0.24396
0.324753
0.304405
0.354344
0.332869
0.0277813
-0.00792437
0.123364
0.0404213
0.243019
0.124305
0.359496
0.187928
0.254246
0.459593
0.00627091
-0.0141953
0.0536782
-0.00698606
0.148548
0.0294362
0.263641
0.0728341
0.119184
0.398703
-0.00271866
-0.0114766
0.0084033
-0.018108
0.049813
-0.0119735
0.117907
0.00474
0.0355289
0.201562
-0.000394527
-0.0110821
0.00215803
-0.0206606
0.0133608
-0.0231762
0.0371956
-0.0190948
-0.0064294
0.0791539
-0.000527863
-0.0105542
-0.00508866
-0.0160998
-0.0131547
-0.0151101
-0.0218017
-0.0104478
-0.00228767
-0.0259434
-0.0223851
0.0118309
-0.0603507
0.0218658
-0.103659
0.0281984
-0.148312
0.0342053
0.0404398
-0.19104
-0.034027
-0.087367
-0.139124
-0.184144
-0.222376
0.301684
0.714438
-0.81456
0.424027
0.108889
-0.231231
0.558234
-0.200671
0.0664633
0.478069
0.1278
-0.0476358
0.0798185
-0.00364702
0.185424
0.608168
0.306826
-0.0125133
0.568976
-0.46282
0.510615
0.186161
0.167913
-0.127605
0.70983
0.113966
-0.254085
0.541762
-0.890616
0.495522
0.232401
0.256409
-0.339973
0.858763
0.0492946
-0.643352
0.496145
-1.33747
0.453359
0.275187
0.337474
-0.173039
0.213593
0.437773
0.398066
0.0811314
0.512719
-0.59385
-0.0448555
0.125987
0.0328666
-0.077722
0.107411
-0.0745443
-0.0617857
0.732149
-1.03399
0.626905
0.615646
0.493466
0.0858083
-0.0149082
-0.0709002
0.136654
-0.0508457
0.242885
-0.106231
0.404397
-0.161512
-0.189453
0.192059
-0.154839
0.300021
0.526658
0.824739
0.13984
-0.134034
0.164168
-0.169974
0.106224
-0.139141
0.172757
0.0680344
-0.145979
0.184168
0.0274569
-0.145745
0.186323
-0.102374
0.129831
0.177563
-0.0947182
-0.216878
0.13397
-0.0955476
0.085204
-0.097213
0.0351934
-0.0957348
-0.0671805
0.188758
-0.0459616
-0.237514
0.138411
-0.0452004
0.0863356
-0.0451381
0.03514
-0.0445392
-0.0320405
0.19987
0.0053709
-0.251202
0.147822
0.00684707
0.0942838
0.00840039
0.0397387
0.010006
0.00769821
0.205025
-0.255752
0.151783
0.0958657
0.0399209
0.0378677
-0.310524
-0.0579931
0.0142747
-0.340869
-0.0071933
-0.35083
-0.0155685
-0.333642
-0.208515
0.11815
-0.280444
-0.14823
0.0764308
-0.29915
0.0365879
-0.310987
0.0069727
-0.304027
-0.201542
0.135892
-0.242069
-0.174267
0.0958386
-0.259097
0.0558604
-0.271009
0.0196208
-0.267788
-0.181921
0.154792
-0.208306
-0.188555
0.113109
-0.217415
0.0685731
-0.226473
0.0267222
-0.225937
-0.155199
0.151945
-0.196082
0.107287
0.0649821
0.0253683
0.388386
0.106195
-0.0986016
0.387285
0.101098
-0.099997
0.353765
0.162748
-0.129228
0.29632
0.0694697
-0.0120246
-0.18427
0.310616
0.396685
0.10549
0.402064
0.0957183
0.391358
0.173455
0.344498
0.11633
-0.0566506
0.402698
0.098772
0.412716
0.0856999
0.406015
0.180156
0.369427
0.152918
0.0752618
0.40727
0.087482
0.420145
0.0728249
0.415003
0.185297
0.388329
0.179592
0.212388
0.408684
0.423483
0.415557
0.39485
0.414373
0.0956781
0.328177
0.0861963
0.237037
0.09114
0.237021
1.52552e-05
-0.171271
0.408292
0.507127
0.493327
0.455239
0.44323
0.582575
0.328185
0.0801067
0.256016
0.0721694
0.170875
0.0851407
0.0994925
0.0713827
0.0285923
0.466599
0.350214
0.261087
0.18424
)
;

boundaryField
{
    left
    {
        type            calculated;
        value           nonuniform List<scalar> 
17
(
-0.60402
-0.60402
-0.60402
-0.60402
-0.60402
-0.39598
-0.39598
-0.39598
-0.39598
-0.39598
-0.39598
-0.39598
-0.39598
-0.39598
-0.39598
-0.510051
-0.510051
)
;
    }
    right
    {
        type            calculated;
        value           nonuniform List<scalar> 
17
(
0.169197
0.428033
0.401898
0.422521
0.407026
0.372294
0.334279
0.306875
0.291782
0.317888
0.375976
0.45005
0.887587
1.05084
1.05847
0.722038
0.00325071
)
;
    }
    down
    {
        type            calculated;
        value           uniform 0;
    }
    up
    {
        type            calculated;
        value           uniform 0;
    }
    cylinder
    {
        type            calculated;
        value           uniform 0;
    }
    defaultFaces
    {
        type            empty;
    }
}


// ************************************************************************* //
