/*--------------------------------*- C++ -*----------------------------------*\
  =========                 |
  \\      /  F ield         | OpenFOAM: The Open Source CFD Toolbox
   \\    /   O peration     | Website:  https://openfoam.org
    \\  /    A nd           | Version:  13
     \\/     M anipulation  |
\*---------------------------------------------------------------------------*/
FoamFile
{
    format      ascii;
    class       volVectorField;
    location    "6.18";
    object      U;
}
// * * * * * * * * * * * * * * * * * * * * * * * * * * * * * * * * * * * * * //

dimensions      [0 1 -1 0 0 0 0];

internalField   nonuniform List<vector> 
440
(
(-0.0912268 0.0712766 -6.03342e-20)
(-0.119575 0.136649 -5.42718e-20)
(-0.0530775 0.127573 2.35411e-21)
(0.319521 0.192149 4.82608e-19)
(0.118516 0.393176 -1.81345e-22)
(-0.0754144 0.0404669 1.60517e-20)
(0.0125846 0.0319135 -9.61888e-20)
(0.389254 -0.00162601 -6.10344e-20)
(0.92473 -0.0147741 1.74811e-20)
(1.22465 0.030297 -1.97556e-20)
(-0.0347124 0.0142502 4.20957e-20)
(0.366104 -0.0176589 5.92733e-19)
(1.07087 0.00963352 -3.05229e-19)
(1.63329 0.0540374 -9.06049e-19)
(2.22945 0.0891693 2.92166e-19)
(0.147262 -0.0356669 -1.6436e-19)
(1.02992 0.0140726 -4.6656e-19)
(1.81778 0.105107 1.40704e-18)
(2.32743 0.164227 1.54294e-18)
(2.47631 0.203144 -4.16176e-19)
(0.478345 -0.00911052 -2.73506e-19)
(1.63213 0.195389 -5.57904e-19)
(2.23176 0.297552 1.67164e-18)
(2.38783 0.328246 1.7971e-18)
(2.44584 0.300781 6.07363e-19)
(0.0352301 -0.39628 -1.40416e-19)
(-0.00154394 -0.610612 7.63448e-20)
(-0.0717078 -0.613617 -1.86704e-19)
(-0.141241 -0.56493 5.52746e-20)
(-0.189147 -0.502989 4.93892e-19)
(0.0511817 -0.284091 -1.77569e-20)
(-0.0218827 -0.422167 -4.74431e-20)
(-0.123335 -0.421625 -6.79625e-20)
(-0.215524 -0.389683 -5.2023e-20)
(-0.281002 -0.347429 8.14327e-20)
(0.0263317 -0.11985 1.52456e-19)
(-0.048661 -0.186149 7.62582e-20)
(-0.131985 -0.208852 7.93952e-20)
(-0.207134 -0.217243 -1.15127e-19)
(-0.261841 -0.208098 2.95659e-21)
(0.00414929 -0.0289324 1.39298e-20)
(-0.0581778 -0.0470599 -2.4876e-20)
(-0.130863 -0.0582779 3.89691e-20)
(-0.207707 -0.0738049 1.28776e-20)
(-0.278119 -0.0651379 2.13801e-20)
(-0.0632668 0.0520748 2.08438e-20)
(-0.166044 0.0885602 2.08378e-20)
(-0.257454 0.124499 -1.80117e-21)
(-0.265975 0.16148 -4.66396e-20)
(-0.29878 0.208081 -2.93905e-19)
(-0.272295 -0.138957 9.38519e-19)
(0.273426 0.781616 -5.04737e-19)
(-0.468142 0.696615 1.50809e-19)
(0.876737 -0.377469 -1.00761e-18)
(1.18627 -0.524834 4.76191e-20)
(-0.462237 -0.14876 -1.27782e-18)
(-0.24609 0.786919 1.50693e-19)
(-0.162662 0.549397 8.2025e-21)
(1.33932 -0.580445 7.06543e-19)
(1.46889 -0.572857 -5.11264e-20)
(-0.407662 -0.189448 -9.36275e-19)
(-0.555842 0.648107 -1.54282e-18)
(0.396603 0.26239 1.21558e-20)
(1.73294 -0.742 1.36481e-19)
(1.73007 -0.598546 3.52672e-20)
(-0.39751 -0.127471 2.40755e-19)
(-0.368992 0.521921 1.48391e-19)
(0.983969 -0.0166576 -4.68569e-20)
(1.95611 -0.866676 1.22692e-19)
(1.83305 -0.614093 1.05341e-19)
(-0.0334254 -0.265601 -1.6489e-19)
(0.199061 0.255174 8.81327e-19)
(1.51207 -0.23608 0)
(2.17023 -0.910159 -3.24758e-19)
(1.84675 -0.604018 1.19145e-20)
(1.48243 -0.112808 -3.2152e-19)
(1.32019 0.0690223 -1.54397e-19)
(2.11786 -0.393976 7.16297e-21)
(2.43137 -0.874832 -2.16891e-19)
(1.86541 -0.556286 -3.37936e-20)
(2.05866 -0.104132 1.55148e-20)
(2.13558 0.0349666 2.84518e-19)
(2.63359 -0.496797 5.90332e-21)
(2.5182 -0.784266 6.06737e-19)
(1.69386 -0.439901 0)
(2.0643 -0.00835124 -8.73787e-20)
(2.33 -0.115489 -2.67375e-21)
(2.51957 -0.513492 4.82014e-19)
(2.02203 -0.537492 -1.78476e-19)
(1.23119 -0.258388 -5.70723e-21)
(2.12192 -0.0614613 5.31097e-20)
(2.32039 -0.171383 1.62162e-19)
(2.07204 -0.418741 2.15315e-20)
(1.41719 -0.35896 1.67356e-34)
(0.642975 -0.125679 4.94548e-20)
(1.54908 -0.021816 8.59732e-20)
(1.48721 -0.1194 4.94191e-20)
(0.665842 -0.081198 -1.31231e-19)
(0.0603391 0.0382929 3.32839e-20)
(-0.196517 0.0223912 7.90078e-21)
(2.36457 0.30107 -7.45309e-19)
(2.57056 0.117352 -9.62444e-19)
(2.4466 0.173426 5.35019e-19)
(2.6203 0.0108635 1.13782e-19)
(1.91898 0.195207 -3.22307e-20)
(2.14556 0.206665 7.00929e-20)
(2.37563 0.11453 -3.76258e-20)
(2.26821 0.0640064 -1.30051e-19)
(2.44349 -0.018911 -2.34426e-19)
(2.3163 -0.11745 -4.96227e-21)
(2.03977 0.109879 7.76576e-20)
(2.10383 0.114942 7.70911e-20)
(2.16403 0.00672704 -7.89085e-20)
(2.16269 0.0294263 2.89394e-20)
(2.26603 -0.0769675 -1.95553e-20)
(1.97375 0.0562361 1.14677e-19)
(1.99383 0.069663 1.76186e-19)
(2.11456 0.00712857 -1.97146e-20)
(2.09702 0.0164342 -9.65239e-20)
(2.21488 -0.0325455 3.18046e-20)
(1.52851 -0.0130498 1.88652e-19)
(1.54167 -0.00160023 -1.11548e-20)
(1.59735 -0.0217507 1.73554e-20)
(1.57902 -0.00933962 -4.27457e-20)
(1.64459 -0.0314638 -2.87991e-20)
(1.56001 0.839828 1.04542e-18)
(1.51424 0.936538 -3.19532e-19)
(1.51195 1.0647 -1.26548e-18)
(1.44427 1.1108 6.99663e-19)
(0.887847 0.797957 -1.71298e-19)
(1.8346 0.804026 -5.46454e-19)
(1.80794 0.883417 -2.84853e-18)
(1.81201 0.989454 -1.10419e-18)
(1.71943 0.996796 -3.96524e-19)
(1.04519 0.687725 -6.31655e-19)
(2.12689 0.694653 6.97905e-19)
(2.09976 0.759149 1.8884e-19)
(2.0783 0.842152 -2.16541e-18)
(1.94138 0.825746 -5.93343e-19)
(1.12951 0.532738 4.31688e-19)
(2.28058 0.589418 2.11866e-18)
(2.27977 0.63951 1.54443e-18)
(2.26521 0.679797 -1.79219e-18)
(2.02768 0.628829 -1.33013e-18)
(1.08335 0.345814 -2.37407e-19)
(2.43333 0.441948 1.00119e-18)
(2.41584 0.460636 -7.30415e-19)
(2.31023 0.48035 5.20639e-19)
(1.95523 0.412458 3.99807e-19)
(0.863016 0.141681 -3.25603e-19)
(0.574424 0.418563 -7.15558e-19)
(0.481906 0.452333 -5.65592e-19)
(0.361437 0.485301 6.99516e-20)
(0.223643 0.485933 -1.93334e-20)
(0.0540103 0.344168 7.03423e-20)
(0.686818 0.580536 5.6128e-20)
(0.622956 0.635989 -3.36203e-19)
(0.530695 0.699793 1.73935e-19)
(0.399177 0.755758 -7.97723e-20)
(0.170195 0.579163 1.14117e-19)
(0.768443 0.792048 1.9743e-19)
(0.699752 0.873588 4.0811e-19)
(0.64398 0.9696 5.91071e-20)
(0.557133 1.0144 -2.7583e-19)
(0.303698 0.754185 2.2473e-19)
(1.03593 0.864236 2.09915e-19)
(0.987761 0.951527 -6.32901e-19)
(0.938379 1.05453 -1.80394e-18)
(0.856315 1.12401 7.35009e-19)
(0.504535 0.837617 -1.71282e-19)
(1.13852 0.911651 -1.20995e-19)
(1.15829 1.03182 -1.96111e-19)
(1.17664 1.14877 -3.34175e-19)
(1.12173 1.18218 -3.86906e-19)
(0.68902 0.852889 -6.29146e-21)
(0.990581 0.0530025 -8.89573e-20)
(1.00994 0.00642496 -3.29012e-20)
(1.04136 0.130391 -1.57227e-21)
(0.931533 0.112907 -2.24564e-19)
(0.900198 0.248171 3.05649e-19)
(0.975731 0.0511802 5.50948e-20)
(1.03181 -0.00145607 1.22402e-19)
(1.02681 0.147514 1.11886e-19)
(0.964292 0.136337 2.68205e-20)
(0.927485 0.323185 1.85958e-20)
(0.981526 0.0497367 7.31132e-20)
(1.02153 -0.0104288 -4.72378e-21)
(1.06692 0.165958 -4.07353e-21)
(0.913733 0.140367 1.44992e-19)
(1.11711 0.458976 -4.37855e-19)
(0.978094 0.0485372 -4.06007e-22)
(1.04335 -0.022815 -1.79937e-19)
(1.05348 0.196947 -6.07959e-20)
(0.985014 0.144509 -3.72414e-19)
(1.16989 0.507931 8.26416e-20)
(0.981716 0.0392415 -1.17126e-20)
(1.0467 -0.0180373 5.2204e-20)
(1.08232 0.201704 2.8964e-20)
(0.985983 0.160297 4.74083e-19)
(1.40362 0.63468 -4.39603e-19)
(0.958234 0.0372473 -3.74552e-21)
(1.11285 -0.0406056 1.01346e-19)
(1.03738 0.235738 -6.64051e-20)
(1.22869 0.0902502 9.14346e-19)
(1.32791 0.672299 -3.68692e-19)
(0.932871 0.00234936 -1.5758e-21)
(1.18408 -0.0258632 -8.59292e-20)
(0.928071 0.172424 4.84207e-21)
(1.33838 0.0683513 -3.49513e-19)
(1.35791 0.443508 -7.03204e-21)
(0.976731 -0.0174901 4.83272e-22)
(1.12393 -0.00626609 1.32755e-35)
(0.997924 0.145627 -7.73621e-21)
(1.34248 -0.0195131 1.17682e-19)
(1.44013 0.278492 1.59177e-19)
(1.05935 -0.0572392 4.19302e-21)
(0.945891 -0.00462965 -2.81263e-20)
(1.20295 0.0465586 2.08085e-20)
(1.22957 -0.0479406 3.16043e-20)
(1.34333 0.196773 -2.26776e-19)
(0.964056 -0.022845 -4.03876e-20)
(0.755494 -0.0204923 -4.46464e-21)
(0.993731 -0.00381306 2.39988e-20)
(0.761793 -0.0191226 -1.35595e-20)
(0.935358 0.0839758 -4.929e-20)
(1.78863 0.642928 2.93904e-19)
(1.89327 0.656324 7.11345e-19)
(2.13982 0.546098 -1.00013e-18)
(2.20068 0.512864 -5.85392e-21)
(2.40751 0.33484 4.39691e-19)
(1.78167 0.452389 8.01162e-20)
(1.81531 0.447004 9.86981e-19)
(2.02116 0.401563 1.15222e-19)
(2.00719 0.34967 -8.64001e-19)
(2.22714 0.257345 -2.71417e-19)
(1.69802 0.348409 -2.25053e-19)
(1.74754 0.297372 -1.44244e-19)
(1.85654 0.305619 2.0547e-19)
(1.89512 0.213032 -2.76644e-19)
(1.99881 0.210323 2.56746e-19)
(1.54924 0.24168 3.30387e-19)
(1.62391 0.186188 -3.53784e-22)
(1.7066 0.193869 2.0998e-19)
(1.80069 0.116208 1.83182e-19)
(1.86132 0.129431 -1.872e-19)
(1.21506 0.0679037 -4.1964e-20)
(1.28976 0.0415898 2.21956e-19)
(1.37447 0.0332359 9.8679e-20)
(1.4309 0.00702373 -2.21761e-19)
(1.48018 0.0100078 1.02282e-22)
(1.31753 -0.0367936 6.57619e-20)
(2.4138 -0.0424877 -5.1552e-19)
(2.64281 -0.0364676 1.38253e-18)
(2.62255 0.0103289 6.17367e-19)
(2.46489 0.0376342 -4.22113e-19)
(0.82475 0.0963165 1.17513e-19)
(2.18326 0.0944379 -5.08751e-19)
(2.65418 0.0955057 -6.94891e-19)
(2.69629 0.10957 8.68957e-19)
(2.43265 0.0979336 -5.7492e-19)
(0.234266 0.0831462 -3.50385e-20)
(1.50076 0.163117 5.34521e-19)
(2.31287 0.190961 8.18082e-20)
(2.70575 0.184962 5.67116e-19)
(2.8629 0.181494 2.60872e-19)
(-0.0600872 -0.0317134 2.34228e-19)
(0.552076 0.0908113 2.36492e-19)
(1.46434 0.176437 -5.23014e-19)
(2.00797 0.216301 2.99191e-20)
(2.63202 0.244703 7.21025e-20)
(-0.123606 -0.0977807 1.74207e-19)
(-0.00621437 -0.050703 -1.95443e-19)
(0.535121 0.053882 -2.71171e-20)
(1.05258 0.0931857 5.3262e-20)
(1.56864 0.182604 -3.77693e-20)
(-0.0891147 -0.0889999 -1.17082e-21)
(-0.1502 -0.130399 1.3604e-19)
(-0.0101572 -0.130155 1.30279e-19)
(0.207851 -0.109334 -8.47328e-20)
(0.673147 -0.0199503 7.54582e-21)
(-0.0491781 -0.0722059 -1.035e-20)
(-0.109562 -0.200143 -1.18006e-19)
(-0.0946715 -0.284922 -6.5649e-20)
(-0.0267227 -0.317134 1.81437e-20)
(0.124865 -0.251803 1.75931e-20)
(-0.0436489 -0.130802 -1.46617e-21)
(-0.0603763 -0.36491 2.77276e-19)
(-0.0313319 -0.488354 -1.00411e-19)
(0.0290898 -0.51682 1.07855e-20)
(0.0716584 -0.483488 -7.97207e-20)
(-0.0413801 -0.272955 -1.39791e-20)
(-0.027482 -0.590982 -3.08714e-20)
(0.00353204 -0.69572 -8.78215e-20)
(0.0444507 -0.67732 -2.90042e-19)
(0.0788997 -0.604771 4.40234e-20)
(-0.00804726 -0.395148 6.87608e-22)
(-0.00318803 -0.686955 1.18455e-20)
(-0.0157115 -0.718076 -8.74089e-21)
(-0.0273546 -0.654564 -2.32643e-20)
(-0.035702 -0.56564 1.04793e-19)
(1.67631 0.552516 -7.28043e-20)
(1.48257 0.34801 6.2945e-19)
(0.871508 0.164781 -6.41082e-20)
(0.1195 0.0335388 3.35905e-20)
(0.494073 -0.0993753 -9.52389e-21)
(1.42812 0.418873 -8.38995e-21)
(1.29188 0.449654 4.87006e-20)
(0.626073 0.321796 1.31579e-19)
(-0.178835 0.0536512 -6.2964e-21)
(0.437327 -0.179126 8.43951e-20)
(1.02317 0.215753 1.58878e-20)
(1.11083 0.533847 4.73409e-19)
(0.337429 0.481559 5.27659e-20)
(-0.233463 0.0575751 -4.5299e-19)
(0.505095 -0.284887 -1.6372e-20)
(0.540258 0.0533364 1.17671e-19)
(0.921717 0.619067 -1.14938e-18)
(-0.0254379 0.62394 -3.19506e-19)
(0.0398408 -0.00510818 4.07403e-21)
(0.675943 -0.381574 -3.87637e-20)
(0.0523655 -0.0164946 -2.37953e-20)
(0.672245 0.720437 3.48302e-20)
(-0.383934 0.708199 2.54987e-19)
(0.462241 -0.156875 -3.7137e-20)
(0.925994 -0.457854 8.34616e-21)
(0.472621 0.174101 -4.10161e-20)
(-0.285847 -0.0992296 0)
(-0.197273 -0.114896 -4.24772e-20)
(-0.0704472 -0.0601876 6.27197e-20)
(0.226465 -0.0239744 1.33427e-20)
(2.10124 0.539315 0)
(1.49648 0.340514 0)
(0.936282 0.0407253 3.67077e-19)
(0.426967 -0.0522887 2.80522e-20)
(0.629374 -0.0712176 -1.12694e-21)
(0.803467 0.0023603 -1.43655e-19)
(0.870467 -0.00370908 2.5065e-19)
(1.06027 -0.00258351 -2.63867e-20)
(1.11707 0.0104882 3.29799e-19)
(1.50484 0.0859082 2.22361e-19)
(1.79829 0.0272198 1.36641e-19)
(1.97271 0.0821234 3.28054e-19)
(2.12586 0.0573786 -2.77178e-19)
(2.74233 0.20507 -2.78878e-21)
(2.43154 0.148412 1.0526e-19)
(0.971085 -0.526133 2.61984e-20)
(0.963138 -0.624055 -2.05312e-19)
(0.958161 -0.728253 -1.85374e-19)
(0.888322 -0.802206 1.11675e-19)
(0.545573 -0.636726 1.43106e-19)
(0.861467 -0.433939 1.10419e-19)
(0.804467 -0.503931 1.52193e-19)
(0.729065 -0.580959 -1.06164e-19)
(0.616053 -0.649155 1.47819e-19)
(0.342507 -0.519496 3.72901e-20)
(0.680773 -0.295871 -1.27767e-19)
(0.590842 -0.34082 -5.83939e-20)
(0.491116 -0.398118 1.79687e-20)
(0.374654 -0.449407 -4.62981e-20)
(0.174823 -0.359137 -1.36851e-19)
(0.572831 -0.0634921 -4.49151e-19)
(0.488101 -0.0840404 -3.62417e-19)
(0.379065 -0.114891 2.92884e-19)
(0.251016 -0.15257 1.5586e-19)
(0.0775467 -0.140268 1.35015e-20)
(0.540915 0.139307 -1.4897e-19)
(0.455892 0.137673 -1.65412e-19)
(0.338138 0.133502 -4.72043e-20)
(0.197364 0.136001 5.25094e-20)
(0.0339539 0.103266 1.52992e-20)
(2.18176 -0.0390085 9.17004e-19)
(2.45327 -0.110093 3.19902e-19)
(2.53855 -0.203423 -8.41047e-19)
(2.40374 -0.228303 -1.80457e-18)
(1.4736 -0.216901 1.35392e-19)
(2.16173 -0.131091 1.55772e-18)
(2.25066 -0.249379 2.04676e-18)
(2.27121 -0.380048 1.69556e-19)
(2.2061 -0.442486 2.92321e-19)
(1.43842 -0.406987 -1.93395e-19)
(1.83933 -0.305579 -4.03799e-18)
(1.90424 -0.429517 4.61963e-19)
(1.95984 -0.562871 1.26545e-18)
(1.91443 -0.645144 -5.06398e-19)
(1.26122 -0.564705 8.03479e-19)
(1.61512 -0.434351 9.73358e-19)
(1.63549 -0.539066 -2.56418e-18)
(1.62564 -0.665312 -2.9856e-18)
(1.56511 -0.763478 9.40977e-19)
(1.02194 -0.645544 6.09183e-19)
(1.30398 -0.500426 2.26072e-19)
(1.25436 -0.599864 2.79254e-19)
(1.24929 -0.730761 -4.57757e-19)
(1.20097 -0.827754 -5.55017e-19)
(0.76853 -0.670792 -5.33948e-21)
(1.02171 0.0498924 7.28854e-21)
(0.965135 0.0439789 -2.06375e-21)
(1.12751 0.0835742 4.5166e-21)
(0.830521 -0.011271 -2.49848e-19)
(1.17443 -0.236009 -1.74548e-20)
(1.04132 0.0551175 -2.46725e-21)
(0.941439 0.0353619 3.79599e-20)
(1.12463 0.101829 -7.07452e-21)
(0.908735 0.029949 1.97697e-19)
(1.04163 -0.122625 -3.10217e-21)
(1.04775 0.0544062 -5.9633e-20)
(0.93732 0.0268865 2.15898e-22)
(1.10287 0.10197 -7.80429e-21)
(0.902231 0.0503362 8.77985e-20)
(0.999339 -0.0606162 -2.42376e-19)
(1.03372 0.0551205 7.14376e-20)
(0.96359 0.0195712 2.71722e-21)
(1.06189 0.107362 2.3143e-20)
(0.935614 0.0744281 -2.87483e-20)
(0.886345 0.0490789 7.80744e-20)
(1.00789 0.0529546 1.7623e-20)
(0.997035 0.0160359 -2.49939e-20)
(1.03325 0.114893 3.50346e-20)
(0.949295 0.0980473 5.31778e-20)
(0.851299 0.143485 -4.11583e-20)
(0.872855 0.0333439 0)
(0.748339 0.0295161 9.48264e-21)
(0.598327 0.0206271 5.82194e-21)
(0.379647 -0.0128532 5.09095e-20)
(0.732795 -0.0587583 -1.64488e-19)
(0.98773 0.0686282 -6.20646e-20)
(0.996065 0.0672346 -9.08875e-21)
(1.02301 0.0819342 -5.78831e-20)
(0.83916 -0.0128498 -1.40326e-19)
(1.07786 -0.217427 -1.70711e-19)
(1.02989 -0.0658 -3.72608e-20)
(1.12179 -0.0355723 5.77146e-19)
(1.2295 0.0385184 3.48651e-19)
(1.10093 0.0616786 2.994e-20)
(0.85191 0.0337561 0)
(1.38797 -0.332022 3.77399e-19)
(1.5104 -0.292779 1.67494e-18)
(1.70669 -0.168842 -1.85e-18)
(1.82265 -0.0232324 -5.78608e-19)
(1.73164 0.0346286 4.26477e-19)
)
;

boundaryField
{
    left
    {
        type            fixedValue;
        value           uniform (1 0 0);
    }
    right
    {
        type            zeroGradient;
    }
    down
    {
        type            noSlip;
    }
    up
    {
        type            noSlip;
    }
    cylinder
    {
        type            noSlip;
    }
    defaultFaces
    {
        type            empty;
    }
}


// ************************************************************************* //
