/*--------------------------------*- C++ -*----------------------------------*\
  =========                 |
  \\      /  F ield         | OpenFOAM: The Open Source CFD Toolbox
   \\    /   O peration     | Website:  https://openfoam.org
    \\  /    A nd           | Version:  13
     \\/     M anipulation  |
\*---------------------------------------------------------------------------*/
FoamFile
{
    format      ascii;
    class       volScalarField;
    location    "0.775";
    object      strainRateViscosityModel:nu;
}
// * * * * * * * * * * * * * * * * * * * * * * * * * * * * * * * * * * * * * //

dimensions      [0 2 -1 0 0 0 0];

internalField   nonuniform List<scalar> 
1800
(
9.40488
9.1976
9.01007
8.80096
8.57616
8.34415
8.11548
7.89817
7.6242
7.37924
9.58523
9.41878
9.2669
9.09733
8.91118
8.71143
8.50357
8.28868
8.0273
7.70208
9.70219
9.56269
9.42803
9.27096
9.08869
8.87899
8.64091
8.36903
8.03058
7.61061
9.77539
9.65614
9.53324
9.38287
9.20049
8.98172
8.72281
8.41596
8.02877
7.55456
9.82168
9.7183
9.60558
9.46167
9.28071
9.05696
8.78549
8.45888
8.04775
7.55614
9.85185
9.76081
9.6573
9.52059
9.34355
9.11896
8.84034
8.50016
8.07152
7.5702
9.87179
9.78991
9.69398
9.56396
9.39147
9.16769
8.8842
8.53252
8.08735
7.57567
9.88475
9.80924
9.71888
9.59394
9.42494
9.20146
8.91309
8.55005
8.08853
7.56355
9.8926
9.82107
9.73416
9.6122
9.44467
9.21963
8.92483
8.54922
8.07121
7.52871
9.89646
9.82686
9.74153
9.6207
9.45309
9.22573
8.92512
8.53953
8.05038
7.49285
1.79921
1.40526
1.20964
1.32024
1.7304
2.2514
2.49646
2.44901
2.35923
2.33553
3.72823
1.7813
1.49164
1.98121
2.69539
2.97235
2.81737
2.67194
2.68802
2.74134
4.70149
2.57005
2.43567
3.1765
3.59634
3.34633
3.0819
3.11863
3.25856
3.33911
5.26865
3.88186
3.81511
4.21337
4.18054
3.82951
3.72141
3.85517
3.95766
4.00668
6.05565
5.27524
5.11778
5.12127
4.91493
4.65337
4.57815
4.61232
4.61266
4.65241
6.9598
6.45989
6.22678
6.03824
5.78827
5.54539
5.38921
5.29338
5.22227
5.27488
7.77172
7.37772
7.11678
6.8603
6.58741
6.32054
6.08725
5.90094
5.77024
5.82382
8.40013
8.05531
7.79202
7.51578
7.22651
6.93121
6.64219
6.38631
6.19227
6.22929
8.84935
8.54538
8.291
8.01032
7.70571
7.37949
7.03563
6.70112
6.41574
6.42175
9.16164
8.90154
8.66633
8.39667
8.09572
7.76577
7.40645
7.03565
6.70853
6.75241
2.19342
1.72923
1.3319
0.93722
0.61992
0.349824
0.184305
0.135879
0.151221
0.229465
2.52778
1.8484
1.40702
0.93265
0.593874
0.334021
0.172953
0.0993669
0.0979743
0.170963
2.94837
1.97755
1.47945
0.930138
0.558294
0.306909
0.16047
0.0825295
0.0572479
0.113904
3.4408
2.14749
1.55079
0.93314
0.519041
0.272226
0.14335
0.0697074
0.0513529
0.053158
3.98304
2.38554
1.62825
0.942212
0.480308
0.233475
0.122536
0.056485
0.0555839
0.0244598
4.52856
2.69669
1.72455
0.958609
0.445189
0.193349
0.098873
0.0451216
0.0478032
0.0372139
4.99702
3.05644
1.8465
0.981384
0.413891
0.15363
0.0737668
0.036184
0.0309545
0.090168
5.31285
3.43945
2.01367
1.0242
0.392922
0.117487
0.048857
0.0264139
0.0329828
0.155838
5.34335
3.72287
2.1633
1.05613
0.369883
0.0844703
0.0299367
0.0183449
0.0895178
0.220815
5.20209
3.989
2.39886
1.15988
0.386448
0.0678782
0.0106537
0.0487772
0.138409
0.277304
4.94446
3.94253
2.45586
1.17372
0.361182
0.0522006
0.0263294
0.107024
0.200154
0.342124
5.33049
3.34779
2.13986
0.998408
0.358704
0.138258
0.11728
0.175037
0.275639
0.413835
4.90481
3.04576
2.24813
1.20538
0.59061
0.293886
0.202341
0.245154
0.340108
0.46939
4.54673
3.63208
2.68168
1.64079
0.892473
0.495452
0.337712
0.333102
0.407439
0.515979
5.11421
4.74774
3.34278
2.16431
1.23797
0.729656
0.495197
0.435587
0.476505
0.553634
6.25445
5.66953
4.0571
2.67385
1.5985
0.981524
0.672617
0.552272
0.550087
0.585517
7.26269
6.37371
4.71366
3.15459
1.95727
1.24049
0.858303
0.677185
0.626621
0.613297
8.00011
6.91203
5.25982
3.58899
2.30005
1.50069
1.04933
0.807935
0.706614
0.639653
8.51876
7.33072
5.69732
3.97008
2.62042
1.75384
1.23624
0.935525
0.783613
0.662888
8.931
7.69118
6.04974
4.28307
2.9252
2.02427
1.44741
1.08388
0.878784
0.695544
6.51282
6.43966
6.43043
6.44874
6.48734
6.52992
6.58197
6.71051
6.89518
6.82622
0.260663
1.0571
2.00768
2.92272
3.70364
4.31625
4.73298
4.98249
5.22155
5.72771
3.8508
3.54391
3.28468
3.11144
3.1065
3.25011
3.47232
3.71345
4.16497
4.8448
6.64417
6.62722
6.53713
6.3447
6.0433
5.65789
5.24965
4.89612
4.73952
4.54944
7.69184
7.67654
7.63212
7.54129
7.39613
7.18986
6.92709
6.61953
6.28601
5.65645
8.44951
8.43312
8.39435
8.32771
8.22957
8.09672
7.92837
7.71684
7.42792
6.90784
8.93967
8.92394
8.89028
8.83679
8.76166
8.6629
8.53816
8.37892
8.15467
7.80862
9.27298
9.25981
9.23246
9.18985
9.13052
9.05245
8.95269
8.82481
8.65281
8.43091
9.50446
9.49417
9.47307
9.44024
9.39426
9.33319
9.25424
9.15286
9.02288
8.87534
9.6899
9.68285
9.66852
9.64604
9.61405
9.5707
9.51361
9.43975
9.34638
9.2441
7.24806
7.52619
7.83693
8.08766
8.3448
8.59962
8.84138
9.06158
9.25458
9.46025
7.58311
7.94805
8.24096
8.48112
8.70934
8.92481
9.1223
9.299
9.45391
9.61805
7.4985
7.95737
8.32595
8.6205
8.87575
9.09773
9.28805
9.44952
9.58535
9.72225
7.44689
7.95761
8.37376
8.702
8.97658
9.20596
9.39471
9.54806
9.67131
9.78824
7.45633
7.98066
8.4186
8.76489
9.05054
9.28356
9.46977
9.61591
9.72868
9.83022
7.48241
8.01168
8.46402
8.82147
9.11234
9.34475
9.52606
9.66446
9.76796
9.85764
7.50364
8.03786
8.50277
8.86862
9.16197
9.39189
9.56763
9.6989
9.79479
9.8757
7.51114
8.05246
8.52871
8.90209
9.19746
9.42521
9.5964
9.72212
9.81243
9.88729
7.49836
8.05045
8.53742
8.91898
9.21768
9.44503
9.61371
9.73606
9.82289
9.89404
7.48288
8.04358
8.53592
8.92344
9.22525
9.4533
9.62123
9.74216
9.82746
9.89693
2.55853
2.51502
2.53287
2.74442
2.9299
2.5572
1.70092
1.18276
1.52367
4.19884
2.96542
2.87713
2.71736
2.71507
3.10472
3.43273
2.82404
1.90855
2.12646
5.13684
3.45287
3.40942
3.25157
3.06507
3.26508
3.824
3.80425
3.16263
3.2903
5.45651
3.94405
3.93327
3.90689
3.7977
3.89051
4.31798
4.58954
4.46842
4.66157
5.91376
4.49697
4.46951
4.5449
4.61656
4.78045
5.11401
5.4384
5.61923
5.89687
6.6316
5.10058
5.05806
5.19771
5.39614
5.65703
5.98048
6.30868
6.59548
6.90094
7.40665
5.65317
5.61694
5.81783
6.09043
6.40772
6.74088
7.06855
7.37815
7.67875
8.08655
6.06639
6.05185
6.31496
6.64225
6.99496
7.33979
7.66729
7.97419
8.25896
8.61106
6.26013
6.27909
6.63092
7.02587
7.42011
7.78441
8.11672
8.41669
8.68283
8.98797
6.59997
6.56983
6.95598
7.37947
7.78133
8.14311
8.46653
8.75044
8.99301
9.25186
0.112507
0.155313
0.122238
0.0629912
0.0155355
0.393347
0.930352
1.48363
1.95078
2.43296
0.0790006
0.1407
0.117975
0.0650287
0.015223
0.385373
0.934435
1.54666
2.02988
2.69912
0.0572226
0.132316
0.116149
0.0682504
0.0239824
0.385411
0.94083
1.59681
2.10061
3.00945
0.0441207
0.130028
0.117962
0.0756981
0.0420492
0.393302
0.947269
1.63413
2.20421
3.39607
0.0376189
0.132889
0.122014
0.0853654
0.065168
0.403134
0.950877
1.6699
2.38217
3.86625
0.0367548
0.139952
0.126647
0.0945594
0.0890644
0.411369
0.955497
1.72737
2.64869
4.36341
0.0417266
0.151315
0.130585
0.101109
0.10899
0.415479
0.966236
1.82302
2.98056
4.79416
0.0532253
0.167564
0.133469
0.105171
0.124482
0.424353
1.00712
1.98199
3.3473
5.0788
0.0730761
0.188524
0.135406
0.102953
0.127672
0.424438
1.04402
2.13317
3.62574
5.08194
0.10395
0.211037
0.137957
0.104059
0.142983
0.471267
1.18049
2.39136
3.87555
4.89055
0.160768
0.239414
0.143504
0.101177
0.131646
0.47382
1.24497
2.50428
3.88482
4.67297
0.263926
0.27065
0.133227
0.0761863
0.0699096
0.383403
1.11879
2.30255
3.42971
5.19215
0.428816
0.269679
0.100305
0.01449
0.0149927
0.343488
1.1485
2.35065
3.25597
4.93797
0.682063
0.254256
0.0227116
0.0809444
0.102004
0.537869
1.43154
2.62414
3.71507
4.69823
1.06552
0.0475876
0.26299
0.236529
0.315705
0.890691
1.93366
3.20636
4.707
5.17748
1.51469
0.122222
0.537749
0.417211
0.597395
1.30804
2.47408
3.91715
5.59873
6.22334
2.19501
0.683569
0.855311
0.690079
0.943356
1.73846
2.99234
4.59353
6.30246
7.21636
3.7922
1.7063
1.27432
1.03766
1.3192
2.15054
3.46138
5.16517
6.8541
7.96877
6.86014
3.57573
1.96313
1.42223
1.68039
2.52431
3.87357
5.63122
7.29515
8.50724
9.04906
6.38369
2.84298
2.00246
2.11675
2.89711
4.22403
6.01914
7.68651
8.93809
6.62453
6.68756
6.51084
6.38907
6.34871
6.32253
6.30555
6.31733
6.36195
6.47625
5.52822
5.00938
4.76562
4.52457
4.12644
3.54051
2.79861
1.93211
1.04468
0.284229
4.84973
4.23677
3.8273
3.61677
3.42999
3.31052
3.31541
3.45768
3.6554
3.87434
4.71236
4.88585
5.02836
5.33789
5.70209
6.05236
6.33393
6.5214
6.61654
6.64159
5.68787
6.28589
6.61233
6.91135
7.17237
7.38147
7.5318
7.62814
7.6767
7.6924
6.86588
7.38861
7.68443
7.90232
8.07659
8.21484
8.3178
8.38856
8.43055
8.44889
7.76511
8.12049
8.35197
8.51791
8.64796
8.75099
8.82956
8.88582
8.92164
8.93899
8.40454
8.63268
8.80887
8.94093
9.04401
9.12465
9.18596
9.23006
9.25854
9.2726
8.86615
9.01619
9.14761
9.25059
9.33082
9.39283
9.43944
9.47267
9.494
9.50442
9.24868
9.35045
9.44301
9.5163
9.57294
9.61588
9.64748
9.66956
9.68348
9.69012
9.50946
8.98534
8.23589
6.92826
5.59797
0.131167
3.36084
5.96039
7.21409
8.15187
9.46542
8.92156
8.16813
6.89058
5.54939
0.56377
2.62222
5.70601
6.91643
7.91396
9.36568
8.78282
8.02028
6.80961
5.36636
1.60349
1.41357
5.20663
6.30935
7.40331
9.18255
8.54513
7.7745
6.65512
5.18645
2.74004
0.723098
4.23839
5.42157
6.57148
8.86812
8.17359
7.40402
6.37695
5.02653
3.36803
0.970958
2.63163
4.31695
5.39381
8.35053
7.62972
6.87342
5.91729
4.76512
3.44004
1.71925
1.30194
3.0493
3.98815
7.53604
6.8966
6.15555
5.22757
4.29966
3.26955
2.1431
1.17252
1.65628
2.55745
6.32538
6.03757
5.28134
4.2319
3.53346
2.91261
2.11845
1.4352
1.06857
1.23541
4.63171
5.23226
4.47436
2.9996
2.43711
2.27448
1.85602
1.38485
1.12269
0.659157
2.6728
4.53956
4.02165
1.96672
1.39678
1.48835
1.40993
1.21173
1.06404
0.845198
1.27675
3.78897
3.66664
1.33723
0.816177
0.897633
0.971074
0.956265
0.971724
1.01983
0.613485
2.96979
3.08218
0.956519
0.575301
0.639935
0.759378
0.81996
0.843966
0.876952
0.355371
2.18957
2.28538
0.688166
0.492564
0.595243
0.726325
0.8107
0.848501
0.873271
0.265315
1.55069
1.48914
0.521483
0.534463
0.674082
0.787598
0.858636
0.882063
0.892316
0.239652
1.01894
0.845466
0.514154
0.669547
0.803169
0.904389
0.9679
0.983618
0.980521
0.24288
0.493171
0.499916
0.636356
0.81741
0.954906
1.05268
1.11037
1.1209
1.11273
0.177113
0.204034
0.508136
0.756137
0.974746
1.12054
1.21023
1.25726
1.27406
1.27468
0.0452422
0.25182
0.649323
0.922728
1.13607
1.25347
1.32958
1.39942
1.45598
1.47778
0.0609983
0.492441
0.822284
1.09601
1.22978
1.33859
1.4891
1.6477
1.73488
1.75038
0.696314
0.865217
1.04057
1.18365
1.32335
1.59719
1.91004
2.07968
2.08141
2.04837
0.363043
0.0804745
0.22378
0.550535
0.794347
0.891051
0.886152
0.836683
0.78588
0.753612
0.462065
0.202259
0.319083
0.521281
0.723657
0.810366
0.80769
0.765672
0.721848
0.703998
0.525701
0.372139
0.439938
0.51353
0.65324
0.730408
0.730959
0.695494
0.658011
0.653812
0.638807
0.587763
0.595368
0.555384
0.587189
0.643387
0.649184
0.622888
0.59341
0.603124
0.805881
0.803374
0.741869
0.637958
0.542007
0.556317
0.565524
0.549409
0.528599
0.551948
1.00942
0.999308
0.875191
0.73742
0.530923
0.474844
0.480484
0.475009
0.463655
0.500257
1.22751
1.17091
0.990145
0.825577
0.552865
0.409059
0.39689
0.400469
0.398901
0.447962
1.45227
1.32513
1.089
0.888239
0.589644
0.368598
0.31904
0.326815
0.334656
0.394901
1.68485
1.46868
1.17548
0.923565
0.619509
0.354346
0.253533
0.255799
0.271406
0.340922
1.92626
1.60372
1.25506
0.9371
0.630054
0.353683
0.207899
0.190499
0.209835
0.28571
2.00914
0.747473
0.717578
0.965228
1.19746
1.28371
1.25765
1.17909
1.108
1.01165
1.39445
0.482959
0.579091
0.874571
1.10936
1.19753
1.17644
1.10456
1.0365
0.953012
0.751617
0.287988
0.481228
0.797621
1.03509
1.12551
1.10876
1.0422
0.977747
0.905535
0.253398
0.170336
0.405638
0.725911
0.960042
1.04926
1.0353
0.974077
0.913789
0.854402
0.435848
0.0327082
0.267302
0.613044
0.864097
0.965037
0.959665
0.905554
0.849996
0.803767
9.35465
9.29006
9.141
8.87311
8.43756
7.7789
6.87136
5.75932
4.582
3.53711
9.19248
9.09566
8.88111
8.51167
7.94152
7.13648
6.10966
4.95511
3.84478
2.78683
9.02389
8.90027
8.62662
8.16105
7.46177
6.51617
5.37145
4.16866
3.08129
1.94239
8.81633
8.66221
8.32151
7.74793
6.90618
5.81426
4.55499
3.29482
2.22585
1.08999
8.5875
8.3794
7.92584
7.17746
6.11253
4.7921
3.35065
2.08514
0.993928
0.302015
1.06025
1.02445
1.01626
1.01979
0.915185
0.799657
1.2934
3.68334
3.85976
1.32296
0.9492
0.933763
0.926166
0.870728
0.718808
0.588511
0.910806
3.14189
3.10993
0.647381
0.98596
0.982427
0.965551
0.892763
0.747313
0.58434
0.698212
2.37261
2.34673
0.377414
1.05336
1.06526
1.06109
1.00127
0.889805
0.740543
0.655527
1.55755
1.63472
0.27725
1.18598
1.21013
1.21582
1.16811
1.07695
0.951795
0.789132
0.910091
0.919704
0.246145
1.35112
1.37105
1.37933
1.35422
1.28436
1.15109
0.92972
0.669952
0.358306
0.216767
1.55551
1.55145
1.51906
1.47669
1.42585
1.31952
1.07942
0.754106
0.272494
0.0664128
1.82349
1.81707
1.7345
1.58155
1.44158
1.34494
1.21007
0.901605
0.494328
0.0467822
2.10377
2.15102
2.14942
1.95554
1.61199
1.32263
1.18689
1.05672
0.856352
0.675767
2.31214
2.35896
2.48349
2.5356
2.23334
1.63206
1.18226
1.06645
1.30423
2.04144
8.15167
7.21373
5.96002
3.36033
0.131423
5.5965
6.92776
8.23569
8.98535
9.50956
7.91328
6.91532
5.70501
2.62162
0.563639
5.54554
6.88913
8.16754
8.92161
9.46572
7.40185
6.30746
5.20484
1.41546
1.59976
5.36187
6.80735
8.0194
8.78295
9.36627
6.56884
5.41868
4.23622
0.72627
2.73173
5.18172
6.65227
7.77352
8.54546
9.18358
5.38943
4.31247
2.63264
0.971032
3.35669
5.02057
6.37349
7.40308
8.17433
8.86987
3.97981
3.04146
1.31017
1.71323
3.42678
4.75623
5.91249
6.87254
7.63121
8.3535
2.54106
1.65346
1.18718
2.13289
3.25089
4.283
5.21884
6.15465
6.89951
7.54137
1.21756
1.08764
1.45174
2.10726
2.88048
3.50307
4.2175
5.28209
6.04356
6.33607
0.671603
1.15291
1.40709
1.84235
2.23203
2.40025
2.98385
4.47939
5.24356
4.65556
0.884858
1.10242
1.2471
1.41267
1.46379
1.36898
1.94329
4.02651
4.56515
2.7166
2.08999
0.543274
1.06113
0.629386
0.6612
0.758584
0.632591
0.300247
0.0620233
0.356503
1.6302
0.236775
0.869962
0.479151
0.567185
0.681371
0.59366
0.356828
0.265892
0.488497
1.33422
0.0583019
0.641821
0.340841
0.478568
0.602074
0.562441
0.459546
0.47324
0.591067
1.09801
0.0147131
0.393833
0.232296
0.393828
0.518504
0.562648
0.626058
0.732681
0.758307
0.847989
0.0892898
0.189628
0.158839
0.316051
0.44202
0.608995
0.805092
0.974782
0.977448
0.635803
0.154053
0.0532046
0.101775
0.244205
0.38627
0.694525
0.974982
1.19396
1.22468
0.463583
0.209393
0.0492496
0.0535224
0.180565
0.365017
0.788204
1.11867
1.386
1.48072
0.331278
0.210449
0.10737
0.010775
0.122413
0.373667
0.861921
1.23533
1.55758
1.73549
0.232817
0.196162
0.121805
0.0354249
0.0643775
0.390569
0.905264
1.33032
1.71126
1.97651
0.161996
0.174703
0.126973
0.0566376
0.0287389
0.398263
0.924179
1.41145
1.84432
2.19999
9.33657
6.77032
2.66505
1.69958
1.20206
1.1208
0.964979
0.781809
0.796463
2.03315
8.21092
4.63643
2.2151
1.4176
1.06946
1.03588
0.891339
0.651129
0.528017
1.39865
6.12015
3.06393
1.78539
1.21027
0.964537
0.971512
0.832313
0.561346
0.328847
0.741035
4.13316
1.87587
1.49749
1.00377
0.858492
0.904291
0.775921
0.487768
0.228722
0.225111
2.83556
1.06123
1.24633
0.803147
0.755374
0.82666
0.686116
0.356412
0.0444321
0.398111
3.54771
4.58915
5.76323
6.87354
7.78045
8.4387
8.87388
9.14148
9.29032
9.35474
2.78093
3.84105
4.95236
6.10789
7.13587
7.94153
8.51188
8.88134
9.09582
9.19254
1.92842
3.0719
4.16218
5.36669
6.51362
7.46063
8.16063
8.62654
8.9003
9.02391
1.0556
2.20311
3.28161
4.54676
5.81004
6.90396
7.74681
8.32104
8.66206
8.8163
0.300508
0.96267
2.06395
3.33749
4.78514
6.10894
7.17548
7.92489
8.37902
8.58741
)
;

boundaryField
{
    left
    {
        type            calculated;
        value           nonuniform List<scalar> 
35
(
0.298053
0.567004
0.98731
1.62615
2.52446
3.69553
5.06613
6.4761
8.15851
9.4418
0.212753
0.132776
0.0804744
0.0488433
0.0324352
0.0272982
0.0326159
0.0519708
0.0919731
0.159901
4.93339
4.0616
3.23478
2.51295
1.91713
1.42718
1.03079
0.724536
0.495946
0.329851
9.61573
8.97907
7.92205
6.84778
5.85939
)
;
    }
    right
    {
        type            calculated;
        value           nonuniform List<scalar> 
35
(
1.01119
0.952811
0.905718
0.855495
0.806071
0.757516
0.709591
0.660958
0.611708
0.561838
0.511234
0.459667
0.406791
0.352238
0.29546
0.236485
0.174014
0.111482
0.0466519
0.0193165
0.033615
0.09392
0.171502
0.243672
0.303972
0.371452
0.443497
0.497674
0.541022
0.57379
0.599819
0.621748
0.643329
0.663635
0.693547
)
;
    }
    down
    {
        type            calculated;
        value           nonuniform List<scalar> 
40
(
9.45431
7.26633
2.89597
1.78875
1.24279
1.1492
0.990484
0.82336
0.897555
2.26037
3.83288
4.88244
6.03395
7.09287
7.94461
8.55502
8.95447
9.19925
9.33564
9.39487
9.39478
9.33536
9.19873
8.9536
8.55368
7.94266
7.08994
6.02876
4.87319
3.81889
2.23226
0.84757
0.761461
0.997167
1.22918
1.31331
1.28458
1.20315
1.13104
1.03059
)
;
    }
    up
    {
        type            calculated;
        value           nonuniform List<scalar> 
40
(
9.0341
7.80882
6.1676
4.39484
3.03341
2.11913
1.52001
1.13298
0.910393
0.707435
9.72927
9.72305
9.71045
9.69064
9.66234
9.62377
9.57263
9.50586
9.42076
9.32814
9.33505
9.42656
9.51039
9.57623
9.62665
9.66461
9.69238
9.71169
9.72379
9.72952
9.27074
7.09622
3.239
2.15422
2.23603
3.01667
4.34621
6.14879
7.81368
9.04496
)
;
    }
    cylinder
    {
        type            calculated;
        value           nonuniform List<scalar> 
80
(
1.99955
4.56873
5.53691
5.77832
6.30452
7.09045
7.86178
8.47477
8.91246
9.21291
9.44581
9.61871
9.72981
9.7983
9.84096
9.86846
9.8865
9.89817
9.90522
9.90869
9.5004
9.65061
9.74902
9.81046
9.849
9.87389
9.89016
9.90054
9.90657
9.90913
5.32587
6.23355
6.21116
6.31557
6.83434
7.52656
8.17617
8.68599
9.05066
9.3025
0.994334
0.471581
0.264214
0.183224
0.159577
0.165587
0.0828527
0.042268
0.750021
2.43044
9.59445
9.55588
9.46744
9.30187
9.00979
8.51137
7.68626
6.36658
4.38727
2.23884
9.59435
9.55556
9.46683
9.30079
9.00792
8.50819
7.68052
6.3545
4.35816
2.19132
0.952803
0.442267
0.244337
0.170836
0.150277
0.165478
0.161004
0.0839927
0.0433586
0.73625
)
;
    }
    defaultFaces
    {
        type            empty;
    }
}


// ************************************************************************* //
