/*--------------------------------*- C++ -*----------------------------------*\
  =========                 |
  \\      /  F ield         | OpenFOAM: The Open Source CFD Toolbox
   \\    /   O peration     | Website:  https://openfoam.org
    \\  /    A nd           | Version:  13
     \\/     M anipulation  |
\*---------------------------------------------------------------------------*/
FoamFile
{
    format      ascii;
    class       volVectorField;
    location    "0.775";
    object      U;
}
// * * * * * * * * * * * * * * * * * * * * * * * * * * * * * * * * * * * * * //

dimensions      [0 1 -1 0 0 0 0];

internalField   nonuniform List<vector> 
1800
(
(0.0978006 -0.0883284 -4.48872e-20)
(0.286895 -0.241951 -3.41144e-20)
(0.473973 -0.379045 -4.85013e-19)
(0.657692 -0.500159 1.91467e-19)
(0.836612 -0.607172 7.43943e-20)
(1.00992 -0.701379 -3.90522e-20)
(1.17716 -0.783473 5.54978e-20)
(1.33794 -0.853686 1.97451e-19)
(1.4916 -0.91297 5.9228e-19)
(1.63353 -0.96691 8.1007e-19)
(0.11906 -0.0915025 -7.91108e-20)
(0.344291 -0.247709 -7.7061e-19)
(0.563282 -0.384749 3.78144e-21)
(0.775364 -0.504236 1.25743e-19)
(0.979506 -0.608923 -1.26253e-19)
(1.17522 -0.700697 7.65706e-20)
(1.36231 -0.78079 -2.80766e-19)
(1.54078 -0.850102 -5.02916e-20)
(1.71011 -0.910709 -6.93548e-19)
(1.86786 -0.96705 6.29796e-19)
(0.14165 -0.0923228 4.88225e-20)
(0.403679 -0.247731 2.09287e-19)
(0.653755 -0.382117 5.43308e-19)
(0.892178 -0.497905 -1.90256e-19)
(1.11866 -0.598385 -1.4299e-19)
(1.33321 -0.685813 7.56049e-20)
(1.53605 -0.761707 9.82409e-20)
(1.72743 -0.827299 1.94056e-19)
(1.90721 -0.884804 2.73643e-21)
(2.07422 -0.937873 1.5098e-19)
(0.163906 -0.0897207 -4.57189e-20)
(0.461698 -0.23947 -2.0439e-19)
(0.741427 -0.367618 -1.81258e-19)
(1.00451 -0.476977 -1.42293e-19)
(1.25162 -0.571022 1.81303e-19)
(1.48351 -0.652128 -5.70885e-20)
(1.70093 -0.721907 -4.31011e-21)
(1.90453 -0.781623 2.91173e-21)
(2.09455 -0.833367 -1.60477e-19)
(2.27025 -0.880358 -1.05929e-19)
(0.184657 -0.0833564 -1.14035e-19)
(0.515893 -0.221807 8.76383e-20)
(0.823292 -0.33943 1.79836e-19)
(1.10931 -0.439063 2.43299e-19)
(1.37561 -0.524071 -2.85012e-19)
(1.62371 -0.596778 -3.5807e-21)
(1.85494 -0.658767 4.24957e-19)
(2.07043 -0.711263 -1.85055e-19)
(2.27083 -0.756165 -1.23985e-19)
(2.45578 -0.796398 -5.35478e-20)
(0.20319 -0.0735 1.73588e-19)
(0.56447 -0.1952 1.02983e-18)
(0.89679 -0.298074 1.43257e-19)
(1.20351 -0.384735 -5.0313e-19)
(1.48719 -0.458227 -1.75497e-19)
(1.75003 -0.520669 6.3767e-19)
(1.9939 -0.573525 -1.45367e-19)
(2.22036 -0.6179 -4.31564e-19)
(2.43047 -0.655445 -3.16666e-19)
(2.6242 -0.688744 2.61586e-19)
(0.218898 -0.0605912 1.16339e-19)
(0.605745 -0.160701 -7.47584e-19)
(0.959312 -0.24503 -1.08559e-18)
(1.2837 -0.315798 3.83779e-19)
(1.58223 -0.375564 4.49932e-19)
(1.85767 -0.426128 -9.02023e-22)
(2.11239 -0.46874 -6.39657e-19)
(2.34829 -0.504326 2.19311e-19)
(2.56683 -0.534214 -3.64507e-19)
(2.76827 -0.560571 -3.11218e-19)
(0.231235 -0.0451722 -3.42482e-19)
(0.638199 -0.119684 -6.92594e-19)
(1.00849 -0.182294 1.21219e-18)
(1.34677 -0.2347 5.98693e-19)
(1.65693 -0.278852 -2.69752e-19)
(1.94224 -0.316136 -2.11492e-19)
(2.20543 -0.347515 0)
(2.44874 -0.373689 1.16799e-19)
(2.67398 -0.395623 -2.95838e-19)
(2.88171 -0.414971 -7.74234e-20)
(0.239766 -0.0278754 -2.04463e-19)
(0.660651 -0.0737557 5.62377e-19)
(1.04249 -0.112198 1.71006e-19)
(1.39031 -0.144289 -5.12486e-19)
(1.7084 -0.171277 -7.84183e-19)
(2.00037 -0.194053 3.66186e-20)
(2.26924 -0.213246 1.67126e-19)
(2.51752 -0.229294 -5.46832e-19)
(2.74731 -0.242784 -2.89765e-19)
(2.95953 -0.254778 -5.63589e-19)
(0.244259 -0.0094024 4.51403e-19)
(0.672452 -0.024704 3.44145e-19)
(1.0603 -0.0373616 -9.38586e-20)
(1.41303 -0.0477885 -1.29782e-20)
(1.73514 -0.0564623 -3.87502e-19)
(2.03041 -0.0637232 -8.57332e-20)
(2.30205 -0.0698102 -2.90574e-19)
(2.55275 -0.0748905 6.46552e-19)
(2.7848 -0.0791714 1.71001e-19)
(2.99945 -0.0830122 2.22116e-21)
(-0.00234273 -0.0217793 -3.47895e-20)
(0.00858894 -0.0693558 -7.00743e-20)
(0.0248723 -0.12056 -7.32809e-21)
(0.0493069 -0.171301 -3.39922e-20)
(0.0776599 -0.216702 -1.27356e-20)
(0.106496 -0.254842 -3.90065e-19)
(0.135518 -0.288771 -1.95321e-20)
(0.166304 -0.322088 1.19946e-19)
(0.199133 -0.355613 1.09465e-20)
(0.233025 -0.387991 -3.57448e-20)
(0.000849951 -0.0246771 -9.77583e-20)
(0.0149377 -0.085064 -2.13104e-19)
(0.0393453 -0.160382 -5.3574e-20)
(0.0692704 -0.225331 -1.1035e-19)
(0.0994799 -0.275622 -9.63153e-20)
(0.130437 -0.318052 -2.79549e-19)
(0.164451 -0.359047 2.0037e-19)
(0.202114 -0.400462 1.68716e-19)
(0.241617 -0.440392 -2.5681e-19)
(0.281126 -0.476783 8.13698e-20)
(0.00549651 -0.0314838 -8.54136e-20)
(0.0287756 -0.107412 -8.67992e-19)
(0.0628625 -0.196139 -1.29887e-19)
(0.0974518 -0.269016 9.2932e-20)
(0.131806 -0.32726 6.77365e-20)
(0.169636 -0.38033 -4.48912e-19)
(0.212931 -0.432367 3.55098e-20)
(0.259126 -0.481874 3.67026e-19)
(0.305473 -0.526345 -3.86594e-19)
(0.351419 -0.565747 -2.58624e-19)
(0.0113686 -0.0409785 -1.77105e-21)
(0.0466248 -0.130875 1.90009e-19)
(0.0896465 -0.225351 1.60769e-21)
(0.133078 -0.307062 -1.07337e-20)
(0.177784 -0.377902 -3.00373e-20)
(0.227237 -0.443895 8.6138e-20)
(0.281092 -0.505673 7.28424e-20)
(0.335663 -0.560952 -1.36058e-19)
(0.389724 -0.60944 9.20917e-21)
(0.443891 -0.652012 -1.04424e-20)
(0.0185092 -0.0507672 0)
(0.0672394 -0.152429 5.4949e-21)
(0.121943 -0.253646 -5.10766e-19)
(0.178697 -0.345493 5.16663e-20)
(0.237808 -0.428597 -9.83369e-21)
(0.300515 -0.505116 5.36731e-21)
(0.36531 -0.574412 -2.52972e-20)
(0.429806 -0.635477 -7.76456e-21)
(0.493943 -0.688888 0)
(0.558136 -0.734903 -2.05827e-20)
(0.0273255 -0.059648 3.18567e-20)
(0.0918957 -0.172856 -1.54433e-19)
(0.161768 -0.282529 -4.60842e-20)
(0.234631 -0.383899 -5.83188e-20)
(0.309738 -0.476766 4.96014e-20)
(0.386739 -0.561553 5.78579e-21)
(0.464244 -0.637725 8.9217e-20)
(0.540939 -0.704974 -2.17569e-20)
(0.61691 -0.76348 -6.96111e-19)
(0.69216 -0.81269 -1.01016e-20)
(0.0379746 -0.0676036 6.79898e-22)
(0.121237 -0.192178 5.56072e-20)
(0.209164 -0.310619 -7.84108e-20)
(0.299928 -0.420181 -1.66904e-20)
(0.392138 -0.520677 -7.29135e-20)
(0.48478 -0.612139 -9.40319e-21)
(0.576704 -0.69434 1.00521e-20)
(0.666944 -0.767164 -2.11472e-19)
(0.755529 -0.830291 3.83436e-19)
(0.842321 -0.882351 9.71439e-19)
(0.0503611 -0.0746004 1.51171e-20)
(0.155129 -0.20961 -1.42247e-19)
(0.263462 -0.335965 -2.13715e-19)
(0.373671 -0.452113 8.89909e-20)
(0.484104 -0.558269 -6.43142e-20)
(0.593547 -0.654622 9.86472e-20)
(0.700947 -0.741284 1.96686e-19)
(0.805412 -0.818311 -1.09023e-19)
(0.907025 -0.885129 -3.05903e-19)
(1.0057 -0.939548 7.25282e-19)
(0.0642897 -0.0803593 -2.65036e-20)
(0.193286 -0.224026 -5.78119e-19)
(0.324297 -0.356559 5.24297e-19)
(0.455684 -0.477231 3.37479e-19)
(0.58574 -0.586747 -8.59143e-20)
(0.713226 -0.685663 3.08634e-19)
(0.837132 -0.774438 -1.5995e-19)
(0.956568 -0.853465 -7.72753e-19)
(1.07173 -0.922046 -4.03681e-19)
(1.18268 -0.977295 4.5363e-19)
(0.0795448 -0.0846657 -7.98191e-20)
(0.235845 -0.234417 -5.44366e-19)
(0.392392 -0.370524 -8.30304e-21)
(0.547542 -0.492795 6.88503e-20)
(0.699595 -0.602464 3.37746e-19)
(0.847393 -0.700435 -1.85386e-19)
(0.990015 -0.787444 -1.69454e-19)
(1.12653 -0.863832 1.88979e-19)
(1.25681 -0.928656 -3.51618e-19)
(1.38007 -0.980365 -5.84552e-19)
(0.402926 -0.532115 9.83019e-19)
(0.684852 -0.61865 -2.4094e-19)
(0.913761 -0.558032 -1.42156e-19)
(1.08773 -0.431611 2.67927e-19)
(1.24036 -0.280544 -2.30089e-19)
(1.36297 -0.139872 -2.99613e-19)
(1.46136 -0.0345879 -2.66561e-19)
(1.51971 0.0197501 -3.19125e-20)
(1.54131 0.0333024 -1.59843e-20)
(1.55806 0.0247022 2.99557e-20)
(0.468863 -0.619977 9.6452e-19)
(0.741476 -0.694082 7.10346e-20)
(0.966273 -0.618091 1.0971e-20)
(1.12485 -0.480882 -2.14998e-19)
(1.26573 -0.32096 -7.1262e-19)
(1.38135 -0.172659 0)
(1.48112 -0.0595998 -2.4825e-19)
(1.55694 0.00536124 5.19105e-20)
(1.59542 0.0267221 4.53844e-21)
(1.62574 0.0209025 1.37239e-20)
(0.556198 -0.705624 -9.98143e-19)
(0.810763 -0.767049 -7.10597e-20)
(1.0255 -0.676 1.56187e-19)
(1.16616 -0.527976 -5.39843e-20)
(1.29127 -0.360159 -3.64993e-20)
(1.39739 -0.205326 6.42092e-20)
(1.49287 -0.0864856 0)
(1.57699 -0.0140116 0)
(1.63336 0.0145001 -9.28078e-21)
(1.68458 0.0145815 0)
(0.665688 -0.787358 -2.25016e-19)
(0.895579 -0.835604 4.0481e-19)
(1.09191 -0.730696 2.68268e-20)
(1.2124 -0.571902 0)
(1.31791 -0.397243 6.04195e-19)
(1.41214 -0.23683 -1.41592e-19)
(1.5003 -0.113719 0)
(1.58556 -0.0351746 1.34548e-19)
(1.64519 -0.00382324 0)
(1.73118 0.00357869 -2.96908e-20)
(0.795733 -0.864029 -1.48852e-19)
(0.997607 -0.897763 4.55527e-19)
(1.16614 -0.781024 -1.46511e-20)
(1.26373 -0.611833 0)
(1.34637 -0.431388 1.79258e-19)
(1.42605 -0.266424 2.66909e-19)
(1.50538 -0.140112 4.73193e-20)
(1.58787 -0.0564955 6.62645e-21)
(1.64274 -0.0233592 -2.2232e-20)
(1.75119 -0.0129154 3.44603e-20)
(0.942247 -0.934883 -1.3326e-18)
(1.11646 -0.952176 -9.43159e-19)
(1.2488 -0.825719 4.75529e-21)
(1.31993 -0.64705 5.76094e-19)
(1.37701 -0.461809 -3.05818e-19)
(1.43923 -0.29355 1.46249e-19)
(1.50883 -0.164882 2.30128e-19)
(1.58527 -0.0769853 -1.87454e-19)
(1.63848 -0.0429125 -1.93139e-21)
(1.74014 -0.0303275 7.9273e-21)
(1.10011 -0.999545 -2.60867e-19)
(1.24999 -0.998656 2.86904e-19)
(1.34012 -0.863667 3.91955e-21)
(1.3807 -0.676869 -1.76408e-20)
(1.40994 -0.48774 -5.91853e-19)
(1.45166 -0.317659 5.39499e-20)
(1.51043 -0.187494 -9.41005e-20)
(1.57866 -0.0963359 -2.65393e-20)
(1.63539 -0.060168 1.77642e-21)
(1.69985 -0.0431098 -2.33293e-20)
(1.26433 -1.05691 -1.20051e-18)
(1.39473 -1.03781 2.10158e-19)
(1.4391 -0.894279 0)
(1.44504 -0.700866 3.45023e-20)
(1.44449 -0.508675 5.21593e-19)
(1.46303 -0.338274 -1.67936e-21)
(1.50908 -0.207964 -3.1664e-19)
(1.57046 -0.113146 6.7725e-20)
(1.61746 -0.0752936 -1.36585e-21)
(1.64231 -0.0492213 -4.22446e-20)
(1.43201 -1.10355 3.39094e-18)
(1.54804 -1.07055 2.45848e-19)
(1.54556 -0.918261 4.64688e-19)
(1.51322 -0.719463 -3.18042e-20)
(1.48072 -0.524783 -3.44412e-20)
(1.47319 -0.355342 -4.28679e-19)
(1.50265 -0.225709 9.48785e-20)
(1.55692 -0.12916 3.0779e-21)
(1.56506 -0.0806604 -2.44406e-20)
(1.57471 -0.0512372 5.13052e-20)
(1.59925 -1.12823 -2.99807e-18)
(1.70186 -1.09573 1.27203e-18)
(1.65391 -0.938259 -2.33278e-19)
(1.58136 -0.736148 -7.89225e-19)
(1.51561 -0.539629 -6.54789e-19)
(1.47944 -0.372666 -2.52875e-19)
(1.49122 -0.243547 -7.02716e-20)
(1.50653 -0.139642 0)
(1.50096 -0.0817788 -6.72609e-20)
(1.5004 -0.0518061 1.39215e-19)
(1.8882 -1.17027 -6.71085e-18)
(1.9274 -1.10527 -1.69161e-18)
(1.80482 -0.932448 -5.82133e-20)
(1.67304 -0.72795 1.11783e-19)
(1.56212 -0.534756 1.59113e-19)
(1.48707 -0.373882 -1.00942e-19)
(1.44463 -0.245337 -4.04706e-20)
(1.4213 -0.139176 7.3798e-20)
(1.40926 -0.0801602 -6.15157e-20)
(1.39966 -0.0511902 -6.38547e-20)
(2.28934 -1.13491 4.95882e-19)
(2.17884 -1.0568 -2.90602e-19)
(1.94267 -0.865474 4.92212e-19)
(1.7355 -0.665017 -8.40116e-20)
(1.56167 -0.481284 -4.03934e-21)
(1.42555 -0.334255 -7.26291e-20)
(1.33984 -0.220654 9.4282e-20)
(1.30339 -0.128081 -3.31143e-20)
(1.2849 -0.0746908 2.12521e-19)
(1.2682 -0.0482663 9.5898e-20)
(2.61059 -1.04363 2.27079e-18)
(2.35191 -0.948827 3.25749e-19)
(2.00813 -0.759565 -1.17675e-19)
(1.73225 -0.573086 1.65694e-36)
(1.5048 -0.41108 -2.5571e-20)
(1.33831 -0.287188 1.50246e-33)
(1.23252 -0.192193 -2.06244e-20)
(1.1783 -0.114846 -1.68516e-33)
(1.1533 -0.0674707 6.89819e-21)
(1.13052 -0.0438353 -1.28958e-20)
(2.78701 -0.893992 3.88603e-33)
(2.36937 -0.795665 2.96661e-18)
(1.97347 -0.630547 1.8173e-18)
(1.65324 -0.469496 0)
(1.40613 -0.335118 8.31121e-19)
(1.22912 -0.23397 4.2733e-19)
(1.11266 -0.157752 1.71083e-19)
(1.0469 -0.0973296 -2.97201e-33)
(1.01561 -0.0581888 -5.66332e-20)
(0.987962 -0.0380842 7.6512e-21)
(2.76363 -0.705908 3.84255e-18)
(2.24585 -0.629905 -1.46803e-19)
(1.84645 -0.491054 0)
(1.5154 -0.361747 0)
(1.27104 -0.255804 0)
(1.09689 -0.178628 0)
(0.98003 -0.121778 -1.27998e-20)
(0.909155 -0.0773398 -4.25853e-33)
(0.873238 -0.0472025 7.79382e-21)
(0.84198 -0.0313193 6.24808e-34)
(2.55116 -0.517044 3.26557e-18)
(2.02003 -0.462924 0)
(1.63851 -0.353658 0)
(1.32668 -0.256756 0)
(1.10081 -0.179747 0)
(0.941444 -0.125657 0)
(0.832985 -0.0865886 3.30529e-20)
(0.763846 -0.056491 -9.41548e-20)
(0.726324 -0.0351744 8.69161e-21)
(0.69342 -0.0239062 2.96655e-20)
(2.19011 -0.342714 0)
(1.70261 -0.303516 1.0981e-18)
(1.36126 -0.227613 1.09021e-18)
(1.09127 -0.161993 0)
(0.898324 -0.112355 6.66352e-19)
(0.76384 -0.0787696 4.03542e-19)
(0.671304 -0.054919 2.5104e-19)
(0.609965 -0.0367736 8.52161e-20)
(0.574603 -0.0232106 -3.33572e-20)
(0.542768 -0.0164052 -3.25095e-21)
(1.70285 -0.191138 -6.73871e-19)
(1.30018 -0.165596 -2.7417e-19)
(1.02503 -0.121758 1.75649e-19)
(0.815063 -0.084436 -2.11221e-34)
(0.667668 -0.0580858 -7.70959e-20)
(0.56608 -0.0410733 3.70596e-33)
(0.495423 -0.0290788 4.87712e-20)
(0.447026 -0.0200527 9.8913e-20)
(0.417684 -0.0126738 1.0045e-20)
(0.390253 -0.00952815 -1.7843e-21)
(1.10088 -0.0758219 3.40804e-18)
(0.823156 -0.0626791 -1.86575e-19)
(0.640574 -0.0442941 -5.88944e-19)
(0.506137 -0.0289868 0)
(0.413807 -0.0195679 -6.40114e-19)
(0.35061 -0.0141378 -4.32371e-19)
(0.306051 -0.0103474 -2.04424e-19)
(0.274647 -0.00756349 -1.4391e-19)
(0.25484 -0.00479645 1.77887e-19)
(0.235663 -0.00399959 -3.13147e-20)
(0.397351 -0.00331883 0)
(0.287865 0.00159434 0)
(0.220889 0.0040944 0)
(0.173549 0.00624808 0)
(0.142371 0.00585834 0)
(0.12118 0.00471781 0)
(0.105832 0.0036936 5.59638e-20)
(0.0945726 0.0026039 -2.17703e-34)
(0.0871203 0.00224332 1.25828e-20)
(0.079526 0.000972643 1.12807e-20)
(3.3671 -0.0863122 5.39216e-19)
(3.32642 -0.265087 -8.41876e-20)
(3.24735 -0.430658 8.5208e-19)
(3.13238 -0.582161 -6.04763e-19)
(2.98634 -0.718128 6.66387e-19)
(2.81524 -0.836387 2.75223e-19)
(2.6266 -0.934065 -1.92752e-18)
(2.42951 -1.00786 -7.74591e-20)
(2.22468 -1.05369 0)
(1.98486 -1.06657 4.26074e-19)
(3.86191 -0.0750605 7.07365e-18)
(3.79859 -0.234216 1.95629e-18)
(3.70428 -0.387314 -4.86729e-18)
(3.58426 -0.531996 -4.49134e-19)
(3.44239 -0.6659 3.5589e-18)
(3.28186 -0.787328 1.92351e-18)
(3.1065 -0.895078 -5.16871e-18)
(2.92205 -0.987715 -1.95218e-18)
(2.7276 -1.0634 2.20315e-18)
(2.49237 -1.12054 8.52194e-19)
(3.83307 -0.0533018 -1.26259e-19)
(3.82024 -0.171568 4.40355e-18)
(3.78546 -0.299764 -1.08816e-18)
(3.72434 -0.430923 -3.44616e-18)
(3.63617 -0.558735 -6.79987e-18)
(3.52371 -0.678808 1.02786e-17)
(3.39117 -0.7888 4.18056e-18)
(3.2435 -0.887994 -3.91179e-18)
(3.08161 -0.978729 -2.90275e-18)
(2.88723 -1.06302 -3.42504e-18)
(3.62866 -0.0472867 -4.83934e-18)
(3.61961 -0.144933 -4.35338e-18)
(3.59963 -0.243742 5.47206e-18)
(3.56735 -0.343097 1.91184e-18)
(3.5224 -0.442382 -8.97113e-18)
(3.46416 -0.540813 4.92137e-19)
(3.39182 -0.637052 3.88633e-18)
(3.30511 -0.730438 -1.05391e-18)
(3.20498 -0.823073 1.27678e-18)
(3.08305 -0.914783 2.81776e-19)
(3.34405 -0.036579 -9.15978e-19)
(3.339 -0.111657 3.00405e-18)
(3.3271 -0.188677 1.61955e-18)
(3.30744 -0.267173 -1.8942e-18)
(3.27986 -0.346072 -2.00133e-18)
(3.24465 -0.424139 -2.43397e-18)
(3.20203 -0.500338 3.79657e-19)
(3.15175 -0.574498 1.39017e-19)
(3.09548 -0.647764 -2.13965e-18)
(3.03285 -0.721312 -2.03431e-18)
(2.96257 -0.0265551 -1.82246e-18)
(2.95981 -0.0798895 -5.87282e-20)
(2.9533 -0.1346 -1.63749e-18)
(2.9424 -0.190904 3.12137e-19)
(2.92675 -0.248551 5.36775e-18)
(2.90629 -0.30693 -3.6675e-19)
(2.88091 -0.365116 4.43384e-20)
(2.85023 -0.422061 -2.60855e-18)
(2.81643 -0.476885 -3.49559e-18)
(2.78599 -0.529867 3.72832e-19)
(2.48713 -0.0175112 -2.89325e-20)
(2.48578 -0.0519352 -8.143e-19)
(2.48259 -0.0872486 -2.6148e-18)
(2.47707 -0.123772 -3.43096e-18)
(2.4688 -0.161534 2.4965e-18)
(2.45744 -0.200268 1.50223e-18)
(2.44261 -0.239354 -1.38505e-18)
(2.4237 -0.277792 1.62448e-18)
(2.40274 -0.314484 -4.29708e-19)
(2.38953 -0.349542 -9.63761e-19)
(1.91464 -0.00968865 7.72441e-19)
(1.91408 -0.0282978 -8.31778e-19)
(1.91278 -0.0474399 -3.27675e-20)
(1.91031 -0.0673592 -3.4725e-20)
(1.90624 -0.0881303 -7.27411e-20)
(1.90013 -0.109615 -2.3319e-18)
(1.89151 -0.131405 -6.78668e-19)
(1.87978 -0.152783 2.62608e-18)
(1.86664 -0.172975 -6.03503e-19)
(1.86191 -0.192207 -1.35113e-18)
(1.23989 -0.00373775 -1.64278e-18)
(1.23967 -0.0106958 -8.48891e-19)
(1.23923 -0.0179013 2.33914e-18)
(1.23823 -0.0254786 -8.89756e-19)
(1.23625 -0.0334753 -6.7411e-19)
(1.2329 -0.0418316 1.352e-18)
(1.22775 -0.05035 -1.29587e-18)
(1.22038 -0.0586655 1.28697e-18)
(1.21202 -0.0663426 -1.21031e-18)
(1.21007 -0.0735084 -4.24826e-18)
(0.454916 -0.000257989 6.63064e-19)
(0.454827 -0.00070054 7.03037e-19)
(0.454692 -0.00115912 7.48164e-19)
(0.454325 -0.00164005 1.35394e-18)
(0.453496 -0.00214017 -6.71972e-19)
(0.451984 -0.00263718 -1.29959e-18)
(0.449567 -0.00309909 6.14706e-19)
(0.445993 -0.00359291 2.48374e-20)
(0.441737 -0.00439221 -4.96532e-20)
(0.44035 -0.00504563 1.1057e-19)
(1.65356 0.997281 -2.85817e-19)
(1.51227 0.941864 1.79929e-20)
(1.35879 0.88075 -2.28719e-19)
(1.19767 0.80844 1.76311e-19)
(1.02957 0.723979 -1.91877e-19)
(0.854824 0.627077 -1.01086e-19)
(0.673759 0.516942 2.31975e-19)
(0.487035 0.392146 -3.04887e-19)
(0.295891 0.250642 3.09879e-19)
(0.101429 0.0916434 2.387e-19)
(1.88639 0.992196 0)
(1.72968 0.934742 6.39362e-19)
(1.56083 0.87277 3.32585e-19)
(1.38228 0.801854 1.62682e-19)
(1.19453 0.719878 4.31158e-19)
(0.997533 0.625898 -8.6843e-20)
(0.79136 0.518601 -7.85309e-20)
(0.576346 0.395989 8.87474e-20)
(0.353317 0.255174 -1.04515e-18)
(0.122698 0.0943548 -1.66559e-20)
(2.09104 0.95904 1.56801e-19)
(1.92523 0.90507 0)
(1.74614 0.846463 -1.00732e-19)
(1.55494 0.77955 -3.83334e-19)
(1.3517 0.702082 5.37038e-20)
(1.13609 0.612789 3.97082e-19)
(0.907783 0.510088 -6.0685e-19)
(0.666589 0.391637 -2.00883e-19)
(0.412595 0.254044 7.83578e-19)
(0.14525 0.0947347 -1.75927e-19)
(2.28484 0.898355 1.87957e-19)
(2.11045 0.850561 1.19779e-20)
(1.9213 0.797861 2.45227e-20)
(1.71811 0.737 3.60836e-20)
(1.50058 0.665855 -2.92901e-20)
(1.26792 0.583132 2.73239e-19)
(1.01926 0.487168 -2.06871e-19)
(0.753674 0.37553 -8.55545e-19)
(0.47027 0.244677 0)
(0.167388 0.0916962 0)
(2.46796 0.811819 -1.07082e-18)
(2.28436 0.770836 -6.09216e-19)
(2.08493 0.725061 -1.20682e-19)
(1.87003 0.671522 -6.65698e-20)
(1.6389 0.608295 0)
(1.39031 0.534136 2.40743e-19)
(1.12275 0.447434 2.67768e-19)
(0.834554 0.345835 2.86231e-19)
(0.523839 0.225952 -4.23729e-19)
(0.187907 0.0848978 -8.12318e-20)
(2.634 0.702093 7.66418e-19)
(2.44156 0.668063 -1.39169e-19)
(2.23244 0.629679 -2.21588e-19)
(2.00664 0.584305 0)
(1.76301 0.530278 0)
(1.49988 0.466487 0)
(1.21522 0.391463 -3.89789e-20)
(0.906684 0.303089 3.70272e-19)
(0.571498 0.198348 3.79146e-19)
(0.206082 0.0746241 -3.0856e-19)
(2.7758 0.572355 -1.19356e-18)
(2.5755 0.54526 -1.48138e-18)
(2.35786 0.514529 -3.03347e-22)
(2.1226 0.477946 -1.87651e-19)
(1.86818 0.434181 -9.2878e-20)
(1.59258 0.382318 -1.78832e-19)
(1.29333 0.321124 4.59081e-19)
(0.967488 0.248836 2.14862e-19)
(0.611583 0.162966 5.40015e-19)
(0.221314 0.0613401 2.02849e-19)
(2.88707 0.425748 -1.15708e-18)
(2.68027 0.405633 8.47042e-20)
(2.45576 0.38282 1.64526e-19)
(2.21297 0.355611 1.68147e-20)
(1.95004 0.323051 -3.14396e-19)
(1.66465 0.284468 -1.74203e-19)
(1.35398 0.238937 -6.21199e-19)
(1.01463 0.18514 1.18529e-19)
(0.642604 0.121237 5.14738e-20)
(0.233065 0.0456126 -6.26916e-21)
(2.9628 0.265187 1.01364e-19)
(2.75121 0.252354 3.97001e-19)
(2.52189 0.237904 -3.3029e-19)
(2.27394 0.22074 3.63007e-19)
(2.00523 0.200297 3.72543e-19)
(1.71322 0.176176 4.91889e-19)
(1.39481 0.147809 -6.35731e-19)
(1.04633 0.114389 -3.24411e-19)
(0.663411 0.0748096 -4.58504e-20)
(0.240916 0.0280951 -3.26989e-19)
(3.00052 0.0935772 5.8181e-19)
(2.78612 0.0887856 -1.8616e-19)
(2.55425 0.0834439 4.79558e-19)
(2.30366 0.0771501 -3.1066e-19)
(2.03208 0.0697278 2.66476e-19)
(1.73679 0.0610618 6.05401e-19)
(1.41457 0.0509784 3.78879e-19)
(1.06161 0.0392346 3.09338e-19)
(0.673395 0.0255065 2.65858e-19)
(0.244653 0.00950721 5.43607e-19)
(0.239622 0.452206 -4.69226e-19)
(0.204016 0.418481 -1.87758e-19)
(0.168444 0.38139 1.39197e-19)
(0.134908 0.343717 -4.19174e-19)
(0.105171 0.307585 -1.19393e-19)
(0.0782737 0.270333 6.92828e-19)
(0.0518988 0.223928 3.35799e-19)
(0.0259779 0.159064 -1.5531e-19)
(0.00706336 0.0797332 1.14799e-19)
(-0.00112271 0.0224571 -6.07559e-20)
(0.288657 0.544496 4.11431e-19)
(0.248752 0.507697 4.58422e-19)
(0.208204 0.465642 -1.16152e-20)
(0.167873 0.418605 -1.32786e-19)
(0.131146 0.37047 -3.13507e-19)
(0.100613 0.322862 8.28391e-20)
(0.0734858 0.26953 2.25252e-19)
(0.0459057 0.197061 1.65539e-19)
(0.0183508 0.101956 -5.91231e-19)
(0.00279368 0.0288934 -1.23653e-19)
(0.359654 0.633307 -6.009e-19)
(0.313791 0.593153 -4.81473e-19)
(0.267996 0.54731 2.57722e-19)
(0.221355 0.493992 1.3832e-19)
(0.17581 0.434218 -6.14791e-21)
(0.136271 0.371992 -1.40155e-19)
(0.10212 0.305708 -2.95707e-20)
(0.0684407 0.224972 -5.55039e-19)
(0.0336784 0.126075 -2.69372e-19)
(0.00764278 0.0378164 -3.90589e-20)
(0.454204 0.718038 5.03323e-19)
(0.400049 0.673836 1.64735e-19)
(0.346358 0.622816 -1.49427e-19)
(0.292224 0.563762 6.32163e-20)
(0.237745 0.495652 -5.84286e-22)
(0.186584 0.420959 1.2933e-21)
(0.140103 0.340725 -1.32421e-19)
(0.0954613 0.2503 3.78285e-19)
(0.0514396 0.147768 -4.19216e-19)
(0.0135846 0.0477229 -6.50637e-20)
(0.571995 0.797991 -2.82163e-19)
(0.50785 0.749889 -8.88825e-20)
(0.443571 0.693032 -1.43562e-20)
(0.378963 0.627301 -7.04e-20)
(0.313716 0.552031 5.86116e-20)
(0.249661 0.468119 5.28508e-20)
(0.188379 0.376754 -2.79793e-20)
(0.129326 0.276679 -2.82071e-19)
(0.0725296 0.167657 2.18315e-19)
(0.0209211 0.0568466 8.72557e-20)
(0.709409 0.871054 6.43266e-19)
(0.634362 0.819662 3.20702e-19)
(0.558127 0.757487 2.029e-19)
(0.480853 0.685413 4.82208e-20)
(0.402411 0.603566 1.55188e-19)
(0.32387 0.512391 7.8591e-20)
(0.246467 0.412537 1.43476e-19)
(0.170866 0.303924 5.79435e-20)
(0.0980549 0.186807 -1.58953e-20)
(0.0299987 0.0650334 -1.33026e-20)
(0.862019 0.93495 -1.19776e-19)
(0.775541 0.880744 -8.246e-19)
(0.686703 0.814109 -7.58701e-20)
(0.595725 0.736857 -5.25355e-20)
(0.502563 0.649647 -1.9795e-20)
(0.408126 0.552725 1.51588e-19)
(0.313479 0.446319 -4.38101e-20)
(0.219711 0.330417 6.49639e-20)
(0.128294 0.205082 -1.44613e-19)
(0.0409048 0.0724948 -1.26653e-21)
(1.02673 0.986095 -8.84628e-19)
(0.928471 0.929688 5.94302e-20)
(0.826659 0.859744 -2.34037e-19)
(0.721465 0.778912 -7.2386e-20)
(0.61277 0.688023 -2.39013e-20)
(0.501459 0.587077 -7.51886e-20)
(0.388527 0.475898 5.6262e-20)
(0.275164 0.354197 6.02988e-20)
(0.162982 0.221558 -9.82108e-21)
(0.0535443 0.0791208 -1.03772e-19)
(1.2039 1.01798 1.23819e-19)
(1.09351 0.960979 5.23026e-19)
(0.978257 0.889747 1.55161e-21)
(0.858226 0.807572 -2.95282e-20)
(0.733147 0.715312 1.50814e-19)
(0.603893 0.612556 -3.47226e-19)
(0.471404 0.498754 -2.44355e-19)
(0.336831 0.37321 3.56101e-19)
(0.201772 0.235007 1.44174e-19)
(0.0677021 0.0845325 -3.62088e-20)
(1.40059 1.0155 7.39663e-19)
(1.27806 0.962371 3.23674e-19)
(1.14783 0.895384 5.59336e-20)
(1.01088 0.816417 -1.94867e-19)
(0.867273 0.726531 -1.643e-20)
(0.717902 0.625342 4.65539e-19)
(0.563584 0.512006 -2.68196e-19)
(0.405341 0.385476 -1.84473e-19)
(0.244705 0.24432 3.35784e-19)
(0.0831137 0.0884406 -6.03751e-21)
(0.977227 0.0987878 8.61314e-21)
(1.14178 0.142345 -1.71354e-21)
(1.21372 0.190533 -2.38361e-20)
(1.3266 0.170429 0)
(1.37897 0.155399 -9.72641e-23)
(1.2798 0.234075 -5.65149e-20)
(1.12998 0.385565 -5.42422e-20)
(0.949707 0.543596 -1.07244e-20)
(0.711848 0.648534 -3.06694e-19)
(0.416636 0.59573 4.22933e-19)
(0.982728 0.0799953 1.98163e-19)
(1.13355 0.114658 -3.15406e-20)
(1.21039 0.16008 1.89009e-21)
(1.31737 0.1512 1.11701e-20)
(1.38266 0.157599 3.3498e-21)
(1.29962 0.268794 -2.00647e-21)
(1.15988 0.43583 1.0637e-20)
(0.994237 0.606739 0)
(0.761669 0.727629 8.02833e-19)
(0.479447 0.686949 -5.68994e-19)
(0.987913 0.0614863 -1.13955e-19)
(1.13 0.0879901 6.55523e-21)
(1.21012 0.130486 7.81093e-20)
(1.31421 0.130642 1.91894e-20)
(1.38598 0.158898 -2.32755e-20)
(1.31948 0.301495 -3.48379e-20)
(1.19287 0.48461 -1.30233e-20)
(1.04425 0.668302 4.47284e-20)
(0.823184 0.80414 -1.27018e-21)
(0.564482 0.774743 -3.65478e-19)
(0.992533 0.0426736 -8.0906e-20)
(1.13076 0.0619277 1.53762e-20)
(1.21334 0.101563 7.55754e-20)
(1.31742 0.109956 3.12914e-20)
(1.39175 0.159778 -2.3908e-20)
(1.33954 0.33211 -2.77152e-20)
(1.22933 0.531184 7.82703e-20)
(1.10028 0.727144 2.69432e-20)
(0.899912 0.875802 -5.48731e-19)
(0.673687 0.857148 -1.77673e-19)
(0.99629 0.0231517 3.63809e-20)
(1.135 0.0360119 -4.59285e-20)
(1.21959 0.0731926 -6.77178e-20)
(1.32561 0.0898564 2.28414e-20)
(1.39898 0.161202 0)
(1.35953 0.361033 0)
(1.26935 0.574881 7.93795e-20)
(1.16351 0.781872 -2.82899e-20)
(0.99464 0.940125 -1.18281e-19)
(0.805095 0.93252 -5.74014e-20)
(0.998835 0.00275399 3.32401e-21)
(1.14174 0.00982384 5.80825e-20)
(1.22795 0.045278 -2.0774e-19)
(1.33688 0.0708814 -7.72848e-20)
(1.40648 0.164004 -4.78517e-21)
(1.37935 0.388405 1.28353e-19)
(1.31316 0.614835 1.55022e-19)
(1.23548 0.830762 -1.80551e-20)
(1.10777 0.995311 -4.41807e-20)
(0.953753 1.00022 3.06729e-21)
(0.99937 -0.0186535 2.15296e-21)
(1.15008 -0.0170012 3.02246e-20)
(1.23745 0.0178364 -6.56246e-20)
(1.3497 0.0535287 -1.56426e-19)
(1.41334 0.168429 1.17159e-20)
(1.3993 0.413886 7.33764e-21)
(1.36136 0.649919 -5.98017e-20)
(1.3173 0.872161 -1.07194e-19)
(1.23726 1.04108 -3.08417e-20)
(1.11388 1.06039 -9.79656e-19)
(0.996995 -0.040794 1.49887e-20)
(1.15947 -0.044756 -1.45426e-19)
(1.24739 -0.0089565 1.32884e-19)
(1.36285 0.0385328 1.03019e-19)
(1.41845 0.174937 5.00051e-21)
(1.41935 0.437003 -1.35192e-19)
(1.41384 0.6791 8.208e-22)
(1.4083 0.905139 -1.34076e-19)
(1.3793 1.07831 1.11006e-20)
(1.27987 1.11247 2.88317e-18)
(0.991687 -0.0630471 -8.84761e-20)
(1.16985 -0.0735613 8.11994e-20)
(1.25746 -0.034919 1.91285e-19)
(1.37564 0.02601 -1.15385e-19)
(1.42236 0.183286 -2.29376e-19)
(1.44108 0.457453 9.25964e-21)
(1.47188 0.702245 1.70346e-19)
(1.50845 0.930404 -5.76881e-19)
(1.53084 1.10828 -2.68499e-20)
(1.44837 1.15344 -6.47496e-18)
(0.9844 -0.0859144 4.09893e-21)
(1.18151 -0.103401 1.42765e-19)
(1.26754 -0.0598532 6.17225e-20)
(1.38694 0.0183759 -2.78533e-19)
(1.42292 0.197532 -2.47225e-19)
(1.46208 0.478811 -7.37401e-20)
(1.53111 0.723144 8.27035e-20)
(1.61156 0.951306 -2.03943e-19)
(1.68374 1.13062 -1.08607e-18)
(1.61564 1.1724 -7.95126e-18)
(0.974374 -0.116994 -1.44952e-20)
(1.19584 -0.143011 -3.30485e-20)
(1.27687 -0.0934985 -7.73997e-20)
(1.39749 0.00412667 1.44277e-19)
(1.42424 0.196715 2.03917e-19)
(1.49173 0.474276 -6.16334e-20)
(1.61187 0.712514 -1.41938e-19)
(1.75376 0.940434 -1.19995e-18)
(1.9028 1.1326 -1.59893e-18)
(1.89936 1.20873 3.28584e-18)
(0.962024 -0.155677 -4.04542e-19)
(1.21444 -0.192449 1.85023e-20)
(1.28086 -0.139488 -5.86005e-20)
(1.39769 -0.0173425 3.39844e-19)
(1.40193 0.174678 3.46066e-19)
(1.49308 0.429235 5.60738e-21)
(1.66798 0.648109 -6.51767e-20)
(1.88063 0.865992 -2.83077e-19)
(2.13955 1.07143 2.79632e-19)
(2.28454 1.16086 -3.23508e-19)
(0.949374 -0.196187 -2.79008e-20)
(1.23975 -0.2423 -5.4986e-20)
(1.27999 -0.184041 3.084e-20)
(1.39272 -0.035565 2.69794e-20)
(1.37491 0.163669 1.71867e-33)
(1.46933 0.371803 2.55854e-21)
(1.68017 0.561505 -2.03388e-33)
(1.9489 0.759666 1.85147e-19)
(2.30187 0.956441 -9.30902e-19)
(2.58733 1.05848 -6.29259e-19)
(0.936994 -0.242949 1.4105e-18)
(1.27126 -0.282306 -7.75811e-34)
(1.24936 -0.229215 -4.05086e-20)
(1.26968 -0.0370405 -2.28546e-19)
(1.26145 0.144991 -4.45575e-19)
(1.38889 0.302803 -8.82203e-19)
(1.61883 0.460166 -5.06049e-33)
(1.92905 0.631149 -1.73764e-18)
(2.3257 0.802125 -3.1776e-18)
(2.75371 0.902607 1.67512e-18)
(0.927287 -0.300539 0)
(1.31666 -0.327206 -1.61783e-33)
(1.11259 -0.207173 0)
(1.10668 -0.0298345 0)
(1.11862 0.115175 0)
(1.25832 0.233047 0)
(1.48942 0.355497 -8.05805e-33)
(1.8149 0.491598 0)
(2.2134 0.6343 -3.39708e-19)
(2.73496 0.712027 1.25746e-18)
(0.916491 -0.36082 1.16134e-19)
(1.25157 -0.326184 -4.68556e-19)
(0.960016 -0.174216 -5.5061e-20)
(0.933552 -0.0259559 0)
(0.955882 0.0827497 0)
(1.08994 0.165583 6.03761e-20)
(1.30622 0.253941 1.17626e-18)
(1.6159 0.354703 -1.95056e-19)
(1.99668 0.466209 -4.953e-19)
(2.53244 0.520484 4.67308e-18)
(0.883469 -0.405317 -1.52015e-17)
(1.09208 -0.279961 1.08715e-18)
(0.792659 -0.130567 -7.27479e-20)
(0.746747 -0.0211072 -7.40566e-20)
(0.772671 0.0525646 -5.12848e-19)
(0.88945 0.104586 -7.72869e-19)
(1.07624 0.161296 -1.04795e-18)
(1.34601 0.229024 -1.3822e-18)
(1.6876 0.306119 -1.60522e-18)
(2.17993 0.344447 3.61248e-18)
(0.809004 -0.394517 -4.13679e-19)
(0.88646 -0.20759 -1.21648e-18)
(0.605559 -0.0828839 -1.25635e-19)
(0.549512 -0.0153063 -8.42305e-20)
(0.571718 0.0276217 -9.90019e-34)
(0.661529 0.0545709 9.36815e-20)
(0.805404 0.0845945 -1.4851e-32)
(1.01619 0.122942 -1.93435e-19)
(1.29246 0.167308 2.98954e-19)
(1.69929 0.192071 7.05773e-19)
(0.664254 -0.288843 3.42549e-17)
(0.618255 -0.108101 -3.14009e-18)
(0.393383 -0.0351238 -2.4068e-19)
(0.339291 -0.00736425 -1.58456e-19)
(0.353667 0.00925334 3.94143e-19)
(0.410422 0.0183653 7.84298e-19)
(0.50117 0.0291935 7.95334e-19)
(0.636722 0.0448852 4.59867e-19)
(0.820752 0.0634563 -1.90436e-19)
(1.10156 0.0762254 3.56941e-18)
(0.336838 -0.0768235 5.58825e-19)
(0.26185 -0.00230477 -6.76605e-33)
(0.144383 0.0190786 -3.04897e-19)
(0.120378 0.00337093 0)
(0.12359 -0.00235205 0)
(0.141835 -0.00541673 9.63655e-20)
(0.172363 -0.00624723 9.35659e-35)
(0.220293 -0.00417684 -1.23571e-19)
(0.28813 -0.00161928 -2.82619e-19)
(0.39901 0.00331827 1.00159e-18)
(2.00206 1.09643 -1.78984e-18)
(2.23907 1.07847 -2.30493e-18)
(2.44208 1.02912 0)
(2.63708 0.95251 -7.58039e-19)
(2.82359 0.852515 -1.78271e-18)
(2.99276 0.732395 -2.24948e-18)
(3.13709 0.595045 -4.75919e-19)
(3.25054 0.4427 1.26927e-18)
(3.32824 0.276965 -3.54789e-18)
(3.36764 0.0986984 1.35668e-18)
(2.49867 1.142 2.67724e-19)
(2.73056 1.08194 1.39736e-18)
(2.92387 1.00421 1.4392e-19)
(3.10674 0.909813 6.75712e-19)
(3.2806 0.800669 -1.10398e-18)
(3.43997 0.678332 -5.00045e-18)
(3.58096 0.544017 2.46804e-18)
(3.70047 0.399324 1.27035e-17)
(3.79428 0.246326 1.0407e-19)
(3.8587 0.0872577 -1.07364e-17)