/*--------------------------------*- C++ -*----------------------------------*\
  =========                 |
  \\      /  F ield         | OpenFOAM: The Open Source CFD Toolbox
   \\    /   O peration     | Website:  https://openfoam.org
    \\  /    A nd           | Version:  13
     \\/     M anipulation  |
\*---------------------------------------------------------------------------*/
FoamFile
{
    format      ascii;
    class       volScalarField;
    location    "4.65";
    object      p;
}
// * * * * * * * * * * * * * * * * * * * * * * * * * * * * * * * * * * * * * //

dimensions      [0 2 -2 0 0 0 0];

internalField   nonuniform List<scalar> 
1800
(
-0.775082
-0.77537
-0.774644
-0.772488
-0.769271
-0.766264
-0.765295
-0.77033
-0.782098
-0.834075
-0.787268
-0.78584
-0.783142
-0.778836
-0.773249
-0.767122
-0.762101
-0.760692
-0.761777
-0.802105
-0.809183
-0.80534
-0.800774
-0.795021
-0.788581
-0.781977
-0.775837
-0.77135
-0.769095
-0.785037
-0.840089
-0.833618
-0.826464
-0.818698
-0.810461
-0.80189
-0.793076
-0.784328
-0.776749
-0.773715
-0.883957
-0.874627
-0.864965
-0.854716
-0.843497
-0.830728
-0.81597
-0.799268
-0.781506
-0.763932
-0.942195
-0.929992
-0.917315
-0.903439
-0.886752
-0.866075
-0.841175
-0.812729
-0.781959
-0.750172
-1.01402
-0.999091
-0.982487
-0.962572
-0.936524
-0.903551
-0.864822
-0.822501
-0.778688
-0.735447
-1.09481
-1.07755
-1.05527
-1.02546
-0.985357
-0.936048
-0.881043
-0.823919
-0.767299
-0.712898
-1.17605
-1.15655
-1.126
-1.08195
-1.02377
-0.955894
-0.884193
-0.813033
-0.744854
-0.680941
-1.24588
-1.22366
-1.18208
-1.12037
-1.04203
-0.955507
-0.868183
-0.784308
-0.705764
-0.633132
-1.07688
-1.0844
-1.09483
-1.10936
-1.12924
-1.15428
-1.1836
-1.21663
-1.25434
-1.2986
-0.986475
-0.993537
-1.00226
-1.01345
-1.02859
-1.04771
-1.07008
-1.09523
-1.12386
-1.15692
-0.921571
-0.926579
-0.932253
-0.939192
-0.948719
-0.960984
-0.975412
-0.991343
-1.00849
-1.02679
-0.881588
-0.884191
-0.886702
-0.889598
-0.894066
-0.900276
-0.907798
-0.915797
-0.922761
-0.927188
-0.856247
-0.855921
-0.855478
-0.855322
-0.856025
-0.857687
-0.860067
-0.862613
-0.8635
-0.858832
-0.834662
-0.832583
-0.830343
-0.828018
-0.825747
-0.823581
-0.821419
-0.819056
-0.815815
-0.806983
-0.813922
-0.811623
-0.808771
-0.805087
-0.800326
-0.794391
-0.787243
-0.778859
-0.768975
-0.755618
-0.7947
-0.793378
-0.791226
-0.787386
-0.781507
-0.773383
-0.762966
-0.750394
-0.736214
-0.720799
-0.779542
-0.779751
-0.778796
-0.775826
-0.770667
-0.763322
-0.754026
-0.743356
-0.731924
-0.718734
-0.769987
-0.771094
-0.770735
-0.76837
-0.76423
-0.758756
-0.752738
-0.747533
-0.743891
-0.738339
-1.5601
-1.75968
-1.32382
-1.01411
-0.951322
-0.714636
-0.439143
-0.175924
-0.0486065
0.0192901
-1.36212
-1.55497
-1.31951
-1.15725
-1.11923
-0.784028
-0.470678
-0.189095
-0.0533471
0.0162377
-1.15899
-1.32765
-1.27075
-1.28818
-1.26893
-0.853213
-0.499672
-0.203133
-0.0589258
0.0123219
-0.984638
-1.11791
-1.19122
-1.39515
-1.38174
-0.916673
-0.525646
-0.217422
-0.0654262
0.00769916
-0.858011
-0.947542
-1.11502
-1.47219
-1.45985
-0.970067
-0.54873
-0.231809
-0.0729383
0.00251047
-0.76322
-0.822436
-1.06034
-1.5181
-1.50799
-1.01126
-0.569259
-0.246677
-0.0815803
-0.00313941
-0.691869
-0.726084
-1.01465
-1.52935
-1.52804
-1.03879
-0.587238
-0.262574
-0.0915215
-0.00919872
-0.640435
-0.642456
-0.960797
-1.50427
-1.52075
-1.05135
-0.602009
-0.279792
-0.103041
-0.0156534
-0.623855
-0.564611
-0.891501
-1.44817
-1.48905
-1.04926
-0.612661
-0.298087
-0.116537
-0.0225434
-0.642598
-0.504013
-0.81383
-1.35256
-1.43878
-1.0363
-0.619869
-0.317122
-0.132277
-0.0300502
-0.597529
-0.439631
-0.75499
-1.29849
-1.34931
-0.983827
-0.608452
-0.33467
-0.152391
-0.0402695
-0.546336
-0.446105
-0.717124
-1.14269
-1.1645
-0.877234
-0.583108
-0.356455
-0.179241
-0.0525091
-0.518942
-0.453608
-0.645018
-0.954856
-0.976934
-0.780063
-0.56873
-0.387283
-0.21147
-0.0647863
-0.488246
-0.447184
-0.568485
-0.785401
-0.813034
-0.69598
-0.5618
-0.425822
-0.249669
-0.0785961
-0.447596
-0.421504
-0.497785
-0.642293
-0.67229
-0.622724
-0.561938
-0.466683
-0.28566
-0.0892397
-0.401331
-0.391537
-0.433603
-0.520374
-0.551724
-0.559778
-0.562894
-0.497084
-0.310859
-0.0946371
-0.356644
-0.359881
-0.375602
-0.419216
-0.453244
-0.507292
-0.556808
-0.511637
-0.324873
-0.0956727
-0.316178
-0.330332
-0.326777
-0.344823
-0.387017
-0.470915
-0.539984
-0.502409
-0.320646
-0.0928703
-0.285533
-0.313883
-0.306917
-0.308746
-0.356966
-0.453221
-0.523799
-0.485119
-0.309735
-0.0895965
-0.262832
-0.304943
-0.31492
-0.33107
-0.371483
-0.448421
-0.512476
-0.46893
-0.299975
-0.0880145
-0.507425
-0.566861
-0.613407
-0.652558
-0.68675
-0.725355
-0.762335
-0.797534
-0.794605
-0.826855
-0.36273
-0.430306
-0.485793
-0.535642
-0.575665
-0.612505
-0.636725
-0.658276
-0.666556
-0.692844
-0.247506
-0.317228
-0.375851
-0.42813
-0.468575
-0.503465
-0.52705
-0.548411
-0.563363
-0.58118
-0.153287
-0.222473
-0.282067
-0.334382
-0.376568
-0.412639
-0.441017
-0.466376
-0.487173
-0.506255
-0.0767519
-0.144491
-0.204035
-0.256305
-0.300476
-0.338558
-0.370689
-0.398518
-0.422249
-0.442824
-0.0152776
-0.0815637
-0.140643
-0.1928
-0.237948
-0.27692
-0.310313
-0.338736
-0.362947
-0.383376
0.0328614
-0.032182
-0.0906318
-0.142236
-0.187242
-0.225783
-0.2587
-0.286324
-0.309824
-0.329663
0.0680756
0.00402901
-0.0537877
-0.104439
-0.148703
-0.185926
-0.21764
-0.24352
-0.26552
-0.28341
0.0891271
0.0256954
-0.0317624
-0.081834
-0.125688
-0.161915
-0.192681
-0.21646
-0.236381
-0.250345
0.0981387
0.0342973
-0.0232997
-0.0738527
-0.1178
-0.154351
-0.184847
-0.207856
-0.226207
-0.235891
0.852183
0.785189
0.708194
0.625451
0.535689
0.43666
0.328605
0.217953
0.125497
0.08137
0.65754
0.585073
0.503972
0.414872
0.315993
0.20586
0.0857548
-0.0362095
-0.136932
-0.183722
0.444778
0.369637
0.28615
0.193168
0.0886803
-0.0283786
-0.156091
-0.285096
-0.39079
-0.438301
0.241245
0.162969
0.0756524
-0.0220604
-0.131849
-0.254562
-0.388016
-0.521161
-0.628233
-0.674547
0.0578429
-0.0246067
-0.116673
-0.219493
-0.334381
-0.461723
-0.599859
-0.733973
-0.837639
-0.883291
-0.104914
-0.191479
-0.287723
-0.394526
-0.51312
-0.643575
-0.781313
-0.912747
-1.01214
-1.05579
-0.248559
-0.337686
-0.435916
-0.544245
-0.66362
-0.793312
-0.927805
-1.05299
-1.14495
-1.185
-0.375586
-0.463846
-0.560754
-0.667299
-0.783922
-0.908977
-1.03593
-1.15027
-1.2315
-1.2669
-0.482138
-0.567177
-0.660299
-0.762161
-0.872495
-0.988665
-1.10323
-1.20238
-1.27067
-1.30108
-0.567856
-0.647585
-0.734509
-0.828719
-0.929145
-1.0322
-1.13007
-1.21096
-1.26551
-1.29138
2.12024
2.13805
2.15648
2.17434
2.19067
2.20473
2.2157
2.2234
2.2296
2.23523
2.05648
2.07117
2.08573
2.09904
2.11034
2.11887
2.12383
2.12533
2.12613
2.12851
1.97171
1.9823
1.99173
1.9991
2.00385
2.00523
2.00247
1.99602
1.98986
1.98819
1.86794
1.87386
1.87712
1.8772
1.87384
1.86633
1.85395
1.83756
1.82271
1.8163
1.74525
1.74547
1.74162
1.73352
1.72118
1.70386
1.68085
1.65346
1.62886
1.61735
1.60739
1.60176
1.58991
1.57232
1.54949
1.52072
1.48546
1.4456
1.41017
1.39292
1.45456
1.44253
1.42259
1.39557
1.36211
1.32149
1.27327
1.22012
1.1732
1.15
1.29525
1.27586
1.24586
1.20733
1.16152
1.10775
1.04574
0.978806
0.920316
0.891199
1.13426
1.10742
1.06696
1.01618
0.956956
0.88868
0.811371
0.729429
0.658807
0.623944
0.984995
0.941272
0.884185
0.818434
0.744947
0.662213
0.570108
0.473915
0.392093
0.352189
1.81265
1.79926
1.78988
1.78251
1.78289
1.78848
1.80929
1.85038
1.92235
2.0389
1.80681
1.79428
1.78599
1.77756
1.778
1.78131
1.80073
1.83692
1.90027
2.0004
1.80156
1.78936
1.7819
1.77215
1.77253
1.77297
1.7907
1.82029
1.87252
1.95022
1.79682
1.78456
1.77763
1.76634
1.76649
1.76344
1.77926
1.8003
1.83966
1.88783
1.79254
1.77993
1.77318
1.76018
1.75982
1.75276
1.76639
1.7768
1.80229
1.81231
1.78871
1.77551
1.76854
1.75369
1.7525
1.741
1.75203
1.74977
1.76065
1.72295
1.78532
1.77131
1.76371
1.74692
1.74448
1.72823
1.73605
1.71925
1.71489
1.61832
1.78237
1.76735
1.75868
1.73989
1.73574
1.71452
1.71829
1.68542
1.66476
1.49989
1.7799
1.76366
1.75346
1.73264
1.72633
1.70003
1.69866
1.64851
1.60863
1.36573
1.77794
1.76022
1.74814
1.72519
1.71641
1.6849
1.67812
1.61017
1.54966
1.22734
1.77602
1.75652
1.741
1.7159
1.70227
1.6647
1.64769
1.561
1.47763
1.09324
1.77526
1.75333
1.73294
1.70573
1.68552
1.64314
1.61275
1.51765
1.40591
1.06904
1.77632
1.75136
1.72479
1.69615
1.66835
1.62346
1.57929
1.48229
1.34758
1.05616
1.77979
1.7506
1.71677
1.68729
1.65137
1.60593
1.54799
1.45366
1.2997
1.04893
1.78657
1.75081
1.70881
1.67914
1.63408
1.59072
1.51893
1.43112
1.26237
1.04481
1.79719
1.75214
1.70113
1.67187
1.61713
1.57791
1.49256
1.41367
1.23469
1.04092
1.81154
1.75165
1.6927
1.66214
1.59991
1.56628
1.46946
1.39979
1.21497
1.03791
1.83672
1.75558
1.68746
1.65514
1.58487
1.55599
1.45026
1.38964
1.2019
1.03704
1.84956
1.7475
1.67602
1.6436
1.57207
1.54837
1.43779
1.38457
1.19567
1.03955
1.92636
1.76058
1.67934
1.64119
1.56661
1.54501
1.43196
1.38421
1.19299
1.04435
0.83692
0.678026
0.489639
0.308854
0.146825
0.00243206
-0.126977
-0.243149
-0.345622
-0.434249
0.788399
0.663327
0.520678
0.377436
0.244374
0.121826
0.00891646
-0.097639
-0.195903
-0.285626
0.772982
0.667079
0.552772
0.435122
0.320912
0.211315
0.107301
0.00782415
-0.0843946
-0.170733
0.783843
0.685789
0.583778
0.481503
0.380749
0.281934
0.186087
0.0933033
0.00552077
-0.0775863
0.799581
0.707729
0.613791
0.521305
0.430238
0.339722
0.250201
0.162216
0.0777028
-0.00266948
0.816186
0.730048
0.642339
0.556377
0.471682
0.386714
0.301567
0.216964
0.135088
0.0570676
0.832237
0.751312
0.668635
0.587102
0.506213
0.424541
0.342129
0.259941
0.180014
0.103854
0.847089
0.770684
0.692142
0.613454
0.53426
0.453865
0.372596
0.291767
0.213119
0.13827
0.860845
0.787863
0.71233
0.634785
0.555289
0.474251
0.392638
0.311906
0.23338
0.158807
0.872329
0.800718
0.725643
0.647012
0.565964
0.483768
0.401656
0.320788
0.24242
0.167864
-1.91301
-1.86681
-1.76713
-1.64244
-1.51693
-1.4031
-1.30532
-1.22461
-1.16116
-1.11545
-1.98988
-1.94997
-1.86651
-1.75857
-1.64624
-1.54215
-1.45159
-1.37627
-1.31717
-1.27576
-1.9929
-1.95852
-1.8929
-1.80575
-1.71082
-1.61966
-1.53824
-1.46895
-1.41334
-1.37317
-1.93673
-1.90684
-1.85792
-1.79278
-1.71813
-1.64281
-1.57293
-1.51157
-1.4609
-1.42298
-1.84344
-1.81753
-1.78211
-1.7367
-1.68235
-1.62418
-1.56718
-1.51458
-1.46858
-1.43047
-1.73652
-1.71454
-1.6889
-1.65824
-1.62091
-1.5785
-1.53416
-1.49039
-1.4499
-1.4146
-1.63465
-1.61685
-1.598
-1.57705
-1.55203
-1.52271
-1.49026
-1.45666
-1.42332
-1.39244
-1.54801
-1.53472
-1.52089
-1.50594
-1.48868
-1.46828
-1.44474
-1.41809
-1.39106
-1.36372
-1.47986
-1.47066
-1.46083
-1.44992
-1.43757
-1.42325
-1.4066
-1.38768
-1.36642
-1.35171
-1.4281
-1.42232
-1.41562
-1.40754
-1.39829
-1.38787
-1.37582
-1.36258
-1.34422
-1.33414
-1.38989
-1.38667
-1.38195
-1.37559
-1.36819
-1.36029
-1.35215
-1.34389
-1.33285
-1.30417
-1.36439
-1.36235
-1.35844
-1.35261
-1.34587
-1.33898
-1.33233
-1.32585
-1.31793
-1.28414
-1.35139
-1.34903
-1.3445
-1.33774
-1.32975
-1.32151
-1.31385
-1.30657
-1.29736
-1.27614
-1.35129
-1.34731
-1.34168
-1.33446
-1.32646
-1.31873
-1.3122
-1.30746
-1.30504
-1.30767
-1.35914
-1.35352
-1.34763
-1.34228
-1.33819
-1.33625
-1.33732
-1.34218
-1.35201
-1.37033
-1.36668
-1.3606
-1.35631
-1.35564
-1.35903
-1.36683
-1.37927
-1.3965
-1.41884
-1.44735
-1.36247
-1.35808
-1.35746
-1.36314
-1.37514
-1.39311
-1.41659
-1.44514
-1.47829
-1.51566
-1.3327
-1.33185
-1.33562
-1.34687
-1.36534
-1.39034
-1.42107
-1.45673
-1.49654
-1.54046
-1.27016
-1.27329
-1.2807
-1.29538
-1.31718
-1.34537
-1.379
-1.41701
-1.45858
-1.50461
-1.17896
-1.18507
-1.19506
-1.21086
-1.23315
-1.26148
-1.29486
-1.3324
-1.37441
-1.42304
-1.23867
-1.44033
-1.04818
-0.900691
-0.755385
-0.485002
-0.288585
-0.14233
-0.0479552
-0.000789896
-1.31041
-1.56856
-1.09669
-0.854147
-0.686883
-0.454276
-0.28387
-0.141399
-0.0469479
0.000794489
-1.39431
-1.66373
-1.13404
-0.784294
-0.621481
-0.426244
-0.279401
-0.138738
-0.0441034
0.00405253
-1.4923
-1.73083
-1.16326
-0.704383
-0.557609
-0.406428
-0.278103
-0.136233
-0.0407429
0.00844107
-1.60448
-1.81032
-1.189
-0.635215
-0.514584
-0.402946
-0.283709
-0.135599
-0.0382333
0.0130173
-1.71796
-1.90825
-1.21084
-0.596751
-0.501346
-0.419195
-0.297101
-0.13721
-0.0371458
0.0170042
-1.8087
-1.99166
-1.22779
-0.602372
-0.523824
-0.456912
-0.317436
-0.140984
-0.0374609
0.0199782
-1.84668
-2.02537
-1.24467
-0.658023
-0.581725
-0.51391
-0.343186
-0.146778
-0.0389462
0.0217351
-1.81734
-1.9991
-1.26876
-0.754527
-0.673193
-0.579459
-0.37333
-0.154535
-0.0413833
0.0221768
-1.71873
-1.9114
-1.30006
-0.876464
-0.797079
-0.646745
-0.406167
-0.16428
-0.0446259
0.0213219
-1.06957
-0.994753
-0.844633
-0.879988
-0.759303
-0.470373
-0.255662
-0.117598
-0.0370994
0.000949603
-1.05847
-0.976117
-0.833041
-0.882746
-0.772881
-0.479152
-0.259579
-0.119611
-0.0378911
0.00082132
-1.0679
-1.00951
-0.843687
-0.89269
-0.778696
-0.490586
-0.266766
-0.123908
-0.0396677
0.000502848
-1.10409
-1.10383
-0.887227
-0.916696
-0.806259
-0.500114
-0.2764
-0.130417
-0.042482
-0.000123079
-1.17111
-1.27852
-0.964973
-0.912465
-0.780676
-0.501056
-0.286445
-0.138425
-0.046111
-0.000900986
-1.07029
-1.22288
-1.31958
-1.37793
-1.38106
-1.37272
-1.33769
-1.29395
-1.24333
-1.18999
-1.07084
-1.22581
-1.32037
-1.37657
-1.37379
-1.36448
-1.32897
-1.27995
-1.23726
-1.1783
-1.07373
-1.23025
-1.3236
-1.37762
-1.37271
-1.36314
-1.32834
-1.28349
-1.24736
-1.19884
-1.08088
-1.23948
-1.33338
-1.38492
-1.38274
-1.37058
-1.34009
-1.305
-1.27753
-1.25467
-1.09326
-1.2546
-1.35014
-1.3997
-1.4024
-1.38684
-1.36338
-1.33559
-1.31816
-1.3171
1.59487
1.58086
1.55863
1.53178
1.5014
1.46622
1.42527
1.38042
1.34114
1.32163
1.71516
1.71554
1.70817
1.69526
1.67821
1.65645
1.62927
1.59811
1.57055
1.55741
1.83406
1.84091
1.84207
1.839
1.8327
1.82265
1.80805
1.78971
1.77322
1.76583
1.94064
1.95278
1.96145
1.96714
1.97023
1.9701
1.96588
1.95799
1.95054
1.94812
2.03242
2.04859
2.06252
2.07434
2.08415
2.09132
2.09502
2.09535
2.09518
2.09692
2.10336
2.12216
2.14019
2.15707
2.17247
2.18572
2.19598
2.203
2.20859
2.21384
2.15294
2.17357
2.19435
2.21457
2.23359
2.25074
2.26517
2.27649
2.28586
2.29347
2.17925
2.20064
2.22285
2.2449
2.26594
2.28524
2.30198
2.31564
2.32704
2.33594
2.18238
2.2036
2.22591
2.24818
2.26942
2.28891
2.30581
2.31963
2.33116
2.34015
2.16254
2.18258
2.20364
2.2245
2.24417
2.26189
2.27686
2.28868
2.29846
2.30634
-0.894118
-0.946113
-1.01426
-1.09927
-1.20216
-1.32252
-1.45706
-1.59375
-1.70588
-1.75796
-0.618565
-0.67714
-0.750527
-0.839575
-0.945683
-1.06929
-1.20912
-1.35382
-1.47457
-1.53057
-0.305627
-0.370739
-0.449327
-0.541849
-0.649801
-0.774157
-0.913631
-1.05865
-1.18679
-1.24452
0.0202283
-0.0498681
-0.131888
-0.22595
-0.333415
-0.455394
-0.590929
-0.732715
-0.856641
-0.917314
0.334183
0.262257
0.180265
0.0882787
-0.0149713
-0.130832
-0.258845
-0.392483
-0.508174
-0.567008
0.618001
0.549089
0.471921
0.386562
0.291725
0.185907
0.0693016
-0.0522647
-0.157157
-0.2113
0.867506
0.806187
0.738126
0.663219
0.580081
0.487138
0.384447
0.277229
0.184862
0.13705
1.0916
1.03977
0.982377
0.919269
0.848895
0.769639
0.68152
0.5892
0.509774
0.468871
1.30014
1.25697
1.20822
1.15509
1.09621
1.02986
0.955938
0.878376
0.811811
0.777905
1.48147
1.44691
1.40543
1.3614
1.31414
1.26165
1.20319
1.14153
1.08849
1.06177
1.92389
1.83371
1.81045
1.79962
1.79346
1.79694
1.801
1.81988
1.80427
1.73482
1.90668
1.83311
1.81084
1.80137
1.796
1.80145
1.80927
1.8343
1.8399
1.81636
1.89118
1.83152
1.81041
1.80216
1.79763
1.80465
1.81647
1.84902
1.8747
1.89562
1.87727
1.82911
1.80932
1.80207
1.7984
1.80663
1.82191
1.86017
1.9034
1.96027
1.86478
1.82602
1.80769
1.80119
1.7984
1.80748
1.82546
1.86818
1.92568
2.01175
1.85356
1.82237
1.8056
1.79958
1.79765
1.80719
1.82716
1.87297
1.94131
2.04911
1.8435
1.81827
1.8031
1.7973
1.79613
1.80574
1.82705
1.87453
1.95023
2.07271
1.83447
1.81381
1.80024
1.79441
1.79387
1.80313
1.82518
1.87294
1.95255
2.08305
1.82639
1.80911
1.79705
1.79096
1.79088
1.79938
1.82158
1.86832
1.94853
2.0807
1.81914
1.80422
1.79358
1.78698
1.7872
1.7945
1.81627
1.86081
1.93844
2.06582
2.09012
1.83532
1.80169
1.78582
1.78051
1.77824
1.76784
1.76589
1.68627
1.63706
2.0157
1.82943
1.80271
1.78885
1.78248
1.7797
1.76872
1.76729
1.68883
1.63149
1.99282
1.83461
1.80645
1.79191
1.78468
1.78211
1.77181
1.77153
1.7002
1.62708
1.96632
1.83456
1.80835
1.79471
1.78727
1.78574
1.77868
1.78156
1.72272
1.63437
1.94337
1.83402
1.80957
1.79724
1.79019
1.79064
1.78748
1.7972
1.75626
1.65599
1.36238
1.23926
1.07424
0.861421
0.603841
0.310915
-0.00284288
-0.317262
-0.610739
-0.864511
1.35602
1.237
1.07823
0.871439
0.62024
0.331731
0.0185659
-0.299357
-0.59934
-0.860257
1.36558
1.24372
1.08348
0.879458
0.633375
0.348282
0.0348045
-0.286743
-0.59232
-0.859063
1.39815
1.26238
1.09128
0.885969
0.64318
0.360252
0.0457942
-0.279362
-0.589945
-0.862003
1.45636
1.2965
1.1043
0.891093
0.64794
0.366364
0.0518522
-0.275907
-0.591401
-0.869474
)
;

boundaryField
{
    left
    {
        type            zeroGradient;
    }
    right
    {
        type            fixedValue;
        value           uniform 0;
    }
    down
    {
        type            zeroGradient;
    }
    up
    {
        type            zeroGradient;
    }
    cylinder
    {
        type            zeroGradient;
    }
    defaultFaces
    {
        type            empty;
    }
}


// ************************************************************************* //
