/*--------------------------------*- C++ -*----------------------------------*\
  =========                 |
  \\      /  F ield         | OpenFOAM: The Open Source CFD Toolbox
   \\    /   O peration     | Website:  https://openfoam.org
    \\  /    A nd           | Version:  13
     \\/     M anipulation  |
\*---------------------------------------------------------------------------*/
FoamFile
{
    format      ascii;
    class       surfaceScalarField;
    location    "25.4";
    object      phi;
}
// * * * * * * * * * * * * * * * * * * * * * * * * * * * * * * * * * * * * * //

dimensions      [0 3 -1 0 0 0 0];

internalField   nonuniform List<scalar> 
823
(
0.00468488
0.0146888
-0.0193737
0.0351119
-0.00426659
-0.0261604
0.106822
-0.0635864
-0.00812391
0.211601
-0.13576
0.0309812
-0.196958
0.0616672
0.346892
0.0099516
0.00473721
0.0700772
-0.0643922
0.175235
-0.168744
0.29475
-0.255275
-0.328034
0.425827
0.028372
-0.0236348
0.123817
-0.159837
0.236421
-0.281349
0.335632
-0.354486
-0.389858
0.397455
0.0509878
-0.0746226
0.148544
-0.257393
0.224677
-0.357482
0.26519
-0.394998
-0.404058
0.279389
0.0616315
-0.136254
0.128944
-0.324706
0.16378
-0.392317
0.177194
-0.408413
0.186922
-0.413785
-0.0344355
0.0706488
-0.0362133
-0.0916721
0.0972353
-0.0399987
-0.155576
0.103885
-0.0399813
-0.21713
0.103948
-0.0423934
0.0919648
-0.273671
-0.0354232
0.0139741
0.0566747
0.0224574
0.0887519
0.0321386
0.0942037
0.0476511
0.0884351
0.07436
0.0652559
0.023293
0.0333817
0.0530013
0.0590436
0.0848591
0.0623459
0.120787
0.0525072
0.0352452
0.159902
0.0108963
0.0224854
0.0298269
0.040113
0.0530363
0.0391365
0.0834932
0.0220504
-0.00216206
0.1209
0.00311174
0.0170644
0.0480769
0.101109
0.160614
0.20408
-1.06483
0.587079
0.575065
-1.05427
0.683285
0.380863
1.83646
-1.64225
0.407485
0.239371
-0.265992
-0.76152
0.725867
0.416747
-1.41632
0.455587
-1.09311
0.341924
1.95012
0.463079
0.118216
-0.808668
0.314409
-1.57083
0.228718
-1.00742
0.362719
1.81612
0.530871
-0.0499359
-0.859996
-0.000560351
-1.44937
0.0588458
-1.06683
0.495026
1.37994
0.618322
-0.173232
-0.904411
0.079299
-1.36805
0.0635257
-1.05105
0.486469
0.956994
0.683444
-0.370207
-0.949353
1.21044
-1.29514
-1.28335
0.698183
-0.538791
0.878085
0.777092
1.22329
-0.715415
-0.885419
1.03259
-0.899594
-1.42814
0.681756
-0.187958
1.03795
0.420898
1.22711
-0.904576
-0.741561
1.014
-0.556253
-1.35735
0.868905
-0.0428589
1.26956
0.0202428
1.12495
-0.759962
-0.47694
0.955143
-0.257967
-1.25343
0.952085
-0.0398007
1.12525
-0.152925
0.733166
-0.367875
-0.158038
0.558375
-0.816341
0.518574
0.365649
-0.00222637
1.14108
0.153318
-1.10748
1.21631
0.204167
1.30859
0.30517
1.36179
0.372631
0.425327
1.03975
0.0933697
-0.979804
1.11363
0.130287
1.2075
0.211302
1.31913
0.261006
0.316312
0.97322
0.0434222
-0.923273
1.0261
0.0774124
1.11722
0.120177
1.22575
0.152477
0.184715
0.89927
0.00975175
-0.8656
0.951321
0.0253612
1.03116
0.0403421
1.13253
0.0510987
0.0638209
0.635718
-0.625967
0.661079
0.701422
0.75252
0.147297
0.311503
-0.252242
-0.206559
0.0979212
0.315023
-0.265647
0.0551372
0.325431
-0.282647
0.0192732
0.318191
-0.282327
0.207637
-0.188364
0.110013
0.349022
-0.147532
0.0717829
0.353253
0.0373044
0.359909
0.00974126
0.345754
0.217378
0.0751718
0.386209
-0.112358
0.0415076
0.386917
0.0123068
0.38911
-0.00494218
0.363003
0.212436
-0.00571328
0.401519
-0.00959695
-0.0236418
0.404845
-0.0334506
0.398919
-0.0269774
0.35653
0.185458
-0.084062
0.0717956
-0.0876297
-0.0810281
-0.0492044
0.199748
0.108921
-0.252605
-0.0560646
0.145889
0.113619
-0.0597606
0.0905696
0.118853
-0.0635339
0.036761
0.119205
-0.0653962
0.0850322
-0.0482712
0.191354
0.152003
-0.234435
0.145751
0.159222
0.0945598
0.170044
0.040058
0.173707
0.12509
0.142723
0.197966
-0.188686
0.100224
0.201721
0.0601105
0.210158
0.0223376
0.21148
0.147428
0.158981
0.229952
-0.190966
0.119194
0.241507
0.0736324
0.25572
0.0289708
0.256141
0.176399
0.0892167
-0.111507
0.0650773
0.0381505
0.0119649
0.408055
0.0598509
-0.0719264
0.419427
0.0637015
-0.0750731
0.41107
0.17366
-0.165303
0.393177
0.238968
-0.221075
0.491765
-0.351193
0.40531
0.0505201
0.412839
0.056173
0.401418
0.185081
0.378685
0.261701
0.636015
0.397909
0.0485909
0.406896
0.0471854
0.380816
0.211161
0.370385
0.272133
0.817714
0.392706
0.0518647
0.393387
0.046504
0.372607
0.231942
0.342336
0.302403
0.969084
0.383375
0.0644688
0.383834
0.0460459
0.341439
0.274336
0.320386
0.323456
1.17796
0.613626
0.0548629
0.650993
0.00867875
0.700688
0.224642
0.758837
0.265307
0.895159
1.04164
0.621411
0.0374727
0.669543
-0.0394533
0.749339
0.144846
0.753068
0.261578
0.622635
1.02559
0.638172
0.00332074
0.68307
-0.084351
0.732306
0.0956101
0.786839
0.207044
0.378922
1.03055
0.652417
-0.045076
0.642775
-0.0747092
0.691484
0.0469015
0.814272
0.0842564
0.166225
1.02697
0.558944
0.484235
0.531137
0.615393
0.781618
1.07462
-0.239536
1.0602
-0.133118
1.06664
-0.118796
1.06091
-0.0038674
0.0252296
0.974543
-0.188486
0.963214
-0.121789
0.94324
-0.0988229
0.959235
-0.0198625
0.00466058
0.964705
-0.12264
0.939809
-0.0968929
0.907807
-0.0668206
0.917938
-0.0299933
-0.000674448
0.957355
-0.0530258
0.906015
-0.0455528
0.870961
-0.031766
0.861151
-0.0201839
-0.00512284
0.728592
0.683039
0.651273
0.631089
0.0491239
0.139675
-0.188799
0.0741433
0.315099
-0.340118
0.0746423
0.371259
-0.371758
0.0643911
0.375556
-0.365305
0.344637
0.0515256
-0.331771
0.0711179
0.0685568
0.144967
0.24125
0.180261
0.335965
0.18454
0.371277
0.36522
0.163957
0.05802
0.0105368
0.173691
0.125579
0.270419
0.239237
0.336715
0.304981
0.360325
0.34161
0.0264605
-0.0159238
0.125076
0.0269634
0.249689
0.114624
0.374407
0.180263
0.258576
0.476156
0.00416369
-0.0200874
0.0512999
-0.0201728
0.151749
0.0141754
0.277928
0.054084
0.10928
0.427223
-0.00431648
-0.015771
0.00634321
-0.0308325
0.0516267
-0.0311081
0.127658
-0.021947
0.0142657
0.222672
-0.00553095
-0.01024
-0.00842866
-0.0279348
0.00235119
-0.0418879
0.0288876
-0.0484835
-0.0381922
0.0813456
-0.00540393
-0.00483609
-0.0103497
-0.022989
-0.0114307
-0.0408069
-0.00776026
-0.052154
-0.0543247
0.00837226
-0.0111747
0.00633865
-0.0268271
-0.00733668
-0.0473049
-0.0203291
-0.0737622
-0.0256966
-0.0292616
-0.0988253
-0.0298746
-0.07721
-0.13752
-0.20561
-0.270295
0.379188
0.78506
-0.941575
0.37804
0.448175
-0.447027
0.144496
0.699053
-0.465509
0.0617238
-0.0517893
0.134561
-0.57329
0.485977
0.413034
0.453372
0.498186
0.363023
0.260901
0.936338
0.137893
0.0712182
-0.625104
0.352907
0.108837
0.536987
0.178942
0.306719
1.16661
0.20135
0.176587
-0.665434
0.214766
-0.204754
0.574091
-0.180382
0.342349
1.39835
0.278917
0.240019
-0.696329
0.112029
0.614932
0.371027
0.345054
-0.0355331
0.643446
-0.607913
-0.153399
0.117866
-0.186276
0.032877
-0.0348711
-0.151405
-0.231347
0.779081
-1.07721
0.449919
0.0172873
0.000443914
0.0835878
-0.0135871
-0.0700007
0.13769
-0.0541021
0.24644
-0.10875
0.403385
-0.156945
-0.204528
0.192589
-0.15465
0.302444
0.535303
0.854514
0.137462
-0.13272
0.162843
-0.167584
0.104689
-0.137738
0.170511
0.0674904
-0.144342
0.181541
0.0274325
-0.143206
0.183264
-0.0988351
0.126268
0.178018
-0.0942265
-0.216512
0.134774
-0.0944936
0.0856594
-0.0952284
0.0352116
-0.0927579
-0.0636235
0.182949
-0.045178
-0.231998
0.132626
-0.04417
0.0817086
-0.0443114
0.0329379
-0.0439871
-0.0306856
0.198551
0.00555375
-0.249283
0.147056
0.00732526
0.0937785
0.00896603
0.0394167
0.0103747
0.00873105
0.201565
-0.252076
0.14913
0.0945617
0.0395401
0.0377221
-0.31132
-0.0581732
0.0134361
-0.341019
-0.00813416
-0.350188
-0.0164219
-0.33183
-0.205221
0.119473
-0.281605
-0.149187
0.0777773
-0.299323
0.0371018
-0.309513
0.00698447
-0.301713
-0.198236
0.137603
-0.242589
-0.176619
0.0964136
-0.258134
0.0560918
-0.269191
0.0196329
-0.265254
-0.178603
0.156669
-0.208336
-0.190922
0.114838
-0.216304
0.0699544
-0.224307
0.0274565
-0.222756
-0.151147
0.15293
-0.198423
0.107138
0.0643719
0.0248791
0.388884
0.106793
-0.0996969
0.385893
0.105346
-0.102355
0.353234
0.155136
-0.122478
0.296109
0.0765848
-0.0194592
-0.193339
0.321863
0.397443
0.105329
0.400825
0.101964
0.393147
0.162814
0.34316
0.126572
-0.0666906
0.403079
0.0982301
0.411226
0.0938169
0.40853
0.165511
0.368943
0.166158
0.0702548
0.408141
0.0860688
0.417176
0.0847822
0.418493
0.164193
0.388175
0.196476
0.209147
0.410122
0.419831
0.418721
0.394122
0.413322
0.0967288
0.326741
0.0865814
0.239145
0.0875955
0.235464
0.00368158
-0.175335
0.410799
0.507083
0.491309
0.456427
0.440649
0.587177
0.328942
0.0818571
0.255767
0.073175
0.16998
0.0857868
0.0983546
0.0716254
0.028354
0.470611
0.352864
0.262032
0.18447
)
;

boundaryField
{
    left
    {
        type            calculated;
        value           nonuniform List<scalar> 
17
(
-0.60402
-0.60402
-0.60402
-0.60402
-0.60402
-0.39598
-0.39598
-0.39598
-0.39598
-0.39598
-0.39598
-0.39598
-0.39598
-0.39598
-0.39598
-0.510051
-0.510051
)
;
    }
    right
    {
        type            calculated;
        value           nonuniform List<scalar> 
17
(
0.196476
0.255073
0.149037
0.189708
0.24168
0.309812
0.374591
0.443138
0.510226
0.582199
0.662737
0.728386
1.15936
1.08325
0.860325
0.414264
-0.160265
)
;
    }
    down
    {
        type            calculated;
        value           uniform 0;
    }
    up
    {
        type            calculated;
        value           uniform 0;
    }
    cylinder
    {
        type            calculated;
        value           uniform 0;
    }
    defaultFaces
    {
        type            empty;
    }
}


// ************************************************************************* //
