/*--------------------------------*- C++ -*----------------------------------*\
  =========                 |
  \\      /  F ield         | OpenFOAM: The Open Source CFD Toolbox
   \\    /   O peration     | Website:  https://openfoam.org
    \\  /    A nd           | Version:  13
     \\/     M anipulation  |
\*---------------------------------------------------------------------------*/
FoamFile
{
    format      ascii;
    class       volScalarField;
    location    "5.21";
    object      p;
}
// * * * * * * * * * * * * * * * * * * * * * * * * * * * * * * * * * * * * * //

dimensions      [0 2 -2 0 0 0 0];

internalField   nonuniform List<scalar> 
440
(
-0.639656
-0.619454
-0.631038
-0.588104
-0.690298
-0.684687
-0.667012
-0.647114
-0.6201
-0.613598
-0.790225
-0.762772
-0.732564
-0.697295
-0.661383
-0.917902
-0.875357
-0.806439
-0.723219
-0.639369
-1.0242
-0.967681
-0.841077
-0.705275
-0.578033
-0.921414
-0.93151
-0.953602
-0.982908
-1.00545
-0.750588
-0.759131
-0.77526
-0.792968
-0.80392
-0.664431
-0.665192
-0.667624
-0.670228
-0.671637
-0.651198
-0.642897
-0.635701
-0.622893
-0.604877
-0.60444
-0.595908
-0.585138
-0.549804
-0.549509
-0.996845
-1.03363
-0.767039
-0.335159
-0.002632
-0.861163
-1.0634
-0.893503
-0.369851
-0.00926153
-0.748633
-1.07289
-0.960487
-0.403663
-0.0191396
-0.659546
-1.03317
-0.945979
-0.419136
-0.0362694
-0.597242
-1.01261
-0.904813
-0.428472
-0.0632855
-0.41142
-0.96939
-0.840129
-0.428379
-0.101105
-0.352277
-0.767302
-0.686951
-0.414676
-0.139031
-0.319388
-0.550337
-0.533873
-0.395363
-0.165183
-0.233967
-0.384953
-0.457684
-0.384595
-0.156746
-0.187158
-0.24802
-0.349574
-0.394973
-0.166284
-0.357333
-0.481665
-0.626883
-0.764482
-0.82336
-0.133404
-0.268129
-0.347271
-0.39915
-0.402003
0.00782633
-0.108297
-0.186439
-0.249005
-0.28784
0.099975
-0.00943901
-0.0993745
-0.161632
-0.20414
0.148696
0.0368087
-0.0552055
-0.113878
-0.153247
0.885202
0.734278
0.542243
0.331994
0.102819
0.482592
0.321117
0.123167
-0.0946688
-0.331167
0.0936388
-0.0683638
-0.270424
-0.495478
-0.694636
-0.233245
-0.395327
-0.588559
-0.795655
-0.943607
-0.445044
-0.600128
-0.774533
-0.952209
-1.04602
2.04378
2.07634
2.10592
2.12061
2.11677
1.85076
1.87359
1.89248
1.89394
1.87249
1.63125
1.61689
1.57979
1.52031
1.43351
1.3762
1.34147
1.27006
1.16619
1.03222
1.12778
1.02463
0.889595
0.73407
0.544263
1.76295
1.75637
1.7504
1.82468
1.91859
1.75296
1.74619
1.73158
1.80352
1.8297
1.74397
1.73303
1.70924
1.77266
1.72694
1.73619
1.7174
1.68535
1.72003
1.55831
1.72957
1.70138
1.65982
1.67023
1.38055
1.72425
1.6778
1.62669
1.56303
1.18647
1.72182
1.64776
1.61652
1.41803
1.24201
1.72938
1.63557
1.61039
1.35606
1.2683
1.72667
1.6052
1.60171
1.31511
1.30219
1.76293
1.60517
1.59888
1.27914
1.354
0.85249
0.564946
0.24471
-0.0234925
-0.206608
0.771765
0.573904
0.362094
0.176794
0.00896984
0.77349
0.608455
0.444411
0.291102
0.141
0.845051
0.678437
0.519516
0.370961
0.231289
0.904088
0.729164
0.569907
0.420403
0.285143
-1.67678
-1.52388
-1.34906
-1.207
-1.1231
-1.75684
-1.68624
-1.55382
-1.44458
-1.3782
-1.68382
-1.634
-1.55226
-1.48245
-1.43334
-1.52865
-1.48549
-1.43972
-1.4009
-1.37032
-1.39074
-1.36528
-1.33995
-1.32395
-1.32732
-1.32444
-1.30943
-1.28881
-1.29992
-1.27931
-1.2973
-1.28516
-1.2723
-1.27557
-1.27461
-1.29144
-1.28353
-1.27926
-1.28555
-1.30328
-1.2502
-1.25465
-1.27211
-1.3031
-1.34071
-1.10536
-1.11536
-1.13969
-1.17722
-1.21272
-1.26944
-0.794043
-0.375626
-0.151312
-0.00934196
-1.27742
-0.750478
-0.359122
-0.149461
-0.00347683
-1.25404
-0.775383
-0.391558
-0.187378
0.000933835
-1.25336
-0.882432
-0.478419
-0.253365
0.00250266
-1.15371
-0.977797
-0.612324
-0.302258
0.00121784
-0.859558
-0.910958
-0.495
-0.170772
-0.0147754
-1.15082
-0.854899
-0.411495
-0.151087
-0.0116696
-1.07432
-1.3416
-1.38906
-1.3482
-1.14733
-1.09467
-1.3493
-1.40274
-1.34666
-1.32026
1.63854
1.61295
1.56951
1.50855
1.42686
1.84053
1.85924
1.86246
1.84829
1.81711
2.0142
2.04702
2.07231
2.08484
2.08246
2.1166
2.15729
2.20057
2.23577
2.25168
2.12603
2.1647
2.20763
2.24307
2.25919
-0.632507
-0.74158
-0.913878
-1.12096
-1.36756
0.00520865
-0.136549
-0.324161
-0.549394
-0.84006
0.584367
0.437971
0.263138
0.0564677
-0.206042
1.04586
0.931889
0.79388
0.625873
0.420259
1.41884
1.33779
1.23297
1.10809
0.961027
1.82617
1.78781
1.78288
1.79127
1.80264
1.81072
1.78378
1.78294
1.81106
1.87185
1.7975
1.77879
1.78208
1.83248
1.95097
1.78514
1.77266
1.77612
1.84019
1.96491
1.77357
1.76558
1.76536
1.83782
1.96015
1.88127
1.79507
1.76889
1.71427
1.663
1.83685
1.78475
1.76626
1.73608
1.67891
1.29432
1.05509
0.645319
0.0517546
-0.600682
1.38261
1.091
0.664424
0.0742964
-0.591788
)
;

boundaryField
{
    left
    {
        type            zeroGradient;
    }
    right
    {
        type            fixedValue;
        value           uniform 0;
    }
    down
    {
        type            zeroGradient;
    }
    up
    {
        type            zeroGradient;
    }
    cylinder
    {
        type            zeroGradient;
    }
    defaultFaces
    {
        type            empty;
    }
}


// ************************************************************************* //
