/*--------------------------------*- C++ -*----------------------------------*\
  =========                 |
  \\      /  F ield         | OpenFOAM: The Open Source CFD Toolbox
   \\    /   O peration     | Website:  https://openfoam.org
    \\  /    A nd           | Version:  13
     \\/     M anipulation  |
\*---------------------------------------------------------------------------*/
FoamFile
{
    format      ascii;
    class       surfaceScalarField;
    location    "0.795";
    object      phi;
}
// * * * * * * * * * * * * * * * * * * * * * * * * * * * * * * * * * * * * * //

dimensions      [0 3 -1 0 0 0 0];

internalField   nonuniform List<scalar> 
3485
(
0.00137166
-0.011258
0.00988632
0.00505114
-0.0319068
0.0282273
0.0107642
-0.0513829
0.0456699
0.0183125
-0.0696769
0.0621286
0.0275453
-0.0868351
0.0776023
0.0383483
-0.102901
0.0920982
0.0506329
-0.117906
0.105622
0.064356
-0.131871
0.118148
0.0796151
-0.144862
0.129602
-0.156895
0.139504
0.0970061
0.00150033
-0.0127583
0.00544581
-0.0358522
0.0114762
-0.0574132
0.0193235
-0.0775243
0.0287727
-0.0962843
0.0396465
-0.113775
0.0518006
-0.13006
0.0651272
-0.145197
0.0795345
-0.159269
-0.172198
0.0948366
0.00147418
-0.0142325
0.00532698
-0.039705
0.0111745
-0.0632607
0.0187208
-0.0850706
0.0277252
-0.105289
0.0379883
-0.124038
0.0493441
-0.141416
0.0616531
-0.157506
0.0747832
-0.172399
-0.186037
0.0886228
0.00133886
-0.0155714
0.00485903
-0.0432252
0.0102108
-0.0686125
0.017117
-0.0919768
0.0253538
-0.113525
0.0347401
-0.133424
0.0451299
-0.151806
0.0564033
-0.16878
0.0684534
-0.184449
-0.198791
0.0812069
0.00116693
-0.0167383
0.00425599
-0.0463142
0.00897313
-0.0733297
0.0150817
-0.0980853
0.0223916
-0.120835
0.0307522
-0.141785
0.0400459
-0.1611
0.0501798
-0.178914
0.0610765
-0.195346
-0.210402
0.072688
0.000980023
-0.0177183
0.00358795
-0.0489222
0.00758659
-0.0773283
0.0127839
-0.103283
0.019026
-0.127078
0.0261924
-0.148951
0.0341912
-0.169099
0.0429531
-0.187676
0.0524229
-0.204816
-0.220549
0.0625698
0.000780725
-0.018499
0.002865
-0.0510064
0.00606897
-0.0805323
0.0102428
-0.107456
0.0152665
-0.132101
0.0210466
-0.154732
0.0275141
-0.175566
0.0346202
-0.194782
0.0423309
-0.212526
-0.228851
0.0506324
0.000569702
-0.0190687
0.00209345
-0.0525302
0.00443786
-0.0828767
0.00749265
-0.110511
0.0111686
-0.135777
0.0153968
-0.15896
0.0201274
-0.180297
0.0253293
-0.199984
0.0309863
-0.218183
-0.234967
0.0371028
0.000352506
-0.0194212
0.00129576
-0.0534734
0.002745
-0.0843259
0.00462831
-0.112395
0.00688644
-0.138035
0.00947304
-0.161546
0.0123552
-0.183179
0.0155142
-0.203143
0.0189447
-0.221614
-0.238684
0.0226614
0.000137794
-0.019559
0.000502458
-0.0538381
0.00105696
-0.0848804
0.00176952
-0.113107
0.0026137
-0.138879
0.00356837
-0.162501
0.00461807
-0.184229
0.00575327
-0.204278
0.00697053
-0.222831
0.00827493
-0.239988
0.000488096
-0.00186899
0.00138089
0.00208809
-0.00625524
0.00465524
0.00542974
-0.0114241
0.00808242
0.0101183
-0.0161989
0.0115103
0.0155432
-0.0201917
0.0147668
0.021441
-0.0235875
0.0176897
0.0279077
-0.0267684
0.0203017
0.0350917
-0.0299631
0.0227791
0.0429778
-0.0331236
0.0252374
-0.0360976
0.0514323
0.0276432
0.000426939
-0.00229593
0.00211086
-0.00793917
0.00543833
-0.0147515
0.0098155
-0.0205761
0.0148874
-0.0252636
0.0207636
-0.0294637
0.0276172
-0.033622
0.0353962
-0.0377422
0.0438892
-0.0416166
-0.0451395
0.0529311
0.000682803
-0.00297873
0.00271659
-0.00997296
0.00578009
-0.017815
0.00976228
-0.0245583
0.0148161
-0.0303174
0.0211141
-0.0357617
0.0285873
-0.0410952
0.0369559
-0.0461108
0.046001
-0.0506616
-0.0547699
0.0556314
0.000868512
-0.00384725
0.00306125
-0.0121657
0.00607918
-0.020833
0.0102007
-0.0286798
0.0156991
-0.0358157
0.0225573
-0.04262
0.0305332
-0.0490711
0.0393899
-0.0549675
0.0490323
-0.060304
-0.0651162
0.0593785
0.000923243
-0.00477049
0.00320089
-0.0144433
0.00651924
-0.0241513
0.0111172
-0.0332778
0.0171355
-0.041834
0.0244489
-0.0499333
0.0328653
-0.0574875
0.0422874
-0.0643896
0.0526523
-0.0706689
-0.0762914
0.0638276
0.000944034
-0.00571452
0.00337296
-0.0168723
0.00709158
-0.0278699
0.0121746
-0.0383608
0.0186331
-0.0482925
0.0263557
-0.057656
0.0352453
-0.0663771
0.0452548
-0.0743991
0.0563058
-0.0817199
-0.088226
0.0682404
0.000980062
-0.00669458
0.00358422
-0.0194764
0.00764144
-0.0319272
0.0131071
-0.0438265
0.0199256
-0.055111
0.0280106
-0.065741
0.0372999
-0.0756664
0.0477476
-0.0848468
0.0592806
-0.0932529
-0.1007
0.0717541
0.00101808
-0.00771266
0.00376788
-0.0222262
0.0080712
-0.0362305
0.0138198
-0.049575
0.0209192
-0.0622104
0.0292805
-0.0741022
0.038834
-0.08522
0.0495232
-0.0955359
0.0612894
-0.105019
-0.113443
0.0740324
0.00105467
-0.00876733
0.00393681
-0.0251084
0.00846103
-0.0407547
0.014482
-0.055596
0.0218735
-0.069602
0.0305252
-0.0827539
0.0403418
-0.0950366
0.0512344
-0.106429
0.0631222
-0.116907
-0.126321
0.0760004
0.00111899
0.00423788
0.00915307
0.0156857
0.023686
0.0330303
0.0436155
0.0553348
0.0680303
0.081214
0.114336
-0.414568
0.351664
0.168143
-0.471843
0.418036
0.210284
-0.421959
0.379818
0.244155
-0.326685
0.292814
0.270946
-0.21432
0.18753
0.291506
-0.109813
0.0892527
0.304854
-0.030776
0.0174281
0.309792
0.0121455
-0.0170842
0.310108
0.0249876
-0.0253037
0.02012
-0.0187524
0.115916
-0.477553
0.169702
-0.525629
0.211816
-0.464072
0.245431
-0.3603
0.272369
-0.241259
0.293718
-0.131162
0.309786
-0.0468436
0.318613
0.00331851
0.322037
0.0215636
0.0199042
0.117724
-0.539646
0.170527
-0.578432
0.212234
-0.505779
0.245236
-0.393302
0.272038
-0.268062
0.293691
-0.152814
0.31127
-0.0644227
0.323458
-0.00886958
0.331088
0.013933
0.0169365
0.120104
-0.600372
0.170894
-0.629221
0.211717
-0.546602
0.243799
-0.425384
0.270198
-0.29446
0.291916
-0.174532
0.310242
-0.0827486
0.324091
-0.0227189
0.335847
0.0021768
0.00927801
0.123002
-0.659547
0.171006
-0.677225
0.210396
-0.585991
0.24131
-0.456299
0.26704
-0.32019
0.288693
-0.196185
0.307477
-0.101532
0.322133
-0.0373749
0.336403
-0.0120934
-0.00234775
0.12586
-0.717167
0.170891
-0.722256
0.208353
-0.623453
0.237908
-0.485853
0.262714
-0.344996
0.284197
-0.217669
0.303305
-0.12064
0.318763
-0.0528328
0.33355
-0.02688
-0.0142694
0.127799
-0.773212
0.170364
-0.764821
0.205637
-0.658726
0.233708
-0.513924
0.257361
-0.368649
0.278526
-0.238834
0.297879
-0.139993
0.314446
-0.0694002
0.327997
-0.0404302
-0.0232221
0.127881
-0.827061
0.168943
-0.805883
0.202109
-0.691892
0.22868
-0.540495
0.251034
-0.391003
0.271678
-0.259478
0.291379
-0.159695
0.30816
-0.086181
0.318995
-0.0512648
-0.0295472
0.125803
-0.876863
0.166218
-0.846299
0.197717
-0.723391
0.222908
-0.565686
0.24386
-0.411955
0.263626
-0.279244
0.283336
-0.179405
0.298036
-0.100881
0.305585
-0.0588134
-0.0357076
0.12212
-0.917768
0.161392
-0.885571
0.19159
-0.753589
0.215685
-0.589781
0.235328
-0.431598
0.254349
-0.298266
0.271339
-0.196395
0.283089
-0.112631
0.290317
-0.066041
-0.0422937
0.583952
-0.920244
-0.581476
0.561182
-0.862801
0.523948
-0.716355
0.487872
-0.553705
0.460503
-0.404229
0.444086
-0.281848
0.432852
-0.185161
0.427047
-0.106826
0.423799
-0.0627928
-0.0407699
0.682867
-0.871651
-0.73146
0.619679
-0.799613
0.553867
-0.650543
0.496296
-0.496134
0.450738
-0.358671
0.418806
-0.249917
0.399318
-0.165673
0.390425
-0.0979334
0.38542
-0.057788
-0.0377725
0.753987
-0.775211
-0.850428
0.655087
-0.700712
0.563367
-0.558822
0.487271
-0.420038
0.42932
-0.30072
0.389117
-0.209714
0.364091
-0.140646
0.351662
-0.0855047
0.34495
-0.0510761
-0.0335796
0.778973
-0.641702
-0.912481
0.653706
-0.575446
0.546205
-0.451321
0.460909
-0.334742
0.397895
-0.237707
0.354124
-0.165942
0.326056
-0.112578
0.311036
-0.0704848
0.302808
-0.0428483
-0.028443
0.752967
-0.492442
-0.902228
0.617538
-0.440017
0.506141
-0.339924
0.42003
-0.248631
0.357422
-0.175098
0.313851
-0.122371
0.285202
-0.0839295
0.268756
-0.0540382
0.25941
-0.0335024
-0.0226306
0.685098
-0.345839
-0.8317
0.55269
-0.307609
0.446432
-0.233667
0.365961
-0.168159
0.308224
-0.117361
0.268017
-0.0821649
0.241046
-0.0569584
0.224659
-0.0376504
0.214897
-0.0237409
-0.0165169
0.582616
-0.213863
-0.714592
0.462885
-0.187878
0.369309
-0.140091
0.299929
-0.0987791
0.250871
-0.0683033
0.216705
-0.0479984
0.193384
-0.0336381
0.178545
-0.0228108
0.169295
-0.0144907
-0.0105902
0.448758
-0.105524
-0.557096
0.351177
-0.0902969
0.277054
-0.0659677
0.223522
-0.0452477
0.186253
-0.0310338
0.160251
-0.0219965
0.142207
-0.0155944
0.130275
-0.010878
0.122575
-0.0067912
-0.00542712
0.286591
-0.0302208
-0.361894
0.220909
-0.0246156
0.172488
-0.0175467
0.13871
-0.0114697
0.115474
-0.00779684
0.0991108
-0.00563371
0.0875718
-0.00405546
0.0796729
-0.00297913
0.0745985
-0.00171683
-0.00167333
0.101315
-0.131536
0.0766999
0.0591532
0.0476835
0.0398867
0.034253
0.0301975
0.0272184
0.0255015
0.738821
0.0102223
-0.740768
0.733075
0.0284074
0.723436
0.0467416
0.710163
0.0639055
0.69357
0.0791627
0.674076
0.0921816
0.652273
0.103011
0.628713
0.112183
0.604268
0.119281
0.119799
0.845548
0.0133982
-0.848724
0.837321
0.0366346
0.827288
0.0567751
0.816593
0.0745998
0.80525
0.0905056
0.792896
0.104536
0.779283
0.116624
0.764587
0.126879
0.749122
0.134745
0.137461
0.844982
0.0114254
-0.843009
0.848882
0.0327349
0.853019
0.052638
0.85647
0.0711484
0.858832
0.0881441
0.859919
0.103449
0.859595
0.116948
0.857966
0.128507
0.855299
0.137412
0.142332
0.800213
0.00930449
-0.798092
0.80582
0.0271271
0.814418
0.0440406
0.825636
0.0599304
0.839001
0.0747795
0.853849
0.0886002
0.869418
0.101379
0.885052
0.112873
0.899937
0.122527
0.129788
0.737866
0.00703878
-0.7356
0.744154
0.0208385
0.754123
0.0340715
0.767503
0.0465502
0.784083
0.0581999
0.803661
0.0690225
0.825988
0.0790512
0.850622
0.0882398
0.876542
0.0966064
0.104103
0.653921
0.004854
-0.651736
0.660203
0.0145561
0.670378
0.0238963
0.684221
0.0327074
0.701525
0.040896
0.722111
0.0484359
0.745806
0.0553568
0.77233
0.061716
0.801217
0.0677189
0.0736191
0.549112
0.0029161
-0.547174
0.554812
0.00885591
0.564138
0.0145706
0.576905
0.01994
0.592915
0.0248867
0.611968
0.0293826
0.633871
0.033454
0.658407
0.0371801
0.685379
0.0407462
0.044406
0.422793
0.00137573
-0.421252
0.427413
0.00423595
0.435008
0.00697561
0.445422
0.00952586
0.45847
0.0118387
0.473957
0.0138957
0.491697
0.0157138
0.511527
0.0173497
0.533346
0.0189271
0.0206561
0.273828
0.000366661
-0.272819
0.276915
0.00114944
0.281999
0.00189174
0.288955
0.00256941
0.297629
0.00316446
0.307856
0.00366914
0.319482
0.00408805
0.332395
0.00443667
0.346561
0.00476039
0.0053232
0.100484
-0.100117
0.101633
0.103525
0.106094
0.109259
0.112928
0.117016
0.121453
0.126213
0.0779303
0.159504
-0.142491
-0.0949433
0.0630267
0.14746
-0.132556
0.0496177
0.134406
-0.120997
0.0376028
0.120332
-0.108317
0.0270261
0.105171
-0.0945938
0.0179776
0.0888943
-0.0798458
0.0105727
0.0714605
-0.0640556
0.00496324
0.0528094
-0.0471999
0.001348
0.0328743
-0.0292591
0.011639
-0.010291
0.0779401
0.174433
-0.0928698
0.0638706
0.161529
0.0508394
0.147437
0.0389379
0.132234
0.028276
0.115832
0.0190002
0.09817
0.0112895
0.0791712
0.00535957
0.0587394
0.00147721
0.0367567
0.0131162
0.0731792
0.187928
-0.0866739
0.0603699
0.174339
0.0483503
0.159456
0.0372487
0.143335
0.0272031
0.125878
0.0183793
0.106994
0.0109766
0.0865738
0.00523535
0.0644806
0.00144963
0.0405424
0.0145658
0.0667709
0.200353
-0.0791958
0.0550331
0.186076
0.0440494
0.17044
0.0339217
0.153463
0.0247665
0.135033
0.016727
0.115033
0.00998166
0.0933191
0.00475147
0.0697108
0.00130965
0.0439842
0.0158755
0.0593124
0.211657
-0.0706162
0.0487153
0.196674
0.0388674
0.180288
0.0298412
0.162489
0.0217243
0.14315
0.0146296
0.122128
0.00870232
0.0992464
0.00412644
0.0742867
0.00113096
0.0469797
0.0170064
0.0505981
0.221521
-0.0604621
0.041411
0.205861
0.0329275
0.188772
0.0251972
0.170219
0.0182837
0.150064
0.0122721
0.12814
0.00727495
0.104244
0.00343653
0.0781251
0.000937282
0.0494789
0.0179437
0.0404572
0.229564
-0.0485002
0.0330127
0.213305
0.0261764
0.195608
0.0199773
0.176418
0.0144574
0.155583
0.00967743
0.13292
0.00572043
0.108201
0.00269376
0.0811518
0.000731838
0.0514409
0.0186755
0.0290541
0.235441
-0.0349317
0.0236512
0.218708
0.0187147
0.200544
0.0142551
0.180878
0.0102962
0.159542
0.00687751
0.136338
0.00405559
0.111022
0.00190427
0.0833031
0.000515281
0.0528298
0.0191908
0.0169174
0.238926
-0.0204019
0.0137418
0.221884
0.0108549
0.203431
0.0082548
0.183478
0.00595147
0.161846
0.00396649
0.138323
0.00233218
0.112657
0.00109066
0.0845447
0.000293241
0.0536273
0.0194841
0.00482784
-0.00589044
0.00388042
0.00303403
0.0022834
0.00162816
0.00107201
0.000621618
0.000285828
7.49712e-05
0.0436672
0.0414093
-0.0525655
-0.032511
0.0352886
0.03836
-0.0299815
0.0276169
0.03496
-0.0272882
0.020879
0.0313444
-0.0246065
0.0150777
0.0277762
-0.0219749
0.00997146
0.0242175
-0.0191113
0.00544184
0.0200813
-0.0155517
0.00197575
0.014469
-0.0110029
0.000386703
0.00739792
-0.00580887
0.00208866
-0.00170196
0.0437644
0.0505826
-0.0529377
0.0351105
0.0470139
0.027067
0.0430035
0.0199166
0.0384948
0.0139763
0.0337165
0.00925384
0.02894
0.00550434
0.0238308
0.00257601
0.0173973
0.000621762
0.00935217
0.00271043
0.0449415
0.0601413
-0.0545003
0.036016
0.0559394
0.0277748
0.0512447
0.0203344
0.0459352
0.0140207
0.0400301
0.00909883
0.0338619
0.00551502
0.0274146
0.00289219
0.0200201
0.000809545
0.0114348
0.00351997
0.047366
0.0703291
-0.0575537
0.0379292
0.0653762
0.0293584
0.0598156
0.0216913
0.0536022
0.0150532
0.0466683
0.00970283
0.0392122
0.00576229
0.0313551
0.00295899
0.0228234
0.000875015
0.0135188
0.00439499
0.0508314
0.0812558
-0.0617582
0.0407272
0.0754804
0.0316097
0.0689331
0.0235411
0.0616708
0.0165444
0.053665
0.0107464
0.0450103
0.00628213
0.0358194
0.00306154
0.026044
0.000880372
0.0157
0.00527536
0.054529
0.0928531
-0.0661263
0.0438077
0.0862017
0.0341253
0.0786155
0.0255568
0.0702393
0.0181239
0.0610978
0.0118829
0.0512514
0.00692865
0.0407736
0.00327857
0.0296941
0.000908531
0.01807
0.00618389
0.0575832
0.104935
-0.0696651
0.0464235
0.0973614
0.0363203
0.0887187
0.0273338
0.0792259
0.0194997
0.0689319
0.0128686
0.0578825
0.00751996
0.0461222
0.00352522
0.0336888
0.000959615
0.0206356
0.00714351
0.0596402
0.117262
-0.0719673
0.0482628
0.108739
0.0379205
0.0990611
0.0286583
0.0884881
0.0205281
0.0770621
0.0135988
0.0648118
0.00796158
0.0517594
0.0037218
0.0379286
0.00100531
0.0233521
0.00814881
0.0614541
0.129716
-0.073908
0.0499565
0.120236
0.0394073
0.10961
0.0298782
0.0980171
0.0214555
0.0854849
0.0142361
0.0720312
0.00833451
0.057661
0.00388456
0.0423786
0.0010419
0.0261947
0.00919072
0.0663103
-0.0790849
0.0539906
0.0426041
0.0323041
0.0231952
0.0153806
0.00898595
0.0041646
0.00110025
0.213817
0.0619239
-0.0777508
0.236505
0.0901743
-0.112862
0.261042
0.123661
-0.148199
0.276964
0.112627
-0.128549
0.276141
0.109639
-0.108816
0.25315
0.178707
-0.155716
0.218923
0.293655
-0.259428
0.174856
0.412536
-0.36847
0.118423
0.494656
-0.438223
0.461687
-0.39583
0.213172
0.0467421
0.234754
0.0685923
0.258381
0.100034
0.274908
0.0960999
0.275699
0.108849
0.253532
0.200874
0.219137
0.32805
0.174616
0.457057
0.118093
0.551179
0.526842
0.212924
0.0318078
0.233651
0.0478655
0.256415
0.0772703
0.272948
0.0795663
0.274063
0.107735
0.25234
0.222596
0.217904
0.362486
0.173316
0.501645
0.117883
0.606612
0.590225
0.213002
0.016796
0.233199
0.0276676
0.255212
0.0552577
0.27131
0.0634685
0.27155
0.107494
0.24971
0.244437
0.215383
0.396813
0.171346
0.545683
0.118385
0.659573
0.651057
0.213288
0.00149812
0.233255
0.00770059
0.254571
0.0339417
0.269613
0.0484259
0.268064
0.109044
0.245704
0.266796
0.211769
0.430748
0.169122
0.588329
0.119731
0.708964
0.709029
0.213648
-0.0141605
0.233602
-0.0122527
0.254174
0.0133695
0.267501
0.0350993
0.263494
0.113051
0.240431
0.289859
0.207317
0.463862
0.16692
0.628726
0.121458
0.754426
0.764361
0.213921
-0.0300915
0.234038
-0.0323697
0.253741
-0.0063336
0.264741
0.0240993
0.257814
0.119977
0.234097
0.313576
0.202306
0.495654
0.164724
0.666308
0.122675
0.796475
0.81737
0.213977
-0.0460787
0.234432
-0.0528248
0.253046
-0.0249478
0.261101
0.016045
0.250947
0.130131
0.226824
0.3377
0.196785
0.525693
0.162106
0.700986
0.122357
0.836225
0.86776
0.213807
-0.0618955
0.234756
-0.0737741
0.25196
-0.0421518
0.256607
0.0113978
0.24315
0.143588
0.218976
0.361873
0.190869
0.5538
0.158641
0.733215
0.120108
0.874757
0.91396
0.213678
-0.0775833
0.234968
-0.095064
0.250467
-0.0576513
0.250917
0.0109476
0.233891
0.160614
0.20992
0.385845
0.183631
0.580089
0.153455
0.763391
0.116432
0.91178
0.951307
0.331908
-0.107481
0.370525
-0.133682
0.406913
-0.0940391
0.424417
-0.00655565
0.438947
0.146084
0.467429
0.357362
0.506596
0.540922
0.54958
0.720407
0.581371
0.87999
0.946176
0.586501
0.333585
-0.139056
0.373094
-0.17319
0.408243
-0.129188
0.422237
-0.0205496
0.435616
0.132705
0.475963
0.317015
0.534294
0.482591
0.60447
0.650231
0.675401
0.809059
0.888593
0.732985
0.336306
-0.173352
0.375312
-0.212196
0.408591
-0.162467
0.41739
-0.0293481
0.42749
0.122604
0.474015
0.27049
0.546503
0.410103
0.638823
0.55791
0.74229
0.705592
0.784467
0.846416
0.34047
-0.211812
0.373323
-0.245049
0.384189
-0.173333
0.380698
-0.0258574
0.399052
0.104251
0.452935
0.216607
0.534149
0.328889
0.640529
0.45153
0.767089
0.579032
0.647059
0.904497
0.348498
-0.2583
0.35652
-0.253071
0.337461
-0.154274
0.334324
-0.022721
0.358614
0.0799609
0.414046
0.161175
0.497259
0.245676
0.607886
0.340903
0.743742
0.443176
0.495861
0.89494
0.340779
-0.297069
0.32112
-0.233411
0.287856
-0.12101
0.283988
-0.0188527
0.308942
0.0550066
0.361101
0.109016
0.439755
0.167022
0.54576
0.234898
0.678768
0.310168
0.347982
0.826647
0.314271
-0.30933
0.27154
-0.19068
0.233599
-0.0830691
0.22864
-0.0138945
0.251061
0.0325859
0.296171
0.0639065
0.364614
0.0985779
0.45833
0.141183
0.578799
0.189699
0.215103
0.711678
0.273772
-0.281091
0.212869
-0.129777
0.174333
-0.0445329
0.168794
-0.00835613
0.186269
0.0151115
0.220972
0.0292038
0.274176
0.045373
0.348685
0.0666743
0.447051
0.0913337
0.106138
0.556015
0.214645
-0.193727
0.140471
-0.0556024
0.109366
-0.0134284
0.104092
-0.00308197
0.115365
0.00383815
0.137278
0.00729088
0.171097
0.0115538
0.219971
0.0178003
0.28634
0.0249654
0.0304073
0.362071
0.108284
0.0526813
0.0392528
0.0361708
0.040009
0.0472999
0.0588536
0.076654
0.101619
0.132027
0.608657
-0.117098
0.632321
-0.116534
0.655138
-0.109492
0.67629
-0.100347
0.695233
-0.0895598
0.71137
-0.076599
0.724263
-0.0613933
0.73359
-0.0442584
0.739075
-0.0258869
-0.00758338
0.750319
-0.134433
0.765222
-0.131437
0.779425
-0.123694
0.792648
-0.113571
0.804712
-0.101623
0.815847
-0.0877345
0.826403
-0.0719486
0.836392
-0.0542477
0.844841
-0.0343358
-0.0114668
0.851037
-0.139054
0.85348
-0.13388
0.854994
-0.125209
0.855372
-0.113948
0.854523
-0.100775
0.852623
-0.085834
0.849896
-0.0692223
0.846739
-0.0510907
0.843946
-0.031543
-0.0105297
0.892553
-0.12711
0.878536
-0.119863
0.863856
-0.110528
0.849292
-0.0993837
0.835447
-0.0869298
0.82302
-0.073407
0.812636
-0.0588384
0.804756
-0.0432111
0.799744
-0.0265313
-0.00887702
0.870312
-0.102482
0.84555
-0.0951011
0.821945
-0.0869235
0.80049
-0.0779282
0.781654
-0.0680943
0.765714
-0.0574669
0.75289
-0.0460141
0.743403
-0.033724
0.737523
-0.0206516
-0.00695355
0.796998
-0.0728337
0.768934
-0.0670369
0.743122
-0.0611117
0.720037
-0.0548429
0.699971
-0.0480286
0.683112
-0.0406074
0.669641
-0.0325436
0.659769
-0.0238514
0.653726
-0.0146084
-0.00496374
0.682984
-0.0441394
0.6565
-0.0405524
0.632401
-0.0370128
0.610878
-0.0333202
0.592145
-0.0292954
0.576395
-0.024858
0.563828
-0.0199763
0.554646
-0.0146696
0.549043
-0.00900553
-0.00309472
0.53251
-0.0206337
0.510908
-0.0189507
0.491275
-0.0173795
0.473703
-0.0157488
0.45835
-0.0139422
0.445397
-0.0119046
0.435037
-0.00961616
0.427458
-0.00709082
0.422824
-0.00437151
-0.00152288
0.346789
-0.00535164
0.332647
-0.00480904
0.319752
-0.00448483
0.308137
-0.00413356
0.297908
-0.00371363
0.289215
-0.00321084
0.282218
-0.00262
0.277075
-0.00194738
0.273913
-0.00120945
-0.000429219
0.126675
0.121866
0.117381
0.113248
0.109534
0.106323
0.103703
0.101756
0.100546
0.000185057
0.0116092
-0.0117943
0.000623736
0.0304465
-0.0308852
0.00123716
0.0462417
-0.0468551
0.00197733
0.0594675
-0.0602077
0.00277662
0.0700216
-0.0708209
0.00376953
0.0798891
-0.080882
0.00396348
0.0772673
-0.0774612
0.00408485
0.0700425
-0.0701638
0.00394498
0.0610797
-0.0609398
0.0499561
0.00350722
-0.0495183
0.000533396
0.0110758
0.00180387
0.029176
0.00358509
0.0444605
0.00574125
0.0573114
0.00807284
0.06769
0.0110396
0.0769223
0.011676
0.076631
0.0120809
0.0696376
0.0117737
0.0613869
0.0510785
0.0106513
0.000835499
0.0102403
0.00283184
0.0271797
0.00563913
0.0416532
0.00904157
0.0539089
0.0127395
0.0639921
0.0172475
0.0724143
0.0187902
0.0750882
0.0195719
0.0688559
0.0193857
0.0615731
0.0524349
0.0180292
0.00105598
0.00918435
0.00359702
0.0246386
0.00719365
0.0380566
0.0115559
0.0495467
0.0163566
0.0591913
0.0217478
0.0670232
0.0250729
0.0717632
0.0263552
0.0675736
0.0266035
0.0613248
0.0535667
0.0254717
0.00115146
0.0080329
0.00397934
0.0218108
0.00804178
0.0339941
0.012997
0.0445915
0.0185518
0.0536366
0.0245578
0.0610172
0.0299524
0.0663686
0.0320904
0.0654357
0.0330117
0.0604035
0.0540915
0.0324869
0.00111149
0.00692141
0.00396603
0.0189562
0.00818567
0.0297745
0.0133904
0.0393868
0.0193182
0.0477087
0.0257723
0.0545632
0.0324163
0.0597246
0.036313
0.0615389
0.0381248
0.0585917
0.0537075
0.0385088
0.000926239
0.00599517
0.00357299
0.0163095
0.00771073
0.0256368
0.0128819
0.0342156
0.0187869
0.0418037
0.0253385
0.0480116
0.0323214
0.0527416
0.0382757
0.0555847
0.041588
0.0552795
0.0521834
0.0431121
0.000567824
0.00542735
0.00278661
0.0140907
0.0066575
0.0217659
0.0116214
0.0292518
0.0172044
0.0362207
0.0234475
0.0417684
0.0302863
0.0459029
0.0371845
0.0486864
0.0425619
0.049902
0.0489244
0.0458209
0.000103752
0.0053236
0.00176847
0.012426
0.00517557
0.0183588
0.00981472
0.0246126
0.0149568
0.0310786
0.020621
0.0361042
0.0269035
0.0396204
0.0335873
0.0420026
0.0400855
0.0434039
0.0437957
0.0452141
-0.000175792
0.00549939
0.00108651
0.0111637
0.00385549
0.0155898
0.00788598
0.0205821
0.0125003
0.0264644
0.0175707
0.0310337
0.0231768
0.0340144
0.0292492
0.0359302
0.035636
0.0370171
0.037369
0.0420627
-2.16084e-05
0.005521
0.0011392
0.0100029
0.00327657
0.0134524
0.00641178
0.0174469
0.010293
0.0225831
0.0148346
0.0264921
0.0199547
0.0288943
0.0254872
0.0303977
0.0312251
0.0312792
0.0316948
0.0368993
0.000376722
0.00514428
0.00153033
0.00884928
0.00317865
0.0118041
0.00548897
0.0151366
0.00870802
0.0193641
0.0128937
0.0223065
0.0177457
0.0240423
0.023013
0.0251303
0.0285047
0.0257876
0.026058
0.0341415
0.000623265
0.00452101
0.00170519
0.00776736
0.00302498
0.0104843
0.00484435
0.0133172
0.00783577
0.0163726
0.0119257
0.0182166
0.0166777
0.0192902
0.0218524
0.0199556
0.0273173
0.0203227
0.0204042
0.032971
0.000676441
0.00384457
0.00164185
0.00680194
0.00282161
0.00930457
0.00470526
0.0114336
0.00798163
0.0130962
0.0122142
0.013984
0.0170332
0.0144713
0.0222767
0.0147121
0.0278485
0.0147509
0.0145901
0.0336626
0.000664465
0.0031801
0.00155572
0.00591068
0.00300035
0.00785993
0.00559234
0.0088416
0.00938907
0.00929951
0.0139166
0.00945648
0.0189654
0.00942246
0.0244362
0.00924126
0.030261
0.00892609
0.00848278
0.0363683
0.000594713
0.00258539
0.00172232
0.00478306
0.00407658
0.00550567
0.00754223
0.00537594
0.0118034
0.00503837
0.0166596
0.00460026
0.0220095
0.00407254
0.0277939
0.00345681
0.0339615
0.00275854
0.00199089
0.0404534
0.000527693
0.00205769
0.0024991
0.00281164
0.00577513
0.00222963
0.00978063
0.00137043
0.0143787
0.00044026
0.019524
-0.000545003
0.0251864
-0.00158991
0.0313232
-0.00267995
0.0378732
-0.0037915
-0.00491239
0.0447765
0.000883582
0.0011741
0.0036347
6.0511e-05
0.00720129
-0.00133697
0.0113917
-0.00281995
0.0161929
-0.00436103
0.0216159
-0.00596792
0.0276186
-0.00759268
0.03411
-0.00917135
0.0410068
-0.0106882
-0.0121737
0.0482681
0.00150697
-0.000332883
0.00413526
-0.00256779
0.00755832
-0.00476004
0.0117766
-0.00703824
0.0167973
-0.00938169
0.0225407
-0.0117114
0.0288391
-0.013891
0.0355711
-0.0159034
0.0427116
-0.0178288
-0.0197234
0.0502612
0.001048
0.00313545
0.00645783
0.0109299
0.016315
0.0222934
0.028704
0.0355797
0.0429884
0.0509082
0.0514201
0.0837207
-0.0982414
0.0773304
-0.00753475
-0.0183756
0.0999746
-0.0512141
0.0285699
0.113664
-0.0471326
0.0334431
0.121628
-0.0268396
0.0188754
0.12524
-0.0079509
0.0043392
0.126248
0.00350733
-0.00451553
0.126343
0.00747359
-0.00756853
0.126268
0.00766158
-0.00758643
0.00519981
-0.00585427
0.0586363
0.0592258
0.0917138
-0.0406123
0.118912
-0.0784126
0.13494
-0.0631608
0.143668
-0.0355675
0.147313
-0.0115955
0.148042
0.00277822
0.147781
0.00773453
0.147371
0.00807188
0.00488441
0.0666678
0.025529
0.105114
-0.0790586
0.136151
-0.109449
0.155805
-0.0828156
0.165806
-0.0455678
0.16952
-0.0153096
0.169863
0.00243529
0.169083
0.00851433
0.168168
0.00898693
0.00505373
0.0755679
-0.0163762
0.117971
-0.121461
0.151904
-0.143383
0.175323
-0.106234
0.187375
-0.0576194
0.191424
-0.019359
0.191418
0.00244134
0.190066
0.00986606
0.188564
0.0104893
0.0057914
0.0846408
-0.0646487
0.129815
-0.166636
0.165919
-0.179487
0.192651
-0.132966
0.207611
-0.0725789
0.212597
-0.0243452
0.212441
0.00259765
0.210561
0.0117461
0.208464
0.0125863
0.00712228
0.0931116
-0.117307
0.140312
-0.213836
0.178103
-0.217278
0.2074
-0.162264
0.225655
-0.090834
0.232499
-0.0311889
0.232612
0.00248491
0.230371
0.0139871
0.227761
0.0151966
0.00900644
0.100316
-0.172846
0.149185
-0.262704
0.188356
-0.256449
0.219491
-0.193399
0.240811
-0.112154
0.250488
-0.040866
0.251568
0.00140522
0.249282
0.0162729
0.246337
0.0181417
0.0113362
0.105904
-0.230482
0.156306
-0.313107
0.196622
-0.296765
0.229028
-0.225805
0.252753
-0.135879
0.265832
-0.0539444
0.268863
-0.00162634
0.267041
0.0180955
0.264053
0.0211289
0.0139299
0.109857
-0.290077
0.16171
-0.36496
0.202926
-0.337982
0.236186
-0.259065
0.261533
-0.161226
0.277896
-0.0703084
0.283948
-0.00767739
0.283339
0.0187042
0.280744
0.0237238
0.0165235
0.112495
0.16557
0.207406
0.241156
0.26746
0.286404
0.296155
0.297775
0.296195
0.0132004
0.00607791
-0.0192783
0.0109885
0.00221189
0.0115072
-0.000518738
0.0129303
-0.00142304
0.0136439
-0.000713683
0.0137587
-0.000114747
0.013532
0.000226648
0.0131702
0.00036188
0.0129092
0.000260972
0.000354198
0.0372484
0.0232155
-0.054386
0.0314924
0.00796789
0.0340027
-0.00302905
0.0380597
-0.00547999
0.0402293
-0.00288333
0.0406203
-0.000505797
0.039974
0.000872997
0.0389768
0.00135903
0.0380559
0.00118187
0.00118758
0.0579651
0.0480966
-0.0828462
0.0508811
0.0150519
0.0558907
-0.00803871
0.0624703
-0.0120596
0.0661334
-0.00654643
0.0668806
-0.00125293
0.0658817
0.00187184
0.0643025
0.00293827
0.0627247
0.00275968
0.00241905
0.0739047
0.0754023
-0.10121
0.0680782
0.0208784
0.076445
-0.0164056
0.0857806
-0.0213951
0.0910936
-0.0118595
0.0923383
-0.00249766
0.0910912
0.00311895
0.0889939
0.00503563
0.0868303
0.00492325
0.0039966
0.0813971
-0.104236
0.0838997
0.0960639
0.108112
0.115128
0.116969
0.115573
0.11304
0.110377
0.00273368
-0.000172927
-0.00256076
0.00326456
-0.000530875
0.0041768
-0.000912238
0.00548786
-0.00131107
0.00718429
-0.00169642
0.00922886
-0.00204458
0.0115855
-0.0023566
0.0141738
-0.00258834
0.0168589
-0.00268514
-0.00241939
0.00778746
-0.000645702
-0.00731469
0.00923436
-0.00197778
0.0117137
-0.00339162
0.0152701
-0.00486747
0.0198844
-0.00631071
0.0254825
-0.0076426
0.0319648
-0.00883895
0.0391562
-0.00977979
0.0467676
-0.0102965
-0.0100378
0.0124781
-0.00138376
-0.01174
0.0147278
-0.00422748
0.0185607
-0.00722451
0.0240247
-0.0103315
0.0310793
-0.0133654
0.0395862
-0.0161495
0.0493282
-0.0185809
0.0600516
-0.0205032
0.0714158
-0.0216607
-0.0214682
0.0168075
-0.00234771
-0.0158436
0.0197317
-0.00715173
0.024675
-0.0121677
0.0316515
-0.017308
0.0405501
-0.022264
0.0511063
-0.0267057
0.0629376
-0.0304122
0.0756946
-0.0332602
0.0888613
-0.0348274
-0.0338174
0.0207931
-0.0196336
0.0242926
0.0301541
0.0383178
0.0485408
0.0603439
0.0730437
0.0856044
0.0959911
0.0314455
-0.0313061
0.0371109
-0.0372504
0.0255851
-0.030903
0.0367635
0.0199266
-0.0300704
0.0357289
0.0146802
-0.0286744
0.0339208
0.0100603
-0.0264658
0.0310857
0.00620499
-0.0227785
0.0266338
0.00311401
-0.0176476
0.0207386
0.00101756
-0.013622
0.0157185
-8.66546e-05
-0.0101614
0.0112657
-0.0056421
0.00555545
0.0294624
-0.0254426
-0.0353258
0.0237465
-0.0251871
0.0182565
-0.0245804
0.0131704
-0.0235883
0.00874124
-0.0220367
0.00535095
-0.0193882
0.00302012
-0.0153167
0.00139678
-0.0119987
0.000298338
-0.009063
-0.00534376
0.0294342
-0.0194543
-0.0354225
0.02363
-0.0193829
0.0181126
-0.0190629
0.012999
-0.0184747
0.00849229
-0.0175299
0.00504344
-0.0159394
0.00300461
-0.0132779
0.00164491
-0.010639
0.000582643
-0.00800073
-0.00476111
0.0313539
-0.0131912
-0.037617
0.0253254
-0.0133544
0.0196148
-0.0133524
0.0143087
-0.0131686
0.00954575
-0.012767
0.00565077
-0.0120444
0.00319664
-0.0108238
0.00176091
-0.00920326
0.000726903
-0.00696671
-0.0040342
0.0349541
-0.00653602
-0.0416092
0.0285808
-0.00698103
0.0225614
-0.00733299
0.0169621
-0.00756929
0.0118736
-0.00767844
0.00748038
-0.00765115
0.0041345
-0.00747789
0.00199247
-0.00706122
0.000798292
-0.00577252
-0.00323591
0.0392728
0.000571673
-0.0463805
0.0324902
-0.000198449
0.0261052
-0.000948032
0.0201925
-0.00165654
0.0148126
-0.00229854
0.0100286
-0.00286715
0.00592428
-0.00337355
0.00267396
-0.00381088
0.00072061
-0.00381917
-0.00251529
0.0431093
0.008089
-0.0506266
0.0359321
0.00697868
0.0291488
0.00583536
0.0228591
0.0046331
0.0171655
0.00339505
0.0121077
0.00219073
0.00766662
0.0010675
0.0038485
7.24612e-06
0.000979483
-0.000950133
-0.0015358
0.0453868
0.0158934
-0.0531912
0.0379586
0.0144068
0.0309041
0.0128899
0.0242593
0.0112779
0.0181675
0.00948689
0.0128149
0.00754329
0.00828064
0.00560181
0.00453993
0.00374796
0.00163159
0.00195821
9.57994e-05
0.0455392
0.0239963
-0.053642
0.0379212
0.0220248
0.0307916
0.0200195
0.024063
0.0180065
0.0177029
0.015847
0.0119055
0.0133407
0.00704824
0.0104591
0.00341772
0.00737848
0.00114762
0.00422832
0.00124342
0.0444798
-0.0529946
0.0365232
0.0292545
0.0226544
0.0165265
0.010756
0.00566344
0.00203908