/*--------------------------------*- C++ -*----------------------------------*\
  =========                 |
  \\      /  F ield         | OpenFOAM: The Open Source CFD Toolbox
   \\    /   O peration     | Website:  https://openfoam.org
    \\  /    A nd           | Version:  13
     \\/     M anipulation  |
\*---------------------------------------------------------------------------*/
FoamFile
{
    format      ascii;
    class       volScalarField;
    location    "0.795";
    object      strainRateViscosityModel:nu;
}
// * * * * * * * * * * * * * * * * * * * * * * * * * * * * * * * * * * * * * //

dimensions      [0 2 -1 0 0 0 0];

internalField   nonuniform List<scalar> 
1800
(
9.40488
9.1976
9.01007
8.80096
8.57616
8.34415
8.11548
7.89817
7.6242
7.37923
9.58523
9.41878
9.2669
9.09733
8.91118
8.71144
8.50357
8.28868
8.0273
7.70207
9.70219
9.56269
9.42803
9.27096
9.08869
8.87899
8.64092
8.36904
8.03058
7.6106
9.77539
9.65614
9.53324
9.38287
9.20049
8.98172
8.72281
8.41596
8.02877
7.55456
9.82168
9.7183
9.60558
9.46167
9.28071
9.05696
8.78549
8.45888
8.04775
7.55614
9.85185
9.76081
9.6573
9.52059
9.34355
9.11896
8.84034
8.50016
8.07152
7.5702
9.87179
9.78991
9.69398
9.56396
9.39147
9.16769
8.8842
8.53252
8.08735
7.57567
9.88475
9.80924
9.71888
9.59394
9.42494
9.20146
8.91309
8.55005
8.08853
7.56355
9.8926
9.82107
9.73416
9.6122
9.44467
9.21962
8.92483
8.54922
8.07121
7.52871
9.89646
9.82686
9.74153
9.6207
9.45309
9.22573
8.92512
8.53953
8.05038
7.49285
1.80005
1.40525
1.20943
1.32007
1.7304
2.25154
2.49655
2.44897
2.35914
2.33544
3.72914
1.78113
1.49142
1.98118
2.69557
2.97243
2.81723
2.67174
2.68786
2.74122
4.70207
2.56987
2.43551
3.1766
3.59649
3.34623
3.08165
3.11844
3.25844
3.33901
5.26894
3.88174
3.81503
4.21346
4.18057
3.82938
3.72124
3.85505
3.95757
4.00659
6.05575
5.27518
5.11776
5.12131
4.91493
4.6533
4.57807
4.61225
4.61258
4.65232
6.95983
6.45987
6.22678
6.03825
5.78827
5.54537
5.38917
5.29333
5.22221
5.27481
7.77172
7.37771
7.11678
6.86031
6.58742
6.32055
6.08724
5.90092
5.7702
5.82378
8.40013
8.05531
7.79202
7.51579
7.22652
6.93122
6.64219
6.38631
6.19225
6.22926
8.84935
8.54538
8.291
8.01032
7.70572
7.3795
7.03564
6.70112
6.41573
6.42173
9.16164
8.90154
8.66633
8.39667
8.09572
7.76577
7.40646
7.03565
6.70852
6.7524
2.19337
1.72917
1.33183
0.937215
0.619945
0.349994
0.185125
0.137412
0.153267
0.233866
2.52768
1.84829
1.40688
0.932559
0.593813
0.334179
0.173985
0.101116
0.100306
0.175959
2.94825
1.9774
1.47926
0.929973
0.558124
0.30697
0.161643
0.0845756
0.059747
0.119229
3.44068
2.14734
1.55059
0.932929
0.518777
0.272108
0.144512
0.0720477
0.0538709
0.0594576
3.98294
2.3854
1.62804
0.941986
0.480001
0.233141
0.123624
0.0585145
0.0592824
0.0264944
4.52848
2.69656
1.72436
0.958382
0.444892
0.192853
0.0997245
0.0467062
0.0503581
0.0424543
4.99695
3.05633
1.84632
0.981156
0.413622
0.153093
0.0743513
0.0372931
0.0318149
0.0990026
5.31279
3.43935
2.01349
1.02397
0.392674
0.116945
0.0493802
0.0264931
0.0357964
0.163007
5.3433
3.72278
2.16314
1.05589
0.369608
0.0840477
0.0301359
0.019055
0.0927231
0.227636
5.20204
3.9889
2.39871
1.15965
0.38613
0.0674487
0.0105487
0.0514839
0.140379
0.282871
4.94441
3.94244
2.45572
1.17354
0.360897
0.0524205
0.0276801
0.107172
0.201291
0.346379
5.33042
3.3477
2.13984
0.998544
0.359096
0.138983
0.117692
0.175254
0.275721
0.416334
4.90478
3.04584
2.24835
1.20578
0.591125
0.294477
0.203361
0.245052
0.339643
0.470312
4.54678
3.63223
2.68189
1.64108
0.892811
0.495906
0.338639
0.333046
0.406546
0.515445
5.11425
4.7478
3.34286
2.16442
1.23811
0.729891
0.496021
0.435517
0.475361
0.551861
6.25445
5.66954
4.0571
2.67385
1.59851
0.981601
0.673186
0.552123
0.548757
0.582736
7.26268
6.3737
4.71364
3.15455
1.95723
1.24047
0.858632
0.67688
0.625145
0.60975
8.0001
6.91203
5.2598
3.58894
2.29999
1.50063
1.04945
0.807443
0.705011
0.635562
8.51876
7.33072
5.6973
3.97004
2.62038
1.75377
1.23623
0.934909
0.781988
0.658478
8.931
7.69118
6.04972
4.28305
2.92518
2.02418
1.44724
1.08308
0.877176
0.691018
6.51282
6.43966
6.43043
6.44874
6.48733
6.52992
6.58196
6.7105
6.89517
6.82621
0.260661
1.05709
2.00767
2.9227
3.70362
4.31622
4.73295
4.98245
5.22151
5.72767
3.8508
3.54392
3.28469
3.11146
3.10652
3.25012
3.47232
3.71345
4.16496
4.84477
6.64416
6.62722
6.53713
6.3447
6.0433
5.65791
5.24968
4.89615
4.73956
4.54948
7.69184
7.67653
7.63212
7.54129
7.39613
7.18986
6.92709
6.61953
6.28602
5.65647
8.44951
8.43312
8.39435
8.32771
8.22957
8.09671
7.92837
7.71684
7.42792
6.90784
8.93967
8.92394
8.89028
8.83679
8.76166
8.6629
8.53816
8.37892
8.15467
7.80862
9.27298
9.25981
9.23246
9.18985
9.13052
9.05245
8.95269
8.82481
8.65281
8.4309
9.50446
9.49417
9.47307
9.44024
9.39426
9.33319
9.25424
9.15286
9.02288
8.87534
9.6899
9.68285
9.66852
9.64604
9.61405
9.5707
9.51361
9.43975
9.34638
9.2441
7.24805
7.52618
7.83693
8.08767
8.34481
8.59962
8.84138
9.06158
9.25458
9.46025
7.5831
7.94805
8.24096
8.48112
8.70935
8.92481
9.1223
9.299
9.45391
9.61805
7.49849
7.95737
8.32595
8.6205
8.87575
9.09773
9.28806
9.44952
9.58535
9.72225
7.44688
7.95761
8.37376
8.702
8.97658
9.20596
9.39471
9.54806
9.67131
9.78824
7.45633
7.98066
8.4186
8.76489
9.05054
9.28356
9.46977
9.61591
9.72868
9.83022
7.48241
8.01168
8.46402
8.82147
9.11234
9.34475
9.52606
9.66446
9.76796
9.85764
7.50364
8.03786
8.50277
8.86863
9.16197
9.39189
9.56763
9.6989
9.79479
9.8757
7.51114
8.05246
8.52871
8.90209
9.19746
9.42521
9.5964
9.72212
9.81243
9.88729
7.49836
8.05045
8.53742
8.91898
9.21768
9.44503
9.61371
9.73606
9.82289
9.89404
7.48288
8.04358
8.53592
8.92344
9.22525
9.4533
9.62123
9.74216
9.82746
9.89693
2.55878
2.51525
2.53305
2.74463
2.93029
2.55771
1.70127
1.18289
1.52381
4.1995
2.96558
2.8773
2.71749
2.71513
3.1048
3.43299
2.82441
1.90883
2.12673
5.13714
3.45288
3.40946
3.25161
3.06508
3.26505
3.82401
3.80439
3.1629
3.29063
5.4567
3.94394
3.93317
3.90682
3.79765
3.89047
4.31796
4.58958
4.46857
4.6618
5.91393
4.49683
4.46937
4.54478
4.61648
4.7804
5.11399
5.43842
5.6193
5.89699
6.6317
5.10046
5.05794
5.19761
5.39607
5.65699
5.98046
6.30868
6.59551
6.90099
7.4067
5.65308
5.61685
5.81777
6.09039
6.4077
6.74088
7.06856
7.37817
7.67877
8.08657
6.06633
6.05179
6.31493
6.64224
6.99496
7.3398
7.66729
7.9742
8.25897
8.61107
6.26009
6.27906
6.6309
7.02587
7.42012
7.78441
8.11673
8.41669
8.68283
8.98797
6.59994
6.56981
6.95597
7.37947
7.78133
8.14312
8.46653
8.75044
8.99301
9.25186
0.112751
0.155198
0.122481
0.0633861
0.01564
0.393966
0.931001
1.48411
1.95112
2.43323
0.079281
0.140628
0.118256
0.0655438
0.0153246
0.386191
0.935043
1.54703
2.03009
2.69926
0.0575179
0.132249
0.116439
0.0687725
0.0241078
0.386233
0.941254
1.59699
2.10065
3.00943
0.0444038
0.129919
0.118227
0.0761726
0.0421874
0.393994
0.947435
1.63413
2.20411
3.39595
0.037875
0.132712
0.122227
0.0857657
0.0652919
0.403622
0.950779
1.66974
2.38199
3.86611
0.0369948
0.139733
0.126792
0.0948789
0.0891429
0.411619
0.955169
1.72713
2.6485
4.36328
0.0419695
0.151111
0.130662
0.101343
0.109
0.415498
0.965745
1.82276
2.9804
4.79404
0.0534681
0.167408
0.133479
0.105325
0.124415
0.424194
1.00654
1.98174
3.34716
5.0787
0.0732924
0.188418
0.135357
0.103008
0.127544
0.424186
1.04342
2.13295
3.62561
5.08185
0.10412
0.210974
0.137856
0.104018
0.142793
0.470986
1.1799
2.39116
3.87542
4.89047
0.160885
0.239433
0.143358
0.101117
0.131409
0.473719
1.2445
2.50411
3.8847
4.67288
0.26401
0.270779
0.133143
0.0760527
0.0697405
0.383825
1.11867
2.30246
3.42959
5.19206
0.428898
0.269896
0.100086
0.014364
0.0150092
0.344448
1.14896
2.3509
3.25604
4.93793
0.682153
0.2543
0.0227564
0.0810617
0.101592
0.538456
1.43195
2.62449
3.71528
4.69831
1.06559
0.0475959
0.263398
0.236146
0.315244
0.890971
1.93385
3.20656
4.70713
5.17757
1.51469
0.122348
0.538021
0.416881
0.596891
1.30815
2.47413
3.91723
5.59877
6.22337
2.19502
0.683496
0.855602
0.689728
0.942874
1.73845
2.99233
4.59355
6.30246
7.21636
3.79221
1.70631
1.27451
1.03736
1.31875
2.15044
3.46133
5.16516
6.85409
7.96877
6.86014
3.57571
1.96325
1.42197
1.67998
2.52415
3.87348
5.6312
7.29515
8.50724
9.04906
6.38369
2.84301
2.00223
2.1164
2.89689
4.2239
6.01912
7.68651
8.93809
6.6245
6.68753
6.51082
6.38905
6.3487
6.32252
6.30555
6.31733
6.36195
6.47625
5.52815
5.0093
4.76555
4.52452
4.1264
3.54047
2.79858
1.9321
1.04467
0.284226
4.84969
4.23676
3.8273
3.61678
3.43001
3.31055
3.31544
3.4577
3.65542
3.87435
4.71242
4.88591
5.02841
5.33793
5.70211
6.05237
6.33393
6.5214
6.61654
6.64159
5.68792
6.28591
6.61234
6.91136
7.17237
7.38147
7.5318
7.62814
7.6767
7.69239
6.86589
7.38861
7.68443
7.90231
8.07659
8.21484
8.3178
8.38856
8.43055
8.44888
7.76511
8.12049
8.35196
8.51791
8.64796
8.75099
8.82956
8.88582
8.92164
8.93899
8.40454
8.63268
8.80887
8.94093
9.04401
9.12465
9.18596
9.23006
9.25854
9.2726
8.86615
9.01619
9.14761
9.2506
9.33082
9.39283
9.43944
9.47267
9.494
9.50442
9.24868
9.35045
9.44301
9.5163
9.57294
9.61588
9.64748
9.66956
9.68348
9.69012
9.50946
8.98534
8.23589
6.92826
5.59797
0.131167
3.36084
5.96039
7.21409
8.15187
9.46542
8.92156
8.16813
6.89059
5.54939
0.56377
2.62222
5.70602
6.91643
7.91396
9.36568
8.78282
8.02028
6.80961
5.36636
1.60349
1.41357
5.20663
6.30935
7.40331
9.18255
8.54513
7.7745
6.65512
5.18645
2.74004
0.723099
4.23839
5.42157
6.57149
8.86812
8.17359
7.40402
6.37695
5.02653
3.36803
0.970958
2.63163
4.31696
5.39381
8.35053
7.62973
6.87342
5.91729
4.76512
3.44004
1.71925
1.30194
3.0493
3.98815
7.53605
6.89661
6.15556
5.22758
4.29966
3.26955
2.14311
1.17252
1.65627
2.55745
6.32539
6.03758
5.28135
4.2319
3.53345
2.91261
2.11845
1.43522
1.06858
1.2354
4.63171
5.23226
4.47436
2.99959
2.4371
2.27447
1.85602
1.38486
1.12271
0.659163
2.6728
4.53957
4.02165
1.96671
1.39677
1.48834
1.40994
1.21175
1.06406
0.845222
1.27676
3.789
3.66665
1.33721
0.816169
0.897639
0.971097
0.956297
0.971755
1.01985
0.613493
2.96985
3.08221
0.956494
0.575302
0.639966
0.759428
0.820012
0.844013
0.876994
0.355377
2.18964
2.28542
0.688161
0.492597
0.595309
0.726402
0.810775
0.848569
0.873332
0.265318
1.55074
1.48917
0.52153
0.534553
0.674183
0.7877
0.858736
0.882156
0.892403
0.239651
1.01891
0.845485
0.514273
0.669676
0.803295
0.904513
0.968022
0.983735
0.980631
0.242875
0.493075
0.499977
0.636488
0.817549
0.955048
1.05282
1.1105
1.12102
1.11285
0.177037
0.204035
0.50823
0.756249
0.974882
1.12067
1.21036
1.25737
1.27417
1.2748
0.0452177
0.2519
0.649387
0.922831
1.13616
1.25354
1.32963
1.3995
1.45609
1.4779
0.0610824
0.492491
0.82234
1.09603
1.22975
1.33857
1.48914
1.64781
1.735
1.75049
0.696705
0.865353
1.04055
1.18352
1.32326
1.59721
1.91016
2.0798
2.08146
2.0484
0.363052
0.0804987
0.223835
0.550656
0.794547
0.891284
0.886521
0.83749
0.786795
0.753517
0.46209
0.202322
0.319166
0.521397
0.723829
0.810547
0.808029
0.766569
0.722895
0.704124
0.525747
0.372239
0.440051
0.513651
0.65338
0.730534
0.731267
0.696482
0.659201
0.654213
0.638884
0.58789
0.595508
0.555524
0.587301
0.643458
0.649466
0.623968
0.594739
0.603854
0.805987
0.803517
0.742026
0.638122
0.542104
0.556338
0.565789
0.550576
0.530063
0.553064
1.00955
0.999453
0.875351
0.737599
0.53102
0.474829
0.480745
0.476249
0.465242
0.501818
1.22763
1.17104
0.990295
0.825755
0.552972
0.409036
0.397168
0.401766
0.400595
0.450026
1.45238
1.32524
1.08912
0.8884
0.589755
0.368604
0.319368
0.328148
0.336443
0.397515
1.68492
1.46875
1.17556
0.923692
0.619611
0.354411
0.253964
0.257163
0.273269
0.344126
1.92627
1.60372
1.25506
0.937172
0.630131
0.353811
0.208505
0.191909
0.211798
0.289514
2.00915
0.747504
0.717696
0.96544
1.19782
1.28421
1.25824
1.17953
1.10834
1.01098
1.39445
0.48298
0.579199
0.874769
1.10969
1.19798
1.17699
1.10508
1.03693
0.952397
0.751612
0.288003
0.481324
0.797803
1.03539
1.12591
1.10927
1.04278
0.978277
0.904995
0.253384
0.170354
0.405727
0.726078
0.960312
1.04961
1.03576
0.974733
0.914434
0.853971
0.43584
0.032706
0.267359
0.613181
0.864327
0.965322
0.960074
0.906279
0.850777
0.803488
9.35465
9.29006
9.141
8.87311
8.43757
7.77891
6.87137
5.75933
4.58201
3.53712
9.19248
9.09566
8.88112
8.51167
7.94153
7.13648
6.10966
4.95512
3.84478
2.78683
9.02389
8.90027
8.62663
8.16106
7.46178
6.51617
5.37145
4.16866
3.08129
1.94239
8.81633
8.66221
8.32151
7.74794
6.90618
5.81426
4.555
3.29482
2.22584
1.08998
8.5875
8.3794
7.92585
7.17747
6.11253
4.7921
3.35064
2.08513
0.993913
0.302012
1.06023
1.02443
1.01623
1.01975
0.915158
0.799639
1.29339
3.68337
3.8598
1.32294
0.949174
0.933733
0.92613
0.870691
0.718773
0.588479
0.910773
3.14195
3.11
0.647365
0.985935
0.982402
0.965523
0.892734
0.747277
0.584292
0.698161
2.3727
2.34685
0.377404
1.05335
1.06525
1.06109
1.00126
0.889785
0.740502
0.655474
1.55768
1.63489
0.277243
1.18601
1.21016
1.21586
1.16814
1.07697
0.951802
0.789134
0.910212
0.919872
0.246138
1.3512
1.37114
1.37942
1.35432
1.28446
1.1512
0.929813
0.670045
0.358368
0.21678
1.55567
1.55161
1.51921
1.47684
1.42602
1.31973
1.07962
0.754246
0.272522
0.0664191
1.82373
1.81733
1.73475
1.58176
1.44176
1.34512
1.21031
0.901825
0.494432
0.0467835
2.10407
2.15134
2.14979
1.95591
1.61226
1.32279
1.18703
1.05693
0.856589
0.675881
2.31243
2.35924
2.4838
2.53603
2.23382
1.6324
1.18241
1.06654
1.30444
2.04203
8.15168
7.21373
5.96003
3.36033
0.131423
5.59651
6.92777
8.23569
8.98536
9.50956
7.91328
6.91532
5.70501
2.62162
0.563639
5.54554
6.88913
8.16755
8.92161
9.46573
7.40185
6.30746
5.20484
1.41547
1.59976
5.36187
6.80735
8.0194
8.78295
9.36627
6.56884
5.41868
4.23622
0.726271
2.73173
5.18172
6.65228
7.77352
8.54546
9.18358
5.38943
4.31247
2.63265
0.971031
3.35669
5.02057
6.3735
7.40309
8.17434
8.86988
3.97981
3.04146
1.31017
1.71323
3.42678
4.75623
5.91249
6.87254
7.63121
8.35351
2.54107
1.65348
1.18717
2.13288
3.25089
4.28301
5.21885
6.15466
6.89951
7.54138
1.21758
1.08763
1.45172
2.10726
2.88048
3.50308
4.21751
5.28209
6.04357
6.33607
0.671605
1.1529
1.40707
1.84234
2.23203
2.40024
2.98385
4.47941
5.24358
4.65555
0.884839
1.1024
1.24707
1.41265
1.46377
1.36897
1.94328
4.02654
4.56517
2.71658
2.09002
0.543286
1.06115
0.629254
0.661028
0.758532
0.632594
0.300262
0.0619972
0.356494
1.63023
0.236773
0.870002
0.479002
0.567006
0.681337
0.593691
0.356843
0.265868
0.488482
1.33426
0.0583163
0.641868
0.340667
0.478391
0.602063
0.562496
0.459553
0.473229
0.591051
1.09807
0.014706
0.393895
0.232097
0.393661
0.518518
0.562715
0.626069
0.732711
0.758305
0.848062
0.0892407
0.18965
0.158635
0.315905
0.442057
0.609061
0.805139
0.974867
0.977483
0.635882
0.153986
0.0532241
0.101589
0.244089
0.38632
0.694606
0.975103
1.19412
1.22478
0.463672
0.209305
0.0491658
0.0534383
0.180484
0.36508
0.788349
1.1189
1.38624
1.4809
0.33139
0.210306
0.107335
0.0107863
0.122356
0.373776
0.862186
1.23566
1.5579
1.73575
0.232967
0.195981
0.121889
0.0354205
0.0643912
0.3908
0.905683
1.33076
1.71165
1.97683
0.162194
0.174542
0.127142
0.0569004
0.0288433
0.398642
0.924742
1.41195
1.84472
2.20032
9.33657
6.77032
2.66501
1.69952
1.20196
1.12067
0.964841
0.781719
0.79642
2.03315
8.21092
4.63644
2.21508
1.41752
1.06934
1.03576
0.891223
0.651052
0.52798
1.39865
6.12015
3.06394
1.78537
1.21018
0.964396
0.971403
0.832222
0.561287
0.328816
0.741038
4.13317
1.87588
1.49748
1.00367
0.858336
0.904196
0.775856
0.487727
0.228696
0.225132
2.83558
1.06124
1.24633
0.80303
0.75521
0.826589
0.686087
0.356403
0.0444315
0.398121
3.5477
4.58915
5.76324
6.87354
7.78045
8.4387
8.87388
9.14148
9.29032
9.35474
2.78093
3.84106
4.95236
6.10789
7.13587
7.94154
8.51189
8.88134
9.09583
9.19255
1.92842
3.0719
4.16218
5.3667
6.51362
7.46063
8.16063
8.62654
8.9003
9.02391
1.05562
2.20312
3.28162
4.54677
5.81005
6.90396
7.74681
8.32105
8.66206
8.8163
0.300516
0.962692
2.06396
3.3375
4.78515
6.10894
7.17548
7.9249
8.37903
8.58742
)
;

boundaryField
{
    left
    {
        type            calculated;
        value           nonuniform List<scalar> 
35
(
0.297964
0.566861
0.987223
1.62617
2.5245
3.69554
5.06612
6.47609
8.1585
9.4418
0.213087
0.133137
0.0807937
0.0490541
0.0325326
0.0273508
0.0326944
0.0520813
0.0920554
0.159908
4.93339
4.0616
3.23479
2.51295
1.91713
1.42718
1.03082
0.72462
0.496115
0.330113
9.61573
8.97907
7.92205
6.84778
5.85939
)
;
    }
    right
    {
        type            calculated;
        value           nonuniform List<scalar> 
35
(
1.01052
0.952183
0.905152
0.855023
0.805734
0.757352
0.709639
0.661273
0.612348
0.562865
0.512713
0.461663
0.409358
0.355419
0.299262
0.240885
0.178973
0.116666
0.0523017
0.020662
0.0385048
0.103411
0.179432
0.251025
0.309919
0.37604
0.446172
0.498646
0.540411
0.571848
0.596826
0.617998
0.639086
0.659146
0.689016
)
;
    }
    down
    {
        type            calculated;
        value           nonuniform List<scalar> 
40
(
9.45431
7.26633
2.89594
1.78869
1.2427
1.14907
0.990338
0.823266
0.897513
2.26036
3.83287
4.88244
6.03395
7.09287
7.94461
8.55502
8.95447
9.19925
9.33564
9.39488
9.39478
9.33536
9.19873
8.9536
8.55368
7.94266
7.08994
6.02876
4.87319
3.81889
2.23227
0.847601
0.761581
0.997385
1.22955
1.31382
1.28518
1.20357
1.13136
1.02992
)
;
    }
    up
    {
        type            calculated;
        value           nonuniform List<scalar> 
40
(
9.0341
7.80882
6.16759
4.39482
3.0334
2.11906
1.51983
1.13219
0.908909
0.702968
9.72927
9.72305
9.71045
9.69064
9.66234
9.62377
9.57263
9.50586
9.42076
9.32814
9.33505
9.42656
9.51039
9.57623
9.62665
9.66461
9.69238
9.71169
9.72379
9.72952
9.27074
7.09622
3.23902
2.15402
2.2357
3.01644
4.34607
6.14877
7.81368
9.04496
)
;
    }
    cylinder
    {
        type            calculated;
        value           nonuniform List<scalar> 
80
(
2.00073
4.57003
5.53773
5.77875
6.30468
7.0905
7.86179
8.47477
8.91246
9.2129
9.44581
9.61871
9.72981
9.7983
9.84096
9.86846
9.8865
9.89817
9.90522
9.90869
9.5004
9.6506
9.74902
9.81046
9.849
9.87389
9.89016
9.90054
9.90657
9.90913
5.32667
6.2338
6.21126
6.31569
6.83443
7.5266
8.17618
8.68599
9.05066
9.3025
0.994315
0.47157
0.264208
0.18322
0.159569
0.165583
0.0828507
0.0422735
0.750098
2.4312
9.59446
9.55588
9.46744
9.30187
9.00979
8.51137
7.68626
6.36657
4.38725
2.23881
9.59435
9.55556
9.46683
9.30079
9.00793
8.50819
7.68052
6.3545
4.35816
2.19133
0.952812
0.442275
0.244342
0.17084
0.150278
0.165481
0.160953
0.0839662
0.0433591
0.73674
)
;
    }
    defaultFaces
    {
        type            empty;
    }
}


// ************************************************************************* //
