/*--------------------------------*- C++ -*----------------------------------*\
  =========                 |
  \\      /  F ield         | OpenFOAM: The Open Source CFD Toolbox
   \\    /   O peration     | Website:  https://openfoam.org
    \\  /    A nd           | Version:  13
     \\/     M anipulation  |
\*---------------------------------------------------------------------------*/
FoamFile
{
    format      ascii;
    class       volVectorField;
    location    "0.275";
    object      U;
}
// * * * * * * * * * * * * * * * * * * * * * * * * * * * * * * * * * * * * * //

dimensions      [0 1 -1 0 0 0 0];

internalField   nonuniform List<vector> 
1800
(
(0.0978062 -0.0883337 -4.49543e-20)
(0.286905 -0.241961 -3.41587e-20)
(0.473981 -0.379054 -4.85088e-19)
(0.657694 -0.500162 1.91468e-19)
(0.836605 -0.607163 7.42482e-20)
(1.00989 -0.701351 -3.91009e-20)
(1.17712 -0.783417 5.54904e-20)
(1.33788 -0.853594 1.96873e-19)
(1.49151 -0.912833 5.91928e-19)
(1.63342 -0.966719 8.09602e-19)
(0.119066 -0.0915068 -7.91374e-20)
(0.344301 -0.247717 -7.70632e-19)
(0.563292 -0.384758 3.7816e-21)
(0.775371 -0.504241 1.25881e-19)
(0.979505 -0.608919 -1.26339e-19)
(1.1752 -0.700679 7.6626e-20)
(1.36229 -0.780753 -2.81096e-19)
(1.54074 -0.850038 -5.01097e-20)
(1.71004 -0.910612 -6.92948e-19)
(1.86777 -0.966911 6.29231e-19)
(0.141656 -0.0923264 4.8825e-20)
(0.40369 -0.247738 2.09297e-19)
(0.653767 -0.382125 5.43408e-19)
(0.892188 -0.49791 -1.90299e-19)
(1.11866 -0.598385 -1.43003e-19)
(1.33321 -0.685804 7.56441e-20)
(1.53604 -0.761684 9.83402e-20)
(1.72741 -0.827257 1.94128e-19)
(1.90717 -0.884738 2.73379e-21)
(2.07416 -0.937776 1.51017e-19)
(0.163912 -0.0897237 -4.57212e-20)
(0.46171 -0.239476 -2.04402e-19)
(0.741442 -0.367626 -1.81274e-19)
(1.00453 -0.476983 -1.42328e-19)
(1.25164 -0.571024 1.81348e-19)
(1.48352 -0.652123 -5.71025e-20)
(1.70093 -0.721893 -4.31288e-21)
(1.90453 -0.781596 3.00175e-21)
(2.09454 -0.833323 -1.60294e-19)
(2.27023 -0.880293 -1.06138e-19)
(0.184663 -0.0833589 -1.14058e-19)
(0.515906 -0.221813 8.76349e-20)
(0.823309 -0.339437 1.79867e-19)
(1.10933 -0.439069 2.43341e-19)
(1.37563 -0.524075 -2.85075e-19)
(1.62373 -0.596776 -3.58107e-21)
(1.85495 -0.658759 4.25078e-19)
(2.07044 -0.711246 -1.85056e-19)
(2.27083 -0.756136 -1.24004e-19)
(2.45577 -0.796355 -5.37133e-20)
(0.203196 -0.0735022 1.73609e-19)
(0.564485 -0.195205 1.02994e-18)
(0.896812 -0.29808 1.43267e-19)
(1.20354 -0.384741 -5.03201e-19)
(1.48722 -0.458231 -1.75534e-19)
(1.75006 -0.52067 6.37791e-19)
(1.99393 -0.573521 -1.45423e-19)
(2.22038 -0.61789 -4.31698e-19)
(2.43049 -0.655427 -3.16539e-19)
(2.62421 -0.688715 2.61607e-19)
(0.218905 -0.0605931 1.16351e-19)
(0.605762 -0.160705 -7.47665e-19)
(0.959338 -0.245035 -1.08573e-18)
(1.28374 -0.315803 3.83835e-19)
(1.58226 -0.375567 4.50013e-19)
(1.85771 -0.426129 -9.02242e-22)
(2.11243 -0.468737 -6.39789e-19)
(2.34833 -0.504318 2.19332e-19)
(2.56687 -0.5342 -3.64259e-19)
(2.76831 -0.56055 -3.1107e-19)
(0.231243 -0.0451736 -3.42516e-19)
(0.638219 -0.119687 -6.92651e-19)
(1.00852 -0.182298 1.21234e-18)
(1.34681 -0.234703 5.98751e-19)
(1.65698 -0.278854 -2.69793e-19)
(1.94229 -0.316135 -2.11517e-19)
(2.20548 -0.347512 0)
(2.44879 -0.373683 1.16824e-19)
(2.67403 -0.395612 -2.95861e-19)
(2.88176 -0.414955 -7.75119e-20)
(0.239775 -0.0278763 -2.04483e-19)
(0.660674 -0.0737574 5.62463e-19)
(1.04252 -0.1122 1.71049e-19)
(1.39035 -0.14429 -5.12551e-19)
(1.70845 -0.171276 -7.84264e-19)
(2.00042 -0.194051 3.66233e-20)
(2.26929 -0.213242 1.67139e-19)
(2.51758 -0.229287 -5.46876e-19)
(2.74737 -0.242776 -2.89782e-19)
(2.95959 -0.254767 -5.63619e-19)
(0.244269 -0.00940267 4.51453e-19)
(0.672476 -0.0247041 3.44202e-19)
(1.06034 -0.0373609 -9.3864e-20)
(1.41308 -0.0477867 -1.29876e-20)
(1.73519 -0.0564592 -3.87541e-19)
(2.03047 -0.0637189 -8.57749e-20)
(2.30211 -0.0698047 -2.90569e-19)
(2.55282 -0.0748838 6.46635e-19)
(2.78486 -0.0791638 1.71001e-19)
(2.99951 -0.0830039 2.27799e-21)
(-0.00240301 -0.021953 -2.5164e-20)
(0.00876631 -0.0692191 -7.66588e-20)
(0.0249575 -0.119558 -7.19015e-21)
(0.049285 -0.16989 -3.52193e-20)
(0.077671 -0.215347 -1.26798e-20)
(0.106566 -0.253602 -3.89619e-19)
(0.135588 -0.287527 -1.7899e-20)
(0.166328 -0.320745 1.1641e-19)
(0.199111 -0.35415 1.12937e-20)
(0.232975 -0.386423 -3.7237e-20)
(0.000792753 -0.0247268 -9.66584e-20)
(0.0149358 -0.0848851 -2.02436e-19)
(0.0392463 -0.159413 -6.2332e-20)
(0.0692888 -0.224179 -1.1063e-19)
(0.0996684 -0.274512 -1.00192e-19)
(0.13071 -0.31691 -2.7968e-19)
(0.164724 -0.357784 1.97599e-19)
(0.202381 -0.399065 1.6302e-19)
(0.241905 -0.438892 -2.53894e-19)
(0.281447 -0.475195 8.0461e-20)
(0.00545345 -0.0314884 -8.53112e-20)
(0.0287464 -0.107246 -8.53153e-19)
(0.0628173 -0.195551 -1.25896e-19)
(0.0975272 -0.268247 9.5333e-20)
(0.132004 -0.326392 6.78376e-20)
(0.169897 -0.379321 -4.50798e-19)
(0.213221 -0.43121 3.37621e-20)
(0.259464 -0.480605 3.64812e-19)
(0.305875 -0.52499 -3.84489e-19)
(0.351873 -0.564298 -2.57476e-19)
(0.01135 -0.0409953 -2.05503e-21)
(0.0466206 -0.130791 1.88556e-19)
(0.0896397 -0.22503 1.93918e-21)
(0.13313 -0.30657 -1.20687e-20)
(0.17791 -0.377273 -3.02105e-20)
(0.227422 -0.443121 8.97346e-20)
(0.281323 -0.504759 7.39922e-20)
(0.335947 -0.559923 -1.35958e-19)
(0.39006 -0.608307 9.21604e-21)
(0.444266 -0.650774 -1.04181e-20)
(0.0185027 -0.0507886 0)
(0.0672414 -0.152397 5.47398e-21)
(0.121941 -0.253491 -5.03863e-19)
(0.178721 -0.345219 4.86642e-20)
(0.237874 -0.428208 -1.57656e-20)
(0.300619 -0.504595 9.31506e-21)
(0.36544 -0.573753 -2.63351e-20)
(0.429964 -0.63469 -7.70054e-21)
(0.494127 -0.687986 0)
(0.558339 -0.733894 -2.05583e-20)
(0.0273283 -0.05967 3.16702e-20)
(0.0919033 -0.172862 -1.53204e-19)
(0.161772 -0.282475 -4.44644e-20)
(0.234641 -0.383771 -5.88737e-20)
(0.30976 -0.47655 4.98409e-20)
(0.38677 -0.561229 2.5106e-21)
(0.464279 -0.637279 9.52892e-20)
(0.540979 -0.704406 -2.18366e-20)
(0.616954 -0.762798 -6.98166e-19)
(0.692205 -0.811903 -1.01057e-20)
(0.0379824 -0.0676231 7.04262e-22)
(0.121249 -0.1922 5.67037e-20)
(0.209171 -0.310615 -7.93151e-20)
(0.299929 -0.420133 -1.68279e-20)
(0.392133 -0.520568 -7.27598e-20)
(0.484766 -0.61195 -1.15864e-20)
(0.576677 -0.694055 7.73527e-21)
(0.666906 -0.766774 -2.14261e-19)
(0.755479 -0.829794 3.84658e-19)
(0.842256 -0.881756 9.72763e-19)
(0.05037 -0.0746157 1.53108e-20)
(0.155142 -0.209633 -1.42652e-19)
(0.263469 -0.335979 -2.14671e-19)
(0.373667 -0.452101 8.9346e-20)
(0.484087 -0.558218 -6.43264e-20)
(0.593512 -0.654515 1.00655e-19)
(0.700892 -0.741106 1.99311e-19)
(0.805336 -0.818049 -1.10647e-19)
(0.906926 -0.884776 -3.06648e-19)
(1.00557 -0.939106 7.26323e-19)
(0.0642977 -0.0803703 -2.63108e-20)
(0.193296 -0.224045 -5.78198e-19)
(0.324302 -0.356575 5.24604e-19)
(0.455679 -0.477232 3.37836e-19)
(0.58572 -0.586722 -8.60966e-20)
(0.713187 -0.6856 3.09734e-19)
(0.837071 -0.774325 -1.60123e-19)
(0.956482 -0.853289 -7.75679e-19)
(1.07162 -0.921797 -4.04298e-19)
(1.18254 -0.976969 4.54383e-19)
(0.0795513 -0.0846731 -7.98677e-20)
(0.235855 -0.234431 -5.44272e-19)
(0.392398 -0.370537 -8.04776e-21)
(0.547539 -0.492798 6.85983e-20)
(0.69958 -0.60245 3.37971e-19)
(0.847362 -0.700394 -1.8558e-19)
(0.989964 -0.787367 -1.69903e-19)
(1.12646 -0.863708 1.89457e-19)
(1.25671 -0.928476 -3.52076e-19)
(1.37994 -0.980123 -5.85266e-19)
(0.402762 -0.530086 1.03934e-18)
(0.683983 -0.615091 -3.71122e-19)
(0.911055 -0.552417 -1.76069e-19)
(1.08055 -0.424927 3.19644e-19)
(1.2252 -0.273896 -2.56377e-19)
(1.33259 -0.134467 -2.79095e-19)
(1.40399 -0.0509851 -2.47002e-19)
(1.43916 -0.0218879 -3.7256e-20)
(1.45991 -0.0142673 2.19253e-19)
(1.47756 -0.00669851 3.9672e-20)
(0.469285 -0.617881 1.00712e-18)
(0.741594 -0.690229 9.91862e-20)
(0.965121 -0.611638 1.05189e-20)
(1.12005 -0.47236 -2.70835e-19)
(1.2525 -0.310824 -8.99141e-19)
(1.35049 -0.160155 0)
(1.41264 -0.0653535 -2.34919e-19)
(1.44281 -0.0297414 6.88587e-20)
(1.46198 -0.0190878 5.49654e-21)
(1.47791 -0.00887024 -7.02385e-20)
(0.556846 -0.703592 -1.00549e-18)
(0.811482 -0.7631 -7.91395e-20)
(1.02551 -0.669024 1.72195e-19)
(1.16372 -0.517813 -5.13932e-20)
(1.28091 -0.34623 -3.32078e-20)
(1.36798 -0.184108 6.67469e-20)
(1.41979 -0.0784422 0)
(1.44621 -0.0371843 0)
(1.46402 -0.0237436 -7.72709e-20)
(1.47842 -0.0109163 0)
(0.66625 -0.785501 -2.24146e-19)
(0.896459 -0.831754 3.97374e-19)
(1.09253 -0.723565 2.65581e-20)
(1.21179 -0.560558 0)
(1.31065 -0.379679 7.23765e-19)
(1.38534 -0.206252 -1.7779e-19)
(1.42697 -0.0905681 0)
(1.45005 -0.0441649 1.76004e-19)
(1.46654 -0.0280506 0)
(1.47949 -0.0127477 2.12697e-20)
(0.796067 -0.862408 -1.49063e-19)
(0.998332 -0.89416 4.37534e-19)
(1.16687 -0.774063 -1.4757e-20)
(1.26417 -0.599898 0)
(1.34175 -0.410738 1.96506e-19)
(1.4025 -0.226646 3.27236e-19)
(1.43451 -0.101818 5.36465e-20)
(1.45435 -0.0506844 8.84277e-21)
(1.46952 -0.0319753 -4.2576e-20)
(1.48109 -0.0143801 3.34146e-20)
(0.942345 -0.933506 -1.30486e-18)
(1.11689 -0.948891 -9.10374e-19)
(1.24932 -0.819146 4.8452e-21)
(1.3207 -0.635088 5.28726e-19)
(1.37414 -0.438914 -2.94126e-19)
(1.41915 -0.245317 1.61867e-19)
(1.44238 -0.112315 2.65483e-19)
(1.45907 -0.0568049 -2.285e-19)
(1.47291 -0.0355296 -2.12607e-21)
(1.48318 -0.0158273 -4.86897e-21)
(1.10002 -0.998393 -2.54879e-19)
(1.25011 -0.995701 2.77036e-19)
(1.3403 -0.857589 3.96194e-21)
(1.38128 -0.665312 -1.56679e-20)
(1.40774 -0.463607 -5.2548e-19)
(1.43498 -0.262178 5.16221e-20)
(1.4504 -0.122135 -1.00911e-19)
(1.46417 -0.0625796 -3.80899e-20)
(1.47669 -0.0387185 1.7807e-20)
(1.48574 -0.0171335 -2.29464e-20)
(1.26411 -1.05596 -1.20573e-18)
(1.39458 -1.03517 2.03213e-19)
(1.43892 -0.888719 0)
(1.44521 -0.689961 2.86569e-20)
(1.44202 -0.48432 4.45787e-19)
(1.44936 -0.277211 -5.93794e-22)
(1.45802 -0.131409 -3.00592e-19)
(1.46959 -0.0680864 5.90918e-20)
(1.4808 -0.0415564 -3.93502e-22)
(1.48874 -0.0183307 2.34979e-21)
(1.43173 -1.10278 3.3931e-18)
(1.54769 -1.06822 2.54903e-19)
(1.54508 -0.913211 4.44941e-19)
(1.51298 -0.709268 -2.8475e-20)
(1.47733 -0.501069 -3.12886e-20)
(1.46226 -0.29059 -3.61169e-19)
(1.46488 -0.14031 7.37367e-20)
(1.47523 -0.0732142 4.4328e-21)
(1.4852 -0.0439532 -3.44774e-20)
(1.49215 -0.0193947 -5.04806e-20)
(1.59895 -1.12763 -3.00209e-18)
(1.70135 -1.09372 1.28313e-18)
(1.65318 -0.933706 -2.07714e-19)
(1.58084 -0.726608 -7.14895e-19)
(1.51141 -0.517162 -5.86681e-19)
(1.47196 -0.305363 -2.21605e-19)
(1.46867 -0.151339 -5.06255e-20)
(1.47985 -0.0792702 0)
(1.48921 -0.0465403 1.70446e-20)
(1.49509 -0.0204995 -5.58486e-21)
(1.88785 -1.16964 -6.74185e-18)
(1.92673 -1.10326 -1.71653e-18)
(1.8038 -0.92786 -3.25979e-20)
(1.67201 -0.718204 1.10363e-19)
(1.55622 -0.513732 1.78493e-19)
(1.48572 -0.310383 -1.11931e-19)
(1.47587 -0.160067 -1.14799e-20)
(1.48438 -0.0845776 1.55229e-20)
(1.48329 -0.0468502 -1.99742e-20)
(1.47565 -0.0203317 1.25584e-20)
(2.28887 -1.13401 4.9529e-19)
(2.17807 -1.05458 -2.36183e-19)
(1.94224 -0.861219 6.50857e-19)
(1.73744 -0.656967 -1.34479e-19)
(1.56833 -0.466657 3.13717e-19)
(1.46782 -0.287806 5.41565e-20)
(1.44123 -0.153049 2.79105e-20)
(1.41489 -0.0777055 -1.05711e-20)
(1.39128 -0.0397387 7.20414e-20)
(1.37338 -0.0185608 5.7449e-20)
(2.61036 -1.04283 2.2688e-18)
(2.35244 -0.947356 3.26959e-19)
(2.01075 -0.756708 -1.20854e-19)
(1.74033 -0.56725 2.85778e-37)
(1.5218 -0.398609 -2.80084e-20)
(1.37682 -0.252614 1.32305e-33)
(1.31254 -0.139901 -1.23672e-20)
(1.28222 -0.0682046 -1.85913e-33)
(1.26257 -0.0318206 9.46416e-21)
(1.24808 -0.0150823 -3.03541e-20)
(2.7875 -0.893467 3.91058e-33)
(2.37125 -0.794589 2.94921e-18)
(1.97746 -0.628319 1.81465e-18)
(1.66133 -0.464804 0)
(1.42014 -0.325432 8.94251e-19)
(1.25513 -0.209679 4.35746e-19)
(1.17619 -0.119403 1.05557e-19)
(1.14131 -0.0581572 -2.89724e-33)
(1.12143 -0.0259634 -4.08135e-20)
(1.10767 -0.0123738 2.68141e-20)
(2.7643 -0.705551 3.84752e-18)
(2.24733 -0.629168 -1.4734e-19)
(1.84934 -0.489609 0)
(1.52081 -0.358846 0)
(1.28075 -0.249456 0)
(1.11481 -0.162589 0)
(1.02642 -0.0955737 -1.13428e-20)
(0.98665 -0.0470597 -3.98676e-33)
(0.967412 -0.0200866 8.95249e-21)
(0.955162 -0.00958368 3.01401e-33)
(2.55153 -0.516888 3.27094e-18)
(2.02081 -0.462631 0)
(1.64006 -0.353004 0)
(1.32981 -0.255233 0)
(1.10709 -0.175743 0)
(0.95359 -0.115408 0)
(0.865918 -0.0701558 3.18806e-20)
(0.823913 -0.0354493 -2.3656e-20)
(0.80506 -0.0147526 9.08751e-21)
(0.793938 -0.00706164 4.98869e-20)
(2.19026 -0.342692 0)
(1.70295 -0.303446 1.10647e-18)
(1.36198 -0.227381 1.10545e-18)
(1.09294 -0.161261 0)
(0.902209 -0.109978 6.98894e-19)
(0.772032 -0.072879 4.16453e-19)
(0.693747 -0.0458653 2.15969e-19)
(0.653289 -0.0239223 3.93135e-20)
(0.635503 -0.0097935 2.71481e-20)
(0.62565 -0.00474872 5.18451e-21)
(1.7029 -0.191145 -6.7362e-19)
(1.30029 -0.165589 -2.73696e-19)
(1.02533 -0.121688 1.75033e-19)
(0.81586 -0.0841233 -2.16209e-34)
(0.669955 -0.0568498 -7.85159e-20)
(0.571484 -0.0382023 3.70115e-33)
(0.509876 -0.0250357 5.00561e-20)
(0.47556 -0.0135618 9.08922e-20)
(0.460186 -0.00548559 9.35868e-21)
(0.451932 -0.00274141 -1.70763e-20)
(1.10088 -0.075827 3.40677e-18)
(0.823167 -0.0626813 -1.85911e-19)
(0.640657 -0.0442794 -5.88363e-19)
(0.506445 -0.0288925 0)
(0.414986 -0.0191008 -6.3788e-19)
(0.353753 -0.0131622 -4.1899e-19)
(0.314042 -0.00922244 -1.68718e-19)
(0.290378 -0.00533745 -1.0118e-19)
(0.27942 -0.00219607 8.7135e-20)
(0.273643 -0.00116936 6.98828e-21)
(0.39734 -0.00331922 0)
(0.287849 0.00159151 0)
(0.220888 0.00408063 0)
(0.173619 0.00619017 0)
(0.142785 0.00573867 0)
(0.122351 0.00444437 0)
(0.108424 0.00303927 5.74614e-20)
(0.0993431 0.00183546 -1.94125e-34)
(0.0948027 0.00105615 1.12045e-20)
(0.0922973 0.000335213 1.86908e-20)
(3.36716 -0.0863031 5.39112e-19)
(3.32648 -0.26507 -8.41859e-20)
(3.2474 -0.430632 8.52031e-19)
(3.13241 -0.582123 -6.05047e-19)
(2.98635 -0.718074 6.66176e-19)
(2.81522 -0.836308 2.74769e-19)
(2.62656 -0.933951 -1.92939e-18)
(2.42943 -1.00769 -7.68307e-20)
(2.22456 -1.05347 0)
(1.9847 -1.06628 4.27659e-19)
(3.86196 -0.07505 7.07318e-18)
(3.79863 -0.234184 1.95626e-18)
(3.7043 -0.387267 -4.86633e-18)
(3.58426 -0.531932 -4.4879e-19)
(3.44237 -0.665811 3.55732e-18)
(3.28181 -0.787202 1.92227e-18)
(3.10641 -0.894898 -5.16496e-18)
(2.92191 -0.987462 -1.95048e-18)
(2.72741 -1.06306 2.2014e-18)
(2.49213 -1.12007 8.52104e-19)
(3.83317 -0.0532885 -1.26196e-19)
(3.82033 -0.171538 4.40422e-18)
(3.78557 -0.299725 -1.0888e-18)
(3.72446 -0.430874 -3.44614e-18)
(3.63629 -0.558669 -6.80176e-18)
(3.52381 -0.67871 1.02768e-17)
(3.39124 -0.788653 4.17949e-18)
(3.24352 -0.887777 -3.90934e-18)
(3.08157 -0.978414 -2.90076e-18)
(2.88711 -1.06257 -3.42204e-18)
(3.62871 -0.0472636 -4.83928e-18)
(3.61966 -0.144909 -4.35357e-18)
(3.5997 -0.243714 5.47268e-18)
(3.56744 -0.343057 1.91225e-18)
(3.52254 -0.442323 -8.97412e-18)
(3.46434 -0.54073 4.92584e-19)
(3.39206 -0.63694 3.88771e-18)
(3.3054 -0.730288 -1.05468e-18)
(3.2053 -0.822877 1.27732e-18)
(3.08337 -0.914529 2.8151e-19)
(3.34409 -0.0365579 -9.15959e-19)
(3.33904 -0.111641 3.00402e-18)
(3.32715 -0.188667 1.61944e-18)
(3.30749 -0.267165 -1.89352e-18)
(3.27993 -0.346061 -2.00153e-18)
(3.24475 -0.424117 -2.43568e-18)
(3.20218 -0.500293 3.80022e-19)
(3.15196 -0.574418 1.38499e-19)
(3.09577 -0.647638 -2.14119e-18)
(3.03325 -0.721137 -2.03621e-18)
(2.96259 -0.026536 -1.82243e-18)
(2.95983 -0.0798759 -5.87115e-20)
(2.95333 -0.134591 -1.63749e-18)
(2.94243 -0.1909 3.12158e-19)
(2.92679 -0.248552 5.36766e-18)
(2.90634 -0.306933 -3.6691e-19)
(2.88098 -0.365118 4.43696e-20)
(2.85032 -0.422055 -2.60884e-18)
(2.81657 -0.476862 -3.49671e-18)
(2.7862 -0.529814 3.71946e-19)
(2.48714 -0.0174964 -2.89204e-20)
(2.48579 -0.051925 -8.14293e-19)
(2.4826 -0.0872429 -2.61481e-18)
(2.47709 -0.12377 -3.43092e-18)
(2.46882 -0.161535 2.49645e-18)
(2.45747 -0.200271 1.50214e-18)
(2.44264 -0.239359 -1.38492e-18)
(2.42374 -0.277797 1.6243e-18)
(2.4028 -0.314487 -4.29937e-19)
(2.38961 -0.34954 -9.63906e-19)
(1.91464 -0.00967929 7.7244e-19)
(1.91408 -0.0282917 -8.31778e-19)
(1.91278 -0.0474367 -3.27653e-20)
(1.91032 -0.0673587 -3.47295e-20)
(1.90624 -0.0881318 -7.27418e-20)
(1.90013 -0.109618 -2.33184e-18)
(1.89151 -0.131409 -6.78614e-19)
(1.87979 -0.152787 2.62577e-18)
(1.86665 -0.17298 -6.03331e-19)
(1.86193 -0.192212 -1.35081e-18)
(1.23988 -0.00373361 -1.64277e-18)
(1.23966 -0.0106932 -8.48884e-19)
(1.23923 -0.0179001 2.33917e-18)
(1.23823 -0.0254787 -8.89756e-19)
(1.23625 -0.0334765 -6.74109e-19)
(1.23289 -0.0418337 1.35198e-18)
(1.22774 -0.0503527 -1.29581e-18)
(1.22037 -0.0586686 1.28687e-18)
(1.21202 -0.0663457 -1.21015e-18)
(1.21007 -0.0735114 -4.24735e-18)
(0.454912 -0.000257602 6.63073e-19)
(0.454824 -0.000700308 7.03045e-19)
(0.45469 -0.00115903 7.48175e-19)
(0.454323 -0.0016401 1.35395e-18)
(0.453494 -0.00214034 -6.71972e-19)
(0.451981 -0.00263744 -1.29957e-18)
(0.449563 -0.00309942 6.14679e-19)
(0.445987 -0.00359326 2.48366e-20)
(0.44173 -0.00439251 -4.96523e-20)
(0.440342 -0.00504573 1.10574e-19)
(1.6532 0.996506 -2.84898e-19)
(1.51198 0.941262 1.8039e-20)
(1.35858 0.880303 -2.26241e-19)
(1.19753 0.808126 1.76802e-19)
(1.02948 0.723774 -1.93835e-19)
(0.854776 0.626956 -1.014e-19)
(0.673744 0.516884 2.32187e-19)
(0.487042 0.392132 -3.05487e-19)
(0.295906 0.250651 3.09893e-19)
(0.101441 0.0916534 2.39084e-19)
(1.88609 0.991651 0)
(1.72944 0.934333 6.37006e-19)
(1.56066 0.872476 3.29369e-19)
(1.38217 0.801656 1.64293e-19)
(1.19447 0.719757 4.33394e-19)
(0.997506 0.625836 -8.70022e-20)
(0.791361 0.518581 -7.87023e-20)
(0.576364 0.395995 8.91805e-20)
(0.35334 0.255191 -1.04557e-18)
(0.122712 0.0943659 -1.64308e-20)
(2.09082 0.958674 1.56828e-19)
(1.92506 0.904802 0)
(1.74602 0.846277 -1.0082e-19)
(1.55486 0.779431 -3.84597e-19)
(1.35166 0.702016 5.3758e-20)
(1.13608 0.612763 3.97781e-19)
(0.907796 0.510088 -6.07375e-19)
(0.666614 0.391653 -2.00844e-19)
(0.412621 0.254062 7.83754e-19)
(0.145265 0.0947448 -1.76142e-19)
(2.2847 0.898118 1.89088e-19)
(2.11034 0.850393 1.23217e-20)
(1.92123 0.797748 2.43119e-20)
(1.71807 0.736933 3.62526e-20)
(1.50057 0.665823 -2.89864e-20)
(1.26793 0.583125 2.73537e-19)
(1.01929 0.487177 -2.06964e-19)
(0.753704 0.375548 -8.55938e-19)
(0.470298 0.244694 0)
(0.167402 0.0917045 0)
(2.46788 0.811672 -1.06934e-18)
(2.2843 0.770736 -6.07397e-19)
(2.0849 0.724997 -1.20429e-19)
(1.87002 0.671487 -6.65984e-20)
(1.63891 0.608282 0)
(1.39033 0.53414 2.40857e-19)
(1.12278 0.447447 2.67897e-19)
(0.834588 0.345851 2.86371e-19)
(0.523868 0.225967 -4.23937e-19)
(0.187921 0.0849043 -8.12708e-20)
(2.63397 0.702007 7.64904e-19)
(2.44155 0.668008 -1.39209e-19)
(2.23244 0.629646 -2.21273e-19)
(2.00666 0.584291 0)
(1.76304 0.530278 0)
(1.49991 0.466496 0)
(1.21526 0.391477 -3.9002e-20)
(0.906721 0.303104 3.70311e-19)
(0.571527 0.198359 3.79127e-19)
(0.206095 0.074629 -3.08634e-19)
(2.7758 0.572309 -1.19247e-18)
(2.57552 0.545233 -1.48039e-18)
(2.35789 0.514516 -3.02424e-22)
(2.12264 0.477944 -1.87765e-19)
(1.86822 0.434187 -9.28993e-20)
(1.59262 0.382328 -1.78934e-19)
(1.29337 0.321137 4.59205e-19)
(0.967528 0.248848 2.14867e-19)
(0.611612 0.162975 5.4014e-19)
(0.221327 0.0613438 2.02897e-19)
(2.88711 0.425727 -1.15669e-18)
(2.68031 0.405622 8.47172e-20)
(2.45581 0.382817 1.64509e-19)
(2.21302 0.355615 1.6847e-20)
(1.95009 0.323058 -3.14488e-19)
(1.6647 0.284478 -1.74295e-19)
(1.35402 0.238948 -6.21313e-19)
(1.01468 0.185149 1.18538e-19)
(0.642633 0.121243 5.14958e-20)
(0.233077 0.0456151 -6.267e-21)
(2.96285 0.265181 1.01269e-19)
(2.75126 0.252353 3.97046e-19)
(2.52195 0.237908 -3.30306e-19)
(2.274 0.220746 3.63108e-19)
(2.00529 0.200305 3.72594e-19)
(1.71328 0.176184 4.91959e-19)
(1.39486 0.147817 -6.3581e-19)
(1.04637 0.114396 -3.24452e-19)
(0.663439 0.0748137 -4.58493e-20)
(0.240927 0.0280965 -3.2704e-19)
(3.00059 0.0935808 5.81764e-19)
(2.78619 0.0887909 -1.86086e-19)
(2.55431 0.0834503 4.79601e-19)
(2.30373 0.0771568 -3.1078e-19)
(2.03214 0.0697344 2.66477e-19)
(1.73684 0.0610677 6.05513e-19)
(1.41462 0.0509832 3.78937e-19)
(1.06165 0.039238 3.09389e-19)
(0.673422 0.0255084 2.65889e-19)
(0.244664 0.00950774 5.43669e-19)
(0.238105 0.447937 -4.63965e-19)
(0.202691 0.414396 -1.79004e-19)
(0.167383 0.377643 1.3655e-19)
(0.134149 0.340391 -4.19866e-19)
(0.104624 0.304577 -1.21033e-19)
(0.0777359 0.267376 6.88683e-19)
(0.0512966 0.220958 3.36733e-19)
(0.0254882 0.156601 -1.67257e-19)
(0.00693082 0.0787771 1.07386e-19)
(-0.00120054 0.0222122 -5.98262e-20)
(0.288143 0.539849 4.06003e-19)
(0.248265 0.503211 4.50666e-19)
(0.207754 0.461368 -1.44872e-20)
(0.167559 0.414744 -1.28511e-19)
(0.131022 0.367138 -2.99945e-19)
(0.100549 0.319982 8.22541e-20)
(0.0733154 0.266934 2.19249e-19)
(0.045595 0.194848 1.59815e-19)
(0.018078 0.10052 -5.79839e-19)
(0.00266406 0.0284309 -1.22097e-19)
(0.359934 0.628691 -5.94673e-19)
(0.314008 0.588759 -4.76538e-19)
(0.268112 0.543139 2.51821e-19)
(0.221388 0.490121 1.33376e-19)
(0.175845 0.430839 -3.10858e-21)
(0.136323 0.369198 -1.3617e-19)
(0.102137 0.303496 -2.51772e-20)
(0.0683545 0.223279 -5.58322e-19)
(0.0334536 0.124824 -2.70235e-19)
(0.00750684 0.0373055 -3.92771e-20)
(0.45476 0.713713 4.98814e-19)
(0.400524 0.669801 1.64428e-19)
(0.346727 0.619098 -1.47102e-19)
(0.292461 0.5604 6.51381e-20)
(0.237864 0.492732 5.08945e-23)
(0.186631 0.418571 2.38493e-21)
(0.140113 0.338904 -1.2675e-19)
(0.0954192 0.249005 3.84746e-19)
(0.0512992 0.146871 -4.21809e-19)
(0.0134662 0.0473296 -6.67198e-20)
(0.57241 0.794185 -2.81582e-19)
(0.508203 0.7464 -8.91494e-20)
(0.443853 0.689915 -1.39594e-20)
(0.379156 0.624595 -6.47082e-20)
(0.313812 0.549765 5.57156e-20)
(0.249676 0.466314 4.80425e-20)
(0.188353 0.37541 -2.60956e-20)
(0.129267 0.27575 -2.85228e-19)
(0.0724275 0.167059 2.19916e-19)
(0.0208261 0.0566013 8.79741e-20)
(0.709542 0.867898 6.45365e-19)
(0.634466 0.816824 3.2493e-19)
(0.558201 0.755027 2.10885e-19)
(0.480892 0.683358 4.7893e-20)
(0.402411 0.601916 1.48523e-19)
(0.323834 0.511124 7.3252e-20)
(0.246413 0.411625 1.38432e-19)
(0.170802 0.303317 5.7635e-20)
(0.0979797 0.186444 -1.7983e-20)
(0.0299351 0.0649016 -1.4569e-20)
(0.861892 0.932447 -1.19402e-19)
(0.775424 0.878545 -8.37011e-19)
(0.686596 0.812265 -8.75561e-20)
(0.595628 0.735373 -3.72722e-20)
(0.502475 0.648502 -1.45141e-20)
(0.408046 0.551883 1.47906e-19)
(0.31341 0.445739 -4.40491e-20)
(0.219652 0.330053 6.58501e-20)
(0.128244 0.204884 -1.4447e-19)
(0.0408701 0.0724345 -9.42606e-22)
(1.02643 0.984173 -8.89413e-19)
(0.928214 0.928045 5.93458e-20)
(0.826444 0.858412 -2.26793e-19)
(0.721291 0.777879 -7.61383e-20)
(0.612635 0.687257 -2.91654e-20)
(0.501359 0.586538 -7.47565e-20)
(0.388458 0.475548 5.68502e-20)
(0.275118 0.353995 6.05752e-20)
(0.162955 0.221463 -9.83095e-21)
(0.0535305 0.0790999 -1.04252e-19)
(1.20353 1.01655 1.23956e-19)
(1.09319 0.959788 5.27622e-19)
(0.978007 0.888811 1.59816e-21)
(0.858032 0.80687 -3.27781e-20)
(0.733006 0.71481 1.5341e-19)
(0.603797 0.61222 -3.5026e-19)
(0.471346 0.49855 -2.455e-19)
(0.336801 0.373105 3.56765e-19)
(0.201761 0.234969 1.44493e-19)
(0.0677009 0.0845303 -3.66012e-20)
(1.40021 1.01445 7.43876e-19)
(1.27775 0.961525 3.25879e-19)
(1.14759 0.894738 5.51417e-20)
(1.0107 0.815947 -1.98302e-19)
(0.867154 0.726208 -1.67983e-20)
(0.71783 0.625137 4.67228e-19)
(0.563548 0.511892 -2.68946e-19)
(0.40533 0.385428 -1.84757e-19)
(0.244708 0.244311 3.36147e-19)
(0.0831201 0.0884468 -6.24848e-21)
(0.96371 0.0921398 9.87327e-21)
(1.16193 0.147514 -4.854e-21)
(1.19385 0.187586 -3.27115e-20)
(1.2846 0.168847 0)
(1.31227 0.165119 8.77835e-21)
(1.24837 0.241892 -3.7129e-20)
(1.109 0.387987 -8.58506e-20)
(0.938518 0.540942 -8.2285e-20)
(0.706052 0.643669 -2.27365e-19)
(0.414144 0.590847 5.43472e-19)
(0.964223 0.0713441 1.86421e-19)
(1.15522 0.123442 -4.69399e-20)
(1.18903 0.16211 2.16541e-21)
(1.28124 0.157551 1.15415e-20)
(1.31502 0.167862 -3.82903e-22)
(1.26805 0.270523 6.45734e-21)
(1.14112 0.434735 1.42805e-19)
(0.985837 0.601777 0)
(0.758174 0.721497 6.27509e-19)
(0.478575 0.681479 -4.91587e-19)
(0.963836 0.0514125 -1.18273e-19)
(1.15128 0.0997278 8.37241e-21)
(1.1876 0.136893 7.14255e-20)
(1.28263 0.144808 2.20394e-20)
(1.32126 0.168959 -2.65312e-21)
(1.28931 0.296703 -3.6954e-20)
(1.17752 0.479592 8.05902e-20)
(1.03897 0.661122 4.13733e-20)
(0.82198 0.79698 -7.5231e-22)
(0.564864 0.768957 -5.48393e-19)
(0.963133 0.0323502 -8.68478e-20)
(1.15008 0.0757589 1.67304e-20)
(1.18955 0.111901 5.68738e-20)
(1.2883 0.130913 1.58382e-20)
(1.33131 0.169218 -1.50157e-20)
(1.31216 0.320963 -6.23738e-21)
(1.21793 0.522224 -4.39507e-20)
(1.09795 0.718089 2.52706e-20)
(0.900479 0.86798 -4.70029e-19)
(0.674605 0.851392 -1.83612e-19)
(0.962858 0.013862 3.95136e-20)
(1.15176 0.0511549 -3.7034e-20)
(1.1948 0.0871536 -4.60056e-20)
(1.29758 0.116298 8.94843e-21)
(1.34447 0.169312 0)
(1.33628 0.343748 0)
(1.26191 0.562293 5.66683e-21)
(1.16352 0.771463 -2.70266e-20)
(0.996155 0.932108 -1.10719e-19)
(0.80594 0.927137 -5.82168e-20)
(0.963546 -0.00458465 1.81057e-21)
(1.15642 0.0257165 4.16924e-20)
(1.20315 0.0627466 -1.4128e-19)
(1.30969 0.101483 -5.98767e-20)
(1.35957 0.169795 -7.62546e-21)
(1.36121 0.36533 3.89968e-20)
(1.30916 0.599272 9.19725e-20)
(1.23696 0.819638 -1.76118e-20)
(1.10948 0.987556 -2.84607e-20)
(0.954218 0.995423 -4.32984e-21)
(0.96538 -0.0235203 1.62735e-20)
(1.16385 -0.000616857 1.27775e-20)
(1.21427 0.038834 -4.70165e-20)
(1.3239 0.0869467 -1.01951e-19)
(1.37563 0.170911 1.70271e-20)
(1.3867 0.385644 8.7876e-21)
(1.35991 0.632332 -5.39648e-20)
(1.31939 0.860975 -1.51445e-19)
(1.2387 1.0339 -1.39578e-20)
(1.1139 1.05626 -9.89577e-19)
(0.967904 -0.0433979 2.01428e-20)
(1.17352 -0.0279247 -8.37936e-20)
(1.22769 0.0156292 8.90162e-20)
(1.33947 0.0734098 7.7252e-20)
(1.39136 0.173314 6.7719e-21)
(1.41216 0.404641 -6.49505e-20)
(1.41393 0.660635 -1.557e-20)
(1.41038 0.894418 -2.83822e-20)
(1.38028 1.07185 1.12248e-20)
(1.27952 1.10899 2.88871e-18)
(0.969606 -0.064476 -1.01635e-19)
(1.18463 -0.05631 4.90942e-20)
(1.24281 -0.00665758 1.40529e-19)
(1.35593 0.0611143 -8.17853e-20)
(1.40696 0.1769 -1.20585e-19)
(1.43874 0.422292 9.38133e-21)
(1.47263 0.68407 1.33341e-19)
(1.51023 0.920493 -4.46051e-19)
(1.53135 1.10259 -2.66605e-20)
(1.44776 1.15057 -6.46371e-18)
(0.969087 -0.0874751 4.29084e-21)
(1.19645 -0.0856846 9.41119e-20)
(1.25858 -0.0281369 4.06016e-20)
(1.37223 0.0519191 -1.97998e-19)
(1.41985 0.185562 -1.52391e-19)
(1.46374 0.442376 -3.71752e-20)
(1.53205 0.706241 2.65986e-21)
(1.61295 0.942403 -3.42065e-19)
(1.68381 1.12574 -1.10524e-18)
(1.61491 1.17011 -7.95926e-18)
(0.966214 -0.119979 -1.43963e-20)
(1.2092 -0.125047 -2.28233e-20)
(1.27501 -0.05862 -5.18903e-20)
(1.3903 0.0353638 5.88813e-20)
(1.43701 0.180421 1.28191e-19)
(1.49836 0.438502 -4.00333e-20)
(1.61306 0.696922 -1.15089e-19)
(1.75478 0.93207 -1.29541e-18)
(1.90255 1.12814 -1.61474e-18)
(1.89854 1.20658 3.29354e-18)
(0.959519 -0.159977 -4.11496e-19)
(1.22198 -0.175427 -5.60498e-21)
(1.28685 -0.104253 -3.96874e-20)
(1.40126 0.0125828 2.24109e-19)
(1.43531 0.158415 2.68663e-19)
(1.50773 0.398627 -1.46352e-19)
(1.67178 0.635055 -1.05108e-19)
(1.88238 0.858358 -4.45539e-19)
(2.1394 1.06715 2.12032e-19)
(2.28368 1.15859 -3.21891e-19)
(0.949797 -0.200575 -2.72061e-20)
(1.23869 -0.227237 -5.05269e-20)
(1.29072 -0.146847 2.86694e-20)
(1.40814 -0.0132773 3.08465e-20)
(1.43175 0.141698 1.7078e-33)
(1.49656 0.349702 1.20412e-21)
(1.69098 0.552217 -2.19308e-33)
(1.95398 0.754023 1.89283e-19)
(2.30361 0.953372 -9.34637e-19)
(2.58713 1.05659 -6.29473e-19)
(0.93842 -0.245509 1.47748e-18)
(1.26054 -0.269989 -7.25492e-34)
(1.27532 -0.197561 -3.76323e-20)
(1.31511 -0.0278302 -2.04045e-19)
(1.3102 0.128441 -4.57363e-19)
(1.41212 0.286214 -9.25245e-19)
(1.63162 0.452292 -5.21295e-33)
(1.93618 0.626669 -1.7329e-18)
(2.32934 0.799779 -3.16126e-18)
(2.75481 0.901304 1.67798e-18)
(0.92735 -0.300449 0)
(1.29931 -0.313898 -2.08021e-33)
(1.1377 -0.194679 0)
(1.14146 -0.0251708 0)
(1.15232 0.107079 0)
(1.27315 0.222571 0)
(1.49896 0.349804 -8.51002e-33)
(1.8206 0.488283 0)
(2.21647 0.632567 -3.4115e-19)
(2.73644 0.711095 1.26015e-18)
(0.915762 -0.360122 1.14962e-19)
(1.25688 -0.324935 -4.46827e-19)
(0.976012 -0.165375 -5.65405e-20)
(0.960716 -0.0224735 0)
(0.97996 0.0789583 0)
(1.10035 0.159381 6.4241e-20)
(1.31289 0.250257 1.23278e-18)
(1.61953 0.352689 -1.95439e-19)
(1.99856 0.465268 -4.95513e-19)
(2.53335 0.519973 4.66919e-18)
(0.883145 -0.405171 -1.5199e-17)
(1.0934 -0.277523 1.05737e-18)
(0.802202 -0.125391 -7.32576e-20)
(0.765588 -0.0192052 -1.00831e-19)
(0.789409 0.051201 -4.80914e-19)
(0.897004 0.101058 -7.65934e-19)
(1.08086 0.15896 -1.07413e-18)
(1.34817 0.2279 -1.40873e-18)
(1.6886 0.305687 -1.62372e-18)
(2.18033 0.344266 3.62773e-18)
(0.808769 -0.394455 -4.13451e-19)
(0.887372 -0.206826 -1.21724e-18)
(0.610152 -0.0805587 -1.26298e-19)
(0.561464 -0.0143781 -8.20884e-20)
(0.582741 0.0274489 -8.29109e-34)
(0.666958 0.0528821 9.89476e-20)
(0.808481 0.0832813 -1.51368e-32)
(1.0174 0.122371 -1.93405e-19)
(1.29291 0.167128 2.98208e-19)
(1.6994 0.192019 7.05134e-19)
(0.664127 -0.288841 3.42669e-17)
(0.618377 -0.107727 -3.13839e-18)
(0.395211 -0.0343846 -2.41365e-19)
(0.345559 -0.00715971 -1.30048e-19)
(0.359896 0.00948446 3.74736e-19)
(0.413816 0.0178392 7.7311e-19)
(0.502966 0.028668 7.89717e-19)
(0.637298 0.0446773 4.5956e-19)
(0.820893 0.0634004 -1.8857e-19)
(1.10154 0.0762151 3.56582e-18)
(0.336794 -0.0768316 5.58814e-19)
(0.261874 -0.00231925 -6.76953e-33)
(0.144932 0.0187984 -3.05532e-19)
(0.122094 0.003014 0)
(0.125486 -0.00210672 0)
(0.143113 -0.0052408 9.99704e-20)
(0.173036 -0.006159 8.86384e-35)
(0.220467 -0.00412247 -1.23635e-19)
(0.288136 -0.00160328 -2.81814e-19)
(0.398967 0.00332172 1.0005e-18)
(2.0016 1.09541 -1.78676e-18)
(2.2387 1.07772 -2.30424e-18)
(2.4418 1.02858 0)
(2.63688 0.95214 -7.60386e-19)
(2.82347 0.85227 -1.78878e-18)
(2.9927 0.732241 -2.24923e-18)
(3.13708 0.594953 -4.81267e-19)
(3.25057 0.442651 1.2694e-18)
(3.32829 0.276946 -3.54767e-18)
(3.3677 0.0986977 1.35662e-18)
(2.49811 1.14073 2.65824e-19)
(2.73009 1.081 1.39496e-18)
(2.9235 1.00353 1.43717e-19)
(3.10646 0.909329 6.74691e-19)
(3.28041 0.800339 -1.10276e-18)
(3.43985 0.678113 -4.99562e-18)
(3.5809 0.543876 2.46527e-18)
(3.70045 0.399235 1.26972e-17)