# Selection   : all
# Cells       : 440
# Volume      : 7.374263e+01
# Time        	minMag(U)
5.615         	8.510887e-03
5.66          	7.204836e-03
5.71          	7.102156e-03
