/*--------------------------------*- C++ -*----------------------------------*\
  =========                 |
  \\      /  F ield         | OpenFOAM: The Open Source CFD Toolbox
   \\    /   O peration     | Website:  https://openfoam.org
    \\  /    A nd           | Version:  13
     \\/     M anipulation  |
\*---------------------------------------------------------------------------*/
FoamFile
{
    format      ascii;
    class       volScalarField;
    location    "9";
    object      p;
}
// * * * * * * * * * * * * * * * * * * * * * * * * * * * * * * * * * * * * * //

dimensions      [0 2 -2 0 0 0 0];

internalField   nonuniform List<scalar> 
440
(
-1.08737
-1.06698
-1.06467
-1.03805
-1.11408
-1.15208
-1.1302
-1.10676
-1.08302
-1.0668
-1.27724
-1.24101
-1.19761
-1.14468
-1.08823
-1.41895
-1.36744
-1.27055
-1.15641
-1.04191
-1.51505
-1.44417
-1.2835
-1.11803
-0.967994
-1.08414
-1.09002
-1.10449
-1.12417
-1.15108
-1.1213
-1.11484
-1.1104
-1.11473
-1.1107
-1.12646
-1.11531
-1.10563
-1.10452
-1.10573
-1.10329
-1.08806
-1.06964
-1.0573
-1.05557
-1.05922
-1.04404
-1.02274
-0.995447
-1.0052
-1.68497
-0.669161
0.0352973
-0.0554172
0.0433941
-1.51832
-0.892005
0.0154924
-0.155296
0.0487083
-1.42238
-1.09212
-0.0112014
-0.244781
0.049299
-1.30966
-1.14881
0.0464713
-0.207113
0.0504017
-1.21096
-1.13455
0.180776
-0.0334382
0.0339574
-0.938047
-1.00307
0.266939
0.145223
-0.00891744
-0.599504
-0.632556
0.142916
0.0266623
-0.0390898
-0.453356
-0.369208
0.0655898
0.187318
0.012307
-0.341939
-0.243188
0.0363867
0.138748
-0.00407717
-0.2304
-0.243188
0.0420955
0.18883
0.0289151
-0.714416
-0.830262
-0.983359
-1.15146
-1.28261
-0.465492
-0.584543
-0.666019
-0.721539
-0.740547
-0.298781
-0.399049
-0.461426
-0.499661
-0.523847
-0.192768
-0.283132
-0.345778
-0.378388
-0.393716
-0.140665
-0.23012
-0.287611
-0.310438
-0.30478
0.636279
0.478402
0.277027
0.0540584
-0.187339
0.211115
0.0445891
-0.158639
-0.388862
-0.649285
-0.202861
-0.371338
-0.584801
-0.82307
-1.06699
-0.564716
-0.737865
-0.952464
-1.18328
-1.371
-0.807723
-0.981643
-1.18193
-1.39137
-1.51317
1.73217
1.76006
1.78296
1.79097
1.78207
1.53681
1.55511
1.56629
1.55925
1.53082
1.32073
1.30473
1.26451
1.20072
1.11006
1.0745
1.03671
0.961561
0.854891
0.71916
0.856941
0.746836
0.603701
0.44005
0.243287
1.52127
1.51472
1.49011
1.55997
1.62585
1.51145
1.50301
1.47088
1.53883
1.53225
1.50273
1.4885
1.4493
1.50632
1.41339
1.49536
1.47133
1.4267
1.45559
1.24282
1.48942
1.45332
1.40323
1.40742
1.05844
1.48544
1.42568
1.37382
1.30089
0.854275
1.48412
1.38758
1.36938
1.16167
0.97753
1.49309
1.37266
1.36198
1.09884
1.03993
1.48841
1.34117
1.35617
1.04304
1.07997
1.52557
1.33671
1.35526
1.00431
1.12172
0.601969
0.291565
-0.0527534
-0.355233
-0.545566
0.494092
0.271512
0.0438895
-0.157099
-0.326288
0.472481
0.289727
0.122295
-0.0297414
-0.176154
0.535685
0.360721
0.200853
0.057326
-0.0764239
0.584671
0.4046
0.244666
0.102808
-0.0271382
-1.41761
-1.29724
-1.14781
-1.02738
-0.955323
-1.50439
-1.44255
-1.32887
-1.23582
-1.18001
-1.4512
-1.40476
-1.33764
-1.28237
-1.2463
-1.32801
-1.29233
-1.25197
-1.21791
-1.19147
-1.2325
-1.21355
-1.19122
-1.17009
-1.1642
-1.18083
-1.17375
-1.16223
-1.15557
-1.12788
-1.16245
-1.16268
-1.16342
-1.17118
-1.17008
-1.14787
-1.15763
-1.1774
-1.20605
-1.22891
-1.05613
-1.0694
-1.09513
-1.13011
-1.1652
-1.02873
-1.04587
-1.07686
-1.11928
-1.17603
-1.10556
-0.0824464
0.289085
0.109943
0.045671
-1.09922
0.0538708
0.346702
0.0903663
0.0450699
-1.10513
0.105987
0.328071
0.0733886
0.0435965
-1.28621
-0.0475364
0.1886
0.0365578
0.0410816
-1.60379
-0.404328
0.060081
-0.0076282
0.0397235
-0.729774
-0.28251
0.122034
0.0925758
0.0513222
-0.985744
-0.229125
0.194004
0.122836
0.0558987
-0.912246
-1.15108
-1.21627
-1.17754
-0.984536
-0.930163
-1.15711
-1.22728
-1.17475
-1.15316
1.42477
1.40764
1.37482
1.32749
1.26478
1.60527
1.62616
1.63425
1.62778
1.60683
1.75344
1.78661
1.81447
1.83163
1.83502
1.83649
1.87461
1.9148
1.94732
1.96236
1.82377
1.85894
1.89799
1.93029
1.94447
-0.533816
-0.626049
-0.770152
-0.945979
-1.13814
0.0195851
-0.100341
-0.260753
-0.452591
-0.683631
0.515149
0.389504
0.240087
0.0654239
-0.144851
0.911217
0.815006
0.698112
0.557635
0.391472
1.22749
1.16189
1.07748
0.976874
0.859673
1.58446
1.54591
1.53
1.54184
1.55555
1.56897
1.54277
1.52859
1.55559
1.61337
1.55566
1.53832
1.52577
1.57355
1.67819
1.54331
1.53244
1.51802
1.57901
1.68728
1.53181
1.52491
1.50566
1.57474
1.67269
1.64104
1.55332
1.5198
1.46952
1.42415
1.5954
1.54341
1.51398
1.48755
1.445
1.12151
0.919408
0.567573
0.0568382
-0.506465
1.19402
0.947975
0.583739
0.0766519
-0.498649
)
;

boundaryField
{
    left
    {
        type            zeroGradient;
    }
    right
    {
        type            fixedValue;
        value           uniform 0;
    }
    down
    {
        type            zeroGradient;
    }
    up
    {
        type            zeroGradient;
    }
    cylinder
    {
        type            zeroGradient;
    }
    defaultFaces
    {
        type            empty;
    }
}


// ************************************************************************* //
