# Selection   : all
# Cells       : 440
# Volume      : 7.374263e+01
# Time        	max(p)
1             	1.893830e+00
1.05          	1.908037e+00
1.1           	1.913314e+00
