/*--------------------------------*- C++ -*----------------------------------*\
  =========                 |
  \\      /  F ield         | OpenFOAM: The Open Source CFD Toolbox
   \\    /   O peration     | Website:  https://openfoam.org
    \\  /    A nd           | Version:  13
     \\/     M anipulation  |
\*---------------------------------------------------------------------------*/
FoamFile
{
    format      ascii;
    class       surfaceScalarField;
    location    "3.4675";
    object      phi;
}
// * * * * * * * * * * * * * * * * * * * * * * * * * * * * * * * * * * * * * //

dimensions      [0 3 -1 0 0 0 0];

internalField   nonuniform List<scalar> 
3485
(
0.0020791
-0.00400698
0.00192788
0.00863248
-0.056067
0.0495136
0.018022
-0.108925
0.0995359
0.0283207
-0.138339
0.128041
0.0385307
-0.148638
0.138428
0.0483488
-0.149391
0.139573
0.057734
-0.14657
0.137185
0.066682
-0.142747
0.133799
0.0751471
-0.138684
0.130219
-0.134433
0.126218
0.0833625
0.00256211
-0.00656909
0.00954118
-0.0630461
0.0189128
-0.118297
0.0288525
-0.148279
0.0385979
-0.158383
0.0480445
-0.158837
0.0572958
-0.155821
0.0664766
-0.151928
0.0757744
-0.147982
-0.144211
0.0855523
0.00298204
-0.00955112
0.0102404
-0.0703044
0.0193458
-0.127402
0.0285653
-0.157499
0.0373302
-0.167148
0.0456472
-0.167154
0.0536457
-0.16382
0.0614249
-0.159707
0.0690524
-0.15561
-0.151626
0.0764672
0.00341636
-0.0129675
0.0109109
-0.077799
0.0197052
-0.136197
0.028219
-0.166012
0.0361213
-0.17505
0.0435718
-0.174605
0.0507694
-0.171017
0.0578329
-0.166771
0.0648255
-0.162602
-0.158676
0.0718759
0.0037662
-0.0167337
0.0113175
-0.0853503
0.0195816
-0.144461
0.0271583
-0.173589
0.0339505
-0.181843
0.04025
-0.180904
0.0463026
-0.17707
0.0522393
-0.172707
0.0581332
-0.168496
-0.164561
0.0640174
0.00405421
-0.0207879
0.0115117
-0.0928078
0.0191004
-0.15205
0.0256452
-0.180134
0.0312889
-0.187486
0.0364387
-0.186054
0.0413761
-0.182007
0.0462314
-0.177563
0.0510594
-0.173324
-0.169404
0.0559029
0.0042326
-0.0250205
0.0113953
-0.0999705
0.0181179
-0.158772
0.0234906
-0.185507
0.0278834
-0.191879
0.0317967
-0.189968
0.0355344
-0.185745
0.0392249
-0.181253
0.0429185
-0.177018
-0.173124
0.0466383
0.00428967
-0.0293102
0.0109567
-0.106638
0.016643
-0.164458
0.0207479
-0.189611
0.0238375
-0.194969
0.0264772
-0.192607
0.0289752
-0.188243
0.0314498
-0.183728
0.0339415
-0.17951
-0.175648
0.0364655
0.0042013
-0.0335115
0.0101664
-0.112603
0.0146595
-0.168951
0.0174349
-0.192387
0.019186
-0.19672
0.0205295
-0.193951
0.0217659
-0.189479
0.0230002
-0.184962
0.0242654
-0.180775
-0.176954
0.0255712
0.00396424
-0.0374757
0.00902896
-0.117667
0.0122293
-0.172152
0.0136367
-0.193794
0.0140331
-0.197116
0.01408
-0.193998
0.0140554
-0.189455
0.0140468
-0.184953
0.0140772
-0.180805
0.0141527
-0.177029
-0.000792715
0.000436466
0.000356249
0.00243497
-0.00812392
0.00489624
0.0109056
-0.0180199
0.00954929
0.0227402
-0.0241134
0.0122788
0.0360139
-0.0266214
0.0133477
0.0496218
-0.0271278
0.0135198
0.0630804
-0.0267762
0.0133177
0.0762204
-0.0261345
0.0129944
0.089006
-0.0254367
0.0126511
-0.0249571
0.101622
0.0123409
-0.000707284
0.00114375
0.00263821
-0.0114694
0.0111642
-0.0265458
0.0229789
-0.0359282
0.0361804
-0.0398229
0.0496885
-0.0406359
0.0630359
-0.0401237
0.0760626
-0.0391611
0.0887389
-0.038113
-0.0374689
0.101251
-0.000582174
0.00172592
0.00293277
-0.0149844
0.0115428
-0.0351559
0.0233359
-0.0477212
0.0364416
-0.0529287
0.0498145
-0.0540088
0.0630099
-0.053319
0.0758794
-0.0520307
0.0884022
-0.0506357
-0.0498313
0.100765
-0.000410721
0.00213665
0.00333838
-0.0187335
0.0120668
-0.0438843
0.0238361
-0.0594905
0.0368201
-0.0659126
0.05002
-0.0672087
0.0630213
-0.0663203
0.0756913
-0.0647007
0.0880192
-0.0629636
-0.0620006
0.100188
-0.000192179
0.00232882
0.0038673
-0.0227929
0.0127532
-0.0527703
0.0244962
-0.0712335
0.037331
-0.0787474
0.0503209
-0.0801986
0.0630905
-0.0790898
0.0755262
-0.0771365
0.0876281
-0.0750655
-0.0739394
0.0995669
6.52451e-05
0.00226358
0.00452401
-0.0272517
0.0136031
-0.0618493
0.0253101
-0.0829405
0.0379636
-0.0914009
0.0507069
-0.0929419
0.0632141
-0.0915971
0.0753955
-0.0893179
0.0872589
-0.0869289
-0.0856145
0.098934
0.000433249
0.00183033
0.00532819
-0.0321466
0.0146008
-0.0711219
0.026236
-0.0945758
0.0386562
-0.103821
0.0511041
-0.10539
0.0633164
-0.103809
0.0752342
-0.101236
0.0868672
-0.0985619
-0.0969786
0.0982313
0.000843245
0.000987084
0.00621783
-0.0375212
0.0156614
-0.0805655
0.0271564
-0.106071
0.0392543
-0.115919
0.0513166
-0.117452
0.0631546
-0.115647
0.0747485
-0.112829
0.0861019
-0.109915
-0.10787
0.0969929
0.00126432
-0.000277231
0.00708192
-0.0433388
0.0166007
-0.0900842
0.0278171
-0.117287
0.0394278
-0.12753
0.0509156
-0.12894
0.0621598
-0.126892
0.0731663
-0.123836
0.0839085
-0.120658
-0.117818
0.093857
0.00165064
0.00782546
0.0172771
0.0280305
0.0389287
0.0495615
0.0598546
0.0698177
0.0793796
0.0877793
0.15485
-0.152482
0.0992542
0.181328
-0.108351
0.0818725
0.1946
-0.0809808
0.0677086
0.201146
-0.0612713
0.0547261
0.204107
-0.0462186
0.0432569
0.205028
-0.0343453
0.0334244
0.204754
-0.0248438
0.0251185
0.203743
-0.0170651
0.0180752
0.202277
-0.0109768
0.0124433
-0.00325755
0.00516889
0.153666
-0.204897
0.180315
-0.135
0.19388
-0.0945463
0.200682
-0.0680729
0.203845
-0.0493813
0.204927
-0.0354273
0.204788
-0.0247047
0.2039
-0.0161771
0.20255
-0.00962726
-0.00146922
0.151683
-0.255815
0.178408
-0.161725
0.19232
-0.108459
0.199475
-0.0752272
0.20295
-0.0528569
0.204316
-0.0367927
0.204439
-0.0248283
0.203804
-0.0155424
0.202705
-0.00852783
6.12744e-05
0.148889
-0.304516
0.175595
-0.188431
0.189918
-0.122781
0.197525
-0.082835
0.201428
-0.0567592
0.203198
-0.038563
0.203711
-0.025341
0.203459
-0.0152907
0.202741
-0.00781028
0.00119927
0.145288
-0.350237
0.171867
-0.21501
0.186675
-0.137589
0.194841
-0.0910001
0.199285
-0.0612032
0.20158
-0.0408589
0.202605
-0.0263655
0.202861
-0.015547
0.202656
-0.00760479
0.00181086
0.140867
-0.392171
0.167205
-0.241348
0.182597
-0.152981
0.19143
-0.0998327
0.196531
-0.0663049
0.199471
-0.0437983
0.201131
-0.028026
0.202021
-0.0164369
0.202452
-0.00803532
0.00176699
0.135545
-0.429485
0.161551
-0.267354
0.177668
-0.169098
0.187299
-0.109464
0.19318
-0.0721864
0.196881
-0.0474985
0.199294
-0.030439
0.200937
-0.0180803
0.202128
-0.00922659
0.0009394
0.129212
-0.461704
0.154763
-0.292905
0.171811
-0.186146
0.182433
-0.120085
0.189237
-0.0789905
0.193822
-0.0520834
0.197104
-0.0337214
0.199617
-0.020593
0.201687
-0.0112965
-0.000794038
0.121933
-0.48978
0.146639
-0.317611
0.164804
-0.20431
0.176716
-0.131997
0.184658
-0.0869322
0.190283
-0.0577085
0.194565
-0.0380032
0.198064
-0.0240922
0.201128
-0.0143608
-0.00355366
0.114703
-0.516704
0.138424
-0.341332
0.15693
-0.222817
0.170121
-0.145187
0.179389
-0.0962003
0.186237
-0.0645564
0.191667
-0.0434334
0.19628
-0.0287051
0.200452
-0.0185333
-0.00745125
0.377114
-0.457244
-0.436573
0.345773
-0.309992
0.330006
-0.207049
0.322504
-0.137686
0.318596
-0.0922917
0.316259
-0.06222
0.314706
-0.04188
0.313646
-0.0276449
0.312931
-0.0178187
-0.00715173
0.389524
-0.387828
-0.45894
0.355104
-0.275571
0.33771
-0.189656
0.328367
-0.128343
0.322766
-0.08669
0.319164
-0.0586184
0.316754
-0.0394703
0.315143
-0.0260329
0.314088
-0.0167638
-0.00672109
0.405408
-0.323374
-0.469862
0.368249
-0.238412
0.346929
-0.168336
0.33457
-0.115984
0.326944
-0.0790632
0.322011
-0.0536855
0.31874
-0.0361995
0.31658
-0.0238734
0.315186
-0.0153692
-0.0061605
0.415636
-0.263625
-0.475385
0.377866
-0.200643
0.354447
-0.144916
0.339946
-0.101483
0.33068
-0.0697978
0.324598
-0.047603
0.320556
-0.0321578
0.317899
-0.0212162
0.316192
-0.0136621
-0.00547712
0.422804
-0.208722
-0.477708
0.385385
-0.163223
0.360653
-0.120184
0.344531
-0.0853609
0.33393
-0.0591968
0.326874
-0.0405477
0.322163
-0.0274462
0.319068
-0.0181214
0.317082
-0.0116759
-0.00468263
0.427714
-0.15824
-0.478196
0.391067
-0.126576
0.365584
-0.0947017
0.348295
-0.0680713
0.33665
-0.0475517
0.328801
-0.0326991
0.323531
-0.0221766
0.320065
-0.0146552
0.317838
-0.0094486
-0.00379108
0.430951
-0.111406
-0.477785
0.395184
-0.090809
0.369317
-0.0688342
0.351223
-0.0499779
0.338799
-0.0351274
0.330337
-0.0242376
0.324628
-0.0164674
0.320865
-0.0108923
0.318443
-0.00702661
-0.00281924
0.432596
-0.0669695
-0.477032
0.39761
-0.0558232
0.371643
-0.0428677
0.353085
-0.03142
0.340153
-0.0221951
0.331275
-0.0153597
0.325261
-0.0104536
0.321291
-0.00692199
0.318728
-0.00446307
-0.00178752
0.42648
-0.021365
-0.472084
0.39223
-0.0215733
0.366936
-0.0175737
0.348696
-0.0131795
0.335876
-0.00937569
0.327028
-0.00651204
0.321019
-0.00444454
0.31705
-0.00295277
0.314487
-0.0019001
-0.000756883
0.317215
-0.33858
0.295642
0.278068
0.264889
0.255513
0.249001
0.244556
0.241604
0.239703
0.469986
0.012518
-0.468351
0.470862
0.0246944
0.470853
0.0364753
0.469846
0.0476452
0.467528
0.0582202
0.464618
0.0669279
0.458468
0.0780253
0.45499
0.0799455
0.443016
0.0975265
0.0898052
0.451284
0.0109041
-0.44967
0.452952
0.0230259
0.454609
0.0348191
0.456285
0.0459683
0.457552
0.0569534
0.45916
0.0653203
0.459304
0.0778812
0.4605
0.0787497
0.461192
0.0968347
0.0920567
0.43506
0.0092557
-0.433411
0.437343
0.0207426
0.44018
0.0319827
0.44357
0.0425776
0.44733
0.0531939
0.451488
0.0611619
0.456163
0.073206
0.460084
0.0748286
0.466253
0.0906662
0.0884471
0.422669
0.00760274
-0.421016
0.425306
0.0181056
0.428881
0.0284084
0.433344
0.0381146
0.438718
0.04782
0.44458
0.0552997
0.451944
0.0658422
0.458402
0.0683701
0.467758
0.0813101
0.0808208
0.412965
0.00594849
-0.411311
0.415862
0.0152093
0.41997
0.0243006
0.4252
0.0328845
0.431652
0.0413677
0.438808
0.0481439
0.447758
0.0568923
0.456228
0.0598996
0.46747
0.0700683
0.0705827
0.405636
0.00426992
-0.403958
0.408727
0.012119
0.413201
0.0198264
0.418965
0.0271208
0.426104
0.0342282
0.43417
0.0400782
0.444017
0.0470446
0.453873
0.0500445
0.46621
0.0577305
0.058597
0.400301
0.00254934
-0.39858
0.403557
0.00886285
0.408311
0.0150729
0.414465
0.0209667
0.422056
0.0266367
0.43074
0.0313942
0.441094
0.0366905
0.451855
0.0392843
0.464756
0.0448287
0.0455686
0.395823
0.000617307
-0.393891
0.399353
0.00533305
0.404469
0.0099563
0.411071
0.014365
0.419122
0.0185855
0.428349
0.0221675
0.439051
0.0259888
0.450409
0.0279262
0.463545
0.0316922
0.0320818
0.378652
-0.0013205
-0.376714
0.382723
0.00126262
0.388804
0.00387465
0.396724
0.00644572
0.406343
0.00896619
0.417316
0.0111946
0.429741
0.0135635
0.44282
0.0148477
0.45732
0.0171919
0.0173172
0.243916
-0.245236
0.245179
0.249053
0.255499
0.264465
0.27566
0.289223
0.304071
0.321263
0.0796737
0.12788
-0.115291
-0.0922626
0.0681405
0.129733
-0.1182
0.0575802
0.132525
-0.121965
0.0475019
0.136171
-0.126093
0.0375211
0.140246
-0.130265
0.0274834
0.144209
-0.134171
0.0175705
0.145941
-0.136028
0.00860494
0.138328
-0.129362
0.00223702
0.108052
-0.101684
0.0467061
-0.0444691
0.0805102
0.139128
-0.0917587
0.0690019
0.141241
0.0578955
0.143631
0.0472588
0.146808
0.0369051
0.1506
0.0267147
0.154399
0.0168561
0.155799
0.00811601
0.147068
0.00204074
0.114127
0.0487468
0.0723686
0.148307
-0.0815471
0.0627053
0.150905
0.0528851
0.153452
0.0431038
0.156589
0.0333966
0.160307
0.0237971
0.163999
0.0145815
0.165015
0.00661467
0.155035
0.00138957
0.119352
0.0501364
0.060161
0.155497
-0.0673511
0.0525604
0.158505
0.0445453
0.161467
0.0362413
0.164893
0.0277651
0.168783
0.0192658
0.172498
0.0111498
0.173131
0.00441065
0.161774
0.000498195
0.123264
0.0506346
0.0480823
0.161309
-0.0538947
0.041971
0.164617
0.0354413
0.167997
0.0285456
0.171789
0.0213885
0.17594
0.0141536
0.179733
0.00732781
0.179956
0.00199744
0.167104
-0.000440856
0.125703
0.0501937
0.037234
0.166221
-0.0421462
0.0321237
0.169727
0.0266997
0.173421
0.0209794
0.177509
0.0150377
0.181882
0.0090589
0.185712
0.00356528
0.18545
-0.000414402
0.171084
-0.00131844
0.126607
0.0488753
0.0270681
0.170359
-0.0312058
0.0228126
0.173982
0.0183546
0.177879
0.0137004
0.182163
0.00890721
0.186675
0.00417111
0.190448
-4.41573e-05
0.189665
-0.00239317
0.173433
-0.00202716
0.126241
0.0468481
0.0169745
0.173619
-0.0202339
0.0136393
0.177317
0.0101724
0.181345
0.00658195
0.185754
0.00292772
0.190329
-0.00060318
0.193979
-0.00326206
0.192324
-0.00424567
0.174416
-0.00258869
0.124584
0.0442595
0.00672499
0.175882
-0.00898899
0.00441903
0.179623
0.00204476
0.18372
-0.000390748
0.188189
-0.0028417
0.19278
-0.00504218
0.196179
-0.00648712
0.193769
-0.00607677
0.174006
-0.0031702
0.121677
0.0410893
-0.00361769
0.00247096
-0.00479947
-0.00603327
-0.00729847
-0.00851604
-0.00945274
-0.00947768
-0.00762342
-0.00361355
0.10341
0.0237933
-0.114698
-0.012505
0.0917935
0.0244162
-0.0128
0.0798106
0.0250918
-0.0131089
0.0674439
0.0258073
-0.0134407
0.0546869
0.0265572
-0.0138002
0.0415457
0.027318
-0.0141768
0.0281595
0.027848
-0.0144619
0.01525
0.0270653
-0.0141558
0.00481761
0.0223954
-0.011963
0.0108631
-0.00604552
0.102645
0.0350652
-0.113917
0.0910597
0.0360013
0.0791228
0.0370287
0.0668167
0.0381134
0.0541341
0.0392399
0.0410811
0.0403709
0.0278003
0.0411289
0.0150174
0.0398482
0.00472393
0.0326889
0.0155871
0.101542
0.0463046
-0.112781
0.0900094
0.0475337
0.0781448
0.0488933
0.0659298
0.0503285
0.0533555
0.0518142
0.0404286
0.0532978
0.0272968
0.0542608
0.0146926
0.0524524
0.00459126
0.0427902
0.0201783
0.099988
0.057485
-0.111168
0.088542
0.0589797
0.0767883
0.0606469
0.0647069
0.0624099
0.0522869
0.0642342
0.0395353
0.0660494
0.0266071
0.0671889
0.014249
0.0648105
0.00441067
0.0526285
0.024589
0.0978258
0.0685621
-0.108903
0.0865233
0.0702822
0.0749467
0.0722234
0.0630691
0.0742876
0.0508733
0.0764299
0.038365
0.0785577
0.025708
0.0798458
0.0136649
0.0768536
0.0041703
0.0621231
0.0287593
0.0948903
0.0794561
-0.105784
0.0838064
0.0813661
0.072477
0.0835529
0.0608748
0.0858898
0.048982
0.0883227
0.0368048
0.0907349
0.0245168
0.0921338
0.0128965
0.088474
0.00385626
0.0711634
0.0326155
0.0911007
0.0899738
-0.101618
0.0804624
0.0920043
0.0695902
0.0944252
0.0584225
0.0970574
0.0469349
0.0998104
0.0351465
0.102523
0.0232624
0.104018
0.0120984
0.0996379
0.00354493
0.0797169
0.0361605
0.0850115
0.0999731
-0.0950108
0.0749319
0.102084
0.0647015
0.104656
0.0542539
0.107505
0.0435191
0.110545
0.0324793
0.113563
0.0213335
0.115164
0.0109109
0.110061
0.00306972
0.087558
0.0392302
0.082253
0.108547
-0.0908264
0.0731676
0.111169
0.0634004
0.114423
0.0530998
0.117806
0.042411
0.121234
0.0314458
0.124528
0.0204721
0.126137
0.0103473
0.120185
0.00286991
0.0950354
0.0421001
0.0696184
-0.0763627
0.0625878
0.0550458
0.0467586
0.0377274
0.0280844
0.0181942
0.00901726
0.00236897
0.202118
0.0128601
-0.0169883
0.204616
0.0282901
-0.0307881
0.205052
0.0343472
-0.0347834
0.206019
0.0359954
-0.0369621
0.205112
0.0425679
-0.0416611
0.202594
0.0511973
-0.0486793
0.196507
0.0639317
-0.0578445
0.185747
0.0806877
-0.0699274
0.159949
0.108738
-0.0829403
0.144804
-0.0995532
0.201849
0.00900068
0.20421
0.0259292
0.204598
0.0339591
0.205502
0.0350911
0.204514
0.0435559
0.201861
0.0538511
0.19563
0.070162
0.184554
0.0917636
0.158817
0.134476
0.189704
0.201453
0.00553715
0.203535
0.0238477
0.20378
0.0337142
0.204479
0.0343922
0.203286
0.0447489
0.200374
0.0567626
0.193917
0.076619
0.182408
0.103272
0.156908
0.159977
0.23383
0.200926
0.00260047
0.202595
0.0221796
0.202608
0.0337008
0.202958
0.034042
0.201439
0.0462683
0.198149
0.0600521
0.19137
0.0833979
0.179292
0.115351
0.154266
0.185002
0.276928
0.200262
0.000328125
0.201393
0.0210492
0.201097
0.0339965
0.200954
0.0341848
0.198991
0.0482317
0.195206
0.0638367
0.188003
0.0906007
0.175169
0.128185
0.150972
0.209199
0.318997
0.199454
-0.00113633
0.199935
0.0205684
0.199261
0.0346709
0.198478
0.0349673
0.195962
0.0507479
0.191564
0.0682345
0.183828
0.098337
0.170047
0.141966
0.14706
0.232186
0.360273
0.198498
-0.00164489
0.198232
0.0208345
0.197119
0.0357843
0.195546
0.0365401
0.192376
0.0539176
0.187242
0.0733689
0.178837
0.106742
0.164059
0.156744
0.142575
0.25367
0.40123
0.197389
-0.00104401
0.196294
0.0219293
0.19469
0.037388
0.192172
0.0390585
0.18826
0.0578297
0.182258
0.0793713
0.172989
0.116011
0.157126
0.172607
0.136675
0.27412
0.442894
0.196138
0.000807937
0.194151
0.0239157
0.192001
0.0395387
0.188376
0.0426833
0.183647
0.0625582
0.176686
0.0863324
0.166562
0.126135
0.150562
0.188608
0.131863
0.29282
0.48393
0.194859
0.00393847
0.19188
0.0268949
0.189056
0.0423627
0.184119
0.0476201
0.178379
0.0682989
0.169931
0.0947799
0.157892
0.138175
0.140247
0.206252
0.120713
0.312354
0.52828
0.303342
0.00260686
0.30679
0.0234464
0.310448
0.0387045
0.313018
0.0450508
0.315941
0.065376
0.319382
0.0913385
0.324948
0.132609
0.336012
0.195188
0.360919
0.287447
0.463401
0.425798
0.304228
0.000388947
0.307905
0.0197699
0.312193
0.0344166
0.315532
0.0417116
0.319888
0.0610201
0.325491
0.0857356
0.334445
0.123655
0.35016
0.179472
0.379947
0.257661
0.399292
0.444055
0.305105
-0.00270623
0.309227
0.0156485
0.313927
0.0297162
0.318044
0.0375944
0.323611
0.0554533
0.33106
0.0782864
0.34266
0.112055
0.361259
0.160873
0.39488
0.224039
0.336834
0.457339
0.30601
-0.0067063
0.310615
0.0110433
0.315614
0.0247177
0.320426
0.0327827
0.327015
0.0488644
0.33601
0.0692908
0.349638
0.0984278
0.370414
0.140097
0.405402
0.189051
0.277405
0.464831
0.306997
-0.011693
0.312075
0.00596482
0.31723
0.0195634
0.322604
0.0274088
0.330027
0.0414412
0.340273
0.0590442
0.355407
0.0832941
0.377805
0.1177
0.412572
0.154284
0.221591
0.468385
0.308124
-0.0178063
0.31365
0.000438167
0.318756
0.0144571
0.324529
0.0216359
0.332602
0.0333687
0.343817
0.0478286
0.360037
0.0670748
0.383551
0.0941854
0.417365
0.12047
0.169378
0.469578
0.309439
-0.025235
0.315387
-0.00550996
0.320165
0.00967928
0.326156
0.0156446
0.334706
0.0248193
0.34663
0.035904
0.3636
0.050105
0.387801
0.0699841
0.420499
0.0877725
0.120388
0.469489
0.311117
-0.0343414
0.317304
-0.0116978
0.321334
0.00564968
0.327322
0.00965638
0.336185
0.0159565
0.348595
0.0234935
0.36608
0.0326207
0.390648
0.0454158
0.422419
0.0560016
0.0741519
0.468655
0.309635
-0.041966
0.314914
-0.0169771
0.317999
0.00256519
0.32404
0.00361535
0.333049
0.00694741
0.345773
0.0107689
0.363609
0.0147848
0.388292
0.0207333
0.419649
0.0246447
0.0323173
0.461483
0.260044
0.243067
0.245632
0.249248
0.256195
0.266964
0.281749
0.302482
0.327127
0.359444
0.439284
-0.105748
0.44423
-0.0967044
0.446309
-0.0836263
0.448436
-0.0694788
0.45147
-0.0569287
0.455199
-0.0458749
0.459118
-0.0351251
0.462775
-0.0238902
0.465854
-0.0120688
-2.5397e-05
0.444239
-0.105933
0.442618
-0.0950825
0.441413
-0.0824218
0.441772
-0.0698377
0.44304
-0.0581966
0.444445
-0.0472794
0.445738
-0.0364188
0.446997
-0.0251493
0.448335
-0.013406
-0.00136061
0.450953
-0.0995466
0.445437
-0.0895667
0.440877
-0.0778613
0.437529
-0.0664897
0.435161
-0.0558293
0.433497
-0.0456157
0.432479
-0.0354003
0.43213
-0.0248008
0.432452
-0.0137276
-0.00231996
0.454349
-0.0890642
0.445359
-0.0805768
0.437915
-0.0704172
0.432087
-0.0606621
0.427687
-0.0514297
0.424411
-0.0423395
0.4221
-0.0330886
0.420742
-0.023443
0.420374
-0.0133598
-0.00296258
0.455622
-0.076301
0.444542
-0.0694967
0.435318
-0.0611933
0.427832
-0.0531765
0.421889
-0.045486
0.417286
-0.0377364
0.41392
-0.0297231
0.411791
-0.0213141
0.410921
-0.01249
-0.00335239
0.455572
-0.0622943
0.443196
-0.0571212
0.432751
-0.0507482
0.424116
-0.0445417
0.417119
-0.0384888
0.411628
-0.0322451
0.407568
-0.0256634
0.404928
-0.018674
0.40372
-0.0112826
-0.00358987
0.454753
-0.0475585
0.441588
-0.0439557
0.430375
-0.0395354
0.42102
-0.0351866
0.41336
-0.0308293
0.4073
-0.0261847
0.402789
-0.0211521
0.399822
-0.0157073
0.398417
-0.00987799
-0.00375295
0.45327
-0.0321741
0.439489
-0.0301746
0.427732
-0.0277779
0.417875
-0.0253301
0.409752
-0.0227056
0.403279
-0.0197116
0.398429
-0.0163028
0.395224
-0.0125019
0.393701
-0.00835529
-0.00394254
0.444577
-0.015268
0.429632
-0.0152294
0.416784
-0.0149297
0.405824
-0.0143701
0.396562
-0.013444
0.388947
-0.0120965
0.383041
-0.0103963
0.37896
-0.00842171
0.376827
-0.00622205
-0.00382984
0.344176
0.328947
0.314017
0.299647
0.286203
0.274106
0.26371
0.255288
0.249066
0.0104507
0.0474277
-0.0578784
0.0214507
0.150732
-0.161732
0.0260415
0.21812
-0.222711
0.0255744
0.244427
-0.24396
0.022677
0.24934
-0.246442
0.0190023
0.247098
-0.243424
0.0151182
0.243342
-0.239458
0.0111277
0.23894
-0.234949
0.00712631
0.231568
-0.227567
0.213361
0.0038642
-0.210099
0.0119953
0.0354324
0.027386
0.135341
0.0370912
0.208415
0.041303
0.240216
0.042669
0.247974
0.0431332
0.246634
0.0434716
0.243004
0.0436167
0.238795
0.042587
0.232598
0.21782
0.038128
0.012242
0.0231904
0.0306591
0.116924
0.0449496
0.194124
0.0539193
0.231246
0.0597937
0.242099
0.0646187
0.241809
0.0694002
0.238222
0.0742039
0.233991
0.0778274
0.228974
0.219561
0.0760858
0.0111897
0.0120006
0.0306545
0.0974594
0.0482531
0.176526
0.0614848
0.218014
0.0717285
0.231855
0.0808165
0.232721
0.0898708
0.229168
0.0992281
0.224634
0.108291
0.219911
0.214029
0.113823
0.00914102
0.00285959
0.0275927
0.0790077
0.0467506
0.157368
0.0631939
0.201571
0.0772352
0.217814
0.0901681
0.219788
0.103011
0.216325
0.116255
0.211389
0.129891
0.206275
0.201004
0.142916
0.00658069
-0.00372111
0.0224194
0.0631691
0.0413494
0.138438
0.059572
0.183348
0.0763586
0.201028
0.0922629
0.203884
0.107986
0.200602
0.123988
0.195388
0.140509
0.189754
0.183648
0.157864
0.00403295
-0.00775405
0.0165567
0.0506453
0.0339832
0.121011
0.0526191
0.164712
0.0709159
0.182731
0.0886748
0.186125
0.10616
0.183116
0.123658
0.17789
0.141325
0.172087
0.165334
0.159639
0.00188788
-0.00964193
0.0112274
0.0413058
0.0265509
0.105688
0.0445252
0.146738
0.0630763
0.16418
0.0813956
0.167806
0.0993268
0.165185
0.116932
0.160285
0.134395
0.154625
0.148067
0.151661
0.00037236
-0.0100143
0.00731315
0.034365
0.0206858
0.0923153
0.0376169
0.129807
0.0558171
0.145979
0.0741299
0.149493
0.0921439
0.147171
0.109789
0.14264
0.127143
0.137271
0.130313
0.144897
-0.000446012
-0.00956828
0.00479048
0.0291285
0.0164775
0.0806283
0.0320691
0.114215
0.049188
0.128861
0.0664509
0.13223
0.0832158
0.130406
0.0992317
0.126624
0.114206
0.122296
0.116566
0.127953
-0.000800554
-0.00876773
0.00351221
0.0248157
0.0141074
0.0700332
0.0286979
0.0996248
0.0449815
0.112577
0.0615797
0.115632
0.0778494
0.114137
0.0935607
0.110913
0.108632
0.107224
0.103996
0.121202
-0.000917662
-0.00785006
0.00294784
0.0209502
0.0128679
0.0601131
0.0267168
0.0857758
0.0422878
0.0970059
0.0582507
0.0996691
0.0739838
0.0984034
0.089256
0.0956406
0.104035
0.0924452
0.0905261
0.117505
-0.000964093
-0.00688597
0.00261235
0.0173738
0.0120204
0.0507051
0.0252217
0.0725745
0.040085
0.0821426
0.0553283
0.0844258
0.0703523
0.0833793
0.0849242
0.0810687
0.0989827
0.0783868
0.0771097
0.112399
-0.000978828
-0.00590714
0.00239896
0.013996
0.0114307
0.0416733
0.0241306
0.0598747
0.0384241
0.0678491
0.0530723
0.0697776
0.0674961
0.0689555
0.081465
0.0670998
0.0948996
0.0649522
0.0640388
0.10797
-0.000973024
-0.00493412
0.00227509
0.0107479
0.0110511
0.0328973
0.0234059
0.0475199
0.0373058
0.0539491
0.051548
0.0555355
0.0655767
0.0549268
0.0791754
0.0535011
0.0922736
0.051854
0.0512
0.105112
-0.00096086
-0.00397326
0.00220336
0.00758367
0.0108128
0.0242879
0.0229465
0.0353862
0.0366005
0.0402952
0.050598
0.0415379
0.0644035
0.0411213
0.0778145
0.0400901
0.0907726
0.038896
0.0384608
0.103512
-0.000946187
-0.00302707
0.00217053
0.00446695
0.0106789
0.0157795
0.0226803
0.0233848
0.0361911
0.0267844
0.0500524
0.0276766
0.0637423
0.0274314
0.0770681
0.0267643
0.0899785
0.0259855
0.0257506
0.102689
-0.00092493
-0.00210214
0.00217487
0.00136715
0.0106292
0.00732516
0.0225549
0.011459
0.0359836
0.0133558
0.0497686
0.0138916
0.0633976
0.0138023
0.0766846
0.0134773
0.0895825
0.0130876
0.0130419
0.102291
-0.000893629
-0.00120852
0.00221764
-0.00174412
0.0106516
-0.00110881
0.0225339
-0.000423239
0.035909
-1.93343e-05
0.0496414
0.000159203
0.0632272
0.000216614
0.0764851
0.00021934
0.0893713
0.000201459
0.000337266
0.102076
-0.000852268
0.00229985
0.0107403
0.0225959
0.0359243
0.0496033
0.0631376
0.0763514
0.0892039
0.101882
0.137631
0.286896
-0.303325
0.149656
0.121157
-0.133182
0.15944
0.0411347
-0.0509183
0.167157
0.00487827
-0.0125958
0.173545
-0.00897774
0.00259046
0.179195
-0.0130335
0.00738272
0.184369
-0.0129563
0.00778261
0.189169
-0.0112593
0.00645933
0.193653
-0.00920262
0.00471831
-0.00599934
0.00198707
0.139736
0.264665
0.155575
0.105318
0.166362
0.0303473
0.173654
-0.0024141
0.179201
-0.0145239
0.183843
-0.0176757
0.187932
-0.0170453
0.191603
-0.0149308
0.194944
-0.0125432
-0.00887966
0.142202
0.234862
0.160942
0.0865785
0.172236
0.0190537
0.179273
-0.00945187
0.184207
-0.0194571
0.188028
-0.0214975
0.19117
-0.0201873
0.193835
-0.0175954
0.196148
-0.0148566
-0.010738
0.145008
0.197824
0.165808
0.0657788
0.177497
0.00736426
0.184325
-0.0162798
0.188706
-0.0238382
0.19179
-0.0245808
0.19409
-0.0224877
0.195862
-0.0193677
0.197265
-0.0162589
-0.0116876
0.147787
0.15515
0.170133
0.0434325
0.182115
-0.00461776
0.18875
-0.0229148
0.192666
-0.0277543
0.195111
-0.0270261
0.196682
-0.0240583
0.197679
-0.0203651
0.19829
-0.0168692
-0.0118463
0.150289
0.108373
0.173847
0.0198742
0.186068
-0.0168382
0.192544
-0.0293907
0.196069
-0.0312797
0.197978
-0.0289352
0.198934
-0.025014
0.199277
-0.0207087
0.199218
-0.0168102
-0.0113362
0.152384
0.0586777
0.17689
-0.00463251
0.189317
-0.0292643
0.195675
-0.0357494
0.198894
-0.0344981
0.200374
-0.0304157
0.200834
-0.0254741
0.200648
-0.020523
0.200046
-0.0162082
-0.010283
0.153968
0.00700052
0.179209
-0.0298731
0.191823
-0.041878
0.198119
-0.0420457
0.201122
-0.0375012
0.202286
-0.0315794
0.202373
-0.0255611
0.201786
-0.0199356
0.20077
-0.0151921
-0.00881605
0.154949
-0.0458726
0.180748
-0.0556718
0.193555
-0.0546856
0.199855
-0.0483458
0.202741
-0.0403867
0.203704
-0.0325427
0.203543
-0.0254003
0.202684
-0.019076
0.201384
-0.0138928
-0.00706663
0.155264
0.181465
0.194488
0.200868
0.203738
0.20462
0.204338
0.203337
0.201888
0.112977
-0.00213473
-0.110842
0.109571
0.00340642
0.107111
0.00245954
0.10685
0.000261135
0.107748
-0.000898267
0.108911
-0.00116243
0.109975
-0.00106483
0.110812
-0.000836844
0.111392
-0.000579501
-0.000231968
0.234033
0.070536
-0.306703
0.201584
0.0358554
0.189386
0.0146576
0.186081
0.00356522
0.18626
-0.00107682
0.187627
-0.00252977
0.189168
-0.00260567
0.190476
-0.00214514
0.191442
-0.00154473
-0.000639325
0.249086
0.156661
-0.335211
0.213538
0.071404
0.200146
0.0280488
0.196452
0.00726004
0.196573
-0.00119846
0.197999
-0.00395583
0.199628
-0.00423471
0.201022
-0.00353838
0.202059
-0.00258226
-0.0010814
0.243892
0.235359
-0.32259
0.211636
0.10366
0.199699
0.0399856
0.196682
0.0102774
0.197151
-0.00166834
0.198747
-0.00555163
0.200465
-0.00595211
0.201899
-0.00497295
0.202956
-0.00363917
-0.00153057
0.238715
-0.306681
0.209193
0.198261
0.195942
0.196864
0.198695
0.200526
0.202012
0.203091
0.0112684
0.000754493
-0.0120229
0.0114313
-0.000162853
0.0120317
-0.000600462
0.012761
-0.000729264
0.0145875
-0.0018265
0.0192081
-0.00462058
0.0316664
-0.0124583
0.0492337
-0.0175673
0.0798398
-0.030606
-0.0310024
0.0332605
0.00174507
-0.0342511
0.0362735
-0.0031759
0.043902
-0.00822894
0.0582795
-0.0151067
0.0823282
-0.0258752
0.118103
-0.0403953
0.16503
-0.0593852
0.214527
-0.0670642
0.266771
-0.0828506
-0.0709346
0.0554296
0.00171092
-0.0553955
0.0629941
-0.0107404
0.0799521
-0.0251869
0.108868
-0.0440223
0.149756
-0.0667634
0.198119
-0.0887583
0.244803
-0.106069
0.283203
-0.105464
0.313374
-0.113021
-0.092772
0.0760431
-0.000102303
-0.0742298
0.0881376
-0.0228349
0.112216
-0.049265
0.147827
-0.0796336
0.189604
-0.108541
0.229459
-0.128613
0.260355
-0.136965
0.285598
-0.130708
0.304863
-0.132287
-0.110498
0.0930578
-0.0892959
0.108351
0.135172
0.169361
0.203737
0.232988
0.255662
0.276615
0.289226
0.091366
-0.0878458
0.0972772
-0.100797
0.0824138
-0.0907
0.0996522
0.0733493
-0.0943015
0.103366
0.0634891
-0.0979792
0.107839
0.0525808
-0.101544
0.112452
0.0406485
-0.104935
0.116867
0.0279526
-0.107121
0.119817
0.0153426
-0.103386
0.115996
0.00492189
-0.0834579
0.0938786
-0.0384262
0.0433481
0.104356
-0.0779952
-0.114206
0.0938244
-0.0801685
0.0822663
-0.0827435
0.0698248
-0.0855377
0.0567393
-0.0884582
0.0431821
-0.0913776
0.0293671
-0.0933064
0.0160346
-0.0900534
0.00517587
-0.0725992
-0.0332504
0.101782
-0.0667748
-0.113002
0.0903032
-0.0686902
0.0785506
-0.0709909
0.0664921
-0.0734791
0.0540593
-0.0760255
0.0411985
-0.0785168
0.0280142
-0.0801221
0.0152171
-0.0772563
0.00481178
-0.0621938
-0.0284386
0.103684
-0.055481
-0.114978
0.0921642
-0.0571704
0.0802981
-0.0591248
0.0680083
-0.0611893
0.0552623
-0.0632796
0.0420668
-0.0653213
0.0285746
-0.0666299
0.0155278
-0.0642095
0.00493948
-0.0516055
-0.0234991
0.104246
-0.044111
-0.115615
0.0925743
-0.0454992
0.0805396
-0.04709
0.0681114
-0.0487611
0.0552771
-0.0504453
0.0420403
-0.0520845
0.0285384
-0.053128
0.0154946
-0.0511657
0.00491133
-0.0410222
-0.0185878
0.104491
-0.0327531
-0.115849
0.092813
-0.0338213
0.0807637
-0.0350408
0.0683157
-0.0363131
0.0554557
-0.0375854
0.0421877
-0.0388165
0.0286504
-0.0395907
0.0155658
-0.0380811
0.00494479
-0.0304012
-0.013643
0.10456
-0.0214189
-0.115894
0.0928873
-0.0221486
0.0808317
-0.0229851
0.0683718
-0.0238532
0.0554996
-0.0247132
0.0422209
-0.0255378
0.028673
-0.0260428
0.0155749
-0.024983
0.00494592
-0.0197722
-0.00869707
0.104493
-0.0100984
-0.115814
0.0928284
-0.0104837
0.0807783
-0.0109351
0.0683242
-0.011399
0.055459
-0.011848
0.042189
-0.0122677
0.0286507
-0.0125045
0.0155627
-0.0118951
0.0049422
-0.0091517
-0.00375487
0.104277
0.00120668
-0.115582
0.092628
0.00116568
0.0805942
0.00109862
0.0681588
0.00103637
0.0553158
0.00099498
0.0420716
0.000976536
0.0285628
0.00100422
0.0155079
0.00115982
0.00492001
0.00143625
0.00116514
0.103915
-0.115213
0.0922808
0.0802705
0.0678662
0.055061
0.0418608
0.0284031
0.0154072
0.00488038
0.0257763
-0.207658
-0.0282165
0.0195492
-0.221339
0.0122042
-0.227604
0.00475139
-0.232005
-0.00246175
-0.23621
-0.00902114
-0.239883
-0.0136535
-0.239328
-0.0140011
-0.222363
-0.00792358
-0.16781
-0.065802
0.0553881
-0.203116
-0.0599305
0.0464238
-0.212375
0.0362165
-0.217397
0.0259044
-0.221693
0.0158356
-0.226142
0.00634232
-0.23039
-0.00165179
-0.231334