# Selection   : all
# Cells       : 440
# Volume      : 7.374263e+01
# Time        	maxMag(U)
0             	0.000000e+00
0.05          	2.772936e+00
0.1           	2.841743e+00
0.15          	2.877180e+00
0.2           	2.892811e+00
