/*--------------------------------*- C++ -*----------------------------------*\
  =========                 |
  \\      /  F ield         | OpenFOAM: The Open Source CFD Toolbox
   \\    /   O peration     | Website:  https://openfoam.org
    \\  /    A nd           | Version:  13
     \\/     M anipulation  |
\*---------------------------------------------------------------------------*/
FoamFile
{
    format      ascii;
    class       volVectorField;
    location    "2.57";
    object      U;
}
// * * * * * * * * * * * * * * * * * * * * * * * * * * * * * * * * * * * * * //

dimensions      [0 1 -1 0 0 0 0];

internalField   nonuniform List<vector> 
440
(
(-0.103131 0.0771123 -9.33698e-20)
(-0.141925 0.151237 1.01988e-19)
(0.057266 0.171854 7.93857e-21)
(0.455873 0.169889 4.12671e-19)
(0.835185 0.117092 2.57506e-21)
(-0.108935 0.0578036 3.3675e-20)
(0.0693835 0.0210901 -1.56407e-19)
(0.634992 -0.0320233 -9.54615e-20)
(1.25215 -0.0750072 5.32002e-20)
(1.833 -0.116699 -1.01471e-20)
(-0.0295595 0.00820035 6.31792e-20)
(0.581273 -0.0497887 8.19949e-19)
(1.40993 -0.0570091 -4.49624e-19)
(2.01836 -0.0383213 -1.42856e-18)
(2.44185 -0.0377101 6.05784e-19)
(0.206441 -0.0463428 -1.87632e-19)
(1.27818 -0.00171305 -5.828e-19)
(2.05552 0.0568242 1.95886e-18)
(2.43381 0.0883652 2.13101e-18)
(2.5078 0.0966639 -6.053e-19)
(0.589104 -0.00438254 -3.23061e-19)
(1.80584 0.180487 -6.82411e-19)
(2.3512 0.255905 2.08416e-18)
(2.50448 0.268624 2.24368e-18)
(2.5814 0.248723 7.52519e-19)
(-0.0414972 0.322627 1.80163e-19)
(-0.154096 0.438372 7.03303e-20)
(-0.248419 0.403566 -2.84608e-19)
(-0.325714 0.343241 2.87385e-20)
(-0.368062 0.278596 -2.13171e-20)
(-0.0980919 0.429482 -2.1681e-20)
(-0.204792 0.615099 -2.6758e-19)
(-0.266728 0.575654 7.40409e-20)
(-0.299898 0.492759 7.34829e-20)
(-0.293412 0.401876 -1.36979e-19)
(-0.141104 0.417066 -2.59407e-19)
(-0.220166 0.700758 1.62327e-19)
(-0.216436 0.687469 -1.03652e-19)
(-0.168242 0.568955 -6.32883e-19)
(-0.0989418 0.436826 4.46798e-21)
(-0.124535 0.256778 -2.82908e-20)
(-0.19704 0.567501 1.98046e-20)
(-0.167196 0.64247 5.81762e-20)
(-0.0841575 0.576849 3.67018e-19)
(0.0543752 0.419708 -7.00465e-20)
(-0.0932918 0.117795 -6.53125e-20)
(-0.185251 0.323047 -8.37229e-20)
(-0.150666 0.42604 -5.97692e-20)
(-0.0388071 0.423408 -8.68133e-20)
(0.261967 0.332171 -3.33571e-19)
(-0.371288 -0.115551 -9.60131e-19)
(0.193914 -0.416979 2.73858e-19)
(0.629132 -0.284842 2.57057e-21)
(0.862163 -0.185255 -1.61874e-21)
(1.00822 -0.0852518 -3.03419e-21)
(0.0463159 -0.204285 1.44042e-18)
(0.391814 -0.551746 -1.30913e-19)
(0.721206 -0.377515 3.76439e-20)
(0.908464 -0.234942 3.14647e-20)
(1.0245 -0.104248 1.03964e-20)
(0.692014 -0.311415 5.69113e-19)
(0.80093 -0.615937 7.3593e-19)
(0.910711 -0.436352 -3.41267e-20)
(0.992196 -0.269805 6.19976e-20)
(1.05051 -0.118017 -3.9105e-21)
(1.27207 -0.446584 -3.27124e-19)
(1.24951 -0.64133 -2.96804e-19)
(1.16742 -0.449224 -4.36589e-20)
(1.11416 -0.279101 -7.45136e-20)
(1.08804 -0.122669 2.2138e-20)
(1.63105 -0.567817 -1.33636e-19)
(1.56543 -0.651209 -6.64068e-19)
(1.38631 -0.433831 0)
(1.24155 -0.261735 7.92579e-20)
(1.13168 -0.115723 1.35681e-20)
(2.23711 -0.562526 -4.37291e-19)
(1.90027 -0.610857 2.20178e-19)
(1.57147 -0.398537 -1.07442e-20)
(1.35363 -0.220201 6.50866e-20)
(1.17534 -0.0944567 -5.01159e-20)
(2.31433 -0.544146 4.55457e-20)
(1.76147 -0.464292 1.04964e-19)
(1.37387 -0.239335 -8.93927e-21)
(1.22804 -0.120642 -6.65488e-20)
(1.12509 -0.0545647 0)
(2.26591 -0.369951 -4.91218e-19)
(1.86035 -0.319975 1.58451e-20)
(1.4867 -0.174208 -9.66554e-20)
(1.28866 -0.0968709 2.877e-20)
(1.14189 -0.0440705 -1.35878e-20)
(2.11226 -0.292971 7.00679e-20)
(1.62526 -0.214824 9.60163e-20)
(1.29952 -0.0511632 -2.34131e-20)
(1.15446 0.000209593 -2.46402e-34)
(1.05142 -0.00205932 1.11559e-20)
(1.28579 -0.0768409 1.5031e-19)
(0.762025 -0.0234329 4.22446e-21)
(0.618205 0.00697515 -3.21405e-21)
(0.628923 0.00648272 -5.36134e-21)
(0.634247 0.00124659 2.64654e-22)
(2.43725 0.259439 -9.40436e-19)
(2.65531 0.0443028 -1.15178e-18)
(2.43825 0.0566055 8.1376e-19)
(2.72139 -0.173638 5.18747e-20)
(2.09138 -0.0088848 -1.78113e-20)
(2.19997 0.166047 7.49328e-20)
(2.44097 0.024327 -4.06532e-20)
(2.31058 0.00792753 -1.41143e-19)
(2.502 -0.161415 -1.84036e-19)
(2.36168 -0.195517 -7.68301e-21)
(2.15826 0.0872829 8.23216e-20)
(2.25175 0.0248372 9.33504e-20)
(2.26243 -0.034162 -1.21704e-19)
(2.30288 -0.106934 4.60866e-20)
(2.31819 -0.177376 1.13374e-20)
(2.10519 0.0245829 1.23193e-19)
(2.11557 -0.00626503 1.50833e-19)
(2.19902 -0.0488784 -2.0561e-20)
(2.17142 -0.0902571 -4.20376e-20)
(2.24549 -0.131659 3.30976e-20)
(1.60481 -0.0206692 1.85637e-19)
(1.56653 -0.0190441 -1.33063e-20)
(1.61869 -0.0368993 2.48754e-20)
(1.53266 -0.0338241 -2.5135e-20)
(1.59173 -0.0583551 1.17685e-20)
(1.63782 0.922448 1.20331e-18)
(1.59221 1.01714 -3.61832e-19)
(1.59464 1.14435 -1.39241e-18)
(1.52774 1.18278 7.7986e-19)
(0.944982 0.85655 -1.88148e-19)
(1.93269 0.854546 -6.05873e-19)
(1.90589 0.936064 -3.25504e-18)
(1.90568 1.04608 -1.2668e-18)
(1.81861 1.052 -4.34165e-19)
(1.11252 0.736003 -7.1381e-19)
(2.19732 0.734496 8.75121e-19)
(2.18883 0.802163 2.05125e-19)
(2.18372 0.886955 -2.52268e-18)
(2.04644 0.865874 -6.92182e-19)
(1.20101 0.568025 4.8337e-19)
(2.39272 0.59963 2.55072e-18)
(2.38051 0.645571 1.83848e-18)
(2.36537 0.69584 -2.08472e-18)
(2.14428 0.64716 -1.60178e-18)
(1.16076 0.367528 -2.78389e-19)
(2.4988 0.421722 1.22548e-18)
(2.51814 0.449739 -8.56268e-19)
(2.43998 0.47049 6.25796e-19)
(2.08389 0.407175 4.80291e-19)
(0.960127 0.158134 -4.07332e-19)
(0.562589 0.490577 -4.97467e-19)
(0.476044 0.527708 -3.72367e-19)
(0.361248 0.569285 3.84643e-20)
(0.227581 0.592791 6.49567e-21)
(0.0582866 0.438062 9.75142e-20)
(0.669439 0.684406 1.81113e-19)
(0.60513 0.753585 -2.12037e-19)
(0.520227 0.83007 1.8843e-19)
(0.398685 0.876207 -8.93606e-20)
(0.175061 0.653616 1.24523e-19)
(0.815211 0.83725 7.95748e-20)
(0.74017 0.91615 5.1975e-19)
(0.681874 1.01939 1.31338e-19)
(0.597789 1.08083 -3.33496e-19)
(0.32813 0.806565 2.82785e-19)
(1.08849 0.952554 3.14473e-19)
(1.03736 1.04535 -8.79731e-19)
(0.982576 1.146 -2.20805e-18)
(0.897627 1.20234 8.73649e-19)
(0.531081 0.893013 -1.73764e-19)
(1.23041 0.956697 -1.41394e-19)
(1.24737 1.08305 -2.20003e-19)
(1.26028 1.20591 -3.83659e-19)
(1.202 1.24702 -4.46551e-19)
(0.738764 0.911252 -7.15564e-21)
(0.928394 0.0280424 -1.06445e-19)
(1.06968 0.0563423 -3.79518e-20)
(1.00385 0.139711 -2.12829e-21)
(0.948737 0.178286 -3.4888e-19)
(0.867236 0.303673 2.8307e-19)
(0.927994 0.0225012 7.21866e-20)
(1.07236 0.0576561 1.32305e-19)
(1.00642 0.145925 1.26369e-19)
(0.976434 0.215049 5.07653e-20)
(0.931899 0.374468 -3.32427e-20)
(0.931237 0.0182814 9.86265e-20)
(1.06525 0.0552803 -4.74792e-21)
(1.04246 0.160731 -5.01225e-21)
(0.937495 0.220352 1.73372e-19)
(1.16709 0.523439 -4.75191e-19)
(0.931671 0.014267 -1.45888e-21)
(1.07059 0.0526175 -1.70931e-19)
(1.04265 0.174838 -6.70692e-20)
(1.0187 0.230929 -4.35735e-19)
(1.20368 0.539481 1.18107e-19)
(0.931575 0.0101122 -2.14381e-20)
(1.06921 0.0540883 4.58264e-20)
(1.07996 0.180367 3.29183e-20)
(0.997734 0.246334 4.75351e-19)
(1.48712 0.696086 -4.49192e-19)
(0.915934 0.00676231 -1.73841e-20)
(1.10056 0.0390738 9.00539e-20)
(1.06869 0.201948 -9.1148e-20)
(1.15345 0.185187 8.44028e-19)
(1.38825 0.648445 -4.29295e-19)
(0.914672 -0.0106274 -2.13777e-21)
(1.1132 0.0296459 -8.14964e-20)
(1.0672 0.156604 4.88456e-21)
(1.25374 0.157888 -2.7447e-19)
(1.45334 0.429554 1.53424e-20)
(0.922444 -0.0174497 -6.75817e-21)
(1.10167 0.0203215 1.2877e-35)
(1.11336 0.118309 -4.34038e-20)
(1.30085 0.0918287 9.07764e-20)
(1.47973 0.310333 1.63282e-19)
(0.935848 -0.0426897 5.05419e-21)
(1.05956 -0.0104329 -2.40216e-20)
(1.15875 0.0461881 1.88038e-20)
(1.25197 0.0545899 3.50613e-20)
(1.4961 0.196171 -2.4663e-19)
(0.882755 -0.0231383 -3.56891e-20)
(0.876036 -0.0217539 -2.4396e-21)
(0.891383 0.00541617 2.84817e-20)
(0.921813 0.00728404 -1.53224e-20)
(1.16929 0.0592758 -5.60534e-20)
(1.87052 0.740603 3.57848e-19)
(1.9614 0.702035 8.68888e-19)
(2.21966 0.600449 -1.20958e-18)
(2.27501 0.521752 7.517e-20)
(2.49515 0.330647 4.93547e-19)
(1.76751 0.509005 2.62709e-20)
(1.82371 0.443072 9.7579e-19)
(2.0122 0.412249 9.55043e-20)
(2.03586 0.319816 -9.76247e-19)
(2.26229 0.221215 -3.07519e-19)
(1.70721 0.344876 -2.09633e-19)
(1.80668 0.279385 -1.54632e-19)
(1.91773 0.2754 1.92296e-19)
(2.00344 0.190744 -3.16068e-19)
(2.12022 0.158465 2.81477e-19)
(1.69259 0.207668 3.42284e-19)
(1.78783 0.161439 -4.28433e-21)
(1.85995 0.15395 2.34905e-19)
(1.96222 0.0955438 2.08128e-19)
(2.01054 0.0766735 -1.99243e-19)
(1.37337 0.0485402 -4.12476e-20)
(1.44012 0.0287546 2.36479e-19)
(1.49067 0.0209724 1.1195e-19)
(1.54621 0.000741022 -2.3667e-19)
(1.55592 -0.00303872 4.10835e-22)
(1.06732 -0.0182776 5.49897e-20)
(2.04068 -0.0488551 -3.68192e-19)
(2.27681 -0.0384888 1.01122e-18)
(2.25293 -0.00184724 4.38975e-19)
(2.12753 0.031885 -3.08437e-19)
(0.657111 0.0890547 9.39311e-20)
(1.82079 0.0753532 -3.70027e-19)
(2.28205 0.0742719 -4.82311e-19)
(2.36906 0.0845746 5.54568e-19)
(2.09374 0.0685213 -3.11454e-19)
(0.198035 0.0694427 -2.19725e-20)
(1.18849 0.127673 3.84156e-19)
(1.92394 0.140455 5.1229e-20)
(2.30487 0.1233 2.1357e-19)
(2.54553 0.12473 3.94936e-20)
(-0.0374085 -0.0214732 1.74552e-19)
(0.405798 0.0644977 1.75952e-19)
(1.14319 0.121721 -3.59435e-19)
(1.61429 0.138073 1.38189e-20)
(2.16663 0.151267 -1.30626e-19)
(-0.0810975 -0.0576659 1.21267e-19)
(-0.00649998 -0.0343297 -1.44565e-19)
(0.360857 0.0224914 -3.50252e-20)
(0.820576 0.0343784 1.08142e-20)
(1.09387 0.0360764 -7.19863e-20)
(-0.0464784 -0.0433639 -4.69314e-20)
(-0.0918517 -0.111267 9.47232e-20)
(-0.0203622 -0.145849 8.38208e-20)
(0.146874 -0.144495 -9.01526e-20)
(0.375495 -0.145829 -9.23781e-21)
(-0.0506352 -0.102063 -1.85416e-22)
(-0.0972649 -0.243612 1.25297e-21)
(-0.0882782 -0.288915 1.10742e-20)
(-0.0400528 -0.268468 5.10664e-20)
(0.0555314 -0.222402 2.57915e-20)
(-0.0568315 -0.114758 -6.32647e-21)
(-0.14527 -0.196601 -2.18369e-19)
(-0.195925 -0.17978 2.01577e-19)
(-0.223034 -0.143641 4.6574e-19)
(-0.21662 -0.118104 -5.50803e-20)
(-0.0198486 0.0161905 1.47284e-20)
(-0.13292 -0.00340577 7.54336e-20)
(-0.231418 -0.0179788 -1.80777e-19)
(-0.304966 -0.0203536 -1.76033e-19)
(-0.343706 -0.0203324 -1.16366e-20)
(-0.00873707 0.173428 -4.41308e-21)
(-0.113884 0.224677 1.81644e-20)
(-0.215853 0.202909 -1.12429e-20)
(-0.302045 0.171988 4.30454e-20)
(-0.354242 0.138018 9.5132e-20)
(1.36876 0.283937 -2.68606e-20)
(1.32137 0.0728604 8.40127e-19)
(1.10265 0.0504015 -5.72433e-20)
(0.979111 0.0617052 -3.11859e-20)
(1.01571 0.0247053 -4.47638e-22)
(0.80687 0.161917 8.20614e-20)
(0.613737 0.126768 -4.02697e-19)
(0.717372 0.0830455 -1.6512e-19)
(0.843338 0.0285988 -6.50078e-21)
(0.993669 -0.00175601 -8.47072e-21)
(-0.0093562 0.0962218 1.52166e-19)
(0.190114 0.0626112 -7.08094e-19)
(0.583693 -0.000364366 1.91066e-20)
(0.814983 -0.0172315 6.66114e-20)
(0.987825 -0.0156378 4.04659e-21)
(-0.394843 0.0259132 8.44486e-20)
(0.136551 -0.0723874 4.67766e-20)
(0.578788 -0.0918753 5.47494e-20)
(0.820828 -0.0786124 1.02171e-21)
(0.991124 -0.0432799 3.92599e-21)
(-0.467801 -0.0403096 7.08864e-20)
(0.14952 -0.241859 1.34482e-19)
(0.596941 -0.185747 -2.88936e-20)
(0.838282 -0.130404 -2.00741e-21)
(0.998128 -0.0634129 5.32192e-21)
(0.693747 0.097878 -5.49768e-20)
(0.261516 -0.060498 0)
(0.338865 -0.082098 -2.70913e-20)
(0.467986 -0.056554 3.84599e-20)
(0.558396 -0.0206397 -1.3205e-21)
(1.81598 0.365282 0)
(1.68405 0.183404 0)
(1.50773 0.0153355 3.23455e-19)
(1.22778 -0.00861473 4.04566e-20)
(1.06436 -0.00120954 9.8916e-22)
(0.682951 -0.000472823 -1.17087e-19)
(0.71816 -0.00507471 1.76477e-19)
(0.919552 -0.0195264 -2.45446e-20)
(1.04609 0.00242378 2.23408e-19)
(1.36052 0.0284765 1.50617e-19)
(1.55395 0.0193784 1.10564e-19)
(1.64596 0.0657338 1.92822e-19)
(1.8929 -0.00049576 -7.25429e-21)
(2.4517 0.143067 -1.13554e-19)
(2.07006 0.0213079 -6.16381e-20)
(0.843813 -0.407485 -4.04909e-20)
(0.817911 -0.487045 -1.29887e-19)
(0.799154 -0.575253 -7.67215e-20)
(0.725505 -0.637059 4.67929e-20)
(0.433915 -0.496316 1.08894e-19)
(0.731403 -0.314768 1.17066e-19)
(0.678174 -0.373473 2.57041e-19)
(0.606746 -0.437354 -1.78435e-20)
(0.49526 -0.487909 1.15268e-19)
(0.26243 -0.384018 4.93046e-20)
(0.594201 -0.176266 -1.45593e-19)
(0.508816 -0.208289 -4.09896e-20)
(0.408034 -0.250471 1.37304e-19)
(0.293771 -0.290098 -3.46361e-21)
(0.124147 -0.233878 -9.4438e-20)
(0.512091 0.0526583 -3.93606e-19)
(0.430424 0.044314 -3.35616e-19)
(0.324222 0.0253454 2.69257e-19)
(0.201157 -0.00744985 1.81444e-19)
(0.0480854 -0.0316229 1.36691e-20)
(0.499275 0.250361 -1.6942e-19)
(0.417797 0.262882 -1.67099e-19)
(0.308215 0.276552 -8.24828e-20)
(0.177927 0.28522 5.92414e-21)
(0.0231085 0.206532 9.55123e-21)
(1.8828 -0.0386001 6.67491e-19)
(2.14571 -0.0980782 2.14768e-19)
(2.20034 -0.176106 -5.99209e-19)
(2.04645 -0.203439 -1.24508e-18)
(1.21641 -0.170593 1.07814e-19)
(1.86728 -0.106274 1.13676e-18)
(1.93846 -0.210988 1.52783e-18)
(1.95348 -0.325302 1.29859e-19)
(1.86954 -0.382647 2.30591e-19)
(1.18616 -0.327037 -1.51715e-19)
(1.59317 -0.255378 -2.93799e-18)
(1.6548 -0.365445 3.08855e-19)
(1.69124 -0.480527 9.26406e-19)
(1.62143 -0.54959 -3.36863e-19)
(1.0421 -0.457959 5.3945e-19)
(1.39016 -0.364737 6.78137e-19)
(1.40248 -0.454214 -1.82057e-18)
(1.38414 -0.561636 -2.05476e-18)
(1.31001 -0.640604 6.19229e-19)
(0.83792 -0.522085 4.4698e-19)
(1.13133 -0.407516 1.23415e-19)
(1.08653 -0.493219 2.14207e-19)
(1.06477 -0.602271 -3.0678e-19)
(0.999391 -0.678967 -3.72078e-19)
(0.625113 -0.535564 -3.38949e-21)
(0.945593 0.0445525 6.05803e-21)
(1.04668 0.0736759 -4.09915e-21)
(1.03735 0.0572858 -1.5085e-20)
(0.781064 0.00859959 -1.58339e-19)
(1.04045 -0.153308 -8.41889e-21)
(0.94603 0.0454531 -2.69613e-21)
(1.04316 0.070916 5.0828e-20)
(1.05366 0.0893502 -6.21928e-20)
(0.840481 0.0448094 6.54021e-20)
(0.914815 -0.0489579 -1.8456e-20)
(0.945087 0.0406808 -5.90513e-20)
(1.03792 0.0660581 4.15601e-22)
(1.05728 0.101704 -2.20307e-20)
(0.845499 0.0816069 -1.62344e-20)
(0.883579 0.00498658 -1.2972e-19)
(0.938609 0.0376885 7.93769e-20)
(1.04978 0.0589867 3.99535e-21)
(1.02953 0.119898 3.53496e-20)
(0.899352 0.110782 5.85008e-20)
(0.807243 0.110826 1.10718e-19)
(0.931972 0.0329596 1.9529e-20)
(1.06285 0.0576202 -3.32523e-20)
(1.00752 0.128001 4.47923e-20)
(0.936814 0.151528 9.36464e-20)
(0.796671 0.199957 -1.23314e-19)
(0.858473 0.0333034 0)
(0.760098 0.0296179 1.08164e-20)
(0.558668 0.0173372 6.17834e-23)
(0.498997 -0.00920236 3.60942e-20)
(0.645957 -0.0392386 -1.18091e-19)
(0.939343 0.0651853 -5.91423e-20)
(1.03955 0.0838821 -1.75574e-20)
(0.920039 0.0452216 -2.22254e-20)
(0.875963 0.00162906 -8.82436e-20)
(0.945948 -0.146936 -1.22453e-19)
(0.898835 -0.0477279 -2.44979e-20)
(0.972644 -0.0145097 4.29772e-19)
(1.04173 0.0467794 2.63565e-19)
(0.905843 0.0528257 3.23662e-20)
(0.694817 0.0259212 0)
(1.20019 -0.27663 2.52839e-19)
(1.30721 -0.247685 1.23162e-18)
(1.47482 -0.135128 -1.36436e-18)
(1.5627 -0.0140219 -4.14368e-19)
(1.45639 0.0261263 3.16104e-19)
)
;

boundaryField
{
    left
    {
        type            fixedValue;
        value           uniform (1 0 0);
    }
    right
    {
        type            zeroGradient;
    }
    down
    {
        type            noSlip;
    }
    up
    {
        type            noSlip;
    }
    cylinder
    {
        type            noSlip;
    }
    defaultFaces
    {
        type            empty;
    }
}


// ************************************************************************* //
