# Selection   : all
# Cells       : 440
# Volume      : 7.374263e+01
# Time        	maxMag(U)
2.2           	2.618923e+00
2.25          	2.635082e+00
2.3           	2.650715e+00
