/*--------------------------------*- C++ -*----------------------------------*\
  =========                 |
  \\      /  F ield         | OpenFOAM: The Open Source CFD Toolbox
   \\    /   O peration     | Website:  https://openfoam.org
    \\  /    A nd           | Version:  13
     \\/     M anipulation  |
\*---------------------------------------------------------------------------*/
FoamFile
{
    format      ascii;
    class       volVectorField;
    location    "37.3";
    object      U;
}
// * * * * * * * * * * * * * * * * * * * * * * * * * * * * * * * * * * * * * //

dimensions      [0 1 -1 0 0 0 0];

internalField   nonuniform List<vector> 
440
(
(-0.0819152 0.0695487 -6.81298e-20)
(-0.0524981 0.0903544 2.17479e-20)
(0.182184 0.050286 2.33383e-20)
(0.626009 0.0100608 1.3588e-19)
(0.926684 -0.0379606 5.95932e-21)
(-0.0626807 0.0356911 4.92026e-20)
(0.186056 -0.0341277 -1.3713e-19)
(0.78085 -0.109485 -1.25531e-19)
(1.38013 -0.164748 4.1589e-20)
(1.94495 -0.212567 -1.51817e-20)
(0.0281796 -0.015725 5.37915e-20)
(0.700862 -0.0911315 9.53411e-19)
(1.53665 -0.104521 -7.03393e-19)
(2.12548 -0.0930202 -2.21869e-18)
(2.54555 -0.0954532 1.01794e-18)
(0.281406 -0.0628927 -1.83251e-19)
(1.40728 -0.022875 -7.2406e-19)
(2.16942 0.0245964 2.34766e-18)
(2.52888 0.0455084 2.67495e-18)
(2.5482 0.0471177 -7.33915e-19)
(0.675468 -0.0034461 -3.45835e-19)
(1.91203 0.172489 -7.72285e-19)
(2.42313 0.232721 2.40329e-18)
(2.53517 0.234976 2.49998e-18)
(2.62317 0.210607 8.41092e-19)
(-0.0535549 0.3145 3.07641e-19)
(-0.196482 0.367435 2.33734e-19)
(-0.354337 0.370731 -8.76476e-19)
(-0.517195 0.366417 1.44656e-19)
(-0.610066 0.296838 7.12216e-19)
(-0.078227 0.419248 -1.39383e-19)
(-0.107303 0.600232 -7.93527e-19)
(-0.120464 0.643096 7.18796e-20)
(-0.0988018 0.642062 8.67531e-20)
(-0.0791044 0.562803 -2.08259e-19)
(-0.0819739 0.273677 -1.4222e-19)
(-0.0759967 0.467628 1.57308e-19)
(-0.0291044 0.518679 3.47792e-21)
(0.0605322 0.512644 -8.38487e-19)
(0.112755 0.448843 1.49859e-20)
(-0.0714028 0.137852 -4.31447e-20)
(-0.0948131 0.26878 6.49468e-20)
(-0.0554543 0.293866 -2.63422e-20)
(0.0447457 0.254995 1.07366e-20)
(0.161547 0.154364 -1.42697e-21)
(-0.0790546 0.0931893 9.03139e-22)
(-0.1135 0.16611 -1.08122e-20)
(-0.0478845 0.165104 -1.0011e-20)
(0.127547 0.110717 -2.19444e-20)
(0.34118 0.058912 -6.74767e-20)
(-0.50261 -0.582839 -2.02435e-18)
(1.51144 -0.585856 4.58302e-19)
(0.877183 1.19634 8.4857e-19)
(0.847797 0.169479 4.1265e-20)
(1.12808 -0.546913 1.65028e-20)
(0.982827 -0.932362 1.90677e-18)
(1.43266 -0.715713 -2.2639e-20)
(0.502078 1.32409 -2.48222e-20)
(1.02108 0.074679 5.22142e-19)
(1.30368 -0.577826 -9.50667e-20)
(1.98538 -1.09982 1.04755e-19)
(0.613044 -0.685623 -2.10213e-19)
(0.535949 1.29895 8.83345e-20)
(1.24836 -0.0566191 -2.23413e-19)
(1.47267 -0.609304 4.30016e-20)
(1.78169 -1.07878 -1.22616e-20)
(-0.690402 -0.582189 1.56996e-20)
(0.949291 1.17976 1.51164e-18)
(1.53594 -0.117727 6.32128e-19)
(1.66528 -0.612679 -2.20159e-19)
(1.88487 -0.945778 -2.60813e-19)
(-0.57857 -0.618457 8.97621e-19)
(0.563205 0.888565 0)
(1.89319 -0.202025 -1.13874e-19)
(1.83078 -0.613964 -9.77935e-20)
(2.46579 -0.785743 -5.92121e-19)
(1.48724 -0.492917 1.43553e-19)
(0.533384 0.367009 3.36471e-20)
(2.26627 -0.451319 2.05275e-20)
(1.91713 -0.614843 1.96595e-19)
(2.3003 -0.786598 8.06231e-20)
(1.14819 -0.098091 -1.26595e-19)
(1.02257 0.511357 1.65974e-20)
(2.3926 -0.530482 3.6762e-19)
(1.7909 -0.515013 0)
(2.24624 -0.377088 -5.65535e-19)
(1.15459 -0.0162136 2.16145e-20)
(1.77703 0.0548275 4.01928e-19)
(2.3685 -0.625316 -2.96193e-19)
(1.40871 -0.42478 8.51817e-21)
(1.90742 -0.2955 -1.45145e-20)
(1.32505 0.0167556 5.17783e-20)
(1.94155 -0.0595494 1.62392e-20)
(1.73605 -0.384714 1.12897e-33)
(0.684509 -0.188576 7.14047e-21)
(1.02806 -0.0214998 7.55678e-20)
(0.905447 -0.0337596 1.76619e-20)
(0.945862 -0.13214 -5.44347e-20)
(0.256631 -0.063845 9.10828e-20)
(-0.270368 -0.00277506 -1.95796e-20)
(2.43096 0.227461 -1.07529e-18)
(2.71793 -0.023933 -1.39007e-18)
(2.42837 -0.00297384 1.19715e-18)
(2.8132 -0.272553 -1.54892e-21)
(2.12511 -0.120992 -5.92482e-20)
(2.14751 0.168887 4.16322e-20)
(2.4813 -0.0438234 -4.5333e-20)
(2.27583 -0.0158215 -1.50865e-19)
(2.50628 -0.246332 -2.53589e-19)
(2.34994 -0.263774 -6.03341e-21)
(2.10193 0.0575561 6.7824e-20)
(2.22241 -0.0143973 1.26349e-19)
(2.19612 -0.076037 -1.84505e-19)
(2.25344 -0.138937 5.80008e-20)
(2.24279 -0.23154 6.92851e-20)
(2.02093 0.0131721 1.1084e-19)
(1.98144 -0.028404 9.78262e-20)
(2.09076 -0.0577636 -1.6194e-20)
(2.02483 -0.103803 3.41524e-20)
(2.1233 -0.132699 1.30101e-20)
(1.45555 -0.0196832 1.53586e-19)
(1.37085 -0.0154082 -1.22753e-20)
(1.46116 -0.0366804 2.49029e-20)
(1.3308 -0.0247785 -3.10164e-21)
(1.43838 -0.0576685 4.78523e-20)
(1.63168 0.850081 1.18844e-18)
(1.57209 0.94958 -3.75796e-19)
(1.56824 1.08583 -1.42868e-18)
(1.50255 1.13955 7.84133e-19)
(0.927881 0.830959 -1.85599e-19)
(1.92054 0.810521 -6.16444e-19)
(1.88211 0.888119 -3.18373e-18)
(1.88577 0.998568 -1.22771e-18)
(1.8044 1.01972 -4.44484e-19)
(1.11333 0.731679 -7.24898e-19)
(2.22969 0.684668 8.2681e-19)
(2.20949 0.756847 2.15662e-19)
(2.18596 0.851114 -2.41008e-18)
(2.05845 0.842539 -6.98113e-19)
(1.23452 0.574988 5.39034e-19)
(2.41154 0.565934 2.51887e-18)
(2.38868 0.613411 1.84795e-18)
(2.38831 0.671424 -2.15334e-18)
(2.18839 0.634934 -1.6487e-18)
(1.22191 0.382551 -3.18385e-19)
(2.53728 0.388842 1.29103e-18)
(2.56999 0.417276 -9.27339e-19)
(2.48557 0.447018 6.5212e-19)
(2.15998 0.398432 5.47832e-19)
(1.04502 0.172413 -4.79944e-19)
(0.574812 0.480248 -6.28972e-19)
(0.48523 0.515947 -4.78153e-19)
(0.366983 0.551871 5.36428e-20)
(0.229156 0.56179 -3.94974e-21)
(0.057403 0.410552 9.19893e-20)
(0.678523 0.657726 1.3086e-19)
(0.615598 0.720089 -2.83483e-19)
(0.529632 0.790622 1.91845e-19)
(0.405078 0.844528 -8.949e-20)
(0.177622 0.641271 1.26315e-19)
(0.788311 0.838494 1.36567e-19)
(0.712855 0.919371 4.88866e-19)
(0.657229 1.01984 1.11282e-19)
(0.575662 1.06777 -3.21357e-19)
(0.317147 0.793355 2.70561e-19)
(1.07587 0.922854 2.45968e-19)
(1.02981 1.00764 -7.33502e-19)
(0.977125 1.10581 -2.01376e-18)
(0.8935 1.17404 8.14569e-19)
(0.528389 0.879106 -1.75719e-19)
(1.13995 0.953611 -1.15239e-19)
(1.17759 1.08158 -1.95461e-19)
(1.20914 1.20308 -3.82021e-19)
(1.16146 1.23361 -4.36337e-19)
(0.717586 0.892759 -6.99688e-21)
(1.02438 0.0494744 -1.05211e-19)
(0.985238 0.0496018 -3.79697e-20)
(1.03322 0.119783 -1.43397e-21)
(0.948046 0.157741 -3.20401e-19)
(0.891085 0.297328 3.24141e-19)
(1.01602 0.0460469 6.68737e-20)
(0.994813 0.0502464 1.33383e-19)
(1.02369 0.125142 1.39981e-19)
(0.986294 0.187383 4.50155e-20)
(0.936827 0.37534 -2.00867e-20)
(1.02396 0.0445787 9.12107e-20)
(0.972497 0.0451593 -4.95766e-21)
(1.07528 0.142643 -7.26935e-21)
(0.938599 0.186026 1.61451e-19)
(1.16004 0.520364 -5.16737e-19)
(1.01945 0.0446933 -3.87341e-22)
(0.982212 0.0385865 -1.84179e-19)
(1.08145 0.153658 -7.29006e-20)
(1.03397 0.195439 -4.1185e-19)
(1.16152 0.560933 1.00972e-19)
(1.01536 0.0401191 -1.61497e-20)
(0.979069 0.037026 5.03116e-20)
(1.14279 0.154584 3.46077e-20)
(0.989486 0.224009 4.77903e-19)
(1.44384 0.696349 -4.89882e-19)
(0.977508 0.044999 -1.35586e-20)
(1.03266 0.0120048 1.02562e-19)
(1.14567 0.181102 -9.13507e-20)
(1.22344 0.148489 8.82571e-19)
(1.29826 0.718246 -3.91068e-19)
(0.916036 0.0231565 -1.43723e-21)
(1.11347 -0.00548337 -1.01616e-19)
(1.14479 0.0985716 4.97065e-21)
(1.33178 0.180379 -2.5751e-19)
(1.22123 0.446142 -2.9551e-20)
(0.953255 0.028266 -2.55654e-21)
(1.1285 -0.0479461 1.52897e-35)
(1.17011 0.0781148 -6.00768e-20)
(1.2265 0.161007 7.79909e-20)
(1.44424 0.285311 1.7991e-19)
(1.06931 -0.0256074 4.0658e-21)
(1.05334 -0.0678201 -2.53234e-20)
(1.10191 0.0484063 1.74878e-20)
(1.16338 0.0977842 3.05927e-20)
(1.60003 0.15608 -2.72667e-19)
(0.995144 -0.0249006 -4.04454e-20)
(0.810801 -0.0236294 -2.24089e-21)
(0.820551 0.0148173 2.66885e-20)
(0.924306 0.00465445 -1.10319e-20)
(1.16682 0.0340079 -6.25256e-20)
(1.91072 0.641288 3.23609e-19)
(1.95497 0.659194 8.17356e-19)
(2.27125 0.527136 -1.17998e-18)
(2.2718 0.48986 3.9143e-20)
(2.5492 0.27753 5.07224e-19)
(1.79326 0.398776 7.97354e-20)
(1.76629 0.420004 1.05051e-18)
(2.07833 0.328539 1.12605e-19)
(1.97988 0.322785 -9.66548e-19)
(2.32903 0.151075 -3.12141e-19)
(1.72265 0.275105 -2.34473e-19)
(1.80412 0.246824 -1.55041e-19)
(1.93634 0.208732 2.168e-19)
(1.96843 0.168866 -3.01955e-19)
(2.11555 0.0998129 2.71309e-19)
(1.67982 0.146067 3.5454e-19)
(1.79342 0.125169 -4.71647e-21)
(1.79517 0.104374 2.19886e-19)
(1.91473 0.0777497 1.85449e-19)
(1.90096 0.0407801 -1.79274e-19)
(1.29564 0.0346326 -4.09211e-20)
(1.34881 0.0231323 2.27881e-19)
(1.34648 0.0160045 1.0195e-19)
(1.41072 0.000714593 -2.15308e-19)
(1.3772 -0.00356248 4.65401e-22)
(1.11154 -0.0221939 5.04389e-20)
(2.12655 -0.0479479 -3.96729e-19)
(2.36332 -0.035975 1.12673e-18)
(2.35567 0.00542273 5.078e-19)
(2.19325 0.0323229 -3.40862e-19)
(0.679141 0.0890028 8.82618e-20)
(1.90236 0.0785035 -4.12813e-19)
(2.37549 0.0819786 -5.51708e-19)
(2.42818 0.0933361 6.80277e-19)
(2.18472 0.0833293 -4.30133e-19)
(0.1902 0.0686002 -2.90539e-20)
(1.26691 0.136727 4.30205e-19)
(2.03046 0.161442 6.44585e-20)
(2.43326 0.155947 4.23217e-19)
(2.58593 0.155014 2.16909e-19)
(-0.0551523 -0.0321568 1.8948e-19)
(0.436089 0.0641739 1.86742e-19)
(1.24295 0.139015 -3.97657e-19)
(1.75442 0.179609 2.21871e-20)
(2.37002 0.212542 5.22456e-20)
(-0.107607 -0.0872492 1.25128e-19)
(-0.0262813 -0.0630686 -1.43225e-19)
(0.423031 0.0170138 -1.82681e-20)
(0.886647 0.0480061 1.44626e-21)
(1.3576 0.131235 -4.00178e-20)
(-0.0841194 -0.0896155 1.4543e-20)
(-0.150176 -0.137787 7.53753e-20)
(-0.0472964 -0.149008 5.02575e-20)
(0.130158 -0.129075 -5.23863e-20)
(0.549353 -0.0544709 3.8887e-21)
(-0.0473086 -0.0643679 -7.70524e-21)
(-0.126562 -0.146462 -2.38893e-20)
(-0.14932 -0.208741 -7.69491e-21)
(-0.119295 -0.234054 -6.06421e-21)
(0.0301337 -0.169447 9.79097e-22)
(-0.0208571 -0.0340178 1.81149e-21)
(-0.0820353 -0.131287 6.80143e-20)
(-0.126823 -0.234696 -5.28158e-20)
(-0.153128 -0.307716 -1.49074e-19)
(-0.135358 -0.315234 5.3694e-20)
(-0.0115563 -0.0070687 -9.28414e-21)
(-0.074343 -0.114788 -6.39094e-20)
(-0.13191 -0.220872 2.00641e-19)
(-0.19109 -0.27756 2.13102e-19)
(-0.234537 -0.287731 -6.06256e-20)
(-0.0160683 0.0895565 7.57905e-21)
(-0.127419 0.0268207 -1.7932e-20)
(-0.249645 -0.016349 -8.22659e-22)
(-0.38316 -0.00506715 7.43394e-20)
(-0.510293 -0.00594867 1.98805e-19)
(1.38962 0.595351 -2.56621e-20)
(1.55781 0.304442 8.79397e-19)
(0.915726 0.38283 1.22082e-19)
(-0.136481 -0.0626658 7.95204e-20)
(0.404524 -0.350951 -3.96351e-20)
(1.0414 0.43901 5.34032e-20)
(1.65486 0.305251 -4.20403e-19)
(1.20204 0.550545 6.3218e-19)
(0.175702 0.00942544 3.131e-21)
(0.482251 -0.399017 1.84081e-19)
(0.395338 0.172415 2.31829e-19)
(1.6231 0.248999 -5.40344e-19)
(1.212 0.743577 -5.87249e-20)
(0.358248 0.0962431 3.07783e-20)
(0.61245 -0.447566 -3.06086e-20)
(-0.456934 -0.0803992 1.86913e-19)
(1.6298 0.0785765 -1.0097e-20)
(1.14684 0.893047 -5.53991e-19)
(0.569274 0.15035 9.93851e-22)
(0.784986 -0.478373 -9.16676e-20)
(-1.04379 -0.242053 1.97504e-19)
(1.61286 -0.230684 -1.24284e-19)
(1.09716 1.07235 7.23222e-19)
(0.718144 0.191228 -2.31154e-20)
(0.95541 -0.510239 -1.17556e-19)
(0.135546 0.182684 -5.82913e-20)
(-0.274058 -0.155103 0)
(-0.29392 -0.0837352 1.81241e-20)
(-0.463989 -0.0616027 -4.64608e-21)
(0.36131 -0.0493662 8.89389e-21)
(1.78214 0.545851 0)
(1.28159 0.300411 0)
(0.566194 0.122224 -7.96413e-20)
(-0.483905 -0.117073 -9.39504e-20)
(0.517132 -0.229921 1.26882e-19)
(0.695058 0.0013772 -1.12449e-19)
(0.718121 -0.00695406 1.04394e-19)
(0.982071 0.00286219 -4.684e-20)
(0.922433 0.0030209 3.10077e-19)
(1.39796 0.0889154 2.20153e-19)
(1.58283 0.0251869 1.05438e-19)
(1.72482 0.0646366 1.89029e-19)
(1.91767 0.0400851 -3.25959e-19)
(2.4677 0.187061 -6.64914e-21)
(2.22232 0.116946 1.51721e-19)
(0.875434 -0.454716 -1.99382e-20)
(0.860075 -0.540027 -1.41118e-19)
(0.8501 -0.632893 -1.06538e-19)
(0.777875 -0.69579 6.50627e-20)
(0.466692 -0.538608 1.13464e-19)
(0.781485 -0.360284 1.28626e-19)
(0.726233 -0.421804 2.67031e-19)
(0.651268 -0.487473 -3.11349e-20)
(0.536056 -0.54107 1.18549e-19)
(0.28649 -0.424287 4.39019e-20)
(0.629371 -0.220283 -1.65923e-19)
(0.539086 -0.255575 -4.29964e-20)
(0.436853 -0.300576 1.29737e-19)
(0.320297 -0.340799 -9.9503e-21)
(0.138759 -0.269257 -9.98995e-20)
(0.538176 0.0127315 -4.40297e-19)
(0.452633 0.0001113 -3.65673e-19)
(0.343706 -0.0221691 2.85411e-19)
(0.217682 -0.0532688 1.86628e-19)
(0.0566418 -0.0607048 1.40115e-20)
(0.51703 0.21924 -1.82664e-19)
(0.431221 0.225391 -1.79359e-19)
(0.316187 0.230892 -8.21766e-20)
(0.181576 0.237493 1.43893e-20)
(0.0254532 0.177304 1.14303e-20)
(1.95289 -0.0400224 7.34485e-19)
(2.20543 -0.104266 2.61873e-19)
(2.27919 -0.185115 -6.83234e-19)
(2.12499 -0.211727 -1.37451e-18)
(1.26183 -0.179636 1.05322e-19)
(1.93051 -0.11951 1.23376e-18)
(2.02184 -0.225503 1.6208e-18)
(2.03408 -0.341874 1.32823e-19)
(1.94915 -0.398957 2.28948e-19)
(1.23442 -0.342216 -1.50781e-19)
(1.65793 -0.276199 -3.21053e-18)
(1.71416 -0.388187 3.80353e-19)
(1.75483 -0.506485 9.9855e-19)
(1.68872 -0.5759 -3.83206e-19)
(1.0843 -0.47906 5.95249e-19)
(1.44802 -0.392145 7.63038e-19)
(1.46423 -0.485011 -1.99601e-18)
(1.44901 -0.5964 -2.31423e-18)
(1.37662 -0.677236 7.05905e-19)
(0.878416 -0.549175 4.66986e-19)
(1.17421 -0.447873 1.57686e-19)
(1.12609 -0.536017 2.14972e-19)
(1.11142 -0.650432 -3.44842e-19)
(1.05196 -0.728637 -4.15821e-19)
(0.65909 -0.570528 -3.89818e-21)
(1.07296 0.0572408 7.91598e-21)
(0.914599 0.0593538 -6.38714e-21)
(1.1184 0.0792699 -8.09744e-21)
(0.789074 0.0166734 -1.77191e-19)
(1.0794 -0.197906 -6.08116e-21)
(1.08235 0.0605692 -2.63049e-21)
(0.913896 0.0581674 5.6979e-20)
(1.11437 0.0964704 -5.61904e-20)
(0.878545 0.0632619 8.70525e-20)
(0.964931 -0.0811265 -2.64323e-20)
(1.08043 0.0575945 -6.47562e-20)
(0.918551 0.0556304 5.80258e-22)
(1.10218 0.0971564 -2.28536e-20)
(0.877849 0.0890795 -3.17498e-21)
(0.944909 -0.0225032 -1.44684e-19)
(1.06094 0.0557901 7.94474e-20)
(0.948488 0.0525649 3.65818e-21)
(1.06388 0.103199 3.6524e-20)
(0.921427 0.114741 4.73191e-20)
(0.854415 0.091685 1.22886e-19)
(1.03665 0.0518757 2.01428e-20)
(0.978269 0.0528404 -3.21907e-20)
(1.03255 0.107194 4.9261e-20)
(0.950611 0.143779 8.94313e-20)
(0.833834 0.190333 -1.35191e-19)
(0.891421 0.0339726 0)
(0.700572 0.0283101 1.05645e-20)
(0.600106 0.0233874 2.56866e-21)
(0.329429 -0.00543786 4.0116e-20)
(0.63755 -0.0517111 -1.02516e-19)
(1.03972 0.076247 -6.65305e-20)
(0.925197 0.074068 -2.18344e-20)
(1.02076 0.0795333 -2.4461e-20)
(0.789548 0.00878764 -9.09933e-20)
(0.994578 -0.18154 -1.09287e-19)
(0.884119 -0.061512 -2.48548e-20)
(0.964618 -0.0301614 4.32889e-19)
(1.04858 0.0362574 2.73423e-19)
(0.924628 0.051074 2.32044e-20)
(0.71784 0.0263442 0)
(1.2492 -0.30145 2.4293e-19)
(1.35805 -0.266306 1.2799e-18)
(1.52503 -0.151361 -1.46185e-18)
(1.6107 -0.0213911 -4.54728e-19)
(1.51577 0.0246693 3.3541e-19)
)
;

boundaryField
{
    left
    {
        type            fixedValue;
        value           uniform (1 0 0);
    }
    right
    {
        type            zeroGradient;
    }
    down
    {
        type            noSlip;
    }
    up
    {
        type            noSlip;
    }
    cylinder
    {
        type            noSlip;
    }
    defaultFaces
    {
        type            empty;
    }
}


// ************************************************************************* //
