/*--------------------------------*- C++ -*----------------------------------*\
  =========                 |
  \\      /  F ield         | OpenFOAM: The Open Source CFD Toolbox
   \\    /   O peration     | Website:  https://openfoam.org
    \\  /    A nd           | Version:  13
     \\/     M anipulation  |
\*---------------------------------------------------------------------------*/
FoamFile
{
    format      ascii;
    class       volScalarField;
    location    "15.2";
    object      p;
}
// * * * * * * * * * * * * * * * * * * * * * * * * * * * * * * * * * * * * * //

dimensions      [0 2 -2 0 0 0 0];

internalField   nonuniform List<scalar> 
440
(
-0.946467
-0.927763
-0.919085
-0.879345
-0.936864
-1.01663
-0.996782
-0.971265
-0.939931
-0.91479
-1.13657
-1.10156
-1.05742
-1.00154
-0.940309
-1.2762
-1.22523
-1.12957
-1.01543
-0.900656
-1.3698
-1.30021
-1.14161
-0.977458
-0.82759
-1.00959
-1.04798
-1.11514
-1.17289
-1.20643
-1.06587
-1.07443
-1.09725
-1.13483
-1.15427
-1.07006
-1.06209
-1.06436
-1.08405
-1.10825
-1.01591
-0.997912
-0.976881
-0.963915
-0.966772
-0.93268
-0.915865
-0.88778
-0.845997
-0.848394
-1.31828
-0.553723
0.24841
0.14021
0.0214175
-1.24003
-0.85125
0.186052
0.059083
0.024409
-1.35423
-1.17229
0.10763
-0.0155466
0.0267427
-1.23233
-1.26817
0.0348076
-0.00353648
0.0321754
-0.990146
-1.21075
-0.0249349
0.0494433
0.035932
-0.630624
-0.976971
-0.0554438
0.0997816
0.0359601
-0.375548
-0.610265
-0.0839994
-0.0345792
0.00855095
-0.301291
-0.398736
-0.0919737
0.109597
0.00833817
-0.218197
-0.255777
-0.110578
0.0363957
-0.00584286
-0.0960872
-0.24928
-0.129551
0.06888
0.00445995
-0.575165
-0.688952
-0.826271
-0.975299
-1.07244
-0.328962
-0.443441
-0.515103
-0.553707
-0.557422
-0.164699
-0.261234
-0.319259
-0.350543
-0.373056
-0.0603919
-0.146842
-0.207233
-0.238821
-0.256976
-0.0100252
-0.0946885
-0.149179
-0.170471
-0.163718
0.741618
0.587699
0.391285
0.173991
-0.0589743
0.321592
0.160964
-0.0347655
-0.257348
-0.508711
-0.0830284
-0.24682
-0.454537
-0.686514
-0.924559
-0.435643
-0.603445
-0.813627
-1.04015
-1.22392
-0.677928
-0.847235
-1.04262
-1.24721
-1.36613
1.78292
1.81274
1.83832
1.84953
1.84372
1.59419
1.61478
1.62893
1.62529
1.60046
1.38487
1.37284
1.33724
1.27848
1.19378
1.14832
1.11384
1.04286
0.941485
0.812069
0.944374
0.838549
0.700397
0.542138
0.3527
1.56761
1.56221
1.5356
1.60862
1.66775
1.55833
1.5515
1.51712
1.59132
1.57717
1.55022
1.53792
1.49598
1.56236
1.45801
1.54339
1.52107
1.47375
1.51805
1.29051
1.53785
1.50554
1.45128
1.47313
1.10867
1.5343
1.47935
1.42299
1.37048
0.898032
1.53387
1.44785
1.42348
1.24388
1.02912
1.53959
1.43391
1.42218
1.17449
1.08194
1.54
1.40663
1.41608
1.115
1.10258
1.5746
1.4035
1.41371
1.07323
1.1453
0.709674
0.400446
0.0628565
-0.233383
-0.42106
0.59343
0.378817
0.154079
-0.0402844
-0.207724
0.571322
0.401207
0.236382
0.0898327
-0.0530013
0.62816
0.469419
0.318293
0.179755
0.0496671
0.674977
0.511888
0.361406
0.224469
0.0980837
-1.59905
-1.46086
-1.2952
-1.15871
-1.07662
-1.69825
-1.62627
-1.49227
-1.37812
-1.30207
-1.6497
-1.59731
-1.50836
-1.42318
-1.35467
-1.52948
-1.48607
-1.43004
-1.37049
-1.30981
-1.40645
-1.38596
-1.35612
-1.31894
-1.27775
-1.38055
-1.37311
-1.35174
-1.34156
-1.26299
-1.32135
-1.31284
-1.29754
-1.29322
-1.25098
-1.3825
-1.38936
-1.39736
-1.40193
-1.39247
-1.36991
-1.43334
-1.51146
-1.57931
-1.63204
-0.991823
-1.10327
-1.22907
-1.33655
-1.41162
-1.07184
-0.0194002
0.17812
0.222222
-0.00762774
-1.06868
0.0087379
0.269441
0.242222
-0.00482714
-1.10606
0.0486793
0.31206
0.239021
-0.000394538
-1.30436
0.00263852
0.292071
0.206041
0.00792066
-1.42635
-0.25876
0.264434
0.157281
0.0147051
-0.619151
-0.217216
0.0961231
0.193285
0.00740349
-0.90956
-0.120676
0.16218
0.224421
0.00455624
-1.02814
-1.25949
-1.27997
-1.22417
-0.993191
-1.04766
-1.26584
-1.3038
-1.24121
-1.18908
1.42851
1.40772
1.37038
1.31761
1.24778
1.61903
1.63857
1.64458
1.63511
1.61026
1.77821
1.81065
1.83713
1.85234
1.85352
1.87135
1.9097
1.95016
1.98286
1.99776
1.86663
1.90261
1.9425
1.97553
1.99046
-0.637056
-0.738161
-0.894863
-1.08453
-1.2976
-0.0578928
-0.184941
-0.355148
-0.559831
-0.810481
0.466533
0.333274
0.174095
-0.0126342
-0.240085
0.885765
0.782979
0.658225
0.50794
0.328631
1.22136
1.15013
1.05842
0.949032
0.821208
1.62808
1.58972
1.56927
1.57492
1.57587
1.613
1.58717
1.56912
1.59092
1.64013
1.60025
1.58339
1.56765
1.61243
1.71196
1.58847
1.57821
1.56123
1.62087
1.72431
1.57756
1.57153
1.55013
1.61988
1.7133
1.68423
1.59592
1.55689
1.49882
1.43981
1.63853
1.58637
1.55174
1.51724
1.46021
1.11167
0.894894
0.522037
-0.0170284
-0.605577
1.18753
0.925314
0.538857
0.00324175
-0.598465
)
;

boundaryField
{
    left
    {
        type            zeroGradient;
    }
    right
    {
        type            fixedValue;
        value           uniform 0;
    }
    down
    {
        type            zeroGradient;
    }
    up
    {
        type            zeroGradient;
    }
    cylinder
    {
        type            zeroGradient;
    }
    defaultFaces
    {
        type            empty;
    }
}


// ************************************************************************* //
