/*--------------------------------*- C++ -*----------------------------------*\
  =========                 |
  \\      /  F ield         | OpenFOAM: The Open Source CFD Toolbox
   \\    /   O peration     | Website:  https://openfoam.org
    \\  /    A nd           | Version:  13
     \\/     M anipulation  |
\*---------------------------------------------------------------------------*/
FoamFile
{
    format      ascii;
    class       volVectorField;
    location    "19.6";
    object      U;
}
// * * * * * * * * * * * * * * * * * * * * * * * * * * * * * * * * * * * * * //

dimensions      [0 1 -1 0 0 0 0];

internalField   nonuniform List<vector> 
440
(
(-0.0964 0.0805902 -7.06094e-20)
(-0.0709082 0.0998846 3.058e-20)
(0.181189 0.0550328 2.77542e-20)
(0.648823 0.00987774 1.64583e-19)
(0.968678 -0.0394279 5.02702e-21)
(-0.0770715 0.0453904 4.76459e-20)
(0.179061 -0.0219617 -1.39105e-19)
(0.801676 -0.0994813 -1.20498e-19)
(1.41784 -0.156047 4.2081e-20)
(1.99863 -0.205213 -1.52932e-20)
(0.0239719 -0.0139805 5.31215e-20)
(0.725328 -0.0885342 9.62999e-19)
(1.57784 -0.10447 -6.95826e-19)
(2.17402 -0.0940191 -2.16889e-18)
(2.57498 -0.100896 9.91064e-19)
(0.287706 -0.0631176 -1.83805e-19)
(1.44155 -0.0207195 -7.2729e-19)
(2.20344 0.025072 2.35449e-18)
(2.54767 0.041908 2.66419e-18)
(2.57137 0.043177 -7.29605e-19)
(0.695653 -0.00119139 -3.50029e-19)
(1.94212 0.173221 -7.7888e-19)
(2.44448 0.228795 2.4147e-18)
(2.56128 0.229433 2.49418e-18)
(2.64868 0.203746 8.35346e-19)
(-0.0515331 0.488398 4.20569e-19)
(-0.185104 0.6606 5.64311e-19)
(-0.317156 0.677594 -1.68504e-18)
(-0.434584 0.637625 3.08533e-19)
(-0.461225 0.511372 1.76343e-18)
(-0.0718868 0.488297 -1.19127e-19)
(-0.0633676 0.784752 -6.81569e-19)
(-0.0254946 0.845603 1.20712e-20)
(0.0457874 0.815686 1.58918e-20)
(0.0675489 0.743726 -5.71522e-20)
(-0.0768773 0.254581 -2.92163e-20)
(-0.0721353 0.510639 -1.47069e-19)
(-0.0182602 0.58075 5.89333e-20)
(0.0938996 0.554867 -2.00359e-19)
(0.122749 0.494798 7.15616e-21)
(-0.073614 0.130427 -6.19551e-20)
(-0.109897 0.280858 9.64691e-20)
(-0.0790199 0.334187 -6.64324e-20)
(0.00767069 0.319579 1.05026e-21)
(0.104049 0.248288 -3.13239e-20)
(-0.0881139 0.101265 -2.1771e-21)
(-0.133021 0.183899 -9.50478e-21)
(-0.0711078 0.205199 1.22422e-20)
(0.104249 0.174738 -9.26318e-20)
(0.317692 0.151892 -3.37864e-19)
(0.188006 -0.6183 -1.6686e-18)
(1.17399 -1.05801 2.68439e-18)
(1.51973 0.964521 7.76798e-19)
(0.681241 0.517414 5.06349e-19)
(1.06577 -0.346286 -7.65017e-20)
(1.66253 -0.820263 1.33451e-18)
(0.93648 -1.12726 -1.51055e-19)
(1.34435 1.01057 5.31172e-20)
(0.666608 0.540455 -3.79661e-19)
(1.2334 -0.391424 1.17209e-19)
(1.89974 -0.968759 2.77607e-19)
(0.00423473 -1.01512 -1.11071e-18)
(0.697106 1.05656 2.26712e-20)
(0.738244 0.460821 -2.09071e-19)
(1.41752 -0.456028 2.33332e-20)
(1.51519 -0.895973 -3.4178e-19)
(-0.535048 -0.953253 -5.58616e-20)
(0.655132 0.862167 1.65748e-18)
(1.05328 0.332807 1.81274e-19)
(1.63029 -0.509869 -2.57191e-19)
(1.93361 -0.809013 -1.56924e-19)
(0.595551 -0.961345 5.70454e-19)
(0.379074 0.634224 0)
(1.51637 0.229773 -8.08972e-20)
(1.85556 -0.528799 -1.65047e-19)
(2.3965 -0.774914 -5.93704e-19)
(2.26654 -0.780912 1.88777e-19)
(0.326036 0.337348 1.03285e-20)
(2.06155 -0.100248 4.65617e-20)
(2.01316 -0.566954 3.91273e-19)
(2.37116 -0.837158 7.45315e-20)
(1.27757 -0.319975 3.84122e-19)
(0.407687 0.642355 7.9161e-21)
(2.24052 -0.331752 -1.87503e-19)
(1.87876 -0.511329 0)
(2.29959 -0.437472 -6.40822e-19)
(1.1681 -0.0797709 2.1185e-20)
(1.25205 0.188554 6.66385e-19)
(2.35441 -0.553231 -1.36397e-19)
(1.50826 -0.449862 1.88689e-20)
(1.9293 -0.343034 1.80289e-20)
(1.11049 0.021195 4.98077e-20)
(1.79354 0.0344836 7.36958e-21)
(1.81936 -0.401762 1.20436e-33)
(0.741478 -0.2246 -1.92646e-20)
(0.985612 -0.0311131 9.61597e-20)
(0.717811 -0.00454268 -4.21631e-21)
(1.05366 -0.120192 -5.16951e-20)
(0.346295 -0.0843993 9.58545e-20)
(-0.278287 -0.00186448 -3.1719e-20)
(2.45949 0.225811 -1.05217e-18)
(2.73805 -0.0361107 -1.38205e-18)
(2.47038 -0.00533621 1.16905e-18)
(2.83857 -0.276421 1.2441e-20)
(2.20096 -0.119829 -4.7956e-20)
(2.15766 0.161808 4.48909e-20)
(2.47234 -0.0641797 -4.49872e-20)
(2.29339 -0.0160709 -1.53682e-19)
(2.51989 -0.26055 -2.46462e-19)
(2.38281 -0.259748 -7.54339e-21)
(2.09839 0.0439067 6.84553e-20)
(2.22924 -0.0360288 1.24674e-19)
(2.19045 -0.0851388 -1.84376e-19)
(2.26402 -0.161792 5.90214e-20)
(2.24664 -0.243004 5.95264e-20)
(2.02469 0.00177625 1.10602e-19)
(1.99783 -0.0431974 9.50203e-20)
(2.08158 -0.0671767 -1.6392e-20)
(2.02978 -0.120975 3.55075e-20)
(2.10752 -0.146701 1.60292e-20)
(1.45503 -0.0212673 1.52414e-19)
(1.36207 -0.0180019 -1.24357e-20)
(1.44813 -0.0388181 2.57393e-20)
(1.31091 -0.0285211 -1.84015e-21)
(1.41358 -0.0627694 5.07353e-20)
(1.6235 0.844174 1.19722e-18)
(1.56781 0.946027 -3.84397e-19)
(1.56875 1.08475 -1.44018e-18)
(1.50274 1.13827 7.85351e-19)
(0.925917 0.827449 -1.84408e-19)
(1.92118 0.810836 -6.20596e-19)
(1.88016 0.886895 -3.21534e-18)
(1.88153 0.99523 -1.23839e-18)
(1.80051 1.01612 -4.44202e-19)
(1.11084 0.728975 -7.28626e-19)
(2.23428 0.668234 8.26611e-19)
(2.21353 0.743838 2.16742e-19)
(2.19104 0.841679 -2.41494e-18)
(2.06322 0.834673 -7.05295e-19)
(1.23967 0.573514 5.44713e-19)
(2.42691 0.560767 2.50653e-18)
(2.40036 0.607846 1.84378e-18)
(2.39451 0.665225 -2.16147e-18)
(2.19918 0.630825 -1.65713e-18)
(1.23453 0.384934 -3.2344e-19)
(2.55045 0.376068 1.3e-18)
(2.58223 0.406598 -9.35961e-19)
(2.50338 0.44053 6.55834e-19)
(2.18129 0.395648 5.54365e-19)
(1.06578 0.176727 -4.89385e-19)
(0.573813 0.492801 -6.1901e-19)
(0.483534 0.529146 -4.63323e-19)
(0.365693 0.565322 4.98268e-20)
(0.228792 0.573074 -2.11591e-22)
(0.0571715 0.416433 9.33078e-20)
(0.682541 0.665157 1.31711e-19)
(0.620094 0.726951 -2.82949e-19)
(0.533837 0.797128 1.92747e-19)
(0.408839 0.853786 -9.00102e-20)
(0.179788 0.649147 1.2709e-19)
(0.780188 0.852795 1.0877e-19)
(0.705223 0.935542 5.0124e-19)
(0.652058 1.03648 1.24361e-19)
(0.572671 1.07935 -3.26892e-19)
(0.316247 0.796826 2.76312e-19)
(1.07958 0.927201 2.47223e-19)
(1.0316 1.00989 -7.49148e-19)
(0.978205 1.10746 -2.03364e-18)
(0.894709 1.17547 8.16975e-19)
(0.528199 0.877074 -1.71149e-19)
(1.13407 0.965002 -1.09999e-19)
(1.17608 1.09105 -1.90257e-19)
(1.20712 1.2087 -3.8921e-19)
(1.15811 1.23465 -4.405e-19)
(0.714686 0.889871 -7.0127e-21)
(1.02489 0.0471169 -1.05714e-19)
(0.98897 0.0529271 -3.72309e-20)
(1.03067 0.125833 -1.47005e-21)
(0.947654 0.158205 -3.07634e-19)
(0.893849 0.306251 3.24036e-19)
(1.01698 0.0430908 6.7156e-20)
(0.999518 0.0538522 1.31779e-19)
(1.0191 0.132609 1.42511e-19)
(0.987135 0.185834 4.4077e-20)
(0.938225 0.384047 -2.29537e-20)
(1.02587 0.0411166 9.15451e-20)
(0.976931 0.0491656 -4.91895e-21)
(1.06773 0.150925 -6.9982e-21)
(0.939997 0.182661 1.58234e-19)
(1.16538 0.532544 -5.19195e-19)
(1.02281 0.0405568 -3.50161e-22)
(0.984145 0.0440787 -1.81338e-19)
(1.06997 0.163105 -7.30983e-20)
(1.04314 0.188633 -4.06829e-19)
(1.1611 0.576403 1.00024e-19)
(1.02019 0.0359515 -1.60279e-20)
(0.976135 0.0438951 4.9133e-20)
(1.13204 0.161362 3.44099e-20)
(1.00179 0.216694 4.85828e-19)
(1.43977 0.711885 -4.93702e-19)
(0.984809 0.0411162 -1.31313e-20)
(1.02293 0.0197069 9.98862e-20)
(1.12843 0.187258 -8.71907e-20)
(1.24786 0.133877 9.16117e-19)
(1.29003 0.745965 -3.83042e-19)
(0.924851 0.0207159 -1.37369e-21)
(1.09446 0.00832204 -9.60688e-20)
(1.12672 0.0961736 5.15053e-21)
(1.38028 0.163342 -2.63311e-19)
(1.19601 0.486034 -4.79408e-20)
(0.950822 0.0283605 -2.17574e-21)
(1.11292 -0.0312609 1.54477e-35)
(1.18794 0.059338 -5.71725e-20)
(1.25561 0.151561 8.16995e-20)
(1.40818 0.331813 1.86139e-19)
(1.04786 -0.0211038 3.96825e-21)
(1.07317 -0.0622362 -2.62778e-20)
(1.13106 0.0287618 1.82831e-20)
(1.12747 0.101066 2.72475e-20)
(1.61735 0.189773 -2.83278e-19)
(0.98299 -0.0237246 -3.95738e-20)
(0.840027 -0.0256634 -1.74364e-21)
(0.815847 0.012902 2.83657e-20)
(0.892696 0.00965948 -1.29762e-20)
(1.2069 0.0367609 -6.55211e-20)
(1.89979 0.622972 3.12543e-19)
(1.95546 0.653289 8.05917e-19)
(2.26816 0.500369 -1.17003e-18)
(2.28633 0.484628 3.04795e-20)
(2.5573 0.251805 5.1477e-19)
(1.76761 0.357202 8.70345e-20)
(1.761 0.400034 1.05601e-18)
(2.05041 0.284593 1.23339e-19)
(1.98733 0.308078 -9.64109e-19)
(2.30277 0.117908 -3.06141e-19)
(1.73168 0.256078 -2.4162e-19)
(1.81188 0.237167 -1.58121e-19)
(1.94912 0.182778 2.0237e-19)
(1.97374 0.153947 -3.00029e-19)
(2.12339 0.0760745 2.697e-19)
(1.71551 0.130201 3.84785e-19)
(1.82889 0.111622 -5.17518e-21)
(1.83633 0.0825565 2.25298e-19)
(1.93778 0.0627071 1.86928e-19)
(1.93075 0.0234729 -1.77708e-19)
(1.32542 0.0271172 -4.53402e-20)
(1.38856 0.0180015 2.43337e-19)
(1.37117 0.0116354 1.05554e-19)
(1.4292 -0.00159677 -2.13987e-19)
(1.38052 -0.00592616 5.11402e-22)
(1.08681 -0.0198454 5.09595e-20)
(2.08726 -0.0482552 -3.85083e-19)
(2.32488 -0.036997 1.09257e-18)
(2.31249 0.00284065 4.90031e-19)
(2.16136 0.0309541 -3.33326e-19)
(0.665207 0.0891239 9.00022e-20)
(1.86344 0.0775797 -4.00096e-19)
(2.33459 0.0805457 -5.32194e-19)
(2.39681 0.0906203 6.50262e-19)
(2.14295 0.0798782 -4.05204e-19)
(0.192688 0.0690038 -2.62416e-20)
(1.23365 0.134635 4.1417e-19)
(1.98528 0.155674 5.99922e-20)
(2.3835 0.148379 3.74311e-19)
(2.55721 0.146474 1.79281e-19)
(-0.04722 -0.0282456 1.80402e-19)
(0.424152 0.0633485 1.78114e-19)
(1.20754 0.134453 -3.78982e-19)
(1.70473 0.16959 2.0618e-20)
(2.30612 0.200909 2.62066e-20)
(-0.100766 -0.0821492 1.21027e-19)
(-0.0220411 -0.0608953 -1.33515e-19)
(0.399396 0.0132183 -1.85402e-20)
(0.861474 0.0414833 8.08218e-21)
(1.27797 0.105357 -4.09324e-20)
(-0.0769219 -0.0787603 1.23736e-20)
(-0.137174 -0.118434 6.79947e-20)
(-0.0474644 -0.12221 6.6911e-20)
(0.137548 -0.0994177 -8.81349e-20)
(0.495771 -0.0421876 1.86019e-21)
(-0.0402575 -0.0563658 -8.00421e-21)
(-0.108093 -0.131728 -1.75166e-20)
(-0.130585 -0.194799 -1.84407e-21)
(-0.102642 -0.227674 1.63827e-21)
(0.0224067 -0.189721 4.62849e-21)
(-0.0204841 -0.03263 1.64081e-21)
(-0.0807053 -0.117424 3.54933e-20)
(-0.130165 -0.206469 5.10822e-21)
(-0.167704 -0.265592 4.17646e-20)
(-0.164249 -0.272043 9.83686e-21)
(-0.0113859 0.00819071 -6.83753e-21)
(-0.0944859 -0.0630167 -3.56169e-20)
(-0.188307 -0.128745 1.00488e-19)
(-0.293215 -0.146386 4.74212e-20)
(-0.379879 -0.136172 -5.69231e-20)
(-0.0271618 0.187195 3.24375e-21)
(-0.205583 0.218583 1.32307e-20)
(-0.391918 0.264768 -2.33013e-20)
(-0.581046 0.322547 1.34428e-19)
(-0.718404 0.298388 4.45902e-19)
(1.40899 0.569978 -1.22875e-20)
(1.43787 0.203976 1.3562e-18)
(1.14394 0.295762 1.05861e-19)
(-0.0111695 0.0523102 1.58376e-19)
(0.419041 -0.21862 -2.54053e-20)
(1.09795 0.408003 9.46478e-20)
(1.42103 0.193021 -8.62245e-19)
(1.41399 0.45921 6.23317e-19)
(0.265457 0.128075 1.83896e-20)
(0.470189 -0.259848 1.29989e-19)
(0.237283 0.167161 2.77549e-19)
(1.27708 0.0697106 -5.34417e-19)
(1.55811 0.620298 -7.377e-20)
(0.464219 0.262198 2.21098e-20)
(0.596314 -0.277777 -9.44485e-21)
(-0.716766 0.000587053 1.94163e-19)
(1.23118 -0.199096 -2.26758e-18)
(1.6136 0.745545 -5.01751e-19)
(0.573862 0.358908 -3.02645e-21)
(0.748799 -0.297913 -1.00163e-19)
(-1.00797 -0.199741 2.39643e-19)
(1.24758 -0.662335 -8.26776e-19)
(1.61021 0.858202 6.5319e-19)
(0.666353 0.457782 -2.03342e-21)
(0.915034 -0.307839 -1.95032e-19)
(0.250987 0.18389 -7.25532e-20)
(-0.247469 -0.137473 0)
(-0.141772 -0.0934633 1.6319e-20)
(-0.231646 -0.0555745 3.05674e-20)
(0.259483 -0.0275735 -3.63525e-21)
(1.75846 0.512014 0)
(1.28029 0.258893 0)
(0.84304 0.0807456 6.88724e-20)
(-0.150831 -0.0530417 -1.15589e-20)
(0.45978 -0.129582 7.59671e-20)
(0.686272 0.000688248 -1.12015e-19)
(0.711774 -0.00548853 1.25125e-19)
(0.953885 -0.00516997 -4.38228e-20)
(0.944141 0.00731603 2.98295e-19)
(1.37054 0.0727434 2.09406e-19)
(1.56411 0.0229542 1.05226e-19)
(1.68921 0.0644595 1.94727e-19)
(1.89186 0.0311517 -2.73208e-19)
(2.44548 0.177406 -2.31568e-20)
(2.16798 0.0970666 1.27721e-19)
(0.86689 -0.446918 -2.75787e-20)
(0.851017 -0.530823 -1.36631e-19)
(0.838926 -0.621831 -9.7207e-20)
(0.765356 -0.683352 5.99464e-20)
(0.458708 -0.528773 1.12021e-19)
(0.769927 -0.350895 1.29017e-19)
(0.714371 -0.411644 2.72814e-19)
(0.640004 -0.476883 -2.63193e-20)
(0.526559 -0.530174 1.18318e-19)
(0.281349 -0.41625 4.57664e-20)
(0.625287 -0.209951 -1.66835e-19)
(0.536137 -0.244647 -4.29109e-20)
(0.434047 -0.28863 1.4104e-19)
(0.316651 -0.328156 -6.38992e-21)
(0.136004 -0.260565 -9.91379e-20)
(0.534874 0.0226035 -4.37454e-19)
(0.448882 0.0108032 -3.6353e-19)
(0.339416 -0.0101233 2.82827e-19)
(0.213354 -0.0400583 1.85687e-19)
(0.0540747 -0.0514461 1.38011e-20)
(0.515281 0.229991 -1.81937e-19)
(0.429267 0.236528 -1.78007e-19)
(0.314093 0.24252 -8.29936e-20)
(0.179536 0.249264 1.1981e-20)
(0.0244766 0.185085 1.10034e-20)
(1.91708 -0.0412179 7.15874e-19)
(2.17625 -0.103707 2.51175e-19)
(2.24483 -0.182776 -6.60905e-19)
(2.08896 -0.209383 -1.32574e-18)
(1.23676 -0.174786 1.04163e-19)
(1.90265 -0.118275 1.20224e-18)
(1.98779 -0.223319 1.58496e-18)
(2.00156 -0.33839 1.3028e-19)
(1.91584 -0.394042 2.25534e-19)
(1.21023 -0.33456 -1.48322e-19)
(1.6273 -0.272993 -3.13206e-18)
(1.68893 -0.383951 3.66701e-19)
(1.73025 -0.500455 9.73429e-19)
(1.66203 -0.568057 -3.68834e-19)
(1.06481 -0.469572 5.73991e-19)
(1.42762 -0.387635 7.41178e-19)
(1.44306 -0.479469 -1.94585e-18)
(1.42629 -0.589247 -2.24857e-18)
(1.35318 -0.6678 6.82357e-19)
(0.86255 -0.539087 4.5631e-19)
(1.15456 -0.441559 1.51083e-19)
(1.10853 -0.52884 2.12283e-19)
(1.0955 -0.641802 -3.34442e-19)
(1.03636 -0.718317 -4.02832e-19)
(0.648844 -0.561035 -3.75197e-21)
(1.07424 0.0566903 7.93857e-21)
(0.915995 0.0616906 -6.29563e-21)
(1.11409 0.0808068 -7.77147e-21)
(0.788168 0.0194637 -1.78379e-19)
(1.06416 -0.190848 -6.29054e-21)
(1.08346 0.0596815 -2.62918e-21)
(0.9155 0.0608076 5.60518e-20)
(1.11124 0.0985945 -5.6728e-20)
(0.877377 0.0658465 8.93991e-20)
(0.955582 -0.0744594 -2.57414e-20)
(1.08146 0.0562829 -6.47649e-20)
(0.920153 0.0587454 5.39565e-22)
(1.09973 0.0998401 -2.36558e-20)
(0.877892 0.0923496 1.51613e-21)
(0.936759 -0.0150105 -1.42796e-19)
(1.06181 0.054178 7.95031e-20)
(0.950101 0.0558002 3.66068e-21)
(1.06232 0.106738 3.73406e-20)
(0.920423 0.117412 4.09224e-20)
(0.8519 0.0983405 1.22253e-19)
(1.03718 0.0499018 2.02034e-20)
(0.980911 0.0561883 -3.18114e-20)
(1.03065 0.111841 5.05872e-20)
(0.950385 0.1454 8.55336e-20)
(0.8335 0.198556 -1.38386e-19)
(0.892017 0.0340392 0)
(0.700261 0.0283888 1.06302e-20)
(0.595023 0.0235795 2.64897e-21)
(0.325986 -0.00546382 3.88594e-20)
(0.625173 -0.0499527 -1.02092e-19)
(1.04082 0.076121 -6.67295e-20)
(0.926371 0.0755807 -2.19459e-20)
(1.01411 0.0807201 -2.4375e-20)
(0.787082 0.0103885 -9.16687e-20)
(0.979222 -0.175605 -1.09523e-19)
(0.863544 -0.061061 -2.47747e-20)
(0.943742 -0.0294495 4.27407e-19)
(1.02481 0.0358141 2.68361e-19)
(0.904465 0.0493054 2.39671e-20)
(0.701706 0.0254038 0)
(1.22775 -0.297621 2.4007e-19)
(1.33445 -0.263229 1.2551e-18)
(1.49712 -0.149091 -1.42865e-18)
(1.58426 -0.0217902 -4.42065e-19)
(1.48284 0.0232116 3.28679e-19)
)
;

boundaryField
{
    left
    {
        type            fixedValue;
        value           uniform (1 0 0);
    }
    right
    {
        type            zeroGradient;
    }
    down
    {
        type            noSlip;
    }
    up
    {
        type            noSlip;
    }
    cylinder
    {
        type            noSlip;
    }
    defaultFaces
    {
        type            empty;
    }
}


// ************************************************************************* //
