/*--------------------------------*- C++ -*----------------------------------*\
  =========                 |
  \\      /  F ield         | OpenFOAM: The Open Source CFD Toolbox
   \\    /   O peration     | Website:  https://openfoam.org
    \\  /    A nd           | Version:  13
     \\/     M anipulation  |
\*---------------------------------------------------------------------------*/
FoamFile
{
    format      ascii;
    class       volScalarField;
    location    "0.1225";
    object      p;
}
// * * * * * * * * * * * * * * * * * * * * * * * * * * * * * * * * * * * * * //

dimensions      [0 2 -2 0 0 0 0];

internalField   nonuniform List<scalar> 
1800
(
-0.909983
-0.84307
-0.742492
-0.636646
-0.541283
-0.458833
-0.387541
-0.325233
-0.270105
-0.224326
-1.07577
-1.00192
-0.889097
-0.770011
-0.662497
-0.569149
-0.488178
-0.417509
-0.356092
-0.305572
-1.23135
-1.15052
-1.02564
-0.893786
-0.774669
-0.670869
-0.580496
-0.501386
-0.432293
-0.373861
-1.37164
-1.28399
-1.14762
-1.00393
-0.874276
-0.761098
-0.66238
-0.575838
-0.500116
-0.43552
-1.49131
-1.39714
-1.25009
-1.09572
-0.956725
-0.835218
-0.729048
-0.635826
-0.554103
-0.483706
-1.58519
-1.48502
-1.32838
-1.1648
-1.01792
-0.889372
-0.776896
-0.678016
-0.591177
-0.51582
-1.64849
-1.54304
-1.37814
-1.20713
-1.05399
-0.919851
-0.802337
-0.698928
-0.607973
-0.528589
-1.6771
-1.56728
-1.39571
-1.21934
-1.06172
-0.923533
-0.802369
-0.695671
-0.601695
-0.519288
-1.66783
-1.55461
-1.37845
-1.1989
-1.03863
-0.897987
-0.774624
-0.665951
-0.570111
-0.485739
-1.61868
-1.50334
-1.32512
-1.14406
-0.98309
-0.841706
-0.717628
-0.608271
-0.511669
-0.42636
0.340647
0.363617
0.382365
0.395798
0.403863
0.407711
0.408454
0.40691
0.403667
0.399285
0.303136
0.32761
0.349106
0.365765
0.376939
0.383596
0.386861
0.387586
0.386388
0.383957
0.239312
0.266079
0.291801
0.313387
0.329297
0.340221
0.347302
0.351451
0.353336
0.353861
0.150728
0.180507
0.211853
0.239946
0.262091
0.278608
0.290671
0.299267
0.305139
0.309485
0.0394937
0.0729417
0.111209
0.147252
0.17697
0.200249
0.218301
0.232212
0.242809
0.251657
-0.0916385
-0.0539224
-0.00754943
0.0377284
0.0761834
0.107231
0.132127
0.152063
0.167964
0.181812
-0.239251
-0.19671
-0.141171
-0.0855329
-0.0373408
0.00234187
0.0348159
0.0613806
0.0830582
0.10229
-0.399326
-0.351434
-0.285791
-0.218822
-0.160037
-0.110961
-0.0702517
-0.0365129
-0.00860831
0.0163602
-0.56743
-0.513666
-0.437077
-0.357903
-0.287733
-0.228522
-0.178909
-0.13743
-0.102733
-0.0716814
-0.739063
-0.678915
-0.590586
-0.498328
-0.41584
-0.345415
-0.285649
-0.234965
-0.191721
-0.153868
0.35416
0.273207
0.223668
0.182866
0.148628
0.118731
0.0910797
0.0645748
0.0385807
0.0128135
0.351328
0.274928
0.225829
0.184769
0.15004
0.119682
0.0916885
0.06494
0.0387705
0.0128652
0.341822
0.274794
0.227175
0.186439
0.151485
0.120749
0.092424
0.0654102
0.0390277
0.0129394
0.324941
0.272797
0.227748
0.187868
0.152946
0.121921
0.0932774
0.0659796
0.0393491
0.0130357
0.29982
0.268806
0.227591
0.189052
0.154405
0.123182
0.0942392
0.0666414
0.039731
0.0131534
0.265748
0.262439
0.226701
0.189979
0.15584
0.124518
0.0952985
0.0673884
0.0401695
0.0132917
0.222692
0.252994
0.224975
0.190621
0.157224
0.125911
0.0964431
0.0682124
0.0406604
0.01345
0.171304
0.239433
0.222188
0.190934
0.158532
0.127341
0.0976606
0.069105
0.0411989
0.0136275
0.111627
0.220919
0.217797
0.190751
0.159709
0.128785
0.0989395
0.0700591
0.0417816
0.0138241
0.0477
0.199279
0.212191
0.190206
0.160802
0.130259
0.100283
0.0710745
0.0424086
0.0140436
0.0202382
0.185843
0.208061
0.189099
0.16093
0.130813
0.10088
0.0715503
0.0427336
0.0142132
0.013082
0.166262
0.194749
0.181417
0.156765
0.128585
0.0996778
0.0708943
0.0424155
0.0141355
0.0219447
0.154862
0.184381
0.174583
0.152681
0.126245
0.0983545
0.0701513
0.0420431
0.0140358
0.0350388
0.146659
0.17525
0.168092
0.148573
0.123787
0.0969194
0.0693287
0.0416215
0.0139172
0.050478
0.141236
0.167434
0.162071
0.144556
0.121289
0.09542
0.0684527
0.0411643
0.0137838
0.0652728
0.137454
0.160689
0.156543
0.140715
0.118825
0.0939048
0.0675518
0.040686
0.01364
0.0773019
0.134389
0.154765
0.151505
0.137117
0.116459
0.0924191
0.0666537
0.0402004
0.0134894
0.0852548
0.131196
0.149366
0.146904
0.133788
0.114233
0.0909964
0.0657799
0.0397178
0.0133351
0.088126
0.126777
0.143795
0.142342
0.130493
0.112001
0.0895423
0.0648672
0.0391903
0.0131496
0.0864012
0.124656
0.141218
0.140248
0.128976
0.110971
0.0888725
0.0644494
0.0389546
0.0130716
-0.282485
-0.340362
-0.376879
-0.392878
-0.390055
-0.370767
-0.33734
-0.292689
-0.239697
-0.183186
-0.126535
-0.184289
-0.224753
-0.248751
-0.2574
-0.252928
-0.236394
-0.212653
-0.180881
-0.149777
-0.00688735
-0.0626533
-0.104391
-0.132601
-0.148016
-0.152635
-0.146759
-0.135278
-0.115402
-0.0964637
0.0854959
0.0310836
-0.0112195
-0.0418144
-0.0613061
-0.0713541
-0.0722311
-0.0680216
-0.0566275
-0.0459105
0.156018
0.102889
0.060419
0.0283468
0.00614695
-0.00749633
-0.013096
-0.0137502
-0.00835844
-0.0029875
0.209688
0.157452
0.114853
0.081745
0.0576533
0.0415445
0.0326812
0.0287866
0.0301447
0.0319905
0.249596
0.197836
0.15499
0.121007
0.0954715
0.0775716
0.0664347
0.0603451
0.0589798
0.0584182
0.277841
0.226066
0.182702
0.147786
0.120966
0.101617
0.0888306
0.0813082
0.0782753
0.0763031
0.295279
0.242909
0.198469
0.162195
0.133841
0.11295
0.0986908
0.0901509
0.086376
0.08485
0.305664
0.250321
0.202791
0.163167
0.131331
0.107075
0.0896554
0.0789255
0.0734943
0.0733837
1.21859
1.17172
1.11924
1.06354
1.0026
0.933864
0.855165
0.766318
0.676888
0.609617
1.02028
0.967353
0.909858
0.846876
0.776214
0.695914
0.604044
0.500658
0.396991
0.31871
0.805644
0.749283
0.68754
0.618271
0.539564
0.449609
0.34636
0.229934
0.113267
0.0246632
0.598854
0.537642
0.469698
0.392906
0.305559
0.205729
0.0911439
-0.038141
-0.167336
-0.265697
0.403974
0.336878
0.262066
0.177488
0.0814308
-0.0282076
-0.153908
-0.295777
-0.436847
-0.544194
0.220898
0.148249
0.0670766
-0.0246369
-0.128658
-0.247258
-0.383134
-0.536735
-0.688318
-0.803506
0.0515866
-0.0256891
-0.112251
-0.210037
-0.320822
-0.446996
-0.591571
-0.755836
-0.916229
-1.03725
-0.10062
-0.181511
-0.272411
-0.375126
-0.491371
-0.623479
-0.774664
-0.947731
-1.11803
-1.2378
-0.232305
-0.315873
-0.410083
-0.516585
-0.637175
-0.774082
-0.929821
-1.10856
-1.28607
-1.40088
-0.341022
-0.426275
-0.522549
-0.631283
-0.754336
-0.894527
-1.05421
-1.2348
-1.4139
-1.52922
2.45017
2.46852
2.49126
2.5161
2.5407
2.56417
2.58595
2.60542
2.6226
2.63569
2.39616
2.41268
2.43313
2.45534
2.47706
2.49736
2.51565
2.53128
2.54462
2.55476
2.32165
2.33549
2.35252
2.37079
2.3882
2.40376
2.41679
2.42667
2.43425
2.44008
2.22735
2.23775
2.2503
2.26342
2.27517
2.28452
2.29065
2.29294
2.29293
2.29349
2.11439
2.12063
2.12776
2.13462
2.13949
2.14127
2.139
2.13204
2.12279
2.11691
1.98427
1.98574
1.98662
1.98624
1.98316
1.97616
1.96416
1.94653
1.92657
1.91266
1.83882
1.83525
1.82933
1.82093
1.80893
1.79207
1.7691
1.73947
1.70749
1.68431
1.68105
1.67215
1.65885
1.6416
1.61976
1.59201
1.55696
1.51415
1.46907
1.43568
1.51758
1.50327
1.4815
1.45393
1.42076
1.38072
1.33221
1.27496
1.21571
1.17136
1.35751
1.33214
1.29799
1.25808
1.21246
1.15926
1.09654
1.02411
0.950141
0.894437
2.55281
1.87469
2.42398
2.21762
2.18832
2.18525
2.19314
2.21816
2.28074
2.38376
2.5454
1.86683
2.41782
2.20996
2.17975
2.17512
2.18041
2.20156
2.25621
2.34689
2.53893
1.85828
2.41273
2.20164
2.17029
2.16377
2.16568
2.18178
2.22472
2.2978
2.53329
1.84915
2.40872
2.19267
2.15998
2.15124
2.149
2.15873
2.18634
2.23624
2.52841
1.83956
2.4058
2.18298
2.14888
2.13757
2.13043
2.13229
2.14105
2.16222
2.52422
1.82968
2.40393
2.17253
2.13705
2.12283
2.11001
2.10229
2.0885
2.07626
2.52063
1.81972
2.40305
2.16122
2.12455
2.10707
2.08776
2.06864
2.02998
1.97712
2.5176
1.80991
2.40306
2.14897
2.11151
2.09036
2.06368
2.03149
1.96703
1.86397
2.51506
1.80052
2.40379
2.13567
2.09808
2.07276
2.03786
1.99101
1.89952
1.73527
2.5129
1.79187
2.40504
2.12127
2.08444
2.05442
2.01072
1.94866
1.83059
1.60121
2.51094
1.78307
2.40092
2.1093
2.06798
2.03055
1.97428
1.89232
1.74394
1.45443
2.5121
1.77557
2.39161
2.10158
2.05132
2.00568
1.93749
1.83897
1.66911
1.37531
2.51472
1.77019
2.38336
2.09419
2.03628
1.98296
1.90453
1.79312
1.60908
1.32311
2.51929
1.76687
2.3764
2.08744
2.02298
1.96278
1.8758
1.75446
1.56193
1.28684
2.52641
1.76551
2.37089
2.08156
2.01155
1.94543
1.85155
1.72276
1.52602
1.26139
2.5368
1.76602
2.36684
2.07676
2.00213
1.9311
1.83184
1.69767
1.49968
1.2441
2.55075
1.76831
2.36411
2.07314
1.99478
1.91988
1.81663
1.6788
1.48136
1.23331
2.57061
1.77213
2.36244
2.07075
1.98957
1.91183
1.80586
1.66576
1.46977
1.22803
2.59119
1.77792
2.36129
2.06964
1.98661
1.90707
1.79961
1.65854
1.46457
1.22906
2.64105
1.78505
2.36297
2.06785
1.98505
1.90429
1.79595
1.65421
1.46149
1.22878
1.1912
1.01966
0.826202
0.640953
0.468251
0.305752
0.154361
0.0170106
-0.10321
-0.203372
1.1105
0.977836
0.826662
0.675733
0.532021
0.394948
0.265493
0.146436
0.0403098
-0.0513907
1.06784
0.958967
0.834755
0.705786
0.580924
0.461389
0.347804
0.242135
0.146504
0.0628881
1.04401
0.948936
0.842974
0.731142
0.621018
0.514665
0.412771
0.31703
0.229469
0.151847
1.03271
0.946661
0.85301
0.753329
0.653673
0.556634
0.463123
0.374623
0.292917
0.219596
1.02892
0.948976
0.863553
0.772328
0.680159
0.589799
0.502285
0.418959
0.341455
0.271275
1.02963
0.953906
0.874013
0.788524
0.701516
0.615771
0.532388
0.452616
0.377987
0.309918
1.03323
0.960382
0.884127
0.802292
0.718559
0.635742
0.554948
0.477357
0.40444
0.337579
1.04156
0.970618
0.89624
0.815992
0.733628
0.651958
0.572048
0.495033
0.422343
0.35536
1.05308
0.98611
0.913356
0.833624
0.751537
0.669728
0.58921
0.511176
0.437049
0.368163
-2.8624
-2.70436
-2.47136
-2.24697
-2.05823
-1.90317
-1.77708
-1.67584
-1.59655
-1.53752
-2.93842
-2.78654
-2.55561
-2.33122
-2.141
-1.98471
-1.85775
-1.75584
-1.67605
-1.61761
-2.89818
-2.75413
-2.52996
-2.30795
-2.11831
-1.96212
-1.83488
-1.73227
-1.65118
-1.5904
-2.75593
-2.62089
-2.40779
-2.1922
-2.00602
-1.85182
-1.72545
-1.62267
-1.54034
-1.47663
-2.53439
-2.40951
-2.21107
-2.00628
-1.82725
-1.67786
-1.55444
-1.45296
-1.37037
-1.30516
-2.25998
-2.14622
-1.96543
-1.7757
-1.60793
-1.46687
-1.34939
-1.25176
-1.17105
-1.10688
-1.95825
-1.85614
-1.69512
-1.52405
-1.3714
-1.24224
-1.13401
-1.04336
-0.967496
-0.907365
-1.6502
-1.55982
-1.41946
-1.26931
-1.13452
-1.02001
-0.923645
-0.84255
-0.774275
-0.720571
-1.35078
-1.27175
-1.15177
-1.02332
-0.907772
-0.80957
-0.726874
-0.657211
-0.598393
-0.554076
-1.06901
-1.00051
-0.899633
-0.792202
-0.69572
-0.613881
-0.544944
-0.486526
-0.435765
-0.395744
-0.809724
-0.750745
-0.667241
-0.579468
-0.501411
-0.436099
-0.382226
-0.338163
-0.301909
-0.270278
-0.574775
-0.52411
-0.455752
-0.385262
-0.323412
-0.272409
-0.230988
-0.197639
-0.170944
-0.146676
-0.364781
-0.321179
-0.26566
-0.209834
-0.161684
-0.122609
-0.0913408
-0.066479
-0.0468915
-0.029034
-0.180383
-0.142704
-0.0979437
-0.054446
-0.0178677
0.0111072
0.0337232
0.0512367
0.064635
0.0766431
-0.0223619
0.0104246
0.0463345
0.079651
0.106617
0.127165
0.142507
0.153765
0.16181
0.168673
0.108513
0.137368
0.166226
0.191401
0.210638
0.224374
0.233792
0.239898
0.243461
0.245967
0.211594
0.237441
0.260977
0.279977
0.29333
0.301851
0.306696
0.308782
0.308798
0.307812
0.286432
0.310184
0.330081
0.344838
0.354139
0.359054
0.360716
0.359978
0.35747
0.35397
0.332808
0.355384
0.373291
0.385722
0.392803
0.395739
0.395649
0.393348
0.389432
0.384499
0.350763
0.373087
0.390623
0.402626
0.409306
0.411895
0.411503
0.408936
0.404775
0.399548
-0.0478566
0.118189
0.150871
0.149436
0.136369
0.116523
0.0930293
0.0675608
0.0409007
0.0136561
0.041061
0.153788
0.165214
0.155295
0.13783
0.116213
0.0921588
0.0666866
0.0402993
0.0134536
0.116819
0.18195
0.176156
0.159247
0.138953
0.115966
0.0914285
0.0659415
0.039783
0.0132785
0.178718
0.204119
0.185331
0.163136
0.14007
0.115837
0.09085
0.065327
0.0393511
0.0131305
0.229547
0.22169
0.19332
0.166686
0.14118
0.115835
0.0904259
0.0648431
0.0390025
0.0130092
0.270283
0.235811
0.200378
0.169957
0.142309
0.115969
0.0901571
0.0644884
0.0387361
0.012914
0.301731
0.247347
0.206643
0.172989
0.143473
0.116241
0.090043
0.0642613
0.0385504
0.0128444
0.324994
0.256702
0.212136
0.175794
0.144682
0.116656
0.0900817
0.0641595
0.038444
0.0128001
0.341142
0.264109
0.216819
0.178375
0.145943
0.117211
0.0902704
0.0641802
0.0384149
0.0127804
0.350736
0.269606
0.220666
0.180733
0.14726
0.117905
0.0906048
0.06432
0.0384613
0.0127851
-0.238526
0.0111747
0.0977511
0.12472
0.125529
0.112562
0.0920882
0.0677494
0.0413288
0.0138903
-0.2033
0.0244952
0.103582
0.127227
0.126715
0.112926
0.092153
0.0677111
0.041273
0.0138631
-0.175451
0.0428721
0.113003
0.131586
0.128611
0.113612
0.0923216
0.0676853
0.0411984
0.0138209
-0.143106
0.0645125
0.124476
0.137095
0.130919
0.114638
0.0926857
0.0677701
0.0411874
0.0138026
-0.103206
0.0908915
0.138391
0.143925
0.134201
0.11599
0.0932217
0.0679497
0.0412284
0.0138033
-1.46955
-1.55061
-1.54215
-1.4577
-1.31963
-1.15525
-0.983355
-0.825564
-0.67535
-0.543151
-1.47197
-1.55407
-1.54176
-1.45051
-1.30409
-1.12934
-0.943821
-0.770355
-0.605146
-0.471685
-1.47739
-1.55891
-1.54119
-1.4415
-1.28492
-1.09936
-0.907061
-0.731778
-0.575362
-0.45527
-1.48851
-1.56918
-1.54564
-1.43727
-1.27187
-1.07935
-0.884887
-0.708031
-0.55383
-0.431314
-1.50609
-1.5867
-1.55815
-1.44221
-1.26946
-1.07142
-0.874071
-0.692239
-0.532011
-0.391357
1.85231
1.83192
1.80373
1.77114
1.73437
1.69153
1.64077
1.5817
1.52122
1.47623
1.99226
1.985
1.97141
1.95349
1.93151
1.90423
1.87025
1.82911
1.78623
1.75496
2.12218
2.12095
2.11689
2.11057
2.10118
2.08746
2.06819
2.0428
2.01542
1.99607
2.23628
2.2406
2.24428
2.2471
2.24775
2.24502
2.23783
2.22558
2.21126
2.20179
2.33019
2.33928
2.34941
2.35978
2.36872
2.37508
2.37793
2.37663
2.3732
2.37157
2.40319
2.41629
2.43176
2.44826
2.46385
2.47747
2.48836
2.49589
2.50121
2.50547
2.45514
2.47126
2.49076
2.51189
2.53251
2.55162
2.56858
2.58274
2.59467
2.60376
2.48586
2.504
2.52624
2.5505
2.57451
2.59734
2.6184
2.63706
2.65346
2.66597
2.49521
2.5144
2.53808
2.56398
2.58978
2.61456
2.63778
2.6588
2.67757
2.6919
2.4832
2.50249
2.52634
2.55243
2.57841
2.6034
2.62685
2.64813
2.66714
2.68166
-1.34426
-1.40627
-1.48642
-1.5875
-1.71265
-1.8655
-2.0501
-2.27343
-2.50608
-2.66783
-1.04681
-1.11248
-1.19509
-1.29718
-1.42164
-1.57188
-1.75321
-1.97072
-2.19837
-2.36528
-0.665379
-0.737049
-0.82431
-0.929106
-1.05407
-1.20267
-1.37941
-1.58622
-1.79775
-1.97365
-0.236497
-0.316406
-0.409126
-0.516453
-0.640913
-0.78569
-0.954738
-1.14902
-1.34874
-1.5143
0.191728
0.106753
0.0119975
-0.0943015
-0.214633
-0.351993
-0.510028
-0.689625
-0.873714
-1.02384
0.583939
0.500957
0.410302
0.310381
0.198867
0.0730472
-0.0703635
-0.232114
-0.397015
-0.529361
0.927843
0.852883
0.771718
0.682856
0.584139
0.47321
0.347262
0.205734
0.0620779
-0.0515446
1.22949
1.1647
1.09517
1.01947
0.93529
0.840559
0.732997
0.612261
0.490159
0.395115
1.50106
1.445
1.38463
1.32037
1.24964
1.17023
1.08023
0.979437
0.878012
0.800588
1.72869
1.6818
1.62899
1.57498
1.51768
1.4542
1.38237
1.30176
1.22076
1.16003
2.68203
1.91756
2.52968
2.23819
2.22198
2.22122
2.21863
2.21503
2.17079
2.0581
2.6643
1.91494
2.51765
2.24294
2.22211
2.22204
2.22232
2.2273
2.20251
2.1519
2.64769
1.91233
2.50532
2.24577
2.22184
2.22219
2.22586
2.23851
2.23348
2.23666
2.63222
1.90953
2.49298
2.2468
2.22096
2.2215
2.22782
2.24699
2.26027
2.30268
2.61782
1.90639
2.48095
2.24618
2.21926
2.21983
2.22821
2.25235
2.28266
2.35245
2.60446
1.9028
2.46942
2.2441
2.21663
2.21709
2.22696
2.25452
2.29922
2.3884
2.59212
1.89862
2.45858
2.24074
2.21299
2.2132
2.224
2.25346
2.30905
2.41195
2.58078
1.89376
2.44853
2.23627
2.20833
2.2081
2.21921
2.24928
2.31228
2.42303
2.57046
1.88817
2.43938
2.23085
2.20265
2.20175
2.21252
2.24199
2.30873
2.42155
2.56115
1.88181
2.43118
2.22461
2.19596
2.19413
2.20384
2.23162
2.29824
2.40862
2.832
1.94408
2.54527
2.24368
2.223
2.21468
2.19715
2.16741
2.06309
1.88554
2.77951
1.93757
2.54261
2.24398
2.22277
2.2154
2.19877
2.17054
2.06912
1.88798
2.75244
1.93234
2.54294
2.24252
2.22269
2.21648
2.20167
2.17638
2.08173
1.89418
2.72582
1.92685
2.54078
2.24006
2.22246
2.21783
2.20593
2.18534
2.1019
1.91662
2.70178
1.9214
2.53762
2.23676
2.22207
2.21935
2.21125
2.19721
2.12912
1.95594
1.58809
1.45204
1.23756
0.937956
0.568158
0.144309
-0.295945
-0.701851
-1.03922
-1.29738
1.57132
1.42904
1.21908
0.931739
0.579885
0.17324
-0.260345
-0.672015
-1.02255
-1.29259
1.58746
1.43258
1.21617
0.934023
0.593695
0.19819
-0.232054
-0.651416
-1.01389
-1.29337
1.63286
1.45656
1.22573
0.943476
0.607979
0.217046
-0.213114
-0.639882
-1.01263
-1.30025
1.70817
1.5009
1.24558
0.95533
0.618939
0.229213
-0.201202
-0.633318
-1.01545
-1.31227
)
;

boundaryField
{
    left
    {
        type            zeroGradient;
    }
    right
    {
        type            fixedValue;
        value           uniform 0;
    }
    down
    {
        type            zeroGradient;
    }
    up
    {
        type            zeroGradient;
    }
    cylinder
    {
        type            zeroGradient;
    }
    defaultFaces
    {
        type            empty;
    }
}


// ************************************************************************* //
