# Selection   : all
# Cells       : 440
# Volume      : 7.374263e+01
# Time        	max(p)
7.915         	2.392520e+00
7.96          	2.373173e+00
8.01          	2.340027e+00
