/*--------------------------------*- C++ -*----------------------------------*\
  =========                 |
  \\      /  F ield         | OpenFOAM: The Open Source CFD Toolbox
   \\    /   O peration     | Website:  https://openfoam.org
    \\  /    A nd           | Version:  13
     \\/     M anipulation  |
\*---------------------------------------------------------------------------*/
FoamFile
{
    format      ascii;
    class       volVectorField;
    location    "0.39";
    object      U;
}
// * * * * * * * * * * * * * * * * * * * * * * * * * * * * * * * * * * * * * //

dimensions      [0 1 -1 0 0 0 0];

internalField   nonuniform List<vector> 
1800
(
(0.0978037 -0.0883314 -4.49391e-20)
(0.286899 -0.241955 -3.41486e-20)
(0.473974 -0.379046 -4.85105e-19)
(0.657688 -0.500153 1.915e-19)
(0.836601 -0.607155 7.4371e-20)
(1.00989 -0.701346 -3.90354e-20)
(1.17712 -0.783419 5.54489e-20)
(1.33789 -0.853605 1.96795e-19)
(1.49153 -0.912857 5.91892e-19)
(1.63345 -0.966759 8.09629e-19)
(0.119064 -0.091505 -7.91324e-20)
(0.344296 -0.247713 -7.70644e-19)
(0.563286 -0.384752 3.78174e-21)
(0.775364 -0.504234 1.25839e-19)
(0.9795 -0.608913 -1.26317e-19)
(1.1752 -0.700676 7.66984e-20)
(1.36229 -0.780755 -2.81114e-19)
(1.54075 -0.850047 -5.00792e-20)
(1.71006 -0.91063 -6.92936e-19)
(1.86779 -0.966943 6.29306e-19)
(0.141653 -0.0923249 4.88246e-20)
(0.403685 -0.247735 2.09296e-19)
(0.65376 -0.38212 5.43393e-19)
(0.89218 -0.497905 -1.90295e-19)
(1.11865 -0.598381 -1.43038e-19)
(1.33321 -0.685801 7.56468e-20)
(1.53604 -0.761685 9.83479e-20)
(1.72741 -0.827263 1.94102e-19)
(1.90718 -0.884751 2.73394e-21)
(2.07417 -0.937799 1.50994e-19)
(0.163909 -0.0897224 -4.57204e-20)
(0.461704 -0.239473 -2.04399e-19)
(0.741434 -0.367622 -1.81271e-19)
(1.00452 -0.476978 -1.42319e-19)
(1.25162 -0.57102 1.81342e-19)
(1.48351 -0.652121 -5.70981e-20)
(1.70092 -0.721892 -4.31286e-21)
(1.90452 -0.7816 3.0042e-21)
(2.09453 -0.833332 -1.6032e-19)
(2.27023 -0.880309 -1.0607e-19)
(0.18466 -0.0833578 -1.14053e-19)
(0.5159 -0.22181 8.76343e-20)
(0.8233 -0.339434 1.79859e-19)
(1.10932 -0.439065 2.4333e-19)
(1.37562 -0.524071 -2.85065e-19)
(1.62371 -0.596774 -3.58086e-21)
(1.85494 -0.658759 4.2506e-19)
(2.07042 -0.711248 -1.85046e-19)
(2.27082 -0.756142 -1.23997e-19)
(2.45577 -0.796366 -5.3659e-20)
(0.203193 -0.0735012 1.73603e-19)
(0.564478 -0.195202 1.02991e-18)
(0.8968 -0.298077 1.43261e-19)
(1.20352 -0.384737 -5.03181e-19)
(1.4872 -0.458227 -1.75525e-19)
(1.75004 -0.520667 6.37763e-19)
(1.99391 -0.57352 -1.45418e-19)
(2.22036 -0.617891 -4.31678e-19)
(2.43047 -0.655431 -3.1656e-19)
(2.6242 -0.688722 2.61598e-19)
(0.218902 -0.0605922 1.16345e-19)
(0.605753 -0.160703 -7.47632e-19)
(0.959325 -0.245033 -1.08567e-18)
(1.28372 -0.3158 3.83817e-19)
(1.58224 -0.375565 4.49992e-19)
(1.85769 -0.426127 -9.022e-22)
(2.1124 -0.468737 -6.39769e-19)
(2.3483 -0.504319 2.19325e-19)
(2.56684 -0.534204 -3.64298e-19)
(2.76828 -0.560556 -3.11112e-19)
(0.231239 -0.0451729 -3.42503e-19)
(0.638209 -0.119686 -6.92633e-19)
(1.0085 -0.182296 1.21228e-18)
(1.34679 -0.234701 5.9873e-19)
(1.65695 -0.278853 -2.69782e-19)
(1.94226 -0.316135 -2.1151e-19)
(2.20545 -0.347513 0)
(2.44876 -0.373685 1.16826e-19)
(2.674 -0.395616 -2.95852e-19)
(2.88173 -0.41496 -7.74932e-20)
(0.23977 -0.0278758 -2.04475e-19)
(0.660662 -0.0737566 5.62424e-19)
(1.0425 -0.112199 1.7103e-19)
(1.39033 -0.14429 -5.12528e-19)
(1.70843 -0.171276 -7.84236e-19)
(2.00039 -0.194052 3.66235e-20)
(2.26926 -0.213243 1.67121e-19)
(2.51755 -0.22929 -5.4687e-19)
(2.74734 -0.242779 -2.89755e-19)
(2.95956 -0.254771 -5.63583e-19)
(0.244264 -0.00940254 4.51431e-19)
(0.672464 -0.0247041 3.44175e-19)
(1.06032 -0.0373614 -9.38616e-20)
(1.41305 -0.0477877 -1.29886e-20)
(1.73516 -0.0564608 -3.87524e-19)
(2.03044 -0.063721 -8.57362e-20)
(2.30208 -0.0698073 -2.90587e-19)
(2.55278 -0.0748869 6.46587e-19)
(2.78483 -0.0791671 1.71006e-19)
(2.99948 -0.0830073 2.23682e-21)
(-0.00235713 -0.0218744 -2.81004e-20)
(0.00877287 -0.0693091 -7.45244e-20)
(0.0250841 -0.119922 -7.2112e-21)
(0.0494356 -0.170201 -3.47069e-20)
(0.0777672 -0.215475 -1.26602e-20)
(0.106675 -0.253699 -3.89205e-19)
(0.13578 -0.287711 -1.89749e-20)
(0.166594 -0.321002 1.19856e-19)
(0.199409 -0.35443 1.10942e-20)
(0.233289 -0.386711 -3.64535e-20)
(0.000826024 -0.0248057 -9.78446e-20)
(0.0150085 -0.0851696 -2.06787e-19)
(0.0393216 -0.159714 -5.92476e-20)
(0.069254 -0.224327 -1.10808e-19)
(0.0996026 -0.274653 -9.91067e-20)
(0.13071 -0.317162 -2.82119e-19)
(0.164785 -0.358118 2.01801e-19)
(0.202435 -0.399396 1.6662e-19)
(0.241927 -0.439192 -2.53939e-19)
(0.281463 -0.475502 8.03835e-20)
(0.0054803 -0.0315998 -8.54749e-20)
(0.0287936 -0.107468 -8.51685e-19)
(0.062764 -0.195648 -1.25703e-19)
(0.0974282 -0.268351 9.55934e-20)
(0.131941 -0.326618 6.81304e-20)
(0.169874 -0.379638 -4.58708e-19)
(0.213167 -0.431518 3.63194e-20)
(0.259346 -0.480863 3.65953e-19)
(0.305729 -0.525247 -3.84287e-19)
(0.351729 -0.56459 -2.5745e-19)
(0.0113652 -0.0410779 -1.91551e-21)
(0.0466213 -0.130896 1.87457e-19)
(0.0895739 -0.225079 1.77464e-21)
(0.133061 -0.306679 -1.15854e-20)
(0.177865 -0.377473 -3.00289e-20)
(0.227357 -0.443345 9.11634e-20)
(0.281197 -0.504957 7.52726e-20)
(0.33579 -0.560121 -1.36505e-19)
(0.389906 -0.608538 9.2333e-21)
(0.444117 -0.651048 -1.04355e-20)
(0.0185099 -0.0508276 0)
(0.0672305 -0.152438 5.37883e-21)
(0.121899 -0.253516 -5.03285e-19)
(0.178677 -0.345281 5.05756e-20)
(0.237829 -0.428314 -1.38377e-20)
(0.300546 -0.504717 9.86877e-21)
(0.365341 -0.573885 -2.65082e-20)
(0.429863 -0.63485 -7.88099e-21)
(0.494033 -0.688179 0)
(0.558246 -0.734121 -2.05938e-20)
(0.0273297 -0.0596813 3.1517e-20)
(0.0918916 -0.172869 -1.52362e-19)
(0.161745 -0.282475 -4.46066e-20)
(0.234611 -0.383788 -5.86913e-20)
(0.309726 -0.47659 4.98563e-20)
(0.386726 -0.561288 2.81534e-21)
(0.46423 -0.637362 9.45117e-20)
(0.540933 -0.704516 -2.17578e-20)
(0.616911 -0.762935 -6.98112e-19)
(0.692163 -0.812068 -1.01198e-20)
(0.0379799 -0.0676221 7.28576e-22)
(0.121237 -0.192191 5.69954e-20)
(0.209152 -0.310601 -7.90961e-20)
(0.299909 -0.420124 -1.67825e-20)
(0.392114 -0.520571 -7.28217e-20)
(0.484747 -0.611969 -1.11048e-20)
(0.576662 -0.694095 8.18554e-21)
(0.666895 -0.766837 -2.13799e-19)
(0.755473 -0.829882 3.84625e-19)
(0.842257 -0.88187 9.72912e-19)
(0.050366 -0.074611 1.52661e-20)
(0.155132 -0.20962 -1.42631e-19)
(0.263456 -0.33596 -2.1439e-19)
(0.373655 -0.452083 8.92276e-20)
(0.484078 -0.558205 -6.43144e-20)
(0.593508 -0.654513 1.00179e-19)
(0.700894 -0.74112 1.98769e-19)
(0.805345 -0.818081 -1.10427e-19)
(0.906944 -0.88483 -3.06591e-19)
(1.0056 -0.939184 7.26316e-19)
(0.0642937 -0.0803656 -2.63718e-20)
(0.193288 -0.224033 -5.78291e-19)
(0.324293 -0.356559 5.24632e-19)
(0.455671 -0.477214 3.37789e-19)
(0.585716 -0.586707 -8.60872e-20)
(0.71319 -0.685591 3.09527e-19)
(0.837081 -0.774327 -1.60068e-19)
(0.956501 -0.853305 -7.75295e-19)
(1.07165 -0.921831 -4.0423e-19)
(1.18258 -0.977023 4.54335e-19)
(0.0795481 -0.0846697 -7.98574e-20)
(0.235848 -0.234422 -5.4434e-19)
(0.392391 -0.370524 -8.13757e-21)
(0.547534 -0.492785 6.87072e-20)
(0.699578 -0.602438 3.37966e-19)
(0.847365 -0.700387 -1.85621e-19)
(0.989973 -0.787367 -1.69924e-19)
(1.12648 -0.863719 1.89453e-19)
(1.25674 -0.928501 -3.52068e-19)
(1.37998 -0.980165 -5.85212e-19)
(0.403203 -0.530497 1.00977e-18)
(0.684967 -0.616251 -2.99339e-19)
(0.913196 -0.554766 -1.57726e-19)
(1.0853 -0.427912 2.93253e-19)
(1.23455 -0.277257 -2.42885e-19)
(1.3505 -0.135927 -2.92556e-19)
(1.43746 -0.0364153 -2.45819e-19)
(1.48876 0.00012219 -3.27719e-20)
(1.51295 0.00321521 1.4007e-19)
(1.53406 0.00182712 3.5331e-20)
(0.469343 -0.618377 9.83273e-19)
(0.742009 -0.691604 8.21843e-20)
(0.96644 -0.614505 1.07968e-20)
(1.12364 -0.476413 -2.42003e-19)
(1.26116 -0.316193 -8.07208e-19)
(1.36885 -0.165868 0)
(1.4522 -0.0563039 -2.25967e-19)
(1.50297 -0.0121137 5.94882e-20)
(1.5297 -0.00470461 4.7438e-21)
(1.55785 -0.00252664 -6.6368e-20)
(0.556707 -0.704119 -1.00013e-18)
(0.811502 -0.764592 -7.32274e-20)
(1.02616 -0.672258 1.62017e-19)
(1.16608 -0.522867 -5.26069e-20)
(1.28837 -0.353812 -3.46571e-20)
(1.38604 -0.194826 6.52611e-20)
(1.4614 -0.0755022 0)
(1.50551 -0.0231692 0)
(1.53086 -0.012076 -6.87075e-20)
(1.55742 -0.00647375 0)
(0.666081 -0.785997 -2.24205e-19)
(0.896313 -0.833259 3.99156e-19)
(1.09278 -0.726976 2.69159e-20)
(1.21311 -0.566408 0)
(1.31669 -0.389465 6.64585e-19)
(1.40269 -0.2221 -1.66624e-19)
(1.4682 -0.0930977 0)
(1.50616 -0.0335571 1.57523e-19)
(1.53095 -0.0191398 0)
(1.55581 -0.0100477 2.21334e-20)
(0.79595 -0.862833 -1.49325e-19)
(0.998205 -0.895594 4.46741e-19)
(1.16699 -0.777469 -1.48272e-20)
(1.26483 -0.606251 0)
(1.34642 -0.422544 1.86721e-19)
(1.41864 -0.247424 3.06482e-19)
(1.47395 -0.10932 4.93872e-20)
(1.50684 -0.0436248 7.47254e-21)
(1.53141 -0.02587 -3.54031e-20)
(1.55505 -0.013405 3.05298e-20)
(0.942303 -0.933855 -1.31969e-18)
(1.11688 -0.950209 -9.29082e-19)
(1.24951 -0.822413 4.84973e-21)
(1.32109 -0.641626 5.5453e-19)
(1.37775 -0.452376 -2.97418e-19)
(1.43355 -0.270647 1.55061e-19)
(1.479 -0.124447 2.59411e-19)
(1.50788 -0.0534632 -2.00815e-19)
(1.53232 -0.0323512 -1.88793e-21)
(1.55517 -0.0165599 4.09857e-21)
(1.10004 -0.998675 -2.57327e-19)
(1.25024 -0.996892 2.82989e-19)
(1.34066 -0.860639 4.0738e-21)
(1.38171 -0.671753 -1.68355e-20)
(1.4108 -0.478194 -5.58449e-19)
(1.44711 -0.291509 5.28746e-20)
(1.48316 -0.13862 -9.6673e-20)
(1.50932 -0.0631756 -3.16472e-20)
(1.53371 -0.0386352 1.0654e-20)
(1.55616 -0.0196253 -2.12713e-20)
(1.26419 -1.05618 -1.20279e-18)
(1.39483 -1.03624 2.07532e-19)
(1.43947 -0.891529 0)
(1.44588 -0.696105 3.22835e-20)
(1.44503 -0.499372 4.85897e-19)
(1.45881 -0.30974 -7.63037e-22)
(1.48577 -0.152005 -2.85625e-19)
(1.51097 -0.0729027 4.94977e-20)
(1.53551 -0.0447946 -1.95031e-23)
(1.55801 -0.0226762 1.17774e-20)
(1.43183 -1.10296 3.39123e-18)
(1.54803 -1.06917 2.48947e-19)
(1.54579 -0.915783 4.58047e-19)
(1.5139 -0.715027 -3.06476e-20)
(1.48071 -0.515905 -3.31051e-20)
(1.46861 -0.325358 -3.89532e-19)
(1.48613 -0.165045 7.19357e-20)
(1.51209 -0.0825907 3.56723e-21)
(1.53727 -0.0507833 -2.94032e-20)
(1.55861 -0.0257901 -6.10538e-20)
(1.59906 -1.12776 -2.99943e-18)
(1.70176 -1.09455 1.27582e-18)
(1.65402 -0.93605 -2.25085e-19)
(1.58193 -0.731981 -7.64669e-19)
(1.51518 -0.531247 -6.32827e-19)
(1.47476 -0.341653 -2.43237e-19)
(1.4817 -0.1799 -4.89192e-20)
(1.51027 -0.0936074 0)
(1.53087 -0.0558452 1.36071e-20)
(1.53147 -0.0275426 6.87779e-21)
(1.888 -1.16981 -6.72346e-18)
(1.92724 -1.10416 -1.6986e-18)
(1.80484 -0.930345 -5.4714e-20)
(1.67346 -0.723797 1.12735e-19)
(1.56081 -0.527095 1.71668e-19)
(1.48413 -0.348158 -1.14761e-19)
(1.47613 -0.191629 -2.58618e-20)
(1.48344 -0.0989946 3.12702e-20)
(1.46855 -0.0536908 -3.26328e-20)
(1.45164 -0.027248 -1.50324e-20)
(2.28913 -1.13439 4.94786e-19)
(2.17873 -1.05574 -2.61223e-19)
(1.94308 -0.863688 5.60752e-19)
(1.73734 -0.661742 -1.04886e-19)
(1.56648 -0.475952 1.33962e-19)
(1.44507 -0.316497 -1.69047e-21)
(1.39482 -0.181863 7.49488e-20)
(1.36625 -0.0930322 -2.53731e-20)
(1.34896 -0.0458716 1.41176e-19)
(1.33494 -0.0233725 7.1988e-20)
(2.61054 -1.04321 2.27059e-18)
(2.35242 -0.948157 3.26478e-19)
(2.00973 -0.758388 -1.19137e-19)
(1.73613 -0.57072 1.09698e-36)
(1.51261 -0.406518 -2.60321e-20)
(1.3516 -0.273637 1.44667e-33)
(1.26961 -0.162612 -1.29742e-20)
(1.238 -0.0825284 -1.63065e-33)
(1.21922 -0.0397073 7.74884e-21)
(1.20379 -0.0205634 -2.41166e-20)
(2.78729 -0.893724 3.89661e-33)
(2.37033 -0.795176 2.96313e-18)
(1.97536 -0.629651 1.82268e-18)
(1.65667 -0.4677 0)
(1.41239 -0.33185 8.63512e-19)
(1.23852 -0.224686 4.44803e-19)
(1.13996 -0.137818 1.34109e-19)
(1.09724 -0.0716815 -2.61701e-33)
(1.07673 -0.0334848 -5.83274e-20)
(1.06152 -0.0173193 1.9767e-20)
(2.76396 -0.705727 3.84478e-18)
(2.24654 -0.629587 -1.47e-19)
(1.84774 -0.490503 0)
(1.51756 -0.36072 0)
(1.27524 -0.253776 0)
(1.10321 -0.172317 0)
(0.998433 -0.108309 -1.17352e-20)
(0.948721 -0.0583191 -3.84543e-33)
(0.926462 -0.0270845 7.72414e-21)
(0.911169 -0.0140359 2.12459e-33)
(2.55135 -0.516959 3.26799e-18)
(2.0204 -0.462798 0)
(1.63921 -0.353421 0)
(1.32789 -0.256279 0)
(1.10342 -0.17856 0)
(0.94565 -0.121627 0)
(0.845391 -0.0784024 3.23351e-20)
(0.793068 -0.0438346 -5.08379e-20)
(0.769558 -0.0204421 8.20997e-21)
(0.754437 -0.0106748 4.70296e-20)
(2.1902 -0.34269 0)
(1.70279 -0.303479 1.10107e-18)
(1.36161 -0.227531 1.09506e-18)
(1.09189 -0.161806 0)
(0.899846 -0.111695 6.79706e-19)
(0.766563 -0.0763999 4.16583e-19)
(0.67941 -0.0504702 2.40233e-19)
(0.630208 -0.0293384 5.86024e-20)
(0.607139 -0.0138197 1.33634e-20)
(0.592756 -0.00737209 -2.68319e-21)
(1.70289 -0.191131 -6.73783e-19)
(1.30026 -0.165586 -2.74002e-19)
(1.02521 -0.121731 1.7544e-19)
(0.815356 -0.0843787 -2.12992e-34)
(0.668492 -0.0577602 -7.71139e-20)
(0.567823 -0.0398703 3.7447e-33)
(0.500562 -0.0271159 4.98567e-20)
(0.459934 -0.0164544 9.47275e-20)
(0.439758 -0.00781338 9.12638e-21)
(0.427175 -0.00433809 -1.0204e-20)
(1.10089 -0.0758196 3.40762e-18)
(0.823184 -0.0626769 -1.86181e-19)
(0.640647 -0.0442865 -5.88301e-19)
(0.50625 -0.0289795 0)
(0.414185 -0.0194496 -6.39746e-19)
(0.351597 -0.0136907 -4.2936e-19)
(0.308889 -0.00979043 -1.8901e-19)
(0.281591 -0.00638653 -1.19849e-19)
(0.267256 -0.00312547 1.14757e-19)
(0.258221 -0.00187098 -5.13356e-21)
(0.397352 -0.00331882 0)
(0.287868 0.00159252 0)
(0.220904 0.00409117 0)
(0.17357 0.00622774 0)
(0.142484 0.00581088 0)
(0.121556 0.00463348 0)
(0.106799 0.00339671 5.73895e-20)
(0.0966742 0.00216352 -2.072e-34)
(0.0908939 0.00142869 1.14286e-20)
(0.0870161 0.000500818 1.42828e-20)
(3.36713 -0.0863063 5.39186e-19)
(3.32644 -0.265076 -8.41852e-20)
(3.24737 -0.430641 8.52049e-19)
(3.13239 -0.582135 -6.04927e-19)
(2.98634 -0.718091 6.66263e-19)
(2.81522 -0.836332 2.74961e-19)
(2.62657 -0.933987 -1.92852e-18)
(2.42946 -1.00774 -7.70879e-20)
(2.2246 -1.05353 0)
(1.98476 -1.06636 4.26919e-19)
(3.86193 -0.0750519 7.0734e-18)
(3.7986 -0.234196 1.95632e-18)
(3.70428 -0.387285 -4.86676e-18)
(3.58425 -0.531957 -4.4892e-19)
(3.44237 -0.665846 3.55803e-18)
(3.28183 -0.787251 1.92277e-18)
(3.10645 -0.89497 -5.16659e-18)
(2.92197 -0.987565 -1.95127e-18)
(2.72749 -1.0632 2.20226e-18)
(2.49225 -1.12026 8.52036e-19)
(3.83312 -0.0532918 -1.26232e-19)
(3.82029 -0.17155 4.40398e-18)
(3.78552 -0.299741 -1.08855e-18)
(3.7244 -0.430894 -3.44621e-18)
(3.63624 -0.558696 -6.80115e-18)
(3.52377 -0.678752 1.02782e-17)
(3.39121 -0.788717 4.1803e-18)
(3.24352 -0.887875 -3.91088e-18)
(3.0816 -0.978559 -2.90202e-18)
(2.8872 -1.06278 -3.42388e-18)
(3.62869 -0.0472748 -4.83941e-18)
(3.61964 -0.144919 -4.35355e-18)
(3.59967 -0.243725 5.47248e-18)
(3.5674 -0.343073 1.91208e-18)
(3.52247 -0.442347 -8.97279e-18)
(3.46425 -0.540764 4.92363e-19)
(3.39195 -0.636988 3.88716e-18)
(3.30526 -0.730354 -1.05433e-18)
(3.20515 -0.822966 1.27714e-18)
(3.08323 -0.914648 2.81686e-19)
(3.34407 -0.0365687 -9.15982e-19)
(3.33902 -0.111648 3.00409e-18)
(3.32712 -0.18867 1.61952e-18)
(3.30747 -0.267166 -1.89388e-18)
(3.2799 -0.346062 -2.00145e-18)
(3.2447 -0.424123 -2.43485e-18)
(3.20211 -0.500309 3.79844e-19)
(3.15186 -0.574451 1.38722e-19)
(3.09562 -0.647694 -2.14035e-18)
(3.03305 -0.721217 -2.03518e-18)
(2.96258 -0.0265462 -1.82248e-18)
(2.95982 -0.0798825 -5.87249e-20)
(2.95332 -0.134594 -1.63751e-18)
(2.94242 -0.1909 3.12156e-19)
(2.92677 -0.248548 5.36779e-18)
(2.90632 -0.306927 -3.66831e-19)
(2.88095 -0.36511 4.43534e-20)
(2.85028 -0.42205 -2.6087e-18)
(2.81651 -0.476864 -3.49611e-18)
(2.7861 -0.529831 3.72404e-19)
(2.48713 -0.0175045 -2.89311e-20)
(2.48578 -0.0519302 -8.14315e-19)
(2.4826 -0.0872452 -2.61484e-18)
(2.47708 -0.123769 -3.431e-18)
(2.46881 -0.161532 2.49651e-18)
(2.45746 -0.200266 1.50221e-18)
(2.44263 -0.239351 -1.385e-18)
(2.42372 -0.277788 1.62442e-18)
(2.40278 -0.314477 -4.29815e-19)
(2.38958 -0.349531 -9.63827e-19)
(1.91464 -0.00968454 7.72455e-19)
(1.91408 -0.028295 -8.31785e-19)
(1.91278 -0.0474381 -3.27651e-20)
(1.91032 -0.0673583 -3.47315e-20)
(1.90624 -0.0881298 -7.27469e-20)
(1.90013 -0.109614 -2.3319e-18)
(1.89151 -0.131404 -6.78657e-19)
(1.87979 -0.152781 2.62598e-18)
(1.86665 -0.172972 -6.03441e-19)
(1.86193 -0.192203 -1.35099e-18)
(1.23988 -0.00373598 -1.6428e-18)
(1.23967 -0.0106946 -8.48898e-19)
(1.23923 -0.0179007 2.33919e-18)
(1.23823 -0.0254785 -8.89763e-19)
(1.23625 -0.0334755 -6.74118e-19)
(1.2329 -0.0418319 1.35201e-18)
(1.22775 -0.0503502 -1.29586e-18)
(1.22038 -0.0586655 1.28694e-18)
(1.21202 -0.066342 -1.21025e-18)
(1.21008 -0.073507 -4.24791e-18)
(0.454915 -0.000257829 6.63079e-19)
(0.454826 -0.000700444 7.03051e-19)
(0.454691 -0.00115908 7.48179e-19)
(0.454324 -0.00164007 1.35396e-18)
(0.453495 -0.00214023 -6.7198e-19)
(0.451983 -0.00263727 -1.29959e-18)
(0.449566 -0.0030992 6.147e-19)
(0.445991 -0.00359301 2.48361e-20)
(0.441735 -0.00439228 -4.96516e-20)
(0.440349 -0.00504564 1.1057e-19)
(1.6534 0.996928 -2.85389e-19)
(1.51214 0.94159 1.8015e-20)
(1.3587 0.880546 -2.2754e-19)
(1.19761 0.808297 1.76543e-19)
(1.02953 0.723886 -1.92813e-19)
(0.854803 0.627022 -1.01235e-19)
(0.673753 0.516916 2.32079e-19)
(0.487038 0.39214 -3.05171e-19)
(0.295898 0.250646 3.09886e-19)
(0.101435 0.0916481 2.3888e-19)
(1.88626 0.991949 0)
(1.72958 0.934557 6.38252e-19)
(1.56076 0.872637 3.31051e-19)
(1.38223 0.801764 1.63451e-19)
(1.1945 0.719824 4.3223e-19)
(0.997522 0.62587 -8.6918e-20)
(0.791361 0.518593 -7.86117e-20)
(0.576355 0.395992 8.89514e-20)
(0.353328 0.255182 -1.04535e-18)
(0.122704 0.09436 -1.65496e-20)
(2.09094 0.958875 1.56813e-19)
(1.92516 0.904949 0)
(1.74609 0.846379 -1.00774e-19)
(1.5549 0.779496 -3.83938e-19)
(1.35168 0.702053 5.37295e-20)
(1.13609 0.612778 3.9742e-19)
(0.90779 0.510089 -6.07104e-19)
(0.666601 0.391645 -2.00866e-19)
(0.412607 0.254052 7.83664e-19)
(0.145257 0.0947394 -1.76029e-19)
(2.28478 0.898249 1.88471e-19)
(2.1104 0.850486 1.21388e-20)
(1.92127 0.797811 2.4422e-20)
(1.7181 0.736971 3.61649e-20)
(1.50057 0.665841 -2.91428e-20)
(1.26793 0.583129 2.73383e-19)
(1.01928 0.487173 -2.06917e-19)
(0.753688 0.375538 -8.55735e-19)
(0.470283 0.244685 0)
(0.167394 0.0917001 0)
(2.46793 0.811754 -1.07015e-18)
(2.28433 0.770792 -6.08371e-19)
(2.08492 0.725033 -1.20561e-19)
(1.87003 0.671507 -6.65836e-20)
(1.63891 0.60829 0)
(1.39032 0.534139 2.40798e-19)
(1.12277 0.44744 2.6783e-19)
(0.834571 0.345843 2.86299e-19)
(0.523853 0.225959 -4.2383e-19)
(0.187914 0.0849009 -8.12507e-20)
(2.63399 0.702055 7.65742e-19)
(2.44156 0.668039 -1.39189e-19)
(2.23244 0.629665 -2.21439e-19)
(2.00666 0.5843 0)
(1.76302 0.530279 0)
(1.49989 0.466492 0)
(1.21524 0.39147 -3.89896e-20)
(0.906702 0.303096 3.70291e-19)
(0.571512 0.198353 3.79137e-19)
(0.206089 0.0746264 -3.08597e-19)
(2.7758 0.572335 -1.19308e-18)
(2.57552 0.545248 -1.48093e-18)
(2.35788 0.514524 -3.02909e-22)
(2.12262 0.477946 -1.87706e-19)
(1.8682 0.434184 -9.28886e-20)
(1.5926 0.382323 -1.78881e-19)
(1.29335 0.32113 4.59142e-19)
(0.967508 0.248842 2.14863e-19)
(0.611597 0.162971 5.40077e-19)
(0.22132 0.0613419 2.02873e-19)
(2.88709 0.425739 -1.15691e-18)
(2.68029 0.405629 8.47108e-20)
(2.45578 0.38282 1.64519e-19)
(2.21299 0.355613 1.68299e-20)
(1.95006 0.323055 -3.14441e-19)
(1.66468 0.284473 -1.74246e-19)
(1.354 0.238942 -6.21257e-19)
(1.01465 0.185144 1.18532e-19)
(0.642618 0.12124 5.1485e-20)
(0.233071 0.0456138 -6.26807e-21)
(2.96282 0.265185 1.01323e-19)
(2.75123 0.252354 3.97025e-19)
(2.52192 0.237906 -3.303e-19)
(2.27397 0.220743 3.63055e-19)
(2.00526 0.200301 3.72569e-19)
(1.71325 0.17618 4.91926e-19)
(1.39483 0.147813 -6.35775e-19)
(1.04635 0.114392 -3.24432e-19)
(0.663424 0.0748116 -4.58499e-20)
(0.240921 0.0280958 -3.27016e-19)
(3.00055 0.0935796 5.81798e-19)
(2.78615 0.0887887 -1.86133e-19)
(2.55428 0.0834473 4.79582e-19)
(2.30369 0.0771535 -3.10709e-19)
(2.03211 0.069731 2.66482e-19)
(1.73681 0.0610646 6.05451e-19)
(1.41459 0.0509806 3.78904e-19)
(1.06163 0.0392362 3.09367e-19)
(0.673408 0.0255074 2.65874e-19)
(0.244659 0.00950747 5.43641e-19)
(0.238916 0.450207 -4.66203e-19)
(0.203399 0.416566 -1.83356e-19)
(0.167957 0.379644 1.37939e-19)
(0.13457 0.342181 -4.20548e-19)
(0.104929 0.306193 -1.20348e-19)
(0.0780194 0.268936 6.91182e-19)
(0.0516043 0.222503 3.36175e-19)
(0.0257449 0.157896 -1.60782e-19)
(0.00700724 0.0793274 1.11293e-19)
(-0.00115917 0.0223584 -6.037e-20)
(0.288422 0.542324 4.08807e-19)
(0.248524 0.505592 4.54472e-19)
(0.20799 0.463633 -1.29775e-20)
(0.167731 0.416803 -1.30954e-19)
(0.131103 0.368931 -3.0799e-19)
(0.100592 0.321528 8.25878e-20)
(0.0733998 0.268302 2.21997e-19)
(0.045748 0.196003 1.62683e-19)
(0.0182266 0.10131 -5.85185e-19)
(0.00273332 0.0286924 -1.22891e-19)
(0.3598 0.631161 -5.98118e-19)
(0.313903 0.591105 -4.79166e-19)
(0.268051 0.545357 2.54874e-19)
(0.221368 0.492177 1.36184e-19)
(0.175832 0.432644 -4.71349e-21)
(0.136305 0.370699 -1.38269e-19)
(0.102129 0.304677 -2.7499e-20)
(0.0683939 0.224172 -5.56271e-19)
(0.0335745 0.125504 -2.69481e-19)
(0.00758011 0.0375903 -3.91372e-20)
(0.45448 0.716034 5.01294e-19)
(0.400286 0.671965 1.6461e-19)
(0.34654 0.621088 -1.48319e-19)
(0.292337 0.562195 6.42379e-20)
(0.237802 0.494291 -3.97762e-22)
(0.18661 0.419851 1.84986e-21)
(0.140109 0.33988 -1.29943e-19)
(0.0954397 0.249696 3.8116e-19)
(0.051375 0.147357 -4.20085e-19)
(0.0135303 0.0475477 -6.57859e-20)
(0.572197 0.796232 -2.81947e-19)
(0.508023 0.748275 -8.9029e-20)
(0.44371 0.69159 -1.41742e-20)
(0.379058 0.626048 -6.7721e-20)
(0.313763 0.550981 5.72261e-20)
(0.24967 0.467283 5.0483e-20)
(0.188368 0.376133 -2.70551e-20)
(0.129298 0.27625 -2.83348e-19)
(0.072483 0.167385 2.1892e-19)
(0.0208778 0.0567372 8.75485e-20)
(0.709475 0.8696 6.44365e-19)
(0.634414 0.818353 3.22781e-19)
(0.558165 0.756352 2.06771e-19)
(0.480874 0.684465 4.80734e-20)
(0.402413 0.602805 1.52046e-19)
(0.323855 0.511807 7.60546e-20)
(0.246442 0.412117 1.41067e-19)
(0.170836 0.303645 5.77652e-20)
(0.0980209 0.186642 -1.67662e-20)
(0.02997 0.0649749 -1.38496e-20)
(0.861963 0.9338 -1.19598e-19)
(0.775488 0.879732 -8.30569e-19)
(0.686655 0.81326 -8.14539e-20)
(0.595681 0.736174 -4.52802e-20)
(0.502523 0.649121 -1.73006e-20)
(0.408089 0.552338 1.49863e-19)
(0.313447 0.446053 -4.39267e-20)
(0.219684 0.330251 6.543e-20)
(0.128271 0.204993 -1.44622e-19)
(0.0408893 0.0724683 -1.11553e-21)
(1.02659 0.985213 -8.86899e-19)
(0.928354 0.928933 5.93891e-20)
(0.82656 0.859132 -2.30608e-19)
(0.721385 0.778438 -7.41602e-20)
(0.612708 0.687672 -2.63824e-20)
(0.501412 0.58683 -7.49869e-20)
(0.388495 0.475738 5.65409e-20)
(0.275142 0.354105 6.04344e-20)
(0.16297 0.221516 -9.82652e-21)
(0.0535383 0.0791118 -1.0401e-19)
(1.20373 1.01732 1.23883e-19)
(1.09336 0.960433 5.25185e-19)
(0.978143 0.889318 1.57346e-21)
(0.858137 0.807251 -3.10561e-20)
(0.733083 0.715082 1.52035e-19)
(0.603849 0.612402 -3.4865e-19)
(0.471377 0.498661 -2.44894e-19)
(0.336817 0.373162 3.56418e-19)
(0.201767 0.23499 1.44325e-19)
(0.0677017 0.0845317 -3.63953e-20)
(1.40042 1.01502 7.41631e-19)
(1.27792 0.961984 3.24704e-19)
(1.14773 0.895089 5.55644e-20)
(1.0108 0.816202 -1.96484e-19)
(0.867219 0.726383 -1.6604e-20)
(0.717869 0.625249 4.66337e-19)
(0.563568 0.511954 -2.6855e-19)
(0.405336 0.385454 -1.84607e-19)
(0.244707 0.244316 3.35955e-19)
(0.0831168 0.0884436 -6.13704e-21)
(0.970685 0.0950675 9.34407e-21)
(1.1537 0.143129 1.07322e-21)
(1.20598 0.189703 -2.54217e-20)
(1.30866 0.1702 0)
(1.34786 0.159181 6.92476e-21)
(1.26509 0.23862 -3.23106e-20)
(1.12021 0.386937 -6.7266e-20)
(0.94445 0.542498 -4.39362e-20)
(0.709147 0.646332 -2.69528e-19)
(0.415478 0.59347 4.79564e-19)
(0.973145 0.0749027 1.8627e-19)
(1.14693 0.117034 -3.36861e-20)
(1.20047 0.161455 2.02243e-21)
(1.30225 0.155846 1.20442e-20)
(1.34841 0.161486 2.88403e-21)
(1.28483 0.270553 -1.02604e-21)
(1.15109 0.435589 8.11207e-20)
(0.99032 0.604558 0)
(0.760066 0.724833 7.18218e-19)
(0.479057 0.684419 -5.32552e-19)
(0.974625 0.0552052 -1.1498e-19)
(1.14343 0.0918612 8.55665e-21)
(1.19854 0.133839 7.65739e-20)
(1.30151 0.140277 2.06161e-20)
(1.3521 0.162373 -1.53562e-20)
(1.30557 0.299814 -3.56635e-20)
(1.18575 0.482504 3.94209e-20)
(1.04187 0.66507 4.30651e-20)
(0.822682 0.800863 -1.02062e-21)
(0.564688 0.772068 -4.51707e-19)
(0.975428 0.0358824 -8.58267e-20)
(1.1429 0.0668994 1.62428e-20)
(1.20043 0.106715 6.99555e-20)
(1.30584 0.123761 2.42084e-20)
(1.35969 0.162681 -1.99248e-20)
(1.32712 0.326952 -1.53643e-20)
(1.22415 0.52721 1.10396e-20)
(1.09934 0.723035 2.61959e-20)
(0.900249 0.872223 -5.11611e-19)
(0.674141 0.854491 -1.80353e-19)
(0.97625 0.0168293 4.12337e-20)
(1.14527 0.0416085 -4.67925e-20)
(1.20593 0.0800253 -6.08289e-20)
(1.31419 0.106782 1.62776e-20)
(1.37005 0.163299 0)
(1.34917 0.352557 0)
(1.2661 0.569216 4.06181e-20)
(1.1637 0.777149 -2.77932e-20)
(0.995411 0.936472 -1.1507e-19)
(0.805506 0.930043 -5.75996e-20)
(0.977758 -0.00236027 3.72043e-21)
(1.15046 0.0156885 5.25969e-20)
(1.21456 0.0538008 -1.85681e-19)
(1.32545 0.0900346 -6.86342e-20)
(1.38178 0.164853 -5.94488e-21)
(1.37143 0.376872 7.95047e-20)
(1.31156 0.607814 1.24374e-19)
(1.23635 0.825738 -1.79291e-20)
(1.10862 0.9918 -3.63267e-20)
(0.953981 0.998019 -5.75315e-22)
(0.979992 -0.0222587 3.28054e-21)
(1.15806 -0.011025 2.18323e-20)
(1.22564 0.0281441 -5.89316e-20)
(1.33868 0.0741581 -1.29673e-19)
(1.39383 0.167564 1.37213e-20)
(1.39395 0.399705 7.97839e-21)
(1.36094 0.642013 -5.70208e-20)
(1.31843 0.867143 -1.29767e-19)
(1.23797 1.03785 -2.29551e-20)
(1.1139 1.0585 -9.84297e-19)
(0.98178 -0.0433329 1.58491e-20)
(1.16734 -0.0387091 -1.15203e-19)
(1.23835 0.00323943 1.16483e-19)
(1.35295 0.059955 9.00167e-20)
(1.40493 0.171986 5.62527e-21)
(1.41643 0.420809 -9.98179e-20)
(1.4141 0.670863 -9.31992e-21)
(1.4094 0.900362 -8.30042e-20)
(1.3798 1.07542 1.11656e-20)
(1.27972 1.11088 2.8856e-18)
(0.981164 -0.0653466 -8.57666e-20)
(1.17758 -0.0674876 6.67374e-20)
(1.25182 -0.0208364 1.71812e-19)
(1.3676 0.0476088 -9.95764e-20)
(1.4154 0.177941 -1.71882e-19)
(1.44024 0.440029 9.24262e-21)
(1.47239 0.694224 1.49673e-19)
(1.50939 0.92601 -5.1563e-19)
(1.53111 1.10574 -2.67641e-20)
(1.4481 1.15213 -6.46958e-18)
(0.977648 -0.0883876 4.21087e-21)
(1.1885 -0.0972791 1.2173e-19)
(1.2652 -0.0440771 5.36377e-20)
(1.38142 0.0390804 -2.38696e-19)
(1.42277 0.189371 -1.983e-19)
(1.46286 0.461039 -5.42451e-20)
(1.53167 0.715776 4.19756e-20)
(1.61231 0.947366 -2.65348e-19)
(1.68381 1.12845 -1.09432e-18)
(1.61532 1.17135 -7.95433e-18)
(0.971157 -0.119988 -1.44779e-20)
(1.2008 -0.137039 -2.81432e-20)
(1.27789 -0.0763248 -6.621e-20)
(1.39574 0.0234606 1.03277e-19)
(1.43283 0.186563 1.68004e-19)
(1.49461 0.457289 -4.81234e-20)
(1.61251 0.705795 -1.31789e-19)
(1.75433 0.936737 -1.23681e-18)
(1.90274 1.13063 -1.60537e-18)
(1.899 1.20775 3.289e-18)
(0.961318 -0.158826 -4.13124e-19)
(1.21521 -0.187132 4.58417e-21)
(1.28453 -0.122759 -4.881e-20)
(1.40111 0.00159595 2.73901e-19)
(1.42206 0.165208 3.15949e-19)
(1.49989 0.415561 -7.70541e-20)
(1.66998 0.642635 -8.47148e-20)
(1.88156 0.862663 -3.60811e-19)
(2.13956 1.06958 2.47171e-19)
(2.28417 1.15985 -3.22477e-19)
(0.94987 -0.198814 -2.76902e-20)
(1.23592 -0.237922 -5.31042e-20)
(1.28392 -0.166268 2.93241e-20)
(1.40112 -0.0218331 2.83422e-20)
(1.40671 0.151294 1.75129e-33)
(1.48175 0.362239 2.24741e-21)
(1.68536 0.557646 -2.11799e-33)
(1.95131 0.757233 1.87088e-19)
(2.30273 0.955135 -9.32744e-19)
(2.58728 1.05765 -6.29453e-19)
(0.937789 -0.244271 1.44004e-18)
(1.26331 -0.278755 -7.5681e-34)
(1.25933 -0.215772 -3.86904e-20)
(1.2902 -0.0315943 -2.20964e-19)
(1.28318 0.137391 -4.54763e-19)
(1.39847 0.295813 -9.13177e-19)
(1.62448 0.45692 -5.14474e-33)
(1.93219 0.629228 -1.73921e-18)
(2.32733 0.801129 -3.17258e-18)
(2.75421 0.902043 1.67649e-18)
(0.92741 -0.300482 0)
(1.30814 -0.323166 -1.76922e-33)
(1.12092 -0.202314 0)
(1.12156 -0.0269182 0)
(1.13306 0.111966 0)
(1.26428 0.228798 0)
(1.49351 0.353228 -8.26274e-33)
(1.81731 0.490209 0)
(2.21473 0.633577 -3.4029e-19)
(2.7356 0.711627 1.25864e-18)
(0.916252 -0.360482 1.1578e-19)
(1.25399 -0.326106 -4.62428e-19)
(0.964944 -0.170712 -5.5215e-20)
(0.944738 -0.0240856 0)
(0.965859 0.0813269 0)
(1.09408 0.163081 6.2053e-20)
(1.30905 0.252484 1.1996e-18)
(1.6174 0.353872 -1.95162e-19)
(1.99748 0.465823 -4.95342e-19)
(2.53283 0.520268 4.67131e-18)
(0.883372 -0.405251 -1.52003e-17)
(1.09256 -0.279092 1.07932e-18)
(0.795621 -0.128528 -7.28219e-20)
(0.754289 -0.0201769 -8.74879e-20)
(0.779536 0.0521367 -4.99547e-19)
(0.892471 0.103158 -7.70261e-19)
(1.07819 0.160364 -1.05784e-18)
(1.3469 0.228561 -1.39268e-18)
(1.68802 0.305941 -1.61275e-18)
(2.1801 0.34437 3.6188e-18)
(0.808924 -0.394492 -4.13557e-19)
(0.886872 -0.207366 -1.21665e-18)
(0.606929 -0.08198 -1.26071e-19)
(0.554212 -0.0148924 -8.32881e-20)
(0.576198 0.0276295 -9.26078e-34)
(0.663711 0.0538828 9.58831e-20)
(0.806701 0.0840646 -1.49621e-32)
(1.01669 0.122706 -1.93406e-19)
(1.29266 0.167233 2.98642e-19)
(1.69934 0.192048 7.05505e-19)
(0.664206 -0.288845 3.42588e-17)
(0.618327 -0.107971 -3.14009e-18)
(0.393919 -0.0348322 -2.41265e-19)
(0.341725 -0.00728416 -1.45701e-19)
(0.356189 0.00938055 3.86648e-19)
(0.411792 0.018148 7.79985e-19)
(0.501923 0.02898 7.92841e-19)
(0.636958 0.0447993 4.59653e-19)
(0.820814 0.0634322 -1.8971e-19)
(1.10155 0.0762206 3.56795e-18)
(0.33682 -0.0768283 5.58786e-19)
(0.26187 -0.00231093 -6.7672e-33)
(0.14455 0.0189872 -3.05453e-19)
(0.121041 0.0032139 0)
(0.124354 -0.00225084 0)
(0.142353 -0.00534929 9.78556e-20)
(0.172643 -0.00621134 9.15674e-35)
(0.220364 -0.00415437 -1.23589e-19)
(0.288134 -0.00161305 -2.82287e-19)
(0.398992 0.00331973 1.00114e-18)
(2.00186 1.09597 -1.78847e-18)
(2.23891 1.07813 -2.30461e-18)
(2.44196 1.02887 0)
(2.63699 0.952345 -7.59058e-19)
(2.82354 0.852405 -1.78534e-18)
(2.99274 0.732326 -2.24938e-18)
(3.13708 0.595005 -4.78208e-19)
(3.25056 0.442679 1.26933e-18)
(3.32826 0.276958 -3.54782e-18)
(3.36767 0.0986993 1.35667e-18)
(2.49843 1.14144 2.66967e-19)
(2.73036 1.08152 1.39631e-18)
(2.92372 1.00391 1.43808e-19)
(3.10662 0.909599 6.75359e-19)
(3.28052 0.800524 -1.1035e-18)
(3.43992 0.678236 -4.99846e-18)
(3.58094 0.543955 2.46682e-18)
(3.70047 0.399286 1.27009e-17)
(3.79429 0.246305 1.04036e-19)
(3.85872 0.0872519 -1.0736e-17)