# Selection   : all
# Cells       : 440
# Volume      : 7.374263e+01
# Time        	max(p)
6.715         	2.446720e+00
6.76          	2.449426e+00
6.81          	2.456082e+00
