/*--------------------------------*- C++ -*----------------------------------*\
  =========                 |
  \\      /  F ield         | OpenFOAM: The Open Source CFD Toolbox
   \\    /   O peration     | Website:  https://openfoam.org
    \\  /    A nd           | Version:  13
     \\/     M anipulation  |
\*---------------------------------------------------------------------------*/
FoamFile
{
    format      ascii;
    class       volScalarField;
    location    "0.875";
    object      p;
}
// * * * * * * * * * * * * * * * * * * * * * * * * * * * * * * * * * * * * * //

dimensions      [0 2 -2 0 0 0 0];

internalField   nonuniform List<scalar> 
440
(
7.82723
10.5836
12.9461
13.1276
10.1512
20.7171
24.1004
27.0959
27.7963
25.9081
41.2537
44.285
46.988
47.7806
46.6196
67.3865
69.4843
71.3977
72.0543
71.3668
96.6627
97.4797
98.2767
98.6767
98.6432
-0.451085
-0.551145
-0.0796437
0.481728
0.824896
-1.67342
-2.34085
-2.08236
-1.38757
-0.75003
-2.01729
-2.90046
-2.82535
-2.07316
-0.956781
-0.677329
-0.810573
-0.407386
0.554238
2.41763
3.08498
4.39624
5.82484
7.25514
9.50378
2.08694
2.26661
1.33506
0.680086
0.238629
1.06088
2.0809
1.21781
0.621335
0.233939
-0.0917866
1.67043
1.08919
0.575641
0.226446
-0.403539
1.06514
0.879615
0.543399
0.213813
1.50239
0.474173
0.595778
0.485639
0.18864
4.37213
0.245544
0.344171
0.412902
0.143639
6.71844
0.710033
0.446921
0.408009
0.0801516
9.98296
2.44765
1.09086
0.540745
0.0467211
13.8713
4.74615
2.1344
0.822983
0.0575344
16.6071
7.10733
3.45432
1.3122
0.163503
100.687
75.8386
53.3228
33.1477
12.3446
102.383
78.9412
57.5362
39.0562
23.4823
104.284
82.7008
62.4739
45.2338
32.8872
105.166
85.0197
66.5014
51.1822
40.6557
105.085
84.7423
66.3273
51.2497
40.8952
219.867
216.384
216.089
218.204
220.937
202.688
200.22
200.478
203.219
206.511
180.539
178.766
179.129
181.552
184.43
154.74
153.397
153.602
155.196
157.092
126.86
126.146
126.085
126.545
127.138
235.596
236.028
236.671
237.101
236.849
236.157
236.795
237.355
237.336
236.385
234.934
235.91
236.326
236.054
235.067
230.045
231.644
232.205
232.339
232.248
221.564
223.426
224.435
225.642
226.996
235.711
234.731
234.894
234.146
234.28
235.676
234.714
234.841
234.099
234.798
235.664
234.672
234.776
234.207
235.306
235.665
234.606
234.765
234.457
234.891
235.672
234.518
234.833
234.654
232.207
235.688
234.37
234.88
234.428
228.724
235.887
234.229
234.768
233.929
226.353
236.796
234
234.143
232.248
223.332
240.845
233.977
232.966
229.792
219.661
249.817
234.705
231.743
227.248
216.911
217.761
196.234
175.026
151.732
126.445
207.364
191.368
172.323
150.42
126.65
198.875
186.195
168.613
148.086
126.332
191.743
180.783
165.098
146.26
125.919
191.526
180.764
165.353
146.66
126.149
96.3945
95.5176
95.0699
94.303
94.1464
57.3123
55.3654
53.66
51.7382
50.9722
29.4813
27.138
24.3753
22.0761
20.7515
15.0292
12.6126
10.147
8.12675
7.15617
9.19945
7.31167
5.92486
4.94957
4.36236
5.96888
4.8669
4.28741
4.19898
4.28732
4.0597
3.60054
3.52892
3.68498
3.83876
2.74997
2.73706
2.97154
3.27556
3.43414
1.6498
1.95459
2.40693
2.75798
2.90284
0.605425
1.00163
1.57464
1.97731
2.15194
3.60849
3.17543
2.06201
0.951037
0.269515
3.662
3.00353
1.96982
0.895251
0.259086
3.46218
2.74078
1.84073
0.844448
0.251769
3.14165
2.49657
1.67766
0.7937
0.247384
2.72693
2.35082
1.49461
0.738751
0.243251
4.47588
3.15793
1.97499
0.996109
0.305734
3.73956
3.25341
2.06405
0.987786
0.283919
94.902
54.1423
27.5043
14.4804
9.46002
93.6808
51.1329
22.9807
9.46465
5.25424
232.145
232.226
232.175
231.658
230.58
232.732
232.905
233.134
233.172
232.796
233.295
233.468
233.855
234.253
234.423
233.898
234.049
234.454
235.058
235.478
234.647
234.883
235.389
236.006
236.267
141.979
141.787
140.959
140.449
139.537
185.214
184.405
182.427
180.66
178.683
215.514
214.144
211.795
208.98
206.606
229.152
228.144
226.094
223.595
221.15
232
231.386
230.414
229.03
227.131
238.821
234.446
234.526
233.515
232.897
237.117
234.488
234.615
233.682
232.915
236.348
234.578
234.719
233.906
233.245
235.974
234.661
234.822
234.11
233.627
235.793
234.714
234.89
234.197
233.946
252.264
235.786
234.882
233.451
231.981
243.169
234.692
234.464
233.395
232.701
226.937
221.863
208.755
182.037
141.229
231.134
226.891
213.308
185.061
142.452
)
;

boundaryField
{
    left
    {
        type            zeroGradient;
    }
    right
    {
        type            fixedValue;
        value           uniform 0;
    }
    down
    {
        type            zeroGradient;
    }
    up
    {
        type            zeroGradient;
    }
    cylinder
    {
        type            zeroGradient;
    }
    defaultFaces
    {
        type            empty;
    }
}


// ************************************************************************* //
