/*--------------------------------*- C++ -*----------------------------------*\
  =========                 |
  \\      /  F ield         | OpenFOAM: The Open Source CFD Toolbox
   \\    /   O peration     | Website:  https://openfoam.org
    \\  /    A nd           | Version:  13
     \\/     M anipulation  |
\*---------------------------------------------------------------------------*/
FoamFile
{
    format      ascii;
    class       surfaceScalarField;
    location    "0.875";
    object      phi;
}
// * * * * * * * * * * * * * * * * * * * * * * * * * * * * * * * * * * * * * //

dimensions      [0 3 -1 0 0 0 0];

internalField   nonuniform List<scalar> 
823
(
0.0113782
-0.0505539
0.0391757
0.0387596
-0.133435
0.106054
0.0788332
-0.205877
0.165804
0.130172
-0.26887
0.217532
-0.32326
0.259418
0.194014
0.0107033
-0.0612572
0.0361438
-0.158875
0.0726489
-0.242382
0.117973
-0.314194
-0.375601
0.170313
0.0083771
-0.0696343
0.0282852
-0.178784
0.0567257
-0.270823
0.0918102
-0.349278
-0.41605
0.13226
0.00529926
-0.0749335
0.0179955
-0.19148
0.0362294
-0.289057
0.0588835
-0.371933
-0.442414
0.0852475
0.00196195
-0.0768955
0.00662996
-0.196148
0.0132895
-0.295716
0.0215217
-0.380165
0.0310618
-0.451954
0.00661815
-0.010766
0.00414774
0.0221319
-0.030939
0.0154252
0.0453183
-0.0485411
0.0253547
0.0744526
-0.0639873
0.034853
-0.0770831
0.108095
0.0434411
0.00573969
-0.0165058
0.0214386
-0.0466379
0.0466229
-0.0737254
0.0796415
-0.0970059
-0.116129
0.118687
0.00638861
-0.0228944
0.0236389
-0.0638882
0.0511963
-0.101283
0.0878539
-0.133663
-0.160137
0.131862
0.0075354
-0.0304298
0.0270835
-0.0834363
0.0573058
-0.131505
0.0970018
-0.173359
-0.207907
0.144772
0.00874585
0.0313631
0.0656616
0.109834
0.161345
0.322436
-0.958439
0.744098
0.474603
-0.823966
0.6718
0.575178
-0.357177
0.256602
0.618334
-0.0686991
0.0255432
0.00364647
-0.00878776
0.330134
-1.16989
0.47083
-0.964663
0.576706
-0.463053
0.642641
-0.134634
-0.020742
0.336291
-1.37431
0.460563
-1.08893
0.562989
-0.565479
0.642219
-0.213864
-0.0618004
0.337259
-1.5668
0.447544
-1.19922
0.540466
-0.658402
0.615707
-0.289105
-0.10175
0.327633
-1.73309
0.427872
-1.29946
0.508674
-0.739203
0.572279
-0.35271
-0.132912
1.19774
-1.59052
-1.34031
1.00768
-1.1094
0.885986
-0.617508
0.827599
-0.294323
-0.110229
1.32968
-1.13311
-1.78709
0.981629
-0.761349
0.77283
-0.40871
0.677757
-0.19925
-0.0772074
1.18937
-0.607672
-1.7148
0.81612
-0.388101
0.610018
-0.202607
0.511732
-0.100963
-0.0408094
0.822346
-0.18529
-1.24473
0.545302
-0.111057
0.396271
-0.0535771
0.322553
-0.0272455
-0.0118983
0.306714
-0.492004
0.195658
0.142081
0.114835
1.56259
0.0462492
-1.57778
1.52169
0.126154
1.46266
0.191284
1.39634
0.236637
0.250041
1.67586
0.0356507
-1.66526
1.69932
0.102694
1.73081
0.159794
1.76527
0.202167
0.228226
1.38797
0.0184772
-1.37079
1.43705
0.053608
1.51387
0.0829775
1.61014
0.105892
0.123568
0.977699
0.00531443
-0.964536
1.01588
0.0154233
1.07582
0.0230448
1.15388
0.0278277
0.0327214
0.392987
-0.387673
0.408411
0.431455
0.459283
0.128769
0.327628
-0.264673
-0.191725
0.0781583
0.273215
-0.222604
0.0385247
0.209792
-0.170159
0.0113403
0.136442
-0.109258
0.0519523
-0.040612
0.115952
0.378906
-0.167231
0.0714987
0.317668
0.0356195
0.245671
0.0105616
0.1615
0.0625139
0.0888494
0.418274
-0.128217
0.0548113
0.351707
0.0272882
0.273195
0.00806515
0.180723
0.0705791
0.0552406
0.443533
-0.0804992
0.0337631
0.373184
0.0166551
0.290303
0.00486433
0.192514
0.0754434
0.0174804
-0.025902
0.0104997
0.00508593
0.00145208
0.0726898
0.0873735
-0.107344
-0.0527191
0.0429228
0.0737476
-0.0439804
0.0197532
0.056972
-0.0338025
0.00514309
0.0368321
-0.022222
0.0133055
-0.00816248
0.0760126
0.125954
-0.114593
0.0437118
0.106048
0.0196371
0.0810467
0.00508809
0.0513811
0.0183936
0.0843517
0.168593
-0.126991
0.0490571
0.141343
0.0227166
0.107387
0.00616807
0.0679297
0.0245618
0.0940237
0.214697
-0.140128
0.0557491
0.179617
0.0265151
0.136621
0.00742473
0.0870201
0.0319865
0.107387
-0.157363
0.0644007
0.0308633
0.00862552
0.513545
0.1772
-0.294765
0.563966
0.158916
-0.209338
0.497769
0.313893
-0.247696
0.335305
0.802811
-0.640347
1.04185
-0.813889
0.514786
0.0583941
0.562689
0.111013
0.488594
0.387989
0.331554
0.959851
1.25881
0.515444
-0.0610701
0.549549
0.0769078
0.467743
0.469795
0.328019
1.09958
1.45984
0.511942
-0.177033
0.527294
0.0615567
0.442067
0.555022
0.323676
1.21797
1.64339
0.499646
-0.280699
0.494428
0.0667739
0.412385
0.637065
0.311848
1.3185
1.79787
0.762431
-0.439109
0.841673
-0.0124682
0.956062
0.522676
1.16944
1.10512
1.61973
1.34758
0.70547
-0.540559
0.779167
-0.086165
0.953752
0.348092
1.29753
0.76135
1.14352
1.77374
0.602218
-0.538757
0.63247
-0.116418
0.803259
0.177303
1.17244
0.392164
0.612044
1.70392
0.448492
-0.383228
0.405151
-0.0730772
0.535886
0.0465682
0.815996
0.112054
0.186911
1.24113
0.220792
0.147715
0.194283
0.306337
0.493248
1.4026
-0.246743
1.46575
-0.230377
1.523
-0.185466
1.56316
-0.120659
-0.0405263
1.75264
-0.225647
1.71973
-0.197461
1.69061
-0.156349
1.67083
-0.100881
-0.0349543
1.60146
-0.123192
1.50876
-0.104756
1.43456
-0.0821504
1.38705
-0.0533735
-0.0186957
1.15107
-0.0331345
1.07431
-0.0279899
1.0153
-0.0231445
0.977572
-0.0156456
-0.00566038
0.460113
0.432123
0.408979
0.393333
0.00250157
0.0430089
-0.0455105
0.0073284
0.101057
-0.105884
0.0160961
0.148403
-0.157171
0.0165795
0.151918
-0.152401
0.114034
0.014815
-0.11227
0.00682886
0.0361801
0.0201792
0.0877066
0.0409603
0.127622
0.048258
0.14462
0.116388
0.0459044
0.00880995
0.0273701
0.0270785
0.069438
0.052154
0.102547
0.0730966
0.123677
0.114042
0.075443
0.00780179
0.0195684
0.025515
0.0517248
0.0497512
0.0783105
0.0774353
0.0959931
0.0992474
0.0922296
0.00509894
0.0144694
0.0179734
0.0388503
0.0367678
0.0595161
0.0600128
0.0727481
0.0767454
0.0825147
0.00342332
0.0110461
0.0125793
0.0296943
0.0274446
0.0446508
0.0470634
0.0531293
0.0561473
0.0676616
0.00222164
0.00882445
0.00893277
0.0229832
0.022279
0.0313045
0.0410396
0.0343687
0.0347536
0.0624333
0.00168002
0.00714446
0.0101568
0.0145065
0.0262343
0.0152269
0.0468074
0.0137955
0.0114859
0.0700749
0.00377348
0.00337099
0.0175936
0.000686399
0.0369471
-0.0041267
0.0599845
-0.00924196
-0.014441
0.0859112
0.00751862
0.0236302
0.0448582
0.0704692
0.0994693
0.153933
0.019587
-0.105859
0.243625
-0.130604
0.0409115
0.265062
-0.0382884
0.0168519
0.269743
0.0045991
-0.00928047
-0.000739726
-0.00515135
0.214984
-0.132964
0.325619
-0.24124
0.351879
-0.0645481
0.354036
0.00244208
-0.00303747
0.260364
-0.323253
0.391831
-0.372707
0.43425
-0.106967
0.435161
0.00153165
-0.000734382
0.293621
-0.530963
0.439242
-0.518327
0.503492
-0.171217
0.509491
-0.00446753
0.00472135
0.312603
0.466075
0.55146
0.572536
0.0706988
0.038649
-0.109348
0.0787061
-0.00800728
0.0830795
-0.00437341
0.0803483
0.0027312
0.00128604
0.194193
-0.261403
0.227097
0.239576
0.233027
0.020733
-0.00433173
-0.0164013
0.0342839
-0.0135509
0.0567634
-0.0224795
0.0856241
-0.0288607
-0.0237238
0.0539262
-0.0434429
0.0862797
0.139243
0.202612
0.0478233
-0.055157
0.0763597
-0.069026
0.0275542
-0.0521773
0.0724463
0.0123373
-0.0443854
0.0596023
0.00331831
-0.0300426
0.0390616
-0.0112608
0.0145791
0.0453596
-0.0322826
-0.0682342
0.0249397
-0.0317574
0.0098117
-0.0292575
0.00218754
-0.0224185
-0.00907329
0.0560355
-0.00670342
-0.0816147
0.033102
-0.00882403
0.0142602
-0.0104156
0.00258211
-0.0107404
-0.00649117
0.0701358
0.0215534
-0.0983926
0.0448501
0.0164618
0.0233725
0.0110619
0.0069213
0.00571077
0.000430105
0.0745028
-0.105668
0.0469843
0.0242437
0.00773245
0.016586
-0.114033
-0.0148234
0.0160951
-0.15191
0.00730704
-0.148383
0.00248927
-0.101066
-0.0430212
0.0482733
-0.116377
-0.0459288
0.0409339
-0.144571
0.020165
-0.127614
0.00682163
-0.0877226
-0.0361996
0.0731267
-0.113971
-0.0755328
0.0521258
-0.12357
0.0270667
-0.102555
0.00880682
-0.0694627
-0.0273928
0.0773412
-0.0989746
-0.0923376
0.0496233
-0.095852
0.0254349
-0.0783664
0.00777617
-0.051804
-0.0196166
0.0599497
-0.0825647
0.036544
0.0177799
0.00503748
0.341903
0.583367
-0.529291
0.280541
0.225044
-0.163682
0.247178
0.0556974
-0.0223346
0.165233
0.11299
-0.0310453
-0.00107501
0.0972821
0.407675
0.571672
0.37132
0.2614
0.335376
0.0916411
0.233482
0.214884
0.164173
0.459583
0.508069
0.451286
0.269696
0.409069
0.133859
0.283742
0.340211
0.3663
0.494471
0.409577
0.514103
0.250065
0.461472
0.18649
0.317996
0.483687
0.585904
0.510792
0.551519
0.490312
0.333653
0.158669
0.351382
0.0847934
0.0738756
0.0798534
0.00494003
0.0724167
0.00743665
-0.0369811
0.109398
0.332142
0.242336
0.224942
0.201333
0.261634
0.0856733
0.0237246
0.0567954
0.0288779
0.0342951
0.0225003
0.0207365
0.0135585
0.00433522
0.202794
0.139334
0.0863014
0.0539311
)
;

boundaryField
{
    left
    {
        type            calculated;
        value           nonuniform List<scalar> 
17
(
-0.60402
-0.60402
-0.60402
-0.60402
-0.60402
-0.39598
-0.39598
-0.39598
-0.39598
-0.39598
-0.39598
-0.39598
-0.39598
-0.39598
-0.39598
-0.510051
-0.510051
)
;
    }
    right
    {
        type            calculated;
        value           nonuniform List<scalar> 
17
(
0.0790623
0.229161
0.275634
0.356334
0.432858
0.504035
0.56847
0.623476
0.66703
0.683277
0.655657
0.603441
0.804915
0.644736
0.475333
0.293642
0.102937
)
;
    }
    down
    {
        type            calculated;
        value           uniform 0;
    }
    up
    {
        type            calculated;
        value           uniform 0;
    }
    cylinder
    {
        type            calculated;
        value           uniform 0;
    }
    defaultFaces
    {
        type            empty;
    }
}


// ************************************************************************* //
