/*--------------------------------*- C++ -*----------------------------------*\
  =========                 |
  \\      /  F ield         | OpenFOAM: The Open Source CFD Toolbox
   \\    /   O peration     | Website:  https://openfoam.org
    \\  /    A nd           | Version:  13
     \\/     M anipulation  |
\*---------------------------------------------------------------------------*/
FoamFile
{
    format      ascii;
    class       volScalarField;
    location    "16";
    object      p;
}
// * * * * * * * * * * * * * * * * * * * * * * * * * * * * * * * * * * * * * //

dimensions      [0 2 -2 0 0 0 0];

internalField   nonuniform List<scalar> 
440
(
-0.573781
-0.558264
-0.567016
-0.520862
-0.586671
-0.620423
-0.60318
-0.581946
-0.554539
-0.534341
-0.723436
-0.692164
-0.656132
-0.611658
-0.561639
-0.852025
-0.805417
-0.724757
-0.628306
-0.531067
-0.947
-0.885412
-0.746306
-0.601396
-0.467359
-1.1544
-1.18292
-1.23183
-1.30019
-1.38083
-0.938236
-0.95266
-0.984516
-1.03123
-1.07331
-0.776619
-0.771413
-0.763345
-0.746113
-0.719251
-0.627317
-0.618508
-0.595954
-0.557555
-0.50641
-0.514009
-0.507751
-0.491131
-0.444927
-0.401585
-1.34417
-1.25963
-0.86327
0.410654
0.0230802
-1.02395
-1.24677
-0.811364
0.359754
-0.000218863
-0.732204
-1.14503
-0.631311
0.241904
0.0196622
-0.542213
-1.12238
-0.52663
0.0914147
-0.0288238
-0.414233
-1.21342
-0.500514
0.00967013
-0.0332673
-0.203248
-1.16706
-0.421278
-0.0637797
-0.0242201
-0.066826
-0.830022
-0.275631
-0.0845975
-0.0669524
0.0106714
-0.554983
-0.234243
-0.0649025
-0.0314425
0.0618527
-0.359157
-0.220081
-0.0964879
-0.0576994
0.148572
-0.227373
-0.239243
-0.0976068
-0.0427506
-0.232354
-0.348613
-0.472013
-0.616474
-0.685181
0.00594987
-0.111488
-0.172768
-0.21476
-0.203983
0.157962
0.0669944
0.00887531
-0.0264343
-0.0474197
0.252978
0.168543
0.101452
0.0657954
0.0385006
0.297739
0.21132
0.144578
0.113783
0.100283
1.01102
0.865089
0.68147
0.478901
0.257664
0.619915
0.463806
0.273874
0.0602242
-0.175718
0.230777
0.0724656
-0.123587
-0.345718
-0.556975
-0.101209
-0.262939
-0.457743
-0.667633
-0.829525
-0.328899
-0.485071
-0.663242
-0.848671
-0.952644
2.11531
2.14687
2.17656
2.19291
2.19181
1.93459
1.95631
1.97339
1.97394
1.95355
1.71924
1.70776
1.67447
1.61979
1.54057
1.47401
1.44134
1.37428
1.27722
1.15333
1.24332
1.14464
1.0161
0.867861
0.689751
1.86829
1.86458
1.83944
1.91344
1.99542
1.85956
1.85428
1.8223
1.89678
1.91496
1.85194
1.84062
1.80211
1.86829
1.81175
1.84559
1.82461
1.78037
1.82352
1.65259
1.84054
1.80762
1.75769
1.77943
1.48425
1.83725
1.78213
1.72835
1.6739
1.29138
1.83806
1.75311
1.7248
1.56239
1.37329
1.84322
1.73964
1.72442
1.50074
1.40315
1.84209
1.71174
1.72314
1.44227
1.40817
1.87905
1.70746
1.72301
1.40664
1.43081
0.989604
0.709587
0.383463
0.106761
-0.0879316
0.903317
0.709409
0.495809
0.303991
0.13477
0.896726
0.728406
0.568842
0.414339
0.27751
0.937502
0.776091
0.629938
0.490928
0.36837
0.982616
0.821749
0.675509
0.5375
0.413391
-1.72782
-1.55339
-1.35785
-1.19461
-1.09485
-1.8313
-1.74194
-1.57593
-1.42624
-1.32072
-1.77319
-1.71372
-1.59138
-1.46579
-1.3544
-1.63194
-1.58332
-1.5107
-1.42018
-1.32088
-1.48128
-1.45875
-1.42
-1.36123
-1.27787
-1.39322
-1.38865
-1.36454
-1.36882
-1.26817
-1.32089
-1.32143
-1.30647
-1.32681
-1.25409
-1.25948
-1.25194
-1.24366
-1.24576
-1.22178
-1.20805
-1.19451
-1.17754
-1.16447
-1.1503
-1.22079
-1.22211
-1.22838
-1.24249
-1.26477
-0.820405
-0.775219
0.0879248
0.292333
0.0350147
-0.844346
-0.782347
0.103026
0.34922
0.0372599
-0.894535
-0.884539
-0.156024
0.398583
0.0255038
-1.12582
-1.25667
-0.614934
0.427027
0.0192007
-1.44343
-1.41559
-0.797659
0.42985
0.0184501
-0.487779
-0.917113
0.00205322
0.217041
0.0405854
-0.745357
-0.818106
0.0735513
0.262127
0.0450904
-1.03678
-1.24431
-1.25508
-1.14847
-0.916524
-1.05855
-1.26311
-1.27407
-1.19074
-1.08878
1.68654
1.65883
1.61285
1.5494
1.46523
1.89512
1.91277
1.91454
1.89832
1.86445
2.07225
2.10371
2.12763
2.13889
2.13535
2.17868
2.21763
2.25861
2.29146
2.30585
2.19127
2.22869
2.27037
2.30523
2.32136
-0.608546
-0.726814
-0.910916
-1.13033
-1.39335
0.0293397
-0.116033
-0.309833
-0.544211
-0.844813
0.614488
0.463771
0.2828
0.0690766
-0.200902
1.08456
0.966914
0.824409
0.651484
0.440316
1.46139
1.37834
1.27072
1.14192
0.989394
1.92676
1.8888
1.86652
1.8665
1.85996
1.91204
1.88698
1.86745
1.8878
1.93425
1.89967
1.88394
1.86763
1.91169
2.01798
1.8883
1.87949
1.86245
1.92217
2.03502
1.87781
1.87348
1.85274
1.92297
2.03366
1.98177
1.89325
1.85154
1.78559
1.71622
1.93671
1.88453
1.84742
1.80899
1.73366
1.33969
1.09544
0.679078
0.0795188
-0.570579
1.4256
1.13076
0.696876
0.100738
-0.563986
)
;

boundaryField
{
    left
    {
        type            zeroGradient;
    }
    right
    {
        type            fixedValue;
        value           uniform 0;
    }
    down
    {
        type            zeroGradient;
    }
    up
    {
        type            zeroGradient;
    }
    cylinder
    {
        type            zeroGradient;
    }
    defaultFaces
    {
        type            empty;
    }
}


// ************************************************************************* //
