/*--------------------------------*- C++ -*----------------------------------*\
  =========                 |
  \\      /  F ield         | OpenFOAM: The Open Source CFD Toolbox
   \\    /   O peration     | Website:  https://openfoam.org
    \\  /    A nd           | Version:  13
     \\/     M anipulation  |
\*---------------------------------------------------------------------------*/
FoamFile
{
    format      ascii;
    class       volVectorField;
    location    "16";
    object      U;
}
// * * * * * * * * * * * * * * * * * * * * * * * * * * * * * * * * * * * * * //

dimensions      [0 1 -1 0 0 0 0];

internalField   nonuniform List<vector> 
440
(
(-0.0985258 0.0710407 -6.13622e-20)
(-0.130943 0.0929 -1.11251e-20)
(-0.00644303 0.0592142 1.09853e-19)
(0.378946 0.0832406 6.82756e-20)
(0.335256 0.218614 2.06487e-20)
(-0.0979767 0.0561956 3.17237e-20)
(0.0315371 0.0279558 -1.15852e-19)
(0.507128 -0.021977 -1.07508e-19)
(1.04862 -0.0499931 5.60808e-20)
(1.54733 -0.0646718 1.18104e-20)
(-0.0310438 0.0122082 4.82103e-20)
(0.470554 -0.0305335 6.73971e-19)
(1.23291 -0.0211332 -3.93808e-19)
(1.82548 0.00190587 -1.27711e-18)
(2.3235 0.0242814 5.24073e-19)
(0.17959 -0.0408107 -1.6751e-19)
(1.15166 0.00716553 -5.00116e-19)
(1.91691 0.0725872 1.60071e-18)
(2.34041 0.111933 1.74139e-18)
(2.42442 0.12047 -4.94129e-19)
(0.534869 -0.00509508 -2.7706e-19)
(1.68322 0.177505 -5.80887e-19)
(2.22011 0.253687 1.75901e-18)
(2.35759 0.26532 1.91409e-18)
(2.44421 0.244149 6.56276e-19)
(0.0294783 -0.272628 -8.44643e-20)
(0.011424 -0.347683 3.36999e-19)
(-0.0112426 -0.289492 -6.57284e-19)
(0.0159813 -0.161309 1.51528e-19)
(0.049413 0.0182387 1.18282e-18)
(0.0273376 -0.166182 -5.24743e-20)
(-0.0507553 -0.173068 -1.68108e-19)
(-0.138345 -0.215713 -1.19447e-19)
(-0.212013 -0.228796 -9.87828e-20)
(-0.258857 -0.134764 1.68276e-19)
(0.0398793 -0.101869 3.66079e-19)
(-0.00919771 -0.0102216 -9.63838e-20)
(-0.0704595 0.0605137 2.1849e-19)
(-0.126424 0.0558344 2.99637e-19)
(-0.166025 0.0534286 2.32965e-21)
(0.0499231 -0.104722 1.7675e-20)
(-0.0100367 -0.0673352 4.08435e-20)
(-0.074197 0.0211176 5.47042e-20)
(-0.12288 0.0626577 -7.7242e-19)
(-0.13547 0.0867977 2.19011e-19)
(-0.0301411 -0.00477926 -3.82532e-20)
(-0.144382 0.00538202 -5.47744e-20)
(-0.224052 0.0529862 -1.97765e-19)
(-0.20128 0.0972872 2.92404e-19)
(-0.169845 0.176194 6.12978e-19)
(0.635704 1.23284 1.81571e-18)
(0.626529 0.147942 -7.60235e-19)
(0.930523 -1.2933 1.70665e-20)
(1.06217 -0.438378 -2.27074e-19)
(1.27226 0.00172667 -4.42543e-20)
(-0.151635 0.936819 -1.93662e-18)
(1.10254 0.0521534 6.25725e-20)
(1.4827 -1.2548 1.68996e-19)
(1.11438 -0.506926 8.19847e-19)
(1.29721 -0.0222164 3.35291e-20)
(-0.595774 0.632955 -1.13235e-18)
(1.745 -0.156183 -6.16095e-19)
(2.15693 -1.15176 -1.14391e-19)
(1.34088 -0.488351 1.1519e-18)
(1.33527 -0.0175183 -1.36723e-20)
(-0.686782 0.468896 4.79801e-19)
(2.02503 -0.499743 -3.84165e-20)
(2.05728 -1.14823 3.52755e-19)
(1.40028 -0.429849 -7.06966e-19)
(1.36276 -0.0111919 1.63245e-19)
(-0.285343 0.161454 -1.15308e-19)
(2.19403 -0.699232 -2.19387e-19)
(2.04286 -1.06113 0)
(1.30807 -0.356046 3.31036e-19)
(1.31527 0.0042855 -3.95822e-21)
(1.21602 0.0765375 -2.70061e-19)
(2.54676 -0.718671 -8.94736e-20)
(1.99777 -0.935732 -2.69539e-20)
(1.31904 -0.342871 1.4036e-19)
(1.33992 -0.0112429 -4.72878e-20)
(2.01904 0.0468384 -1.80169e-20)
(2.80722 -0.800105 1.08389e-18)
(1.66496 -0.659647 -1.80377e-20)
(0.830917 -0.105195 -1.99713e-21)
(1.17543 0.0128859 0)
(2.24619 -0.0790562 -2.0398e-19)
(2.36611 -0.534926 -5.70503e-21)
(1.62271 -0.320707 6.17801e-20)
(1.14193 -0.136084 1.03739e-20)
(1.27941 -0.118785 1.22183e-20)
(2.30799 -0.0774129 1.06446e-19)
(2.05587 -0.459711 2.338e-19)
(1.08403 -0.216485 -1.85932e-20)
(1.1164 -0.0192826 -2.18574e-34)
(0.961576 -0.0475134 2.10336e-20)
(1.51841 -0.126312 1.21885e-19)
(0.790342 0.0106692 7.66091e-20)
(0.386532 0.00652339 7.74453e-21)
(0.253159 -0.0936287 -6.50489e-22)
(0.0379282 -0.0312618 -1.32032e-20)
(2.38534 0.255234 -8.38592e-19)
(2.53203 0.0602376 -9.96469e-19)
(2.42443 0.0663281 7.33288e-19)
(2.56974 -0.0702062 5.20961e-20)
(2.06502 0.0137111 -3.14159e-20)
(2.16896 0.145972 5.74937e-20)
(2.35608 0.0979824 -3.71397e-20)
(2.2964 -0.0369293 -1.17285e-19)
(2.39022 -0.0383136 -2.13136e-19)
(2.35019 -0.243895 -3.04288e-21)
(2.07856 0.059501 6.65489e-20)
(2.15494 0.0595886 9.32522e-20)
(2.18464 -0.0557453 -1.07234e-19)
(2.21246 -0.0303989 3.64809e-20)
(2.24507 -0.162109 1.30723e-20)
(1.97206 0.0248772 1.03009e-19)
(2.05727 0.0208959 1.29439e-19)
(2.06181 -0.0416312 -1.63335e-20)
(2.13737 -0.0299047 -4.86764e-20)
(2.13075 -0.105557 2.58401e-20)
(1.49527 -0.014653 1.5935e-19)
(1.49487 -0.0177788 -1.05297e-20)
(1.51269 -0.0210361 1.82036e-20)
(1.50546 -0.0321661 -2.47396e-20)
(1.50681 -0.0284852 -9.1691e-22)
(1.52973 0.846897 1.08037e-18)
(1.48882 0.940443 -3.42485e-19)
(1.48986 1.0647 -1.27123e-18)
(1.41494 1.09874 6.85364e-19)
(0.862783 0.773081 -1.63649e-19)
(1.81331 0.798636 -5.49716e-19)
(1.77552 0.869681 -2.89476e-18)
(1.77776 0.971325 -1.10896e-18)
(1.68187 0.973937 -3.82669e-19)
(1.01469 0.663071 -6.10466e-19)
(2.10742 0.68231 7.30568e-19)
(2.07931 0.741888 1.85271e-19)
(2.04706 0.818881 -2.1497e-18)
(1.90126 0.799152 -5.85504e-19)
(1.10579 0.513525 4.25944e-19)
(2.27224 0.558955 2.18772e-18)
(2.24691 0.602941 1.57623e-18)
(2.22915 0.647827 -1.79892e-18)
(2.00137 0.600234 -1.34254e-18)
(1.07692 0.3357 -2.40367e-19)
(2.41588 0.406655 1.03661e-18)
(2.40611 0.424638 -7.35985e-19)
(2.29421 0.441125 5.28554e-19)
(1.9487 0.382999 4.08671e-19)
(0.893778 0.145642 -3.40299e-19)
(0.580729 0.432535 -6.92117e-19)
(0.489264 0.467649 -5.52588e-19)
(0.370226 0.502833 6.91048e-20)
(0.230438 0.502314 -1.90515e-20)
(0.0559603 0.352373 6.92778e-20)
(0.683073 0.596502 6.02658e-20)
(0.616127 0.649124 -3.17579e-19)
(0.523906 0.712041 1.721e-19)
(0.396177 0.771019 -7.98778e-20)
(0.170649 0.589433 1.14319e-19)
(0.76228 0.811479 1.45431e-19)
(0.689583 0.893466 4.29969e-19)
(0.632195 0.987356 8.45556e-20)
(0.546813 1.02251 -2.82641e-19)
(0.299028 0.749213 2.31144e-19)
(1.04381 0.882971 2.11257e-19)
(0.992486 0.962759 -6.44224e-19)
(0.937536 1.05739 -1.80737e-18)
(0.850298 1.11802 7.24718e-19)
(0.498043 0.82382 -1.63736e-19)
(1.11015 0.933787 -1.09138e-19)
(1.14198 1.0506 -1.83691e-19)
(1.16248 1.15897 -3.37977e-19)
(1.1046 1.17934 -3.78893e-19)
(0.675929 0.838015 -6.09123e-21)
(1.0065 0.0432272 -7.93307e-20)
(1.0061 0.0134775 -2.76826e-20)
(1.04807 0.136047 -1.54634e-21)
(0.940487 0.113214 -1.49853e-19)
(0.906048 0.257813 2.83381e-19)
(0.992712 0.0411809 4.81905e-20)
(1.0282 0.00546974 1.07602e-19)
(1.02705 0.151971 1.08046e-19)
(0.973158 0.133553 1.64086e-20)
(0.941127 0.345376 9.50895e-21)
(0.999666 0.039377 6.29585e-20)
(1.01637 -0.00347229 -4.32569e-21)
(1.06471 0.172043 -2.76117e-21)
(0.925381 0.134266 1.32113e-19)
(1.13578 0.481755 -4.31442e-19)
(0.996279 0.0378088 -2.74729e-22)
(1.03874 -0.0147601 -1.60891e-19)
(1.04305 0.200918 -5.64933e-20)
(1.01525 0.124311 -3.29047e-19)
(1.15269 0.543805 8.47775e-20)
(1.00075 0.0281097 -9.37536e-21)
(1.0356 -0.00889767 4.50583e-20)
(1.07512 0.202028 2.61537e-20)
(1.00468 0.153952 4.50697e-19)
(1.37628 0.676196 -4.28983e-19)
(0.971339 0.0260076 -1.38239e-21)
(1.10189 -0.0285675 9.16231e-20)
(1.01923 0.236057 -5.22558e-20)
(1.28956 0.0625256 9.19687e-19)
(1.29431 0.719919 -3.47439e-19)
(0.932923 -0.00677819 -1.36602e-21)
(1.17855 -0.01403 -7.55823e-20)
(0.904552 0.157277 4.61513e-21)
(1.40229 0.0530217 -3.08006e-19)
(1.17945 0.530213 -4.83669e-20)
(0.990705 -0.0260743 3.5204e-21)
(1.09486 0.00969003 1.34275e-35)
(1.00667 0.123371 3.57607e-21)
(1.32728 0.00690028 1.04798e-19)
(1.33094 0.372316 1.62445e-19)
(1.07546 -0.0592397 3.87919e-21)
(0.905233 0.00570558 -2.82932e-20)
(1.26108 0.0312679 1.90741e-20)
(1.14767 -0.0225984 2.22953e-20)
(1.44378 0.253932 -2.47483e-19)
(0.96391 -0.0215888 -3.97735e-20)
(0.755944 -0.0207746 -2.48723e-21)
(1.01572 -0.00887878 2.13969e-20)
(0.703909 -0.00312224 -2.07153e-20)
(1.09441 0.0812389 -5.52398e-20)
(1.78125 0.647872 2.84332e-19)
(1.88622 0.660045 7.28594e-19)
(2.13631 0.537736 -1.03319e-18)
(2.21711 0.493874 2.53217e-20)
(2.40346 0.308953 4.24533e-19)
(1.70646 0.400898 6.73564e-20)
(1.74307 0.417051 9.05292e-19)
(1.9659 0.347664 1.02616e-19)
(1.98583 0.307538 -8.45215e-19)
(2.20382 0.225933 -2.70593e-19)
(1.66763 0.255276 -2.22992e-19)
(1.75791 0.244278 -1.4097e-19)
(1.86779 0.206904 1.5408e-19)
(1.93402 0.166511 -2.58641e-19)
(2.03545 0.137105 2.37796e-19)
(1.67314 0.175833 3.70071e-19)
(1.74828 0.155288 -1.90641e-21)
(1.82152 0.127571 1.99985e-19)
(1.8674 0.093551 1.62748e-19)
(1.94714 0.0733563 -1.63855e-19)
(1.29348 0.0475354 -4.80834e-20)
(1.37499 0.029775 2.31655e-19)
(1.40601 0.017111 9.33246e-20)
(1.45379 0.00148888 -1.9594e-19)
(1.46288 -0.00434081 3.47796e-22)
(1.33263 -0.0256242 8.303e-20)
(2.39852 -0.0138564 -5.84581e-19)
(2.61659 -0.00628967 1.56867e-18)
(2.58675 0.0395276 7.28116e-19)
(2.35368 0.049835 -4.98241e-19)
(0.90321 0.112798 1.92008e-19)
(2.19093 0.141647 -6.48286e-19)
(2.60188 0.152433 -9.26341e-19)
(2.60226 0.158936 1.26356e-18)
(2.39373 0.150503 -9.36213e-19)
(0.34955 0.121591 -3.36897e-21)
(1.62185 0.239365 7.98895e-19)
(2.34703 0.291194 1.21114e-19)
(2.64161 0.302206 1.35141e-18)
(2.61492 0.270886 7.46906e-19)
(0.0235252 0.0199649 2.42237e-19)
(0.777781 0.199733 2.864e-19)
(1.64071 0.319787 -9.51177e-19)
(2.16504 0.383164 9.78896e-20)
(2.60882 0.416296 9.11554e-19)
(-0.074798 -0.0609031 1.84195e-19)
(0.179141 0.0607015 -2.18681e-19)
(0.805033 0.236003 -1.76556e-19)
(1.33313 0.356288 2.77307e-19)
(1.94133 0.5166 1.69815e-19)
(-0.0774232 -0.0930285 6.71603e-20)
(-0.0473129 -0.0657995 9.85879e-20)
(0.229357 0.0346181 9.63842e-20)
(0.516455 0.192208 -4.41657e-19)
(1.17911 0.411997 1.0626e-20)
(-0.0568215 -0.0917335 -4.48707e-20)
(-0.0763897 -0.101039 -4.37393e-20)
(0.0189711 -0.0290858 3.87939e-20)
(0.142664 0.135774 -6.29808e-20)
(0.486489 0.385711 1.05608e-21)
(-0.0374119 -0.089322 -4.54461e-20)
(-0.0430191 -0.12517 8.5211e-20)
(0.00218925 -0.0529607 -7.7207e-20)
(0.0492482 0.0848867 -2.38112e-19)
(0.157854 0.283241 2.41201e-19)
(-0.0211502 -0.113653 -2.86741e-20)
(-0.00270788 -0.175084 -1.27255e-19)
(0.049095 -0.0624064 2.63755e-19)
(0.115099 0.150684 2.65099e-19)
(0.180296 0.399841 -5.0273e-20)
(0.00460201 -0.216523 -2.5473e-21)
(0.0417563 -0.314648 1.03641e-20)
(0.0851459 -0.217651 -7.81448e-21)
(0.155185 -0.0198675 2.73431e-20)
(0.238117 0.230873 2.7776e-19)
(1.42823 0.731531 -3.26631e-20)
(0.090967 0.201201 2.80125e-19)
(0.627436 -0.0934654 -1.32153e-19)
(0.859952 -0.0325201 -2.73403e-19)
(0.731377 -0.0235421 2.83296e-21)
(1.26262 0.839872 1.5859e-19)
(-0.736284 0.271333 7.30632e-19)
(0.533191 -0.240501 5.08841e-19)
(1.05424 -0.070271 -1.79692e-20)
(0.946828 -0.00276102 -4.73822e-21)
(0.681687 0.973444 -4.58521e-19)
(-1.58791 0.28149 2.93775e-18)
(0.507875 -0.672528 1.48257e-19)
(1.08903 -0.137803 3.52238e-19)
(1.09608 0.0237638 2.42688e-20)
(0.236693 1.1262 1.0147e-18)
(-1.15577 0.136885 -4.69026e-18)
(0.496316 -1.06721 -8.17914e-19)
(0.963601 -0.239204 1.50006e-20)
(1.16427 0.0285309 -2.52892e-21)
(0.758515 1.31288 1.8231e-19)
(0.244209 0.176644 1.07252e-19)
(0.764528 -1.11529 2.41016e-19)
(0.996866 -0.354021 -7.42123e-20)
(1.22856 0.00465545 2.69763e-20)
(-0.198989 0.0830268 -6.3221e-20)
(-0.377459 -0.171712 0)
(-0.088554 -0.0892298 -7.78188e-20)
(-0.00408812 -0.0646309 6.41432e-20)
(0.333606 -0.0316745 -1.54826e-20)
(1.70048 0.627195 0)
(0.726 0.178074 0)
(0.736571 -0.0348543 2.98123e-19)
(0.58574 -0.0642112 1.70473e-19)
(0.557268 -0.0639781 1.20261e-20)
(0.751116 0.00600811 -1.32615e-19)
(0.805069 0.000653755 3.39322e-19)
(0.930737 0.0358315 -3.64668e-20)
(0.843849 0.0239954 3.91975e-19)
(1.18991 0.187344 2.27619e-19)
(1.69733 0.0425587 1.28192e-19)
(1.8768 0.0900935 5.13711e-19)
(1.95576 0.174626 -8.88896e-19)
(2.35242 0.265965 3.76076e-19)
(2.27403 0.435254 6.37973e-19)
(0.958665 -0.518655 1.48366e-20)
(0.951051 -0.616021 -2.08174e-19)
(0.947965 -0.721376 -1.69674e-19)
(0.881894 -0.797786 1.02587e-19)
(0.544571 -0.635725 1.48216e-19)
(0.854064 -0.424268 1.09849e-19)
(0.798634 -0.494292 1.56067e-19)
(0.724813 -0.571062 -1.03009e-19)
(0.61204 -0.639549 1.56972e-19)
(0.341382 -0.516669 4.50065e-20)
(0.681213 -0.285836 -1.15593e-19)
(0.593816 -0.331167 -6.26822e-20)
(0.493464 -0.387375 1.73775e-20)
(0.374071 -0.436911 -4.51717e-20)
(0.173766 -0.352454 -1.43978e-19)
(0.570846 -0.0536626 -4.35953e-19)
(0.484462 -0.0733281 -3.4947e-19)
(0.373037 -0.101925 2.84974e-19)
(0.2445 -0.13726 1.43994e-19)
(0.074699 -0.131349 1.29113e-20)
(0.540808 0.156134 -1.36387e-19)
(0.45442 0.153854 -1.55242e-19)
(0.335693 0.147572 -4.01381e-20)
(0.19513 0.145507 5.25913e-20)
(0.033077 0.105798 1.41806e-20)
(2.15765 -0.0272186 9.66193e-19)
(2.39327 -0.0979022 3.46916e-19)
(2.49098 -0.188868 -8.81849e-19)
(2.37484 -0.215328 -1.87516e-18)
(1.4708 -0.209803 1.48895e-19)
(2.09755 -0.127707 1.56837e-18)
(2.21589 -0.243247 2.06055e-18)
(2.24887 -0.370585 1.72949e-19)
(2.18174 -0.432875 3.03042e-19)
(1.42616 -0.400802 -2.02663e-19)
(1.818 -0.299207 -3.99559e-18)
(1.8766 -0.421477 4.44582e-19)
(1.92722 -0.554251 1.27078e-18)
(1.88533 -0.636477 -4.97305e-19)
(1.24615 -0.556581 7.92607e-19)
(1.57879 -0.428974 9.73883e-19)
(1.60572 -0.534577 -2.57253e-18)
(1.60616 -0.661149 -2.95522e-18)
(1.54847 -0.757268 9.21825e-19)
(1.01279 -0.63888 6.13064e-19)
(1.28397 -0.496394 2.20233e-19)
(1.24056 -0.596544 2.88543e-19)
(1.23393 -0.726135 -4.57184e-19)
(1.18492 -0.820994 -5.54087e-19)
(0.761618 -0.66543 -5.27957e-21)
(1.06257 0.0509579 6.95452e-21)
(0.947435 0.0502272 1.60791e-21)
(1.12126 0.0783245 1.0615e-20)
(0.840056 -0.00711936 -2.67743e-19)
(1.14081 -0.225212 -2.21193e-20)
(1.07253 0.0527385 -2.29115e-21)
(0.940477 0.0452239 2.22024e-20)
(1.12159 0.0967582 5.24193e-21)
(0.911817 0.0358021 2.3903e-19)
(1.0319 -0.111457 6.75719e-21)
(1.06992 0.0485742 -5.43889e-20)
(0.943083 0.0379402 -1.14587e-22)
(1.1049 0.101725 -5.97865e-21)
(0.910261 0.0525691 1.35685e-19)
(0.987719 -0.0498448 -2.75762e-19)
(1.05038 0.0466241 6.40486e-20)
(0.96648 0.0302909 2.65599e-21)
(1.07247 0.109695 2.0511e-20)
(0.939678 0.0777619 -7.27324e-20)
(0.886459 0.0569547 5.65189e-20)
(1.02276 0.0436129 1.58025e-20)
(0.996652 0.0246053 -2.25272e-20)
(1.0424 0.119264 3.27337e-20)
(0.958343 0.0992021 2.89605e-20)
(0.856294 0.159691 -1.94818e-20)
(0.887889 0.0336685 0)
(0.720791 0.0277264 8.49805e-21)
(0.610317 0.0210235 7.38675e-21)
(0.366967 -0.00897151 5.60852e-20)
(0.718776 -0.0566756 -1.80106e-19)
(1.03051 0.0724014 -6.25294e-20)
(0.957035 0.0688276 4.81118e-22)
(1.03129 0.0790706 -6.94589e-20)
(0.827605 -0.0103141 -1.58666e-19)
(1.0761 -0.208226 -1.91373e-19)
(0.999722 -0.0690323 -4.17451e-20)
(1.09232 -0.0373409 6.03017e-19)
(1.19765 0.0360544 3.55594e-19)
(1.06639 0.0585934 2.99336e-20)
(0.829934 0.0319587 0)
(1.35768 -0.328006 4.07667e-19)
(1.48063 -0.288576 1.71382e-18)
(1.67163 -0.165308 -1.84804e-18)
(1.77359 -0.0201866 -5.85025e-19)
(1.70131 0.0358781 4.45966e-19)
)
;

boundaryField
{
    left
    {
        type            fixedValue;
        value           uniform (1 0 0);
    }
    right
    {
        type            zeroGradient;
    }
    down
    {
        type            noSlip;
    }
    up
    {
        type            noSlip;
    }
    cylinder
    {
        type            noSlip;
    }
    defaultFaces
    {
        type            empty;
    }
}


// ************************************************************************* //
