/*--------------------------------*- C++ -*----------------------------------*\
  =========                 |
  \\      /  F ield         | OpenFOAM: The Open Source CFD Toolbox
   \\    /   O peration     | Website:  https://openfoam.org
    \\  /    A nd           | Version:  13
     \\/     M anipulation  |
\*---------------------------------------------------------------------------*/
FoamFile
{
    format      ascii;
    class       volVectorField;
    location    "0.0775";
    object      U;
}
// * * * * * * * * * * * * * * * * * * * * * * * * * * * * * * * * * * * * * //

dimensions      [0 1 -1 0 0 0 0];

internalField   nonuniform List<vector> 
1800
(
(0.653636 -0.574663 1.06407e-19)
(1.22305 -1.04966 4.52043e-20)
(1.36736 -1.10597 -8.0132e-19)
(1.38681 -1.05778 5.55121e-19)
(1.38298 -0.992566 1.09084e-18)
(1.37579 -0.929739 4.33523e-19)
(1.36841 -0.872214 -2.17626e-19)
(1.3612 -0.819912 -5.91948e-19)
(1.35487 -0.770768 -2.98587e-19)
(1.3345 -0.725129 -2.35743e-19)
(0.749329 -0.561413 -4.82779e-20)
(1.38744 -1.02318 -1.29783e-18)
(1.53899 -1.07413 7.65124e-21)
(1.55023 -1.0262 -3.91213e-19)
(1.53639 -0.962146 7.53044e-20)
(1.51985 -0.900434 1.03345e-18)
(1.504 -0.843746 -7.6524e-19)
(1.48926 -0.791731 3.79951e-19)
(1.47562 -0.742789 6.32873e-19)
(1.45387 -0.702046 -3.17292e-19)
(0.843904 -0.534756 1.08753e-19)
(1.54788 -0.972803 3.68382e-19)
(1.70536 -1.017 6.49823e-19)
(1.70833 -0.970635 -3.30503e-19)
(1.68486 -0.909384 -1.31371e-18)
(1.65941 -0.850411 2.84671e-19)
(1.63556 -0.796227 4.93177e-19)
(1.61363 -0.746508 -3.78542e-20)
(1.59346 -0.700059 -4.16824e-21)
(1.56736 -0.660952 -1.69903e-20)
(0.9353 -0.494906 -1.18775e-19)
(1.70053 -0.899262 -3.98725e-19)
(1.8623 -0.935633 -4.12965e-19)
(1.85709 -0.892291 3.87447e-20)
(1.82448 -0.835471 3.627e-19)
(1.79067 -0.780798 2.27549e-20)
(1.75932 -0.730581 -2.01996e-20)
(1.73065 -0.684482 4.56545e-19)
(1.7043 -0.641523 3.85632e-19)
(1.67432 -0.605987 -1.41489e-19)
(1.02135 -0.442331 1.90787e-19)
(1.84154 -0.803811 4.5668e-19)
(2.00573 -0.831598 -4.92375e-20)
(1.99262 -0.792807 -5.06673e-20)
(1.95161 -0.741954 -1.06069e-18)
(1.91018 -0.693027 8.29647e-21)
(1.87199 -0.648111 8.09907e-19)
(1.83719 -0.606874 2.47709e-19)
(1.80528 -0.568603 5.18347e-21)
(1.77186 -0.537234 -1.80371e-19)
(1.09985 -0.377822 -4.82428e-20)
(1.96717 -0.688299 1.22256e-18)
(2.13177 -0.707126 1.43485e-18)
(2.11132 -0.674446 -8.76785e-19)
(2.06287 -0.630946 -7.70129e-19)
(2.01475 -0.589076 1.26798e-18)
(1.97059 -0.550663 -8.72456e-19)
(1.93042 -0.515398 -1.00826e-18)
(1.89368 -0.482794 6.91463e-19)
(1.85727 -0.456329 -6.65652e-21)
(1.1686 -0.302535 5.83928e-19)
(2.07392 -0.555158 -1.80391e-18)
(2.23692 -0.565043 -3.94791e-18)
(2.21002 -0.539997 1.382e-18)
(2.15529 -0.504976 1.95496e-18)
(2.10159 -0.471293 -5.39043e-21)
(2.05246 -0.440412 -2.40701e-18)
(2.00785 -0.412061 2.28568e-20)
(1.96715 -0.385952 2.15186e-18)
(1.92827 -0.365015 5.56019e-19)
(1.22555 -0.218037 -2.9581e-19)
(2.15867 -0.407385 9.51599e-19)
(2.31817 -0.408762 3.04948e-18)
(2.28607 -0.392771 2.16758e-21)
(2.22638 -0.366981 -1.26099e-18)
(2.16836 -0.342433 -3.91034e-19)
(2.11542 -0.319926 0)
(2.06741 -0.299256 8.45215e-19)
(2.02371 -0.280303 -2.30772e-20)
(1.98297 -0.265436 -7.03748e-19)
(1.26895 -0.126211 -3.49006e-20)
(2.21875 -0.24838 2.47181e-18)
(2.37327 -0.242226 2.5502e-18)
(2.33748 -0.236497 -2.00266e-18)
(2.27418 -0.220183 -1.34664e-18)
(2.21322 -0.205546 3.81952e-19)
(2.15774 -0.192049 -1.55891e-18)
(2.10747 -0.179632 -1.1401e-18)
(2.06181 -0.168308 1.26739e-18)
(2.01987 -0.159909 1.06819e-18)
(1.29748 -0.0290577 4.24202e-19)
(2.25208 -0.0820487 1.55888e-18)
(2.40109 -0.069953 4.58353e-19)
(2.36273 -0.0749828 -2.81372e-18)
(2.29728 -0.0679415 -1.26975e-20)
(2.23491 -0.0639342 3.62077e-18)
(2.17824 -0.0598614 -1.94598e-18)
(2.12689 -0.0560511 -9.97591e-19)
(2.0803 -0.0526286 3.69848e-19)
(2.03788 -0.0508867 -7.99632e-19)
(0.013792 -0.108451 1.30577e-19)
(0.0843563 -0.199484 1.82236e-19)
(0.156513 -0.216022 -2.38094e-21)
(0.226607 -0.211514 -3.35822e-21)
(0.290731 -0.203184 -1.38413e-21)
(0.348473 -0.19484 -2.94831e-20)
(0.400555 -0.1871 2.2917e-21)
(0.447603 -0.17999 -9.31224e-21)
(0.490341 -0.173414 5.7454e-22)
(0.526698 -0.168227 -1.25873e-21)
(0.0322149 -0.186255 1.08092e-19)
(0.117514 -0.344627 1.65729e-19)
(0.191982 -0.371041 -1.40243e-19)
(0.260737 -0.359844 -4.40261e-20)
(0.322959 -0.34198 -4.35211e-20)
(0.378866 -0.32432 -5.59713e-20)
(0.429283 -0.30796 2.42388e-20)
(0.47484 -0.292932 -4.60843e-21)
(0.516195 -0.279042 -3.23867e-21)
(0.551644 -0.268714 -4.56692e-21)
(0.0630737 -0.260959 3.95976e-20)
(0.173507 -0.483691 3.93598e-19)
(0.252045 -0.51934 9.18871e-20)
(0.318593 -0.501673 2.70913e-19)
(0.377628 -0.474677 3.93613e-20)
(0.430447 -0.448121 -2.09069e-19)
(0.478043 -0.423546 -1.45162e-20)
(0.521055 -0.400982 6.60969e-20)
(0.560035 -0.38017 -3.31749e-20)
(0.593959 -0.364949 -5.56309e-21)
(0.105847 -0.331025 -9.60007e-20)
(0.251214 -0.613649 -9.78689e-20)
(0.335443 -0.657567 2.34894e-20)
(0.398894 -0.633758 -9.51483e-20)
(0.453478 -0.598217 3.19716e-20)
(0.501988 -0.563374 1.39374e-19)
(0.545644 -0.531166 4.07844e-20)
(0.585094 -0.501614 -1.26176e-20)
(0.620755 -0.474444 1.43773e-20)
(0.652538 -0.454668 -1.78684e-21)
(0.159831 -0.394958 0)
(0.349097 -0.731559 7.21588e-20)
(0.440417 -0.782472 5.65707e-19)
(0.499867 -0.752966 -2.84157e-19)
(0.548779 -0.709657 -4.59949e-19)
(0.591816 -0.667323 1.49222e-19)
(0.630468 -0.628236 -2.14352e-20)
(0.665388 -0.592408 -6.95426e-20)
(0.696849 -0.55961 0)
(0.725858 -0.535695 -6.16364e-21)
(0.224128 -0.451304 -5.30435e-20)
(0.465187 -0.834617 4.39524e-19)
(0.564696 -0.890985 1.91721e-19)
(0.619252 -0.856349 1.68191e-19)
(0.661348 -0.806231 -1.35697e-19)
(0.697833 -0.757374 -2.21874e-19)
(0.730492 -0.712326 3.73243e-19)
(0.759977 -0.671079 3.79624e-20)
(0.786418 -0.633524 -2.1394e-19)
(0.811974 -0.605934 -4.87503e-21)
(0.297621 -0.498662 5.67531e-20)
(0.597086 -0.920235 6.06603e-19)
(0.705526 -0.980314 -2.59165e-22)
(0.754341 -0.94123 1.32774e-20)
(0.788592 -0.885421 2.45371e-19)
(0.817564 -0.831156 -3.07026e-19)
(0.843347 -0.781188 -2.95368e-19)
(0.86658 -0.735491 -2.48136e-19)
(0.887252 -0.694147 1.76451e-19)
(0.908596 -0.663332 1.88875e-19)
(0.378959 -0.535716 -1.06502e-19)
(0.742002 -0.986142 -2.82288e-19)
(0.859746 -1.04806 1.06142e-19)
(0.902053 -1.00531 -1.23696e-19)
(0.927588 -0.945041 2.5987e-19)
(0.948243 -0.886576 6.15748e-19)
(0.966412 -0.832798 4.19779e-19)
(0.9827 -0.783657 -3.08595e-19)
(0.996961 -0.739487 -1.4527e-19)
(1.01323 -0.705737 2.05934e-19)
(0.466579 -0.561312 -3.92866e-19)
(0.896861 -1.0305 -1.42456e-18)
(1.02393 -1.09236 1.16651e-18)
(1.0591 -1.0468 8.28292e-19)
(1.07526 -0.983404 -6.25662e-19)
(1.08702 -0.922024 6.70966e-19)
(1.09707 -0.865592 8.60366e-20)
(1.10594 -0.814051 -7.63276e-19)
(1.11339 -0.767909 -1.79806e-19)
(1.12341 -0.730933 2.30026e-19)
(0.558756 -0.574517 -1.11902e-19)
(1.05837 -1.05196 -1.18641e-18)
(1.19443 -1.11193 -4.71628e-19)
(1.22195 -1.06454 7.09482e-19)
(1.2283 -0.999475 5.59412e-19)
(1.23081 -0.936617 -5.97532e-19)
(1.23248 -0.878899 -4.8433e-19)
(1.23378 -0.826309 2.82698e-19)
(1.23469 -0.778799 -2.76671e-19)
(1.23546 -0.737182 -1.82782e-19)
(0.647363 -0.136792 -3.60249e-20)
(0.819191 -0.10606 6.88946e-20)
(0.891723 -0.083212 2.05283e-20)
(0.935231 -0.0652972 -9.18153e-21)
(0.960391 -0.0506042 4.91233e-21)
(0.975276 -0.0383463 8.36797e-21)
(0.984308 -0.0280446 6.19525e-21)
(0.989807 -0.0192726 -3.52529e-21)
(0.992988 -0.0116522 -3.74551e-22)
(0.99483 -0.00404867 3.47234e-21)
(0.664498 -0.198559 3.48092e-20)
(0.82802 -0.139114 -3.64154e-20)
(0.898413 -0.100883 3.04379e-21)
(0.940336 -0.0751016 1.48945e-20)
(0.964493 -0.0562686 3.37469e-20)
(0.978644 -0.0417101 0)
(0.98711 -0.0300669 6.51424e-21)
(0.992188 -0.0204689 2.41304e-21)
(0.995084 -0.0123032 5.91472e-22)
(0.996724 -0.00426101 -2.59845e-21)
(0.692853 -0.258572 -1.61698e-20)
(0.840975 -0.171492 9.61199e-21)
(0.907411 -0.118383 -1.00776e-20)
(0.946622 -0.0848516 -7.87597e-21)
(0.969235 -0.0618838 -4.23484e-21)
(0.982382 -0.0450185 6.4873e-21)
(0.990142 -0.0320344 0)
(0.994721 -0.0216189 0)
(0.99729 -0.012922 2.98362e-21)
(0.998705 -0.00446206 0)
(0.732023 -0.315769 -2.07214e-20)
(0.858103 -0.202707 -2.81897e-20)
(0.918633 -0.135514 7.54243e-21)
(0.954077 -0.0944572 0)
(0.974613 -0.0674002 -2.66375e-20)
(0.986486 -0.0482415 7.26635e-21)
(0.993393 -0.0339278 0)
(0.997394 -0.0227106 -1.06457e-20)
(0.999595 -0.0135019 0)
(1.00076 -0.00464954 -1.28872e-21)
(0.781427 -0.369145 -1.79156e-20)
(0.879494 -0.232363 -1.4215e-21)
(0.931984 -0.152103 -4.80777e-21)
(0.962685 -0.103835 0)
(0.980622 -0.0727712 -1.20848e-20)
(0.990947 -0.0513497 -1.63564e-20)
(0.996855 -0.035728 7.22164e-21)
(1.0002 -0.0237315 1.68273e-21)
(1.00199 -0.0140356 6.43079e-22)
(1.00289 -0.00482086 3.5029e-21)
(0.84023 -0.417646 -4.46052e-19)
(0.905262 -0.260288 -1.94763e-20)
(0.947379 -0.168021 2.35928e-21)
(0.972423 -0.11291 -1.96489e-20)
(0.987251 -0.0779543 2.09939e-20)
(0.995756 -0.0543151 -7.04614e-21)
(1.00051 -0.0374157 -2.26847e-20)
(1.00311 -0.024669 1.64697e-20)
(1.00445 -0.0145154 -3.43769e-22)
(1.00507 -0.00497306 4.39816e-21)
(0.907243 -0.460015 1.91653e-21)
(0.935453 -0.286657 1.66235e-20)
(0.964795 -0.183238 5.97768e-21)
(0.983269 -0.121638 6.72337e-22)
(0.99449 -0.0829157 1.41728e-20)
(1.0009 -0.0571127 5.68737e-21)
(1.00436 -0.0389727 7.42569e-21)
(1.00613 -0.02551 -6.02751e-21)
(1.00697 -0.0149334 -2.58992e-21)
(1.00728 -0.00510287 -2.57697e-21)
(0.980652 -0.495199 1.64069e-19)
(0.969599 -0.310868 2.92938e-20)
(0.984217 -0.197591 0)
(0.995193 -0.129953 -6.56968e-21)
(1.00232 -0.0876205 -1.22931e-20)
(1.00636 -0.0597204 2.78146e-21)
(1.00837 -0.0403831 1.94778e-20)
(1.00924 -0.0262434 -5.35161e-21)
(1.00953 -0.0152822 1.45156e-22)
(1.00952 -0.00520723 1.59031e-21)
(1.05639 -0.522527 -2.36569e-19)
(1.00562 -0.331629 -9.68024e-20)
(1.00461 -0.210618 3.57703e-21)
(1.00777 -0.137577 4.05462e-21)
(1.01056 -0.091914 -1.6127e-21)
(1.01206 -0.0620602 1.71229e-20)
(1.01251 -0.0416099 -8.09144e-21)
(1.0124 -0.0268513 7.68023e-22)
(1.01211 -0.0155536 -4.66873e-21)
(1.01177 -0.00528751 -6.94232e-21)
(1.12937 -0.54411 1.5065e-19)
(1.03699 -0.353407 -8.83904e-20)
(1.02149 -0.224996 -4.7923e-22)
(1.01842 -0.145694 1.79283e-20)
(1.01787 -0.0961903 1.62949e-20)
(1.01737 -0.06419 8.43092e-21)
(1.01651 -0.0426049 8.29109e-22)
(1.01552 -0.0272753 0)
(1.01468 -0.015709 5.07061e-21)
(1.01401 -0.00532058 -7.93698e-22)
(1.25782 -0.524942 1.83924e-19)
(1.11291 -0.346868 3.16106e-20)
(1.06385 -0.22451 1.00006e-21)
(1.04285 -0.146551 -3.29907e-21)
(1.0326 -0.0968589 -3.17458e-21)
(1.0267 -0.0644483 8.49816e-21)
(1.02273 -0.0425779 1.11519e-20)
(1.01992 -0.0271248 -7.75667e-22)
(1.01808 -0.0155552 -1.72772e-21)
(1.01686 -0.00524607 2.15363e-21)
(1.30775 -0.453238 6.44683e-21)
(1.15526 -0.311293 4.78141e-20)
(1.096 -0.208841 3.6668e-20)
(1.06497 -0.139137 -3.14015e-21)
(1.04736 -0.0927961 7.09134e-21)
(1.0366 -0.0619004 1.74354e-21)
(1.02958 -0.0408625 2.73351e-21)
(1.02491 -0.0259812 1.29572e-22)
(1.02198 -0.0148702 8.69946e-22)
(1.02015 -0.00500314 4.23387e-21)
(1.35182 -0.386862 -7.521e-20)
(1.19673 -0.275826 -6.53653e-21)
(1.12611 -0.190157 -3.52594e-22)
(1.08574 -0.128797 -1.43244e-36)
(1.06137 -0.0866228 4.39049e-21)
(1.0461 -0.0579676 -8.07751e-36)
(1.03617 -0.0382762 -6.14217e-21)
(1.02968 -0.0243114 -3.57365e-34)
(1.0257 -0.0138962 1.51894e-21)
(1.02326 -0.00466798 -4.40325e-21)
(1.38036 -0.321707 -1.43455e-34)
(1.2291 -0.238142 -7.74941e-21)
(1.1514 -0.168315 -1.34916e-20)
(1.10398 -0.115803 0)
(1.07403 -0.0785508 -5.12507e-21)
(1.05481 -0.0527653 -2.42399e-21)
(1.04225 -0.0348747 1.97612e-21)
(1.0341 -0.0221413 -5.70581e-34)
(1.02914 -0.0126454 1.40695e-21)
(1.02612 -0.00424358 4.40527e-21)
(1.39833 -0.260947 -2.955e-20)
(1.25395 -0.199829 1.99067e-21)
(1.17217 -0.14433 0)
(1.11955 -0.100697 0)
(1.08511 -0.0688575 0)
(1.06255 -0.0464373 0)
(1.0477 -0.0307348 -1.52737e-21)
(1.03806 -0.0195133 -6.43716e-34)
(1.03222 -0.0111393 1.51199e-21)
(1.02869 -0.00373577 5.47729e-34)
(1.4092 -0.204931 6.5326e-21)
(1.27253 -0.161663 0)
(1.18872 -0.118939 0)
(1.13241 -0.0839823 0)
(1.09447 -0.0578425 0)
(1.06917 -0.0391554 0)
(1.05239 -0.0259547 2.89882e-21)
(1.04149 -0.016483 9.65317e-22)
(1.03489 -0.00940723 1.50516e-21)
(1.0309 -0.00315347 4.51205e-21)
(1.41541 -0.153343 0)
(1.28592 -0.124039 -1.79794e-21)
(1.20141 -0.0926587 -6.77286e-21)
(1.14257 -0.0660742 0)
(1.102 -0.0457847 -3.95376e-21)
(1.07456 -0.0310953 -2.41e-21)
(1.05624 -0.020642 1.4645e-21)
(1.0443 -0.013114 -7.82997e-22)
(1.03708 -0.00748342 2.30646e-21)
(1.03272 -0.00250758 4.24595e-21)
(1.41863 -0.105348 -8.3522e-23)
(1.29502 -0.087078 1.25787e-21)
(1.21052 -0.0658498 6.20286e-22)
(1.15005 -0.0473188 5.72071e-36)
(1.10762 -0.0329431 -2.36135e-21)
(1.07862 -0.0224321 -2.27854e-35)
(1.05915 -0.0149088 2.81194e-21)
(1.04643 -0.00947447 8.57792e-21)
(1.03874 -0.00540425 1.37569e-21)
(1.03409 -0.00180863 -4.34667e-21)
(1.41784 -0.0615586 4.57817e-21)
(1.2987 -0.0524845 2.42101e-21)
(1.21472 -0.0401716 4.3467e-21)
(1.15347 -0.0290685 0)
(1.10999 -0.0203209 2.55421e-21)
(1.08005 -0.0138686 1.63764e-21)
(1.05987 -0.00922711 3.76983e-21)
(1.04668 -0.00586587 5.9926e-22)
(1.03869 -0.00334595 8.06344e-22)
(1.03386 -0.00111987 4.43195e-21)
(1.32485 -0.0120311 0)
(1.21776 -0.0111544 0)
(1.14002 -0.00871194 0)
(1.08249 -0.006346 0)
(1.04136 -0.0044529 0)
(1.01291 -0.00304655 0)
(0.993688 -0.00202981 2.75349e-21)
(0.981105 -0.00129172 -1.27313e-35)
(0.973484 -0.000731451 1.4717e-21)
(0.968893 -0.00024094 4.30636e-21)
(1.96506 -0.0450367 7.5178e-19)
(1.95005 -0.138828 4.92245e-20)
(1.91897 -0.229695 -8.95336e-20)
(1.8727 -0.315827 -3.0365e-19)
(1.81262 -0.395515 -8.07544e-20)
(1.74027 -0.467116 -1.35712e-19)
(1.65796 -0.529272 -3.86159e-19)
(1.56568 -0.581678 1.02361e-19)
(1.47476 -0.615842 0)
(1.35529 -0.672446 5.66325e-20)
(1.8849 -0.0336005 2.45899e-19)
(1.87348 -0.104703 -2.7018e-19)
(1.85032 -0.174117 -5.71228e-20)
(1.81598 -0.240538 -1.22826e-19)
(1.77142 -0.302772 7.56019e-20)
(1.71747 -0.359729 1.44333e-19)
(1.65673 -0.41016 -1.07358e-19)
(1.58642 -0.45571 3.28764e-20)
(1.52263 -0.481874 -5.06706e-20)
(1.42963 -0.541376 2.97056e-20)
(1.82019 -0.0259677 -9.87366e-20)
(1.81121 -0.081923 2.37135e-19)
(1.79282 -0.136621 1.43605e-19)
(1.76552 -0.189261 -2.35391e-19)
(1.73013 -0.239044 -1.49189e-20)
(1.68728 -0.285276 2.64865e-19)
(1.63923 -0.326843 2.30329e-20)
(1.58346 -0.365834 -1.3908e-20)
(1.53194 -0.389086 4.55809e-21)
(1.46313 -0.440929 1.14497e-20)
(1.76931 -0.0202827 -2.77531e-19)
(1.76193 -0.0637814 -6.25714e-20)
(1.74678 -0.106452 3.61485e-20)
(1.7243 -0.147735 -1.00953e-20)
(1.69521 -0.187059 -1.64617e-19)
(1.6601 -0.223963 -6.99012e-20)
(1.62067 -0.257529 1.42195e-19)
(1.57575 -0.289555 8.94715e-22)
(1.53258 -0.309752 1.70295e-20)
(1.48053 -0.351669 1.10463e-20)
(1.72947 -0.0156558 2.0429e-20)
(1.72322 -0.0491185 1.24972e-19)
(1.71032 -0.0820112 -6.41937e-21)
(1.6912 -0.113953 1.28716e-19)
(1.66648 -0.144545 -4.17589e-20)
(1.6368 -0.173467 -1.62201e-19)
(1.60336 -0.200023 2.41222e-20)
(1.56613 -0.225529 -6.0413e-20)
(1.52879 -0.242573 2.3516e-20)
(1.48798 -0.275161 1.15446e-20)
(1.69883 -0.0119206 -1.44191e-19)
(1.69335 -0.0370422 -5.16258e-20)
(1.68203 -0.0617896 -1.99545e-20)
(1.66523 -0.085914 7.71774e-20)
(1.64353 -0.109144 1.98275e-19)
(1.61759 -0.131254 -4.32263e-20)
(1.58828 -0.151745 3.7062e-21)
(1.55631 -0.171496 -3.37461e-20)
(1.52307 -0.185383 -4.2447e-20)
(1.48968 -0.209955 -2.15177e-20)
(1.67603 -0.00881021 -3.78098e-20)
(1.6711 -0.0268106 -9.52647e-20)
(1.66086 -0.0445844 -1.29314e-19)
(1.64566 -0.0619872 -2.02343e-19)
(1.62601 -0.0788502 6.44958e-20)
(1.60261 -0.0950251 4.57023e-20)
(1.57606 -0.110175 -6.43197e-21)
(1.54759 -0.124859 4.09521e-20)
(1.51715 -0.135648 -3.73153e-20)
(1.48854 -0.153559 -2.03926e-20)
(1.66003 -0.00616269 5.64558e-20)
(1.65551 -0.0178441 6.3817e-21)
(1.64602 -0.0294123 1.10677e-20)
(1.6319 -0.0408086 -2.28946e-20)
(1.61363 -0.0519489 -2.04533e-20)
(1.59186 -0.0627516 -4.87507e-20)
(1.56708 -0.0730183 -2.67476e-20)
(1.54075 -0.083097 5.66413e-20)
(1.51204 -0.0908399 -1.93237e-20)
(1.48633 -0.103259 -2.39048e-21)
(1.64463 -0.00388094 -7.47915e-20)
(1.64075 -0.00977136 -2.16168e-20)
(1.63228 -0.0156501 1.16558e-19)
(1.61947 -0.0215378 -2.51408e-20)
(1.60271 -0.0274332 -2.76519e-20)
(1.58257 -0.0333215 4.83942e-20)
(1.55937 -0.0390902 -3.445e-20)
(1.53467 -0.045015 2.60179e-20)
(1.50701 -0.0496236 -2.06379e-20)
(1.48321 -0.0579556 -4.93063e-20)
(1.45913 -0.00107229 5.25051e-20)
(1.45634 -0.00121344 4.52773e-20)
(1.45198 -0.00141813 4.41776e-20)
(1.44599 -0.00174114 7.07866e-20)
(1.43827 -0.00222741 -3.13056e-20)
(1.42883 -0.00289315 -4.82516e-20)
(1.41728 -0.0037466 1.8304e-20)
(1.40492 -0.004826 1.43817e-21)
(1.38799 -0.00553493 -2.47899e-21)
(1.37864 -0.00928092 2.33583e-21)
(1.33632 0.70633 -4.6021e-20)
(1.33884 0.749521 2.81612e-20)
(1.34555 0.799284 -3.17572e-19)
(1.35238 0.854422 2.42163e-19)
(1.35979 0.913672 6.00303e-19)
(1.36758 0.977679 -1.53761e-19)
(1.3745 1.04678 -7.28272e-19)
(1.36944 1.11259 -7.15824e-20)
(1.27779 1.09869 -5.95723e-19)
(0.751175 0.705573 7.75692e-21)
(1.45893 0.685824 0)
(1.46847 0.727535 4.62447e-19)
(1.47948 0.775824 1.0018e-18)
(1.49198 0.829082 -5.72368e-19)
(1.50615 0.886695 -1.40383e-18)
(1.52178 0.949369 -1.41849e-19)
(1.53754 1.01729 -1.81144e-19)
(1.54057 1.08204 6.81552e-19)
(1.44496 1.06704 1.37915e-18)
(0.853191 0.685979 5.90785e-19)
(1.57021 0.652784 6.54683e-20)
(1.58691 0.69299 0)
(1.60483 0.738494 -7.01142e-20)
(1.62457 0.788258 6.00327e-19)
(1.64642 0.842405 5.41777e-20)
(1.67043 0.901712 -1.61755e-18)
(1.69529 0.96634 1.0585e-18)
(1.70636 1.02809 7.99923e-19)
(1.60649 1.01143 -1.27196e-18)
(0.951128 0.650923 -3.16904e-19)
(1.67266 0.602447 -8.12768e-20)
(1.69583 0.640357 -7.19864e-20)
(1.7207 0.682511 1.95117e-19)
(1.74774 0.728335 -2.44725e-19)
(1.77735 0.778283 -1.2161e-18)
(1.80979 0.833131 -9.29266e-19)
(1.84365 0.893091 1.10027e-18)
(1.8624 0.950499 8.05499e-19)
(1.75788 0.931998 0)
(1.04189 0.600592 0)
(1.7669 0.53664 -7.38445e-19)
(1.7955 0.571229 -1.17585e-18)
(1.82639 0.609228 -4.85314e-19)
(1.85997 0.650341 -3.80517e-20)
(1.89672 0.695156 0)
(1.93699 0.744401 1.57035e-19)
(1.97919 0.798387 1.855e-19)
(2.00483 0.850292 2.36371e-19)
(1.89506 0.830001 -3.65434e-19)
(1.12279 0.536012 -9.58541e-20)
(1.85089 0.458045 8.39987e-19)
(1.88389 0.488225 -5.35384e-20)
(1.9198 0.521074 -9.9567e-19)
(1.95899 0.556493 0)
(2.00196 0.595093 0)
(2.04912 0.637526 0)
(2.09866 0.684235 1.4371e-18)
(2.13008 0.729651 -1.93937e-18)
(2.01437 0.707718 -1.91674e-18)
(1.19156 0.458831 2.43752e-19)
(1.92192 0.368862 -1.15264e-18)
(1.95843 0.39369 -2.38493e-18)
(1.99843 0.420445 -4.0812e-21)
(2.04223 0.449212 4.63803e-19)
(2.09038 0.480552 -4.72397e-20)
(2.1433 0.515001 1.14546e-18)
(2.19897 0.5532 -6.81306e-19)
(2.23499 0.591453 -2.48989e-18)
(2.11255 0.568119 1.61789e-19)
(1.24632 0.371059 1.4762e-19)
(1.97764 0.271164 -9.56782e-19)
(2.01684 0.2899 2.31177e-20)
(2.05998 0.309782 3.67798e-19)
(2.10737 0.331107 -3.45881e-19)
(2.15954 0.354322 5.19078e-19)
(2.21689 0.379751 1.62549e-18)
(2.27741 0.408054 -2.67769e-19)
(2.3168 0.439091 -1.48615e-18)
(2.18704 0.414918 5.60512e-19)
(1.28503 0.274876 1.68638e-19)
(2.01623 0.167118 3.42854e-19)
(2.05732 0.179229 1.10417e-19)
(2.10267 0.19165 -4.08443e-19)
(2.15258 0.204949 -8.5132e-19)
(2.20757 0.219531 1.23869e-19)
(2.26805 0.23509 1.40608e-19)
(2.33123 0.25182 -1.73096e-18)
(2.37346 0.275588 8.71825e-19)
(2.23562 0.252861 4.41223e-19)
(1.30647 0.173945 -3.49403e-19)
(2.03655 0.0590136 7.11909e-19)
(2.07871 0.0640828 -1.05082e-18)
(2.12522 0.0686455 2.11292e-19)
(2.17646 0.0734695 2.19302e-18)
(2.23299 0.0788984 1.20765e-18)
(2.29514 0.085907 -2.71745e-18)
(2.36013 0.0885722 -3.27233e-18)
(2.40179 0.103617 2.11809e-18)
(2.25751 0.086831 -1.60542e-20)
(1.31038 0.0714836 -1.19276e-19)
(0.534655 0.169666 -2.39436e-19)
(0.504061 0.175426 -2.17902e-19)
(0.462937 0.181764 1.43316e-19)
(0.41565 0.188678 -4.88383e-19)
(0.364192 0.196195 -7.43681e-20)
(0.307602 0.204428 4.27016e-19)
(0.244713 0.213398 1.43939e-19)
(0.174787 0.221732 -1.17181e-19)
(0.100454 0.216774 -3.36331e-20)
(0.0191569 0.139319 4.47744e-20)
(0.558766 0.267427 1.94282e-19)
(0.529076 0.279502 2.9717e-19)
(0.489273 0.292911 3.71442e-20)
(0.443474 0.307583 -1.46186e-19)
(0.393648 0.323505 -4.67435e-19)
(0.338884 0.340904 4.64479e-20)
(0.278028 0.359852 3.4863e-19)
(0.210048 0.377883 -3.21806e-20)
(0.135171 0.372283 2.78883e-22)
(0.0410373 0.239176 1.79626e-21)
(0.599571 0.361099 -2.23469e-19)
(0.571489 0.379218 -2.58725e-19)
(0.533974 0.399317 2.22405e-19)
(0.490713 0.421343 2.2134e-19)
(0.44365 0.445248 -6.53578e-20)
(0.391954 0.471368 -2.1918e-19)
(0.334494 0.499816 -8.90347e-20)
(0.269742 0.527079 1.14389e-19)
(0.193792 0.520841 -1.42686e-20)
(0.0778107 0.334535 1.03398e-20)
(0.655926 0.448511 1.34334e-19)
(0.630134 0.472291 2.02827e-20)
(0.595839 0.498534 -1.78025e-19)
(0.556134 0.52734 1.79676e-19)
(0.512929 0.55863 -1.23546e-19)
(0.465506 0.592831 7.0951e-20)
(0.412757 0.630093 -3.25485e-20)
(0.352469 0.665914 -1.33065e-19)
(0.275076 0.659035 -1.89909e-19)
(0.128748 0.423313 5.93291e-20)
(0.726283 0.527571 -4.93164e-20)
(0.703441 0.556528 -2.5045e-20)
(0.673257 0.588216 -4.49334e-20)
(0.638083 0.623064 -1.04398e-19)
(0.599782 0.660972 4.0659e-20)
(0.557775 0.702437 -1.82051e-19)
(0.510977 0.747635 2.60748e-19)
(0.456315 0.791149 1.06591e-19)
(0.377375 0.783549 2.72216e-19)
(0.192843 0.503328 2.30057e-19)
(0.808745 0.596258 3.67379e-20)
(0.789482 0.62982 -1.24692e-20)
(0.764242 0.666116 2.4946e-19)
(0.734517 0.706124 9.27501e-20)
(0.702107 0.749737 1.17594e-19)
(0.666588 0.797494 4.45392e-22)
(0.626895 0.849582 2.64001e-19)
(0.578934 0.899756 1.63458e-19)
(0.498418 0.891288 1.88381e-19)
(0.268599 0.572474 1.96672e-19)
(0.901169 0.652789 -9.7645e-20)
(0.886072 0.690276 1.78904e-19)
(0.866544 0.730205 6.44765e-20)
(0.843128 0.774351 5.66301e-21)
(0.817524 0.822617 -6.52441e-21)
(0.789468 0.875553 3.63502e-19)
(0.757908 0.93334 -1.02526e-19)
(0.717586 0.988995 -2.29349e-19)
(0.635436 0.979469 -4.20559e-20)
(0.354168 0.628931 2.52203e-19)
(1.00062 0.695396 1.38186e-19)
(0.990196 0.735814 5.71182e-20)
(0.977153 0.778272 -4.83519e-19)
(0.960962 0.825502 -1.12097e-20)
(0.943109 0.877361 1.99518e-19)
(0.923472 0.934339 -2.20858e-19)
(0.900993 0.996583 -2.41422e-20)
(0.86912 1.05647 -1.13858e-19)
(0.785223 1.04572 1.68059e-20)
(0.44742 0.671223 -2.65943e-19)
(1.1056 0.722234 2.70838e-20)
(1.10086 0.764976 -3.35504e-19)
(1.09516 0.8088 -2.13723e-21)
(1.08681 0.857907 2.18339e-19)
(1.0772 0.912196 -1.90069e-19)
(1.06646 0.972024 4.22756e-19)
(1.05357 1.03745 3.45919e-19)
(1.03056 1.10033 -6.78314e-19)
(0.944562 1.08832 -7.65292e-20)
(0.546181 0.69838 -3.4686e-19)
(1.20038 0.729896 -1.5505e-19)
(1.20571 0.774757 -1.61724e-19)
(1.21136 0.819522 2.19316e-19)
(1.21363 0.869907 3.54568e-19)
(1.21425 0.92582 1.73936e-19)
(1.21385 0.987453 -3.50193e-19)
(1.21155 1.05482 -2.78036e-20)
(1.19798 1.11944 1.45619e-19)
(1.10966 1.10617 -3.29432e-19)
(0.648071 0.709831 -2.66342e-19)
(0.621098 0.0242596 4.59404e-20)
(1.22169 0.030966 -3.07331e-20)
(0.928788 0.0353622 2.4225e-20)
(0.987589 0.0395518 0)
(0.979009 0.0469212 2.65467e-20)
(0.963149 0.0569577 3.0107e-20)
(0.938368 0.06994 3.80861e-20)
(0.894128 0.0864542 7.72731e-20)
(0.828084 0.108606 -1.10184e-19)
(0.654727 0.138612 -1.22273e-19)
(0.620936 0.0229624 4.54941e-20)
(1.22227 0.0313144 -1.14338e-19)
(0.929697 0.0381705 -5.40462e-21)
(0.989419 0.0416248 -1.46018e-20)
(0.981617 0.0502706 1.206e-20)
(0.966663 0.0625445 -1.59269e-20)
(0.942969 0.0795256 -9.54367e-20)
(0.900578 0.103467 0)
(0.836384 0.141242 2.4534e-19)
(0.673213 0.199159 -2.66756e-19)
(0.62062 0.0215875 -1.13922e-19)
(1.22297 0.0315343 2.15008e-20)
(0.930466 0.0407647 1.88654e-20)
(0.991484 0.0435253 1.72328e-20)
(0.984587 0.0534838 -2.83163e-20)
(0.970797 0.0680238 -4.98121e-22)
(0.948677 0.0890185 -6.79042e-20)
(0.909381 0.120334 -6.84313e-21)
(0.848525 0.173225 2.7851e-22)
(0.703785 0.257966 6.7033e-19)
(0.620144 0.0202715 2.92697e-20)
(1.22375 0.0316327 2.3618e-20)
(0.931104 0.0430856 3.14307e-20)
(0.993806 0.0452267 1.55692e-20)
(0.987931 0.0565371 -1.52801e-20)
(0.975561 0.0733552 -1.86528e-20)
(0.955511 0.0983441 1.015e-19)
(0.920448 0.136902 -2.19093e-21)
(0.864672 0.204152 -3.01749e-19)
(0.745826 0.313938 6.96098e-20)
(0.619495 0.0191238 -1.49239e-20)
(1.22455 0.031605 -6.08499e-20)
(0.931622 0.0450692 -2.90024e-20)
(0.996411 0.0467104 6.07855e-21)
(0.991657 0.0594118 0)
(0.980959 0.0785032 0)
(0.96349 0.10744 8.65125e-20)
(0.933684 0.153051 7.32638e-22)
(0.88504 0.233812 -1.46474e-19)
(0.79847 0.365942 9.93917e-20)
(0.618648 0.0182486 -1.5214e-20)
(1.22528 0.0314329 6.6109e-20)
(0.932036 0.0466455 -3.31613e-20)
(0.999329 0.0479696 -3.30999e-20)
(0.995772 0.0620936 -1.66218e-21)
(0.986996 0.0834379 7.46366e-20)
(0.972629 0.116259 1.34661e-19)
(0.949036 0.168695 -6.48492e-22)
(0.909829 0.262397 2.44353e-19)
(0.860578 0.412679 -2.09785e-19)
(0.617572 0.0177567 -3.00742e-20)
(1.22586 0.0310806 2.21837e-20)
(0.932373 0.0477379 1.67434e-20)
(1.0026 0.0490135 -5.27874e-20)
(1.00027 0.0645717 4.32981e-21)
(0.993673 0.0881348 -1.20306e-21)
(0.982945 0.124767 -7.75905e-21)
(0.966565 0.183751 -2.33734e-19)
(0.939021 0.289532 1.86931e-19)
(0.930813 0.453319 -4.7394e-19)
(0.616224 0.0177588 3.85732e-20)
(1.22616 0.0304889 -1.0593e-19)
(0.932673 0.0482647 -4.94224e-21)
(1.00626 0.0498706 4.40383e-20)
(1.00515 0.0668316 1.94303e-21)
(1.00099 0.0925637 -8.62515e-20)
(0.99446 0.13292 -7.35705e-20)
(0.986217 0.198143 4.19975e-19)
(0.972787 0.314108 9.91294e-21)
(1.00743 0.48866 7.59207e-19)
(0.614548 0.0183965 -3.56563e-20)
(1.22607 0.0295867 5.21719e-20)
(0.932996 0.0481354 -7.88855e-20)
(1.01034 0.050568 -4.71927e-20)
(1.01037 0.0688012 -1.0057e-19)
(1.0089 0.0965375 1.96957e-21)
(1.00709 0.140201 -1.01599e-19)
(1.00781 0.210434 5.45099e-19)
(1.01175 0.331811 -6.48845e-21)
(1.0886 0.513747 -1.04299e-18)
(0.612531 0.0197301 1.98719e-20)
(1.22586 0.0285021 8.66429e-20)
(0.93341 0.0472766 2.95556e-20)
(1.01469 0.0510393 -1.08648e-19)
(1.01536 0.070456 -9.17576e-20)
(1.016 0.100401 -7.22223e-20)
(1.01758 0.148111 -1.82562e-19)
(1.02423 0.225365 -5.18006e-19)
(1.04231 0.355556 -2.95762e-19)
(1.15637 0.549757 -1.21227e-18)
(0.614848 0.0202128 -5.56523e-20)
(1.22714 0.0271328 -1.81828e-20)
(0.935634 0.0447471 -1.7367e-20)
(1.01991 0.0507448 -2.43162e-22)
(1.02375 0.0702368 5.83035e-20)
(1.02961 0.100626 -4.97638e-20)
(1.04013 0.148415 1.65669e-19)
(1.0625 0.223678 -5.16619e-19)
(1.10627 0.343319 -2.09234e-19)
(1.24918 0.522468 6.74216e-19)
(0.61521 0.0186688 5.00945e-20)
(1.23034 0.0256697 2.1502e-20)
(0.939893 0.0405945 3.69014e-20)
(1.02486 0.0487157 4.37056e-20)
(1.03292 0.0674669 8.7873e-20)
(1.044 0.0967873 1.42171e-19)
(1.06248 0.14202 3.44923e-20)
(1.09667 0.210973 2.74535e-19)
(1.15408 0.312633 3.56604e-19)
(1.30916 0.458903 -2.90935e-20)
(0.615402 0.0165766 -5.52024e-20)
(1.23338 0.0236433 -2.01273e-20)
(0.944146 0.0364265 -4.86659e-20)
(1.02994 0.0454517 2.08196e-20)
(1.04172 0.0631068 2.3998e-34)
(1.05754 0.0904052 -1.041e-20)
(1.08288 0.131638 -6.3655e-34)
(1.12635 0.192387 2.25375e-20)
(1.19381 0.276176 -5.66911e-20)
(1.35197 0.390107 -4.63412e-20)
(0.615641 0.0138516 7.17878e-20)
(1.23616 0.0209702 -1.95201e-34)
(0.948132 0.0320429 4.8426e-20)
(1.03488 0.0411878 -1.90828e-20)
(1.04984 0.0573855 -3.48928e-20)
(1.0698 0.0820356 -4.60758e-20)
(1.10084 0.118507 -7.95984e-34)
(1.15119 0.170558 -1.17566e-19)
(1.22531 0.238084 -1.53223e-19)
(1.37987 0.324731 8.92627e-20)
(0.61595 0.0104985 0)
(1.23877 0.0177231 2.23711e-35)
(0.951787 0.027394 0)
(1.03946 0.036082 0)
(1.0571 0.0504622 0)
(1.08055 0.0719695 0)
(1.11619 0.103178 -4.77746e-34)
(1.17147 0.14644 0)
(1.24965 0.199612 -2.25134e-20)
(1.39693 0.263748 5.49831e-20)
(0.616351 0.00653073 5.79449e-20)
(1.24129 0.0139888 -3.1379e-21)
(0.955071 0.0224955 4.76765e-20)
(1.04354 0.030284 0)
(1.06335 0.0425217 0)
(1.08964 0.0605113 8.83788e-21)
(1.12886 0.0861608 3.31541e-20)
(1.18757 0.12081 -1.66573e-20)
(1.26795 0.161454 -3.38929e-20)
(1.40684 0.207365 2.01821e-19)
(0.616876 0.00185198 -1.37324e-20)
(1.2438 0.00986943 5.62265e-21)
(0.957951 0.0174186 4.72182e-20)
(1.04698 0.0239433 -6.29186e-21)
(1.06848 0.0337593 -1.19423e-20)
(1.09698 0.0479562 -8.94928e-21)
(1.13888 0.0678928 -2.46623e-20)
(1.19987 0.0942427 -4.71198e-20)
(1.28123 0.123958 -6.22985e-20)
(1.41221 0.155342 1.05643e-19)
(0.617573 -0.00297419 -7.79623e-20)
(1.24644 0.0054031 -4.3531e-20)
(0.960391 0.0122747 4.55336e-20)
(1.04967 0.017216 -1.46481e-20)
(1.07238 0.0243758 1.24581e-34)
(1.10249 0.0345858 9.5171e-21)
(1.14627 0.0487417 -1.15519e-33)
(1.2087 0.0671208 -1.68778e-20)
(1.2903 0.0871563 2.17801e-20)
(1.41482 0.106839 2.84138e-20)
(0.617972 -0.0108781 2.0843e-19)
(1.2479 0.00164282 -1.12871e-20)
(0.961327 0.00705119 4.61535e-20)
(1.05043 0.0106445 3.08672e-21)
(1.07392 0.0150527 4.92594e-21)
(1.10506 0.0213365 1.7295e-20)
(1.15003 0.0299549 1.00807e-20)
(1.21328 0.0409823 -5.03555e-21)
(1.29474 0.0526523 -2.32543e-20)
(1.41461 0.0630388 1.42193e-19)
(0.59241 -0.0102158 6.18121e-20)
(1.17767 -0.00361219 -1.47154e-34)
(0.898549 0.00269904 4.55451e-20)
(0.98564 0.00215546 0)
(1.0078 0.00332112 0)
(1.03766 0.00473354 9.78166e-21)
(1.08066 0.00663837 -1.05423e-35)
(1.14065 0.00908475 -1.68207e-20)
(1.21731 0.0115593 -3.23285e-20)
(1.32633 0.0132682 6.34065e-20)
(1.38658 0.6186 -1.93061e-19)
(1.4689 0.613035 -2.9741e-19)
(1.56126 0.581823 0)
(1.6487 0.532441 7.86414e-20)
(1.72977 0.470526 4.04223e-19)
(1.80252 0.398924 -1.71534e-19)
(1.86419 0.319377 1.26716e-18)
(1.91262 0.233475 -3.33425e-20)
(1.94627 0.142916 -3.74015e-19)
(1.96386 0.0495974 3.05958e-19)
(1.4341 0.506944 6.51537e-20)
(1.50106 0.492555 1.21282e-19)
(1.57851 0.457382 1.68446e-21)
(1.64923 0.412573 1.47001e-19)
(1.71167 0.361612 -1.4258e-19)
(1.76612 0.305078 -3.90443e-19)
(1.81158 0.243515 -5.13658e-20)
(1.84695 0.17775 5.65166e-19)
(1.87131 0.108825 -1.71266e-20)
(1.88414 0.037893 -4.55963e-19)