/*--------------------------------*- C++ -*----------------------------------*\
  =========                 |
  \\      /  F ield         | OpenFOAM: The Open Source CFD Toolbox
   \\    /   O peration     | Website:  https://openfoam.org
    \\  /    A nd           | Version:  13
     \\/     M anipulation  |
\*---------------------------------------------------------------------------*/
FoamFile
{
    format      ascii;
    class       volVectorField;
    location    "1.75";
    object      U;
}
// * * * * * * * * * * * * * * * * * * * * * * * * * * * * * * * * * * * * * //

dimensions      [0 1 -1 0 0 0 0];

internalField   nonuniform List<vector> 
1800
(
(-0.0571324 0.0518527 2.26076e-20)
(-0.103361 0.10678 1.03753e-20)
(-0.0726423 0.125375 -5.8588e-20)
(0.0327016 0.107177 3.79804e-20)
(0.20846 0.0570795 5.56445e-20)
(0.444654 -0.0177748 1.09539e-21)
(0.724753 -0.108231 8.48585e-21)
(1.02406 -0.206218 6.10074e-20)
(1.33016 -0.295182 1.91983e-20)
(1.56429 -0.380519 4.43346e-21)
(-0.0552178 0.043253 9.04692e-21)
(-0.0691561 0.070228 -1.05903e-19)
(0.0146389 0.0594324 5.57959e-22)
(0.188252 0.0161403 -7.87842e-20)
(0.439803 -0.050817 3.43453e-20)
(0.747221 -0.131644 5.3174e-20)
(1.07974 -0.216311 -1.5525e-20)
(1.40483 -0.29683 4.88181e-20)
(1.69603 -0.362395 1.38694e-19)
(1.91931 -0.429339 -1.00876e-19)
(-0.045704 0.0316458 9.12542e-21)
(-0.00939858 0.0324442 2.94805e-20)
(0.147418 -0.00244379 -5.5745e-21)
(0.406294 -0.0628348 -6.39673e-21)
(0.738839 -0.136294 -1.50682e-19)
(1.1043 -0.211428 3.32643e-20)
(1.45925 -0.279469 1.01384e-19)
(1.76919 -0.335313 -1.45032e-20)
(2.01429 -0.377123 -2.00378e-21)
(2.19892 -0.41701 3.14552e-21)
(-0.0246241 0.0163396 -1.12544e-20)
(0.0830965 -0.00809747 -3.38364e-20)
(0.330544 -0.0603696 -3.18823e-20)
(0.681014 -0.126576 3.79961e-20)
(1.08159 -0.193303 3.8084e-20)
(1.47377 -0.251164 1.31792e-20)
(1.81195 -0.295769 -7.29696e-21)
(2.07249 -0.327449 2.34214e-19)
(2.25517 -0.346202 2.61369e-19)
(2.36182 -0.362212 -1.27897e-19)
(0.0106518 -0.00105259 7.78897e-20)
(0.211955 -0.0468016 7.11297e-20)
(0.561367 -0.106561 -5.28641e-20)
(0.994509 -0.165375 -6.32189e-20)
(1.43278 -0.213707 -2.48502e-19)
(1.81213 -0.248283 3.59327e-21)
(2.1004 -0.270363 4.05359e-19)
(2.29523 -0.282855 1.61951e-19)
(2.41111 -0.288267 -1.88907e-21)
(2.47383 -0.296467 -1.68917e-19)
(0.0617317 -0.0176049 -6.96302e-20)
(0.375894 -0.0757574 -1.38112e-20)
(0.827101 -0.130193 2.74781e-19)
(1.31805 -0.169758 -1.35369e-19)
(1.75599 -0.194042 -2.67995e-19)
(2.09019 -0.206773 6.03519e-19)
(2.31329 -0.21209 -5.68966e-19)
(2.44369 -0.213419 -7.91833e-19)
(2.50907 -0.212158 6.20688e-19)
(2.52898 -0.213725 1.07066e-21)
(0.128493 -0.0299679 6.83256e-20)
(0.56753 -0.0870755 -1.86331e-19)
(1.10647 -0.122802 -7.62084e-19)
(1.62122 -0.136391 4.17526e-19)
(2.0264 -0.138094 9.18157e-19)
(2.29918 -0.135226 -3.4404e-21)
(2.45808 -0.131487 -1.85675e-18)
(2.53622 -0.12831 1.66487e-20)
(2.56383 -0.125856 2.09687e-18)
(2.56301 -0.12828 5.691e-19)
(0.208584 -0.0344737 5.13639e-20)
(0.773513 -0.0740355 3.54448e-19)
(1.37494 -0.080323 7.11509e-19)
(1.88122 -0.067517 -9.21581e-20)
(2.2344 -0.0524015 -7.55832e-19)
(2.44389 -0.0411126 -2.86946e-19)
(2.54823 -0.0345546 0)
(2.58732 -0.0317418 8.22571e-19)
(2.59054 -0.0313348 -1.6902e-20)
(2.57341 -0.0351083 -7.60268e-19)
(0.297433 -0.027842 4.07433e-20)
(0.977367 -0.0330577 4.97279e-19)
(1.61206 -0.0043674 9.4717e-19)
(2.08678 0.0306497 -1.05127e-18)
(2.38153 0.0556435 -9.21754e-19)
(2.53426 0.0689547 3.36797e-19)
(2.59606 0.0734763 -1.55511e-18)
(2.60807 0.0727566 -1.17509e-18)
(2.59539 0.069145 1.41491e-18)
(2.56983 0.0616639 1.22726e-18)
(0.388804 -0.00785599 1.46891e-20)
(1.16317 0.0355054 3.97597e-19)
(1.80476 0.0997754 2.23665e-19)
(2.23509 0.151055 -1.87757e-18)
(2.47332 0.179646 2.96721e-20)
(2.57907 0.190108 3.58425e-18)
(2.60958 0.189427 -2.06106e-18)
(2.60362 0.18316 -1.17707e-18)
(2.58141 0.174232 4.20883e-19)
(2.55041 0.162356 -9.55789e-19)
(-0.0130999 0.135179 1.96437e-19)
(-0.0690257 0.229335 -1.25218e-19)
(-0.134215 0.235921 1.00733e-21)
(-0.198107 0.20203 -2.74544e-20)
(-0.253018 0.151979 5.08237e-22)
(-0.297555 0.097499 4.38226e-20)
(-0.332403 0.0439892 8.20869e-20)
(-0.358556 -0.00673582 -1.35764e-20)
(-0.374854 -0.0551168 1.62036e-20)
(-0.375524 -0.102663 -4.38949e-20)
(-0.0289125 0.194638 -1.79683e-20)
(-0.0908838 0.34588 5.34337e-21)
(-0.152243 0.370418 6.63183e-21)
(-0.208243 0.332769 2.4271e-20)
(-0.254085 0.26847 -1.80915e-19)
(-0.289239 0.195148 2.78853e-20)
(-0.31442 0.121111 -5.60983e-20)
(-0.330622 0.0497104 -7.59762e-20)
(-0.33675 -0.0187046 -1.54992e-19)
(-0.325966 -0.0852054 4.85627e-20)
(-0.0499074 0.236724 -1.1263e-19)
(-0.119777 0.438882 3.48603e-20)
(-0.174958 0.485016 1.70652e-20)
(-0.218489 0.449163 -1.43042e-19)
(-0.249878 0.374984 -3.74085e-20)
(-0.269928 0.285176 3.27593e-19)
(-0.279396 0.191074 -2.16857e-19)
(-0.279122 0.0981831 5.85053e-20)
(-0.268404 0.00878632 -1.21708e-19)
(-0.239709 -0.076369 -1.2423e-19)
(-0.0706171 0.253838 -1.39359e-19)
(-0.148203 0.495561 1.0129e-20)
(-0.194999 0.567525 3.85784e-20)
(-0.22184 0.541777 -1.69721e-19)
(-0.233632 0.465151 3.75016e-19)
(-0.23288 0.363678 -1.09275e-19)
(-0.220564 0.25155 -1.37683e-19)
(-0.197266 0.136752 1.53706e-19)
(-0.162882 0.0245739 4.76449e-20)
(-0.110329 -0.0806323 -6.70059e-21)
(-0.0848192 0.242382 0)
(-0.168044 0.505043 6.87446e-20)
(-0.205531 0.604929 -2.41834e-19)
(-0.212923 0.598988 1.24845e-19)
(-0.20105 0.530049 1.95704e-19)
(-0.174841 0.425444 -2.34959e-19)
(-0.135482 0.301208 1.03323e-19)
(-0.083493 0.166845 -1.20582e-19)
(-0.0215028 0.0288529 0)
(0.0588731 -0.10057 -1.10032e-20)
(-0.0884146 0.206516 2.0229e-20)
(-0.174079 0.464848 5.74967e-21)
(-0.203945 0.587039 -8.73865e-20)
(-0.194841 0.606035 1.18187e-19)
(-0.160012 0.554919 -8.11981e-20)
(-0.106869 0.459034 2.22263e-19)
(-0.0389272 0.334223 -3.92879e-19)
(0.0421502 0.189816 3.42164e-20)
(0.134878 0.0318785 1.39578e-19)
(0.252295 -0.121482 -4.33973e-21)
(-0.0818378 0.158319 5.28702e-21)
(-0.166798 0.386339 2.67915e-20)
(-0.192308 0.515127 4.39482e-20)
(-0.171723 0.554419 9.12003e-21)
(-0.11837 0.52465 -2.70938e-20)
(-0.0409707 0.445724 1.90969e-19)
(0.0551454 0.332031 1.92219e-19)
(0.166991 0.192414 2.21947e-19)
(0.291788 0.0315728 -6.12262e-20)
(0.452536 -0.135982 7.30834e-20)
(-0.0703415 0.112765 -8.93707e-21)
(-0.151743 0.293608 -3.19901e-20)
(-0.174918 0.408941 6.03983e-21)
(-0.14737 0.453591 -2.4711e-21)
(-0.0798529 0.437024 -3.17697e-20)
(0.0193199 0.372763 -2.27462e-19)
(0.144182 0.272333 -2.56422e-19)
(0.291881 0.1452 1.72282e-19)
(0.453957 -0.00566479 3.52981e-20)
(0.668652 -0.173126 4.80268e-20)
(-0.0608577 0.0802072 -3.2143e-20)
(-0.136079 0.21126 -1.56542e-19)
(-0.153916 0.298053 1.20852e-19)
(-0.116878 0.331113 4.72083e-20)
(-0.0317371 0.313896 2.81327e-20)
(0.0950379 0.254882 -1.40776e-19)
(0.257712 0.162972 -1.07539e-20)
(0.450976 0.0471576 3.40684e-19)
(0.657947 -0.0891258 1.77712e-20)
(0.930003 -0.237838 3.20526e-20)
(-0.0571234 0.0618175 -1.15977e-20)
(-0.122055 0.150307 -1.22157e-19)
(-0.124212 0.202509 -4.98561e-20)
(-0.0641551 0.212086 6.14448e-20)
(0.0545657 0.181534 -5.67812e-21)
(0.226301 0.117159 6.04766e-20)
(0.442694 0.0265002 1.04242e-19)
(0.690743 -0.0817601 -6.47975e-20)
(0.949986 -0.199111 -8.21582e-21)
(1.2466 -0.310875 -6.39496e-20)
(-0.313597 -0.34573 4.94498e-19)
(0.115398 -0.361477 -2.4063e-19)
(0.537034 -0.263043 -5.20651e-20)
(0.745558 -0.198622 2.24259e-20)
(0.886153 -0.151579 -1.20248e-20)
(0.964375 -0.114144 -9.96571e-21)
(1.00684 -0.0900001 -1.11248e-20)
(1.03324 -0.0639458 -2.24995e-21)
(1.04572 -0.0551181 1.22388e-20)
(1.06016 -0.0366624 2.01125e-21)
(-0.197584 -0.426039 5.26695e-19)
(0.152882 -0.494063 2.51995e-19)
(0.56892 -0.352179 -6.57362e-21)
(0.765507 -0.252479 -3.57781e-20)
(0.89968 -0.18212 -5.84012e-20)
(0.974094 -0.131187 0)
(1.01422 -0.09976 -1.27302e-20)
(1.03841 -0.0694155 4.29548e-21)
(1.04989 -0.0587099 2.99211e-22)
(1.06255 -0.038648 -3.93117e-21)
(-0.0161472 -0.50432 -6.96399e-19)
(0.234538 -0.60873 -1.26785e-19)
(0.621098 -0.439256 5.91911e-20)
(0.796151 -0.30448 8.71949e-21)
(0.918301 -0.211641 -8.27179e-22)
(0.98636 -0.147603 4.1508e-21)
(1.02295 -0.10902 0)
(1.04428 -0.0745072 0)
(1.05448 -0.0619508 -6.06181e-21)
(1.0651 -0.0403801 0)
(0.223069 -0.57753 -1.08157e-19)
(0.374739 -0.700652 4.74897e-19)
(0.699369 -0.518369 -2.42264e-20)
(0.840684 -0.352342 0)
(0.943104 -0.239148 7.37362e-20)
(1.00145 -0.162947 -1.33221e-20)
(1.03305 -0.117565 0)
(1.05083 -0.0791111 1.71526e-20)
(1.05946 -0.0647718 0)
(1.06779 -0.0418236 2.41293e-21)
(0.505964 -0.643821 -3.04748e-19)
(0.565358 -0.769573 2.99125e-19)
(0.803951 -0.583051 1.89974e-20)
(0.900562 -0.393162 0)
(0.975125 -0.263251 2.76277e-20)
(1.01977 -0.176614 3.05863e-20)
(1.0446 -0.125138 3.63561e-21)
(1.05805 -0.0831133 3.59422e-22)
(1.06478 -0.0671065 -4.54225e-21)
(1.0706 -0.0429473 1.53699e-21)
(0.812055 -0.70663 -1.81744e-18)
(0.786364 -0.817404 -5.46929e-19)
(0.926231 -0.630273 -1.16731e-20)
(0.973233 -0.424839 1.2326e-19)
(1.01445 -0.28254 -5.15721e-20)
(1.04165 -0.18785 1.79935e-20)
(1.05776 -0.131405 3.3404e-20)
(1.06596 -0.0863772 -3.38292e-20)
(1.07043 -0.068887 -5.20403e-23)
(1.07349 -0.0437244 -4.35208e-21)
(1.10202 -0.758998 1.6129e-19)
(1.01592 -0.847486 1.45955e-19)
(1.05365 -0.660849 -3.87139e-20)
(1.05189 -0.447273 -4.25036e-21)
(1.05918 -0.296401 -7.68604e-20)
(1.06689 -0.196027 3.07195e-21)
(1.07261 -0.13598 -1.51215e-20)
(1.07465 -0.0887213 -1.8916e-21)
(1.0764 -0.0700256 4.65084e-21)
(1.07645 -0.0441281 -9.13973e-22)
(1.36162 -0.794568 2.80221e-20)
(1.23604 -0.86145 2.44085e-19)
(1.17684 -0.676877 0)
(1.12886 -0.461813 2.51741e-20)
(1.10545 -0.30546 6.7978e-20)
(1.09424 -0.201099 -1.64302e-21)
(1.08894 -0.138638 -5.4402e-20)
(1.08415 -0.0899754 1.43259e-20)
(1.08273 -0.0704191 -2.29314e-22)
(1.07949 -0.0441264 -2.32948e-21)
(1.5892 -0.807839 1.6605e-19)
(1.43369 -0.859141 -6.45327e-19)
(1.29127 -0.680118 1.28874e-19)
(1.19968 -0.469684 -1.76603e-20)
(1.14934 -0.310976 -1.27018e-21)
(1.12151 -0.20378 -5.87254e-20)
(1.1059 -0.139605 1.83812e-20)
(1.09424 -0.0901614 1.97331e-22)
(1.08938 -0.0700365 -1.32212e-21)
(1.08261 -0.0436987 2.01803e-21)
(1.7952 -0.795851 -1.80185e-19)
(1.60254 -0.84141 -5.82075e-19)
(1.39477 -0.671579 -9.27059e-21)
(1.2635 -0.470765 -1.40805e-19)
(1.18885 -0.313472 -8.22272e-20)
(1.14661 -0.204901 -3.69283e-20)
(1.12215 -0.139466 -1.25848e-20)
(1.1043 -0.0895637 0)
(1.09609 -0.0690002 -6.35382e-21)
(1.08574 -0.042856 5.0443e-21)
(2.10987 -0.770908 -8.19739e-19)
(1.80798 -0.793765 2.03663e-20)
(1.5221 -0.639541 -2.55566e-19)
(1.34056 -0.456376 2.43946e-20)
(1.23448 -0.30676 2.44145e-20)
(1.17444 -0.200437 -2.40344e-20)
(1.14017 -0.135531 -1.35814e-20)
(1.11587 -0.0866255 1.02559e-20)
(1.10401 -0.0662987 -4.47386e-21)
(1.08951 -0.0412043 -2.23839e-21)
(2.17998 -0.70601 1.57119e-19)
(1.79137 -0.684294 -2.27951e-19)
(1.50012 -0.522127 4.64586e-20)
(1.34204 -0.371227 -1.7071e-20)
(1.24739 -0.255506 9.72455e-20)
(1.18775 -0.171587 7.26574e-20)
(1.15139 -0.118841 4.7808e-20)
(1.12421 -0.0770311 -5.17062e-21)
(1.11073 -0.05992 1.63501e-20)
(1.09283 -0.0377368 3.10845e-21)
(2.17055 -0.576956 -1.45748e-19)
(1.87313 -0.57535 -3.42152e-20)
(1.61488 -0.463429 3.27928e-20)
(1.43471 -0.340995 6.53826e-36)
(1.30998 -0.236062 -7.46718e-21)
(1.22549 -0.157142 -2.04021e-34)
(1.17328 -0.107694 1.75718e-21)
(1.13651 -0.0693186 -1.97653e-35)
(1.11863 -0.053769 2.93468e-23)
(1.09631 -0.0340015 -2.63618e-22)
(2.14879 -0.484808 -4.83041e-34)
(1.87842 -0.48681 7.55753e-20)
(1.62473 -0.376448 -2.9125e-20)
(1.44693 -0.266795 0)
(1.32528 -0.183905 -4.47918e-20)
(1.24016 -0.124216 -3.37027e-20)
(1.18512 -0.0872042 -2.36554e-20)
(1.14464 -0.0571351 1.40381e-34)
(1.12466 -0.0452742 -7.40499e-21)
(1.09899 -0.0291844 -5.9662e-24)
(2.1278 -0.401977 -9.15102e-20)
(1.90098 -0.395669 1.13892e-20)
(1.66377 -0.304273 0)
(1.47945 -0.215815 0)
(1.34877 -0.148542 0)
(1.25616 -0.0993992 0)
(1.19578 -0.0693504 8.10596e-22)
(1.15123 -0.0453104 1.67212e-34)
(1.12933 -0.0363224 -1.79687e-22)
(1.10085 -0.023882 -2.33875e-35)
(2.11258 -0.335326 1.07448e-20)
(1.90773 -0.317845 0)
(1.6772 -0.230397 0)
(1.48947 -0.152927 0)
(1.35561 -0.102158 0)
(1.26105 -0.0681957 0)
(1.1992 -0.0483447 -1.88242e-21)
(1.15313 -0.0319872 1.11789e-20)
(1.13064 -0.0264774 -2.71691e-22)
(1.10051 -0.0180488 1.37248e-21)
(2.08083 -0.275861 0)
(1.87636 -0.240221 1.64249e-21)
(1.64821 -0.157235 -3.45017e-20)
(1.46248 -0.0934912 0)
(1.33306 -0.0589359 -2.43903e-20)
(1.24392 -0.038712 -1.6182e-20)
(1.18598 -0.0279517 -1.25037e-20)
(1.1423 -0.0187955 -6.1295e-21)
(1.12121 -0.0165232 5.95159e-21)
(1.0915 -0.0120133 -1.65015e-21)
(1.94856 -0.210392 6.96653e-21)
(1.71805 -0.159093 1.30154e-20)
(1.49979 -0.085017 -1.36832e-20)
(1.3386 -0.0379083 -3.18356e-36)
(1.23401 -0.0201523 6.79404e-21)
(1.16531 -0.0130657 -1.07205e-34)
(1.12111 -0.0103088 -2.4192e-21)
(1.08701 -0.00736033 -4.18369e-21)
(1.07086 -0.0075854 -3.83945e-22)
(1.04549 -0.00632942 7.94268e-22)
(1.49713 -0.12702 -2.50414e-20)
(1.25221 -0.0739588 1.27621e-20)
(1.08379 -0.0197741 2.26728e-20)
(0.995053 0.00635046 0)
(0.951248 0.00894392 1.1889e-20)
(0.925385 0.0057802 7.0965e-21)
(0.908018 0.00274238 1.82625e-21)
(0.892638 0.0011837 2.52306e-21)
(0.885733 -0.000536573 -2.98908e-21)
(0.870199 -0.00163827 -4.97866e-22)
(0.516011 -0.0132485 0)
(0.376566 -0.000413369 0)
(0.328207 0.00688939 0)
(0.337335 0.00761005 0)
(0.359019 0.00509186 0)
(0.375305 0.0030753 0)
(0.384698 0.00186005 -2.6605e-21)
(0.389072 0.00109183 7.70851e-36)
(0.391796 0.000566873 -4.74632e-22)
(0.38917 2.77319e-05 -9.20542e-22)
(2.47757 0.139206 9.17151e-19)
(2.49842 0.0537137 5.88146e-20)
(2.51964 -0.0354296 -1.04554e-19)
(2.51371 -0.112249 -3.39436e-19)
(2.52406 -0.198992 -7.91467e-20)
(2.47976 -0.262288 -1.33914e-19)
(2.49142 -0.351894 -4.63235e-19)
(2.35956 -0.389714 8.59218e-20)
(2.38142 -0.484985 0)
(2.03909 -0.461275 1.25369e-19)
(2.37878 0.113845 2.81068e-19)
(2.38647 0.044509 -3.47459e-19)
(2.42959 -0.0255359 -5.90998e-20)
(2.40856 -0.090508 -1.55329e-19)
(2.4544 -0.163248 1.07927e-19)
(2.39989 -0.222653 2.18105e-19)
(2.4544 -0.30079 -2.54323e-19)
(2.36078 -0.357632 4.06291e-21)
(2.40643 -0.439911 -4.01601e-20)
(2.28264 -0.498147 1.17023e-19)
(2.30014 0.0943437 -1.30242e-19)
(2.30927 0.0300769 2.85344e-19)
(2.3452 -0.0191092 1.96567e-19)
(2.3344 -0.0833112 -3.08257e-19)
(2.36469 -0.132331 -1.04906e-20)
(2.33783 -0.197619 3.99919e-19)
(2.35781 -0.246846 5.04472e-20)
(2.32506 -0.317794 -5.98256e-20)
(2.32077 -0.365122 -2.59462e-20)
(2.29537 -0.447734 -2.68723e-20)
(2.2355 0.0699198 -3.03245e-19)
(2.2542 0.0129002 -2.27747e-20)
(2.27675 -0.0222083 -1.61709e-20)
(2.28266 -0.0814216 -3.43542e-20)
(2.29322 -0.115299 -1.84142e-19)
(2.28994 -0.176548 -1.15646e-19)
(2.28554 -0.209927 2.30007e-19)
(2.27897 -0.274107 1.89182e-21)
(2.25732 -0.30756 3.57097e-20)
(2.25033 -0.376486 2.55802e-20)
(2.18528 0.0442861 5.35802e-20)
(2.20885 -0.00308709 1.19052e-19)
(2.22518 -0.0307963 -4.4135e-20)
(2.2388 -0.0807713 2.44734e-19)
(2.24285 -0.107244 -3.77336e-20)
(2.24791 -0.158602 -2.55259e-19)
(2.23927 -0.1848 4.10959e-20)
(2.23752 -0.236682 -1.21671e-19)
(2.21693 -0.263532 7.79629e-20)
(2.20897 -0.316656 5.09155e-20)
(2.14383 0.0182093 -1.64406e-19)
(2.16728 -0.0194224 -8.05232e-20)
(2.18276 -0.0425531 1.51466e-20)
(2.1974 -0.0824171 1.24723e-19)
(2.20218 -0.104483 2.23421e-19)
(2.20855 -0.145314 -7.50536e-20)
(2.20285 -0.167137 6.74403e-21)
(2.20136 -0.207568 -2.18024e-20)
(2.18562 -0.229678 -1.15216e-20)
(2.17697 -0.269405 -7.12271e-20)
(2.09664 -0.00643748 -6.12773e-20)
(2.11804 -0.0354574 -1.29633e-19)
(2.1326 -0.0542759 -1.2799e-19)
(2.14696 -0.0850912 -2.49593e-19)
(2.1522 -0.102838 3.79756e-20)
(2.16051 -0.134834 4.58114e-20)
(2.15614 -0.151921 3.10291e-20)
(2.15935 -0.183816 4.91376e-20)
(2.14483 -0.20017 -8.88921e-20)
(2.14473 -0.231011 -2.85742e-20)
(1.99667 -0.0272384 5.88907e-20)
(2.01295 -0.0475924 4.76785e-20)
(2.02082 -0.061111 2.1512e-20)
(2.03369 -0.0830525 -4.30258e-20)
(2.03248 -0.0954053 -3.9966e-20)
(2.04468 -0.118982 -7.69209e-21)
(2.03308 -0.129921 -3.86448e-20)
(2.04783 -0.154476 4.18011e-20)
(2.02355 -0.16355 -2.42347e-20)
(2.04483 -0.188127 4.8204e-20)
(1.69596 -0.0398065 -5.0324e-20)
(1.69439 -0.0502839 7.67797e-22)
(1.68611 -0.0577558 9.90466e-20)
(1.68377 -0.0686106 -3.96082e-21)
(1.66847 -0.0749698 -2.6375e-20)
(1.6699 -0.0868171 5.21807e-20)
(1.64504 -0.0917302 -3.14904e-20)
(1.65618 -0.105167 1.49297e-20)
(1.61625 -0.107706 1.22562e-20)
(1.64602 -0.123068 1.96665e-20)
(0.844323 -0.0154373 4.62289e-20)
(0.820336 -0.0151902 3.55421e-20)
(0.796687 -0.0147193 3.40365e-20)
(0.773618 -0.014608 5.2586e-20)
(0.749872 -0.0143741 -2.56742e-20)
(0.728823 -0.0146487 -2.59708e-20)
(0.704026 -0.0150211 9.67336e-21)
(0.688136 -0.0158473 -1.95944e-21)
(0.656476 -0.0158937 2.75446e-21)
(0.657703 -0.0203237 -3.64318e-21)
(1.54801 0.923472 -8.09155e-20)
(1.53144 0.969393 2.83751e-20)
(1.53404 1.02279 -6.1089e-19)
(1.542 1.08374 2.4794e-19)
(1.54817 1.14842 1.14267e-18)
(1.54416 1.20935 -1.5548e-19)
(1.50895 1.24535 -1.04009e-18)
(1.39369 1.20608 -2.50504e-20)
(1.11 0.996126 -5.22114e-19)
(0.525393 0.4854 1.34224e-19)
(1.71299 0.890543 0)
(1.70177 0.935856 7.23606e-19)
(1.70099 0.986221 1.60291e-18)
(1.70859 1.04529 -9.78189e-19)
(1.71825 1.1092 -2.29203e-18)
(1.71812 1.16902 -1.6e-19)
(1.68199 1.20247 -2.0434e-19)
(1.55332 1.1598 7.4101e-19)
(1.23302 0.950492 1.07633e-18)
(0.57908 0.45697 4.49202e-19)
(1.86625 0.851501 7.1664e-20)
(1.86466 0.896392 0)
(1.86563 0.943775 -7.22051e-20)
(1.87397 0.998315 9.99844e-19)
(1.88584 1.05756 5.90093e-20)
(1.8876 1.11253 -2.28157e-18)
(1.84822 1.14041 1.43453e-18)
(1.70349 1.0931 8.69969e-19)
(1.34503 0.887167 -9.39269e-19)
(0.625029 0.419254 -2.98125e-19)
(2.00118 0.798749 -1.7785e-19)
(2.01007 0.842546 -1.3302e-19)
(2.01731 0.887158 2.81896e-19)
(2.02929 0.936995 -3.49505e-19)
(2.04381 0.990545 -1.63246e-18)
(2.04627 1.03891 -1.25695e-18)
(2.00118 1.05967 1.33742e-18)
(1.83773 1.00715 8.61263e-19)
(1.43939 0.806699 0)
(0.65891 0.372239 0)
(2.12237 0.733591 -9.51885e-19)
(2.13974 0.774667 -1.70641e-18)
(2.15387 0.8157 -6.62677e-19)
(2.17038 0.860376 -3.73841e-20)
(2.1873 0.907427 0)
(2.18865 0.948382 1.5204e-19)
(2.13528 0.960549 1.77919e-19)
(1.94862 0.902114 2.22012e-19)
(1.50821 0.710168 -3.23203e-19)
(0.67662 0.316872 -8.11831e-20)
(2.22764 0.654942 1.13691e-18)
(2.25276 0.692333 -4.72917e-20)
(2.27378 0.729281 -1.33511e-18)
(2.29487 0.76874 0)
(2.31342 0.80897 0)
(2.3117 0.840021 0)
(2.24479 0.843334 1.57255e-18)
(2.02903 0.781718 -1.74331e-18)
(1.54622 0.600302 -1.12517e-18)
(0.675581 0.255298 4.79415e-23)
(2.32131 0.566585 -1.50257e-18)
(2.35124 0.599177 -3.1533e-18)
(2.37719 0.631145 -5.46217e-21)
(2.40149 0.664333 6.32965e-19)
(2.41952 0.696793 -4.36729e-20)
(2.41008 0.719235 1.35638e-18)
(2.32326 0.713489 -7.39725e-19)
(2.07394 0.648001 -2.05808e-18)
(1.54923 0.48068 1.48922e-19)
(0.654318 0.191239 1.07952e-19)
(2.40024 0.469923 -1.19995e-18)
(2.4339 0.496779 1.87604e-20)
(2.46292 0.523429 4.55804e-19)
(2.48808 0.550325 -4.36738e-19)
(2.50206 0.574808 6.69085e-19)
(2.47966 0.588216 1.82183e-18)
(2.367 0.573888 -2.01928e-19)
(2.07854 0.506236 -1.11e-18)
(1.51354 0.357388 2.64228e-19)
(0.612753 0.128937 4.79564e-20)
(2.46635 0.368608 4.44963e-19)
(2.5006 0.390318 9.66301e-20)
(2.52993 0.411121 -4.69119e-19)
(2.55285 0.431083 -1.06912e-18)
(2.55838 0.447165 9.3439e-20)
(2.51663 0.451337 8.71947e-20)
(2.37048 0.42949 -1.43243e-18)
(2.03753 0.362788 5.81971e-19)
(1.43666 0.237301 1.74636e-19)
(0.552188 0.0725928 -1.11911e-19)
(2.51585 0.265364 8.56151e-19)
(2.54981 0.282058 -1.27371e-18)
(2.57722 0.29679 2.02926e-19)
(2.5942 0.309656 2.52855e-18)
(2.58548 0.317536 1.26013e-18)
(2.51641 0.313365 -2.6996e-18)
(2.32829 0.286313 -2.56333e-18)
(1.947 0.224728 1.1476e-18)
(1.31877 0.127631 -1.78021e-20)
(0.475864 0.0260412 -3.95483e-20)
(0.528476 0.365849 -1.57412e-19)
(0.488841 0.379048 -1.62873e-19)
(0.444267 0.393212 6.96605e-20)
(0.395342 0.40847 -2.31313e-19)
(0.341757 0.424688 -1.84933e-20)
(0.282706 0.440596 2.19058e-19)
(0.217296 0.45096 3.53449e-20)
(0.146078 0.440398 3.09717e-21)
(0.0759804 0.374505 2.03667e-20)
(0.0154656 0.193731 1.36037e-20)
(0.571843 0.470272 1.31363e-19)
(0.532983 0.489883 1.67637e-19)
(0.489951 0.511025 4.88038e-20)
(0.442962 0.533857 -5.01623e-20)
(0.391443 0.558164 -2.24079e-19)
(0.33435 0.582152 -1.57192e-20)
(0.270109 0.598638 6.41769e-20)
(0.197472 0.586769 3.89387e-20)
(0.119748 0.500018 -1.22347e-19)
(0.0381704 0.25879 -4.22514e-20)
(0.633259 0.568219 -1.10849e-19)
(0.595616 0.59358 -9.82697e-20)
(0.554775 0.620918 1.00529e-19)
(0.510516 0.650658 7.18827e-20)
(0.462008 0.682683 -8.12095e-20)
(0.407935 0.714769 -2.94737e-20)
(0.345746 0.737795 -1.11496e-19)
(0.271479 0.725394 -7.23725e-20)
(0.18284 0.619048 -6.78007e-20)
(0.0708636 0.320163 9.47663e-22)
(0.710708 0.662088 3.61385e-20)
(0.674787 0.693691 -5.39395e-20)
(0.637114 0.727224 -8.60135e-20)
(0.596546 0.763326 -5.02945e-20)
(0.551815 0.801954 -7.1843e-20)
(0.501371 0.840507 -1.58462e-21)
(0.441624 0.868094 -2.73121e-19)
(0.36529 0.853427 4.58127e-20)
(0.26275 0.727527 -3.18548e-19)
(0.112198 0.375338 5.0947e-20)
(0.802586 0.741212 5.17277e-21)
(0.769018 0.777699 1.28506e-20)
(0.735575 0.816588 -5.11956e-20)
(0.700333 0.858917 -2.67278e-19)
(0.661323 0.904475 1.2226e-19)
(0.616229 0.949991 2.33676e-20)
(0.559853 0.982799 6.29066e-20)
(0.48078 0.966966 -1.56657e-19)
(0.360388 0.823749 3.85068e-19)
(0.162119 0.423621 2.8221e-19)
(0.908891 0.818317 -8.58936e-20)
(0.877084 0.859391 -1.77815e-19)
(0.847005 0.901765 4.01458e-20)
(0.816085 0.947776 1.03274e-19)
(0.782304 0.997791 3.56541e-19)
(0.742913 1.04797 2.52214e-19)
(0.690692 1.08357 6.28611e-19)
(0.609118 1.06431 2.62827e-19)
(0.469191 0.903747 1.61241e-19)
(0.217712 0.462286 2.13343e-19)
(1.0225 0.870888 -1.11708e-19)
(0.996274 0.916656 5.88874e-19)
(0.973645 0.963571 3.81186e-19)
(0.950181 1.01403 -4.81247e-19)
(0.923138 1.06851 -2.40366e-19)
(0.889557 1.12306 6.66023e-19)
(0.84066 1.16154 -1.10065e-19)
(0.754601 1.13986 -4.39635e-19)
(0.5909 0.96501 2.67761e-21)
(0.278692 0.49045 2.56946e-19)
(1.14326 0.923517 2.93992e-19)
(1.11725 0.969822 6.16113e-20)
(1.09905 1.01713 -7.71809e-19)
(1.08327 1.06949 1.5293e-19)
(1.06542 1.12667 5.6596e-19)
(1.04056 1.18339 -3.25914e-19)
(0.996985 1.2218 -9.46839e-20)
(0.906825 1.19507 -1.82286e-19)
(0.717785 1.00631 1.85037e-20)
(0.341505 0.506956 -3.13055e-19)
(1.27246 0.942688 2.08068e-20)
(1.25707 0.993091 -5.58161e-19)
(1.24653 1.04168 -4.62065e-21)
(1.23643 1.09521 4.68227e-19)
(1.22431 1.1548 -4.79242e-19)
(1.20531 1.21429 9.40651e-19)
(1.16477 1.25367 6.36433e-19)
(1.06779 1.22342 -9.51887e-19)
(0.849592 1.02467 -6.93931e-20)
(0.405019 0.511168 -3.40195e-19)
(1.37623 0.952103 -3.2825e-19)
(1.37161 1.00328 -3.12694e-19)
(1.37807 1.05378 3.03318e-19)
(1.38293 1.10848 7.64205e-19)
(1.38253 1.16801 2.80867e-19)
(1.37233 1.22655 -7.75711e-19)
(1.33564 1.26344 8.48597e-20)
(1.23095 1.22798 2.11694e-19)
(0.981387 1.02153 -2.88051e-19)
(0.46694 0.50391 -2.42284e-19)
(0.964952 0.0164236 1.36965e-21)
(1.029 0.0341121 -1.91666e-20)
(1.01587 0.0557636 -1.61065e-20)
(1.02241 0.0843032 0)
(1.03035 0.104075 2.22164e-20)
(1.00981 0.131198 3.1019e-20)
(0.985904 0.152288 4.12298e-20)
(0.930495 0.184722 8.79491e-20)
(0.850878 0.240415 -1.28125e-19)
(0.701502 0.300299 -1.95203e-19)
(0.965131 0.0147226 4.08158e-20)
(1.02777 0.0319329 -6.26939e-20)
(1.01472 0.0535625 1.16602e-22)
(1.02171 0.0830693 -2.06467e-20)
(1.03185 0.106675 1.10147e-20)
(1.0138 0.136477 -1.54572e-20)
(0.9928 0.164226 -9.64098e-20)
(0.944173 0.204537 0)
(0.866593 0.276976 2.64691e-19)
(0.738757 0.368909 -2.72574e-19)
(0.964976 0.013216 -3.11154e-20)
(1.0273 0.0299057 1.74589e-20)
(1.01402 0.0514174 4.42337e-20)
(1.0221 0.0818481 1.10042e-20)
(1.0337 0.108726 -2.6283e-20)
(1.0196 0.141662 1.28963e-21)
(0.999826 0.175168 -6.62339e-20)
(0.962116 0.224137 -5.53291e-21)
(0.884703 0.312136 -2.16441e-23)
(0.789873 0.43488 7.57408e-19)
(0.964519 0.0118333 -3.30755e-20)
(1.02749 0.0279628 2.66599e-21)
(1.01375 0.0492773 3.6281e-20)
(1.02343 0.0807225 2.27798e-20)
(1.03604 0.110161 -1.29437e-20)
(1.02698 0.146958 -1.73573e-20)
(1.00736 0.184851 9.56216e-20)
(0.983972 0.243827 -1.51994e-21)
(0.905406 0.34489 -2.8989e-19)
(0.854248 0.496809 9.25131e-20)
(0.963796 0.0105228 2.33199e-20)
(1.02829 0.0260394 -3.35388e-20)
(1.01391 0.0471137 -2.8882e-20)
(1.0255 0.0797221 1.33514e-20)
(1.03913 0.110945 0)
(1.03554 0.152546 0)
(1.01603 0.192975 7.96694e-20)
(1.00882 0.263931 1.45995e-22)
(0.929905 0.374568 -1.31845e-19)
(0.929698 0.553501 9.7221e-20)
(0.96284 0.00923477 6.50145e-21)
(1.02963 0.0240657 2.7559e-20)
(1.0145 0.0449226 -7.68913e-20)
(1.02814 0.0788166 -2.63324e-20)
(1.04321 0.111093 -6.18782e-22)
(1.04485 0.158512 7.20354e-20)
(1.02644 0.199224 1.21351e-19)
(1.03637 0.284881 -9.19233e-22)
(0.956913 0.399379 2.18283e-19)
(1.01948 0.608815 -2.25107e-19)
(0.961673 0.00791408 -2.65233e-20)
(1.03147 0.0219688 1.47767e-20)
(1.01554 0.0427209 -2.03061e-20)
(1.03121 0.0779129 -5.54846e-20)
(1.04854 0.110702 1.97785e-21)
(1.05439 0.164677 -1.72486e-21)
(1.03965 0.203682 -6.88699e-21)
(1.06436 0.306068 -2.37855e-19)
(0.99277 0.420109 1.60197e-19)
(1.10692 0.650191 -5.4938e-19)
(0.960285 0.00652567 -4.0347e-21)
(1.03379 0.019678 -4.36066e-20)
(1.01701 0.0405362 4.10453e-20)
(1.03467 0.0768768 2.99668e-20)
(1.05524 0.109929 1.03275e-21)
(1.06394 0.1707 -8.26523e-20)
(1.05576 0.206626 -6.5435e-20)
(1.09446 0.327549 4.2225e-19)
(1.02874 0.436759 1.52391e-20)
(1.22103 0.706207 8.62412e-19)
(0.9586 0.00504182 1.80804e-20)
(1.03658 0.0171363 2.01885e-20)
(1.01892 0.0384187 4.61971e-20)
(1.03866 0.075616 -3.27597e-20)
(1.06338 0.108924 -8.75224e-20)
(1.07326 0.17637 1.28642e-21)
(1.07621 0.206929 -8.9142e-20)
(1.12309 0.347177 5.45728e-19)
(1.08543 0.438779 -9.24219e-21)
(1.29192 0.723429 -1.1934e-18)
(0.956475 0.00356759 6.63034e-22)
(1.0399 0.0143759 3.19969e-20)
(1.02126 0.0365051 1.58925e-20)
(1.04333 0.0742371 -6.61856e-20)
(1.0723 0.109139 -8.34846e-20)
(1.08237 0.181468 -6.91756e-20)
(1.09704 0.213554 -1.60954e-19)
(1.14783 0.368924 -4.90864e-19)
(1.13902 0.464075 -2.6679e-19)
(1.42912 0.790812 -1.26237e-18)
(0.953335 0.00111255 -1.99673e-21)
(1.04407 0.0100941 -7.23038e-21)
(1.02528 0.0321839 -1.72332e-20)
(1.049 0.0698636 3.49102e-20)
(1.08547 0.10299 5.98083e-20)
(1.09686 0.182795 -4.53092e-20)
(1.12489 0.198551 1.49929e-19)
(1.19295 0.37936 -4.58207e-19)
(1.20814 0.406004 -2.00644e-19)
(1.44501 0.780068 6.73431e-19)
(0.95174 -0.0029959 3.83701e-21)
(1.04816 0.00369964 1.58979e-20)
(1.03227 0.0246399 -1.06834e-20)
(1.05629 0.0609421 6.66592e-20)
(1.10386 0.0914977 9.66272e-20)
(1.10638 0.176294 1.32881e-19)
(1.16962 0.172877 3.33049e-20)
(1.21916 0.366221 2.23515e-19)
(1.30482 0.35761 3.27909e-19)
(1.46473 0.681974 2.01509e-20)
(0.950554 -0.00769299 -2.43189e-21)
(1.05314 -0.00397756 -4.2466e-21)
(1.04057 0.0165464 3.05679e-21)
(1.06691 0.0502122 5.22069e-21)
(1.12047 0.0809465 2.84298e-34)
(1.11775 0.164288 -7.92087e-21)
(1.21134 0.14585 -5.68902e-34)
(1.23728 0.345247 2.05864e-20)
(1.36563 0.30402 -5.93194e-20)
(1.5056 0.592493 -5.81441e-20)
(0.949118 -0.0135105 1.43622e-20)
(1.0598 -0.0134079 -4.78894e-35)
(1.0501 0.00726757 -3.55706e-21)
(1.08158 0.0383605 -3.05314e-20)
(1.13169 0.0709109 -4.50557e-20)
(1.13893 0.1473 -4.28777e-20)
(1.23535 0.120402 -7.12831e-34)
(1.26076 0.320301 -8.64424e-20)
(1.39816 0.250705 -1.50978e-19)
(1.55258 0.496867 9.95681e-20)
(0.947221 -0.0208064 0)
(1.06864 -0.0243198 8.21227e-35)
(1.06187 -0.00445201 0)
(1.09941 0.0257001 0)
(1.13904 0.059609 0)
(1.16791 0.126875 0)
(1.2424 0.0984652 -4.6755e-34)
(1.29046 0.286486 0)
(1.42304 0.202268 -2.15241e-20)
(1.58741 0.399261 5.94259e-20)
(0.94495 -0.0292892 3.90183e-21)
(1.07989 -0.0372208 8.09108e-21)
(1.07617 -0.0159621 -4.64716e-21)
(1.11869 0.0158432 0)
(1.14604 0.0484634 0)
(1.19661 0.10506 6.9003e-21)
(1.24286 0.0804323 3.97881e-20)
(1.31936 0.242394 -1.49749e-20)
(1.44797 0.158881 -3.18387e-20)
(1.60368 0.310184 2.26429e-19)
(0.943534 -0.0435786 -7.65947e-20)
(1.09448 -0.0565948 -1.98195e-21)
(1.09092 -0.0335513 -5.27718e-21)
(1.13347 0.00208428 -1.7372e-20)
(1.14917 0.0347418 -2.32634e-20)
(1.21609 0.0807133 -1.08238e-20)
(1.24126 0.0649183 -3.25018e-20)
(1.33995 0.190545 -3.11791e-20)
(1.46665 0.120222 -5.88457e-20)
(1.61014 0.230082 8.2564e-20)
(0.946503 -0.0499548 -7.60418e-21)
(1.10491 -0.065894 -1.82497e-20)
(1.08299 -0.0393006 -5.75108e-21)
(1.11943 -0.00186904 -5.1282e-21)
(1.12504 0.0252215 -8.41426e-36)
(1.20631 0.0569675 7.39362e-21)
(1.2137 0.0508146 -9.34457e-34)
(1.34355 0.134232 -1.4711e-20)
(1.45371 0.0835554 2.03202e-20)
(1.61 0.15563 2.79138e-20)
(0.951006 -0.0896708 1.94338e-19)
(1.05656 -0.0944402 -3.91702e-21)
(0.966924 -0.0583238 -6.15844e-21)
(0.978066 -0.0128373 1.41716e-20)
(0.974304 0.00995504 1.13276e-20)
(1.06744 0.0314733 1.58491e-20)
(1.06117 0.0340251 1.41679e-20)
(1.24184 0.0757364 -9.74882e-21)
(1.30823 0.0493829 -2.26417e-20)
(1.51066 0.0861881 1.45397e-19)
(0.828858 -0.0453265 9.65374e-21)
(0.733631 -0.0350131 -9.44451e-35)
(0.533769 -0.0141672 -7.34948e-21)
(0.50541 -0.0019501 0)
(0.495113 0.00181745 0)
(0.552702 0.00766959 7.53704e-21)
(0.567661 0.00595944 -6.59733e-36)
(0.703441 0.0153963 -1.4359e-20)
(0.756652 0.00744594 -3.01751e-20)
(0.91202 0.0155579 6.07855e-20)
(1.6479 0.80949 -2.01214e-19)
(1.74996 0.786607 -2.98875e-19)
(1.86701 0.752824 0)
(1.97685 0.703365 1.51331e-19)
(2.08079 0.643493 6.5961e-19)
(2.17092 0.571868 -1.34585e-19)
(2.25607 0.493331 1.76447e-18)
(2.32559 0.409181 -8.37957e-20)
(2.38977 0.320165 -4.07697e-19)
(2.43617 0.230755 3.67173e-19)
(1.67139 0.65967 1.00633e-19)
(1.75271 0.636917 1.20169e-19)
(1.84902 0.604666 -1.23039e-20)
(1.94139 0.556959 2.18991e-19)
(2.03155 0.50634 -1.83555e-19)
(2.10553 0.444726 -4.37619e-19)
(2.18004 0.385274 -1.26583e-19)
(2.23414 0.316946 6.05366e-19)
(2.29573 0.252324 -2.37093e-20)
(2.32871 0.181806 -5.27425e-19)
(1.71015 0.540541 1.04825e-19)
(1.78333 0.513381 1.94931e-19)