/*--------------------------------*- C++ -*----------------------------------*\
  =========                 |
  \\      /  F ield         | OpenFOAM: The Open Source CFD Toolbox
   \\    /   O peration     | Website:  https://openfoam.org
    \\  /    A nd           | Version:  13
     \\/     M anipulation  |
\*---------------------------------------------------------------------------*/
FoamFile
{
    format      ascii;
    class       surfaceScalarField;
    location    "79";
    object      phi;
}
// * * * * * * * * * * * * * * * * * * * * * * * * * * * * * * * * * * * * * //

dimensions      [0 3 -1 0 0 0 0];

internalField   nonuniform List<scalar> 
823
(
0.00582926
0.0117783
-0.0176076
0.0369028
-0.00922603
-0.0218475
0.106285
-0.0683418
-0.00104035
0.206653
-0.139469
0.0391001
-0.20101
0.0740329
0.333631
0.00988969
0.00188864
0.0683097
-0.0676461
0.170442
-0.170474
0.286427
-0.255454
-0.326997
0.412414
0.0273781
-0.0254895
0.120263
-0.160531
0.230068
-0.280279
0.326761
-0.352147
-0.38642
0.386184
0.0496402
-0.0751297
0.144798
-0.255689
0.219316
-0.354797
0.25892
-0.391752
-0.400221
0.272722
0.059972
-0.135102
0.125986
-0.321703
0.160112
-0.388923
0.173034
-0.404673
0.182423
-0.409611
-0.029816
0.0477386
-0.0179225
-0.0797186
0.0580758
-0.00817321
-0.140661
0.0628683
-0.00192627
-0.204944
0.0660662
-0.00178237
0.056689
-0.264154
0.00252056
-0.00400582
0.0517444
-0.0190763
0.0731463
-0.0355892
0.0793812
-0.0482534
0.0787304
0.0641811
-0.0557454
0.0174936
0.0342508
0.0373165
0.0533234
0.0621947
0.054503
0.095453
0.0454722
0.0275515
0.132083
0.012176
0.0220748
0.0297982
0.0357012
0.0537352
0.030566
0.0887863
0.0104211
-0.0179074
0.134245
0.00446723
0.0183209
0.0478466
0.0973678
0.153493
0.139546
-0.996099
0.592399
0.460295
-0.648424
0.327675
0.285155
1.86107
-1.68593
0.411577
0.00316178
-0.129585
-0.874628
0.833291
0.369847
-1.42169
0.452442
-0.731019
0.297027
2.01649
0.481808
-0.181619
-0.919283
0.428347
-1.71796
0.415936
-0.718608
0.416415
2.01601
0.548357
-0.313561
-0.960467
0.143921
-1.72763
0.20262
-0.777306
0.516498
1.70213
0.617771
-0.414833
-0.996063
0.00848941
-1.58263
-0.022488
-0.746329
0.471892
1.20775
0.682624
-0.625566
-1.02834
1.00165
-1.31991
-1.26437
0.484095
-0.228776
0.901997
0.789852
1.24293
-0.966497
-0.933133
0.960403
-0.880875
-1.39944
0.68702
0.0446063
1.14695
0.329917
1.25019
-1.06973
-0.760932
0.975774
-0.51699
-1.33966
0.939344
0.081036
1.33884
-0.0695796
1.10781
-0.838697
-0.484535
0.960928
-0.230856
-1.24706
1.0333
0.00866735
1.1695
-0.205787
0.728558
-0.39775
-0.160518
0.588866
-0.819721
0.597533
0.391745
-0.00600407
1.12897
0.148975
-1.09552
1.19823
0.203466
1.29028
0.294127
1.33821
0.364488
0.407475
1.03829
0.0931922
-0.982504
1.10857
0.133181
1.19502
0.207679
1.30025
0.259254
0.308291
0.971677
0.0455739
-0.924059
1.02431
0.0805478
1.11103
0.120961
1.21635
0.153934
0.184979
0.893968
0.0110233
-0.859417
0.947625
0.0268905
1.02721
0.0413768
1.1284
0.0527397
0.0663201
0.632394
-0.621371
0.659285
0.700662
0.753401
0.145773
0.310878
-0.252852
-0.203799
0.0969373
0.314777
-0.265942
0.0543175
0.325254
-0.282634
0.0187793
0.317986
-0.282448
0.207729
-0.18895
0.107157
0.34776
-0.144038
0.0696887
0.352245
0.0357588
0.359184
0.00875037
0.344995
0.21648
0.0700657
0.383369
-0.105675
0.037685
0.384626
0.00979744
0.387072
-0.00594326
0.360736
0.210536
-0.00738561
0.398412
-0.00765761
-0.0247667
0.402007
-0.0340294
0.396334
-0.0270474
0.353754
0.183489
-0.0851834
0.0739847
-0.0878499
-0.0804384
-0.0483875
0.200575
0.107128
-0.253357
-0.0543462
0.14669
0.111836
-0.0579514
0.0911872
0.117123
-0.0616201
0.0370719
0.117618
-0.0635025
0.0841196
-0.0470477
0.191579
0.150754
-0.235205
0.145707
0.157708
0.094529
0.168301
0.0400785
0.172068
0.124198
0.146821
0.196597
-0.192663
0.103843
0.200686
0.0626863
0.209458
0.023589
0.211166
0.147787
0.157521
0.229161
-0.190085
0.117745
0.240461
0.0724714
0.254731
0.0283062
0.255331
0.176093
0.0933577
-0.117049
0.0678775
0.0399743
0.0128568
0.407576
0.0626493
-0.0742459
0.418742
0.0595914
-0.0707568
0.412434
0.164365
-0.158057
0.392638
0.236202
-0.216405
0.478232
-0.338951
0.404703
0.0539256
0.412385
0.0519098
0.402793
0.173957
0.378209
0.260785
0.621236
0.397333
0.0525726
0.406837
0.0424056
0.382861
0.197932
0.369179
0.274468
0.797752
0.392287
0.0562652
0.394247
0.040446
0.37357
0.218609
0.340802
0.307236
0.948469
0.38345
0.0687948
0.384588
0.0393082
0.342075
0.261121
0.316577
0.332734
1.148
0.614438
0.0583776
0.655334
-0.00158771
0.699106
0.217349
0.753713
0.278128
0.861969
1.03974
0.623898
0.0384997
0.676761
-0.0544501
0.741622
0.152488
0.748786
0.270963
0.575455
1.0353
0.641927
0.000593488
0.682558
-0.095081
0.720324
0.114721
0.786156
0.205132
0.331544
1.03007
0.652554
-0.0479399
0.633918
-0.0764457
0.691097
0.0575422
0.817599
0.0786296
0.141053
1.00809
0.556081
0.479635
0.537177
0.615807
0.75686
1.06923
-0.233284
1.05427
-0.129086
1.05874
-0.110138
1.05331
-0.00223198
0.0317725
0.981082
-0.179064
0.969627
-0.117631
0.948023
-0.0885339
0.962889
-0.0170979
0.0121577
0.96458
-0.113578
0.938687
-0.0917381
0.907826
-0.0576727
0.917155
-0.026427
0.00525384
0.941717
-0.0472047
0.891719
-0.0417402
0.860643
-0.0265964
0.851919
-0.0177034
-0.0022438
0.709655
0.667915
0.641318
0.623615
0.0505227
0.142318
-0.192841
0.0757765
0.321323
-0.346577
0.0760956
0.377915
-0.378234
0.0656582
0.382222
-0.371785
0.351178
0.0526628
-0.338182
0.0734912
0.0688271
0.148855
0.245959
0.184455
0.342315
0.1886
0.378078
0.372184
0.167593
0.0596304
0.00919677
0.178485
0.127105
0.276999
0.243801
0.344216
0.310861
0.367693
0.348707
0.0268575
-0.0176608
0.128274
0.0256886
0.255795
0.11628
0.383447
0.183209
0.264055
0.487085
0.00375012
-0.0214109
0.0515576
-0.0221188
0.15444
0.0133971
0.283693
0.0539557
0.111773
0.435975
-0.0053698
-0.0160411
0.00457644
-0.0320651
0.0505868
-0.0326132
0.12875
-0.0242079
0.0134751
0.227049
-0.00681193
-0.00922917
-0.0110631
-0.0278139
-0.000676559
-0.0429998
0.0258971
-0.0507815
-0.0409235
0.0802956
-0.00431005
-0.00491912
-0.00647301
-0.025651
-0.00393498
-0.0455378
0.00316748
-0.057884
-0.0605463
0.0227903
-0.00532029
0.000401163
-0.00947438
-0.0214969
-0.0158883
-0.0391239
-0.0266747
-0.0470977
-0.0499784
-0.0372426
-0.0175214
-0.0471914
-0.0882416
-0.137122
-0.184579
0.397686
0.765012
-0.935649
0.377091
0.511088
-0.490493
0.118489
0.706509
-0.447907
0.0502399
-0.0659102
0.13416
-0.59594
0.467027
0.435235
0.410072
0.490051
0.456272
0.227863
0.968697
0.117597
0.0443559
-0.675464
0.391659
0.0412042
0.51884
0.329091
0.263546
1.22399
0.180673
0.127228
-0.740284
0.275011
-0.27105
0.541696
0.0624069
0.298057
1.46763
0.261959
0.163326
-0.790978
0.13677
0.526852
0.308548
0.342289
-0.0292396
0.650274
-0.621034
-0.162227
0.132987
-0.179348
0.0171213
-0.0315455
-0.147802
-0.204632
0.81511
-1.10049
0.457603
0.0268171
0.0131743
0.0854171
-0.0138191
-0.0715981
0.140864
-0.0554471
0.251768
-0.110904
0.412707
-0.160939
-0.208327
0.196742
-0.157898
0.308888
0.546691
0.872837
0.138673
-0.135055
0.165372
-0.16899
0.105803
-0.14021
0.17308
0.0683913
-0.146982
0.184393
0.027895
-0.145925
0.186421
-0.100765
0.12866
0.179713
-0.0963522
-0.218417
0.136107
-0.0966038
0.0864864
-0.0973607
0.035566
-0.0950043
-0.0651993
0.18291
-0.047
-0.232262
0.13239
-0.046084
0.0814974
-0.0464681
0.0328456
-0.0463525
-0.0323537
0.199013
0.00376641
-0.24978
0.147533
0.00539598
0.0941866
0.00687838
0.0396431
0.00819102
0.00728946
0.202367
-0.252947
0.149811
0.0950697
0.0397582
0.0385995
-0.317101
-0.0596807
0.0137898
-0.346975
-0.00823504
-0.35621
-0.0168331
-0.337979
-0.209674
0.122054
-0.286782
-0.152372
0.0795356
-0.304457
0.0379863
-0.31466
0.00720505
-0.307198
-0.202469
0.140375
-0.246925
-0.180232
0.0984114
-0.262493
0.0573972
-0.273646
0.0201788
-0.269979
-0.18229
0.16022
-0.212008
-0.195137
0.117566
-0.219839
0.0717685
-0.227849
0.0283071
-0.226518
-0.153983
0.155635
-0.202271
0.108875
0.0654198
0.0253229
0.388491
0.107503
-0.100015
0.386147
0.101804
-0.0994595
0.353699
0.151591
-0.119144
0.29823
0.0711714
-0.0157021
-0.204167
0.333408
0.397019
0.106464
0.400898
0.0979249
0.393648
0.158841
0.344239
0.120581
-0.0783453
0.402654
0.0997896
0.411153
0.089425
0.40885
0.161145
0.369603
0.159828
0.0589957
0.407784
0.0879853
0.416853
0.0803562
0.419299
0.158699
0.388526
0.190601
0.197742
0.409719
0.419318
0.41996
0.394156
0.413341
0.0967099
0.328147
0.0851941
0.242051
0.0860956
0.240199
0.00185263
-0.180804
0.421003
0.506746
0.492481
0.459432
0.445583
0.598187
0.336889
0.084114
0.261944
0.0749444
0.174273
0.0876717
0.100836
0.0734361
0.0292383
0.48003
0.359837
0.267277
0.18834
)
;

boundaryField
{
    left
    {
        type            calculated;
        value           nonuniform List<scalar> 
17
(
-0.60402
-0.60402
-0.60402
-0.60402
-0.60402
-0.39598
-0.39598
-0.39598
-0.39598
-0.39598
-0.39598
-0.39598
-0.39598
-0.39598
-0.39598
-0.510051
-0.510051
)
;
    }
    right
    {
        type            calculated;
        value           nonuniform List<scalar> 
17
(
0.173086
0.27557
0.179153
0.197121
0.245493
0.312653
0.384602
0.452914
0.526463
0.58954
0.653367
0.714905
1.14772
1.07799
0.831411
0.40454
-0.166522
)
;
    }
    down
    {
        type            calculated;
        value           uniform 0;
    }
    up
    {
        type            calculated;
        value           uniform 0;
    }
    cylinder
    {
        type            calculated;
        value           uniform 0;
    }
    defaultFaces
    {
        type            empty;
    }
}


// ************************************************************************* //
