/*--------------------------------*- C++ -*----------------------------------*\
  =========                 |
  \\      /  F ield         | OpenFOAM: The Open Source CFD Toolbox
   \\    /   O peration     | Website:  https://openfoam.org
    \\  /    A nd           | Version:  13
     \\/     M anipulation  |
\*---------------------------------------------------------------------------*/
FoamFile
{
    format      ascii;
    class       volVectorField;
    location    "79";
    object      U;
}
// * * * * * * * * * * * * * * * * * * * * * * * * * * * * * * * * * * * * * //

dimensions      [0 1 -1 0 0 0 0];

internalField   nonuniform List<vector> 
440
(
(-0.0731791 0.0636011 -6.63582e-20)
(-0.0366723 0.0831971 3.00263e-20)
(0.196391 0.0412692 3.15499e-20)
(0.631963 -0.00236196 9.58155e-20)
(0.936629 -0.0590328 2.18998e-21)
(-0.0516057 0.0290188 4.51739e-20)
(0.20027 -0.0440129 -1.42059e-19)
(0.785249 -0.120029 -1.3101e-19)
(1.37523 -0.175814 3.41816e-20)
(1.9312 -0.223245 -1.89701e-20)
(0.0355605 -0.0190104 5.01383e-20)
(0.701965 -0.0969033 9.69428e-19)
(1.5281 -0.110583 -7.37204e-19)
(2.10959 -0.100548 -2.3241e-18)
(2.5304 -0.101397 1.0732e-18)
(0.285331 -0.0639855 -1.80941e-19)
(1.39916 -0.026374 -7.3396e-19)
(2.15545 0.0197468 2.37046e-18)
(2.51499 0.0414307 2.71764e-18)
(2.53042 0.0421586 -7.4343e-19)
(0.671736 -0.00447135 -3.44791e-19)
(1.89858 0.168625 -7.74505e-19)
(2.40809 0.228536 2.41786e-18)
(2.51705 0.230169 2.51788e-18)
(2.60337 0.206195 8.48665e-19)
(-0.0426444 0.202015 2.61162e-19)
(-0.164305 0.187719 7.81166e-20)
(-0.307949 0.177353 -4.28547e-19)
(-0.462195 0.179358 5.06771e-20)
(-0.569972 0.126738 4.50046e-20)
(-0.077157 0.338131 -1.2492e-19)
(-0.135349 0.448328 -7.3074e-19)
(-0.189424 0.481509 9.75914e-20)
(-0.236279 0.479404 1.19386e-19)
(-0.237712 0.387632 -2.77266e-19)
(-0.0865353 0.274045 -2.28083e-19)
(-0.0870484 0.42442 4.13767e-19)
(-0.0538003 0.470468 -5.13502e-20)
(0.0144986 0.479769 -1.40266e-18)
(0.0769155 0.430371 1.98531e-20)
(-0.0761592 0.152003 -2.44427e-20)
(-0.0923329 0.268564 3.02183e-20)
(-0.0488697 0.284251 2.37461e-20)
(0.0589907 0.241752 1.26055e-19)
(0.189104 0.139052 -4.9254e-21)
(-0.075937 0.0932181 -8.25724e-21)
(-0.100239 0.159583 -2.27407e-20)
(-0.025719 0.144096 -4.0146e-20)
(0.158939 0.0746907 2.81526e-20)
(0.381999 0.00603571 7.78969e-20)
(-0.704335 -0.526443 -1.79684e-18)
(1.47786 -0.363941 -8.69775e-19)
(0.516885 1.23328 7.69231e-19)
(0.900849 0.0600547 -1.0023e-18)
(1.14467 -0.600674 7.53995e-21)
(0.585485 -0.893885 2.47128e-18)
(1.58191 -0.506843 3.10626e-20)
(0.292139 1.33807 -7.75653e-20)
(1.13255 -0.0733555 1.19146e-18)
(1.32986 -0.62674 -9.49557e-20)
(1.86323 -1.14259 5.08776e-19)
(1.01279 -0.55237 9.1875e-19)
(0.667406 1.32275 1.00684e-19)
(1.35694 -0.183281 -5.46941e-19)
(1.48908 -0.653303 5.04952e-20)
(1.98487 -1.17045 5.93712e-20)
(-0.305059 -0.477674 1.41499e-21)
(0.957954 1.26158 1.04466e-18)
(1.61033 -0.235323 5.98493e-19)
(1.65034 -0.655915 -1.95721e-19)
(1.9157 -1.04071 -3.61784e-19)
(-0.856445 -0.470262 1.12833e-18)
(0.434951 1.02847 0)
(1.95521 -0.323997 -8.65472e-20)
(1.80565 -0.648611 -9.16195e-20)
(2.48539 -0.818163 -6.73176e-19)
(1.01088 -0.367837 7.0738e-20)
(0.552361 0.427275 4.16887e-20)
(2.33554 -0.561485 -1.63819e-20)
(1.90003 -0.639557 1.86033e-19)
(2.27397 -0.78236 8.08718e-20)
(1.0154 0.0350655 -2.4793e-19)
(1.20343 0.450738 1.93251e-20)
(2.46246 -0.616144 5.64849e-19)
(1.78456 -0.525642 0)
(2.20911 -0.355976 -5.51562e-19)
(1.12927 0.0373127 1.90098e-20)
(1.94232 0.00343523 4.21263e-19)
(2.35635 -0.666742 -3.61092e-19)
(1.37677 -0.423101 1.63628e-20)
(1.87968 -0.279595 -3.25953e-20)
(1.38188 0.0455476 6.51469e-20)
(2.03636 -0.105586 2.4286e-20)
(1.72603 -0.406069 1.21565e-33)
(0.670405 -0.189864 1.54431e-20)
(1.0257 -0.0163737 6.02122e-20)
(0.990617 -0.0300884 2.87193e-20)
(0.993302 -0.134948 -3.72124e-20)
(0.249589 -0.0604163 9.74173e-20)
(-0.274822 -0.00159143 -2.01588e-20)
(2.4107 0.219136 -1.09135e-18)
(2.69743 -0.0239355 -1.40975e-18)
(2.40128 -0.015304 1.24304e-18)
(2.79093 -0.277271 -1.40798e-20)
(2.09379 -0.13673 -7.08378e-20)
(2.13816 0.16497 3.78944e-20)
(2.48195 -0.0400167 -4.58824e-20)
(2.25758 -0.0228304 -1.49616e-19)
(2.49098 -0.247086 -2.61425e-19)
(2.32185 -0.271769 -5.27489e-21)
(2.10024 0.0611973 6.64728e-20)
(2.21781 -0.00813767 1.30331e-19)
(2.19227 -0.0748685 -1.90361e-19)
(2.24112 -0.133026 5.87051e-20)
(2.23108 -0.229723 7.78602e-20)
(2.01844 0.0161802 1.10752e-19)
(1.97037 -0.0236427 9.49644e-20)
(2.0925 -0.0550342 -1.58308e-20)
(2.01502 -0.0982383 4.18452e-20)
(2.12472 -0.127146 1.00538e-20)
(1.45202 -0.018696 1.51907e-19)
(1.36743 -0.0143901 -1.2275e-20)
(1.46319 -0.0355273 2.50096e-20)
(1.32957 -0.0231487 -1.28657e-21)
(1.44552 -0.0552951 5.11493e-20)
(1.62927 0.852313 1.18126e-18)
(1.57106 0.95106 -3.67371e-19)
(1.56592 1.08564 -1.41463e-18)
(1.50021 1.13895 7.79473e-19)
(0.927647 0.831652 -1.86695e-19)
(1.91195 0.811793 -6.13088e-19)
(1.87675 0.890263 -3.16431e-18)
(1.88261 1.0011 -1.21963e-18)
(1.80115 1.02081 -4.44098e-19)
(1.11125 0.731052 -7.21291e-19)
(2.21779 0.689339 8.27137e-19)
(2.19859 0.760183 2.14663e-19)
(2.17627 0.852835 -2.41087e-18)
(2.04928 0.843136 -6.93537e-19)
(1.22741 0.572733 5.34899e-19)
(2.39532 0.56493 2.52305e-18)
(2.3758 0.612481 1.84783e-18)
(2.37786 0.670303 -2.14918e-18)
(2.17657 0.632965 -1.64247e-18)
(1.2125 0.379255 -3.16324e-19)
(2.5223 0.389621 1.29149e-18)
(2.5551 0.417517 -9.26142e-19)
(2.4699 0.445302 6.50703e-19)
(2.14463 0.395778 5.47133e-19)
(1.03568 0.169824 -4.78708e-19)
(0.574853 0.47213 -6.35433e-19)
(0.485664 0.50768 -4.87415e-19)
(0.367489 0.543645 5.61213e-20)
(0.229409 0.554245 -6.45496e-21)
(0.0575168 0.405798 9.11316e-20)
(0.677603 0.650799 1.30917e-19)
(0.614236 0.71293 -2.86697e-19)
(0.528001 0.783237 1.92287e-19)
(0.403405 0.836433 -8.95132e-20)
(0.176536 0.635867 1.26295e-19)
(0.791 0.830077 1.5064e-19)
(0.715943 0.910297 4.84015e-19)
(0.659241 1.01057 1.02349e-19)
(0.576577 1.06134 -3.17805e-19)
(0.317502 0.791533 2.66051e-19)
(1.07061 0.919573 2.48086e-19)
(1.02527 1.00569 -7.29892e-19)
(0.973389 1.10464 -2.00644e-18)
(0.890105 1.17212 8.12949e-19)
(0.527031 0.878129 -1.78725e-19)
(1.14578 0.946523 -1.20174e-19)
(1.17917 1.07418 -2.00355e-19)
(1.20902 1.19637 -3.77112e-19)
(1.161 1.22923 -4.3238e-19)
(0.717541 0.891632 -6.96062e-21)
(1.02412 0.0505897 -1.05191e-19)
(0.983338 0.0471717 -3.85122e-20)
(1.03455 0.116302 -1.43171e-21)
(0.94865 0.155809 -3.29601e-19)
(0.889451 0.290762 3.24988e-19)
(1.01564 0.0474766 6.69422e-20)
(0.992455 0.0476016 1.34581e-19)
(1.02611 0.121069 1.39059e-19)
(0.985577 0.18609 4.55941e-20)
(0.936394 0.369369 -1.86191e-20)
(1.02306 0.0461471 9.15018e-20)
(0.970792 0.0425621 -4.98131e-21)
(1.07823 0.137818 -7.41167e-21)
(0.938717 0.186155 1.63853e-19)
(1.15433 0.511303 -5.14487e-19)
(1.01798 0.0465275 -4.04798e-22)
(0.981642 0.0352559 -1.8498e-19)
(1.08627 0.14847 -7.2915e-20)
(1.02795 0.197026 -4.13465e-19)
(1.16238 0.552397 1.02725e-19)
(1.01324 0.041781 -1.65029e-20)
(0.980911 0.0336201 5.05331e-20)
(1.1459 0.150586 3.47906e-20)
(0.984399 0.226137 4.78174e-19)
(1.44274 0.685465 -4.87149e-19)
(0.974396 0.0463117 -1.44505e-20)
(1.03749 0.00854165 1.07671e-19)
(1.15152 0.176687 -9.38011e-20)
(1.21046 0.154209 8.75702e-19)
(1.30668 0.704037 -3.98411e-19)
(0.911156 0.0238451 -1.50931e-21)
(1.12349 -0.0112135 -1.08428e-19)
(1.14927 0.0993765 4.85556e-21)
(1.3047 0.184714 -2.55154e-19)
(1.23916 0.430942 -1.89157e-20)
(0.95203 0.0276926 -4.17532e-21)
(1.1363 -0.0536669 1.4758e-35)
(1.15927 0.0866101 -6.10729e-20)
(1.21232 0.161085 7.68292e-20)
(1.45599 0.264786 1.76925e-19)
(1.07463 -0.0275281 4.11763e-21)
(1.04613 -0.0692511 -2.45229e-20)
(1.09013 0.0569103 1.71667e-20)
(1.17972 0.0938338 3.23018e-20)
(1.58357 0.139721 -2.66949e-19)
(0.998617 -0.0251986 -4.26147e-20)
(0.799546 -0.0229125 -2.34478e-21)
(0.823879 0.0154823 2.60133e-20)
(0.937429 0.00228398 -1.04339e-20)
(1.14343 0.0322311 -6.10847e-20)
(1.90112 0.650719 3.32266e-19)
(1.94738 0.664244 8.25553e-19)
(2.25971 0.536706 -1.18533e-18)
(2.25872 0.489529 4.56348e-20)
(2.53403 0.283376 5.04351e-19)
(1.80221 0.424728 7.30467e-20)
(1.7726 0.429953 1.04483e-18)
(2.08934 0.348605 1.06179e-19)
(1.97933 0.324754 -9.69577e-19)
(2.34053 0.163509 -3.15896e-19)
(1.7224 0.290313 -2.29347e-19)
(1.80248 0.252436 -1.5315e-19)
(1.9347 0.224378 2.29698e-19)
(1.96651 0.174381 -3.03453e-19)
(2.11526 0.110674 2.71924e-19)
(1.66479 0.158488 3.38381e-19)
(1.77471 0.131554 -4.16765e-21)
(1.77736 0.116273 2.17379e-19)
(1.90343 0.0824346 1.83839e-19)
(1.88767 0.0479221 -1.78783e-19)
(1.27823 0.0383368 -3.84562e-20)
(1.32557 0.024696 2.19148e-19)
(1.33239 0.0181198 1.0021e-19)
(1.39902 0.00171421 -2.15172e-19)
(1.37148 -0.00242963 4.74835e-22)
(1.1301 -0.0241909 4.9555e-20)
(2.15627 -0.0486224 -4.04101e-19)
(2.39294 -0.0366901 1.14795e-18)
(2.38605 0.00567417 5.18563e-19)
(2.22333 0.0327133 -3.45692e-19)
(0.687927 0.0887636 8.58702e-20)
(1.93064 0.0778765 -4.20397e-19)
(2.40689 0.0813575 -5.61153e-19)
(2.45807 0.0935805 6.93059e-19)
(2.21383 0.0839553 -4.37757e-19)
(0.187057 0.0678455 -3.17195e-20)
(1.28652 0.136534 4.37628e-19)
(2.06069 0.161986 6.68269e-20)
(2.46738 0.157061 4.37727e-19)
(2.62064 0.156772 2.29707e-19)
(-0.0612106 -0.0355025 1.94878e-19)
(0.438097 0.0622153 1.91894e-19)
(1.26208 0.138892 -4.10578e-19)
(1.7812 0.180906 2.32554e-20)
(2.40654 0.214974 5.95386e-20)
(-0.113022 -0.0918879 1.28889e-19)
(-0.0334896 -0.0674153 -1.49056e-19)
(0.428358 0.0158326 -2.10318e-20)
(0.897426 0.0479671 6.37527e-21)
(1.3842 0.135556 -3.84318e-20)
(-0.0871785 -0.0925294 1.3488e-20)
(-0.157455 -0.141025 8.24221e-20)
(-0.051738 -0.152482 5.7947e-20)
(0.126432 -0.133758 -6.01013e-20)
(0.560517 -0.0547247 5.50931e-21)
(-0.0478441 -0.0635478 -5.15222e-21)
(-0.130992 -0.147969 -3.66049e-20)
(-0.156034 -0.212992 -1.99231e-20)
(-0.126926 -0.240885 -4.36045e-21)
(0.0253717 -0.173684 1.16601e-21)
(-0.01991 -0.0330914 8.07614e-21)
(-0.07885 -0.13808 1.29839e-19)
(-0.119502 -0.248779 -1.06587e-19)
(-0.139867 -0.327432 -3.32642e-19)
(-0.120674 -0.338739 9.7378e-20)
(-0.0120056 -0.0221769 -1.49568e-20)
(-0.0602308 -0.153148 -1.03001e-19)
(-0.0979355 -0.277336 3.07981e-19)
(-0.137413 -0.346326 3.04825e-19)
(-0.162339 -0.364251 -7.91872e-20)
(-0.0133794 0.0331577 9.44856e-21)
(-0.0940858 -0.0779802 -2.8192e-20)
(-0.187751 -0.150874 5.07412e-21)
(-0.293433 -0.154919 5.79609e-20)
(-0.395134 -0.148268 9.49593e-20)
(1.4224 0.599184 -2.19935e-20)
(1.58711 0.328096 7.82775e-19)
(0.896413 0.37905 1.13518e-19)
(-0.220381 -0.0706999 6.24008e-20)
(0.452008 -0.353232 -4.07581e-20)
(1.06748 0.430097 4.62813e-20)
(1.69922 0.335661 -3.06263e-19)
(1.15642 0.557289 6.34516e-19)
(0.0892206 -0.00727413 1.84233e-21)
(0.497743 -0.419662 1.97283e-19)
(0.471512 0.161423 1.96971e-19)
(1.66946 0.309013 -5.23822e-19)
(1.1268 0.762611 -4.51268e-20)
(0.284331 0.0699689 4.09477e-20)
(0.620269 -0.476686 -2.89704e-20)
(-0.267239 -0.116553 2.34565e-19)
(1.65118 0.161555 4.40891e-19)
(1.03135 0.916786 -5.49723e-19)
(0.511195 0.10724 1.4837e-21)
(0.790169 -0.521135 -1.00271e-19)
(-0.894571 -0.269014 1.54587e-19)
(1.56488 -0.0718972 1.44387e-19)
(0.870828 1.10176 6.66374e-19)
(0.711848 0.134414 -2.35331e-20)
(0.972068 -0.55487 -1.25466e-19)
(0.137099 0.185089 -5.406e-20)
(-0.272316 -0.157712 0)
(-0.319076 -0.0885047 1.2976e-20)
(-0.439275 -0.0617059 2.53361e-21)
(0.338436 -0.0456981 7.98786e-21)
(1.82157 0.549869 0)
(1.30035 0.313269 0)
(0.558724 0.116495 -5.71487e-20)
(-0.473881 -0.115686 -7.50215e-20)
(0.539605 -0.216006 1.22387e-19)
(0.705196 0.00156394 -1.12833e-19)
(0.729942 -0.00720617 9.54194e-20)
(0.997525 0.00380857 -4.58899e-20)
(0.934314 0.00237483 3.22687e-19)
(1.41895 0.091719 2.26964e-19)
(1.60459 0.0256374 1.05706e-19)
(1.75318 0.0656017 1.84322e-19)
(1.94292 0.0414593 -3.28714e-19)
(2.50326 0.189104 -1.78366e-21)
(2.25458 0.121635 1.59432e-19)
(0.883593 -0.460926 -1.45217e-20)
(0.868838 -0.54728 -1.44295e-19)
(0.859861 -0.641267 -1.13852e-19)
(0.787887 -0.705097 6.93089e-20)
(0.473088 -0.546328 1.14444e-19)
(0.78977 -0.367455 1.28139e-19)
(0.734299 -0.429531 2.61243e-19)
(0.658764 -0.495706 -3.56312e-20)
(0.542865 -0.549892 1.18512e-19)
(0.290581 -0.431088 4.20572e-20)
(0.633104 -0.227893 -1.65811e-19)
(0.54218 -0.263712 -4.29682e-20)
(0.44006 -0.309651 1.23116e-19)
(0.32402 -0.350682 -1.22263e-20)
(0.141323 -0.276404 -1.0043e-19)
(0.54073 0.00524754 -4.42709e-19)
(0.455413 -0.00797742 -3.67466e-19)
(0.346808 -0.0311936 2.86969e-19)
(0.220798 -0.0630079 1.87071e-19)
(0.058503 -0.0676191 1.40863e-20)
(0.518941 0.211125 -1.83635e-19)
(0.433252 0.216864 -1.80654e-19)
(0.318115 0.221736 -8.2038e-20)
(0.18315 0.228021 1.59851e-20)
(0.0262053 0.170997 1.17778e-20)
(1.97825 -0.0399506 7.47063e-19)
(2.23166 -0.105098 2.69088e-19)
(2.3068 -0.187302 -6.99145e-19)
(2.15314 -0.21391 -1.41099e-18)
(1.28136 -0.183513 1.05802e-19)
(1.95598 -0.120591 1.25798e-18)
(2.04748 -0.227619 1.64869e-18)
(2.05885 -0.345196 1.34673e-19)
(1.97501 -0.403144 2.31213e-19)
(1.25355 -0.348359 -1.52404e-19)
(1.67933 -0.279119 -3.27583e-18)
(1.73442 -0.391928 3.9152e-19)
(1.77547 -0.511445 1.01753e-18)
(1.71045 -0.582182 -3.94489e-19)
(1.1002 -0.486747 6.12105e-19)
(1.46671 -0.396009 7.79498e-19)
(1.4825 -0.489561 -2.03467e-18)
(1.46672 -0.602021 -2.36736e-18)
(1.39454 -0.684589 7.2545e-19)
(0.890958 -0.557268 4.75358e-19)
(1.18877 -0.452927 1.63361e-19)
(1.13862 -0.541715 2.16884e-19)
(1.12374 -0.657479 -3.52941e-19)
(1.06478 -0.73719 -4.25884e-19)
(0.667747 -0.578516 -4.01303e-21)
(1.07185 0.0574129 7.90663e-21)
(0.91451 0.0578724 -6.41767e-21)
(1.12107 0.0777502 -8.58702e-21)
(0.789864 0.0143092 -1.75742e-19)
(1.09247 -0.20317 -5.85373e-21)
(1.08125 0.0609185 -2.63295e-21)
(0.913659 0.0563896 5.75739e-20)
(1.11641 0.0949159 -5.68391e-20)
(0.879308 0.0606265 8.43904e-20)
(0.972602 -0.0861579 -2.71076e-20)
(1.07938 0.0581577 -6.48274e-20)
(0.91817 0.0534849 6.07733e-22)
(1.10395 0.0953953 -2.26342e-20)
(0.87775 0.0858394 -6.94573e-21)
(0.951322 -0.0279596 -1.44612e-19)
(1.06012 0.0565209 7.95444e-20)
(0.947955 0.0502436 3.66777e-21)
(1.06493 0.101128 3.63773e-20)
(0.922345 0.111657 5.15185e-20)
(0.856781 0.0865663 1.23988e-19)
(1.03616 0.0528068 2.01516e-20)
(0.977045 0.0503681 -3.25225e-20)
(1.0337 0.104639 4.88362e-20)
(0.95098 0.141026 9.20611e-20)
(0.834764 0.184308 -1.34072e-19)
(0.891008 0.0339326 0)
(0.701044 0.0281852 1.05025e-20)
(0.603822 0.023309 2.44888e-21)
(0.333322 -0.00565521 4.09214e-20)
(0.647721 -0.0527525 -1.02503e-19)
(1.03886 0.0762485 -6.63949e-20)
(0.92519 0.0730212 -2.16627e-20)
(1.02453 0.0783487 -2.43181e-20)
(0.793962 0.00748942 -8.98999e-20)
(1.00458 -0.185761 -1.08666e-19)
(0.899805 -0.0618433 -2.47849e-20)
(0.980829 -0.0307724 4.3651e-19)
(1.06697 0.0365665 2.77132e-19)
(0.941538 0.052334 2.23879e-20)
(0.730378 0.0271034 0)
(1.2667 -0.304645 2.44612e-19)
(1.3767 -0.26903 1.2981e-18)
(1.5464 -0.15331 -1.48904e-18)
(1.63354 -0.0214723 -4.64426e-19)
(1.53911 0.0256225 3.39994e-19)
)
;

boundaryField
{
    left
    {
        type            fixedValue;
        value           uniform (1 0 0);
    }
    right
    {
        type            zeroGradient;
    }
    down
    {
        type            noSlip;
    }
    up
    {
        type            noSlip;
    }
    cylinder
    {
        type            noSlip;
    }
    defaultFaces
    {
        type            empty;
    }
}


// ************************************************************************* //
