/*--------------------------------*- C++ -*----------------------------------*\
  =========                 |
  \\      /  F ield         | OpenFOAM: The Open Source CFD Toolbox
   \\    /   O peration     | Website:  https://openfoam.org
    \\  /    A nd           | Version:  13
     \\/     M anipulation  |
\*---------------------------------------------------------------------------*/
FoamFile
{
    format      ascii;
    class       surfaceScalarField;
    location    "5";
    object      phi;
}
// * * * * * * * * * * * * * * * * * * * * * * * * * * * * * * * * * * * * * //

dimensions      [0 3 -1 0 0 0 0];

internalField   nonuniform List<scalar> 
823
(
-0.00232685
0.0151441
-0.0128173
0.012086
0.0121311
-0.026544
0.0670419
-0.0231236
-0.0318323
0.161752
-0.0816613
-0.0130482
-0.0847114
-0.0454388
0.291902
0.0029369
0.0122072
0.043358
-0.02829
0.128867
-0.108632
0.232608
-0.185403
-0.248307
0.396204
0.0210766
-0.00886933
0.102964
-0.110177
0.215124
-0.220793
0.328169
-0.298448
-0.349288
0.42915
0.041715
-0.0505843
0.138186
-0.206648
0.227332
-0.309939
0.287252
-0.358369
-0.374632
0.312596
0.0560464
-0.106631
0.130182
-0.280784
0.175552
-0.355308
0.194473
-0.37729
0.205376
-0.385535
-0.0215958
-0.0150215
0.0366174
-0.0571764
-0.00958705
0.0451677
-0.0943628
-0.000335042
0.0375214
-0.130546
0.00953284
0.0266508
0.0209696
-0.165549
0.0140327
-0.0192403
0.00421878
-0.051792
0.0229646
-0.0862397
0.0341127
-0.117438
0.040731
0.0476591
-0.144127
-0.00730644
0.0115252
-0.0214753
0.0371334
-0.0402722
0.0529097
-0.0587029
0.0591617
0.0609089
-0.0719527
0.00324865
0.00827657
0.0110351
0.029347
0.0166834
0.0472614
0.0213799
0.0544651
0.0618632
0.0204256
-0.00454071
-0.00173773
0.0136914
0.0551082
0.0715327
-0.241434
0.581194
-0.505308
-0.0714453
0.709177
-0.879166
0.235396
-0.314194
0.00735224
0.374516
-0.830771
0.691652
-0.603842
0.561286
-0.115965
0.553031
0.113548
0.479664
0.365678
-0.566323
0.477277
-0.942371
-0.626556
0.041339
0.439739
0.308422
0.212581
0.4927
-0.750601
0.563616
-1.01329
-0.62901
0.168404
0.291762
0.44561
-0.064625
0.597913
-0.902904
0.637597
-1.05297
-0.612436
0.229033
0.134261
0.516142
-0.351734
0.653141
-1.0399
0.679066
-1.0789
-0.588942
1.04892
0.144768
-1.05943
1.28028
-0.583091
1.33655
-1.09618
1.17644
-0.918777
-0.430639
1.45568
0.0689519
-1.37986
1.49463
-0.622044
1.35046
-0.952007
1.08019
-0.648506
-0.245269
1.48991
-0.0421413
-1.37881
1.3946
-0.526734
1.14491
-0.702324
0.902063
-0.405656
-0.115083
1.40259
-0.0842367
-1.3605
1.22331
-0.347452
0.865107
-0.344118
0.579321
-0.11987
-0.00941276
0.861716
-0.945953
0.514264
0.170146
0.050276
1.08442
0.165129
-1.04417
1.15899
0.238023
1.25612
0.332023
1.22786
0.424463
0.46033
1.00106
0.0965035
-0.932436
1.06963
0.16945
1.17753
0.224128
1.27617
0.325823
0.356635
0.961627
0.0434368
-0.90856
1.02422
0.106855
1.11767
0.130677
1.24194
0.201556
0.219762
0.946076
0.00872948
-0.911369
1.01494
0.037991
1.09866
0.0469592
1.22448
0.0757337
0.0837445
0.701525
-0.692795
0.739516
0.786475
0.862209
0.126175
0.297996
-0.246702
-0.17747
0.0828524
0.303291
-0.259968
0.044643
0.312852
-0.274642
0.0140881
0.30116
-0.270605
0.190541
-0.176453
0.0859314
0.332103
-0.120038
0.053297
0.335925
0.0252834
0.340865
0.00360115
0.322843
0.194142
0.0533875
0.364143
-0.0854271
0.0239806
0.365332
0.000245797
0.3646
-0.00884951
0.331938
0.185292
-0.0258976
0.378157
0.0118837
-0.0386591
0.378094
-0.0421945
0.368136
-0.0297907
0.319534
0.155502
-0.101252
0.0938741
-0.100449
-0.0876214
-0.048871
0.203923
0.10427
-0.258421
-0.0497719
0.148713
0.108173
-0.0529635
0.0922741
0.112286
-0.055847
0.0376052
0.111311
-0.056642
0.078141
-0.0405358
0.200533
0.148421
-0.244684
0.153018
0.155688
0.0996719
0.165632
0.0425653
0.168417
0.120706
0.135608
0.193967
-0.181154
0.0945152
0.196781
0.0557773
0.20437
0.0199143
0.20428
0.140621
0.156941
0.227327
-0.190301
0.116468
0.237254
0.0712425
0.249595
0.0275839
0.247939
0.168205
0.078675
-0.0980501
0.0559614
0.0309144
0.00824807
0.407142
0.0500296
-0.0611924
0.426543
0.0109169
-0.0303174
0.411313
0.192374
-0.177144
0.403088
0.159837
-0.151613
0.463518
-0.318851
0.406445
0.0395638
0.420561
-0.00319858
0.400137
0.212797
0.391926
0.168049
0.61076
0.400465
0.035078
0.414529
-0.017262
0.378163
0.249163
0.381293
0.164919
0.810898
0.397407
0.0336504
0.397632
-0.0174864
0.369346
0.277448
0.363677
0.170588
0.984275
0.389131
0.0404993
0.384209
-0.0125644
0.341201
0.320456
0.326169
0.18562
1.21239
0.623948
0.020572
0.634381
-0.0229977
0.685928
0.268909
0.799323
0.0722256
1.031
0.980713
0.636418
-0.0118261
0.62367
-0.010249
0.730701
0.161877
0.78041
0.0225169
0.827461
0.983953
0.6369
-0.0447059
0.637319
-0.0106682
0.739792
0.0594041
0.744639
0.0176704
0.605552
0.966548
0.621778
-0.0624633
0.643286
-0.0321763
0.708432
-0.00574212
0.708577
0.0175257
0.309561
1.00457
0.541557
0.509381
0.503639
0.521164
0.830726
1.01075
-0.207503
0.999334
-0.108626
1.00292
-0.0890089
1.00386
0.0109362
0.053569
0.934494
-0.158045
0.914795
-0.0889266
0.894702
-0.0689153
0.913172
-0.00753437
0.0343049
0.904441
-0.0959379
0.889901
-0.0743865
0.874099
-0.0531134
0.891066
-0.0245015
0.0168106
0.951156
-0.0425263
0.917079
-0.0403092
0.895374
-0.0314091
0.893336
-0.0224636
-0.00122198
0.788199
0.74789
0.716481
0.694017
0.0522704
0.16439
-0.21666
0.0772176
0.350545
-0.375492
0.0774505
0.404334
-0.404567
0.0676439
0.406132
-0.396326
0.373671
0.055764
-0.361791
0.0784682
0.0859218
0.153432
0.275581
0.188415
0.369351
0.193483
0.401065
0.392904
0.174249
0.0667424
0.0191795
0.188137
0.154186
0.284327
0.273161
0.347809
0.337582
0.388183
0.352531
0.0322078
-0.0130284
0.14204
0.0443541
0.273395
0.141806
0.399359
0.211619
0.288779
0.498762
0.00677937
-0.0198078
0.063527
-0.0123936
0.172581
0.0327523
0.303215
0.0809845
0.144985
0.44701
-0.000804215
-0.0190035
0.0182631
-0.0314609
0.0738467
-0.0228313
0.157739
-0.00290801
0.0425252
0.260199
0.00453306
-0.0235366
0.0175107
-0.0444386
0.0410617
-0.0463823
0.0746515
-0.0364978
-0.0137284
0.130905
0.0140243
-0.0375609
0.0334696
-0.0638839
0.0520153
-0.0649281
0.0703753
-0.0548578
-0.0401017
0.0967486
0.010266
-0.0478269
0.0168481
-0.0704659
0.0191943
-0.0672744
0.020526
-0.0561894
-0.042956
0.0233803
-0.0112095
-0.0365078
-0.0662608
-0.0957993
-0.124723
0.355098
0.739916
-0.834815
0.293058
0.539029
-0.476988
0.211605
0.138582
-0.0571295
0.231295
-0.145268
0.125577
-0.16621
0.0968467
0.337054
0.533767
0.208169
0.667913
0.0786762
0.268076
0.144551
-0.211142
-0.272513
0.235855
0.394661
0.0515014
0.852266
-0.0154124
0.33499
0.132086
-0.358641
-0.388742
0.00291975
0.415122
-0.0922564
0.947442
-0.00104166
0.243775
0.175165
-0.534848
-0.48943
-0.214909
-0.146633
0.104494
0.261298
0.0835497
0.552915
-0.636465
-0.0729622
0.156512
0.00731753
-0.0802797
0.114937
-0.10762
-0.0573118
0.860238
-1.14214
0.539761
0.402352
0.42031
0.0946367
-0.015214
-0.0794226
0.151555
-0.056918
0.262988
-0.111433
0.436307
-0.173319
-0.200158
0.211414
-0.170864
0.328745
0.569843
0.895286
0.144425
-0.145481
0.176088
-0.175032
0.110692
-0.151762
0.185495
0.0717776
-0.159912
0.198827
0.0294017
-0.160642
0.203018
-0.114114
0.143516
0.187528
-0.105243
-0.227767
0.142189
-0.106423
0.0908476
-0.108571
0.0377982
-0.107593
-0.076316
0.190315
-0.0548895
-0.240668
0.138858
-0.0549667
0.0864701
-0.0561826
0.0353039
-0.0564268
-0.0410121
0.206305
-0.00244874
-0.258745
0.153057
-0.00171901
0.0979061
-0.00103195
0.0415059
-2.64959e-05
0.000493821
0.208272
-0.260493
0.153589
0.0967104
0.040042
0.0443256
-0.339138
-0.0669788
0.0177982
-0.369799
-0.00614904
-0.380619
-0.0165683
-0.365073
-0.233229
0.131069
-0.305813
-0.164394
0.0857358
-0.324465
0.0417507
-0.336634
0.00862659
-0.331949
-0.224602
0.150882
-0.263023
-0.193672
0.106413
-0.279996
0.0626692
-0.29289
0.0226192
-0.291899
-0.201983
0.171096
-0.225497
-0.208623
0.125505
-0.234404
0.0769553
-0.244341
0.0307269
-0.245671
-0.171256
0.164815
-0.214224
0.115906
0.0703925
0.0277402
0.391022
0.0833967
-0.0784393
0.396845
0.092878
-0.0987013
0.359077
0.168899
-0.131131
0.306277
0.02535
0.0274503
-0.227653
0.358898
0.395154
0.0842226
0.409055
0.0789763
0.400558
0.177397
0.352744
0.0731639
-0.102676
0.399222
0.0809805
0.4152
0.0629978
0.416149
0.176448
0.37878
0.110533
0.035436
0.404127
0.0728335
0.420191
0.0469334
0.423203
0.173436
0.398505
0.135232
0.175195
0.407621
0.424237
0.420529
0.404148
0.424472
0.085579
0.335166
0.0893058
0.249233
0.0859332
0.272478
-0.0232451
-0.192827
0.465306
0.517191
0.507795
0.462598
0.466803
0.632873
0.372705
0.0926002
0.290208
0.0824975
0.194217
0.0959912
0.113115
0.0811017
0.0336924
0.511249
0.385124
0.287443
0.20415
)
;

boundaryField
{
    left
    {
        type            calculated;
        value           nonuniform List<scalar> 
17
(
-0.60402
-0.60402
-0.60402
-0.60402
-0.60402
-0.39598
-0.39598
-0.39598
-0.39598
-0.39598
-0.39598
-0.39598
-0.39598
-0.39598
-0.39598
-0.510051
-0.510051
)
;
    }
    right
    {
        type            calculated;
        value           nonuniform List<scalar> 
17
(
0.172249
0.459844
0.300659
0.250853
0.248316
0.275852
0.333154
0.417072
0.499991
0.566071
0.621023
0.655572
1.01813
0.89482
0.771876
0.473651
0.0408632
)
;
    }
    down
    {
        type            calculated;
        value           uniform 0;
    }
    up
    {
        type            calculated;
        value           uniform 0;
    }
    cylinder
    {
        type            calculated;
        value           uniform 0;
    }
    defaultFaces
    {
        type            empty;
    }
}


// ************************************************************************* //
