/*--------------------------------*- C++ -*----------------------------------*\
  =========                 |
  \\      /  F ield         | OpenFOAM: The Open Source CFD Toolbox
   \\    /   O peration     | Website:  https://openfoam.org
    \\  /    A nd           | Version:  13
     \\/     M anipulation  |
\*---------------------------------------------------------------------------*/
FoamFile
{
    format      ascii;
    class       volVectorField;
    location    "5";
    object      U;
}
// * * * * * * * * * * * * * * * * * * * * * * * * * * * * * * * * * * * * * //

dimensions      [0 1 -1 0 0 0 0];

internalField   nonuniform List<vector> 
440
(
(-0.0787861 0.0531953 -7.35856e-20)
(-0.110148 0.0968024 6.19401e-21)
(-0.0273831 0.0920666 9.10294e-20)
(0.370781 0.128649 2.66201e-19)
(0.183698 0.354142 9.86286e-21)
(-0.0912984 0.0485561 3.10646e-20)
(0.0103786 0.0255641 -1.13307e-19)
(0.42223 -0.0144173 -1.04268e-19)
(0.958414 -0.0324475 6.30592e-20)
(1.30957 -0.0097074 1.45821e-20)
(-0.0389068 0.0159447 5.03354e-20)
(0.400859 -0.0183067 6.11262e-19)
(1.12481 0.000954931 -3.14972e-19)
(1.68564 0.0400883 -9.89387e-19)
(2.23851 0.0674647 3.1377e-19)
(0.157327 -0.0360421 -1.6517e-19)
(1.06763 0.0121495 -4.51529e-19)
(1.83112 0.0891929 1.41677e-18)
(2.30294 0.137183 1.50123e-18)
(2.41727 0.161417 -4.19872e-19)
(0.494052 -0.00642914 -2.68245e-19)
(1.62021 0.181468 -5.44286e-19)
(2.18737 0.270917 1.62658e-18)
(2.33381 0.295659 1.77683e-18)
(2.4162 0.274053 6.03276e-19)
(-0.00583582 -0.160587 -1.25193e-19)
(-0.100389 -0.170423 1.25338e-19)
(-0.197797 -0.12203 -1.99977e-19)
(-0.285472 -0.0649953 4.59025e-20)
(-0.347974 0.00338837 3.38176e-19)
(-0.00983096 -0.0298721 -1.94069e-20)
(-0.108006 0.0177689 -5.14793e-20)
(-0.206697 0.0538234 -5.14615e-20)
(-0.291727 0.0939222 -4.17642e-20)
(-0.354232 0.147807 6.58943e-20)
(-0.033941 0.0670351 8.7883e-20)
(-0.122976 0.200775 -3.16227e-21)
(-0.194764 0.255368 6.12035e-20)
(-0.244272 0.257731 -5.59356e-20)
(-0.277138 0.259226 3.31522e-21)
(-0.0289284 0.0506144 -1.24644e-20)
(-0.0934509 0.190849 3.07281e-20)
(-0.135264 0.29847 1.27665e-20)
(-0.15594 0.347057 -2.04702e-19)
(-0.152612 0.358193 5.15907e-20)
(-0.0440467 0.0377799 -2.95902e-20)
(-0.126587 0.12465 -4.47021e-20)
(-0.187965 0.22614 -1.38078e-19)
(-0.155487 0.30141 1.00176e-19)
(-0.137153 0.429162 -4.33217e-20)
(-0.494215 0.378231 1.01739e-18)
(-0.709497 0.560724 4.22764e-19)
(0.356512 -0.117823 4.43135e-19)
(0.842425 -0.535569 -2.45788e-19)
(1.05256 -0.410665 -8.46154e-21)
(-0.537386 0.419358 -6.53193e-19)
(-0.203576 0.421323 -4.17674e-20)
(0.749067 -0.317982 1.0764e-19)
(1.19264 -0.627973 3.40079e-19)
(1.26195 -0.437178 3.41081e-20)
(-0.433521 0.331704 -3.27643e-19)
(0.430522 0.226141 2.45495e-20)
(1.1946 -0.459661 -6.74994e-20)
(1.52823 -0.686247 1.78434e-19)
(1.42886 -0.444554 1.44691e-20)
(-0.268791 0.271604 2.44812e-19)
(0.945279 0.0602313 2.37003e-20)
(1.6036 -0.553661 1.19009e-19)
(1.84736 -0.701343 -8.95209e-20)
(1.56773 -0.427918 1.25373e-19)
(-0.114554 0.0939499 -9.96272e-20)
(1.40532 -0.167313 4.0049e-20)
(1.92241 -0.636805 0)
(2.06238 -0.68839 -3.69322e-20)
(1.65511 -0.391836 3.50252e-20)
(1.24934 0.0949846 -2.32172e-19)
(2.06307 -0.298362 -1.06023e-19)
(2.26169 -0.659505 -1.65618e-20)
(2.21036 -0.626665 4.64201e-20)
(1.68531 -0.330719 -9.82301e-20)
(2.07565 0.0717228 -1.27633e-20)
(2.61112 -0.392542 7.90466e-19)
(2.42245 -0.68419 -1.05718e-20)
(2.09151 -0.517938 1.1121e-20)
(1.48137 -0.206378 0)
(2.27743 0.00629345 -1.85016e-19)
(2.56843 -0.36595 -4.97844e-21)
(2.09964 -0.492817 2.59087e-19)
(1.71848 -0.302667 -8.14426e-22)
(1.27803 -0.10795 -3.77633e-20)
(2.27373 -0.052658 9.20577e-20)
(2.31062 -0.302816 2.27587e-19)
(1.73077 -0.402763 -3.18525e-21)
(1.15443 -0.193248 -3.76075e-34)
(0.784273 -0.028447 6.39524e-20)
(1.59717 -0.0461969 7.93881e-20)
(1.23164 -0.107022 8.11551e-20)
(0.445262 -0.00517785 -7.27588e-20)
(0.107988 0.0374871 -7.57466e-21)
(0.0677983 0.0151901 9.02764e-21)
(2.35429 0.2884 -7.25845e-19)
(2.53755 0.092598 -8.75514e-19)
(2.41407 0.145094 4.871e-19)
(2.57442 -0.00659489 9.07569e-20)
(1.94462 0.154082 -1.10275e-20)
(2.08665 0.177526 8.38364e-20)
(2.35056 0.0861051 -3.39848e-20)
(2.24094 0.0269301 -1.15355e-19)
(2.41599 -0.0186075 -1.8298e-19)
(2.31095 -0.139461 -3.97584e-21)
(2.06952 0.0673587 8.0911e-20)
(2.2044 0.0673572 6.61069e-20)
(2.20215 -0.0424561 -6.55394e-20)
(2.26128 -0.00736998 2.7898e-20)
(2.2952 -0.125742 -2.19225e-20)
(2.08535 0.00250395 1.1354e-19)
(2.14638 0.0155189 1.74831e-19)
(2.19108 -0.0561234 -1.89781e-20)
(2.21415 -0.0300244 -9.19425e-20)
(2.26747 -0.0981469 3.11169e-20)
(1.5656 -0.0195962 1.90323e-19)
(1.57768 -0.0186075 -1.11122e-20)
(1.57532 -0.02488 1.61941e-20)
(1.57881 -0.0229254 -4.25718e-20)
(1.58038 -0.0311518 -3.34379e-20)
(1.53896 0.852394 1.09713e-18)
(1.50085 0.947339 -3.57444e-19)
(1.49793 1.07038 -1.29959e-18)
(1.42002 1.10313 6.92169e-19)
(0.862404 0.771246 -1.60265e-19)
(1.80427 0.814786 -5.53306e-19)
(1.77742 0.885578 -2.91487e-18)
(1.78373 0.984473 -1.11246e-18)
(1.68199 0.980627 -3.79788e-19)
(1.00927 0.659622 -6.01418e-19)
(2.10773 0.692676 7.18326e-19)
(2.08122 0.753794 1.83673e-19)
(2.04714 0.828269 -2.15854e-18)
(1.89646 0.8052 -5.76535e-19)
(1.09329 0.510358 4.09529e-19)
(2.24918 0.577504 2.13429e-18)
(2.2386 0.624054 1.54237e-18)
(2.22442 0.661899 -1.75849e-18)
(1.98157 0.607619 -1.29882e-18)
(1.05237 0.330216 -2.27506e-19)
(2.40694 0.425394 9.99415e-19)
(2.39255 0.442216 -7.14369e-19)
(2.27092 0.456393 5.12968e-19)
(1.91342 0.389267 3.86328e-19)
(0.855073 0.138281 -3.16454e-19)
(0.584673 0.457504 -6.8716e-19)
(0.491179 0.4929 -5.34621e-19)
(0.369833 0.526385 6.31156e-20)
(0.229212 0.521667 -1.22927e-20)
(0.0557171 0.36577 7.47451e-20)
(0.691802 0.621024 7.00976e-20)
(0.627063 0.675556 -3.21154e-19)
(0.535424 0.738863 1.77977e-19)
(0.405829 0.797613 -8.24842e-20)
(0.175552 0.608783 1.17829e-19)
(0.762708 0.836543 1.29401e-19)
(0.690041 0.9202 4.49788e-19)
(0.636031 1.01498 9.79143e-20)
(0.552837 1.04612 -2.94786e-19)
(0.303083 0.764564 2.43505e-19)
(1.0577 0.898401 2.11618e-19)
(1.00333 0.976146 -6.58777e-19)
(0.947971 1.07206 -1.84739e-18)
(0.862664 1.13721 7.40348e-19)
(0.506352 0.838493 -1.63419e-19)
(1.10871 0.96929 -1.03639e-19)
(1.14332 1.08429 -1.78984e-19)
(1.16462 1.18879 -3.48882e-19)
(1.10663 1.19886 -3.89754e-19)
(0.677179 0.843611 -6.23565e-21)
(0.987574 0.0422559 -8.89045e-20)
(1.01554 0.0155294 -2.62609e-20)
(1.03385 0.132312 -1.92082e-21)
(0.955915 0.107671 -1.748e-19)
(0.91608 0.276364 3.00883e-19)
(0.97664 0.0379028 5.57324e-20)
(1.03789 0.0122101 1.0443e-19)
(1.01096 0.14372 1.22819e-19)
(0.993138 0.127373 1.82039e-20)
(0.94405 0.361563 3.8735e-21)
(0.98539 0.0355144 7.44498e-20)
(1.02147 0.00393571 -4.36337e-21)
(1.05247 0.164828 -2.31386e-21)
(0.944129 0.126959 1.42987e-19)
(1.15449 0.507492 -4.64173e-19)
(0.983847 0.0330025 -3.91465e-22)
(1.0372 -0.00467726 -1.6043e-19)
(1.03504 0.189842 -6.09996e-20)
(1.04552 0.105929 -3.47624e-19)
(1.18106 0.571918 8.34674e-20)
(0.988967 0.0257648 -1.25977e-20)
(1.02908 -0.000579303 4.40213e-20)
(1.07343 0.183468 2.79291e-20)
(1.03411 0.142914 4.49196e-19)
(1.36153 0.708391 -4.62123e-19)
(0.973268 0.0255177 -7.07662e-21)
(1.07235 -0.0207528 9.33751e-20)
(1.03626 0.216935 -5.84426e-20)
(1.28677 0.050739 1.0127e-18)
(1.31895 0.770419 -3.42538e-19)
(0.957532 -0.000918485 -1.39312e-21)
(1.11959 -0.00990636 -7.81932e-20)
(0.978801 0.127278 5.18797e-21)
(1.41943 0.0303979 -3.27346e-19)
(1.23957 0.579344 -6.31242e-20)
(0.981729 -0.0123336 3.24318e-21)
(1.09177 -0.00109235 1.33682e-35)
(1.05878 0.0732583 -8.47742e-21)
(1.34503 0.00251874 8.9299e-20)
(1.21126 0.438679 1.65797e-19)
(1.03309 -0.0479984 3.92568e-21)
(0.984579 -0.0143117 -2.62518e-20)
(1.19441 0.000164529 1.9489e-20)
(1.09166 0.0171686 1.97989e-20)
(1.35069 0.308108 -2.52023e-19)
(0.945451 -0.022609 -3.87316e-20)
(0.803947 -0.0230875 -1.26779e-21)
(0.930127 -0.00711972 2.37732e-20)
(0.680345 0.0022587 -2.08502e-20)
(1.1323 0.0919384 -5.66504e-20)
(1.77649 0.638875 2.73767e-19)
(1.86844 0.67177 7.10187e-19)
(2.11538 0.534993 -1.00715e-18)
(2.179 0.508657 1.19925e-20)
(2.37961 0.314286 4.25946e-19)
(1.71968 0.422282 7.97117e-20)
(1.70084 0.455661 9.05802e-19)
(1.94704 0.360702 1.08354e-19)
(1.90241 0.33576 -8.52885e-19)
(2.17774 0.21338 -2.59695e-19)
(1.63554 0.320468 -2.1643e-19)
(1.69499 0.294057 -1.41775e-19)
(1.87478 0.24608 1.6358e-19)
(1.89376 0.187255 -2.68748e-19)
(2.07389 0.15243 2.52798e-19)
(1.68378 0.205755 3.94103e-19)
(1.78169 0.161668 -3.19799e-22)
(1.89259 0.130691 2.16362e-19)
(1.95196 0.0777757 1.88467e-19)
(2.04242 0.0680345 -1.88073e-19)
(1.39152 0.0416817 -5.28996e-20)
(1.47259 0.0230907 2.53217e-19)
(1.52109 0.00752207 1.07012e-19)
(1.54491 -0.00516215 -2.1984e-19)
(1.564 -0.0111504 1.32479e-22)
(1.2774 -0.0291473 7.28404e-20)
(2.33695 -0.0354254 -5.06727e-19)
(2.56347 -0.0296244 1.34519e-18)
(2.53925 0.0155825 5.97556e-19)
(2.37313 0.0373388 -4.19158e-19)
(0.8213 0.101477 1.38562e-19)
(2.1139 0.104549 -5.09356e-19)
(2.56402 0.108074 -7.0215e-19)
(2.60478 0.115502 8.87527e-19)
(2.34936 0.106932 -6.09797e-19)
(0.269966 0.0935217 -2.34552e-20)
(1.47303 0.178146 5.52436e-19)
(2.24029 0.205476 7.98566e-20)
(2.6036 0.202476 6.18907e-19)
(2.73594 0.186752 2.70721e-19)
(-0.024335 -0.0116621 2.22203e-19)
(0.590251 0.114266 2.26711e-19)
(1.44384 0.199891 -5.16438e-19)
(1.96844 0.235898 3.23776e-20)
(2.52927 0.264686 1.4701e-19)
(-0.100129 -0.0799586 1.61823e-19)
(0.0453429 -0.0275749 -1.80884e-19)
(0.564937 0.0769024 -2.95842e-20)
(1.06337 0.128747 6.35183e-20)
(1.57433 0.225433 -4.85183e-21)
(-0.084736 -0.093165 9.31971e-21)
(-0.111973 -0.131683 1.02467e-19)
(0.0486437 -0.112576 6.5792e-20)
(0.278828 -0.0581533 -5.46257e-20)
(0.747047 0.0520679 6.51582e-21)
(-0.0605935 -0.103264 -2.40187e-20)
(-0.0953712 -0.209107 -6.72283e-20)
(-0.058072 -0.236879 -1.22497e-20)
(0.0260799 -0.204377 -1.78744e-21)
(0.214653 -0.091266 1.04126e-20)
(-0.0587377 -0.181759 -2.67131e-20)
(-0.0667769 -0.351871 -2.52094e-22)
(-0.0346331 -0.385665 6.75827e-20)
(0.0200636 -0.347265 4.43227e-19)
(0.0817556 -0.264184 -1.2378e-19)
(-0.0509967 -0.288407 1.729e-20)
(-0.0641908 -0.462308 1.80861e-19)
(-0.0598539 -0.458311 -6.27163e-19)
(-0.0441277 -0.390507 -5.8407e-19)
(-0.0281829 -0.307762 1.165e-19)
(-0.0265538 -0.282989 -1.14289e-20)
(-0.0942671 -0.377907 5.0178e-20)
(-0.166157 -0.331579 -1.77847e-20)
(-0.232646 -0.253698 -5.55841e-20)
(-0.272982 -0.166504 -5.62723e-21)
(1.55508 0.528797 -6.0314e-20)
(1.13495 0.326449 6.07569e-19)
(0.694927 0.054444 -9.97522e-20)
(0.427408 -0.0802809 -7.44702e-20)
(0.759038 -0.0708841 1.01506e-21)
(1.32621 0.469022 5.11053e-20)
(0.951323 0.403421 9.25509e-20)
(0.313608 0.141597 -1.21727e-19)
(0.0889746 -0.0957436 -9.99011e-21)
(0.633219 -0.129734 -1.29278e-20)
(0.938957 0.277573 1.10422e-19)
(0.534289 0.497904 6.16058e-19)
(-0.0992234 0.221203 6.59523e-20)
(0.0205165 -0.190828 -3.88677e-19)
(0.626705 -0.217204 -7.99488e-21)
(0.305071 0.252749 -1.92831e-19)
(-0.11389 0.639372 -1.76909e-18)
(-0.18469 0.230848 -2.32364e-19)
(0.169463 -0.308869 5.27694e-21)
(0.696096 -0.299355 -4.41569e-22)
(-0.259594 0.340685 -1.73402e-19)
(-0.671852 0.658718 -8.33141e-20)
(0.0328977 0.10172 3.77247e-19)
(0.46736 -0.429088 -4.37931e-20)
(0.840696 -0.366513 -2.15448e-20)
(0.484461 0.151701 -6.42388e-20)
(-0.188677 -0.0647156 0)
(-0.0769785 -0.0937004 -4.90152e-20)
(0.108506 -0.047037 2.77625e-20)
(0.337452 -0.0199867 9.50699e-21)
(2.03203 0.482446 0)
(1.31582 0.27203 0)
(0.8432 0.00602011 3.64039e-19)
(0.744628 -0.0796223 3.84014e-20)
(0.90133 -0.0497619 -8.06658e-21)
(0.766273 0.00218554 -1.41681e-19)
(0.849627 -0.00188107 3.41772e-19)
(0.973623 0.000432605 -1.83811e-20)
(1.08238 0.0137725 2.9812e-19)
(1.38283 0.0893585 1.93288e-19)
(1.72457 0.0265578 1.36177e-19)
(1.89505 0.0822969 4.06031e-19)
(2.0231 0.0763249 -2.80931e-19)
(2.60362 0.195465 4.17276e-20)
(2.29774 0.188839 1.64452e-19)
(0.938969 -0.503331 5.12423e-21)
(0.930983 -0.598339 -1.95466e-19)
(0.926416 -0.700939 -1.52864e-19)
(0.858067 -0.774142 9.27091e-20)
(0.527829 -0.615206 1.42661e-19)
(0.838243 -0.406963 1.1471e-19)
(0.782712 -0.474573 1.86186e-19)
(0.708531 -0.549095 -8.41289e-20)
(0.595934 -0.61601 1.51914e-19)
(0.330406 -0.497004 4.82653e-20)
(0.668783 -0.268648 -1.24917e-19)
(0.581563 -0.311971 -5.99524e-20)
(0.481495 -0.36608 4.48291e-20)
(0.362675 -0.413368 -3.66204e-20)
(0.166136 -0.333528 -1.38183e-19)
(0.569378 -0.0339772 -4.44368e-19)
(0.483167 -0.0520152 -3.61494e-19)
(0.371225 -0.0782925 2.96043e-19)
(0.240964 -0.110775 1.61808e-19)
(0.0706815 -0.110052 1.35021e-20)
(0.537653 0.176637 -1.4538e-19)
(0.449183 0.176245 -1.58736e-19)
(0.329019 0.174378 -4.9585e-20)
(0.188763 0.178078 4.01882e-20)
(0.0297901 0.13055 1.31679e-20)
(2.1165 -0.0351753 8.87063e-19)
(2.37861 -0.104356 2.98318e-19)
(2.46016 -0.192787 -7.92018e-19)
(2.32748 -0.219422 -1.70509e-18)
(1.42797 -0.205693 1.38751e-19)
(2.0907 -0.126375 1.4922e-18)
(2.18147 -0.2403 1.97061e-18)
(2.20379 -0.366667 1.66209e-19)
(2.1341 -0.427992 2.91781e-19)
(1.38941 -0.390404 -1.93333e-19)
(1.78705 -0.293149 -3.83951e-18)
(1.84996 -0.413571 4.13629e-19)
(1.89919 -0.542927 1.20908e-18)
(1.85014 -0.623691 -4.66379e-19)
(1.21764 -0.542389 7.47922e-19)
(1.56393 -0.420362 9.2311e-19)
(1.58142 -0.522002 -2.45322e-18)
(1.57143 -0.644915 -2.81252e-18)
(1.50997 -0.738894 8.74361e-19)
(0.985555 -0.621109 5.87572e-19)
(1.26052 -0.481942 2.06313e-19)
(1.21319 -0.579057 2.77487e-19)
(1.20749 -0.706659 -4.3365e-19)
(1.15939 -0.800662 -5.24528e-19)
(0.742993 -0.647026 -4.96264e-21)
(1.01385 0.0424147 6.92628e-21)
(0.985738 0.0550196 -8.15346e-22)
(1.11566 0.0877549 4.70064e-21)
(0.83768 -0.0123769 -2.52053e-19)
(1.12916 -0.217157 -1.95978e-20)
(1.02999 0.0460296 -2.43428e-21)
(0.955694 0.0465368 3.28966e-20)
(1.12573 0.107381 -5.52413e-21)
(0.916917 0.029223 2.15773e-19)
(1.01644 -0.103875 1.50508e-21)
(1.03647 0.0444248 -5.74828e-20)
(0.943757 0.0375173 -7.74861e-23)
(1.10782 0.107433 -8.43797e-21)
(0.923085 0.0524907 1.10972e-19)
(0.976288 -0.0418666 -2.50139e-19)
(1.02483 0.0454018 7.05629e-20)
(0.963989 0.0289878 2.84381e-21)
(1.06971 0.110966 2.50969e-20)
(0.953667 0.0770298 -5.58419e-20)
(0.883916 0.0686104 7.11358e-20)
(1.00238 0.0431529 1.74212e-20)
(0.998814 0.0256608 -2.22348e-20)
(1.03396 0.114868 3.88316e-20)
(0.970742 0.0998907 3.83915e-20)
(0.862052 0.171237 -4.68757e-20)
(0.877656 0.033273 0)
(0.75719 0.0298905 9.86038e-21)
(0.575195 0.0196425 5.743e-21)
(0.395423 -0.0125675 5.16652e-20)
(0.719123 -0.0515541 -1.70642e-19)
(0.986273 0.0638775 -6.14583e-20)
(1.01657 0.076151 -6.55222e-21)
(0.995074 0.082455 -5.82914e-20)
(0.839582 -0.0181394 -1.42361e-19)
(1.04989 -0.202211 -1.79446e-19)
(0.995285 -0.0635822 -3.86236e-20)
(1.08479 -0.0327895 5.7877e-19)
(1.18379 0.0384098 3.42675e-19)
(1.05495 0.0581291 3.36305e-20)
(0.819101 0.0314458 0)
(1.34537 -0.321049 3.8253e-19)
(1.46687 -0.283751 1.64229e-18)
(1.65497 -0.161507 -1.78238e-18)
(1.76202 -0.0217696 -5.54169e-19)
(1.67226 0.033492 4.18021e-19)
)
;

boundaryField
{
    left
    {
        type            fixedValue;
        value           uniform (1 0 0);
    }
    right
    {
        type            zeroGradient;
    }
    down
    {
        type            noSlip;
    }
    up
    {
        type            noSlip;
    }
    cylinder
    {
        type            noSlip;
    }
    defaultFaces
    {
        type            empty;
    }
}


// ************************************************************************* //
