/*--------------------------------*- C++ -*----------------------------------*\
  =========                 |
  \\      /  F ield         | OpenFOAM: The Open Source CFD Toolbox
   \\    /   O peration     | Website:  https://openfoam.org
    \\  /    A nd           | Version:  13
     \\/     M anipulation  |
\*---------------------------------------------------------------------------*/
FoamFile
{
    format      ascii;
    class       surfaceScalarField;
    location    "0.4675";
    object      phi;
}
// * * * * * * * * * * * * * * * * * * * * * * * * * * * * * * * * * * * * * //

dimensions      [0 3 -1 0 0 0 0];

internalField   nonuniform List<scalar> 
3485
(
0.00202422
-0.00314185
0.00111764
0.00862971
-0.0568501
0.0502446
0.0180836
-0.108746
0.0992925
0.0284409
-0.137216
0.126858
0.0387084
-0.147615
0.137347
0.0485747
-0.148879
0.139012
0.0579931
-0.146477
0.137059
0.0669631
-0.142885
0.133915
0.0754392
-0.138925
0.130449
-0.134694
0.126482
0.0836513
0.0025117
-0.00565356
0.00953857
-0.0638769
0.018986
-0.118194
0.029002
-0.147232
0.0388106
-0.157424
0.0482897
-0.158358
0.0575372
-0.155725
0.0666815
-0.152029
0.0759144
-0.148158
-0.144402
0.0856224
0.00294246
-0.00859601
0.0102515
-0.071186
0.0194526
-0.127395
0.0287813
-0.15656
0.03764
-0.166282
0.0460167
-0.166734
0.0540396
-0.163747
0.0618201
-0.15981
0.0694395
-0.155777
-0.151809
0.0768464
0.00338283
-0.0119788
0.010923
-0.0787262
0.0198195
-0.136291
0.0284557
-0.165197
0.0364583
-0.174285
0.0439661
-0.174242
0.0511815
-0.170963
0.0582401
-0.166869
0.0652197
-0.162757
-0.158844
0.0722549
0.00374046
-0.0157193
0.0113309
-0.0863166
0.0196981
-0.144659
0.0274032
-0.172902
0.0342984
-0.18118
0.0406513
-0.180595
0.0467131
-0.177025
0.052631
-0.172786
0.0584924
-0.168618
-0.164692
0.06434
0.00403736
-0.0197567
0.0115248
-0.093804
0.0192138
-0.152348
0.02589
-0.179578
0.0316396
-0.18693
0.0368465
-0.185802
0.0417992
-0.181977
0.0466472
-0.177634
0.0514605
-0.173431
-0.169521
0.0562894
0.00422141
-0.0239781
0.0113979
-0.100981
0.0182114
-0.159161
0.0237073
-0.185074
0.0281979
-0.19142
0.0321604
-0.189765
0.0359074
-0.185724
0.0395863
-0.181313
0.0432603
-0.177105
-0.173219
0.0469591
0.00428547
-0.0282636
0.0109515
-0.107647
0.0167208
-0.16493
0.0209375
-0.18929
0.0241195
-0.194602
0.0268072
-0.192452
0.0293183
-0.188236
0.0317885
-0.183783
0.0342687
-0.179586
-0.175731
0.0367797
0.00420358
-0.0324671
0.0101577
-0.113601
0.0147217
-0.169494
0.0175876
-0.192156
0.0194233
-0.196438
0.0208108
-0.19384
0.0220609
-0.189486
0.0232951
-0.185018
0.0245555
-0.180846
-0.177028
0.0258531
0.00397169
-0.0364388
0.00903733
-0.118666
0.0122746
-0.172732
0.0137627
-0.193644
0.0142325
-0.196908
0.0143173
-0.193925
0.0143081
-0.189477
0.0143049
-0.185014
0.014338
-0.180879
0.0144147
-0.177105
-0.000884954
0.000563789
0.000321165
0.00242691
-0.00827481
0.00496294
0.0108483
-0.0179151
0.00949375
0.0224967
-0.0237838
0.0121353
0.0355857
-0.0263174
0.0132285
0.0490791
-0.026962
0.0134685
0.0624921
-0.0267374
0.0133244
0.0756315
-0.0261748
0.0130354
0.0884403
-0.0255164
0.0127076
-0.0250538
0.101092
0.0124024
-0.000798521
0.00136231
0.00262932
-0.0117027
0.0111088
-0.0263946
0.0227455
-0.0354205
0.0357719
-0.0393439
0.0491732
-0.0403632
0.0624796
-0.0400438
0.0755073
-0.0392024
0.0882062
-0.0382153
-0.0375986
0.100751
-0.000672454
0.00203476
0.00292222
-0.0152973
0.0114888
-0.0349612
0.0231149
-0.0470465
0.036059
-0.052288
0.0493357
-0.05364
0.0624963
-0.0532044
0.0753692
-0.0520753
0.087914
-0.0507601
-0.0499914
0.100307
-0.000495247
0.00253001
0.00332785
-0.0191204
0.012016
-0.0436493
0.0236328
-0.0586633
0.0364725
-0.0651277
0.04959
-0.0667575
0.0625648
-0.0661792
0.0752417
-0.0647522
0.0875918
-0.0631102
-0.0621887
0.099789
-0.000267212
0.00279722
0.00385812
-0.0232458
0.012708
-0.0524992
0.0243172
-0.0702725
0.0370296
-0.07784
0.0499538
-0.0796818
0.0627067
-0.078932
0.0751535
-0.0771991
0.0872781
-0.0752348
-0.0741525
0.0992419
-9.45984e-06
0.00280668
0.00451154
-0.0277668
0.0135644
-0.0615521
0.025162
-0.0818701
0.0377185
-0.0903966
0.050414
-0.0923772
0.0629131
-0.0914312
0.0751075
-0.0893934
0.0869914
-0.0871187
-0.0858464
0.0986853
0.000358539
0.00244814
0.00531414
-0.0327224
0.0145734
-0.0708114
0.0261271
-0.0934238
0.0384767
-0.102746
0.0508914
-0.104792
0.0630973
-0.103637
0.0750195
-0.101316
0.0866586
-0.0987578
-0.0972121
0.0980243
0.000774646
0.0016735
0.00620268
-0.0381504
0.0156471
-0.0802558
0.0270918
-0.104869
0.0391473
-0.114802
0.0511894
-0.116834
0.0630174
-0.115465
0.0745982
-0.112896
0.085932
-0.110092
-0.108083
0.0968028
0.00119776
0.000475736
0.00706571
-0.0440184
0.0166046
-0.0897947
0.0278087
-0.116073
0.0394151
-0.126408
0.0509107
-0.12833
0.0621617
-0.126716
0.0731664
-0.123901
0.0839012
-0.120826
-0.11803
0.0938479
0.00159337
0.00781957
0.0173174
0.028103
0.0390425
0.0497251
0.0600678
0.0700819
0.0797041
0.0881565
0.15465
-0.153219
0.0996609
0.181207
-0.1087
0.0821435
0.194544
-0.0812668
0.0679295
0.201123
-0.0614792
0.0549006
0.204101
-0.0463732
0.0433944
0.205032
-0.0344631
0.0335322
0.204764
-0.0249359
0.0252045
0.203757
-0.0171304
0.0181369
0.202295
-0.0110506
0.0125132
-0.00331158
0.00522004
0.153461
-0.205929
0.180195
-0.135434
0.193825
-0.0948978
0.20066
-0.0683138
0.20384
-0.0495531
0.204932
-0.0355553
0.204799
-0.0248025
0.203915
-0.0162464
0.202569
-0.00970494
-0.00152498
0.15147
-0.257092
0.178289
-0.162254
0.192267
-0.108876
0.199454
-0.0755005
0.202947
-0.0530459
0.204322
-0.0369304
0.204451
-0.0249315
0.20382
-0.0156154
0.202723
-0.00860846
4.3731e-06
0.148668
-0.305971
0.17548
-0.189065
0.189867
-0.123263
0.197506
-0.08314
0.201426
-0.0569654
0.203205
-0.0387101
0.203723
-0.0254493
0.203475
-0.0153666
0.20276
-0.00789353
0.00114092
0.14506
-0.351789
0.171757
-0.215761
0.186627
-0.138133
0.194823
-0.0913364
0.199284
-0.0614265
0.201589
-0.0410149
0.20262
-0.0264799
0.202879
-0.015626
0.202675
-0.0076891
0.00175159
0.140631
-0.393734
0.167099
-0.24223
0.182549
-0.153584
0.191414
-0.100201
0.196533
-0.0665458
0.199482
-0.0439631
0.201146
-0.0281441
0.202038
-0.0165186
0.202472
-0.00812248
0.00170614
0.135307
-0.431017
0.161448
-0.26837
0.177617
-0.169753
0.187284
-0.109868
0.193183
-0.0724451
0.196893
-0.0476731
0.199311
-0.0305619
0.200956
-0.0181633
0.202148
-0.00931438
0.000878263
0.129016
-0.463231
0.154679
-0.294033
0.171758
-0.186832
0.182417
-0.120527
0.189241
-0.0792689
0.193834
-0.0522666
0.197121
-0.0338489
0.199636
-0.0206779
0.201707
-0.0113852
-0.000856486
0.121819
-0.491202
0.146628
-0.318842
0.164779
-0.204983
0.176709
-0.132456
0.184664
-0.0872244
0.190297
-0.0578993
0.194583
-0.038135
0.198084
-0.0241795
0.201148
-0.0144485
-0.00361473
0.114631
-0.517677
0.1384
-0.34261
0.156932
-0.223515
0.170129
-0.145653
0.179402
-0.0964979
0.186254
-0.0647515
0.191688
-0.0435683
0.196301
-0.0287929
0.200474
-0.0186214
-0.0075133
0.377675
-0.457938
-0.437414
0.346057
-0.310992
0.330196
-0.207655
0.322627
-0.138085
0.318679
-0.0925496
0.316319
-0.0623919
0.314753
-0.0420015
0.313685
-0.0277258
0.312967
-0.0179029
-0.00721106
0.390022
-0.38834
-0.459621
0.355327
-0.276296
0.337864
-0.190191
0.328475
-0.128696
0.322849
-0.0869231
0.319231
-0.0587737
0.31681
-0.0395805
0.315188
-0.0261043
0.314126
-0.0168404
-0.00677825
0.405892
-0.323771
-0.470461
0.368542
-0.238946
0.34713
-0.168779
0.334706
-0.116273
0.327042
-0.079259
0.322086
-0.0538176
0.318797
-0.0362915
0.316628
-0.0239345
0.315225
-0.0154375
-0.00621149
0.416087
-0.263923
-0.475935
0.378172
-0.201031
0.354656
-0.145263
0.340093
-0.101709
0.330787
-0.0699538
0.324679
-0.0477096
0.320617
-0.0322295
0.317948
-0.0212646
0.316228
-0.013718
-0.00551944
0.423235
-0.208944
-0.478214
0.385704
-0.1635
0.360875
-0.120435
0.34469
-0.0855237
0.334045
-0.0593086
0.326958
-0.040623
0.322227
-0.0274981
0.319117
-0.0181549
0.317117
-0.0117184
-0.00471728
0.428137
-0.158405
-0.478676
0.391394
-0.126757
0.365815
-0.0948558
0.348459
-0.0681678
0.336767
-0.0476161
0.328887
-0.0327433
0.323598
-0.0222087
0.320117
-0.0146745
0.317878
-0.00947879
-0.00381777
0.431362
-0.111509
-0.478258
0.395507
-0.0909017
0.369548
-0.0688966
0.351389
-0.0500085
0.338919
-0.0351462
0.330425
-0.0242491
0.324693
-0.0164769
0.320916
-0.0108983
0.31848
-0.00704227
-0.00283614
0.432957
-0.0669416
-0.477525
0.397877
-0.0558215
0.371824
-0.0428439
0.353209
-0.0313937
0.340238
-0.0221745
0.331333
-0.0153445
0.325301
-0.0104444
0.321316
-0.00691403
0.31874
-0.00446611
-0.00179576
0.426507
-0.0213793
-0.472069
0.392175
-0.0214894
0.366824
-0.0174926
0.348555
-0.0131252
0.335723
-0.00934224
0.326869
-0.00649012
0.320854
-0.00442972
0.316882
-0.00294207
0.314311
-0.00189457
-0.000756402
0.316663
-0.338043
0.295174
0.277681
0.264556
0.255214
0.248724
0.244294
0.241352
0.239457
0.470227
0.0127337
-0.468546
0.471153
0.0249269
0.471192
0.0367412
0.470274
0.0478772
0.467994
0.058569
0.465194
0.0671402
0.459154
0.0782954
0.455557
0.0804431
0.44364
0.0975393
0.0898774
0.451483
0.0110692
-0.449818
0.453216
0.0231933
0.454928
0.0350293
0.456693
0.046112
0.458005
0.0572573
0.459689
0.065456
0.459955
0.0780297
0.461142
0.079256
0.461818
0.0968633
0.092075
0.435268
0.00937882
-0.433578
0.4376
0.0208618
0.440482
0.0321475
0.443926
0.0426678
0.447741
0.0534421
0.451942
0.0612554
0.456668
0.0733039
0.460663
0.0752602
0.46684
0.0906872
0.0884538
0.42286
0.00768123
-0.421163
0.425542
0.0181797
0.429166
0.0285238
0.433666
0.0381676
0.439105
0.0480034
0.445002
0.0553583
0.45239
0.0659155
0.458956
0.0686948
0.468319
0.0813233
0.0808379
0.413155
0.00598834
-0.411462
0.416088
0.0152469
0.42024
0.0243712
0.425499
0.0329093
0.432011
0.0414907
0.439195
0.0481747
0.448164
0.0569468
0.456732
0.0601265
0.467982
0.0700735
0.0706058
0.405816
0.00427586
-0.404104
0.40894
0.0121228
0.413458
0.0198532
0.41925
0.0271179
0.426445
0.034295
0.434537
0.0400833
0.444406
0.0470773
0.454344
0.0501886
0.466691
0.0577271
0.0586203
0.40046
0.0025226
-0.398707
0.403748
0.00883559
0.408543
0.0150574
0.41473
0.0209313
0.422377
0.026648
0.431092
0.031368
0.441475
0.0366943
0.452306
0.0393579
0.465221
0.0448124
0.0455831
0.395831
0.000571405
-0.39388
0.399395
0.00527131
0.404564
0.00988907
0.411215
0.0142803
0.419335
0.0185278
0.428618
0.0220845
0.439383
0.0259292
0.450823
0.027918
0.464005
0.0316303
0.0320637
0.378297
-0.00132766
-0.376398
0.382335
0.00123285
0.388389
0.00383484
0.396292
0.0063777
0.405932
0.00888734
0.416935
0.0110825
0.429424
0.0134399
0.442594
0.0147476
0.45719
0.0170342
0.0171846
0.244221
-0.245549
0.245454
0.249289
0.255666
0.264554
0.275636
0.289076
0.303824
0.320858
0.0793406
0.127975
-0.115467
-0.0918487
0.067928
0.129794
-0.118381
0.0574737
0.132556
-0.122102
0.0474562
0.136198
-0.12618
0.0375026
0.140275
-0.130322
0.027479
0.144228
-0.134205
0.0175709
0.146018
-0.13611
0.00857892
0.138752
-0.12976
0.00217257
0.10858
-0.102174
0.0459257
-0.0437531
0.079789
0.139039
-0.0908522
0.0684782
0.141104
0.0575275
0.143507
0.0470003
0.146725
0.0367295
0.150546
0.0266075
0.15435
0.0167981
0.155828
0.00806277
0.147487
0.00196764
0.114675
0.0478933
0.07206
0.14812
-0.0811418
0.0624595
0.150705
0.0526791
0.153287
0.0429386
0.156465
0.033285
0.1602
0.0237475
0.163888
0.0145798
0.164996
0.00660904
0.155458
0.00134051
0.119944
0.0492338
0.0604773
0.155377
-0.0677335
0.0527816
0.158401
0.0446806
0.161388
0.0363262
0.16482
0.0278372
0.168689
0.0193508
0.172374
0.0112463
0.1731
0.00447014
0.162234
0.000480304
0.123933
0.0497141
0.0486139
0.161313
-0.0545507
0.0423736
0.164641
0.0357353
0.168027
0.0287629
0.171792
0.0215606
0.175891
0.0143061
0.179629
0.00746232
0.179944
0.00207478
0.167622
-0.000447503
0.126456
0.0492666
0.0376038
0.166305
-0.0425955
0.0324196
0.169825
0.0269343
0.173512
0.0211645
0.177562
0.0151859
0.18187
0.00918866
0.185626
0.003675
0.185458
-0.000377035
0.171674
-0.00133016
0.127409
0.0479365
0.0271888
0.170465
-0.0313485
0.0229167
0.174097
0.018446
0.177983
0.0137779
0.18223
0.00897196
0.186676
0.0042253
0.190373
5.75305e-05
0.189625
-0.00230174
0.174033
-0.00203463
0.127142
0.0459018
0.0169145
0.173718
-0.0201672
0.0135928
0.177419
0.0101421
0.181433
0.00656684
0.185805
0.00293277
0.19031
-0.000548724
0.193854
-0.00326979
0.192346
-0.00427028
0.175033
-0.00266979
0.125541
0.043232
0.00655877
0.175968
-0.00880939
0.00426728
0.179711
0.00190465
0.183796
-0.000519858
0.18823
-0.00294834
0.192738
-0.00511939
0.196025
-0.00647805
0.193705
-0.00602438
0.17458
-0.00318214
0.122699
0.0400499
-0.00384991
0.00271321
-0.00501844
-0.00623705
-0.00748363
-0.00867006
-0.0095526
-0.00949188
-0.00764372
-0.00361109
0.103404
0.0238375
-0.114697
-0.0125444
0.0917814
0.0244647
-0.0128423
0.0797946
0.0251413
-0.0131545
0.0674277
0.0258558
-0.013489
0.0546724
0.0266058
-0.0138504
0.0415334
0.0273671
-0.0142281
0.0281446
0.0279056
-0.0145168
0.0152055
0.0271679
-0.0142288
0.00473865
0.022509
-0.0120422
0.010771
-0.00603237
0.102644
0.0351144
-0.113921
0.0910528
0.0360561
0.0791119
0.0370822
0.0668053
0.0381624
0.0541239
0.0392872
0.0410729
0.0404181
0.027789
0.0411895
0.0149758
0.039981
0.00464561
0.0328392
0.0154166
0.101546
0.0463586
-0.11279
0.0900078
0.0475944
0.0781393
0.0489508
0.0659234
0.0503783
0.05335
0.0518606
0.0404246
0.0533436
0.0272892
0.0543248
0.0146545
0.0526157
0.00451548
0.0429783
0.0199321
0.0999999
0.0575438
-0.111185
0.0885478
0.0590465
0.0767898
0.0607088
0.0647069
0.0624612
0.0522869
0.0642805
0.0395362
0.0660943
0.0266037
0.0672573
0.0142119
0.0650076
0.00433466
0.0528555
0.0242668
0.0978482
0.0686261
-0.108931
0.0865391
0.0703556
0.0749578
0.0722901
0.0630783
0.0743408
0.0508821
0.0764767
0.038374
0.0786023
0.0257118
0.0799195
0.0136341
0.0770853
0.00409947
0.0623902
0.0283662
0.0948966
0.0795261
-0.105797
0.0838064
0.0814458
0.0724723
0.0836241
0.0608687
0.0859444
0.0489775
0.0883679
0.0368043
0.0907755
0.0245154
0.0922084
0.012864
0.0887367
0.00378458
0.0714696
0.0321508
0.0911707
0.0900471
-0.101692
0.0805263
0.0920901
0.069648
0.0945025
0.0584741
0.0971183
0.0469796
0.0998625
0.0351849
0.10257
0.0232896
0.104104
0.0120842
0.0999421
0.00348136
0.0800725
0.0356322
0.0850157
0.100059
-0.0950276
0.0749279
0.102178
0.0646931
0.104737
0.0542447
0.107567
0.0435127
0.110594
0.0324793
0.113604
0.021335
0.115248
0.0108829
0.110394
0.00300192
0.0879534
0.0386341
0.0821869
0.108657
-0.0907848
0.0730794
0.111285
0.0633037
0.114513
0.0530133
0.117857
0.0423472
0.12126
0.0314104
0.12454
0.0204569
0.126201
0.0103148
0.120536
0.00280147
0.0954668
0.0414356
0.0698903
-0.0767007
0.0627946
0.0552056
0.0468826
0.0378213
0.028157
0.018248
0.00902438
0.00231751
0.202115
0.0127999
-0.0169255
0.204616
0.0282016
-0.0307025
0.205058
0.0343969
-0.0348387
0.206024
0.0360969
-0.0370628
0.205126
0.0426615
-0.0417631
0.202611
0.0513043
-0.0487897
0.196514
0.0640522
-0.057955
0.18575
0.0808527
-0.0700893
0.159958
0.108929
-0.0831374
0.145061
-0.0998
0.201848
0.00894158
0.20421
0.0258392
0.204602
0.0340057
0.205506
0.0351929
0.204527
0.0436399
0.201877
0.0539545
0.195638
0.0702914
0.184557
0.0919332
0.15883
0.134657
0.18997
0.201453
0.00547855
0.203535
0.0237574
0.203782
0.0337584
0.204481
0.0344936
0.203298
0.0448235
0.200389
0.0568631
0.193926
0.0767547
0.182406
0.103453
0.156929
0.160134
0.234109
0.200925
0.00254329
0.202593
0.0220897
0.202609
0.033742
0.202961
0.0341418
0.20145
0.046334
0.198163
0.0601508
0.191382
0.0835354
0.17928
0.115555
0.154298
0.185116
0.277222
0.20026
0.000273007
0.20139
0.0209598
0.201096
0.0340356
0.200957
0.0342814
0.199002
0.0482887
0.195217
0.0639355
0.188017
0.0907358
0.175157
0.128415
0.151012
0.20926
0.319304
0.199451
-0.00118838
0.199932
0.0204792
0.199259
0.034708
0.198482
0.0350588
0.195973
0.0507978
0.191573
0.0683352
0.183841
0.098468
0.17004
0.142216
0.147093
0.232208
0.3606
0.198493
-0.00169153
0.198228
0.0207443
0.197118
0.0358179
0.195552
0.0366247
0.192386
0.0539636
0.187249
0.0734728
0.17885
0.106867
0.164052
0.157013
0.142605
0.253655
0.401513
0.197383
-0.00108496
0.196292
0.0218355
0.19469
0.0374197
0.19218
0.0391348
0.18827
0.0578741
0.182264
0.0794787
0.173001
0.11613
0.157119
0.172896
0.13671
0.274064
0.443195
0.196131
0.000773981
0.194151
0.0238152
0.192001
0.0395702
0.188383
0.0427521
0.183654
0.0626036
0.176691
0.0864417
0.16657
0.12625
0.150553
0.188913
0.131825
0.292793
0.484235
0.194846
0.00391798
0.19188
0.0267811
0.18906
0.0423899
0.184129
0.0476838
0.178382
0.0683504
0.169935
0.0948886
0.157894
0.138291
0.140209
0.206598
0.120749
0.312252
0.528284
0.303321
0.00260673
0.306786
0.0233165
0.310457
0.0387194
0.313042
0.0450984
0.315969
0.0654236
0.319424
0.0914336
0.324997
0.132718
0.336112
0.195484
0.361378
0.286985
0.464012
0.42565
0.304213
0.000404116
0.307898
0.0196315
0.312201
0.0344166
0.315557
0.0417422
0.319916
0.0610639
0.325535
0.0858148
0.334482
0.12377
0.350287
0.17968
0.380051
0.257221
0.400292
0.443771
0.305093
-0.00267891
0.309221
0.0155042
0.313941
0.0296963
0.318074
0.0376088
0.323645
0.0554927
0.331107
0.0783537
0.342711
0.112166
0.361364
0.161027
0.394897
0.223688
0.337913
0.457276
0.305999
-0.00666722
0.310611
0.0108921
0.315633
0.0246735
0.320459
0.0327835
0.327054
0.0488976
0.336057
0.0693505
0.349698
0.0985247
0.370499
0.140227
0.405412
0.188774
0.278407
0.464918
0.306983
-0.0116398
0.312077
0.0057981
0.317255
0.0194956
0.322638
0.0274002
0.330069
0.0414662
0.340322
0.0590979
0.355474
0.0833723
0.377882
0.117819
0.41258
0.154076
0.222428
0.468559
0.308115
-0.0177445
0.313666
0.000246992
0.31879
0.014372
0.324569
0.0216212
0.33265
0.0333845
0.34387
0.0478779
0.360106
0.0671371
0.383629
0.0942956
0.417376
0.120329
0.170023
0.469781
0.309429
-0.0251629
0.31541
-0.00573405
0.32021
0.0095719
0.326202
0.0156293
0.334757
0.0248293
0.346685
0.0359496
0.363667
0.0501548
0.387885
0.0700777
0.42051
0.0877044
0.120842
0.469691
0.311096
-0.0342491
0.317324
-0.0119621
0.321377
0.00551898
0.327355
0.00965111
0.336221
0.0159634
0.348637
0.0235338
0.366132
0.0326603
0.390725
0.0454847
0.422432
0.0559973
0.0744429
0.468831
0.309556
-0.0417947
0.314777
-0.0171832
0.317876
0.00242045
0.323904
0.0036231
0.33292
0.00694691
0.345656
0.0107982
0.363507
0.0148088
0.388211
0.0207808
0.419548
0.0246607
0.0324533
0.461537
0.260215
0.243032
0.245453
0.249076
0.256023
0.266821
0.28163
0.302411
0.327071
0.359525
0.438788
-0.104987
0.443707
-0.0957717
0.446084
-0.0835185
0.448506
-0.0701557
0.451676
-0.0577207
0.455419
-0.0463384
0.45931
-0.035239
0.462939
-0.0237969
0.466023
-0.0118933
0.000190105
0.444043
-0.105259
0.442754
-0.0944825
0.441795
-0.0825595
0.442105
-0.070466
0.44319
-0.0588054
0.44447
-0.0476183
0.445737
-0.0365055
0.447032
-0.025092
0.448425
-0.0132869
-0.00120295
0.45105
-0.0990332
0.445702
-0.0891343
0.441154
-0.078012
0.437704
-0.0670156
0.435236
-0.0563379
0.433536
-0.0459182
0.432528
-0.0354974
0.432211
-0.0247745
0.432568
-0.0136442
-0.002213
0.454575
-0.0886899
0.445726
-0.080285
0.438287
-0.0705737
0.432351
-0.0610794
0.427825
-0.051812
0.424474
-0.0425669
0.422146
-0.0331692
0.420808
-0.0234365
0.420476
-0.0133128
-0.0028993
0.455903
-0.0760336
0.444918
-0.0693
0.435668
-0.0613245
0.428076
-0.0534867
0.422026
-0.0457624
0.417365
-0.0379057
0.41399
-0.0297939
0.411878
-0.0213248
0.411037
-0.0124721
-0.00332398
0.455856
-0.0621089
0.44355
-0.0569937
0.433078
-0.050852
0.424352
-0.0447614
0.417269
-0.0386788
0.411727
-0.0323642
0.407654
-0.0257206
0.405024
-0.0186947
0.403839
-0.011287
-0.00358886
0.455023
-0.0474407
0.441912
-0.0438826
0.430669
-0.0396094
0.421232
-0.0353241
0.413496
-0.0309425
0.40739
-0.0262585
0.402865
-0.0211954
0.399904
-0.0157346
0.398519
-0.00990131
-0.00377722
0.453506
-0.0321154
0.439765
-0.0301421
0.427965
-0.0278093
0.418018
-0.0253776
0.409811
-0.0227355
0.403283
-0.0197301
0.398407
-0.0163196
0.395195
-0.0125226
0.393677
-0.00838317
-0.00397987
0.444676
-0.0152542
0.429757
-0.0152228
0.41686
-0.0149128
0.405811
-0.0143281
0.396468
-0.0133927
0.388794
-0.0120557
0.382841
-0.0103672
0.378719
-0.0084009
0.376545
-0.00620905
-0.00383229
0.34427
0.329047
0.314135
0.299807
0.286414
0.274358
0.263991
0.25559
0.249381
0.0103134
0.0463396
-0.056653
0.0210025
0.152142
-0.162831
0.0254172
0.218931
-0.223346
0.0250028
0.244118
-0.243703
0.0222603
0.248615
-0.245873
0.0187544
0.246317
-0.242811
0.0150618
0.242543
-0.238851
0.0113342
0.238113
-0.234385
0.0076919
0.230887
-0.227244
0.213628
0.0046532
-0.210589
0.0118313
0.0345083
0.0268904
0.137083
0.0364127
0.209409
0.0406282
0.239902
0.0420637
0.24718
0.0425678
0.245813
0.0429149
0.242196
0.0431177
0.23791
0.0424114
0.231593
0.217262
0.0387773
0.0120895
0.0224188
0.0302551
0.118918
0.0444548
0.195209
0.053467
0.23089
0.0593785
0.241268
0.0641474
0.241044
0.0687698
0.237574
0.073357
0.233323
0.0768878
0.228062
0.218344
0.0758059
0.0110825
0.0113363
0.0304899
0.0995103
0.0481989
0.1775
0.0616007
0.217488
0.0719222
0.230947
0.080925
0.232041
0.0897357
0.228763
0.0987134
0.224345
0.107284
0.219492
0.2131
0.112528
0.00910806
0.00222826
0.0277324
0.080886
0.0472414
0.157991
0.064026
0.200704
0.0782309
0.216742
0.0910963
0.219176
0.10367
0.21619
0.11648
0.211535
0.129493
0.206479
0.201017
0.141575
0.00664283
-0.00441457
0.0228245
0.0647043
0.0422668
0.138549
0.0609512
0.182019
0.0779825
0.19971
0.0938744
0.203284
0.109372
0.200692
0.124992
0.195915
0.140985
0.190485
0.184482
0.157521
0.00414639
-0.00856096
0.0170787
0.051772
0.0350273
0.1206
0.0541209
0.162926
0.0726907
0.181141
0.0905143
0.18546
0.107897
0.183309
0.125185
0.178627
0.142572
0.173098
0.166502
0.160552
0.00199656
-0.0105575
0.0116915
0.0420771
0.027401
0.104891
0.0456984
0.144628
0.0644709
0.162368
0.0829074
0.167024
0.100873
0.165343
0.118466
0.161034
0.135897
0.155668
0.149223
0.153176
0.00042133
-0.0109788
0.00759583
0.0349026
0.021143
0.0913435
0.038185
0.127586
0.0564786
0.144074
0.0748874
0.148615
0.0929975
0.147233
0.110738
0.143293
0.128183
0.138223
0.13131
0.146096
-0.000470138
-0.0105087
0.00488232
0.0295501
0.0165671
0.0796587
0.0320866
0.112067
0.0491788
0.126982
0.0665042
0.13129
0.0834042
0.130333
0.0995988
0.127098
0.114775
0.123047
0.117351
0.128734
-0.000876609
-0.00963209
0.00347307
0.0252004
0.0139573
0.0691745
0.0283543
0.0976698
0.0445192
0.110817
0.061132
0.114677
0.0775292
0.113936
0.0934363
0.111191
0.108746
0.107737
0.104587
0.121511
-0.00101923
-0.00861287
0.00285012
0.0213311
0.0126103
0.0594143
0.0261986
0.0840815
0.0415794
0.0954364
0.0574883
0.098768
0.0732822
0.098142
0.0886799
0.0957935
0.103608
0.0928093
0.0909861
0.117208
-0.00107258
-0.00754028
0.00251049
0.017748
0.0117577
0.0501671
0.0246821
0.0711572
0.0393237
0.0807948
0.0544727
0.0836189
0.0695132
0.0831015
0.0841667
0.08114
0.0983313
0.0786447
0.0774628
0.111855
-0.00108547
-0.00645481
0.002315
0.0143475
0.0112066
0.0412755
0.0236398
0.058724
0.0377066
0.066728
0.0522425
0.069083
0.0666588
0.0686853
0.0806858
0.067113
0.0942097
0.0651207
0.064291
0.107382
-0.00107558
-0.00537923
0.00221398
0.011058
0.0108755
0.032614
0.022982
0.0466174
0.0366599
0.0530501
0.0507809
0.054962
0.0647833
0.0546828
0.0784171
0.0534792
0.091582
0.0519559
0.0513702
0.104503
-0.00106019
-0.00431904
0.00216267
0.00783512
0.0106804
0.0240963
0.0225837
0.0347141
0.0360222
0.0396117
0.0498935
0.0410907
0.0636589
0.0409174
0.0770864
0.0400517
0.0900908
0.0389515
0.0385687
0.102892
-0.00104422
-0.00327481
0.00214417
0.00464672
0.0105779
0.0156626
0.0223627
0.0229293
0.0356644
0.0263101
0.049398
0.027357
0.0630402
0.0272752
0.0763714
0.0267206
0.0893161
0.0260068
0.025809
0.102076
-0.00102006
-0.00225476
0.00215858
0.00146808
0.0105492
0.00727194
0.0222681
0.0112103
0.0354932
0.013085
0.0491515
0.0136988
0.0627302
0.0136965
0.0760175
0.0134333
0.0889436
0.0130806
0.0130573
0.101695
-0.000988161
-0.0012666
0.0022062
-0.00172628
0.0105839
-0.00110572
0.022267
-0.000472861
0.0354442
-9.21411e-05
0.0490525
9.03957e-05
0.0625878
0.000161265
0.0758442
0.000176897
0.0887556
0.000169176
0.000313277
0.1015
-0.000945431
0.00229123
0.0106793
0.0223417
0.0354781
0.049037
0.0625227
0.0757349
0.0886117
0.101327
0.137592
0.289331
-0.305413
0.149648
0.122236
-0.134292
0.159431
0.0412884
-0.0510722
0.167148
0.00493169
-0.0126483
0.173538
-0.00898748
0.00259783
0.179193
-0.0130615
0.0074062
0.184372
-0.0129862
0.00780732
0.189177
-0.0112832
0.00647837
0.193667
-0.00923108
0.00474071
-0.00602039
0.00200364
0.139547
0.266992
0.155572
0.106212
0.166339
0.0305212
0.173639
-0.00236863
0.179192
-0.0145404
0.183841
-0.0177104
0.187935
-0.0170809
0.191612
-0.0149593
0.194958
-0.0125773
-0.00890494
0.141924
0.236923
0.160892
0.0872445
0.172195
0.0192178
0.179253
-0.00942623
0.184198
-0.0194855
0.188027
-0.0215396
0.191175
-0.0202288
0.193844
-0.0176285
0.196163
-0.014896
-0.0107672
0.144705
0.199599
0.165737
0.0662128
0.177452
0.0075029
0.184303
-0.0162771
0.188697
-0.0238802
0.191789
-0.0246311
0.194095
-0.0225354
0.195872
-0.0194052
0.197279
-0.0163034
-0.0117206
0.147502
0.1566
0.170041
0.0436742
0.182067
-0.00452318
0.188727
-0.0229371
0.192657
-0.0278107
0.195111
-0.0270851
0.196688
-0.0241121
0.19769
-0.0204069
0.198305
-0.0169186
-0.0118829
0.150034
0.109458
0.173739
0.0199696
0.186016
-0.0168009
0.192519
-0.0294399
0.19606
-0.0313513
0.197978
-0.0290034
0.19894
-0.0250741
0.199288
-0.0207548
0.199234
-0.0168643
-0.0113761
0.152152
0.0593822
0.176773
-0.00465092
0.189263
-0.0292915
0.195651
-0.0358273
0.198885
-0.0345856
0.200375
-0.0304934
0.200841
-0.0255405
0.20066
-0.0205732
0.200062
-0.0162665
-0.0103259
0.153755
0.00732238
0.179089
-0.0299845
0.191767
-0.0419695
0.198094
-0.0421548
0.201114
-0.0376052
0.202288
-0.031667
0.202381
-0.0256341
0.201798
-0.0199898
0.200785
-0.0152542
-0.00886153
0.154745
-0.0459232
0.180626
-0.0558656
0.193498
-0.0548417
0.199831
-0.0484872
0.202733
-0.0405072
0.203706
-0.0326403
0.203552
-0.0254798
0.202696
-0.019134
0.201401
-0.0139588
-0.00711496
0.155065
0.181343
0.194431
0.200844
0.203731
0.204623
0.204348
0.203351
0.201905
0.112792
-0.00159058
-0.111201
0.109589
0.00320324
0.107226
0.00236271
0.106996
0.000229451
0.107906
-0.000909431
0.109076
-0.00117037
0.110144
-0.00106783
0.110982
-0.000838237
0.111563
-0.000580365
-0.000232744
0.232947
0.0691116
-0.303649
0.201052
0.0350981
0.189021
0.0143939
0.185755
0.00349536
0.185952
-0.00110594
0.187327
-0.00254552
0.188873
-0.00261351
0.190183
-0.00214892
0.191151
-0.00154824
-0.000642317
0.249638
0.155915
-0.336441
0.213523
0.0712134
0.200055
0.0278623
0.196341
0.00720949
0.196465
-0.00123004
0.197894
-0.00397504
0.19953
-0.00424886
0.200928
-0.00354688
0.201971
-0.00259131
-0.00108849
0.244773
0.236336
-0.325195
0.211809
0.104178
0.19973
0.0399411
0.19667
0.0102696
0.197132
-0.00169188
0.19873
-0.00557324
0.200452
-0.00597132
0.201892
-0.00498662
0.202956
-0.00365502
-0.00154251
0.239575
-0.308652
0.209461
0.19833
0.195952
0.196858
0.19869
0.200526
0.202018
0.203104
0.010997
0.000746947
-0.011744
0.0110974
-0.000100333
0.0115182
-0.00042079
0.0120324
-0.000514274
0.0138943
-0.00186186
0.0188722
-0.0049779
0.0318503
-0.0129781
0.0499962
-0.0181458
0.0805672
-0.0305711
-0.030634
0.0329795
0.00163798
-0.0338706
0.0361642
-0.00328502
0.0441147
-0.00837131
0.059065
-0.0154645
0.0837242
-0.0265211
0.119499
-0.0407532
0.16542
-0.0588987
0.213141
-0.0658672
0.263918
-0.0813473
-0.0703657
0.0557296
0.00137407
-0.0554657
0.063713
-0.0112685
0.0811477
-0.0258059
0.110172
-0.0444889
0.150179
-0.066528
0.196866
-0.0874407
0.242426
-0.104458
0.281259
-0.1047
0.313206
-0.113295
-0.093601
0.0768381
-0.000718151
-0.0747458
0.0892067
-0.0236371
0.113126
-0.049725
0.147808
-0.0791713
0.188389
-0.107109
0.228033
-0.127085
0.26014
-0.136565
0.287043
-0.131603
0.307338
-0.13359
-0.111457
0.0938288
-0.0898937
0.108969
0.13505
0.168407
0.202874
0.23331
0.257297
0.27887
0.291375
0.0917845
-0.0878314
0.0972819
-0.101235
0.082792
-0.090706
0.0996984
0.0736865
-0.0942871
0.103393
0.0637792
-0.0979158
0.107823
0.0528086
-0.101446
0.112417
0.0408075
-0.104823
0.116824
0.028046
-0.10705
0.119812
0.0153579
-0.103544
0.116232
0.00486761
-0.0836589
0.0941492
-0.0377114
0.042579
0.104327
-0.0779732
-0.114185
0.0937762
-0.080155
0.0822029
-0.0827137
0.0697628
-0.0854757
0.0566904
-0.0883737
0.0431502
-0.0912828
0.0293457
-0.093246
0.0159915
-0.0901901
0.00509941
-0.0727668
-0.032612
0.101673
-0.0667464
-0.1129
0.0901899
-0.0686716
0.0784343
-0.0709581
0.0663796
-0.0734211
0.0539603
-0.0759544
0.0411199
-0.0784425
0.0279529
-0.080079
0.0151455
-0.0773826
0.00472333
-0.0623446
-0.0278887
0.10369
-0.0554583
-0.114978
0.0921723
-0.0571542
0.0803082
-0.059094
0.0680208
-0.0611337
0.0552753
-0.0632088
0.0420771
-0.0652444
0.0285755
-0.0665774
0.0154923
-0.0642995
0.00486573
-0.051718
-0.0230229
0.104203
-0.044088
-0.115573
0.0925295
-0.045481
0.0804937
-0.0470581
0.0680674
-0.0487074
0.0552378
-0.0503793
0.0420075
-0.0520141
0.0285081
-0.0530779
0.0154388
-0.0512302
0.00482678
-0.041106
-0.0181962
0.104464
-0.0327284
-0.115823
0.092782
-0.0337994
0.0807306
-0.0350066
0.0682841
-0.036261
0.0554283
-0.0375234
0.0421652
-0.0387509
0.0286277
-0.0395405
0.0155166
-0.0381191
0.00486369
-0.0304531
-0.0133325
0.104535
-0.0213915
-0.115872
0.0928578
-0.0221224
0.0807999
-0.0229488
0.0683415
-0.0238027
0.0554729
-0.0246548
0.0421986
-0.0254766
0.0286504
-0.0259923
0.0155257
-0.0249943
0.00486393
-0.0197913
-0.00846855
0.104468
-0.0100681
-0.115792
0.0927994
-0.0104533
0.0807474
-0.0108967
0.068295
-0.0113503
0.0554336
-0.0117934
0.0421678
-0.0122108
0.0286289
-0.0124535
0.0155136
-0.011879
0.00486071
-0.00913844
-0.00360784
0.104265
0.00124166
-0.115574
0.0926091
0.00120222
0.0805715
0.00114086
0.0681361
0.00108517
0.0552951
0.00104757
0.0420536
0.00103072
0.028543
0.00105716
0.0154598
0.00120412
0.0048394
0.001482
0.00123155
0.103903
-0.115206
0.092263
0.0802494
0.0678455
0.0550427
0.0418453
0.0283857
0.015361
0.00480082
0.0250939
-0.20794
-0.0277437
0.0190031
-0.221154
0.0119056
-0.227288
0.00469201
-0.231637
-0.00231899
-0.2358
-0.00871697
-0.239475
-0.0132599
-0.23916
-0.0136503
-0.222955
-0.00785419
-0.168628
-0.0645072
0.0549402
-0.203154
-0.0597258
0.0459921
-0.212205
0.0359294
-0.217225
0.0257995
-0.221507
0.0159081
-0.225909
0.00654977
-0.230116
-0.00144869
-0.231162
-0.00604655
-0.218358