/*--------------------------------*- C++ -*----------------------------------*\
  =========                 |
  \\      /  F ield         | OpenFOAM: The Open Source CFD Toolbox
   \\    /   O peration     | Website:  https://openfoam.org
    \\  /    A nd           | Version:  13
     \\/     M anipulation  |
\*---------------------------------------------------------------------------*/
FoamFile
{
    format      ascii;
    class       volVectorField;
    location    "48";
    object      U;
}
// * * * * * * * * * * * * * * * * * * * * * * * * * * * * * * * * * * * * * //

dimensions      [0 1 -1 0 0 0 0];

internalField   nonuniform List<vector> 
440
(
(-0.202188 0.199327 5.86357e-20)
(-0.220801 0.271804 -2.77229e-19)
(-0.0268689 0.17151 -1.77302e-19)
(0.386718 0.128449 2.49743e-19)
(0.488029 0.119703 -1.24729e-20)
(-0.0534427 0.04365 -6.66892e-21)
(0.0901763 0.0665559 -1.7823e-20)
(0.540599 0.0258526 6.40613e-20)
(1.07416 -0.00337547 -9.67184e-20)
(1.56541 -0.0299439 -7.93942e-20)
(-0.0038316 0.00124713 3.3581e-20)
(0.473176 -0.0429483 6.5606e-19)
(1.20987 -0.0319351 -3.51324e-19)
(1.79709 -0.00971296 -1.03033e-18)
(2.32679 0.0084619 5.55094e-19)
(0.195257 -0.0452824 -1.63194e-19)
(1.13585 -0.000938726 -5.30967e-19)
(1.90564 0.0734864 1.61984e-18)
(2.34976 0.123164 1.86312e-18)
(2.44556 0.144139 -4.86687e-19)
(0.534933 -0.00881382 -2.88707e-19)
(1.6906 0.178346 -6.1733e-19)
(2.24809 0.263358 1.89803e-18)
(2.38732 0.279769 2.0172e-18)
(2.45011 0.254327 6.83349e-19)
(0.0440175 -0.274723 -2.58875e-20)
(0.186369 -0.653989 -1.82878e-19)
(0.255916 -0.769835 2.32148e-19)
(0.267094 -0.7084 -3.47445e-20)
(0.245978 -0.580883 -2.6338e-19)
(0.137061 -0.426774 5.12361e-20)
(0.293922 -0.790987 1.70831e-19)
(0.270979 -0.783466 -7.94553e-22)
(0.181697 -0.612084 4.98076e-21)
(0.0941742 -0.445218 -1.77592e-20)
(0.242948 -0.503922 3.30637e-19)
(0.309465 -0.770685 3.0162e-19)
(0.187344 -0.701923 7.05312e-20)
(0.0553347 -0.570009 -2.47593e-19)
(-0.0161684 -0.47535 2.28663e-21)
(0.179864 -0.385581 1.80074e-19)
(-0.000631302 -0.561895 -3.35644e-19)
(-0.227437 -0.524025 2.62464e-19)
(-0.354061 -0.499025 4.96529e-19)
(-0.402165 -0.458783 -5.92092e-21)
(-0.138265 0.0339181 2.65221e-19)
(-0.323953 -0.14527 3.5949e-19)
(-0.378355 -0.291417 5.28509e-19)
(-0.344405 -0.340269 -2.34018e-19)
(-0.278948 -0.351982 -3.83361e-21)
(-0.00834962 -0.27678 -2.04155e-18)
(1.80291 1.12573 -4.16775e-19)
(0.496987 0.682449 -5.79743e-19)
(1.31343 -0.982563 5.52919e-19)
(1.19545 -0.70809 -8.04481e-20)
(-0.127907 -0.356383 1.63659e-20)
(1.01859 1.13908 2.26351e-19)
(0.568903 0.706516 -5.53632e-20)
(1.55112 -1.03488 -9.29404e-19)
(1.30919 -0.710249 1.5549e-19)
(0.0153807 -0.525498 -1.06756e-18)
(-0.257923 0.919 -2.9088e-18)
(0.911753 0.502673 3.23953e-20)
(1.84199 -1.05108 -1.62436e-18)
(1.44218 -0.692237 4.08739e-20)
(-0.329332 -0.419652 5.92717e-19)
(-0.907285 0.739947 1.778e-19)
(1.38661 0.201809 -1.90311e-20)
(2.05962 -1.03207 1.1955e-18)
(1.55829 -0.658 2.27038e-19)
(0.386456 -0.64855 -3.98347e-19)
(-1.02132 0.490004 1.90956e-18)
(1.80518 -0.150309 0)
(2.15714 -1.01194 -8.1813e-19)
(1.58954 -0.609445 3.81074e-20)
(2.03906 -0.357012 -4.51212e-19)
(0.51483 0.181834 -2.08455e-19)
(2.19533 -0.48463 1.05756e-20)
(2.22768 -0.950638 -2.81869e-19)
(1.57249 -0.54991 -3.25321e-20)
(2.08668 -0.302537 4.92965e-20)
(1.66656 0.36718 1.72739e-19)
(2.60915 -0.531705 7.13492e-21)
(2.22008 -0.764068 5.81015e-19)
(1.37315 -0.376631 0)
(1.88372 -0.1195 2.76513e-20)
(2.17437 0.0311906 -1.78297e-21)
(2.53408 -0.599586 6.21549e-19)
(1.86702 -0.549508 -1.60473e-19)
(1.16591 -0.239862 -1.66657e-20)
(1.88221 -0.0953742 -3.88915e-20)
(2.23844 -0.0185287 1.53524e-19)
(2.09249 -0.398483 3.32532e-20)
(1.26713 -0.320628 3.25924e-35)
(0.639301 -0.0956694 4.77047e-20)
(1.32522 -0.0131746 6.51023e-20)
(1.39857 -0.142017 2.47502e-20)
(0.70791 -0.093175 -1.39048e-19)
(0.0862278 0.00324019 3.32338e-20)
(-0.174468 -0.00620485 5.04217e-21)
(2.35242 0.248747 -8.36454e-19)
(2.52873 0.0876604 -1.12323e-18)
(2.40271 0.0613514 8.69528e-19)
(2.62721 -0.0657403 3.64913e-20)
(1.9656 -0.022836 -9.71919e-20)
(2.12233 0.118646 6.53688e-20)
(2.35768 0.112074 -4.04391e-20)
(2.21875 -0.0441851 -1.31143e-19)
(2.41079 -0.0648558 -2.55652e-19)
(2.25368 -0.239886 -2.99665e-21)
(2.09336 0.0425076 7.50558e-20)
(2.11652 0.0950855 9.26932e-20)
(2.20652 -0.0583855 -1.15267e-19)
(2.14951 -0.0232198 3.64904e-20)
(2.28254 -0.147552 2.53787e-20)
(2.0191 0.00382876 1.16265e-19)
(1.97177 0.0442085 1.49105e-19)
(2.1356 -0.0440602 -1.83536e-20)
(2.03579 -0.0222964 -5.09001e-20)
(2.2088 -0.085012 2.17692e-20)
(1.43784 -0.0146238 1.81191e-19)
(1.44518 -0.00401022 -1.15728e-20)
(1.48064 -0.0238969 1.95714e-20)
(1.44597 -0.0130353 -2.99184e-20)
(1.50897 -0.0359066 -3.18703e-21)
(1.56384 0.85006 1.03318e-18)
(1.52253 0.945501 -3.01375e-19)
(1.51655 1.06907 -1.24846e-18)
(1.44793 1.1134 7.01949e-19)
(0.89525 0.806161 -1.77972e-19)
(1.82947 0.79424 -5.46073e-19)
(1.80834 0.878736 -2.85421e-18)
(1.81662 0.987792 -1.11128e-18)
(1.72977 0.998699 -4.05979e-19)
(1.05768 0.697036 -6.45112e-19)
(2.11343 0.698816 7.30294e-19)
(2.09898 0.764023 1.91789e-19)
(2.08202 0.844884 -2.22273e-18)
(1.94812 0.828313 -6.10383e-19)
(1.14259 0.539627 4.51324e-19)
(2.26961 0.567772 2.24602e-18)
(2.27363 0.620589 1.64166e-18)
(2.26946 0.668763 -1.89239e-18)
(2.0445 0.622463 -1.41353e-18)
(1.10201 0.348414 -2.56229e-19)
(2.4182 0.42675 1.07505e-18)
(2.4206 0.446682 -7.83534e-19)
(2.3237 0.462623 5.52521e-19)
(1.97639 0.398889 4.39345e-19)
(0.898461 0.145815 -3.66645e-19)
(0.576242 0.398537 -7.09584e-19)
(0.488197 0.430251 -5.79389e-19)
(0.369421 0.461906 7.68261e-20)
(0.229302 0.469287 -2.63764e-20)
(0.0561886 0.341414 7.13206e-20)
(0.671545 0.576183 7.63262e-20)
(0.607956 0.634467 -3.20547e-19)
(0.519664 0.702521 1.76598e-19)
(0.392345 0.757434 -8.13505e-20)
(0.16777 0.579756 1.16269e-19)
(0.775118 0.76621 2.09657e-19)
(0.70131 0.843376 4.16388e-19)
(0.641351 0.940932 5.36803e-20)
(0.555419 0.996082 -2.77521e-19)
(0.303741 0.748325 2.24814e-19)
(1.0352 0.862698 2.18054e-19)
(0.988652 0.950942 -6.21228e-19)
(0.937683 1.05144 -1.79921e-18)
(0.853854 1.11918 7.37364e-19)
(0.504711 0.838583 -1.81383e-19)
(1.15646 0.892967 -1.36476e-19)
(1.16681 1.01424 -2.12215e-19)
(1.18156 1.13511 -3.25616e-19)
(1.12693 1.17659 -3.80774e-19)
(0.694775 0.857699 -6.29333e-21)
(1.0152 0.0539485 -9.12358e-20)
(0.98215 0.0187769 -3.51498e-20)
(1.04704 0.105662 -1.3717e-21)
(0.945951 0.127736 -2.86031e-19)
(0.884063 0.238492 3.06008e-19)
(1.00369 0.0529816 5.70707e-20)
(0.993819 0.0146714 1.25492e-19)
(1.03981 0.111797 1.10558e-19)
(0.973852 0.160671 3.39859e-20)
(0.922032 0.312902 1.50308e-20)
(1.00803 0.0525776 7.6963e-20)
(0.979781 0.0072504 -4.79354e-21)
(1.08959 0.127033 -5.92864e-21)
(0.919121 0.167568 1.63247e-19)
(1.11783 0.448012 -4.34234e-19)
(1.00023 0.0530335 -4.44808e-22)
(1.00212 -0.00434182 -1.78566e-19)
(1.09222 0.144749 -6.16808e-20)
(0.983017 0.184899 -3.9558e-19)
(1.16338 0.486403 9.30631e-20)
(0.995263 0.0455322 -1.35037e-20)
(1.01349 -0.00426038 5.38641e-20)
(1.13571 0.153291 3.07628e-20)
(0.957466 0.206228 4.66244e-19)
(1.4147 0.611919 -4.23e-19)
(0.953349 0.0466408 -7.11351e-21)
(1.09388 -0.0328395 1.12042e-19)
(1.12985 0.183198 -8.60885e-20)
(1.15355 0.158014 8.21252e-19)
(1.32879 0.624636 -3.99476e-19)
(0.892414 0.0150687 -1.67029e-21)
(1.20343 -0.0454112 -9.96579e-20)
(1.05579 0.135987 4.52423e-21)
(1.21195 0.156303 -2.68206e-19)
(1.41617 0.381826 2.91764e-20)
(0.963999 0.000237096 -5.63061e-21)
(1.16104 -0.0590742 1.29565e-35)
(1.03408 0.146862 -4.51e-20)
(1.22249 0.0732622 8.27463e-20)
(1.47703 0.244675 1.55442e-19)
(1.11135 -0.0537409 4.21492e-21)
(0.951134 -0.0487217 -2.61174e-20)
(1.09718 0.0914423 1.70798e-20)
(1.23693 0.021828 3.37159e-20)
(1.41431 0.140302 -2.20771e-19)
(1.00781 -0.0257119 -4.31656e-20)
(0.712868 -0.0166533 -4.81166e-21)
(0.922 0.00923441 1.90852e-20)
(0.893283 -0.0135154 -1.11673e-20)
(1.02099 0.046516 -4.89554e-20)
(1.75885 0.660599 3.18736e-19)
(1.87035 0.64264 7.39094e-19)
(2.10366 0.551002 -1.03814e-18)
(2.17868 0.485149 1.88017e-20)
(2.36596 0.32535 4.56469e-19)
(1.72454 0.493009 4.78227e-20)
(1.79126 0.416414 9.75623e-19)
(1.96809 0.420995 9.51896e-20)
(1.98438 0.284693 -8.91366e-19)
(2.1919 0.267396 -2.87728e-19)
(1.66583 0.38286 -2.02541e-19)
(1.76223 0.272304 -1.43022e-19)
(1.84394 0.316863 2.48122e-19)
(1.94094 0.157864 -2.95633e-19)
(2.01029 0.209839 2.6781e-19)
(1.60832 0.225074 2.95656e-19)
(1.68236 0.14405 -1.44003e-21)
(1.74732 0.176697 2.21574e-19)
(1.85969 0.0693563 1.99201e-19)
(1.87997 0.113172 -1.91853e-19)
(1.23614 0.0514907 -3.38385e-20)
(1.25863 0.0301126 2.06778e-19)
(1.34198 0.0284757 1.06792e-19)
(1.36698 0.00358975 -2.30779e-19)
(1.41878 0.00898861 2.15477e-22)
(1.339 -0.0375456 6.3042e-20)
(2.44231 -0.0332652 -5.37988e-19)
(2.66948 -0.0239692 1.46949e-18)
(2.66288 0.0250293 6.77143e-19)
(2.44105 0.0431393 -4.49986e-19)
(0.852719 0.0970257 1.20249e-19)
(2.22229 0.106985 -5.56439e-19)
(2.67908 0.112487 -7.76686e-19)
(2.68624 0.12781 1.02199e-18)
(2.48903 0.122159 -7.11138e-19)
(0.244585 0.0874498 -3.75128e-20)
(1.57139 0.181773 6.12899e-19)
(2.37817 0.226886 1.0273e-19)
(2.75579 0.231251 9.21192e-19)
(2.78216 0.220993 5.30064e-19)
(-0.0646554 -0.0323374 2.47524e-19)
(0.62357 0.114361 2.60324e-19)
(1.56273 0.220389 -6.79114e-19)
(2.13821 0.28753 5.57142e-20)
(2.74987 0.32477 4.06942e-19)
(-0.136244 -0.111601 1.94852e-19)
(0.0183502 -0.0377467 -2.1123e-19)
(0.647022 0.103615 -4.7089e-20)
(1.17255 0.176906 1.00694e-19)
(1.8427 0.334265 2.20752e-20)
(-0.103075 -0.110894 4.91039e-20)
(-0.159056 -0.1288 1.43978e-19)
(0.0574147 -0.107741 8.64998e-20)
(0.250206 -0.074411 -7.74963e-20)
(0.957173 0.113578 1.50601e-20)
(-0.0606611 -0.0844702 -1.84628e-20)
(-0.150766 -0.183589 -1.01774e-19)
(-0.133743 -0.243811 -3.91652e-20)
(-0.0754734 -0.248748 -2.86359e-20)
(0.207314 -0.0673936 3.7659e-21)
(-0.0317951 -0.0647996 1.55558e-21)
(-0.090051 -0.211544 2.60974e-19)
(-0.100951 -0.319739 -2.11799e-19)
(-0.0702861 -0.367669 -3.94853e-19)
(-0.0129865 -0.303333 8.28751e-20)
(-0.0194004 -0.0851248 -2.45682e-20)
(-0.0325298 -0.308636 -1.51989e-19)
(-0.010196 -0.476652 3.88687e-19)
(0.0339715 -0.550564 2.23127e-19)
(0.0509848 -0.556229 -3.19547e-20)
(-0.00493966 -0.150695 1.84257e-20)
(0.0464558 -0.461913 -6.16634e-20)
(0.102164 -0.632418 2.18349e-20)
(0.132702 -0.653287 5.51159e-21)
(0.132225 -0.588777 -2.17335e-19)
(1.50481 0.749559 -4.47552e-20)
(1.67305 0.428077 2.42945e-19)
(-0.140593 0.324452 1.36476e-19)
(-0.202696 -0.308273 5.66036e-19)
(0.793273 -0.375314 -1.17582e-20)
(1.34652 0.61781 3.61284e-20)
(1.39676 0.606408 6.76296e-19)
(-0.532601 0.471059 1.01904e-18)
(0.162741 -0.516954 2.29833e-20)
(0.805599 -0.501419 7.56124e-20)
(1.35553 0.47895 3.45623e-19)
(1.11755 0.884616 2.29752e-18)
(-0.492201 0.545025 -3.58679e-20)
(0.400034 -0.689197 -1.9194e-18)
(0.864839 -0.578123 -2.85794e-20)
(0.966923 0.16145 -1.34166e-19)
(1.0713 1.05788 -3.53474e-18)
(-0.0391225 0.59185 -2.63752e-19)
(0.648443 -0.852218 2.06629e-20)
(0.933898 -0.654566 -9.2508e-20)
(0.250141 0.0731871 1.66849e-19)
(1.35844 1.23774 -4.29594e-19)
(0.366572 0.618399 -2.09731e-19)
(1.0306 -0.918735 -1.25668e-19)
(1.0504 -0.690825 -2.35932e-19)
(-0.178341 0.148219 -6.15367e-20)
(-0.403444 -0.194499 0)
(-0.664189 -0.10874 -8.81252e-21)
(-0.286834 -0.113156 -7.36381e-21)
(0.476639 -0.0479512 1.9098e-21)
(1.78567 0.681268 0)
(1.33106 0.369871 0)
(0.0403117 0.0610177 -1.26799e-19)
(-0.262761 -0.207178 -2.20133e-19)
(0.797502 -0.212781 3.35571e-20)
(0.784259 0.00532048 -1.3152e-19)
(0.826948 -0.0068677 1.76836e-19)
(1.08068 0.0358054 -4.76624e-20)
(0.917716 -0.000654413 3.96726e-19)
(1.45124 0.173813 2.67456e-19)
(1.76437 0.0387763 1.24809e-19)
(1.97178 0.0799846 3.25652e-19)
(2.11711 0.115482 -6.78078e-19)
(2.58936 0.249195 1.57289e-19)
(2.52488 0.279324 3.60192e-19)
(0.965942 -0.525966 3.80136e-20)
(0.954917 -0.623433 -2.02602e-19)
(0.953537 -0.729655 -1.92629e-19)
(0.887864 -0.804692 1.14018e-19)
(0.543995 -0.635243 1.39159e-19)
(0.866904 -0.437668 1.11365e-19)
(0.811751 -0.507295 1.57102e-19)
(0.735593 -0.581738 -1.02189e-19)
(0.61795 -0.646582 1.40795e-19)
(0.340592 -0.514396 3.34267e-20)
(0.675777 -0.303225 -1.30399e-19)
(0.582778 -0.346935 -5.42618e-20)
(0.48189 -0.403038 8.42263e-21)
(0.368133 -0.452556 -4.85859e-20)
(0.172052 -0.35751 -1.28133e-19)
(0.570946 -0.0696394 -4.46671e-19)
(0.487504 -0.0902127 -3.62246e-19)
(0.380078 -0.122946 2.93039e-19)
(0.252563 -0.163132 1.6236e-19)
(0.0785835 -0.145603 1.38979e-20)
(0.535701 0.134254 -1.55554e-19)
(0.450516 0.134224 -1.68235e-19)
(0.334081 0.131712 -5.20131e-20)
(0.196484 0.132514 4.75076e-20)
(0.0339003 0.0993502 1.46698e-20)
(2.22436 -0.0319844 9.38168e-19)
(2.455 -0.106428 3.46971e-19)
(2.55122 -0.20032 -8.81067e-19)
(2.42278 -0.225469 -1.86433e-18)
(1.48859 -0.219601 1.33196e-19)
(2.15556 -0.131056 1.56894e-18)
(2.27333 -0.247264 2.03744e-18)
(2.29298 -0.376193 1.67144e-19)
(2.22291 -0.440445 2.86398e-19)
(1.44924 -0.410047 -1.90769e-19)
(1.87893 -0.304681 -4.02838e-18)
(1.92439 -0.427219 4.76973e-19)
(1.96616 -0.560305 1.26506e-18)
(1.91928 -0.64377 -5.1376e-19)
(1.26362 -0.565826 8.08235e-19)
(1.61926 -0.434236 9.81686e-19)
(1.63792 -0.538306 -2.55934e-18)
(1.63277 -0.664315 -2.98569e-18)
(1.57185 -0.762698 9.40468e-19)
(1.02341 -0.644911 6.0115e-19)
(1.32216 -0.50262 2.24472e-19)
(1.26878 -0.601248 2.70068e-19)
(1.25398 -0.730026 -4.56092e-19)
(1.19918 -0.825152 -5.53548e-19)
(0.764305 -0.666767 -5.35402e-21)
(1.06275 0.0558262 7.32185e-21)
(0.92622 0.0461125 -2.13092e-21)
(1.13825 0.0689384 -2.21587e-22)
(0.815569 -0.00806669 -2.29233e-19)
(1.19059 -0.244808 -1.43852e-20)
(1.07243 0.0596465 -2.46842e-21)
(0.922358 0.0414245 4.07554e-20)
(1.13138 0.0862672 -2.31603e-20)
(0.896304 0.0335163 1.54444e-19)
(1.04347 -0.128519 -1.00089e-20)
(1.0704 0.0575322 -5.9671e-20)
(0.925498 0.0345358 3.66128e-22)
(1.11599 0.0870604 -1.14424e-20)
(0.88856 0.05413 4.97665e-20)
(1.00319 -0.07092 -2.22505e-19)
(1.05188 0.056692 7.19683e-20)
(0.952226 0.0284245 3.03742e-21)
(1.07524 0.0918376 2.58331e-20)
(0.93202 0.080738 8.19185e-21)
(0.881809 0.0422831 8.8687e-20)
(1.02806 0.0543731 1.78841e-20)
(0.977825 0.0251116 -2.80887e-20)
(1.04482 0.0960768 3.62556e-20)
(0.953001 0.109398 7.37938e-20)
(0.845907 0.133694 -4.94585e-20)
(0.887607 0.0335886 0)
(0.711551 0.0271969 8.93456e-21)
(0.62942 0.0216481 4.69314e-21)
(0.369635 -0.00973901 4.91345e-20)
(0.739828 -0.062751 -1.50812e-19)
(1.03114 0.0747012 -6.35853e-20)
(0.937277 0.0651974 -8.37704e-21)
(1.05015 0.071499 -4.85775e-20)
(0.82929 -0.00754404 -1.2934e-19)
(1.10247 -0.221919 -1.56197e-19)
(1.04155 -0.0668828 -3.49542e-20)
(1.13042 -0.0365415 5.55553e-19)
(1.23873 0.0379109 3.43045e-19)
(1.10216 0.0629305 2.47434e-20)
(0.857496 0.0340721 0)
(1.40714 -0.333188 3.51504e-19)
(1.53251 -0.293116 1.63894e-18)
(1.72908 -0.169946 -1.83873e-18)
(1.82646 -0.0210798 -5.86077e-19)
(1.76254 0.0361385 4.26661e-19)
)
;

boundaryField
{
    left
    {
        type            fixedValue;
        value           uniform (1 0 0);
    }
    right
    {
        type            zeroGradient;
    }
    down
    {
        type            noSlip;
    }
    up
    {
        type            noSlip;
    }
    cylinder
    {
        type            noSlip;
    }
    defaultFaces
    {
        type            empty;
    }
}


// ************************************************************************* //
