/*--------------------------------*- C++ -*----------------------------------*\
  =========                 |
  \\      /  F ield         | OpenFOAM: The Open Source CFD Toolbox
   \\    /   O peration     | Website:  https://openfoam.org
    \\  /    A nd           | Version:  13
     \\/     M anipulation  |
\*---------------------------------------------------------------------------*/
FoamFile
{
    format      ascii;
    class       volScalarField;
    location    "0.5";
    object      Ccy;
}
// * * * * * * * * * * * * * * * * * * * * * * * * * * * * * * * * * * * * * //

dimensions      [0 1 0 0 0 0 0];

internalField   nonuniform List<scalar> 
1800
(
0.748527
0.777874
0.807221
0.836568
0.865915
0.895263
0.92461
0.953958
0.983306
1.01265
0.800508
0.831893
0.863277
0.894662
0.926048
0.957433
0.988819
1.0202
1.05159
1.08298
0.847553
0.880782
0.914012
0.947241
0.980471
1.0137
1.04693
1.08016
1.11339
1.14662
0.889373
0.924242
0.959111
0.99398
1.02885
1.06372
1.09859
1.13346
1.16833
1.2032
0.92571
0.962003
0.998297
1.03459
1.07088
1.10718
1.14347
1.17977
1.21606
1.25236
0.956339
0.993833
1.03133
1.06882
1.10632
1.14381
1.18131
1.2188
1.2563
1.2938
0.981073
1.01954
1.058
1.09646
1.13493
1.17339
1.21186
1.25032
1.28879
1.32726
0.999757
1.03895
1.07815
1.11735
1.15654
1.19574
1.23494
1.27414
1.31334
1.35253
1.01228
1.05197
1.09165
1.13134
1.17103
1.21072
1.25041
1.2901
1.32978
1.36947
1.01856
1.05849
1.09843
1.13836
1.17829
1.21823
1.25816
1.2981
1.33803
1.37797
0.0400193
0.0415883
0.0431572
0.0447263
0.0462953
0.0478643
0.0494334
0.0510024
0.0525715
0.0541405
0.119811
0.124508
0.129206
0.133903
0.1386
0.143298
0.147995
0.152693
0.15739
0.162088
0.198864
0.206661
0.214458
0.222254
0.230051
0.237848
0.245645
0.253442
0.261239
0.269036
0.276691
0.287539
0.298387
0.309235
0.320083
0.330932
0.34178
0.352628
0.363476
0.374325
0.352813
0.366645
0.380477
0.39431
0.408142
0.421975
0.435808
0.44964
0.463473
0.477306
0.426758
0.44349
0.460221
0.476953
0.493685
0.510417
0.527149
0.543881
0.560613
0.577345
0.498073
0.517601
0.537128
0.556656
0.576184
0.595711
0.615239
0.634768
0.654296
0.673824
0.566317
0.58852
0.610723
0.632927
0.65513
0.677334
0.699537
0.721741
0.743945
0.766149
0.63107
0.655812
0.680553
0.705295
0.730037
0.75478
0.779522
0.804265
0.829007
0.85375
0.691932
0.719059
0.746187
0.773316
0.800444
0.827572
0.854701
0.88183
0.908959
0.936088
0.0546605
0.0541181
0.0535757
0.0530333
0.0524909
0.0519486
0.0514062
0.0508638
0.0503214
0.049779
0.163659
0.162066
0.160473
0.15888
0.157286
0.155693
0.1541
0.152506
0.150913
0.14932
0.271695
0.269152
0.266609
0.264066
0.261523
0.258981
0.256438
0.253895
0.251352
0.248809
0.37813
0.374806
0.371482
0.368158
0.364834
0.36151
0.358186
0.354862
0.351538
0.348213
0.482341
0.47847
0.474598
0.470727
0.466856
0.462984
0.459113
0.455242
0.45137
0.447499
0.583714
0.579594
0.575474
0.571354
0.567234
0.563114
0.558994
0.554874
0.550754
0.546634
0.681655
0.677647
0.67364
0.669632
0.665624
0.661617
0.657609
0.653602
0.649594
0.645587
0.775591
0.772117
0.768643
0.76517
0.761696
0.758222
0.754749
0.751275
0.747801
0.744328
0.864974
0.862513
0.860053
0.857592
0.855131
0.852671
0.85021
0.847749
0.845289
0.842828
0.949285
0.948371
0.947457
0.946544
0.94563
0.944716
0.943803
0.942889
0.941976
0.941062
1.06545
1.06545
1.06545
1.06545
1.06545
1.06545
1.06545
1.06545
1.06545
1.06545
1.21646
1.21646
1.21646
1.21646
1.21646
1.21646
1.21646
1.21646
1.21646
1.21646
1.36746
1.36746
1.36746
1.36746
1.36746
1.36746
1.36746
1.36746
1.36746
1.36746
1.51847
1.51847
1.51847
1.51847
1.51847
1.51847
1.51847
1.51847
1.51847
1.51847
1.66947
1.66947
1.66947
1.66947
1.66947
1.66947
1.66947
1.66947
1.66947
1.66947
1.82048
1.82048
1.82048
1.82048
1.82048
1.82048
1.82048
1.82048
1.82048
1.82048
1.97148
1.97148
1.97148
1.97148
1.97148
1.97148
1.97148
1.97148
1.97148
1.97148
2.12249
2.12249
2.12249
2.12249
2.12249
2.12249
2.12249
2.12249
2.12249
2.12249
2.27349
2.27349
2.27349
2.27349
2.27349
2.27349
2.27349
2.27349
2.27349
2.27349
2.4245
2.4245
2.4245
2.4245
2.4245
2.4245
2.4245
2.4245
2.4245
2.4245
1.45286
1.44467
1.42833
1.40397
1.37171
1.33177
1.28439
1.22987
1.16855
1.10081
1.56307
1.55574
1.54113
1.51933
1.49047
1.45474
1.41236
1.36358
1.30873
1.24813
1.67329
1.66682
1.65393
1.6347
1.60924
1.57771
1.54032
1.49729
1.4489
1.39544
1.7835
1.7779
1.76673
1.75006
1.728
1.70069
1.66829
1.631
1.58907
1.54275
1.89372
1.88898
1.87953
1.86543
1.84677
1.82366
1.79625
1.76471
1.72924
1.69006
2.00393
2.00006
1.99233
1.98079
1.96553
1.94663
1.92421
1.89842
1.86941
1.83737
2.11415
2.11113
2.10513
2.09616
2.0843
2.0696
2.05218
2.03213
2.00958
1.98467
2.22436
2.22221
2.21792
2.21153
2.20306
2.19258
2.18014
2.16584
2.14975
2.13198
2.33458
2.33329
2.33072
2.32689
2.32182
2.31555
2.30811
2.29954
2.28991
2.27928
2.44479
2.44437
2.44352
2.44226
2.44059
2.43852
2.43607
2.43325
2.43008
2.42658
1.01265
0.983306
0.953958
0.92461
0.895263
0.865915
0.836568
0.807221
0.777874
0.748527
1.08298
1.05159
1.0202
0.988819
0.957433
0.926048
0.894662
0.863277
0.831893
0.800508
1.14662
1.11339
1.08016
1.04693
1.0137
0.980471
0.947241
0.914012
0.880782
0.847553
1.2032
1.16833
1.13346
1.09859
1.06372
1.02885
0.99398
0.959111
0.924242
0.889373
1.25236
1.21606
1.17977
1.14347
1.10718
1.07088
1.03459
0.998297
0.962003
0.92571
1.2938
1.2563
1.2188
1.18131
1.14381
1.10632
1.06882
1.03133
0.993833
0.956339
1.32726
1.28879
1.25032
1.21186
1.17339
1.13493
1.09646
1.058
1.01954
0.981073
1.35253
1.31334
1.27414
1.23494
1.19574
1.15654
1.11735
1.07815
1.03895
0.999757
1.36947
1.32978
1.2901
1.25041
1.21072
1.17103
1.13134
1.09165
1.05197
1.01228
1.37797
1.33803
1.2981
1.25816
1.21823
1.17829
1.13836
1.09843
1.05849
1.01856
0.0541405
0.0525715
0.0510024
0.0494333
0.0478643
0.0462953
0.0447262
0.0431572
0.0415882
0.0400192
0.162088
0.15739
0.152693
0.147995
0.143298
0.1386
0.133903
0.129206
0.124508
0.119811
0.269036
0.261239
0.253442
0.245645
0.237848
0.230051
0.222254
0.214457
0.206661
0.198864
0.374325
0.363476
0.352628
0.34178
0.330931
0.320083
0.309235
0.298387
0.287539
0.276691
0.477306
0.463473
0.44964
0.435807
0.421975
0.408142
0.394309
0.380477
0.366644
0.352812
0.577345
0.560613
0.54388
0.527148
0.510416
0.493685
0.476953
0.460221
0.44349
0.426758
0.673824
0.654296
0.634767
0.615239
0.595711
0.576183
0.556656
0.537128
0.5176
0.498073
0.766149
0.743945
0.721741
0.699537
0.677333
0.65513
0.632926
0.610723
0.58852
0.566317
0.85375
0.829007
0.804265
0.779522
0.75478
0.730037
0.705295
0.680553
0.655811
0.63107
0.936088
0.908959
0.88183
0.854701
0.827572
0.800444
0.773315
0.746187
0.719059
0.691932
0.049779
0.0503214
0.0508638
0.0514062
0.0519486
0.0524909
0.0530333
0.0535757
0.0541181
0.0546605
0.14932
0.150913
0.152506
0.1541
0.155693
0.157286
0.15888
0.160473
0.162066
0.163659
0.248809
0.251352
0.253895
0.256438
0.258981
0.261523
0.264066
0.266609
0.269152
0.271695
0.348213
0.351538
0.354862
0.358186
0.36151
0.364834
0.368158
0.371482
0.374806
0.37813
0.447499
0.45137
0.455242
0.459113
0.462984
0.466856
0.470727
0.474598
0.47847
0.482341
0.546634
0.550754
0.554874
0.558994
0.563114
0.567234
0.571354
0.575474
0.579594
0.583714
0.645587
0.649594
0.653602
0.657609
0.661617
0.665624
0.669632
0.67364
0.677647
0.681655
0.744328
0.747801
0.751275
0.754749
0.758222
0.761696
0.76517
0.768643
0.772117
0.775591
0.842828
0.845289
0.847749
0.85021
0.852671
0.855131
0.857592
0.860053
0.862513
0.864974
0.941062
0.941976
0.942889
0.943803
0.944716
0.94563
0.946544
0.947457
0.948371
0.949285
1.06545
1.06545
1.06545
1.06545
1.06545
1.06545
1.06545
1.06545
1.06545
1.06545
1.21646
1.21646
1.21646
1.21646
1.21646
1.21646
1.21646
1.21646
1.21646
1.21646
1.36746
1.36746
1.36746
1.36746
1.36746
1.36746
1.36746
1.36746
1.36746
1.36746
1.51847
1.51847
1.51847
1.51847
1.51847
1.51847
1.51847
1.51847
1.51847
1.51847
1.66947
1.66947
1.66947
1.66947
1.66947
1.66947
1.66947
1.66947
1.66947
1.66947
1.82048
1.82048
1.82048
1.82048
1.82048
1.82048
1.82048
1.82048
1.82048
1.82048
1.97148
1.97148
1.97148
1.97148
1.97148
1.97148
1.97148
1.97148
1.97148
1.97148
2.12249
2.12249
2.12249
2.12249
2.12249
2.12249
2.12249
2.12249
2.12249
2.12249
2.27349
2.27349
2.27349
2.27349
2.27349
2.27349
2.27349
2.27349
2.27349
2.27349
2.4245
2.4245
2.4245
2.4245
2.4245
2.4245
2.4245
2.4245
2.4245
2.4245
1.10081
1.16855
1.22987
1.28439
1.33177
1.37171
1.40397
1.42833
1.44467
1.45286
1.24813
1.30873
1.36358
1.41236
1.45474
1.49047
1.51933
1.54113
1.55574
1.56307
1.39544
1.4489
1.49729
1.54032
1.57771
1.60924
1.6347
1.65393
1.66682
1.67329
1.54275
1.58907
1.631
1.66829
1.70069
1.728
1.75006
1.76673
1.7779
1.7835
1.69006
1.72924
1.76471
1.79625
1.82366
1.84677
1.86543
1.87953
1.88898
1.89372
1.83737
1.86941
1.89842
1.92421
1.94663
1.96553
1.98079
1.99233
2.00006
2.00393
1.98467
2.00958
2.03213
2.05218
2.0696
2.0843
2.09616
2.10513
2.11113
2.11415
2.13198
2.14975
2.16584
2.18014
2.19258
2.20306
2.21153
2.21792
2.22221
2.22436
2.27928
2.28991
2.29954
2.30811
2.31555
2.32182
2.32689
2.33072
2.33329
2.33458
2.42658
2.43008
2.43325
2.43607
2.43852
2.44059
2.44226
2.44352
2.44437
2.44479
-1.01856
-1.05849
-1.09843
-1.13836
-1.17829
-1.21823
-1.25816
-1.2981
-1.33803
-1.37797
-1.01228
-1.05197
-1.09165
-1.13134
-1.17103
-1.21072
-1.25041
-1.2901
-1.32978
-1.36947
-0.999757
-1.03895
-1.07815
-1.11735
-1.15654
-1.19574
-1.23494
-1.27414
-1.31334
-1.35253
-0.981073
-1.01954
-1.058
-1.09646
-1.13493
-1.17339
-1.21186
-1.25032
-1.28879
-1.32726
-0.956339
-0.993833
-1.03133
-1.06882
-1.10632
-1.14381
-1.18131
-1.2188
-1.2563
-1.2938
-0.92571
-0.962003
-0.998297
-1.03459
-1.07088
-1.10718
-1.14347
-1.17977
-1.21606
-1.25236
-0.889373
-0.924242
-0.959111
-0.99398
-1.02885
-1.06372
-1.09859
-1.13346
-1.16833
-1.2032
-0.847553
-0.880782
-0.914012
-0.947241
-0.980471
-1.0137
-1.04693
-1.08016
-1.11339
-1.14662
-0.800508
-0.831893
-0.863277
-0.894662
-0.926048
-0.957433
-0.988819
-1.0202
-1.05159
-1.08298
-0.748527
-0.777874
-0.807221
-0.836568
-0.865915
-0.895263
-0.92461
-0.953958
-0.983306
-1.01265
-0.691932
-0.719059
-0.746187
-0.773315
-0.800444
-0.827572
-0.854701
-0.88183
-0.908959
-0.936088
-0.63107
-0.655811
-0.680553
-0.705295
-0.730037
-0.75478
-0.779522
-0.804265
-0.829007
-0.85375
-0.566317
-0.58852
-0.610723
-0.632926
-0.65513
-0.677333
-0.699537
-0.721741
-0.743945
-0.766149
-0.498073
-0.5176
-0.537128
-0.556656
-0.576183
-0.595711
-0.615239
-0.634767
-0.654296
-0.673824
-0.426758
-0.44349
-0.460221
-0.476953
-0.493685
-0.510416
-0.527148
-0.54388
-0.560613
-0.577345
-0.352812
-0.366644
-0.380477
-0.394309
-0.408142
-0.421975
-0.435807
-0.44964
-0.463473
-0.477306
-0.276691
-0.287539
-0.298387
-0.309235
-0.320083
-0.330931
-0.34178
-0.352628
-0.363476
-0.374325
-0.198864
-0.206661
-0.214457
-0.222254
-0.230051
-0.237848
-0.245645
-0.253442
-0.261239
-0.269036
-0.119811
-0.124508
-0.129206
-0.133903
-0.1386
-0.143298
-0.147995
-0.152693
-0.15739
-0.162088
-0.0400192
-0.0415882
-0.0431572
-0.0447262
-0.0462953
-0.0478643
-0.0494333
-0.0510024
-0.0525715
-0.0541405
-0.949285
-0.948371
-0.947457
-0.946544
-0.94563
-0.944716
-0.943803
-0.942889
-0.941976
-0.941062
-0.864974
-0.862513
-0.860053
-0.857592
-0.855131
-0.852671
-0.85021
-0.847749
-0.845289
-0.842828
-0.775591
-0.772117
-0.768643
-0.76517
-0.761696
-0.758222
-0.754749
-0.751275
-0.747801
-0.744328
-0.681655
-0.677647
-0.67364
-0.669632
-0.665624
-0.661617
-0.657609
-0.653602
-0.649594
-0.645587
-0.583714
-0.579594
-0.575474
-0.571354
-0.567234
-0.563114
-0.558994
-0.554874
-0.550754
-0.546634
-0.482341
-0.47847
-0.474598
-0.470727
-0.466856
-0.462984
-0.459113
-0.455242
-0.45137
-0.447499
-0.37813
-0.374806
-0.371482
-0.368158
-0.364834
-0.36151
-0.358186
-0.354862
-0.351538
-0.348213
-0.271695
-0.269152
-0.266609
-0.264066
-0.261523
-0.258981
-0.256438
-0.253895
-0.251352
-0.248809
-0.163659
-0.162066
-0.160473
-0.15888
-0.157286
-0.155693
-0.1541
-0.152506
-0.150913
-0.14932
-0.0546605
-0.0541181
-0.0535757
-0.0530333
-0.0524909
-0.0519486
-0.0514062
-0.0508638
-0.0503214
-0.049779
-1.44899
-1.44899
-1.44899
-1.44899
-1.44899
-1.44899
-1.44899
-1.44899
-1.44899
-1.44899
-1.34698
-1.34698
-1.34698
-1.34698
-1.34698
-1.34698
-1.34698
-1.34698
-1.34698
-1.34698
-1.24497
-1.24497
-1.24497
-1.24497
-1.24497
-1.24497
-1.24497
-1.24497
-1.24497
-1.24497
-1.14296
-1.14296
-1.14296
-1.14296
-1.14296
-1.14296
-1.14296
-1.14296
-1.14296
-1.14296
-1.04095
-1.04095
-1.04095
-1.04095
-1.04095
-1.04095
-1.04095
-1.04095
-1.04095
-1.04095
-1.48975
-1.48888
-1.48715
-1.48459
-1.4812
-1.47702
-1.47207
-1.46638
-1.45999
-1.45295
-1.46931
-1.4667
-1.4615
-1.45377
-1.44356
-1.43095
-1.416
-1.39882
-1.37951
-1.3582
-1.44888
-1.44452
-1.43585
-1.42296
-1.40592
-1.38487
-1.35993
-1.33125
-1.29902
-1.26343
-1.42845
-1.42234
-1.41021
-1.39214
-1.36828
-1.33879
-1.30384
-1.26367
-1.21851
-1.16865
-1.40801
-1.40017
-1.38456
-1.36132
-1.33063
-1.2927
-1.24775
-1.19607
-1.13798
-1.07384
-0.936088
-0.908959
-0.88183
-0.854701
-0.827572
-0.800444
-0.773315
-0.746187
-0.719059
-0.691932
-0.85375
-0.829007
-0.804265
-0.779522
-0.75478
-0.730037
-0.705295
-0.680553
-0.655811
-0.63107
-0.766149
-0.743945
-0.721741
-0.699537
-0.677333
-0.65513
-0.632926
-0.610723
-0.58852
-0.566317
-0.673824
-0.654296
-0.634767
-0.615239
-0.595711
-0.576183
-0.556656
-0.537128
-0.5176
-0.498073
-0.577345
-0.560613
-0.54388
-0.527148
-0.510416
-0.493685
-0.476953
-0.460221
-0.44349
-0.426758
-0.477306
-0.463473
-0.44964
-0.435807
-0.421975
-0.408142
-0.394309
-0.380477
-0.366644
-0.352812
-0.374325
-0.363476
-0.352628
-0.34178
-0.330931
-0.320083
-0.309235
-0.298387
-0.287539
-0.276691
-0.269036
-0.261239
-0.253442
-0.245645
-0.237848
-0.230051
-0.222254
-0.214457
-0.206661
-0.198864
-0.162088
-0.15739
-0.152693
-0.147995
-0.143298
-0.1386
-0.133903
-0.129206
-0.124508
-0.119811
-0.0541405
-0.0525715
-0.0510024
-0.0494333
-0.0478643
-0.0462953
-0.0447262
-0.0431572
-0.0415882
-0.0400192
-1.37797
-1.33803
-1.2981
-1.25816
-1.21823
-1.17829
-1.13836
-1.09843
-1.05849
-1.01856
-1.36947
-1.32978
-1.2901
-1.25041
-1.21072
-1.17103
-1.13134
-1.09165
-1.05197
-1.01228
-1.35253
-1.31334
-1.27414
-1.23494
-1.19574
-1.15654
-1.11735
-1.07815
-1.03895
-0.999757
-1.32726
-1.28879
-1.25032
-1.21186
-1.17339
-1.13493
-1.09646
-1.058
-1.01954
-0.981073
-1.2938
-1.2563
-1.2188
-1.18131
-1.14381
-1.10632
-1.06882
-1.03133
-0.993833
-0.956339
-1.25236
-1.21606
-1.17977
-1.14347
-1.10718
-1.07088
-1.03459
-0.998297
-0.962003
-0.92571
-1.2032
-1.16833
-1.13346
-1.09859
-1.06372
-1.02885
-0.99398
-0.959111
-0.924242
-0.889373
-1.14662
-1.11339
-1.08016
-1.04693
-1.0137
-0.980471
-0.947241
-0.914012
-0.880782
-0.847553
-1.08298
-1.05159
-1.0202
-0.988819
-0.957433
-0.926048
-0.894662
-0.863277
-0.831893
-0.800508
-1.01265
-0.983306
-0.953958
-0.92461
-0.895263
-0.865915
-0.836568
-0.807221
-0.777874
-0.748527
-0.941062
-0.941976
-0.942889
-0.943803
-0.944716
-0.94563
-0.946544
-0.947457
-0.948371
-0.949285
-0.842828
-0.845289
-0.847749
-0.85021
-0.852671
-0.855131
-0.857592
-0.860053
-0.862513
-0.864974
-0.744328
-0.747801
-0.751275
-0.754749
-0.758222
-0.761696
-0.76517
-0.768643
-0.772117
-0.775591
-0.645587
-0.649594
-0.653602
-0.657609
-0.661617
-0.665624
-0.669632
-0.67364
-0.677647
-0.681655
-0.546634
-0.550754
-0.554874
-0.558994
-0.563114
-0.567234
-0.571354
-0.575474
-0.579594
-0.583714
-0.447499
-0.45137
-0.455242
-0.459113
-0.462984
-0.466856
-0.470727
-0.474598
-0.47847
-0.482341
-0.348213
-0.351538
-0.354862
-0.358186
-0.36151
-0.364834
-0.368158
-0.371482
-0.374806
-0.37813
-0.248809
-0.251352
-0.253895
-0.256438
-0.258981
-0.261523
-0.264066
-0.266609
-0.269152
-0.271695
-0.14932
-0.150913
-0.152506
-0.1541
-0.155693
-0.157286
-0.15888
-0.160473
-0.162066
-0.163659
-0.049779
-0.0503214
-0.0508638
-0.0514062
-0.0519486
-0.0524909
-0.0530333
-0.0535757
-0.0541181
-0.0546605
-1.44899
-1.44899
-1.44899
-1.44899
-1.44899
-1.44899
-1.44899
-1.44899
-1.44899
-1.44899
-1.34698
-1.34698
-1.34698
-1.34698
-1.34698
-1.34698
-1.34698
-1.34698
-1.34698
-1.34698
-1.24497
-1.24497
-1.24497
-1.24497
-1.24497
-1.24497
-1.24497
-1.24497
-1.24497
-1.24497
-1.14296
-1.14296
-1.14296
-1.14296
-1.14296
-1.14296
-1.14296
-1.14296
-1.14296
-1.14296
-1.04095
-1.04095
-1.04095
-1.04095
-1.04095
-1.04095
-1.04095
-1.04095
-1.04095
-1.04095
-1.45295
-1.45999
-1.46638
-1.47207
-1.47702
-1.4812
-1.48459
-1.48715
-1.48888
-1.48975
-1.3582
-1.37951
-1.39882
-1.416
-1.43095
-1.44356
-1.45377
-1.4615
-1.4667
-1.46931
-1.26343
-1.29902
-1.33125
-1.35993
-1.38487
-1.40592
-1.42296
-1.43585
-1.44452
-1.44888
-1.16865
-1.21851
-1.26367
-1.30384
-1.33879
-1.36828
-1.39214
-1.41021
-1.42234
-1.42845
-1.07384
-1.13798
-1.19607
-1.24775
-1.2927
-1.33063
-1.36132
-1.38456
-1.40017
-1.40801
)
;

boundaryField
{
    left
    {
        type            calculated;
        value           nonuniform List<scalar> 
35
(
1.06545
1.21646
1.36746
1.51847
1.66947
1.82048
1.97148
2.12249
2.27349
2.4245
0.0494974
0.148492
0.247487
0.346482
0.445477
0.544472
0.643467
0.742462
0.841457
0.940452
-0.940452
-0.841457
-0.742462
-0.643467
-0.544472
-0.445477
-0.346482
-0.247487
-0.148492
-0.0494974
-1.44899
-1.34698
-1.24497
-1.14296
-1.04095
)
;
    }
    right
    {
        type            calculated;
        value           nonuniform List<scalar> 
35
(
-1.44899
-1.34698
-1.24497
-1.14296
-1.04095
-0.940452
-0.841457
-0.742462
-0.643467
-0.544472
-0.445477
-0.346482
-0.247487
-0.148492
-0.0494974
0.0494974
0.148492
0.247487
0.346482
0.445477
0.544472
0.643467
0.742462
0.841457
0.940452
1.06545
1.21646
1.36746
1.51847
1.66947
1.82048
1.97148
2.12249
2.27349
2.4245
)
;
    }
    down
    {
        type            calculated;
        value           nonuniform List<scalar> 
40
(
-1.5
-1.5
-1.5
-1.5
-1.5
-1.5
-1.5
-1.5
-1.5
-1.5
-1.5
-1.5
-1.5
-1.5
-1.5
-1.5
-1.5
-1.5
-1.5
-1.5
-1.5
-1.5
-1.5
-1.5
-1.5
-1.5
-1.5
-1.5
-1.5
-1.5
-1.5
-1.5
-1.5
-1.5
-1.5
-1.5
-1.5
-1.5
-1.5
-1.5
)
;
    }
    up
    {
        type            calculated;
        value           nonuniform List<scalar> 
40
(
2.5
2.5
2.5
2.5
2.5
2.5
2.5
2.5
2.5
2.5
2.5
2.5
2.5
2.5
2.5
2.5
2.5
2.5
2.5
2.5
2.5
2.5
2.5
2.5
2.5
2.5
2.5
2.5
2.5
2.5
2.5
2.5
2.5
2.5
2.5
2.5
2.5
2.5
2.5
2.5
)
;
    }
    cylinder
    {
        type            calculated;
        value           nonuniform List<scalar> 
80
(
0.0392296
0.117447
0.19494
0.271231
0.34585
0.418337
0.488245
0.555142
0.618617
0.678278
0.733756
0.784711
0.830828
0.871823
0.907442
0.937467
0.961713
0.980029
0.992302
0.998459
0.733756
0.784711
0.830828
0.871823
0.907442
0.937467
0.961713
0.980029
0.992302
0.998459
0.0392295
0.117447
0.19494
0.271231
0.34585
0.418337
0.488244
0.555142
0.618617
0.678278
-0.678278
-0.618617
-0.555142
-0.488244
-0.418337
-0.34585
-0.271231
-0.19494
-0.117447
-0.0392295
-0.998459
-0.992302
-0.980029
-0.961713
-0.937467
-0.907442
-0.871823
-0.830828
-0.784711
-0.733756
-0.998459
-0.992302
-0.980029
-0.961713
-0.937467
-0.907442
-0.871823
-0.830828
-0.784711
-0.733756
-0.678278
-0.618617
-0.555142
-0.488244
-0.418337
-0.34585
-0.271231
-0.19494
-0.117447
-0.0392295
)
;
    }
    defaultFaces
    {
        type            empty;
    }
}


// ************************************************************************* //
