/*--------------------------------*- C++ -*----------------------------------*\
  =========                 |
  \\      /  F ield         | OpenFOAM: The Open Source CFD Toolbox
   \\    /   O peration     | Website:  https://openfoam.org
    \\  /    A nd           | Version:  13
     \\/     M anipulation  |
\*---------------------------------------------------------------------------*/
FoamFile
{
    format      ascii;
    class       volScalarField;
    location    "0.5";
    object      Ccz;
}
// * * * * * * * * * * * * * * * * * * * * * * * * * * * * * * * * * * * * * //

dimensions      [0 1 0 0 0 0 0];

internalField   nonuniform List<scalar> 
1800
(
0
0
0
-6.21264e-17
4.05547e-17
1.88781e-17
7.46352e-17
0
0
-3.49007e-17
2.25796e-17
0
-6.58714e-17
0
-8.11326e-17
0
0
-7.39282e-17
3.74384e-17
0
-2.33506e-17
0
0
4.19356e-17
-2.10483e-17
-4.08176e-17
0
0
0
0
2.33506e-17
0
0
-2.17328e-17
0
1.53074e-18
0
0
3.74384e-17
3.64427e-17
-2.33506e-17
0
0
0
0
-5.96956e-17
0
0
1.71875e-17
0
-2.25796e-17
-2.32566e-17
4.49339e-17
4.19356e-17
0
0
7.61771e-17
-5.62118e-17
0
0
2.25796e-17
1.14754e-16
-6.58714e-17
-6.36683e-17
0
3.7756e-17
0
-1.12424e-16
0
5.31319e-17
-2.41216e-17
-6.82407e-17
2.2467e-17
6.36683e-17
2.10483e-17
0
0
0
5.46258e-17
0
-4.59302e-17
-4.65131e-17
6.58713e-17
6.36683e-17
-2.10483e-17
0
0
-9.47072e-17
-7.18133e-17
0
-6.92808e-17
-2.32566e-17
0
-1.52995e-18
-1.23229e-16
0
7.6177e-17
-1.12423e-16
0
-8.65104e-17
-6.77387e-17
2.24855e-17
0
2.09617e-17
0
1.8878e-17
-5.63563e-17
0
0
0
-4.74723e-17
4.65132e-17
0
0
-2.10483e-17
0
-7.61771e-17
5.62118e-17
-1.71875e-17
0
-6.92809e-17
0
2.2467e-17
2.17328e-17
1.23229e-16
4.23483e-17
-3.96197e-17
7.39282e-17
3.4375e-17
0
0
0
-2.09375e-17
0
-1.9518e-17
-3.92869e-17
3.96197e-17
0
0
0
0
0
0
1.27337e-16
-6.16147e-17
2.04088e-17
0
0
0
0
0
-4.65133e-17
6.58715e-17
0
6.16147e-17
0
0
1.12424e-16
0
0
-2.33507e-17
0
6.58715e-17
-2.17328e-17
6.16147e-17
0
0
-5.62119e-17
-7.18135e-17
0
0
0
-4.1875e-17
-2.17328e-17
-4.05664e-17
0
5.78985e-17
9.16446e-17
0
5.3132e-17
2.33507e-17
-4.65132e-17
-1.09276e-16
6.36684e-17
-2.10484e-17
0
7.61772e-17
0
-7.18135e-17
-3.64427e-17
7.0823e-17
2.40276e-17
-2.3238e-17
0
2.18194e-17
6.12377e-17
-4.11617e-17
0
0
-3.79847e-17
0
4.6053e-17
0
-4.69631e-17
-3.21378e-17
0
-6.40173e-17
1.57835e-17
0
-6.60587e-17
-7.6817e-17
6.26257e-17
3.31394e-17
0
0
0
0
0
-6.68194e-17
0
-8.04896e-17
0
0
0
1.13694e-16
0
0
0
0
0
-3.3171e-17
9.69941e-17
0
0
0
0
0
0
0
0
-6.42457e-17
-6.44695e-17
0
0
0
3.42304e-17
0
-1.00311e-16
0
-6.63206e-17
-3.43011e-17
3.43114e-17
0
0
-3.43422e-17
-6.56293e-17
0
0
3.43834e-17
0
1.02241e-16
3.49822e-17
0
-6.64105e-17
5.03968e-17
0
-1.00086e-16
4.98682e-17
0
4.95222e-17
0
0
0
0
3.49576e-17
-6.63036e-17
3.44174e-17
0
0
0
3.42478e-17
0
0
-6.85825e-17
0
0
1.72297e-17
0
1.53125e-18
9.65548e-17
7.45132e-17
7.29319e-17
-3.72367e-17
0
3.58187e-17
0
0
0
0
-6.24231e-17
-3.89678e-17
6.03792e-17
6.03792e-17
-2.06404e-17
6.03792e-17
6.03792e-17
6.03792e-17
0
6.03792e-17
6.03792e-17
0
0
0
0
0
0
0
-3.97388e-17
0
-6.03792e-17
-1.98694e-17
-6.03792e-17
-6.03792e-17
0
-6.03792e-17
-6.03792e-17
-6.03792e-17
2.06404e-17
-6.03792e-17
0
0
0
0
0
0
0
0
-3.97388e-17
0
-6.03792e-17
-1.98694e-17
0
0
0
0
0
0
2.06404e-17
0
0
0
0
0
0
0
0
0
-3.97388e-17
0
-6.03792e-17
0
0
0
0
0
0
0
-3.97388e-17
0
-6.03792e-17
0
3.97388e-17
3.97388e-17
0
3.97388e-17
3.97388e-17
3.97388e-17
0
-7.94776e-17
-1.90984e-17
0
0
0
0
0
0
0
-3.97388e-17
0
-6.03792e-17
0
0
0
0
0
0
0
-3.97388e-17
0
-6.03792e-17
0
4.95291e-17
0
2.54859e-17
0
0
-2.5446e-17
0
0
0
0
-4.99749e-17
-2.57014e-17
0
-2.55285e-17
-5.08528e-17
-5.06519e-17
4.89539e-17
0
0
4.97541e-17
-5.19706e-17
0
-2.42257e-17
2.40649e-17
7.62278e-17
-9.93033e-17
0
-2.48037e-17
5.08332e-17
-5.18032e-17
2.77581e-17
5.21743e-17
-1.02069e-16
0
7.61764e-17
-2.50896e-17
2.32481e-17
0
0
0
0
-8.19312e-17
-5.20855e-17
0
1.52885e-18
2.49731e-17
0
-1.51875e-18
7.10158e-17
0
2.66928e-17
0
7.8558e-17
0
-7.4545e-17
0
-7.1439e-17
6.97634e-17
4.79654e-17
-5.25925e-17
-5.54172e-17
-2.8228e-17
2.78663e-17
7.76278e-17
-5.06818e-17
2.62693e-17
0
-2.34337e-17
0
-5.39106e-17
-5.59169e-17
-2.68969e-17
-5.44906e-17
-2.59467e-17
-5.06477e-17
4.92611e-17
-2.38879e-17
-4.47122e-17
0
-2.68456e-17
5.33436e-17
0
-2.50908e-17
2.60178e-17
0
-2.45186e-17
4.58327e-17
-6.84223e-17
8.62532e-17
2.71292e-17
2.92439e-17
0
0
-5.21786e-17
2.52899e-17
0
0
0
0
0
0
0
5.63999e-17
7.822e-19
-4.06011e-17
0
2.17209e-17
-2.25115e-17
6.93077e-17
0
0
-5.6254e-17
-1.15884e-16
1.8878e-17
4.05896e-17
2.17568e-17
4.49838e-17
0
-7.08497e-17
0
0
0
0
-7.86186e-17
0
4.19596e-17
-8.68587e-17
0
0
-3.49206e-17
0
-2.08214e-17
-1.82787e-17
0
6.16611e-17
6.52704e-17
0
0
0
-1.19909e-16
-3.74793e-17
0
0
0
0
0
0
0
0
0
-7.18542e-17
0
0
0
0
0
-6.74757e-17
9.31298e-17
2.25796e-17
-1.3814e-16
0
3.54326e-17
0
0
0
-6.37164e-17
4.34293e-17
4.65649e-17
4.98254e-17
0
5.77712e-17
0
3.65574e-17
2.19844e-17
0
-6.37164e-17
0
0
-2.4135e-17
0
-2.02919e-17
0
0
5.97405e-17
0
6.37164e-17
6.59212e-17
2.17275e-17
4.67146e-17
0
-3.43749e-17
7.55122e-17
-4.12051e-17
-6.12825e-17
-1.04564e-16
8.54611e-17
4.42003e-17
0
4.9812e-17
5.00678e-17
-3.59373e-17
0
0
-1.16397e-16
-2.03005e-17
-2.09858e-17
2.17208e-17
-6.67503e-17
0
-6.82991e-17
0
1.77163e-17
0
-2.04312e-17
-1.02251e-16
0
0
-2.32824e-17
4.827e-17
3.49205e-17
-5.46668e-17
-5.62539e-17
0
0
0
-6.37164e-17
0
0
2.25796e-17
-6.82991e-17
0
-3.54326e-17
-3.96632e-17
3.93093e-17
-6.16611e-17
6.37164e-17
0
0
4.67146e-17
3.49206e-17
0
1.77163e-17
0
5.97405e-17
-2.10716e-17
0
4.34293e-17
9.31298e-17
0
-6.82991e-17
0
0
7.62206e-17
0
1.9518e-17
-6.37164e-17
-6.59212e-17
-9.15749e-17
-2.4135e-17
3.49206e-17
3.74793e-17
-1.30224e-16
-5.79419e-17
-1.55321e-18
0
-6.52704e-17
0
0
-7.24051e-17
0
-7.18543e-17
0
0
-4.08625e-17
-8.27327e-17
-2.17568e-17
-6.59213e-17
0
-7.08497e-17
0
0
7.39703e-17
0
2.04313e-17
6.16611e-17
-8.54733e-17
0
0
2.4135e-17
-3.64626e-17
1.71875e-17
0
0
-8.24849e-17
-1.9518e-17
0
-4.65259e-17
-2.40535e-17
0
0
-6.53488e-17
0
0
0
-3.21237e-17
-1.5138e-17
0
6.08739e-17
-6.18342e-17
0
0
3.15481e-17
0
-3.40067e-17
0
0
0
0
1.12468e-16
-6.56583e-17
5.22856e-17
0
3.43171e-17
-1.54898e-17
-1.53604e-17
6.40069e-17
0
-3.30442e-17
-1.71747e-17
4.93405e-17
-3.47351e-17
-5.02573e-17
-1.56263e-17
0
0
4.90632e-17
0
0
-3.47087e-17
0
5.03271e-17
-6.58423e-17
0
0
0
0
0
4.9117e-17
-3.0583e-17
0
3.13077e-17
0
-3.43624e-17
0
0
0
0
3.43109e-17
-5.14555e-17
-1.54835e-17
0
6.54721e-17
3.13144e-17
0
-5.0402e-17
-6.64157e-17
0
0
0
6.26777e-17
0
3.41657e-17
3.4429e-17
0
0
0
6.7979e-17
0
0
0
7.94558e-17
0
0
0
0
-3.58415e-17
-1.05887e-16
0
-7.31079e-17
0
-3.33353e-17
-3.39264e-17
6.59985e-17
6.7278e-17
0
3.65417e-17
-7.14489e-17
0
7.60707e-17
0
6.03792e-17
-2.06404e-17
6.03792e-17
6.03792e-17
6.03792e-17
2.06404e-17
6.03792e-17
6.03792e-17
2.06404e-17
0
-6.03792e-17
0
0
0
0
-3.97388e-17
0
0
6.03792e-17
-5.88372e-17
0
0
-6.03792e-17
-6.03792e-17
-6.03792e-17
0
-6.03792e-17
-6.03792e-17
3.97388e-17
0
-6.03792e-17
0
0
0
0
-3.97388e-17
0
0
6.03792e-17
0
0
0
0
0
0
0
0
0
3.97388e-17
0
-6.03792e-17
0
0
0
0
-3.97388e-17
0
0
6.03792e-17
0
-6.03792e-17
0
0
0
0
-3.97388e-17
0
0
6.03792e-17
-9.85761e-17
-1.90984e-17
0
3.97388e-17
3.97388e-17
3.97388e-17
0
3.97388e-17
3.97388e-17
0
0
-6.03792e-17
0
0
0
0
-3.97388e-17
0
0
6.03792e-17
0
-6.03792e-17
0
0
0
0
-3.97388e-17
0
0
6.03792e-17
-5.14661e-17
0
0
0
0
0
5.10054e-17
-2.55251e-17
2.55426e-17
5.03255e-17
2.51874e-17
0
0
0
-2.54522e-17
2.55499e-17
5.28316e-17
0
-7.72967e-17
0
2.31112e-17
0
-2.50352e-17
9.93929e-17
-4.93155e-17
-7.68559e-17
-2.73305e-17
5.181e-17
2.44438e-17
-5.12961e-17
0
0
0
0
-7.62537e-17
-1.01197e-16
-7.77545e-17
-5.06482e-17
-2.77731e-17
-7.88526e-17
0
0
2.4576e-17
4.84502e-17
0
4.99609e-17
0
-2.78481e-17
8.24781e-17
-2.73116e-17
-6.81384e-17
2.37963e-17
2.43531e-17
0
-7.45964e-17
0
-7.86098e-17
-5.45471e-17
-2.97986e-17
-2.75722e-17
0
0
0
0
-7.60998e-17
-7.7693e-17
2.47957e-17
0
-2.69456e-17
-5.56765e-17
0
4.6301e-17
0
-7.24242e-17
0
-2.59685e-17
2.64951e-17
2.69097e-17
-1.54924e-18
-3.04266e-17
-4.39267e-17
6.85243e-17
-4.58645e-17
0
0
7.6565e-17
0
0
-5.33515e-17
0
0
0
0
0
0
-1.02891e-16
0
-2.73352e-17
-5.38714e-17
5.50256e-17
-4.51592e-17
-2.24855e-17
0
-2.02028e-17
-2.02773e-17
0
0
0
5.30838e-17
-1.36558e-16
0
0
2.09374e-17
0
2.10483e-17
2.04088e-17
0
0
-1.71874e-17
6.98211e-17
-2.25796e-17
0
-2.2467e-17
-2.02028e-17
1.53036e-18
9.89823e-17
7.61771e-17
0
-3.43749e-17
0
2.33506e-17
6.82407e-17
6.58714e-17
0
2.10483e-17
0
0
7.39281e-17
0
-8.65104e-17
-2.41216e-17
6.82407e-17
4.34044e-17
0
0
5.96956e-17
0
0
0
1.97534e-17
-2.33506e-17
9.14973e-17
-4.49339e-17
6.36683e-17
4.20967e-17
0
5.78984e-17
0
0
0
0
0
-2.09375e-17
6.36683e-17
6.16146e-17
0
6.09606e-17
1.3014e-16
-3.74384e-17
6.98212e-17
0
0
1.09276e-16
2.02028e-17
-2.10483e-17
2.04088e-17
0
0
0
0
6.92809e-17
0
6.58714e-17
2.17328e-17
1.9518e-17
0
-5.78984e-17
-5.62118e-17
0
0
0
0
0
0
0
9.74517e-17
0
0
-7.18134e-17
3.64427e-17
0
0
0
-6.36684e-17
4.20967e-17
1.88781e-17
7.61772e-17
0
0
-3.64427e-17
2.25796e-17
0
-6.58714e-17
0
-8.11326e-17
0
0
-7.39282e-17
3.74384e-17
0
-2.33506e-17
0
0
4.19356e-17
-2.10483e-17
-4.08176e-17
0
0
0
0
2.33506e-17
0
0
-2.17328e-17
0
1.53074e-18
0
0
3.74384e-17
3.64427e-17
-2.33506e-17
0
0
0
0
-5.96956e-17
0
0
1.71875e-17
0
-2.25796e-17
-2.32566e-17
4.49339e-17
4.19356e-17
0
0
7.61771e-17
-5.62118e-17
0
0
2.25796e-17
1.14754e-16
-6.58714e-17
-6.36683e-17
0
3.7756e-17
0
-1.12424e-16
0
5.31319e-17
-2.41216e-17
-6.82407e-17
2.2467e-17
6.36683e-17
2.10483e-17
0
0
0
5.46258e-17
0
-4.59302e-17
-4.65131e-17
6.58713e-17
6.36683e-17
-2.10483e-17
0
0
-9.47072e-17
-7.18133e-17
0
9.64865e-17
0
0
-2.25037e-17
-2.18193e-17
0
0
0
0
-5.00678e-17
-3.72567e-17
0
0
-3.49853e-17
6.70544e-17
0
0
3.23712e-17
0
0
-8.87068e-17
0
3.6329e-17
3.58479e-17
-3.22934e-17
0
-1.56987e-17
0
-9.78235e-17
0
-6.91491e-17
0
0
6.7426e-17
0
0
0
0
-3.39174e-17
3.05733e-17
0
3.19109e-17
0
0
0
3.14319e-17
-3.13144e-17
-6.54867e-17
0
-4.95418e-17
0
-1.56178e-17
1.5623e-17
0
-3.43591e-17
1.56384e-17
-3.43797e-17
0
1.56539e-17
0
-6.42593e-17
9.82714e-17
0
-3.40146e-17
-6.67114e-17
0
0
-6.58614e-17
0
0
0
3.33696e-17
0
0
6.48028e-17
0
8.12254e-17
0
3.47551e-17
0
0
0
0
-9.75856e-17
0
-6.50529e-17
-6.71264e-17
0
0
-6.72143e-17
-7.68215e-17
6.26302e-17
0
0
4.90418e-17
0
0
0
6.68243e-17
0
2.31637e-18
-9.82738e-17
0
5.0047e-17
-3.52218e-17
-5.09952e-17
-6.71012e-17
0
6.84475e-17
0
4.24069e-17
5.80845e-17
5.80845e-17
-5.80845e-17
5.80845e-17
5.80845e-17
5.80845e-17
-5.80845e-17
5.80845e-17
2.82713e-17
4.39489e-17
0
0
0
0
0
0
0
-1.54198e-18
0
-5.80845e-17
0
0
-4.54909e-17
0
0
0
-4.54909e-17
0
-4.54909e-17
4.39489e-17
0
0
0
0
0
0
0
-1.54198e-18
0
4.54909e-17
0
0
0
0
0
0
0
-2.31296e-18
0
-7.07131e-17
0
-2.91125e-17
-9.71464e-17
-1.9539e-17
-6.54888e-17
-2.64157e-17
0
-3.772e-17
0
-3.61495e-17
0
0
7.56523e-17
1.24021e-16
0
0
-2.41159e-17
1.91677e-17
-7.03585e-17
0
-1.58139e-17
-2.78879e-17
7.41272e-17
0
3.8946e-17
-2.76334e-17
-2.47972e-17
0
7.32661e-17
3.324e-17
0
5.97281e-17
7.55527e-17
6.29191e-17
-8.68628e-17
-5.95281e-17
7.50792e-17
1.07709e-16
0
-3.56737e-17
-3.51922e-17
0
-7.55717e-17
-2.01462e-17
7.26907e-17
-5.01757e-17
-5.6347e-17
4.74455e-17
2.19015e-17
0
0
0
5.63999e-17
7.822e-19
-4.06011e-17
0
2.17209e-17
-2.25115e-17
6.93077e-17
0
0
-5.6254e-17
-1.15884e-16
1.8878e-17
4.05896e-17
2.17568e-17
4.49838e-17
0
-7.08497e-17
0
0
0
0
-7.86186e-17
0
4.19596e-17
-8.68587e-17
0
0
-3.49206e-17
0
-2.08214e-17
-1.82787e-17
0
6.16611e-17
6.52704e-17
0
0
0
-1.19909e-16
-3.74793e-17
0
0
0
0
0
0
0
0
0
-7.18542e-17
0
0
0
0
0
-6.74757e-17
9.31298e-17
2.25796e-17
-1.3814e-16
0
3.54326e-17
0
0
0
-6.37164e-17
4.34293e-17
4.65649e-17
4.98254e-17
0
5.77712e-17
0
3.65574e-17
2.19844e-17
0
-6.37164e-17
0
0
-2.4135e-17
0
-2.02919e-17
0
0
5.97405e-17
0
6.37164e-17
6.59212e-17
2.17275e-17
4.67146e-17
0
-7.33962e-17
0
0
0
0
0
2.32629e-17
0
4.9812e-17
3.49205e-17
-7.18542e-17
3.85376e-17
0
-2.04312e-17
0
1.27433e-16
0
2.32824e-17
-4.827e-17
-6.82991e-17
0
1.77163e-17
0
-2.04312e-17
-1.02251e-16
0
0
-2.32824e-17
4.827e-17
3.49205e-17
-5.46668e-17
-5.62539e-17
0
0
0
-6.37164e-17
0
0
2.25796e-17
-6.82991e-17
0
-3.54326e-17
-3.96632e-17
3.93093e-17
-6.16611e-17
6.37164e-17
0
0
4.67146e-17
3.49206e-17
0
1.77163e-17
0
5.97405e-17
-2.10716e-17
0
4.34293e-17
9.31298e-17
0
-6.82991e-17
0
0
7.62206e-17
0
1.9518e-17
-6.37164e-17
-6.59212e-17
-9.15749e-17
-2.4135e-17
3.49206e-17
3.74793e-17
-1.30224e-16
-5.79419e-17
-1.55321e-18
0
-6.52704e-17
0
0
-7.24051e-17
0
-7.18543e-17
0
0
-4.08625e-17
-8.27327e-17
-2.17568e-17
-6.59213e-17
0
-7.08497e-17
0
0
7.39703e-17
0
2.04313e-17
6.16611e-17
-8.54733e-17
0
0
2.4135e-17
-3.64626e-17
1.71875e-17
0
0
-8.24849e-17
-1.9518e-17
0
-4.65259e-17
-2.40535e-17
0
0
3.18065e-17
0
-6.44703e-17
0
0
-3.50144e-17
3.57393e-17
0
7.45443e-17
4.67686e-17
1.5275e-17
1.54839e-17
-5.02022e-17
0
0
3.27608e-17
0
-1.99763e-17
-3.88874e-17
-3.21263e-17
9.86857e-17
0
0
3.47196e-17
-3.49922e-17
0
0
0
-7.06972e-17
0
-6.52602e-17
0
6.57251e-17
-1.57159e-17
5.04219e-17
6.79839e-17
0
-3.50075e-17
-5.26854e-17
0
5.00537e-17
0
0
-6.56457e-17
3.43586e-17
-3.43484e-17
3.43381e-17
-3.43278e-17
0
0
-6.6092e-17
0
-1.54419e-18
0
0
-3.40096e-17
3.3896e-17
0
3.0583e-17
0
0
-3.45406e-17
4.9964e-17
0
0
-4.90739e-17
0
0
3.47192e-17
0
0
0
0
6.50414e-17
0
0
0
0
-4.92205e-17
0
0
0
-6.55533e-17
0
-4.90286e-17
0
3.3131e-17
0
-2.94916e-17
0
-3.65256e-17
0
0
0
3.52077e-17
3.4895e-17
5.1883e-17
-4.91232e-17
2.93751e-17
5.65426e-17
2.82713e-17
-5.80845e-17
5.80845e-17
5.80845e-17
5.80845e-17
-5.80845e-17
5.80845e-17
5.80845e-17
0
-7.70988e-19
0
0
0
0
0
0
0
0
0
0
-4.54909e-17
-4.54909e-17
0
0
0
0
0
0
-4.54909e-17
-7.70988e-19
0
0
0
0
0
0
0
0
0
-1.54198e-18
0
0
0
0
0
0
0
0
0
3.31686e-17
5.80016e-17
2.28179e-17
-2.80893e-17
-6.57656e-17
4.07577e-17
0
0
3.43018e-17
0
-6.89327e-17
0
-2.26287e-17
2.70108e-17
6.83053e-17
0
-2.53504e-17
0
0
0
-3.75399e-17
2.14986e-17
7.47926e-17
0
1.97584e-17
6.27448e-17
5.06674e-17
7.29099e-17
-6.64051e-17
-3.39168e-17
0
2.22693e-17
-7.53548e-17
0
-5.35876e-17
0
-9.966e-17
2.92337e-17
-4.98377e-17
-1.08944e-16
-6.12118e-17
0
-2.95793e-17
-4.82269e-17
0
0
0
0
3.53409e-17
3.87576e-17
)
;

boundaryField
{
    left
    {
        type            calculated;
        value           uniform 0;
    }
    right
    {
        type            calculated;
        value           uniform 0;
    }
    down
    {
        type            calculated;
        value           uniform 0;
    }
    up
    {
        type            calculated;
        value           uniform 0;
    }
    cylinder
    {
        type            calculated;
        value           uniform 0;
    }
    defaultFaces
    {
        type            empty;
    }
}


// ************************************************************************* //
