/*--------------------------------*- C++ -*----------------------------------*\
  =========                 |
  \\      /  F ield         | OpenFOAM: The Open Source CFD Toolbox
   \\    /   O peration     | Website:  https://openfoam.org
    \\  /    A nd           | Version:  13
     \\/     M anipulation  |
\*---------------------------------------------------------------------------*/
FoamFile
{
    format      ascii;
    class       volScalarField;
    location    "0.5";
    object      p;
}
// * * * * * * * * * * * * * * * * * * * * * * * * * * * * * * * * * * * * * //

dimensions      [0 2 -2 0 0 0 0];

internalField   nonuniform List<scalar> 
1800
(
5.75085
7.85798
10.0108
11.4393
12.2737
12.6845
12.8157
12.6588
11.4132
7.32194
9.60165
12.0774
14.5824
16.2664
17.3231
17.986
18.4409
18.6803
17.9564
15.2792
15.995
18.6197
21.2925
23.1559
24.4162
25.298
25.949
26.3326
25.8617
24.0312
24.9909
27.5603
30.2088
32.1233
33.4887
34.4979
35.2605
35.7126
35.3067
33.6223
36.0501
38.4109
40.8632
42.6749
43.9993
44.9956
45.7502
46.1997
45.8496
44.2943
48.7274
50.78
52.9237
54.53
55.721
56.6233
57.3057
57.7163
57.4352
56.076
62.6762
64.349
66.1048
67.4368
68.4389
69.2085
69.8
70.177
70.002
68.9134
77.6023
78.8439
80.155
81.1644
81.9404
82.5542
83.0484
83.4033
83.3699
82.6335
93.2208
94.0005
94.832
95.487
96.0098
96.4473
96.8301
97.1535
97.2637
96.9293
109.25
109.555
109.886
110.161
110.399
110.62
110.837
111.051
111.212
111.239
-0.588428
-0.840053
-0.618148
-0.204355
0.266802
0.733179
1.09251
1.30389
1.44869
1.59453
-0.481317
-0.993528
-1.09974
-0.891715
-0.467735
-0.0431051
0.251287
0.494262
0.773278
1.04575
0.505717
-0.457256
-1.28184
-1.44465
-1.11795
-0.810044
-0.593369
-0.287201
0.119373
0.504802
0.894853
-0.242693
-1.43286
-1.76935
-1.54942
-1.39257
-1.26341
-0.956488
-0.499317
0.00865984
0.465366
-0.499807
-1.43474
-1.72457
-1.66686
-1.67414
-1.63371
-1.36988
-0.877765
-0.183142
-0.233018
-0.748318
-1.14597
-1.27453
-1.29429
-1.35714
-1.3467
-1.13624
-0.610349
0.322777
-0.562851
-0.524385
-0.346648
-0.199998
-0.114761
-0.0928879
-0.0527125
0.118898
0.698174
1.92909
-0.0750865
0.511496
1.23296
1.73775
2.06769
2.28165
2.43221
2.65025
3.38219
5.04524
1.37519
2.48323
3.73184
4.6535
5.3237
5.81641
6.15709
6.49722
7.48507
9.77334
3.61907
5.26199
7.08023
8.45623
9.47904
10.2394
10.7622
11.2158
12.2777
14.4417
2.31016
2.44878
2.34347
2.10195
1.60404
1.19902
0.862794
0.594135
0.366861
0.138473
1.95808
2.42303
2.2364
2.01495
1.51798
1.12017
0.815661
0.576179
0.362711
0.13834
1.47901
2.39267
2.13333
1.91957
1.43879
1.05111
0.773264
0.558088
0.354057
0.134299
0.854439
2.31067
2.03303
1.81166
1.35997
0.987899
0.735186
0.540685
0.34537
0.130159
0.161407
2.13612
1.92364
1.6893
1.27703
0.928412
0.700004
0.524634
0.338466
0.127381
-0.410019
1.85872
1.78706
1.55055
1.18676
0.871595
0.667585
0.51062
0.333879
0.126715
-0.558434
1.51159
1.60942
1.39227
1.08663
0.816158
0.638474
0.498935
0.331748
0.12822
0.17084
1.18331
1.38134
1.20506
0.972367
0.759689
0.612791
0.489764
0.332396
0.13122
2.42749
1.04764
1.08205
0.964061
0.834678
0.698396
0.589766
0.483356
0.333756
0.134318
6.66267
1.41719
0.72588
0.648665
0.664447
0.629161
0.568063
0.477453
0.329699
0.129386
9.99227
2.59095
0.705311
0.409274
0.486693
0.54763
0.539945
0.460981
0.313645
0.116761
11.7782
2.58499
0.277062
0.064076
0.357427
0.505753
0.507956
0.422121
0.280651
0.096791
12.873
2.78425
0.397152
0.148331
0.462154
0.562796
0.504784
0.389738
0.24719
0.0733179
14.19
4.36691
1.27875
0.721255
0.784226
0.712978
0.541161
0.370751
0.215112
0.0487403
16.3665
7.11297
2.70454
1.5926
1.24373
0.936078
0.618924
0.370858
0.189419
0.0255534
19.2591
9.88324
4.34444
2.56612
1.78192
1.21032
0.732528
0.391968
0.174027
0.00683715
21.7651
11.9475
5.86545
3.5307
2.35357
1.51286
0.870014
0.432289
0.171209
-0.00496696
23.0445
13.1308
7.06302
4.4324
2.93006
1.82824
1.0218
0.488584
0.181595
-0.00825241
22.9842
13.5096
7.92327
5.27987
3.52027
2.16434
1.19314
0.564318
0.208866
-0.00112148
22.4313
13.7344
8.69423
6.14049
4.14584
2.54174
1.40543
0.675748
0.26981
0.0215017
111.795
97.8493
84.0845
71.0792
59.1399
48.3597
38.7783
30.1016
20.0902
4.98472
112.775
99.487
85.9861
72.9796
60.9366
50.056
40.5232
32.2655
23.6008
11.4871
113.307
100.221
87.3408
75.0143
63.4755
52.8836
43.4538
35.2654
27.4795
18.3453
114.519
102.779
90.8196
78.9885
67.6314
57.0358
47.4024
38.8018
31.0949
23.8317
115.096
104.085
93.1644
82.4732
72.1261
62.2015
52.7387
43.8276
36.0088
29.8293
115.446
104.719
94.2119
84.0501
74.3296
65.1002
56.341
48.0996
41.0578
36.0405
115.677
105.118
94.8067
84.8745
75.4318
66.5514
58.2427
50.5753
44.2214
40.1022
115.778
105.256
94.9898
85.1184
75.7643
67.0184
58.9147
51.5214
45.4048
41.4454
115.727
105.041
94.6154
84.5963
75.1171
66.2846
58.1546
50.7853
44.5616
40.1089
115.604
104.657
93.9695
83.692
73.9666
64.9164
56.6217
49.1271
42.6182
37.4235
234.136
229.774
228.208
227.767
227.677
227.929
228.663
230.044
232.196
234.335
225.572
222.554
221.506
221.468
221.694
222.179
223.11
224.718
227.189
229.665
216.058
213.884
213.112
213.237
213.669
214.372
215.498
217.267
219.881
222.479
205.751
203.724
203.021
203.217
203.761
204.591
205.815
207.623
210.192
212.711
194.427
192.519
191.864
192.052
192.584
193.396
194.573
196.267
198.622
200.912
182.06
180.336
179.743
179.885
180.338
181.049
182.085
183.562
185.592
187.557
168.714
167.252
166.758
166.861
167.217
167.79
168.629
169.822
171.45
173.021
154.58
153.464
153.109
153.186
153.442
153.855
154.462
155.324
156.495
157.622
139.971
139.257
139.05
139.1
139.245
139.479
139.83
140.332
141.013
141.67
125.446
125.102
124.962
124.915
124.902
124.924
124.991
125.11
125.288
125.463
246.541
246.778
247.028
247.245
247.543
248.042
248.591
248.926
248.935
248.426
246.626
246.955
247.356
247.66
247.859
248.193
248.614
248.53
247.72
246.705
246.646
247.041
247.485
247.795
247.878
248.008
248.289
247.928
246.543
245.288
246.532
247.033
247.463
247.694
247.628
247.516
247.553
247.13
245.834
244.673
246.042
246.697
247.087
247.195
247.019
246.744
246.57
246.211
245.4
244.608
244.835
245.679
246.017
245.984
245.756
245.474
245.28
245.11
244.869
244.581
242.488
243.586
243.926
243.814
243.607
243.444
243.411
243.544
243.851
244.09
238.603
240.09
240.562
240.498
240.417
240.47
240.708
241.204
242.017
242.756
233.13
235.185
235.896
235.965
236.092
236.44
237.028
237.933
239.238
240.45
227.774
229.641
230.387
230.556
230.864
231.481
232.423
233.775
235.622
237.33
246.961
246.733
246.699
246.498
246.421
246.286
245.912
245.66
245.563
245.709
246.921
246.733
246.695
246.501
246.42
246.292
245.926
245.65
245.381
245.739
246.895
246.728
246.686
246.496
246.411
246.295
245.934
245.605
245.154
245.832
246.876
246.721
246.674
246.484
246.398
246.295
245.932
245.523
244.943
246.025
246.864
246.711
246.658
246.465
246.38
246.286
245.914
245.42
244.812
246.264
246.857
246.699
246.64
246.443
246.358
246.266
245.882
245.328
244.786
246.371
246.854
246.685
246.621
246.418
246.331
246.234
245.847
245.275
244.829
246.035
246.857
246.669
246.6
246.39
246.301
246.196
245.829
245.274
244.847
244.796
246.866
246.648
246.576
246.36
246.268
246.168
245.857
245.344
244.666
242.019
246.883
246.626
246.549
246.327
246.239
246.168
245.955
245.466
243.985
237.302
246.92
246.601
246.51
246.275
246.179
246.099
245.876
245.129
242.445
233.746
247.035
246.584
246.475
246.232
246.128
246.147
246.082
245.335
242.18
231.801
247.28
246.593
246.443
246.159
246.051
246.115
246.089
245.252
241.896
230.542
247.737
246.65
246.417
246.079
245.911
245.846
245.642
244.557
240.5
229.329
248.578
246.718
246.44
245.985
245.698
245.331
244.761
243.244
238.027
227.475
250.408
246.786
246.543
245.91
245.407
244.665
243.664
241.576
235.384
224.924
254.287
247.095
246.694
245.847
245.055
243.95
242.561
239.957
233.314
222.591
262.592
248.233
246.966
245.8
244.684
243.262
241.558
238.665
232.073
221.333
280.152
250.968
247.613
245.831
244.332
242.611
240.649
237.733
231.63
221.363
306.123
255.015
249.117
246.04
244.042
241.991
239.766
236.917
231.359
221.89
236.427
221.076
210.454
201.14
190.979
179.675
167.28
153.908
139.862
125.732
230.036
217.741
208.589
199.869
189.932
178.694
166.348
153.097
139.374
125.9
223.504
214.139
205.961
197.434
187.72
176.879
165.126
152.626
139.608
126.43
218.394
210.886
202.894
194.044
184.201
173.435
161.942
149.998
137.935
126.101
212.997
206.602
198.608
189.513
179.843
169.705
159.154
148.287
137.231
126.139
207.395
202.098
194.838
186.367
177.369
167.914
157.995
147.672
137.052
126.265
203.598
199.158
192.569
184.672
176.139
167.054
157.433
147.358
136.948
126.338
202.315
198.058
191.713
184.101
175.788
166.852
157.333
147.33
136.971
126.402
203.642
198.927
192.478
184.894
176.562
167.546
157.909
147.763
137.248
126.517
206.316
200.881
194.145
186.435
177.939
168.708
158.825
148.422
137.646
126.653
112.193
112.363
112.447
112.299
111.792
111.431
111.246
111.531
111.523
111.274
89.6194
90.0827
90.3013
89.8677
88.4358
87.3494
86.7285
87.3902
87.4278
86.8413
68.7774
69.4051
69.6663
68.9996
67.0603
65.3486
64.3284
64.8771
65.1815
64.6264
50.6607
51.2671
51.4566
50.6335
48.6545
46.4885
45.1585
45.194
45.9324
45.699
36.0164
36.4247
36.4749
35.5935
33.8018
31.4859
29.8422
29.277
30.0846
30.2722
24.9648
25.0682
24.946
24.0229
22.4454
20.4161
18.6254
17.6838
17.9389
18.4389
17.0789
16.9284
16.7135
15.7226
14.3083
12.8051
11.3176
10.2526
9.91291
10.2795
11.5923
11.4152
11.3666
10.3674
9.04869
8.04686
7.15506
6.31205
5.72369
5.64006
7.91866
7.83027
8.12614
7.2585
6.09272
5.50214
5.17293
4.78798
4.30404
3.92456
6.0505
5.84538
6.23064
5.4931
4.62391
4.34757
4.37106
4.36129
4.2086
3.81284
5.28442
5.04741
5.12943
4.43531
3.90298
3.84622
3.99534
4.13764
4.2586
4.31531
4.85864
4.74935
4.47161
3.80519
3.51877
3.60521
3.80765
3.97485
4.09448
4.18076
4.48149
4.4366
4.00459
3.45361
3.33261
3.49436
3.71831
3.89668
4.01454
4.07491
4.02851
3.97355
3.56728
3.21512
3.22391
3.42599
3.63817
3.79511
3.89354
3.93487
3.48253
3.38932
3.11539
2.99448
3.11013
3.32605
3.51561
3.65288
3.73402
3.75775
2.83402
2.73926
2.67829
2.76701
2.96273
3.16662
3.33209
3.45132
3.51812
3.53151
2.11255
2.12782
2.26089
2.49409
2.72898
2.92703
3.08203
3.1955
3.26153
3.27686
1.43973
1.55702
1.80702
2.09886
2.3539
2.56762
2.74286
2.88088
2.96794
2.99591
0.764945
0.900607
1.17449
1.50146
1.80931
2.07924
2.31513
2.49903
2.60372
2.64144
0.0936514
0.0103133
0.243974
0.652904
1.07064
1.45013
1.77247
1.98723
2.09086
2.1539
3.67037
3.71317
3.58232
3.25617
2.60799
1.92413
1.33525
0.863572
0.464565
0.114141
3.74322
3.68754
3.53205
3.2402
2.56858
1.86762
1.28213
0.82586
0.444814
0.114333
3.77006
3.58233
3.42088
3.18635
2.52455
1.81399
1.23127
0.790238
0.427458
0.11579
3.73171
3.40714
3.26901
3.08449
2.46728
1.76156
1.1827
0.756812
0.412472
0.117936
3.62493
3.2001
3.10187
2.93205
2.38499
1.70592
1.13578
0.725574
0.399779
0.120695
3.46261
3.00324
2.94248
2.74937
2.27155
1.64338
1.09048
0.696914
0.389384
0.123934
3.26993
2.83636
2.79975
2.56824
2.13001
1.57058
1.04645
0.671218
0.381243
0.127447
3.0628
2.69899
2.67386
2.41242
1.97571
1.48527
1.0028
0.648598
0.375166
0.130894
2.83923
2.58622
2.5599
2.28829
1.82965
1.38912
0.958257
0.628803
0.370959
0.13399
2.59176
2.50078
2.45133
2.18899
1.70549
1.2902
0.911504
0.611142
0.36829
0.136388
5.43134
3.98552
3.28815
2.90901
2.42993
1.91295
1.41315
0.953505
0.53322
0.137997
4.62759
3.76473
3.32386
2.96967
2.47022
1.92173
1.40153
0.93638
0.516179
0.129656
3.95777
3.67253
3.38418
3.03866
2.5092
1.92939
1.39066
0.921188
0.503076
0.12318
3.63796
3.67275
3.46913
3.11852
2.55005
1.93662
1.3798
0.906849
0.491964
0.118665
3.6232
3.71565
3.57046
3.21048
2.59557
1.94389
1.36758
0.891613
0.481311
0.115983
112.024
88.9576
67.9074
50.1364
36.1223
25.8025
18.6327
13.7575
10.5756
8.76162
111.803
88.3953
67.2011
49.4021
35.32
24.7982
17.329
12.2239
9.08127
7.58127
111.617
87.915
66.5629
48.6615
34.4089
23.6255
15.9087
10.6891
7.54474
6.08696
111.406
87.3413
65.7226
47.5967
33.0842
22.0315
14.1372
8.90476
5.81963
4.44417
111.152
86.6133
64.5933
46.1236
31.2842
19.9639
11.9688
6.93277
4.44978
3.63397
243.765
243.803
243.923
244.094
244.307
244.317
243.813
243.111
243.214
242.99
243.978
244.05
244.163
244.353
244.623
244.798
244.58
243.931
243.673
243.565
244.175
244.223
244.336
244.532
244.817
245.079
245.053
244.546
244.117
244.066
244.417
244.449
244.547
244.721
244.977
245.266
245.372
245.102
244.715
244.647
244.69
244.708
244.789
244.938
245.152
245.416
245.619
245.622
245.456
245.365
244.979
244.992
245.061
245.183
245.355
245.585
245.855
246.097
246.202
246.19
245.25
245.268
245.35
245.485
245.661
245.891
246.191
246.551
246.853
246.975
245.532
245.55
245.647
245.838
246.092
246.391
246.751
247.162
247.525
247.704
245.91
245.94
246.018
246.24
246.61
247.06
247.564
248.08
248.422
248.384
246.303
246.412
246.513
246.705
247.104
247.671
248.269
248.817
249.167
248.962
136.505
136.246
136.223
136.486
136.268
135.87
135.329
135.157
135.228
135.393
160.955
160.358
160.38
161.017
160.364
159.242
157.778
157.322
157.527
157.985
183.198
182.632
182.919
183.442
182.392
180.646
178.678
177.989
178.238
178.86
202.164
201.918
202.636
202.647
201.289
199.092
197.084
196.24
196.418
197.02
217.634
217.809
218.593
218.005
216.337
213.993
212.172
211.269
211.308
211.713
229.514
229.995
230.225
229.266
227.458
225.402
223.792
222.846
222.712
222.813
237.713
238.049
237.686
236.612
235.12
233.592
232.141
231.125
230.899
230.748
242.367
242.247
241.637
240.804
239.925
238.908
237.555
236.529
236.47
236.292
244.091
243.672
243.178
242.82
242.523
241.938
240.749
239.853
240.138
240.053
244.23
243.804
243.651
243.672
243.744
243.502
242.629
241.868
242.252
242.062
254.853
246.885
247.51
246.298
246.049
245.542
245.001
244.635
244.503
244.54
252.02
246.822
247.324
246.278
246.101
245.605
245.018
244.669
244.581
244.512
250.098
246.828
247.102
246.276
246.157
245.672
245.061
244.764
244.75
244.544
248.913
246.857
246.89
246.296
246.214
245.745
245.143
244.918
244.978
244.65
248.228
246.859
246.754
246.335
246.27
245.827
245.272
245.109
245.218
244.819
247.78
246.816
246.718
246.384
246.322
245.919
245.438
245.294
245.422
245.023
247.466
246.762
246.716
246.426
246.366
246.021
245.611
245.443
245.572
245.229
247.251
246.734
246.709
246.457
246.396
246.122
245.752
245.548
245.667
245.418
247.111
246.728
246.703
246.478
246.408
246.208
245.843
245.611
245.704
245.574
247.02
246.731
246.701
246.49
246.417
246.263
245.89
245.646
245.672
245.671
317.357
253.768
249.919
246.978
246.153
245.585
245.258
244.934
244.238
242.72
295.625
251.379
248.798
246.747
246.071
245.556
245.214
244.903
244.45
243.521
277.184
249.223
248.201
246.574
246.03
245.537
245.164
244.845
244.532
244.193
265.781
247.878
247.877
246.445
246.012
245.525
245.105
244.763
244.523
244.522
259.009
247.148
247.654
246.338
246.01
245.517
245.036
244.66
244.477
244.554
239.298
237.448
234.233
229.326
222.124
211.77
197.721
179.917
158.841
135.761
240.48
238.945
235.77
230.634
223.133
212.576
198.458
180.625
159.405
135.982
241.993
240.496
237.315
232.062
224.311
213.492
199.201
181.265
159.886
136.169
243.656
242.25
239.122
233.848
225.913
214.821
200.268
182.106
160.459
136.378
244.444
243.607
241.105
236.034
227.992
216.626
201.743
183.236
161.187
136.631
)
;

boundaryField
{
    left
    {
        type            zeroGradient;
    }
    right
    {
        type            fixedValue;
        value           uniform 0;
    }
    down
    {
        type            zeroGradient;
    }
    up
    {
        type            zeroGradient;
    }
    cylinder
    {
        type            zeroGradient;
    }
    defaultFaces
    {
        type            empty;
    }
}


// ************************************************************************* //
