/*--------------------------------*- C++ -*----------------------------------*\
  =========                 |
  \\      /  F ield         | OpenFOAM: The Open Source CFD Toolbox
   \\    /   O peration     | Website:  https://openfoam.org
    \\  /    A nd           | Version:  13
     \\/     M anipulation  |
\*---------------------------------------------------------------------------*/
FoamFile
{
    format      ascii;
    class       volVectorField;
    location    "0.5";
    object      vorticity;
}
// * * * * * * * * * * * * * * * * * * * * * * * * * * * * * * * * * * * * * //

dimensions      [0 0 -1 0 0 0 0];

internalField   nonuniform List<vector> 
1800
(
(7.72571e-18 1.57115e-17 -6.52479)
(-2.34331e-18 1.23546e-17 -6.30225)
(4.36955e-16 6.39919e-16 -6.20483)
(-2.597e-16 -4.25803e-16 -6.08103)
(-4.72203e-16 -7.55518e-16 -5.94037)
(-1.82718e-16 -3.0974e-16 -5.78288)
(9.2021e-17 1.59409e-16 -5.60601)
(3.05426e-16 7.9059e-16 -5.41288)
(1.37801e-16 3.07792e-16 -5.20017)
(1.06406e-16 2.01869e-16 -4.99436)
(1.86604e-16 2.67869e-16 -7.40015)
(6.80809e-16 1.02959e-15 -7.03628)
(9.03721e-18 -7.86221e-18 -6.84705)
(1.0351e-16 1.34373e-16 -6.64202)
(-5.29693e-18 3.41354e-17 -6.42627)
(-4.17208e-16 -8.78347e-16 -6.19821)
(3.43211e-16 9.06601e-16 -5.95635)
(-1.63687e-16 -4.23721e-16 -5.70502)
(-2.75664e-16 -7.9207e-16 -5.44698)
(1.50309e-16 3.37532e-16 -5.22578)
(-1.95667e-16 -3.14939e-16 -8.29601)
(-1.66672e-16 -3.08056e-16 -7.767)
(-2.92246e-16 -5.96996e-16 -7.46988)
(1.2046e-16 2.95062e-16 -7.17226)
(4.57288e-16 9.95798e-16 -6.87613)
(-1.01199e-16 -2.6767e-16 -6.57904)
(-1.74819e-16 -4.92358e-16 -6.28025)
(7.12426e-18 -5.60886e-17 -5.98379)
(2.5938e-18 7.19825e-18 -5.69544)
(6.049e-18 -2.68312e-17 -5.45654)
(1.88679e-16 3.6001e-16 -9.13898)
(1.64838e-16 3.46804e-16 -8.45981)
(1.40638e-16 3.2035e-16 -8.06566)
(-1.01347e-19 2.49593e-17 -7.68683)
(-1.13525e-16 -3.35692e-16 -7.3229)
(-8.92912e-18 3.63744e-18 -6.97014)
(7.49259e-18 2.08316e-17 -6.62637)
(-1.37321e-16 -4.75988e-16 -6.29322)
(-1.15836e-16 -4.49122e-16 -5.97221)
(2.76953e-17 2.09226e-16 -5.70751)
(-1.85366e-16 -4.04594e-16 -9.88914)
(-1.5164e-16 -3.74596e-16 -9.088)
(1.31975e-17 -1.17998e-17 -8.61511)
(9.39617e-18 -2.86312e-17 -8.17025)
(2.72411e-16 8.99425e-16 -7.75132)
(7.19181e-18 -6.3608e-18 -7.35375)
(-1.86906e-16 -8.55081e-16 -6.97362)
(-7.98228e-17 -2.00046e-16 -6.60971)
(-9.84519e-18 2.5939e-17 -6.25919)
(3.56598e-17 2.31852e-16 -5.96897)
(2.3705e-17 1.37967e-17 -10.5334)
(-3.72782e-16 -1.24235e-15 -9.63492)
(-3.73044e-16 -1.10927e-15 -9.09917)
(1.75219e-16 7.60952e-16 -8.60063)
(1.78135e-16 6.5543e-16 -8.13675)
(-2.30097e-16 -1.22135e-15 -7.70205)
(1.58563e-16 8.35621e-16 -7.29062)
(1.4828e-16 1.0976e-15 -6.89945)
(-1.28797e-16 -7.33306e-16 -6.52217)
(3.25055e-17 -2.98442e-17 -6.20734)
(-5.40481e-16 -1.97916e-15 -11.063)
(3.99714e-16 1.71812e-15 -10.0881)
(7.53269e-16 3.26624e-15 -9.50265)
(-2.085e-16 -1.1364e-15 -8.9616)
(-3.18825e-16 -1.68713e-15 -8.46173)
(-1.3517e-17 4.337e-18 -7.99674)
(3.34426e-16 2.33259e-15 -7.56034)
(2.76101e-17 -4.16886e-17 -7.14788)
(-2.85776e-16 -2.29847e-15 -6.74979)
(-8.51045e-17 -6.0147e-16 -6.41452)
(1.691e-16 9.99828e-16 -11.4696)
(-1.85349e-16 -9.09619e-16 -10.4375)
(-3.44815e-16 -2.5457e-15 -9.81501)
(3.93123e-17 -9.82947e-18 -9.24197)
(1.27463e-16 1.08813e-15 -8.71495)
(2.75848e-17 3.57706e-16 -8.22805)
(4.84762e-18 3.19935e-18 -7.77436)
(-8.17843e-17 -8.53133e-16 -7.34846)
(-4.00128e-17 2.51025e-17 -6.93841)
(4.90507e-17 7.57649e-16 -6.5903)
(-3.16198e-18 1.99846e-17 -11.7469)
(-2.30624e-16 -2.36372e-15 -10.6765)
(-2.32082e-16 -2.16499e-15 -10.029)
(1.01696e-16 1.63764e-15 -9.43422)
(2.14469e-17 1.1216e-15 -8.88936)
(-1.43664e-17 -3.50599e-16 -8.38879)
(1.40803e-16 1.52405e-15 -7.92591)
(-2.83554e-18 1.11078e-15 -7.49511)
(-1.10367e-16 -1.35554e-15 -7.08369)
(-1.14275e-16 -1.18027e-15 -6.73311)
(-1.44735e-17 -1.05341e-15 -11.8937)
(-4.37868e-17 -1.46843e-15 -10.8026)
(-2.60109e-17 -4.07954e-16 -10.141)
(7.4396e-17 2.38089e-15 -9.53433)
(-4.74168e-17 -4.79765e-17 -8.97987)
(-1.13905e-16 -3.38034e-15 -8.47248)
(2.41224e-17 1.84281e-15 -8.00654)
(1.30465e-16 1.13869e-15 -7.57599)
(7.94736e-18 -3.62626e-16 -7.16918)
(1.95359e-17 8.76375e-16 -6.82204)
(-1.9754e-16 -3.56577e-19 -1.13553)
(-1.73711e-16 -4.82438e-17 -1.26693)
(2.68315e-18 6.32416e-19 -1.35744)
(-5.88727e-18 -1.43446e-18 -1.34395)
(1.27623e-18 6.57451e-18 -1.22039)
(1.21246e-16 9.90254e-17 -1.09689)
(5.9807e-17 3.3428e-17 -1.06585)
(-1.33575e-16 -1.18746e-16 -1.10417)
(4.23102e-18 3.73292e-18 -1.13835)
(-1.46401e-17 -7.02433e-18 -1.15276)
(-2.54596e-16 -2.4182e-17 -1.37418)
(-1.65579e-16 -4.63931e-17 -1.83117)
(1.68932e-16 6.41213e-17 -1.97932)
(7.01031e-17 3.69511e-17 -1.71837)
(-2.97253e-17 -1.20423e-17 -1.46125)
(1.35197e-16 1.03199e-16 -1.38179)
(-1.5187e-16 -1.36857e-16 -1.43045)
(-1.70226e-16 -1.47839e-16 -1.48072)
(1.2703e-16 1.38837e-16 -1.46843)
(-3.44372e-17 -4.56499e-17 -1.44767)
(-2.36929e-16 -4.47414e-17 -1.76597)
(-3.8022e-16 -1.30473e-16 -2.29012)
(-8.94823e-17 -4.95328e-17 -2.35488)
(-3.73956e-16 -1.99944e-16 -2.03387)
(-6.79554e-17 -3.66855e-17 -1.84696)
(5.22303e-16 4.02826e-16 -1.85234)
(-1.38091e-16 -1.30102e-16 -1.89422)
(-2.03752e-16 -1.96044e-16 -1.86396)
(1.96792e-16 2.26015e-16 -1.78579)
(9.62735e-17 1.13154e-16 -1.74642)
(-6.09243e-18 -5.09754e-18 -2.25876)
(1.06756e-16 4.45238e-17 -2.63203)
(8.73758e-19 5.36289e-18 -2.64799)
(-1.96514e-17 -2.05625e-17 -2.45311)
(2.02285e-16 1.5362e-16 -2.36647)
(-2.17859e-16 -1.77722e-16 -2.36629)
(-1.52924e-16 -1.39786e-16 -2.32023)
(1.51097e-16 1.62013e-16 -2.21592)
(1.2901e-17 1.13829e-17 -2.11411)
(3.89487e-18 4.74879e-18 -2.06824)
(2.11593e-19 3.15269e-20 -2.78063)
(-7.36134e-19 1.02642e-17 -2.99428)
(-6.82919e-16 -4.04331e-16 -3.02138)
(3.11732e-16 1.99565e-16 -2.93517)
(4.67165e-16 3.46637e-16 -2.88117)
(-2.77004e-16 -2.46779e-16 -2.8285)
(9.31212e-17 9.68357e-17 -2.72391)
(-2.80484e-17 -4.16806e-17 -2.59696)
(-3.19402e-18 -1.05644e-18 -2.47968)
(5.65996e-18 8.802e-18 -2.41288)
(2.75655e-16 1.37878e-16 -3.32263)
(-3.88946e-16 -2.33639e-16 -3.42825)
(-2.6321e-16 -1.88647e-16 -3.46213)
(4.75457e-17 5.88172e-17 -3.41875)
(-2.39476e-17 -4.30453e-17 -3.36017)
(2.99267e-16 2.90346e-16 -3.27423)
(-5.0376e-16 -5.41531e-16 -3.1504)
(1.16273e-17 3.71898e-17 -3.01034)
(4.12833e-16 5.86254e-16 -2.86081)
(1.48046e-17 -5.03543e-18 -2.7598)
(-1.52532e-16 -9.1508e-17 -3.89321)
(-5.75769e-16 -4.09585e-16 -3.91961)
(1.53862e-16 1.39207e-16 -3.94013)
(1.87307e-17 2.0353e-17 -3.89958)
(-9.69545e-17 -7.04449e-17 -3.82828)
(3.17869e-16 3.3627e-16 -3.72529)
(2.61059e-16 2.96676e-16 -3.59088)
(3.2445e-16 4.24568e-16 -3.43351)
(-2.04181e-16 -3.36761e-16 -3.24733)
(-2.51486e-16 -4.6682e-16 -3.10974)
(-2.46694e-18 -3.23201e-18 -4.49376)
(2.85117e-16 2.42841e-16 -4.45005)
(1.65744e-16 1.79576e-16 -4.44442)
(-1.0681e-17 -3.47699e-17 -4.38911)
(-1.13439e-16 -9.99e-17 -4.30239)
(-5.37643e-16 -6.42544e-16 -4.18638)
(-4.78742e-16 -6.3948e-16 -4.0422)
(2.49997e-16 3.52119e-16 -3.87106)
(1.47329e-16 2.28036e-16 -3.65819)
(-1.637e-16 -3.42377e-16 -3.4905)
(5.42753e-16 4.53692e-16 -5.11754)
(9.61156e-16 8.91692e-16 -5.0119)
(-7.57947e-16 -8.06724e-16 -4.97843)
(-5.63646e-16 -6.35705e-16 -4.90501)
(3.73462e-16 4.37605e-16 -4.80503)
(-5.55698e-16 -7.67484e-16 -4.6809)
(3.34101e-18 7.36928e-17 -4.53386)
(7.07205e-16 1.17155e-15 -4.36249)
(1.56863e-16 2.56918e-16 -4.14339)
(-1.14412e-16 -2.29391e-16 -3.95625)
(3.71376e-16 3.72137e-16 -5.76657)
(6.94057e-16 7.4796e-16 -5.61756)
(1.52269e-16 1.37176e-16 -5.56363)
(-2.82794e-16 -3.27326e-16 -5.47674)
(-3.7518e-16 -5.68182e-16 -5.36912)
(3.47416e-16 5.4614e-16 -5.24335)
(3.13539e-16 5.26656e-16 -5.09895)
(-1.81742e-16 -3.41723e-16 -4.93061)
(1.43595e-16 2.72104e-16 -4.71474)
(1.10742e-16 3.04065e-16 -4.52389)
(2.05295e-16 1.13751e-16 -1.09641)
(-3.75934e-16 -2.65298e-16 -0.540756)
(-7.08592e-17 -3.53651e-17 -0.223776)
(6.83801e-17 6.7888e-17 0.029616)
(-4.82785e-17 -3.37295e-17 0.1445)
(-5.52292e-17 -3.28122e-17 0.139702)
(-4.99669e-17 -5.52976e-17 -0.0256457)
(2.06098e-18 -2.49323e-18 -0.311817)
(2.77326e-17 2.44283e-16 -0.50573)
(-2.03301e-19 1.6178e-19 -0.608998)
(2.25876e-16 2.21376e-16 -1.33335)
(1.06969e-16 6.26178e-17 -0.657079)
(-1.71061e-18 6.93961e-18 -0.282551)
(-7.62061e-17 -5.63594e-17 -0.000635059)
(-1.90181e-16 -1.23585e-16 0.151529)
(1.79171e-18 -8.02362e-19 0.178858)
(-4.79271e-17 -3.20218e-17 0.0846782)
(6.32321e-18 1.31105e-17 -0.107904)
(-7.39701e-19 1.12563e-19 -0.260779)
(-1.32015e-17 -9.63148e-17 -0.403455)
(-8.58278e-17 -7.26812e-17 -1.58982)
(-7.52234e-17 -8.88954e-17 -0.799688)
(5.8122e-17 6.76725e-17 -0.345831)
(1.53887e-17 -1.17098e-17 -0.0386478)
(1.64663e-17 -4.70474e-18 0.1495)
(-1.32585e-17 8.33399e-18 0.201722)
(1.14312e-18 2.26648e-20 0.145361)
(4.47958e-19 1.06956e-19 0.0428762)
(-2.54141e-17 -1.36121e-17 -0.0394061)
(3.27605e-19 -5.08379e-20 -0.114564)
(-4.16662e-17 -7.23489e-17 -1.85346)
(1.41553e-16 1.70014e-16 -0.963512)
(-1.11781e-17 1.27718e-17 -0.414187)
(4.13449e-19 -8.4228e-19 -0.0792479)
(1.30833e-16 1.10032e-16 0.141555)
(-3.43173e-17 -1.6507e-17 0.219231)
(2.81592e-19 -4.01346e-19 0.182658)
(5.20551e-17 -1.10641e-18 0.111851)
(1.10126e-19 1.59967e-19 0.0370022)
(1.51647e-17 -4.90977e-18 0.0241076)
(2.86474e-17 7.02006e-17 -2.10181)
(1.06025e-16 2.20749e-16 -1.13359)
(6.9081e-18 -5.97841e-18 -0.488584)
(2.82651e-18 -2.91219e-20 -0.118648)
(3.97477e-17 3.29833e-17 0.130154)
(6.8755e-17 3.19751e-17 0.236851)
(-9.51435e-18 6.43104e-18 0.213778)
(-3.62834e-18 1.10296e-18 0.137277)
(-1.26713e-17 1.18988e-18 0.0520833)
(-3.23958e-19 6.95323e-19 0.0286557)
(-3.49206e-16 -7.70371e-16 -2.31985)
(-1.60023e-16 -4.1512e-16 -1.29255)
(-3.17399e-18 5.76463e-19 -0.566663)
(7.44625e-17 1.36314e-16 -0.155021)
(-6.93203e-17 -5.3875e-17 0.117146)
(2.63343e-17 1.50888e-17 0.25585)
(7.48377e-17 9.85436e-18 0.244721)
(-7.34671e-17 9.44593e-18 0.149613)
(4.9841e-19 -4.7766e-19 0.0587209)
(-2.58365e-17 3.81853e-18 0.0195179)
(-1.07855e-16 -2.76208e-16 -2.50918)
(5.18411e-17 1.66937e-16 -1.42736)
(-1.2016e-17 5.0864e-18 -0.639118)
(-5.15163e-18 -2.9246e-18 -0.18416)
(-4.12384e-17 -8.58084e-17 0.107323)
(-1.15991e-17 4.18206e-18 0.277252)
(-2.7179e-17 -1.21431e-18 0.278368)
(6.49048e-18 -3.24927e-18 0.159846)
(1.29818e-17 -1.48574e-18 0.0643762)
(3.64877e-19 -5.24111e-19 0.0300863)
(1.54912e-16 4.38109e-16 -2.68656)
(4.22889e-17 1.76028e-16 -1.53891)
(2.24571e-18 4.99695e-19 -0.701912)
(1.5707e-17 9.67847e-18 -0.207531)
(3.15652e-17 6.7623e-17 0.101424)
(-8.7928e-18 7.5496e-19 0.300884)
(-6.24883e-17 8.17046e-18 0.317897)
(2.38049e-17 -5.8324e-18 0.176912)
(-7.2056e-19 2.09242e-19 0.0874485)
(-9.6741e-18 3.46818e-17 0.203049)
(-1.12715e-16 -4.82049e-16 -2.86519)
(-7.70887e-17 -3.91575e-16 -1.61299)
(2.40088e-17 1.4883e-16 -0.731367)
(-1.46282e-17 -7.42495e-18 -0.207021)
(-2.69767e-18 -2.03395e-18 0.114676)
(-4.15285e-17 -1.98196e-17 0.33811)
(2.39433e-17 -1.09282e-17 0.372469)
(-9.17216e-19 5.20082e-19 0.224822)
(1.83883e-18 -1.56857e-18 0.309857)
(7.38161e-18 -1.23731e-16 0.504488)
(-1.17222e-17 2.80469e-16 -3.00402)
(-6.68525e-17 -3.38973e-16 -1.64525)
(8.00615e-18 -1.2759e-16 -0.725133)
(-2.48648e-17 -1.49751e-16 -0.181839)
(-1.61647e-17 -7.67208e-17 0.141289)
(-1.26749e-17 -9.67405e-18 0.371244)
(-6.25823e-18 9.0476e-18 0.438181)
(1.84596e-19 -8.86216e-20 0.471163)
(-2.6166e-18 7.90426e-17 0.642239)
(-6.01724e-19 -2.15265e-16 0.684571)
(2.42458e-17 9.06912e-16 -2.67706)
(-2.17429e-17 3.71424e-16 -1.42718)
(7.74448e-18 -3.05594e-16 -0.546057)
(4.33375e-18 2.42425e-17 -0.0373661)
(-3.97625e-18 1.6266e-17 0.287088)
(-3.58617e-18 5.57973e-18 0.544493)
(-1.43806e-17 2.89794e-17 0.718062)
(-1.55186e-18 -6.81055e-17 0.843911)
(4.56408e-18 5.85993e-17 0.838871)
(2.33383e-18 1.20775e-16 0.780357)
(5.11074e-17 -1.22285e-16 -2.324)
(-1.5916e-16 4.51081e-16 -1.07009)
(-1.83268e-16 2.16417e-16 -0.185978)
(2.7576e-17 -1.04433e-17 0.280078)
(-1.30363e-16 -5.72786e-17 0.597212)
(-8.78431e-17 -1.48934e-16 0.810526)
(-4.54366e-17 -2.33603e-16 1.00014)
(3.2277e-18 4.52793e-17 1.01103)
(-1.40928e-17 -2.68399e-16 0.929222)
(-3.54187e-18 -1.36986e-16 0.872829)
(-1.25285e-17 -9.86898e-17 -1.45603)
(5.32436e-18 -8.46338e-18 -0.277851)
(1.49649e-17 1.79305e-17 0.365525)
(3.07686e-19 -1.15838e-19 0.707009)
(-5.61817e-18 -1.10615e-17 0.877338)
(1.59084e-18 -1.22937e-20 0.951809)
(7.29885e-18 5.07467e-18 1.03004)
(1.02522e-19 -2.83117e-20 1.03978)
(-1.43931e-18 -3.26295e-19 0.990563)
(1.9521e-19 3.37081e-19 0.933338)
(5.30079e-18 -2.42341e-18 -0.293277)
(1.67666e-16 5.40219e-17 0.679902)
(1.42791e-16 8.96744e-17 0.94351)
(2.87674e-33 1.21562e-18 1.09055)
(8.18447e-17 1.24618e-16 1.07782)
(5.61484e-17 1.30549e-16 1.04056)
(3.01255e-17 1.36486e-16 1.05127)
(3.34026e-31 2.70162e-19 1.06577)
(7.03878e-18 1.52792e-16 1.029)
(-2.79122e-19 -4.08169e-19 0.979831)
(5.27732e-18 -1.07457e-16 0.958696)
(-7.81488e-18 1.3345e-17 1.42576)
(-6.03056e-18 -1.83144e-19 1.44568)
(0 -0 1.37864)
(-2.80239e-18 7.7587e-34 1.24774)
(-1.46199e-18 1.52033e-20 1.13443)
(6.59153e-19 1.65679e-18 1.08466)
(-2.35664e-19 -2.44351e-20 1.07785)
(-2.27171e-19 -4.43268e-19 1.05413)
(9.24446e-20 6.15454e-21 1.01355)
(4.80521e-17 4.64532e-17 2.03631)
(4.12629e-18 4.07313e-18 2.00327)
(3.61534e-18 -2.42311e-32 1.86511)
(0 -0 1.62378)
(2.22441e-18 -2.79057e-32 1.40344)
(1.36215e-18 -4.07416e-20 1.22875)
(-5.26852e-19 -2.99939e-18 1.12954)
(-1.76931e-17 -1.64218e-16 1.0953)
(-3.69291e-19 -6.11453e-19 1.07254)
(-4.96908e-18 -1.6549e-16 1.03873)
(-1.30506e-17 -3.03328e-18 2.90088)
(1.02968e-16 2.50216e-16 2.5275)
(8.15818e-17 2.15812e-16 2.20855)
(6.87309e-35 5.23776e-19 1.83923)
(4.21418e-17 1.51117e-16 1.5417)
(2.91841e-17 1.32075e-16 1.32062)
(1.82581e-17 1.16653e-16 1.18337)
(1.1506e-17 1.1383e-16 1.11984)
(-1.139e-17 -2.24352e-16 1.08942)
(2.85354e-18 1.14935e-16 1.05773)
(1.1992e-17 1.06261e-17 3.65566)
(-2.96241e-18 1.15865e-17 2.99876)
(-7.07837e-18 -9.39173e-18 2.48791)
(-2.3923e-32 3.14856e-19 2.01763)
(-3.52587e-18 4.63561e-18 1.66056)
(-2.7919e-18 -1.57525e-19 1.408)
(-1.89986e-18 -2.2464e-18 1.24384)
(-1.70105e-18 -3.77908e-18 1.15384)
(3.57001e-19 -2.40242e-19 1.10961)
(3.98803e-20 3.38307e-19 1.07371)
(2.01845e-18 -5.78442e-17 4.33891)
(-5.75098e-17 -3.48756e-16 3.39136)
(-4.45519e-17 -2.81249e-16 2.70492)
(7.01453e-34 6.42049e-20 2.15539)
(-2.20509e-17 -1.83109e-16 1.759)
(-1.5825e-17 -1.56196e-16 1.48672)
(-1.11726e-17 -1.38394e-16 1.30365)
(-7.49698e-18 -1.25276e-16 1.1909)
(7.97739e-18 2.37131e-16 1.13102)
(-2.38019e-18 -1.19121e-16 1.08671)
(-7.52235e-18 3.12563e-19 5.07151)
(4.11428e-19 -1.37876e-33 3.73269)
(1.29915e-18 -0 2.88277)
(0 -0 2.26891)
(1.41282e-18 -1.18161e-32 1.85482)
(9.53164e-19 -7.08512e-20 1.57525)
(1.04247e-19 -4.81253e-19 1.37823)
(2.90083e-19 5.60771e-20 1.24334)
(-3.67597e-19 -1.29138e-19 1.16299)
(-2.91365e-20 -9.80128e-20 1.10279)
(3.01998e-17 -8.60465e-16 -6.40567)
(6.3587e-18 -6.0751e-17 -6.2119)
(2.06905e-17 1.07805e-16 -5.99213)
(-4.5817e-19 3.53645e-16 -5.78744)
(4.48255e-17 5.80585e-17 -5.59214)
(4.11615e-17 1.45885e-16 -5.39332)
(2.26187e-17 6.18795e-16 -5.18139)
(-4.05929e-17 -1.12403e-16 -4.96448)
(1.05846e-18 -2.54315e-18 -4.744)
(-5.2013e-17 -2.2885e-16 -4.48549)
(8.43879e-17 -1.80183e-16 -3.61075)
(1.45589e-17 2.61882e-16 -3.63628)
(-8.31149e-17 6.5305e-17 -3.68562)
(-3.95209e-17 7.64364e-17 -3.73575)
(5.11195e-17 -1.39519e-16 -3.76929)
(1.11597e-16 -2.01002e-16 -3.78074)
(-1.30942e-16 4.13234e-16 -3.76408)
(-5.76887e-17 4.9622e-17 -3.71266)
(2.62951e-17 -7.54224e-17 -3.65305)
(-8.98262e-18 -9.32271e-17 -3.50312)
(-5.86435e-17 -7.38764e-17 -0.0203894)
(5.9792e-17 5.15766e-17 -0.319314)
(5.83546e-17 7.76661e-17 -0.669534)
(-1.02313e-16 3.85661e-17 -0.991984)
(-1.64886e-16 4.53651e-17 -1.28051)
(2.81563e-16 -3.1612e-16 -1.53917)
(1.29084e-16 -6.60145e-17 -1.76871)
(-9.85316e-17 1.96386e-16 -1.9758)
(-6.97462e-17 1.34895e-16 -2.20029)
(-5.91906e-17 1.71204e-16 -2.29787)
(-1.10353e-16 -8.06101e-17 1.29762)
(-9.40744e-17 7.76379e-17 1.25623)
(1.11759e-16 -2.09713e-16 1.15506)
(3.25817e-17 -1.08938e-17 0.989887)
(-1.92441e-16 7.03314e-17 0.761306)
(-7.6141e-17 -1.34504e-16 0.486449)
(1.49791e-16 3.54585e-17 0.18457)
(-1.05753e-17 3.62139e-17 -0.139369)
(5.15019e-17 -4.44987e-17 -0.489471)
(2.06363e-17 -4.7518e-19 -0.703125)
(-2.76263e-18 1.51664e-16 2.30901)
(8.39427e-17 -1.81119e-17 2.26188)
(-1.6035e-17 -1.29385e-16 2.17555)
(2.96597e-17 4.77113e-16 2.05909)
(1.57709e-17 1.19535e-17 1.91913)
(-1.46622e-16 -2.85564e-16 1.75703)
(1.12804e-17 3.33588e-17 1.56945)
(-6.31124e-17 -1.24069e-16 1.35149)
(-3.70646e-17 1.44488e-16 1.1004)
(-1.62261e-17 7.07624e-17 0.904309)
(-2.99417e-17 -1.95743e-16 3.37507)
(-3.02384e-17 -1.92892e-16 3.334)
(-2.88382e-17 1.82122e-16 3.25161)
(4.22946e-17 2.36572e-16 3.134)
(1.72751e-16 1.95998e-16 2.98944)
(-3.03864e-17 -1.26065e-16 2.82682)
(-2.1584e-18 2.63857e-17 2.65468)
(-5.93065e-17 3.28793e-17 2.47897)
(-9.62159e-17 1.02346e-17 2.29791)
(-4.08769e-17 -1.5531e-16 2.1384)
(7.80187e-18 -2.31592e-16 4.4192)
(-3.05258e-17 -3.49225e-16 4.37767)
(-3.52796e-17 -9.88844e-17 4.29398)
(-1.079e-16 -5.4149e-16 4.17308)
(2.08656e-18 -1.09485e-16 4.02239)
(2.66687e-17 7.87015e-17 3.85113)
(9.31059e-18 1.65532e-16 3.66923)
(8.15774e-17 1.05803e-16 3.48438)
(-7.83657e-17 -2.62582e-16 3.29678)
(-5.27434e-17 -9.0052e-17 3.11951)
(-8.00021e-19 1.44423e-16 5.47471)
(1.24675e-17 5.57764e-16 5.42942)
(2.99068e-17 1.37808e-16 5.33909)
(-9.46368e-18 -2.54556e-16 5.20832)
(-3.78148e-17 -2.12026e-16 5.04392)
(3.62491e-18 2.05969e-16 4.85444)
(-3.26054e-17 -1.97231e-16 4.64888)
(5.27496e-17 1.32106e-16 4.43393)
(-3.92891e-17 -1.1231e-16 4.2124)
(3.01867e-17 2.34973e-16 4.00064)
(-1.52852e-18 4.84653e-16 6.55181)
(1.48065e-17 4.95122e-16 6.50033)
(1.5095e-17 1.5352e-16 6.39892)
(1.63368e-17 3.09773e-16 6.2518)
(-1.22329e-17 -1.3987e-16 6.06518)
(3.63243e-17 3.6164e-16 5.84681)
(-1.98958e-17 -2.15658e-16 5.60485)
(6.37676e-18 9.79797e-17 5.34647)
(1.38666e-17 1.79412e-16 5.07981)
(-9.97244e-18 7.76055e-18 4.82802)
(-1.25615e-19 3.70156e-16 7.86073)
(-4.40192e-18 -1.68903e-16 7.79919)
(-1.33362e-17 -4.00944e-18 7.67961)
(-6.84473e-18 1.70304e-16 7.5054)
(-2.15137e-19 -4.64765e-16 7.28179)
(9.28646e-18 1.3927e-16 7.01581)
(1.80756e-18 1.1917e-16 6.71469)
(-9.25145e-18 -2.12138e-16 6.38446)
(1.22513e-17 2.89023e-16 6.04418)
(-2.66349e-18 -3.29893e-16 5.74504)
(-4.93032e-17 1.05477e-16 -5.02963)
(8.73636e-19 1.33106e-17 -5.24846)
(-2.34102e-16 5.99653e-16 -5.47511)
(1.86856e-18 9.14725e-17 -5.68078)
(5.32671e-16 -1.07425e-15 -5.87106)
(-9.96507e-20 -5.0529e-17 -6.04472)
(-4.09356e-16 6.34176e-16 -6.20544)
(1.61873e-16 -2.69226e-16 -6.35439)
(-3.70027e-16 4.56349e-16 -6.48308)
(-7.89452e-16 9.22351e-16 -6.75504)
(-1.65439e-17 -1.14559e-17 -5.23954)
(2.15663e-16 -5.9931e-16 -5.47514)
(4.93787e-16 -1.27433e-15 -5.74757)
(-3.53765e-16 8.92098e-16 -6.01345)
(-8.20108e-16 1.86571e-15 -6.27077)
(-8.91232e-18 3.78679e-18 -6.5166)
(-3.03475e-17 2.36823e-17 -6.75352)
(1.68088e-16 -2.03849e-16 -6.98412)
(9.11158e-16 -1.37544e-15 -7.20444)
(6.13704e-16 -8.30303e-16 -7.61637)
(8.3165e-18 2.22574e-17 -5.45534)
(9.8774e-19 4.24763e-18 -5.70679)
(-1.40915e-19 -2.61622e-17 -6.00865)
(3.36544e-16 -1.02757e-15 -6.31973)
(-4.70254e-18 2.7384e-18 -6.63492)
(-6.71593e-16 1.55566e-15 -6.95091)
(5.27691e-16 -1.13507e-15 -7.26942)
(2.80545e-16 -5.55207e-16 -7.59343)
(-6.76215e-16 1.18809e-15 -7.92194)
(7.65211e-18 -1.84289e-17 -8.49818)
(-5.9771e-17 3.61847e-16 -5.69702)
(-3.82734e-17 2.00678e-16 -5.97165)
(6.59763e-17 -2.28865e-16 -6.3046)
(-8.3965e-17 2.70901e-16 -6.65138)
(-3.82745e-16 1.01411e-15 -7.01102)
(-3.35325e-16 9.08693e-16 -7.38277)
(3.78964e-16 -8.60945e-16 -7.76933)
(4.25883e-16 -1.03335e-15 -8.17473)
(-1.30352e-17 1.02506e-18 -8.60003)
(3.0787e-19 -5.06401e-19 -9.32518)
(-1.88096e-16 5.57962e-16 -5.95306)
(-3.3146e-16 1.55604e-15 -6.25119)
(-1.33183e-16 4.85009e-16 -6.61202)
(-6.7435e-18 -1.2881e-17 -6.98803)
(-3.40188e-18 -1.73648e-18 -7.38288)
(1.10066e-17 4.00479e-17 -7.79826)
(1.28614e-17 3.88687e-17 -8.23862)
(2.73478e-17 1.56933e-17 -8.70908)
(-1.3054e-17 -1.31811e-17 -9.21163)
(-8.83233e-18 6.88582e-19 -10.056)
(1.67283e-16 -9.00366e-16 -6.18945)
(-2.95683e-18 -2.24199e-17 -6.51044)
(-2.10575e-16 9.913e-16 -6.89612)
(-2.81891e-18 -3.86649e-19 -7.29757)
(-1.60588e-19 4.58256e-19 -7.72197)
(-3.38125e-19 2.29244e-18 -8.17283)
(3.23459e-16 -1.09114e-15 -8.6559)
(-4.95498e-16 1.58039e-15 -9.17736)
(-5.43592e-16 1.65758e-15 -9.73997)
(4.93782e-16 -1.42047e-15 -10.677)
(-1.87797e-16 1.11529e-15 -6.39599)
(-4.08077e-16 2.33967e-15 -6.73603)
(-1.58971e-17 -1.93977e-18 -7.14129)
(7.25251e-17 -5.54298e-16 -7.56232)
(-1.09395e-17 -5.03603e-18 -8.00952)
(1.99612e-16 -1.05041e-15 -8.4881)
(-1.37993e-16 7.57668e-16 -9.00435)
(-4.93511e-16 2.01155e-15 -9.56462)
(-1.08531e-17 1.45249e-16 -10.1726)
(7.92861e-19 5.31514e-17 -11.1798)
(-1.59748e-16 8.13297e-16 -6.57272)
(-4.29967e-18 -1.75213e-19 -6.92448)
(5.44889e-17 -3.14882e-16 -7.34045)
(-3.44353e-17 3.43643e-16 -7.77321)
(4.9862e-17 -6.17333e-16 -8.23538)
(2.12115e-16 -1.47505e-15 -8.73267)
(-5.85556e-17 -3.59515e-17 -9.27225)
(-2.24964e-16 1.25341e-15 -9.86014)
(9.13951e-17 -4.64661e-16 -10.4998)
(9.86902e-17 -5.10021e-16 -11.5564)
(-5.78273e-19 -3.90574e-16 -6.71799)
(5.80005e-17 1.89637e-17 -7.07175)
(-6.39407e-17 3.03613e-16 -7.48783)
(-3.34285e-17 9.5972e-16 -7.92345)
(4.45826e-17 1.53855e-17 -8.39206)
(6.46229e-17 4.70162e-17 -8.89953)
(-1.73021e-16 1.20172e-15 -9.45231)
(5.84989e-17 -8.40497e-16 -10.0564)
(4.60099e-17 -4.30351e-16 -10.7149)
(-8.14244e-17 5.60663e-16 -11.8007)
(8.14736e-17 -6.84302e-16 -6.81509)
(-3.56708e-17 1.0922e-15 -7.16384)
(7.14666e-17 -9.19693e-17 -7.57263)
(1.54863e-17 -2.21177e-15 -8.00507)
(5.2708e-17 -1.0455e-15 -8.47335)
(-1.33567e-17 2.60108e-15 -8.98312)
(-5.6148e-17 2.84645e-15 -9.54042)
(8.73295e-17 -1.71268e-15 -10.1503)
(6.76788e-18 9.26051e-17 -10.8155)
(-1.49321e-17 1.149e-15 -11.912)
(1.64168e-16 -1.92747e-16 -1.18885)
(1.44612e-16 -1.3682e-16 -1.21749)
(-8.19188e-17 8.09093e-17 -1.22719)
(2.61967e-16 -2.21549e-16 -1.16506)
(3.91577e-17 -4.79079e-17 -1.11844)
(-2.60127e-16 1.50817e-16 -1.23657)
(-1.29746e-16 7.18064e-17 -1.58552)
(1.68277e-16 -4.89171e-17 -1.97113)
(7.45002e-17 -1.59964e-17 -1.80102)
(-1.68371e-16 3.98756e-18 -1.26059)
(-1.57488e-16 1.69435e-16 -1.4652)
(-2.29616e-16 2.36569e-16 -1.51857)
(-1.5952e-17 1.75581e-17 -1.61332)
(1.15259e-16 -8.73411e-17 -1.63792)
(3.24725e-16 -2.26109e-16 -1.57441)
(-5.79725e-17 2.39656e-17 -1.58305)
(-3.72177e-16 1.62031e-16 -1.86475)
(9.80918e-17 -2.1145e-17 -2.356)
(-1.98112e-16 5.15107e-17 -2.27598)
(-2.24666e-16 2.34548e-17 -1.62249)
(2.33735e-16 -2.76791e-16 -1.77782)
(2.55001e-16 -2.85871e-16 -1.82942)
(-1.9103e-16 1.67799e-16 -1.95457)
(-2.0792e-16 1.74473e-16 -2.08347)
(1.81311e-17 -1.04756e-17 -2.11947)
(2.47508e-16 -1.44811e-16 -2.10422)
(1.03766e-17 -5.21084e-18 -2.25131)
(-3.10501e-16 1.21916e-16 -2.58635)
(-1.04723e-16 2.62959e-17 -2.58365)
(-9.33502e-17 1.88621e-17 -2.08292)
(-1.92905e-16 2.54696e-16 -2.13366)
(-8.55524e-17 1.07354e-16 -2.19596)
(1.59446e-16 -1.60289e-16 -2.3229)
(-2.93725e-16 2.48363e-16 -2.48049)
(1.02057e-16 -8.11367e-17 -2.60029)
(-1.04598e-16 7.08051e-17 -2.64061)
(-2.87369e-16 1.40872e-16 -2.7146)
(3.42247e-16 -1.57674e-16 -2.87656)
(-2.3198e-16 9.43924e-17 -2.87082)
(-2.27554e-16 6.74219e-17 -2.57739)
(1.04746e-16 -1.50634e-16 -2.49739)
(6.06552e-17 -7.83524e-17 -2.58958)
(1.09737e-17 -1.55347e-17 -2.73812)
(-1.5201e-16 1.20938e-16 -2.8947)
(8.66065e-17 -6.54001e-17 -3.03536)
(3.27016e-16 -2.46314e-16 -3.11976)
(-3.63927e-16 2.53644e-16 -3.18152)
(-5.30114e-16 2.98312e-16 -3.25282)
(2.42844e-16 -1.17496e-16 -3.22746)
(5.26818e-16 -2.04803e-16 -3.07882)
(-2.24105e-16 3.51951e-16 -2.84509)
(-2.50142e-16 3.328e-16 -2.97397)
(-3.53338e-16 4.38673e-16 -3.15856)
(-1.38882e-17 2.75381e-17 -3.3231)
(2.83369e-16 -2.44605e-16 -3.46546)
(3.53123e-16 -2.92525e-16 -3.56818)
(4.89556e-16 -3.47252e-16 -3.63719)
(1.55431e-16 -9.31137e-17 -3.68232)
(-2.79748e-16 1.74916e-16 -3.65819)
(-4.36347e-16 2.1745e-16 -3.60236)
(7.39058e-18 -7.12508e-18 -3.1878)
(6.36785e-16 -9.09133e-16 -3.35116)
(4.35281e-16 -5.60281e-16 -3.56895)
(-6.76854e-16 7.78091e-16 -3.74693)
(-3.30867e-16 3.4455e-16 -3.8952)
(3.55036e-16 -3.0446e-16 -4.01038)
(1.40635e-17 -1.99006e-17 -4.09354)
(-4.22456e-16 3.25989e-16 -4.14555)
(4.95105e-16 -3.53185e-16 -4.14271)
(5.08888e-16 -3.0195e-16 -4.16107)
(2.40668e-16 -4.62232e-16 -3.5564)
(-3.04562e-18 8.44801e-18 -3.74622)
(-3.16529e-16 3.64103e-16 -3.98549)
(2.23717e-16 -3.03301e-16 -4.1739)
(4.75163e-16 -5.52139e-16 -4.33129)
(-1.14637e-16 9.98911e-17 -4.46036)
(-1.16612e-16 1.16163e-16 -4.56203)
(-1.46055e-16 1.30914e-16 -4.63524)
(2.55549e-17 -1.77794e-17 -4.66472)
(5.42406e-16 -3.91614e-16 -4.75407)
(-1.06012e-17 1.64255e-17 -4.00798)
(-3.00458e-16 4.85264e-16 -4.21342)
(2.38729e-18 9.31843e-18 -4.45399)
(2.9271e-16 -4.14495e-16 -4.64039)
(-3.53377e-16 4.85547e-16 -4.80124)
(6.72487e-16 -8.29275e-16 -4.94061)
(4.18581e-16 -4.87792e-16 -5.05897)
(-6.11958e-16 6.13437e-16 -5.15492)
(-1.74313e-16 1.73697e-16 -5.21693)
(-1.86291e-16 1.50149e-16 -5.37102)
(-1.64358e-16 4.25863e-16 -4.56182)
(-1.42007e-16 3.15089e-16 -4.76888)
(8.36766e-17 -8.44973e-17 -5.00448)
(4.25942e-16 -7.43951e-16 -5.18634)
(1.06236e-16 -1.66073e-16 -5.34443)
(-5.18829e-16 7.94923e-16 -5.48634)
(1.92046e-16 -2.74362e-16 -5.614)
(1.66111e-16 -2.17713e-16 -5.7259)
(-3.63136e-16 3.95741e-16 -5.81104)
(-2.10003e-16 2.03765e-16 -6.01029)
(-6.30528e-18 1.18053e-18 0.35701)
(-3.60757e-17 1.14796e-17 0.224989)
(-3.20343e-17 2.02247e-18 0.103127)
(-2.17298e-19 -5.56543e-20 0.0582546)
(-4.99832e-18 3.30343e-18 0.0546914)
(-3.87769e-17 2.40424e-17 0.119403)
(-4.89735e-17 3.92551e-17 0.137841)
(-9.23164e-17 8.55323e-17 -0.054221)
(1.21133e-16 -9.82191e-17 -0.379847)
(1.73724e-16 -4.16882e-17 -1.0383)
(4.57713e-17 7.76501e-18 0.285373)
(-1.10588e-16 1.95533e-17 0.17464)
(5.57358e-19 4.8511e-19 0.0965132)
(-2.01657e-17 9.75255e-18 0.0577643)
(-3.93637e-19 9.99929e-19 0.141771)
(2.0011e-17 -9.13306e-18 0.170037)
(1.2697e-16 -7.99744e-17 0.125215)
(2.32444e-19 -1.00665e-18 -0.10152)
(-2.19509e-16 1.90707e-16 -0.488921)
(2.0713e-16 -2.6291e-16 -1.27868)
(-2.844e-17 -7.04719e-18 0.215786)
(3.45428e-17 -6.82217e-18 0.128794)
(8.23353e-17 2.09474e-18 0.0778936)
(9.80629e-18 2.58403e-18 0.0492202)
(-2.43693e-18 -5.16626e-18 0.182358)
(1.13862e-17 6.09545e-18 0.216879)
(7.2636e-17 -5.75563e-17 0.110258)
(-1.23399e-17 -1.4242e-17 -0.152618)
(-5.03172e-18 1.57674e-18 -0.627367)
(-4.13131e-16 4.99884e-16 -1.55499)
(-4.9563e-17 -2.84818e-18 0.144523)
(-1.45336e-18 6.99289e-18 0.0877934)
(6.53341e-17 7.76492e-18 0.056215)
(2.32076e-17 3.0774e-18 0.0456428)
(1.49304e-18 -4.03146e-18 0.219755)
(2.10425e-17 -8.25602e-18 0.265309)
(-9.57362e-17 8.21382e-17 0.0966353)
(-6.83982e-18 -5.48729e-18 -0.211229)
(1.73977e-16 -2.28147e-16 -0.794192)
(-1.25197e-17 9.87538e-18 -1.84093)
(3.75237e-17 2.4146e-18 0.0688876)
(-6.39591e-17 -4.4693e-18 0.0517459)
(-5.32464e-17 -1.09426e-17 0.0388199)
(1.37818e-17 2.95769e-18 0.0538513)
(8.93727e-20 3.66956e-20 0.266199)
(5.99256e-19 -1.07558e-19 0.31345)
(-6.42391e-17 7.13845e-17 0.0829215)
(6.83167e-18 5.37461e-18 -0.282913)
(6.38575e-17 -1.20627e-16 -0.97576)
(-5.37915e-17 1.10145e-16 -2.10317)
(1.18053e-17 3.57066e-19 -0.00807617)
(5.08362e-17 1.33246e-17 0.0218216)
(-1.33491e-16 -4.26159e-17 0.0299505)
(-2.0635e-17 -1.59136e-17 0.0733862)
(3.77185e-18 -7.79799e-19 0.319619)
(-4.78386e-17 3.75854e-17 0.357187)
(-9.05469e-17 1.07687e-16 0.0651289)
(4.59372e-18 2.90458e-18 -0.367543)
(-8.4697e-17 1.88663e-16 -1.15063)
(6.98424e-17 -1.80334e-16 -2.32781)
(-5.20828e-17 -3.44378e-18 -0.0772168)
(3.30449e-17 3.18969e-18 3.87233e-05)
(-3.10351e-17 -1.49477e-17 0.0314371)
(-4.32763e-17 -2.97327e-17 0.102414)
(-9.8485e-18 1.27728e-18 0.378482)
(-5.45609e-18 -1.55845e-18 0.395717)
(1.82901e-17 -4.62198e-19 0.0439945)
(1.01608e-16 -2.01718e-16 -0.453397)
(-4.52418e-17 1.56195e-16 -1.3001)
(9.52604e-17 -2.4761e-16 -2.51741)
(-1.03494e-17 2.67156e-18 -0.133072)
(-9.05009e-17 -2.88515e-17 -0.0137239)
(6.85471e-17 2.82458e-17 0.043644)
(1.45978e-17 1.98846e-17 0.138731)
(-5.41396e-18 1.0223e-18 0.434232)
(3.6541e-17 -4.1405e-17 0.421605)
(3.34172e-17 -5.93959e-17 0.0161078)
(-1.32208e-16 3.71198e-16 -0.532783)
(-7.09148e-18 -6.81709e-18 -1.42203)
(-1.29146e-16 4.10842e-16 -2.68848)
(5.17319e-17 -1.22398e-17 -0.183424)
(4.41784e-17 1.64699e-17 -0.0239791)
(6.58362e-17 3.85372e-17 0.0651525)
(-1.42001e-17 -1.86734e-17 0.184006)
(2.94966e-17 -1.65597e-17 0.495442)
(-5.9901e-18 2.63176e-19 0.449733)
(2.45497e-17 -8.45322e-17 0.00557982)
(-9.81042e-17 5.07755e-16 -0.576727)
(1.46483e-18 9.026e-18 -1.50349)
(-2.8856e-17 -3.82161e-16 -2.85731)
(2.96096e-18 7.38291e-19 -0.24472)
(6.68057e-17 3.34799e-17 -0.0341219)
(2.80763e-17 7.38622e-18 0.0956218)
(-1.12403e-17 -3.63542e-17 0.228933)
(2.29965e-17 -1.15569e-17 0.538377)
(-2.98739e-18 -3.25575e-17 0.474341)
(3.14878e-17 -1.45622e-16 0.0237754)
(4.47319e-18 -4.88745e-16 -0.571667)
(1.89072e-17 -2.38345e-16 -1.5308)
(1.04134e-16 -6.28106e-16 -2.97874)
(-1.06791e-17 -2.16064e-18 -0.342668)
(-1.66423e-17 -8.82935e-18 -0.0536768)
(-3.15849e-17 -6.60808e-18 0.147177)
(4.0137e-17 3.34394e-18 0.292987)
(2.20711e-17 -5.47879e-18 0.598524)
(7.80579e-19 -1.77128e-17 0.538026)
(6.08046e-17 1.19703e-16 0.119387)
(-5.04707e-17 -4.31405e-16 -0.413184)
(3.7132e-18 -1.62981e-16 -1.29994)
(5.10453e-17 3.22856e-16 -2.59132)
(5.31743e-17 -9.19952e-18 -0.474284)
(5.29363e-17 2.05264e-17 -0.0990937)
(-1.08106e-17 -6.15452e-18 0.22131)
(4.51094e-17 -1.41645e-18 0.37911)
(3.53769e-17 -3.95451e-17 0.659682)
(9.61049e-17 -1.36991e-17 0.652706)
(2.7622e-17 1.31432e-17 0.31717)
(2.03892e-16 1.98904e-16 -0.119132)
(1.97346e-16 4.12769e-16 -0.953836)
(-3.69564e-17 -1.00466e-16 -2.20392)
(-9.29292e-18 -1.46366e-18 -0.61244)
(5.60321e-19 -9.21309e-18 -0.149262)
(-6.02602e-18 4.41545e-18 0.364891)
(-1.11948e-17 3.18107e-18 0.815339)