/*--------------------------------*- C++ -*----------------------------------*\
  =========                 |
  \\      /  F ield         | OpenFOAM: The Open Source CFD Toolbox
   \\    /   O peration     | Website:  https://openfoam.org
    \\  /    A nd           | Version:  13
     \\/     M anipulation  |
\*---------------------------------------------------------------------------*/
FoamFile
{
    format      ascii;
    class       volVectorField;
    location    "3.89";
    object      U;
}
// * * * * * * * * * * * * * * * * * * * * * * * * * * * * * * * * * * * * * //

dimensions      [0 1 -1 0 0 0 0];

internalField   nonuniform List<vector> 
440
(
(-0.061305 0.0343492 -7.89998e-20)
(-0.100441 0.0838 6.29918e-20)
(-0.0224991 0.108063 1.23894e-19)
(0.429522 0.130044 3.0188e-19)
(0.201025 0.412333 2.22521e-21)
(-0.0885119 0.0423097 3.01237e-20)
(0.0223454 0.00788628 -1.4203e-19)
(0.461585 -0.0272371 -1.2569e-19)
(1.03497 -0.0510824 6.83627e-20)
(1.37895 -0.00804249 2.20281e-20)
(-0.0399393 0.0142371 5.16187e-20)
(0.439145 -0.0243131 7.02152e-19)
(1.21778 -0.00174084 -3.7746e-19)
(1.79062 0.0442419 -1.14489e-18)
(2.39385 0.0671933 3.38716e-19)
(0.173501 -0.0413296 -1.73232e-19)
(1.16711 0.0162048 -5.10275e-19)
(1.9599 0.0969148 1.574e-18)
(2.44781 0.13842 1.65865e-18)
(2.52427 0.165343 -4.58892e-19)
(0.546798 -0.00426573 -2.80414e-19)
(1.74614 0.197132 -5.87889e-19)
(2.31141 0.278305 1.7605e-18)
(2.42606 0.295763 1.84402e-18)
(2.51072 0.262221 6.10991e-19)
(-0.0402865 0.233901 5.57608e-20)
(-0.172691 0.386855 1.37074e-19)
(-0.294631 0.413561 -3.42769e-19)
(-0.393924 0.41672 6.48457e-20)
(-0.465907 0.417167 5.34134e-19)
(-0.0768887 0.347661 -1.59321e-20)
(-0.179578 0.59756 -1.65652e-19)
(-0.261828 0.623867 1.84216e-20)
(-0.328609 0.594065 2.18039e-20)
(-0.370516 0.560396 -4.87024e-20)
(-0.0990025 0.299762 -7.15903e-20)
(-0.175271 0.656143 4.50907e-20)
(-0.208027 0.782511 -1.24043e-20)
(-0.217299 0.785406 -4.09284e-19)
(-0.20076 0.732852 6.9595e-21)
(-0.065802 0.138582 -1.99965e-20)
(-0.131561 0.445032 3.2617e-20)
(-0.142988 0.646217 5.49727e-20)
(-0.119681 0.743017 1.49842e-19)
(-0.0816651 0.781635 -4.17849e-20)
(-0.0366959 0.0392011 -6.51145e-20)
(-0.112798 0.195881 -8.40446e-20)
(-0.149648 0.368045 -1.40284e-19)
(-0.068778 0.465392 -3.85482e-20)
(-0.0620949 0.678808 -5.13262e-19)
(-0.718775 0.399053 -7.17618e-19)
(-0.00213476 -0.0875728 1.19371e-18)
(0.457327 -0.445661 1.25324e-19)
(0.68834 -0.445663 -1.08299e-19)
(0.943258 -0.249405 1.72701e-21)
(-0.492538 0.345976 3.17152e-19)
(0.517372 -0.26524 -2.16043e-19)
(0.842286 -0.524496 1.21888e-19)
(0.992017 -0.496244 2.00923e-19)
(1.06128 -0.273671 3.37103e-20)
(-0.0388444 0.237974 -6.10927e-20)
(1.00371 -0.416777 1.11368e-18)
(1.19434 -0.58726 -9.90612e-20)
(1.28542 -0.512548 1.76958e-19)
(1.2012 -0.273871 -1.16516e-21)
(0.402069 0.17548 2.43476e-19)
(1.4379 -0.526637 -1.76497e-19)
(1.47139 -0.632837 -5.60141e-21)
(1.47703 -0.511381 -1.45441e-19)
(1.30872 -0.258923 8.91169e-20)
(0.82103 -0.00743816 -1.47125e-19)
(1.82028 -0.604957 -1.15677e-19)
(1.74102 -0.637484 0)
(1.60594 -0.487936 7.56825e-20)
(1.36588 -0.234792 3.02216e-20)
(1.82328 -0.0876909 -3.65737e-19)
(2.30518 -0.565186 2.17746e-20)
(2.05084 -0.575397 -2.29055e-20)
(1.72312 -0.420657 9.21769e-20)
(1.38626 -0.19807 -7.48534e-20)
(2.42594 -0.186142 6.42276e-21)
(2.46456 -0.599235 6.97963e-19)
(2.0188 -0.484707 -1.66588e-20)
(1.56225 -0.250789 -1.40703e-19)
(1.22984 -0.10581 0)
(2.41727 -0.170463 -3.18096e-19)
(2.23412 -0.410886 4.26992e-21)
(1.86275 -0.299141 -3.14416e-20)
(1.5922 -0.136887 7.24691e-20)
(1.25988 -0.0608402 -4.08079e-20)
(2.30574 -0.150704 9.44061e-20)
(1.95542 -0.356349 1.95788e-19)
(1.42372 -0.238566 -2.33393e-20)
(1.14901 -0.0292977 -5.42671e-34)
(0.971117 0.0177932 3.79668e-20)
(1.52781 -0.0831503 1.36129e-19)
(0.881426 -0.0511121 5.3428e-20)
(0.39957 0.010589 -1.46341e-20)
(0.32193 0.0234679 -1.46982e-20)
(0.377778 0.00793426 5.78269e-21)
(2.40675 0.282123 -7.1551e-19)
(2.65451 0.0584627 -9.27106e-19)
(2.47196 0.164549 4.89652e-19)
(2.77445 -0.0453892 1.23049e-19)
(1.98076 0.218215 3.8917e-21)
(2.12362 0.206211 7.84373e-20)
(2.5051 0.0111504 -3.48992e-20)
(2.26753 0.0741793 -1.26947e-19)
(2.58443 -0.0919964 -1.99399e-19)
(2.37969 -0.102839 -5.90664e-21)
(2.12403 0.102487 7.80077e-20)
(2.28497 0.0146643 7.70755e-20)
(2.23581 -0.000754378 -9.32476e-20)
(2.33043 -0.0557122 3.55859e-20)
(2.3388 -0.10937 -1.10848e-20)
(2.07129 0.0363425 1.11106e-19)
(2.11622 -0.0039991 1.56353e-19)
(2.16168 -0.016351 -1.81072e-20)
(2.19207 -0.0433545 -7.01583e-20)
(2.23522 -0.0718669 3.1997e-20)
(1.53821 -0.00682584 1.79224e-19)
(1.51275 -0.0140232 -1.07625e-20)
(1.56198 -0.0152638 1.73216e-20)
(1.53365 -0.0226793 -3.1287e-20)
(1.57136 -0.0255266 -8.92482e-21)
(1.55272 0.811084 1.11503e-18)
(1.50355 0.90719 -3.69161e-19)
(1.4983 1.03649 -1.32602e-18)
(1.42368 1.08148 7.02346e-19)
(0.863392 0.765443 -1.58764e-19)
(1.8319 0.79119 -5.65259e-19)
(1.79744 0.863578 -2.92703e-18)
(1.80039 0.963124 -1.11276e-18)
(1.70282 0.971235 -3.88598e-19)
(1.03211 0.673695 -6.27107e-19)
(2.15511 0.648191 7.20486e-19)
(2.12424 0.718391 1.91269e-19)
(2.08418 0.809141 -2.16375e-18)
(1.94653 0.800011 -6.08157e-19)
(1.14494 0.528978 4.54087e-19)
(2.31076 0.553451 2.11755e-18)
(2.29586 0.605762 1.56596e-18)
(2.28999 0.653806 -1.83137e-18)
(2.06407 0.612102 -1.3756e-18)
(1.12586 0.353474 -2.55706e-19)
(2.48297 0.402797 1.0224e-18)
(2.47875 0.423679 -7.55632e-19)
(2.35844 0.453103 5.35696e-19)
(2.02562 0.400452 4.26419e-19)
(0.937971 0.156986 -3.55547e-19)
(0.57219 0.489406 -6.00894e-19)
(0.482357 0.521046 -4.5819e-19)
(0.365477 0.550351 5.10708e-20)
(0.227903 0.548368 -4.71804e-21)
(0.0571041 0.38901 8.07114e-20)
(0.662207 0.650192 1.0595e-19)
(0.597709 0.705243 -2.6937e-19)
(0.511334 0.770157 1.75704e-19)
(0.390275 0.821697 -8.22587e-20)
(0.17113 0.617571 1.16477e-19)
(0.767846 0.852531 1.21472e-19)
(0.69317 0.928953 4.48488e-19)
(0.636049 1.01793 1.14171e-19)
(0.550968 1.04437 -2.97616e-19)
(0.30076 0.756315 2.49829e-19)
(1.03086 0.9089 2.15604e-19)
(0.984523 0.983181 -6.88184e-19)
(0.93648 1.07587 -1.85357e-18)
(0.855881 1.13642 7.34113e-19)
(0.502086 0.831979 -1.5546e-19)
(1.08589 0.964907 -8.49119e-20)
(1.12431 1.07917 -1.58293e-19)
(1.15086 1.18291 -3.68196e-19)
(1.09507 1.18909 -4.04139e-19)
(0.66786 0.83167 -6.28829e-21)
(0.970436 0.0326802 -9.14077e-20)
(1.03062 0.0340176 -2.68621e-20)
(1.03754 0.12669 -2.04974e-21)
(0.962438 0.151277 -2.00582e-19)
(0.892874 0.32057 2.95612e-19)
(0.966002 0.027297 5.93421e-20)
(1.04333 0.0341989 1.03982e-19)
(1.01995 0.130755 1.24406e-19)
(1.00709 0.185537 3.02391e-20)
(0.928888 0.397469 -2.12259e-20)
(0.973831 0.0242296 7.88038e-20)
(1.02532 0.027568 -4.1616e-21)
(1.06925 0.152066 -2.17454e-21)
(0.951035 0.175642 1.22645e-19)
(1.15214 0.553351 -5.05351e-19)
(0.972985 0.0212333 -8.20513e-22)
(1.03599 0.0220858 -1.45435e-19)
(1.0591 0.165263 -6.06449e-20)
(1.05243 0.182611 -3.14142e-19)
(1.13178 0.611653 8.36534e-20)
(0.975832 0.0159634 -1.47732e-20)
(1.02736 0.02272 3.869e-20)
(1.10561 0.169207 2.70358e-20)
(1.01018 0.213698 4.15645e-19)
(1.38623 0.736243 -4.90322e-19)
(0.960522 0.0159678 -1.07866e-20)
(1.05791 0.00365746 9.09186e-20)
(1.09567 0.196006 -6.24259e-20)
(1.22985 0.120589 8.92601e-19)
(1.26854 0.811618 -3.18559e-19)
(0.95269 -0.00343042 -1.66666e-21)
(1.09272 -0.00378927 -8.29233e-20)
(1.06857 0.123482 3.88822e-21)
(1.307 0.143889 -2.52782e-19)
(1.18739 0.57367 -9.07413e-20)
(0.96966 -0.0116378 1.42844e-21)
(1.08231 -0.0115422 1.19195e-35)
(1.09698 0.0923621 -1.72146e-20)
(1.25753 0.117206 9.17337e-20)
(1.36531 0.395215 1.76493e-19)
(1.00321 -0.0439486 4.27346e-21)
(1.01197 -0.0262432 -2.33602e-20)
(1.14228 0.0318031 1.61764e-20)
(1.14878 0.0705999 2.16013e-20)
(1.58222 0.237181 -2.78587e-19)
(0.927645 -0.0223351 -3.83926e-20)
(0.832057 -0.0243672 -1.96541e-21)
(0.877751 0.00173295 2.24941e-20)
(0.830839 0.00767506 -1.99661e-20)
(1.22751 0.0606621 -6.43992e-20)
(1.80628 0.592862 2.60801e-19)
(1.8818 0.646706 7.23921e-19)
(2.17501 0.475032 -1.02329e-18)
(2.21603 0.48525 -4.2962e-20)
(2.46498 0.270773 4.55398e-19)
(1.76994 0.342622 1.04166e-19)
(1.75126 0.41644 9.52978e-19)
(2.05625 0.273487 1.39161e-19)
(1.96389 0.328688 -9.14416e-19)
(2.3227 0.135132 -2.58276e-19)
(1.76559 0.243053 -2.35074e-19)
(1.83336 0.257795 -1.5031e-19)
(1.99398 0.177046 1.19442e-19)
(1.99426 0.19322 -2.86107e-19)
(2.17579 0.091252 2.59705e-19)
(1.76438 0.133909 3.92682e-19)
(1.85901 0.129776 -5.68251e-21)
(1.90326 0.0839584 2.19286e-19)
(1.97022 0.0873076 1.96181e-19)
(2.01771 0.0376694 -1.89184e-19)
(1.37412 0.0336507 -4.86359e-20)
(1.4498 0.0251053 2.48632e-19)
(1.44926 0.0122754 1.11294e-19)
(1.50324 0.00720836 -2.22058e-19)
(1.48457 -0.00407221 -1.72289e-23)
(1.15481 -0.0196512 6.74948e-20)
(2.1546 -0.0377137 -4.35104e-19)
(2.38338 -0.0300006 1.1713e-18)
(2.35999 0.0100134 5.15923e-19)
(2.20388 0.0336957 -3.67585e-19)
(0.74078 0.098555 1.27067e-19)
(1.93656 0.0969741 -4.42051e-19)
(2.38202 0.100614 -6.03199e-19)
(2.43607 0.105139 7.47257e-19)
(2.17896 0.0954942 -4.97287e-19)
(0.2551 0.0879708 -1.68174e-20)
(1.32679 0.163654 4.74305e-19)
(2.05247 0.184259 6.40634e-20)
(2.41234 0.178321 4.57939e-19)
(2.56669 0.161876 1.72614e-19)
(-0.0100483 -0.00611749 1.88773e-19)
(0.525116 0.101615 1.90126e-19)
(1.29867 0.176259 -4.18581e-19)
(1.78638 0.20265 2.41541e-20)
(2.31949 0.231034 7.57827e-20)
(-0.0839535 -0.0687941 1.32144e-19)
(0.0418784 -0.0307005 -1.46303e-19)
(0.482494 0.0543219 -2.92918e-20)
(0.952753 0.0985348 5.39402e-20)
(1.36568 0.16406 -5.52637e-21)
(-0.0735857 -0.0810137 1.2407e-20)
(-0.0910207 -0.111696 6.77849e-20)
(0.0387151 -0.0870782 5.1644e-20)
(0.258802 -0.0268214 -9.69898e-20)
(0.623425 0.0516436 4.40087e-21)
(-0.0560595 -0.0973151 -2.33667e-20)
(-0.0852067 -0.174727 -1.56016e-20)
(-0.0581892 -0.183904 1.16149e-20)
(0.013365 -0.142556 3.92477e-21)
(0.167174 -0.0583774 1.27367e-20)
(-0.0537872 -0.147005 -3.62379e-20)
(-0.0859951 -0.23654 -2.52779e-19)
(-0.0865828 -0.235188 1.88189e-19)
(-0.0703995 -0.193836 6.09361e-19)
(-0.0292245 -0.134848 -9.19857e-20)
(-0.0413038 -0.109723 2.6253e-20)
(-0.124832 -0.132506 2.18941e-19)
(-0.199885 -0.0997963 -6.62359e-19)
(-0.261098 -0.0498162 -4.51418e-19)
(-0.287482 0.00687377 8.33236e-20)
(-0.0225939 0.0458113 -1.11758e-20)
(-0.139757 0.111562 4.56212e-20)
(-0.255456 0.145322 -1.78366e-20)
(-0.357046 0.175398 -1.23593e-20)
(-0.427503 0.209897 1.11155e-19)
(1.35669 0.467579 -2.58287e-20)
(1.01052 0.179695 7.70633e-19)
(0.941326 -0.0392866 -9.4412e-20)
(0.876787 -0.0498875 -1.27625e-19)
(0.979372 -0.0062661 1.75695e-21)
(1.07672 0.357097 9.27185e-20)
(0.515834 0.19086 -1.04435e-19)
(0.453901 0.00844498 -2.06771e-19)
(0.526214 -0.0655123 -1.53685e-20)
(0.855253 -0.0378252 -2.43315e-20)
(0.416577 0.306769 1.1448e-19)
(-0.204099 0.245069 1.2182e-19)
(0.183091 -0.0630234 4.87089e-20)
(0.396435 -0.160801 9.39387e-20)
(0.822182 -0.0907733 -5.94834e-22)
(-0.250263 0.368522 8.94193e-20)
(-0.524922 0.209875 -1.37038e-18)
(0.157801 -0.187061 -1.01503e-19)
(0.406557 -0.254164 5.85682e-21)
(0.836442 -0.148476 2.14446e-20)
(-0.642251 0.400368 6.4748e-20)
(-0.412932 0.0915787 -1.46989e-19)
(0.225451 -0.333516 1.1064e-19)
(0.491652 -0.357784 -2.90856e-20)
(0.872966 -0.203704 3.37944e-20)
(0.62241 0.126964 -7.67038e-20)
(0.0117058 -0.0437739 0)
(0.148455 -0.0725583 -3.85141e-20)
(0.28763 -0.047399 1.83944e-20)
(0.438423 -0.0231063 4.61302e-21)
(1.89552 0.383728 0)
(1.21382 0.211104 0)
(1.13653 -0.00409085 3.44189e-19)
(1.16325 -0.0483077 5.38921e-20)
(1.10059 -0.0198374 -4.35585e-21)
(0.707745 0.000691538 -1.28322e-19)
(0.773549 -0.00173015 3.15329e-19)
(0.891329 -0.00913348 -1.22699e-20)
(1.04692 0.0121028 2.51235e-19)
(1.287 0.0635306 1.58745e-19)
(1.60407 0.0223396 1.23082e-19)
(1.73033 0.0758317 3.50702e-19)
(1.89343 0.0518794 -1.54262e-19)
(2.44823 0.168021 1.05991e-20)
(2.11213 0.145041 1.15239e-19)
(0.872943 -0.45144 -2.08469e-20)
(0.858677 -0.538735 -1.61113e-19)
(0.84865 -0.63432 -1.07019e-19)
(0.78019 -0.701255 6.49358e-20)
(0.475679 -0.551495 1.25981e-19)
(0.774496 -0.352362 1.15082e-19)
(0.721064 -0.415133 2.26246e-19)
(0.651061 -0.485293 -4.47855e-20)
(0.542783 -0.546871 1.36674e-19)
(0.295944 -0.439086 5.36992e-20)
(0.629834 -0.213683 -1.30293e-19)
(0.547559 -0.25164 -5.12887e-20)
(0.4486 -0.298444 1.05485e-19)
(0.329056 -0.339162 -1.48999e-20)
(0.143651 -0.274949 -1.16433e-19)
(0.538825 0.0126764 -4.03638e-19)
(0.454279 -0.0015128 -3.34715e-19)
(0.344183 -0.0224444 2.70086e-19)
(0.216082 -0.0503572 1.64948e-19)
(0.0565098 -0.0618024 1.30335e-20)
(0.502128 0.220028 -1.50103e-19)
(0.414567 0.223766 -1.52289e-19)
(0.299566 0.229355 -6.27274e-20)
(0.168959 0.234251 1.7478e-20)
(0.0225325 0.166287 9.74708e-21)
(1.96533 -0.0362385 7.71338e-19)
(2.22441 -0.0994733 2.50815e-19)
(2.29524 -0.179974 -6.79551e-19)
(2.15277 -0.207507 -1.43388e-18)
(1.30142 -0.182712 1.24863e-19)
(1.9468 -0.116502 1.29156e-18)
(2.03137 -0.223656 1.72037e-18)
(2.05048 -0.3415 1.46612e-19)
(1.97109 -0.399748 2.60883e-19)
(1.26616 -0.351231 -1.72432e-19)
(1.66571 -0.271485 -3.31472e-18)
(1.72894 -0.38461 3.42764e-19)
(1.76997 -0.504571 1.04517e-18)
(1.70843 -0.578175 -3.8411e-19)
(1.11095 -0.49031 6.18747e-19)
(1.4605 -0.387706 7.80211e-19)
(1.47241 -0.481801 -2.09794e-18)
(1.45574 -0.595368 -2.37332e-18)
(1.38698 -0.68008 7.21557e-19)
(0.895978 -0.56073 5.07408e-19)
(1.17588 -0.439609 1.60855e-19)
(1.12888 -0.529609 2.45015e-19)
(1.11729 -0.647418 -3.65143e-19)
(1.06321 -0.732036 -4.39021e-19)
(0.674517 -0.582703 -4.05005e-21)
(0.994173 0.0396268 6.38371e-21)
(1.00779 0.0705993 -1.28009e-21)
(1.09496 0.0805281 -1.5751e-21)
(0.811977 -0.00397153 -2.19995e-19)
(1.05697 -0.181644 -1.5852e-20)
(1.00157 0.0417118 -2.4826e-21)
(0.985964 0.0632054 3.74072e-20)
(1.11778 0.104737 -2.44334e-20)
(0.88759 0.0413742 1.73711e-19)
(0.955171 -0.0685726 -3.646e-21)
(1.00468 0.0385754 -5.54657e-20)
(0.973138 0.0542245 -9.70603e-23)
(1.11206 0.107303 -1.23663e-20)
(0.901672 0.0735047 8.08023e-20)
(0.915866 -0.0105233 -2.00709e-19)
(0.994855 0.0385336 7.08109e-20)
(0.989505 0.0440282 3.53141e-21)
(1.0787 0.11294 2.72368e-20)
(0.937684 0.105328 -2.6454e-20)
(0.845275 0.0999832 8.29646e-20)
(0.979592 0.0355172 1.73105e-20)
(1.01713 0.040446 -2.56757e-20)
(1.04209 0.114033 3.88666e-20)
(0.969404 0.139389 4.9545e-20)
(0.828221 0.202709 -1.03786e-19)
(0.880042 0.0332971 0)
(0.754177 0.0304398 1.09335e-20)
(0.550252 0.0192546 3.96886e-21)
(0.421495 -0.00976792 4.53589e-20)
(0.672466 -0.0424619 -1.48597e-19)
(0.97834 0.0623847 -6.07384e-20)
(1.02581 0.0871596 -9.64458e-21)
(0.956896 0.0715353 -4.68492e-20)
(0.839674 -0.0137253 -1.2659e-19)
(0.998246 -0.168848 -1.57599e-19)
(0.9144 -0.0610565 -3.28381e-20)
(0.995812 -0.0297947 5.08201e-19)
(1.07774 0.0365368 3.02286e-19)
(0.952613 0.0511669 3.27264e-20)
(0.737925 0.0270036 0)
(1.26032 -0.293956 3.18425e-19)
(1.37165 -0.262118 1.4259e-18)
(1.53802 -0.14739 -1.55094e-18)
(1.63249 -0.0195414 -4.77289e-19)
(1.53014 0.0278136 3.66031e-19)
)
;

boundaryField
{
    left
    {
        type            fixedValue;
        value           uniform (1 0 0);
    }
    right
    {
        type            zeroGradient;
    }
    down
    {
        type            noSlip;
    }
    up
    {
        type            noSlip;
    }
    cylinder
    {
        type            noSlip;
    }
    defaultFaces
    {
        type            empty;
    }
}


// ************************************************************************* //
