/*--------------------------------*- C++ -*----------------------------------*\
  =========                 |
  \\      /  F ield         | OpenFOAM: The Open Source CFD Toolbox
   \\    /   O peration     | Website:  https://openfoam.org
    \\  /    A nd           | Version:  13
     \\/     M anipulation  |
\*---------------------------------------------------------------------------*/
FoamFile
{
    format      ascii;
    class       volVectorField;
    location    "2.82";
    object      U;
}
// * * * * * * * * * * * * * * * * * * * * * * * * * * * * * * * * * * * * * //

dimensions      [0 1 -1 0 0 0 0];

internalField   nonuniform List<vector> 
440
(
(-0.0915277 0.0649566 -8.66621e-20)
(-0.141524 0.140904 9.96515e-20)
(0.00573441 0.17972 3.52819e-20)
(0.388602 0.211958 4.49275e-19)
(0.594968 0.243118 1.99102e-21)
(-0.104867 0.0535002 2.71192e-20)
(0.0372269 0.0231819 -1.56595e-19)
(0.553745 -0.0164668 -9.74003e-20)
(1.14488 -0.044895 4.97836e-20)
(1.69619 -0.0674556 -7.52116e-21)
(-0.0406104 0.012881 5.84759e-20)
(0.512005 -0.0368145 7.75633e-19)
(1.32844 -0.0325534 -4.05706e-19)
(1.94969 -0.00338438 -1.23962e-18)
(2.44555 0.00246399 4.91325e-19)
(0.181699 -0.0427874 -1.85776e-19)
(1.22601 0.00696251 -5.59217e-19)
(2.02825 0.0772133 1.83646e-18)
(2.45135 0.115017 2.00224e-18)
(2.52706 0.132672 -5.64847e-19)
(0.560873 -0.00558253 -3.12442e-19)
(1.78777 0.192218 -6.57914e-19)
(2.3536 0.275725 2.00601e-18)
(2.50341 0.293683 2.15532e-18)
(2.5909 0.269636 7.20373e-19)
(-0.0409894 0.354122 1.78107e-19)
(-0.152683 0.503172 6.42689e-20)
(-0.252451 0.48658 -3.01493e-19)
(-0.339866 0.437156 3.82907e-20)
(-0.39398 0.376892 1.11207e-19)
(-0.0952032 0.44092 -1.04912e-20)
(-0.192509 0.669826 -2.30475e-19)
(-0.252135 0.666845 6.6941e-20)
(-0.292579 0.608224 6.67995e-20)
(-0.296966 0.528399 -1.28878e-19)
(-0.132048 0.39745 -2.08289e-19)
(-0.207697 0.718892 1.13298e-19)
(-0.210231 0.758887 -7.99523e-20)
(-0.171252 0.687711 -6.23298e-19)
(-0.116298 0.589926 5.91821e-21)
(-0.109831 0.226904 -2.67814e-20)
(-0.18159 0.547342 2.65175e-20)
(-0.164152 0.661156 5.74273e-20)
(-0.0882096 0.644391 3.57595e-19)
(-0.00544363 0.553714 -8.01347e-20)
(-0.0784928 0.096167 -6.82262e-20)
(-0.170637 0.296921 -8.65258e-20)
(-0.164838 0.423995 -8.55374e-20)
(-0.073095 0.461016 -9.43138e-20)
(0.0932733 0.457757 -4.82663e-19)
(-0.457383 -0.00830522 -1.07859e-18)
(0.110169 -0.428978 5.20881e-19)
(0.55817 -0.339514 1.39898e-20)
(0.812409 -0.228889 -4.64313e-21)
(0.995485 -0.106381 -1.67669e-21)
(-0.00293632 -0.0827021 1.23539e-18)
(0.408353 -0.558009 -1.56593e-19)
(0.701 -0.433848 5.83327e-20)
(0.883669 -0.285173 5.23212e-20)
(1.01921 -0.129477 1.07945e-20)
(0.648448 -0.183018 3.71968e-19)
(0.894422 -0.614851 7.43191e-19)
(0.964939 -0.482211 -4.96922e-20)
(1.00887 -0.31811 8.97598e-20)
(1.05805 -0.144234 -4.15332e-21)
(1.21709 -0.332789 -2.42646e-19)
(1.32744 -0.651914 -2.83356e-19)
(1.26036 -0.487903 -4.71297e-20)
(1.17175 -0.318583 -1.01424e-19)
(1.11154 -0.145885 3.31823e-20)
(1.57926 -0.480494 -1.18791e-19)
(1.61835 -0.672866 -5.5394e-19)
(1.46805 -0.476591 0)
(1.31487 -0.294241 9.5814e-20)
(1.16634 -0.133767 1.81814e-20)
(2.22273 -0.479766 -4.38451e-19)
(1.97417 -0.622128 1.98043e-19)
(1.64116 -0.442183 -1.31469e-20)
(1.42077 -0.250601 7.38476e-20)
(1.21155 -0.107688 -5.95473e-20)
(2.39322 -0.507129 3.99318e-20)
(1.90116 -0.506794 1.82774e-19)
(1.4464 -0.278071 -1.05271e-20)
(1.25963 -0.138493 -7.05593e-20)
(1.13727 -0.0609113 0)
(2.31537 -0.344891 -4.93981e-19)
(1.95648 -0.340892 1.49357e-20)
(1.56992 -0.189522 -1.0592e-19)
(1.33662 -0.104995 3.54867e-20)
(1.15958 -0.0486211 -1.56232e-20)
(2.17065 -0.286456 8.46873e-20)
(1.67704 -0.253137 1.11477e-19)
(1.32285 -0.070232 -2.54354e-20)
(1.15877 0.00502678 -3.0693e-34)
(1.04372 0.00257018 1.46669e-20)
(1.33816 -0.0821459 1.61586e-19)
(0.750472 -0.0274637 1.00945e-20)
(0.564215 0.00828304 -4.14063e-21)
(0.574918 0.00881172 -6.70809e-21)
(0.592918 0.00183149 1.0564e-21)
(2.45234 0.29062 -8.91978e-19)
(2.68888 0.0568621 -1.11651e-18)
(2.46747 0.111748 7.28756e-19)
(2.78034 -0.133293 8.6297e-20)
(2.0609 0.0865626 -8.24573e-21)
(2.18632 0.205468 7.87944e-20)
(2.48268 0.0218813 -4.02378e-20)
(2.30711 0.0510803 -1.44779e-19)
(2.5578 -0.146227 -1.95341e-19)
(2.38299 -0.149573 -8.41066e-21)
(2.14301 0.111131 8.30278e-20)
(2.26289 0.0256805 9.0911e-20)
(2.25664 -0.00860123 -1.17353e-19)
(2.31909 -0.0927261 4.49203e-20)
(2.33795 -0.145912 2.76268e-21)
(2.09758 0.0414892 1.22118e-19)
(2.11311 -0.00144892 1.55538e-19)
(2.20012 -0.0285373 -2.06323e-20)
(2.18216 -0.0796591 -5.10653e-20)
(2.2587 -0.107729 3.49874e-20)
(1.60051 -0.0165047 1.86566e-19)
(1.55916 -0.0168582 -1.29308e-20)
(1.62646 -0.0313797 2.40981e-20)
(1.54196 -0.03113 -2.6822e-20)
(1.6109 -0.0515425 9.0228e-21)
(1.63744 0.89607 1.18603e-18)
(1.59041 0.995144 -3.65209e-19)
(1.592 1.12628 -1.39644e-18)
(1.52438 1.17088 7.75757e-19)
(0.940168 0.848929 -1.84259e-19)
(1.93681 0.849364 -6.01827e-19)
(1.90543 0.930653 -3.21478e-18)
(1.90381 1.03953 -1.24851e-18)
(1.81504 1.04711 -4.30917e-19)
(1.11007 0.734308 -7.0793e-19)
(2.20985 0.725671 8.46609e-19)
(2.20025 0.795741 2.05187e-19)
(2.1881 0.883758 -2.47435e-18)
(2.04937 0.865405 -6.83167e-19)
(1.20332 0.568921 4.83285e-19)
(2.40167 0.607086 2.46924e-18)
(2.38555 0.654639 1.79569e-18)
(2.37291 0.70328 -2.04832e-18)
(2.14784 0.653555 -1.56233e-18)
(1.16044 0.369876 -2.74001e-19)
(2.51717 0.435819 1.19508e-18)
(2.53545 0.460709 -8.42163e-19)
(2.44364 0.482747 6.11083e-19)
(2.08257 0.417624 4.67738e-19)
(0.949609 0.158256 -3.91098e-19)
(0.567283 0.489262 -5.27336e-19)
(0.480539 0.524402 -3.99361e-19)
(0.365002 0.562887 4.2619e-20)
(0.229833 0.583579 3.47674e-21)
(0.0587601 0.430058 9.37925e-20)
(0.668045 0.680055 1.59086e-19)
(0.60467 0.748689 -2.25338e-19)
(0.520113 0.824875 1.84432e-19)
(0.398403 0.8721 -8.75278e-20)
(0.174629 0.650702 1.22591e-19)
(0.807605 0.839193 9.26401e-20)
(0.732846 0.917753 4.99254e-19)
(0.676028 1.02045 1.30483e-19)
(0.592254 1.07821 -3.28086e-19)
(0.324524 0.801052 2.79765e-19)
(1.07892 0.941512 2.92741e-19)
(1.02879 1.03308 -8.48439e-19)
(0.976751 1.1352 -2.15707e-18)
(0.894759 1.19563 8.56611e-19)
(0.52891 0.887029 -1.67827e-19)
(1.21468 0.95801 -1.28633e-19)
(1.23291 1.08292 -2.06652e-19)
(1.24698 1.20417 -3.88686e-19)
(1.18945 1.24119 -4.48339e-19)
(0.730058 0.90213 -7.10855e-21)
(0.938151 0.0286897 -1.02652e-19)
(1.06076 0.0525272 -3.57756e-20)
(1.01363 0.138635 -2.0355e-21)
(0.947899 0.181168 -3.22515e-19)
(0.871508 0.309093 2.89658e-19)
(0.937394 0.0231503 6.91361e-20)
(1.0646 0.0536544 1.26418e-19)
(1.01287 0.143968 1.22113e-19)
(0.979798 0.219705 4.87551e-20)
(0.929641 0.374786 -2.79456e-20)
(0.941442 0.0191283 9.40511e-20)
(1.05521 0.0505093 -4.60373e-21)
(1.05367 0.159609 -4.71597e-21)
(0.932092 0.222206 1.63174e-19)
(1.16744 0.531171 -4.77823e-19)
(0.941648 0.0153098 -1.34606e-21)
(1.0617 0.0470753 -1.65367e-19)
(1.05186 0.174346 -6.52657e-20)
(1.01601 0.236396 -4.20473e-19)
(1.19449 0.544784 1.07642e-19)
(0.941996 0.0108918 -2.01193e-20)
(1.05894 0.0485736 4.46721e-20)
(1.09205 0.181399 3.19275e-20)
(0.990764 0.24843 4.62313e-19)
(1.48903 0.698543 -4.49287e-19)
(0.925974 0.00830124 -1.65435e-20)
(1.09103 0.0317816 9.05002e-20)
(1.08324 0.204386 -8.69778e-20)
(1.1507 0.188803 8.28307e-19)
(1.35999 0.669619 -4.04325e-19)
(0.924192 -0.00964709 -2.04995e-21)
(1.10798 0.0211899 -7.86856e-20)
(1.07216 0.158718 4.66605e-21)
(1.24473 0.171092 -2.66856e-19)
(1.43627 0.429292 4.09239e-21)
(0.934341 -0.0171176 -5.8167e-21)
(1.09469 0.0137273 1.3144e-35)
(1.10956 0.123498 -4.01832e-20)
(1.29624 0.101831 9.08489e-20)
(1.50402 0.302787 1.64428e-19)
(0.951892 -0.0433421 4.93359e-21)
(1.04521 -0.0132259 -2.57833e-20)
(1.156 0.0485325 1.81166e-20)
(1.25512 0.0560075 3.42719e-20)
(1.52197 0.18878 -2.49456e-19)
(0.894197 -0.0228383 -3.62993e-20)
(0.864018 -0.022592 -1.82043e-21)
(0.890256 0.00520924 2.76768e-20)
(0.918476 0.00629798 -1.54022e-20)
(1.1665 0.0574286 -5.66616e-20)
(1.87103 0.693377 3.36264e-19)
(1.9612 0.690827 8.31121e-19)
(2.22892 0.572189 -1.17472e-18)
(2.28117 0.532535 4.97099e-20)
(2.51303 0.325752 4.89975e-19)
(1.78718 0.466395 4.5635e-20)
(1.82512 0.442039 9.77364e-19)
(2.03425 0.383006 1.04521e-19)
(2.02643 0.345287 -9.67187e-19)
(2.28852 0.204388 -3.00787e-19)
(1.72727 0.325361 -2.14755e-19)
(1.81077 0.278216 -1.53721e-19)
(1.92841 0.258758 1.77415e-19)
(1.99083 0.207524 -3.11146e-19)
(2.12674 0.145281 2.7903e-19)
(1.69468 0.198291 3.39148e-19)
(1.78727 0.16263 -4.55347e-21)
(1.8503 0.14936 2.30494e-19)
(1.95386 0.107933 2.05499e-19)
(2.00047 0.0742429 -1.99373e-19)
(1.35573 0.0486672 -4.08663e-20)
(1.42444 0.0306288 2.33451e-19)
(1.46773 0.021962 1.09985e-19)
(1.53327 0.00370958 -2.34422e-19)
(1.53738 -0.00198586 3.22955e-22)
(1.07178 -0.0172829 5.73831e-20)
(2.04348 -0.0464386 -3.7583e-19)
(2.27766 -0.0367077 1.02906e-18)
(2.253 -3.0104e-05 4.4698e-19)
(2.12169 0.0323575 -3.15858e-19)
(0.66686 0.0908462 1.00485e-19)
(1.82342 0.0796019 -3.78328e-19)
(2.28017 0.079243 -4.98296e-19)
(2.35991 0.0873889 5.83269e-19)
(2.08936 0.0723939 -3.44433e-19)
(0.210786 0.0733272 -2.00712e-20)
(1.20288 0.134698 3.9187e-19)
(1.92815 0.148343 5.16912e-20)
(2.30469 0.133799 2.51385e-19)
(2.52498 0.131077 5.77491e-20)
(-0.0291048 -0.0179689 1.7031e-19)
(0.426243 0.0699488 1.70826e-19)
(1.16235 0.130253 -3.55083e-19)
(1.62879 0.147803 1.55299e-20)
(2.1736 0.163832 -7.99451e-20)
(-0.0837702 -0.0642937 1.24795e-19)
(0.00198076 -0.0374438 -1.36361e-19)
(0.375138 0.0273561 -2.76581e-20)
(0.841481 0.0487409 3.00755e-20)
(1.12396 0.0625231 -5.24143e-20)
(-0.0521701 -0.0488017 -1.7972e-20)
(-0.0896358 -0.092479 8.00659e-20)
(-0.0122789 -0.103554 9.03831e-20)
(0.172253 -0.084372 -1.18088e-19)
(0.406551 -0.0744466 -2.86985e-21)
(-0.0436077 -0.0825859 -7.77826e-21)
(-0.0840718 -0.190789 -7.56122e-21)
(-0.0758639 -0.230415 6.03612e-21)
(-0.0283954 -0.218145 3.39786e-20)
(0.0670397 -0.183773 2.06807e-20)
(-0.0474062 -0.0932882 -1.15501e-20)
(-0.125161 -0.163078 -1.89602e-19)
(-0.172116 -0.156875 1.70408e-19)
(-0.198442 -0.128611 4.18134e-19)
(-0.191407 -0.10334 -5.59134e-20)
(-0.0165927 0.0329587 1.37688e-20)
(-0.127137 0.032151 8.16767e-20)
(-0.229832 0.0231532 -2.18033e-19)
(-0.310812 0.0213783 -2.25332e-19)
(-0.356925 0.0224729 2.66595e-21)
(-0.00705515 0.200194 -3.73872e-21)
(-0.115814 0.275266 1.79495e-20)
(-0.226006 0.262903 -1.23818e-20)
(-0.322888 0.237243 4.3063e-20)
(-0.387305 0.20605 1.40572e-19)
(1.31758 0.319648 -2.1455e-20)
(1.27963 0.0671341 8.40431e-19)
(1.13647 0.0196402 -6.00043e-20)
(0.991459 0.0503227 -6.40483e-20)
(1.01738 0.0272967 8.70035e-23)
(0.828664 0.176677 8.12892e-20)
(0.581448 0.104132 -3.60286e-19)
(0.690647 0.0669312 -1.76339e-19)
(0.799816 0.026166 -9.81226e-21)
(0.977572 -3.52521e-05 -1.21278e-20)
(0.0137428 0.128326 8.93646e-20)
(0.0809869 0.0590291 -5.36925e-19)
(0.50962 -0.0256728 2.34392e-20)
(0.750461 -0.032057 1.13345e-19)
(0.967703 -0.0201598 3.52498e-21)
(-0.451649 0.080835 1.45181e-19)
(-0.00318282 -0.0681684 -3.17452e-19)
(0.494281 -0.122059 5.8635e-20)
(0.756072 -0.100423 1.972e-21)
(0.972053 -0.053101 6.51555e-21)
(-0.568863 0.0399862 9.79886e-20)
(0.015505 -0.244795 6.97333e-20)
(0.510697 -0.229312 -3.04497e-20)
(0.777904 -0.163765 -5.39038e-21)
(0.981572 -0.079105 1.05553e-20)
(0.713571 0.099647 -6.14586e-20)
(0.219187 -0.0513651 0)
(0.306697 -0.0775018 -2.76907e-20)
(0.431698 -0.0571035 3.13478e-20)
(0.533607 -0.0230815 -3.99224e-23)
(1.78354 0.355314 0)
(1.55983 0.187573 0)
(1.49251 0.0117031 3.43954e-19)
(1.26719 -0.0142158 4.84805e-20)
(1.08602 -0.00279312 -5.15722e-22)
(0.68393 -0.000344451 -1.18276e-19)
(0.716357 -0.00384808 2.14383e-19)
(0.904081 -0.0200047 -1.97082e-20)
(1.04103 0.00574854 2.21469e-19)
(1.32734 0.0335397 1.45286e-19)
(1.55403 0.0206477 1.12188e-19)
(1.63561 0.0653297 2.30302e-19)
(1.88015 0.0109022 -2.08101e-20)
(2.42186 0.144061 -8.15063e-20)
(2.05657 0.0455215 -2.48012e-20)
(0.843789 -0.412893 -3.89734e-20)
(0.819301 -0.493333 -1.33728e-19)
(0.800458 -0.581742 -8.04633e-20)
(0.72729 -0.643055 4.91735e-20)
(0.436705 -0.501177 1.10866e-19)
(0.731398 -0.3179 1.16098e-19)
(0.678246 -0.377143 2.51369e-19)
(0.608572 -0.4429 -2.12929e-20)
(0.500048 -0.496537 1.19025e-19)
(0.266983 -0.392348 5.08361e-20)
(0.599332 -0.178733 -1.43843e-19)
(0.515908 -0.21145 -4.2821e-20)
(0.415609 -0.253703 1.39684e-19)
(0.299565 -0.293602 -3.47026e-21)
(0.126978 -0.238308 -9.81533e-20)
(0.514312 0.0471227 -3.93384e-19)
(0.432187 0.038112 -3.33587e-19)
(0.325164 0.0196519 2.68134e-19)
(0.201389 -0.011444 1.77884e-19)
(0.0484644 -0.0345803 1.35807e-20)
(0.49623 0.248302 -1.64953e-19)
(0.413899 0.259981 -1.63671e-19)
(0.304148 0.27309 -7.70795e-20)
(0.175196 0.280284 9.36389e-21)
(0.022884 0.200313 9.60323e-21)
(1.87822 -0.0392841 6.79973e-19)
(2.14209 -0.0983873 2.18024e-19)
(2.20007 -0.176223 -6.05554e-19)
(2.04871 -0.203287 -1.25868e-18)
(1.22013 -0.170625 1.10212e-19)
(1.86596 -0.107321 1.14782e-18)
(1.93866 -0.212319 1.54324e-18)
(1.95612 -0.326455 1.31463e-19)
(1.87302 -0.383426 2.34033e-19)
(1.1897 -0.328001 -1.5408e-19)
(1.59005 -0.257181 -2.96785e-18)
(1.65594 -0.366919 3.09244e-19)
(1.69438 -0.48199 9.35165e-19)
(1.62501 -0.550927 -3.38451e-19)
(1.04567 -0.459558 5.43384e-19)
(1.39446 -0.366334 6.83782e-19)
(1.40637 -0.456184 -1.84248e-18)
(1.3865 -0.563534 -2.07749e-18)
(1.31223 -0.642369 6.25801e-19)
(0.840321 -0.523868 4.52136e-19)
(1.1311 -0.40983 1.27259e-19)
(1.08651 -0.495668 2.17868e-19)
(1.06713 -0.605479 -3.12657e-19)
(1.00374 -0.682895 -3.77597e-19)
(0.628823 -0.538829 -3.43505e-21)
(0.957233 0.0435389 6.11226e-21)
(1.03724 0.0753021 -3.42087e-21)
(1.05159 0.0625443 -1.21266e-20)
(0.78102 0.00613305 -1.69589e-19)
(1.03424 -0.156051 -9.72886e-21)
(0.958242 0.0446303 -2.65004e-21)
(1.03095 0.0712925 4.83578e-20)
(1.07084 0.0937525 -5.3369e-20)
(0.844306 0.0467861 8.03683e-20)
(0.916379 -0.0498932 -1.56353e-20)
(0.957836 0.040097 -5.80627e-20)
(1.024 0.0652735 3.03074e-22)
(1.07363 0.104243 -1.95211e-20)
(0.851742 0.0835862 2.01189e-21)
(0.882665 0.00487599 -1.43424e-19)
(0.950567 0.0377214 7.72117e-20)
(1.03702 0.0568721 3.94443e-21)
(1.04407 0.120377 3.2803e-20)
(0.902206 0.115085 4.46974e-20)
(0.810468 0.109688 1.04527e-19)
(0.942544 0.033297 1.89358e-20)
(1.0527 0.0547439 -3.18617e-20)
(1.01825 0.127144 4.2316e-20)
(0.939814 0.155546 8.58511e-20)
(0.798471 0.202288 -1.22419e-19)
(0.865835 0.0333554 0)
(0.755014 0.0300315 1.10957e-20)
(0.551588 0.0181609 8.87414e-22)
(0.477072 -0.0085441 3.59002e-20)
(0.643085 -0.0398576 -1.22729e-19)
(0.950201 0.0648002 -5.96545e-20)
(1.03425 0.0867834 -1.60216e-20)
(0.925244 0.0508825 -2.87573e-20)
(0.864453 -0.00175102 -9.73672e-20)
(0.955153 -0.147274 -1.28262e-19)
(0.887427 -0.0523352 -2.57932e-20)
(0.962634 -0.019035 4.40109e-19)
(1.03317 0.0434772 2.67855e-19)
(0.902423 0.0511693 3.23064e-20)
(0.69251 0.0255009 0)
(1.20284 -0.27686 2.60152e-19)
(1.30781 -0.248626 1.25131e-18)
(1.47021 -0.136609 -1.38111e-18)
(1.56084 -0.0152974 -4.19473e-19)
(1.44977 0.0249235 3.22818e-19)
)
;

boundaryField
{
    left
    {
        type            fixedValue;
        value           uniform (1 0 0);
    }
    right
    {
        type            zeroGradient;
    }
    down
    {
        type            noSlip;
    }
    up
    {
        type            noSlip;
    }
    cylinder
    {
        type            noSlip;
    }
    defaultFaces
    {
        type            empty;
    }
}


// ************************************************************************* //
