/*--------------------------------*- C++ -*----------------------------------*\
  =========                 |
  \\      /  F ield         | OpenFOAM: The Open Source CFD Toolbox
   \\    /   O peration     | Website:  https://openfoam.org
    \\  /    A nd           | Version:  13
     \\/     M anipulation  |
\*---------------------------------------------------------------------------*/
FoamFile
{
    format      ascii;
    class       surfaceScalarField;
    location    "0.04";
    object      phi;
}
// * * * * * * * * * * * * * * * * * * * * * * * * * * * * * * * * * * * * * //

dimensions      [0 3 -1 0 0 0 0];

internalField   nonuniform List<scalar> 
3485
(
0.00128268
-0.0116351
0.0103524
0.00472738
-0.0328161
0.0293714
0.0100768
-0.0526366
0.0472873
0.0171429
-0.0710964
0.0640302
0.0257831
-0.088251
0.0796108
0.0358907
-0.104156
0.0940482
0.0473854
-0.118853
0.107358
0.0602361
-0.132369
0.119518
0.0745585
-0.144772
0.13045
-0.156087
0.139682
0.0909634
0.00140234
-0.0130374
0.00509098
-0.0365048
0.0107287
-0.0582743
0.0180644
-0.0784321
0.0268973
-0.0970839
0.0370642
-0.114323
0.0484375
-0.130226
0.0609322
-0.144864
0.0744891
-0.158329
-0.170572
0.0889735
0.00137842
-0.0144158
0.00497969
-0.0401061
0.0104438
-0.0637385
0.0174955
-0.0854838
0.0259137
-0.105502
0.0355211
-0.12393
0.0461772
-0.140882
0.0577732
-0.15646
0.0702128
-0.170769
-0.183778
0.083419
0.00125472
-0.0156706
0.00454982
-0.0434012
0.0095573
-0.068746
0.0160206
-0.0919471
0.0237386
-0.11322
0.0325541
-0.132746
0.0423484
-0.150676
0.0530298
-0.167141
0.064522
-0.182261
-0.196032
0.0767765
0.00109739
-0.0167679
0.00399686
-0.0463006
0.00842161
-0.0731707
0.0141547
-0.0976802
0.021027
-0.120092
0.0289108
-0.140629
0.0377115
-0.159477
0.0473607
-0.17679
0.0578034
-0.192703
-0.20724
0.0690109
0.000924195
-0.0176921
0.00337712
-0.0487536
0.00713537
-0.076929
0.0120231
-0.102568
0.0179055
-0.125975
0.024681
-0.147405
0.0322779
-0.167074
0.0406456
-0.185158
0.0497483
-0.201806
-0.217061
0.0595692
0.000736482
-0.0184286
0.00269685
-0.0507139
0.00570753
-0.0799396
0.00963237
-0.106493
0.0143662
-0.130709
0.0198321
-0.152871
0.0259765
-0.173218
0.0327669
-0.191948
0.0401842
-0.209223
-0.225104
0.0482271
0.000535807
-0.0189644
0.00196463
-0.0521428
0.00416056
-0.0821356
0.00702357
-0.109356
0.0104757
-0.134161
0.0144602
-0.156855
0.0189393
-0.177698
0.0238941
-0.196903
0.02932
-0.214649
-0.231015
0.0352316
0.000329485
-0.0192939
0.00120808
-0.0530213
0.00255649
-0.083484
0.00430861
-0.111108
0.00641315
-0.136265
0.00883081
-0.159273
0.0115371
-0.180404
0.0145207
-0.199887
0.0177846
-0.217913
-0.23458
0.0213498
0.000126862
-0.0194208
0.000461194
-0.0533557
0.000967486
-0.0839903
0.00161763
-0.111758
0.00238734
-0.137035
0.00325984
-0.160145
0.00422185
-0.181366
0.00526784
-0.200933
0.00639642
-0.219042
0.00761453
-0.235799
0.000698604
-0.00295167
0.00225307
0.00280768
-0.00870747
0.00659838
0.0065781
-0.0139569
0.0101865
0.0118431
-0.0182618
0.0129968
0.0183135
-0.0218598
0.0153894
0.0257599
-0.0250556
0.0176092
0.0340151
-0.0280144
0.0197591
0.0429443
-0.0308156
0.0218864
0.0524329
-0.0335189
0.0240304
-0.0361698
0.0623753
0.0262273
0.000651277
-0.00360295
0.00250246
-0.0105586
0.00573766
-0.0171921
0.0105083
-0.0230325
0.0166996
-0.0280511
0.0240619
-0.0324179
0.0323646
-0.036317
0.0414341
-0.0398852
0.0511359
-0.0432207
-0.0463778
0.0613438
0.000644909
-0.00424786
0.00246602
-0.0123798
0.00552064
-0.0202467
0.00997994
-0.0274918
0.0158953
-0.0339664
0.0231292
-0.0396518
0.031463
-0.0446508
0.0406932
-0.0491154
0.0506537
-0.0531812
-0.0569117
0.0611876
0.000672174
-0.00492003
0.00258667
-0.0142943
0.00573296
-0.023393
0.0101832
-0.031942
0.0160071
-0.0397903
0.0231838
-0.0468285
0.0315823
-0.0530493
0.0410147
-0.0585478
0.0512924
-0.0634589
-0.0678443
0.0622251
0.000734776
-0.00565481
0.00281711
-0.0163766
0.00619034
-0.0267662
0.0108456
-0.0365972
0.0168014
-0.0457462
0.024069
-0.0540961
0.0325995
-0.0615798
0.0422641
-0.0682124
0.0528859
-0.0740807
-0.0792129
0.0642545
0.000815236
-0.00647004
0.00309345
-0.0186548
0.00673563
-0.0304084
0.0116793
-0.0415409
0.0178913
-0.0519582
0.0253622
-0.0615671
0.0340751
-0.0702927
0.0439623
-0.0780996
0.0548916
-0.0850099
-0.0909774
0.066656
0.000891345
-0.00736139
0.00334952
-0.021113
0.0072377
-0.0342966
0.0124559
-0.0467591
0.0189321
-0.0584344
0.0266243
-0.0692593
0.0355095
-0.0791778
0.0455537
-0.0881438
0.0566776
-0.0961338
-0.103008
0.0687078
0.000947591
-0.00830898
0.00354578
-0.0237112
0.00763073
-0.0383815
0.0130747
-0.052203
0.0197753
-0.065135
0.0276585
-0.0771425
0.0366767
-0.088196
0.0467959
-0.098263
0.0579722
-0.10731
-0.115131
0.0700961
0.000990448
-0.00929943
0.0037127
-0.0264334
0.00798968
-0.0426585
0.0136713
-0.0578846
0.0206294
-0.0720931
0.0287608
-0.0852739
0.0379843
-0.0974195
0.0482303
-0.108509
0.0594372
-0.118517
-0.127291
0.071597
0.00105296
0.00399099
0.00861973
0.0147653
0.022283
0.0310573
0.0409959
0.052005
0.0639377
0.0763288
0.130277
-0.402055
0.334153
0.179729
-0.423194
0.373743
0.210245
-0.322047
0.291531
0.227168
-0.220614
0.203691
0.236059
-0.150974
0.142083
0.24061
-0.103343
0.0987914
0.242505
-0.0689387
0.0670436
0.242632
-0.0432747
0.0431484
0.241497
-0.0233167
0.0244516
-0.00579366
0.00795403
0.129397
-0.470108
0.179686
-0.473484
0.211433
-0.353794
0.228741
-0.237923
0.237545
-0.159777
0.241909
-0.107707
0.243655
-0.0706846
0.243708
-0.0433275
0.242586
-0.0221948
-0.00373274
0.128222
-0.537142
0.17854
-0.523801
0.211496
-0.38675
0.229386
-0.255812
0.238283
-0.168674
0.242622
-0.112046
0.244374
-0.072437
0.244511
-0.0434639
0.243562
-0.0212461
-0.00193456
0.127201
-0.602118
0.176537
-0.573138
0.210479
-0.420692
0.229114
-0.274447
0.23828
-0.17784
0.242746
-0.116512
0.244655
-0.074346
0.245029
-0.0438377
0.244411
-0.0206278
-0.000566031
0.126534
-0.664397
0.173986
-0.620589
0.208451
-0.455157
0.227942
-0.293939
0.237546
-0.187444
0.242283
-0.12125
0.244492
-0.0765549
0.245252
-0.0445975
0.24512
-0.0204964
0.00020967
0.126014
-0.723756
0.171137
-0.665712
0.205518
-0.489539
0.225884
-0.314305
0.236087
-0.197647
0.241237
-0.1264
0.243882
-0.0792
0.245171
-0.0458864
0.245679
-0.0210046
0.000231523
0.125054
-0.780102
0.168076
-0.708734
0.201882
-0.523345
0.223015
-0.335438
0.233926
-0.208558
0.239617
-0.132091
0.242826
-0.082409
0.244781
-0.0478406
0.246076
-0.0222999
-0.000659784
0.122891
-0.832897
0.164504
-0.750347
0.197537
-0.556378
0.219281
-0.357182
0.231021
-0.220298
0.237423
-0.138493
0.241327
-0.0863131
0.244076
-0.0505902
0.246296
-0.0245202
-0.0026274
0.119277
-0.880577
0.160187
-0.791257
0.19273
-0.588922
0.215051
-0.379503
0.227599
-0.232846
0.23471
-0.145605
0.239396
-0.0909989
0.243058
-0.0542525
0.246338
-0.0278003
-0.00581864
0.114754
-0.919002
0.154274
-0.830776
0.186435
-0.621083
0.209602
-0.40267
0.223369
-0.246613
0.231411
-0.153646
0.237013
-0.0966013
0.241716
-0.0589549
0.246195
-0.0322795
-0.0103726
0.554089
-0.903948
-0.569143
0.514378
-0.791065
0.471655
-0.57836
0.438027
-0.369042
0.415464
-0.22405
0.401795
-0.139977
0.393462
-0.0882688
0.388392
-0.0538846
0.38563
-0.0295178
-0.00952413
0.63897
-0.835862
-0.707056
0.564031
-0.716125
0.499878
-0.514208
0.454279
-0.323443
0.425919
-0.19569
0.408884
-0.122941
0.398316
-0.0777012
0.391857
-0.0474254
0.388358
-0.0260186
-0.00847804
0.701665
-0.725447
-0.81208
0.600763
-0.615223
0.521152
-0.434597
0.4675
-0.269791
0.435078
-0.163267
0.415153
-0.103017
0.402602
-0.0651498
0.394905
-0.0397282
0.390749
-0.0218633
-0.00728025
0.732933
-0.59147
-0.86691
0.617564
-0.499854
0.530927
-0.34796
0.475453
-0.214318
0.441849
-0.129663
0.420161
-0.0813297
0.406075
-0.0510631
0.39734
-0.0309939
0.392609
-0.0171319
-0.00597489
0.717742
-0.45136
-0.857853
0.599756
-0.381868
0.514742
-0.262946
0.462788
-0.162363
0.43115
-0.0980252
0.410094
-0.0602739
0.396247
-0.0372156
0.387578
-0.0223248
0.382619
-0.0121732
-0.00446207
0.653485
-0.316371
-0.788474
0.538257
-0.26664
0.455955
-0.180645
0.405054
-0.111462
0.3747
-0.0676719
0.355746
-0.0413194
0.343785
-0.0252545
0.336476
-0.0150161
0.332311
-0.00800784
-0.00305812
0.554064
-0.195726
-0.674708
0.449849
-0.162425
0.377421
-0.108217
0.332543
-0.0665836
0.305713
-0.0408429
0.289216
-0.0248218
0.278956
-0.0149946
0.272763
-0.00882296
0.26936
-0.00460529
-0.00183072
0.425979
-0.0969494
-0.524756
0.341275
-0.077721
0.283973
-0.0509146
0.248565
-0.0311755
0.227211
-0.0194894
0.214238
-0.011848
0.206334
-0.00709092
0.201644
-0.00413351
0.199142
-0.0021027
-0.000877176
0.272037
-0.0280198
-0.340967
0.2153
-0.0209841
0.17787
-0.0134841
0.154868
-0.00817345
0.140684
-0.00530558
0.132076
-0.00323971
0.12691
-0.0019255
0.123893
-0.00111594
0.122338
-0.00054856
-0.000252686
0.0965249
-0.124545
0.0755407
0.0620566
0.0538831
0.0485776
0.0453378
0.0434123
0.0422963
0.0417478
0.725793
0.0094746
-0.727653
0.720076
0.0270666
0.710395
0.0449131
0.697033
0.0615893
0.680351
0.076251
0.660765
0.088597
0.638878
0.0986628
0.615376
0.106921
0.591304
0.113045
0.113125
0.825218
0.012327
-0.828071
0.81703
0.0352548
0.806684
0.0552596
0.795545
0.0727278
0.783708
0.0880881
0.770832
0.101473
0.756615
0.11288
0.741217
0.122319
0.725111
0.129151
0.13118
0.806463
0.0105165
-0.804652
0.81059
0.0311278
0.815437
0.0504127
0.819751
0.0684132
0.822784
0.0850553
0.824145
0.100112
0.823676
0.113349
0.821513
0.124482
0.817947
0.132717
0.137047
0.761581
0.0085631
-0.759628
0.76696
0.0257487
0.775282
0.0420914
0.786179
0.0575154
0.799179
0.0720552
0.813565
0.0857271
0.828454
0.0984593
0.843027
0.10991
0.856338
0.119406
0.126475
0.697443
0.00646285
-0.695343
0.703494
0.0196975
0.71317
0.0324153
0.726223
0.0444628
0.742477
0.0558012
0.761752
0.0664519
0.783766
0.0764449
0.807966
0.0857099
0.833171
0.0942005
0.101793
0.614994
0.00445364
-0.612985
0.620959
0.0137329
0.630689
0.0226846
0.643989
0.0311626
0.6607
0.039091
0.680697
0.0464544
0.703856
0.053286
0.729922
0.059644
0.758401
0.0657214
0.0717209
0.514589
0.00267861
-0.512814
0.519968
0.00835481
0.528825
0.0138276
0.540998
0.0189887
0.556322
0.0237677
0.574638
0.028138
0.5958
0.0321241
0.619641
0.0358027
0.646013
0.0393503
0.0430253
0.395655
0.00126844
-0.394244
0.400003
0.00400602
0.407197
0.00663438
0.417095
0.0090902
0.429535
0.0113276
0.444347
0.0133259
0.461374
0.0150971
0.480487
0.0166898
0.501625
0.0182126
0.0198942
0.256564
0.000341284
-0.255637
0.259475
0.00109527
0.264297
0.00181244
0.270917
0.00247024
0.279193
0.00305093
0.288974
0.00354529
0.300117
0.00395463
0.312518
0.0042885
0.326153
0.00457761
0.00508015
0.0946696
-0.0943283
0.0957648
0.0975773
0.100048
0.103098
0.106644
0.110598
0.114887
0.119464
0.0737515
0.157509
-0.141282
-0.0899793
0.0595951
0.14626
-0.132103
0.0468927
0.133891
-0.121189
0.035527
0.120378
-0.109012
0.0255288
0.105646
-0.0956475
0.0169785
0.0896597
-0.0811094
0.00998277
0.072365
-0.0653692
0.00468431
0.0536892
-0.0483907
0.00127112
0.0335553
-0.0301421
0.0119374
-0.0106662
0.0736192
0.171805
-0.0879151
0.0602353
0.159644
0.0478949
0.146232
0.0366569
0.131616
0.0266065
0.115696
0.0178716
0.0983946
0.0106153
0.0796213
0.00503757
0.0592669
0.00138766
0.0372052
0.013325
0.0692416
0.184823
-0.0822596
0.0569806
0.171905
0.0455504
0.157662
0.0350443
0.142122
0.0255693
0.125171
0.0172647
0.106699
0.0103066
0.0865794
0.0049142
0.0646593
0.00136019
0.0407592
0.0146852
0.0634389
0.196886
-0.0755021
0.052132
0.183211
0.0416267
0.168167
0.0319962
0.151752
0.0233292
0.133838
0.0157421
0.114286
0.0093893
0.0929322
0.00446866
0.0695799
0.00123183
0.043996
0.015917
0.0566399
0.207911
-0.0676643
0.0463789
0.193472
0.0369072
0.177639
0.0282769
0.160383
0.0205529
0.141562
0.0138264
0.121013
0.00822028
0.0985383
0.00389807
0.0739021
0.00106909
0.046825
0.0169861
0.0485418
0.217567
-0.0581976
0.0396083
0.202406
0.0314117
0.185835
0.0239853
0.167809
0.0173757
0.148172
0.0116499
0.126739
0.00690307
0.103285
0.00326167
0.0775435
0.000890721
0.0491959
0.0178769
0.0389523
0.225469
-0.0468543
0.0316863
0.209672
0.0250568
0.192465
0.0190799
0.173786
0.0137841
0.153467
0.00921641
0.131306
0.00544548
0.107056
0.00256528
0.0804237
0.000698007
0.0510632
0.0185749
0.0280416
0.231263
-0.0338362
0.0227519
0.214962
0.0179513
0.197266
0.013641
0.178096
0.00983436
0.157274
0.00656095
0.13458
0.00386685
0.10975
0.00181624
0.0824743
0.000492152
0.0523873
0.019067
0.0163786
0.234715
-0.0198305
0.0132568
0.218083
0.0104398
0.200083
0.00791893
0.180617
0.00569814
0.159495
0.00379224
0.136486
0.00222821
0.111314
0.00104192
0.0836606
0.000280468
0.0531488
0.0193475
0.00481087
-0.00589419
0.00385243
0.00300231
0.00225358
0.00160299
0.00105364
0.000609827
0.000280194
7.32878e-05
0.053478
0.0375882
-0.0636007
-0.0274655
0.0438053
0.0349037
-0.0252309
0.0346898
0.0321611
-0.0230456
0.0262509
0.0293125
-0.0208737
0.0186333
0.0262918
-0.0186741
0.0120206
0.0230085
-0.0163958
0.00666334
0.0192774
-0.0139202
0.00285755
0.0147619
-0.0109561
0.000725496
0.00920585
-0.0070738
0.00312445
-0.00239896
0.052087
0.0479614
-0.0624603
0.0422154
0.0447753
0.0329744
0.0414021
0.0245043
0.0377826
0.0169896
0.0338065
0.0106785
0.0293195
0.00583529
0.0241207
0.00256363
0.0180335
0.00067554
0.0110939
0.00379999
0.0514995
0.0586375
-0.0621755
0.0413913
0.0548835
0.0320126
0.0507808
0.0235373
0.046258
0.0161797
0.0411641
0.0101685
0.0353308
0.00564052
0.0286486
0.00253294
0.0211411
0.00066682
0.0129601
0.00446681
0.0520117
0.0696797
-0.063054
0.0416175
0.0652777
0.0320678
0.0603306
0.0235596
0.0547662
0.0162883
0.0484354
0.0103852
0.0412338
0.00586577
0.033168
0.00265782
0.0243491
0.000694373
0.0149235
0.00516118
0.0534574
0.0811184
-0.064896
0.0427567
0.0759784
0.0330113
0.070076
0.0244044
0.0633731
0.0170668
0.0557729
0.0110444
0.0472563
0.00632337
0.037889
0.00288856
0.0277839
0.000757173
0.0170549
0.00591835
0.0552931
0.0929102
-0.0670849
0.0443256
0.0869459
0.0343953
0.0800063
0.0256377
0.0721306
0.0181196
0.0632911
0.0118556
0.0535202
0.00685607
0.0428886
0.00315919
0.0314808
0.00083619
0.0193779
0.00675454
0.0568799
0.104924
-0.0688933
0.0457594
0.0980663
0.0357102
0.0900555
0.0268124
0.0810284
0.0190984
0.0710051
0.0125904
0.0600282
0.00733274
0.0481462
0.00340283
0.0354107
0.00090874
0.021872
0.00766328
0.0579345
0.116986
-0.0699964
0.046805
0.109196
0.0367213
0.100139
0.0277264
0.0900234
0.0198526
0.078879
0.0131475
0.0667332
0.00768776
0.053606
0.0035801
0.0395183
0.000959382
0.0244927
0.00862267
0.0591114
0.129036
-0.0711615
0.0479984
0.120309
0.0378329
0.110305
0.0286748
0.0991815
0.0205915
0.0869622
0.013664
0.0736607
0.00799713
0.0592729
0.00372233
0.0437931
0.000995044
0.02722
0.00961771
0.0633077
-0.0755536
0.0515131
0.0406288
0.0307985
0.0221132
0.0146646
0.00856822
0.00397061
0.00104853
0.211628
0.0613792
-0.0750177
0.223945
0.0998953
-0.112212
0.232053
0.103509
-0.111617
0.235238
0.109203
-0.112388
0.233591
0.128203
-0.126556
0.226388
0.164607
-0.157404
0.210696
0.225433
-0.209741
0.181267
0.321786
-0.292357
0.132231
0.427707
-0.378671
0.414834
-0.346204
0.210455
0.0489144
0.223026
0.0873239
0.231377
0.0951576
0.2351
0.10548
0.234048
0.129255
0.227283
0.171372
0.211521
0.241196
0.181012
0.352295
0.131147
0.477572
0.483521
0.209576
0.0373278
0.222275
0.074625
0.230726
0.0867069
0.234734
0.101472
0.234004
0.129984
0.227407
0.177969
0.211309
0.257294
0.179649
0.383955
0.129718
0.527503
0.551063
0.20894
0.0263775
0.221687
0.0618777
0.23009
0.0783038
0.234148
0.0974145
0.233478
0.130654
0.226786
0.184661
0.2101
0.27398
0.177397
0.416658
0.128376
0.576524
0.616385
0.208507
0.0158603
0.221258
0.0491268
0.229458
0.0701034
0.233337
0.0935357
0.232478
0.131513
0.225434
0.191705
0.207936
0.291478
0.174543
0.450051
0.127332
0.623735
0.678822
0.208254
0.00559621
0.22098
0.0364003
0.228809
0.0622748
0.232284
0.0900602
0.230992
0.132805
0.223336
0.199361
0.204879
0.309934
0.171338
0.483592
0.126402
0.668671
0.738138
0.208165
-0.00457945
0.220842
0.023724
0.228114
0.0550022
0.230965
0.0872097
0.229009
0.134761
0.22053
0.20784
0.201102
0.329362
0.167894
0.516801
0.125023
0.711541
0.794268
0.208232
-0.0148212
0.220818
0.0111372
0.227339
0.048482
0.229336
0.0852124
0.226444
0.137653
0.21691
0.217373
0.196585
0.349687
0.163939
0.549447
0.122444
0.753036
0.846716
0.208436
-0.0252672
0.220888
-0.00131551
0.226446
0.0429243
0.227393
0.0842658
0.223466
0.14158
0.212847
0.227992
0.191627
0.370908
0.159267
0.581807
0.118413
0.79389
0.893968
0.209122
-0.0363992
0.220774
-0.0129677
0.225429
0.0382692
0.225073
0.0846214
0.21978
0.146874
0.207553
0.240219
0.185121
0.39334
0.152994
0.613934
0.113474
0.833409
0.931888
0.33003
-0.0644187
0.353612
-0.0365501
0.37477
0.0171115
0.39118
0.0682107
0.408628
0.129426
0.432429
0.216419
0.466312
0.359456
0.510013
0.570233
0.552484
0.790938
0.912741
0.571631
0.335166
-0.0975742
0.359739
-0.0611233
0.381726
-0.00487578
0.399678
0.0502587
0.419763
0.10934
0.448593
0.187589
0.493492
0.314557
0.557685
0.506041
0.634262
0.714361
0.840486
0.706518
0.341326
-0.13689
0.367347
-0.0871443
0.38916
-0.0266882
0.407824
0.0315944
0.429803
0.0873611
0.462054
0.155339
0.514314
0.262296
0.593088
0.427267
0.6946
0.612849
0.727258
0.807828
0.347541
-0.182421
0.375441
-0.115045
0.396769
-0.0480157
0.4153
0.0130627
0.438022
0.0646397
0.471134
0.122227
0.525029
0.208401
0.610382
0.341915
0.725638
0.497593
0.591944
0.860951
0.351933
-0.232343
0.382351
-0.145463
0.402058
-0.0677233
0.41556
-0.000439177
0.434013
0.0461872
0.463383
0.0928565
0.512963
0.158821
0.595896
0.258981
0.712918
0.380571
0.451423
0.85344
0.352696
-0.283029
0.370393
-0.16316
0.365587
-0.0629171
0.366757
-0.00161001
0.379544
0.033401
0.407247
0.0651531
0.456236
0.109832
0.536756
0.178461
0.65117
0.266157
0.316365
0.786229
0.324294
-0.305312
0.313833
-0.152699
0.295985
-0.0450689
0.296413
-0.00203779
0.309142
0.0206719
0.334532
0.0397625
0.378381
0.0659832
0.449617
0.107225
0.553416
0.162359
0.19572
0.674061
0.277058
-0.280361
0.238802
-0.114443
0.219967
-0.0262339
0.219676
-0.00174733
0.23
0.0103482
0.250513
0.0192499
0.285392
0.0311038
0.341984
0.0506322
0.426527
0.0778157
0.096972
0.525275
0.215396
-0.193747
0.152892
-0.0519383
0.135553
-0.00889449
0.134991
-0.00118608
0.142368
0.00297202
0.156309
0.00530802
0.179192
0.00822124
0.216355
0.0134696
0.273117
0.0210533
0.0280358
0.342053
0.108263
0.0563251
0.0474306
0.0462445
0.0492165
0.0545245
0.0627458
0.0762153
0.0972686
0.125304
0.593441
-0.111789
0.616995
-0.111469
0.640023
-0.105287
0.661522
-0.0970012
0.68081
-0.0869518
0.697272
-0.0746596
0.710488
-0.0600708
0.720111
-0.0434594
0.725822
-0.0255414
-0.00772545
0.724296
-0.129568
0.740004
-0.127177
0.755088
-0.120372
0.769088
-0.111001
0.781824
-0.0996873
0.793573
-0.0864084
0.804686
-0.0711841
0.815154
-0.0539273
0.823931
-0.0343188
-0.0118649
0.813579
-0.135319
0.817118
-0.130717
0.819388
-0.122642
0.820134
-0.111747
0.819221
-0.0987742
0.816806
-0.0839936
0.813252
-0.0676302
0.809241
-0.049916
0.805872
-0.0309501
-0.0106451
0.850941
-0.125309
0.838401
-0.118176
0.824639
-0.108881
0.810543
-0.0976507
0.79689
-0.0851214
0.784533
-0.0716368
0.77419
-0.057287
0.766342
-0.0420676
0.761336
-0.0259438
-0.00893708
0.829498
-0.101367
0.805092
-0.0937703
0.78156
-0.0853489
0.76008
-0.0761706
0.74124
-0.066281
0.725353
-0.05575
0.712616
-0.0445501
0.703201
-0.0326527
0.697336
-0.0200788
-0.00694387
0.756584
-0.0717215
0.728534
-0.0657211
0.702824
-0.0596382
0.679959
-0.0533059
0.660206
-0.0465283
0.643698
-0.0392413
0.630552
-0.0314046
0.620922
-0.0230227
0.614999
-0.0141558
-0.00492956
0.645536
-0.0431965
0.619339
-0.0395245
0.595658
-0.0359572
0.574632
-0.0322794
0.556418
-0.0283146
0.541159
-0.0239824
0.529007
-0.0192523
0.520126
-0.014142
0.514682
-0.00871223
-0.00306165
0.502139
-0.0200611
0.481004
-0.0183891
0.461899
-0.0168522
0.444872
-0.0152522
0.430041
-0.0134835
0.417556
-0.0114974
0.407582
-0.00927857
0.400283
-0.00684289
0.395802
-0.00423154
-0.00150389
0.327146
-0.00515376
0.313417
-0.00465967
0.30093
-0.0043652
0.289704
-0.00402652
0.279835
-0.00361481
0.271459
-0.00312128
0.264724
-0.00254376
0.259771
-0.00189004
0.256716
-0.00117647
-0.000424608
0.120151
0.115491
0.111126
0.107099
0.103484
0.100363
0.0978194
0.0959294
0.0947529
0.000238686
0.0170615
-0.0173002
0.000813382
0.0447262
-0.0453009
0.00161646
0.0673514
-0.0681545
0.00256988
0.0853705
-0.0863239
0.00357281
0.0990538
-0.100057
0.00497378
0.110745
-0.112146
0.00549345
0.111275
-0.111795
0.00584634
0.103403
-0.103756
0.0058491
0.0931619
-0.0931647
0.0790047
0.00540243
-0.0785581
0.000694817
0.0163667
0.00236863
0.0430524
0.00470999
0.06501
0.00748733
0.0825932
0.0104294
0.0961117
0.0141705
0.107004
0.0159304
0.109515
0.0170433
0.10229
0.0172389
0.0929664
0.0800334
0.0162103
0.0010873
0.0152794
0.00370995
0.0404297
0.00738403
0.061336
0.0117353
0.0782419
0.0163916
0.0914554
0.0217057
0.101689
0.0250684
0.106153
0.027024
0.100335
0.0277669
0.0922234
0.0809774
0.0268228
0.00137267
0.0139067
0.00470054
0.0371018
0.00938158
0.0566549
0.0149365
0.072687
0.020947
0.0854449
0.0273938
0.0952428
0.0325155
0.101031
0.0353786
0.0974719
0.0369487
0.0906533
0.0812461
0.03668
0.001544
0.0123627
0.00531344
0.0333324
0.0106494
0.051319
0.0170168
0.0663195
0.023982
0.0784797
0.0312922
0.0879325
0.0379716
0.0943514
0.0418542
0.0935893
0.044355
0.0881526
0.0805261
0.0450749
0.00161442
0.0107483
0.00558785
0.029359
0.0112571
0.0456497
0.0180774
0.0594992
0.0256135
0.0709437
0.0335186
0.0800274
0.0412765
0.0865935
0.0464683
0.0883974
0.0498717
0.0847492
0.0787496
0.0516481
0.00159521
0.00915308
0.00556168
0.0253925
0.0112791
0.0399322
0.0182311
0.0525472
0.0259933
0.0631815
0.0342119
0.0718087
0.0425336
0.0782718
0.0492865
0.0816445
0.0537014
0.0803343
0.0759479
0.0565032
0.00147855
0.00767453
0.00522137
0.0216497
0.0107017
0.0344519
0.0174671
0.0457818
0.0251303
0.0555182
0.0333714
0.0635677
0.0418955
0.0697477
0.0499006
0.0736394
0.0557914
0.0744434
0.0720001
0.0597392
0.00126063
0.0064139
0.00455521
0.0183551
0.00949369
0.0295135
0.0157162
0.0395592
0.0229013
0.0483331
0.0307772
0.0556918
0.0391034
0.0614215
0.0475106
0.0652322
0.0549651
0.0669889
0.0664385
0.0605267
0.000996827
0.00541707
0.00371636
0.0156355
0.00790754
0.0253223
0.0133076
0.0341592
0.0196725
0.0419682
0.0267936
0.0485707
0.0344752
0.05374
0.0425018
0.0572056
0.0505974
0.0588934
0.0587987
0.0582372
0.000793789
0.00462328
0.00302697
0.0134023
0.00655315
0.0217961
0.0112028
0.0295095
0.0168254
0.0363457
0.0233084
0.0420877
0.0305187
0.0465297
0.0381974
0.0495268
0.0459914
0.0510994
0.0513667
0.0534233
0.000647082
0.0039762
0.00251465
0.0115348
0.00553189
0.0187788
0.00961408
0.0254273
0.0147048
0.031255
0.0207578
0.0360347
0.0276465
0.0396409
0.0351005
0.0420728
0.0427859
0.0434141
0.0436757
0.050477
0.000542424
0.00343377
0.00214673
0.00993046
0.00481146
0.0161141
0.00854817
0.0216906
0.0133923
0.0264109
0.0193012
0.0301257
0.0260826
0.0328595
0.0334618
0.0346936
0.0411885
0.0356874
0.0358128
0.0490513
0.000480209
0.00295356
0.00193366
0.00847701
0.00445553
0.0135922
0.00816948
0.0179766
0.0131144
0.0214659
0.0191346
0.0241055
0.0259747
0.0260195
0.0333967
0.0272715
0.0412119
0.0278723
0.0277702
0.0492544
0.000465312
0.00248825
0.00192831
0.00701401
0.00464293
0.0108776
0.00873699
0.0138826
0.014065
0.016138
0.0203531
0.0178174
0.0273711
0.0190015
0.0349495
0.019693
0.0429507
0.0198711
0.0194886
0.0512324
0.000530191
0.00195805
0.00232431
0.00521989
0.00566705
0.00753487
0.0103852
0.00916437
0.0161618
0.0103614
0.022762
0.0112172
0.0300332
0.0117303
0.0378544
0.0118719
0.0461137
0.0116119
0.0109106
0.0546916
0.000784604
0.00117345
0.00335607
0.00264842
0.0074598
0.00343114
0.0127004
0.00392372
0.0188402
0.00422163
0.0257412
0.00431622
0.0332925
0.00417893
0.0413891
0.00377528
0.0499303
0.00307073
0.00202778
0.0588131
0.00131732
-0.000143876
0.00460766
-0.000641919
0.00913422
-0.00109542
0.0146621
-0.00160419
0.0210582
-0.00217447
0.028205
-0.00283054
0.0359966
-0.00361266
0.0443353
-0.00456348
0.0531286
-0.00572247
-0.00712358
0.0622799
0.00129798
-0.00144186
0.00456414
-0.00390808
0.00922369
-0.00575498
0.0149432
-0.00732368
0.0215314
-0.00876271
0.0288683
-0.0101674
0.0368599
-0.0116043
0.0454178
-0.0131214
0.0544514
-0.0147561
-0.0165389
0.0638667
0.000811209
0.00350151
0.007933
0.0136061
0.0202328
0.0276746
0.0358295
0.0445945
0.0538687
0.0635572
0.0688595
0.154131
-0.169567
0.0964093
0.0214013
-0.048951
0.116814
-0.0403881
0.019983
0.129685
-0.0462621
0.0333917
0.140316
-0.0383197
0.0276884
0.149273
-0.0289533
0.019996
0.156693
-0.0209212
0.0135012
0.162808
-0.0146643
0.00854999
0.167869
-0.00979583
0.00473467
-0.00584245
0.00187604
0.0788452
0.125763
0.11513
-0.0148839
0.139733
-0.0649903
0.153185
-0.0597149
0.164278
-0.0494121
0.173576
-0.0382514
0.181159
-0.0285045
0.187275
-0.0207808
0.192216
-0.0147376
-0.00940565
0.0880384
0.0867757
0.129131
-0.0559764
0.157417
-0.0932764
0.175034
-0.0773323
0.187409
-0.0617869
0.196923
-0.0477646
0.204377
-0.0359587
0.210168
-0.0265725
0.214651
-0.01922
-0.0123052
0.0973038
0.0387263
0.140646
-0.0993184
0.169405
-0.122036
0.189435
-0.0973616
0.203697
-0.0760496
0.213913
-0.05798
0.221263
-0.0433094
0.226425
-0.0317344
0.229805
-0.0225994
-0.0140393
0.106218
-0.0162592
0.150517
-0.143617
0.178714
-0.150234
0.198113
-0.11676
0.211604
-0.0895408
0.220898
-0.0672733
0.22717
-0.0495821
0.231165
-0.0357296
0.233291
-0.0247252
-0.0146251
0.114376
-0.075944
0.159027
-0.188268
0.186801
-0.178008
0.205271
-0.13523
0.217513
-0.101783
0.225573
-0.0753327
0.230691
-0.0547002
0.233627
-0.0386659
0.234818
-0.025916
-0.0143646
0.121153
-0.138283
0.166107
-0.233223
0.193792
-0.205693
0.211504
-0.152941
0.222681
-0.112961
0.229683
-0.0823347
0.233819
-0.0588355
0.235864
-0.0407111
0.236277
-0.0263289
-0.0134132
0.126115
-0.202119
0.171734
-0.278842
0.199662
-0.233621
0.216818
-0.170098
0.22713
-0.123272
0.233256
-0.0884601
0.236578
-0.0621581
0.237897
-0.0420299
0.237686
-0.0261176
-0.0119233
0.129108
-0.26736
0.175862
-0.325595
0.204371
-0.26213
0.221205
-0.186932
0.230847
-0.132914
0.236275
-0.0938874
0.238955
-0.0648382
0.239712
-0.0427875
0.239033
-0.0254388
-0.0100506
0.13035
0.178497
0.207898
0.224657
0.233826
0.238729
0.240935
0.241295
0.240308
0.0159894
0.010395
-0.0263844
0.0120694
0.00392002
0.0119911
7.83514e-05
0.0139416
-0.00195051
0.0154144
-0.00147281
0.0163631
-0.000948697
0.0169763
-0.000613235
0.0173615
-0.000385229
0.0175561
-0.000194653
-9.58536e-05
0.0467634
0.0393552
-0.0757236
0.036093
0.0145905
0.0374995
-0.00132816
0.0422231
-0.00667407
0.0460335
-0.00528324
0.048645
-0.00356021
0.050368
-0.00233625
0.0514506
-0.00146791
0.052029
-0.000773026
-0.000339438
0.0734661
0.0817311
-0.115842
0.0593862
0.0286704
0.0630661
-0.00500806
0.0701501
-0.0137581
0.0759765
-0.0111096
0.0801226
-0.00770637
0.0828946
-0.00510831
0.0846404
-0.00321376
0.0855974
-0.00172999
-0.000720098
0.0956377
0.128335
-0.142241
0.0820111
0.042297
0.0882812
-0.0112782
0.0972971
-0.022774
0.104852
-0.0186643
0.110385
-0.0132393
0.114137
-0.00886032
0.116513
-0.00559047
0.117839
-0.00305547
-0.00123332
0.110658
-0.15189
0.104004
0.112708
0.123326
0.13235
0.139107
0.143748
0.146707
0.148386
0.00462414
-0.000275052
-0.00434908
0.00546105
-0.000836913
0.00687802
-0.00141697
0.00886226
-0.00198424
0.0113342
-0.00247192
0.0141531
-0.00281893
0.0171633
-0.00301023
0.0202131
-0.00304972
0.0232662
-0.00305315
-0.00311823
0.0131818
-0.0010227
-0.0124342
0.0154488
-0.00310385
0.0192657
-0.00523395
0.0245883
-0.00730676
0.0312397
-0.00912337
0.0389558
-0.010535
0.047484
-0.0115385
0.056604
-0.0121697
0.0661403
-0.0125894
-0.0127015
0.020996
-0.00217614
-0.0198425
0.0244741
-0.00658199
0.0302763
-0.0110362
0.0382894
-0.0153198
0.0482454
-0.0190794
0.0598008
-0.0220904
0.072648
-0.0243856
0.0865497
-0.0260714
0.101209
-0.0272488
-0.0273344
0.0279297
-0.00365715
-0.0264487
0.0323655
-0.0110178
0.0396862
-0.0183568
0.0496724
-0.025306
0.0619399
-0.0313469
0.076039
-0.0361896
0.0915632
-0.0399098
0.108211
-0.0427188
0.125557
-0.0445954
-0.0440185
0.0339075
-0.0321622
0.0390999
0.0475659
0.05894
0.072668
0.0881266
0.10472
0.12174
0.137672
0.0458567
-0.0512778
0.058704
-0.053283
0.038073
-0.0510548
0.0588386
0.0304033
-0.0495409
0.0572106
0.0232035
-0.0466041
0.0538039
0.0167388
-0.0422074
0.048672
0.0111407
-0.0364868
0.0420848
0.00651555
-0.0296501
0.0342753
0.00300928
-0.0219188
0.0254251
0.000788862
-0.0134906
0.015711
-0.00466115
0.00545001
0.0427907
-0.0435666
-0.0505019
0.0350893
-0.0433535
0.0276179
-0.0420696
0.0207124
-0.0396986
0.0146524
-0.0361473
0.00956865
-0.0314031
0.00550178
-0.0255833
0.00250012
-0.0189172
0.000643182
-0.0116337
-0.00401797
0.0414466
-0.0356518
-0.0493614
0.0336685
-0.0355754
0.0262357
-0.0346368
0.0193979
-0.0328608
0.0134367
-0.0301862
0.00855715
-0.0265235
0.00480651
-0.0218326
0.00214158
-0.0162522
0.000540727
-0.0100328
-0.00347724
0.0418138
-0.0275181
-0.0499475
0.0339073
-0.0276689
0.0263918
-0.0271213
0.0194539
-0.0259229
0.0133316
-0.0240639
0.0082906
-0.0214825
0.00450589
-0.0180479
0.00194792
-0.0136942
0.000482521
-0.00856744
-0.00299472
0.0439231
-0.0191094
-0.0523318
0.0357944
-0.0195402
0.0280867
-0.0194137
0.0209361
-0.0187723
0.0145091
-0.0176368
0.0090352
-0.0160086
0.00480149
-0.0138142
0.00198479
-0.0108775
0.0004758
-0.00705845
-0.00251892
0.0474056
-0.0103777
-0.0561374
0.0389919
-0.0111265
0.0310144
-0.0114362
0.0235851
-0.0113429
0.0168242
-0.0108759
0.0108813
-0.0100657
0.00598787
-0.00892077
0.00247457
-0.00736425
0.000563953
-0.00514784
-0.00195497
0.051405
-0.00132846
-0.0604543
0.0426955
-0.00241696
0.0344282
-0.00316894
0.0267047
-0.00361939
0.0196319
-0.00380306
0.0133222
-0.00375609
0.00791107
-0.00350964
0.00362683
-0.00308002
0.000873619
-0.00239463
-0.00108136
0.0546002
0.00799466
-0.0639233
0.0456326
0.00655062
0.0371173
0.00534639
0.0291471
0.00435076
0.0218208
0.00352326
0.0152472
0.00281746
0.00955014
0.00218744
0.00486414
0.00160598
0.00141421
0.00105529
0.000332844
0.0557712
0.0175912
-0.0653678
0.046554
0.0157678
0.0378105
0.0140899
0.0296315
0.0125297
0.0221048
0.01105
0.0153234
0.0095988
0.00941317
0.00809769
0.00459666
0.00642248
0.00127823
0.00437372
0.00161107
0.055028
-0.0649023
0.0455649
0.0366092
0.0282652
0.0206411
0.0138441
0.0080216