/*--------------------------------*- C++ -*----------------------------------*\
  =========                 |
  \\      /  F ield         | OpenFOAM: The Open Source CFD Toolbox
   \\    /   O peration     | Website:  https://openfoam.org
    \\  /    A nd           | Version:  13
     \\/     M anipulation  |
\*---------------------------------------------------------------------------*/
FoamFile
{
    format      ascii;
    class       surfaceScalarField;
    location    "64.6";
    object      phi;
}
// * * * * * * * * * * * * * * * * * * * * * * * * * * * * * * * * * * * * * //

dimensions      [0 3 -1 0 0 0 0];

internalField   nonuniform List<scalar> 
823
(
-0.00480064
0.018571
-0.0137704
0.00246697
0.0125871
-0.0198547
0.0446784
-0.0329246
-0.00928687
0.125342
-0.0887054
0.00804209
-0.114002
-0.0138151
0.253159
0.00785206
0.010719
0.0547632
-0.034324
0.141204
-0.119366
0.25084
-0.198341
-0.266856
0.403694
0.0224201
-0.0117012
0.105842
-0.117746
0.215964
-0.229487
0.323799
-0.306176
-0.352191
0.409134
0.0423069
-0.0540081
0.13729
-0.21273
0.222778
-0.314975
0.277116
-0.360514
-0.375283
0.300208
0.0555364
-0.109544
0.127287
-0.28448
0.169406
-0.357094
0.186012
-0.37712
0.193191
-0.382462
0.0093964
-0.038802
0.0294056
0.0264986
-0.0733594
0.0562572
0.0447825
-0.0779343
0.0596504
0.0648001
-0.065785
0.0457674
-0.0385201
0.0859422
0.017378
0.0240097
-0.0628118
0.0539733
-0.103323
0.0807213
-0.104682
0.10513
-0.0901939
-0.0612155
0.127826
0.0212036
-0.0840154
0.0384876
-0.120607
0.0518711
-0.118066
0.0621758
-0.100499
-0.068828
0.0697884
-0.0342438
-0.0497716
-0.092366
-0.0624847
-0.151517
-0.058915
-0.204169
-0.0478463
-0.0155651
-0.257432
-0.0635419
-0.145881
-0.214083
-0.253887
-0.283268
0.0790439
1.58989
-1.58299
0.242084
0.803785
-0.966825
0.469675
-1.61545
1.38786
0.525258
-1.29307
1.23748
-0.466096
0.458499
0.341862
1.37585
0.396674
0.748973
0.500731
-1.7195
0.543448
-1.33578
-0.470989
0.393408
1.05223
0.515135
0.627247
0.542081
-1.74645
0.518334
-1.31204
-0.471654
0.239247
0.555553
0.61012
0.256373
0.595935
-1.73226
0.530157
-1.24626
-0.436127
0.163607
0.108678
0.630444
-0.210463
0.564894
-1.66671
0.51041
-1.19178
-0.402959
0.990852
0.185882
-1.06806
1.40365
-0.623262
1.16904
-1.4321
0.853218
-0.875957
-0.278164
1.3846
0.16003
-1.35874
1.51232
-0.750986
1.10403
-1.02382
0.708891
-0.480815
-0.18751
1.44514
0.0472947
-1.33241
1.33461
-0.640452
0.958952
-0.648157
0.73245
-0.254313
-0.12563
1.39072
-0.0641126
-1.27931
1.12861
-0.37834
0.734019
-0.253568
0.578364
-0.0986576
-0.0601581
0.821334
-0.885446
0.442993
0.189426
0.090768
1.07271
0.139558
-1.01907
1.1407
0.232214
1.24625
0.303578
1.24779
0.402161
0.432891
0.990303
0.0712954
-0.92204
1.05184
0.170679
1.15893
0.196485
1.24955
0.311544
0.323696
0.944276
0.0318873
-0.904867
1.00359
0.111364
1.08694
0.113139
1.20372
0.194764
0.195004
0.898282
0.00815694
-0.874552
0.968479
0.0411675
1.0393
0.042318
1.15988
0.074179
0.0755756
0.652206
-0.644049
0.693374
0.735692
0.809871
0.122935
0.293771
-0.245136
-0.17157
0.0807426
0.30023
-0.258038
0.0432718
0.31065
-0.273179
0.0131919
0.300986
-0.270907
0.192433
-0.179241
0.090778
0.329851
-0.126858
0.0564342
0.334574
0.0265753
0.340509
0.00372655
0.323835
0.19616
0.0509788
0.358862
-0.0799898
0.0230629
0.36249
-3.73553e-05
0.363609
-0.00923087
0.333029
0.186929
-0.0207287
0.375523
0.00406779
-0.0352959
0.377057
-0.0406204
0.368934
-0.0293021
0.32171
0.157627
-0.0970896
0.0901499
-0.0971527
-0.0853126
-0.0480824
0.204218
0.0949666
-0.257805
-0.0413806
0.149557
0.0988479
-0.044186
0.0933097
0.103132
-0.0468849
0.038162
0.102672
-0.047524
0.0723208
-0.0341588
0.198734
0.14021
-0.243978
0.151148
0.146434
0.0984421
0.155838
0.0420507
0.159063
0.114371
0.15037
0.186043
-0.196203
0.106913
0.189891
0.0645995
0.198151
0.0243745
0.199288
0.138746
0.156907
0.220762
-0.191626
0.116331
0.230467
0.0712394
0.243243
0.0274774
0.24305
0.166223
0.0983818
-0.122756
0.0708105
0.0408744
0.0130181
0.404498
0.0578004
-0.0663184
0.42728
-0.00634826
-0.0164345
0.413855
0.181759
-0.168334
0.395449
0.16418
-0.145774
0.401932
-0.264287
0.403154
0.0506256
0.421996
-0.0251896
0.401779
0.201975
0.383002
0.182957
0.540956
0.398552
0.0480527
0.416416
-0.0430535
0.379084
0.239307
0.367722
0.194319
0.712475
0.398001
0.0460314
0.401648
-0.0467006
0.364714
0.276242
0.34573
0.213303
0.86658
0.392631
0.0493803
0.388274
-0.0423435
0.334208
0.330308
0.316423
0.231087
1.06025
0.634508
0.018893
0.643649
-0.0514846
0.671422
0.302534
0.773112
0.129397
0.857871
0.975489
0.651691
-0.0287772
0.62763
-0.0274243
0.694848
0.235316
0.781176
0.0430693
0.674017
0.96503
0.647554
-0.0723108
0.624058
-0.00392832
0.702821
0.156553
0.765433
-0.0195418
0.46859
0.970859
0.611045
-0.0793355
0.622201
-0.0150841
0.738813
0.0399408
0.747863
-0.028592
0.227989
0.988464
0.524685
0.509601
0.549542
0.52095
0.748939
0.990693
-0.186774
0.985122
-0.121287
0.978267
-0.0731344
0.991578
-0.00924343
0.0626553
0.918203
-0.139947
0.903751
-0.106835
0.885112
-0.0544959
0.906292
-0.0304234
0.0469076
0.923442
-0.0925302
0.896237
-0.0796297
0.883228
-0.0414864
0.884944
-0.0321402
0.0269846
0.93252
-0.0365858
0.887525
-0.0346351
0.86705
-0.0210116
0.85343
-0.0185192
0.00586255
0.712353
0.677718
0.656706
0.638187
0.0514969
0.18462
-0.236116
0.0729845
0.379397
-0.400884
0.0709208
0.429692
-0.427628
0.061552
0.427308
-0.417939
0.392503
0.0489012
-0.379852
0.0820886
0.102531
0.15075
0.310735
0.179891
0.400551
0.18441
0.422789
0.40441
0.172502
0.0746507
0.0278803
0.191916
0.19347
0.272403
0.320064
0.311043
0.384149
0.413854
0.301599
0.0394997
-0.0116194
0.160111
0.0728587
0.287337
0.192838
0.395621
0.275866
0.358713
0.450762
0.0111258
-0.0227452
0.0843232
-0.000338658
0.204038
0.0731234
0.338927
0.140977
0.251843
0.445797
0.0029441
-0.0256893
0.0352768
-0.0326713
0.112751
-0.00435112
0.220712
0.0330161
0.13898
0.333575
0.00644094
-0.0321302
0.0238145
-0.0500449
0.0592398
-0.0397764
0.106761
-0.0145049
0.0544139
0.191326
0.0027968
-0.034927
0.00781591
-0.055064
0.0171344
-0.0490949
0.0299204
-0.027291
0.0121412
0.0721932
-0.00326232
-0.0316647
-0.00467104
-0.0536553
-0.00137737
-0.0523886
0.00558709
-0.0342554
-0.00274024
0.0204685
-0.00225908
0.000342752
0.00760455
0.0191166
0.0337543
0.31093
1.09249
-1.06985
0.0510228
0.856449
-0.596542
0.0875854
-0.0853911
0.0488284
0.342858
-0.725526
0.470253
-0.140193
0.0995942
0.283522
1.0003
-0.00267246
1.14264
0.0903821
-0.178446
0.354395
-0.989538
-0.218672
0.00892709
1.06356
-0.0926154
1.24419
0.193915
-0.464976
0.33258
-1.1282
-0.33237
-0.276733
1.36076
-0.179765
1.14722
0.32055
-0.96529
0.37522
-1.18287
-0.422054
-0.188471
-0.00807797
0.414487
0.469097
-0.155552
0.64532
-0.489768
-0.262479
0.106927
-0.113602
-0.148878
0.153198
-0.266799
-0.0734778
0.767564
-1.19209
0.277949
0.177899
0.381354
0.093991
-0.0106361
-0.083355
0.149163
-0.0551724
0.229349
-0.0801857
0.364919
-0.13557
-0.124849
0.217209
-0.178943
0.334538
0.555951
0.871143
0.149179
-0.155395
0.186864
-0.180649
0.114427
-0.162219
0.196971
0.0746753
-0.171173
0.210925
0.030979
-0.172363
0.216059
-0.122885
0.153864
0.19322
-0.114314
-0.2343
0.146715
-0.115714
0.0937217
-0.11818
0.0389996
-0.11764
-0.0838857
0.190982
-0.0627486
-0.242548
0.138553
-0.0632848
0.0858772
-0.0655043
0.0350419
-0.0668051
-0.0488438
0.206027
-0.0103962
-0.258379
0.153002
-0.0102595
0.097955
-0.0104577
0.041537
-0.0103871
-0.0073068
0.211165
-0.262942
0.156719
0.0993767
0.0414656
0.0528961
-0.357181
-0.0755669
0.0227758
-0.387819
-0.00337197
-0.401481
-0.015877
-0.388379
-0.251993
0.136721
-0.322026
-0.171876
0.0920515
-0.343149
0.04656
-0.355989
0.010739
-0.352558
-0.241255
0.162173
-0.277885
-0.206314
0.113924
-0.2949
0.0669384
-0.309004
0.0244466
-0.310066
-0.216808
0.17794
-0.237864
-0.217961
0.131289
-0.248249
0.0817767
-0.259491
0.0332804
-0.26157
-0.183527
0.175019
-0.226018
0.123741
0.0751745
0.0296632
0.391003
0.0971935
-0.0922167
0.394626
0.0789331
-0.082556
0.361539
0.144509
-0.111422
0.314078
0.0221063
0.0253545
-0.267344
0.400773
0.398207
0.0949665
0.409116
0.0680236
0.398323
0.155302
0.35674
0.0636895
-0.144904
0.403031
0.0879153
0.418291
0.0527631
0.412021
0.161572
0.378872
0.0968383
-0.0085798
0.406575
0.0773199
0.423508
0.0358304
0.421762
0.163318
0.395411
0.12319
0.128452
0.406981
0.426377
0.421361
0.398777
0.416974
0.0930768
0.339167
0.0778068
0.258513
0.0806543
0.276768
-0.018255
-0.216705
0.493473
0.510911
0.506162
0.475394
0.482494
0.666562
0.395549
0.0979239
0.308846
0.0867026
0.207427
0.101419
0.121098
0.086329
0.0377433
0.538467
0.407209
0.302314
0.216767
)
;

boundaryField
{
    left
    {
        type            calculated;
        value           nonuniform List<scalar> 
17
(
-0.60402
-0.60402
-0.60402
-0.60402
-0.60402
-0.39598
-0.39598
-0.39598
-0.39598
-0.39598
-0.39598
-0.39598
-0.39598
-0.39598
-0.39598
-0.510051
-0.510051
)
;
    }
    right
    {
        type            calculated;
        value           nonuniform List<scalar> 
17
(
0.226675
0.40747
0.383457
0.432873
0.446278
0.464904
0.505543
0.532855
0.548341
0.518999
0.49463
0.477242
0.728423
0.618238
0.67057
0.512893
0.0306098
)
;
    }
    down
    {
        type            calculated;
        value           uniform 0;
    }
    up
    {
        type            calculated;
        value           uniform 0;
    }
    cylinder
    {
        type            calculated;
        value           uniform 0;
    }
    defaultFaces
    {
        type            empty;
    }
}


// ************************************************************************* //
