# Selection   : all
# Cells       : 440
# Volume      : 7.374263e+01
# Time        	max(p)
1.9           	1.975440e+00
1.95          	1.962022e+00
2             	1.952544e+00
