/*--------------------------------*- C++ -*----------------------------------*\
  =========                 |
  \\      /  F ield         | OpenFOAM: The Open Source CFD Toolbox
   \\    /   O peration     | Website:  https://openfoam.org
    \\  /    A nd           | Version:  13
     \\/     M anipulation  |
\*---------------------------------------------------------------------------*/
FoamFile
{
    format      ascii;
    class       volScalarField;
    location    "0.19";
    object      p;
}
// * * * * * * * * * * * * * * * * * * * * * * * * * * * * * * * * * * * * * //

dimensions      [0 2 -2 0 0 0 0];

internalField   nonuniform List<scalar> 
1800
(
6.09797
8.20444
10.3562
11.7832
12.6158
13.024
13.1518
12.9902
11.739
7.64414
9.94745
12.4225
14.9265
16.6093
17.6643
18.3251
18.7775
19.0136
18.2855
15.6049
16.3391
18.9633
21.6353
23.4978
24.7569
25.6374
26.2866
26.6681
26.1946
24.3618
25.3338
27.9029
30.5508
32.4647
33.8293
34.8376
35.5991
36.0499
35.6423
33.9566
36.3922
38.7528
41.2048
43.016
44.34
45.3357
46.0896
46.5382
46.1871
44.6309
49.0692
51.1216
53.2651
54.8712
56.0619
56.9638
57.6457
58.0558
57.774
56.4142
63.018
64.6908
66.4465
67.7783
68.7802
69.5496
70.1407
70.5173
70.3418
69.2528
77.9445
79.1861
80.4972
81.5065
82.2823
82.896
83.3899
83.7445
83.7107
82.974
93.5638
94.3436
95.1752
95.83
96.3527
96.79
97.1726
97.4957
97.6057
97.2708
109.594
109.899
110.231
110.505
110.743
110.964
111.18
111.394
111.555
111.582
-0.231959
-0.481458
-0.261645
0.142535
0.611215
1.07011
1.40888
1.60675
1.75581
1.90832
-0.0457744
-0.588065
-0.732124
-0.539381
-0.119109
0.279146
0.54313
0.780426
1.06735
1.34193
0.941324
-0.0617581
-0.938644
-1.10178
-0.771062
-0.493063
-0.302275
-0.00110523
0.403414
0.783823
1.28318
0.117515
-1.10242
-1.42927
-1.20954
-1.07786
-0.968076
-0.668404
-0.21815
0.284735
0.818344
-0.16016
-1.10684
-1.39357
-1.34076
-1.36091
-1.32909
-1.07128
-0.586378
0.103792
0.102759
-0.41636
-0.819188
-0.948852
-0.969726
-1.03464
-1.02787
-0.82516
-0.307951
0.620175
-0.229856
-0.191405
-0.0157473
0.130194
0.216203
0.237948
0.274122
0.437855
1.00947
2.23613
0.26237
0.849574
1.57009
2.07418
2.40402
2.61684
2.76358
2.97566
3.70199
5.36159
1.71814
2.82631
4.07404
4.99468
5.66383
6.15464
6.49186
6.82723
7.81042
10.0952
3.96557
5.60811
7.42531
8.80006
9.82126
10.5792
11.0982
11.5469
12.6034
14.7631
2.62648
2.77282
2.69551
2.47365
1.98545
1.55082
1.18405
0.851315
0.516383
0.174586
2.24922
2.71876
2.55992
2.35934
1.88705
1.47966
1.13933
0.823454
0.500774
0.169361
1.75142
2.66884
2.433
2.2374
1.78947
1.41089
1.0975
0.797945
0.486772
0.164808
1.12166
2.58158
2.32043
2.11114
1.69271
1.3446
1.05836
0.774838
0.474399
0.160901
0.435422
2.41491
2.21327
1.98337
1.59716
1.28078
1.02178
0.754206
0.46369
0.157635
-0.123463
2.15351
2.09233
1.85418
1.50328
1.21967
0.987791
0.73615
0.454695
0.155027
-0.258772
1.8253
1.93975
1.71975
1.41068
1.16172
0.956686
0.72081
0.447479
0.153104
0.480896
1.51495
1.74105
1.56717
1.3147
1.10655
0.928956
0.708378
0.442115
0.151932
2.74372
1.39357
1.47089
1.36546
1.20168
1.05159
0.904964
0.699116
0.438708
0.151587
6.98268
1.77639
1.14445
1.08827
1.05484
0.992262
0.884331
0.692924
0.437219
0.152153
10.335
3.00567
1.20123
0.922353
0.912883
0.923938
0.857888
0.681794
0.432572
0.15269
12.1562
3.02085
0.740175
0.481681
0.680631
0.851021
0.84241
0.678433
0.431723
0.153979
13.2474
3.15831
0.722484
0.40217
0.674631
0.884287
0.857682
0.677082
0.426542
0.148518
14.5199
4.65497
1.50087
0.901898
0.973233
1.0178
0.885631
0.669776
0.416717
0.137388
16.6758
7.38564
2.94526
1.82863
1.48913
1.22678
0.9312
0.663826
0.403604
0.124572
19.5858
10.206
4.6684
2.90107
2.10149
1.4882
0.997053
0.661793
0.389155
0.112192
22.1129
12.3139
6.2543
3.94041
2.72994
1.78159
1.0878
0.67218
0.37933
0.103079
23.3984
13.5129
7.48022
4.88006
3.33486
2.0841
1.19841
0.697214
0.377331
0.0986309
23.3372
13.8927
8.34716
5.7383
3.92753
2.39889
1.3332
0.742532
0.387579
0.100176
22.7835
14.116
9.11498
6.59087
4.53586
2.74398
1.50748
0.822137
0.421133
0.11017
112.137
98.1904
84.4247
71.4189
59.479
48.6979
39.1149
30.4352
20.4203
5.31522
113.117
99.8284
86.3267
73.3201
61.2778
50.3984
40.8675
32.6121
23.9488
11.8347
113.65
100.563
87.6808
75.3535
63.8148
53.224
43.7968
35.6127
27.8316
18.6993
114.86
103.119
91.159
79.3257
67.9662
57.3683
47.7335
39.1329
31.4268
24.1639
115.437
104.426
93.5057
82.8141
72.466
62.5391
53.0725
44.1561
36.3312
30.1467
115.787
105.06
94.5531
84.3916
74.6714
65.4426
56.6835
48.4415
41.3976
36.3763
116.018
105.459
95.1474
85.2153
75.7729
66.8932
58.5855
50.9195
44.5673
40.4494
116.118
105.597
95.3303
85.4589
76.1049
67.3595
59.2564
51.8642
45.7493
41.7924
116.068
105.382
94.9558
84.9366
75.4576
66.6253
58.4958
51.1273
44.9049
40.4543
115.944
104.997
94.3098
84.0322
74.3068
65.2569
56.9627
49.469
42.9615
37.7686
234.518
230.171
228.616
228.183
228.097
228.352
229.088
230.47
232.623
234.762
225.944
222.938
221.898
221.865
222.094
222.582
223.514
225.123
227.595
230.072
216.423
214.258
213.491
213.62
214.054
214.759
215.886
217.656
220.271
222.869
206.111
204.091
203.391
203.589
204.135
204.966
206.191
208
210.569
213.088
194.783
192.879
192.227
192.416
192.95
193.762
194.94
196.634
198.989
201.28
182.413
180.692
180.1
180.243
180.697
181.409
182.445
183.923
185.953
187.918
169.064
167.604
167.112
167.215
167.572
168.145
168.984
170.178
171.805
173.376
154.928
153.813
153.459
153.537
153.793
154.206
154.813
155.676
156.846
157.974
140.317
139.604
139.397
139.447
139.593
139.828
140.178
140.68
141.362
142.018
125.79
125.447
125.307
125.26
125.248
125.27
125.337
125.456
125.634
125.81
246.732
246.96
247.203
247.418
247.705
248.177
248.703
249.03
249.041
248.544
246.893
247.211
247.597
247.891
248.078
248.386
248.788
248.717
247.932
246.926
246.988
247.374
247.806
248.11
248.189
248.306
248.574
248.221
246.847
245.585
246.928
247.425
247.848
248.08
248.024
247.92
247.96
247.54
246.234
245.055
246.464
247.12
247.514
247.631
247.474
247.22
247.061
246.707
245.884
245.072
245.259
246.109
246.462
246.447
246.241
245.982
245.805
245.642
245.396
245.096
242.904
244.012
244.372
244.282
244.096
243.952
243.933
244.072
244.38
244.615
239.012
240.51
241.001
240.958
240.894
240.959
241.207
241.709
242.524
243.263
233.533
235.6
236.326
236.411
236.55
236.905
237.499
238.408
239.716
240.929
228.17
230.048
230.809
230.988
231.303
231.925
232.87
234.223
236.072
237.782
247.464
247.208
247.182
246.929
246.726
246.462
246.11
245.87
245.791
245.924
247.426
247.203
247.174
246.927
246.727
246.479
246.151
245.91
245.677
246.025
247.399
247.197
247.166
246.922
246.725
246.497
246.195
245.924
245.52
246.189
247.381
247.191
247.159
246.914
246.721
246.513
246.232
245.897
245.361
246.43
247.37
247.185
247.152
246.903
246.716
246.526
246.252
245.834
245.254
246.686
247.367
247.18
247.146
246.89
246.71
246.532
246.251
245.758
245.225
246.784
247.372
247.174
247.139
246.876
246.702
246.528
246.232
245.692
245.246
246.428
247.384
247.168
247.132
246.861
246.692
246.518
246.21
245.658
245.233
245.169
247.403
247.163
247.124
246.844
246.681
246.513
246.223
245.687
245.024
242.379
247.429
247.157
247.113
246.828
246.672
246.532
246.303
245.769
244.319
237.653
247.471
247.154
247.096
246.808
246.642
246.475
246.159
245.342
242.706
234.041
247.58
247.154
247.089
246.797
246.629
246.559
246.415
245.569
242.428
232.066
247.82
247.175
247.093
246.769
246.575
246.573
246.541
245.612
242.222
230.84
248.301
247.256
247.108
246.73
246.441
246.325
246.157
245.02
240.926
229.698
249.194
247.382
247.15
246.631
246.22
245.794
245.217
243.682
238.458
227.865
250.991
247.476
247.235
246.527
245.942
245.108
244.018
241.91
235.736
225.274
254.848
247.726
247.342
246.436
245.619
244.394
242.844
240.205
233.592
222.895
263.142
248.823
247.555
246.354
245.279
243.719
241.809
238.871
232.316
221.619
280.709
251.534
248.141
246.35
244.951
243.091
240.9
237.929
231.864
221.647
306.69
255.576
249.599
246.522
244.682
242.497
240.033
237.122
231.596
222.175
236.78
221.42
210.795
201.48
191.32
180.017
167.624
154.252
140.207
126.076
230.359
218.054
208.907
200.194
190.264
179.032
166.69
153.441
139.717
126.243
223.828
214.462
206.293
197.775
188.066
177.228
165.476
152.975
139.955
126.775
218.762
211.255
203.264
194.414
184.567
173.795
162.296
150.346
138.279
126.443
213.383
206.979
198.973
189.867
180.189
170.047
159.494
148.627
137.572
126.48
207.735
202.431
195.168
186.697
177.7
168.248
158.331
148.011
137.392
126.605
203.908
199.473
192.889
184.998
176.469
167.387
157.769
147.697
137.287
126.678
202.621
198.372
192.033
184.426
176.118
167.185
157.669
147.667
137.31
126.742
203.948
199.241
192.798
185.219
176.891
167.879
158.245
148.101
137.587
126.856
206.622
201.195
194.465
186.76
178.269
169.041
159.161
148.76
137.985
126.993
112.49
112.66
112.744
112.595
112.089
111.728
111.543
111.828
111.82
111.571
89.9221
90.3852
90.6037
90.1701
88.7385
87.6523
87.0315
87.693
87.7306
87.1443
69.0857
69.713
69.974
69.3073
67.3683
65.657
64.637
65.1856
65.49
64.9351
50.9741
51.5801
51.7693
50.9461
48.9674
46.8019
45.4722
45.5076
46.2461
46.013
36.3346
36.7424
36.7922
35.9106
34.1189
31.8035
30.1603
29.5952
30.4027
30.5907
25.2879
25.3905
25.2678
24.3441
22.7661
20.7371
18.9473
18.006
18.2605
18.7606
17.4069
17.255
17.039
16.0477
14.6323
13.1288
11.6432
10.5789
10.2382
10.6037
11.9254
11.7455
11.694
10.6944
9.37518
8.37339
7.48501
6.6444
6.0545
5.96833
8.25244
8.16158
8.45262
7.58388
6.41874
5.82992
5.50555
5.12518
4.64068
4.25741
6.37467
6.17024
6.55204
5.81373
4.94635
4.67494
4.70467
4.69941
4.54725
4.14813
5.59465
5.35827
5.4411
4.74872
4.22125
4.17299
4.33032
4.47666
4.59779
4.65201
5.15703
5.04605
4.7685
4.1063
3.82909
3.92612
4.1369
4.30714
4.42628
4.51063
4.7745
4.72606
4.29001
3.74393
3.63383
3.80645
4.03719
4.21767
4.33511
4.39415
4.31834
4.25788
3.84789
3.50284
3.52057
3.73022
3.94587
4.10406
4.20252
4.24325
3.76733
3.66857
3.40061
3.28955
3.4113
3.62869
3.81847
3.95602
4.0374
4.06132
3.11712
3.02407
2.97432
3.07268
3.27151
3.47474
3.63927
3.75825
3.82594
3.84069
2.40932
2.43094
2.56941
2.80418
3.03997
3.23912
3.39561
3.51189
3.58151
3.59948
1.76111
1.87725
2.12165
2.40934
2.66522
2.88289
3.06501
3.21006
3.30116
3.33077
1.1001
1.22405
1.48771
1.81166
2.12308
2.40211
2.64829
2.83637
2.93934
2.97685
0.424562
0.333932
0.569347
0.975628
1.39528
1.78413
2.10873
2.31572
2.4147
2.4806
3.98995
4.04552
3.92441
3.58655
2.91455
2.21816
1.61456
1.09619
0.630221
0.215406
4.05852
4.00836
3.87451
3.56946
2.86981
2.1595
1.56886
1.06894
0.618078
0.215181
4.07889
3.89527
3.76152
3.51546
2.82117
2.10309
1.52556
1.04388
0.607394
0.213807
4.03475
3.7219
3.60847
3.4144
2.76064
2.04748
1.48436
1.02069
0.597779
0.210873
3.9279
3.52599
3.4455
3.26534
2.67799
1.9891
1.44444
0.998816
0.588814
0.20668
3.77441
3.34635
3.29791
3.09245
2.5694
1.92532
1.40536
0.978069
0.580318
0.201695
3.59681
3.19656
3.17144
2.92938
2.44142
1.85472
1.36674
0.958698
0.572655
0.196912
3.40359
3.06936
3.059
2.79418
2.31103
1.77772
1.32524
0.93779
0.563839
0.192217
3.18482
2.95412
2.94786
2.68247
2.19234
1.69924
1.27888
0.910942
0.550066
0.186524
2.92873
2.85189
2.82744
2.57967
2.08587
1.62387
1.23124
0.88121
0.533417
0.180511
5.75558
4.30878
3.61725
3.2436
2.74806
2.1943
1.63393
1.11279
0.633684
0.209919
4.95193
4.09042
3.65593
3.30423
2.78878
2.20944
1.63687
1.11183
0.633465
0.210344
4.28176
4.00149
3.71858
3.37247
2.82683
2.22182
1.63886
1.1117
0.634015
0.211424
3.96171
4.00449
3.80519
3.4509
2.86555
2.2323
1.64004
1.11202
0.635235
0.212918
3.94617
4.05152
3.90933
3.54145
2.90778
2.24096
1.63919
1.11197
0.637132
0.214936
112.32
89.2602
68.2154
50.4496
36.4401
26.1245
18.9581
14.0848
10.9034
9.08872
112.1
88.6981
67.5095
49.7155
35.638
25.1203
17.6545
12.5517
9.40975
7.90898
111.914
88.218
66.8715
48.9751
34.7271
23.9477
16.2343
11.0173
7.87355
6.41457
111.703
87.6444
66.0313
47.9106
33.4026
22.3537
14.4626
9.23242
6.14749
4.7712
111.449
86.9165
64.9023
46.4378
31.6027
20.2858
12.2929
7.25898
4.77834
3.96386
244.024
244.06
244.177
244.348
244.563
244.576
244.077
243.38
243.479
243.253
244.24
244.31
244.421
244.609
244.881
245.059
244.847
244.202
243.939
243.827
244.442
244.488
244.599
244.793
245.077
245.339
245.316
244.813
244.379
244.321
244.684
244.716
244.812
244.982
245.234
245.518
245.622
245.356
244.968
244.893
244.947
244.964
245.044
245.188
245.395
245.65
245.849
245.853
245.691
245.596
245.213
245.225
245.293
245.412
245.58
245.803
246.066
246.301
246.403
246.39
245.453
245.471
245.552
245.687
245.864
246.093
246.386
246.73
247.016
247.132
245.708
245.729
245.825
246.013
246.265
246.564
246.916
247.308
247.648
247.816
246.062
246.097
246.18
246.398
246.755
247.193
247.68
248.172
248.492
248.456
246.451
246.56
246.668
246.86
247.243
247.786
248.359
248.883
249.212
249.013
136.796
136.537
136.514
136.777
136.559
136.161
135.62
135.448
135.519
135.684
161.24
160.643
160.665
161.302
160.649
159.527
158.063
157.607
157.812
158.27
183.477
182.911
183.199
183.721
182.671
180.926
178.958
178.269
178.517
179.14
202.438
202.192
202.911
202.921
201.563
199.366
197.359
196.515
196.693
197.294
217.904
218.079
218.863
218.275
216.607
214.263
212.442
211.539
211.578
211.982
229.78
230.262
230.491
229.531
227.724
225.668
224.059
223.112
222.978
223.077
237.977
238.312
237.948
236.873
235.382
233.855
232.405
231.388
231.161
231.007
242.629
242.507
241.894
241.061
240.184
239.168
237.817
236.791
236.727
236.545
244.35
243.928
243.432
243.075
242.78
242.196
241.011
240.116
240.394
240.305
244.488
244.06
243.905
243.926
244
243.761
242.893
242.133
242.512
242.321
255.251
247.345
247.992
246.755
246.449
245.917
245.321
244.919
244.779
244.808
252.426
247.287
247.81
246.753
246.498
245.973
245.342
244.959
244.864
244.783
250.52
247.299
247.597
246.765
246.549
246.032
245.389
245.062
245.035
244.818
249.374
247.321
247.394
246.795
246.598
246.097
245.475
245.219
245.254
244.922
248.691
247.308
247.277
246.836
246.641
246.17
245.605
245.399
245.472
245.08
248.237
247.257
247.239
246.872
246.675
246.252
245.759
245.557
245.645
245.26
247.929
247.224
247.225
246.897
246.69
246.332
245.897
245.669
245.761
245.434
247.728
247.214
247.213
246.912
246.698
246.394
245.99
245.737
245.829
245.59
247.6
247.213
247.202
246.921
246.71
246.427
246.041
245.782
245.858
245.729
247.518
247.212
247.192
246.927
246.721
246.445
246.075
245.824
245.849
245.838
317.76
254.207
250.357
247.357
246.581
246.003
245.596
245.231
244.521
242.987
296.029
251.819
249.249
247.141
246.494
245.965
245.546
245.196
244.73
243.788
277.585
249.664
248.665
246.983
246.449
245.938
245.491
245.134
244.809
244.46
266.177
248.322
248.35
246.869
246.425
245.917
245.428
245.048
244.798
244.788
259.404
247.599
248.133
246.778
246.416
245.898
245.355
244.942
244.748
244.82
239.562
237.712
234.497
229.591
222.391
212.041
197.995
180.197
159.127
136.052
240.744
239.207
236.033
230.899
223.4
212.847
198.732
180.904
159.69
136.273
242.257
240.758
237.577
232.326
224.578
213.762
199.476
181.544
160.171
136.46
243.92
242.513
239.385
234.112
226.18
215.091
200.542
182.385
160.744
136.669
244.706
243.87
241.369
236.299
228.259
216.895
202.017
183.515
161.472
136.922
)
;

boundaryField
{
    left
    {
        type            zeroGradient;
    }
    right
    {
        type            fixedValue;
        value           uniform 0;
    }
    down
    {
        type            zeroGradient;
    }
    up
    {
        type            zeroGradient;
    }
    cylinder
    {
        type            zeroGradient;
    }
    defaultFaces
    {
        type            empty;
    }
}


// ************************************************************************* //
