/*--------------------------------*- C++ -*----------------------------------*\
  =========                 |
  \\      /  F ield         | OpenFOAM: The Open Source CFD Toolbox
   \\    /   O peration     | Website:  https://openfoam.org
    \\  /    A nd           | Version:  13
     \\/     M anipulation  |
\*---------------------------------------------------------------------------*/
FoamFile
{
    format      ascii;
    class       surfaceScalarField;
    location    "0.19";
    object      phi;
}
// * * * * * * * * * * * * * * * * * * * * * * * * * * * * * * * * * * * * * //

dimensions      [0 3 -1 0 0 0 0];

internalField   nonuniform List<scalar> 
3485
(
0.00137095
-0.011259
0.00988804
0.00504865
-0.0319095
0.0282318
0.0107591
-0.0513872
0.0456768
0.0183042
-0.0696826
0.0621375
0.0275333
-0.0868419
0.0776127
0.0383324
-0.102909
0.0921097
0.0506128
-0.117914
0.105634
0.0643317
-0.131878
0.11816
0.0795865
-0.144868
0.129613
-0.156898
0.139511
0.0969734
0.0014999
-0.0127589
0.00544425
-0.0358539
0.0114729
-0.0574159
0.0193181
-0.0775278
0.0287648
-0.0962886
0.0396359
-0.11378
0.0517871
-0.130065
0.0651108
-0.145202
0.0795156
-0.159272
-0.172199
0.0948161
0.00147393
-0.0142328
0.00532605
-0.039706
0.0111725
-0.0632623
0.0187174
-0.0850727
0.0277201
-0.105291
0.0379813
-0.124041
0.0493352
-0.141419
0.0616424
-0.157509
0.0747711
-0.172401
-0.186038
0.0886102
0.00133873
-0.0155715
0.00485847
-0.0432257
0.0102096
-0.0686134
0.0171149
-0.091978
0.0253505
-0.113527
0.0347356
-0.133426
0.0451242
-0.151808
0.0563965
-0.168782
0.068446
-0.184451
-0.198791
0.0811995
0.00116686
-0.0167384
0.0042557
-0.0463146
0.00897247
-0.0733302
0.0150805
-0.098086
0.0223898
-0.120836
0.0307497
-0.141786
0.0400427
-0.161101
0.0501761
-0.178915
0.0610725
-0.195347
-0.210403
0.0726842
0.000980011
-0.0177184
0.00358787
-0.0489224
0.00758637
-0.0773287
0.0127835
-0.103283
0.0190253
-0.127078
0.0261914
-0.148952
0.03419
-0.1691
0.0429517
-0.187677
0.0524216
-0.204817
-0.22055
0.0625688
0.000780759
-0.0184992
0.00286509
-0.0510067
0.0060691
-0.0805327
0.010243
-0.107457
0.0152666
-0.132102
0.0210468
-0.154732
0.0275143
-0.175567
0.0346205
-0.194783
0.0423314
-0.212528
-0.228852
0.0506333
0.000569774
-0.0190689
0.00209368
-0.0525306
0.00443827
-0.0828773
0.00749326
-0.110512
0.0111694
-0.135778
0.0153977
-0.158961
0.0201286
-0.180298
0.0253307
-0.199985
0.0309879
-0.218185
-0.234969
0.0371048
0.000352603
-0.0194215
0.00129606
-0.0534741
0.00274558
-0.0843268
0.00462917
-0.112396
0.00688756
-0.138036
0.0094744
-0.161547
0.0123568
-0.18318
0.0155159
-0.203144
0.0189466
-0.221616
-0.238686
0.0226634
0.000137905
-0.0195595
0.000502806
-0.053839
0.00105759
-0.0848816
0.00177044
-0.113108
0.00261485
-0.138881
0.00356969
-0.162502
0.00461945
-0.18423
0.0057546
-0.204279
0.00697169
-0.222833
0.00827577
-0.23999
0.00045983
-0.00181848
0.00135865
0.00202742
-0.00618145
0.00461385
0.00538348
-0.0114596
0.00810352
0.0100511
-0.0162697
0.011602
0.0154058
-0.0202271
0.0148725
0.0212353
-0.0235922
0.0177627
0.0276714
-0.026783
0.0203469
0.0348508
-0.0300042
0.0228248
0.042731
-0.0331741
0.0252939
-0.0361395
0.0511696
0.0277009
0.000438585
-0.00225706
0.00214947
-0.00789234
0.00547394
-0.0147841
0.00979673
-0.0205925
0.0148196
-0.02525
0.0206896
-0.0294623
0.027564
-0.0336574
0.0353547
-0.0377949
0.0438406
-0.04166
-0.0451676
0.0528687
0.000701158
-0.00295822
0.00276615
-0.00995733
0.00580964
-0.0178275
0.00977229
-0.0245551
0.0148366
-0.0303143
0.0211614
-0.0357871
0.0286464
-0.0411424
0.0370055
-0.0461541
0.0460382
-0.0506926
-0.0547923
0.0556629
0.000881822
-0.00384004
0.00308926
-0.0121648
0.00610339
-0.0208417
0.010237
-0.0286888
0.0157585
-0.0358357
0.0226266
-0.0426552
0.0305937
-0.0491095
0.0394406
-0.055001
0.0490835
-0.0603355
-0.0651454
0.0594366
0.000930226
-0.00477027
0.00321521
-0.0144498
0.00653917
-0.0241656
0.0111493
-0.0332989
0.0171762
-0.0418627
0.0244876
-0.0499666
0.0328994
-0.0575213
0.0423233
-0.0644249
0.0526943
-0.0707065
-0.0763273
0.0638762
0.000947227
-0.0057175
0.00337993
-0.0168825
0.00710202
-0.0278877
0.0121882
-0.0383851
0.018647
-0.0483214
0.0263678
-0.0576874
0.0352573
-0.0664107
0.0452681
-0.0744358
0.0563195
-0.0817579
-0.0882612
0.0682534
0.00098098
-0.00669848
0.00358576
-0.0194872
0.00764241
-0.0319444
0.0131062
-0.0438489
0.0199218
-0.055137
0.0280039
-0.0657695
0.0372904
-0.0756973
0.0477342
-0.0848795
0.0592619
-0.0932857
-0.100729
0.0717299
0.00101774
-0.00771621
0.00376605
-0.0222356
0.00806641
-0.0362447
0.0138108
-0.0495933
0.0209053
-0.0622316
0.0292614
-0.0741255
0.038809
-0.0852449
0.0494912
-0.0955617
0.0612497
-0.105044
-0.113465
0.0739853
0.00105379
-0.00877
0.00393352
-0.0251153
0.00845394
-0.0407652
0.01447
-0.0556093
0.0218559
-0.0696174
0.0305013
-0.0827709
0.0403109
-0.0950546
0.051196
-0.106447
0.0630758
-0.116924
-0.126335
0.0759462
0.00111804
0.00423456
0.00914622
0.0156744
0.0236697
0.0330085
0.0435878
0.0553006
0.0679893
0.0811656
0.113819
-0.414442
0.351793
0.167066
-0.469399
0.416151
0.20794
-0.415365
0.374491
0.239408
-0.316282
0.284814
0.261597
-0.200785
0.178596
0.273663
-0.102101
0.0900354
0.278729
-0.0501783
0.0451115
0.280441
-0.0276624
0.0259507
0.280182
-0.0162256
0.016485
-0.00474704
0.00673324
0.115724
-0.477297
0.169145
-0.52282
0.210219
-0.456439
0.241397
-0.347459
0.263163
-0.222552
0.274623
-0.113561
0.27931
-0.054865
0.280856
-0.0292087
0.28057
-0.0159389
-0.00284829
0.117767
-0.539401
0.170414
-0.575467
0.211431
-0.497456
0.242237
-0.378265
0.263664
-0.243979
0.274801
-0.124698
0.279384
-0.0594484
0.280978
-0.0308021
0.28085
-0.0158114
-0.00123007
0.120258
-0.600223
0.171074
-0.626283
0.211595
-0.537977
0.241961
-0.408631
0.263156
-0.265174
0.274237
-0.135779
0.278956
-0.0641671
0.280799
-0.0326451
0.281014
-0.0160267
-8.46443e-05
0.12316
-0.659506
0.171319
-0.674442
0.210755
-0.577413
0.240585
-0.438461
0.261659
-0.286249
0.272936
-0.147056
0.278021
-0.069252
0.280314
-0.0349382
0.281055
-0.0167675
0.000399068
0.125966
-0.717219
0.171219
-0.719694
0.208979
-0.615173
0.238114
-0.467596
0.259163
-0.307298
0.270882
-0.158774
0.276575
-0.0749455
0.27952
-0.0378827
0.280963
-0.0182106
3.19299e-05
0.127843
-0.773333
0.170646
-0.762497
0.206357
-0.650885
0.234599
-0.495838
0.255673
-0.328372
0.268069
-0.17117
0.274623
-0.0814994
0.278416
-0.0416757
0.280733
-0.0205275
-0.00136981
0.127875
-0.827223
0.16916
-0.803782
0.202814
-0.684539
0.230006
-0.523029
0.251113
-0.34948
0.264437
-0.184494
0.272152
-0.0892137
0.277002
-0.0465256
0.280356
-0.0238821
-0.00398948
0.125764
-0.877041
0.166384
-0.844402
0.19837
-0.716525
0.224477
-0.549136
0.245581
-0.370583
0.260064
-0.198977
0.26922
-0.0983698
0.275295
-0.0526006
0.279831
-0.0284172
-0.00800361
0.12207
-0.917945
0.161527
-0.883858
0.192202
-0.7472
0.217404
-0.574338
0.238575
-0.391755
0.254604
-0.215006
0.265705
-0.109471
0.273261
-0.060157
0.279136
-0.0342921
-0.0135929
0.583453
-0.919986
-0.581413
0.559945
-0.86035
0.521814
-0.709069
0.484697
-0.537221
0.457369
-0.364427
0.444085
-0.201721
0.440383
-0.105769
0.438188
-0.0579618
0.436181
-0.0322855
-0.0132614
0.682171
-0.870843
-0.731314
0.618536
-0.796715
0.552906
-0.643438
0.497464
-0.48178
0.459745
-0.326709
0.445255
-0.187231
0.440142
-0.100657
0.434509
-0.0523284
0.429082
-0.0268581
-0.0114341
0.75369
-0.774254
-0.850278
0.655344
-0.69837
0.56573
-0.553824
0.494384
-0.410434
0.446466
-0.27879
0.423832
-0.164597
0.410077
-0.0869019
0.400511
-0.0427621
0.394203
-0.0205505
-0.00913863
0.779461
-0.64114
-0.912575
0.655195
-0.574104
0.54967
-0.4483
0.4676
-0.328364
0.410846
-0.222036
0.380636
-0.134387
0.365903
-0.0721685
0.35765
-0.0345092
0.352626
-0.0155265
-0.00706439
0.753517
-0.492234
-0.902423
0.618792
-0.439378
0.508686
-0.338194
0.424794
-0.244472
0.367137
-0.164379
0.334404
-0.101653
0.318367
-0.0561316
0.31029
-0.0264329
0.305939
-0.0111748
-0.00516655
0.685374
-0.345808
-0.8318
0.55335
-0.307354
0.447907
-0.232751
0.369024
-0.165588
0.315102
-0.110457
0.283054
-0.0696058
0.266732
-0.0398096
0.259065
-0.0187661
0.255416
-0.00752523
-0.00353388
0.582699
-0.213891
-0.714615
0.463146
-0.187802
0.370063
-0.139667
0.301815
-0.0973405
0.255667
-0.064309
0.227388
-0.0413264
0.212159
-0.024581
0.2051
-0.0117068
0.202052
-0.00447746
-0.00215918
0.448748
-0.105556
-0.557083
0.351234
-0.0902874
0.27738
-0.0658134
0.224627
-0.0445878
0.189468
-0.0291497
0.167357
-0.0192156
0.154729
-0.0119523
0.148796
-0.00577404
0.146411
-0.00209234
-0.00107097
0.286551
-0.0302349
-0.361872
0.220883
-0.0246188
0.172582
-0.0175124
0.139276
-0.0112824
0.117385
-0.00725869
0.10317
-0.00500065
0.0945453
-0.00332733
0.0904241
-0.00165286
0.0888896
-0.000557856
-0.000331732
0.101288
-0.131523
0.0766695
0.0591572
0.0478748
0.0406161
0.0356155
0.0322881
0.0306353
0.0300774
0.738828
0.0102216
-0.740774
0.733082
0.0284092
0.723442
0.0467449
0.710166
0.0639089
0.693569
0.0791657
0.67407
0.0921839
0.652258
0.103012
0.628687
0.112181
0.604228
0.119275
0.119789
0.845557
0.0133943
-0.848729
0.837327
0.0366384
0.82729
0.0567827
0.816589
0.0746098
0.805236
0.0905181
0.792869
0.104552
0.779237
0.116644
0.764515
0.126902
0.749018
0.134772
0.137492
0.84501
0.0114291
-0.843044
0.848908
0.0327399
0.853046
0.0526447
0.856497
0.0711594
0.858852
0.088163
0.859925
0.103479
0.859577
0.116991
0.857916
0.128564
0.855205
0.137484
0.142418
0.800228
0.00930956
-0.798109
0.805838
0.0271302
0.814441
0.0440418
0.825669
0.0599312
0.839049
0.0747831
0.853917
0.088611
0.869505
0.101403
0.885151
0.112917
0.90004
0.122595
0.129883
0.737877
0.00704451
-0.735612
0.744166
0.0208413
0.754136
0.0340714
0.767519
0.0465477
0.784107
0.058196
0.803699
0.0690189
0.826051
0.0790511
0.85072
0.0882479
0.876685
0.0966292
0.104145
0.653927
0.00485921
-0.651742
0.66021
0.0145587
0.670385
0.0238962
0.684228
0.0327047
0.701533
0.040891
0.722123
0.048429
0.745825
0.0553489
0.772364
0.0617088
0.801278
0.0677153
0.0736234
0.549115
0.00292
-0.547176
0.554816
0.00885781
0.564142
0.0145705
0.576908
0.019938
0.592916
0.0248827
0.611969
0.0293767
0.633871
0.0334463
0.658409
0.0371709
0.685389
0.040736
0.0443967
0.422793
0.00137796
-0.421251
0.427413
0.00423705
0.435008
0.00697558
0.445422
0.0095247
0.458468
0.0118364
0.473953
0.0138921
0.49169
0.0157089
0.511518
0.0173434
0.533334
0.0189194
0.0206474
0.273827
0.000367391
-0.272817
0.276915
0.0011498
0.281998
0.00189174
0.288954
0.00256904
0.297627
0.00316369
0.307851
0.00366791
0.319474
0.0040863
0.332383
0.00443435
0.346544
0.00475746
0.00531968
0.100483
-0.100116
0.101633
0.103525
0.106094
0.109258
0.112925
0.117012
0.121446
0.126204
0.0780165
0.159409
-0.142369
-0.0950567
0.0630891
0.147387
-0.132459
0.0496611
0.134352
-0.120924
0.0376315
0.120295
-0.108265
0.0270438
0.105147
-0.0945595
0.0179876
0.0888816
-0.0798254
0.0105776
0.0714558
-0.0640458
0.00496506
0.0528099
-0.0471974
0.00134835
0.0328772
-0.0292605
0.0116412
-0.0102928
0.0780028
0.174365
-0.0929582
0.063913
0.161477
0.0508666
0.147399
0.0389542
0.132207
0.0282849
0.115817
0.0190044
0.0981621
0.011291
0.0791692
0.00535982
0.0587411
0.00147712
0.0367599
0.0131183
0.0732249
0.18788
-0.0867405
0.0603993
0.174302
0.0483678
0.15943
0.037258
0.143317
0.0272072
0.125867
0.0183803
0.106989
0.0109763
0.0865732
0.00523474
0.0644827
0.00144931
0.0405453
0.0145676
0.0668047
0.200321
-0.0792456
0.0550544
0.186052
0.0440616
0.170423
0.0339277
0.153451
0.0247685
0.135026
0.0167269
0.115031
0.00998079
0.0933193
0.00475066
0.0697128
0.0013093
0.0439867
0.0158769
0.0593372
0.211637
-0.0706528
0.048731
0.196659
0.0388763
0.180277
0.0298454
0.162482
0.0217256
0.143146
0.0146293
0.122127
0.00870154
0.0992471
0.00412576
0.0742886
0.00113068
0.0469817
0.0170076
0.0506157
0.221509
-0.0604881
0.0414222
0.205852
0.0329339
0.188766
0.0252003
0.170216
0.0182847
0.150062
0.0122719
0.12814
0.00727436
0.104245
0.00343602
0.0781269
0.00093707
0.0494807
0.0179446
0.0404693
0.229558
-0.0485181
0.0330203
0.213301
0.0261808
0.195605
0.0199793
0.176417
0.0144579
0.155583
0.00967723
0.13292
0.00571996
0.108202
0.00269338
0.0811535
0.000731682
0.0514424
0.0186763
0.0290619
0.23544
-0.0349434
0.023656
0.218707
0.0187173
0.200544
0.0142562
0.180878
0.0102964
0.159543
0.0068772
0.13634
0.00405517
0.111024
0.00190395
0.0833047
0.000515157
0.0528312
0.0191915
0.0169215
0.238926
-0.0204083
0.0137441
0.221884
0.0108558
0.203432
0.00825494
0.183479
0.00595113
0.161847
0.00396596
0.138325
0.00233169
0.112658
0.00109035
0.0845461
0.000293128
0.0536284
0.0194846
0.00482863
-0.00589233
0.00388043
0.00303352
0.00228261
0.00162729
0.00107122
0.000621024
0.000285484
7.48564e-05
0.0431924
0.0408352
-0.0519902
-0.0320373
0.0349108
0.0378203
-0.0295387
0.0273228
0.0344672
-0.0268792
0.0206427
0.0308996
-0.0242195
0.0148805
0.0273619
-0.0215997
0.00981525
0.0238245
-0.0187593
0.00534073
0.0197289
-0.0152543
0.00192958
0.0142029
-0.0107917
0.000376434
0.00723272
-0.00567957
0.00202929
-0.00165285
0.0437264
0.0499848
-0.052876
0.0351008
0.0464459
0.0270917
0.0424762
0.0199661
0.0380253
0.0140256
0.0333024
0.00928317
0.0285669
0.00550696
0.0235051
0.00256267
0.0171472
0.000614218
0.00918117
0.00264351
0.0452824
0.059586
-0.0548835
0.0363145
0.0554138
0.0280378
0.0507529
0.0205698
0.0454933
0.0142205
0.0396517
0.00924609
0.0335414
0.00560106
0.0271501
0.00292789
0.0198204
0.000815505
0.0112936
0.00345901
0.0479153
0.0698474
-0.0581767
0.0384007
0.0649284
0.0297498
0.0594037
0.0220086
0.0532345
0.0153029
0.0463574
0.00988384
0.0389604
0.0058755
0.0311584
0.00301717
0.0226787
0.000891777
0.0134189
0.00435079
0.0514025
0.0808541
-0.0624092
0.0412153
0.0751156
0.0320098
0.0686092
0.0238538
0.0613905
0.0167782
0.053433
0.0109103
0.0448283
0.00638517
0.0356836
0.00311592
0.025948
0.00089786
0.015637
0.00524865
0.055013
0.0925269
-0.0666857
0.0442156
0.085913
0.0344559
0.0783689
0.0258112
0.0700352
0.018309
0.0609352
0.012009
0.0511283
0.00700672
0.0406859
0.00331918
0.0296355
0.000921639
0.0180346
0.00617029
0.0579506
0.104675
-0.0700991
0.0467257
0.0971379
0.0365599
0.0885347
0.0275148
0.0790802
0.0196289
0.0688212
0.0129545
0.0578027
0.00757185
0.0460686
0.00355138
0.033656
0.000967784
0.0206181
0.00713807
0.0599024
0.117059
-0.0722858
0.0484716
0.108569
0.0380806
0.0989257
0.0287758
0.088385
0.0206097
0.0769873
0.0136515
0.0647608
0.00799228
0.0517278
0.00373661
0.0379116
0.00100967
0.0233451
0.00814775
0.0616359
0.129559
-0.0741357
0.0500961
0.120109
0.0395104
0.109511
0.029951
0.0979444
0.0215041
0.0854343
0.0142661
0.0719987
0.00835113
0.0576428
0.00389206
0.0423707
0.00104391
0.0261932
0.00919165
0.0664346
-0.0792451
0.0540837
0.0426711
0.03235
0.0232248
0.0153981
0.00899508
0.0041684
0.00110115
0.215184
0.0550023
-0.0721963
0.233547
0.10076
-0.119123
0.251752
0.121715
-0.13992
0.260022
0.115812
-0.124082
0.259361
0.123961
-0.123299
0.243231
0.182109
-0.16598
0.212996
0.292911
-0.262675
0.171686
0.407326
-0.366016
0.116921
0.487928
-0.433163
0.455533
-0.390603
0.21405
0.0389426
0.232047
0.0827626
0.24986
0.103902
0.25886
0.106811
0.259148
0.123673
0.243912
0.197345
0.214145
0.322678
0.17248
0.448992
0.117444
0.542964
0.520102
0.213035
0.0238977
0.230954
0.0648437
0.248365
0.0864909
0.257768
0.0974088
0.258475
0.122966
0.243687
0.212133
0.214254
0.352112
0.172355
0.490891
0.118074
0.597244
0.583293
0.212227
0.00966048
0.230257
0.0468141
0.247233
0.0695149
0.256729
0.0879123
0.257361
0.122334
0.242582
0.226912
0.213274
0.38142
0.171491
0.532673
0.119207
0.649529
0.644323
0.211705
-0.00405521
0.229953
0.0285665
0.246405
0.0530629
0.255684
0.078633
0.255752
0.122267
0.240536
0.242127
0.211191
0.410765
0.170141
0.573724
0.120892
0.698778
0.702805
0.211512
-0.0175779
0.23003
0.0100494
0.245806
0.0372865
0.254525
0.0699143
0.253532
0.123259
0.237465
0.258195
0.20807
0.44016
0.168494
0.6133
0.122706
0.744565
0.758826
0.211659
-0.0312467
0.230459
-0.00875088
0.245351
0.0223943
0.253133
0.0621322
0.250597
0.125796
0.233352
0.27544
0.20406
0.469452
0.166552
0.650807
0.123855
0.787262
0.812582
0.21211
-0.0453672
0.231196
-0.0278364
0.244947
0.00864272
0.251322
0.0557579
0.246725
0.130392
0.228107
0.294058
0.199171
0.498388
0.163966
0.686013
0.123401
0.827827
0.863698
0.212721
-0.0600982
0.232175
-0.0472902
0.244519
-0.00370161
0.249082
0.0511947
0.242017
0.137458
0.22195
0.314125
0.193555
0.526783
0.160401
0.719167
0.120998
0.86723
0.91056
0.213476
-0.0755845
0.233089
-0.066903
0.244092
-0.0147046
0.246027
0.04926
0.235833
0.147651
0.214184
0.335774
0.186394
0.554573
0.155051
0.75051
0.117171
0.905109
0.948486
0.333652
-0.107226
0.371075
-0.104326
0.403377
-0.0470065
0.42396
0.0286773
0.442521
0.12909
0.469058
0.309237
0.506652
0.516979
0.549287
0.707875
0.580911
0.873485
0.943193
0.586204
0.335741
-0.140957
0.37554
-0.144125
0.409086
-0.0805519
0.428829
0.00893345
0.446186
0.111733
0.480437
0.274985
0.535446
0.46197
0.60446
0.638861
0.674934
0.803011
0.885511
0.732617
0.337465
-0.176412
0.378354
-0.185014
0.413649
-0.115847
0.433701
-0.0111184
0.446981
0.0984528
0.483345
0.238622
0.550579
0.394736
0.640308
0.549132
0.742545
0.700774
0.781814
0.846242
0.339656
-0.214058
0.378636
-0.223994
0.403641
-0.140852
0.409481
-0.0169589
0.420357
0.0875771
0.463333
0.195645
0.539896
0.318173
0.643467
0.44556
0.768394
0.575847
0.64533
0.904878
0.344698
-0.256746
0.361127
-0.240423
0.355904
-0.135629
0.355664
-0.0167185
0.373407
0.0698342
0.421536
0.147517
0.501782
0.237927
0.610467
0.336875
0.745065
0.441249
0.494906
0.89549
0.34175
-0.296486
0.328249
-0.226922
0.301658
-0.109037
0.300034
-0.015095
0.319903
0.0499651
0.366636
0.100784
0.442847
0.161716
0.547415
0.232307
0.67958
0.309085
0.347512
0.826973
0.314692
-0.309168
0.275498
-0.187728
0.243086
-0.0766248
0.239732
-0.0117409
0.258944
0.0307531
0.300222
0.0595064
0.366639
0.0952981
0.459266
0.139681
0.579199
0.189151
0.214906
0.711805
0.273975
-0.281133
0.214905
-0.128658
0.180111
-0.0418307
0.175853
-0.00748282
0.191726
0.0148805
0.223875
0.0273577
0.275447
0.0437258
0.349159
0.0659687
0.447201
0.0911089
0.106078
0.556029
0.214634
-0.193757
0.141284
-0.0553078
0.112297
-0.0128436
0.107799
-0.00298468
0.118639
0.00404026
0.139117
0.00687949
0.171789
0.0110537
0.220159
0.0175993
0.286359
0.024909
0.0303995
0.362037
0.108253
0.0529453
0.0401017
0.037117
0.0411573
0.0480368
0.0590904
0.0766897
0.101599
0.131998
0.608432
-0.117285
0.632153
-0.116678
0.655017
-0.109605
0.676207
-0.100435
0.695179
-0.0896256
0.711338
-0.0766467
0.724247
-0.0614271
0.733585
-0.0442813
0.739077
-0.0259005
-0.00758907
0.75002
-0.134689
0.764992
-0.131651
0.779254
-0.123867
0.792526
-0.113707
0.804627
-0.101727
0.815791
-0.0878108
0.826368
-0.0720038
0.836374
-0.0542871
0.844836
-0.0343629
-0.0114823
0.850948
-0.139395
0.853463
-0.134165
0.855033
-0.125437
0.855448
-0.114122
0.854621
-0.100899
0.852724
-0.085914
0.849987
-0.0692671
0.846811
-0.0511111
0.843997
-0.0315493
-0.0105293
0.89292
-0.127437
0.878865
-0.120111
0.86413
-0.110702
0.849501
-0.099493
0.835593
-0.0869909
0.823114
-0.0734352
0.812694
-0.0588465
0.804791
-0.0432089
0.799767
-0.0265253
-0.00887071
0.870725
-0.102673
0.845842
-0.095227
0.822137
-0.0869967
0.800609
-0.0779648
0.781725
-0.0681074
0.765756
-0.0574662
0.752916
-0.0460064
0.743421
-0.0337138
0.737537
-0.0206415
-0.00694528
0.797213
-0.0729126
0.769065
-0.0670793
0.743198
-0.0611293
0.720078
-0.0548452
0.699993
-0.0480221
0.683123
-0.0405966
0.669648
-0.0325315
0.659774
-0.0238398
0.653731
-0.0145984
-0.00495596
0.683053
-0.0441603
0.656532
-0.0405578
0.632412
-0.0370091
0.610878
-0.0333115
0.59214
-0.0292842
0.57639
-0.0248463
0.563823
-0.0199653
0.554644
-0.01466
0.549043
-0.00899769
-0.00308883
0.532502
-0.0206335
0.51089
-0.0189457
0.491253
-0.0173721
0.473682
-0.0157404
0.458332
-0.0139337
0.445382
-0.0118967
0.435026
-0.0096092
0.427451
-0.00708501
0.42282
-0.00436691
-0.00151948
0.346752
-0.00534889
0.332612
-0.0048055
0.319721
-0.00448105
0.308111
-0.00412986
0.297887
-0.00371024
0.289198
-0.00320789
0.282207
-0.00261753
0.277067
-0.00194539
0.273908
-0.00120791
-0.0004281
0.126649
0.121844
0.117363
0.113233
0.109523
0.106315
0.103697
0.101752
0.100544
0.000185022
0.011607
-0.011792
0.000623625
0.030441
-0.0308796
0.00123695
0.0462341
-0.0468474
0.001977
0.0594583
-0.0601984
0.00277616
0.0700111
-0.0708103
0.00376897
0.0798775
-0.0808703
0.00396289
0.0772568
-0.0774508
0.00408424
0.070033
-0.0701543
0.00394437
0.0610714
-0.0609315
0.0499492
0.00350667
-0.0495115
0.000533306
0.0110737
0.00180357
0.0291708
0.0035845
0.0444531
0.00574034
0.0573025
0.00807154
0.0676799
0.011038
0.0769111
0.0116742
0.0766206
0.012079
0.0696281
0.0117718
0.0613786
0.0510714
0.0106496
0.000835367
0.0102383
0.00283139
0.0271747
0.00563825
0.0416463
0.00904019
0.0539006
0.0127375
0.0639826
0.0172448
0.0724038
0.0187873
0.0750781
0.0195688
0.0688466
0.0193826
0.0615648
0.0524278
0.0180263
0.00105583
0.00918246
0.00359649
0.0246341
0.0071926
0.0380502
0.0115541
0.049539
0.0163541
0.0591826
0.0217444
0.0670136
0.025069
0.0717534
0.0263511
0.0675645
0.0265993
0.0613167
0.0535595
0.0254675
0.00115132
0.00803114
0.00397881
0.0218066
0.00804066
0.0339883
0.0129951
0.0445846
0.0185489
0.0536289
0.0245538
0.0610087
0.0299481
0.0663592
0.0320858
0.0654268
0.0330068
0.0603957
0.0540845
0.0324819
0.00111143
0.00691971
0.00396553
0.0189525
0.0081845
0.0297694
0.0133884
0.0393806
0.019315
0.0477023
0.0257676
0.0545561
0.0324114
0.0597154
0.0363093
0.0615289
0.0381208
0.0585842
0.053701
0.0385043
0.000926427
0.00599329
0.00357256
0.0163064
0.00770902
0.0256329
0.0128792
0.0342104
0.0187834
0.0417982
0.0253333
0.0480061
0.0323158
0.052733
0.038273
0.0555717
0.0415877
0.0552694
0.0521773
0.0431114
0.000568786
0.0054245
0.00278677
0.0140884
0.00665471
0.021765
0.0116158
0.0292493
0.0171982
0.0362158
0.0234411
0.0417632
0.0302803
0.0458938
0.0371813
0.0486707
0.042565
0.0498857
0.0489139
0.0458284
0.000105317
0.00531919
0.00176909
0.0124246
0.00517199
0.0183621
0.00980467
0.0246166
0.0149433
0.0310772
0.0206095
0.036097
0.0268966
0.0396067
0.0335853
0.041982
0.0400899
0.0433811
0.0437773
0.0452265
-0.000175977
0.00549516
0.00108373
0.0111649
0.00384887
0.0155969
0.00787262
0.0205929
0.0124804
0.0264694
0.0175542
0.0310231
0.0231707
0.0339903
0.0292538
0.0358988
0.0356496
0.0369854
0.0373415
0.0420854
-2.53843e-05
0.00552055
0.00113026
0.0100093
0.00326405
0.0134632
0.00639525
0.0174617
0.0102747
0.02259
0.014825
0.0264728
0.0199597
0.0288556
0.0255075
0.030351
0.0312612
0.0312317
0.0316502
0.0369525
0.00037516
0.00514539
0.00152622
0.00885821
0.00317414
0.0118152
0.00548976
0.0151461
0.00873368
0.0193461
0.0129508
0.0222556
0.0178321
0.0239743
0.0231282
0.0250549
0.028651
0.0257089
0.0259795
0.0343216
0.000631445
0.00451394
0.0017204
0.00776925
0.00305074
0.0104849
0.00490115
0.0132957
0.00795415
0.0162931
0.0120993
0.0181104
0.0168982
0.0191754
0.0221175
0.0198357
0.0276278
0.0201986
0.0202786
0.0333287
0.000697739
0.0038162
0.00168478
0.0067822
0.00290077
0.00926889
0.00485636
0.0113401
0.00820585
0.0129436
0.0124986
0.0138177
0.0173723
0.0143017
0.0226686
0.0145395
0.0282923
0.0145749
0.0144118
0.0341591
0.000690713
0.00312549
0.00161976
0.00585315
0.0031389
0.00774975
0.00580847
0.0086705
0.00965256
0.00909951
0.0142219
0.00924834
0.019312
0.00921148
0.024824
0.00902749
0.0306899
0.00870896
0.00826255
0.0368392
0.000601994
0.00252349
0.00179034
0.0046648
0.00421697
0.00532311
0.00771679
0.00517067
0.0119907
0.00482563
0.0168561
0.00438288
0.0222175
0.00385015
0.0280161
0.00322885
0.0341986
0.00252647
0.00175607
0.040705
0.000533738
0.00198975
0.00254283
0.0026557
0.00582234
0.0020436
0.00981273
0.00118028
0.0143901
0.000248215
0.0195175
-0.000744442
0.0251667
-0.00179911
0.03129
-0.00289446
0.0378219
-0.00400543
-0.0051249
0.0447029
0.000891945
0.0010978
0.00361086
-6.32239e-05
0.00712356
-0.00146911
0.0112623
-0.00295847
0.0160254
-0.00451494
0.0214216
-0.0061406
0.0273938
-0.00777126
0.0338415
-0.00934223
0.0406855
-0.0108494
-0.0123301
0.0478907
0.00147135
-0.000373564
0.00402019
-0.00261207
0.00737111
-0.00482004
0.0115446
-0.00713194
0.0165429
-0.00951329
0.0222526
-0.0118502
0.0284921
-0.0140107
0.0351541
-0.0160043
0.0422289
-0.0179242
-0.0198179
0.0497167
0.000985076
0.00298686
0.00627034
0.0107404
0.0160996
0.022012
0.0283482
0.0351687
0.0425385
0.0504214
0.0522501
0.0827057
-0.0980033
0.0786791
-0.00949215
-0.0169368
0.100871
-0.0515738
0.0293824
0.114077
-0.0457896
0.0325829
0.12188
-0.0259063
0.0181032
0.126455
-0.0110007
0.00642605
0.129864
-0.00485204
0.00144283
0.133004
-0.00338078
0.000241015
0.136107
-0.00326122
0.000158251
-0.0034868
0.000517298
0.0596399
0.0573873
0.0929587
-0.0428111
0.119822
-0.0784369
0.135332
-0.0612996
0.143894
-0.0344689
0.148687
-0.0157928
0.152199
-0.00836474
0.155392
-0.00657281
0.158489
-0.00635863
-0.00622633
0.0676221
0.0230939
0.106067
-0.0812561
0.136866
-0.109236
0.156129
-0.0805627
0.165939
-0.0442779
0.17092
-0.0207744
0.174373
-0.0118174
0.17739
-0.00958988
0.18022
-0.00918839
-0.00851521
0.0762865
-0.0190335
0.118462
-0.123431
0.152174
-0.142949
0.175406
-0.103795
0.187293
-0.0561652
0.192649
-0.0261301
0.196001
-0.0151691
0.198707
-0.0122961
0.201091
-0.0115719
-0.0101948
0.084956
-0.0671503
0.129716
-0.168192
0.165527
-0.17876
0.19219
-0.130457
0.207092
-0.071067
0.213321
-0.0323598
0.216658
-0.018506
0.218997
-0.0146347
0.220831
-0.0134066
-0.011172
0.0929362
-0.119381
0.139575
-0.214831
0.176912
-0.216096
0.206043
-0.159588
0.224294
-0.089318
0.232223
-0.0402886
0.235844
-0.0221274
0.237891
-0.0166811
0.239179
-0.0146955
-0.0114321
0.0996791
-0.174358
0.147872
-0.263024
0.186359
-0.254583
0.216972
-0.190201
0.23803
-0.110376
0.248411
-0.0506695
0.252811
-0.026528
0.254725
-0.0185945
0.255512
-0.0154825
-0.0110079
0.104959
-0.231426
0.154614
-0.312679
0.193978
-0.293947
0.225328
-0.221552
0.247957
-0.133004
0.260788
-0.0635011
0.266845
-0.0325849
0.269268
-0.0210174
0.269855
-0.0160693
-0.0100665
0.108846
-0.290555
0.159939
-0.363773
0.199965
-0.333972
0.231593
-0.25318
0.254542
-0.155953
0.268163
-0.0771222
0.274883
-0.0393058
0.277675
-0.0238089
0.278119
-0.0165135
-0.00860271
0.111659
0.164037
0.204557
0.236191
0.258834
0.271747
0.277553
0.279695
0.279667
0.0132016
0.00607699
-0.0192786
0.0110257
0.00217583
0.0115928
-0.0005671
0.0130051
-0.00141227
0.0137022
-0.000697121
0.0139243
-0.000222042
0.0139305
-6.26397e-06
0.013899
3.15839e-05
0.0138558
4.3179e-05
-1.64878e-05
0.0372449
0.0232181
-0.0543861
0.0316318
0.00778899
0.0342934
-0.00322873
0.0382748
-0.00539373
0.0403746
-0.00279684
0.041054
-0.000901481
0.0411345
-8.67787e-05
0.0410868
7.93705e-05
0.0410349
9.50302e-05
-6.41354e-05
0.0579866
0.0480795
-0.0828481
0.0511624
0.0146132
0.0563933
-0.00845965
0.0628147
-0.0118152
0.0663418
-0.00632388
0.0675362
-0.00209591
0.0677496
-0.000300109
0.0677346
9.43553e-05
0.0677197
0.000109906
-0.000150634
0.0739397
0.0753571
-0.101217
0.0684942
0.0200587
0.0771636
-0.0171291
0.0862419
-0.0208934
0.0913301
-0.0114121
0.0931478
-0.00391359
0.0935753
-0.000727572
0.0936609
8.7412e-06
0.0937309
3.98819e-05
-0.000295834
0.0815962
-0.104243
0.0847179
0.0969711
0.108661
0.115352
0.117864
0.11858
0.11883
0.119028
0.00273328
-0.000172896
-0.00256038
0.00326405
-0.000530777
0.00417612
-0.000912061
0.00548691
-0.0013108
0.00718297
-0.00169605
0.00922713
-0.00204416
0.0115834
-0.0023563
0.0141719
-0.00258851
0.0168579
-0.00268598
-0.00242068
0.00778635
-0.000645592
-0.00731365
0.009233
-0.00197743
0.0117119
-0.00339099
0.0152677
-0.00486654
0.0198811
-0.00630946
0.0254781
-0.00764119
0.0319597
-0.00883789
0.0391514
-0.00978024
0.0467647
-0.0102993
-0.010042
0.0124764
-0.00138353
-0.0117384
0.0147257
-0.00422676
0.018558
-0.00722324
0.024021
-0.0103296
0.0310744
-0.0133629
0.03958
-0.0161468
0.0493211
-0.018579
0.0600453
-0.0205044
0.0714126
-0.0216666
-0.0214775
0.0168052
-0.00234733
-0.0158414
0.019729
-0.00715055
0.0246714
-0.0121657
0.0316468
-0.017305
0.0405441
-0.0222602
0.051099
-0.0267017
0.0629298
-0.0304098
0.0756891
-0.0332636
0.0888613
-0.0348388
-0.0338335
0.0207902
-0.0196309
0.0242893
0.0301499
0.0383124
0.0485341
0.0603366
0.0730383
0.085603
0.0959907
0.0315374
-0.0312669
0.0370876
-0.0373581
0.0256621
-0.0308589
0.0367342
0.0199894
-0.0300226
0.0356953
0.0147278
-0.0286254
0.033887
0.010091
-0.0264216
0.0310584
0.00622074
-0.0227512
0.0266214
0.00312489
-0.017645
0.0207409
0.00102559
-0.0136192
0.0157185
-8.07962e-05
-0.0101512
0.0112576
-0.00562154
0.00554074
0.0296411
-0.0253802
-0.0355278
0.0239034
-0.0251213
0.0183929
-0.024512
0.0132843
-0.0235168
0.00882558
-0.0219628
0.00539918
-0.0193248
0.00304954
-0.0152954
0.00141654
-0.0119862
0.000309914
-0.00904453
-0.00531162
0.029697
-0.0193652
-0.035712
0.0238678
-0.019292
0.0183254
-0.0189696
0.0131844
-0.0183758
0.00864388
-0.0174223
0.00515083
-0.0158317
0.00307088
-0.0132154
0.00168773
-0.010603
0.000605549
-0.00796235
-0.00470607
0.031608
-0.0130818
-0.0378914
0.025561
-0.013245
0.0198321
-0.0132407
0.0145073
-0.0130511
0.00972558
-0.0126405
0.00580771
-0.0119138
0.00330641
-0.0107141
0.00182711
-0.00912368
0.000760149
-0.00689538
-0.00394591
0.0350369
-0.00643116
-0.0416876
0.0286695
-0.00687754
0.0226564
-0.00722755
0.0170658
-0.00746049
0.01199
-0.0075647
0.00760804
-0.0075319
0.00424634
-0.00735242
0.00205686
-0.00693419
0.000818582
-0.00565709
-0.00312733
0.0390369
0.000626692
-0.0460948
0.0323036
-0.000144215
0.0259651
-0.000889005
0.0200954
-0.00159083
0.0147573
-0.0022265
0.0100122
-0.00278686
0.00593797
-0.00327815
0.00269472
-0.00369094
0.000725053
-0.00368741
-0.00240227
0.0424879
0.00804178
-0.049903
0.0354119
0.0069318
0.0287262
0.00579666
0.0225239
0.00461148
0.0169027
0.00339476
0.0119064
0.00220938
0.00752609
0.00110221
0.00377293
6.22366e-05
0.000959111
-0.000873586
-0.00144315
0.0444417
0.0157106
-0.0521106
0.0371462
0.0142274
0.0302256
0.0127172
0.0237146
0.0111225
0.0177444
0.009365
0.0124904
0.00746332
0.00803774
0.00555489
0.00437901
0.00372098
0.001557
0.00194843
0.000113858
0.0445051
0.0236655
-0.05246
0.0370229
0.0217096
0.030023
0.0197172
0.0234313
0.0177142
0.0172204
0.0155759
0.0115693
0.0131145
0.0068318
0.0102924
0.00329103
0.00726176
0.00109453
0.00414494
0.00120839