/*--------------------------------*- C++ -*----------------------------------*\
  =========                 |
  \\      /  F ield         | OpenFOAM: The Open Source CFD Toolbox
   \\    /   O peration     | Website:  https://openfoam.org
    \\  /    A nd           | Version:  13
     \\/     M anipulation  |
\*---------------------------------------------------------------------------*/
FoamFile
{
    format      ascii;
    class       volVectorField;
    location    "0.19";
    object      U;
}
// * * * * * * * * * * * * * * * * * * * * * * * * * * * * * * * * * * * * * //

dimensions      [0 1 -1 0 0 0 0];

internalField   nonuniform List<vector> 
1800
(
(0.0978123 -0.0883397 -4.49096e-20)
(0.286921 -0.241987 -3.41274e-20)
(0.474008 -0.379106 -4.84748e-19)
(0.657731 -0.500245 1.91208e-19)
(0.836652 -0.607283 7.36188e-20)
(1.00995 -0.701511 -3.95363e-20)
(1.17718 -0.783622 5.58778e-20)
(1.33795 -0.853845 1.99152e-19)
(1.49158 -0.91313 5.93221e-19)
(1.63348 -0.967055 8.10741e-19)
(0.119067 -0.0915084 -7.91002e-20)
(0.344308 -0.247729 -7.70356e-19)
(0.563306 -0.384786 3.77948e-21)
(0.775393 -0.504289 1.25859e-19)
(0.979536 -0.608992 -1.26281e-19)
(1.17524 -0.700781 7.5794e-20)
(1.36234 -0.780887 -2.79925e-19)
(1.54079 -0.850205 -5.09171e-20)
(1.7101 -0.910812 -6.94855e-19)
(1.86782 -0.967141 6.3038e-19)
(0.141654 -0.0923258 4.88131e-20)
(0.40369 -0.247742 2.09238e-19)
(0.653771 -0.382137 5.43192e-19)
(0.892198 -0.497936 -1.90184e-19)
(1.11868 -0.598427 -1.42583e-19)
(1.33323 -0.685865 7.54835e-20)
(1.53607 -0.761768 9.794e-20)
(1.72744 -0.827365 1.94137e-19)
(1.90721 -0.88487 2.74112e-21)
(2.07419 -0.93793 1.51095e-19)
(0.163909 -0.0897222 -4.57125e-20)
(0.461705 -0.239475 -2.04358e-19)
(0.741437 -0.367629 -1.81218e-19)
(1.00452 -0.476994 -1.42302e-19)
(1.25164 -0.571046 1.81246e-19)
(1.48352 -0.652159 -5.70999e-20)
(1.70094 -0.721943 -4.30317e-21)
(1.90454 -0.781663 2.67413e-21)
(2.09456 -0.833408 -1.60697e-19)
(2.27025 -0.880395 -1.05998e-19)
(0.184659 -0.0833571 -1.14043e-19)
(0.515897 -0.22181 8.76154e-20)
(0.823298 -0.339436 1.79845e-19)
(1.10932 -0.439072 2.43315e-19)
(1.37562 -0.524084 -2.8491e-19)
(1.62372 -0.596795 -3.58233e-21)
(1.85495 -0.658788 4.24822e-19)
(2.07043 -0.711286 -1.85161e-19)
(2.27084 -0.756189 -1.24013e-19)
(2.45578 -0.796421 -5.35904e-20)
(0.203191 -0.0735004 1.73594e-19)
(0.564473 -0.195201 1.02983e-18)
(0.896795 -0.298077 1.43201e-19)
(1.20352 -0.384739 -5.03114e-19)
(1.4872 -0.458232 -1.75454e-19)
(1.75004 -0.520677 6.37598e-19)
(1.99391 -0.573535 -1.45259e-19)
(2.22037 -0.617912 -4.31423e-19)
(2.43048 -0.655457 -3.16819e-19)
(2.62421 -0.688755 2.61635e-19)
(0.218899 -0.0605915 1.16339e-19)
(0.605748 -0.160701 -7.47593e-19)
(0.959317 -0.245031 -1.08556e-18)
(1.28371 -0.315799 3.83756e-19)
(1.58224 -0.375565 4.49869e-19)
(1.85768 -0.42613 -9.01729e-22)
(2.1124 -0.468742 -6.39487e-19)
(2.3483 -0.504328 2.19331e-19)
(2.56684 -0.534217 -3.648e-19)
(2.76829 -0.560573 -3.1127e-19)
(0.231237 -0.0451725 -3.42507e-19)
(0.638203 -0.119684 -6.92656e-19)
(1.00849 -0.182293 1.21225e-18)
(1.34678 -0.234698 5.98748e-19)
(1.65694 -0.27885 -2.69726e-19)
(1.94225 -0.316133 -2.11491e-19)
(2.20544 -0.347513 0)
(2.44876 -0.373686 1.16725e-19)
(2.674 -0.39562 -2.95867e-19)
(2.88174 -0.414967 -7.73517e-20)
(0.239769 -0.0278756 -2.04483e-19)
(0.660658 -0.0737553 5.6244e-19)
(1.0425 -0.112197 1.71003e-19)
(1.39032 -0.144287 -5.12501e-19)
(1.70842 -0.171273 -7.84225e-19)
(2.00038 -0.194049 3.66027e-20)
(2.26925 -0.21324 1.67259e-19)
(2.51754 -0.229288 -5.46786e-19)
(2.74733 -0.242779 -2.89954e-19)
(2.95956 -0.254773 -5.63835e-19)
(0.244264 -0.0094024 4.51463e-19)
(0.672461 -0.024703 3.44203e-19)
(1.06031 -0.0373593 -9.38728e-20)
(1.41304 -0.0477847 -1.29237e-20)
(1.73515 -0.0564572 -3.87558e-19)
(2.03043 -0.0637173 -8.59578e-20)
(2.30207 -0.069804 -2.90455e-19)
(2.55277 -0.0748845 6.4676e-19)
(2.78482 -0.0791663 1.70966e-19)
(2.99947 -0.0830087 2.40692e-21)
(-0.00230793 -0.021043 -3.88318e-20)
(0.00819321 -0.0682875 -6.81806e-20)
(0.0245047 -0.120823 -7.41691e-21)
(0.0491464 -0.172595 -3.42995e-20)
(0.0772124 -0.21774 -1.25025e-20)
(0.105546 -0.255263 -3.74555e-19)
(0.134312 -0.289011 -1.2845e-20)
(0.165144 -0.322575 1.16454e-19)
(0.198039 -0.356318 1.14402e-20)
(0.231856 -0.388693 -3.74748e-20)
(0.000877114 -0.0240821 -9.99953e-20)
(0.0148695 -0.0842293 -2.34669e-19)
(0.0397407 -0.161 -3.54828e-20)
(0.0694805 -0.225859 -1.06386e-19)
(0.099188 -0.275587 -9.6243e-20)
(0.129923 -0.317933 -2.613e-19)
(0.164143 -0.359362 1.89454e-19)
(0.20202 -0.401155 1.70354e-19)
(0.241503 -0.441093 -2.61472e-19)
(0.280897 -0.477302 8.15123e-20)
(0.00549813 -0.0311356 -8.93207e-20)
(0.0288594 -0.107111 -9.05131e-19)
(0.0632137 -0.196321 -1.34077e-19)
(0.0975828 -0.268908 9.62613e-20)
(0.13177 -0.327035 6.50889e-20)
(0.169794 -0.380493 -4.06511e-19)
(0.21337 -0.432942 3.01474e-20)
(0.259549 -0.482481 3.63439e-19)
(0.305733 -0.52676 -3.81391e-19)
(0.351622 -0.565998 -2.54315e-19)
(0.0113587 -0.0408266 -3.31659e-21)
(0.046702 -0.130779 1.93429e-19)
(0.0898386 -0.225368 1.82097e-21)
(0.13325 -0.307023 -1.15736e-20)
(0.178054 -0.378007 -2.42892e-20)
(0.227695 -0.444251 7.61109e-20)
(0.281583 -0.506109 6.89306e-20)
(0.336028 -0.561299 -1.33358e-19)
(0.390024 -0.60972 9.144e-21)
(0.444216 -0.652232 -1.03339e-20)
(0.0185094 -0.0507296 0)
(0.0673068 -0.152447 5.81278e-21)
(0.122093 -0.253744 -5.10207e-19)
(0.178914 -0.345655 5.14498e-20)
(0.238111 -0.428853 -5.24452e-21)
(0.300867 -0.50544 2.52152e-21)
(0.365625 -0.574739 -2.49102e-20)
(0.430094 -0.635815 -7.07597e-21)
(0.494262 -0.689248 0)
(0.558484 -0.73524 -2.04241e-20)
(0.0273434 -0.0596653 3.19418e-20)
(0.0919693 -0.172945 -1.5482e-19)
(0.161905 -0.282702 -4.60328e-20)
(0.23482 -0.384143 -5.84365e-20)
(0.309963 -0.477066 4.98645e-20)
(0.386971 -0.561887 5.31836e-21)
(0.464474 -0.638091 8.72519e-20)
(0.541187 -0.705382 -2.20002e-20)
(0.617176 -0.763912 -6.91935e-19)
(0.692414 -0.813092 -1.00233e-20)
(0.038002 -0.0676411 7.01685e-22)
(0.121312 -0.192294 5.5911e-20)
(0.209282 -0.310813 -7.88488e-20)
(0.300076 -0.420442 -1.67879e-20)
(0.392301 -0.520988 -7.30895e-20)
(0.484945 -0.612487 -9.51348e-21)
(0.576871 -0.694726 1.14826e-20)
(0.667113 -0.767586 -2.08837e-19)
(0.755684 -0.830727 3.8185e-19)
(0.842437 -0.882762 9.70029e-19)
(0.0503902 -0.0746389 1.52684e-20)
(0.155197 -0.20972 -1.42481e-19)
(0.263559 -0.336142 -2.14384e-19)
(0.373784 -0.452348 8.93056e-20)
(0.484221 -0.558552 -6.45475e-20)
(0.593659 -0.654944 9.8041e-20)
(0.701051 -0.741643 1.95195e-19)
(0.805502 -0.8187 -1.0749e-19)
(0.907087 -0.885531 -3.05332e-19)
(1.00571 -0.939932 7.24637e-19)
(0.0643148 -0.0803897 -2.63358e-20)
(0.19334 -0.224112 -5.77892e-19)
(0.32437 -0.356699 5.23999e-19)
(0.455765 -0.477418 3.37241e-19)
(0.585819 -0.586976 -8.54657e-20)
(0.713297 -0.685928 3.07785e-19)
(0.83719 -0.774735 -1.60132e-19)
(0.956604 -0.853787 -7.70141e-19)
(1.07174 -0.92238 -4.03246e-19)
(1.18264 -0.977618 4.5304e-19)
(0.0795631 -0.0846857 -7.98354e-20)
(0.235884 -0.234476 -5.44044e-19)
(0.392444 -0.370622 -8.03924e-21)
(0.547598 -0.492929 6.84215e-20)
(0.699648 -0.602631 3.37319e-19)
(0.847439 -0.70063 -1.84526e-19)
(0.990048 -0.787665 -1.68264e-19)
(1.12655 -0.864071 1.88034e-19)
(1.2568 -0.928904 -3.50843e-19)
(1.38002 -0.980605 -5.83927e-19)
(0.401265 -0.532182 1.06703e-18)
(0.681553 -0.615705 -4.56505e-19)
(0.906824 -0.549856 -1.95405e-19)
(1.07214 -0.419096 3.48109e-19)
(1.21021 -0.265396 -2.62662e-19)
(1.30249 -0.135695 -2.71796e-19)
(1.3508 -0.0684262 -2.62272e-19)
(1.37684 -0.0394274 -4.44366e-20)
(1.39366 -0.0248871 2.48587e-19)
(1.40509 -0.0101169 4.58898e-20)
(0.468315 -0.619734 1.03474e-18)
(0.739779 -0.690462 1.23254e-19)
(0.961594 -0.608253 9.99565e-21)
(1.11222 -0.464919 -3.00343e-19)
(1.23733 -0.298927 -9.38364e-19)
(1.3187 -0.155447 0)
(1.35958 -0.0789215 -2.40523e-19)
(1.38235 -0.0456048 7.89092e-20)
(1.39736 -0.0285177 6.66839e-21)
(1.40749 -0.0115056 -7.27552e-20)
(0.556319 -0.705261 -1.01332e-18)
(0.810219 -0.763046 -8.82387e-20)
(1.02269 -0.664949 1.84457e-19)
(1.15684 -0.508752 -4.95586e-20)
(1.26618 -0.330772 -3.30184e-20)
(1.33547 -0.173814 7.23605e-20)
(1.36901 -0.088541 0)
(1.38845 -0.0512011 0)
(1.40155 -0.0317769 -8.18204e-20)
(1.41032 -0.012736 0)
(0.666052 -0.787074 -2.24546e-19)
(0.895525 -0.831519 3.97497e-19)
(1.09022 -0.719011 2.54046e-20)
(1.2059 -0.550024 0)
(1.29686 -0.360646 7.51819e-19)
(1.35308 -0.190812 -1.75506e-19)
(1.37907 -0.0972623 0)
(1.39508 -0.0561858 1.89062e-19)
(1.40618 -0.0346341 0)
(1.41353 -0.0138011 2.08236e-20)
(0.796034 -0.863902 -1.4719e-19)
(0.997468 -0.893849 4.23258e-19)
(1.1648 -0.769271 -1.42458e-20)
(1.25907 -0.588197 0)
(1.32926 -0.388284 2.01513e-19)
(1.37153 -0.206431 3.24986e-19)
(1.38968 -0.105114 6.47094e-20)
(1.40215 -0.0605636 1.14424e-20)
(1.41118 -0.0370766 -4.85507e-20)
(1.41708 -0.0147064 3.92628e-20)
(0.942341 -0.934902 -1.27878e-18)
(1.11592 -0.948581 -8.76447e-19)
(1.2472 -0.814349 4.67148e-21)
(1.31602 -0.622656 4.90777e-19)
(1.36308 -0.41342 -2.89648e-19)
(1.39059 -0.22065 1.63042e-19)
(1.40072 -0.112159 2.61564e-19)
(1.40957 -0.0643523 -2.51457e-19)
(1.41649 -0.0390951 -2.60759e-21)
(1.42091 -0.0154494 -6.31921e-21)
(1.1 -0.999674 -2.52107e-19)
(1.24896 -0.995425 2.64465e-19)
(1.33793 -0.852963 3.48597e-21)
(1.37663 -0.652652 -1.38445e-20)
(1.39801 -0.435692 -4.92654e-19)
(1.40991 -0.23336 5.48015e-20)
(1.41211 -0.118407 -1.03534e-19)
(1.41729 -0.0675606 -4.8863e-20)
(1.42204 -0.0406761 2.22115e-20)
(1.42497 -0.016033 -2.69157e-20)
(1.2641 -1.05711 -1.21257e-18)
(1.39327 -1.03493 1.93219e-19)
(1.43621 -0.884369 0)
(1.44027 -0.677573 2.30133e-20)
(1.43336 -0.454859 4.0377e-19)
(1.4287 -0.244652 6.63405e-22)
(1.42355 -0.123991 -3.19216e-19)
(1.42522 -0.0702404 6.93938e-20)
(1.42776 -0.0418137 -6.07378e-22)
(1.42921 -0.0164664 -1.64196e-21)
(1.43172 -1.10379 3.40044e-18)
(1.54626 -1.06802 2.69937e-19)
(1.54207 -0.909184 4.14054e-19)
(1.50762 -0.697586 -2.45531e-20)
(1.46954 -0.47106 -2.93099e-20)
(1.44695 -0.254695 -3.51514e-19)
(1.43503 -0.12871 7.7012e-20)
(1.43338 -0.0721937 5.81884e-21)
(1.43362 -0.0424138 -4.22762e-20)
(1.4336 -0.01672 -4.91509e-20)
(1.59897 -1.1285 -3.00929e-18)
(1.69987 -1.09358 1.30113e-18)
(1.64994 -0.930019 -1.67691e-19)
(1.57504 -0.715923 -6.13945e-19)
(1.5042 -0.487533 -5.11497e-19)
(1.46247 -0.266655 -2.09276e-19)
(1.44498 -0.13509 -5.93839e-20)
(1.44118 -0.0743362 0)
(1.4394 -0.0427354 8.02947e-21)
(1.43804 -0.0168621 1.22115e-20)
(1.88777 -1.17029 -6.78218e-18)
(1.92492 -1.10268 -1.76711e-18)
(1.80001 -0.923601 3.92668e-20)
(1.66554 -0.707405 9.99737e-20)
(1.54993 -0.483931 1.76621e-19)
(1.48388 -0.267598 -1.04944e-19)
(1.46042 -0.137262 -2.05265e-21)
(1.4528 -0.075333 2.19017e-20)
(1.44705 -0.0426575 -2.56263e-20)
(1.44311 -0.0170256 1.68167e-20)
(2.28842 -1.13401 5.00249e-19)
(2.17559 -1.05296 -2.16686e-19)
(1.93835 -0.856405 8.08469e-19)
(1.73292 -0.647349 -1.837e-19)
(1.569 -0.442297 5.76406e-19)
(1.48364 -0.248558 1.03225e-19)
(1.46251 -0.131357 8.49422e-21)
(1.44649 -0.070082 -2.0998e-21)
(1.42923 -0.0374525 2.80422e-20)
(1.41464 -0.0152544 4.62461e-20)
(2.60974 -1.04251 2.26254e-18)
(2.35094 -0.946054 3.26844e-19)
(2.01063 -0.753317 -1.24172e-19)
(1.74501 -0.560496 -1.0624e-36)
(1.53889 -0.379926 -3.0734e-20)
(1.42639 -0.220533 1.23965e-33)
(1.37362 -0.116671 -1.88611e-20)
(1.33729 -0.0587591 -2.31602e-33)
(1.31368 -0.0290423 1.19195e-20)
(1.29763 -0.0129757 -3.81088e-20)
(2.78745 -0.893209 3.93652e-33)
(2.37204 -0.793636 2.90514e-18)
(1.98053 -0.625555 1.77165e-18)
(1.66915 -0.458697 0)
(1.43489 -0.309899 9.13817e-19)
(1.28987 -0.186379 4.14703e-19)
(1.22737 -0.0995843 1.03704e-19)
(1.19419 -0.0479819 -3.75444e-33)
(1.17389 -0.0221544 -1.5588e-20)
(1.16074 -0.0100739 3.47022e-20)
(2.76466 -0.705366 3.85214e-18)
(2.24839 -0.62839 -1.48065e-19)
(1.85209 -0.487582 0)
(1.52681 -0.35448 0)
(1.29136 -0.238885 0)
(1.14155 -0.147062 0)
(1.07173 -0.0805912 -1.18748e-20)
(1.03698 -0.0382024 -4.65616e-33)
(1.01824 -0.0165993 1.11785e-20)
(1.00678 -0.00764164 4.01583e-33)
(2.55171 -0.516837 3.27577e-18)
(2.02133 -0.462302 0)
(1.64154 -0.351941 0)
(1.3336 -0.252532 0)
(1.11434 -0.168846 0)
(0.972799 -0.105504 0)
(0.901234 -0.0595881 3.2084e-20)
(0.866588 -0.0281021 -9.22287e-21)
(0.849945 -0.0115335 1.10249e-20)
(0.840404 -0.00537496 5.22718e-20)
(2.19025 -0.342756 0)
(1.70304 -0.303393 1.11954e-18)
(1.36257 -0.226929 1.13034e-18)
(1.09512 -0.159682 0)
(0.907163 -0.105839 7.25921e-19)
(0.785686 -0.0673797 3.95653e-19)
(0.719866 -0.0395038 1.81208e-19)
(0.687049 -0.0187758 2.48967e-20)
(0.672462 -0.00734227 2.77249e-20)
(0.66459 -0.00348505 1.64364e-20)
(1.7028 -0.191211 -6.7326e-19)
(1.30018 -0.165613 -2.73003e-19)
(1.02544 -0.121519 1.74267e-19)
(0.817018 -0.0832963 -2.21983e-34)
(0.673259 -0.0547243 -8.26105e-20)
(0.580661 -0.0357343 3.50653e-33)
(0.527353 -0.0218975 4.93698e-20)
(0.499408 -0.0105776 8.97087e-20)
(0.48746 -0.00395054 1.05432e-20)
(0.481319 -0.00193773 -2.53491e-20)
(1.10078 -0.0758587 3.40471e-18)
(0.823009 -0.0627002 -1.86233e-19)
(0.640579 -0.0442332 -5.89811e-19)
(0.50697 -0.0285736 0)
(0.416949 -0.0183367 -6.29708e-19)
(0.359087 -0.0124997 -3.93258e-19)
(0.323869 -0.00823755 -1.41357e-19)
(0.30434 -0.00415528 -8.28921e-20)
(0.296091 -0.00152307 7.08687e-20)
(0.292021 -0.000795512 1.72898e-20)
(0.397286 -0.00332001 0)
(0.28776 0.00158903 0)
(0.22082 0.00405216 0)
(0.173793 0.00611615 0)
(0.143561 0.00556603 0)
(0.12419 0.00402256 0)
(0.111454 0.00259951 5.59067e-20)
(0.103727 0.00149767 -1.80892e-34)
(0.100325 0.000780872 1.1751e-20)
(0.098624 0.000232289 2.48408e-20)
(3.36713 -0.0863128 5.38877e-19)
(3.32645 -0.265083 -8.42065e-20)
(3.24738 -0.430652 8.52111e-19)
(3.13241 -0.582156 -6.04972e-19)
(2.98635 -0.718126 6.66292e-19)
(2.81523 -0.836385 2.74862e-19)
(2.62657 -0.934064 -1.93003e-18)
(2.42944 -1.00785 -7.68925e-20)
(2.22456 -1.05369 0)
(1.9847 -1.0666 4.28589e-19)
(3.86195 -0.0750731 7.07311e-18)
(3.79862 -0.234205 1.95608e-18)
(3.7043 -0.387291 -4.86636e-18)
(3.58425 -0.531962 -4.48854e-19)
(3.44235 -0.665847 3.55721e-18)
(3.28178 -0.787243 1.9225e-18)
(3.10636 -0.894943 -5.16496e-18)
(2.92183 -0.98751 -1.95001e-18)
(2.72728 -1.06311 2.20046e-18)
(2.49197 -1.12012 8.52858e-19)
(3.83321 -0.0533122 -1.26134e-19)
(3.82035 -0.171559 4.40444e-18)
(3.78558 -0.299747 -1.08896e-18)
(3.72445 -0.430898 -3.44576e-18)
(3.63628 -0.558693 -6.80096e-18)
(3.52377 -0.678726 1.02729e-17)
(3.39115 -0.788653 4.17699e-18)
(3.24338 -0.88775 -3.90579e-18)
(3.08135 -0.978344 -2.89778e-18)
(2.88681 -1.06242 -3.41797e-18)
(3.62873 -0.0472622 -4.83917e-18)
(3.61968 -0.144915 -4.35364e-18)
(3.59972 -0.243729 5.4729e-18)
(3.56746 -0.343077 1.91242e-18)
(3.52257 -0.442344 -8.97525e-18)
(3.46439 -0.540747 4.92968e-19)
(3.39212 -0.636949 3.88743e-18)
(3.30546 -0.730282 -1.05491e-18)
(3.20535 -0.822844 1.27703e-18)
(3.08337 -0.914448 2.81044e-19)
(3.3441 -0.0365534 -9.15948e-19)
(3.33905 -0.111648 3.00396e-18)
(3.32715 -0.188685 1.61939e-18)
(3.3075 -0.267193 -1.89326e-18)
(3.27994 -0.346097 -2.00167e-18)
(3.24477 -0.424154 -2.4365e-18)
(3.20222 -0.500322 3.80186e-19)
(3.15204 -0.57443 1.3859e-19)
(3.09589 -0.647624 -2.14275e-18)
(3.03342 -0.721093 -2.03788e-18)
(2.9626 -0.0265283 -1.82235e-18)
(2.95984 -0.0798781 -5.86715e-20)
(2.95333 -0.134604 -1.63749e-18)
(2.94243 -0.190924 3.12122e-19)
(2.92678 -0.248587 5.36748e-18)
(2.90633 -0.30698 -3.67014e-19)
(2.88097 -0.365174 4.43932e-20)
(2.85032 -0.422115 -2.60915e-18)
(2.81659 -0.476916 -3.49793e-18)
(2.78626 -0.529849 3.71398e-19)
(2.48714 -0.0174886 -2.88873e-20)
(2.48579 -0.0519245 -8.14238e-19)
(2.48261 -0.08725 -2.61478e-18)
(2.47709 -0.123785 -3.43077e-18)
(2.46881 -0.161559 2.49639e-18)
(2.45745 -0.200305 1.50203e-18)
(2.44262 -0.239402 -1.3848e-18)
(2.4237 -0.277851 1.6241e-18)
(2.40276 -0.314551 -4.3016e-19)
(2.38958 -0.349609 -9.641e-19)
(1.91464 -0.00967347 7.72424e-19)
(1.91408 -0.0282904 -8.31816e-19)
(1.91278 -0.0474401 -3.27773e-20)
(1.91032 -0.067367 -3.47016e-20)
(1.90623 -0.0881455 -7.27062e-20)
(1.90012 -0.109637 -2.33182e-18)
(1.89148 -0.131435 -6.78516e-19)
(1.87975 -0.15282 2.62539e-18)
(1.8666 -0.173021 -6.03122e-19)
(1.86187 -0.192261 -1.35044e-18)
(1.23988 -0.00373067 -1.64276e-18)
(1.23966 -0.0106922 -8.48902e-19)
(1.23923 -0.0179012 2.33919e-18)
(1.23823 -0.025482 -8.89784e-19)
(1.23625 -0.0334822 -6.74099e-19)
(1.23288 -0.0418421 1.35192e-18)
(1.22772 -0.0503641 -1.29573e-18)
(1.22034 -0.0586834 1.28674e-18)
(1.21197 -0.0663643 -1.20998e-18)
(1.21001 -0.0735339 -4.24616e-18)
(0.454912 -0.000257289 6.63074e-19)
(0.454825 -0.000700172 7.03054e-19)
(0.454691 -0.00115908 7.48188e-19)
(0.454323 -0.00164032 1.35397e-18)
(0.453492 -0.00214075 -6.71968e-19)
(0.451976 -0.00263804 -1.29956e-18)
(0.449554 -0.00310021 6.14652e-19)
(0.445972 -0.0035942 2.48423e-20)
(0.441708 -0.00439348 -4.96592e-20)
(0.440311 -0.00504642 1.10584e-19)
(1.65288 0.996021 -2.8434e-19)
(1.51174 0.940894 1.80748e-20)
(1.35839 0.880035 -2.25034e-19)
(1.1974 0.807943 1.77151e-19)
(1.02939 0.723658 -1.94765e-19)
(0.854727 0.626892 -1.01616e-19)
(0.673724 0.516858 2.32192e-19)
(0.487041 0.392129 -3.05864e-19)
(0.295916 0.25066 3.09823e-19)
(0.101449 0.091661 2.39326e-19)
(1.88582 0.991302 0)
(1.72922 0.934075 6.35812e-19)
(1.56049 0.872293 3.27922e-19)
(1.38205 0.801533 1.65037e-19)
(1.19438 0.719683 4.34346e-19)
(0.997458 0.625798 -8.71169e-20)
(0.791339 0.518568 -7.88264e-20)
(0.576362 0.395998 8.95179e-20)
(0.353348 0.2552 -1.04565e-18)
(0.122719 0.094372 -1.62523e-20)
(2.09059 0.958432 1.56879e-19)
(1.92488 0.904625 0)
(1.74587 0.846152 -1.00887e-19)
(1.55475 0.779348 -3.85202e-19)
(1.35158 0.701967 5.37971e-20)
(1.13603 0.612738 3.97969e-19)
(0.907771 0.51008 -6.07552e-19)
(0.666607 0.391655 -2.00738e-19)
(0.412625 0.254068 7.8372e-19)
(0.14527 0.0947487 -1.76279e-19)
(2.28452 0.897954 1.89865e-19)
(2.11019 0.850273 1.25208e-20)
(1.92111 0.797664 2.42215e-20)
(1.71798 0.736876 3.63185e-20)
(1.5005 0.665788 -2.894e-20)
(1.26789 0.583106 2.73623e-19)
(1.01926 0.48717 -2.0693e-19)
(0.753693 0.375547 -8.56085e-19)
(0.470297 0.244697 0)
(0.167405 0.0917064 0)
(2.46774 0.811562 -1.06841e-18)
(2.28418 0.770655 -6.06368e-19)
(2.0848 0.724939 -1.20331e-19)
(1.86994 0.671447 -6.66184e-20)
(1.63885 0.608257 0)
(1.39029 0.534125 2.40931e-19)
(1.12275 0.44744 2.67978e-19)
(0.834573 0.345849 2.86457e-19)
(0.523863 0.225967 -4.24059e-19)
(0.187921 0.0849048 -8.12932e-20)
(2.63386 0.701935 7.63872e-19)
(2.44146 0.667954 -1.39239e-19)
(2.23236 0.629607 -2.21141e-19)
(2.00659 0.584263 0)
(1.76298 0.530259 0)
(1.49987 0.466484 0)
(1.21523 0.39147 -3.89655e-20)
(0.906703 0.3031 3.70263e-19)
(0.571519 0.198358 3.79051e-19)
(0.206094 0.0746288 -3.08663e-19)
(2.77572 0.572262 -1.1917e-18)
(2.57545 0.545197 -1.47979e-18)
(2.35783 0.514489 -3.01959e-22)
(2.12258 0.477924 -1.87822e-19)
(1.86817 0.434173 -9.2913e-20)
(1.59258 0.382319 -1.78968e-19)
(1.29334 0.321131 4.5926e-19)
(0.967508 0.248845 2.14821e-19)
(0.611602 0.162974 5.40204e-19)
(0.221324 0.0613432 2.02921e-19)
(2.88704 0.425697 -1.1564e-18)
(2.68025 0.405599 8.47252e-20)
(2.45575 0.3828 1.64499e-19)
(2.21296 0.355602 1.68642e-20)
(1.95004 0.323049 -3.1454e-19)
(1.66466 0.284471 -1.74337e-19)
(1.35399 0.238943 -6.21376e-19)
(1.01465 0.185146 1.1853e-19)
(0.642621 0.121241 5.15115e-20)
(0.233074 0.0456145 -6.26489e-21)
(2.9628 0.265163 1.01196e-19)
(2.75121 0.25234 3.97073e-19)
(2.5219 0.237897 -3.30311e-19)
(2.27395 0.220739 3.63179e-19)
(2.00525 0.200299 3.72624e-19)
(1.71324 0.176181 4.91999e-19)
(1.39483 0.147814 -6.35845e-19)
(1.04635 0.114394 -3.24473e-19)
(0.663426 0.0748127 -4.58482e-20)
(0.240923 0.0280961 -3.27062e-19)
(3.00054 0.0935718 5.81689e-19)
(2.78614 0.0887846 -1.85984e-19)
(2.55427 0.0834461 4.79622e-19)
(2.30368 0.0771543 -3.10925e-19)
(2.0321 0.069733 2.66447e-19)
(1.7368 0.0610671 6.05628e-19)
(1.41459 0.050983 3.79012e-19)
(1.06163 0.039238 3.09393e-19)
(0.673408 0.0255084 2.65901e-19)
(0.244659 0.00950763 5.43692e-19)
(0.236945 0.445642 -4.63714e-19)
(0.201741 0.412343 -1.79396e-19)
(0.166617 0.375803 1.40296e-19)
(0.133419 0.338541 -4.20755e-19)
(0.103848 0.302582 -1.1917e-19)
(0.0770872 0.265485 6.7399e-19)
(0.0509764 0.21958 3.32807e-19)
(0.025468 0.155896 -1.62426e-19)
(0.00687288 0.0779408 1.11349e-19)
(-0.00118377 0.0218305 -6.07619e-20)
(0.287569 0.537077 3.96947e-19)
(0.247776 0.500652 4.4245e-19)
(0.207464 0.459162 -1.58943e-20)
(0.16743 0.412848 -1.2766e-19)
(0.130821 0.365261 -2.84555e-19)
(0.100228 0.318013 8.09303e-20)
(0.0730597 0.265192 2.19961e-19)
(0.0455106 0.193704 1.58864e-19)
(0.01799 0.0997084 -5.8493e-19)
(0.00262043 0.0280692 -1.22814e-19)
(0.359884 0.625816 -5.85831e-19)
(0.313908 0.586034 -4.68665e-19)
(0.268038 0.540639 2.46754e-19)
(0.221459 0.488008 1.30938e-19)
(0.175975 0.429058 -1.18492e-21)
(0.136332 0.367537 -1.28579e-19)
(0.102041 0.301967 -2.25924e-20)
(0.0682644 0.222143 -5.57732e-19)
(0.0333399 0.12409 -2.71381e-19)
(0.00743259 0.0369908 -3.97181e-20)
(0.455044 0.711046 4.94834e-19)
(0.400724 0.6673 1.6358e-19)
(0.346827 0.616767 -1.44649e-19)
(0.292544 0.558332 6.73293e-20)
(0.237995 0.49104 7.73116e-22)
(0.186728 0.41719 1.2956e-21)
(0.140117 0.337751 -1.26055e-19)
(0.0953593 0.248119 3.87515e-19)
(0.0512015 0.146297 -4.21756e-19)
(0.0133894 0.0470935 -6.78506e-20)
(0.572712 0.791843 -2.80556e-19)
(0.508459 0.744267 -8.88428e-20)
(0.444026 0.68799 -1.3634e-20)
(0.379251 0.6229 -6.13838e-20)
(0.313881 0.548365 5.36407e-20)
(0.24973 0.465225 4.62495e-20)
(0.188364 0.374578 -2.79373e-20)
(0.12923 0.275142 -2.882e-19)
(0.0723586 0.166669 2.19913e-19)
(0.0207648 0.05645 8.79435e-20)
(0.709668 0.865942 6.45811e-19)
(0.634588 0.815089 3.26119e-19)
(0.558298 0.753526 2.1297e-19)
(0.480946 0.682093 4.7615e-20)
(0.402433 0.600895 1.44371e-19)
(0.323843 0.510349 6.97639e-20)
(0.246407 0.411067 1.35943e-19)
(0.170774 0.302935 5.74554e-20)
(0.0979366 0.186213 -1.92726e-20)
(0.0298955 0.0648201 -1.53206e-20)
(0.861827 0.930895 -1.19311e-19)
(0.775382 0.877202 -8.43054e-19)
(0.686569 0.811148 -9.29651e-20)
(0.595604 0.734475 -3.02068e-20)
(0.50245 0.64781 -1.16502e-20)
(0.408024 0.551379 1.45558e-19)
(0.313392 0.445396 -4.41879e-20)
(0.219633 0.329838 6.63662e-20)
(0.128222 0.204768 -1.44458e-19)
(0.0408509 0.0724004 -8.04891e-22)
(1.02623 0.982989 -8.92051e-19)
(0.928055 0.92705 5.93459e-20)
(0.826323 0.857615 -2.23125e-19)
(0.721201 0.777267 -7.81466e-20)
(0.612571 0.686808 -3.20427e-20)
(0.501317 0.58623 -7.452e-20)
(0.388434 0.475354 5.72272e-20)
(0.275106 0.353888 6.07554e-20)
(0.162948 0.221416 -9.84002e-21)
(0.053526 0.0790923 -1.04606e-19)
(1.20325 1.01567 1.24055e-19)
(1.09297 0.959072 5.30065e-19)
(0.977837 0.888258 1.62384e-21)
(0.857908 0.806464 -3.45423e-20)
(0.732921 0.714527 1.54858e-19)
(0.603745 0.612038 -3.52029e-19)
(0.47132 0.498447 -2.46191e-19)
(0.336794 0.373059 3.57144e-19)
(0.201763 0.234958 1.44709e-19)
(0.0677046 0.0845344 -3.68904e-20)
(1.3999 1.01381 7.46135e-19)
(1.27751 0.961016 3.27032e-19)
(1.14741 0.894358 5.47893e-20)
(1.01057 0.815677 -2.00094e-19)
(0.867067 0.726028 -1.69547e-20)
(0.717778 0.62503 4.68165e-19)
(0.563525 0.51184 -2.69425e-19)
(0.405327 0.385412 -1.84922e-19)
(0.244716 0.244315 3.36349e-19)
(0.0831274 0.0884544 -6.41196e-21)
(0.954469 0.0900569 1.01905e-20)
(1.1683 0.154225 -1.58488e-20)
(1.17769 0.183362 -4.32003e-20)
(1.25322 0.168566 0)
(1.2693 0.173723 9.57914e-21)
(1.22349 0.243943 -5.03601e-20)
(1.09393 0.387653 -1.00383e-19)
(0.93013 0.538449 -1.26327e-19)
(0.701792 0.640432 -1.76256e-19)
(0.412177 0.587858 6.20676e-19)
(0.953112 0.0693778 1.86133e-19)
(1.16169 0.132247 -6.08173e-20)
(1.17428 0.161487 2.40219e-21)
(1.25275 0.159902 1.57834e-20)
(1.27543 0.177297 -4.79083e-21)
(1.24245 0.268671 1.04616e-20)
(1.12719 0.431747 1.88692e-19)
(0.97897 0.597603 0)
(0.755323 0.717323 5.16105e-19)
(0.477644 0.678042 -4.37923e-19)
(0.951301 0.0499906 -1.15496e-19)
(1.15793 0.110009 6.13658e-21)
(1.17382 0.139561 5.79534e-20)
(1.25626 0.149756 2.22661e-20)
(1.2849 0.179131 1.24808e-20)
(1.26398 0.291475 -4.08832e-20)
(1.16536 0.473742 1.15656e-19)
(1.03389 0.655302 3.86059e-20)
(0.820603 0.792004 -4.01434e-22)
(0.564846 0.765285 -6.78343e-19)
(0.949664 0.0316376 -7.46895e-20)
(1.15694 0.0871881 1.71083e-20)
(1.17626 0.117591 3.33151e-20)
(1.26346 0.13846 1.78465e-21)
(1.29766 0.17976 -1.03206e-20)
(1.28829 0.312549 -2.36097e-21)
(1.20796 0.51344 -9.85444e-20)
(1.09466 0.710794 2.36135e-20)
(0.900323 0.862412 -4.12157e-19)
(0.675061 0.847697 -1.88332e-19)
(0.948675 0.0138465 2.51053e-20)
(1.15875 0.0635884 -1.84781e-20)
(1.18155 0.0956282 -1.99085e-20)
(1.27392 0.126355 -2.36543e-21)
(1.31341 0.179663 0)
(1.31501 0.332114 0)
(1.25428 0.550714 -3.39594e-20)
(1.16179 0.762994 -2.54594e-20)
(0.996728 0.926247 -1.03342e-19)
(0.806411 0.923633 -5.98859e-20)
(0.948617 -0.00386873 -4.37222e-21)
(1.16332 0.0390932 2.51008e-20)
(1.18958 0.0737939 -6.06319e-20)
(1.28711 0.113791 -4.71192e-20)
(1.33149 0.179297 -1.05965e-20)
(1.34344 0.350415 2.11394e-21)
(1.30374 0.585275 4.85213e-20)
(1.23634 0.810415 -1.67946e-20)
(1.11026 0.981736 -1.86131e-20)
(0.954453 0.992277 -9.05838e-21)
(0.949638 -0.0219927 4.77464e-20)
(1.17059 0.0136319 2.06169e-22)
(1.20021 0.0522376 -2.48743e-20)
(1.3025 0.101043 -6.32464e-20)
(1.35122 0.178866 2.33593e-20)
(1.37302 0.367483 1.03084e-20)
(1.35633 0.616509 -4.95567e-20)
(1.31934 0.851478 -1.8001e-19)
(1.23932 1.02839 -3.65426e-22)
(1.11384 1.05354 -9.97857e-19)
(0.951661 -0.0409037 2.96778e-20)
(1.18033 -0.0128416 -3.81564e-20)
(1.21335 0.0312268 3.88749e-20)
(1.31953 0.0886017 6.2066e-20)
(1.37138 0.179054 9.09487e-21)
(1.40281 0.383498 -2.21368e-20)
(1.41168 0.643765 -1.83764e-20)
(1.41044 0.885103 5.13479e-20)
(1.38057 1.0668 1.12365e-20)
(1.2792 1.10672 2.89561e-18)
(0.953983 -0.0607291 -1.46747e-19)
(1.19212 -0.0402927 2.13164e-20)
(1.22884 0.0109143 8.3104e-20)
(1.33786 0.0767014 -6.08308e-20)
(1.39212 0.179802 -6.68963e-20)
(1.43369 0.398577 1.00165e-20)
(1.47117 0.667023 1.17828e-19)
(1.51013 0.911731 -3.365e-19)
(1.53126 1.0981 -2.64777e-20)
(1.44727 1.14871 -6.45997e-18)
(0.955493 -0.082681 4.45902e-21)
(1.20532 -0.0685682 4.42162e-20)
(1.24601 -0.00840446 1.52759e-20)
(1.3568 0.0670394 -1.53278e-19)
(1.4109 0.184981 -9.68069e-20)
(1.46265 0.416669 -1.43178e-20)
(1.53097 0.689851 -4.8447e-20)
(1.61259 0.934474 -4.78725e-19)
(1.68336 1.12186 -1.12586e-18)
(1.61431 1.16866 -7.97272e-18)
(0.956601 -0.115761 -1.45374e-20)
(1.22014 -0.106388 -1.20198e-20)
(1.26584 -0.0364094 -2.45927e-20)
(1.37865 0.0497081 2.04043e-22)
(1.43574 0.17666 6.80788e-20)
(1.50208 0.411526 -3.32525e-20)
(1.61242 0.68124 -8.07882e-20)
(1.75409 0.924475 -1.42513e-18)
(1.90172 1.12444 -1.63425e-18)
(1.89781 1.20519 3.30413e-18)
(0.954924 -0.158207 -4.01236e-19)
(1.23435 -0.155704 -2.53874e-20)
(1.28398 -0.0802648 -2.55312e-20)
(1.39618 0.0241961 1.02121e-19)
(1.44436 0.15235 1.72403e-19)
(1.51772 0.372123 -2.27087e-19)
(1.67288 0.620917 -1.33239e-19)
(1.88212 0.851034 -5.63603e-19)
(2.13834 1.06322 1.72803e-19)
(2.28276 1.15686 -3.23785e-19)
(0.948237 -0.200717 -2.63469e-20)
(1.249 -0.207772 -4.65923e-20)
(1.29526 -0.121207 2.79611e-20)
(1.41058 -0.00240152 3.61363e-20)
(1.45374 0.132812 1.49658e-33)
(1.51728 0.328379 -2.23989e-21)
(1.69814 0.54188 -2.3136e-33)
(1.95685 0.748436 1.92628e-19)
(2.30407 0.950356 -9.36431e-19)
(2.5866 1.05498 -6.28836e-19)
(0.93838 -0.246167 1.51407e-18)
(1.2652 -0.253284 -6.68358e-34)
(1.29482 -0.170552 -3.63159e-20)
(1.35078 -0.0223904 -1.76418e-19)
(1.35357 0.115937 -4.50277e-19)
(1.43754 0.269182 -9.19588e-19)
(1.64331 0.443493 -5.26633e-33)
(1.94232 0.622192 -1.7024e-18)
(2.33218 0.797463 -3.12722e-18)
(2.75549 0.900155 1.67966e-18)
(0.926842 -0.300241 0)
(1.29318 -0.29574 -2.66576e-33)
(1.1687 -0.180742 0)
(1.17306 -0.0231094 0)
(1.18491 0.0987453 0)
(1.29023 0.21119 0)
(1.50827 0.342942 -8.88602e-33)
(1.82621 0.484739 0)
(2.21927 0.63075 -3.42874e-19)
(2.73771 0.710245 1.26265e-18)
(0.914735 -0.359686 1.13106e-19)
(1.26085 -0.320274 -4.27788e-19)
(0.997947 -0.155588 -5.92299e-20)
(0.98757 -0.0198658 0)
(1.00552 0.074562 0)
(1.11278 0.152609 6.7852e-20)
(1.3196 0.245765 1.29228e-18)
(1.62329 0.35044 -1.96221e-19)
(2.00034 0.464234 -4.96082e-19)
(2.53419 0.519491 4.66656e-18)
(0.88256 -0.405085 -1.52041e-17)
(1.09537 -0.274638 1.01607e-18)
(0.81592 -0.119673 -7.44992e-20)
(0.785651 -0.0175248 -1.22613e-19)
(0.807768 0.0491237 -4.50077e-19)
(0.905969 0.097233 -7.52501e-19)
(1.08554 0.156156 -1.10644e-18)
(1.35045 0.22663 -1.44131e-18)
(1.68952 0.305213 -1.64499e-18)
(2.18069 0.344108 3.64425e-18)
(0.808414 -0.394432 -4.13063e-19)
(0.888089 -0.205557 -1.21799e-18)
(0.617273 -0.0777948 -1.26525e-19)
(0.574818 -0.0133925 -8.05382e-20)
(0.595112 0.0268242 -6.61883e-34)
(0.673327 0.0511065 1.04161e-19)
(0.811657 0.0817478 -1.54977e-32)
(1.01868 0.121722 -1.93601e-19)
(1.29329 0.16694 2.97433e-19)
(1.69949 0.191987 7.0449e-19)
(0.663957 -0.288835 3.42834e-17)
(0.618417 -0.107239 -3.13209e-18)
(0.398155 -0.0335292 -2.40998e-19)
(0.352838 -0.00688123 -1.03627e-19)
(0.366942 0.00952035 3.53109e-19)
(0.417737 0.0173293 7.57721e-19)
(0.504858 0.0280682 7.84251e-19)
(0.63792 0.0444358 4.59808e-19)
(0.820988 0.0633453 -1.86052e-19)
(1.10149 0.0762142 3.56177e-18)
(0.336741 -0.076837 5.58883e-19)
(0.26184 -0.00233319 -6.77318e-33)
(0.14579 0.0183908 -3.04987e-19)
(0.12413 0.00268507 0)
(0.127642 -0.00187157 0)
(0.144563 -0.00500559 1.03522e-19)
(0.173766 -0.00605979 8.28616e-35)
(0.220661 -0.00406507 -1.23859e-19)
(0.288124 -0.00158354 -2.80938e-19)
(0.398917 0.00332575 9.99353e-19)
(2.00118 1.09474 -1.78458e-18)
(2.23835 1.0772 -2.30408e-18)
(2.44152 1.02821 0)
(2.63666 0.95188 -7.62369e-19)
(2.8233 0.852092 -1.79379e-18)
(2.99258 0.732123 -2.24909e-18)
(3.13698 0.594877 -4.85508e-19)
(3.2505 0.442604 1.26944e-18)
(3.32824 0.276918 -3.54738e-18)
(3.36766 0.0986831 1.35653e-18)
(2.49754 1.13977 2.63588e-19)
(2.7296 1.08028 1.39302e-18)
(2.9231 1.003 1.43762e-19)
(3.10615 0.908954 6.7318e-19)
(3.28017 0.800083 -1.10146e-18)
(3.43967 0.677943 -4.99113e-18)
(3.58077 0.543763 2.46296e-18)
(3.70036 0.399158 1.26912e-17)