# Selection   : all
# Cells       : 440
# Volume      : 7.374263e+01
# Time        	min(p)
1.8           	-1.874750e+00
1.85          	-1.873451e+00
1.9           	-1.877579e+00
