/*--------------------------------*- C++ -*----------------------------------*\
  =========                 |
  \\      /  F ield         | OpenFOAM: The Open Source CFD Toolbox
   \\    /   O peration     | Website:  https://openfoam.org
    \\  /    A nd           | Version:  13
     \\/     M anipulation  |
\*---------------------------------------------------------------------------*/
FoamFile
{
    format      ascii;
    class       surfaceScalarField;
    location    "0.385";
    object      phi;
}
// * * * * * * * * * * * * * * * * * * * * * * * * * * * * * * * * * * * * * //

dimensions      [0 3 -1 0 0 0 0];

internalField   nonuniform List<scalar> 
823
(
0.0113774
-0.0505559
0.0391786
0.0387587
-0.133438
0.106056
0.0788351
-0.205878
0.165801
0.130181
-0.268865
0.217519
-0.323248
0.259394
0.194036
0.0107027
-0.0612586
0.0361429
-0.158878
0.0726495
-0.242384
0.117978
-0.314194
-0.375598
0.170327
0.00837707
-0.0696357
0.0282857
-0.178786
0.0567277
-0.270826
0.0918156
-0.349282
-0.416053
0.132271
0.00529949
-0.0749352
0.0179965
-0.191483
0.0362317
-0.289062
0.0588879
-0.371938
-0.44242
0.0852549
0.00196209
-0.0768972
0.00663043
-0.196152
0.0132905
-0.295722
0.0215232
-0.380171
0.0310641
-0.451961
0.00670493
-0.0107008
0.00399588
0.0222679
-0.0308079
0.0152449
0.0454796
-0.0483634
0.0251517
0.0746256
-0.0637827
0.0346367
-0.0768548
0.10827
0.0432106
0.0057868
-0.0164876
0.0215631
-0.0465842
0.0468279
-0.0736282
0.0799191
-0.0968739
-0.115971
0.119036
0.00640608
-0.0228937
0.023698
-0.0638761
0.0513164
-0.101247
0.0880413
-0.133599
-0.160049
0.132119
0.00753921
-0.0304329
0.0270999
-0.0834368
0.0573479
-0.131495
0.0970803
-0.173331
-0.207861
0.144892
0.00874567
0.0313651
0.0656718
0.10986
0.161393
0.322075
-0.955081
0.741276
0.471916
-0.816989
0.667148
0.563974
-0.347034
0.254975
0.598057
-0.0826403
0.048557
-0.0100885
0.00720151
0.330852
-1.1669
0.470374
-0.956511
0.564405
-0.441065
0.600555
-0.11879
-0.0150774
0.337357
-1.37214
0.462457
-1.08161
0.554685
-0.533292
0.595323
-0.159429
-0.0262714
0.338041
-1.56529
0.450602
-1.19417
0.537233
-0.619924
0.586526
-0.208721
-0.0474075
0.327976
-1.73187
0.43021
-1.29641
0.509845
-0.699558
0.572017
-0.270893
-0.080907
1.19723
-1.58888
-1.34021
1.00784
-1.10702
0.904817
-0.596532
0.874834
-0.24091
-0.0666422
1.33071
-1.1324
-1.78719
0.984949
-0.761255
0.787123
-0.398706
0.713985
-0.167772
-0.0466454
1.18999
-0.607466
-1.71492
0.817014
-0.388283
0.616946
-0.198638
0.537213
-0.0880385
-0.0255949
0.822519
-0.185251
-1.24473
0.545348
-0.111112
0.399217
-0.0525065
0.335964
-0.0247851
-0.00781301
0.306739
-0.49199
0.195627
0.14312
0.118335
1.56261
0.0462523
-1.57779
1.52169
0.126169
1.46265
0.191311
1.3963
0.236682
0.250118
1.6759
0.0356536
-1.6653
1.69937
0.102697
1.73088
0.159804
1.76536
0.202194
0.228286
1.38798
0.0184778
-1.3708
1.43707
0.0536036
1.51391
0.0829703
1.61021
0.105888
0.123575
0.977701
0.00531461
-0.964538
1.01588
0.0154212
1.07581
0.023041
1.15388
0.0278232
0.0327189
0.392986
-0.387671
0.408407
0.431448
0.459271
0.128794
0.327601
-0.264619
-0.191776
0.0781662
0.273204
-0.222576
0.0385252
0.209794
-0.170153
0.0113395
0.136449
-0.109264
0.051958
-0.0406185
0.115956
0.378897
-0.167252
0.0714943
0.317666
0.0356142
0.245674
0.010559
0.161505
0.062517
0.0888529
0.418274
-0.12823
0.0548101
0.351708
0.027286
0.273198
0.008064
0.180727
0.070581
0.0552448
0.443537
-0.0805083
0.0337644
0.373189
0.0166551
0.290307
0.00486413
0.192518
0.0754451
0.0174827
-0.025906
0.0105007
0.00508623
0.00145211
0.0722958
0.0870358
-0.106783
-0.0525482
0.0426717
0.0734491
-0.043825
0.0196263
0.0567194
-0.033674
0.00510696
0.0366491
-0.0221298
0.0132218
-0.00811486
0.0761194
0.125621
-0.114705
0.0438015
0.105767
0.0196945
0.0808264
0.0051086
0.051235
0.0183304
0.0846742
0.168369
-0.127423
0.0492715
0.14117
0.0228292
0.107269
0.00620382
0.0678604
0.0245342
0.0942782
0.21458
-0.140489
0.0559071
0.179541
0.0265944
0.136581
0.00744967
0.0870052
0.0319839
0.1075
-0.157538
0.0644645
0.0308932
0.00863458
0.508833
0.168063
-0.280916
0.549886
0.17362
-0.214673
0.490137
0.311969
-0.25222
0.332375
0.80438
-0.646619
1.03788
-0.812286
0.506147
0.0578956
0.545125
0.134643
0.480813
0.376281
0.330278
0.954916
1.25345
0.504093
-0.0502176
0.53324
0.105495
0.462544
0.446977
0.328736
1.08872
1.45476
0.500651
-0.154889
0.517368
0.0887785
0.44133
0.523015
0.325225
1.20483
1.6395
0.494035
-0.252945
0.493978
0.0888359
0.414813
0.60218
0.313348
1.30629
1.79531
0.771049
-0.419974
0.856233
0.00365208
0.958237
0.500176
1.16949
1.09504
1.6174
1.3474
0.720417
-0.536371
0.802014
-0.0779444
0.961459
0.340731
1.29936
0.757148
1.1428
1.77396
0.605718
-0.538068
0.640235
-0.112461
0.805993
0.174973
1.17321
0.389932
0.611899
1.70411
0.449242
-0.38329
0.408918
-0.0721377
0.53752
0.0463707
0.816118
0.111335
0.186902
1.24111
0.22073
0.148593
0.194963
0.306298
0.4932
1.4025
-0.246876
1.4657
-0.230456
1.52299
-0.185514
1.56316
-0.120685
-0.0405378
1.75281
-0.225731
1.71985
-0.197496
1.6907
-0.156357
1.67089
-0.100876
-0.0349482
1.60156
-0.123187
1.5088
-0.104738
1.43458
-0.0821313
1.38706
-0.0533599
-0.0186889
1.15105
-0.0331205
1.07429
-0.0279762
1.01529
-0.0231346
0.977569
-0.0156395
-0.00565761
0.460079
0.432103
0.408969
0.393329
0.0025012
0.043002
-0.0455032
0.00732742
0.101042
-0.105869
0.0160942
0.148385
-0.157151
0.0165774
0.1519
-0.152383
0.114019
0.0148129
-0.112255
0.00682784
0.0361742
0.0201764
0.0876939
0.0409555
0.127606
0.0482523
0.144603
0.116373
0.0458983
0.00880844
0.0273658
0.0270744
0.069428
0.0521472
0.102533
0.0730885
0.123661
0.114027
0.0754342
0.00780029
0.0195655
0.0255109
0.0517174
0.0497444
0.0782994
0.0774264
0.0959795
0.0992331
0.0922206
0.00509821
0.0144673
0.0179711
0.0388445
0.0367639
0.0595066
0.0600065
0.0727369
0.0767315
0.0825081
0.00342418
0.0110431
0.0125814
0.0296873
0.0274445
0.0446435
0.0470578
0.0531236
0.0561404
0.0676489
0.00223153
0.00881155
0.00894976
0.022969
0.0222913
0.031302
0.0410421
0.0343728
0.0347547
0.0624278
0.00167001
0.00714155
0.010095
0.014544
0.026114
0.015283
0.0466295
0.0138573
0.0115454
0.0698388
0.0036615
0.00348004
0.0173847
0.000820778
0.0366505
-0.00398286
0.0595988
-0.00909096
-0.0142863
0.0854305
0.00747591
0.0235416
0.0447104
0.0702562
0.0991804
0.153865
0.0195799
-0.105796
0.243272
-0.129897
0.0404894
0.265048
-0.0387267
0.016951
0.273348
-0.00379889
-0.00450207
-0.00640782
-0.00205453
0.214656
-0.132648
0.324958
-0.240199
0.351692
-0.0654609
0.358154
-0.0102604
-0.0114772
0.259497
-0.322307
0.390475
-0.371177
0.433325
-0.108311
0.438837
-0.0157722
-0.0119619
0.292249
-0.529125
0.436809
-0.515736
0.500733
-0.172235
0.510491
-0.0255309
-0.00876527
0.311332
0.462743
0.545484
0.56851
0.0706886
0.0386453
-0.109334
0.078648
-0.00795933
0.0830121
-0.00436411
0.0815552
0.00145685
0.000544355
0.194225
-0.261376
0.226755
0.239342
0.236297
0.0207298
-0.00433105
-0.0163988
0.0342787
-0.0135489
0.0567553
-0.0224766
0.085613
-0.0288576
-0.023721
0.0539185
-0.0434366
0.0862679
0.139225
0.202588
0.0478894
-0.0550802
0.0763107
-0.06912
0.027588
-0.0520987
0.0724002
0.0123425
-0.044332
0.0595775
0.00331726
-0.0300303
0.0390556
-0.0112607
0.014578
0.0455996
-0.0321419
-0.0685379
0.0251158
-0.0316149
0.00990579
-0.0291219
0.00220919
-0.0223337
-0.00905154
0.0561856
-0.00655055
-0.0817769
0.0332458
-0.00867511
0.0143818
-0.0102579
0.0026317
-0.0105836
-0.00641984
0.069832
0.021595
-0.0979775
0.0446557
0.0165013
0.0232805
0.0111173
0.00690672
0.00579016
0.000486886
0.073848
-0.104801
0.0465243
0.0239676
0.00762797
0.0165842
-0.114018
-0.0148213
0.0160939
-0.151892
0.00730628
-0.148364
0.002489
-0.101051
-0.0430142
0.0482695
-0.116364
-0.0459235
0.0409301
-0.144553
0.0201627
-0.127596
0.00682076
-0.0877095
-0.0361935
0.073126
-0.113958
-0.0755311
0.0521209
-0.123548
0.0270632
-0.102539
0.00880547
-0.0694518
-0.027388
0.0773429
-0.0989467
-0.0923545
0.0496182
-0.0958232
0.0254299
-0.0783504
0.00777417
-0.0517961
-0.0196138
0.0599722
-0.0826082
0.0365492
0.0177764
0.00503585
0.342465
0.582591
-0.529077
0.282305
0.222406
-0.162246
0.249443
0.0531092
-0.0202474
0.165893
0.117614
-0.0340637
0.0001684
0.0966047
0.40925
0.56932
0.374159
0.257497
0.337661
0.089607
0.23406
0.221215
0.16569
0.462538
0.502762
0.454506
0.265529
0.410507
0.133607
0.283691
0.34803
0.367605
0.501587
0.397155
0.518532
0.248583
0.46059
0.191549
0.316601
0.492019
0.586228
0.512218
0.546129
0.485458
0.330859
0.15868
0.351371
0.0850723
0.0736074
0.0809514
0.00412091
0.072585
0.00836635
-0.0368157
0.109401
0.332346
0.243708
0.227581
0.201884
0.261673
0.0856662
0.0237345
0.0567869
0.0288793
0.0342895
0.0224974
0.0207333
0.0135562
0.00433451
0.2028
0.139324
0.0862907
0.0539234
)
;

boundaryField
{
    left
    {
        type            calculated;
        value           nonuniform List<scalar> 
17
(
-0.60402
-0.60402
-0.60402
-0.60402
-0.60402
-0.39598
-0.39598
-0.39598
-0.39598
-0.39598
-0.39598
-0.39598
-0.39598
-0.39598
-0.39598
-0.510051
-0.510051
)
;
    }
    right
    {
        type            calculated;
        value           nonuniform List<scalar> 
17
(
0.0810109
0.234787
0.281811
0.363223
0.439322
0.507295
0.566946
0.600944
0.605544
0.606517
0.607662
0.605516
0.86057
0.693988
0.516163
0.318182
0.110522
)
;
    }
    down
    {
        type            calculated;
        value           uniform 0;
    }
    up
    {
        type            calculated;
        value           uniform 0;
    }
    cylinder
    {
        type            calculated;
        value           uniform 0;
    }
    defaultFaces
    {
        type            empty;
    }
}


// ************************************************************************* //
