/*--------------------------------*- C++ -*----------------------------------*\
  =========                 |
  \\      /  F ield         | OpenFOAM: The Open Source CFD Toolbox
   \\    /   O peration     | Website:  https://openfoam.org
    \\  /    A nd           | Version:  13
     \\/     M anipulation  |
\*---------------------------------------------------------------------------*/
FoamFile
{
    format      ascii;
    class       volScalarField;
    location    "0.835";
    object      strainRateViscosityModel:nu;
}
// * * * * * * * * * * * * * * * * * * * * * * * * * * * * * * * * * * * * * //

dimensions      [0 2 -1 0 0 0 0];

internalField   nonuniform List<scalar> 
440
(
9.41954
8.96974
8.54453
8.0424
7.5862
9.68995
9.35817
8.98178
8.48005
7.87557
9.80074
9.53084
9.15877
8.58509
7.84825
9.84962
9.61817
9.25861
8.64755
7.86606
9.86917
9.65606
9.30591
8.68093
7.90878
1.30808
1.79071
2.04993
2.29997
2.36406
3.3866
3.30213
3.31598
3.42396
3.49467
5.89258
5.27136
4.92746
4.72712
4.75673
7.76956
6.99346
6.42028
5.90455
5.82686
8.82064
8.15138
7.55212
6.91817
6.87147
1.85118
0.846147
0.42337
0.164081
0.174248
2.6152
0.907151
0.368567
0.134448
0.0619091
3.51135
1.1462
0.30286
0.0986598
0.0168801
4.09093
1.43389
0.27617
0.0539789
0.0731086
4.60377
1.75117
0.321639
0.0115042
0.180691
4.22923
1.73964
0.306748
0.0742682
0.285003
3.71179
1.82488
0.632965
0.308743
0.414411
4.91997
3.20829
1.24241
0.557364
0.526771
7.00947
4.28808
1.91783
0.899333
0.646798
8.27284
5.0761
2.49628
1.3037
0.822662
2.8482
3.68252
4.61961
5.50546
6.14869
3.68376
3.69668
3.7723
3.8523
3.36793
8.22648
8.08653
7.7993
7.38544
6.34647
9.0529
8.99236
8.85903
8.62148
8.16014
9.60671
9.56995
9.48702
9.33805
9.1188
7.50321
8.01244
8.55946
9.01088
9.46417
7.794
8.45167
8.98715
9.37788
9.70863
7.779
8.55906
9.15943
9.54077
9.80944
7.81628
8.62756
9.25739
9.62275
9.85359
7.89134
8.67366
9.30535
9.65743
9.87034
2.5341
2.47511
2.27515
2.12075
2.04975
3.48053
3.43261
3.47334
3.69357
4.24726
4.63566
4.65898
5.04958
5.59946
6.45206
5.68323
5.8254
6.49719
7.1878
8.04119
6.753
6.84151
7.58027
8.24267
8.93535
0.211689
0.0618058
0.284151
0.87301
2.02808
0.184199
0.0773883
0.229508
0.890623
2.66079
0.165195
0.0798582
0.171679
1.08157
3.43996
0.153339
0.0622018
0.15601
1.38547
3.9412
0.155489
0.0673565
0.248046
1.73375
4.36383
0.204189
0.105267
0.272651
1.86877
4.10027
0.336698
0.123075
0.278958
1.81511
3.86196
0.667407
0.241262
0.773614
3.03757
4.90842
2.27521
0.814169
1.50869
4.16242
6.96073
5.05752
2.53699
2.4191
5.03762
8.27915
5.94683
5.26589
4.40221
3.51032
2.77977
3.52248
3.99126
3.97107
3.87641
3.76366
6.32107
7.35232
7.779
8.06767
8.21846
8.1212
8.59992
8.84943
8.98861
9.05202
9.11694
9.33781
9.48741
9.57051
9.60696
9.31089
7.91689
1.39867
3.63024
7.73684
9.08188
7.44084
3.20602
1.64078
6.78909
8.39874
6.57776
4.20855
1.0036
4.14773
6.81573
5.09481
3.45532
1.70074
1.03872
4.50392
3.14531
2.0388
1.378
0.460087
2.59741
1.61864
1.00254
0.797182
0.926775
1.45652
0.779251
0.580184
0.613536
0.686187
0.801213
0.406545
0.591701
0.760489
0.833745
0.305265
0.509071
0.886373
1.0522
1.11358
0.16319
0.93558
1.28171
1.51809
1.57263
0.190543
0.363067
0.710938
0.778191
0.730901
0.396147
0.50197
0.579998
0.637626
0.62207
0.615394
0.649185
0.46608
0.494296
0.509532
0.96756
0.798015
0.419222
0.35544
0.395025
1.33171
0.847827
0.425256
0.239046
0.278958
1.10582
0.858929
1.12439
1.109
0.995492
0.283598
0.472342
0.866776
0.921011
0.843991
9.19119
8.83869
7.75887
5.73031
3.5598
8.58733
7.72296
5.85164
3.4915
0.865946
0.96454
0.858188
1.02676
1.62021
2.65827
0.813023
0.767007
0.703553
0.824449
1.52675
1.05941
1.01066
0.847411
0.552878
0.744964
1.38481
1.34781
1.14989
0.798167
0.228835
1.85731
1.81063
1.55843
1.24034
0.598481
7.73637
3.62719
1.39996
7.91513
9.31104
6.78528
1.64059
3.20266
7.43775
9.08252
4.13438
1.01086
4.1944
6.57317
8.40031
1.03685
1.70535
3.43373
5.08571
6.82223
0.476013
1.37623
2.01482
3.12773
4.52678
1.31237
0.54123
0.550841
0.452619
0.17576
0.678589
0.290302
0.468699
0.519208
0.485415
0.400884
0.152072
0.381903
0.621175
0.803968
0.291477
0.0683422
0.341865
0.774214
1.22408
0.246927
0.0459598
0.320215
0.860237
1.58968
5.4814
2.46057
1.03476
0.959379
1.14174
2.88797
1.08746
0.724212
0.554514
0.252302
3.56821
5.73583
7.76005
8.83922
9.19134
0.843707
3.47225
5.84506
7.72158
8.58717
)
;

boundaryField
{
    left
    {
        type            calculated;
        value           nonuniform List<scalar> 
17
(
0.459334
1.12481
2.18666
3.91
6.58054
0.305122
0.18922
0.138452
0.143886
0.214478
2.9595
2.06239
1.34057
0.822447
0.500954
6.97886
4.5798
)
;
    }
    right
    {
        type            calculated;
        value           nonuniform List<scalar> 
17
(
0.995786
0.845441
0.733043
0.625017
0.51201
0.394466
0.272367
0.160271
0.0494078
0.0149883
0.0893478
0.232349
0.34898
0.468444
0.560154
0.659683
0.814663
)
;
    }
    down
    {
        type            calculated;
        value           nonuniform List<scalar> 
20
(
5.99527
2.99991
1.14432
1.04192
1.85312
4.27033
6.38392
8.13149
9.01584
9.30929
9.30912
9.01519
8.13
6.37988
4.26419
1.83177
0.933476
1.19084
1.16591
1.04253
)
;
    }
    up
    {
        type            calculated;
        value           nonuniform List<scalar> 
20
(
8.54863
5.40412
2.72573
1.45396
0.889235
9.69562
9.66615
9.59857
9.47421
9.2934
9.2964
9.47647
9.60018
9.66726
9.69603
5.70543
3.14815
2.65917
5.39344
8.56556
)
;
    }
    cylinder
    {
        type            calculated;
        value           nonuniform List<scalar> 
40
(
1.37474
3.59163
6.11885
7.96029
8.95703
9.50511
9.74576
9.84079
9.88145
9.89745
9.54742
9.76283
9.84855
9.88495
9.89848
2.2883
4.52506
6.699
8.2342
9.06983
3.04371
1.85056
1.09477
0.447134
0.605588
9.51906
9.33191
8.74237
7.26984
4.98628
9.51889
9.33117
8.7403
7.26159
4.95771
2.96603
1.73366
1.07396
0.667289
0.103119
)
;
    }
    defaultFaces
    {
        type            empty;
    }
}


// ************************************************************************* //
