/*--------------------------------*- C++ -*----------------------------------*\
  =========                 |
  \\      /  F ield         | OpenFOAM: The Open Source CFD Toolbox
   \\    /   O peration     | Website:  https://openfoam.org
    \\  /    A nd           | Version:  13
     \\/     M anipulation  |
\*---------------------------------------------------------------------------*/
FoamFile
{
    format      ascii;
    class       volScalarField;
    location    "0.195";
    object      p;
}
// * * * * * * * * * * * * * * * * * * * * * * * * * * * * * * * * * * * * * //

dimensions      [0 2 -2 0 0 0 0];

internalField   nonuniform List<scalar> 
1800
(
-0.959479
-0.921201
-0.840383
-0.740663
-0.643325
-0.556007
-0.479813
-0.413199
-0.354483
-0.306382
-1.13718
-1.09477
-1.00337
-0.890892
-0.781314
-0.682888
-0.596857
-0.521875
-0.45701
-0.403991
-1.30546
-1.25861
-1.15641
-1.0314
-0.90994
-0.800664
-0.704813
-0.620949
-0.547836
-0.486116
-1.45917
-1.40769
-1.29489
-1.15814
-1.02589
-0.906972
-0.802547
-0.711034
-0.631073
-0.562996
-1.59273
-1.53651
-1.41345
-1.26593
-1.124
-0.996455
-0.884311
-0.785847
-0.699595
-0.625345
-1.70098
-1.64005
-1.50742
-1.35047
-1.20031
-1.06555
-0.946975
-0.842739
-0.75124
-0.671882
-1.77898
-1.7135
-1.57227
-1.40745
-1.2507
-1.11022
-0.986566
-0.87776
-0.782091
-0.698622
-1.82252
-1.75281
-1.60426
-1.43342
-1.2719
-1.12735
-1.00009
-0.888038
-0.789368
-0.702855
-1.8283
-1.7548
-1.60061
-1.42572
-1.26133
-1.11441
-0.985058
-0.87112
-0.770669
-0.682223
-1.79427
-1.7177
-1.55969
-1.38276
-1.21743
-1.06984
-0.939854
-0.825307
-0.724233
-0.634926
0.350984
0.36856
0.38475
0.398424
0.407901
0.413029
0.414563
0.413352
0.410075
0.405319
0.310018
0.328178
0.346418
0.363024
0.375667
0.383797
0.388073
0.389348
0.38833
0.385748
0.242841
0.261905
0.283301
0.304395
0.321847
0.334538
0.342967
0.348003
0.350398
0.351126
0.150786
0.171067
0.196695
0.223752
0.247532
0.266207
0.280068
0.290006
0.296832
0.301864
0.0356893
0.0574936
0.0883892
0.122778
0.154248
0.180164
0.200567
0.216374
0.228477
0.238618
-0.100019
-0.076378
-0.0392431
0.00370981
0.0440565
0.078278
0.106148
0.128606
0.14664
0.162486
-0.253237
-0.22744
-0.183179
-0.1306
-0.0804013
-0.0370177
-0.000946886
0.0287659
0.0532164
0.0751517
-0.420171
-0.391881
-0.339705
-0.276633
-0.215848
-0.16269
-0.117914
-0.0805575
-0.049368
-0.0211822
-0.596459
-0.565283
-0.504395
-0.429992
-0.357916
-0.294396
-0.240445
-0.195093
-0.156809
-0.122406
-0.77765
-0.743135
-0.672624
-0.585869
-0.501451
-0.426415
-0.361973
-0.307082
-0.259976
-0.21888
0.360764
0.280648
0.224315
0.18029
0.144672
0.114508
0.087279
0.0616183
0.036727
0.0121914
0.354925
0.278923
0.22437
0.180772
0.145077
0.114737
0.0873791
0.0616461
0.0367236
0.0121791
0.342522
0.274417
0.223174
0.180794
0.145384
0.115001
0.0875539
0.0617466
0.0367697
0.0121835
0.322794
0.267278
0.220782
0.180356
0.145582
0.11529
0.0877955
0.0619138
0.0368619
0.0122041
0.294724
0.257648
0.217266
0.179465
0.145657
0.115594
0.0880955
0.0621416
0.0369966
0.0122401
0.257258
0.245567
0.212704
0.178129
0.145595
0.1159
0.0884451
0.0624234
0.0371702
0.0122911
0.209643
0.230909
0.207171
0.176361
0.145382
0.116195
0.0888348
0.0627525
0.0373789
0.0123567
0.151407
0.212928
0.200654
0.174168
0.145007
0.116467
0.0892551
0.0631218
0.0376189
0.0124363
0.0823496
0.190377
0.192737
0.171402
0.144404
0.116685
0.0896912
0.063523
0.0378863
0.0125303
0.00769715
0.16429
0.183759
0.168198
0.143617
0.116859
0.090144
0.0639542
0.0381794
0.0126418
-0.0310782
0.142754
0.174819
0.163486
0.141213
0.115706
0.0896103
0.0637097
0.0381008
0.0126803
-0.0441607
0.116972
0.157194
0.152589
0.134683
0.111818
0.0872803
0.0623293
0.0373784
0.0124723
-0.0405629
0.102022
0.144008
0.143281
0.128599
0.108001
0.0849281
0.0609162
0.0366284
0.0122498
-0.0328503
0.0904492
0.132146
0.134571
0.122716
0.104211
0.0825535
0.0594763
0.0358562
0.0120159
-0.0220053
0.0824178
0.122064
0.126675
0.117174
0.100546
0.0802174
0.0580451
0.035081
0.0117769
-0.0108903
0.0765193
0.113433
0.119572
0.112045
0.097081
0.0779766
0.0566584
0.0343215
0.0115384
-0.00160742
0.0717675
0.105977
0.113242
0.107385
0.0938841
0.0758832
0.0553498
0.0335952
0.0113051
0.00450381
0.0672519
0.0993547
0.107615
0.103219
0.0910021
0.0739784
0.0541478
0.0329166
0.0110821
0.00720669
0.0620784
0.0928051
0.102205
0.0992404
0.0882414
0.0721372
0.0529702
0.0322239
0.0108347
0.00342068
0.0581904
0.0888475
0.0991038
0.0969933
0.0866844
0.0710985
0.0523072
0.0318376
0.0107005
-0.484842
-0.530954
-0.555052
-0.558117
-0.54199
-0.50917
-0.462472
-0.404162
-0.338794
-0.268004
-0.322945
-0.369492
-0.398213
-0.410115
-0.406208
-0.38924
-0.360189
-0.323719
-0.280774
-0.236419
-0.198615
-0.243732
-0.27439
-0.291344
-0.295051
-0.288321
-0.270802
-0.247811
-0.21765
-0.186483
-0.102498
-0.146854
-0.178679
-0.198659
-0.207144
-0.206609
-0.196547
-0.18181
-0.160566
-0.138615
-0.0293919
-0.0728277
-0.105246
-0.127147
-0.138891
-0.142459
-0.137715
-0.1286
-0.113822
-0.0982227
0.0263302
-0.0165499
-0.0494599
-0.0727449
-0.0868274
-0.0932453
-0.0922781
-0.0869916
-0.0766336
-0.065286
0.0677386
0.0250731
-0.00833532
-0.0327224
-0.0485525
-0.0570111
-0.0586837
-0.0559914
-0.0486846
-0.0402983
0.0970898
0.0541786
0.0200604
-0.00538531
-0.0226519
-0.0326637
-0.0361776
-0.0351303
-0.0297149
-0.0231993
0.113751
0.0708191
0.0357267
0.00892384
-0.00982451
-0.0212036
-0.0259812
-0.0256411
-0.0207271
-0.0134306
0.125566
0.078933
0.0406461
0.0104535
-0.0119878
-0.0270447
-0.0354962
-0.0378345
-0.0349533
-0.0269388
0.941601
0.892411
0.835513
0.774569
0.708325
0.634092
0.549918
0.457102
0.368323
0.315527
0.746314
0.691477
0.630287
0.562958
0.487597
0.40204
0.304829
0.197761
0.0955443
0.0350993
0.532059
0.473635
0.408894
0.336209
0.253595
0.159097
0.0513004
-0.0678386
-0.181885
-0.248964
0.327452
0.264093
0.193339
0.113322
0.0222566
-0.0818278
-0.200451
-0.331581
-0.457138
-0.530071
0.138391
0.0687723
-0.00917188
-0.0973106
-0.197397
-0.311515
-0.441223
-0.584382
-0.721192
-0.798942
-0.0366527
-0.11233
-0.197107
-0.292873
-0.40143
-0.524947
-0.664905
-0.819079
-0.966535
-1.04707
-0.197196
-0.277874
-0.368442
-0.47075
-0.586631
-0.718304
-0.86698
-1.02973
-1.18815
-1.2661
-0.340135
-0.424689
-0.519884
-0.627472
-0.749302
-0.887636
-1.04358
-1.21471
-1.37481
-1.45328
-0.46184
-0.54934
-0.648008
-0.759534
-0.885831
-1.02918
-1.19054
-1.36598
-1.52636
-1.60557
-0.560374
-0.649806
-0.749874
-0.863985
-0.993171
-1.13972
-1.30421
-1.48123
-1.64121
-1.71983
2.12853
2.14546
2.16592
2.18784
2.20922
2.22918
2.24706
2.26227
2.27523
2.28535
2.07591
2.091
2.10912
2.12833
2.14673
2.1634
2.17767
2.18901
2.19831
2.20593
2.00315
2.01556
2.03023
2.04544
2.05942
2.07124
2.08014
2.08572
2.08963
2.09357
1.91098
1.91994
1.93012
1.94012
1.94837
1.95388
1.95578
1.95381
1.95064
1.94994
1.80042
1.80525
1.81006
1.81378
1.81511
1.81299
1.80643
1.79531
1.78331
1.77729
1.67269
1.67294
1.67167
1.66824
1.66161
1.65068
1.63436
1.61267
1.59045
1.57802
1.52984
1.5254
1.51768
1.50639
1.4909
1.4701
1.44279
1.40926
1.37557
1.35586
1.37616
1.36671
1.3517
1.33149
1.306
1.27415
1.23465
1.18803
1.14183
1.11426
1.21922
1.20444
1.18088
1.15013
1.11302
1.06855
1.01536
0.95426
0.894432
0.858525
1.07036
1.04254
1.00492
0.960698
0.910476
0.852483
0.784911
0.708761
0.634922
0.590593
2.12392
1.71126
2.06435
1.88034
1.86942
1.87244
1.88135
1.90549
1.96096
2.06375
2.1171
1.70468
2.05869
1.87337
1.86171
1.86321
1.86963
1.89009
1.93824
2.02815
2.11101
1.69774
2.05367
1.86567
1.8533
1.85296
1.85609
1.87173
1.90913
1.98054
2.10559
1.69052
2.0493
1.85722
1.84422
1.8417
1.84076
1.85032
1.87347
1.92093
2.10078
1.68311
2.04558
1.84804
1.83454
1.82947
1.82368
1.82567
1.83097
1.84955
2.09657
1.67563
2.04248
1.8381
1.82432
1.8163
1.80487
1.79766
1.78234
1.76561
2.09293
1.66821
2.03996
1.82738
1.81363
1.80219
1.78433
1.76628
1.72874
1.66743
2.08984
1.66101
2.03795
1.81588
1.80255
1.78717
1.76206
1.73162
1.67079
1.55533
2.08729
1.65418
2.03632
1.8036
1.79118
1.77127
1.73814
1.69375
1.60775
1.427
2.08531
1.64796
2.03497
1.79058
1.7796
1.75457
1.713
1.65414
1.54244
1.29496
2.08348
1.64134
2.03073
1.77922
1.76473
1.73275
1.67943
1.60196
1.46342
1.15746
2.08432
1.63537
2.02412
1.77127
1.74869
1.70974
1.64544
1.55274
1.39448
1.09367
2.08683
1.63105
2.01832
1.7639
1.73408
1.68858
1.61489
1.51049
1.33869
1.05041
2.09142
1.6284
2.01347
1.75729
1.72111
1.66969
1.5882
1.4749
1.29446
1.02124
2.09856
1.6274
2.00967
1.75162
1.70995
1.65339
1.56562
1.44567
1.26065
1.00156
2.10902
1.62799
2.00691
1.74701
1.70074
1.63986
1.54724
1.42247
1.23586
0.988801
2.12324
1.63001
2.00508
1.74353
1.69356
1.62922
1.53301
1.40493
1.21866
0.981405
2.14336
1.63346
2.00396
1.7412
1.68847
1.62152
1.52288
1.39275
1.20782
0.978542
2.1616
1.63719
2.00215
1.74015
1.68563
1.61691
1.51697
1.38596
1.20293
0.981208
2.21474
1.6457
2.00444
1.73833
1.68468
1.61447
1.51384
1.38229
1.2007
0.982254
0.910393
0.743711
0.553938
0.373109
0.207543
0.0539034
-0.0884766
-0.216655
-0.326887
-0.416851
0.834901
0.707164
0.561065
0.415493
0.278896
0.150629
0.0302645
-0.0797309
-0.176792
-0.258575
0.797609
0.693984
0.577144
0.454628
0.33632
0.22447
0.119007
0.0216045
-0.0652098
-0.139108
0.780509
0.690077
0.591291
0.485938
0.382022
0.282937
0.188996
0.101477
0.022566
-0.0458213
0.775611
0.693472
0.606451
0.513344
0.419788
0.329576
0.243602
0.162944
0.089449
0.0248797
0.777224
0.700635
0.621248
0.53647
0.450242
0.366341
0.286016
0.210258
0.140685
0.0789479
0.781995
0.709268
0.634981
0.555792
0.474584
0.395031
0.318572
0.246158
0.179252
0.11937
0.788362
0.718258
0.64734
0.57167
0.493588
0.416744
0.342666
0.272286
0.206994
0.14823
0.798488
0.730245
0.661006
0.586619
0.509553
0.433487
0.359944
0.289843
0.224514
0.165402
0.812432
0.748171
0.680344
0.605947
0.528809
0.452405
0.378066
0.306843
0.240153
0.17936
-3.01211
-2.9026
-2.69206
-2.47237
-2.27848
-2.11575
-1.98191
-1.87335
-1.78746
-1.72292
-3.08101
-2.97969
-2.77547
-2.55662
-2.36087
-2.19599
-2.06045
-1.95048
-1.86367
-1.7997
-3.03441
-2.94227
-2.74815
-2.53232
-2.33606
-2.16973
-2.0327
-1.9212
-1.83243
-1.7658
-2.88369
-2.80079
-2.62007
-2.41048
-2.21604
-2.04969
-1.91196
-1.79931
-1.70867
-1.63848
-2.64897
-2.57513
-2.4101
-2.21063
-2.02154
-1.85792
-1.72147
-1.60912
-1.51774
-1.4456
-2.35546
-2.29032
-2.14251
-1.9573
-1.77815
-1.62125
-1.48936
-1.37995
-1.28997
-1.21873
-2.02971
-1.9727
-1.84292
-1.67587
-1.51157
-1.36614
-1.24297
-1.14015
-1.05463
-0.987417
-1.69553
-1.64586
-1.53403
-1.38784
-1.24233
-1.11244
-1.00172
-0.908809
-0.831043
-0.770395
-1.37143
-1.32821
-1.23353
-1.10923
-0.984773
-0.873233
-0.777914
-0.697778
-0.630527
-0.580586
-1.06895
-1.03121
-0.952151
-0.848938
-0.745495
-0.652671
-0.573136
-0.505742
-0.447431
-0.402349
-0.794168
-0.761029
-0.69584
-0.612076
-0.528743
-0.454711
-0.392283
-0.340819
-0.298063
-0.260972
-0.549065
-0.519743
-0.466396
-0.399447
-0.333616
-0.275836
-0.227733
-0.188564
-0.156783
-0.127748
-0.333527
-0.307318
-0.263802
-0.210839
-0.159555
-0.115181
-0.0787072
-0.0492898
-0.0257819
-0.00413572
-0.147224
-0.123557
-0.0881916
-0.0468673
-0.00779253
0.0252265
0.0517214
0.0725751
0.0887788
0.103431
0.0100125
0.0316127
0.0603161
0.0920936
0.121065
0.144617
0.162712
0.176244
0.186115
0.194578
0.138313
0.158278
0.181729
0.205957
0.226877
0.242845
0.254165
0.261719
0.266332
0.269602
0.237787
0.256524
0.276064
0.294646
0.309492
0.319718
0.325869
0.328814
0.329314
0.328491
0.308555
0.326451
0.343356
0.358117
0.368816
0.37511
0.3777
0.377443
0.375052
0.371328
0.350798
0.368229
0.383723
0.396425
0.404871
0.409024
0.409667
0.407649
0.403653
0.398292
0.364791
0.382118
0.397387
0.409744
0.4178
0.42158
0.421883
0.419555
0.41527
0.409572
-0.0172253
0.132386
0.155581
0.151062
0.136352
0.115638
0.0917999
0.0664004
0.0401119
0.0133925
0.0751372
0.166063
0.169283
0.156751
0.137722
0.115229
0.0908345
0.065452
0.0394626
0.0131733
0.151374
0.19265
0.180009
0.160698
0.138756
0.114851
0.0899821
0.0646141
0.038888
0.0129779
0.211397
0.213995
0.189423
0.164605
0.139745
0.114553
0.0892521
0.0638867
0.0383864
0.0128061
0.258688
0.231735
0.19781
0.168102
0.140653
0.11433
0.0886425
0.0632675
0.0379556
0.0126567
0.29519
0.246669
0.205148
0.171189
0.141491
0.114185
0.0881505
0.0627532
0.0375933
0.0125291
0.322413
0.25896
0.211397
0.17387
0.142264
0.114117
0.0877716
0.0623403
0.0372974
0.0124225
0.341739
0.268587
0.216495
0.176132
0.142971
0.114121
0.087501
0.0620249
0.0370655
0.012336
0.354226
0.275464
0.220371
0.177963
0.143611
0.114192
0.087333
0.0618025
0.0368949
0.0122692
0.360489
0.279501
0.222983
0.179351
0.14418
0.114323
0.0872612
0.0616686
0.0367831
0.0122212
-0.214984
0.0178065
0.099935
0.124917
0.125193
0.111727
0.0910648
0.0668107
0.0407151
0.0136964
-0.176301
0.0359333
0.107595
0.128062
0.126336
0.11208
0.0911021
0.0667466
0.0406369
0.0136588
-0.148079
0.0541548
0.116909
0.132438
0.12822
0.112761
0.0912455
0.0666898
0.0405341
0.0136039
-0.115422
0.0762795
0.128431
0.138044
0.130697
0.113793
0.0915735
0.0667311
0.0404876
0.0135712
-0.074642
0.1044
0.143081
0.145341
0.134112
0.115146
0.0920606
0.0668544
0.0404854
0.0135554
-1.65512
-1.73233
-1.71694
-1.62083
-1.46393
-1.27653
-1.07052
-0.881393
-0.699948
-0.541742
-1.65538
-1.73306
-1.71299
-1.60993
-1.44558
-1.25013
-1.03638
-0.838893
-0.651031
-0.488321
-1.65964
-1.73651
-1.71118
-1.59981
-1.42605
-1.21931
-0.998443
-0.793407
-0.609546
-0.463548
-1.67051
-1.74717
-1.71679
-1.5964
-1.41221
-1.19449
-0.969265
-0.760971
-0.582008
-0.437575
-1.68875
-1.76585
-1.73078
-1.60194
-1.40818
-1.18188
-0.952756
-0.740342
-0.556839
-0.39694
1.54165
1.52089
1.49168
1.45719
1.41824
1.37317
1.32002
1.25931
1.20021
1.16379
1.67427
1.66807
1.65461
1.63547
1.61155
1.58195
1.54531
1.50205
1.45953
1.43405
1.80135
1.80062
1.79609
1.78817
1.77665
1.76048
1.73844
1.71069
1.68292
1.66699
1.91371
1.91808
1.92095
1.92202
1.92045
1.91517
1.9051
1.89019
1.87476
1.86668
2.00688
2.01555
2.02442
2.03273
2.03922
2.04284
2.04262
2.03835
2.03314
2.03131
2.07937
2.09176
2.10566
2.11988
2.13285
2.14359
2.15125
2.15549
2.15826
2.16154
2.131
2.14622
2.16396
2.18264
2.20051
2.21662
2.23022
2.24083
2.24954
2.25683
2.1618
2.17888
2.19919
2.22087
2.24202
2.26172
2.2793
2.29418
2.30688
2.3169
2.17172
2.18966
2.21124
2.23443
2.25723
2.27875
2.29836
2.31542
2.3302
2.34171
2.16048
2.17842
2.20006
2.22332
2.24619
2.26778
2.28745
2.30457
2.31931
2.3306
-1.53514
-1.60261
-1.68886
-1.79628
-1.92808
-2.0877
-2.27866
-2.49737
-2.71238
-2.82739
-1.25002
-1.32037
-1.4079
-1.51486
-1.64464
-1.80078
-1.98628
-2.2004
-2.41909
-2.53794
-0.88942
-0.963145
-1.05289
-1.16031
-1.28839
-1.44046
-1.61976
-1.82589
-2.03619
-2.16371
-0.484482
-0.56323
-0.655821
-0.763641
-0.889355
-1.0362
-1.20751
-1.40248
-1.59799
-1.7246
-0.0762941
-0.158617
-0.251907
-0.357475
-0.477925
-0.616444
-0.776202
-0.956232
-1.13531
-1.25315
0.300276
0.220046
0.13119
0.032545
-0.0783898
-0.204631
-0.349116
-0.510793
-0.670499
-0.775726
0.631871
0.559561
0.480274
0.392986
0.295297
0.184437
0.0578495
-0.0833492
-0.22197
-0.312846
0.926323
0.864233
0.796351
0.722012
0.638713
0.543842
0.435321
0.314442
0.19658
0.120247
1.19648
1.14336
1.0838
1.0195
0.948296
0.86752
0.775383
0.673273
0.574735
0.512228
1.42401
1.37922
1.32571
1.26965
1.21007
1.14403
1.0693
0.986764
0.907652
0.85846
2.24009
1.75566
2.14124
1.89493
1.90708
1.90882
1.90505
1.90206
1.86047
1.73333
2.22366
1.75256
2.13383
1.89908
1.9058
1.90932
1.90857
1.91383
1.89143
1.82472
2.2085
1.7493
2.12585
1.90189
1.90422
1.90906
1.91197
1.92452
1.92066
1.91047
2.19456
1.7458
2.11754
1.90333
1.90223
1.90794
1.91381
1.9325
1.94501
1.97694
2.18172
1.74202
2.10911
1.90342
1.8997
1.90589
1.91412
1.93759
1.96487
2.02751
2.16989
1.73791
2.10075
1.90222
1.89653
1.90288
1.91288
1.93964
1.97984
2.06364
2.15899
1.73343
2.09261
1.89983
1.89265
1.89887
1.91005
1.9386
1.98867
2.08741
2.14898
1.72854
2.08482
1.89636
1.88801
1.89384
1.90554
1.9346
1.99115
2.0993
2.13982
1.72322
2.07746
1.89189
1.88259
1.88776
1.89929
1.92773
1.98739
2.09927
2.13148
1.71745
2.07062
1.88653
1.87639
1.88063
1.89124
1.91803
1.97733
2.08743
2.3849
1.77849
2.152
1.89735
1.90891
1.90241
1.88402
1.85581
1.75571
1.57601
2.32988
1.77172
2.15011
1.89825
1.9084
1.90328
1.88564
1.85892
1.7619
1.57861
2.30574
1.76819
2.15108
1.89725
1.90838
1.90442
1.88859
1.86482
1.77517
1.58435
2.28073
1.76389
2.14922
1.89561
1.90823
1.90575
1.89281
1.87364
1.79522
1.60465
2.25849
1.75934
2.14647
1.89344
1.9079
1.90719
1.89796
1.88518
1.82146
1.63676
1.25842
1.1203
0.912012
0.621262
0.264003
-0.13444
-0.53857
-0.912426
-1.23328
-1.48531
1.24538
1.10406
0.902262
0.623893
0.282408
-0.104087
-0.50646
-0.887696
-1.21936
-1.48074
1.26549
1.11253
0.904816
0.632092
0.30201
-0.0766661
-0.48062
-0.870684
-1.2122
-1.48116
1.31629
1.14092
0.91686
0.643939
0.319957
-0.0551894
-0.46222
-0.860996
-1.21169
-1.48772
1.39545
1.18981
0.938916
0.657022
0.332767
-0.0414135
-0.450479
-0.856051
-1.21588
-1.50041
)
;

boundaryField
{
    left
    {
        type            zeroGradient;
    }
    right
    {
        type            fixedValue;
        value           uniform 0;
    }
    down
    {
        type            zeroGradient;
    }
    up
    {
        type            zeroGradient;
    }
    cylinder
    {
        type            zeroGradient;
    }
    defaultFaces
    {
        type            empty;
    }
}


// ************************************************************************* //
