/*--------------------------------*- C++ -*----------------------------------*\
  =========                 |
  \\      /  F ield         | OpenFOAM: The Open Source CFD Toolbox
   \\    /   O peration     | Website:  https://openfoam.org
    \\  /    A nd           | Version:  13
     \\/     M anipulation  |
\*---------------------------------------------------------------------------*/
FoamFile
{
    format      ascii;
    class       volScalarField;
    location    "0.755";
    object      strainRateViscosityModel:nu;
}
// * * * * * * * * * * * * * * * * * * * * * * * * * * * * * * * * * * * * * //

dimensions      [0 2 -1 0 0 0 0];

internalField   nonuniform List<scalar> 
440
(
9.41955
8.96973
8.54451
8.04238
7.5862
9.68995
9.35817
8.98177
8.48004
7.87556
9.80074
9.53084
9.15877
8.58509
7.84825
9.84962
9.61817
9.25861
8.64755
7.86606
9.86917
9.65606
9.30591
8.68094
7.90878
1.30716
1.79084
2.05021
2.30034
2.36441
3.38587
3.30235
3.31659
3.42482
3.49553
5.89248
5.27144
4.9278
4.72772
4.7574
7.7696
6.99346
6.42033
5.90475
5.82715
8.82067
8.15137
7.5521
6.9182
6.87156
1.85163
0.846388
0.421187
0.159387
0.158691
2.61614
0.908574
0.367583
0.127517
0.0469607
3.51219
1.14782
0.304076
0.0878061
0.0146324
4.09147
1.4354
0.277111
0.0505194
0.0489394
4.60412
1.75272
0.323235
0.0116097
0.160054
4.22947
1.7404
0.30225
0.0672717
0.280343
3.71146
1.82446
0.629277
0.31167
0.416973
4.91968
3.20849
1.24054
0.556284
0.536562
7.00946
4.2885
1.91707
0.899633
0.659796
8.27283
5.07648
2.49626
1.30468
0.836763
2.84824
3.68257
4.6197
5.50558
6.14885
3.68374
3.69664
3.77223
3.85221
3.36789
8.2265
8.08654
7.7993
7.38542
6.34642
9.0529
8.99236
8.85903
8.62149
8.16015
9.60671
9.56995
9.48702
9.33805
9.1188
7.50323
8.01244
8.55945
9.01088
9.46418
7.794
8.45166
8.98714
9.37788
9.70864
7.77899
8.55905
9.15943
9.54077
9.80944
7.81627
8.62755
9.25739
9.62275
9.85359
7.89134
8.67366
9.30535
9.65743
9.87034
2.53244
2.47348
2.27359
2.11928
2.04821
3.47998
3.43201
3.47256
3.69254
4.24556
4.63611
4.6593
5.0496
5.59918
6.45134
5.68375
5.82581
6.49737
7.18783
8.04109
6.75322
6.84167
7.58034
8.2427
8.93537
0.20924
0.0604746
0.28158
0.869348
2.02639
0.180333
0.0760714
0.226721
0.887805
2.66036
0.16056
0.0794538
0.17037
1.08119
3.4408
0.148919
0.0639552
0.156945
1.38682
3.9423
0.15259
0.0698896
0.250239
1.73532
4.36467
0.202879
0.107915
0.271394
1.86944
4.10089
0.334804
0.125926
0.275443
1.81251
3.86156
0.665467
0.246396
0.774637
3.03717
4.90814
2.27461
0.815642
1.50923
4.16234
6.96072
5.05706
2.53813
2.4203
5.03791
8.27913
5.94704
5.26607
4.40233
3.51039
2.7798
3.52233
3.99112
3.97096
3.87635
3.76364
6.32102
7.35232
7.77902
8.06769
8.21847
8.12122
8.59993
8.84944
8.98862
9.05203
9.11694
9.33781
9.48741
9.57051
9.60696
9.31088
7.91687
1.39866
3.63022
7.73682
9.08187
7.44082
3.20599
1.64077
6.78907
8.39872
6.57773
4.20852
1.00358
4.14773
6.81569
5.09478
3.45532
1.70067
1.03874
4.50387
3.14533
2.03882
1.37794
0.460011
2.59731
1.61866
1.00249
0.797001
0.926601
1.45634
0.779159
0.579888
0.613133
0.685826
0.801392
0.406189
0.591005
0.759776
0.833046
0.305552
0.50828
0.885768
1.05146
1.11285
0.162723
0.935428
1.28147
1.51776
1.57224
0.190449
0.362654
0.709532
0.776359
0.729991
0.395851
0.501209
0.57864
0.635538
0.619424
0.614721
0.648129
0.46473
0.491824
0.505039
0.966812
0.796807
0.417624
0.352428
0.387394
1.3314
0.846962
0.423379
0.234912
0.270057
1.10569
0.85821
1.12274
1.10762
0.997105
0.283761
0.471857
0.865268
0.919399
0.844463
9.19118
8.83867
7.75884
5.73026
3.55973
8.58731
7.72293
5.85162
3.49152
0.866037
0.964635
0.858349
1.02686
1.6202
2.65825
0.81329
0.767323
0.703839
0.824544
1.52658
1.05953
1.01078
0.847556
0.553014
0.74443
1.38421
1.34719
1.14929
0.797745
0.228472
1.85581
1.80914
1.55706
1.2392
0.598206
7.73635
3.62716
1.39995
7.91511
9.31102
6.78525
1.64056
3.20265
7.43773
9.08251
4.13432
1.01086
4.19438
6.57314
8.40029
1.03679
1.70541
3.4337
5.08566
6.82219
0.476086
1.37629
2.0148
3.12766
4.52673
1.31191
0.542244
0.550692
0.453194
0.175907
0.677847
0.291635
0.468207
0.519579
0.485781
0.399572
0.154755
0.3812
0.621215
0.80419
0.290068
0.0701427
0.341105
0.773375
1.22354
0.245705
0.0450703
0.319493
0.857903
1.5882
5.48126
2.46049
1.03509
0.960666
1.14176
2.88774
1.08778
0.724266
0.555327
0.252132
3.56824
5.73581
7.76002
8.8392
9.19133
0.843588
3.47217
5.84502
7.72156
8.58716
)
;

boundaryField
{
    left
    {
        type            calculated;
        value           nonuniform List<scalar> 
17
(
0.457037
1.12224
2.18562
3.91012
6.58044
0.304122
0.188425
0.137829
0.143142
0.213354
2.95929
2.06178
1.33873
0.81956
0.499138
6.9788
4.57974
)
;
    }
    right
    {
        type            calculated;
        value           nonuniform List<scalar> 
17
(
0.997397
0.845921
0.732129
0.622343
0.507464
0.38683
0.263632
0.145612
0.0373647
0.0132919
0.0604278
0.207018
0.343831
0.471977
0.571071
0.673239
0.828649
)
;
    }
    down
    {
        type            calculated;
        value           nonuniform List<scalar> 
20
(
5.99515
2.99969
1.14462
1.04321
1.85304
4.27034
6.3839
8.13147
9.01582
9.30928
9.30911
9.01518
8.12998
6.37985
4.26414
1.83169
0.932801
1.18917
1.16453
1.04433
)
;
    }
    up
    {
        type            calculated;
        value           nonuniform List<scalar> 
20
(
8.54862
5.40447
2.72575
1.45443
0.902641
9.69562
9.66615
9.59857
9.47421
9.2934
9.2964
9.47646
9.60018
9.66726
9.69603
5.705
3.14873
2.66032
5.39371
8.56553
)
;
    }
    cylinder
    {
        type            calculated;
        value           nonuniform List<scalar> 
40
(
1.3733
3.5908
6.1188
7.96036
8.95706
9.50512
9.74577
9.84079
9.88145
9.89745
9.54744
9.76283
9.84855
9.88495
9.89848
2.28659
4.52321
6.69824
8.23411
9.06986
3.04372
1.85044
1.09416
0.446195
0.605516
9.51906
9.3319
8.74234
7.2698
4.98624
9.51889
9.33116
8.74028
7.26156
4.95766
2.9659
1.73337
1.07395
0.667791
0.103438
)
;
    }
    defaultFaces
    {
        type            empty;
    }
}


// ************************************************************************* //
