/*--------------------------------*- C++ -*----------------------------------*\
  =========                 |
  \\      /  F ield         | OpenFOAM: The Open Source CFD Toolbox
   \\    /   O peration     | Website:  https://openfoam.org
    \\  /    A nd           | Version:  13
     \\/     M anipulation  |
\*---------------------------------------------------------------------------*/
FoamFile
{
    format      ascii;
    class       surfaceScalarField;
    location    "4.85";
    object      phi;
}
// * * * * * * * * * * * * * * * * * * * * * * * * * * * * * * * * * * * * * //

dimensions      [0 3 -1 0 0 0 0];

internalField   nonuniform List<scalar> 
3485
(
-0.000814998
0.00249637
-0.00168138
-0.00189303
0.00531714
-0.00423911
-0.00194634
0.00618626
-0.00613295
0.000234451
0.00517829
-0.00735908
0.00576962
0.00231364
-0.0078488
0.0157894
-0.0025
-0.00751982
0.0313918
-0.00934207
-0.00626028
0.0533641
-0.0179938
-0.00397848
0.0817368
-0.0277938
-0.000578909
-0.0317445
0.00206109
0.11142
-0.000480761
0.00297714
-0.000381243
0.00521762
0.00161599
0.00418903
0.00684134
-4.70608e-05
0.0164869
-0.0073319
0.0316168
-0.0176299
0.0528567
-0.0305819
0.0804845
-0.0456216
0.114597
-0.0619066
-0.0727999
0.155653
0.000130292
0.00284684
0.00202651
0.0033214
0.00717887
-0.000963333
0.0169832
-0.00985141
0.032595
-0.0229436
0.0545023
-0.0395373
0.0824018
-0.0584814
0.115186
-0.0784063
0.151466
-0.0981863
-0.114346
0.193012
0.000711065
0.00213578
0.00469022
-0.000657759
0.0136708
-0.00994395
0.0289401
-0.0251207
0.0510236
-0.0450271
0.0792842
-0.0677978
0.112029
-0.0912265
0.146925
-0.113302
0.181371
-0.132632
-0.148107
0.215132
0.00154456
0.000591217
0.00816571
-0.00727891
0.0215546
-0.0233329
0.0423838
-0.0459499
0.0697576
-0.0724009
0.101326
-0.0993665
0.134037
-0.123937
0.164991
-0.144257
0.192003
-0.159645
-0.17058
0.214476
0.00264464
-0.00205342
0.0123245
-0.0169588
0.030114
-0.0411224
0.0551718
-0.0710077
0.0846587
-0.101888
0.114838
-0.129546
0.142411
-0.15151
0.165317
-0.167162
0.1829
-0.177228
-0.183047
0.195367
0.00392189
-0.00597531
0.0166356
-0.0296724
0.0377431
-0.06223
0.0642819
-0.0975465
0.0918872
-0.129493
0.116764
-0.154423
0.136804
-0.17155
0.151641
-0.181999
0.162029
-0.187616
-0.190246
0.169229
0.00520507
-0.0111804
0.0202786
-0.044746
0.042656
-0.0846073
0.067528
-0.122418
0.0903492
-0.152314
0.108573
-0.172647
0.121738
-0.184715
0.130662
-0.190923
0.136572
-0.193527
-0.194118
0.140444
0.00627174
-0.0174521
0.0224848
-0.0609591
0.0438488
-0.105971
0.0648558
-0.143426
0.082003
-0.169461
0.0942881
-0.184932
0.102332
-0.192758
0.107329
-0.195919
0.110357
-0.196556
-0.195866
0.112106
0.00692866
-0.0243808
0.0228503
-0.0768807
0.0414673
-0.124588
0.0577762
-0.159734
0.0696566
-0.181342
0.0771981
-0.192473
0.0814651
-0.197025
0.0836155
-0.19807
0.0845001
-0.19744
0.0845707
-0.195937
-0.00261872
-0.0116139
0.0142326
-0.0091118
-0.0223556
0.0288487
-0.0178795
-0.0266094
0.0353771
-0.0276539
-0.0282779
0.0380523
-0.0376343
-0.0292604
0.0392407
-0.0474014
-0.0300851
0.0398522
-0.05675
-0.0307013
0.04005
-0.0655599
-0.0309631
0.0397731
-0.0737403
-0.0307898
0.0389702
-0.0303234
-0.081291
0.0378742
-0.00388892
-0.00772498
-0.0122958
-0.0139488
-0.0230707
-0.0158344
-0.034961
-0.0163876
-0.0472759
-0.0169455
-0.0596278
-0.0177331
-0.0717744
-0.0185548
-0.0835395
-0.0191981
-0.0947976
-0.0195317
-0.019547
-0.105574
-0.0037874
-0.00393758
-0.0117088
-0.00602743
-0.0219178
-0.00562544
-0.0334759
-0.00482952
-0.045846
-0.00457542
-0.0586384
-0.00494064
-0.0715317
-0.00566143
-0.0842664
-0.00646338
-0.0966333
-0.0071649
-0.00760205
-0.108578
-0.00257797
-0.00135961
-0.00799705
-0.000608347
-0.015307
0.0016845
-0.0240666
0.00393009
-0.033992
0.00534997
-0.0447444
0.00581176
-0.0559399
0.00553411
-0.067219
0.00481568
-0.078275
0.00389114
0.00298377
-0.0888608
-0.00106678
-0.000292823
-0.00338823
0.00171311
-0.006657
0.00495327
-0.0109823
0.00825534
-0.0164605
0.0108282
-0.0229956
0.0123469
-0.0302916
0.01283
-0.0379454
0.0124696
-0.0455571
0.0115028
0.0100775
-0.0526509
-7.01071e-05
-0.000222715
-4.44824e-05
0.00168748
-2.79209e-05
0.0049367
-0.000318319
0.00854574
-0.00122737
0.0117373
-0.00292291
0.0140424
-0.00536769
0.0152748
-0.00832403
0.0154259
-0.0113649
0.0145437
0.012624
-0.0139113
0.000185532
-0.000408248
0.000898646
0.000974367
0.00210667
0.00372868
0.00361012
0.00704229
0.00510345
0.0102439
0.00630268
0.0128432
0.00705074
0.0145268
0.00737681
0.0150998
0.00753182
0.0143886
0.0120691
0.00808668
-0.000155683
-0.000252564
-0.000137951
0.000956635
0.000322209
0.00326852
0.00125624
0.00610826
0.0025131
0.00898708
0.00385103
0.0115053
0.00504654
0.0133313
0.00600936
0.014137
0.00690146
0.0134965
0.0106439
0.00832671
-0.000739277
0.000486713
-0.00197761
0.00219497
-0.00305011
0.00434102
-0.00358383
0.00664198
-0.00344644
0.00884969
-0.00266632
0.0107251
-0.00134975
0.0120147
0.000389097
0.0123982
0.00262541
0.0112602
0.00741328
0.00585598
-0.00119466
-0.0032388
-0.00503073
-0.00574784
-0.00474694
-0.00154163
0.00421279
0.0126325
0.0233138
0.0327882
-0.0920663
-0.26302
0.273796
-0.033172
0.255329
-0.314223
-0.0239448
0.836634
-0.845861
-0.0255337
0.755308
-0.753719
0.0286575
0.288371
-0.342563
0.0949252
-0.198067
0.131799
0.153375
-0.488385
0.429935
0.19472
-0.504834
0.46349
0.219141
-0.515133
0.490712
-0.354697
0.343735
-0.132284
-0.23631
-0.0751076
0.198152
-0.0598765
0.821403
-0.0303211
0.725752
0.056921
0.201129
0.125972
-0.267118
0.181402
-0.543815
0.219726
-0.543158
0.23909
-0.534497
-0.36157
-0.154831
-0.190057
-0.102436
0.145758
-0.0619862
0.780953
-0.0114437
0.67521
0.0904216
0.099264
0.160873
-0.337569
0.210837
-0.59378
0.244558
-0.576879
0.258432
-0.54837
-0.364317
-0.148984
-0.129934
-0.108264
0.105038
-0.0363273
0.709016
0.0327854
0.606097
0.128259
0.00379069
0.197103
-0.406413
0.240618
-0.637295
0.268532
-0.604794
0.276679
-0.556516
-0.363001
-0.111669
-0.0709159
-0.0900547
0.0834235
-0.000239729
0.619201
0.0887436
0.517114
0.169171
-0.0766363
0.232394
-0.469636
0.269277
-0.674178
0.290902
-0.626419
0.293377
-0.558992
-0.357785
-0.0535792
-0.031248
-0.0463188
0.076163
0.0457475
0.527135
0.142064
0.420797
0.209772
-0.144345
0.265176
-0.52504
0.295424
-0.704426
0.310976
-0.641971
0.308133
-0.556148
-0.348922
0.00487085
-0.0280322
0.0163259
0.0647079
0.0968997
0.446561
0.18855
0.329148
0.247025
-0.20282
0.294059
-0.572074
0.317982
-0.72835
0.328187
-0.652176
0.320566
-0.548528
-0.3368
0.0378064
-0.0575119
0.0786758
0.0238385
0.151191
0.374046
0.228795
0.251543
0.279095
-0.25312
0.318016
-0.610995
0.336291
-0.746626
0.34212
-0.658004
0.330322
-0.53673
-0.321967
0.0529278
-0.104584
0.122122
-0.0453559
0.196994
0.299174
0.261571
0.186967
0.304975
-0.296524
0.336499
-0.642519
0.350094
-0.76022
0.352561
-0.660471
0.337243
-0.521412
-0.305006
0.0729805
-0.144776
0.139348
-0.111723
0.222466
0.216056
0.286489
0.122944
0.323965
-0.334
0.348987
-0.667541
0.35967
-0.770903
0.359619
-0.66042
0.341349
-0.503142
-0.286458
0.357401
-0.147775
-0.354402
0.358612
-0.112934
0.450651
0.124017
0.603677
-0.0300823
0.694562
-0.424885
0.711775
-0.684755
0.677514
-0.736642
0.622377
-0.605283
0.548822
-0.429587
-0.230803
0.601555
-0.142703
-0.606627
0.577372
-0.0887511
0.638945
0.0624439
0.744492
-0.135629
0.77863
-0.459023
0.749415
-0.65554
0.688499
-0.675727
0.619103
-0.535886
0.538823
-0.349307
-0.172392
0.686911
-0.125061
-0.704553
0.682869
-0.0847095
0.751189
-0.00587627
0.799831
-0.184271
0.781329
-0.440521
0.738686
-0.612897
0.678003
-0.615043
0.605769
-0.463653
0.522851
-0.26639
-0.112817
0.705772
-0.10737
-0.723464
0.718364
-0.0973012
0.772014
-0.0595269
0.787106
-0.199363
0.771435
-0.42485
0.733696
-0.575158
0.659861
-0.541208
0.571761
-0.375552
0.482639
-0.177267
-0.0552782
0.708926
-0.0982446
-0.718051
0.722872
-0.111246
0.754104
-0.0907592
0.766101
-0.211361
0.752335
-0.411083
0.691251
-0.514074
0.592291
-0.442249
0.495079
-0.27834
0.41346
-0.0956483
-0.00902791
0.708023
-0.0968646
-0.709403
0.714955
-0.118179
0.732338
-0.108142
0.740884
-0.219907
0.706723
-0.376922
0.61107
-0.418421
0.493269
-0.324448
0.395649
-0.18072
0.32843
-0.0284296
0.0225677
0.700822
-0.0967244
-0.700962
0.696607
-0.113964
0.702451
-0.113986
0.689565
-0.207021
0.607566
-0.294924
0.469848
-0.280702
0.342865
-0.197466
0.261232
-0.0990869
0.223957
0.00884622
0.0330104
0.663378
-0.0840146
-0.676087
0.642166
-0.0927521
0.627411
-0.0992307
0.563564
-0.143174
0.426913
-0.158273
0.278318
-0.132107
0.175537
-0.0946847
0.125207
-0.048756
0.120045
0.014008
0.025029
0.529435
-0.0479065
-0.565543
0.486695
-0.0500128
0.430474
-0.0430096
0.32395
-0.0366497
0.197617
-0.03194
0.101226
-0.0357161
0.041389
-0.0348477
0.0150844
-0.0224514
0.0254249
0.00366745
0.00990951
0.208513
-0.25642
0.1585
0.115491
0.0788409
0.0469009
0.0111848
-0.023663
-0.0461144
-0.0424469
0.537829
0.0733109
-0.526569
0.549936
0.0999994
0.564954
0.125425
0.580063
0.15412
0.595184
0.180246
0.603841
0.205819
0.58975
0.229223
0.547444
0.235318
0.452796
0.250301
0.209815
0.519317
0.061704
-0.50771
0.533427
0.0858892
0.550141
0.108711
0.571375
0.132886
0.592226
0.159394
0.617942
0.180104
0.635174
0.211991
0.647646
0.222847
0.64269
0.255257
0.245878
0.505539
0.0514559
-0.495291
0.519914
0.0715143
0.535867
0.0927582
0.556621
0.112132
0.578937
0.137079
0.604832
0.154209
0.634229
0.182593
0.660793
0.196283
0.692318
0.223732
0.233643
0.495814
0.0416745
-0.486033
0.50936
0.0579688
0.525367
0.0767509
0.544294
0.0932049
0.56758
0.113792
0.591857
0.129932
0.623608
0.150842
0.653194
0.166697
0.691252
0.185674
0.201431
0.488158
0.0317993
-0.478283
0.500832
0.045295
0.517032
0.0605506
0.535301
0.0749362
0.558457
0.0906365
0.582862
0.105527
0.613125
0.120579
0.644198
0.135624
0.68071
0.149163
0.164089
0.480838
0.0220302
-0.471069
0.493162
0.0329717
0.509199
0.0445127
0.527701
0.0564346
0.550317
0.0680204
0.575397
0.0804472
0.604497
0.0914784
0.636233
0.103888
0.671397
0.113999
0.126083
0.470521
0.0127143
-0.461205
0.482786
0.0207065
0.498512
0.0287868
0.517411
0.037536
0.539813
0.0456183
0.565517
0.0547437
0.594564
0.0624314
0.626912
0.0715398
0.662399
0.0785129
0.0875196
0.446037
0.00447983
-0.437803
0.457576
0.00916768
0.472423
0.0139396
0.490911
0.0190477
0.512734
0.0237962
0.5384
0.0290776
0.567367
0.0334637
0.600163
0.0387439
0.636271
0.0424053
0.0477029
0.375581
-0.000645346
-0.370456
0.383685
0.00106351
0.39484
0.00278535
0.409304
0.00458336
0.426898
0.00620183
0.448017
0.0079594
0.472161
0.00931895
0.500001
0.0109045
0.530588
0.0118178
0.0127482
0.189037
-0.189682
0.1901
0.192886
0.197469
0.203671
0.21163
0.220949
0.231854
0.243671
0.0709051
0.144046
-0.132526
-0.0824258
0.0602831
0.146248
-0.135626
0.0504608
0.148866
-0.139043
0.0409414
0.152328
-0.142808
0.0314899
0.155996
-0.146545
0.022205
0.158748
-0.149464
0.0135211
0.157905
-0.149221
0.00625508
0.147648
-0.140382
0.00148021
0.117903
-0.113128
0.0552991
-0.0538188
0.0667278
0.154378
-0.0770595
0.056529
0.156447
0.0466536
0.158741
0.0371284
0.161853
0.0278746
0.16525
0.0190149
0.167608
0.0110116
0.165908
0.00465858
0.154001
0.000861964
0.121699
0.056161
0.0588218
0.163471
-0.0679151
0.0494503
0.165818
0.0401916
0.168
0.0312357
0.170809
0.022642
0.173844
0.0145952
0.175655
0.00759547
0.172908
0.0024692
0.159127
-9.8997e-06
0.124178
0.0561511
0.0473817
0.171304
-0.0552145
0.039235
0.173965
0.0310362
0.176199
0.0230353
0.17881
0.0154254
0.181454
0.00853241
0.182548
0.00291151
0.178528
-0.000521693
0.162561
-0.00110408
0.124761
0.055047
0.0337449
0.178028
-0.0404688
0.0268383
0.180872
0.0198448
0.183192
0.0130066
0.185648
0.00661184
0.187849
0.001106
0.188054
-0.00263536
0.18227
-0.0038261
0.163751
-0.00235433
0.123289
0.0526927
0.0182789
0.183681
-0.0239318
0.0125731
0.186577
0.00685285
0.188912
0.00134626
0.191154
-0.00356085
0.192756
-0.00722867
0.191722
-0.00885115
0.183892
-0.00759534
0.162495
-0.00365683
0.11935
0.0490359
0.00150158
0.188476
-0.006297
-0.00311507
0.191194
-0.00759524
0.193392
-0.0117025
0.195262
-0.0149659
0.196019
-0.0166267
0.193383
-0.015696
0.182962
-0.0115001
0.1583
-0.00489296
0.112743
0.0441429
-0.0172935
0.192118
0.0136518
-0.0206829
0.194583
-0.0237953
0.196505
-0.0263234
0.19779
-0.0276519
0.197348
-0.0268429
0.192573
-0.0228663
0.178985
-0.0153422
0.150775
-0.00595893
0.10336
0.038184
-0.0378095
0.194641
0.0352864
-0.0399507
0.196725
-0.0415981
0.198152
-0.04232
0.198512
-0.0413278
0.196355
-0.0375379
0.188784
-0.0299861
0.171433
-0.0188057
0.139595
-0.00672552
0.0912799
0.0314585
-0.0603591
0.0590634
-0.0610749
-0.0609925
-0.059506
-0.0556241
-0.0481823
-0.0364836
-0.0214769
-0.00707769
0.110763
0.0348338
-0.123049
-0.0225475
0.0981854
0.0358529
-0.0232752
0.0853032
0.0369675
-0.0240853
0.0720899
0.0381567
-0.0249434
0.0585263
0.0394032
-0.0258396
0.0446362
0.040583
-0.026693
0.0306062
0.0412084
-0.0271784
0.0170886
0.0398835
-0.0263658
0.00575448
0.0335736
-0.0222395
0.0171327
-0.0113782
0.108941
0.0470246
-0.121132
0.0965299
0.0482637
0.0838306
0.0496668
0.0708117
0.0511756
0.057447
0.0527679
0.0437582
0.0542718
0.0299405
0.0550261
0.0166594
0.0531646
0.00557614
0.0446569
0.0227089
0.106837
0.0590331
-0.118845
0.0945577
0.0605428
0.082014
0.0622105
0.0691795
0.0640101
0.0560333
0.0659141
0.0425965
0.0677086
0.0290647
0.0685579
0.0161058
0.0661235
0.00535472
0.055408
0.0280636
0.104227
0.0709928
-0.116187
0.0921357
0.0726338
0.0797806
0.0745656
0.0671357
0.076655
0.0541954
0.0788544
0.0410123
0.0808917
0.0278144
0.0817558
0.0152839
0.0786539
0.0050121
0.0656798
0.0330757
0.101197
0.0827105
-0.112914
0.089331
0.0844994
0.0772889
0.0866076
0.0650046
0.0889393
0.0524301
0.0914289
0.0395972
0.0937246
0.0267512
0.0946018
0.0146093
0.0907958
0.00475148
0.0755376
0.0378272
0.0971465
0.0944206
-0.108857
0.0854274
0.0962185
0.0735417
0.0984933
0.0614982
0.100983
0.0492905
0.103637
0.036954
0.106061
0.0247237
0.106832
0.0133058
0.102214
0.00421617
0.0846273
0.0420433
0.0928946
0.105524
-0.103998
0.0817944
0.107319
0.0705064
0.109781
0.0589368
0.112552
0.0470939
0.115479
0.0350951
0.11806
0.023263
0.118664
0.0123545
0.113122
0.00383807
0.0931437
0.0458814
0.0855844
0.116401
-0.0964613
0.0749018
0.118001
0.0642487
0.120434
0.0535116
0.12329
0.0425898
0.126401
0.031525
0.129125
0.0206398
0.129549
0.0107217
0.12304
0.00319041
0.100675
0.0490718
0.0806129
0.125644
-0.0898563
0.0709943
0.12762
0.0608226
0.130606
0.0503105
0.133802
0.0396234
0.137088
0.0289264
0.139822
0.0185898
0.139886
0.00940429
0.132226
0.00267903
0.1074
0.0517508
0.0698347
-0.0767159
0.0618284
0.0533911
0.0443846
0.0349282
0.0252864
0.0159519
0.00779551
0.00206802
0.201884
0.00353182
-0.00742635
0.205394
0.022577
-0.0260866
0.209645
0.0286567
-0.0329076
0.212426
0.0434193
-0.0462008
0.214625
0.0545685
-0.0567676
0.213818
0.0733779
-0.0725708
0.209072
0.0922701
-0.0875237
0.197841
0.113947
-0.102716
0.173307
0.159779
-0.135245
0.220241
-0.169983
0.201619
-9.76475e-05
0.204523
0.0196732
0.208741
0.0244385
0.210827
0.0413331
0.213101
0.0522953
0.211447
0.0750316
0.206825
0.0968922
0.194841
0.125931
0.170151
0.184469
0.26926
0.2013
-0.0034074
0.203534
0.0174386
0.207632
0.0203411
0.208921
0.0400432
0.211178
0.0500385
0.208458
0.0777518
0.203982
0.101368
0.190811
0.139102
0.166536
0.208745
0.316951
0.200902
-0.0063191
0.202428
0.015912
0.206294
0.0164749
0.206712
0.0396256
0.208844
0.0479068
0.204905
0.0816902
0.200577
0.105696
0.18586
0.153819
0.162471
0.232133
0.363235
0.200412
-0.00874106
0.201203
0.0151204
0.20471
0.0129687
0.20421
0.0401247
0.20607
0.0460477
0.20082
0.0869394
0.196556
0.109961
0.180117
0.170258
0.157881
0.254369
0.408202
0.19982
-0.0105708
0.199859
0.0150812
0.202863
0.00996485
0.201429
0.0415586
0.202845
0.0446314
0.19622
0.0935647
0.191928
0.114252
0.173424
0.188762
0.152939
0.274854
0.452284
0.199119
-0.0117
0.198396
0.0158037
0.200743
0.007618
0.198389
0.0439134
0.199146
0.0438738
0.191188
0.101522
0.186527
0.118914
0.166245
0.209045
0.14712
0.293978
0.495407
0.198313
-0.012023
0.19682
0.0172967
0.198351
0.00608694
0.195104
0.0471598
0.194978
0.0440003
0.185724
0.110776
0.180472
0.124166
0.157897
0.23162
0.140974
0.310901
0.539919
0.197416
-0.0114496
0.195128
0.0195846
0.195696
0.00551914
0.191587
0.0512692
0.1903
0.0452868
0.17995
0.121127
0.173693
0.130423
0.150722
0.254591
0.134236
0.327387
0.584298
0.196481
-0.00994051
0.193276
0.0227891
0.192864
0.00593159
0.187738
0.0563954
0.185066
0.0479581
0.173253
0.132939
0.165072
0.138605
0.140178
0.279485
0.127409
0.340156
0.634991
0.306069
-0.0139993
0.307802
0.0210561
0.3161
-0.00236681
0.31814
0.0543558
0.329468
0.0366297
0.328843
0.133565
0.346052
0.121396
0.349192
0.276344
0.396744
0.292604
0.567087
0.464649
0.306336
-0.0183254
0.309228
0.0181644
0.318089
-0.0112273
0.322136
0.0503082
0.334522
0.0242442
0.337498
0.130588
0.356317
0.102577
0.369131
0.263531
0.412382
0.249352
0.502236
0.477233
0.306254
-0.0225695
0.311416
0.0130023
0.31993
-0.0197414
0.327234
0.0430048
0.33907
0.0124079
0.346454
0.123204
0.365254
0.083777
0.384749
0.244036
0.422811
0.21129
0.432697
0.49235
0.306056
-0.0266154
0.314554
0.00450405
0.322071
-0.027258
0.333219
0.0318571
0.342544
0.00308239
0.35452
0.111228
0.37185
0.066447
0.396827
0.219059
0.433723
0.174394
0.362007
0.504412
0.306365
-0.0309707
0.318252
-0.00738254
0.325828
-0.0348338
0.339841
0.0178439
0.346726
-0.00380248
0.363611
0.0943433
0.378943
0.0511155
0.40941
0.188592
0.441069
0.142736
0.294415
0.508661
0.307675
-0.0366357
0.323023
-0.0227308
0.330758
-0.0425683
0.346247
0.00235507
0.351683
-0.0092388
0.372002
0.0740239
0.385333
0.0377853
0.418961
0.154964
0.447056
0.114641
0.230691
0.51078
0.310714
-0.0453395
0.328222
-0.0402385
0.335454
-0.0498009
0.350443
-0.0126337
0.353738
-0.0125342
0.376411
0.051351
0.386996
0.0272005
0.423435
0.118525
0.450178
0.0878983
0.170267
0.510602
0.314194
-0.0575235
0.329202
-0.0552465
0.331629
-0.052228
0.341069
-0.022073
0.340608
-0.012074
0.362402
0.0295573
0.370434
0.0191684
0.410221
0.0787382
0.438567
0.0595524
0.109376
0.499458
0.307524
-0.0630374
0.303764
-0.051486
0.289992
-0.0384567
0.284507
-0.0165874
0.278787
-0.00635469
0.295735
0.0126095
0.30467
0.0102338
0.348072
0.0353358
0.38053
0.0270941
0.045913
0.443994
0.238973
0.187487
0.14903
0.132443
0.126088
0.138698
0.148931
0.184267
0.211361
0.257274
0.477378
-0.0951549
0.481859
-0.0815408
0.485286
-0.071342
0.488554
-0.0584822
0.493012
-0.0449274
0.497684
-0.0286038
0.503444
-0.012057
0.50973
0.00736584
0.517851
0.0271661
0.0503446
0.478175
-0.0960967
0.478822
-0.0821873
0.478921
-0.0714408
0.479082
-0.0586439
0.480562
-0.0464073
0.482608
-0.0306498
0.486754
-0.0162034
0.491783
0.00233738
0.499131
0.0198183
0.0417658
0.486155
-0.0899019
0.482616
-0.0786483
0.479291
-0.0681152
0.476818
-0.0561709
0.475316
-0.044906
0.475682
-0.0310155
0.477367
-0.0178885
0.481147
-0.00144274
0.486718
0.0142474
0.0331926
0.493709
-0.0791984
0.485598
-0.0705374
0.47911
-0.0616273
0.474704
-0.0517648
0.47116
-0.0413621
0.47016
-0.0300157
0.470198
-0.0179266
0.473358
-0.00460227
0.477871
0.00973471
0.0250303
0.496711
-0.0672491
0.486683
-0.0605086
0.478312
-0.0532566
0.472147
-0.0455995
0.467472
-0.0366879
0.465198
-0.0277409
0.464572
-0.0173008
0.466771
-0.00680178
0.471
0.00550554
0.0177476
0.497808
-0.0542774
0.486465
-0.0491659
0.476888
-0.043679
0.469305
-0.0380169
0.463776
-0.031159
0.460397
-0.0243619
0.459291
-0.0161948
0.460554
-0.0080644
0.464513
0.0015465
0.0111914
0.496368
-0.0400435
0.483708
-0.0365063
0.472908
-0.0328792
0.464077
-0.0291858
0.457543
-0.0246244
0.453156
-0.0199758
0.451273
-0.0143117
0.451769
-0.00856018
0.455119
-0.00180319
0.00510482
0.483561
-0.0241466
0.469496
-0.022442
0.457441
-0.0208238
0.4474
-0.0191445
0.439667
-0.0168916
0.434102
-0.0144111
0.43105
-0.0112593
0.430414
-0.00792393
0.432643
-0.00403228
-5.49867e-05
0.428344
-0.00849621
0.4145
-0.00859876
0.402337
-0.00865999
0.391755
-0.00856337
0.382978
-0.00811382
0.375984
-0.00741731
0.371121
-0.00639671
0.368417
-0.00522026
0.368203
-0.00381784
-0.00230797
0.248778
0.240179
0.231519
0.222956
0.214842
0.207425
0.201028
0.195808
0.19199
0.00811277
0.048396
-0.0565088
0.0187855
0.126312
-0.136984
0.0256094
0.176996
-0.18382
0.0278051
0.203145
-0.205341
0.0266796
0.213486
-0.21236
0.0236713
0.215429
-0.212421
0.0197581
0.213077
-0.209164
0.0155609
0.207551
-0.203354
0.0116784
0.197506
-0.193624
0.179148
0.00876927
-0.176239
0.00966724
0.0387288
0.0251165
0.110862
0.0376599
0.164453
0.0449504
0.195855
0.0478639
0.210572
0.0480018
0.215291
0.0465982
0.214481
0.0443281
0.209821
0.041389
0.200445
0.182992
0.0375456
0.0102575
0.0284712
0.0298072
0.0913126
0.0484726
0.145788
0.0617996
0.182528
0.0696654
0.202706
0.0735535
0.211403
0.0749116
0.213123
0.0745107
0.210222
0.0723532
0.202603
0.187978
0.0673669
0.00975467
0.0187165
0.0317561
0.0693112
0.0562059
0.121338
0.0763765
0.162357
0.0903428
0.18874
0.0989693
0.202777
0.103798
0.208294
0.105906
0.208114
0.105304
0.203205
0.19229
0.100992
0.0083173
0.0103992
0.0302708
0.0473576
0.0587971
0.0928116
0.0859848
0.13517
0.107433
0.167292
0.122391
0.187819
0.132009
0.198676
0.137617
0.202506
0.139817
0.201004
0.195062
0.137046
0.00633288
0.00406636
0.025624
0.0280666
0.0548125
0.0636231
0.0872158
0.102766
0.116657
0.137851
0.139841
0.164635
0.156238
0.182279
0.166794
0.19195
0.172498
0.1953
0.194018
0.173542
0.00428161
-0.000215242
0.0192387
0.0131095
0.045135
0.0377268
0.0784725
0.0694287
0.113657
0.102667
0.145734
0.132558
0.17177
0.156242
0.190955
0.172766
0.203884
0.182371
0.187764
0.210138
0.00254539
-0.00276063
0.0128243
0.0028306
0.0327862
0.0177648
0.0620191
0.0401958
0.0974535
0.0672324
0.134688
0.0953236
0.169646
0.121284
0.199178
0.143233
0.222338
0.159211
0.170913
0.239189
0.00124602
-0.00400665
0.00748316
-0.00340655
0.0209837
0.00426434
0.0430198
0.0181597
0.0731045
0.0371477
0.108973
0.0594547
0.147399
0.0828589
0.185199
0.105432
0.218528
0.125883
0.138952
0.250489
0.000337045
-0.00434369
0.00345965
-0.00652915
0.0113882
-0.00366424
0.0258175
0.00373044
0.0476557
0.0153096
0.076624
0.0304863
0.111208
0.0482752
0.149329
0.0673116
0.188007
0.0872041
0.104143
0.222816
-0.000357376
-0.00398632
0.000538214
-0.00742475
0.00433195
-0.00745798
0.0125175
-0.00445512
0.02632
0.00150702
0.0464618
0.0103446
0.0729601
0.0217769
0.105003
0.0352683
0.141892
0.0503159
0.0704043
0.17563
-0.000787222
-0.00319909
-0.00122473
-0.00698723
1.40544e-05
-0.00869677
0.00395931
-0.00840037
0.0115408
-0.00607446
0.0235062
-0.0016208
0.0403979
0.00488525
0.0621938
0.0134724
0.0882655
0.0242442
0.0403183
0.118352
-0.000820343
-0.00237875
-0.00142593
-0.00638165
-0.000917036
-0.00920566
0.00116937
-0.0104868
0.00515118
-0.0100563
0.0113818
-0.00785146
0.0200984
-0.00383132
0.0314744
0.00209641
0.0455881
0.0101305
0.0211156
0.0647908
-2.08142e-05
-0.00235794
0.00102667
-0.00742913
0.00347577
-0.0116548
0.0072168
-0.0142278
0.0120487
-0.0148882
0.0178772
-0.0136799
0.0248007
-0.0107549
0.0331364
-0.00623923
0.0434889
-0.000222027
0.00755542
0.0570491
0.00128944
-0.00364738
0.00511185
-0.0112515
0.0109851
-0.017528
0.0183033
-0.021546
0.0266047
-0.0231896
0.0356631
-0.0227383
0.0454919
-0.0205837
0.0563342
-0.0170815
0.0685853
-0.0124731
-0.00658792
0.0827286
0.0026076
-0.00625498
0.00882406
-0.017468
0.0172174
-0.0259214
0.0267625
-0.0310911
0.0369396
-0.0333666
0.0476202
-0.0334189
0.0589099
-0.0318735
0.0710343
-0.0292059
0.0842868
-0.0257256
-0.0213001
0.098999
0.00343376
-0.00968874
0.010439
-0.0244732
0.0188248
-0.0343072
0.0274974
-0.0397638
0.0361772
-0.0420463
0.0450162
-0.0422579
0.0543057
-0.041163
0.0643165
-0.0392166
0.0752459
-0.0366551
-0.033459
0.0874048
0.00321304
-0.0129018
0.00859787
-0.0298581
0.0139654
-0.0396747
0.0187006
-0.044499
0.0230171
-0.0463628
0.0273713
-0.0466121
0.0321543
-0.0459461
0.037605
-0.0446673
0.0438422
-0.0428923
-0.040896
0.0512792
0.00176848
-0.0146703
0.00347677
-0.0315664
0.00388599
-0.0400839
0.00320437
-0.0438174
0.00206824
-0.0452267
0.00101124
-0.0455551
0.000309812
-0.0452447
2.4903e-05
-0.0443824
9.04201e-05
-0.0429578
-0.0409006
9.50026e-05
-0.000437654
-0.00315529
-0.00786213
-0.0136272
-0.0196131
-0.025316
-0.0305107
-0.03512
-0.0391076
-0.042134
0.242428
0.193185
-0.259983
0.2109
0.627798
-0.59627
0.126098
0.692064
-0.607262
0.0790852
0.38715
-0.340137
0.0806429
0.00332188
-0.00487961
0.0806295
-0.162927
0.16294
0.0854759
-0.175385
0.170538
0.105251
-0.163444
0.143669
0.137433
-0.16433
0.132147
-0.106429
0.0801372
0.202068
0.109469
0.217736
0.61213
0.149259
0.76054
0.110698
0.425711
0.101016
0.0130037
0.0776785
-0.139589
0.0734868
-0.171193
0.0919285
-0.181885
0.126811
-0.199212
-0.136161
0.168407
0.00585317
0.218273
0.562264
0.164708
0.814105
0.132452
0.457967
0.103611
0.0418442
0.0628568
-0.0988345
0.0582555
-0.166592
0.0792739
-0.202904
0.117107
-0.237045
-0.168436
0.160328
-0.0974261
0.211132
0.511461
0.172236
0.853001
0.140638
0.489565
0.0922259
0.090256
0.0442042
-0.0508128
0.048198
-0.170586
0.074499
-0.229205
0.114207
-0.276754
-0.201259
0.162241
-0.176939
0.193775
0.479927
0.170566
0.87621
0.134387
0.525745
0.0707349
0.153908
0.0289643
-0.00904224
0.0472007
-0.188822
0.0789317
-0.260936
0.118967
-0.316789
-0.23276
0.147813
-0.225753
0.16729
0.46045
0.158715
0.884785
0.11488
0.56958
0.0444308
0.224357
0.0216015
0.0137871
0.0542203
-0.221441
0.0901537
-0.296869
0.129399
-0.356034
-0.261797
0.11311
-0.251458
0.133461
0.440098
0.135987
0.882259
0.084755
0.620812
0.0200544
0.289057
0.023069
0.0107726
0.0667575
-0.265129
0.105955
-0.336067
0.143669
-0.393748
-0.28771
0.0649459
-0.265124
0.0937035
0.411341
0.103639
0.872324
0.0500631
0.674387
0.00277368
0.336347
0.0326406
-0.0190944
0.0835144
-0.316003
0.12517
-0.377723
0.160674
-0.429251
-0.310105
0.00987624
-0.274906
0.0520283
0.369189
0.0661525
0.8582
0.0181936
0.722346
-0.0023585
0.356899
0.0483118
-0.0697647
0.10392
-0.371612
0.14685
-0.420652
0.179431
-0.461832
-0.328817
-0.0432442
0.0117218
0.0240601
-0.00731235
0.00702385
0.069058
0.127382
0.170219
0.199099
0.0315215
0.0418107
-0.0733323
-0.00201342
0.033535
-0.0244253
0.0224119
-0.0495602
0.0251349
-0.0605744
0.0110142
-0.0382954
-0.022279
-0.011875
-0.0264204
0.00708154
-0.0189566
0.0217231
-0.0146416
-0.00770172
0.170567
0.144664
-0.27342
0.051573
0.152529
-0.0324274
0.106412
-0.0797113
0.0724188
-0.078836
0.0101389
-0.0335415
-0.0675735
0.0110783
-0.0710401
0.0438392
-0.0517175
0.0701612
-0.0409635
-0.0221784
0.32906
0.242817
-0.427213
0.157344
0.324245
0.0102667
0.253489
-0.0573223
0.140008
-0.0444417
-0.00274171
0.00336495
-0.11538
0.0469319
-0.114607
0.0808649
-0.0856505
0.110274
-0.070373
-0.0394601
0.4361
0.287906
-0.48119
0.261945
0.4984
0.0780701
0.437365
-0.00599165
0.22407
0.00590297
-0.0146363
0.0415745
-0.151052
0.0763639
-0.149397
0.107313
-0.116599
0.137248
-0.100308
-0.058322
0.458872
-0.430949
0.361002
0.191105
0.075037
0.055521
0.0674095
0.0885514
0.115621
0.14746
0.0123635
-7.73569e-05
-0.0122862
0.0140453
-0.00168177
0.0171505
-0.00310521
0.0215544
-0.00440388
0.0279744
-0.00642004
0.0344905
-0.00651612
0.0439056
-0.00941509
0.0522955
-0.00838986
0.0637558
-0.0114604
-0.00957642
0.0340565
-0.000691629
-0.0334422
0.0389956
-0.0066209
0.04799
-0.0120996
0.0618761
-0.0182899
0.0814813
-0.0260253
0.104802
-0.0298366
0.138396
-0.043009
0.174105
-0.0440994
0.221062
-0.0584175
-0.0619345
0.0526296
-0.00222762
-0.0510936
0.0606038
-0.0145951
0.0749605
-0.0264563
0.0973623
-0.0406918
0.127686
-0.056349
0.167377
-0.0695272
0.219254
-0.0948864
0.276877
-0.101722
0.351482
-0.133023
-0.137665
0.0679047
-0.00489841
-0.0652339
0.0783768
-0.0250672
0.0971891
-0.0452686
0.125587
-0.06909
0.16348
-0.0942422
0.214474
-0.120521
0.272145
-0.152557
0.342404
-0.171982
0.420046
-0.210665
-0.198809
0.0800251
-0.0761543
0.0925036
0.114602
0.146504
0.189308
0.242329
0.29991
0.367117
0.406941
0.089813
-0.0870432
0.0950343
-0.0978041
0.0807153
-0.0883121
0.0974098
0.0711138
-0.0903547
0.0999562
0.0607574
-0.0925223
0.102879
0.0495919
-0.0947299
0.105895
0.0377643
-0.0967264
0.108554
0.0256536
-0.0973748
0.109486
0.0140628
-0.0933939
0.104985
0.00459122
-0.07781
0.0872816
-0.0391275
0.0437188
0.0995809
-0.0768568
-0.109767
0.0889131
-0.0776444
0.0774827
-0.0789243
0.0653893
-0.0804289
0.0528195
-0.0821601
0.0399526
-0.0838596
0.0270685
-0.0844906
0.01486
-0.0811854
0.00488316
-0.0678332
-0.0342444
0.101678
-0.0651289
-0.113405
0.0898629
-0.0658297
0.0778463
-0.0669077
0.0656254
-0.068208
0.0531456
-0.0696804
0.0403744
-0.0710883
0.0274808
-0.071597
0.0151412
-0.0688459
0.0049759
-0.0576679
-0.0292685
0.107547
-0.053041
-0.119635
0.095316
-0.0535984
0.0828446
-0.0544363
0.0700381
-0.0554015
0.0568351
-0.0564773
0.0432618
-0.057515
0.0295491
-0.0578844
0.0164011
-0.0556979
0.00547431
-0.0467411
-0.0237942
0.109714
-0.0404442
-0.122311
0.09702
-0.0409042
0.0840784
-0.0414946
0.0708649
-0.042188
0.0573671
-0.0429795
0.0436156
-0.0437635
0.0297973
-0.0440661
0.0165541
-0.0424546
0.00552514
-0.0357121
-0.018269
0.11223
-0.0278212
-0.124853
0.0993872
-0.0280618
0.0862941
-0.0284015
0.0729131
-0.0288069
0.0592106
-0.0292771
0.0451903
-0.0297433
0.0310209
-0.0298967
0.0173503
-0.028784
0.00586225
-0.0242241
-0.0124068
0.11306
-0.0150837
-0.125797
0.100145
-0.0151464
0.0869639
-0.0152209
0.0734872
-0.0153302
0.0596852
-0.0154752
0.0455667
-0.0156247
0.0312993
-0.0156294
0.0175222
-0.0150068
0.00592526
-0.0126272
-0.00648153
0.113413
-0.00245156
-0.126045
0.10052
-0.00225341
0.0873399
-0.00204096
0.0738432
-0.00183357
0.0600044
-0.00163627
0.045836
-0.00145638
0.0315089
-0.00130221
0.0176632
-0.00116111
0.00598874
-0.000952747
-0.000492792
0.113035
0.0101038
-0.12559
0.100215
0.0105657
0.0870993
0.0110752
0.0736586
0.0116072
0.0598684
0.0121539
0.045741
0.012671
0.0314464
0.0129924
0.0176261
0.0126592
0.00597302
0.0107003
0.00548022
0.112093
-0.124537
0.0993838
0.0863737
0.0730375
0.0593518
0.0453298
0.0311438
0.0174372
0.005898
0.0156635
-0.173701
-0.0182018
0.0106249
-0.188585
0.00457435
-0.197303
-0.00160482
-0.202985
-0.00728507
-0.206741
-0.0116903
-0.207955
-0.01366
-0.203371
-0.0118358
-0.185645
-0.0059197
-0.1429
-0.0624285
0.0408942
-0.169839
-0.044756
0.0339677
-0.181659
0.0258907
-0.189227
0.0175886
-0.194683