/*--------------------------------*- C++ -*----------------------------------*\
  =========                 |
  \\      /  F ield         | OpenFOAM: The Open Source CFD Toolbox
   \\    /   O peration     | Website:  https://openfoam.org
    \\  /    A nd           | Version:  13
     \\/     M anipulation  |
\*---------------------------------------------------------------------------*/
FoamFile
{
    format      ascii;
    class       volScalarField;
    location    "9.05";
    object      p;
}
// * * * * * * * * * * * * * * * * * * * * * * * * * * * * * * * * * * * * * //

dimensions      [0 2 -2 0 0 0 0];

internalField   nonuniform List<scalar> 
440
(
-1.10159
-1.08185
-1.07944
-1.05493
-1.12923
-1.17112
-1.14942
-1.12614
-1.10245
-1.08537
-1.29947
-1.26287
-1.21843
-1.16354
-1.10478
-1.44254
-1.39063
-1.29144
-1.17453
-1.05702
-1.53837
-1.4663
-1.30304
-1.1348
-0.982368
-1.06254
-1.07102
-1.09321
-1.12454
-1.16767
-1.11276
-1.10381
-1.09677
-1.09225
-1.06326
-1.12547
-1.11318
-1.10317
-1.10401
-1.11114
-1.10605
-1.09016
-1.07158
-1.06093
-1.06428
-1.06688
-1.05158
-1.03008
-1.00288
-1.01258
-1.73828
-0.681777
0.103952
-0.0314576
0.0568358
-1.58408
-0.917331
0.0870181
-0.114059
0.0621279
-1.44062
-1.12344
0.0432009
-0.21343
0.0604854
-1.3199
-1.1662
0.0573622
-0.237614
0.0569354
-1.22286
-1.11543
0.180451
-0.106183
0.0319102
-0.947225
-0.943449
0.285854
0.123669
-0.0242753
-0.596694
-0.572846
0.148776
0.0482479
-0.0537464
-0.444848
-0.317832
0.0836693
0.199667
0.00602798
-0.329833
-0.201045
0.0545642
0.162132
-0.00527605
-0.21461
-0.215404
0.0689553
0.211932
0.0287727
-0.724715
-0.83957
-0.99238
-1.15927
-1.29407
-0.471426
-0.589082
-0.670106
-0.725315
-0.745799
-0.301921
-0.400881
-0.461656
-0.498622
-0.521316
-0.193899
-0.283075
-0.343479
-0.374031
-0.387121
-0.140929
-0.228791
-0.283271
-0.30326
-0.294028
0.63167
0.47261
0.269845
0.0451793
-0.198526
0.20394
0.0359955
-0.168967
-0.401198
-0.66425
-0.212114
-0.382331
-0.5978
-0.838115
-1.0847
-0.576468
-0.751338
-0.968239
-1.20128
-1.39143
-0.820341
-0.996779
-1.19971
-1.41174
-1.5356
1.73573
1.76335
1.78576
1.79316
1.78364
1.5394
1.55744
1.56822
1.56061
1.53153
1.3216
1.30517
1.26444
1.2
1.10843
1.07377
1.03517
0.959033
0.85115
0.71373
0.855573
0.744331
0.599761
0.434398
0.235535
1.52572
1.51872
1.49404
1.56376
1.63048
1.51578
1.50696
1.47457
1.54211
1.53648
1.50693
1.49241
1.45278
1.50902
1.41685
1.49943
1.47533
1.42998
1.45793
1.24573
1.49334
1.45709
1.40631
1.40948
1.06109
1.48919
1.43
1.37661
1.30098
0.856228
1.4875
1.39058
1.37165
1.16105
0.981799
1.49642
1.37649
1.36313
1.09988
1.04456
1.49179
1.34439
1.35653
1.04297
1.0847
1.5287
1.34051
1.35531
1.00457
1.12615
0.59768
0.286155
-0.0590746
-0.363275
-0.553611
0.489775
0.265809
0.038197
-0.163119
-0.331461
0.468518
0.284869
0.117611
-0.0339414
-0.179885
0.533084
0.3574
0.197545
0.0546968
-0.0786411
0.582966
0.402213
0.242134
0.100663
-0.028992
-1.3781
-1.26001
-1.11253
-0.993828
-0.922843
-1.46438
-1.40361
-1.29195
-1.20097
-1.14689
-1.41197
-1.36607
-1.30085
-1.24777
-1.2139
-1.29042
-1.25542
-1.21601
-1.18334
-1.15864
-1.19723
-1.17877
-1.15704
-1.1365
-1.13301
-1.14563
-1.13903
-1.12792
-1.12046
-1.09448
-1.1278
-1.12812
-1.12884
-1.13636
-1.13687
-1.11544
-1.12532
-1.14537
-1.1743
-1.19761
-1.02489
-1.03838
-1.06585
-1.10347
-1.13933
-0.98885
-1.01048
-1.05075
-1.10506
-1.1735
-1.08469
-0.0554544
0.254366
0.127119
0.0535697
-1.07337
0.075951
0.315463
0.11192
0.0544309
-1.07865
0.147766
0.321259
0.0934396
0.0539213
-1.26079
-0.0010797
0.229304
0.0517759
0.0526878
-1.59507
-0.384103
0.127657
0.00401257
0.0525073
-0.715535
-0.247124
0.091209
0.102836
0.0554267
-0.967615
-0.197175
0.161284
0.133903
0.0620964
-0.880343
-1.11992
-1.18532
-1.14973
-0.95966
-0.898103
-1.12527
-1.19658
-1.14534
-1.12775
1.43516
1.41858
1.38644
1.33998
1.27842
1.61413
1.63523
1.64364
1.63764
1.61731
1.76076
1.79408
1.82213
1.83956
1.84325
1.84258
1.88075
1.92098
1.95356
1.96867
1.82844
1.86352
1.90247
1.93465
1.9487
-0.505016
-0.596132
-0.73845
-0.912309
-1.10118
0.0435042
-0.0751756
-0.233938
-0.423617
-0.651241
0.534326
0.409935
0.262068
0.0893554
-0.117948
0.926344
0.831182
0.715578
0.576777
0.412926
1.23937
1.17468
1.09144
0.992268
0.876848
1.58939
1.55036
1.53517
1.54738
1.56328
1.57383
1.54709
1.53357
1.56112
1.6202
1.56042
1.54253
1.53049
1.5786
1.68401
1.54797
1.53657
1.52246
1.58371
1.69262
1.53636
1.52898
1.50983
1.57901
1.67753
1.64605
1.5581
1.52555
1.47777
1.43312
1.6004
1.54806
1.51949
1.49332
1.45381
1.13437
0.934542
0.586177
0.080187
-0.478039
1.20606
0.962717
0.602221
0.0998982
-0.47023
)
;

boundaryField
{
    left
    {
        type            zeroGradient;
    }
    right
    {
        type            fixedValue;
        value           uniform 0;
    }
    down
    {
        type            zeroGradient;
    }
    up
    {
        type            zeroGradient;
    }
    cylinder
    {
        type            zeroGradient;
    }
    defaultFaces
    {
        type            empty;
    }
}


// ************************************************************************* //
