/*--------------------------------*- C++ -*----------------------------------*\
  =========                 |
  \\      /  F ield         | OpenFOAM: The Open Source CFD Toolbox
   \\    /   O peration     | Website:  https://openfoam.org
    \\  /    A nd           | Version:  13
     \\/     M anipulation  |
\*---------------------------------------------------------------------------*/
FoamFile
{
    format      ascii;
    class       surfaceScalarField;
    location    "0.365";
    object      phi;
}
// * * * * * * * * * * * * * * * * * * * * * * * * * * * * * * * * * * * * * //

dimensions      [0 3 -1 0 0 0 0];

internalField   nonuniform List<scalar> 
823
(
0.0113774
-0.050556
0.0391786
0.0387589
-0.133438
0.106056
0.0788357
-0.205878
0.165801
0.130182
-0.268865
0.217518
-0.323248
0.259392
0.194038
0.0107027
-0.0612587
0.036143
-0.158878
0.0726499
-0.242385
0.117979
-0.314194
-0.375598
0.170329
0.00837711
-0.0696358
0.0282859
-0.178787
0.0567282
-0.270827
0.0918164
-0.349282
-0.416053
0.132272
0.00529953
-0.0749354
0.0179967
-0.191484
0.0362321
-0.289062
0.0588885
-0.371939
-0.442421
0.0852558
0.00196211
-0.0768975
0.00663049
-0.196152
0.0132906
-0.295722
0.0215234
-0.380172
0.0310643
-0.451962
0.00670596
-0.010696
0.00399005
0.022266
-0.0307996
0.0152396
0.0454731
-0.0483537
0.0251466
0.0746137
-0.0637727
0.0346321
-0.0768442
0.108252
0.0432063
0.00578952
-0.0164855
0.0215694
-0.0465796
0.0468373
-0.0736215
0.0799306
-0.096866
-0.115963
0.119049
0.00640767
-0.0228932
0.0237028
-0.0638746
0.051325
-0.101244
0.0880537
-0.133595
-0.160044
0.132135
0.00753969
-0.0304329
0.0271015
-0.0834365
0.0573513
-0.131493
0.0970859
-0.173329
-0.207858
0.1449
0.00874575
0.0313655
0.0656728
0.109862
0.161396
0.321946
-0.954956
0.741262
0.47151
-0.816494
0.66693
0.562402
-0.346252
0.255359
0.595101
-0.0845403
0.0518416
-0.0111212
0.00894982
0.330844
-1.16675
0.470153
-0.955803
0.56266
-0.438758
0.59681
-0.11869
-0.0151878
0.33741
-1.37203
0.462454
-1.08085
0.553297
-0.529602
0.591884
-0.157277
-0.0254347
0.338088
-1.56521
0.450768
-1.19353
0.536467
-0.615301
0.58365
-0.204459
-0.0454386
0.327993
-1.73181
0.430428
-1.29596
0.509763
-0.694636
0.570221
-0.264918
-0.0780042
1.19711
-1.58871
-1.34021
1.00772
-1.10657
0.905937
-0.592855
0.877492
-0.236473
-0.0646376
1.33084
-1.13234
-1.78721
0.985476
-0.761211
0.789541
-0.39692
0.718006
-0.164939
-0.0448874
1.19005
-0.607455
-1.71494
0.817124
-0.388284
0.618071
-0.197867
0.539878
-0.0867452
-0.0246309
0.822529
-0.185251
-1.24473
0.545358
-0.111113
0.399809
-0.0523176
0.337588
-0.024524
-0.00752338
0.306736
-0.491987
0.195622
0.143305
0.118781
1.56261
0.0462523
-1.5778
1.52169
0.126171
1.46265
0.191314
1.39629
0.236686
0.250126
1.6759
0.0356537
-1.6653
1.69937
0.102696
1.73088
0.159805
1.76537
0.202196
0.228291
1.38798
0.0184779
-1.3708
1.43707
0.0536027
1.51391
0.0829687
1.61022
0.105886
0.123574
0.977701
0.00531463
-0.964538
1.01588
0.0154209
1.07581
0.0230402
1.15388
0.027822
0.0327176
0.392986
-0.387671
0.408407
0.431447
0.459269
0.128798
0.327597
-0.264612
-0.191783
0.0781677
0.273202
-0.222572
0.0385255
0.209794
-0.170151
0.0113395
0.13645
-0.109264
0.0519586
-0.0406191
0.115957
0.378895
-0.167255
0.0714942
0.317665
0.0356138
0.245674
0.0105588
0.161505
0.0625174
0.0888536
0.418274
-0.128232
0.0548102
0.351709
0.0272858
0.273198
0.00806389
0.180727
0.0705813
0.0552455
0.443538
-0.0805097
0.0337647
0.373189
0.0166552
0.290308
0.00486412
0.192518
0.0754454
0.017483
-0.0259066
0.0105009
0.00508629
0.00145211
0.0722523
0.0869944
-0.106721
-0.0525259
0.0426445
0.0734126
-0.0438048
0.0196131
0.0566884
-0.033657
0.00510353
0.0366266
-0.0221171
0.0132115
-0.00810794
0.0761355
0.125581
-0.114722
0.0438146
0.105733
0.0197028
0.0808002
0.00511158
0.0512178
0.018323
0.0847116
0.168342
-0.127473
0.0492963
0.141149
0.0228423
0.107254
0.00620794
0.0678521
0.024531
0.0943073
0.214566
-0.140531
0.055925
0.179531
0.0266033
0.136576
0.00745244
0.087003
0.0319834
0.107513
-0.15756
0.0644723
0.0308969
0.00863568
0.508133
0.167463
-0.279616
0.548133
0.17496
-0.21496
0.489216
0.311928
-0.253011
0.332036
0.804342
-0.647162
1.03737
-0.812056
0.505181
0.0582613
0.54325
0.13689
0.479961
0.375217
0.330154
0.95415
1.2528
0.50294
-0.0486989
0.531637
0.108194
0.462032
0.444822
0.328824
1.08736
1.45415
0.499555
-0.152274
0.516387
0.0913616
0.441267
0.519942
0.325397
1.20323
1.63902
0.493355
-0.24965
0.493776
0.0909412
0.415087
0.598631
0.313524
1.30479
1.79499
0.771513
-0.417142
0.857153
0.00530078
0.958436
0.497349
1.16948
1.09374
1.6171
1.34737
0.722269
-0.535391
0.804617
-0.0770466
0.962437
0.339529
1.29959
0.756591
1.1427
1.77399
0.606467
-0.537838
0.641433
-0.112012
0.806369
0.174593
1.17331
0.389645
0.611878
1.70413
0.449449
-0.383267
0.409463
-0.0720266
0.53773
0.0463265
0.816134
0.111241
0.186899
1.24111
0.220753
0.148727
0.195053
0.306294
0.493194
1.40248
-0.246894
1.4657
-0.230467
1.52298
-0.18552
1.56316
-0.120689
-0.0405396
1.75283
-0.225742
1.71987
-0.197501
1.69071
-0.156359
1.67089
-0.100876
-0.0349474
1.60158
-0.123187
1.50881
-0.104736
1.43458
-0.0821287
1.38706
-0.053358
-0.018688
1.15104
-0.0331186
1.07428
-0.0279743
1.01529
-0.0231333
0.977569
-0.0156387
-0.00565721
0.460075
0.432101
0.408967
0.393329
0.00250116
0.0430011
-0.0455022
0.0073273
0.10104
-0.105867
0.016094
0.148382
-0.157149
0.0165771
0.151897
-0.15238
0.114017
0.0148126
-0.112252
0.00682771
0.0361733
0.020176
0.0876921
0.0409549
0.127603
0.0482516
0.1446
0.116371
0.0458975
0.00880825
0.0273651
0.0270739
0.0694265
0.0521463
0.102531
0.0730878
0.123659
0.114025
0.0754335
0.00780003
0.0195651
0.0255102
0.0517163
0.0497433
0.0782977
0.0774257
0.0959765
0.0992298
0.0922213
0.00509791
0.0144672
0.0179702
0.038844
0.036763
0.0595049
0.0600068
0.0727327
0.0767259
0.0825107
0.00342389
0.0110433
0.0125807
0.0296872
0.0274453
0.0446403
0.0470615
0.0531165
0.0561316
0.0676558
0.00223284
0.00881043
0.00895577
0.0229643
0.022305
0.0312911
0.0410624
0.034359
0.0347394
0.0624546
0.00167313
0.0071373
0.0101048
0.0145326
0.0261274
0.0152685
0.0466443
0.0138421
0.0115285
0.0698553
0.00365904
0.00347826
0.0173759
0.000815739
0.0366336
-0.00398911
0.0595735
-0.00909785
-0.0142946
0.0853966
0.00746831
0.0235236
0.0446811
0.0702153
0.099127
0.153946
0.019397
-0.105688
0.24337
-0.129912
0.0404874
0.265254
-0.0389574
0.0170736
0.273989
-0.00479513
-0.00393997
-0.00694449
-0.00177192
0.214738
-0.132887
0.325059
-0.240232
0.351935
-0.0658332
0.358924
-0.0117848
-0.0122935
0.259491
-0.322522
0.390485
-0.371227
0.433496
-0.108844
0.439597
-0.017886
-0.0130675
0.29212
-0.529246
0.436621
-0.515728
0.500655
-0.172878
0.511016
-0.0282469
-0.0101279
0.311143
0.462345
0.544826
0.56842
0.0707088
0.0386235
-0.109332
0.078677
-0.00796825
0.0830736
-0.00439663
0.0817609
0.00131269
0.000477029
0.194313
-0.261377
0.226832
0.239509
0.236882
0.0207294
-0.00433095
-0.0163984
0.0342779
-0.0135486
0.0567541
-0.0224762
0.0856115
-0.0288573
-0.0237208
0.0539174
-0.0434357
0.0862663
0.139224
0.202588
0.0479
-0.055069
0.0763041
-0.0691351
0.0275935
-0.0520873
0.0723939
0.0123436
-0.0443243
0.0595742
0.00331724
-0.0300285
0.0390549
-0.0112607
0.0145779
0.0456336
-0.0321217
-0.068581
0.0251408
-0.0315945
0.00991924
-0.0291027
0.00221238
-0.0223216
-0.00904827
0.0562028
-0.0065296
-0.0817948
0.0332631
-0.0086548
0.014397
-0.0102366
0.00263809
-0.0105627
-0.00641017
0.069787
0.0216
-0.0979166
0.0446262
0.0165061
0.0232656
0.0111239
0.00690346
0.00579952
0.000493288
0.0737639
-0.10469
0.0464652
0.0239322
0.00761465
0.0165839
-0.114015
-0.014821
0.0160937
-0.15189
0.00730617
-0.148361
0.00248896
-0.101049
-0.0430133
0.048269
-0.116362
-0.0459228
0.0409296
-0.144551
0.0201623
-0.127594
0.00682063
-0.0877077
-0.0361926
0.0731258
-0.113957
-0.0755308
0.0521202
-0.123545
0.0270626
-0.102536
0.00880527
-0.0694503
-0.0273874
0.077343
-0.0989429
-0.0923567
0.0496174
-0.0958192
0.0254292
-0.0783482
0.00777388
-0.051795
-0.0196135
0.059975
-0.0826137
0.0365497
0.0177757
0.00503558
0.342587
0.582414
-0.529021
0.282691
0.221827
-0.161932
0.24972
0.0531971
-0.0202254
0.165988
0.118071
-0.034339
0.000359087
0.0964934
0.409509
0.568885
0.374697
0.256639
0.337945
0.0899491
0.234135
0.221881
0.165913
0.463042
0.501823
0.4551
0.264581
0.410668
0.134381
0.283663
0.348886
0.367781
0.502317
0.395486
0.518899
0.247998
0.460391
0.192889
0.31639
0.492888
0.586254
0.511849
0.544887
0.484766
0.330491
0.158684
0.351367
0.0851475
0.0735366
0.0810594
0.00408816
0.0726126
0.00844677
-0.0367874
0.1094
0.332397
0.244002
0.227865
0.201973
0.261679
0.085665
0.023735
0.0567857
0.0288793
0.0342887
0.0224969
0.0207328
0.0135559
0.00433441
0.2028
0.139323
0.0862892
0.0539223
)
;

boundaryField
{
    left
    {
        type            calculated;
        value           nonuniform List<scalar> 
17
(
-0.60402
-0.60402
-0.60402
-0.60402
-0.60402
-0.39598
-0.39598
-0.39598
-0.39598
-0.39598
-0.39598
-0.39598
-0.39598
-0.39598
-0.39598
-0.510051
-0.510051
)
;
    }
    right
    {
        type            calculated;
        value           nonuniform List<scalar> 
17
(
0.0812839
0.235587
0.282706
0.364273
0.440372
0.508077
0.567242
0.597272
0.600877
0.602131
0.603654
0.602787
0.864126
0.698256
0.519621
0.32048
0.111257
)
;
    }
    down
    {
        type            calculated;
        value           uniform 0;
    }
    up
    {
        type            calculated;
        value           uniform 0;
    }
    cylinder
    {
        type            calculated;
        value           uniform 0;
    }
    defaultFaces
    {
        type            empty;
    }
}


// ************************************************************************* //
