/*--------------------------------*- C++ -*----------------------------------*\
  =========                 |
  \\      /  F ield         | OpenFOAM: The Open Source CFD Toolbox
   \\    /   O peration     | Website:  https://openfoam.org
    \\  /    A nd           | Version:  13
     \\/     M anipulation  |
\*---------------------------------------------------------------------------*/
FoamFile
{
    format      ascii;
    class       volVectorField;
    location    "0.365";
    object      U;
}
// * * * * * * * * * * * * * * * * * * * * * * * * * * * * * * * * * * * * * //

dimensions      [0 1 -1 0 0 0 0];

internalField   nonuniform List<vector> 
440
(
(0.218267 -0.176702 -1.81078e-19)
(0.613085 -0.436666 1.07907e-18)
(0.984288 -0.6409 4.23654e-19)
(1.32752 -0.795355 1.24155e-18)
(1.63253 -0.916671 -2.6003e-19)
(0.3049 -0.177688 -5.44564e-19)
(0.819143 -0.428708 -1.01966e-18)
(1.27998 -0.618904 1.14471e-19)
(1.6919 -0.761629 -1.21525e-18)
(2.05373 -0.87508 -1.02098e-18)
(0.384886 -0.152409 -6.98108e-19)
(1.00469 -0.363019 1.58989e-18)
(1.53977 -0.518389 -1.93483e-18)
(2.00473 -0.632631 1.37872e-18)
(2.40596 -0.721464 1.43035e-18)
(0.445875 -0.102747 5.6241e-19)
(1.14611 -0.243087 -1.29957e-18)
(1.73746 -0.344814 -7.50784e-19)
(2.24296 -0.418221 1.96675e-18)
(2.67449 -0.474459 2.50011e-18)
(0.479265 -0.0361589 6.86933e-19)
(1.22365 -0.0847554 1.69145e-19)
(1.84593 -0.119364 2.5314e-18)
(2.37406 -0.143865 -1.06205e-18)
(2.82299 -0.162494 -4.83747e-19)
(-0.000859228 -0.0514393 2.82923e-19)
(0.0502603 -0.143847 -3.81758e-19)
(0.10615 -0.221783 1.09986e-18)
(0.171658 -0.291607 -1.75372e-19)
(0.23979 -0.353187 -1.5894e-18)
(0.0136953 -0.0841976 -2.61854e-19)
(0.0894014 -0.227515 -4.21391e-19)
(0.174268 -0.349663 1.12118e-19)
(0.268612 -0.449452 6.05376e-20)
(0.364934 -0.529461 -3.77893e-20)
(0.0433188 -0.11423 6.93679e-20)
(0.165481 -0.303033 5.19938e-19)
(0.296215 -0.467105 9.40806e-20)
(0.432948 -0.598415 1.4646e-18)
(0.568035 -0.696853 -2.50265e-20)
(0.0866148 -0.141 6.67919e-20)
(0.276373 -0.367793 -3.36952e-20)
(0.469494 -0.562904 2.1673e-19)
(0.661407 -0.718312 -2.04228e-18)
(0.844111 -0.830152 9.58651e-19)
(0.142129 -0.161731 -2.36134e-19)
(0.420085 -0.412853 -4.43153e-19)
(0.691394 -0.621444 -7.71796e-19)
(0.950123 -0.782326 9.55168e-19)
(1.18517 -0.892694 3.46059e-18)
(0.592699 -0.590814 -4.13675e-18)
(0.95968 -0.514757 1.13133e-18)
(1.28431 -0.210164 3.61564e-19)
(1.44962 -0.0522155 -6.38222e-19)
(1.50835 -0.0116701 -9.70399e-20)
(0.786034 -0.742022 4.86941e-18)
(1.04363 -0.619936 -3.30333e-19)
(1.31478 -0.27714 -1.39911e-19)
(1.47316 -0.0822502 4.20545e-19)
(1.51741 -0.0214962 1.69909e-19)
(1.03686 -0.87681 1.53393e-18)
(1.17913 -0.705262 4.08488e-18)
(1.345 -0.34001 6.54198e-20)
(1.48244 -0.108424 4.63183e-19)
(1.52053 -0.0300211 -5.41373e-20)
(1.33063 -0.987848 1.2325e-18)
(1.35897 -0.767471 -4.18154e-19)
(1.39271 -0.393505 -7.83071e-19)
(1.48155 -0.130708 -3.04489e-19)
(1.52432 -0.0374655 1.94302e-20)
(1.62985 -1.04695 -1.63584e-21)
(1.55393 -0.808848 -1.67442e-18)
(1.45098 -0.440404 0)
(1.46939 -0.164313 2.53649e-19)
(1.52204 -0.0470676 2.88645e-20)
(2.15617 -1.11469 -1.57711e-18)
(1.83188 -0.800315 -4.96574e-19)
(1.56188 -0.441553 -1.07778e-20)
(1.4524 -0.17108 3.44983e-20)
(1.43031 -0.0452214 -1.21058e-19)
(2.63318 -0.889344 -1.61291e-18)
(1.90175 -0.59092 2.96169e-18)
(1.44248 -0.309253 4.96815e-21)
(1.20365 -0.128985 2.15214e-19)
(1.15593 -0.0368441 0)
(2.479 -0.522553 -6.93049e-18)
(1.60651 -0.338541 -1.4957e-19)
(1.15069 -0.173503 2.02171e-18)
(0.917089 -0.0781742 -3.02192e-19)
(0.86068 -0.0223621 -6.50202e-20)
(1.76243 -0.219944 6.83729e-18)
(1.08906 -0.135754 1.26551e-18)
(0.751629 -0.0664038 2.24315e-19)
(0.583628 -0.0323498 2.82954e-33)
(0.531503 -0.0104382 -9.33345e-20)
(0.683145 0.000147771 1.55382e-18)
(0.395342 0.023485 7.15738e-19)
(0.267463 0.0238531 -5.16491e-19)
(0.208997 0.0129394 2.03653e-19)
(0.185439 0.00416621 -5.5312e-20)
(3.58191 -0.168157 1.25612e-17)
(3.4172 -0.502919 -1.04431e-17)
(3.13669 -0.786956 7.10846e-18)
(2.78058 -0.996015 2.32015e-18)
(2.33306 -1.10165 -4.1466e-19)
(3.7846 -0.103586 1.03951e-17)
(3.71755 -0.324457 -6.63941e-19)
(3.57784 -0.551817 -4.27032e-18)
(3.37842 -0.785738 2.69058e-18)
(3.10047 -1.01972 -6.62795e-19)
(3.11486 -0.0605651 3.65439e-18)
(3.09869 -0.181693 -2.51864e-18)
(3.05966 -0.309675 5.0126e-18)
(2.99898 -0.444847 -1.52806e-19)
(2.92448 -0.593577 -4.79044e-18)
(2.19087 -0.0276238 2.78871e-18)
(2.18385 -0.0833809 8.43004e-18)
(2.16462 -0.144027 -6.53249e-19)
(2.13407 -0.207308 -6.60774e-18)
(2.11306 -0.269461 1.94587e-18)
(0.879438 -0.00184252 5.21218e-18)
(0.876487 -0.00524027 -1.16432e-19)
(0.867362 -0.00957069 -4.25907e-20)
(0.850492 -0.0162592 -2.00916e-18)
(0.841134 -0.0229148 -3.6047e-18)
(1.65304 0.939885 2.27114e-18)
(1.34825 0.816624 -7.72559e-20)
(1.00338 0.65864 -3.40139e-20)
(0.627893 0.449503 -1.96385e-19)
(0.225249 0.182317 -1.34303e-19)
(2.07045 0.892448 -1.21773e-18)
(1.71065 0.777721 -1.19961e-18)
(1.29832 0.632602 7.3267e-19)
(0.83406 0.438746 -4.84318e-19)
(0.312157 0.1821 -4.14236e-21)
(2.41859 0.73583 -5.90091e-19)
(2.01967 0.645355 5.25257e-19)
(1.55501 0.528772 2.4371e-18)
(1.01755 0.370209 8.08392e-19)
(0.391348 0.155291 5.2614e-19)
(2.68204 0.486711 1.46038e-20)
(2.25241 0.428295 -2.7186e-19)
(1.74746 0.35233 -6.4675e-19)
(1.15478 0.247651 2.05652e-18)
(0.450334 0.104147 -3.26849e-19)
(2.82551 0.173869 -1.17072e-18)
(2.37731 0.152648 -1.60653e-18)
(1.84943 0.125349 -7.28726e-19)
(1.22674 0.0878361 7.96307e-19)
(0.480867 0.0366877 -3.25839e-19)
(0.240117 0.415829 -2.13175e-18)
(0.170191 0.352388 -1.80891e-18)
(0.102943 0.276092 3.12964e-19)
(0.0455134 0.182936 -4.29514e-20)
(-0.00171669 0.0672427 3.37219e-20)
(0.370955 0.592994 -8.05123e-19)
(0.274049 0.508787 -6.61641e-19)
(0.17872 0.39838 7.4324e-21)
(0.0925122 0.258832 -2.37667e-20)
(0.0167527 0.0962318 2.459e-20)
(0.581766 0.752367 2.17807e-18)
(0.446265 0.648751 -1.5669e-19)
(0.307945 0.506513 -1.44326e-19)
(0.174353 0.328139 -2.14602e-19)
(0.0483156 0.123812 1.68245e-19)
(0.862071 0.874154 -1.29866e-18)
(0.679194 0.757812 1.985e-18)
(0.485296 0.593799 3.1576e-19)
(0.288328 0.388238 1.0087e-19)
(0.092503 0.149139 -1.18169e-19)
(1.20362 0.924801 -4.42165e-19)
(0.969097 0.811571 -4.58685e-19)
(0.708608 0.644979 3.61834e-19)
(0.43335 0.429152 3.60296e-19)
(0.148471 0.168549 1.89847e-21)
(0.921318 0.159781 -3.7757e-19)
(1.47577 0.139475 5.34324e-20)
(1.29988 0.198197 2.12085e-20)
(1.00592 0.502018 -4.59987e-19)
(0.596689 0.644119 1.70789e-20)
(0.920779 0.0853186 1.58036e-19)
(1.47878 0.11921 2.70685e-19)
(1.32407 0.242318 2.01431e-19)
(1.0574 0.614748 -8.14376e-20)
(0.784293 0.800932 7.66346e-19)
(0.919367 0.0133328 4.02712e-20)
(1.4924 0.0980846 -1.96409e-20)
(1.32965 0.286801 -5.68798e-20)
(1.16682 0.708176 -4.71663e-19)
(1.03747 0.934767 1.46557e-19)
(0.91917 -0.0557151 -2.11318e-20)
(1.50524 0.0788623 -6.20669e-19)
(1.34616 0.330844 1.0576e-19)
(1.32931 0.772987 1.23401e-18)
(1.33488 1.03961 9.40863e-19)
(0.919229 -0.123912 -2.321e-20)
(1.50895 0.0663454 1.66953e-19)
(1.37679 0.375841 -6.80019e-20)
(1.51269 0.814713 -4.04796e-19)
(1.63567 1.09045 -2.74829e-18)
(0.914202 -0.218401 2.17976e-19)
(1.49633 0.0335348 4.38809e-19)
(1.46384 0.377174 -2.00345e-20)
(1.76911 0.795492 3.00534e-18)
(2.15241 1.14228 -5.52225e-18)
(0.877993 -0.339307 -2.55281e-20)
(1.37457 -0.0244233 -6.32906e-19)
(1.42147 0.272794 7.81406e-21)
(1.8477 0.591843 -3.05318e-18)
(2.59513 0.900214 1.6672e-18)
(0.784291 -0.411746 5.45791e-18)
(1.097 -0.0859992 6.74155e-35)
(1.1412 0.147047 -2.1596e-18)
(1.57855 0.337757 2.6667e-18)
(2.45726 0.5293 5.03243e-18)
(0.633237 -0.29133 1.49815e-19)
(0.71979 -0.0708064 5.26032e-19)
(0.735927 0.0517979 2.52258e-19)
(1.07611 0.134462 6.24286e-19)
(1.75839 0.220454 -8.64078e-18)
(0.32218 -0.0432414 -4.30422e-18)
(0.295025 0.00518202 2.80751e-19)
(0.26634 -0.0129685 1.10378e-18)
(0.393676 -0.0240019 -7.72366e-19)
(0.686114 -0.000411422 -1.46514e-18)
(2.34843 1.12087 4.68694e-18)
(2.78719 1.0124 3.46968e-18)
(3.14084 0.803305 -5.68867e-18)
(3.41899 0.519563 -1.46142e-17)
(3.58242 0.185863 1.57626e-17)
(3.07914 1.01877 5.00815e-18)
(3.35429 0.795195 2.56424e-17)
(3.55714 0.560658 7.24364e-18)
(3.70124 0.331819 -3.08328e-17)
(3.77802 0.111132 -5.17359e-18)
(2.90593 0.591938 -7.23059e-18)
(2.98608 0.448087 -3.38093e-18)
(3.05222 0.31213 -6.29986e-18)
(3.09527 0.181751 -6.88931e-18)
(3.11403 0.058446 6.52265e-18)
(2.10624 0.265955 5.4128e-18)
(2.13009 0.205806 -4.04798e-19)
(2.16252 0.143085 4.87059e-18)
(2.18311 0.082161 6.28887e-18)
(2.19077 0.0260093 -5.88764e-18)
(0.842479 0.0220743 -5.74342e-19)
(0.851891 0.0156645 3.52015e-18)
(0.868609 0.00913728 2.44284e-18)
(0.877481 0.0047955 -5.16908e-18)
(0.879834 0.0013627 -3.84264e-20)
(0.281939 0.0207573 5.52047e-19)
(0.656687 0.0404677 -7.43478e-19)
(0.973159 0.0440683 -8.18553e-19)
(0.944335 0.0274324 -1.51797e-18)
(0.697862 0.0163861 -6.63711e-19)
(0.245581 0.0554616 7.45594e-19)
(0.591279 0.107078 1.44151e-18)
(0.864697 0.125146 -6.97181e-19)
(0.939965 0.0970015 1.96064e-18)
(0.724186 0.0532413 -2.70085e-18)
(0.185622 0.0742668 4.96139e-19)
(0.476396 0.145899 -1.39908e-18)
(0.707781 0.184765 -9.13842e-19)
(0.857324 0.175416 -1.81027e-18)
(0.741573 0.101229 -2.86203e-18)
(0.123304 0.0774763 -7.72672e-19)
(0.344763 0.160359 -1.37659e-18)
(0.534537 0.214881 4.39848e-18)
(0.677719 0.233311 -3.66626e-19)
(0.713062 0.180026 2.25414e-18)
(0.0752709 0.0723684 -6.23044e-19)
(0.230707 0.160103 1.56404e-18)
(0.372267 0.224519 6.11599e-19)
(0.482793 0.257743 -1.2953e-18)
(0.56127 0.258419 -1.75066e-19)
(0.0451411 0.0637757 8.40908e-20)
(0.14994 0.148749 -1.22154e-18)
(0.247717 0.212106 -9.43967e-19)
(0.325393 0.234021 -8.91236e-20)
(0.371156 0.223738 -5.01579e-20)
(0.0264397 0.055678 3.11979e-19)
(0.0950752 0.134215 5.9473e-19)
(0.160895 0.184668 -2.08499e-19)
(0.213769 0.195253 2.59271e-19)
(0.253618 0.185155 1.71377e-19)
(0.013287 0.0487983 2.49384e-19)
(0.0585737 0.111341 1.29934e-18)
(0.103633 0.12115 -1.23485e-18)
(0.142562 0.107379 -2.78229e-18)
(0.1787 0.0859509 4.08462e-19)
(0.00609191 0.0393542 -2.36517e-19)
(0.0422814 0.0492235 -1.80207e-18)
(0.0794782 0.0222661 3.21202e-18)
(0.119393 -0.00944882 1.31708e-18)
(0.160746 -0.0431923 -2.69716e-19)
(0.00999758 0.00289142 2.09396e-19)
(0.0419641 -0.0491496 -4.51017e-19)
(0.0819314 -0.0953451 8.95347e-20)
(0.130493 -0.143311 1.05807e-19)
(0.181054 -0.189511 5.5653e-21)
(0.338553 0.0716238 -7.68951e-20)
(0.614384 -0.0420895 -1.22293e-18)
(0.702297 -0.0136872 2.54321e-19)
(0.718926 0.00294247 3.86717e-19)
(0.714099 0.00156329 1.50858e-20)
(0.302819 -0.0346186 -1.00329e-19)
(0.750371 -0.114656 1.45012e-18)
(0.88556 -0.0237791 9.18569e-19)
(0.918312 0.00396313 7.67392e-20)
(0.920066 0.0027074 -3.95655e-20)
(0.318916 -0.14962 -7.99583e-19)
(0.833336 -0.197698 3.10184e-18)
(1.04558 -0.0436452 -1.82494e-19)
(1.10387 0.00308455 -3.59082e-19)
(1.11222 0.00343307 7.96573e-20)
(0.37445 -0.28788 1.09951e-18)
(0.88074 -0.296699 -2.66695e-18)
(1.16468 -0.0850572 -5.23035e-19)
(1.26542 -0.00311799 -3.33816e-20)
(1.28317 0.00310239 -6.54665e-21)
(0.461705 -0.435933 5.07143e-19)
(0.915177 -0.403459 -5.61392e-19)
(1.23923 -0.144042 4.62909e-19)
(1.38798 -0.021811 1.25225e-19)
(1.43254 -0.00162795 -3.77017e-20)
(0.182964 -0.0449586 9.54649e-19)
(0.145155 -0.00522323 0)
(0.162421 0.00113623 1.17179e-19)
(0.162966 -2.02698e-05 4.98689e-21)
(0.159459 -0.000404764 -7.66677e-20)
(0.39985 0.0699847 0)
(0.409173 -0.000507136 0)
(0.465958 -0.00425641 5.85946e-20)
(0.47036 0.00200513 -3.06936e-22)
(0.462053 0.000707251 3.34686e-20)
(0.162669 -0.00082119 -3.68416e-19)
(0.186383 -0.0017922 3.10739e-18)
(0.213191 -0.00502162 -6.86368e-19)
(0.22979 -0.0149904 -3.11672e-18)
(0.245686 -0.0170088 -7.9699e-19)
(0.431988 0.00444082 6.09858e-19)
(0.484513 0.0196934 4.11538e-18)
(0.536408 0.0466891 -6.73045e-18)
(0.567593 0.0805964 2.2092e-18)
(0.598306 0.162199 3.79619e-18)
(0.370622 -0.220306 -3.33354e-19)
(0.324228 -0.231321 -9.19301e-20)
(0.248328 -0.2125 -3.25206e-19)
(0.150752 -0.15071 3.86435e-19)
(0.0458544 -0.0645836 1.14189e-19)
(0.257619 -0.168842 4.20554e-19)
(0.215096 -0.180984 1.41257e-18)
(0.162381 -0.176474 2.62957e-19)
(0.0967307 -0.134835 2.35692e-19)
(0.0268494 -0.0571554 -1.83128e-20)
(0.193129 -0.0539788 -3.09388e-19)
(0.151551 -0.0765403 -1.03719e-19)
(0.108698 -0.0940851 1.63166e-18)
(0.0623052 -0.0964562 2.87723e-19)
(0.013153 -0.0478039 -3.11097e-19)
(0.177878 0.0871944 -6.34492e-19)
(0.132037 0.0534081 -7.0584e-19)
(0.0873091 0.019822 1.3044e-18)
(0.0491863 -0.010132 1.59536e-18)
(0.0112039 -0.0294815 1.98596e-19)
(0.187368 0.243647 1.2353e-19)
(0.133288 0.197417 -1.20091e-19)
(0.0811955 0.147717 2.48114e-19)
(0.0377692 0.0967339 6.16513e-19)
(-0.00241276 0.0354894 9.05442e-20)
(0.697859 -0.0163413 1.53134e-18)
(0.944341 -0.0274089 -1.80074e-18)
(0.972967 -0.0441935 2.26979e-18)
(0.656699 -0.04053 3.64481e-19)
(0.281973 -0.020766 5.36604e-19)
(0.724177 -0.0531323 1.77219e-18)
(0.939825 -0.0970148 7.94653e-18)
(0.864493 -0.125248 1.03359e-18)
(0.59133 -0.107117 1.34935e-18)
(0.245677 -0.0554827 -4.78438e-19)
(0.7415 -0.100975 -1.22192e-18)
(0.856716 -0.175245 -2.29574e-18)
(0.707698 -0.184823 2.92416e-18)
(0.476462 -0.145967 -1.0836e-19)
(0.185744 -0.0743023 3.39557e-19)
(0.712556 -0.179833 1.98033e-20)
(0.676995 -0.233238 -7.68323e-18)
(0.534567 -0.215203 -5.99705e-18)
(0.344896 -0.160694 1.09143e-18)
(0.123486 -0.0775813 5.08032e-19)
(0.558808 -0.256803 4.70474e-19)
(0.481729 -0.257081 5.33016e-19)
(0.372324 -0.225209 -8.98185e-19)
(0.23096 -0.160977 -8.87732e-19)
(0.0756191 -0.0726293 -5.14245e-21)
(0.726514 0.372817 1.1732e-18)
(0.886214 0.126107 -1.92075e-19)
(0.682017 0.0189251 2.578e-19)
(0.648008 0.0380005 -7.65691e-19)
(0.362868 -0.0612505 -1.01127e-19)
(0.825639 0.397403 -1.68924e-19)
(1.09943 0.154777 -5.42015e-19)
(0.873441 0.0377268 8.30818e-19)
(0.806881 0.102359 1.68356e-18)
(0.341041 0.0549847 1.05053e-19)
(0.88883 0.371376 -2.18275e-18)
(1.28486 0.16828 -3.70129e-20)
(1.04192 0.0630625 2.39057e-19)
(0.908443 0.182552 1.63831e-18)
(0.364442 0.177402 -1.39584e-18)
(0.914633 0.312316 1.4055e-18)
(1.44264 0.168904 1.93403e-20)
(1.1708 0.102947 -1.91892e-19)
(0.960748 0.281089 -6.08152e-19)
(0.41355 0.323429 -5.62582e-19)
(0.920145 0.236555 1.5544e-19)
(1.48499 0.155006 1.85489e-20)
(1.25145 0.149626 -4.8511e-20)
(0.985603 0.388316 -4.14293e-20)
(0.482614 0.480026 1.35389e-18)
(0.275447 0.0483744 0)
(0.244741 -0.0109934 6.44172e-19)
(0.158699 -0.0158433 1.28045e-19)
(0.151277 0.0054202 -1.17581e-19)
(0.184431 0.0440137 -1.80752e-18)
(0.572717 0.266198 -1.01947e-17)
(0.611611 0.0747952 -2.54033e-18)
(0.44875 0.0124979 5.0102e-19)
(0.426529 0.00116206 -6.67816e-19)
(0.408006 -0.0682072 -6.62392e-19)
(0.245831 0.0169652 -1.12832e-21)
(0.229888 0.0150772 1.92854e-18)
(0.213268 0.00506431 5.24178e-19)
(0.186433 0.00180194 3.23092e-19)
(0.162684 0.000825033 0)
(0.599261 -0.162067 -1.10186e-19)
(0.568181 -0.0802812 2.54904e-18)
(0.53652 -0.0464612 -1.36376e-19)
(0.484573 -0.0196402 -2.70156e-19)
(0.432011 -0.0044186 7.60371e-19)
)
;

boundaryField
{
    left
    {
        type            fixedValue;
        value           uniform (1 0 0);
    }
    right
    {
        type            zeroGradient;
    }
    down
    {
        type            noSlip;
    }
    up
    {
        type            noSlip;
    }
    cylinder
    {
        type            noSlip;
    }
    defaultFaces
    {
        type            empty;
    }
}


// ************************************************************************* //
