/*--------------------------------*- C++ -*----------------------------------*\
  =========                 |
  \\      /  F ield         | OpenFOAM: The Open Source CFD Toolbox
   \\    /   O peration     | Website:  https://openfoam.org
    \\  /    A nd           | Version:  13
     \\/     M anipulation  |
\*---------------------------------------------------------------------------*/
FoamFile
{
    format      ascii;
    class       surfaceScalarField;
    location    "0.61";
    object      phi;
}
// * * * * * * * * * * * * * * * * * * * * * * * * * * * * * * * * * * * * * //

dimensions      [0 3 -1 0 0 0 0];

internalField   nonuniform List<scalar> 
823
(
0.0113776
-0.0505546
0.039177
0.0387584
-0.133436
0.106055
0.0788323
-0.205878
0.165804
0.130173
-0.268869
0.217528
-0.323256
0.25941
0.194019
0.010703
-0.0612575
0.036143
-0.158876
0.0726481
-0.242383
0.117973
-0.314193
-0.375599
0.170316
0.008377
-0.0696345
0.0282851
-0.178784
0.0567258
-0.270823
0.0918111
-0.349279
-0.41605
0.132262
0.00529929
-0.0749338
0.0179957
-0.19148
0.0362299
-0.289058
0.0588845
-0.371933
-0.442415
0.0852494
0.00196199
-0.0768958
0.00663011
-0.196149
0.0132898
-0.295717
0.0215222
-0.380166
0.0310627
-0.451955
0.0066563
-0.0107451
0.00408871
0.0221981
-0.0308945
0.0153526
0.045405
-0.0484782
0.0252714
0.0745549
-0.0639127
0.0347628
-0.0769985
0.10821
0.0433436
0.00575639
-0.0165015
0.0214842
-0.0466223
0.0467
-0.073694
0.0797481
-0.0969608
-0.116073
0.118823
0.00639366
-0.0228952
0.0236572
-0.0638859
0.0512354
-0.101272
0.0879168
-0.133642
-0.160106
0.13195
0.00753627
-0.0304314
0.027088
-0.0834376
0.0573186
-0.131503
0.0970272
-0.173351
-0.207891
0.144812
0.00874553
0.031363
0.0656638
0.109841
0.16136
0.322515
-0.957123
0.742819
0.474188
-0.82152
0.669847
0.572579
-0.352682
0.254292
0.612874
-0.0684708
0.0281759
0.00102331
-0.0059627
0.330482
-1.16878
0.471078
-0.962116
0.574483
-0.456087
0.630344
-0.124332
-0.0157551
0.336679
-1.37351
0.461382
-1.08682
0.562563
-0.557269
0.624943
-0.186712
-0.040342
0.337537
-1.56624
0.448565
-1.19785
0.540603
-0.649307
0.609493
-0.255601
-0.0750537
0.32778
-1.73266
0.428475
-1.29854
0.508977
-0.72981
0.576891
-0.323515
-0.11088
1.19771
-1.59009
-1.34028
1.00793
-1.10876
0.892725
-0.614604
0.844541
-0.275332
-0.0899883
1.32994
-1.13292
-1.78711
0.982381
-0.7612
0.77515
-0.407372
0.688902
-0.189084
-0.0642754
1.18953
-0.607615
-1.71484
0.816421
-0.388089
0.611226
-0.202176
0.519172
-0.0970304
-0.0345706
0.822398
-0.185281
-1.24473
0.545359
-0.11105
0.396607
-0.0534242
0.326122
-0.0265454
-0.0103336
0.306723
-0.492004
0.195673
0.142248
0.115703
1.56259
0.0462509
-1.57778
1.52169
0.126158
1.46266
0.191292
1.39632
0.236649
0.250062
1.67587
0.0356519
-1.66527
1.69933
0.102696
1.73082
0.159799
1.76529
0.202176
0.228244
1.38797
0.0184775
-1.37079
1.43706
0.0536075
1.51388
0.0829768
1.61016
0.105893
0.123572
0.977699
0.00531452
-0.964536
1.01588
0.015423
1.07582
0.0230443
1.15388
0.0278274
0.0327222
0.392987
-0.387672
0.40841
0.431454
0.459282
0.128773
0.327622
-0.264661
-0.191735
0.0781589
0.273213
-0.222599
0.0385241
0.209793
-0.170158
0.0113399
0.136444
-0.10926
0.0519539
-0.040614
0.115952
0.378904
-0.167233
0.0714966
0.317668
0.0356177
0.245672
0.0105608
0.161501
0.0625147
0.0888493
0.418274
-0.128219
0.0548105
0.351707
0.0272874
0.273195
0.00806478
0.180724
0.0705795
0.0552412
0.443534
-0.0805008
0.0337631
0.373185
0.016655
0.290303
0.00486425
0.192515
0.0754437
0.0174807
-0.0259025
0.0104998
0.00508593
0.00145207
0.0725789
0.087295
-0.107189
-0.0526853
0.0428505
0.0736781
-0.0439497
0.0197154
0.056913
-0.0337779
0.00513163
0.0367889
-0.0222051
0.0132857
-0.00815402
0.0760291
0.125873
-0.114607
0.0437271
0.10598
0.0196476
0.0809925
0.00509191
0.0513446
0.0183776
0.0844329
0.16854
-0.127099
0.0491115
0.141301
0.0227454
0.107359
0.00617725
0.0679128
0.0245549
0.0940896
0.214671
-0.140221
0.0557904
0.179601
0.0265361
0.136613
0.00743142
0.0870175
0.0319863
0.107414
-0.157404
0.064416
0.0308705
0.00862774
0.512731
0.173849
-0.2906
0.560757
0.163622
-0.211648
0.495857
0.312996
-0.248095
0.334535
0.803522
-0.642201
1.04097
-0.813621
0.5124
0.0574283
0.557798
0.118224
0.486463
0.384331
0.331159
0.958826
1.25752
0.512062
-0.0586542
0.544599
0.0856873
0.466189
0.462741
0.32818
1.09683
1.4586
0.508383
-0.171057
0.524168
0.0699022
0.44181
0.545099
0.324086
1.21456
1.64247
0.498148
-0.273225
0.494645
0.0734047
0.413032
0.626712
0.312232
1.31536
1.79729
0.76591
-0.435115
0.847362
-0.00804682
0.95673
0.517344
1.16944
1.10264
1.6192
1.34754
0.709256
-0.540351
0.78519
-0.0839815
0.955638
0.346896
1.29796
0.760324
1.14337
1.77379
0.602507
-0.538837
0.63392
-0.115395
0.803885
0.176932
1.17261
0.391601
0.61202
1.70396
0.448479
-0.383296
0.405932
-0.0728481
0.536291
0.0465728
0.816019
0.111874
0.186914
1.24113
0.220724
0.147876
0.194449
0.306323
0.493237
1.40258
-0.246773
1.46574
-0.230394
1.52299
-0.185476
1.56316
-0.120664
-0.0405282
1.75268
-0.225665
1.71975
-0.197468
1.69063
-0.15635
1.67084
-0.10088
-0.0349526
1.60148
-0.123191
1.50877
-0.104752
1.43456
-0.082146
1.38705
-0.0533704
-0.0186941
1.15107
-0.0331312
1.0743
-0.0279867
1.0153
-0.0231423
0.977571
-0.0156442
-0.00565975
0.460105
0.432119
0.408976
0.393332
0.00250148
0.0430077
-0.0455091
0.00732818
0.101054
-0.105881
0.0160957
0.1484
-0.157167
0.016579
0.151914
-0.152398
0.114032
0.0148146
-0.112267
0.00682864
0.036179
0.0201786
0.0877043
0.0409592
0.127619
0.0482566
0.144617
0.116385
0.0459031
0.00880962
0.0273694
0.0270776
0.0694362
0.0521525
0.102544
0.0730941
0.123675
0.114039
0.0754403
0.00780159
0.0195678
0.0255145
0.0517234
0.04975
0.0783087
0.0774326
0.0959925
0.0992472
0.0922242
0.00509913
0.0144687
0.0179739
0.0388486
0.0367675
0.0595151
0.0600091
0.0727508
0.0767495
0.0825068
0.00342423
0.0110444
0.0125815
0.0296914
0.0274433
0.0446533
0.0470547
0.0531394
0.05616
0.0676442
0.00222387
0.00882058
0.00893006
0.0229852
0.0222609
0.0313225
0.0410054
0.0343948
0.0347812
0.0623842
0.00166986
0.00715073
0.0101112
0.0145438
0.0261557
0.0152779
0.0466998
0.0138507
0.0115432
0.0699377
0.00372629
0.00342444
0.0175134
0.000756623
0.0368413
-0.00404994
0.0598527
-0.00916072
-0.0143554
0.0857511
0.0075131
0.0236223
0.0448438
0.0704459
0.099434
0.153751
0.0199185
-0.106026
0.243235
-0.130138
0.0406541
0.264568
-0.0379564
0.0166231
0.270007
0.00277137
-0.00821027
-0.00229439
-0.00425435
0.214685
-0.132382
0.325085
-0.240538
0.351206
-0.0640781
0.354209
-0.000231453
-0.00526273
0.259973
-0.322417
0.391151
-0.371716
0.433297
-0.106224
0.434945
-0.0018792
-0.00349456
0.29322
-0.529887
0.438436
-0.516932
0.502153
-0.169941
0.508485
-0.00821082
0.00162672
0.312366
0.465281
0.549631
0.569596
0.0706548
0.0386893
-0.109344
0.0786075
-0.00795263
0.0829083
-0.00430079
0.0804713
0.00243699
0.00106165
0.194051
-0.261387
0.226752
0.239074
0.233301
0.0207324
-0.0043316
-0.0164008
0.034283
-0.0135505
0.056762
-0.022479
0.0856218
-0.0288597
-0.0237224
0.0539247
-0.0434417
0.0862773
0.139239
0.202603
0.0478371
-0.0551395
0.0763482
-0.0690459
0.0275609
-0.0521595
0.0724358
0.0123377
-0.0443736
0.0595967
0.0033178
-0.0300404
0.0390603
-0.0112611
0.0145789
0.0454164
-0.0322497
-0.0683063
0.0249808
-0.031724
0.00983314
-0.0292259
0.00219214
-0.0223993
-0.00906896
0.0560813
-0.00666456
-0.0816665
0.0331434
-0.00878601
0.014293
-0.0103755
0.00259467
-0.010701
-0.00647428
0.0700777
0.0215696
-0.0983119
0.0448146
0.0164772
0.023358
0.011081
0.00692151
0.00573555
0.000447224
0.0743457
-0.105461
0.0468733
0.0241764
0.00770682
0.0165857
-0.11403
-0.014823
0.0160949
-0.151907
0.00730691
-0.148379
0.00248923
-0.101063
-0.0430199
0.0482727
-0.116375
-0.0459279
0.0409333
-0.144567
0.0201646
-0.127611
0.00682148
-0.0877201
-0.0361984
0.073127
-0.113969
-0.0755329
0.0521251
-0.123565
0.0270661
-0.102552
0.00880658
-0.0694606
-0.0273919
0.0773421
-0.0989686
-0.0923423
0.0496225
-0.0958457
0.025434
-0.0783631
0.00777578
-0.0518024
-0.0196161
0.0599555
-0.0825759
0.0365456
0.0177793
0.00503715
0.341951
0.583322
-0.529293
0.280625
0.224951
-0.163625
0.247732
0.0542304
-0.0213374
0.165391
0.114285
-0.0319437
-0.00079571
0.0971409
0.407921
0.57138
0.371572
0.2613
0.335917
0.0898858
0.233636
0.216565
0.164535
0.460108
0.507252
0.451647
0.269761
0.409433
0.1321
0.283783
0.342215
0.366651
0.496185
0.407047
0.515125
0.250821
0.461402
0.185823
0.31773
0.485887
0.586069
0.512426
0.551599
0.489326
0.333013
0.158667
0.351384
0.084776
0.0738905
0.0801776
0.00459847
0.0724498
0.00772776
-0.0369508
0.109401
0.332143
0.242408
0.225669
0.201454
0.261644
0.0856724
0.0237282
0.0567938
0.0288786
0.034294
0.0224998
0.0207359
0.0135581
0.00433508
0.202796
0.139333
0.0862995
0.0539296
)
;

boundaryField
{
    left
    {
        type            calculated;
        value           nonuniform List<scalar> 
17
(
-0.60402
-0.60402
-0.60402
-0.60402
-0.60402
-0.39598
-0.39598
-0.39598
-0.39598
-0.39598
-0.39598
-0.39598
-0.39598
-0.39598
-0.39598
-0.510051
-0.510051
)
;
    }
    right
    {
        type            calculated;
        value           nonuniform List<scalar> 
17
(
0.0794096
0.230108
0.276556
0.357178
0.433177
0.503364
0.56526
0.617813
0.647122
0.64953
0.644205
0.612717
0.82365
0.663189
0.489467
0.301885
0.105369
)
;
    }
    down
    {
        type            calculated;
        value           uniform 0;
    }
    up
    {
        type            calculated;
        value           uniform 0;
    }
    cylinder
    {
        type            calculated;
        value           uniform 0;
    }
    defaultFaces
    {
        type            empty;
    }
}


// ************************************************************************* //
