/*--------------------------------*- C++ -*----------------------------------*\
  =========                 |
  \\      /  F ield         | OpenFOAM: The Open Source CFD Toolbox
   \\    /   O peration     | Website:  https://openfoam.org
    \\  /    A nd           | Version:  13
     \\/     M anipulation  |
\*---------------------------------------------------------------------------*/
FoamFile
{
    format      ascii;
    class       volScalarField;
    location    "0.345";
    object      strainRateViscosityModel:nu;
}
// * * * * * * * * * * * * * * * * * * * * * * * * * * * * * * * * * * * * * //

dimensions      [0 2 -1 0 0 0 0];

internalField   nonuniform List<scalar> 
1800
(
9.40489
9.19758
9.01001
8.80084
8.57599
8.34395
8.11531
7.89813
7.62441
7.37964
9.58524
9.41878
9.26688
9.09727
8.91108
8.71132
8.50346
8.2886
8.02736
7.70229
9.7022
9.56269
9.42802
9.27093
9.08863
8.87892
8.64083
8.36898
8.0306
7.61075
9.7754
9.65614
9.53324
9.38286
9.20046
8.98168
8.72276
8.41593
8.0288
7.55468
9.82169
9.71831
9.60559
9.46166
9.2807
9.05694
8.78547
8.45887
8.04778
7.55624
9.85186
9.76082
9.65731
9.52059
9.34355
9.11896
8.84034
8.50016
8.07154
7.57026
9.8718
9.78992
9.69399
9.56397
9.39148
9.16769
8.88421
8.53253
8.08737
7.57571
9.88476
9.80925
9.71889
9.59396
9.42496
9.20147
8.91311
8.55006
8.08855
7.56358
9.89261
9.82108
9.73417
9.61222
9.44468
9.21964
8.92485
8.54924
8.07123
7.52873
9.89647
9.82687
9.74154
9.62071
9.45311
9.22575
8.92514
8.53955
8.05039
7.49287
1.72675
1.40586
1.22565
1.32953
1.7222
2.23169
2.48278
2.44631
2.35984
2.33539
3.64861
1.79593
1.5077
1.97712
2.67455
2.96239
2.82488
2.68307
2.69497
2.74546
4.65359
2.58334
2.44555
3.16554
3.58424
3.3543
3.09805
3.12977
3.26461
3.344
5.24432
3.89007
3.82024
4.20769
4.17924
3.8397
3.73278
3.86215
3.96322
4.01282
6.04612
5.27865
5.11985
5.11931
4.91565
4.65873
4.58406
4.6176
4.61872
4.65904
6.95663
6.46092
6.22739
6.03746
5.78834
5.54723
5.39211
5.2973
5.22729
5.28014
7.77085
7.3779
7.11676
6.85971
6.58693
6.32072
6.08831
5.9031
5.77342
5.82728
8.39993
8.05526
7.7918
7.51527
7.22588
6.93079
6.64226
6.38715
6.19398
6.23141
8.84931
8.5453
8.2908
8.00992
7.70518
7.37897
7.03534
6.70131
6.41662
6.4231
9.16164
8.90149
8.6662
8.39643
8.09537
7.7654
7.40619
7.03568
6.7091
6.75338
2.19162
1.72762
1.32739
0.921234
0.582764
0.27467
0.0884474
0.0291233
0.0214227
0.0220811
2.53154
1.85383
1.41168
0.928596
0.567721
0.259574
0.0666673
0.0166117
0.0117165
0.0101739
2.95548
1.98756
1.49123
0.937995
0.54853
0.243743
0.055383
0.0147229
0.0111876
0.0100759
3.44895
2.15892
1.56633
0.949852
0.526625
0.2274
0.0504203
0.0144805
0.0111285
0.0100613
3.9904
2.39621
1.64454
0.963751
0.502712
0.20967
0.0482218
0.0145504
0.0111285
0.0100592
4.53446
2.70604
1.73992
0.981738
0.478341
0.18983
0.0467243
0.014793
0.0111831
0.0100688
5.00174
3.06476
1.86056
1.00433
0.453904
0.167075
0.044444
0.0151515
0.0112878
0.0100911
5.31687
3.44725
2.02696
1.04686
0.436933
0.14343
0.0407836
0.0154749
0.0114136
0.0101189
5.3471
3.73024
2.17601
1.07896
0.417048
0.117207
0.0344308
0.0154725
0.0112394
0.0100225
5.20554
3.99692
2.41265
1.18422
0.43461
0.105371
0.0310247
0.0122912
0.0101348
0.0185872
4.94864
3.9508
2.47077
1.20091
0.408624
0.0687239
0.0112357
0.0156348
0.0647153
0.145461
5.33635
3.35888
2.15032
1.00129
0.3336
0.0576902
0.0522535
0.167248
0.257992
0.316039
4.90834
3.04233
2.23065
1.1681
0.538942
0.219384
0.206704
0.284006
0.359908
0.428312
4.54211
3.61753
2.65724
1.60502
0.850542
0.423898
0.322258
0.393537
0.475766
0.543377
5.10914
4.7403
3.33002
2.1446
1.21266
0.67562
0.491511
0.513223
0.576962
0.636804
6.25345
5.66795
4.05446
2.66721
1.58717
0.947626
0.676503
0.637931
0.674694
0.718838
7.26293
6.37426
4.715
3.15454
1.95498
1.22592
0.876839
0.769613
0.767399
0.787501
8.00037
6.91276
5.26175
3.59126
2.30319
1.50207
1.08177
0.905226
0.857488
0.8465
8.51888
7.33116
5.69877
3.9725
2.62627
1.76607
1.2786
1.0337
0.937615
0.893206
8.93101
7.69129
6.05052
4.28519
2.93417
2.04794
1.50021
1.18245
1.03045
0.941722
6.51286
6.43967
6.4305
6.44891
6.48765
6.53042
6.58265
6.71136
6.89623
6.82748
0.26092
1.05773
2.00862
2.92407
3.70542
4.31849
4.73573
4.98581
5.22553
5.73187
3.85035
3.54328
3.28372
3.11016
3.10522
3.24919
3.47205
3.71405
4.16649
4.84783
6.64449
6.62749
6.53728
6.34458
6.04267
5.6565
5.24732
4.89295
4.73586
4.546
7.69201
7.6767
7.63229
7.54145
7.39627
7.18989
6.92687
6.61884
6.28463
5.65388
8.44961
8.43322
8.39445
8.32782
8.22969
8.09686
7.92851
7.71695
7.42794
6.9076
8.93973
8.92399
8.89034
8.83684
8.76173
8.66298
8.53825
8.37905
8.15483
7.80882
9.273
9.25983
9.23248
9.18988
9.13055
9.05248
8.95273
8.82487
8.6529
8.43103
9.50447
9.49417
9.47308
9.44025
9.39427
9.3332
9.25425
9.15288
9.02291
8.87539
9.6899
9.68284
9.66852
9.64604
9.61405
9.5707
9.51361
9.43975
9.34637
9.2441
7.24979
7.52725
7.83722
8.08753
8.34449
8.59928
8.84112
9.06143
9.25455
9.46032
7.58403
7.94846
8.24095
8.48092
8.7091
8.9246
9.12216
9.29894
9.45391
9.61812
7.49909
7.95757
8.32586
8.62031
8.87556
9.09758
9.28797
9.44949
9.58537
9.7223
7.44729
7.95772
8.37368
8.70186
8.97645
9.20587
9.39466
9.54805
9.67132
9.78827
7.45658
7.98072
8.41854
8.7648
9.05046
9.28351
9.46975
9.61591
9.7287
9.83024
7.48255
8.0117
8.46397
8.82141
9.1123
9.34473
9.52605
9.66447
9.76798
9.85766
7.5037
8.03786
8.50275
8.8686
9.16196
9.39189
9.56764
9.69891
9.7948
9.87571
7.51117
8.05246
8.52871
8.90208
9.19747
9.42521
9.59641
9.72214
9.81244
9.8873
7.49838
8.05046
8.53742
8.91899
9.21769
9.44504
9.61373
9.73607
9.82291
9.89405
7.48289
8.04359
8.53594
8.92346
9.22527
9.45332
9.62125
9.74218
9.82747
9.89694
2.53221
2.49246
2.51583
2.72351
2.88631
2.4979
1.66286
1.17083
1.51206
4.11081
2.94879
2.86076
2.70651
2.71264
3.09852
3.40222
2.78217
1.87988
2.1006
5.09546
3.45264
3.40652
3.24773
3.06618
3.27044
3.82273
3.78768
3.13442
3.25713
5.43205
3.95684
3.94436
3.91467
3.80343
3.89571
4.32091
4.5852
4.45229
4.63742
5.8937
4.51294
4.48515
4.55788
4.62547
4.78546
5.11595
5.43644
5.61106
5.88399
6.61915
5.11413
5.07137
5.20859
5.40336
5.66058
5.98135
6.30733
6.59155
6.89513
7.4008
5.66305
5.62622
5.82467
6.09443
6.40924
6.74075
7.06739
7.37616
7.67633
8.0844
6.07313
6.05768
6.31857
6.64385
6.9951
7.33913
7.66627
7.97308
8.25795
8.61044
6.26485
6.2827
6.63266
7.02625
7.41969
7.78365
8.11593
8.41604
8.6824
8.98785
6.60338
6.57234
6.95696
7.37951
7.7809
8.14255
8.46603
8.75009
8.99285
9.2519
0.0980404
0.139624
0.0796394
0.0340295
0.0117523
0.312666
0.864266
1.43441
1.91627
2.40537
0.0651069
0.128221
0.0781408
0.0344182
0.0143252
0.308175
0.881733
1.51176
2.01065
2.68624
0.0443107
0.124967
0.0802494
0.0397865
0.0239526
0.320223
0.907676
1.57946
2.09803
3.0122
0.032373
0.128449
0.0856484
0.0496432
0.0425318
0.34394
0.936121
1.63399
2.21483
3.40857
0.0267083
0.136911
0.0932297
0.0621886
0.0673462
0.372305
0.961829
1.68366
2.39969
3.88154
0.0255109
0.148681
0.101746
0.0753836
0.0944212
0.400136
0.985956
1.74961
2.66747
4.37772
0.0284004
0.162808
0.110022
0.0871188
0.118917
0.422545
1.01117
1.84824
2.99771
4.80658
0.0368894
0.179566
0.117572
0.0967593
0.139933
0.445798
1.06041
2.00684
3.36242
5.0896
0.0548814
0.199869
0.124428
0.100916
0.147658
0.453335
1.09944
2.15591
3.63893
5.0918
0.08632
0.222499
0.132489
0.107101
0.16775
0.503386
1.235
2.41295
3.88891
4.89985
0.145529
0.251522
0.146654
0.107292
0.156441
0.493079
1.28912
2.52342
3.89711
4.68225
0.251142
0.284703
0.141757
0.0912749
0.0921538
0.364985
1.1335
2.31545
3.44348
5.20234
0.416475
0.283941
0.123552
0.0250269
0.0149338
0.272679
1.10469
2.32889
3.24997
4.94303
0.668866
0.274955
0.0273057
0.0838959
0.128781
0.474641
1.38025
2.58545
3.69113
4.68985
1.05002
0.0614217
0.238795
0.291491
0.359656
0.85718
1.90503
3.18079
4.69161
5.16726
1.51339
0.0950999
0.535329
0.476278
0.647266
1.29262
2.46173
3.90636
5.59331
6.22036
2.18877
0.690037
0.852474
0.754411
0.99625
1.73907
2.99026
4.59054
6.30179
7.21644
3.78949
1.69616
1.27838
1.09658
1.3721
2.16369
3.46647
5.16583
6.8548
7.9692
6.85938
3.57534
1.96927
1.47395
1.73124
2.54662
3.88379
5.63355
7.29588
8.5074
9.04898
6.38462
2.85552
2.04503
2.1631
2.92825
4.24029
6.0227
7.68686
8.93798
6.62832
6.69065
6.51329
6.39097
6.35005
6.32338
6.30601
6.31754
6.36202
6.4763
5.53693
5.01775
4.77276
4.5305
4.13126
3.54429
2.8014
1.93399
1.0458
0.284627
4.85475
4.23878
3.82755
3.61541
3.42743
3.30733
3.3123
3.45527
3.65389
3.87359
4.7058
4.87876
5.02211
5.33321
5.69922
6.05103
6.33361
6.5216
6.61692
6.64197
5.68236
6.28272
6.61064
6.9107
7.17232
7.38169
7.5321
7.62842
7.67694
7.69259
6.86497
7.38842
7.68458
7.9026
8.07688
8.2151
8.31802
8.38873
8.43069
8.44901
7.76541
8.12077
8.35222
8.51811
8.64812
8.75111
8.82966
8.8859
8.92171
8.93905
8.40477
8.63282
8.80897
8.941
9.04406
9.12469
9.18599
9.23009
9.25857
9.27262
8.86618
9.0162
9.14761
9.25059
9.33081
9.39282
9.43943
9.47267
9.494
9.50442
9.24858
9.35036
9.44294
9.51625
9.5729
9.61585
9.64746
9.66955
9.68347
9.69011
9.50929
8.98503
8.23547
6.92784
5.5978
0.131171
3.3607
5.96007
7.21361
8.15143
9.46522
8.92123
8.16769
6.89015
5.54921
0.563747
2.6221
5.70572
6.91595
7.91348
9.36545
8.78245
8.0198
6.80913
5.36612
1.60345
1.41343
5.20639
6.30886
7.40278
9.18226
8.5447
7.77396
6.65457
5.1861
2.73999
0.722958
4.23816
5.42112
6.5709
8.86773
8.17306
7.40339
6.37631
5.02607
3.36788
0.970868
2.63135
4.31656
5.3932
8.35001
7.62908
6.87268
5.91654
4.76453
3.43976
1.71923
1.30167
3.0489
3.9876
7.5354
6.89582
6.15468
5.22673
4.29897
3.26916
2.14303
1.17241
1.65582
2.55696
6.32472
6.03663
5.28035
4.23107
3.53277
2.91216
2.11829
1.43514
1.06829
1.23491
4.6313
5.23108
4.47321
2.99905
2.43675
2.27414
1.85584
1.38471
1.12251
0.658865
2.67296
4.53794
4.02011
1.96674
1.39695
1.4884
1.4099
1.21161
1.06381
0.845108
1.27733
3.78648
3.66451
1.33811
0.816803
0.897983
0.971226
0.956229
0.971505
1.01965
0.614101
2.96561
3.07914
0.95845
0.576301
0.640263
0.759374
0.81989
0.843816
0.876881
0.355879
2.18299
2.28048
0.690271
0.493313
0.594835
0.72546
0.809886
0.847768
0.872715
0.265791
1.54243
1.48217
0.521684
0.533241
0.671844
0.784966
0.856049
0.879675
0.890251
0.240263
1.01219
0.83808
0.509864
0.664691
0.797982
0.898865
0.962378
0.97839
0.975734
0.24353
0.491653
0.492226
0.627742
0.808442
0.945638
1.04345
1.10161
1.11263
1.10479
0.180454
0.201727
0.498918
0.744915
0.961647
1.10781
1.19896
1.24696
1.26357
1.26381
0.0464076
0.245564
0.639574
0.908853
1.12317
1.24335
1.32033
1.38844
1.44294
1.46394
0.0561441
0.485788
0.811757
1.08786
1.22611
1.33383
1.47851
1.63219
1.71883
1.73541
0.667323
0.85105
1.03823
1.19004
1.32547
1.58727
1.89144
2.06253
2.06972
2.03911
0.362864
0.0801983
0.220306
0.544167
0.785761
0.875075
0.861527
0.824568
0.806174
0.818779
0.46211
0.201887
0.314181
0.513318
0.713864
0.791904
0.77803
0.745658
0.733807
0.753862
0.525244
0.368868
0.433903
0.504011
0.641858
0.708943
0.695315
0.666098
0.659704
0.685538
0.636531
0.581035
0.587384
0.544484
0.573716
0.618315
0.60724
0.583594
0.583456
0.613934
0.800378
0.792848
0.730756
0.62526
0.526009
0.526911
0.516915
0.499622
0.505441
0.539221
1.00011
0.985397
0.86026
0.721521
0.511986
0.440243
0.425009
0.414223
0.425402
0.461004
1.21481
1.15454
0.971721
0.805048
0.529841
0.368338
0.334347
0.328846
0.344656
0.380757
1.4377
1.30824
1.06885
0.863136
0.560523
0.320826
0.248942
0.242937
0.260453
0.294935
1.67137
1.45418
1.15686
0.896434
0.583375
0.298191
0.175028
0.162314
0.181416
0.21264
1.91765
1.59472
1.24195
0.912787
0.589907
0.286968
0.122095
0.0794756
0.0866824
0.11357
2.00862
0.747218
0.717037
0.960421
1.18927
1.27489
1.25546
1.20368
1.15649
1.11875
1.39412
0.483373
0.578812
0.869982
1.10147
1.18744
1.17028
1.1227
1.08235
1.05634
0.751482
0.288754
0.480924
0.79301
1.02732
1.11427
1.09873
1.05422
1.01944
1.00299
0.253036
0.171659
0.404712
0.720906
0.952165
1.03662
1.02082
0.97888
0.949846
0.943595
0.435255
0.0331413
0.266156
0.607804
0.856208
0.951062
0.940171
0.901712
0.878227
0.881968
9.35441
9.2898
9.1407
8.87272
8.43707
7.77828
6.87063
5.75855
4.58127
3.53648
9.1922
9.09535
8.88075
8.5112
7.94094
7.13577
6.10885
4.9543
3.84405
2.78627
9.02357
8.89992
8.62621
8.16054
7.46113
6.51541
5.37063
4.16788
3.08065
1.94201
8.81597
8.66182
8.32104
7.74737
6.9055
5.8135
4.55424
3.29414
2.22528
1.08961
8.58711
8.37896
7.92533
7.17686
6.11185
4.79142
3.35004
2.08464
0.993429
0.301752
1.06258
1.02705
1.01973
1.02349
0.918153
0.801799
1.29515
3.67851
3.85519
1.32537
0.952144
0.937044
0.930161
0.87485
0.722726
0.592173
0.9148
3.13468
3.10142
0.649209
0.988657
0.985165
0.968581
0.895831
0.751152
0.589702
0.704286
2.36101
2.33179
0.378582
1.05406
1.06551
1.06116
1.00157
0.891596
0.744937
0.661323
1.54163
1.6135
0.278046
1.1822
1.2056
1.21071
1.16303
1.07327
0.949905
0.787639
0.894953
0.900137
0.24699
1.34067
1.36023
1.36808
1.34162
1.2703
1.13698
0.917203
0.657761
0.351073
0.215688
1.53579
1.53187
1.50076
1.45857
1.40469
1.29357
1.05429
0.73645
0.26847
0.0659309
1.79334
1.78555
1.70377
1.55616
1.4214
1.32333
1.18159
0.875108
0.481335
0.0461815
2.06912
2.11337
2.10576
1.9118
1.58043
1.30557
1.17275
1.03311
0.827932
0.657521
2.28073
2.32851
2.44856
2.48652
2.17754
1.59383
1.16758
1.05974
1.28255
1.96148
8.15123
7.21326
5.95971
3.3602
0.131428
5.59633
6.92735
8.23528
8.98504
9.50939
7.9128
6.91484
5.70472
2.62149
0.563622
5.54535
6.8887
8.16711
8.92128
9.46553
7.40133
6.30698
5.2046
1.41529
1.59976
5.36162
6.80686
8.01893
8.78258
9.36604
6.56826
5.41824
4.23595
0.726104
2.73176
5.18137
6.65172
7.77298
8.54502
9.18329
5.3888
4.31202
2.63208
0.971083
3.35664
5.02011
6.37285
7.40245
8.1738
8.86949
3.97905
3.04066
1.30961
1.7138
3.42658
4.75564
5.91171
6.87176
7.63052
8.35301
2.53976
1.65203
1.18775
2.13361
3.25056
4.28221
5.21793
6.15363
6.89857
7.54081
1.21538
1.08762
1.4532
2.108
2.87995
3.50227
4.21666
5.2807
6.04219
6.33573
0.671311
1.15434
1.4088
1.84329
2.23194
2.40024
2.98353
4.47728
5.24148
4.65629
0.886884
1.1042
1.24954
1.41481
1.46525
1.37016
1.94373
4.02308
4.56214
2.71878
2.08689
0.542086
1.05157
0.654552
0.692846
0.763986
0.630567
0.297953
0.0651838
0.357522
1.62611
0.24012
0.85635
0.504638
0.598451
0.683979
0.587561
0.354405
0.268988
0.49034
1.33074
0.0536802
0.628148
0.366564
0.507583
0.600714
0.55275
0.45821
0.474207
0.593071
1.09094
0.0165809
0.376416
0.258719
0.419039
0.513047
0.551246
0.623704
0.728192
0.758403
0.837393
0.0974176
0.181685
0.176698
0.335045
0.43232
0.597209
0.797101
0.962953
0.972574
0.624372
0.160816
0.0422844
0.122009
0.254832
0.373692
0.67942
0.95681
1.17306
1.21208
0.451409
0.206035
0.0544944
0.0243026
0.183179
0.348633
0.762946
1.08753
1.35508
1.45859
0.318201
0.203212
0.0846569
0.0138641
0.103522
0.349009
0.820216
1.19114
1.51744
1.7041
0.21881
0.183902
0.0866661
0.0362573
0.0371122
0.349447
0.847062
1.27659
1.66578
1.93958
0.147468
0.159112
0.0840879
0.0359715
0.01461
0.331091
0.856031
1.35533
1.80035
2.16409
9.33652
6.77017
2.66905
1.71894
1.22738
1.14052
0.984014
0.79301
0.801311
2.03402
8.21083
4.63613
2.2168
1.43801
1.09769
1.05391
0.906718
0.660565
0.532033
1.3988
6.11975
3.06365
1.78546
1.232
0.994567
0.98724
0.844041
0.568519
0.332131
0.740627
4.1319
1.8752
1.49445
1.02639
0.89009
0.917299
0.7836
0.492565
0.231561
0.222712
2.83316
1.06161
1.24043
0.827466
0.786948
0.835396
0.688595
0.357251
0.0444719
0.396934
3.54762
4.58863
5.76248
6.87276
7.7798
8.4382
8.8735
9.14118
9.29007
9.3545
2.78053
3.8404
4.95156
6.10707
7.13516
7.94095
8.51142
8.88097
9.09551
9.19226
1.92792
3.07127
4.16144
5.3659
6.51288
7.45999
8.16011
8.62612
8.89995
9.02359
1.05312
2.20156
3.28057
4.54596
5.80934
6.9033
7.74625
8.32058
8.66167
8.81594
0.299604
0.960108
2.06236
3.33641
4.7844
6.10828
7.17488
7.92439
8.37859
8.58702
)
;

boundaryField
{
    left
    {
        type            calculated;
        value           nonuniform List<scalar> 
35
(
0.296732
0.572955
0.996265
1.63071
2.52577
3.69372
5.06392
6.47584
8.15848
9.44179
0.196331
0.121108
0.0759225
0.0515295
0.0399605
0.036095
0.0388473
0.0523859
0.0873368
0.154731
4.93284
4.05928
3.23073
2.50909
1.91268
1.41977
1.02045
0.710832
0.479054
0.31178
9.61571
8.97912
7.92224
6.84806
5.85947
)
;
    }
    right
    {
        type            calculated;
        value           nonuniform List<scalar> 
35
(
1.11855
1.0567
1.00408
0.94573
0.88529
0.823182
0.759148
0.691325
0.619864
0.544976
0.466265
0.385199
0.298192
0.214565
0.113876
0.0215849
0.0101039
0.0100464
0.0100335
0.0100267
0.010026
0.010031
0.0100387
0.0100264
0.0213165
0.160281
0.336902
0.448879
0.563213
0.654089
0.732606
0.797033
0.851853
0.895217
0.940185
)
;
    }
    down
    {
        type            calculated;
        value           nonuniform List<scalar> 
40
(
9.45426
7.26609
2.8995
1.80717
1.26699
1.16941
1.01075
0.835038
0.902249
2.2611
3.83272
4.88187
6.03317
7.0921
7.94398
8.55454
8.9541
9.19896
9.3354
9.39465
9.39456
9.33512
9.19845
8.95324
8.55322
7.94207
7.08924
6.02801
4.87247
3.81825
2.23166
0.847101
0.760771
0.992178
1.22077
1.30472
1.2833
1.22947
1.17976
1.1383
)
;
    }
    up
    {
        type            calculated;
        value           nonuniform List<scalar> 
40
(
9.03409
7.80883
6.16813
4.39639
3.04203
2.14421
1.57291
1.2278
1.05709
0.955747
9.72926
9.72304
9.71045
9.69064
9.66233
9.62377
9.57262
9.50585
9.42075
9.32813
9.33494
9.42646
9.51032
9.57617
9.6266
9.66458
9.69236
9.71167
9.72378
9.72951
9.27067
7.09703
3.24934
2.19281
2.28062
3.04951
4.36306
6.15204
7.8138
9.04479
)
;
    }
    cylinder
    {
        type            calculated;
        value           nonuniform List<scalar> 
80
(
1.89687
4.45222
5.46911
5.74312
6.29066
7.08595
7.86062
8.47454
8.91243
9.21292
9.44583
9.61873
9.72983
9.7983
9.84096
9.86847
9.8865
9.89818
9.90523
9.9087
9.50049
9.65068
9.74907
9.81049
9.84902
9.87391
9.89017
9.90055
9.90658
9.90914
5.21614
6.1941
6.19417
6.29963
6.82326
7.52118
8.17426
8.68552
9.05064
9.30259
0.996443
0.472858
0.264912
0.183712
0.160559
0.166295
0.0833322
0.0417939
0.734368
2.32374
9.5943
9.55572
9.46725
9.30161
9.00944
8.51092
7.6858
6.36658
4.38889
2.24163
9.5942
9.5554
9.46663
9.30053
9.00757
8.50771
7.67992
6.35392
4.35799
2.19175
0.95333
0.44267
0.244622
0.171126
0.150779
0.166192
0.163968
0.0858397
0.0434989
0.701323
)
;
    }
    defaultFaces
    {
        type            empty;
    }
}


// ************************************************************************* //
