/*--------------------------------*- C++ -*----------------------------------*\
  =========                 |
  \\      /  F ield         | OpenFOAM: The Open Source CFD Toolbox
   \\    /   O peration     | Website:  https://openfoam.org
    \\  /    A nd           | Version:  13
     \\/     M anipulation  |
\*---------------------------------------------------------------------------*/
FoamFile
{
    format      ascii;
    class       volVectorField;
    location    "0.345";
    object      U;
}
// * * * * * * * * * * * * * * * * * * * * * * * * * * * * * * * * * * * * * //

dimensions      [0 1 -1 0 0 0 0];

internalField   nonuniform List<vector> 
1800
(
(0.0978046 -0.0883323 -4.49496e-20)
(0.286901 -0.241957 -3.41555e-20)
(0.473976 -0.379047 -4.8512e-19)
(0.657689 -0.500153 1.91503e-19)
(0.8366 -0.607154 7.43568e-20)
(1.00989 -0.701341 -3.90387e-20)
(1.17712 -0.78341 5.54454e-20)
(1.33788 -0.85359 1.96705e-19)
(1.49152 -0.912835 5.91838e-19)
(1.63343 -0.966729 8.09557e-19)
(0.119064 -0.0915057 -7.91366e-20)
(0.344297 -0.247714 -7.70649e-19)
(0.563288 -0.384753 3.78179e-21)
(0.775365 -0.504235 1.25859e-19)
(0.9795 -0.608912 -1.2633e-19)
(1.1752 -0.700673 7.67116e-20)
(1.36229 -0.780748 -2.81167e-19)
(1.54074 -0.850037 -5.00505e-20)
(1.71005 -0.910615 -6.92844e-19)
(1.86778 -0.966921 6.29218e-19)
(0.141654 -0.0923255 4.8825e-20)
(0.403687 -0.247736 2.09298e-19)
(0.653762 -0.382121 5.43409e-19)
(0.892182 -0.497906 -1.90302e-19)
(1.11866 -0.59838 -1.43043e-19)
(1.33321 -0.685799 7.56534e-20)
(1.53604 -0.761681 9.83641e-20)
(1.7274 -0.827256 1.94112e-19)
(1.90717 -0.884741 2.73353e-21)
(2.07416 -0.937784 1.50999e-19)
(0.16391 -0.089723 -4.57208e-20)
(0.461706 -0.239474 -2.04401e-19)
(0.741436 -0.367623 -1.81274e-19)
(1.00452 -0.476979 -1.42325e-19)
(1.25163 -0.571021 1.81349e-19)
(1.48351 -0.65212 -5.71002e-20)
(1.70092 -0.72189 -4.31331e-21)
(1.90452 -0.781595 3.01847e-21)
(2.09453 -0.833325 -1.60291e-19)
(2.27022 -0.880299 -1.06104e-19)
(0.184661 -0.0833582 -1.14056e-19)
(0.515902 -0.221811 8.76341e-20)
(0.823303 -0.339435 1.79864e-19)
(1.10932 -0.439066 2.43336e-19)
(1.37562 -0.524072 -2.85075e-19)
(1.62372 -0.596774 -3.58091e-21)
(1.85494 -0.658757 4.25079e-19)
(2.07043 -0.711245 -1.85045e-19)
(2.27083 -0.756137 -1.24e-19)
(2.45577 -0.796359 -5.36859e-20)
(0.203194 -0.0735015 1.73606e-19)
(0.56448 -0.195203 1.02992e-18)
(0.896804 -0.298078 1.43263e-19)
(1.20353 -0.384738 -5.03192e-19)
(1.48721 -0.458228 -1.75532e-19)
(1.75004 -0.520668 6.37782e-19)
(1.99392 -0.573519 -1.45427e-19)
(2.22037 -0.617889 -4.31699e-19)
(2.43048 -0.655428 -3.1654e-19)
(2.6242 -0.688718 2.61601e-19)
(0.218903 -0.0605925 1.16348e-19)
(0.605756 -0.160703 -7.47646e-19)
(0.959329 -0.245034 -1.0857e-18)
(1.28373 -0.315801 3.83826e-19)
(1.58225 -0.375566 4.50005e-19)
(1.8577 -0.426128 -9.02236e-22)
(2.11241 -0.468736 -6.3979e-19)
(2.34831 -0.504318 2.19328e-19)
(2.56685 -0.534202 -3.64258e-19)
(2.76829 -0.560553 -3.11087e-19)
(0.23124 -0.0451732 -3.42509e-19)
(0.638212 -0.119686 -6.92642e-19)
(1.00851 -0.182296 1.21231e-18)
(1.34679 -0.234702 5.98739e-19)
(1.65696 -0.278853 -2.69788e-19)
(1.94227 -0.316135 -2.11514e-19)
(2.20546 -0.347512 0)
(2.44877 -0.373684 1.1683e-19)
(2.67401 -0.395614 -2.95856e-19)
(2.88174 -0.414958 -7.75083e-20)
(0.239772 -0.027876 -2.04478e-19)
(0.660666 -0.0737569 5.62438e-19)
(1.04251 -0.112199 1.71038e-19)
(1.39034 -0.14429 -5.12538e-19)
(1.70843 -0.171276 -7.84249e-19)
(2.0004 -0.194052 3.66242e-20)
(2.26927 -0.213242 1.67124e-19)
(2.51756 -0.229289 -5.46877e-19)
(2.74735 -0.242777 -2.89758e-19)
(2.95957 -0.254769 -5.63587e-19)
(0.244266 -0.00940259 4.51439e-19)
(0.672468 -0.0247041 3.44185e-19)
(1.06032 -0.0373612 -9.38624e-20)
(1.41306 -0.0477874 -1.29903e-20)
(1.73517 -0.0564603 -3.8753e-19)
(2.03045 -0.0637203 -8.57431e-20)
(2.30209 -0.0698064 -2.90586e-19)
(2.5528 -0.0748858 6.46601e-19)
(2.78484 -0.0791658 1.71006e-19)
(2.99949 -0.0830059 2.24609e-21)
(-0.00236657 -0.0219274 -2.64995e-20)
(0.00881069 -0.0693308 -7.64398e-20)
(0.0250998 -0.119776 -7.16794e-21)
(0.0494138 -0.16996 -3.4898e-20)
(0.0777454 -0.215251 -1.26444e-20)
(0.106671 -0.25352 -3.89324e-19)
(0.13578 -0.287546 -1.88337e-20)
(0.166581 -0.32082 1.19431e-19)
(0.199381 -0.354223 1.11521e-20)
(0.233253 -0.386485 -3.67146e-20)
(0.000816614 -0.0248386 -9.76972e-20)
(0.0150137 -0.0851781 -2.04667e-19)
(0.0392904 -0.159539 -6.06372e-20)
(0.0692373 -0.224123 -1.10691e-19)
(0.0996255 -0.274484 -9.98446e-20)
(0.130753 -0.317006 -2.82407e-19)
(0.164822 -0.357939 2.01527e-19)
(0.202461 -0.399186 1.65482e-19)
(0.241953 -0.438964 -2.53239e-19)
(0.281494 -0.475264 8.01883e-20)
(0.00547336 -0.0316167 -8.53947e-20)
(0.0287887 -0.107457 -8.47757e-19)
(0.0627423 -0.195539 -1.24901e-19)
(0.0974325 -0.268224 9.51808e-20)
(0.131974 -0.326491 6.80698e-20)
(0.169914 -0.379488 -4.59376e-19)
(0.213202 -0.431338 3.60056e-20)
(0.259386 -0.480665 3.65446e-19)
(0.305783 -0.525041 -3.83909e-19)
(0.351792 -0.564374 -2.57301e-19)
(0.0113628 -0.0410906 -1.96334e-21)
(0.0466199 -0.13089 1.87009e-19)
(0.089566 -0.225023 1.84135e-21)
(0.133066 -0.306598 -1.1841e-20)
(0.177884 -0.377374 -2.99676e-20)
(0.227381 -0.443222 9.18368e-20)
(0.281227 -0.504812 7.54368e-20)
(0.335832 -0.559963 -1.36423e-19)
(0.389959 -0.608368 9.24063e-21)
(0.444175 -0.650863 -1.04332e-20)
(0.0185094 -0.0508362 0)
(0.0672302 -0.152437 5.38328e-21)
(0.121895 -0.253489 -5.01859e-19)
(0.178678 -0.345235 5.0141e-20)
(0.237837 -0.42825 -1.47722e-20)
(0.30056 -0.504633 1.05068e-20)
(0.36536 -0.573783 -2.66441e-20)
(0.429888 -0.634731 -7.87869e-21)
(0.494063 -0.688043 0)
(0.558277 -0.733968 -2.05908e-20)
(0.0273305 -0.0596872 3.14658e-20)
(0.0918923 -0.172871 -1.52011e-19)
(0.161744 -0.282466 -4.42707e-20)
(0.23461 -0.383765 -5.87692e-20)
(0.309729 -0.476554 4.989e-20)
(0.38673 -0.561236 2.32277e-21)
(0.464236 -0.637292 9.539e-20)
(0.54094 -0.704429 -2.17702e-20)
(0.616918 -0.762831 -6.98433e-19)
(0.69217 -0.811948 -1.01207e-20)
(0.0379813 -0.0676262 7.36131e-22)
(0.121239 -0.192195 5.72611e-20)
(0.209152 -0.310599 -7.9258e-20)
(0.299909 -0.420115 -1.6804e-20)
(0.392113 -0.520553 -7.27911e-20)
(0.484744 -0.611938 -1.14489e-20)
(0.576658 -0.694049 7.81941e-21)
(0.666889 -0.766776 -2.14238e-19)
(0.755465 -0.829806 3.84815e-19)
(0.842247 -0.881779 9.73118e-19)
(0.0503675 -0.0746138 1.52993e-20)
(0.155133 -0.209624 -1.42714e-19)
(0.263456 -0.335962 -2.1455e-19)
(0.373654 -0.45208 8.92812e-20)
(0.484075 -0.558196 -6.43098e-20)
(0.593502 -0.654496 1.00516e-19)
(0.700885 -0.741091 1.99199e-19)
(0.805334 -0.81804 -1.10685e-19)
(0.906929 -0.884775 -3.06704e-19)
(1.00558 -0.939116 7.26467e-19)
(0.064295 -0.0803675 -2.63409e-20)
(0.19329 -0.224036 -5.78323e-19)
(0.324294 -0.356561 5.24707e-19)
(0.45567 -0.477214 3.37864e-19)
(0.585713 -0.586703 -8.61296e-20)
(0.713183 -0.685581 3.09721e-19)
(0.837071 -0.774309 -1.60094e-19)
(0.956488 -0.853277 -7.75765e-19)
(1.07163 -0.921791 -4.04324e-19)
(1.18256 -0.976973 4.54445e-19)
(0.0795492 -0.084671 -7.98655e-20)
(0.23585 -0.234424 -5.44331e-19)
(0.392392 -0.370526 -8.1003e-21)
(0.547533 -0.492785 6.86751e-20)
(0.699575 -0.602435 3.3801e-19)
(0.84736 -0.70038 -1.85664e-19)
(0.989965 -0.787355 -1.70005e-19)
(1.12646 -0.863699 1.89532e-19)
(1.25672 -0.928472 -3.52141e-19)
(1.37996 -0.980128 -5.85318e-19)
(0.403138 -0.530209 1.01957e-18)
(0.684765 -0.61574 -3.21936e-19)
(0.912665 -0.553948 -1.63606e-19)
(1.08401 -0.427003 3.01934e-19)
(1.23189 -0.276378 -2.47508e-19)
(1.34518 -0.135232 -2.88635e-19)
(1.42818 -0.0406801 -2.42928e-19)
(1.47503 -0.00798948 -3.40486e-20)
(1.49889 -0.00380151 1.89249e-19)
(1.52129 -0.00191951 3.67464e-20)
(0.469386 -0.618073 9.90928e-19)
(0.74198 -0.691038 8.72007e-20)
(0.966174 -0.61354 1.07227e-20)
(1.12275 -0.475188 -2.51442e-19)
(1.25879 -0.31472 -8.40361e-19)
(1.36347 -0.163958 0)
(1.44067 -0.0588902 -2.2698e-19)
(1.48252 -0.0185187 6.25907e-20)
(1.50582 -0.0106177 4.96254e-21)
(1.5288 -0.00543948 -6.91027e-20)
(0.556797 -0.70382 -1.00166e-18)
(0.811584 -0.764002 -7.48343e-20)
(1.0261 -0.671196 1.65061e-19)
(1.1656 -0.521355 -5.2218e-20)
(1.28645 -0.35169 -3.41143e-20)
(1.38098 -0.191373 6.55319e-20)
(1.44858 -0.075687 0)
(1.48453 -0.0278829 0)
(1.50665 -0.0166899 -7.19351e-20)
(1.52774 -0.00849646 0)
(0.666164 -0.785721 -2.24146e-19)
(0.896432 -0.832678 3.98306e-19)
(1.09283 -0.725878 2.68561e-20)
(1.21296 -0.564682 0)
(1.31524 -0.386717 6.86881e-19)
(1.39806 -0.216965 -1.7112e-19)
(1.455 -0.0910454 0)
(1.48621 -0.0368464 1.6373e-19)
(1.50761 -0.022542 0)
(1.52714 -0.0112936 2.18472e-20)
(0.796 -0.862591 -1.49382e-19)
(0.998307 -0.895047 4.43989e-19)
(1.16707 -0.776391 -1.48323e-20)
(1.26488 -0.604405 0)
(1.3454 -0.41925 1.90374e-19)
(1.41451 -0.240626 3.14851e-19)
(1.46104 -0.105311 5.038e-20)
(1.48823 -0.0454621 7.8555e-21)
(1.50903 -0.0280728 -3.80164e-20)
(1.52727 -0.0138531 3.12124e-20)
(0.942317 -0.933648 -1.31559e-18)
(1.11694 -0.949709 -9.23854e-19)
(1.24956 -0.821391 4.85672e-21)
(1.3212 -0.639757 5.46401e-19)
(1.37703 -0.448666 -2.964e-19)
(1.42998 -0.262302 1.57684e-19)
(1.46691 -0.118669 2.61633e-19)
(1.49067 -0.0538065 -2.09554e-19)
(1.51091 -0.0333003 -1.94893e-21)
(1.52811 -0.0162167 -1.59125e-22)
(1.10003 -0.998501 -2.5643e-19)
(1.25025 -0.996441 2.81403e-19)
(1.34065 -0.859694 4.05157e-21)
(1.38181 -0.669935 -1.64889e-20)
(1.41019 -0.474235 -5.47652e-19)
(1.44416 -0.281818 5.22433e-20)
(1.47239 -0.13123 -9.77287e-20)
(1.49356 -0.0619675 -3.35374e-20)
(1.51326 -0.0382556 1.35628e-20)
(1.52966 -0.0184632 -2.1597e-20)
(1.26416 -1.05604 -1.20357e-18)
(1.3948 -1.03584 2.06411e-19)
(1.4394 -0.890663 0)
(1.44591 -0.694383 3.12166e-20)
(1.44437 -0.495354 4.72896e-19)
(1.45651 -0.299008 -7.29203e-22)
(1.47683 -0.14315 -2.88305e-19)
(1.49675 -0.0700509 5.21855e-20)
(1.51603 -0.0429851 -1.77607e-22)
(1.53191 -0.0206595 7.76476e-21)
(1.43179 -1.10284 3.39157e-18)
(1.54797 -1.06881 2.50433e-19)
(1.54568 -0.914995 4.54802e-19)
(1.51386 -0.713408 -3.00437e-20)
(1.47985 -0.51201 -3.25406e-20)
(1.46704 -0.313959 -3.78044e-19)
(1.47963 -0.154818 7.15927e-20)
(1.49983 -0.0780427 3.83215e-21)
(1.51901 -0.0474671 -3.099e-20)
(1.53452 -0.022839 -5.84237e-20)
(1.59902 -1.12767 -3.00008e-18)
(1.70168 -1.09424 1.27767e-18)
(1.65387 -0.935337 -2.20645e-19)
(1.58186 -0.73045 -7.51573e-19)
(1.51415 -0.527606 -6.19815e-19)
(1.47407 -0.329833 -2.3565e-19)
(1.4782 -0.168499 -4.83432e-20)
(1.50083 -0.0873501 0)
(1.51925 -0.0521062 1.95482e-20)
(1.52685 -0.0246064 -6.99805e-21)
(1.88794 -1.16972 -6.7285e-18)
(1.92714 -1.10384 -1.70281e-18)
(1.80464 -0.929617 -4.99794e-20)
(1.67329 -0.722191 1.12415e-19)
(1.55941 -0.523731 1.74422e-19)
(1.48462 -0.336232 -1.14756e-19)
(1.47784 -0.179776 -2.10085e-20)
(1.48867 -0.093014 2.33146e-20)
(1.47979 -0.0504149 -2.52945e-20)
(1.46351 -0.0243528 -2.30912e-21)
(2.28905 -1.13425 4.94739e-19)
(2.17861 -1.05538 -2.52733e-19)
(1.94296 -0.863 5.86224e-19)
(1.73764 -0.660387 -1.13419e-19)
(1.5672 -0.473686 1.86402e-19)
(1.45284 -0.308065 1.87721e-20)
(1.41203 -0.171342 5.93222e-20)
(1.3825 -0.0873241 -2.08637e-20)
(1.36223 -0.0433823 1.18653e-19)
(1.34756 -0.021275 6.77302e-20)
(2.6105 -1.04309 2.27021e-18)
(2.3525 -0.947916 3.26664e-19)
(2.01012 -0.757926 -1.19613e-19)
(1.73745 -0.569727 8.6388e-37)
(1.51524 -0.404512 -2.65473e-20)
(1.35799 -0.267578 1.40507e-33)
(1.2829 -0.154767 -1.22303e-20)
(1.25296 -0.0767699 -1.69032e-33)
(1.23421 -0.0363142 8.24817e-21)
(1.21924 -0.0181789 -2.62814e-20)
(2.78737 -0.89364 3.90056e-33)
(2.37063 -0.795 2.96006e-18)
(1.976 -0.629289 1.82183e-18)
(1.65802 -0.466899 0)
(1.41465 -0.330256 8.73892e-19)
(1.24284 -0.22039 4.433e-19)
(1.15095 -0.1318 1.22871e-19)
(1.11164 -0.0666334 -2.67187e-33)
(1.09152 -0.0303417 -5.36669e-20)
(1.07708 -0.0151558 2.21681e-20)
(2.76407 -0.70567 3.84558e-18)
(2.24678 -0.629466 -1.47091e-19)
(1.84821 -0.490266 0)
(1.51847 -0.360218 0)
(1.27684 -0.252703 0)
(1.10615 -0.169482 0)
(1.00652 -0.104178 -1.15315e-20)
(0.960847 -0.0541744 -3.85159e-33)
(0.939996 -0.0242201 8.0542e-21)
(0.926087 -0.0121184 2.42822e-33)
(2.55141 -0.516935 3.26887e-18)
(2.02053 -0.462749 0)
(1.63946 -0.353314 0)
(1.32841 -0.256011 0)
(1.10448 -0.177869 0)
(0.947652 -0.119819 0)
(0.851185 -0.0758051 3.21434e-20)
(0.802716 -0.0408481 -4.05595e-20)
(0.781142 -0.0181659 8.41538e-21)
(0.767774 -0.00913524 4.81772e-20)
(2.19022 -0.342688 0)
(1.70285 -0.303468 1.10248e-18)
(1.36173 -0.227495 1.09773e-18)
(1.09217 -0.161675 0)
(0.90051 -0.111275 6.85342e-19)
(0.767927 -0.0753627 4.18091e-19)
(0.683375 -0.0490465 2.33188e-19)
(0.637281 -0.0274559 5.16148e-20)
(0.616304 -0.0122377 1.94009e-20)
(0.603862 -0.00626408 -3.06702e-22)
(1.7029 -0.191133 -6.73739e-19)
(1.30027 -0.165585 -2.73921e-19)
(1.02525 -0.121722 1.7533e-19)
(0.815488 -0.0843219 -2.13881e-34)
(0.668889 -0.0575372 -7.74015e-20)
(0.568737 -0.039367 3.74041e-33)
(0.503117 -0.0264893 5.00072e-20)
(0.464641 -0.0154771 9.32981e-20)
(0.446283 -0.00691789 9.12107e-21)
(0.435518 -0.00366975 -1.248e-20)
(1.10089 -0.0758209 3.4074e-18)
(0.823185 -0.0626775 -1.86071e-19)
(0.640657 -0.0442851 -5.88244e-19)
(0.506298 -0.0289621 0)
(0.414393 -0.0193634 -6.39379e-19)
(0.352137 -0.0135216 -4.26906e-19)
(0.3103 -0.00962517 -1.82837e-19)
(0.284198 -0.00604277 -1.13419e-19)
(0.271099 -0.0027775 1.03954e-19)
(0.26341 -0.00158087 -6.36037e-22)
(0.39735 -0.00331892 0)
(0.287865 0.00159214 0)
(0.220902 0.00408871 0)
(0.173581 0.0062175 0)
(0.142559 0.00579099 0)
(0.12176 0.00458642 0)
(0.107251 0.00328466 5.75482e-20)
(0.0974587 0.00205049 -2.02931e-34)
(0.0921129 0.00128643 1.12839e-20)
(0.088787 0.000434587 1.56426e-20)
(3.36714 -0.0863048 5.39171e-19)
(3.32645 -0.265074 -8.41845e-20)
(3.24738 -0.430637 8.52039e-19)
(3.1324 -0.582129 -6.04978e-19)
(2.98634 -0.718083 6.66226e-19)
(2.81522 -0.83632 2.74884e-19)
(2.62656 -0.933969 -1.92883e-18)
(2.42944 -1.00772 -7.69834e-20)
(2.22458 -1.0535 0)
(1.98473 -1.06632 4.2717e-19)
(3.86194 -0.0750504 7.07332e-18)
(3.79861 -0.234191 1.9563e-18)
(3.70429 -0.387278 -4.8666e-18)
(3.58426 -0.531946 -4.48871e-19)
(3.44237 -0.665831 3.55778e-18)
(3.28182 -0.787231 1.92258e-18)
(3.10644 -0.894941 -5.16599e-18)
(2.92195 -0.987524 -1.95099e-18)
(2.72746 -1.06314 2.20198e-18)
(2.49221 -1.12018 8.52029e-19)
(3.83314 -0.0532898 -1.26223e-19)
(3.8203 -0.171545 4.40409e-18)
(3.78553 -0.299734 -1.08864e-18)
(3.72442 -0.430886 -3.44621e-18)
(3.63626 -0.558686 -6.80143e-18)
(3.52378 -0.678736 1.02779e-17)
(3.39122 -0.788694 4.18012e-18)
(3.24353 -0.88784 -3.91047e-18)
(3.0816 -0.978508 -2.90169e-18)
(2.88718 -1.06271 -3.42338e-18)
(3.6287 -0.047271 -4.83938e-18)
(3.61965 -0.144915 -4.35357e-18)
(3.59968 -0.243721 5.47255e-18)
(3.56741 -0.343066 1.91214e-18)
(3.52249 -0.442337 -8.97325e-18)
(3.46428 -0.540751 4.92424e-19)
(3.39198 -0.63697 3.88739e-18)
(3.30531 -0.73033 -1.05445e-18)
(3.2052 -0.822935 1.27722e-18)
(3.08328 -0.914608 2.81643e-19)
(3.34407 -0.0365651 -9.15975e-19)
(3.33902 -0.111645 3.00407e-18)
(3.32713 -0.188668 1.61949e-18)
(3.30748 -0.267164 -1.89375e-18)
(3.27991 -0.34606 -2.00148e-18)
(3.24472 -0.42412 -2.43513e-18)
(3.20213 -0.500302 3.79905e-19)
(3.15189 -0.574438 1.38631e-19)
(3.09567 -0.647674 -2.14059e-18)
(3.03311 -0.72119 -2.03548e-18)
(2.96258 -0.0265429 -1.82247e-18)
(2.95982 -0.0798802 -5.87232e-20)
(2.95332 -0.134593 -1.6375e-18)
(2.94242 -0.190899 3.12162e-19)
(2.92678 -0.248548 5.36775e-18)
(2.90633 -0.306927 -3.66858e-19)
(2.88096 -0.365111 4.43586e-20)
(2.85029 -0.422049 -2.60874e-18)
(2.81653 -0.476861 -3.49628e-18)
(2.78613 -0.529823 3.72257e-19)
(2.48713 -0.017502 -2.89294e-20)
(2.48578 -0.0519285 -8.14312e-19)
(2.4826 -0.0872442 -2.61483e-18)
(2.47709 -0.123769 -3.43098e-18)
(2.46881 -0.161533 2.49649e-18)
(2.45746 -0.200267 1.50219e-18)
(2.44264 -0.239352 -1.38498e-18)
(2.42373 -0.277789 1.62439e-18)
(2.40279 -0.314478 -4.29853e-19)
(2.38959 -0.349531 -9.6385e-19)
(1.91464 -0.00968295 7.72451e-19)
(1.91408 -0.0282939 -8.3178e-19)
(1.91278 -0.0474375 -3.27642e-20)
(1.91032 -0.0673582 -3.47328e-20)
(1.90624 -0.0881301 -7.27473e-20)
(1.90013 -0.109615 -2.33188e-18)
(1.89151 -0.131405 -6.78646e-19)
(1.87979 -0.152782 2.62592e-18)
(1.86665 -0.172973 -6.0341e-19)
(1.86194 -0.192204 -1.35094e-18)
(1.23988 -0.00373528 -1.64279e-18)
(1.23966 -0.0106942 -8.48892e-19)
(1.23923 -0.0179005 2.33918e-18)
(1.23823 -0.0254785 -8.89759e-19)
(1.23625 -0.0334757 -6.74116e-19)
(1.2329 -0.0418323 1.352e-18)
(1.22775 -0.0503507 -1.29585e-18)
(1.22038 -0.058666 1.28692e-18)
(1.21202 -0.0663426 -1.21022e-18)
(1.21008 -0.0735077 -4.24775e-18)
(0.454914 -0.000257763 6.63077e-19)
(0.454826 -0.000700404 7.03049e-19)
(0.454691 -0.00115907 7.48177e-19)
(0.454324 -0.00164008 1.35396e-18)
(0.453495 -0.00214026 -6.71977e-19)
(0.451982 -0.00263731 -1.29959e-18)
(0.449566 -0.00309925 6.14693e-19)
(0.445991 -0.00359307 2.4836e-20)
(0.441734 -0.00439233 -4.96515e-20)
(0.440348 -0.00504566 1.10571e-19)
(1.65334 0.996797 -2.85236e-19)
(1.5121 0.941488 1.80223e-20)
(1.35866 0.88047 -2.27125e-19)
(1.19758 0.808243 1.76623e-19)
(1.02952 0.723851 -1.9314e-19)
(0.854795 0.627001 -1.01286e-19)
(0.67375 0.516906 2.32116e-19)
(0.487039 0.392137 -3.0527e-19)
(0.295901 0.250648 3.09889e-19)
(0.101437 0.0916497 2.38944e-19)
(1.88621 0.991856 0)
(1.72954 0.934487 6.37856e-19)
(1.56073 0.872587 3.30512e-19)
(1.38222 0.80173 1.6372e-19)
(1.19449 0.719803 4.32603e-19)
(0.997517 0.62586 -8.6944e-20)
(0.791361 0.518589 -7.86397e-20)
(0.576358 0.395993 8.90218e-20)
(0.353332 0.255185 -1.04542e-18)
(0.122707 0.0943618 -1.6513e-20)
(2.09091 0.958813 1.56817e-19)
(1.92513 0.904904 0)
(1.74607 0.846347 -1.00788e-19)
(1.55489 0.779476 -3.84147e-19)
(1.35168 0.702041 5.37383e-20)
(1.13609 0.612773 3.97538e-19)
(0.907792 0.510089 -6.07191e-19)
(0.666605 0.391647 -2.00861e-19)
(0.412612 0.254056 7.83695e-19)
(0.14526 0.0947411 -1.76065e-19)
(2.28476 0.898209 1.88662e-19)
(2.11038 0.850457 1.21962e-20)
(1.92126 0.797792 2.43869e-20)
(1.71809 0.736959 3.6193e-20)
(1.50057 0.665836 -2.90917e-20)
(1.26793 0.583128 2.73433e-19)
(1.01928 0.487174 -2.06933e-19)
(0.753694 0.375541 -8.558e-19)
(0.470288 0.244688 0)
(0.167397 0.0917015 0)
(2.46791 0.811729 -1.0699e-18)
(2.28432 0.770774 -6.08066e-19)
(2.08491 0.725022 -1.20519e-19)
(1.87003 0.671501 -6.65883e-20)
(1.63891 0.608288 0)
(1.39032 0.534139 2.40817e-19)
(1.12277 0.447442 2.67851e-19)
(0.834577 0.345846 2.86322e-19)
(0.523858 0.225962 -4.23864e-19)
(0.187916 0.084902 -8.12571e-20)
(2.63399 0.702041 7.65485e-19)
(2.44156 0.66803 -1.39195e-19)
(2.23245 0.629659 -2.21386e-19)
(2.00666 0.584297 0)
(1.76303 0.530279 0)
(1.4999 0.466493 0)
(1.21525 0.391472 -3.89938e-20)
(0.906708 0.303099 3.70298e-19)
(0.571517 0.198355 3.79134e-19)
(0.206091 0.0746273 -3.08609e-19)
(2.7758 0.572328 -1.1929e-18)
(2.57552 0.545244 -1.48077e-18)
(2.35789 0.514522 -3.02757e-22)
(2.12263 0.477946 -1.87725e-19)
(1.86821 0.434185 -9.28921e-20)
(1.59261 0.382325 -1.78898e-19)
(1.29336 0.321133 4.59162e-19)
(0.967515 0.248844 2.14864e-19)
(0.611602 0.162972 5.40098e-19)
(0.221322 0.0613425 2.02881e-19)
(2.8871 0.425736 -1.15685e-18)
(2.6803 0.405627 8.47129e-20)
(2.45579 0.382819 1.64516e-19)
(2.213 0.355614 1.68352e-20)
(1.95007 0.323056 -3.14456e-19)
(1.66469 0.284475 -1.74261e-19)
(1.35401 0.238944 -6.21275e-19)
(1.01466 0.185146 1.18534e-19)
(0.642623 0.121241 5.14885e-20)
(0.233073 0.0456142 -6.26773e-21)
(2.96283 0.265184 1.01307e-19)
(2.75124 0.252354 3.97032e-19)
(2.52193 0.237907 -3.30303e-19)
(2.27398 0.220744 3.63072e-19)
(2.00527 0.200302 3.72578e-19)
(1.71326 0.176182 4.91937e-19)
(1.39484 0.147814 -6.35787e-19)
(1.04636 0.114393 -3.24438e-19)
(0.663429 0.0748123 -4.58497e-20)
(0.240923 0.028096 -3.27024e-19)
(3.00056 0.0935802 5.8179e-19)
(2.78616 0.0887895 -1.86121e-19)
(2.55429 0.0834483 4.79589e-19)
(2.30371 0.0771546 -3.10728e-19)
(2.03212 0.0697321 2.66482e-19)
(1.73682 0.0610656 6.05469e-19)
(1.4146 0.0509815 3.78913e-19)
(1.06164 0.0392367 3.09375e-19)
(0.673413 0.0255077 2.6588e-19)
(0.24466 0.00950756 5.43651e-19)
(0.238671 0.449481 -4.65126e-19)
(0.203184 0.415872 -1.81752e-19)
(0.167787 0.379009 1.37434e-19)
(0.134453 0.34162 -4.20823e-19)
(0.104847 0.305687 -1.20678e-19)
(0.0779338 0.268433 6.9057e-19)
(0.0515022 0.221988 3.36319e-19)
(0.0256612 0.15747 -1.62843e-19)
(0.00698693 0.0791799 1.09954e-19)
(-0.00117303 0.0223239 -6.0216e-20)
(0.288342 0.541539 4.07899e-19)
(0.248447 0.504833 4.53103e-19)
(0.207917 0.462908 -1.34597e-20)
(0.167682 0.41615 -1.30263e-19)
(0.131089 0.368372 -3.05966e-19)
(0.100586 0.321046 8.25045e-20)
(0.0733716 0.267861 2.20891e-19)
(0.0456924 0.195623 1.61624e-19)
(0.0181816 0.101077 -5.82945e-19)
(0.00271128 0.0286201 -1.22605e-19)
(0.35985 0.630386 -5.97143e-19)
(0.313942 0.590366 -4.78374e-19)
(0.268071 0.544654 2.53891e-19)
(0.221373 0.491523 1.35417e-19)
(0.175839 0.432076 -4.20774e-21)
(0.136315 0.370232 -1.37652e-19)
(0.102132 0.304305 -2.67633e-20)
(0.0683776 0.223886 -5.5667e-19)
(0.0335371 0.125298 -2.69528e-19)
(0.00755752 0.0375088 -3.91644e-20)
(0.454573 0.715308 5.00572e-19)
(0.400366 0.671288 1.64568e-19)
(0.346601 0.620464 -1.4794e-19)
(0.292376 0.56163 6.46072e-20)
(0.237821 0.4938 -3.2519e-22)
(0.186617 0.41945 2.05669e-21)
(0.14011 0.339574 -1.28999e-19)
(0.0954314 0.249479 3.82158e-19)
(0.0513515 0.14721 -4.20427e-19)
(0.0135107 0.0474844 -6.60452e-20)
(0.572265 0.795593 -2.81864e-19)
(0.50808 0.747689 -8.90795e-20)
(0.443756 0.691067 -1.41075e-20)
(0.379089 0.625594 -6.67555e-20)
(0.313778 0.5506 5.67343e-20)
(0.249671 0.46698 4.96519e-20)
(0.188362 0.375907 -2.67125e-20)
(0.129287 0.276094 -2.83797e-19)
(0.0724657 0.167286 2.19153e-19)
(0.0208621 0.0566975 8.76621e-20)
(0.709495 0.869069 6.44737e-19)
(0.634429 0.817875 3.2351e-19)
(0.558175 0.755938 2.08134e-19)
(0.480879 0.68412 4.80179e-20)
(0.402411 0.602528 1.50927e-19)
(0.323847 0.511594 7.51627e-20)
(0.246432 0.411964 1.40216e-19)
(0.170825 0.303543 5.77044e-20)
(0.098008 0.186582 -1.709e-20)
(0.0299594 0.0649534 -1.40508e-20)
(0.86194 0.933378 -1.19533e-19)
(0.775467 0.879361 -8.32674e-19)
(0.686635 0.812949 -8.34323e-20)
(0.595664 0.735924 -4.2702e-20)
(0.502507 0.648928 -1.64146e-20)
(0.408075 0.552196 1.49249e-19)
(0.313435 0.445955 -4.39665e-20)
(0.219673 0.330189 6.55878e-20)
(0.128263 0.204959 -1.44611e-19)
(0.0408835 0.0724584 -1.0617e-21)
(1.02654 0.984889 -8.87708e-19)
(0.92831 0.928656 5.93741e-20)
(0.826523 0.858907 -2.29383e-19)
(0.721355 0.778263 -7.47917e-20)
(0.612684 0.687542 -2.72664e-20)
(0.501395 0.586739 -7.49141e-20)
(0.388483 0.475678 5.66391e-20)
(0.275134 0.354071 6.04818e-20)
(0.162965 0.221499 -9.82832e-21)
(0.0535359 0.0791083 -1.04091e-19)
(1.20367 1.01708 1.23905e-19)
(1.09331 0.960232 5.25963e-19)
(0.978101 0.889159 1.58131e-21)
(0.858104 0.807132 -3.16041e-20)
(0.733058 0.714997 1.52471e-19)
(0.603832 0.612345 -3.49159e-19)
(0.471367 0.498626 -2.45087e-19)
(0.336812 0.373144 3.56532e-19)
(0.201765 0.234983 1.44379e-19)
(0.0677014 0.0845313 -3.646e-20)
(1.40035 1.01484 7.42345e-19)
(1.27787 0.96184 3.25079e-19)
(1.14768 0.894979 5.54281e-20)
(1.01077 0.816122 -1.97064e-19)
(0.867199 0.726328 -1.66669e-20)
(0.717857 0.625213 4.6662e-19)
(0.563561 0.511935 -2.68674e-19)
(0.405334 0.385445 -1.84654e-19)
(0.244707 0.244314 3.36016e-19)
(0.0831177 0.0884445 -6.17156e-21)
(0.968487 0.0940389 9.54054e-21)
(1.15667 0.144313 -1.81738e-22)
(1.20224 0.189197 -2.7468e-20)
(1.30117 0.169652 0)
(1.33645 0.160902 7.80147e-21)
(1.25995 0.239849 -3.20079e-20)
(1.11676 0.387331 -7.35145e-20)
(0.942631 0.542043 -5.61764e-20)
(0.708203 0.645506 -2.56242e-19)
(0.415076 0.592644 4.99637e-19)
(0.970253 0.073598 1.85955e-19)
(1.14998 0.118883 -3.77678e-20)
(1.19682 0.16182 2.06629e-21)
(1.29581 0.15644 1.15641e-20)
(1.33754 0.163323 1.96151e-21)
(1.27974 0.270714 1.43346e-21)
(1.14804 0.435394 1.03043e-19)
(0.988969 0.603723 0)
(0.759502 0.723801 6.89591e-19)
(0.478922 0.683498 -5.19776e-19)
(0.971031 0.0537433 -1.16369e-19)
(1.1463 0.0942159 8.7521e-21)
(1.19498 0.13495 7.55877e-20)
(1.29581 0.141917 2.11997e-20)
(1.34199 0.164214 -1.14273e-20)
(1.3007 0.298937 -3.59515e-20)
(1.18325 0.481673 5.38255e-20)
(1.04103 0.663876 4.25563e-20)
(0.822491 0.799664 -9.37467e-22)
(0.564756 0.771096 -4.81542e-19)
(0.971236 0.0344536 -8.70331e-20)
(1.14545 0.0695956 1.64362e-20)
(1.19683 0.108481 6.6483e-20)
(1.30057 0.126322 2.18019e-20)
(1.35038 0.164461 -1.83305e-20)
(1.32269 0.325106 -1.19808e-20)
(1.2223 0.525744 -7.49027e-21)
(1.09898 0.721539 2.59308e-20)
(0.900346 0.870918 -4.98852e-19)
(0.674294 0.853525 -1.81331e-19)
(0.971619 0.0155789 4.15418e-20)
(1.1475 0.0445241 -4.43068e-20)
(1.20222 0.0823802 -5.67703e-20)
(1.30919 0.110136 1.40979e-20)
(1.36171 0.164877 0)
(1.34539 0.349778 0)
(1.26489 0.567164 2.92891e-20)
(1.16371 0.775432 -2.75858e-20)
(0.995662 0.935136 -1.13805e-19)
(0.805645 0.92914 -5.77345e-20)
(0.972833 -0.00334817 3.36751e-21)
(1.15245 0.0187423 4.97624e-20)
(1.21079 0.0567123 -1.73509e-19)
(1.32069 0.0940138 -6.60189e-20)
(1.37461 0.166059 -6.4218e-21)
(1.36848 0.373205 6.5738e-20)
(1.31091 0.605277 1.14418e-19)
(1.2366 0.823903 -1.78526e-20)
(1.1089 0.990506 -3.3843e-20)
(0.954057 0.997214 -1.76373e-21)
(0.975004 -0.0228888 6.33909e-21)
(1.15999 -0.00787344 1.91662e-20)
(1.22198 0.0316065 -5.56846e-20)
(1.33422 0.0785555 -1.21283e-19)
(1.38805 0.16824 1.46264e-20)
(1.39191 0.395238 8.20602e-21)
(1.36071 0.639143 -5.60868e-20)
(1.31878 0.865297 -1.36686e-19)
(1.23821 1.03665 -2.02371e-20)
(1.1139 1.0578 -9.85873e-19)
(0.977236 -0.043541 1.69084e-20)
(1.16942 -0.0354642 -1.05232e-19)
(1.23508 0.00726038 1.08929e-19)
(1.3489 0.064553 8.60781e-20)
(1.40074 0.172007 5.93008e-21)
(1.41528 0.415693 -8.87169e-20)
(1.41413 0.667844 -1.17143e-20)
(1.40975 0.898591 -6.62064e-20)
(1.37996 1.07434 1.1186e-20)
(1.27966 1.11029 2.88645e-18)
(0.977593 -0.0653161 -8.89664e-20)
(1.17993 -0.0641534 6.14189e-20)
(1.24925 -0.0162359 1.63117e-19)
(1.36415 0.0522086 -9.41814e-20)
(1.41296 0.177206 -1.54796e-19)
(1.43989 0.434457 9.2612e-21)
(1.47253 0.691245 1.44061e-19)
(1.50969 0.924371 -4.94716e-19)
(1.5312 1.10479 -2.67334e-20)
(1.448 1.15164 -6.46763e-18)
(0.975141 -0.0884067 4.237e-21)
(1.19106 -0.0938581 1.13835e-19)
(1.26352 -0.0389261 5.00566e-20)
(1.37878 0.0434471 -2.26247e-19)
(1.42218 0.187758 -1.83367e-19)
(1.46319 0.455235 -4.87382e-20)
(1.53184 0.712998 2.94454e-20)
(1.61255 0.945893 -2.87615e-19)
(1.68383 1.12764 -1.09744e-18)
(1.61519 1.17096 -7.95558e-18)
(0.969807 -0.120286 -1.44513e-20)
(1.20331 -0.133567 -2.66148e-20)
(1.27747 -0.0706443 -6.21318e-20)
(1.39437 0.0275132 9.09098e-20)
(1.43461 0.184242 1.55802e-19)
(1.49577 0.451534 -4.5108e-20)
(1.61273 0.703229 -1.27235e-19)
(1.75451 0.935356 -1.25252e-18)
(1.9027 1.12989 -1.60796e-18)
(1.89886 1.20739 3.29022e-18)
(0.960899 -0.159416 -4.13638e-19)
(1.21692 -0.183838 1.18941e-21)
(1.28569 -0.11692 -4.59279e-20)
(1.40156 0.00542154 2.54683e-19)
(1.42688 0.162802 3.02432e-19)
(1.5023 0.410539 -1.00353e-19)
(1.6706 0.640476 -9.10579e-20)
(1.88186 0.861402 -3.86948e-19)
(2.13954 1.06886 2.36062e-19)
(2.28403 1.15947 -3.22197e-19)
(0.949947 -0.199503 -2.75639e-20)
(1.23618 -0.235002 -5.23434e-20)
(1.28624 -0.160165 2.89895e-20)
(1.40377 -0.0189907 2.90161e-20)
(1.41535 0.147963 1.74394e-33)
(1.48621 0.3586 2.01118e-21)
(1.68712 0.556105 -2.14188e-33)
(1.95215 0.756299 1.87751e-19)
(2.30303 0.954623 -9.33357e-19)
(2.58725 1.05734 -6.29487e-19)
(0.93804 -0.244704 1.45213e-18)
(1.26181 -0.27639 -7.48041e-34)
(1.26421 -0.210324 -3.82897e-20)
(1.29776 -0.0303607 -2.17216e-19)
(1.29119 0.134656 -4.5601e-19)
(1.40234 0.293063 -9.18572e-19)
(1.62659 0.45561 -5.1684e-33)
(1.93337 0.628485 -1.73825e-18)
(2.32794 0.800738 -3.16988e-18)
(2.7544 0.901824 1.67696e-18)
(0.927421 -0.300471 0)
(1.30512 -0.320704 -1.85423e-33)
(1.12552 -0.200176 0)
(1.12744 -0.0263057 0)
(1.13866 0.110571 0)
(1.26677 0.227039 0)
(1.4951 0.352275 -8.33676e-33)
(1.81826 0.489658 0)
(2.21524 0.633288 -3.4053e-19)
(2.73585 0.711471 1.25908e-18)
(0.916124 -0.360363 1.15571e-19)
(1.25491 -0.325878 -4.5806e-19)
(0.967897 -0.169212 -5.55397e-20)
(0.94936 -0.0235818 0)
(0.969868 0.0806693 0)
(1.09583 0.162038 6.26994e-20)
(1.31016 0.251866 1.20905e-18)
(1.61801 0.353536 -1.9523e-19)
(1.99779 0.465665 -4.95381e-19)
(2.53298 0.520182 4.67066e-18)
(0.883317 -0.405225 -1.51997e-17)
(1.09278 -0.278653 1.07356e-18)
(0.797368 -0.127645 -7.29194e-20)
(0.757505 -0.0198877 -9.15633e-20)
(0.782325 0.0518941 -4.94158e-19)
(0.893739 0.102565 -7.69203e-19)
(1.07896 0.159973 -1.0623e-18)
(1.34727 0.228373 -1.39712e-18)
(1.68819 0.305869 -1.61584e-18)
(2.18016 0.34434 3.62135e-18)
(0.808884 -0.39448 -4.13531e-19)
(0.887027 -0.207229 -1.21681e-18)
(0.607769 -0.0815859 -1.26154e-19)
(0.556253 -0.0147453 -8.29239e-20)
(0.578038 0.0275938 -8.98436e-34)
(0.664622 0.0535982 9.67711e-20)
(0.807214 0.0838453 -1.50102e-32)
(1.01689 0.122611 -1.93401e-19)
(1.29273 0.167203 2.98518e-19)
(1.69936 0.19204 7.05399e-19)
(0.664185 -0.288844 3.4261e-17)
(0.618345 -0.107904 -3.13973e-18)
(0.394253 -0.0347073 -2.41332e-19)
(0.342795 -0.00725048 -1.41112e-19)
(0.35723 0.00941724 3.83324e-19)
(0.412362 0.0180588 7.78137e-19)
(0.502223 0.0288923 7.91919e-19)
(0.637055 0.0447648 4.59604e-19)
(0.820839 0.0634229 -1.89401e-19)
(1.10155 0.0762188 3.56735e-18)
(0.336813 -0.0768293 5.58791e-19)
(0.261874 -0.00231349 -6.76784e-33)
(0.14465 0.0189371 -3.05516e-19)
(0.121334 0.00315547 0)
(0.124672 -0.00220929 0)
(0.142568 -0.00532 9.8467e-20)
(0.172756 -0.00619644 9.07446e-35)
(0.220393 -0.00414528 -1.236e-19)
(0.288135 -0.00161033 -2.82153e-19)
(0.398985 0.0033203 1.00096e-18)
(2.00178 1.0958 -1.78794e-18)
(2.23885 1.078 -2.30449e-18)
(2.44191 1.02878 0)
(2.63696 0.952282 -7.59457e-19)
(2.82352 0.852364 -1.78637e-18)
(2.99273 0.7323 -2.24934e-18)
(3.13708 0.594989 -4.79134e-19)
(3.25056 0.442671 1.26936e-18)
(3.32827 0.276955 -3.54778e-18)
(3.36768 0.0986992 1.35666e-18)
(2.49834 1.14122 2.66644e-19)
(2.73028 1.08136 1.3959e-18)
(2.92365 1.00379 1.43775e-19)
(3.10657 0.909518 6.75176e-19)
(3.28049 0.800468 -1.10329e-18)
(3.4399 0.678199 -4.99763e-18)
(3.58093 0.543931 2.46636e-18)
(3.70047 0.39927 1.26998e-17)