/*--------------------------------*- C++ -*----------------------------------*\
  =========                 |
  \\      /  F ield         | OpenFOAM: The Open Source CFD Toolbox
   \\    /   O peration     | Website:  https://openfoam.org
    \\  /    A nd           | Version:  13
     \\/     M anipulation  |
\*---------------------------------------------------------------------------*/
FoamFile
{
    format      ascii;
    class       volScalarField;
    location    "0.56";
    object      p;
}
// * * * * * * * * * * * * * * * * * * * * * * * * * * * * * * * * * * * * * //

dimensions      [0 2 -2 0 0 0 0];

internalField   nonuniform List<scalar> 
440
(
7.83458
10.591
12.9538
13.1363
10.1617
20.7269
24.1102
27.1057
27.8065
25.9191
41.2642
44.2956
46.9986
47.7914
46.6307
67.3975
69.4953
71.4087
72.0653
71.378
96.6741
97.4911
98.288
98.6881
98.6546
-0.435846
-0.535069
-0.0631077
0.496965
0.838663
-1.68133
-2.34424
-2.08072
-1.3833
-0.745374
-2.03146
-2.91139
-2.83004
-2.07249
-0.953807
-0.683382
-0.815281
-0.408285
0.557814
2.42385
3.08726
4.39889
5.82884
7.2615
9.51237
2.09754
2.2805
1.35902
0.694881
0.237701
1.06545
2.08666
1.23707
0.636767
0.223346
-0.0870937
1.67259
1.10131
0.590013
0.214033
-0.393509
1.06969
0.890572
0.548336
0.208104
1.51709
0.483749
0.604487
0.499505
0.2039
4.38979
0.256618
0.335837
0.444418
0.184744
6.73032
0.714553
0.432646
0.439076
0.121059
9.99326
2.45526
1.08399
0.56334
0.0845567
13.8837
4.76132
2.13872
0.832068
0.0853514
16.6202
7.12507
3.46156
1.30469
0.176424
100.699
75.85
53.3346
33.16
12.3575
102.394
78.9523
57.5472
39.0671
23.4933
104.295
82.7121
62.4849
45.2443
32.8975
105.178
85.0316
66.5136
51.1947
40.6685
105.097
84.7541
66.3394
51.2622
40.9081
219.879
216.4
216.107
218.224
220.957
202.699
200.233
200.493
203.234
206.525
180.551
178.778
179.142
181.565
184.443
154.752
153.409
153.614
155.208
157.105
126.871
126.158
126.097
126.557
127.15
235.58
236.009
236.648
237.073
236.818
236.16
236.796
237.353
237.331
236.378
234.958
235.934
236.35
236.078
235.09
230.072
231.672
232.238
232.375
232.283
221.584
223.448
224.461
225.671
227.026
235.747
234.727
234.904
234.117
234.269
235.717
234.712
234.849
234.076
234.802
235.707
234.673
234.791
234.194
235.328
235.708
234.611
234.788
234.451
234.918
235.711
234.529
234.86
234.651
232.227
235.721
234.391
234.912
234.428
228.732
235.905
234.252
234.8
233.941
226.366
236.801
234.021
234.165
232.253
223.344
240.837
234.003
232.983
229.787
219.667
249.806
234.727
231.764
227.241
216.915
217.77
196.244
175.037
151.743
126.457
207.376
191.38
172.335
150.432
126.662
198.888
186.208
168.625
148.098
126.344
191.752
180.793
165.109
146.272
125.93
191.534
180.774
165.364
146.671
126.16
96.4034
95.5266
95.0789
94.312
94.1554
57.3235
55.3765
53.6711
51.7494
50.9836
29.4942
27.1509
24.3882
22.0892
20.7648
15.0428
12.6263
10.1609
8.14069
7.17024
9.21382
7.32617
5.93919
4.96362
4.37652
5.98464
4.88243
4.30217
4.21306
4.30123
4.07846
3.61834
3.54526
3.70026
3.85364
2.77388
2.75848
2.99078
3.29344
3.45164
1.67316
1.97697
2.4272
2.77751
2.92225
0.626711
1.02382
1.59581
1.99706
2.17088
3.62304
3.1913
2.07991
0.978957
0.285613
3.67683
3.02067
1.98778
0.923363
0.274034
3.47936
2.7606
1.85918
0.871516
0.26394
3.16048
2.51877
1.69747
0.817367
0.25451
2.74373
2.37166
1.51708
0.75878
0.249099
4.49095
3.17576
1.99329
1.01893
0.316913
3.7539
3.26914
2.08253
1.014
0.299004
94.911
54.1536
27.5171
14.4941
9.47427
93.6898
51.1443
22.994
9.47888
5.26873
232.144
232.225
232.175
231.66
230.582
232.733
232.906
233.136
233.175
232.8
233.295
233.467
233.854
234.251
234.422
233.891
234.042
234.445
235.047
235.465
234.631
234.867
235.37
235.982
236.24
141.986
141.794
140.966
140.455
139.544
185.219
184.41
182.431
180.664
178.687
215.516
214.146
211.797
208.983
206.608
229.152
228.144
226.094
223.596
221.151
231.999
231.385
230.414
229.031
227.132
238.821
234.448
234.551
233.51
232.899
237.121
234.489
234.64
233.68
232.918
236.359
234.577
234.743
233.903
233.247
235.994
234.658
234.846
234.1
233.623
235.82
234.711
234.908
234.175
233.934
252.26
235.786
234.907
233.445
231.984
243.166
234.694
234.488
233.389
232.702
226.938
221.864
208.757
182.041
141.235
231.135
226.892
213.311
185.065
142.458
)
;

boundaryField
{
    left
    {
        type            zeroGradient;
    }
    right
    {
        type            fixedValue;
        value           uniform 0;
    }
    down
    {
        type            zeroGradient;
    }
    up
    {
        type            zeroGradient;
    }
    cylinder
    {
        type            zeroGradient;
    }
    defaultFaces
    {
        type            empty;
    }
}


// ************************************************************************* //
