/*--------------------------------*- C++ -*----------------------------------*\
  =========                 |
  \\      /  F ield         | OpenFOAM: The Open Source CFD Toolbox
   \\    /   O peration     | Website:  https://openfoam.org
    \\  /    A nd           | Version:  13
     \\/     M anipulation  |
\*---------------------------------------------------------------------------*/
FoamFile
{
    format      ascii;
    class       volScalarField;
    location    "0.155";
    object      strainRateViscosityModel:nu;
}
// * * * * * * * * * * * * * * * * * * * * * * * * * * * * * * * * * * * * * //

dimensions      [0 2 -1 0 0 0 0];

internalField   nonuniform List<scalar> 
1800
(
9.40521
9.19797
9.01031
8.80088
8.57556
8.34281
8.11306
7.89427
7.61841
7.37131
9.58527
9.41886
9.26692
9.09721
8.91081
8.71068
8.50224
8.28649
8.02397
7.69712
9.70215
9.56266
9.42798
9.27085
9.08844
8.87853
8.64008
8.36763
8.02835
7.60716
9.77533
9.65607
9.53316
9.38275
9.2003
8.9814
8.72227
8.41507
8.02736
7.55237
9.82162
9.71822
9.60549
9.46154
9.28053
9.05671
8.78513
8.45834
8.04693
7.55489
9.8518
9.76073
9.6572
9.52046
9.34339
9.11876
8.84011
8.49986
8.07112
7.56963
9.87174
9.78983
9.69388
9.56383
9.39132
9.16752
8.88404
8.53239
8.08725
7.57558
9.88471
9.80917
9.71878
9.59381
9.42479
9.20131
8.91298
8.55002
8.08863
7.56378
9.89256
9.821
9.73406
9.61207
9.44452
9.21948
8.92475
8.54926
8.07144
7.52915
9.89643
9.82679
9.74143
9.62057
9.45294
9.22559
8.92505
8.5396
8.05069
7.49345
2.0282
1.31368
1.12963
1.34677
1.82865
2.27388
2.40908
2.35187
2.3094
2.31095
3.77684
1.72855
1.53271
2.1144
2.73956
2.85912
2.70261
2.6404
2.69633
2.7506
4.61972
2.61772
2.54522
3.22511
3.51114
3.24912
3.07643
3.15853
3.27947
3.33964
5.2201
3.95299
3.88098
4.19327
4.12648
3.8335
3.76413
3.87448
3.94318
3.98305
6.04999
5.32109
5.14882
5.11712
4.91712
4.67955
4.5938
4.59802
4.58604
4.62944
6.96671
6.48395
6.2449
6.04633
5.79917
5.55724
5.38758
5.27832
5.20426
5.25963
7.77892
7.3897
7.12695
6.86737
6.59386
6.32416
6.08384
5.8913
5.75724
5.81072
8.40479
8.06119
7.79729
7.51974
7.22915
6.93144
6.63852
6.37851
6.1806
6.21662
8.85178
8.54814
8.29346
8.01197
7.70618
7.37811
7.03161
6.69385
6.40481
6.40968
9.16269
8.9027
8.66726
8.39705
8.09517
7.76384
7.40253
7.02903
6.69875
6.74176
2.1735
1.70679
1.29709
0.843385
0.40016
0.100081
0.0250109
0.0132556
0.0110211
0.0101014
2.52071
1.84656
1.40215
0.880066
0.411979
0.104439
0.0258778
0.0134589
0.011157
0.0101296
2.94352
1.99335
1.50365
0.923679
0.428395
0.111197
0.0270306
0.0136884
0.0112941
0.0101589
3.43622
2.17379
1.59846
0.971275
0.448356
0.11969
0.028378
0.0139388
0.011426
0.0101869
3.97897
2.41402
1.6916
1.01919
0.469821
0.129437
0.0298803
0.014203
0.0115444
0.0102118
4.52148
2.72203
1.79644
1.06682
0.49087
0.13983
0.0315364
0.0144795
0.0116435
0.0102314
4.98514
3.0778
1.9223
1.11294
0.507804
0.148779
0.0331701
0.0147591
0.0117191
0.0102444
5.29793
3.45865
2.0927
1.17391
0.525781
0.156822
0.0349492
0.0150706
0.0117733
0.0102499
5.32766
3.74169
2.24362
1.21608
0.527765
0.156232
0.0355907
0.0152442
0.0117829
0.0102465
5.18443
4.00906
2.4875
1.33538
0.566227
0.168482
0.0398644
0.0160016
0.0118406
0.0102398
4.93677
3.97829
2.56265
1.35678
0.533364
0.144968
0.0368794
0.0153309
0.0112739
0.0100631
5.34883
3.43095
2.2671
1.11565
0.351119
0.0550359
0.0123808
0.011387
0.0140305
0.0206681
4.93548
3.08735
2.22167
1.05851
0.297611
0.0596975
0.0936195
0.162599
0.202575
0.240363
4.54536
3.57601
2.55175
1.4294
0.620923
0.373959
0.434243
0.494953
0.520658
0.538589
5.09498
4.70163
3.24727
2.01822
1.03558
0.639148
0.624498
0.671923
0.697543
0.718672
6.24963
5.65337
4.01654
2.59657
1.47797
0.962137
0.871043
0.882452
0.895884
0.907851
7.26395
6.37211
4.70238
3.12304
1.90714
1.28851
1.10022
1.05953
1.05403
1.0556
8.00117
6.91289
5.25805
3.58378
2.30766
1.61212
1.33028
1.2285
1.19711
1.18409
8.51866
7.32992
5.69644
3.97848
2.6675
1.909
1.53754
1.37158
1.31122
1.28322
8.93013
7.68784
6.04739
4.30465
3.01318
2.2213
1.76105
1.5206
1.42316
1.37386
6.51395
6.44041
6.43067
6.44831
6.48608
6.52765
6.57839
6.70525
6.88803
6.81632
0.261696
1.05803
2.00867
2.92402
3.7054
4.31855
4.73589
4.98606
5.22664
5.73201
3.8482
3.54236
3.28355
3.11066
3.10676
3.25245
3.47773
3.7227
4.17846
4.86217
6.64512
6.62789
6.53736
6.34414
6.04136
5.65397
5.24356
4.88866
4.73234
4.54583
7.69228
7.67697
7.63262
7.54184
7.39663
7.18997
6.92621
6.6168
6.28056
5.64672
8.44975
8.43334
8.3946
8.32805
8.23005
8.09737
7.92915
7.71758
7.42824
6.90702
8.93976
8.92401
8.89037
8.8369
8.76183
8.66317
8.53859
8.37958
8.15557
7.80981
9.273
9.25982
9.23247
9.18986
9.13054
9.05249
8.95278
8.825
8.65314
8.43146
9.50445
9.49416
9.47306
9.44022
9.39423
9.33315
9.25418
9.1528
9.02281
8.87526
9.68989
9.68284
9.66851
9.64602
9.61402
9.57065
9.51352
9.4396
9.34614
9.24374
7.24963
7.52652
7.8356
8.08561
8.34264
8.59777
8.84005
9.06082
9.25432
9.46041
7.58348
7.94742
8.23943
8.47935
8.70769
8.92349
9.12139
9.29848
9.45371
9.61811
7.49859
7.95665
8.3246
8.61906
8.87447
9.09675
9.28739
9.44913
9.58519
9.72225
7.44711
7.9571
8.37275
8.70093
8.97564
9.20524
9.39422
9.54777
9.67117
9.7882
7.45665
7.98037
8.41792
8.76414
9.04986
9.28303
9.46941
9.61569
9.72856
9.83018
7.48281
8.01157
8.46359
8.82095
9.11186
9.34436
9.52578
9.66429
9.76786
9.8576
7.5041
8.03789
8.50253
8.86828
9.16163
9.3916
9.56742
9.69875
9.7947
9.87566
7.51169
8.05263
8.52862
8.90187
9.19721
9.42498
9.59622
9.722
9.81236
9.88725
7.49901
8.05074
8.53743
8.91885
9.21749
9.44484
9.61356
9.73595
9.82282
9.894
7.48355
8.04393
8.536
8.92335
9.2251
9.45314
9.6211
9.74206
9.82739
9.8969
2.4984
2.46246
2.45574
2.58274
2.71684
2.44154
1.70282
1.17713
1.44277
3.95654
2.92395
2.85855
2.72795
2.69331
2.96936
3.24939
2.7494
1.91486
2.08415
4.91134
3.42926
3.39296
3.2728
3.11711
3.26438
3.72136
3.70959
3.14376
3.25829
5.29035
3.95747
3.93684
3.91713
3.84042
3.933
4.30211
4.53989
4.44012
4.63208
5.81579
4.53568
4.49971
4.56446
4.64064
4.80935
5.12326
5.42495
5.60288
5.87637
6.58242
5.13901
5.09312
5.22264
5.4134
5.67079
5.98718
6.30621
6.5887
6.89072
7.38641
5.68045
5.64218
5.83573
6.10073
6.41295
6.74249
7.06711
7.37506
7.67452
8.08015
6.08325
6.06625
6.3237
6.6458
6.99514
7.33834
7.66524
7.97221
8.25728
8.60975
6.27028
6.28623
6.63359
7.02535
7.41789
7.78179
8.11448
8.41516
8.68206
8.98801
6.60601
6.57335
6.956
7.37752
7.77867
8.1406
8.46463
8.74931
8.99258
9.2521
0.0804944
0.0998359
0.0271881
0.0134776
0.0142264
0.170435
0.706611
1.31948
1.83208
2.34886
0.0531343
0.102989
0.0289388
0.0160959
0.0189502
0.18829
0.749406
1.42534
1.95581
2.65168
0.0367555
0.109634
0.0323371
0.0213664
0.0285677
0.220615
0.808956
1.52929
2.07844
3.00662
0.0274419
0.118984
0.0373541
0.0296568
0.0440727
0.265402
0.878941
1.62423
2.2274
3.42908
0.0225152
0.130754
0.043915
0.0409038
0.0654861
0.31831
0.951556
1.71289
2.43308
3.91342
0.0205515
0.144943
0.0519164
0.0546724
0.0918302
0.374452
1.02297
1.81
2.70916
4.40769
0.0210037
0.161794
0.0611586
0.0699543
0.119829
0.426855
1.0898
1.92827
3.03972
4.8306
0.0238669
0.181197
0.0716204
0.0858285
0.148691
0.478823
1.17007
2.0965
3.40209
5.10887
0.031284
0.202548
0.0823684
0.0990905
0.167423
0.507288
1.2249
2.24695
3.67538
5.10862
0.0501082
0.223626
0.0956716
0.112488
0.199132
0.577075
1.37003
2.50546
3.92562
4.91419
0.0979801
0.254119
0.119694
0.124439
0.200321
0.568102
1.40928
2.61529
3.93774
4.70042
0.196245
0.296891
0.129882
0.117747
0.142474
0.40185
1.19434
2.39867
3.50432
5.23364
0.357284
0.324928
0.137396
0.0653207
0.0353273
0.215933
1.01365
2.31036
3.26403
4.97157
0.61277
0.329171
0.0388309
0.0573235
0.108883
0.297126
1.16042
2.4569
3.61658
4.67413
0.980948
0.147754
0.182767
0.429809
0.522048
0.782074
1.75616
3.07354
4.62744
5.13248
1.48575
0.0598367
0.589864
0.671758
0.825359
1.25541
2.3751
3.85267
5.56536
6.20786
2.157
0.65501
0.917816
0.99594
1.21308
1.76242
2.95906
4.57209
6.29496
7.21603
3.77288
1.6556
1.36223
1.34585
1.59626
2.23407
3.47497
5.16534
6.85524
7.97058
6.85563
3.55373
2.04671
1.70819
1.9546
2.65339
3.92067
5.64171
7.29724
8.50786
9.04856
6.38493
2.94766
2.24642
2.37043
3.06856
4.30714
6.03773
7.68712
8.93743
6.63172
6.69399
6.51625
6.39369
6.35231
6.32519
6.30749
6.31887
6.36326
6.47745
5.55887
5.04014
4.79202
4.54693
4.14506
3.5555
2.81004
1.94015
1.04986
0.286626
4.87654
4.25178
3.83411
3.61572
3.42252
3.29884
3.30253
3.4465
3.64733
3.86941
4.69042
4.85869
5.00276
5.31753
5.68873
6.04536
6.33142
6.5214
6.61755
6.64274
5.66246
6.27043
6.60344
6.9073
7.17124
7.38172
7.53253
7.62891
7.67736
7.69292
6.86066
7.38702
7.68457
7.90319
8.07759
8.21571
8.31849
8.38907
8.43094
8.44918
7.76621
8.12162
8.353
8.51873
8.64856
8.75141
8.82985
8.88603
8.92179
8.93911
8.40557
8.63333
8.80931
8.94121
9.04419
9.12477
9.18603
9.23011
9.25858
9.27262
8.86629
9.01621
9.14758
9.25055
9.33078
9.39278
9.4394
9.47264
9.49398
9.5044
9.24821
9.35006
9.44272
9.51609
9.57278
9.61577
9.6474
9.66951
9.68345
9.6901
9.51002
8.98628
8.23714
6.93044
5.60223
0.131872
3.36248
5.96291
7.21526
8.15306
9.46603
8.92256
8.16938
6.8927
5.55322
0.565639
2.62336
5.70894
6.91775
7.91522
9.36646
8.78395
8.02153
6.81154
5.3699
1.60698
1.4141
5.21009
6.31116
7.40474
9.18363
8.54645
7.77578
6.65682
5.18979
2.74433
0.723468
4.24197
5.42438
6.57327
8.86978
8.17512
7.40534
6.37856
5.02977
3.37222
0.971482
2.6341
4.32094
5.39634
8.35332
7.63107
6.87469
5.91864
4.76758
3.44568
1.72192
1.30323
3.0538
3.99173
7.54148
6.89612
6.15736
5.23015
4.29655
3.27141
2.15187
1.17628
1.65961
2.56136
6.33842
6.0287
5.28408
4.24878
3.52906
2.89725
2.1229
1.44629
1.07231
1.23587
4.66961
5.20266
4.45991
3.03812
2.45581
2.25405
1.84393
1.39436
1.13025
0.659208
2.73267
4.49827
3.96744
1.99383
1.42729
1.49
1.40084
1.21627
1.07099
0.848492
1.32023
3.76434
3.6086
1.33784
0.829916
0.913013
0.982297
0.966512
0.980006
1.02478
0.638994
2.96999
3.04907
0.950396
0.583038
0.662135
0.787213
0.844436
0.863448
0.892547
0.370337
2.19744
2.27388
0.69551
0.51379
0.629201
0.764524
0.84717
0.88017
0.900948
0.274892
1.53985
1.47582
0.552487
0.578515
0.719048
0.83227
0.902147
0.922409
0.92947
0.246461
0.971472
0.826373
0.563683
0.71986
0.850259
0.9487
1.00982
1.02286
1.01788
0.245653
0.437569
0.499485
0.66851
0.855342
0.991791
1.08434
1.13773
1.14715
1.13921
0.152447
0.195775
0.51391
0.767389
0.987749
1.12607
1.21155
1.26207
1.28377
1.28581
0.0396789
0.266074
0.642614
0.909667
1.1017
1.21722
1.31154
1.3986
1.45614
1.47295
0.0853902
0.495045
0.799429
1.03173
1.16517
1.31636
1.50031
1.65289
1.71653
1.72115
0.759214
0.873615
0.970441
1.10428
1.31607
1.64351
1.92569
2.03633
2.02364
2.00024
0.363363
0.0639545
0.241325
0.564971
0.775682
0.853044
0.887342
0.917463
0.939928
0.958816
0.472471
0.230655
0.321104
0.520059
0.689542
0.753178
0.783597
0.81327
0.835783
0.852387
0.547871
0.399556
0.435394
0.493005
0.600294
0.649483
0.674687
0.701998
0.723535
0.736746
0.670288
0.613746
0.587138
0.514505
0.510537
0.536189
0.557872
0.583953
0.604816
0.614955
0.836446
0.811615
0.724379
0.579579
0.437605
0.419264
0.432636
0.455044
0.473994
0.47967
1.0272
0.986241
0.841724
0.659267
0.39813
0.305765
0.307418
0.327671
0.344644
0.349615
1.2257
1.13655
0.937361
0.722969
0.390188
0.208234
0.170707
0.175329
0.187636
0.18261
1.43056
1.27658
1.02125
0.763613
0.39135
0.144546
0.0651251
0.0445539
0.0408937
0.0318947
1.64976
1.41774
1.10458
0.790117
0.391266
0.111372
0.0303196
0.0151391
0.0120291
0.0103829
1.89199
1.5629
1.19608
0.814314
0.393402
0.100327
0.0249504
0.0131411
0.010915
0.0100799
2.0114
0.740986
0.741424
0.996285
1.22288
1.32543
1.36502
1.38107
1.3859
1.39694
1.39744
0.477064
0.606245
0.904331
1.1275
1.2269
1.26899
1.29091
1.30182
1.31571
0.753871
0.280223
0.510955
0.825679
1.04605
1.14156
1.18406
1.20977
1.22479
1.24065
0.257649
0.177423
0.436277
0.750727
0.962133
1.04959
1.08977
1.11789
1.13628
1.15377
0.432659
0.0315259
0.298359
0.6353
0.857323
0.946294
0.98671
1.01789
1.03986
1.05932
9.35594
9.29143
9.14254
8.87492
8.43973
7.78141
6.87411
5.76213
4.58472
3.53959
9.19402
9.09731
8.883
8.51391
7.94421
7.13961
6.11309
4.95869
3.84836
2.78999
9.02555
8.90206
8.62867
8.16347
7.46457
6.51918
5.37436
4.17153
3.08405
1.94451
8.81797
8.66398
8.32351
7.75022
6.90864
5.81656
4.557
3.29688
2.22808
1.09192
8.58895
8.38094
7.92754
7.17932
6.11454
4.79409
3.35312
2.08636
0.991157
0.299181
1.0604
1.0268
1.02136
1.02919
0.931135
0.816275
1.30293
3.63063
3.82859
1.36021
0.955632
0.94247
0.938951
0.887436
0.735584
0.600672
0.919497
3.10118
3.08502
0.669459
0.998888
0.996989
0.982816
0.910828
0.765061
0.602345
0.716761
2.34099
2.31597
0.390014
1.0675
1.07925
1.07581
1.01657
0.90729
0.763859
0.684602
1.52422
1.58285
0.28503
1.19069
1.21235
1.21653
1.17085
1.08594
0.966708
0.805282
0.878967
0.860821
0.252273
1.33741
1.35485
1.35847
1.3289
1.26075
1.13425
0.915303
0.646887
0.336973
0.212062
1.51409
1.51321
1.48243
1.42922
1.36079
1.24761
1.02364
0.716971
0.267809
0.0633441
1.74075
1.73928
1.67458
1.53623
1.38408
1.25538
1.10719
0.831042
0.466687
0.0486613
1.98971
2.02387
2.02202
1.871
1.57449
1.27953
1.09878
0.950478
0.786089
0.656583
2.21456
2.24317
2.32041
2.35292
2.12166
1.61221
1.1641
0.993002
1.17608
1.96106
8.15287
7.2149
5.96254
3.36197
0.13213
5.60076
6.92995
8.23695
8.98629
9.51011
7.91454
6.91664
5.70792
2.62273
0.56552
5.54936
6.89124
8.1688
8.92261
9.46634
7.40327
6.30924
5.20824
1.41595
1.6033
5.36535
6.80926
8.02066
8.78407
9.36704
6.57057
5.42137
4.23958
0.726673
2.73609
5.18496
6.65394
7.7748
8.54678
9.18466
5.39183
4.31625
2.63469
0.9719
3.36101
5.02368
6.37505
7.40439
8.17587
8.87154
3.98332
3.04568
1.31082
1.71646
3.43236
4.75874
5.91387
6.87378
7.63262
8.35632
2.54514
1.65592
1.18966
2.14132
3.25364
4.28161
5.22174
6.15626
6.8993
7.54678
1.21849
1.08899
1.45987
2.11212
2.87091
3.50282
4.23311
5.28379
6.03586
6.34852
0.669971
1.15639
1.41316
1.83524
2.22136
2.4206
3.01724
4.46529
5.21785
4.68946
0.883751
1.10453
1.24884
1.40879
1.47115
1.39844
1.9689
3.97915
4.52779
2.76804
2.06698
0.522296
1.04108
0.771938
0.791718
0.775519
0.62304
0.303503
0.0600723
0.358244
1.60048
0.243934
0.83177
0.608713
0.683562
0.683651
0.56858
0.35128
0.281532
0.496653
1.30936
0.0264483
0.585432
0.447798
0.570701
0.583554
0.521238
0.449047
0.482851
0.605741
1.04255
0.038492
0.341948
0.312185
0.453198
0.477685
0.508495
0.605687
0.729128
0.773295
0.787055
0.119442
0.079501
0.185957
0.33303
0.378148
0.543016
0.761008
0.944241
0.980363
0.574393
0.160418
0.0198387
0.0245075
0.210992
0.302216
0.603711
0.893407
1.12898
1.20286
0.405635
0.153706
0.0429118
0.0170484
0.0719625
0.257022
0.650387
0.992634
1.28323
1.42524
0.279258
0.131482
0.0335183
0.0190644
0.0232808
0.215144
0.669406
1.06905
1.4226
1.64531
0.187646
0.111843
0.029378
0.0148366
0.0145451
0.182937
0.673829
1.14055
1.5597
1.86515
0.123565
0.101849
0.0271474
0.0130272
0.0130098
0.167967
0.682625
1.22253
1.69819
2.092
9.3363
6.76648
2.71096
1.84399
1.35275
1.21581
1.02688
0.814113
0.792642
2.03597
8.21041
4.62797
2.24898
1.56684
1.22729
1.12063
0.939879
0.678363
0.519699
1.40189
6.11726
3.05152
1.81431
1.36315
1.12229
1.04289
0.86796
0.583953
0.317693
0.743174
4.12362
1.85764
1.51136
1.15615
1.01349
0.960598
0.797756
0.506711
0.221175
0.229652
2.81762
1.04753
1.2474
0.953512
0.897256
0.860753
0.691697
0.368415
0.0443069
0.398943
3.54985
4.59175
5.76614
6.87643
7.78304
8.44089
8.8757
9.14302
9.29169
9.35603
2.78406
3.84482
4.95617
6.11149
7.13906
7.94424
8.51413
8.88323
9.09748
9.19408
1.93031
3.07488
4.16541
5.36988
6.51671
7.46344
8.16304
8.62859
8.90209
9.02558
1.05824
2.20584
3.28412
4.54914
5.81246
6.90644
7.7491
8.32305
8.66383
8.81794
0.298051
0.962238
2.06617
3.34038
4.78726
6.11093
7.17733
7.92659
8.38057
8.58886
)
;

boundaryField
{
    left
    {
        type            calculated;
        value           nonuniform List<scalar> 
35
(
0.274845
0.529367
0.96401
1.62072
2.53247
3.69688
5.05786
6.47443
8.15823
9.4417
0.220658
0.162426
0.129478
0.111514
0.102352
0.0990087
0.100436
0.106996
0.124233
0.165972
4.92965
4.04773
3.21798
2.50125
1.8969
1.39267
0.99291
0.689752
0.469413
0.317993
9.61565
8.97928
7.92287
6.84889
5.85916
)
;
    }
    right
    {
        type            calculated;
        value           nonuniform List<scalar> 
35
(
1.39702
1.31587
1.24083
1.15387
1.05914
0.957903
0.850439
0.733376
0.610009
0.473406
0.342619
0.176527
0.0297796
0.0102253
0.0100269
0.0100328
0.0100411
0.0100498
0.0100583
0.0100661
0.0100726
0.0100774
0.0100801
0.0100804
0.0100798
0.0100097
0.0232053
0.253407
0.554073
0.731986
0.91794
1.0622
1.18761
1.28448
1.37282
)
;
    }
    down
    {
        type            calculated;
        value           nonuniform List<scalar> 
40
(
9.45406
7.26237
2.9362
1.92833
1.39074
1.24746
1.05693
0.857268
0.894685
2.26283
3.83447
4.88458
6.03651
7.09551
7.947
8.55706
8.95617
9.2007
9.33693
9.3961
9.396
9.33665
9.20018
8.9553
8.5557
7.94497
7.09242
6.03123
4.87552
3.82101
2.23437
0.84124
0.784117
1.02856
1.25643
1.358
1.39545
1.40896
1.41146
1.42147
)
;
    }
    up
    {
        type            calculated;
        value           nonuniform List<scalar> 
40
(
9.03314
7.80481
6.16353
4.41562
3.12569
2.31917
1.82654
1.56044
1.45246
1.39817
9.72926
9.72304
9.71044
9.69063
9.66231
9.62373
9.57254
9.50572
9.42052
9.32777
9.3345
9.42612
9.51007
9.576
9.62649
9.6645
9.69231
9.71164
9.72376
9.7295
9.27036
7.09666
3.32497
2.37893
2.48085
3.19518
4.43353
6.16619
7.81317
9.04405
)
;
    }
    cylinder
    {
        type            calculated;
        value           nonuniform List<scalar> 
80
(
2.38659
4.6885
5.42746
5.68873
6.27907
7.09068
7.86721
8.47898
8.91475
9.2139
9.44611
9.61874
9.72977
9.79824
9.8409
9.86841
9.88646
9.89813
9.90519
9.90866
9.50064
9.65071
9.74904
9.81045
9.84897
9.87386
9.89013
9.90051
9.90654
9.9091
5.06801
5.99321
6.02144
6.20145
6.77807
7.50425
8.1696
8.68494
9.05095
9.3029
1.02362
0.48682
0.272772
0.188847
0.165959
0.168806
0.08405
0.039519
0.733606
2.38931
9.59492
9.55641
9.46812
9.30285
9.01141
8.51447
7.69356
6.38698
4.44064
2.29683
9.59482
9.55609
9.46751
9.30177
9.00955
8.51131
7.68802
6.37642
4.41852
2.2585
0.986686
0.460237
0.255064
0.178143
0.156727
0.173992
0.148388
0.0817886
0.0485165
0.797116
)
;
    }
    defaultFaces
    {
        type            empty;
    }
}


// ************************************************************************* //
