/*--------------------------------*- C++ -*----------------------------------*\
  =========                 |
  \\      /  F ield         | OpenFOAM: The Open Source CFD Toolbox
   \\    /   O peration     | Website:  https://openfoam.org
    \\  /    A nd           | Version:  13
     \\/     M anipulation  |
\*---------------------------------------------------------------------------*/
FoamFile
{
    format      ascii;
    class       volVectorField;
    location    "0.155";
    object      U;
}
// * * * * * * * * * * * * * * * * * * * * * * * * * * * * * * * * * * * * * //

dimensions      [0 1 -1 0 0 0 0];

internalField   nonuniform List<vector> 
1800
(
(0.0978235 -0.0883524 -4.49121e-20)
(0.286944 -0.242031 -3.4123e-20)
(0.474036 -0.379189 -4.84379e-19)
(0.657764 -0.500376 1.90914e-19)
(0.83669 -0.607471 7.27832e-20)
(1.01 -0.701766 -4.01463e-20)
(1.17724 -0.783952 5.64313e-20)
(1.33802 -0.854258 2.02255e-19)
(1.49165 -0.913629 5.95055e-19)
(1.63355 -0.967632 8.12425e-19)
(0.119068 -0.0915104 -7.9057e-20)
(0.344307 -0.247744 -7.69807e-19)
(0.563304 -0.384822 3.77608e-21)
(0.775389 -0.504356 1.2591e-19)
(0.979535 -0.609098 -1.26239e-19)
(1.17525 -0.700935 7.45862e-20)
(1.36235 -0.781095 -2.78284e-19)
(1.54081 -0.850475 -5.20746e-20)
(1.71012 -0.911147 -6.97634e-19)
(1.86784 -0.967539 6.32156e-19)
(0.141647 -0.0923221 4.87855e-20)
(0.403671 -0.247739 2.09109e-19)
(0.653742 -0.382143 5.42868e-19)
(0.892162 -0.497958 -1.90014e-19)
(1.11864 -0.598475 -1.41879e-19)
(1.3332 -0.685946 7.524e-20)
(1.53604 -0.761888 9.73362e-20)
(1.72741 -0.82753 1.94181e-19)
(1.90718 -0.885084 2.75241e-21)
(2.07417 -0.938194 1.51221e-19)
(0.163896 -0.0897158 -4.56901e-20)
(0.46167 -0.239463 -2.04251e-19)
(0.741385 -0.367617 -1.81102e-19)
(1.00446 -0.47699 -1.42289e-19)
(1.25156 -0.571057 1.81087e-19)
(1.48344 -0.652191 -5.71065e-20)
(1.70086 -0.722004 -4.28785e-21)
(1.90446 -0.781756 2.1693e-21)
(2.09448 -0.833537 -1.61333e-19)
(2.27018 -0.880563 -1.05745e-19)
(0.184642 -0.0833497 -1.14047e-19)
(0.51585 -0.221792 8.7537e-20)
(0.823225 -0.339415 1.79839e-19)
(1.10922 -0.439053 2.43312e-19)
(1.37551 -0.524073 -2.84606e-19)
(1.6236 -0.596797 -3.5854e-21)
(1.85483 -0.658809 4.24441e-19)
(2.07031 -0.71133 -1.85354e-19)
(2.27072 -0.75626 -1.24043e-19)
(2.45567 -0.796521 -5.33643e-20)
(0.20317 -0.0734931 1.7359e-19)
(0.564416 -0.195183 1.02964e-18)
(0.896705 -0.298052 1.42984e-19)
(1.2034 -0.384713 -5.02968e-19)
(1.48706 -0.45821 -1.75295e-19)
(1.74989 -0.520663 6.37299e-19)
(1.99375 -0.573533 -1.44978e-19)
(2.22021 -0.617926 -4.31036e-19)
(2.43033 -0.655491 -3.1729e-19)
(2.62406 -0.688811 2.61708e-19)
(0.218876 -0.0605852 1.16296e-19)
(0.605682 -0.160685 -7.4741e-19)
(0.959214 -0.245008 -1.08511e-18)
(1.28358 -0.315773 3.83587e-19)
(1.58208 -0.37554 4.49578e-19)
(1.85751 -0.426109 -9.00745e-22)
(2.11221 -0.468729 -6.38994e-19)
(2.34811 -0.504327 2.19356e-19)
(2.56666 -0.534229 -3.6565e-19)
(2.76811 -0.560602 -3.11638e-19)
(0.231212 -0.0451676 -3.42506e-19)
(0.638132 -0.119671 -6.92783e-19)
(1.00838 -0.182275 1.21205e-18)
(1.34663 -0.234677 5.98807e-19)
(1.65677 -0.278829 -2.69594e-19)
(1.94205 -0.316114 -2.1146e-19)
(2.20523 -0.347499 0)
(2.44854 -0.37368 1.16572e-19)
(2.67379 -0.395623 -2.95908e-19)
(2.88153 -0.414982 -7.71187e-20)
(0.239743 -0.0278725 -2.04498e-19)
(0.660583 -0.0737473 5.62335e-19)
(1.04238 -0.112185 1.70841e-19)
(1.39016 -0.144273 -5.12402e-19)
(1.70823 -0.17126 -7.84203e-19)
(2.00017 -0.194037 3.65636e-20)
(2.26903 -0.213232 1.67502e-19)
(2.51731 -0.229285 -5.4669e-19)
(2.7471 -0.242782 -2.90236e-19)
(2.95933 -0.254784 -5.64184e-19)
(0.244237 -0.00940139 4.51497e-19)
(0.672383 -0.0247005 3.44179e-19)
(1.06019 -0.0373562 -9.3906e-20)
(1.41288 -0.047782 -1.27712e-20)
(1.73496 -0.0564558 -3.87619e-19)
(2.03021 -0.0637181 -8.62827e-20)
(2.30183 -0.0698077 -2.90299e-19)
(2.55253 -0.0748918 6.47014e-19)
(2.78457 -0.0791778 1.70936e-19)
(2.99923 -0.0830251 2.56818e-21)
(-0.00210645 -0.0206879 -5.64434e-20)
(0.00800065 -0.0688875 -8.65918e-20)
(0.0246735 -0.123625 -6.83875e-21)
(0.0490729 -0.175629 -3.22799e-20)
(0.0763593 -0.219878 -1.18602e-20)
(0.104279 -0.257171 -3.57343e-19)
(0.133212 -0.2915 -1.21712e-20)
(0.164334 -0.325704 1.33235e-19)
(0.197309 -0.359674 1.13046e-20)
(0.231026 -0.39198 -3.70235e-20)
(0.00108438 -0.0244296 -1.08774e-19)
(0.0153362 -0.0858395 -2.73051e-19)
(0.0402141 -0.162928 8.25163e-21)
(0.0690637 -0.226971 -9.54628e-20)
(0.0982593 -0.276723 -9.44093e-20)
(0.129212 -0.320033 -2.55277e-19)
(0.163869 -0.36243 2.0073e-19)
(0.201779 -0.404509 1.84903e-19)
(0.24101 -0.444222 -2.62644e-19)
(0.280243 -0.480249 8.0124e-20)
(0.00568391 -0.0318648 -9.43134e-20)
(0.0293407 -0.108689 -8.99247e-19)
(0.0630595 -0.196784 -1.34171e-19)
(0.097044 -0.269228 7.23538e-20)
(0.131465 -0.328382 5.9772e-20)
(0.169957 -0.382989 -3.97637e-19)
(0.213567 -0.435864 3.52831e-20)
(0.259355 -0.485188 3.60965e-19)
(0.305263 -0.529295 -3.71823e-19)
(0.35112 -0.568531 -2.48821e-19)
(0.0114791 -0.0415279 -5.38276e-21)
(0.0468794 -0.131698 1.84115e-19)
(0.0895679 -0.225603 1.67865e-21)
(0.133043 -0.307592 -1.11203e-20)
(0.178261 -0.379518 -1.14087e-20)
(0.228058 -0.446346 7.19159e-20)
(0.281641 -0.508243 7.02067e-20)
(0.335809 -0.563415 -1.30635e-19)
(0.38979 -0.611981 9.26313e-21)
(0.444036 -0.654627 -1.03029e-20)
(0.018596 -0.051175 0)
(0.0673815 -0.153008 5.81174e-21)
(0.121998 -0.254119 -4.86436e-19)
(0.178961 -0.346352 6.31647e-20)
(0.238378 -0.430064 1.59946e-20)
(0.301097 -0.506941 1.5808e-21)
(0.365678 -0.576393 -2.48617e-20)
(0.430123 -0.637704 -6.88216e-21)
(0.494369 -0.691375 0)
(0.558609 -0.737499 -2.04082e-20)
(0.0274201 -0.0599161 3.00232e-20)
(0.0920545 -0.173333 -1.42778e-19)
(0.161956 -0.283115 -4.24148e-20)
(0.234958 -0.384771 -5.78036e-20)
(0.310194 -0.477987 5.07741e-20)
(0.387189 -0.563043 6.76084e-21)
(0.464666 -0.639484 7.85501e-20)
(0.541414 -0.707039 -2.21434e-20)
(0.61743 -0.765784 -6.8564e-19)
(0.692637 -0.815078 -9.98298e-21)
(0.0380655 -0.0677837 1.08817e-21)
(0.121409 -0.192574 6.30906e-20)
(0.209391 -0.311183 -7.9663e-20)
(0.300237 -0.420966 -1.6754e-20)
(0.392511 -0.521705 -7.40568e-20)
(0.485173 -0.613403 -6.97199e-21)
(0.577115 -0.69586 1.65427e-20)
(0.667376 -0.768949 -2.01735e-19)
(0.755941 -0.832283 3.79046e-19)
(0.842654 -0.884436 9.6925e-19)
(0.0504408 -0.0747245 1.55351e-20)
(0.15529 -0.209921 -1.43824e-19)
(0.263676 -0.336439 -2.14827e-19)
(0.373933 -0.452762 8.93257e-20)
(0.484401 -0.559106 -6.50053e-20)
(0.593861 -0.655656 9.4538e-20)
(0.70127 -0.742531 1.89735e-19)
(0.805729 -0.819775 -1.03228e-19)
(0.907305 -0.886777 -3.03898e-19)
(1.0059 -0.941299 7.23409e-19)
(0.0643524 -0.0804416 -2.6218e-20)
(0.193415 -0.224251 -5.7868e-19)
(0.324468 -0.356917 5.24481e-19)
(0.455883 -0.477727 3.36983e-19)
(0.585955 -0.58739 -8.46635e-20)
(0.713448 -0.686462 3.05315e-19)
(0.837352 -0.775405 -1.60279e-19)
(0.956771 -0.854604 -7.62684e-19)
(1.0719 -0.923341 -4.01924e-19)
(1.18278 -0.97869 4.51412e-19)
(0.0795872 -0.0847146 -7.98436e-20)
(0.235934 -0.234562 -5.438e-19)
(0.392508 -0.370766 -7.94825e-21)
(0.547672 -0.493141 6.81975e-20)
(0.699732 -0.602921 3.36641e-19)
(0.847532 -0.701011 -1.8316e-19)
(0.990151 -0.788147 -1.66042e-19)
(1.12666 -0.864665 1.86054e-19)
(1.25691 -0.929611 -3.49121e-19)
(1.38012 -0.98141 -5.82273e-19)
(0.400154 -0.535133 1.0777e-18)
(0.680137 -0.617209 -4.95029e-19)
(0.904256 -0.547932 -2.0306e-19)
(1.06699 -0.413195 3.57646e-19)
(1.20011 -0.25796 -2.6047e-19)
(1.28057 -0.138017 -2.66476e-19)
(1.32127 -0.0774181 -2.65932e-19)
(1.34555 -0.0469884 -4.94794e-20)
(1.3609 -0.0288218 2.57899e-19)
(1.37067 -0.0110346 5.0546e-20)
(0.467357 -0.622559 1.04918e-18)
(0.738422 -0.691762 1.35613e-19)
(0.958918 -0.605816 9.5403e-21)
(1.10667 -0.457927 -3.0779e-19)
(1.22646 -0.289006 -9.21948e-19)
(1.29674 -0.155162 0)
(1.33127 -0.0867833 -2.41419e-19)
(1.35219 -0.052574 8.47513e-20)
(1.3656 -0.0320146 7.47938e-21)
(1.3741 -0.0121836 -7.66517e-20)
(0.555659 -0.708003 -1.01905e-18)
(0.809005 -0.76416 -9.25661e-20)
(1.02003 -0.662043 1.892e-19)
(1.15118 -0.500651 -4.84595e-20)
(1.25481 -0.318511 -3.42819e-20)
(1.31388 -0.171107 7.80534e-20)
(1.34204 -0.0952446 0)
(1.35942 -0.0575338 0)
(1.37077 -0.0348237 -8.34215e-20)
(1.37791 -0.0131918 0)
(0.665699 -0.789733 -2.24818e-19)
(0.894411 -0.832469 3.98154e-19)
(1.08762 -0.715723 2.40881e-20)
(1.2003 -0.540858 0)
(1.28536 -0.346189 7.39615e-19)
(1.33204 -0.185826 -1.66907e-19)
(1.35349 -0.102786 0)
(1.36717 -0.0618488 1.90859e-19)
(1.37634 -0.037229 0)
(1.38205 -0.0140482 2.08162e-20)
(0.79584 -0.866423 -1.47769e-19)
(0.996336 -0.894676 4.13743e-19)
(1.16218 -0.76573 -1.34775e-20)
(1.2536 -0.578106 0)
(1.31805 -0.371777 1.97407e-19)
(1.35124 -0.199292 3.10303e-19)
(1.36548 -0.109412 7.41281e-20)
(1.37533 -0.0655099 1.3437e-20)
(1.38223 -0.0392135 -5.14313e-20)
(1.38646 -0.0147551 4.36846e-20)
(0.942207 -0.93725 -1.26389e-18)
(1.11466 -0.949335 -8.50733e-19)
(1.24445 -0.810709 4.33928e-21)
(1.31062 -0.611884 4.64908e-19)
(1.35251 -0.395037 -2.81599e-19)
(1.37133 -0.211463 1.59065e-19)
(1.3779 -0.115157 2.47252e-19)
(1.38383 -0.0685177 -2.56741e-19)
(1.38838 -0.0407632 -2.98186e-21)
(1.39109 -0.0153069 -5.57896e-21)
(1.09992 -1.00183 -2.48747e-19)
(1.24755 -0.996133 2.53415e-19)
(1.33492 -0.84937 2.68295e-21)
(1.37119 -0.641523 -1.26839e-20)
(1.38837 -0.415673 -4.76711e-19)
(1.39214 -0.222179 5.97818e-20)
(1.39067 -0.120009 -1.0071e-19)
(1.39259 -0.0708651 -5.6778e-20)
(1.3947 -0.0418608 2.35272e-20)
(1.39586 -0.0156977 -2.99952e-20)
(1.26408 -1.05905 -1.21969e-18)
(1.39169 -1.0356 1.83701e-19)
(1.43288 -0.880945 0)
(1.43464 -0.666477 1.95121e-20)
(1.42479 -0.433576 3.8525e-19)
(1.41293 -0.231536 2.58779e-21)
(1.40355 -0.124091 -3.19441e-19)
(1.40152 -0.0725843 7.33534e-20)
(1.40112 -0.0424946 -6.63995e-22)
(1.40074 -0.015932 -2.68392e-21)
(1.43175 -1.1055 3.40991e-18)
(1.54457 -1.06864 2.84915e-19)
(1.53844 -0.906017 3.86954e-19)
(1.50172 -0.686928 -2.18384e-20)
(1.46216 -0.448962 -2.87686e-20)
(1.43386 -0.2396 -3.4643e-19)
(1.41667 -0.127062 7.58371e-20)
(1.41061 -0.0734866 6.84189e-21)
(1.4076 -0.0425853 -4.79832e-20)
(1.40565 -0.0159784 -5.2283e-20)
(1.59905 -1.12996 -3.01765e-18)
(1.69814 -1.09419 1.31888e-18)
(1.64606 -0.927179 -1.31248e-19)
(1.56882 -0.706058 -5.38134e-19)
(1.49784 -0.46513 -4.65429e-19)
(1.45246 -0.249678 -2.05828e-19)
(1.42873 -0.131284 -6.53937e-20)
(1.41945 -0.0743182 0)
(1.41398 -0.0423444 6.39982e-21)
(1.41052 -0.0158975 1.90011e-20)
(1.88773 -1.17148 -6.82598e-18)
(1.92282 -1.10278 -1.82008e-18)
(1.79558 -0.920262 1.19844e-19)
(1.65893 -0.697565 8.88994e-20)
(1.54521 -0.460726 1.68673e-19)
(1.47852 -0.247981 -9.97213e-20)
(1.44707 -0.130366 2.45038e-21)
(1.43213 -0.0730909 3.32162e-20)
(1.42242 -0.0411532 -3.3667e-20)
(1.4167 -0.0157041 1.49408e-20)
(2.28794 -1.13449 5.07655e-19)
(2.17268 -1.05186 -2.20063e-19)
(1.9336 -0.852343 9.14621e-19)
(1.72721 -0.638157 -2.163e-19)
(1.56773 -0.42057 7.10208e-19)
(1.48501 -0.227995 1.40036e-19)
(1.45778 -0.123129 2.42421e-20)
(1.44048 -0.0684574 -3.25399e-21)
(1.4251 -0.0376268 3.3787e-20)
(1.41439 -0.0145634 4.79389e-20)
(2.60889 -1.04251 2.25563e-18)
(2.34858 -0.945003 3.26108e-19)
(2.00895 -0.750361 -1.2672e-19)
(1.74642 -0.554077 -2.03562e-36)
(1.55117 -0.363845 -3.09521e-20)
(1.45466 -0.203143 1.15451e-33)
(1.40743 -0.107539 -2.59923e-20)
(1.37092 -0.0559028 -2.69382e-33)
(1.34646 -0.028853 1.36611e-20)
(1.32936 -0.0122148 -4.3101e-20)
(2.78701 -0.893145 3.95737e-33)
(2.37196 -0.792869 2.85666e-18)
(1.98238 -0.623116 1.71928e-18)
(1.67487 -0.452802 0)
(1.44862 -0.296235 9.05169e-19)
(1.3179 -0.171704 4.00103e-19)
(1.25946 -0.0907274 1.12206e-19)
(1.22501 -0.0447752 -4.45766e-33)
(1.20385 -0.0214929 3.09255e-21)
(1.19049 -0.00958345 3.97635e-20)
(2.76469 -0.705305 3.85594e-18)
(2.24893 -0.627684 -1.48726e-19)
(1.85422 -0.48563 0)
(1.53152 -0.349937 0)
(1.30125 -0.229345 0)
(1.16423 -0.136549 0)
(1.10183 -0.0729646 -1.2715e-20)
(1.06817 -0.0350088 -5.23064e-33)
(1.04931 -0.0158958 1.27557e-20)
(1.03786 -0.00722703 4.64262e-33)
(2.55169 -0.516844 3.27985e-18)
(2.02154 -0.461966 0)
(1.64275 -0.350811 0)
(1.33672 -0.249596 0)
(1.12139 -0.162776 0)
(0.990339 -0.0989014 0)
(0.926335 -0.0540123 3.29175e-20)
(0.893866 -0.0253444 -8.96565e-21)
(0.877557 -0.0107886 1.24859e-20)
(0.868239 -0.00500606 5.50159e-20)
(2.19011 -0.342845 0)
(1.70293 -0.303322 1.13299e-18)
(1.36304 -0.22638 1.15513e-18)
(1.09702 -0.157899 0)
(0.912127 -0.10226 7.37913e-19)
(0.798492 -0.063618 3.73844e-19)
(0.739222 -0.0358536 1.63963e-19)
(0.709309 -0.0166859 2.12116e-20)
(0.695561 -0.00670209 2.43111e-20)
(0.688088 -0.00319446 2.27707e-20)
(1.70262 -0.191293 -6.7297e-19)
(1.29993 -0.165627 -2.72366e-19)
(1.02551 -0.121276 1.73795e-19)
(0.818112 -0.0823407 -2.2589e-34)
(0.676688 -0.0529608 -8.62536e-20)
(0.589401 -0.0340422 3.31514e-33)
(0.540782 -0.0199538 4.88479e-20)
(0.515612 -0.00929195 9.15822e-20)
(0.50472 -0.00351754 1.1612e-20)
(0.499057 -0.00174721 -3.02908e-20)
(1.10062 -0.075898 3.4029e-18)
(0.822775 -0.0627168 -1.87351e-19)
(0.640493 -0.0441507 -5.91949e-19)
(0.507531 -0.0282004 0)
(0.419025 -0.0177569 -6.18619e-19)
(0.364138 -0.0120638 -3.71324e-19)
(0.331592 -0.00754978 -1.26445e-19)
(0.314081 -0.00360538 -7.52847e-20)
(0.306769 -0.00130927 6.77319e-20)
(0.30312 -0.000699079 2.23164e-20)
(0.397216 -0.00332089 0)
(0.287647 0.00158486 0)
(0.22076 0.00402473 0)
(0.17401 0.00605105 0)
(0.144364 0.00537764 0)
(0.125862 0.00369686 0)
(0.113849 0.00237215 5.44025e-20)
(0.106873 0.00133606 -1.76501e-34)
(0.103919 0.000682969 1.24401e-20)
(0.102445 0.000200584 2.86975e-20)
(3.36691 -0.0863385 5.38628e-19)
(3.32625 -0.26511 -8.42471e-20)
(3.2472 -0.430691 8.52355e-19)
(3.13225 -0.582217 -6.04805e-19)
(2.98622 -0.71822 6.66693e-19)
(2.81513 -0.836529 2.753e-19)
(2.62649 -0.934277 -1.93042e-18)
(2.42939 -1.00816 -7.72753e-20)
(2.22453 -1.05412 0)
(1.9847 -1.0672 4.29609e-19)
(3.86177 -0.0751209 7.07393e-18)
(3.79847 -0.23426 1.95597e-18)
(3.70416 -0.387357 -4.86745e-18)
(3.58413 -0.532043 -4.49252e-19)
(3.44223 -0.665948 3.55849e-18)
(3.28165 -0.78737 1.92397e-18)
(3.10623 -0.895104 -5.16816e-18)
(2.92168 -0.987714 -1.95059e-18)
(2.72711 -1.06336 2.2003e-18)
(2.49177 -1.12045 8.5411e-19)
(3.83315 -0.0533646 -1.26108e-19)
(3.82027 -0.171618 4.40552e-18)
(3.78546 -0.299811 -1.08921e-18)
(3.72431 -0.430968 -3.44589e-18)
(3.63611 -0.558767 -6.80015e-18)
(3.52356 -0.678805 1.02704e-17)
(3.3909 -0.788735 4.17483e-18)
(3.24307 -0.887833 -3.90293e-18)
(3.08097 -0.97842 -2.89523e-18)
(2.88636 -1.06247 -3.41462e-18)
(3.62866 -0.0472845 -4.84005e-18)
(3.6196 -0.144947 -4.35452e-18)
(3.59963 -0.24377 5.47393e-18)
(3.56737 -0.343129 1.91281e-18)
(3.52247 -0.442406 -8.97665e-18)
(3.46428 -0.540817 4.93368e-19)
(3.39199 -0.637023 3.88689e-18)
(3.30531 -0.730354 -1.05497e-18)
(3.20514 -0.822904 1.27655e-18)
(3.08308 -0.914474 2.80591e-19)
(3.34405 -0.0365692 -9.16092e-19)
(3.33898 -0.111674 3.00442e-18)
(3.32708 -0.188722 1.61962e-18)
(3.30742 -0.267241 -1.89352e-18)
(3.27985 -0.346152 -2.0021e-18)
(3.24467 -0.424214 -2.43708e-18)
(3.20212 -0.500383 3.80269e-19)
(3.15195 -0.574485 1.39055e-19)
(3.09583 -0.64767 -2.14448e-18)
(3.03337 -0.721124 -2.0395e-18)
(2.96256 -0.0265364 -1.82259e-18)
(2.95979 -0.0798952 -5.86551e-20)
(2.95328 -0.134631 -1.63774e-18)
(2.94236 -0.190962 3.12157e-19)
(2.9267 -0.248637 5.36818e-18)
(2.90623 -0.307042 -3.67162e-19)
(2.88087 -0.365248 4.44187e-20)
(2.85021 -0.422197 -2.6099e-18)
(2.81649 -0.476998 -3.49975e-18)
(2.78617 -0.529921 3.71234e-19)
(2.48711 -0.0174918 -2.88636e-20)
(2.48576 -0.051934 -8.14318e-19)
(2.48257 -0.0872665 -2.61514e-18)
(2.47704 -0.123809 -3.43116e-18)
(2.46874 -0.161593 2.49671e-18)
(2.45737 -0.200349 1.50217e-18)
(2.44252 -0.23946 -1.38491e-18)
(2.42359 -0.277922 1.62425e-18)
(2.40264 -0.314635 -4.30493e-19)
(2.38944 -0.349701 -9.64522e-19)
(1.91463 -0.00967405 7.72521e-19)
(1.91406 -0.0282947 -8.31963e-19)
(1.91276 -0.0474486 -3.27891e-20)
(1.91029 -0.0673803 -3.46911e-20)
(1.90619 -0.0881644 -7.26951e-20)
(1.90006 -0.109663 -2.33213e-18)
(1.89141 -0.131469 -6.78542e-19)
(1.87966 -0.152864 2.62549e-18)
(1.86649 -0.173076 -6.03089e-19)
(1.86174 -0.192327 -1.35024e-18)
(1.23988 -0.00373035 -1.64299e-18)
(1.23966 -0.0106935 -8.49032e-19)
(1.23923 -0.0179042 2.33952e-18)
(1.23822 -0.0254871 -8.89919e-19)
(1.23623 -0.0334898 -6.7419e-19)
(1.23285 -0.0418528 1.35207e-18)
(1.22768 -0.0503788 -1.29585e-18)
(1.22028 -0.0587029 1.28682e-18)
(1.21189 -0.0663892 -1.20999e-18)
(1.20991 -0.0735641 -4.2456e-18)
(0.454916 -0.000257202 6.63158e-19)
(0.454829 -0.000700207 7.03151e-19)
(0.454694 -0.00115924 7.48294e-19)
(0.454324 -0.00164063 1.35416e-18)
(0.45349 -0.00214122 -6.72059e-19)
(0.45197 -0.0026387 -1.29973e-18)
(0.449543 -0.00310109 6.14713e-19)
(0.445953 -0.00359531 2.48452e-20)
(0.441679 -0.00439477 -4.96607e-20)
(0.440271 -0.00504761 1.10581e-19)
(1.6526 0.995886 -2.84165e-19)
(1.5115 0.940801 1.81115e-20)
(1.3582 0.879972 -2.25077e-19)
(1.19724 0.807903 1.7743e-19)
(1.02928 0.723635 -1.94726e-19)
(0.854643 0.626882 -1.01774e-19)
(0.67367 0.516856 2.3197e-19)
(0.487014 0.392134 -3.06083e-19)
(0.295909 0.250667 3.09588e-19)
(0.101452 0.0916655 2.39444e-19)
(1.88553 0.991185 0)
(1.72897 0.933988 6.35837e-19)
(1.56028 0.872227 3.28292e-19)
(1.38187 0.801484 1.64912e-19)
(1.19424 0.719645 4.34004e-19)
(0.997346 0.62577 -8.72119e-20)
(0.79126 0.518548 -7.89321e-20)
(0.576313 0.395984 8.98543e-20)
(0.353325 0.255193 -1.04523e-18)
(0.122715 0.0943701 -1.60603e-20)
(2.09031 0.95833 1.56973e-19)
(1.92462 0.904543 0)
(1.74564 0.846082 -1.0095e-19)
(1.55455 0.779289 -3.85169e-19)
(1.35141 0.701915 5.38314e-20)
(1.1359 0.612694 3.97579e-19)
(0.907667 0.510044 -6.07356e-19)
(0.666537 0.391627 -2.00502e-19)
(0.412586 0.254051 7.83381e-19)
(0.14526 0.0947425 -1.76369e-19)
(2.28425 0.897863 1.90247e-19)
(2.10993 0.850193 1.25816e-20)
(1.92087 0.797591 2.42552e-20)
(1.71776 0.736809 3.62761e-20)
(1.5003 0.665727 -2.92205e-20)
(1.26773 0.583052 2.73471e-19)
(1.01913 0.487124 -2.06711e-19)
(0.753603 0.375511 -8.55994e-19)
(0.470244 0.244674 0)
(0.167388 0.0916978 0)
(2.46747 0.81148 -1.06827e-18)
(2.28392 0.770578 -6.06181e-19)
(2.08455 0.724865 -1.204e-19)
(1.86971 0.671378 -6.66401e-20)
(1.63864 0.608192 0)
(1.39011 0.534067 2.41001e-19)
(1.12261 0.44739 2.68049e-19)
(0.834468 0.34581 2.8653e-19)
(0.523799 0.225942 -4.24155e-19)
(0.1879 0.0848955 -8.13087e-20)
(2.6336 0.701861 7.63493e-19)
(2.44119 0.667882 -1.39278e-19)
(2.2321 0.629536 -2.21208e-19)
(2.00635 0.584195 0)
(1.76276 0.530196 0)
(1.49968 0.466427 0)
(1.21508 0.391422 -3.88123e-20)
(0.906587 0.303063 3.70079e-19)
(0.571447 0.198334 3.78867e-19)
(0.20607 0.0746201 -3.08666e-19)
(2.77545 0.572197 -1.19142e-18)
(2.57518 0.545133 -1.47966e-18)
(2.35756 0.514426 -3.0192e-22)
(2.12233 0.477864 -1.87844e-19)
(1.86794 0.434117 -9.29329e-20)
(1.59238 0.382269 -1.78926e-19)
(1.29317 0.321089 4.59281e-19)
(0.967384 0.248812 2.14667e-19)
(0.611525 0.162953 5.4027e-19)
(0.221298 0.0613359 2.02945e-19)
(2.88678 0.425641 -1.15633e-18)
(2.67998 0.405545 8.47403e-20)
(2.45548 0.382748 1.64518e-19)
(2.21271 0.355552 1.68664e-20)
(1.94981 0.323004 -3.14586e-19)
(1.66446 0.284432 -1.7432e-19)
(1.35382 0.23891 -6.21478e-19)
(1.01453 0.185121 1.18492e-19)
(0.642541 0.121226 5.15369e-20)
(0.233046 0.0456091 -6.2617e-21)
(2.96254 0.265119 1.01147e-19)
(2.75095 0.252298 3.97135e-19)
(2.52164 0.237859 -3.30354e-19)
(2.2737 0.220703 3.63266e-19)
(2.00501 0.200268 3.7269e-19)
(1.71303 0.176154 4.92081e-19)
(1.39465 0.147792 -6.35948e-19)
(1.04622 0.114378 -3.24512e-19)
(0.663345 0.074803 -4.58507e-20)
(0.240895 0.0280928 -3.27099e-19)
(3.00029 0.0935428 5.81666e-19)
(2.78588 0.0887589 -1.8589e-19)
(2.55401 0.0834237 4.79697e-19)
(2.30343 0.0771351 -3.1112e-19)
(2.03187 0.0697172 2.6644e-19)
(1.7366 0.0610546 6.05826e-19)
(1.41442 0.0509737 3.79155e-19)
(1.0615 0.0392316 3.09391e-19)
(0.673328 0.0255048 2.65934e-19)
(0.244632 0.0095065 5.43753e-19)
(0.236316 0.445049 -4.55298e-19)
(0.201284 0.412044 -1.80507e-19)
(0.166366 0.375845 1.49024e-19)
(0.133128 0.338479 -4.47569e-19)
(0.10321 0.301882 -1.1919e-19)
(0.0763034 0.264265 6.51459e-19)
(0.0505865 0.218702 3.16433e-19)
(0.0257468 0.156308 -1.33428e-19)
(0.00709272 0.0787346 1.22579e-19)
(-0.00110452 0.0219683 -6.4442e-20)
(0.287076 0.536061 3.83157e-19)
(0.247313 0.499797 4.27529e-19)
(0.207269 0.458747 -1.62342e-20)
(0.167566 0.412932 -1.35345e-19)
(0.130857 0.365192 -2.91372e-19)
(0.0998253 0.317147 7.90112e-20)
(0.0724924 0.263785 2.05494e-19)
(0.0452589 0.192924 1.56949e-19)
(0.0182456 0.100616 -5.7922e-19)
(0.00267803 0.0284202 -1.24378e-19)
(0.359694 0.624784 -5.77816e-19)
(0.313616 0.585024 -4.5812e-19)
(0.267748 0.539745 2.41584e-19)
(0.221476 0.487565 1.37424e-19)
(0.176275 0.429012 -2.2537e-22)
(0.1364 0.367205 -1.15318e-19)
(0.101701 0.300966 -2.16326e-20)
(0.0678893 0.221255 -5.36909e-19)
(0.033423 0.124537 -2.61349e-19)
(0.00746697 0.037432 -3.95957e-20)
(0.455176 0.710211 4.93819e-19)
(0.400766 0.666503 1.6266e-19)
(0.346714 0.61596 -1.41849e-19)
(0.292448 0.557648 7.45184e-20)
(0.238132 0.490693 -9.84588e-22)
(0.186881 0.416947 -1.9778e-21)
(0.140004 0.337244 -1.3539e-19)
(0.0951022 0.247583 3.74578e-19)
(0.0511674 0.146419 -4.0367e-19)
(0.0133937 0.0473995 -6.65006e-20)
(0.572913 0.791153 -2.80463e-19)
(0.508642 0.743676 -8.83709e-20)
(0.444112 0.687437 -1.33997e-20)
(0.379251 0.622382 -5.92925e-20)
(0.313923 0.547984 5.16841e-20)
(0.249811 0.464978 4.7368e-20)
(0.188341 0.374312 -3.40433e-20)
(0.12912 0.274909 -2.79801e-19)
(0.0723271 0.166715 2.11266e-19)
(0.0207713 0.0566102 8.52676e-20)
(0.709759 0.865379 6.46926e-19)
(0.634703 0.814634 3.25821e-19)
(0.558398 0.75315 2.11069e-19)
(0.481003 0.68177 4.7497e-20)
(0.402475 0.600643 1.42098e-19)
(0.323886 0.510181 6.83505e-20)
(0.246413 0.410941 1.3575e-19)
(0.170745 0.302859 5.57925e-20)
(0.0979341 0.186254 -1.53279e-20)
(0.0299069 0.0649003 -1.37644e-20)
(0.861795 0.930469 -1.19522e-19)
(0.775386 0.876871 -8.4483e-19)
(0.686593 0.810896 -9.34144e-20)
(0.59563 0.734286 -2.95002e-20)
(0.502474 0.647676 -1.06436e-20)
(0.408049 0.551301 1.44781e-19)
(0.313407 0.445361 -4.43092e-20)
(0.21964 0.329841 6.83949e-20)
(0.128239 0.204815 -1.4756e-19)
(0.0408662 0.0724469 -9.60552e-22)
(1.0261 0.982684 -8.93245e-19)
(0.927968 0.926823 5.94499e-20)
(0.826269 0.857457 -2.22848e-19)
(0.721172 0.777165 -7.87041e-20)
(0.612559 0.686751 -3.28945e-20)
(0.501318 0.586211 -7.4546e-20)
(0.388444 0.475365 5.74992e-20)
(0.275122 0.353922 6.10802e-20)
(0.162971 0.221464 -9.88311e-21)
(0.0535426 0.0791236 -1.05345e-19)
(1.20305 1.01545 1.24145e-19)
(1.09282 0.95892 5.30438e-19)
(0.977723 0.88816 1.62903e-21)
(0.857828 0.806409 -3.48896e-20)
(0.73287 0.714506 1.55285e-19)
(0.603719 0.612044 -3.52725e-19)
(0.471314 0.498472 -2.46589e-19)
(0.336804 0.373096 3.57509e-19)
(0.201783 0.234996 1.44933e-19)
(0.0677192 0.0845556 -3.72187e-20)
(1.39966 1.01366 7.4658e-19)
(1.27731 0.960907 3.27134e-19)
(1.14725 0.894289 5.49513e-20)
(1.01045 0.815639 -2.00257e-19)
(0.866981 0.726015 -1.68873e-20)
(0.717723 0.625034 4.68477e-19)
(0.563496 0.511856 -2.69734e-19)
(0.405321 0.385435 -1.85004e-19)
(0.244724 0.244339 3.364e-19)
(0.0831371 0.0884667 -6.58777e-21)
(0.948712 0.0899323 1.02271e-20)
(1.17048 0.157613 -2.27853e-20)
(1.16809 0.180614 -4.88538e-20)
(1.23524 0.168975 0)
(1.24613 0.178669 8.97256e-21)
(1.20681 0.244494 -5.37061e-20)
(1.08556 0.385453 -1.0302e-19)
(0.925361 0.53651 -1.45203e-19)
(0.699664 0.638964 -1.5182e-19)
(0.41112 0.586733 6.57091e-19)
(0.946529 0.0697121 1.85176e-19)
(1.16415 0.13669 -7.01508e-20)
(1.16549 0.160862 2.57684e-21)
(1.23611 0.161614 2.05599e-20)
(1.25395 0.182743 -7.31266e-21)
(1.22561 0.267129 8.18455e-21)
(1.11895 0.427889 1.95902e-19)
(0.974638 0.594652 0)
(0.753731 0.715318 4.61817e-19)
(0.477029 0.676722 -4.09409e-19)
(0.944224 0.0508704 -1.10507e-19)
(1.16076 0.115286 5.40832e-21)
(1.16561 0.140911 4.82835e-20)
(1.24065 0.152775 2.18939e-20)
(1.26496 0.185044 2.00506e-20)
(1.24737 0.288095 -4.49054e-20)
(1.15755 0.468176 1.23865e-19)
(1.0302 0.651338 3.65231e-20)
(0.81965 0.789507 -2.05091e-22)
(0.56473 0.763879 -7.48223e-19)
(0.94229 0.033004 -6.13941e-20)
(1.16016 0.0932047 1.73248e-20)
(1.16842 0.120766 1.78146e-20)
(1.2486 0.142773 -7.90624e-21)
(1.279 0.185982 -9.00714e-21)
(1.27236 0.307454 -5.16803e-21)
(1.20086 0.506144 -1.16224e-19)
(1.09172 0.705881 2.23195e-20)
(0.899948 0.859507 -3.78203e-19)
(0.67521 0.846267 -1.91729e-19)
(0.941028 0.0156188 1.08762e-20)
(1.16227 0.0703266 -7.23989e-21)
(1.17385 0.100486 -2.72498e-21)
(1.25961 0.131912 -9.97512e-21)
(1.29583 0.185957 0)
(1.30028 0.325317 0)
(1.2481 0.541745 -4.97703e-20)
(1.15959 0.757275 -2.41263e-20)
(0.996714 0.923086 -9.83227e-20)
(0.806548 0.922266 -6.05367e-20)
(0.940614 -0.00171734 -1.00579e-20)
(1.16699 0.046564 1.35091e-20)
(1.18182 0.0801921 -6.2283e-21)
(1.27328 0.120498 -3.88445e-20)
(1.31504 0.185379 -1.29075e-20)
(1.33043 0.34185 -7.96958e-21)
(1.29859 0.574802 2.76843e-20)
(1.23471 0.804115 -1.60042e-20)
(1.11034 0.978513 -1.2787e-20)
(0.954459 0.991067 -1.20989e-20)
(0.941162 -0.0194562 7.48193e-20)
(1.17422 0.0218416 -8.8099e-21)
(1.19223 0.0600327 -9.31756e-21)
(1.28917 0.108751 -3.77582e-20)
(1.33614 0.1844 2.85734e-20)
(1.36218 0.357077 1.15966e-20)
(1.35217 0.604817 -4.70367e-20)
(1.31801 0.844885 -1.98271e-19)
(1.23927 1.02527 9.38031e-21)
(1.11369 1.05254 -1.00384e-18)
(0.942679 -0.0379625 3.74336e-20)
(1.18384 -0.00392151 -8.68996e-21)
(1.20506 0.040272 2.41262e-21)
(1.30679 0.0970473 5.29524e-20)
(1.35811 0.183647 1.11011e-20)
(1.39442 0.371277 -2.13835e-21)
(1.40833 0.631271 -1.83952e-20)
(1.40916 0.878528 1.04587e-19)
(1.38026 1.06391 1.11246e-20)
(1.27893 1.10592 2.90318e-18)
(0.94474 -0.057281 -1.8566e-19)
(1.19567 -0.030636 3.2819e-21)
(1.22037 0.0211882 4.02669e-20)
(1.32589 0.0855718 -4.84791e-20)
(1.38108 0.183026 -4.59241e-20)
(1.42792 0.384623 1.0862e-20)
(1.46843 0.654228 1.10753e-19)
(1.50872 0.905461 -2.58711e-19)
(1.53067 1.09551 -2.63159e-20)
(1.44689 1.14811 -6.46392e-18)
(0.946556 -0.0783723 4.64099e-21)
(1.20937 -0.0580377 9.17098e-21)
(1.23769 0.00320914 -4.08468e-21)
(1.34592 0.0758583 -1.28551e-19)
(1.40266 0.186368 -6.91002e-20)
(1.45945 0.401189 -4.59289e-22)
(1.52862 0.677285 -8.00086e-20)
(1.611 0.928763 -5.87829e-19)
(1.68253 1.11965 -1.14413e-18)
(1.61388 1.16824 -7.98931e-18)
(0.949186 -0.111027 -1.49297e-20)
(1.22542 -0.0945151 -3.27162e-21)
(1.25859 -0.0236338 -3.64214e-21)
(1.36942 0.0583367 -4.23744e-20)
(1.43124 0.176362 2.94741e-20)
(1.50212 0.394832 -3.04935e-20)
(1.61052 0.668894 -5.00859e-20)
(1.75218 0.918886 -1.54664e-18)
(1.90051 1.1222 -1.65305e-18)
(1.89725 1.20472 3.31665e-18)
(0.950732 -0.155062 -3.9645e-19)
(1.24172 -0.142341 -4.47304e-20)
(1.27943 -0.0661734 -1.55921e-20)
(1.39027 0.0314569 2.76032e-20)
(1.44552 0.150206 1.01687e-19)
(1.52212 0.354805 -2.71144e-19)
(1.67222 0.609233 -1.49313e-19)
(1.88034 0.845396 -6.31018e-19)
(2.13671 1.0605 1.64011e-19)
(2.28192 1.15597 -3.28222e-19)
(0.946417 -0.199301 -2.59393e-20)
(1.25714 -0.193637 -4.44818e-20)
(1.29517 -0.105953 2.83599e-20)
(1.40826 0.00509769 4.07161e-20)
(1.46036 0.129452 1.28901e-33)
(1.52813 0.313317 -6.15772e-21)
(1.70162 0.532984 -2.42242e-33)
(1.95737 0.744013 1.94898e-19)
(2.30334 0.948116 -9.36626e-19)
(2.58584 1.05399 -6.27865e-19)
(0.937779 -0.245664 1.52203e-18)
(1.27182 -0.240559 -6.30363e-34)
(1.30301 -0.153517 -3.6097e-20)
(1.37152 -0.0183961 -1.47771e-19)
(1.38275 0.109104 -4.37624e-19)
(1.45766 0.25676 -9.03801e-19)
(1.65173 0.436038 -5.27381e-33)
(1.94617 0.618659 -1.66413e-18)
(2.33363 0.795746 -3.08922e-18)
(2.75562 0.89941 1.68039e-18)
(0.926317 -0.299777 0)
(1.29356 -0.282074 -3.08235e-33)
(1.19175 -0.170381 0)
(1.19496 -0.0217056 0)
(1.20846 0.0929438 0)
(1.3045 0.202611 0)
(1.51533 0.33688 -9.12752e-33)
(1.8303 0.481792 0)
(2.22112 0.629323 -3.44427e-19)
(2.73846 0.709673 1.2646e-18)
(0.913901 -0.359323 1.11546e-19)
(1.26418 -0.314552 -4.25709e-19)
(1.01498 -0.148279 -6.14108e-20)
(1.00668 -0.0178754 0)
(1.02494 0.0712539 0)
(1.12357 0.147488 7.03944e-20)
(1.32478 0.24178 1.33743e-18)
(1.62615 0.348497 -1.97087e-19)
(2.00157 0.463388 -4.96808e-19)
(2.53472 0.519156 4.66605e-18)
(0.881998 -0.405032 -1.52145e-17)
(1.09739 -0.27236 9.87867e-19)
(0.827428 -0.115311 -7.59528e-20)
(0.800764 -0.0162098 -1.37528e-19)
(0.822206 0.0473367 -4.29685e-19)
(0.913835 0.0943508 -7.37706e-19)
(1.0892 0.153698 -1.13282e-18)
(1.3522 0.22551 -1.47062e-18)
(1.69013 0.304826 -1.66377e-18)
(2.1809 0.344013 3.65849e-18)
(0.808094 -0.394436 -4.12596e-19)
(0.888655 -0.204399 -1.21809e-18)
(0.623562 -0.0755498 -1.26838e-19)
(0.585217 -0.012559 -7.99382e-20)
(0.605021 0.0261465 -5.46465e-34)
(0.678891 0.049803 1.07828e-19)
(0.814183 0.0804348 -1.58162e-32)
(1.01968 0.121142 -1.94017e-19)
(1.29352 0.16679 2.96863e-19)
(1.69951 0.191984 7.04072e-19)
(0.663804 -0.288828 3.42966e-17)
(0.618466 -0.106827 -3.12378e-18)
(0.40086 -0.0328376 -2.4053e-19)
(0.358699 -0.00661606 -8.45566e-20)
(0.372645 0.00942948 3.37557e-19)
(0.421127 0.0169883 7.43092e-19)
(0.506393 0.0275709 7.79541e-19)
(0.638415 0.0442144 4.60365e-19)
(0.821013 0.0633035 -1.83502e-19)
(1.10144 0.0762244 3.55847e-18)
(0.336694 -0.0768416 5.58944e-19)
(0.261803 -0.00234795 -6.77486e-33)
(0.146576 0.0180321 -3.04185e-19)
(0.125811 0.00245707 0)
(0.129393 -0.00172324 0)
(0.145787 -0.00479095 1.05903e-19)
(0.17437 -0.00597134 7.7797e-35)
(0.220824 -0.00402111 -1.24241e-19)
(0.288098 -0.0015659 -2.80269e-19)
(0.398873 0.00332972 9.98547e-19)
(2.00081 1.0945 -1.78374e-18)
(2.238 1.07701 -2.30477e-18)
(2.4412 1.02805 0)
(2.63637 0.951755 -7.63712e-19)
(2.82302 0.85199 -1.79705e-18)
(2.99231 0.732039 -2.24948e-18)
(3.13673 0.594808 -4.88014e-19)
(3.25025 0.442546 1.26958e-18)
(3.32799 0.276871 -3.54747e-18)
(3.36742 0.0986485 1.35656e-18)
(2.49699 1.13926 2.61634e-19)
(2.7291 1.0799 1.39214e-18)
(2.92268 1.00271 1.44057e-19)
(3.10578 0.908746 6.71664e-19)
(3.27986 0.799934 -1.10054e-18)
(3.4394 0.677837 -4.98872e-18)
(3.58053 0.543686 2.46199e-18)
(3.70014 0.399097 1.26883e-17)