/*--------------------------------*- C++ -*----------------------------------*\
  =========                 |
  \\      /  F ield         | OpenFOAM: The Open Source CFD Toolbox
   \\    /   O peration     | Website:  https://openfoam.org
    \\  /    A nd           | Version:  13
     \\/     M anipulation  |
\*---------------------------------------------------------------------------*/
FoamFile
{
    format      ascii;
    class       surfaceScalarField;
    location    "2.845";
    object      phi;
}
// * * * * * * * * * * * * * * * * * * * * * * * * * * * * * * * * * * * * * //

dimensions      [0 3 -1 0 0 0 0];

internalField   nonuniform List<scalar> 
823
(
0.000346165
0.0174979
-0.0178441
0.0274993
0.0141486
-0.0413018
0.0999182
-0.028434
-0.0439849
0.211939
-0.0904737
-0.021547
-0.140817
-0.00460419
0.35736
0.00385747
0.0136405
0.0557167
-0.0377106
0.159462
-0.132179
0.286624
-0.217636
-0.293033
0.43884
0.024123
-0.0104825
0.11624
-0.129827
0.235141
-0.25108
0.347809
-0.330304
-0.375241
0.430017
0.0471042
-0.0575868
0.149201
-0.231924
0.236739
-0.338619
0.290178
-0.383742
-0.396881
0.311818
0.0615786
-0.119165
0.137237
-0.307582
0.181173
-0.382555
0.199813
-0.402382
0.211721
-0.408789
-0.0216626
0.0670376
-0.045375
-0.0584066
0.100513
-0.0637686
-0.0983552
0.101393
-0.0614441
-0.137597
0.0947514
-0.0555093
0.0848792
-0.174127
-0.0483494
-0.0035265
0.0705641
-0.0208339
0.11782
-0.0422144
0.122773
-0.0607306
0.113268
0.09821
-0.0740615
0.0182231
0.052341
0.0325598
0.103483
0.0410797
0.114253
0.0503029
0.104044
0.085293
0.0632199
0.0246887
0.0276523
0.0598999
0.068272
0.0912798
0.0828734
0.118382
0.076942
0.0604643
0.143211
0.00980817
0.0367784
0.0756669
0.131062
0.186922
-0.0920228
-0.0442478
-0.0378564
0.135824
-0.700091
0.472245
0.281211
-0.560973
0.415586
0.36447
-0.372612
0.289353
-0.166181
0.136993
0.0520617
-0.170371
0.206091
-0.85412
0.31418
-0.669063
0.379336
-0.437768
-0.190277
0.243421
-0.350572
0.328876
-0.939575
0.376254
-0.716441
0.405767
-0.467281
-0.203952
0.370655
-0.578017
0.428672
-0.997591
0.44414
-0.731909
0.44019
-0.463331
-0.205089
0.399869
-0.790964
0.466311
-1.06403
0.48275
-0.748348
0.467992
-0.448573
-0.200526
1.24367
-0.81735
-1.21728
1.10943
-0.929787
0.941366
-0.580289
0.801482
-0.308688
-0.133191
1.28027
-0.649345
-1.44828
1.02438
-0.673899
0.831029
-0.386934
0.728282
-0.205941
-0.0926393
1.27156
-0.510497
-1.4104
1.07302
-0.475362
0.889891
-0.203807
0.759508
-0.0755582
-0.034724
1.14919
-0.309693
-1.34999
0.90787
-0.234041
0.754638
-0.0505745
0.668188
0.0108913
0.0035545
0.625764
-0.935457
0.391723
0.341149
0.35204
1.13602
0.17491
-1.0992
1.21495
0.232884
1.30379
0.341175
1.32931
0.413319
0.469387
1.04453
0.114737
-0.984357
1.12201
0.155405
1.22276
0.240421
1.3395
0.296586
0.360606
0.990026
0.0612911
-0.936581
1.05163
0.0938027
1.14709
0.144962
1.26776
0.175913
0.217963
0.944393
0.017565
-0.900667
1.00457
0.0336212
1.09726
0.0522782
1.21046
0.0627159
0.0784239
0.708418
-0.690853
0.742039
0.794317
0.857033
0.136876
0.314617
-0.26098
-0.190514
0.0905807
0.320512
-0.274216
0.0498554
0.331033
-0.290308
0.0163158
0.322671
-0.289131
0.209398
-0.193083
0.0991312
0.352212
-0.136726
0.0623541
0.357289
0.0295062
0.363881
0.00452329
0.347654
0.213922
0.0568756
0.385136
-0.0897997
0.0267685
0.387396
0.00170193
0.388948
-0.00963393
0.35899
0.204288
-0.0239274
0.399525
0.00953879
-0.038595
0.402063
-0.0442194
0.394572
-0.0321879
0.346958
0.1721
-0.104009
0.0947449
-0.104328
-0.092311
-0.0529344
0.197636
0.110497
-0.248697
-0.0594358
0.144862
0.115691
-0.0629161
0.0902985
0.121864
-0.0673005
0.0368402
0.123356
-0.0698979
0.0879334
-0.0510932
0.184244
0.153604
-0.227351
0.139161
0.160774
0.089243
0.171782
0.0371975
0.175402
0.125131
0.151364
0.199451
-0.197211
0.108236
0.203901
0.0661871
0.213831
0.0255235
0.216065
0.150655
0.15401
0.234832
-0.189392
0.113105
0.244806
0.0686628
0.258273
0.0264029
0.258325
0.177057
0.108276
-0.134423
0.0788663
0.0468314
0.0160251
0.410749
0.0299216
-0.0446913
0.421075
0.0667721
-0.0770982
0.414458
0.196938
-0.190321
0.380669
0.278867
-0.245078
0.496275
-0.364304
0.408612
0.0172894
0.414578
0.0608059
0.405119
0.206397
0.371063
0.312923
0.639988
0.402857
0.0104125
0.408843
0.0548191
0.381415
0.233825
0.364259
0.330079
0.807036
0.397687
0.00870508
0.393287
0.0592195
0.364863
0.262249
0.338309
0.356634
0.955953
0.38892
0.0157644
0.380093
0.0680471
0.332781
0.309561
0.315283
0.374131
1.13681
0.620405
-0.00062017
0.645164
0.0432881
0.666687
0.288038
0.74445
0.296368
0.845245
1.03602
0.626283
-0.0228824
0.644907
0.0246641
0.707698
0.225247
0.788081
0.215984
0.600619
1.03271
0.62613
-0.0449922
0.650838
-4.40144e-05
0.737804
0.138281
0.824677
0.129111
0.391014
1.03428
0.617471
-0.0584431
0.64833
-0.030903
0.742071
0.0445408
0.818652
0.0525299
0.192865
1.0168
0.545577
0.514674
0.559215
0.611745
0.80461
1.05909
-0.213588
1.05068
-0.128312
1.05371
-0.0928292
1.05458
0.00866081
0.0501253
0.984966
-0.165847
0.969526
-0.112872
0.947163
-0.0704657
0.963212
-0.00738801
0.0289796
0.970125
-0.101689
0.938572
-0.0813192
0.914888
-0.0467811
0.923542
-0.0160423
0.0159411
0.956585
-0.041474
0.912537
-0.037271
0.888845
-0.0230889
0.886746
-0.0139428
0.0020192
0.763136
0.725865
0.702776
0.688834
0.0471209
0.136681
-0.183802
0.0722961
0.304268
-0.329443
0.0737338
0.359078
-0.360516
0.0633568
0.364081
-0.353704
0.333573
0.0512294
-0.321446
0.067316
0.0693649
0.139594
0.23199
0.17595
0.322722
0.181738
0.358293
0.35608
0.159231
0.0553154
0.0140494
0.166095
0.121211
0.26181
0.227008
0.333316
0.286786
0.341545
0.347851
0.0254135
-0.0113641
0.1174
0.0292247
0.237148
0.10726
0.355073
0.168861
0.227583
0.469035
0.00358726
-0.0149514
0.0458273
-0.0130153
0.137516
0.0155708
0.252178
0.0541993
0.0837699
0.395991
-0.00316911
-0.0117822
0.00829407
-0.0244785
0.0473695
-0.0235046
0.112419
-0.0108501
0.0076247
0.188564
0.00493681
-0.0167191
0.0141843
-0.033726
0.0280805
-0.0374007
0.0507905
-0.0335601
-0.0252228
0.083638
-0.00997933
-0.00673972
-0.0267978
-0.0169075
-0.0432837
-0.0209148
-0.055192
-0.0216518
-0.0206104
-0.0598043
-0.0253753
0.0186356
-0.0642007
0.0219179
-0.102618
0.017502
-0.137297
0.0130272
0.00939714
-0.167304
-0.0267394
-0.0685901
-0.112532
-0.155014
-0.193967
0.383825
0.36452
-0.55978
0.432479
0.125857
-0.17451
0.39295
0.0584523
-0.0189233
0.385425
0.0452591
-0.0377346
0.00776278
-0.0252887
0.226726
0.221431
0.239473
0.11311
0.282359
0.0155662
0.347927
-0.0203094
-0.0307185
0.00309841
0.158529
0.120311
-0.00410306
0.252033
-0.116155
0.342707
-0.110984
-0.0703119
-0.10977
0.100995
0.109757
-0.223631
0.258352
-0.26475
0.348946
-0.201578
-0.105434
-0.130828
0.117786
0.268622
0.356397
0.24217
0.391877
-0.634047
0.129202
0.112967
0.184977
-0.0557744
0.247555
-0.0625784
-0.0234512
0.840341
-1.00824
0.778798
0.7041
0.603787
0.0832101
-0.0147636
-0.0684464
0.134043
-0.0508327
0.249312
-0.115269
0.42041
-0.171098
-0.213637
0.186973
-0.150507
0.295371
0.527952
0.82589
0.138038
-0.123732
0.15547
-0.169776
0.10387
-0.128112
0.162279
0.0662627
-0.134336
0.171944
0.0267923
-0.133479
0.172949
-0.0925225
0.119315
0.170995
-0.0857125
-0.209015
0.129106
-0.0862226
0.0820342
-0.0872644
0.0337451
-0.0851896
-0.0587774
0.180181
-0.0384679
-0.227426
0.131306
-0.0373473
0.081101
-0.0370597
0.0326644
-0.0367531
-0.026113
0.193632
0.0104508
-0.24255
0.14352
0.0127643
0.091328
0.0151324
0.0381362
0.0164387
0.0120232
0.194849
-0.243834
0.144697
0.0925292
0.03907
0.0367781
-0.301976
-0.0562478
0.0140774
-0.331003
-0.00727644
-0.339162
-0.0154989
-0.321221
-0.199301
0.11816
-0.272264
-0.147872
0.0762511
-0.289094
0.0365847
-0.299496
0.00703117
-0.291667
-0.19227
0.13608
-0.233938
-0.174406
0.0963019
-0.249316
0.0563583
-0.259552
0.0198765
-0.255186
-0.172393
0.155489
-0.2003
-0.189127
0.113744
-0.20757
0.069025
-0.214833
0.0269687
-0.213129
-0.145424
0.15447
-0.1993
0.109179
0.0662896
0.0261096
0.393709
0.0822364
-0.0799659
0.389512
0.128659
-0.124462
0.340276
0.138015
-0.08878
0.289624
0.0535774
-0.00292555
-0.142089
0.261938
0.399635
0.0785808
0.408486
0.119809
0.381807
0.164694
0.327152
0.108233
-0.0239527
0.403351
0.0712091
0.418973
0.104187
0.40211
0.181557
0.351039
0.159304
0.0996606
0.407786
0.0594032
0.422685
0.0892871
0.416334
0.187909
0.371251
0.204387
0.228361
0.410691
0.42288
0.420468
0.379777
0.423752
0.0862989
0.325264
0.0984883
0.266479
0.0587852
0.274081
-0.00760267
-0.1424
0.416481
0.516384
0.490411
0.460416
0.449888
0.569426
0.331415
0.0850666
0.255245
0.07617
0.167848
0.087397
0.0962282
0.0716194
0.0277818
0.455192
0.342235
0.255226
0.178973
)
;

boundaryField
{
    left
    {
        type            calculated;
        value           nonuniform List<scalar> 
17
(
-0.60402
-0.60402
-0.60402
-0.60402
-0.60402
-0.39598
-0.39598
-0.39598
-0.39598
-0.39598
-0.39598
-0.39598
-0.39598
-0.39598
-0.39598
-0.510051
-0.510051
)
;
    }
    right
    {
        type            calculated;
        value           nonuniform List<scalar> 
17
(
0.271006
0.555047
0.402951
0.386409
0.382301
0.384069
0.387955
0.393658
0.403433
0.419441
0.441328
0.463428
0.734146
0.68773
0.701593
0.62991
0.355595
)
;
    }
    down
    {
        type            calculated;
        value           uniform 0;
    }
    up
    {
        type            calculated;
        value           uniform 0;
    }
    cylinder
    {
        type            calculated;
        value           uniform 0;
    }
    defaultFaces
    {
        type            empty;
    }
}


// ************************************************************************* //
