# Selection   : all
# Cells       : 440
# Volume      : 7.374263e+01
# Time        	minMag(U)
3             	2.863203e-02
3.05          	2.719402e-02
3.1           	2.579572e-02
