/*--------------------------------*- C++ -*----------------------------------*\
  =========                 |
  \\      /  F ield         | OpenFOAM: The Open Source CFD Toolbox
   \\    /   O peration     | Website:  https://openfoam.org
    \\  /    A nd           | Version:  13
     \\/     M anipulation  |
\*---------------------------------------------------------------------------*/
FoamFile
{
    format      ascii;
    class       volVectorField;
    object      U;
}
// * * * * * * * * * * * * * * * * * * * * * * * * * * * * * * * * * * * * * //

dimensions      [0 1 -1 0 0 0 0];

internalField   nonuniform List<vector>
440
(
(-0.369239506267 0.308330590575 2.33946495112e-15)
(0.138224584352 0.00465608520716 6.23026603926e-17)
(0.825947646579 -0.334823529827 -2.76023485929e-17)
(1.58259225938 -0.654074875605 -7.17568455443e-17)
(2.3249634933 -1.02878561447 2.35791767885e-17)
(-0.325141644179 0.198691062202 8.53013041809e-17)
(0.443922881848 -0.148874282596 3.36928033451e-17)
(1.35524663816 -0.489074107511 -7.19439478789e-17)
(2.27607699966 -0.783177089756 5.97126481086e-17)
(3.10871961543 -1.10082298798 7.39099519305e-17)
(-0.264518159575 0.109483054436 1.02498985789e-17)
(0.743298049716 -0.212673614931 4.3348955577e-17)
(1.84451862065 -0.503045985566 -2.99644574982e-18)
(2.87590153579 -0.729163454203 -5.26222752828e-17)
(3.70263673154 -0.952111083475 -2.97147076538e-17)
(-0.207676643028 0.0478717679408 -1.20202300594e-17)
(0.990226488786 -0.176459635909 -1.35272831163e-18)
(2.24348674931 -0.370969248363 5.30385109807e-17)
(3.3630864182 -0.506907062879 -3.56183847701e-17)
(4.06752628862 -0.61379373837 -4.89115318517e-17)
(-0.171228175407 0.00864042438059 -1.90291011862e-17)
(1.13440175551 -0.0656198182098 -6.39818427685e-18)
(2.47670948687 -0.131815879331 -3.64263361779e-17)
(3.65164503176 -0.174271866727 2.62849103988e-17)
(4.2050499624 -0.19911150077 1.34128737491e-17)
(-0.0513898934502 0.126287751976 4.21647444491e-18)
(-0.0889507299634 0.0172063057378 -3.9414443879e-18)
(-0.128285048796 -0.163344431836 1.61525442111e-17)
(-0.14430279004 -0.363405036502 -5.20984835953e-18)
(-0.116913245731 -0.556493750162 -5.66980462263e-17)
(-0.110963137221 0.243798838003 1.71084778517e-18)
(-0.120829470369 0.126286219296 3.83150614463e-18)
(-0.100374098761 -0.0833157382975 5.26700111741e-18)
(-0.0354534095404 -0.34147677079 3.78482346628e-18)
(0.0860059481805 -0.605769025211 -5.58202587674e-18)
(-0.195191266895 0.340953273791 -2.96176997926e-17)
(-0.157713399413 0.194035006181 -1.02310701714e-17)
(-0.0451612207003 -0.0657200045724 -1.53309127311e-17)
(0.13389571646 -0.38577426891 4.02907645234e-17)
(0.385659483615 -0.71943499477 -1.3760486962e-18)
(-0.282878123098 0.390090951913 -7.30687339933e-18)
(-0.160269238837 0.19483071035 9.12495533604e-18)
(0.0846882708513 -0.111517660342 -2.42926011253e-17)
(0.411184372426 -0.475223165267 -2.49689535224e-17)
(0.816816691309 -0.852527634018 2.72480301921e-18)
(-0.360446491155 0.38239890521 1.18043436318e-17)
(-0.097602003703 0.13560006766 7.3392408107e-18)
(0.331586553081 -0.199244846888 -7.72623327633e-19)
(0.839452130909 -0.552720821802 8.91464295176e-18)
(1.422523864 -0.935521337203 3.25152950411e-17)
(0.406668553765 -1.53998801876 -9.25902763462e-17)
(1.37247986218 -1.61134701778 5.95238938758e-17)
(2.52616518431 -0.612229344661 1.59971519848e-17)
(3.32541375287 0.0103957357751 -1.17642579655e-17)
(3.61388015461 0.0582975603131 4.3129588271e-18)
(0.948267512212 -1.82163014267 1.5794205569e-16)
(1.59475629942 -1.93816356347 -2.34498655293e-17)
(2.56247029729 -0.883098870911 1.88497022883e-17)
(3.48177476303 -0.181802193662 4.32578591501e-17)
(4.08139687563 -0.0207273247085 -8.06709693851e-18)
(1.61748793774 -2.07533253445 8.82261601132e-17)
(2.00717277431 -2.18931912055 1.90574308124e-16)
(2.58054232477 -1.15187857589 -1.50657196266e-17)
(3.46797096023 -0.395608150388 3.62839862011e-17)
(4.20234923259 -0.146609474907 8.37400982426e-18)
(2.36925910281 -2.28780418071 -7.98432463813e-17)
(2.58334530554 -2.35599527073 -4.30510293092e-17)
(2.68167882025 -1.38379243334 -1.80450379241e-17)
(3.34513154676 -0.584024883379 -3.31014809266e-17)
(3.90738522722 -0.255553411056 1.15591599094e-17)
(3.14146463491 -2.36064855999 6.82201075473e-18)
(3.23362457877 -2.44162393034 -1.68435202538e-16)
(2.8647472242 -1.56470418645 0)
(3.13236038352 -0.809729626942 1.48036205472e-17)
(3.2939481002 -0.318621586376 -1.87898831801e-18)
(4.49959947086 -2.77884325766 1.92579346385e-17)
(4.03501787257 -2.44469476535 4.86450519662e-17)
(3.19042382327 -1.51039336222 -4.63694180151e-18)
(2.53172572674 -0.763785775425 2.30557376389e-17)
(2.34990055554 -0.309020269563 6.52291700148e-18)
(6.03679872575 -2.32213262145 1.57820812765e-17)
(4.11939903849 -1.76034452165 -2.54891382492e-17)
(2.5595807145 -1.01752271656 -4.84061098149e-18)
(1.510326785 -0.535264806993 -7.84456104159e-18)
(1.23488867275 -0.22202179708 0)
(5.21670477454 -1.31955034614 1.48160433607e-17)
(2.76854656561 -0.905744049733 5.37116786346e-18)
(1.36916981572 -0.510021305078 -7.64281735926e-18)
(0.474096503965 -0.29317283521 1.58088878502e-18)
(0.119778955712 -0.135912898944 -1.26830705629e-18)
(2.9127082852 -0.602858763494 -3.54256829374e-17)
(1.05693812703 -0.355967720643 3.89757548617e-17)
(0.0873348446152 -0.177186622224 -1.30405004111e-17)
(-0.480151781354 -0.108195849411 -1.76699069636e-31)
(-0.758545920573 -0.0578464039079 1.90774862149e-17)
(0.456120390113 0.00272317386945 -1.05522158472e-18)
(-0.238218265933 0.0895402911609 9.25425832902e-19)
(-0.530805948636 0.0928543887794 -1.23254133727e-17)
(-0.681749082523 0.0621169181189 5.82128626945e-19)
(-0.779742507524 0.0252134158951 -1.95087466442e-19)
(7.02477181349 -0.308122054567 -6.9383064909e-17)
(6.67193607311 -0.956149378905 4.40411472057e-17)
(6.09314057214 -1.49436539821 -2.43876306766e-17)
(5.35529322633 -1.83402549252 -1.56257535426e-17)
(4.35007516665 -1.88636847904 4.47768613456e-18)
(8.348118811 -0.206249636234 -4.25328037238e-17)
(8.26234890562 -0.684760552719 2.44022870749e-18)
(8.03935674858 -1.21864516802 1.81952105558e-17)
(7.67691153944 -1.82117219371 -1.29491785537e-17)
(7.03330227496 -2.44315841452 3.06273013475e-18)
(6.33010474222 -0.144750074692 -3.02778091581e-17)
(6.345247436 -0.433541711107 2.40566657618e-17)
(6.35677970555 -0.737530493353 -4.77906297655e-17)
(6.35638646168 -1.06605559658 4.00676807171e-18)
(6.30735854943 -1.42893210463 4.87025618797e-17)
(4.14582140603 -0.0829573799418 -2.02664695963e-17)
(4.12114245588 -0.254708297257 -6.30191006652e-17)
(4.06379573064 -0.439545522734 5.34381556441e-18)
(3.98918327907 -0.623521192276 7.1589573769e-17)
(3.92202037896 -0.756465934411 -1.74457705618e-17)
(1.14765468983 -0.00524992115887 -2.8486888282e-17)
(1.12488673591 -0.0154541809921 1.0689638662e-18)
(1.07173520352 -0.0290993483397 -1.07354181426e-18)
(0.987931773967 -0.0465984219265 1.71545827893e-17)
(0.904469669261 -0.0509614080272 2.94597859598e-17)
(2.3974266043 1.119584025 -1.66733806063e-17)
(1.65280977294 0.731413582857 -4.98722706284e-18)
(0.890425171976 0.397249535937 2.03428546128e-17)
(0.186592406505 0.0382951228209 -9.57043104363e-18)
(-0.343137619094 -0.297626875609 7.77847334117e-18)
(3.16582956255 1.16458770725 1.98309851304e-17)
(2.33682811238 0.83871331644 2.79393007496e-17)
(1.41533577099 0.535332995656 4.67227629861e-18)
(0.491430017698 0.181296289375 1.48556616154e-17)
(-0.298922886482 -0.194375013203 1.01851695877e-17)
(3.74536615795 1.00193744238 1.63178852614e-17)
(2.92060486041 0.771459151909 -1.12973517755e-17)
(1.89259476749 0.537087214544 -1.23737675824e-17)
(0.783170027543 0.235298330053 -3.41916604673e-18)
(-0.241898006776 -0.112131288717 -1.76224667999e-17)
(4.09581718653 0.650921317949 1.94212772248e-17)
(3.38856159834 0.539221202945 5.59529128896e-18)
(2.27367896945 0.39454687917 2.6443886719e-17)
(1.01629481543 0.190160240038 -1.61392365279e-17)
(-0.19262951163 -0.0567068491151 1.02158152038e-17)
(4.21672403122 0.226215330145 3.6073880423e-17)
(3.65958082504 0.201868030143 3.32640028988e-17)
(2.48691478949 0.149811693295 1.14119783362e-17)
(1.14346478457 0.0744118076064 -1.57380854235e-17)
(-0.165977739895 -0.020860620997 1.00714636373e-17)
(-0.111892506766 0.797580125349 -7.03652809028e-17)
(-0.147962016127 0.597843717559 -4.87913147309e-17)
(-0.139646443677 0.372280449155 4.94618584695e-18)
(-0.106621277045 0.13148048688 -1.34871943764e-18)
(-0.054352686292 -0.0674121492682 -2.02110614279e-18)
(0.107701715703 0.854215413954 -3.79218493021e-17)
(-0.0166169697147 0.572406462074 -1.29139795958e-17)
(-0.0854642853532 0.27087969446 -6.68987421452e-18)
(-0.110799910564 -0.00863379021729 2.63544161195e-18)
(-0.0989942173741 -0.200955458771 -3.04059872732e-18)
(0.433900143978 0.93762548359 1.99244773145e-17)
(0.180377122629 0.580728976418 -3.05439193069e-17)
(-0.00458926990903 0.215040920255 -1.46964254391e-18)
(-0.127652317426 -0.102661477513 5.63922439271e-18)
(-0.17590364647 -0.309669728389 -1.5744484611e-18)
(0.881315150838 1.0233256069 -2.14353657618e-17)
(0.474103926273 0.624518700544 2.60291356763e-17)
(0.13978356246 0.224829505263 4.03691009249e-17)
(-0.119993643509 -0.123528780278 -9.83920378192e-18)
(-0.260405227492 -0.366627853457 1.03270332794e-17)
(1.49077001662 1.05728418662 1.49115189468e-17)
(0.907200568215 0.659554920154 1.58077038277e-17)
(0.392069243316 0.282929155145 5.10558052467e-19)
(-0.0529914044858 -0.080437639883 -2.08350439793e-18)
(-0.336181104385 -0.365580911201 2.90441295551e-20)
(2.34379552671 0.482878999103 2.56169855566e-17)
(3.07233718269 0.304671780841 3.61922323339e-18)
(2.74566591577 0.489278425138 -4.02048880522e-18)
(1.59375586443 1.50609765622 1.19012077523e-16)
(0.435764689117 1.73958975648 9.41890860176e-19)
(2.39109288173 0.187004074919 -1.55038762663e-17)
(3.13075628087 0.201738503624 -5.08899012359e-17)
(2.82689751132 0.671556439145 -3.38167678106e-17)
(1.68074517572 1.87630845072 -4.62269133885e-17)
(0.940926763948 2.05139133797 4.25426086073e-17)
(2.43555861203 -0.114898439517 -1.45567961925e-17)
(3.17961786731 0.115259937947 2.64368071335e-18)
(2.76117474408 0.863726490445 1.84986557393e-17)
(1.96475647913 2.18964849439 -3.33525104871e-17)
(1.60782848974 2.3100155389 6.92799573744e-17)
(2.46429024011 -0.41262166908 8.40741138554e-19)
(3.15254322413 0.0499476609332 5.76920389185e-17)
(2.6718546336 1.06832547472 2.72074303177e-17)
(2.4561034908 2.39366206811 1.40318046101e-16)
(2.37090141139 2.50243091789 -2.29190891527e-17)
(2.46731951559 -0.699202547206 1.74655595822e-18)
(2.96634757338 0.0479120353058 -3.54926246851e-18)
(2.65804145751 1.27307559685 -1.66957453143e-17)
(3.05154360644 2.49343513306 -1.08544629141e-16)
(3.15421826719 2.53809758123 5.89323384436e-17)
(2.38498978958 -1.01862612212 -5.95771004393e-18)
(2.63192237785 -0.0534171858099 -2.47131025021e-17)
(2.82999375873 1.2676313172 2.60799941654e-17)
(3.77030340758 2.45516716552 -1.8295768659e-16)
(4.48991478139 2.89437710965 8.0913411463e-17)
(2.13416562948 -1.31055473884 1.15814824757e-18)
(2.0024891308 -0.191459276507 -9.67293228592e-19)
(2.43275043302 0.87677298685 -4.78846256924e-18)
(3.89058440856 1.78390787549 3.19376990668e-17)
(5.88464742596 2.36434691959 -1.26101545744e-17)
(1.71386802865 -1.42284758142 -2.039800075e-18)
(1.0558086645 -0.39912244514 1.97751010531e-33)
(1.31039989145 0.409155886964 -4.47599079744e-18)
(2.6606753575 0.917040694897 -4.34788476598e-18)
(5.13208002352 1.34559576906 -3.643868704e-17)
(1.13765663375 -0.812703296244 -2.0917927284e-18)
(-0.144483948489 -0.264054853502 1.42614994337e-18)
(-0.0146187636386 0.120021533988 -1.31658462393e-17)
(1.00220709658 0.356470997703 -1.46397874989e-17)
(2.8890970672 0.603356078155 5.22410519321e-17)
(0.401387008778 -0.0891774635391 -2.3657553703e-18)
(-0.496237371323 0.0690400917062 1.19794595041e-18)
(-0.560138352042 -0.0581757522546 -8.22441108607e-18)
(-0.250350501587 -0.0917505109984 -1.18904605217e-18)
(0.460644320719 -0.00414998246665 1.00886238138e-17)
(4.41083804525 1.97432809364 -2.4695886882e-17)
(5.39146370371 1.89685405407 -1.98916741929e-17)
(6.11907321583 1.55407206174 3.69557242086e-17)
(6.69008467994 1.01456109415 7.58182735267e-17)
(7.03227093726 0.367155040451 -7.48164888938e-17)
(6.95414912962 2.45068184516 -9.4512550081e-18)
(7.59513084405 1.85500999043 -1.16355008512e-16)
(7.96859056872 1.25176702982 -3.35075490013e-17)
(8.20690846205 0.712881681246 1.2451684669e-16)
(8.32567730515 0.236369572738 1.92836363881e-17)
(6.24496639894 1.43372806975 5.00248606323e-17)
(6.31907963953 1.07663114547 3.13960904114e-17)
(6.33784130884 0.747284189743 4.11185217731e-17)
(6.33820283829 0.436386716113 5.62242477391e-17)
(6.32885908827 0.141503495369 -5.34935597821e-17)
(3.89552653495 0.746838069919 -5.66562648209e-17)
(3.97313787129 0.618779381486 3.40887548763e-18)
(4.0539102544 0.43892916539 -3.95142719482e-17)
(4.11602560395 0.254540276508 -4.70529830382e-17)
(4.1443700136 0.0823603869944 4.25079654716e-17)
(0.906082388798 0.0482778916646 4.05608490508e-18)
(0.990258575869 0.0446110990582 -2.80291739359e-17)
(1.07364028189 0.027958688458 -1.73579481894e-17)
(1.12655267647 0.0143549866566 3.00711269271e-17)
(1.14836463397 0.00407030626375 2.47235538125e-19)
(-1.68269607214 -0.1170893124 -1.1089551484e-17)
(-2.46575052345 -0.164645006023 9.32017832778e-18)
(-2.44886818973 -0.174723259701 -5.17447467691e-19)
(-2.90095860554 -0.186503170516 1.1498424308e-17)
(-2.770451976 -0.0619057131474 -9.61834414898e-19)
(-1.6030000687 -0.350543286871 -2.16843901726e-17)
(-2.31736394973 -0.467236772659 -6.80288379966e-18)
(-2.42954049304 -0.45846403192 1.04208121934e-17)
(-2.37637699691 -0.409523625607 -1.8770057657e-18)
(-2.51695064025 -0.245484717868 2.81509135896e-18)
(-1.42225836303 -0.528273635763 -1.90617230258e-17)
(-2.06713195156 -0.706537871093 -1.05509276348e-17)
(-2.24233688255 -0.67099644886 5.95145435843e-18)
(-2.02534565376 -0.550530102353 3.28044553803e-18)
(-2.11616556925 -0.480526192806 4.15652377177e-17)
(-1.16491913805 -0.625627620838 1.57610790664e-17)
(-1.71444116025 -0.842645633577 1.20752334968e-17)
(-1.91977501444 -0.830943182151 -2.07559572859e-17)
(-1.81594425831 -0.677193188999 1.32182524825e-18)
(-1.60101854127 -0.586842517391 1.72274257905e-19)
(-0.882938443855 -0.64320286111 2.67562574105e-17)
(-1.32932471483 -0.874196259822 -9.70777750103e-18)
(-1.55209614528 -0.907893759677 1.82272027989e-17)
(-1.60389231563 -0.810889588996 2.04020028007e-17)
(-1.42272557437 -0.613367411331 1.45522784529e-18)
(-0.613064228717 -0.597441537605 1.58660795336e-17)
(-0.95114953107 -0.813533410011 4.60356183882e-18)
(-1.16998382218 -0.883234092461 1.76321926788e-17)
(-1.30582862387 -0.884841913957 -1.3028199626e-17)
(-1.3508198389 -0.810413080761 5.30038079396e-18)
(-0.378631357693 -0.490145176028 -8.19816862073e-18)
(-0.624622508816 -0.647406729495 -3.23950324431e-18)
(-0.822007264435 -0.734263180657 -4.26011463839e-19)
(-0.986614763595 -0.783061103057 -1.25331987572e-17)
(-1.0732327552 -0.752324947239 -6.10029664912e-18)
(-0.19507265997 -0.322844831155 -5.61640825096e-18)
(-0.369901327409 -0.41318458607 1.42451275272e-17)
(-0.536961542758 -0.570507294366 -2.67852757947e-17)
(-0.694433633232 -0.676345817228 -6.42741747697e-17)
(-0.784719995681 -0.700091748501 2.41833121218e-17)
(-0.0743763056077 -0.133014308972 -2.27827296645e-18)
(-0.203153246567 -0.257114864293 -1.08859455334e-17)
(-0.323704899716 -0.433082871657 3.14611808788e-17)
(-0.43594978178 -0.556930562495 5.11644490662e-17)
(-0.496819599287 -0.631877504431 -9.13299413984e-18)
(-0.0203954764875 0.0759235509797 3.33639208893e-19)
(-0.120240576385 -0.121256842699 -2.09132237557e-18)
(-0.193553917956 -0.289294533177 1.15070162e-18)
(-0.260986040235 -0.442981052094 4.4259274814e-19)
(-0.28818176816 -0.571338030362 -1.74341633765e-17)
(-1.10919183496 -0.282861500983 9.70478358191e-18)
(0.0661381802029 -0.222393908546 3.73123638618e-17)
(0.257964578056 -0.00546507208454 -1.4593137721e-17)
(0.169385580938 0.0742233191574 -2.56118008504e-17)
(0.012182175075 0.0340484549902 -2.09401682103e-18)
(-1.04615396309 -0.489156024931 1.16747121012e-17)
(0.63289128753 -0.403286855477 7.36689604331e-18)
(1.00611952785 -0.00200271833503 -3.39717825798e-17)
(0.989476459549 0.110793498943 -5.70570202535e-18)
(0.85744256519 0.0530845114319 6.52348363772e-18)
(-0.727690142483 -0.713776071006 -4.9185762682e-18)
(0.984172054082 -0.646394496129 -9.92885485227e-19)
(1.6321732653 -0.0400067316884 1.19348439701e-17)
(1.71694391612 0.143091410028 9.35215600459e-19)
(1.60722004384 0.0724723658098 -9.54906217482e-18)
(-0.362407682855 -0.981660791657 2.93115747345e-17)
(1.16706725074 -0.943655452888 -7.86687218182e-17)
(2.10182480228 -0.158184081036 2.28676563285e-18)
(2.3609886851 0.158237488426 2.60669252606e-18)
(2.29673451767 0.0871085348522 -2.96872561354e-18)
(-0.00738645075278 -1.25161145817 1.01292426689e-17)
(1.26943603935 -1.26824422403 8.37485479983e-18)
(2.3927607501 -0.360478900869 3.94410737367e-18)
(2.92852226209 0.126839383921 -1.1307563017e-17)
(2.97918016644 0.0877600571825 -8.43080524234e-18)
(-0.694197261452 -0.171702629643 -1.16308276219e-17)
(-0.519680819874 -0.0151155633524 0)
(-0.44222867614 0.00291412649226 -7.24261579123e-18)
(-0.478320512132 -0.00439131473095 -3.7097189101e-19)
(-0.531751166645 -0.00472167246496 8.07208430225e-18)
(-1.05369803761 0.00738948201364 0)
(-0.46299205094 -0.0340762012057 0)
(-0.252544775632 0.00194266139682 1.4185494644e-17)
(-0.330213571053 0.0352029147218 -2.07346769734e-18)
(-0.461714804953 0.0149144469916 -1.64135213633e-18)
(-1.10487957205 0.000526771264499 1.38132698467e-17)
(-1.19549965069 -0.0101233750648 -7.57339229556e-17)
(-1.19448032227 -0.0525229174433 3.94898925146e-18)
(-1.09476037303 -0.133462469426 4.72725519685e-17)
(-0.961561555125 -0.217358433267 1.42854619616e-17)
(-1.79689003241 -0.0192507976665 -1.48798552629e-17)
(-1.93677597138 -0.0901700836703 -5.5576980843e-17)
(-1.87436201299 -0.222271322651 1.69021723596e-18)
(-1.59879585687 -0.408450301635 8.67207760413e-18)
(-1.16781541724 -0.45427531453 -3.33416142173e-19)
(-1.34983096375 0.822189187697 -4.19061842196e-18)
(-1.30934511301 0.896053573569 1.23674729668e-17)
(-1.16951462189 0.88466986441 4.21493464301e-19)
(-0.952045013975 0.810763482964 3.60270678317e-18)
(-0.609703814165 0.601518942688 -5.60553969869e-18)
(-1.059591216 0.809348835125 1.18529438221e-17)
(-0.984147730546 0.835523248302 4.19119970408e-17)
(-0.819865352471 0.766232532537 1.35175499456e-17)
(-0.622399787827 0.648639131753 -6.17669794788e-18)
(-0.376736980476 0.489561339872 -3.13412208973e-18)
(-0.732113360397 0.814653531531 -2.34595919839e-17)
(-0.663020171879 0.789603105674 1.70259770786e-18)
(-0.520287805894 0.671717705299 3.40102979174e-17)
(-0.357903338664 0.469696592991 6.52691719042e-18)
(-0.194853154435 0.328485139966 3.9360883869e-18)
(-0.431916840906 0.792387683251 -3.82220878129e-17)
(-0.389243238436 0.719537801157 -2.63467856354e-17)
(-0.29565700818 0.590110286104 1.60405323811e-17)
(-0.178707791147 0.404082726507 1.4067767751e-17)
(-0.0570840784761 0.172873820218 1.40987760791e-18)
(-0.260664612148 0.774525017164 -5.61524739918e-18)
(-0.249039261273 0.647408671566 -7.67271013301e-18)
(-0.196318062214 0.487317133938 1.49447185322e-18)
(-0.137028981813 0.29969489312 3.25122301052e-18)
(-0.0676798557864 0.064992022587 -1.79188857142e-19)
(-2.7667855468 0.0616389766801 -3.70816252679e-17)
(-2.89460177939 0.188609317257 6.50104777922e-18)
(-2.4469796121 0.177653123038 -8.45022285773e-18)
(-2.46570107561 0.166568971991 -7.74678623652e-18)
(-1.68334843333 0.135711073323 -1.07497754008e-17)
(-2.51069965032 0.244429361159 -4.8046833699e-17)
(-2.37191015089 0.408776161767 -3.76811796702e-17)
(-2.42700207401 0.458814539453 -5.12466648982e-18)
(-2.31891893644 0.468553601832 -1.66454909005e-17)
(-1.60307768975 0.367565353106 1.10765082963e-17)
(-2.11164551843 0.47922874751 8.7745454344e-17)
(-2.02271703444 0.549423550257 1.36245373577e-17)
(-2.24038946912 0.670283215959 -1.39941624391e-17)
(-2.06922839167 0.70737678473 -8.09992308517e-18)
(-1.42097424873 0.542469784505 -3.16613880427e-19)
(-1.59814593576 0.58589946247 -1.98968919062e-17)
(-1.81428608551 0.676215312231 3.97183369885e-17)
(-1.91850769211 0.829846630668 1.75424598871e-18)
(-1.71693853841 0.843237548864 7.38785857434e-18)
(-1.16278600144 0.636589260913 -1.69131632474e-17)
(-1.42771453875 0.617935490136 -1.87411029016e-18)
(-1.6051518964 0.812766706314 -1.56580966856e-17)
(-1.55252798373 0.906783866001 7.59762696835e-18)
(-1.33213556113 0.874126846517 5.54303692819e-18)
(-0.880410287361 0.651136168095 1.17540646017e-21)
(1.46851180352 1.07416739812 5.09418374946e-19)
(0.452495029502 0.357807104815 -1.47981690381e-18)
(0.0910549453986 -0.00255220593411 -2.71150248154e-17)
(0.167298686254 0.179428417033 1.15139218802e-17)
(-1.03035315988 0.316922326536 4.61437604338e-18)
(1.85879196471 1.24953365791 5.81278831176e-19)
(1.34991040582 0.448633584482 4.47371063347e-18)
(0.874485771151 0.0305022470541 -2.4641653752e-17)
(0.831746754641 0.314101306767 -7.73108905903e-18)
(-0.914853588165 0.556524697598 -1.26971683589e-17)
(2.10940821744 1.18346539759 1.48784525322e-17)
(2.04571789758 0.488116904113 2.44279614075e-18)
(1.54998155155 0.0785834939525 7.59934673337e-18)
(1.26434110805 0.533816299371 2.82994113414e-18)
(-0.562902165509 0.806999002735 -1.99752166499e-17)
(2.2468128993 1.01536789377 -2.3448939415e-17)
(2.60010504562 0.491454095783 -5.66123562357e-18)
(2.10971974188 0.176287086493 -2.43675839471e-18)
(1.47975948692 0.82329574173 -4.86802880947e-17)
(-0.210842093055 1.1054998027 -7.28436438217e-19)
(2.30317358646 0.767332310204 -5.20091629994e-18)
(2.97777824733 0.416806709189 1.81462024607e-17)
(2.51263475109 0.318339159183 -1.13122297611e-17)
(1.56726928197 1.14951129301 -1.99038097783e-17)
(0.087098731633 1.41121071845 7.05777479881e-17)
(0.363585162743 0.112472711811 0)
(-0.36605307729 -0.0690629782155 1.91011249102e-18)
(-0.492441835116 -0.0547939966329 -7.41861622803e-18)
(-0.509297211137 0.0170109563703 -3.3068922661e-18)
(-0.696628695663 0.168827219554 2.21715308047e-17)
(0.966160177102 0.635426521392 -7.5346460781e-18)
(-0.13277741583 0.197337775968 -2.48416779081e-17)
(-0.395508787588 0.0208649741304 2.37271611138e-17)
(-0.423041654639 0.0263691327628 3.55479724282e-17)
(-1.03207188111 -0.00587344206633 2.65229743285e-17)
(-0.963812063604 0.216707488215 5.71006917185e-18)
(-1.09491898903 0.133287583201 -4.25029111285e-17)
(-1.19559513568 0.0518027150791 -1.81199739117e-17)
(-1.19644790279 0.00971136507901 -4.56061893188e-18)
(-1.1057556249 -0.000866128020591 0)
(-1.16231109708 0.451631138995 -4.41658922566e-17)
(-1.59300593536 0.409183423058 -9.34227117897e-17)
(-1.87179470255 0.221928392495 7.36580625823e-17)
(-1.93523057306 0.0893677946528 2.16244207095e-17)
(-1.79723714405 0.0186767967306 -2.32173630207e-17)
)
;

boundaryField
{
    left
    {
        type            fixedValue;
        value           uniform (1 0 0);
    }

    right
    {
        type            zeroGradient;
    }

    down
    {
        type            noSlip;
    }

    up
    {
        type            noSlip;
    }

    cylinder
    {
        type            noSlip;
    }

    defaultFaces
    {
        type            empty;
    }
}

// ************************************************************************* //
