/*--------------------------------*- C++ -*----------------------------------*\
  =========                 |
  \\      /  F ield         | OpenFOAM: The Open Source CFD Toolbox
   \\    /   O peration     | Website:  https://openfoam.org
    \\  /    A nd           | Version:  13
     \\/     M anipulation  |
\*---------------------------------------------------------------------------*/
FoamFile
{
    format      ascii;
    class       volScalarField;
    location    "0.59";
    object      p;
}
// * * * * * * * * * * * * * * * * * * * * * * * * * * * * * * * * * * * * * //

dimensions      [0 2 -2 0 0 0 0];

internalField   nonuniform List<scalar> 
1800
(
5.74601
7.85312
10.0059
11.4344
12.2688
12.6794
12.8105
12.6532
11.4072
7.31533
9.59606
12.0718
14.5767
16.2608
17.3174
17.9802
18.4349
18.6741
17.9498
15.2722
15.9888
18.6135
21.2862
23.1496
24.4098
25.2916
25.9424
26.3259
25.8548
24.0239
24.9842
27.5536
30.2021
32.1166
33.4819
34.491
35.2535
35.7055
35.2995
33.6149
36.043
38.4039
40.8562
42.6678
43.9922
44.9884
45.743
46.1924
45.8422
44.2867
48.7201
50.7727
52.9163
54.5226
55.7136
56.6159
57.2982
57.7088
57.4277
56.0683
62.6687
64.3415
66.0972
67.4292
68.4313
69.2009
69.7923
70.1693
69.9943
68.9056
77.5946
78.8362
80.1473
81.1566
81.9326
82.5464
83.0406
83.3954
83.362
82.6256
93.2129
93.9926
94.8241
95.479
96.0018
96.4393
96.8221
97.1455
97.2557
96.9213
109.242
109.546
109.878
110.153
110.391
110.612
110.829
111.042
111.203
111.231
-0.601716
-0.853967
-0.631439
-0.216988
0.255156
0.722553
1.08214
1.29329
1.43825
1.58462
-0.483182
-0.997454
-1.10576
-0.898868
-0.474793
-0.0504263
0.243026
0.485761
0.765483
1.03862
0.512303
-0.453533
-1.28293
-1.44756
-1.12063
-0.813941
-0.599129
-0.29347
0.113594
0.499331
0.904093
-0.235923
-1.43107
-1.76886
-1.54876
-1.39391
-1.26731
-0.961472
-0.504414
0.00350464
0.473718
-0.493285
-1.43171
-1.72246
-1.66516
-1.67463
-1.63674
-1.37427
-0.882746
-0.188407
-0.227742
-0.74412
-1.14366
-1.27291
-1.29332
-1.35786
-1.34935
-1.14029
-0.615354
0.317287
-0.560886
-0.522916
-0.346051
-0.199886
-0.115176
-0.0943341
-0.0554668
0.114839
0.693023
1.92334
-0.0758059
0.510586
1.23168
1.73619
2.06581
2.2792
2.42892
2.64594
3.37691
5.03935
1.37256
2.48053
3.729
4.65051
5.32054
5.81295
6.15314
6.49258
7.47969
9.76738
3.61516
5.25805
7.07623
8.45217
9.4749
10.2351
10.7576
11.2108
12.2721
14.4355
2.30177
2.44077
2.33446
2.0908
1.58959
1.18646
0.856877
0.584228
0.355117
0.134459
1.9518
2.41683
2.22958
2.00642
1.50547
1.10736
0.80773
0.56718
0.355151
0.137915
1.4738
2.3873
2.12797
1.91344
1.42906
1.03985
0.763517
0.549577
0.350767
0.138279
0.849206
2.3051
2.02801
1.80695
1.35278
0.979253
0.724941
0.533159
0.343236
0.135885
0.155498
2.12973
1.91797
1.68476
1.27134
0.922203
0.690492
0.51789
0.337234
0.13396
-0.416773
1.85137
1.78024
1.54516
1.18128
0.866851
0.659128
0.504114
0.333797
0.134313
-0.565907
1.50343
1.60138
1.38544
1.08029
0.811649
0.630665
0.492296
0.333543
0.13657
0.162907
1.17451
1.37226
1.19656
0.964416
0.754263
0.604724
0.482788
0.335348
0.139263
2.41938
1.0384
1.07216
0.953868
0.824902
0.691379
0.58025
0.475368
0.331971
0.136141
6.65441
1.40756
0.715255
0.636988
0.653624
0.620845
0.556338
0.464322
0.321183
0.126176
9.98191
2.57926
0.692685
0.395948
0.476108
0.54026
0.523974
0.440441
0.29906
0.110822
11.7673
2.5743
0.26795
0.0573938
0.355361
0.502717
0.488929
0.397903
0.262295
0.086158
12.8641
2.77759
0.393864
0.148348
0.464759
0.562386
0.487636
0.365776
0.225633
0.0595357
14.1836
4.36324
1.27756
0.722386
0.785443
0.711987
0.527109
0.349424
0.192817
0.0325812
16.3603
7.10817
2.70027
1.58965
1.24009
0.932202
0.608976
0.353814
0.168492
0.00834039
19.2514
9.8755
4.33603
2.55852
1.77338
1.20259
0.725424
0.379822
0.156095
-0.0102179
21.7563
11.9381
5.85488
3.52028
2.34159
1.50187
0.864777
0.424881
0.157163
-0.0208366
23.0355
13.1212
7.05204
4.42085
2.91625
1.81549
1.01807
0.485373
0.17173
-0.0222034
22.9753
13.5001
7.9125
5.26811
3.50588
2.15134
1.19121
0.564943
0.203422
-0.0124945
22.4224
13.725
8.68369
6.129
4.13192
2.52966
1.40615
0.680495
0.2702
0.0136648
111.787
97.8412
84.0765
71.0712
59.1318
48.3516
38.7701
30.0934
20.0821
4.97688
112.767
99.4789
85.978
72.9715
60.9285
50.0477
40.5146
32.2567
23.5917
11.4783
113.299
100.213
87.333
75.0065
63.4677
52.8758
43.4459
35.2573
27.471
18.3369
114.511
102.771
90.8118
78.9808
67.624
57.0286
47.3954
38.7949
31.088
23.8249
115.088
104.077
93.1563
82.4651
72.1181
62.1936
52.731
43.8203
36.0019
29.8228
115.438
104.71
94.2038
84.042
74.3214
65.092
56.3327
48.0913
41.0496
36.0325
115.669
105.11
94.7986
84.8664
75.4236
66.5431
58.2344
50.5668
44.2129
40.0935
115.77
105.248
94.9816
85.1102
75.756
67.0101
58.9064
51.513
45.3963
41.4367
115.719
105.033
94.6072
84.5881
75.1089
66.2763
58.1463
50.7768
44.553
40.1003
115.596
104.649
93.9613
83.6837
73.9583
64.9081
56.6134
49.1186
42.6097
37.4149
234.125
229.762
228.195
227.754
227.663
227.915
228.649
230.03
232.182
234.321
225.562
222.544
221.495
221.456
221.682
222.167
223.097
224.705
227.176
229.652
216.048
213.874
213.101
213.226
213.658
214.361
215.486
217.256
219.87
222.468
205.742
203.715
203.011
203.207
203.751
204.58
205.804
207.612
210.181
212.701
194.418
192.509
191.854
192.042
192.574
193.386
194.563
196.257
198.612
200.902
182.052
180.327
179.733
179.875
180.328
181.04
182.075
183.553
185.582
187.548
168.705
167.243
166.749
166.852
167.208
167.781
168.62
169.813
171.44
173.011
154.571
153.455
153.1
153.178
153.433
153.846
154.453
155.315
156.486
157.614
139.963
139.249
139.042
139.091
139.236
139.471
139.821
140.323
141.005
141.661
125.438
125.094
124.953
124.906
124.894
124.916
124.982
125.102
125.279
125.455
246.546
246.783
247.035
247.252
247.551
248.05
248.601
248.937
248.944
248.432
246.624
246.954
247.356
247.661
247.861
248.196
248.618
248.534
247.72
246.702
246.639
247.034
247.479
247.79
247.873
248.003
248.284
247.924
246.537
245.282
246.52
247.022
247.452
247.683
247.616
247.503
247.539
247.116
245.82
244.662
246.029
246.684
247.073
247.18
247.002
246.726
246.55
246.191
245.381
244.59
244.822
245.665
246.002
245.967
245.737
245.454
245.258
245.087
244.847
244.56
242.476
243.573
243.912
243.797
243.588
243.424
243.39
243.522
243.829
244.068
238.591
240.078
240.548
240.482
240.399
240.451
240.689
241.184
241.997
242.736
233.118
235.172
235.882
235.95
236.076
236.423
237.01
237.916
239.22
240.432
227.763
229.628
230.374
230.541
230.849
231.466
232.408
233.759
235.606
237.314
246.946
246.722
246.686
246.49
246.419
246.295
245.919
245.665
245.565
245.712
246.905
246.722
246.682
246.493
246.418
246.302
245.93
245.65
245.378
245.736
246.878
246.718
246.673
246.488
246.41
246.304
245.934
245.6
245.145
245.824
246.86
246.71
246.66
246.476
246.396
246.301
245.926
245.513
244.93
246.013
246.848
246.7
246.644
246.457
246.377
246.29
245.904
245.406
244.797
246.251
246.841
246.689
246.626
246.434
246.353
246.266
245.869
245.314
244.771
246.359
246.839
246.675
246.606
246.408
246.325
246.231
245.834
245.262
244.817
246.024
246.842
246.657
246.585
246.38
246.292
246.19
245.816
245.264
244.836
244.786
246.851
246.635
246.56
246.348
246.258
246.16
245.846
245.337
244.657
242.01
246.867
246.612
246.532
246.314
246.226
246.158
245.947
245.461
243.977
237.294
246.905
246.586
246.492
246.259
246.163
246.088
245.872
245.129
242.441
233.741
247.021
246.568
246.455
246.211
246.11
246.131
246.073
245.332
242.176
231.798
247.263
246.575
246.42
246.135
246.032
246.096
246.071
245.241
241.887
230.535
247.717
246.63
246.391
246.053
245.894
245.827
245.624
244.541
240.486
229.319
248.555
246.697
246.414
245.96
245.681
245.316
244.748
243.232
238.014
227.464
250.389
246.764
246.52
245.887
245.39
244.652
243.657
241.569
235.376
224.916
254.268
247.075
246.673
245.827
245.036
243.938
242.558
239.954
233.31
222.585
262.574
248.213
246.947
245.782
244.663
243.249
241.555
238.664
232.07
221.328
280.134
250.948
247.597
245.815
244.31
242.598
240.647
237.732
231.627
221.358
306.104
254.995
249.102
246.027
244.02
241.977
239.763
236.916
231.356
221.885
236.419
221.068
210.446
201.132
190.971
179.667
167.272
153.899
139.854
125.724
230.029
217.734
208.583
199.862
189.925
178.686
166.34
153.089
139.365
125.891
223.496
214.131
205.953
197.426
187.711
176.871
165.118
152.617
139.6
126.422
218.383
210.876
202.884
194.034
184.191
173.426
161.933
149.99
137.927
126.092
212.986
206.592
198.599
189.504
179.835
169.697
159.146
148.279
137.223
126.131
207.387
202.09
194.83
186.36
177.361
167.906
157.987
147.664
137.044
126.257
203.591
199.151
192.562
184.665
176.132
167.046
157.425
147.351
136.94
126.329
202.309
198.051
191.706
184.093
175.78
166.844
157.325
147.322
136.963
126.394
203.636
198.921
192.471
184.886
176.554
167.539
157.901
147.755
137.24
126.508
206.309
200.875
194.138
186.427
177.932
168.7
158.818
148.414
137.638
126.645
112.187
112.357
112.442
112.293
111.786
111.425
111.24
111.525
111.518
111.269
89.6128
90.0761
90.2947
89.8612
88.4292
87.3428
86.7219
87.3835
87.4212
86.8346
68.77
69.3977
69.659
68.9923
67.0529
65.3412
64.321
64.8697
65.1741
64.6189
50.6526
51.259
51.4486
50.6255
48.6464
46.4804
45.1504
45.1858
45.9242
45.6908
36.0076
36.416
36.4663
35.5849
33.7931
31.4772
29.8334
29.2682
30.0757
30.2634
24.9555
25.059
24.9369
24.0137
22.4362
20.4068
18.616
17.6744
17.9295
18.4295
17.0692
16.9188
16.7039
15.713
14.2987
12.7953
11.3078
10.2428
9.90311
10.2696
11.5822
11.4053
11.3568
10.3575
9.03865
8.03678
7.14503
6.30208
5.71368
5.62999
7.9083
7.82002
8.11602
7.24829
6.08236
5.4918
5.16275
4.77794
4.29401
3.91444
6.03983
5.83482
6.22025
5.48256
4.61326
4.33704
4.36078
4.35121
4.19859
3.80275
5.27326
5.03637
5.11864
4.42439
3.89207
3.83559
3.98504
4.12756
4.24861
4.30532
4.8468
4.73764
4.46016
3.79377
3.50759
3.59445
3.79726
3.96466
4.08436
4.17065
4.46893
4.42415
3.99234
3.44155
3.32104
3.48332
3.70767
3.88623
4.00417
4.06454
4.01517
3.96027
3.55415
3.20237
3.21175
3.41443
3.62699
3.78413
3.88266
3.92399
3.46816
3.37498
3.10145
2.98112
3.09737
3.31378
3.50367
3.64114
3.72237
3.74611
2.81821
2.7238
2.66367
2.75325
2.94951
3.15372
3.3194
3.43876
3.50564
3.51905
2.09567
2.11171
2.24583
2.47986
2.7152
2.91352
3.06867
3.18228
3.24846
3.26386
1.42265
1.54042
1.79127
2.08384
2.33943
2.55351
2.72909
2.86747
2.9548
2.98284
0.746767
0.882048
1.15661
1.48481
1.79383
2.06476
2.30154
2.48602
2.59081
2.62849
0.074795
-0.00936289
0.225326
0.635965
1.05537
1.43651
1.76002
1.97507
2.07853
2.14168
3.6601
3.70317
3.57238
3.24637
2.5967
1.91097
1.32178
0.850997
0.458315
0.102586
3.73285
3.67729
3.522
3.23037
2.55729
1.85486
1.26919
0.812958
0.436814
0.101833
3.75947
3.57161
3.41054
3.17638
2.51331
1.80184
1.21912
0.777089
0.417705
0.102654
3.72071
3.39572
3.25817
3.07424
2.45611
1.75018
1.17159
0.743518
0.40105
0.104514
3.61329
3.18792
3.09034
2.92129
2.37384
1.69541
1.12594
0.712255
0.38687
0.107376
3.45026
2.99043
2.93016
2.73781
2.26023
1.63369
1.08204
0.683723
0.375301
0.111176
3.25702
2.82319
2.78677
2.55565
2.11816
1.56146
1.03943
0.658354
0.366435
0.115724
3.04979
2.68602
2.66064
2.39889
1.96285
1.47622
0.997026
0.636272
0.360218
0.120711
2.82687
2.57422
2.54723
2.27442
1.81554
1.3794
0.953345
0.617202
0.356476
0.125734
2.58104
2.49058
2.44014
2.17588
1.69059
1.27908
0.906626
0.600318
0.354951
0.130446
5.42124
3.97517
3.27722
2.89811
2.41781
1.89886
1.40027
0.945161
0.536567
0.133749
4.61744
3.75443
3.31317
2.95902
2.45822
1.90757
1.38801
0.926962
0.517129
0.123878
3.94755
3.66232
3.37373
3.02825
2.49736
1.91528
1.37676
0.910727
0.502152
0.115833
3.62771
3.66264
3.45894
3.10835
2.53839
1.9227
1.36575
0.895463
0.489261
0.109812
3.61297
3.70569
3.5605
3.20055
2.58413
1.93028
1.35364
0.879451
0.476788
0.105674
112.018
88.951
67.8999
50.1283
36.1135
25.7932
18.6232
13.7478
10.5658
8.75173
111.797
88.3886
67.1937
49.3939
35.3113
24.789
17.3195
12.2142
9.07143
7.57134
111.611
87.9084
66.5554
48.6533
34.4001
23.6163
15.8992
10.6794
7.5348
6.0769
111.401
87.3346
65.7151
47.5885
33.0755
22.0222
14.1276
8.89487
5.80952
4.43395
111.146
86.6066
64.5858
46.1155
31.2754
19.9546
11.959
6.92272
4.43961
3.62376
243.765
243.803
243.922
244.094
244.307
244.316
243.812
243.11
243.213
242.99
243.978
244.049
244.163
244.352
244.623
244.798
244.58
243.93
243.672
243.565
244.174
244.222
244.335
244.532
244.817
245.079
245.053
244.546
244.117
244.067
244.416
244.449
244.547
244.721
244.978
245.267
245.373
245.103
244.717
244.649
244.69
244.708
244.789
244.939
245.154
245.418
245.622
245.625
245.459
245.368
244.981
244.994
245.063
245.185
245.358
245.589
245.86
246.102
246.208
246.196
245.254
245.272
245.355
245.49
245.666
245.896
246.197
246.558
246.861
246.984
245.538
245.556
245.653
245.844
246.099
246.399
246.759
247.172
247.536
247.717
245.918
245.947
246.025
246.247
246.618
247.07
247.575
248.094
248.438
248.4
246.311
246.421
246.522
246.713
247.112
247.681
248.282
248.832
249.183
248.978
136.5
136.241
136.218
136.481
136.263
135.865
135.324
135.152
135.223
135.388
160.951
160.354
160.375
161.013
160.36
159.238
157.774
157.317
157.523
157.981
183.195
182.629
182.916
183.439
182.388
180.643
178.674
177.986
178.234
178.857
202.161
201.915
202.634
202.644
201.286
199.089
197.081
196.237
196.415
197.017
217.632
217.807
218.591
218.003
216.335
213.991
212.17
211.267
211.306
211.711
229.512
229.994
230.224
229.264
227.456
225.4
223.79
222.844
222.711
222.812
237.712
238.048
237.685
236.611
235.119
233.591
232.14
231.124
230.899
230.747
242.367
242.247
241.637
240.803
239.925
238.907
237.554
236.528
236.469
236.291
244.091
243.672
243.179
242.82
242.523
241.937
240.748
239.852
240.138
240.053
244.23
243.804
243.651
243.672
243.744
243.502
242.628
241.867
242.252
242.062
254.847
246.876
247.502
246.288
246.04
245.533
244.997
244.632
244.502
244.539
252.013
246.812
247.316
246.267
246.092
245.596
245.013
244.666
244.578
244.511
250.091
246.819
247.094
246.264
246.148
245.663
245.056
244.76
244.748
244.543
248.905
246.848
246.882
246.283
246.205
245.737
245.137
244.914
244.977
244.649
248.219
246.85
246.744
246.322
246.262
245.82
245.266
245.105
245.218
244.818
247.771
246.808
246.707
246.371
246.314
245.912
245.433
245.292
245.424
245.024
247.456
246.753
246.706
246.414
246.359
246.015
245.608
245.445
245.577
245.233
247.241
246.725
246.698
246.447
246.391
246.118
245.752
245.552
245.674
245.424
247.099
246.719
246.69
246.47
246.405
246.207
245.847
245.618
245.711
245.582
247.006
246.72
246.688
246.482
246.414
246.267
245.896
245.653
245.678
245.677
317.351
253.759
249.911
246.972
246.144
245.574
245.253
244.93
244.236
242.718
295.618
251.37
248.79
246.74
246.062
245.545
245.208
244.9
244.448
243.52
277.177
249.214
248.193
246.567
246.021
245.526
245.158
244.842
244.531
244.192
265.775
247.869
247.869
246.438
246.003
245.515
245.1
244.76
244.521
244.521
259.003
247.139
247.647
246.329
246
245.507
245.031
244.657
244.475
244.553
239.297
237.448
234.232
229.325
222.122
211.769
197.718
179.913
158.837
135.756
240.48
238.944
235.769
230.633
223.131
212.574
198.455
180.621
159.401
135.977
241.992
240.495
237.314
232.061
224.31
213.49
199.198
181.261
159.882
136.164
243.655
242.249
239.121
233.847
225.912
214.819
200.266
182.103
160.455
136.373
244.444
243.606
241.104
236.033
227.99
216.624
201.741
183.232
161.183
136.626
)
;

boundaryField
{
    left
    {
        type            zeroGradient;
    }
    right
    {
        type            fixedValue;
        value           uniform 0;
    }
    down
    {
        type            zeroGradient;
    }
    up
    {
        type            zeroGradient;
    }
    cylinder
    {
        type            zeroGradient;
    }
    defaultFaces
    {
        type            empty;
    }
}


// ************************************************************************* //
