# Selection   : all
# Cells       : 1800
# Volume      : 7.372328e+01
# Time        	max(p)
0.65          	1.195382e+00
0.675         	1.795591e+00
0.7           	1.850213e+00
