/*--------------------------------*- C++ -*----------------------------------*\
  =========                 |
  \\      /  F ield         | OpenFOAM: The Open Source CFD Toolbox
   \\    /   O peration     | Website:  https://openfoam.org
    \\  /    A nd           | Version:  13
     \\/     M anipulation  |
\*---------------------------------------------------------------------------*/
FoamFile
{
    format      ascii;
    class       surfaceScalarField;
    location    "67.9";
    object      phi;
}
// * * * * * * * * * * * * * * * * * * * * * * * * * * * * * * * * * * * * * //

dimensions      [0 3 -1 0 0 0 0];

internalField   nonuniform List<scalar> 
823
(
0.000272149
0.0154655
-0.0157377
0.0275427
0.000117823
-0.0273884
0.102212
-0.05788
-0.0167893
0.213388
-0.129861
0.0186846
-0.188428
0.0359062
0.36591
0.0087325
0.00673301
0.0705154
-0.0616651
0.180344
-0.167708
0.306302
-0.255819
-0.329978
0.447852
0.029215
-0.022482
0.128616
-0.161066
0.245232
-0.284324
0.347676
-0.358263
-0.394726
0.412423
0.0529248
-0.0754067
0.152801
-0.260941
0.229206
-0.36073
0.268892
-0.397949
-0.407404
0.28157
0.0627112
-0.138118
0.128626
-0.326856
0.161335
-0.393439
0.17292
-0.409533
0.18075
-0.415234
0.00618724
0.0993403
-0.105528
-0.00395467
0.159418
-0.149276
-0.0101634
0.16569
-0.159481
-0.00654105
0.148789
-0.152411
0.121383
0.00810267
-0.136026
0.0420646
0.0572757
0.0854257
0.116057
0.11955
0.131565
0.148216
0.120123
0.101042
0.168557
0.0288183
0.0284575
0.0726329
0.0722421
0.113444
0.0907542
0.146527
0.0870396
0.0789303
0.168639
0.0129862
0.0154713
0.0438583
0.04137
0.0831526
0.05146
0.126906
0.0432862
0.0360001
0.169836
-0.00026638
0.0137152
0.0483859
0.110357
0.182263
0.12146
-0.503956
0.390598
0.314985
-1.80734
1.61382
0.491579
0.650534
-0.827127
0.398668
0.925106
-0.832195
-0.184047
0.185917
0.195799
-0.531198
0.244894
-1.85644
0.503754
0.391674
0.418755
1.0101
-0.21015
0.178837
-0.541397
0.214892
-1.89249
0.389466
0.2171
0.407349
0.992222
-0.305786
0.45561
-0.827171
0.396062
-1.83295
0.328054
0.285108
0.462871
0.857405
-0.440867
0.519249
-1.16416
0.502759
-1.81646
0.398297
0.38957
0.571097
0.684605
-0.564051
1.32515
-1.17058
-1.31874
0.934474
-1.42577
0.751714
0.57233
1.10555
0.330767
-0.623263
1.19225
-0.89405
-1.46878
0.516535
-0.750057
0.622181
0.466685
1.1368
-0.183851
-0.60352
1.14288
-0.662393
-1.37454
0.656045
-0.263219
0.869315
0.253414
1.1442
-0.458739
-0.459679
0.93803
-0.33324
-1.26718
0.7322
-0.0573885
0.978443
0.00717098
0.842043
-0.322339
-0.182575
0.473102
-0.806342
0.415714
0.422885
0.100546
1.14463
0.146079
-1.10996
1.2366
0.189601
1.3353
0.313729
1.40773
0.375416
0.454906
1.02731
0.0841456
-0.965381
1.10673
0.110182
1.21325
0.207214
1.33459
0.254078
0.320713
0.979876
0.0347539
-0.930485
1.02855
0.0615135
1.12162
0.114142
1.23464
0.141057
0.180812
0.925166
0.00422276
-0.894635
0.969378
0.0173021
1.04749
0.0360302
1.14451
0.0440382
0.0581363
0.650835
-0.646613
0.668137
0.704168
0.748206
0.146509
0.309085
-0.251616
-0.203979
0.0983017
0.313886
-0.265678
0.0560555
0.324672
-0.282426
0.0200131
0.316979
-0.280937
0.205858
-0.185845
0.106404
0.345671
-0.14299
0.0693191
0.350971
0.0360113
0.35798
0.00948498
0.343506
0.215343
0.0787646
0.384626
-0.117719
0.0444055
0.38533
0.0145697
0.387816
-0.00367951
0.361755
0.211664
-0.000701367
0.400417
-0.0150897
-0.0196782
0.404307
-0.0302482
0.398386
-0.02515
0.356657
0.186514
-0.0779166
0.0630994
-0.0831431
-0.0781962
-0.0483956
0.197457
0.112261
-0.25073
-0.0589877
0.143542
0.1168
-0.062885
0.0887818
0.121643
-0.0668832
0.0359755
0.12134
-0.0685342
0.0859759
-0.0500005
0.1942
0.154547
-0.236485
0.148503
0.162497
0.0966548
0.173491
0.041082
0.176913
0.127058
0.135812
0.200239
-0.181505
0.0946468
0.203662
0.0561049
0.212033
0.0201917
0.212826
0.14725
0.156294
0.231832
-0.187887
0.116929
0.243027
0.0721381
0.256824
0.0283501
0.256615
0.1756
0.082821
-0.102605
0.0601697
0.0345677
0.0102454
0.408963
0.0517971
-0.0647804
0.421376
0.0690252
-0.0814388
0.408384
0.194971
-0.181978
0.395383
0.235271
-0.222271
0.517151
-0.372497
0.406564
0.0412126
0.414238
0.0613509
0.398891
0.210318
0.381719
0.252443
0.662385
0.399282
0.0379101
0.407508
0.053125
0.376944
0.240882
0.373872
0.255515
0.854752
0.394116
0.0397736
0.391269
0.0559719
0.37058
0.261572
0.348701
0.277394
1.01557
0.383715
0.0520385
0.380859
0.0588274
0.34066
0.301771
0.324297
0.293756
1.23726
0.613042
0.0430173
0.639986
0.0318831
0.702886
0.238872
0.787329
0.209313
1.00325
1.02133
0.618684
0.0283534
0.645487
0.00508015
0.761699
0.12266
0.780267
0.190745
0.782181
1.00134
0.62888
0.00349365
0.677931
-0.0439702
0.762711
0.0378798
0.778408
0.175048
0.530921
1.02967
0.647202
-0.0396876
0.667361
-0.0641291
0.695194
0.0100466
0.781409
0.0888329
0.244389
1.06794
0.564333
0.500204
0.51025
0.599083
0.843473
1.05565
-0.23829
1.04386
-0.131209
1.05564
-0.12949
1.05167
-0.0111219
0.00480567
0.951114
-0.188066
0.941569
-0.121664
0.925919
-0.113839
0.943766
-0.0289687
-0.0168101
0.968352
-0.12675
0.949283
-0.102595
0.918373
-0.0829297
0.929483
-0.0400787
-0.0178118
0.999273
-0.0580823
0.949364
-0.0526866
0.90913
-0.0426955
0.897385
-0.0283337
-0.0150619
0.78539
0.732704
0.690008
0.661674
0.0467177
0.136561
-0.183279
0.0714663
0.305675
-0.330423
0.0725098
0.36077
-0.361814
0.0626625
0.3649
-0.355052
0.334113
0.0501662
-0.321617
0.0669945
0.0695664
0.138094
0.234575
0.172955
0.32591
0.177533
0.360322
0.354269
0.157377
0.0553518
0.0142146
0.16534
0.124587
0.258851
0.232399
0.324406
0.294767
0.347438
0.331237
0.0258986
-0.011684
0.119395
0.0310909
0.238361
0.113432
0.35641
0.176718
0.247046
0.456802
0.00513457
-0.0168186
0.0506572
-0.0144318
0.145887
0.0182028
0.264804
0.0578006
0.104213
0.407637
-0.00352965
-0.0132889
0.00681187
-0.0247733
0.0481755
-0.0231609
0.117205
-0.0112286
0.0191145
0.202304
-0.000905466
-0.0123835
0.00162161
-0.0273004
0.0135323
-0.0350716
0.0378344
-0.0355306
-0.0246596
0.0816084
-0.00242075
-0.00996273
-0.00640778
-0.0233134
-0.0130575
-0.0284219
-0.0211496
-0.0274384
-0.0257115
-0.0200977
-0.0353092
0.0253465
-0.0936216
0.034999
-0.167615
0.0455711
-0.248626
0.0535728
0.0488865
-0.323224
-0.0801811
-0.194458
-0.308368
-0.407206
-0.494346
0.333486
0.837069
-0.968252
0.449425
0.0368152
-0.152755
0.248
0.55355
-0.352125
0.109065
0.20003
-0.0610947
-0.309079
0.276591
0.342193
0.576485
0.511287
-0.132279
0.363803
0.701035
0.205295
0.358538
-0.292126
0.203362
0.353026
0.531663
-0.460581
0.44995
0.782748
0.282601
0.525887
-0.255706
-0.0114588
0.0412608
0.57396
-1.046
0.505181
0.851527
0.342397
0.68867
-0.217256
-0.0624873
0.505332
0.529732
0.386207
-0.0252006
0.61464
-0.589439
-0.0587926
0.0335919
-0.0626301
0.0038375
0.0123718
-0.0750019
-0.135914
0.677727
-1.03134
0.558564
0.210277
0.07418
0.0814003
-0.0136091
-0.0677912
0.13262
-0.0512196
0.239252
-0.106633
0.390791
-0.151539
-0.198648
0.186325
-0.149768
0.292483
0.517087
0.82235
0.13626
-0.12943
0.159206
-0.166036
0.103473
-0.134265
0.167052
0.0663177
-0.140647
0.177802
0.0267446
-0.139603
0.179176
-0.096638
0.123383
0.175031
-0.0910225
-0.213438
0.132216
-0.0914497
0.0840082
-0.0924392
0.0345348
-0.09013
-0.0621032
0.184646
-0.0424881
-0.23318
0.13462
-0.0414232
0.0833677
-0.0411873
0.0337269
-0.0404892
-0.0283763
0.19883
0.00847843
-0.249797
0.147116
0.0102917
0.0937126
0.0122157
0.0393363
0.013887
0.01096
0.200948
-0.251458
0.148355
0.0936876
0.0390404
0.0362544
-0.302261
-0.0556101
0.0130364
-0.331834
-0.00783981
-0.340937
-0.015635
-0.322628
-0.198914
0.115162
-0.273271
-0.144153
0.0745495
-0.291221
0.0354523
-0.30184
0.0065402
-0.293716
-0.192373
0.132671
-0.235759
-0.170183
0.0931655
-0.251716
0.0540752
-0.26275
0.0188322
-0.258473
-0.173541
0.150918
-0.202685
-0.183991
0.110247
-0.211045
0.0667437
-0.219247
0.0259066
-0.217636
-0.147635
0.14815
-0.191629
0.104157
0.0627113
0.024252
0.390257
0.10349
-0.097768
0.386123
0.112043
-0.107909
0.352805
0.162016
-0.128698
0.29318
0.083768
-0.024143
-0.174397
0.301542
0.398685
0.100784
0.401479
0.10925
0.392322
0.171173
0.342231
0.133859
-0.0456045
0.404158
0.0926058
0.412027
0.101381
0.40801
0.17519
0.368871
0.172998
0.0900859
0.408887
0.0796982
0.418362
0.0919063
0.416484
0.177069
0.388524
0.200958
0.228813
0.410897
0.421365
0.416456
0.395143
0.413749
0.0963016
0.324591
0.0891585
0.234159
0.0904319
0.228433
0.00572573
-0.165826
0.39426
0.508585
0.489835
0.451568
0.433151
0.568866
0.316342
0.0779176
0.246202
0.0701406
0.163586
0.0826155
0.0947747
0.0688113
0.0269835
0.455154
0.341304
0.253736
0.178395
)
;

boundaryField
{
    left
    {
        type            calculated;
        value           nonuniform List<scalar> 
17
(
-0.60402
-0.60402
-0.60402
-0.60402
-0.60402
-0.39598
-0.39598
-0.39598
-0.39598
-0.39598
-0.39598
-0.39598
-0.39598
-0.39598
-0.39598
-0.510051
-0.510051
)
;
    }
    right
    {
        type            calculated;
        value           nonuniform List<scalar> 
17
(
0.148286
0.214857
0.141553
0.188342
0.246181
0.303948
0.354868
0.396798
0.444858
0.502985
0.597952
0.69428
1.16476
1.11706
1.00036
0.56494
-0.0820296
)
;
    }
    down
    {
        type            calculated;
        value           uniform 0;
    }
    up
    {
        type            calculated;
        value           uniform 0;
    }
    cylinder
    {
        type            calculated;
        value           uniform 0;
    }
    defaultFaces
    {
        type            empty;
    }
}


// ************************************************************************* //
