# Selection   : all
# Cells       : 440
# Volume      : 7.374263e+01
# Time        	maxMag(U)
8.715         	2.775763e+00
8.76          	2.775412e+00
8.81          	2.774736e+00
