/*--------------------------------*- C++ -*----------------------------------*\
  =========                 |
  \\      /  F ield         | OpenFOAM: The Open Source CFD Toolbox
   \\    /   O peration     | Website:  https://openfoam.org
    \\  /    A nd           | Version:  13
     \\/     M anipulation  |
\*---------------------------------------------------------------------------*/
FoamFile
{
    format      ascii;
    class       volScalarField;
    location    "0.92";
    object      p;
}
// * * * * * * * * * * * * * * * * * * * * * * * * * * * * * * * * * * * * * //

dimensions      [0 2 -2 0 0 0 0];

internalField   nonuniform List<scalar> 
1800
(
5.75175
7.85885
10.0116
11.4401
12.2744
12.6849
12.8158
12.658
11.4114
7.31871
9.60048
12.0762
14.5811
16.2651
17.3216
17.9842
18.4388
18.6776
17.9529
15.2746
15.9921
18.6168
21.2895
23.1528
24.4129
25.2946
25.9452
26.3284
25.8571
24.0257
24.9867
27.5561
30.2045
32.1189
33.4842
34.4932
35.2555
35.7074
35.3011
33.6162
36.0448
38.4057
40.8579
42.6695
43.9938
44.9899
45.7444
46.1937
45.8434
44.2877
48.7214
50.7739
52.9175
54.5238
55.7147
56.6169
57.2991
57.7097
57.4285
56.069
62.6695
64.3423
66.098
67.4299
68.4319
69.2015
69.7929
70.1698
69.9947
68.9059
77.5951
78.8366
80.1477
81.157
81.9329
82.5467
83.0408
83.3956
83.3622
82.6257
93.213
93.9926
94.8241
95.479
96.0018
96.4393
96.822
97.1454
97.2556
96.9211
109.242
109.546
109.878
110.153
110.39
110.611
110.828
111.042
111.203
111.231
-0.601663
-0.854873
-0.631868
-0.216963
0.256087
0.724485
1.08417
1.29489
1.44004
1.58708
-0.467943
-0.985093
-1.09649
-0.891492
-0.467769
-0.0442349
0.247604
0.48981
0.770344
1.04427
0.53793
-0.431773
-1.26771
-1.43495
-1.10808
-0.80349
-0.591584
-0.286899
0.120625
0.50665
0.932496
-0.210898
-1.41283
-1.75243
-1.53227
-1.38044
-1.25762
-0.953532
-0.496831
0.0108915
0.500119
-0.469452
-1.41266
-1.7046
-1.64788
-1.66043
-1.62617
-1.36577
-0.875225
-0.181386
-0.206204
-0.724129
-1.12625
-1.25638
-1.27759
-1.34441
-1.33858
-1.13157
-0.608065
0.323815
-0.544394
-0.507151
-0.331473
-0.185906
-0.101824
-0.0823211
-0.0452229
0.123266
0.699888
1.92932
-0.0634099
0.522702
1.24332
1.74749
2.07674
2.28943
2.43807
2.65372
3.38335
5.04493
1.38197
2.48985
3.73815
4.65951
5.32936
5.82143
6.16103
6.4996
7.48574
9.77265
3.62247
5.26534
7.08347
8.45935
9.48203
10.2421
10.7643
11.2169
12.2775
14.4402
2.30603
2.44527
2.33749
2.09136
1.58572
1.18282
0.868111
0.598175
0.354992
0.140186
1.95823
2.42297
2.23452
2.00951
1.5035
1.10415
0.817034
0.582025
0.362976
0.15228
1.48113
2.39393
2.13395
1.91869
1.42957
1.03886
0.770931
0.562103
0.367455
0.163634
0.856166
2.31113
2.03385
1.81331
1.3552
0.981926
0.731806
0.544179
0.363913
0.174135
0.161329
2.13454
1.92269
1.6911
1.27421
0.928599
0.698275
0.52901
0.354133
0.180776
-0.41227
1.85485
1.78337
1.55074
1.18311
0.875517
0.668633
0.515377
0.358808
0.180979
-0.562576
1.5057
1.60282
1.39003
1.08016
0.820613
0.641006
0.503144
0.361915
0.174105
0.165426
1.17581
1.3721
1.20017
0.962065
0.762112
0.613718
0.491402
0.352536
0.161292
2.4215
1.03905
1.0706
0.956555
0.820657
0.69767
0.586392
0.474192
0.332423
0.142423
6.65618
1.40768
0.712593
0.638891
0.648801
0.627304
0.556704
0.451409
0.307175
0.121005
9.9807
2.57671
0.688069
0.396566
0.473534
0.551806
0.517832
0.417246
0.272524
0.0927621
11.7654
2.57351
0.268931
0.065969
0.364102
0.520152
0.483011
0.371672
0.226108
0.0563037
12.8651
2.7821
0.402257
0.163737
0.479369
0.581782
0.484975
0.340847
0.185196
0.0212862
14.1877
4.37114
1.2877
0.737208
0.797921
0.727863
0.527928
0.329201
0.153654
-0.00986146
16.3644
7.1142
2.70601
1.59822
1.24659
0.941657
0.611296
0.339895
0.135069
-0.0342952
19.2537
9.87788
4.33695
2.56126
1.77448
1.20512
0.726954
0.372149
0.131247
-0.0497726
21.7573
11.9386
5.85382
3.5201
2.33937
1.49901
0.864744
0.422647
0.142018
-0.055082
23.0362
13.1215
7.05097
4.4199
2.91253
1.80955
1.01725
0.488012
0.166247
-0.0498591
22.9762
13.5006
7.91191
5.26723
3.50178
2.14439
1.19114
0.572613
0.207697
-0.0325663
22.4233
13.7257
8.68342
6.12842
4.12825
2.52336
1.40866
0.694331
0.287441
0.00283216
111.787
97.8411
84.0765
71.0713
59.1321
48.352
38.7707
30.0941
20.0831
4.97853
112.767
99.4788
85.9781
72.9718
60.9287
50.0479
40.5148
32.2567
23.5917
11.4788
113.298
100.213
87.3333
75.0072
63.4686
52.8769
43.4471
35.2584
27.472
18.3381
114.511
102.771
90.8122
78.9818
67.6255
57.0306
47.3979
38.7977
31.0911
23.8282
115.088
104.077
93.1565
82.4657
72.119
62.1949
52.7328
43.8227
36.005
29.8264
115.437
104.71
94.2041
84.0425
74.3221
65.0929
56.3338
48.0925
41.0511
36.0343
115.669
105.11
94.7989
84.8669
75.4244
66.5441
58.2354
50.568
44.214
40.0946
115.77
105.248
94.9819
85.1108
75.7568
67.0111
58.9075
51.5142
45.3975
41.4378
115.719
105.033
94.6075
84.5886
75.1097
66.2773
58.1473
50.778
44.5542
40.1014
115.595
104.649
93.9616
83.6843
73.9591
64.9091
56.6144
49.1198
42.6108
37.416
234.12
229.756
228.188
227.746
227.654
227.905
228.639
230.02
232.172
234.311
225.558
222.539
221.489
221.449
221.675
222.159
223.09
224.697
227.169
229.645
216.045
213.87
213.097
213.221
213.652
214.355
215.48
217.25
219.864
222.462
205.739
203.711
203.007
203.203
203.747
204.576
205.8
207.608
210.177
212.696
194.416
192.507
191.852
192.039
192.571
193.383
194.559
196.254
198.608
200.899
182.05
180.325
179.731
179.873
180.326
181.037
182.073
183.55
185.58
187.545
168.704
167.241
166.748
166.85
167.206
167.779
168.618
169.811
171.438
173.009
154.57
153.454
153.099
153.176
153.432
153.844
154.451
155.314
156.484
157.612
139.962
139.248
139.041
139.09
139.235
139.47
139.82
140.322
141.004
141.66
125.437
125.093
124.953
124.906
124.893
124.915
124.982
125.101
125.279
125.455
246.557
246.796
247.049
247.267
247.565
248.066
248.619
248.956
248.96
248.446
246.628
246.96
247.363
247.67
247.87
248.206
248.631
248.546
247.728
246.707
246.636
247.032
247.477
247.789
247.873
248.003
248.285
247.925
246.537
245.282
246.513
247.015
247.445
247.676
247.609
247.494
247.529
247.106
245.812
244.655
246.02
246.674
247.063
247.168
246.989
246.711
246.533
246.173
245.365
244.576
244.813
245.655
245.991
245.954
245.721
245.436
245.239
245.067
244.827
244.541
242.467
243.564
243.9
243.783
243.572
243.406
243.371
243.502
243.809
244.049
238.583
240.069
240.537
240.469
240.384
240.435
240.672
241.167
241.98
242.718
233.11
235.164
235.872
235.938
236.063
236.409
236.996
237.901
239.205
240.417
227.756
229.621
230.365
230.531
230.838
231.454
232.396
233.747
235.594
237.302
246.937
246.719
246.678
246.491
246.422
246.31
245.935
245.678
245.576
245.722
246.895
246.717
246.673
246.493
246.422
246.322
245.944
245.659
245.381
245.74
246.866
246.713
246.664
246.488
246.414
246.324
245.942
245.602
245.142
245.82
246.848
246.707
246.651
246.476
246.4
246.318
245.928
245.507
244.921
246.005
246.836
246.698
246.635
246.456
246.38
246.303
245.899
245.397
244.786
246.242
246.83
246.686
246.617
246.432
246.354
246.274
245.86
245.303
244.761
246.351
246.828
246.672
246.597
246.405
246.323
246.234
245.823
245.253
244.808
246.018
246.831
246.653
246.575
246.375
246.288
246.19
245.807
245.258
244.831
244.782
246.841
246.63
246.55
246.341
246.25
246.157
245.84
245.335
244.653
242.007
246.858
246.605
246.521
246.306
246.216
246.153
245.943
245.462
243.975
237.291
246.897
246.578
246.48
246.247
246.15
246.08
245.875
245.136
242.444
233.743
247.012
246.557
246.44
246.194
246.094
246.116
246.068
245.335
242.179
231.8
247.252
246.562
246.401
246.114
246.016
246.076
246.056
245.234
241.883
230.535
247.702
246.618
246.371
246.028
245.881
245.811
245.608
244.529
240.476
229.313
248.541
246.684
246.395
245.937
245.67
245.307
244.74
243.224
238.006
227.458
250.378
246.751
246.504
245.868
245.378
244.646
243.657
241.568
235.374
224.913
254.258
247.062
246.659
245.811
245.022
243.932
242.561
239.958
233.312
222.585
262.563
248.199
246.934
245.77
244.648
243.242
241.559
238.669
232.074
221.329
280.123
250.934
247.585
245.806
244.294
242.589
240.65
237.738
231.631
221.358
306.093
254.98
249.091
246.021
244.003
241.967
239.765
236.922
231.36
221.886
236.416
221.067
210.445
201.13
190.97
179.666
167.271
153.899
139.853
125.724
230.028
217.734
208.583
199.861
189.924
178.685
166.339
153.088
139.365
125.891
223.495
214.13
205.951
197.424
187.709
176.869
165.116
152.616
139.599
126.421
218.379
210.871
202.879
194.03
184.187
173.423
161.931
149.988
137.926
126.092
212.981
206.588
198.595
189.502
179.833
169.696
159.145
148.278
137.223
126.13
207.385
202.089
194.829
186.359
177.36
167.905
157.986
147.663
137.043
126.256
203.591
199.15
192.561
184.664
176.131
167.045
157.424
147.35
136.939
126.329
202.309
198.051
191.705
184.092
175.779
166.843
157.324
147.321
136.962
126.393
203.635
198.92
192.47
184.885
176.553
167.538
157.9
147.754
137.239
126.508
206.309
200.874
194.137
186.426
177.931
168.699
158.816
148.413
137.637
126.644
112.191
112.361
112.445
112.296
111.789
111.429
111.244
111.529
111.521
111.272
89.6159
90.0793
90.2979
89.8643
88.4323
87.3459
86.725
87.3867
87.4243
86.8378
68.7728
69.4006
69.6619
68.9952
67.0558
65.344
64.3238
64.8725
65.177
64.6218
50.6551
51.2616
51.4513
50.6282
48.649
46.483
45.1529
45.1883
45.9268
45.6934
36.0098
36.4183
36.4687
35.5873
33.7955
31.4795
29.8357
29.2704
30.078
30.2658
24.9576
25.0611
24.9391
24.0159
22.4383
20.4089
18.6181
17.6765
17.9315
18.4316
17.0711
16.9208
16.706
15.7151
14.3006
12.7972
11.3098
10.2448
9.90502
10.2715
11.5841
11.4073
11.3588
10.3594
9.04045
8.03857
7.14705
6.30426
5.71577
5.6319
7.91001
7.82182
8.11788
7.24999
6.0839
5.49347
5.16482
4.78037
4.29643
3.91659
6.041
5.83613
6.22166
5.48377
4.61439
4.33852
4.36281
4.35368
4.20118
3.8051
5.27352
5.03677
5.11929
4.42492
3.89278
3.83691
3.98704
4.13
4.2512
4.30785
4.84595
4.73689
4.45966
3.79337
3.50777
3.59545
3.79898
3.96674
4.08655
4.1728
4.46704
4.4223
3.99056
3.44014
3.32052
3.48378
3.70882
3.88769
4.00571
4.06604
4.01222
3.95724
3.55118
3.20008
3.21043
3.41406
3.62719
3.7846
3.88323
3.92454
3.46376
3.37047
3.09761
2.97829
3.09545
3.3125
3.50276
3.64048
3.72181
3.74554
2.81199
2.71804
2.6593
2.75022
2.94722
3.15177
3.31766
3.43717
3.50413
3.51756
2.08852
2.10568
2.24129
2.47639
2.71229
2.91094
3.06629
3.18009
3.24648
3.26199
1.41602
1.53437
1.7861
2.07946
2.33572
2.55033
2.72644
2.86536
2.95307
2.98122
0.739248
0.873714
1.14881
1.47844
1.78897
2.06128
2.29931
2.48457
2.58953
2.62719
0.066683
-0.0186867
0.217082
0.629692
1.05113
1.43434
1.75933
1.97473
2.07799
2.14131
3.66164
3.7052
3.57468
3.24817
2.59609
1.90438
1.30872
0.833719
0.449288
0.0836125
3.73415
3.67861
3.52393
3.23212
2.55662
1.84845
1.25738
0.797085
0.425653
0.081073
3.76031
3.57211
3.41174
3.17777
2.51257
1.79586
1.20921
0.76319
0.404498
0.080623
3.72083
3.39528
3.25846
3.07489
2.45519
1.74488
1.16427
0.732172
0.386045
0.0818587
3.61255
3.18668
3.08973
2.9209
2.37255
1.69098
1.12182
0.704
0.370508
0.0849266
3.44878
2.9887
2.92883
2.73631
2.25832
1.63021
1.08163
0.679042
0.358273
0.0899647
3.25521
2.82146
2.78505
2.55324
2.11542
1.55881
1.04297
0.65763
0.349747
0.0969889
3.04824
2.68488
2.65906
2.39601
1.9592
1.47402
1.0044
0.639735
0.345218
0.105876
2.82639
2.57444
2.54651
2.27176
1.81112
1.37704
0.963604
0.624805
0.344785
0.116354
2.58264
2.49284
2.44107
2.17437
1.68595
1.27606
0.918289
0.611623
0.348272
0.127987
5.42301
3.97647
3.27753
2.89727
2.41472
1.88989
1.38502
0.928009
0.540437
0.127718
4.61917
3.75596
3.31396
2.9588
2.45572
1.89896
1.3724
0.909086
0.51746
0.115217
3.94917
3.66409
3.37499
3.02859
2.49541
1.90712
1.36123
0.892246
0.499882
0.104444
3.62931
3.6647
3.46073
3.10925
2.53696
1.91506
1.35068
0.876774
0.484618
0.0957469
3.61461
3.70801
3.56281
3.20204
2.58324
1.92326
1.33941
0.861095
0.469826
0.0889782
112.021
88.9545
67.9034
50.1315
36.1166
25.7961
18.6259
13.7504
10.5683
8.75404
111.8
88.3921
67.197
49.3971
35.3143
24.7918
17.3222
12.2168
9.07388
7.57362
111.614
87.9117
66.5587
48.6563
34.403
23.619
15.9018
10.6818
7.53709
6.07895
111.404
87.3379
65.7182
47.5914
33.0782
22.0248
14.13
8.89705
5.81145
4.43571
111.15
86.6098
64.5888
46.1181
31.2779
19.9569
11.961
6.92458
4.4415
3.62572
243.771
243.809
243.928
244.1
244.313
244.321
243.817
243.114
243.218
242.995
243.983
244.055
244.169
244.358
244.628
244.803
244.585
243.935
243.678
243.571
244.179
244.227
244.341
244.537
244.823
245.085
245.059
244.551
244.124
244.073
244.421
244.454
244.552
244.726
244.984
245.274
245.38
245.11
244.724
244.656
244.696
244.714
244.796
244.945
245.161
245.427
245.631
245.633
245.468
245.378
244.989
245.002
245.071
245.194
245.367
245.599
245.87
246.113
246.219
246.208
245.264
245.283
245.365
245.5
245.677
245.907
246.209
246.572
246.876
247
245.551
245.568
245.665
245.857
246.112
246.413
246.774
247.189
247.555
247.736
245.933
245.962
246.039
246.261
246.633
247.087
247.594
248.116
248.462
248.424
246.327
246.437
246.538
246.728
247.128
247.699
248.302
248.855
249.208
249.003
136.504
136.245
136.222
136.485
136.267
135.869
135.328
135.156
135.227
135.392
160.955
160.358
160.38
161.017
160.364
159.242
157.778
157.321
157.527
157.985
183.199
182.633
182.92
183.443
182.393
180.647
178.679
177.99
178.239
178.862
202.166
201.92
202.639
202.649
201.291
199.094
197.086
196.242
196.42
197.022
217.637
217.812
218.596
218.008
216.34
213.996
212.174
211.272
211.311
211.716
229.517
229.999
230.229
229.27
227.462
225.405
223.795
222.849
222.716
222.817
237.717
238.053
237.69
236.617
235.125
233.596
232.146
231.129
230.904
230.753
242.372
242.252
241.643
240.81
239.931
238.913
237.559
236.533
236.475
236.297
244.096
243.678
243.185
242.827
242.529
241.943
240.753
239.858
240.144
240.059
244.236
243.81
243.657
243.678
243.75
243.507
242.633
241.871
242.257
242.068
254.847
246.872
247.501
246.285
246.035
245.529
244.997
244.635
244.505
244.544
252.014
246.808
247.314
246.264
246.088
245.592
245.013
244.668
244.582
244.515
250.091
246.815
247.092
246.259
246.144
245.66
245.056
244.762
244.751
244.547
248.903
246.843
246.879
246.278
246.202
245.734
245.137
244.915
244.981
244.653
248.218
246.847
246.74
246.317
246.258
245.817
245.265
245.107
245.223
244.824
247.769
246.805
246.702
246.366
246.311
245.91
245.433
245.296
245.432
245.031
247.455
246.751
246.701
246.411
246.357
246.013
245.61
245.452
245.587
245.243
247.238
246.723
246.694
246.446
246.39
246.119
245.758
245.563
245.687
245.437
247.095
246.717
246.684
246.47
246.406
246.211
245.857
245.632
245.726
245.597
247
246.718
246.681
246.484
246.416
246.276
245.911
245.668
245.692
245.692
317.351
253.756
249.91
246.972
246.14
245.569
245.252
244.932
244.239
242.723
295.619
251.367
248.788
246.74
246.058
245.54
245.208
244.902
244.452
243.524
277.178
249.211
248.192
246.567
246.017
245.521
245.158
244.845
244.534
244.197
265.775
247.866
247.868
246.436
245.999
245.51
245.1
244.763
244.525
244.525
259.004
247.136
247.645
246.328
245.996
245.502
245.032
244.661
244.479
244.558
239.302
237.453
234.237
229.33
222.127
211.773
197.722
179.917
158.841
135.76
240.485
238.949
235.774
230.638
223.136
212.579
198.459
180.625
159.404
135.981
241.997
240.501
237.319
232.066
224.315
213.494
199.203
181.265
159.885
136.167
243.66
242.254
239.126
233.852
225.917
214.824
200.27
182.107
160.459
136.377
244.449
243.612
241.109
236.038
227.995
216.629
201.745
183.237
161.187
136.63
)
;

boundaryField
{
    left
    {
        type            zeroGradient;
    }
    right
    {
        type            fixedValue;
        value           uniform 0;
    }
    down
    {
        type            zeroGradient;
    }
    up
    {
        type            zeroGradient;
    }
    cylinder
    {
        type            zeroGradient;
    }
    defaultFaces
    {
        type            empty;
    }
}


// ************************************************************************* //
