/*--------------------------------*- C++ -*----------------------------------*\
  =========                 |
  \\      /  F ield         | OpenFOAM: The Open Source CFD Toolbox
   \\    /   O peration     | Website:  https://openfoam.org
    \\  /    A nd           | Version:  13
     \\/     M anipulation  |
\*---------------------------------------------------------------------------*/
FoamFile
{
    format      ascii;
    class       surfaceScalarField;
    location    "0.92";
    object      phi;
}
// * * * * * * * * * * * * * * * * * * * * * * * * * * * * * * * * * * * * * //

dimensions      [0 3 -1 0 0 0 0];

internalField   nonuniform List<scalar> 
3485
(
0.00137167
-0.0112579
0.00988628
0.00505117
-0.0319067
0.0282272
0.0107642
-0.0513828
0.0456698
0.0183125
-0.0696769
0.0621286
0.0275453
-0.0868351
0.0776023
0.0383482
-0.102901
0.0920983
0.0506328
-0.117907
0.105622
0.0643558
-0.131871
0.118148
0.0796148
-0.144862
0.129603
-0.156896
0.139505
0.0970056
0.00150034
-0.0127583
0.00544583
-0.0358522
0.0114762
-0.0574132
0.0193235
-0.0775242
0.0287728
-0.0962843
0.0396465
-0.113775
0.0518006
-0.130061
0.065127
-0.145198
0.0795342
-0.159269
-0.172198
0.0948362
0.00147418
-0.0142325
0.005327
-0.039705
0.0111745
-0.0632607
0.0187208
-0.0850705
0.0277252
-0.105289
0.0379883
-0.124038
0.0493441
-0.141416
0.061653
-0.157507
0.074783
-0.172399
-0.186037
0.0886225
0.00133887
-0.0155713
0.00485904
-0.0432252
0.0102109
-0.0686125
0.017117
-0.0919767
0.0253538
-0.113525
0.03474
-0.133424
0.0451299
-0.151806
0.0564032
-0.16878
0.0684532
-0.184449
-0.198791
0.0812066
0.00116693
-0.0167383
0.00425599
-0.0463142
0.00897313
-0.0733296
0.0150817
-0.0980853
0.0223916
-0.120835
0.0307522
-0.141785
0.0400458
-0.1611
0.0501797
-0.178914
0.0610763
-0.195346
-0.210402
0.0726877
0.000980024
-0.0177183
0.00358795
-0.0489221
0.00758659
-0.0773283
0.0127839
-0.103283
0.019026
-0.127077
0.0261924
-0.148951
0.0341912
-0.169099
0.042953
-0.187676
0.0524228
-0.204816
-0.220549
0.0625696
0.000780725
-0.018499
0.002865
-0.0510064
0.00606896
-0.0805322
0.0102428
-0.107456
0.0152665
-0.132101
0.0210466
-0.154732
0.027514
-0.175566
0.0346202
-0.194782
0.0423308
-0.212526
-0.228851
0.0506323
0.000569701
-0.0190687
0.00209345
-0.0525302
0.00443785
-0.0828766
0.00749263
-0.110511
0.0111686
-0.135777
0.0153967
-0.15896
0.0201274
-0.180297
0.0253293
-0.199984
0.0309862
-0.218183
-0.234967
0.0371027
0.000352505
-0.0194212
0.00129575
-0.0534734
0.00274499
-0.0843259
0.0046283
-0.112394
0.00688641
-0.138035
0.00947301
-0.161546
0.0123552
-0.183179
0.0155141
-0.203143
0.0189446
-0.221614
-0.238684
0.0226613
0.000137792
-0.019559
0.000502453
-0.0538381
0.00105695
-0.0848804
0.00176951
-0.113107
0.00261367
-0.138879
0.00356834
-0.162501
0.00461803
-0.184229
0.00575323
-0.204278
0.00697048
-0.222831
0.00827486
-0.239988
0.000487077
-0.00186847
0.00138139
0.00208538
-0.00625513
0.00465683
0.00542647
-0.0114274
0.00808628
0.0101147
-0.0162042
0.011516
0.0155387
-0.0201974
0.0147734
0.0214351
-0.0235928
0.0176964
0.0279005
-0.0267737
0.0203083
0.0350837
-0.0299689
0.0227857
0.0429693
-0.03313
0.0252444
-0.0361046
0.0514232
0.0276507
0.000426791
-0.00229526
0.00211019
-0.00793853
0.00543692
-0.0147541
0.00981264
-0.02058
0.0148827
-0.0252674
0.0207572
-0.0294674
0.0276097
-0.0336262
0.0353881
-0.0377472
0.0438803
-0.0416222
-0.0451456
0.0529213
0.000682844
-0.00297811
0.00271678
-0.00997247
0.0057793
-0.0178166
0.00975986
-0.0245605
0.014812
-0.0303196
0.0211089
-0.0357643
0.0285813
-0.0410986
0.0369491
-0.046115
0.045993
-0.0506662
-0.0547748
0.0556223
0.000868654
-0.00384676
0.00306157
-0.0121654
0.00607865
-0.0208337
0.0101991
-0.0286809
0.0156964
-0.035817
0.0225539
-0.0426218
0.0305289
-0.0490736
0.0393846
-0.0549706
0.0490258
-0.0603075
-0.06512
0.059371
0.000923416
-0.00477018
0.00320114
-0.0144431
0.00651897
-0.0241515
0.0111163
-0.0332783
0.017134
-0.0418347
0.0244468
-0.0499345
0.0328623
-0.0574892
0.0422835
-0.0643918
0.0526475
-0.0706715
-0.0762944
0.0638219
0.000944153
-0.00571433
0.00337311
-0.0168721
0.00709149
-0.0278699
0.0121742
-0.038361
0.0186323
-0.0482929
0.0263545
-0.0576567
0.0352435
-0.0663782
0.0452523
-0.0744006
0.0563027
-0.0817218
-0.0882283
0.0682366
0.000980131
-0.00669446
0.00358432
-0.0194763
0.00764146
-0.0319271
0.013107
-0.0438265
0.0199253
-0.0551112
0.02801
-0.0657414
0.0372989
-0.0756672
0.0477461
-0.0848478
0.0592787
-0.0932544
-0.100701
0.0717517
0.00101812
-0.00771258
0.00376796
-0.0222261
0.00807126
-0.0362304
0.0138198
-0.049575
0.0209191
-0.0622105
0.0292802
-0.0741025
0.0388336
-0.0852205
0.0495224
-0.0955367
0.0612882
-0.10502
-0.113444
0.0740309
0.0010547
-0.00876727
0.00393687
-0.0251083
0.00846111
-0.0407546
0.0144821
-0.055596
0.0218736
-0.069602
0.0305251
-0.0827541
0.0403416
-0.0950369
0.051234
-0.106429
0.0631215
-0.116908
-0.126322
0.0759993
0.001119
0.00423792
0.00915312
0.0156857
0.023686
0.0330303
0.0436154
0.0553345
0.0680298
0.0812132
0.114324
-0.414652
0.351751
0.16813
-0.471977
0.41817
0.210278
-0.42216
0.380012
0.244168
-0.327
0.29311
0.270985
-0.214721
0.187905
0.291605
-0.110372
0.0897515
0.305198
-0.0322146
0.0186211
0.310567
0.0103273
-0.015696
0.311278
0.0248998
-0.0256102
0.0204678
-0.0194629
0.1159
-0.477631
0.169683
-0.525759
0.211798
-0.464275
0.245426
-0.360628
0.272389
-0.241684
0.293808
-0.131791
0.310159
-0.0485659
0.319493
0.000993519
0.323496
0.0208975
0.019708
0.117707
-0.539716
0.170504
-0.578556
0.212207
-0.505979
0.245214
-0.393636
0.272034
-0.268503
0.293763
-0.15352
0.311721
-0.0665242
0.324487
-0.0117721
0.332962
0.0124224
0.0159857
0.120088
-0.600434
0.170869
-0.629337
0.211684
-0.546793
0.243764
-0.425716
0.270168
-0.294907
0.291947
-0.175299
0.310763
-0.08534
0.325427
-0.0264356
0.338272
-0.000422649
0.00741164
0.122988
-0.6596
0.170982
-0.67733
0.21036
-0.586172
0.241267
-0.456623
0.266992
-0.320632
0.288656
-0.196962
0.308035
-0.104719
0.323679
-0.0420795
0.339498
-0.016242
-0.00608753
0.125848
-0.717211
0.170869
-0.722351
0.208317
-0.623621
0.237859
-0.486165
0.262662
-0.345434
0.284091
-0.218392
0.30379
-0.124417
0.320347
-0.0586364
0.336063
-0.0319583
-0.0186527
0.127789
-0.773249
0.170344
-0.764906
0.205602
-0.658879
0.233656
-0.514219
0.257317
-0.369096
0.278388
-0.239462
0.298247
-0.144277
0.315711
-0.0761003
0.329677
-0.0459245
-0.0274018
0.127873
-0.827091
0.168925
-0.805957
0.202075
-0.692029
0.228621
-0.540765
0.251004
-0.391478
0.271543
-0.260002
0.291735
-0.164469
0.308379
-0.0927444
0.31898
-0.0565255
-0.0341593
0.125796
-0.876887
0.166203
-0.846364
0.197687
-0.723514
0.222844
-0.565921
0.243824
-0.412458
0.263638
-0.279816
0.283107
-0.183939
0.297123
-0.10676
0.30479
-0.0641931
-0.0407563
0.122114
-0.917788
0.161378
-0.885627
0.191563
-0.753699
0.215618
-0.589976
0.235281
-0.432122
0.254473
-0.299007
0.270742
-0.200208
0.281556
-0.117574
0.289066
-0.0717034
-0.0476628
0.583956
-0.920267
-0.581478
0.561183
-0.862854
0.523942
-0.716459
0.487833
-0.553868
0.460451
-0.404739
0.443661
-0.282217
0.431169
-0.187716
0.424844
-0.111248
0.421506
-0.0683658
-0.0461837
0.68287
-0.871674
-0.731463
0.619672
-0.799656
0.553835
-0.650621
0.4962
-0.496232
0.450447
-0.358986
0.418419
-0.250189
0.398079
-0.167376
0.388322
-0.101491
0.382869
-0.0629128
-0.0428832
0.753982
-0.775227
-0.850429
0.655065
-0.700739
0.563312
-0.558868
0.487167
-0.420087
0.429081
-0.300901
0.388773
-0.209881
0.363157
-0.141761
0.34987
-0.0882041
0.342396
-0.055438
-0.0381088
0.778962
-0.641711
-0.912479
0.653683
-0.57546
0.546161
-0.451346
0.460838
-0.334764
0.397741
-0.237804
0.353897
-0.166036
0.325422
-0.113286
0.309608
-0.0723898
0.300446
-0.0462758
-0.0321971
0.752959
-0.492446
-0.902224
0.617524
-0.440024
0.506116
-0.339938
0.419991
-0.24864
0.357332
-0.175144
0.313711
-0.122415
0.284786
-0.0843615
0.267685
-0.0552891
0.257367
-0.0359579
-0.0255119
0.685094
-0.345841
-0.831699
0.552683
-0.307613
0.446419
-0.233674
0.365941
-0.168162
0.308175
-0.117378
0.267942
-0.0821824
0.240788
-0.0572074
0.223901
-0.0384019
0.213247
-0.0253037
-0.018524
0.582614
-0.213864
-0.714592
0.462882
-0.18788
0.369302
-0.140095
0.299919
-0.0987787
0.250848
-0.0683073
0.216669
-0.0480038
0.193231
-0.0337694
0.17804
-0.0232103
0.168061
-0.0153253
-0.0118095
0.448757
-0.105525
-0.557096
0.351175
-0.0902977
0.27705
-0.0659696
0.223518
-0.0452468
0.186243
-0.0310331
0.160237
-0.0219977
0.14212
-0.0156519
0.12996
-0.011051
0.121749
-0.00711421
-0.0060167
0.28659
-0.030221
-0.361894
0.220908
-0.0246157
0.172486
-0.0175473
0.138709
-0.0114692
0.115471
-0.00779595
0.0991079
-0.00563414
0.087527
-0.00407107
0.0795025
-0.00302645
0.0741549
-0.00176667
-0.00184014
0.101315
-0.131536
0.0766997
0.0591524
0.0476832
0.0398872
0.0342531
0.030182
0.0271556
0.0253889
0.73882
0.0102222
-0.740768
0.733074
0.0284072
0.723436
0.0467414
0.710163
0.0639052
0.69357
0.0791623
0.674077
0.0921811
0.652273
0.10301
0.628714
0.112182
0.60427
0.11928
0.119797
0.845548
0.013398
-0.848724
0.837321
0.0366343
0.827288
0.0567747
0.816594
0.0745994
0.805251
0.090505
0.792897
0.104535
0.779284
0.116623
0.764589
0.126877
0.749125
0.134744
0.137459
0.844982
0.0114253
-0.843009
0.848881
0.0327347
0.853018
0.0526378
0.85647
0.0711481
0.858831
0.0881436
0.859918
0.103448
0.859594
0.116947
0.857966
0.128505
0.8553
0.137411
0.14233
0.800212
0.00930438
-0.798092
0.80582
0.027127
0.814418
0.0440405
0.825635
0.0599302
0.839
0.0747792
0.853848
0.0885997
0.869417
0.101378
0.88505
0.112872
0.899935
0.122525
0.129786
0.737865
0.00703868
-0.7356
0.744154
0.0208384
0.754123
0.0340714
0.767503
0.0465501
0.784083
0.0581998
0.80366
0.0690223
0.825987
0.0790509
0.85062
0.0882393
0.87654
0.0966056
0.104102
0.653921
0.00485392
-0.651736
0.660203
0.0145561
0.670378
0.0238963
0.684221
0.0327074
0.701525
0.0408959
0.722111
0.0484359
0.745805
0.0553567
0.772329
0.0617158
0.801216
0.0677186
0.0736186
0.549112
0.00291605
-0.547174
0.554812
0.00885588
0.564138
0.0145705
0.576905
0.01994
0.592915
0.0248867
0.611968
0.0293826
0.633871
0.033454
0.658406
0.0371801
0.685379
0.0407461
0.0444058
0.422793
0.0013757
-0.421252
0.427413
0.00423594
0.435008
0.0069756
0.445422
0.00952586
0.45847
0.0118388
0.473957
0.0138957
0.491697
0.0157138
0.511527
0.0173497
0.533346
0.0189271
0.020656
0.273828
0.000366654
-0.272819
0.276915
0.00114943
0.281999
0.00189174
0.288955
0.00256941
0.29763
0.00316447
0.307856
0.00366915
0.319482
0.00408805
0.332395
0.00443667
0.346562
0.00476039
0.00532319
0.100484
-0.100117
0.101633
0.103525
0.106094
0.109259
0.112928
0.117016
0.121453
0.126213
0.0779289
0.159505
-0.142492
-0.0949415
0.0630256
0.147461
-0.132558
0.049617
0.134406
-0.120998
0.0376024
0.120332
-0.108318
0.0270258
0.105171
-0.0945943
0.0179774
0.0888944
-0.0798461
0.0105726
0.0714606
-0.0640558
0.00496321
0.0528094
-0.0472
0.00134799
0.0328743
-0.0292591
0.0116389
-0.0102909
0.0779391
0.174434
-0.0928684
0.0638699
0.16153
0.0508389
0.147437
0.0389376
0.132234
0.0282758
0.115833
0.0190001
0.0981701
0.0112895
0.0791712
0.00535956
0.0587393
0.00147721
0.0367566
0.0131162
0.0731785
0.187929
-0.0866729
0.0603694
0.174339
0.04835
0.159457
0.0372485
0.143335
0.027203
0.125878
0.0183792
0.106994
0.0109766
0.0865738
0.00523535
0.0644806
0.00144963
0.0405423
0.0145658
0.0667704
0.200353
-0.079195
0.0550327
0.186077
0.0440491
0.17044
0.0339216
0.153463
0.0247664
0.135033
0.016727
0.115033
0.00998166
0.0933191
0.00475147
0.0697108
0.00130966
0.0439842
0.0158754
0.0593121
0.211657
-0.0706157
0.0487151
0.196674
0.0388672
0.180288
0.0298411
0.162489
0.0217242
0.14315
0.0146295
0.122128
0.00870233
0.0992463
0.00412645
0.0742867
0.00113097
0.0469796
0.0170064
0.0505978
0.221521
-0.0604617
0.0414109
0.205861
0.0329274
0.188772
0.0251972
0.170219
0.0182837
0.150064
0.0122721
0.12814
0.00727496
0.104243
0.00343653
0.0781251
0.000937285
0.0494789
0.0179437
0.040457
0.229564
-0.0485
0.0330126
0.213305
0.0261763
0.195608
0.0199772
0.176418
0.0144573
0.155583
0.00967743
0.13292
0.00572043
0.1082
0.00269376
0.0811517
0.00073184
0.0514408
0.0186755
0.029054
0.235441
-0.0349316
0.0236511
0.218708
0.0187146
0.200544
0.0142551
0.180878
0.0102962
0.159542
0.00687752
0.136338
0.0040556
0.111022
0.00190427
0.0833031
0.000515283
0.0528298
0.0191908
0.0169174
0.238926
-0.0204019
0.0137418
0.221884
0.0108549
0.203431
0.0082548
0.183478
0.00595148
0.161846
0.0039665
0.138323
0.00233218
0.112657
0.00109067
0.0845446
0.000293242
0.0536272
0.019484
0.00482785
-0.00589045
0.00388044
0.00303405
0.00228342
0.00162818
0.00107202
0.000621627
0.000285833
7.49727e-05
0.0436749
0.0414177
-0.0525746
-0.0325179
0.0352948
0.038368
-0.029988
0.0276215
0.0349675
-0.0272942
0.0208823
0.0313511
-0.0246118
0.0150803
0.027782
-0.0219799
0.00997376
0.0242228
-0.0191163
0.00544386
0.0200863
-0.0155564
0.00197698
0.0144732
-0.0110063
0.000387014
0.0074003
-0.00581033
0.00208939
-0.00170237
0.0437655
0.0505912
-0.052939
0.0351113
0.0470222
0.0270674
0.0430114
0.0199164
0.038502
0.0139757
0.0337227
0.00925327
0.0289452
0.00550433
0.0238352
0.00257657
0.017401
0.000622028
0.00935485
0.00271142
0.0449365
0.0601494
-0.0544946
0.0360116
0.055947
0.0277712
0.0512519
0.0203314
0.0459418
0.0140182
0.0400359
0.00909675
0.0338667
0.00551367
0.0274183
0.00289169
0.0200229
0.000809519
0.011437
0.00352094
0.0473578
0.0703361
-0.0575445
0.0379221
0.0653827
0.0293524
0.0598215
0.0216867
0.0536076
0.0150496
0.046673
0.00970029
0.039216
0.0057606
0.031358
0.00295804
0.0228255
0.000874751
0.0135203
0.00439569
0.050823
0.0812617
-0.0617486
0.04072
0.0754857
0.0316037
0.0689378
0.0235364
0.0616749
0.016541
0.0536684
0.010744
0.045013
0.00628061
0.0358214
0.00306069
0.0260454
0.000880088
0.0157009
0.00527578
0.054522
0.0928578
-0.0661181
0.0438017
0.086206
0.0341204
0.0786191
0.025553
0.0702423
0.0181212
0.0611002
0.011881
0.0512532
0.0069275
0.0407749
0.00327795
0.029695
0.000908325
0.0180705
0.0061841
0.0575778
0.104939
-0.0696587
0.0464191
0.0973647
0.0363168
0.0887214
0.0273311
0.079228
0.0194978
0.0689335
0.0128673
0.0578837
0.0075192
0.046123
0.00352483
0.0336893
0.000959491
0.0206359
0.00714359
0.0596363
0.117265
-0.0719626
0.0482597
0.108741
0.0379181
0.099063
0.0286566
0.0884896
0.0205269
0.0770632
0.013598
0.0648125
0.00796113
0.0517599
0.00372158
0.0379289
0.00100524
0.0233522
0.00814884
0.0614514
0.129718
-0.0739045
0.0499543
0.120238
0.0394057
0.109612
0.0298771
0.0980182
0.0214547
0.0854856
0.0142356
0.0720316
0.00833426
0.0576612
0.00388445
0.0423787
0.00104187
0.0261948
0.00919071
0.0663084
-0.0790824
0.0539891
0.0426031
0.0323034
0.0231947
0.0153803
0.0089858
0.00416453
0.00110024
0.21373
0.0621503
-0.0778905
0.236399
0.0904712
-0.11314
0.260929
0.124037
-0.148567
0.277121
0.111983
-0.128175
0.27629
0.109311
-0.10848
0.253275
0.178518
-0.155503
0.219008
0.293626
-0.259359
0.174904
0.412595
-0.368491
0.118447
0.494746
-0.438288
0.461774
-0.395902
0.213078
0.0470621
0.23466
0.0688891
0.258296
0.100401
0.275149
0.0951303
0.275927
0.108533
0.25367
0.200774
0.219213
0.328084
0.174649
0.457159
0.118104
0.551292
0.526939
0.212848
0.0322037
0.233584
0.0481538
0.256372
0.0776131
0.273223
0.0782787
0.274328
0.107428
0.252472
0.222631
0.21796
0.362595
0.173331
0.501788
0.117881
0.606742
0.590325
0.212973
0.0172203
0.233167
0.0279601
0.25522
0.0555603
0.271587
0.0619116
0.271816
0.107199
0.249817
0.24463
0.215413
0.396998
0.171343
0.545859
0.118373
0.659712
0.651153
0.213317
0.00189306
0.233254
0.00802287
0.254627
0.0341879
0.269883
0.0466548
0.268303
0.10878
0.245777
0.267155
0.211773
0.431002
0.169105
0.588526
0.119713
0.709104
0.709118
0.213707
-0.013824
0.233618
-0.0118879
0.254264
0.0135417
0.267758
0.0331608
0.263687
0.11285
0.240466
0.290377
0.2073
0.464168
0.166895
0.628932
0.12144
0.754559
0.764439
0.213966
-0.0298001
0.23405
-0.0319723
0.253845
-0.00625299
0.264974
0.0220321
0.257949
0.119875
0.234094
0.314232
0.202274
0.495989
0.164696
0.66651
0.122658
0.796598
0.817438
0.213996
-0.0458063
0.234434
-0.0524098
0.253151
-0.0249707
0.261297
0.0138866
0.251015
0.130156
0.22679
0.338457
0.196746
0.526032
0.162079
0.701177
0.122342
0.836335
0.867817
0.213814
-0.0616302
0.234752
-0.0733481
0.252062
-0.0422802
0.256757
0.00919112
0.243149
0.143764
0.218919
0.362688
0.190829
0.554122
0.158615
0.733391
0.120095
0.874855
0.914008
0.213687
-0.0773273
0.234974
-0.0946348
0.250569
-0.0578755
0.251023
0.00873691
0.233824
0.160964
0.209849
0.386663
0.183592
0.580379
0.153432
0.763551
0.116422
0.911865
0.951347
0.331951
-0.107268
0.370587
-0.133271
0.406994
-0.0942831
0.424367
-0.00863615
0.438812
0.146519
0.467396
0.358078
0.506588
0.541187
0.549579
0.72056
0.581375
0.88007
0.946217
0.586505
0.333653
-0.138911
0.373225
-0.172843
0.408397
-0.129455
0.421999
-0.0222377
0.435333
0.133185
0.475873
0.317538
0.534263
0.482796
0.604462
0.650361
0.675404
0.809128
0.888632
0.732989
0.336374
-0.173275
0.375508
-0.211976
0.408835
-0.162782
0.416829
-0.0302315
0.427092
0.122923
0.473863
0.270767
0.546434
0.410225
0.638796
0.557999
0.742283
0.705641
0.784498
0.846416
0.340526
-0.211791
0.373462
-0.244912
0.384196
-0.173517
0.380288
-0.0263236
0.398841
0.104369
0.452825
0.216783
0.534081
0.328969
0.640493
0.451587
0.767071
0.579063
0.647078
0.904492
0.348518
-0.258299
0.356609
-0.253002
0.337465
-0.154373
0.334115
-0.0229741
0.35848
0.0800051
0.413979
0.161284
0.497213
0.245735
0.607859
0.340941
0.743728
0.443194
0.495871
0.894934
0.340773
-0.297063
0.321156
-0.233384
0.287853
-0.12107
0.283856
-0.0189774
0.308849
0.0550126
0.361054
0.109079
0.439726
0.167063
0.545744
0.234923
0.678759
0.310179
0.347987
0.826643
0.314273
-0.309326
0.271559
-0.19067
0.233591
-0.0831016
0.228561
-0.0139476
0.250995
0.0325786
0.296136
0.0639383
0.364595
0.0986038
0.458321
0.141197
0.578795
0.189705
0.215105
0.711677
0.273773
-0.281089
0.212878
-0.129774
0.174324
-0.044548
0.168749
-0.00837213
0.186224
0.0151029
0.220947
0.029216
0.274164
0.0453864
0.348681
0.0666807
0.447049
0.0913361
0.106139
0.556015
0.214647
-0.193726
0.140475
-0.0556021
0.10936
-0.0134329
0.10407
-0.00308296
0.115339
0.00383388
0.137262
0.00729308
0.171091
0.011558
0.219969
0.0178021
0.286339
0.0249661
0.0304074
0.362071
0.108284
0.0526823
0.0392495
0.0361665
0.0400004
0.0472934
0.0588514
0.0766535
0.10162
0.132027
0.608659
-0.117096
0.632323
-0.116532
0.65514
-0.10949
0.676291
-0.100346
0.695234
-0.0895589
0.71137
-0.0765983
0.724263
-0.0613929
0.73359
-0.0442581
0.739075
-0.0258868
-0.00758337
0.750323
-0.134429
0.765225
-0.131434
0.779427
-0.123692
0.79265
-0.113569
0.804713
-0.101622
0.815848
-0.0877335
0.826403
-0.0719479
0.836392
-0.0542472
0.844841
-0.0343355
-0.0114667
0.851037
-0.13905
0.853479
-0.133876
0.854993
-0.125206
0.85537
-0.113946
0.854522
-0.100773
0.852621
-0.0858331
0.849895
-0.0692218
0.846739
-0.0510905
0.843946
-0.0315429
-0.0105298
0.892548
-0.127106
0.878532
-0.11986
0.863853
-0.110526
0.849289
-0.0993825
0.835445
-0.0869291
0.823019
-0.0734067
0.812635
-0.0588383
0.804756
-0.0432111
0.799744
-0.0265314
-0.00887712
0.870308
-0.10248
0.845547
-0.0950998
0.821943
-0.0869227
0.800489
-0.0779278
0.781654
-0.0680941
0.765714
-0.0574669
0.75289
-0.0460142
0.743403
-0.0337242
0.737523
-0.0206517
-0.00695366
0.796996
-0.0728328
0.768933
-0.0670364
0.743122
-0.0611115
0.720037
-0.0548429
0.699971
-0.0480287
0.683112
-0.0406075
0.669641
-0.0325438
0.659769
-0.0238516
0.653726
-0.0146085
-0.00496383
0.682983
-0.0441392
0.656499
-0.0405523
0.632401
-0.0370128
0.610878
-0.0333203
0.592145
-0.0292955
0.576396
-0.0248581
0.563828
-0.0199764
0.554646
-0.0146697
0.549043
-0.00900561
-0.00309479
0.53251
-0.0206337
0.510908
-0.0189508
0.491275
-0.0173796
0.473704
-0.0157489
0.458351
-0.0139423
0.445397
-0.0119047
0.435037
-0.00961623
0.427458
-0.00709088
0.422824
-0.00437156
-0.00152291
0.346789
-0.00535166
0.332647
-0.00480907
0.319753
-0.00448487
0.308137
-0.00413359
0.297909
-0.00371366
0.289215
-0.00321087
0.282219
-0.00262002
0.277075
-0.0019474
0.273913
-0.00120947
-0.000429231
0.126675
0.121866
0.117381
0.113248
0.109534
0.106323
0.103703
0.101756
0.100546
0.000185057
0.0116093
-0.0117943
0.000623737
0.0304465
-0.0308852
0.00123716
0.0462418
-0.0468552
0.00197733
0.0594676
-0.0602078
0.00277662
0.0700217
-0.070821
0.00376954
0.0798893
-0.0808822
0.00396349
0.0772675
-0.0774614
0.00408486
0.0700426
-0.070164
0.00394498
0.0610798
-0.0609399
0.0499562
0.00350723
-0.0495184
0.000533397
0.0110759
0.00180387
0.0291761
0.00358509
0.0444606
0.00574126
0.0573115
0.00807285
0.0676901
0.0110397
0.0769225
0.011676
0.0766311
0.0120809
0.0696377
0.0117737
0.061387
0.0510786
0.0106513
0.000835501
0.0102404
0.00283184
0.0271797
0.00563913
0.0416533
0.00904159
0.053909
0.0127395
0.0639922
0.0172475
0.0724145
0.0187903
0.0750884
0.0195719
0.0688561
0.0193857
0.0615732
0.052435
0.0180293
0.00105598
0.00918438
0.00359702
0.0246387
0.00719367
0.0380567
0.0115559
0.0495468
0.0163567
0.0591914
0.0217479
0.0670233
0.0250729
0.0717633
0.0263552
0.0675737
0.0266035
0.0613249
0.0535668
0.0254717
0.00115146
0.00803292
0.00397935
0.0218108
0.0080418
0.0339942
0.0129971
0.0445915
0.0185519
0.0536367
0.0245578
0.0610173
0.0299525
0.0663687
0.0320904
0.0654358
0.0330118
0.0604036
0.0540916
0.032487
0.0011115
0.00692142
0.00396604
0.0189563
0.00818569
0.0297746
0.0133904
0.0393868
0.0193183
0.0477088
0.0257723
0.0545633
0.0324164
0.0597247
0.0363131
0.061539
0.0381249
0.0585918
0.0537076
0.0385089
0.000926238
0.00599519
0.00357299
0.0163095
0.00771073
0.0256368
0.0128819
0.0342157
0.0187869
0.0418038
0.0253385
0.0480117
0.0323215
0.0527417
0.0382759
0.0555847
0.0415882
0.0552795
0.0521835
0.0431123
0.000567815
0.00542737
0.00278659
0.0140908
0.00665746
0.021766
0.0116213
0.0292519
0.0172043
0.0362208
0.0234474
0.0417685
0.0302863
0.0459029
0.0371846
0.0486863
0.0425622
0.0499019
0.0489244
0.0458213
0.00010373
0.00532365
0.00176841
0.0124261
0.00517547
0.0183589
0.00981457
0.0246128
0.0149566
0.0310788
0.0206209
0.0361042
0.0269034
0.0396204
0.0335873
0.0420024
0.0400857
0.0434036
0.0437955
0.0452146
-0.000175846
0.00549949
0.0010864
0.0111639
0.00385531
0.01559
0.00788573
0.0205823
0.0124999
0.0264646
0.0175705
0.0310337
0.0231767
0.0340141
0.0292493
0.0359297
0.0356363
0.0370166
0.0373685
0.0420633
-2.1726e-05
0.00552122
0.00113899
0.0100031
0.00327628
0.0134527
0.00641141
0.0174472
0.0102926
0.0225834
0.0148343
0.026492
0.0199547
0.0288938
0.0254875
0.0303969
0.0312258
0.0312783
0.0316939
0.0369003
0.000376579
0.00514464
0.00153007
0.00884964
0.00317833
0.0118044
0.00548864
0.0151369
0.00870796
0.0193641
0.0128941
0.0223059
0.0177466
0.0240413
0.0230145
0.025129
0.0285066
0.0257861
0.0260565
0.034144
0.000623194
0.00452145
0.00170506
0.00776778
0.00302488
0.0104846
0.00484458
0.0133172
0.0078369
0.0163717
0.0119277
0.0182151
0.0166805
0.0192884
0.021856
0.0199536
0.0273216
0.0203205
0.0204019
0.0329762
0.000676553
0.0038449
0.00164209
0.00680224
0.00282226
0.00930444
0.00470705
0.0114324
0.0079848
0.013094
0.0122186
0.0139813
0.0170386
0.0144684
0.0222832
0.014709
0.027856
0.0147476
0.0145866
0.0336713
0.000664811
0.00318008
0.00155658
0.00591047
0.00300259
0.00785843
0.0055963
0.0088387
0.00939438
0.00929591
0.0139231
0.00945257
0.0189732
0.00941833
0.0244452
0.00923693
0.0302713
0.00892155
0.00847805
0.0363798
0.000594959
0.00258512
0.00172415
0.00478127
0.00408047
0.00550209
0.00754756
0.0053716
0.0118098
0.00503367
0.0166671
0.00459528
0.0220181
0.00406729
0.0278037
0.00345129
0.0339725
0.00275274
0.00198483
0.0404658
0.000528406
0.00205671
0.00250186
0.0028078
0.00577912
0.00222482
0.00978544
0.00136527
0.0143843
0.000434816
0.0195303
-0.000550778
0.0251937
-0.00159608
0.0313315
-0.00268651
0.0378826
-0.00379839
-0.00491957
0.044787
0.000885381
0.00117132
0.00363697
5.62013e-05
0.00720368
-0.0013419
0.0113942
-0.00282526
0.0161958
-0.0043668
0.0216193
-0.00597429
0.0276228
-0.00759958
0.0341149
-0.00917862
0.0410123
-0.0106958
-0.0121815
0.0482742
0.00150687
-0.000335567
0.00413432
-0.00257126
0.00755691
-0.0047645
0.0117752
-0.00704354
0.0167963
-0.00938789
0.0225402
-0.0117182
0.0288389
-0.0138982
0.0355709
-0.0159107
0.0427114
-0.0178363
-0.0197312
0.050261
0.00104582
0.00313139
0.00645316
0.0109256
0.0163111
0.0222893
0.0286994
0.0355744
0.0429826
0.0509021
0.051431
0.0836992
-0.0982299
0.0773553
-0.00758665
-0.0183376
0.100012
-0.0512692
0.028612
0.11372
-0.0471951
0.0334879
0.121707
-0.0269276
0.0189401
0.125343
-0.00805326
0.00441686
0.126385
0.0034049
-0.00444638
0.126503
0.00744073
-0.00755931
0.126346
0.00794261
-0.00778566
0.00563469
-0.00617553
0.0586524
0.0591907
0.091743
-0.0406773
0.118956
-0.0784822
0.135006
-0.0632452
0.14376
-0.0356814
0.147432
-0.0117251
0.148204
0.00263259
0.147978
0.00766701
0.147477
0.00844374
0.00544191
0.0666875
0.0254795
0.105146
-0.0791361
0.136199
-0.109535
0.155879
-0.0829258
0.165909
-0.0457108
0.169653
-0.0154691
0.170051
0.00223438
0.16932
0.00839759
0.16831
0.00945367
0.00573754
0.0755897
-0.016439
0.118004
-0.121551
0.151955
-0.143485
0.175401
-0.106373
0.187486
-0.057795
0.191569
-0.019552
0.191633
0.00217038
0.190349
0.00968134
0.188754
0.0110484
0.00659792
0.0846628
-0.064722
0.129848
-0.166736
0.165969
-0.179606
0.19273
-0.133134
0.207726
-0.0727905
0.21275
-0.0245765
0.212682
0.00223875
0.210894
0.0114693
0.208716
0.0132262
0.00803839
0.0931314
-0.117388
0.140341
-0.213946
0.178149
-0.217413
0.207475
-0.16246
0.225768
-0.0910832
0.232657
-0.0314651
0.232879
0.00201645
0.230761
0.0135877
0.228093
0.0158935
0.0100067
0.100331
-0.172932
0.149208
-0.262823
0.188396
-0.256601
0.219558
-0.193622
0.240915
-0.11244
0.250644
-0.0411943
0.251859
0.000801101
0.249735
0.0157124
0.246772
0.0188564
0.0123795
0.105912
-0.230569
0.156322
-0.313233
0.196653
-0.296933
0.229085
-0.226054
0.252844
-0.136198
0.265979
-0.0543292
0.269177
-0.00239725
0.267564
0.0173256
0.264618
0.021802
0.014956
0.109857
-0.290166
0.161716
-0.365092
0.202947
-0.338164
0.236231
-0.259338
0.261607
-0.161574
0.278028
-0.0707507
0.284277
-0.00864638
0.28394
0.0176631
0.281471
0.0242711
0.0174482
0.112488
0.165566
0.207414
0.241186
0.267516
0.286517
0.296492
0.298459
0.29712
0.0132008
0.00607761
-0.0192784
0.0109904
0.00221039
0.0115112
-0.000520836
0.0129362
-0.00142495
0.0136529
-0.000716719
0.0137721
-0.000119199
0.0135475
0.000224596
0.0131798
0.000367664
0.0129159
0.000263923
0.000370747
0.0372497
0.0232142
-0.0543863
0.0314984
0.00796167
0.0340146
-0.00303704
0.0380772
-0.00548756
0.0402555
-0.00289499
0.0406576
-0.000521334
0.0400178
0.000864373
0.0390147
0.0013708
0.038073
0.0012056
0.0012463
0.0579678
0.0480931
-0.0828467
0.0508915
0.015038
0.0559101
-0.00805572
0.0624989
-0.0120764
0.0661757
-0.00657173
0.0669393
-0.00128492
0.0659527
0.00185095
0.0643718
0.00295171
0.062753
0.00282435
0.00254333
0.073909
0.0753955
-0.101211
0.0680927
0.0208543
0.0764712
-0.0164342
0.0858193
-0.0214245
0.0911503
-0.0119027
0.0924159
-0.00255061
0.0911885
0.00307841
0.089097
0.00504314
0.0868742
0.00504716
0.00420907
0.081402
-0.104237
0.0839186
0.0960962
0.10816
0.115197
0.117063
0.115695
0.113179
0.110441
0.00273369
-0.000172927
-0.00256076
0.00326457
-0.000530876
0.00417681
-0.00091224
0.00548788
-0.00131107
0.00718431
-0.00169643
0.00922888
-0.00204458
0.0115855
-0.00235661
0.0141738
-0.00258834
0.016859
-0.00268516
-0.00241944
0.00778748
-0.000645704
-0.0073147
0.00923438
-0.00197778
0.0117138
-0.00339162
0.0152702
-0.00486748
0.0198845
-0.00631072
0.0254825
-0.00764261
0.0319649
-0.00883896
0.0391563
-0.00977983
0.0467678
-0.0102966
-0.010038
0.0124781
-0.00138377
-0.0117401
0.0147278
-0.00422749
0.0185607
-0.00722452
0.0240247
-0.0103315
0.0310794
-0.0133654
0.0395863
-0.0161495
0.0493283
-0.018581
0.0600518
-0.0205033
0.0714161
-0.021661
-0.0214686
0.0168075
-0.00234772
-0.0158436
0.0197318
-0.00715174
0.024675
-0.0121678
0.0316516
-0.017308
0.0405502
-0.022264
0.0511064
-0.0267057
0.0629378
-0.0304123
0.0756949
-0.0332605
0.0888619
-0.0348279
-0.0338182
0.0207931
-0.0196336
0.0242927
0.0301542
0.0383179
0.0485408
0.060344
0.073044
0.0856048
0.0959915
0.0314438
-0.0313069
0.0371114
-0.0372483
0.0255836
-0.0309039
0.0367641
0.0199254
-0.0300713
0.0357295
0.0146792
-0.0286752
0.0339214
0.0100597
-0.0264666
0.0310861
0.00620463
-0.0227791
0.0266341
0.00311375
-0.0176477
0.0207386
0.00101736
-0.0136221
0.0157185
-8.67787e-05
-0.0101616
0.0112658
-0.00564242
0.00555565
0.0294597
-0.0254437
-0.0353228
0.0237441
-0.0251883
0.0182544
-0.0245815
0.0131686
-0.0235894
0.00873994
-0.0220379
0.00535016
-0.0193893
0.0030196
-0.0153172
0.00139642
-0.011999
0.000298136
-0.00906335
-0.00534428
0.029431
-0.0194557
-0.035419
0.0236271
-0.0193843
0.0181099
-0.0190644
0.0129967
-0.0184762
0.00849035
-0.0175315
0.00504201
-0.0159409
0.00300369
-0.0132788
0.0016443
-0.0106396
0.000582323
-0.00800137
-0.00476196
0.0313515
-0.0131927
-0.0376144
0.0253231
-0.0133559
0.0196126
-0.0133539
0.0143066
-0.0131701
0.00954378
-0.0127687
0.00564895
-0.0120461
0.00319533
-0.0108252
0.00176011
-0.00920434
0.000726498
-0.00696775
-0.00403545
0.0349541
-0.00653734
-0.0416095
0.0285806
-0.00698232
0.0225609
-0.0073343
0.0169614
-0.00757064
0.0118726
-0.00767984
0.00747914
-0.00765259
0.00413335
-0.00747939
0.00199179
-0.00706278
0.000798076
-0.00577402
-0.00323737
0.0392767
0.000571119
-0.0463851
0.0324933
-0.000198964
0.0261076
-0.00094859
0.0201942
-0.00165721
0.0148137
-0.00229933
0.0100292
-0.00286806
0.00592441
-0.00337461
0.00267388
-0.00381224
0.000720599
-0.00382073
-0.00251677
0.0431178
0.00808978
-0.0506364
0.0359393
0.0069795
0.0291546
0.00583616
0.0228636
0.00463373
0.017169
0.00339535
0.0121103
0.00219065
0.00766852
0.00106715
0.00384959
6.70156e-06
0.0009798
-0.000950934
-0.00153696
0.0453992
0.015896
-0.0532054
0.0379693
0.0144093
0.0309132
0.0128923
0.0242666
0.0112802
0.018173
0.00948899
0.0128189
0.00754478
0.00828346
0.00560258
0.00454186
0.00374831
0.00163258
0.00195836
9.56282e-05
0.045553
0.024001
-0.0536579
0.0379331
0.0220293
0.0308018
0.0200236
0.0240716
0.0180104
0.0177097
0.0158509
0.01191
0.0133444
0.0070507
0.0104619
0.00341887
0.00738014
0.00114813
0.00422911
0.00124376
0.044492
-0.0530089
0.0365332
0.0292627
0.0226613
0.0165323
0.0107604
0.00566601
0.00203983