/*--------------------------------*- C++ -*----------------------------------*\
  =========                 |
  \\      /  F ield         | OpenFOAM: The Open Source CFD Toolbox
   \\    /   O peration     | Website:  https://openfoam.org
    \\  /    A nd           | Version:  13
     \\/     M anipulation  |
\*---------------------------------------------------------------------------*/
FoamFile
{
    format      ascii;
    class       volScalarField;
    location    "0.92";
    object      strainRateViscosityModel:nu;
}
// * * * * * * * * * * * * * * * * * * * * * * * * * * * * * * * * * * * * * //

dimensions      [0 2 -1 0 0 0 0];

internalField   nonuniform List<scalar> 
1800
(
9.40487
9.1976
9.01007
8.80097
8.57617
8.34417
8.11549
7.89818
7.6242
7.37922
9.58523
9.41878
9.2669
9.09733
8.91118
8.71144
8.50358
8.28869
8.0273
7.70207
9.70218
9.56269
9.42803
9.27097
9.08869
8.879
8.64092
8.36904
8.03058
7.6106
9.77539
9.65614
9.53324
9.38287
9.2005
8.98172
8.72281
8.41597
8.02878
7.55456
9.82168
9.7183
9.60558
9.46167
9.28071
9.05696
8.78549
8.45889
8.04775
7.55614
9.85185
9.76081
9.6573
9.52059
9.34355
9.11896
8.84034
8.50016
8.07152
7.5702
9.87179
9.78991
9.69398
9.56396
9.39147
9.16769
8.8842
8.53252
8.08735
7.57567
9.88475
9.80924
9.71888
9.59394
9.42494
9.20146
8.91309
8.55005
8.08853
7.56355
9.8926
9.82107
9.73416
9.6122
9.44466
9.21962
8.92483
8.54922
8.07121
7.52871
9.89646
9.82685
9.74153
9.62069
9.45309
9.22573
8.92512
8.53953
8.05038
7.49285
1.80346
1.40514
1.20852
1.3193
1.7303
2.25202
2.49684
2.44875
2.35871
2.33503
3.73282
1.78038
1.49045
1.981
2.69625
2.97272
2.81662
2.67084
2.68715
2.74067
4.70442
2.56905
2.4348
3.177
3.5971
3.34579
3.08061
3.11758
3.25788
3.33856
5.2701
3.88116
3.81467
4.21379
4.18072
3.82881
3.7205
3.85455
3.95719
4.00618
6.05615
5.2749
5.11761
5.12145
4.91493
4.65301
4.57773
4.61196
4.61224
4.65194
6.95993
6.45976
6.22672
6.0383
5.78828
5.54529
5.38905
5.29314
5.22194
5.27451
7.77173
7.37768
7.11677
6.86034
6.58746
6.32056
6.08721
5.90083
5.77004
5.82359
8.40012
8.0553
7.79202
7.51582
7.22655
6.93126
6.64221
6.38628
6.19218
6.22916
8.84934
8.54537
8.29101
8.01034
7.70575
7.37953
7.03566
6.70113
6.4157
6.42167
9.16164
8.90154
8.66633
8.39669
8.09574
7.7658
7.40648
7.03566
6.70851
6.75236
2.19305
1.72883
1.3314
0.936933
0.619576
0.349918
0.187833
0.143503
0.162311
0.255901
2.52721
1.84775
1.4062
0.931958
0.593104
0.333976
0.177668
0.108471
0.110139
0.200139
2.94773
1.97675
1.47841
0.929114
0.557047
0.306362
0.166015
0.0933817
0.0714453
0.142388
3.44016
2.14667
1.54966
0.931925
0.517416
0.270819
0.14887
0.082334
0.0668451
0.0852568
3.98248
2.38477
1.62711
0.940934
0.478571
0.231076
0.127647
0.0679205
0.0767217
0.0346713
4.52811
2.696
1.72345
0.957317
0.443593
0.190294
0.102719
0.0544756
0.0614086
0.0682625
4.99666
3.05582
1.84546
0.980073
0.412491
0.150529
0.0764902
0.0427465
0.0370918
0.135644
5.31256
3.43888
2.01268
1.02285
0.391686
0.114377
0.0521099
0.0261702
0.0515661
0.198663
5.34309
3.72235
2.1624
1.05477
0.368461
0.0822318
0.0307025
0.0237142
0.105321
0.260434
5.20185
3.98846
2.39798
1.15857
0.384828
0.0655989
0.0102529
0.0616758
0.149619
0.311011
4.94418
3.94203
2.45512
1.1728
0.359802
0.0536584
0.0350208
0.108951
0.206118
0.368093
5.33016
3.3473
2.13976
0.999208
0.361024
0.142014
0.118992
0.176763
0.276553
0.429599
4.90467
3.04618
2.24934
1.20757
0.593469
0.296769
0.208385
0.245856
0.338213
0.475586
4.54699
3.63286
2.68279
1.64228
0.894274
0.497485
0.342744
0.334129
0.403495
0.513329
5.11444
4.74806
3.34317
2.16482
1.23865
0.730492
0.499743
0.436587
0.471343
0.543417
6.25449
5.66959
4.05707
2.67379
1.59848
0.98157
0.675716
0.552695
0.543928
0.569158
7.26268
6.3737
4.71354
3.15435
1.95697
1.24012
0.860189
0.676582
0.619567
0.592294
8.0001
6.91202
5.25971
3.58875
2.29973
1.50024
1.05019
0.806123
0.698696
0.615388
8.51876
7.33071
5.69723
3.96989
2.62021
1.75347
1.23648
0.932899
0.775449
0.636771
8.931
7.69117
6.04966
4.28294
2.92513
2.02398
1.44696
1.0801
0.870558
0.668864
6.51282
6.43966
6.43043
6.44873
6.48732
6.5299
6.58193
6.71046
6.89512
6.82615
0.260651
1.05706
2.00763
2.92265
3.70354
4.31613
4.73283
4.98231
5.22133
5.72748
3.85082
3.54394
3.28473
3.11151
3.10657
3.25016
3.47234
3.71343
4.1649
4.84466
6.64415
6.62721
6.53712
6.3447
6.04333
5.65796
5.24977
4.89628
4.73971
4.54963
7.69183
7.67653
7.63211
7.54128
7.39613
7.18986
6.9271
6.61956
6.28608
5.65657
8.4495
8.43311
8.39434
8.32771
8.22957
8.09671
7.92836
7.71683
7.42793
6.90785
8.93967
8.92393
8.89028
8.83679
8.76166
8.6629
8.53815
8.37892
8.15467
7.80861
9.27298
9.25981
9.23246
9.18985
9.13052
9.05245
8.95268
8.82481
8.65281
8.4309
9.50446
9.49417
9.47307
9.44024
9.39426
9.33319
9.25424
9.15286
9.02288
8.87534
9.6899
9.68285
9.66852
9.64604
9.61405
9.5707
9.51361
9.43975
9.34638
9.2441
7.24798
7.52614
7.83691
8.08767
8.34482
8.59963
8.84139
9.06158
9.25458
9.46024
7.58307
7.94804
8.24096
8.48113
8.70936
8.92482
9.12231
9.299
9.45391
9.61805
7.49847
7.95736
8.32596
8.62051
8.87576
9.09774
9.28806
9.44952
9.58535
9.72225
7.44687
7.9576
8.37376
8.702
8.97659
9.20597
9.39471
9.54806
9.6713
9.78823
7.45632
7.98066
8.41861
8.7649
9.05054
9.28356
9.46978
9.61591
9.72868
9.83022
7.48241
8.01168
8.46402
8.82147
9.11234
9.34475
9.52606
9.66446
9.76796
9.85764
7.50363
8.03786
8.50277
8.86863
9.16197
9.39189
9.56763
9.6989
9.79478
9.8757
7.51114
8.05246
8.52872
8.90209
9.19746
9.42521
9.5964
9.72212
9.81243
9.88729
7.49836
8.05045
8.53742
8.91898
9.21768
9.44503
9.61371
9.73605
9.82289
9.89404
7.48288
8.04358
8.53592
8.92344
9.22525
9.4533
9.62123
9.74216
9.82746
9.89693
2.55988
2.51623
2.53385
2.74554
2.9319
2.55984
1.70274
1.1835
1.52443
4.20219
2.96631
2.87802
2.71806
2.71542
3.10517
3.43409
2.82596
1.91007
2.1279
5.13834
3.45295
3.40962
3.25184
3.06517
3.26498
3.82407
3.805
3.16408
3.29204
5.45745
3.94348
3.93278
3.90655
3.79748
3.89033
4.31786
4.58973
4.46924
4.6628
5.91463
4.49623
4.46878
4.54429
4.61614
4.78021
5.11391
5.43848
5.61963
5.89751
6.63216
5.09995
5.05744
5.1972
5.39579
5.65684
5.98042
6.30872
6.59566
6.90122
7.40691
5.65271
5.6165
5.81751
6.09023
6.40764
6.74087
7.0686
7.37824
7.67886
8.08665
6.06608
6.05157
6.31479
6.64217
6.99495
7.33982
7.66733
7.97424
8.259
8.61109
6.25992
6.27892
6.63083
7.02585
7.42013
7.78444
8.11676
8.41672
8.68285
8.98797
6.59982
6.56972
6.95593
7.37947
7.78135
8.14314
8.46655
8.75046
8.99301
9.25186
0.113854
0.15441
0.123008
0.0651347
0.0160356
0.396321
0.93368
1.48615
1.9526
2.43438
0.0805732
0.140046
0.11905
0.0677939
0.015825
0.389523
0.93766
1.54862
2.031
2.69987
0.0589042
0.131731
0.11737
0.071075
0.0248042
0.389783
0.943178
1.59783
2.10084
3.00939
0.045747
0.129258
0.119122
0.0782714
0.0429874
0.397118
0.94829
1.63414
2.20369
3.39549
0.0390839
0.131792
0.122938
0.0875183
0.0660593
0.405948
0.950494
1.6691
2.38126
3.86551
0.0381103
0.138682
0.12724
0.0962493
0.0897259
0.412968
0.953887
1.72612
2.64772
4.36272
0.0430857
0.150204
0.130845
0.102318
0.109286
0.415876
0.963741
1.82165
2.97969
4.79357
0.0545686
0.166788
0.133408
0.105952
0.124354
0.423799
1.00414
1.9807
3.34654
5.07829
0.0742594
0.188097
0.135088
0.103182
0.127199
0.423366
1.04091
2.13203
3.62508
5.08148
0.104878
0.21094
0.137428
0.103771
0.142154
0.470016
1.17745
2.39032
3.87488
4.89012
0.16142
0.23989
0.142882
0.100866
0.130469
0.473472
1.24255
2.50341
3.8842
4.67253
0.264406
0.27183
0.133035
0.0754462
0.0690424
0.385763
1.11827
2.30215
3.42907
5.19168
0.429269
0.271344
0.0995063
0.0137959
0.0150481
0.348569
1.15093
2.35202
3.25636
4.93778
0.682527
0.254881
0.0230819
0.0820373
0.099705
0.540842
1.43361
2.62597
3.71617
4.69864
1.0658
0.0477749
0.265232
0.234847
0.313171
0.89206
1.93455
3.2074
4.70764
5.17793
1.51471
0.122645
0.539422
0.415916
0.594657
1.30856
2.47432
3.91755
5.59894
6.22347
2.19503
0.683225
0.857087
0.688637
0.940786
1.73838
2.99226
4.59364
6.30248
7.21636
3.79218
1.70625
1.27556
1.03644
1.31685
2.15001
3.46108
5.16514
6.85407
7.96876
6.86013
3.57562
1.96394
1.42116
1.67831
2.52347
3.87309
5.63112
7.29512
8.50724
9.04906
6.38369
2.84332
2.00152
2.11499
2.896
4.22334
6.019
7.6865
8.9381
6.62435
6.68742
6.51073
6.38898
6.34865
6.32249
6.30553
6.31732
6.36195
6.47625
5.52782
5.009
4.76529
4.52431
4.12623
3.54034
2.79849
1.93203
1.04463
0.284212
4.84953
4.2367
3.8273
3.61684
3.43011
3.31067
3.31555
3.45778
3.65547
3.87437
4.71266
4.88617
5.02863
5.33809
5.70221
6.05242
6.33394
6.52139
6.61652
6.64157
5.68811
6.28602
6.61239
6.91138
7.17237
7.38146
7.53179
7.62813
7.67669
7.69239
6.86592
7.38861
7.68443
7.9023
8.07658
8.21483
8.31779
8.38855
8.43054
8.44888
7.7651
8.12048
8.35196
8.5179
8.64796
8.75098
8.82956
8.88582
8.92164
8.93899
8.40453
8.63267
8.80887
8.94092
9.04401
9.12465
9.18596
9.23006
9.25854
9.27259
8.86615
9.01619
9.14761
9.2506
9.33082
9.39283
9.43944
9.47267
9.494
9.50442
9.24869
9.35045
9.44302
9.51631
9.57294
9.61588
9.64748
9.66957
9.68348
9.69012
9.50947
8.98534
8.2359
6.92826
5.59797
0.131167
3.36083
5.96039
7.2141
8.15188
9.46542
8.92156
8.16814
6.89059
5.54939
0.563769
2.62221
5.70602
6.91644
7.91397
9.36569
8.78283
8.02029
6.80962
5.36636
1.60348
1.41357
5.20663
6.30936
7.40332
9.18256
8.54514
7.77451
6.65513
5.18645
2.74003
0.723099
4.23839
5.42158
6.5715
8.86812
8.1736
7.40403
6.37696
5.02653
3.36803
0.97096
2.63163
4.31696
5.39382
8.35054
7.62974
6.87344
5.91731
4.76513
3.44004
1.71926
1.30194
3.04929
3.98815
7.53605
6.89662
6.15557
5.22759
4.29966
3.26955
2.14312
1.17255
1.65626
2.55742
6.32539
6.03759
5.28136
4.2319
3.53343
2.91259
2.11847
1.43527
1.06862
1.23535
4.63172
5.23228
4.47438
2.99958
2.43706
2.27442
1.85604
1.38494
1.1228
0.659188
2.67284
4.53961
4.02167
1.96667
1.39673
1.48831
1.40997
1.21186
1.06417
0.845337
1.27681
3.7891
3.66668
1.33712
0.816135
0.897673
0.971207
0.956449
0.971901
1.01998
0.613532
2.97009
3.0823
0.956387
0.575313
0.64011
0.759655
0.820249
0.84423
0.877186
0.355406
2.18992
2.28558
0.688153
0.492757
0.595612
0.726752
0.811116
0.848879
0.873612
0.265334
1.5509
1.48928
0.52175
0.534963
0.674638
0.788158
0.859181
0.882575
0.892792
0.239651
1.01873
0.845529
0.514803
0.670249
0.803847
0.905055
0.968556
0.984246
0.981117
0.242852
0.492613
0.50021
0.637043
0.81814
0.955647
1.05341
1.11106
1.12156
1.11337
0.176702
0.204025
0.508605
0.756698
0.975426
1.12121
1.21084
1.25781
1.27463
1.27528
0.0451107
0.252229
0.649617
0.923212
1.13648
1.25376
1.32983
1.39978
1.45648
1.47834
0.0614414
0.492671
0.822513
1.09604
1.22957
1.33844
1.48927
1.64818
1.73541
1.75086
0.698325
0.865876
1.04041
1.18294
1.32279
1.59723
1.9106
2.08022
2.08163
2.04843
0.363094
0.0806196
0.224074
0.551188
0.795452
0.892393
0.888121
0.841715
0.792345
0.755294
0.462203
0.202614
0.319537
0.521897
0.72458
0.811356
0.809359
0.771088
0.729006
0.707111
0.525961
0.372694
0.440568
0.514164
0.653957
0.731009
0.732295
0.701272
0.665893
0.658648
0.639232
0.588447
0.596142
0.556133
0.587726
0.643591
0.650225
0.629022
0.601975
0.609978
0.806451
0.804126
0.742707
0.638834
0.542436
0.556149
0.566313
0.555847
0.537784
0.561127
1.01006
1.00005
0.876007
0.738344
0.531341
0.474389
0.481109
0.481671
0.473355
0.512057
1.22813
1.17156
0.990854
0.826431
0.553306
0.408472
0.397482
0.407258
0.408989
0.462642
1.45279
1.32561
1.08951
0.88892
0.590033
0.36811
0.319813
0.333631
0.345014
0.412656
1.68514
1.4689
1.17571
0.923994
0.619735
0.354119
0.254829
0.262612
0.281934
0.361792
1.92623
1.60362
1.25494
0.937204
0.630035
0.353688
0.210174
0.197492
0.220587
0.309675
2.0092
0.747655
0.718255
0.966469
1.19956
1.28687
1.26155
1.18277
1.11136
1.00916
1.39446
0.483082
0.579711
0.875716
1.11127
1.20033
1.17997
1.10854
1.04037
0.951023
0.751583
0.288073
0.481775
0.798661
1.03681
1.12797
1.11195
1.04641
0.982143
0.904151
0.253313
0.170437
0.406142
0.726854
0.961584
1.05137
1.0381
0.978559
0.918821
0.853825
0.435798
0.032696
0.267615
0.613803
0.865389
0.966735
0.962009
0.910267
0.855749
0.80423
9.35465
9.29006
9.14101
8.87311
8.43757
7.77891
6.87137
5.75934
4.58202
3.53714
9.19249
9.09567
8.88112
8.51168
7.94153
7.13649
6.10967
4.95513
3.8448
2.78685
9.0239
8.90028
8.62663
8.16107
7.46179
6.51619
5.37146
4.16867
3.0813
1.94239
8.81633
8.66222
8.32152
7.74795
6.9062
5.81428
4.55501
3.29481
2.22581
1.08991
8.58751
8.37941
7.92586
7.17748
6.11255
4.79211
3.35064
2.08509
0.993839
0.301998
1.06014
1.02433
1.0161
1.01961
0.915046
0.799559
1.29332
3.68354
3.85994
1.32284
0.949068
0.933613
0.925983
0.870536
0.718626
0.588347
0.910636
3.14219
3.11028
0.647297
0.985838
0.982299
0.965407
0.892614
0.74713
0.584097
0.697949
2.37309
2.34735
0.377361
1.05332
1.06523
1.06107
1.00123
0.889702
0.740327
0.655252
1.55821
1.63561
0.277216
1.18612
1.21029
1.21601
1.16829
1.07706
0.951826
0.789137
0.910705
0.920566
0.246111
1.35153
1.37148
1.37977
1.35471
1.2849
1.15163
0.930188
0.670421
0.358622
0.216833
1.55631
1.55225
1.51981
1.47744
1.42673
1.3206
1.08044
0.754814
0.272629
0.0664464
1.82475
1.8184
1.73579
1.58264
1.44247
1.3459
1.21131
0.902734
0.494858
0.046786
2.1053
2.15267
2.15131
1.95743
1.61339
1.32345
1.18761
1.05782
0.857567
0.676326
2.31365
2.36042
2.48512
2.5378
2.23581
1.63382
1.18306
1.06694
1.30531
2.04443
8.15168
7.21374
5.96003
3.36033
0.131423
5.5965
6.92777
8.2357
8.98536
9.50957
7.91329
6.91533
5.70501
2.62161
0.563638
5.54554
6.88914
8.16755
8.92162
9.46573
7.40186
6.30747
5.20484
1.41547
1.59976
5.36187
6.80736
8.01941
8.78295
9.36627
6.56885
5.41868
4.23622
0.726273
2.73172
5.18172
6.65228
7.77353
8.54547
9.18359
5.38944
4.31248
2.63266
0.971026
3.35668
5.02057
6.37351
7.4031
8.17435
8.86988
3.97983
3.04148
1.31019
1.7132
3.42678
4.75624
5.9125
6.87256
7.63122
8.35351
2.54111
1.65352
1.18714
2.13285
3.2509
4.28302
5.21887
6.15468
6.89953
7.54138
1.21765
1.08763
1.45167
2.10722
2.88049
3.50309
4.21752
5.28213
6.0436
6.33606
0.671613
1.15284
1.407
1.8423
2.23202
2.40023
2.98384
4.47947
5.24364
4.65551
0.884764
1.10233
1.24698
1.41256
1.46371
1.36892
1.94326
4.02665
4.56527
2.71648
2.09013
0.543374
1.06115
0.628646
0.660435
0.758329
0.632607
0.300321
0.0618945
0.356461
1.63039
0.23679
0.870101
0.478307
0.566389
0.681207
0.593816
0.356909
0.265769
0.488423
1.33444
0.0584183
0.642008
0.339855
0.477774
0.602025
0.562718
0.459584
0.473188
0.590986
1.09832
0.0146669
0.394109
0.231173
0.393068
0.518576
0.56298
0.626115
0.732835
0.758297
0.848397
0.0889607
0.189703
0.157648
0.315378
0.442204
0.609319
0.80533
0.975214
0.977629
0.636231
0.153606
0.0532055
0.100741
0.24365
0.386509
0.694913
0.975581
1.19475
1.22517
0.464056
0.208769
0.0486988
0.0527882
0.180153
0.365296
0.7889
1.11978
1.38722
1.48161
0.33187
0.209484
0.106873
0.0108049
0.121981
0.374155
0.863204
1.23702
1.55924
1.73682
0.233617
0.19496
0.121681
0.035705
0.0642284
0.391645
0.90732
1.33256
1.71328
1.97817
0.163066
0.173563
0.127281
0.0581087
0.0290788
0.40009
0.926997
1.41403
1.84644
2.20171
9.33657
6.77034
2.66482
1.69924
1.20161
1.12015
0.964312
0.781359
0.796245
2.03311
8.21092
4.63648
2.21492
1.41719
1.06891
1.03527
0.890779
0.650745
0.527832
1.39864
6.12016
3.064
1.78522
1.20979
0.963912
0.970967
0.83187
0.561049
0.328693
0.741047
4.13321
1.87596
1.49737
1.00322
0.857801
0.903822
0.775608
0.487565
0.228593
0.225216
2.83566
1.06131
1.24625
0.802501
0.754643
0.826308
0.68598
0.356366
0.0444284
0.398162
3.54769
4.58915
5.76325
6.87355
7.78046
8.43871
8.87389
9.14149
9.29033
9.35474
2.78094
3.84107
4.95237
6.10791
7.13589
7.94155
8.51189
8.88135
9.09583
9.19255
1.92843
3.07191
4.16219
5.36671
6.51363
7.46064
8.16064
8.62655
8.90031
9.02392
1.0557
2.20316
3.28165
4.54678
5.81006
6.90397
7.74682
8.32105
8.66207
8.81631
0.300547
0.962778
2.06401
3.33752
4.78516
6.10895
7.17549
7.9249
8.37903
8.58742
)
;

boundaryField
{
    left
    {
        type            calculated;
        value           nonuniform List<scalar> 
35
(
0.297574
0.566298
0.986946
1.62633
2.52468
3.69556
5.06608
6.47605
8.15849
9.4418
0.21454
0.134779
0.0823144
0.0501218
0.0330752
0.0276657
0.0331085
0.0526061
0.0924165
0.159918
4.93339
4.06162
3.23481
2.51294
1.91707
1.42712
1.03083
0.724865
0.496747
0.331185
9.61573
8.97907
7.92204
6.84776
5.85938
)
;
    }
    right
    {
        type            calculated;
        value           nonuniform List<scalar> 
35
(
1.00869
0.950754
0.904191
0.854693
0.806215
0.75881
0.712257
0.665295
0.61803
0.570476
0.522517
0.47389
0.424181
0.372846
0.319231
0.262669
0.202628
0.138672
0.0751474
0.0260072
0.0632896
0.143391
0.218616
0.286368
0.340004
0.399284
0.460107
0.503822
0.537506
0.562161
0.581856
0.599296
0.618017
0.636986
0.666837
)
;
    }
    down
    {
        type            calculated;
        value           nonuniform List<scalar> 
40
(
9.45431
7.26635
2.89576
1.78844
1.24237
1.14853
0.98978
0.822891
0.897343
2.26033
3.83287
4.88245
6.03396
7.09289
7.94462
8.55503
8.95448
9.19926
9.33565
9.39488
9.39479
9.33537
9.19874
8.95361
8.55369
7.94267
7.08995
6.02877
4.87321
3.81892
2.23232
0.84775
0.762155
0.998445
1.23134
1.31659
1.2886
1.20675
1.13429
1.028
)
;
    }
    up
    {
        type            calculated;
        value           nonuniform List<scalar> 
40
(
9.0341
7.80881
6.16753
4.39472
3.0334
2.11892
1.51954
1.12916
0.902887
0.681186
9.72927
9.72305
9.71045
9.69064
9.66234
9.62377
9.57263
9.50586
9.42076
9.32814
9.33506
9.42656
9.5104
9.57623
9.62665
9.66461
9.69238
9.71169
9.72379
9.72952
9.27074
7.09623
3.23928
2.15337
2.23437
3.01552
4.34549
6.14866
7.81368
9.04496
)
;
    }
    cylinder
    {
        type            calculated;
        value           nonuniform List<scalar> 
80
(
2.00555
4.57535
5.54109
5.78051
6.30533
7.09067
7.86182
8.47477
8.91245
9.2129
9.44581
9.61871
9.72981
9.79829
9.84096
9.86846
9.8865
9.89817
9.90522
9.90869
9.50039
9.6506
9.74902
9.81046
9.849
9.87389
9.89016
9.90054
9.90657
9.90913
5.32988
6.23478
6.21163
6.31619
6.83482
7.5268
8.17625
8.686
9.05066
9.3025
0.994233
0.471522
0.264182
0.183204
0.159537
0.165568
0.0828436
0.0422973
0.750376
2.43429
9.59446
9.55589
9.46745
9.30187
9.00979
8.51137
7.68627
6.36655
4.38717
2.23869
9.59436
9.55557
9.46683
9.30079
9.00793
8.5082
7.68053
6.3545
4.35817
2.19136
0.952853
0.44231
0.24437
0.170857
0.150286
0.165499
0.160732
0.0838536
0.0433611
0.738776
)
;
    }
    defaultFaces
    {
        type            empty;
    }
}


// ************************************************************************* //
