/*--------------------------------*- C++ -*----------------------------------*\
  =========                 |
  \\      /  F ield         | OpenFOAM: The Open Source CFD Toolbox
   \\    /   O peration     | Website:  https://openfoam.org
    \\  /    A nd           | Version:  13
     \\/     M anipulation  |
\*---------------------------------------------------------------------------*/
FoamFile
{
    format      ascii;
    class       volVectorField;
    location    "0.665";
    object      U;
}
// * * * * * * * * * * * * * * * * * * * * * * * * * * * * * * * * * * * * * //

dimensions      [0 1 -1 0 0 0 0];

internalField   nonuniform List<vector> 
1800
(
(0.0978011 -0.0883288 -4.48973e-20)
(0.286896 -0.241951 -3.41211e-20)
(0.473973 -0.379045 -4.85027e-19)
(0.657691 -0.500158 1.91471e-19)
(0.836611 -0.607171 7.43803e-20)
(1.00991 -0.701376 -3.9056e-20)
(1.17715 -0.783467 5.54949e-20)
(1.33793 -0.853676 1.97345e-19)
(1.49159 -0.912957 5.92226e-19)
(1.63352 -0.966892 8.10022e-19)
(0.119061 -0.0915029 -7.91151e-20)
(0.344291 -0.247709 -7.70614e-19)
(0.563283 -0.38475 3.78148e-21)
(0.775364 -0.504236 1.25764e-19)
(0.979505 -0.608922 -1.26266e-19)
(1.17521 -0.700695 7.65889e-20)
(1.36231 -0.780786 -2.80828e-19)
(1.54078 -0.850096 -5.02569e-20)
(1.7101 -0.9107 -6.93457e-19)
(1.86785 -0.967038 6.29739e-19)
(0.141651 -0.0923231 4.88228e-20)
(0.40368 -0.247731 2.09288e-19)
(0.653755 -0.382117 5.43325e-19)
(0.892178 -0.497905 -1.90264e-19)
(1.11866 -0.598385 -1.42997e-19)
(1.33321 -0.685812 7.56127e-20)
(1.53605 -0.761705 9.82604e-20)
(1.72743 -0.827295 1.94067e-19)
(1.90721 -0.884798 2.73606e-21)
(2.07421 -0.937864 1.50984e-19)
(0.163907 -0.0897209 -4.57191e-20)
(0.461699 -0.23947 -2.04391e-19)
(0.741428 -0.367619 -1.8126e-19)
(1.00451 -0.476977 -1.42299e-19)
(1.25162 -0.571022 1.81311e-19)
(1.48351 -0.652127 -5.70908e-20)
(1.70092 -0.721905 -4.31066e-21)
(1.90453 -0.78162 2.92902e-21)
(2.09455 -0.833363 -1.60453e-19)
(2.27025 -0.880352 -1.05947e-19)
(0.184658 -0.0833565 -1.1404e-19)
(0.515894 -0.221807 8.76366e-20)
(0.823292 -0.339431 1.79842e-19)
(1.10931 -0.439063 2.43306e-19)
(1.37561 -0.524071 -2.85023e-19)
(1.62371 -0.596777 -3.58076e-21)
(1.85494 -0.658766 4.24981e-19)
(2.07042 -0.711261 -1.85054e-19)
(2.27083 -0.756162 -1.23989e-19)
(2.45578 -0.796395 -5.35604e-20)
(0.20319 -0.0735001 1.73591e-19)
(0.564471 -0.1952 1.02985e-18)
(0.896791 -0.298074 1.43255e-19)
(1.20351 -0.384735 -5.03142e-19)
(1.48719 -0.458227 -1.75503e-19)
(1.75003 -0.520669 6.37692e-19)
(1.9939 -0.573524 -1.45379e-19)
(2.22036 -0.617899 -4.31591e-19)
(2.43047 -0.655444 -3.16651e-19)
(2.62419 -0.688741 2.6159e-19)
(0.218899 -0.0605913 1.1634e-19)
(0.605745 -0.160701 -7.47593e-19)
(0.959313 -0.24503 -1.08561e-18)
(1.28371 -0.315798 3.83787e-19)
(1.58223 -0.375564 4.49945e-19)
(1.85767 -0.426128 -9.02064e-22)
(2.11239 -0.468739 -6.39685e-19)
(2.34829 -0.504325 2.19315e-19)
(2.56683 -0.534212 -3.64472e-19)
(2.76827 -0.560569 -3.1121e-19)
(0.231236 -0.0451723 -3.42487e-19)
(0.6382 -0.119684 -6.92605e-19)
(1.00849 -0.182294 1.21221e-18)
(1.34677 -0.2347 5.98702e-19)
(1.65694 -0.278852 -2.69758e-19)
(1.94224 -0.316136 -2.11497e-19)
(2.20543 -0.347515 0)
(2.44874 -0.373689 1.16806e-19)
(2.67398 -0.395622 -2.95842e-19)
(2.88171 -0.414969 -7.74303e-20)
(0.239766 -0.0278754 -2.04466e-19)
(0.660652 -0.0737558 5.62385e-19)
(1.04249 -0.112198 1.71009e-19)
(1.39031 -0.144289 -5.12495e-19)
(1.7084 -0.171277 -7.84196e-19)
(2.00037 -0.194053 3.66198e-20)
(2.26924 -0.213245 1.67124e-19)
(2.51752 -0.229293 -5.46843e-19)
(2.74731 -0.242784 -2.89763e-19)
(2.95953 -0.254777 -5.63593e-19)
(0.24426 -0.00940242 4.51409e-19)
(0.672453 -0.024704 3.4415e-19)
(1.0603 -0.0373616 -9.38597e-20)
(1.41303 -0.0477884 -1.29794e-20)
(1.73514 -0.0564621 -3.87507e-19)
(2.03041 -0.063723 -8.57326e-20)
(2.30205 -0.0698099 -2.90578e-19)
(2.55276 -0.0748901 6.46559e-19)
(2.7848 -0.0791709 1.71003e-19)
(2.99945 -0.0830117 2.22306e-21)
(-0.00234463 -0.0217902 -3.39309e-20)
(0.0086134 -0.0693468 -7.03953e-20)
(0.0249034 -0.120475 -7.31865e-21)
(0.0493327 -0.171157 -3.40821e-20)
(0.0776869 -0.21654 -1.27298e-20)
(0.106534 -0.254687 -3.90025e-19)
(0.135569 -0.288623 -1.94816e-20)
(0.166361 -0.321936 1.19948e-19)
(0.19919 -0.355448 1.09602e-20)
(0.233083 -0.387813 -3.58121e-20)
(0.000847034 -0.0246921 -9.7753e-20)
(0.0149466 -0.0850767 -2.12285e-19)
(0.0393453 -0.160302 -5.44146e-20)
(0.0692736 -0.225207 -1.10489e-19)
(0.0995013 -0.275498 -9.66341e-20)
(0.130478 -0.317934 -2.79968e-19)
(0.164502 -0.358923 2.00629e-19)
(0.202165 -0.400319 1.68546e-19)
(0.241669 -0.440231 -2.56493e-19)
(0.281182 -0.476611 8.12616e-20)
(0.00549489 -0.0314986 -8.54123e-20)
(0.0287785 -0.107422 -8.66049e-19)
(0.0628519 -0.196082 -1.29362e-19)
(0.0974503 -0.268936 9.34936e-20)
(0.131824 -0.32718 6.78355e-20)
(0.169668 -0.380242 -4.50486e-19)
(0.212964 -0.432258 3.57008e-20)
(0.259158 -0.481743 3.66992e-19)
(0.30551 -0.526201 -3.86363e-19)
(0.351464 -0.565594 -2.58505e-19)
(0.0113686 -0.0409915 -1.77479e-21)
(0.0466248 -0.13088 1.897e-19)
(0.089638 -0.225321 1.61991e-21)
(0.133076 -0.307018 -1.08101e-20)
(0.177795 -0.377851 -3.01211e-20)
(0.227253 -0.443827 8.68534e-20)
(0.281106 -0.505583 7.32165e-20)
(0.33568 -0.560846 -1.36175e-19)
(0.389747 -0.609323 9.20905e-21)
(0.44392 -0.651887 -1.04422e-20)
(0.0185095 -0.0507753 0)
(0.0672386 -0.152431 5.46879e-21)
(0.121938 -0.253632 -5.09834e-19)
(0.178695 -0.345469 5.15282e-20)
(0.237811 -0.428564 -1.03559e-20)
(0.300519 -0.505068 5.98176e-21)
(0.365313 -0.574347 -2.54748e-20)
(0.429812 -0.635398 -7.77484e-21)
(0.493954 -0.688798 0)
(0.558149 -0.734803 -2.05855e-20)
(0.0273263 -0.0596525 3.18116e-20)
(0.0918956 -0.172859 -1.54181e-19)
(0.161766 -0.282524 -4.59005e-20)
(0.234629 -0.383887 -5.83854e-20)
(0.309737 -0.476746 4.96484e-20)
(0.386737 -0.561522 5.39558e-21)
(0.464242 -0.637681 8.99434e-20)
(0.540938 -0.704917 -2.17596e-20)
(0.616909 -0.763412 -6.96419e-19)
(0.69216 -0.812611 -1.01045e-20)
(0.0379755 -0.0676062 6.85994e-22)
(0.121237 -0.192181 5.57795e-20)
(0.209163 -0.310618 -7.85038e-20)
(0.299926 -0.420176 -1.67037e-20)
(0.392135 -0.520666 -7.29161e-20)
(0.484776 -0.612119 -9.61412e-21)
(0.576698 -0.694311 9.81458e-21)
(0.666938 -0.767124 -2.11785e-19)
(0.755521 -0.83024 3.83602e-19)
(0.842313 -0.882291 9.7166e-19)
(0.0503618 -0.0746019 1.51389e-20)
(0.15513 -0.209611 -1.42297e-19)
(0.263462 -0.335965 -2.13813e-19)
(0.373669 -0.45211 8.90285e-20)
(0.484101 -0.558262 -6.4326e-20)
(0.593542 -0.65461 9.8823e-20)
(0.70094 -0.741265 1.96945e-19)
(0.805404 -0.818284 -1.09197e-19)
(0.907015 -0.885092 -3.05993e-19)
(1.00568 -0.939503 7.25425e-19)
(0.0642904 -0.0803603 -2.64818e-20)
(0.193286 -0.224027 -5.78132e-19)
(0.324297 -0.35656 5.2433e-19)
(0.455683 -0.47723 3.37507e-19)
(0.585737 -0.586743 -8.59187e-20)
(0.713222 -0.685655 3.08731e-19)
(0.837126 -0.774425 -1.59974e-19)
(0.956559 -0.853446 -7.73053e-19)
(1.07172 -0.92202 -4.03747e-19)
(1.18266 -0.977261 4.53715e-19)
(0.0795454 -0.0846663 -7.98253e-20)
(0.235846 -0.234418 -5.44354e-19)
(0.392392 -0.370525 -8.27028e-21)
(0.547541 -0.492795 6.88159e-20)
(0.699593 -0.602461 3.37772e-19)
(0.84739 -0.70043 -1.85403e-19)
(0.99001 -0.787435 -1.695e-19)
(1.12653 -0.863818 1.89027e-19)
(1.2568 -0.928638 -3.51652e-19)
(1.38006 -0.980341 -5.84629e-19)
(0.402997 -0.531889 9.85411e-19)
(0.68493 -0.618315 -2.45611e-19)
(0.913796 -0.557575 -1.4337e-19)
(1.08761 -0.431001 2.70082e-19)
(1.23996 -0.279909 -2.31152e-19)
(1.36215 -0.139104 -2.99704e-19)
(1.45916 -0.0328219 -2.65279e-19)
(1.51562 0.0200588 -3.18242e-20)
(1.53614 0.0297707 1.15898e-20)
(1.55211 0.0208543 3.01818e-20)
(0.468943 -0.619759 9.65916e-19)
(0.741585 -0.693747 7.17642e-20)
(0.966372 -0.617612 1.09482e-20)
(1.12484 -0.48021 -2.17158e-19)
(1.26548 -0.320217 -7.19917e-19)
(1.38058 -0.171659 0)
(1.47857 -0.0572096 -2.45893e-19)
(1.55152 0.00622371 5.18291e-20)
(1.58848 0.0235115 4.48632e-21)
(1.61584 0.0175329 -5.14869e-21)
(0.556271 -0.705423 -9.98098e-19)
(0.810881 -0.766725 -7.09944e-20)
(1.02564 -0.675517 1.5635e-19)
(1.16624 -0.52726 -5.38201e-20)
(1.2912 -0.359309 -3.63099e-20)
(1.39675 -0.204039 6.45127e-20)
(1.49014 -0.0832594 0)
(1.56985 -0.0119389 0)
(1.62139 0.0111726 -2.49284e-20)
(1.67025 0.0113469 0)
(0.665741 -0.787178 -2.24842e-19)
(0.895686 -0.835299 4.03883e-19)
(1.09205 -0.730226 2.68272e-20)
(1.21254 -0.571169 0)
(1.31801 -0.396307 6.06839e-19)
(1.41168 -0.235235 -1.45154e-19)
(1.49782 -0.109364 0)
(1.57645 -0.0315363 1.32822e-19)
(1.62833 -0.00475756 0)
(1.70275 0.000365736 -2.8804e-21)
(0.795761 -0.863873 -1.4895e-19)
(0.997692 -0.897483 4.54391e-19)
(1.16627 -0.78058 -1.4665e-20)
(1.26389 -0.611111 0)
(1.3466 -0.430403 1.78762e-19)
(1.42572 -0.264568 2.72633e-19)
(1.50356 -0.134374 4.77222e-20)
(1.57674 -0.0507947 6.72452e-21)
(1.62592 -0.0211233 -2.34342e-20)
(1.7051 -0.0118888 3.22764e-20)
(0.942254 -0.934749 -1.33076e-18)
(1.11652 -0.951923 -9.41433e-19)
(1.24891 -0.825309 4.76631e-21)
(1.32008 -0.646359 5.74606e-19)
(1.37732 -0.460814 -3.03292e-19)
(1.43889 -0.291534 1.47388e-19)
(1.50767 -0.157665 2.35005e-19)
(1.57382 -0.0690326 -1.88122e-19)
(1.62121 -0.0375749 -1.87259e-21)
(1.70123 -0.0233905 2.87539e-20)
(1.1001 -0.999433 -2.60333e-19)
(1.25003 -0.998431 2.86415e-19)
(1.34022 -0.863294 3.95611e-21)
(1.38082 -0.676223 -1.7597e-20)
(1.4103 -0.486759 -5.87467e-19)
(1.45121 -0.3156 5.42067e-20)
(1.50955 -0.178919 -9.39649e-20)
(1.56861 -0.0864511 -2.73433e-20)
(1.61671 -0.0524541 -1.82006e-21)
(1.68533 -0.0354451 -2.27008e-20)
(1.26431 -1.05682 -1.2009e-18)
(1.39475 -1.03761 2.09835e-19)
(1.43918 -0.893943 0)
(1.44515 -0.700271 3.44487e-20)
(1.44487 -0.507702 5.18143e-19)
(1.46234 -0.336245 -1.44305e-21)
(1.50816 -0.198157 -3.08051e-19)
(1.56109 -0.102701 5.65845e-20)
(1.61051 -0.0660308 -5.70232e-22)
(1.63838 -0.0428166 -1.81069e-20)
(1.43199 -1.10348 3.39106e-18)
(1.54804 -1.07038 2.46183e-19)
(1.54562 -0.917961 4.63919e-19)
(1.5133 -0.718926 -3.17795e-20)
(1.48113 -0.523792 -3.43478e-20)
(1.47224 -0.353307 -4.26523e-19)
(1.50128 -0.215377 8.90334e-20)
(1.55203 -0.117009 3.06227e-21)
(1.57115 -0.0737902 -2.49906e-20)
(1.5769 -0.0449153 2.45195e-20)
(1.59923 -1.12817 -2.99827e-18)
(1.70185 -1.09559 1.27237e-18)
(1.65396 -0.937994 -2.32689e-19)
(1.58141 -0.735675 -7.87921e-19)
(1.51606 -0.538611 -6.5472e-19)
(1.47828 -0.370522 -2.55366e-19)
(1.48865 -0.232725 -6.54034e-20)
(1.51648 -0.130408 0)
(1.50934 -0.0748568 -5.20671e-20)
(1.50676 -0.0449746 1.12804e-19)
(1.88817 -1.17021 -6.71248e-18)
(1.92738 -1.10514 -1.69212e-18)
(1.80487 -0.932205 -5.85466e-20)
(1.67308 -0.72754 1.12008e-19)
(1.56258 -0.533786 1.61104e-19)
(1.48582 -0.372705 -1.04296e-19)
(1.4523 -0.238376 -4.00632e-20)
(1.43178 -0.131072 6.88934e-20)
(1.42034 -0.0725644 -5.62268e-20)
(1.40965 -0.0441466 -5.18041e-20)
(2.28932 -1.13485 4.95718e-19)
(2.17884 -1.05668 -2.86958e-19)
(1.94278 -0.865282 5.00146e-19)
(1.73573 -0.664739 -8.58791e-20)
(1.56263 -0.480579 1.0826e-20)
(1.42702 -0.333233 -6.54992e-20)
(1.34486 -0.215839 9.76565e-20)
(1.31331 -0.120902 -3.29697e-20)
(1.29631 -0.0671257 2.00116e-19)
(1.28071 -0.0412787 8.94241e-20)
(2.61059 -1.04359 2.27091e-18)
(2.35198 -0.948756 3.25844e-19)
(2.00835 -0.759439 -1.1788e-19)
(1.73267 -0.572897 1.61009e-36)
(1.50577 -0.410546 -2.5493e-20)
(1.3396 -0.286314 1.50876e-33)
(1.2359 -0.188766 -1.91674e-20)
(1.1866 -0.109009 -1.62303e-33)
(1.16425 -0.0605638 6.80309e-21)
(1.14415 -0.0373953 -1.52789e-20)
(2.78704 -0.893962 3.88727e-33)
(2.36948 -0.795614 2.96661e-18)
(1.97368 -0.630454 1.81848e-18)
(1.65357 -0.46936 0)
(1.4068 -0.334785 8.34631e-19)
(1.2301 -0.233388 4.32083e-19)
(1.1148 -0.155447 1.68415e-19)
(1.05324 -0.0929798 -2.83565e-33)
(1.02526 -0.0523757 -5.99298e-20)
(1.00156 -0.0324903 1.0153e-20)
(2.76366 -0.705887 3.84283e-18)
(2.24592 -0.629873 -1.4682e-19)
(1.84658 -0.491 0)
(1.51559 -0.361682 0)
(1.27144 -0.25563 0)
(1.09754 -0.178245 0)
(0.98135 -0.120275 -1.26327e-20)
(0.913706 -0.0743243 -4.1385e-33)
(0.881181 -0.0427231 7.56387e-21)
(0.854645 -0.026791 9.26701e-34)
(2.55118 -0.517034 3.26584e-18)
(2.02006 -0.462911 0)
(1.63858 -0.353635 0)
(1.32679 -0.256735 0)
(1.10103 -0.179667 0)
(0.941854 -0.125425 0)
(0.833781 -0.085679 3.29388e-20)
(0.766939 -0.0545791 -8.88812e-20)
(0.732415 -0.0320667 8.43277e-21)
(0.704446 -0.0205406 3.51448e-20)
(2.19012 -0.34271 0)
(1.70263 -0.303511 1.09835e-18)
(1.3613 -0.227604 1.09047e-18)
(1.09133 -0.16199 0)
(0.898437 -0.112323 6.67331e-19)
(0.764079 -0.0786362 4.05635e-19)
(0.671774 -0.0544198 2.51791e-19)
(0.611965 -0.035697 8.22332e-20)
(0.578921 -0.0213408 -2.28934e-20)
(0.551661 -0.0141763 -4.8444e-21)
(1.70286 -0.191136 -6.73869e-19)
(1.30019 -0.165594 -2.7416e-19)
(1.02506 -0.121754 1.75638e-19)
(0.815091 -0.0844382 -2.11303e-34)
(0.667721 -0.0580765 -7.7037e-20)
(0.566212 -0.041005 3.71442e-33)
(0.495701 -0.028848 4.89028e-20)
(0.448243 -0.0195498 9.86366e-20)
(0.420449 -0.0117718 9.81078e-21)
(0.396708 -0.00828647 -3.06103e-21)
(1.10088 -0.0758212 3.40803e-18)
(0.82316 -0.0626784 -1.86533e-19)
(0.640585 -0.0442925 -5.8883e-19)
(0.50615 -0.0289888 0)
(0.413826 -0.0195666 -6.40074e-19)
(0.350672 -0.0141102 -4.32414e-19)
(0.306199 -0.010272 -2.03392e-19)
(0.275285 -0.00740122 -1.40839e-19)
(0.25631 -0.00451929 1.6533e-19)
(0.239535 -0.00350792 -2.56772e-20)
(0.397352 -0.0033188 0)
(0.287866 0.00159409 0)
(0.220893 0.00409429 0)
(0.173552 0.00624696 0)
(0.142374 0.00585469 0)
(0.1212 0.00471177 0)
(0.105888 0.00366934 5.61737e-20)
(0.0947744 0.00254663 -2.17287e-34)
(0.0875477 0.0020797 1.23747e-20)
(0.0807764 0.000861835 1.13939e-20)
(3.3671 -0.0863115 5.39207e-19)
(3.32642 -0.265086 -8.41898e-20)
(3.24735 -0.430656 8.52091e-19)
(3.13238 -0.582157 -6.04759e-19)
(2.98634 -0.718124 6.66393e-19)
(2.81524 -0.83638 2.75222e-19)
(2.6266 -0.934055 -1.92758e-18)
(2.4295 -1.00784 -7.74445e-20)
(2.22467 -1.05367 0)
(1.98485 -1.06655 4.26172e-19)
(3.86191 -0.0750592 7.07367e-18)
(3.79859 -0.234213 1.95636e-18)
(3.70428 -0.38731 -4.86729e-18)
(3.58426 -0.531991 -4.49082e-19)
(3.44238 -0.665893 3.55884e-18)
(3.28185 -0.787318 1.92341e-18)
(3.1065 -0.895064 -5.16853e-18)
(2.92204 -0.987697 -1.95213e-18)
(2.72759 -1.06338 2.2031e-18)
(2.49236 -1.12051 8.52162e-19)
(3.83308 -0.0533005 -1.26251e-19)
(3.82024 -0.171566 4.40363e-18)
(3.78546 -0.299761 -1.08827e-18)
(3.72434 -0.430919 -3.44613e-18)
(3.63618 -0.55873 -6.80016e-18)
(3.52372 -0.678801 1.02787e-17)
(3.39117 -0.78879 4.18062e-18)
(3.2435 -0.88798 -3.91178e-18)
(3.08161 -0.97871 -2.90274e-18)
(2.88723 -1.06299 -3.42498e-18)
(3.62866 -0.0472854 -4.83943e-18)
(3.61961 -0.144931 -4.35349e-18)
(3.59964 -0.24374 5.47223e-18)
(3.56735 -0.343094 1.91192e-18)
(3.52241 -0.442377 -8.97147e-18)
(3.46417 -0.540807 4.92215e-19)
(3.39184 -0.637044 3.88643e-18)
(3.30513 -0.730428 -1.05398e-18)
(3.205 -0.82306 1.27684e-18)
(3.08307 -0.914767 2.81765e-19)
(3.34405 -0.036578 -9.16002e-19)
(3.339 -0.111656 3.00412e-18)
(3.3271 -0.188676 1.6196e-18)
(3.30744 -0.267172 -1.89427e-18)
(3.27986 -0.34607 -2.00139e-18)
(3.24465 -0.424137 -2.43405e-18)
(3.20204 -0.500334 3.79674e-19)
(3.15176 -0.574492 1.39019e-19)
(3.09549 -0.647756 -2.13978e-18)
(3.03287 -0.721301 -2.03444e-18)
(2.96257 -0.0265542 -1.82251e-18)
(2.95981 -0.0798887 -5.87233e-20)
(2.9533 -0.134599 -1.63755e-18)
(2.9424 -0.190903 3.1213e-19)
(2.92675 -0.24855 5.36786e-18)
(2.90629 -0.30693 -3.66753e-19)
(2.88092 -0.365115 4.43397e-20)
(2.85023 -0.422059 -2.60862e-18)
(2.81644 -0.476882 -3.49571e-18)
(2.786 -0.529863 3.72805e-19)
(2.48713 -0.0175106 -2.89315e-20)
(2.48578 -0.0519346 -8.14317e-19)
(2.48259 -0.0872482 -2.61487e-18)
(2.47708 -0.123771 -3.43104e-18)
(2.4688 -0.161534 2.49657e-18)
(2.45744 -0.200267 1.50226e-18)
(2.44261 -0.239353 -1.38508e-18)
(2.4237 -0.277791 1.6245e-18)
(2.40275 -0.314483 -4.29716e-19)
(2.38953 -0.34954 -9.63778e-19)
(1.91464 -0.00968826 7.72463e-19)
(1.91408 -0.0282975 -8.31806e-19)
(1.91278 -0.0474397 -3.27695e-20)
(1.91031 -0.0673591 -3.47237e-20)
(1.90624 -0.0881301 -7.27409e-20)
(1.90013 -0.109614 -2.33196e-18)
(1.89151 -0.131404 -6.7868e-19)
(1.87978 -0.152782 2.62612e-18)
(1.86664 -0.172975 -6.03509e-19)
(1.86191 -0.192206 -1.35114e-18)
(1.23988 -0.00373758 -1.64283e-18)
(1.23967 -0.0106956 -8.48916e-19)
(1.23923 -0.0179012 2.33921e-18)
(1.23823 -0.0254786 -8.8978e-19)
(1.23625 -0.0334753 -6.74127e-19)
(1.2329 -0.0418316 1.35204e-18)
(1.22775 -0.0503499 -1.2959e-18)
(1.22038 -0.0586654 1.287e-18)
(1.21202 -0.0663424 -1.21033e-18)
(1.21007 -0.073508 -4.24829e-18)
(0.454916 -0.000257973 6.63084e-19)
(0.454827 -0.000700529 7.03058e-19)
(0.454692 -0.00115912 7.48186e-19)
(0.454325 -0.00164005 1.35398e-18)
(0.453496 -0.00214018 -6.71989e-19)
(0.451983 -0.00263719 -1.29962e-18)
(0.449567 -0.00309911 6.14718e-19)
(0.445992 -0.00359293 2.48372e-20)
(0.441737 -0.00439222 -4.9653e-20)
(0.44035 -0.00504562 1.1057e-19)
(1.65355 0.997248 -2.8577e-19)
(1.51226 0.941839 1.79976e-20)
(1.35878 0.88073 -2.28575e-19)
(1.19767 0.808427 1.76349e-19)
(1.02957 0.723971 -1.91997e-19)
(0.854822 0.627072 -1.01108e-19)
(0.673758 0.516939 2.31987e-19)
(0.487035 0.392146 -3.04926e-19)
(0.295891 0.250643 3.09878e-19)
(0.10143 0.0916439 2.38724e-19)
(1.88638 0.992172 0)
(1.72967 0.934725 6.39236e-19)
(1.56083 0.872758 3.32396e-19)
(1.38228 0.801846 1.62784e-19)
(1.19453 0.719873 4.31304e-19)
(0.997532 0.625896 -8.68543e-20)
(0.79136 0.518601 -7.8543e-20)
(0.576347 0.39599 8.87781e-20)
(0.353318 0.255175 -1.04517e-18)
(0.122699 0.0943553 -1.66399e-20)
(2.09103 0.959024 1.56804e-19)
(1.92523 0.905058 0)
(1.74613 0.846455 -1.00739e-19)
(1.55493 0.779545 -3.83421e-19)
(1.3517 0.70208 5.37079e-20)
(1.13609 0.612788 3.97131e-19)
(0.907784 0.510088 -6.06888e-19)
(0.66659 0.391638 -2.0088e-19)
(0.412596 0.254045 7.8359e-19)
(0.145251 0.0947352 -1.75942e-19)
(2.28484 0.898345 1.8801e-19)
(2.11044 0.850554 1.19983e-20)
(1.9213 0.797857 2.45089e-20)
(1.71811 0.736998 3.60957e-20)
(1.50058 0.665854 -2.92684e-20)
(1.26793 0.583131 2.73262e-19)
(1.01926 0.487168 -2.06878e-19)
(0.753675 0.375531 -8.55575e-19)
(0.470271 0.244678 0)
(0.167388 0.0916966 0)
(2.46796 0.811813 -1.07076e-18)
(2.28435 0.770832 -6.09117e-19)
(2.08493 0.725059 -1.20665e-19)
(1.87003 0.671521 -6.65722e-20)
(1.6389 0.608294 0)
(1.39031 0.534136 2.40752e-19)
(1.12275 0.447434 2.67778e-19)
(0.834555 0.345835 2.86242e-19)
(0.52384 0.225953 -4.23747e-19)
(0.187908 0.0848981 -8.1235e-20)
(2.634 0.70209 7.66361e-19)
(2.44156 0.668061 -1.39173e-19)
(2.23244 0.629678 -2.21566e-19)
(2.00665 0.584305 0)
(1.76301 0.530279 0)
(1.49988 0.466488 0)
(1.21523 0.391464 -3.89805e-20)
(0.906685 0.30309 3.70275e-19)
(0.571499 0.198348 3.79144e-19)
(0.206083 0.0746243 -3.08567e-19)
(2.7758 0.572353 -1.19353e-18)
(2.5755 0.545259 -1.48133e-18)
(2.35787 0.514529 -3.03274e-22)
(2.1226 0.477946 -1.87662e-19)
(1.86818 0.434182 -9.28801e-20)
(1.59258 0.382318 -1.78841e-19)
(1.29333 0.321125 4.59092e-19)
(0.96749 0.248837 2.14862e-19)
(0.611584 0.162967 5.40027e-19)
(0.221315 0.0613403 2.02853e-19)
(2.88707 0.425747 -1.15707e-18)
(2.68027 0.405632 8.47055e-20)
(2.45576 0.38282 1.64525e-19)
(2.21297 0.355611 1.68177e-20)
(1.95004 0.323051 -3.14404e-19)
(1.66465 0.284469 -1.74211e-19)
(1.35398 0.238938 -6.2121e-19)
(1.01464 0.18514 1.1853e-19)
(0.642605 0.121237 5.14758e-20)
(0.233066 0.0456127 -6.26899e-21)
(2.9628 0.265187 1.01361e-19)
(2.75121 0.252354 3.97006e-19)
(2.52189 0.237904 -3.30293e-19)
(2.27394 0.22074 3.63017e-19)
(2.00524 0.200297 3.72549e-19)
(1.71322 0.176176 4.91897e-19)
(1.39481 0.147809 -6.3574e-19)
(1.04633 0.11439 -3.24415e-19)
(0.663412 0.0748098 -4.58506e-20)
(0.240916 0.0280951 -3.26995e-19)
(3.00053 0.0935774 5.81812e-19)
(2.78612 0.0887859 -1.86157e-19)
(2.55425 0.0834443 4.79564e-19)
(2.30367 0.0771504 -3.10669e-19)
(2.03208 0.0697281 2.66478e-19)
(1.73679 0.0610621 6.05412e-19)
(1.41457 0.0509786 3.78885e-19)
(1.06162 0.0392347 3.09343e-19)
(0.673397 0.0255066 2.65862e-19)
(0.244654 0.00950724 5.43615e-19)
(0.239544 0.452016 -4.69086e-19)
(0.203948 0.418298 -1.87406e-19)
(0.168389 0.381224 1.39115e-19)
(0.134869 0.343571 -4.19346e-19)
(0.105142 0.307453 -1.19483e-19)
(0.0782451 0.270202 6.92689e-19)
(0.0518683 0.223796 3.35844e-19)
(0.0259542 0.158954 -1.55814e-19)
(0.00705695 0.0796898 1.14493e-19)
(-0.00112592 0.0224455 -6.07178e-20)
(0.288627 0.544286 4.11253e-19)
(0.248725 0.507494 4.58132e-19)
(0.208178 0.465449 -1.17534e-20)
(0.167854 0.418431 -1.32607e-19)
(0.131138 0.37032 -3.12909e-19)
(0.100608 0.322733 8.28101e-20)
(0.0734764 0.269413 2.24922e-19)
(0.0458905 0.19696 1.65305e-19)
(0.0183379 0.101889 -5.90746e-19)
(0.00278785 0.0288717 -1.23584e-19)
(0.359666 0.633097 -6.00691e-19)
(0.3138 0.592954 -4.813e-19)
(0.268 0.54712 2.57458e-19)
(0.221355 0.493816 1.38083e-19)
(0.17581 0.434064 -6.00213e-21)
(0.136273 0.371865 -1.39946e-19)
(0.10212 0.305608 -2.9363e-20)
(0.0684365 0.224893 -5.55259e-19)
(0.0336678 0.126016 -2.69421e-19)
(0.00763649 0.0377922 -3.90694e-20)
(0.454232 0.717842 5.03161e-19)
(0.400073 0.673653 1.64737e-19)
(0.346377 0.622647 -1.49319e-19)
(0.292236 0.563608 6.32878e-20)
(0.237751 0.495518 -5.48518e-22)
(0.186587 0.42085 1.33983e-21)
(0.140104 0.340641 -1.32178e-19)
(0.0954597 0.25024 3.78626e-19)
(0.0514332 0.147726 -4.19342e-19)
(0.0135791 0.0477043 -6.51429e-20)
(0.572016 0.797819 -2.8216e-19)
(0.507868 0.749731 -8.89024e-20)
(0.443586 0.692891 -1.43389e-20)
(0.378973 0.627179 -7.01422e-20)
(0.313722 0.551928 5.84795e-20)
(0.249662 0.468037 5.26255e-20)
(0.188379 0.376693 -2.78943e-20)
(0.129323 0.276636 -2.82233e-19)
(0.0725251 0.16763 2.18389e-19)
(0.0209167 0.0568351 8.7287e-20)
(0.709417 0.870912 6.43409e-19)
(0.634368 0.819535 3.20924e-19)
(0.558132 0.757376 2.03299e-19)
(0.480857 0.68532 4.82085e-20)
(0.402413 0.603492 1.54878e-19)
(0.32387 0.512333 7.83361e-20)
(0.246466 0.412496 1.43235e-19)
(0.170864 0.303896 5.79293e-20)
(0.0980517 0.18679 -1.59902e-20)
(0.0299959 0.0650274 -1.33606e-20)
(0.862015 0.934839 -1.19761e-19)
(0.775537 0.880646 -8.25223e-19)
(0.686699 0.814027 -7.6435e-20)
(0.595722 0.73679 -5.18034e-20)
(0.502559 0.649596 -1.95414e-20)
(0.408123 0.552688 1.51417e-19)
(0.313476 0.446293 -4.38238e-20)
(0.219708 0.330401 6.50086e-20)
(0.128292 0.205073 -1.44614e-19)
(0.0409033 0.0724922 -1.24971e-21)
(1.02672 0.98601 -8.84872e-19)
(0.92846 0.929615 5.9428e-20)
(0.82665 0.859685 -2.33705e-19)
(0.721458 0.778866 -7.25668e-20)
(0.612764 0.687989 -2.41521e-20)
(0.501454 0.587053 -7.5172e-20)
(0.388524 0.475882 5.62914e-20)
(0.275162 0.354189 6.03119e-20)
(0.162981 0.221554 -9.82157e-21)
(0.0535438 0.07912 -1.03801e-19)
(1.20389 1.01792 1.23827e-19)
(1.09349 0.960926 5.23233e-19)
(0.978247 0.889706 1.55374e-21)
(0.858218 0.807542 -2.96772e-20)
(0.733141 0.71529 1.50938e-19)
(0.603889 0.612541 -3.47372e-19)
(0.471402 0.498745 -2.4441e-19)
(0.33683 0.373206 3.56129e-19)
(0.201771 0.235006 1.44191e-19)
(0.0677022 0.0845325 -3.62326e-20)
(1.40058 1.01545 7.39847e-19)
(1.27805 0.962334 3.23766e-19)
(1.14782 0.895356 5.59092e-20)
(1.01087 0.816397 -1.95031e-19)
(0.867268 0.726517 -1.64449e-20)
(0.717899 0.625334 4.6563e-19)
(0.563583 0.512002 -2.68241e-19)
(0.405341 0.385474 -1.84488e-19)
(0.244705 0.244319 3.35803e-19)
(0.0831141 0.088441 -6.05116e-21)
(0.976504 0.0983278 8.69415e-21)
(1.14348 0.141974 -8.20888e-22)
(1.21356 0.190265 -2.32504e-20)
(1.32577 0.171026 0)
(1.3766 0.15579 1.00528e-21)
(1.27834 0.234578 -5.17999e-20)
(1.12899 0.385705 -5.43791e-20)
(0.949149 0.543494 -1.34825e-20)
(0.711558 0.648325 -3.03195e-19)
(0.416509 0.595514 4.28587e-19)
(0.981559 0.0793324 1.95053e-19)
(1.13559 0.11436 -3.02928e-20)
(1.20971 0.159945 1.90369e-21)
(1.31674 0.152472 1.19294e-20)
(1.37911 0.157935 3.58451e-21)
(1.29804 0.269088 -3.13251e-21)
(1.15895 0.435822 1.69106e-20)
(0.993804 0.606527 0)
(0.76149 0.727357 7.93981e-19)
(0.479398 0.686704 -5.65422e-19)
(0.986118 0.0606133 -1.13118e-19)
(1.13217 0.0877917 6.83357e-21)
(1.20894 0.130492 7.75946e-20)
(1.31374 0.132646 1.91663e-20)
(1.38204 0.159228 -2.30133e-20)
(1.31796 0.301442 -3.5002e-20)
(1.1921 0.484409 -6.84968e-21)
(1.04398 0.667977 4.44997e-20)
(0.823123 0.803816 -1.24063e-21)
(0.564498 0.774482 -3.74649e-19)
(0.989993 0.041657 -8.09882e-20)
(1.13281 0.0618087 1.54741e-20)
(1.21177 0.101717 7.54314e-20)
(1.31698 0.112624 3.04755e-20)
(1.38781 0.160029 -2.36338e-20)
(1.33819 0.331636 -2.63881e-20)
(1.22877 0.530776 6.95466e-20)
(1.10017 0.726723 2.68489e-20)
(0.899943 0.875444 -5.44634e-19)
(0.673732 0.856887 -1.77987e-19)
(0.993146 0.0221484 3.70379e-20)
(1.13677 0.0359232 -4.70404e-20)
(1.21784 0.0735126 -6.7698e-20)
(1.32505 0.0930102 2.2143e-20)
(1.39532 0.161355 0)
(1.35842 0.360136 0)
(1.26901 0.574286 7.42521e-20)
(1.16353 0.781384 -2.82341e-20)
(0.994719 0.939759 -1.1797e-19)
(0.805137 0.932277 -5.73857e-20)
(0.995589 0.00193686 3.48682e-21)
(1.14323 0.00972631 5.78228e-20)
(1.22626 0.0457888 -2.0751e-19)
(1.33618 0.0743719 -7.62562e-20)
(1.40331 0.164014 -4.89156e-21)
(1.37852 0.387117 1.22065e-19)
(1.313 0.614092 1.51011e-19)
(1.23557 0.830243 -1.80452e-20)
(1.10786 0.994961 -4.32407e-20)
(0.953777 1 2.61858e-21)
(0.996649 -0.0192675 1.33929e-21)
(1.15136 -0.0171246 2.92867e-20)
(1.23605 0.0185646 -6.54258e-20)
(1.34895 0.0572503 -1.53206e-19)
(1.41084 0.168239 1.18746e-20)
(1.39875 0.412261 7.42581e-21)
(1.36132 0.649085 -5.94744e-20)
(1.31742 0.871646 -1.09861e-19)
(1.23733 1.04076 -2.99435e-20)
(1.11388 1.06021 -9.80223e-19)
(0.995084 -0.0413426 1.48268e-20)
(1.16058 -0.0449078 -1.42175e-19)
(1.24644 -0.00799417 1.32107e-19)
(1.36217 0.0424099 1.01345e-19)
(1.41674 0.174501 5.04226e-21)
(1.41905 0.435129 -1.30742e-19)
(1.41387 0.678238 -4.54384e-22)
(1.40841 0.904652 -1.28216e-19)
(1.37935 1.07802 1.11064e-20)
(1.27986 1.11232 2.88355e-18)
(0.990454 -0.0635901 -8.70477e-20)
(1.17074 -0.0737366 7.96644e-20)
(1.25697 -0.0337289 1.89825e-19)
(1.37514 0.029967 -1.1374e-19)
(1.42154 0.18256 -2.22594e-19)
(1.441 0.455438 9.25885e-21)
(1.47193 0.701416 1.67797e-19)
(1.50854 0.929959 -5.70016e-19)
(1.53086 1.10803 -2.68405e-20)
(1.44834 1.15332 -6.47454e-18)
(0.98363 -0.0864526 4.11563e-21)
(1.18211 -0.103582 1.40211e-19)
(1.26739 -0.0584484 6.09512e-20)
(1.38664 0.0222149 -2.74187e-19)
(1.423 0.196445 -2.41594e-19)
(1.46214 0.476778 -7.09833e-20)
(1.53116 0.722393 7.79752e-20)
(1.61163 0.950908 -2.10482e-19)
(1.68374 1.13041 -1.08693e-18)
(1.61561 1.1723 -7.95171e-18)
(0.973998 -0.117527 -1.44986e-20)
(1.19598 -0.143203 -3.23048e-20)
(1.2769 -0.0919434 -7.60175e-20)
(1.39744 0.00758414 1.38654e-19)
(1.42549 0.195368 2.00006e-19)
(1.492 0.472385 -5.95591e-20)
(1.61193 0.711839 -1.41274e-19)
(1.75381 0.94006 -1.20329e-18)
(1.90279 1.13241 -1.59957e-18)
(1.89933 1.20864 3.2864e-18)
(0.961896 -0.156117 -4.06009e-19)
(1.21401 -0.192645 1.64287e-20)
(1.2807 -0.138074 -5.73788e-20)
(1.39795 -0.0140932 3.3001e-19)
(1.40481 0.173453 3.4333e-19)
(1.49382 0.427827 -4.55064e-21)
(1.66821 0.647581 -6.74277e-20)
(1.88072 0.865659 -2.91856e-19)
(2.13955 1.07125 2.76091e-19)
(2.28451 1.16076 -3.23387e-19)
(0.949363 -0.196482 -2.78822e-20)
(1.23894 -0.24249 -5.48228e-20)
(1.27945 -0.182426 3.06065e-20)
(1.39314 -0.0328345 2.70408e-20)
(1.379 0.162173 1.72719e-33)
(1.47065 0.370847 2.5447e-21)
(1.68074 0.56114 -2.04492e-33)
(1.94915 0.759428 1.85373e-19)
(2.30196 0.956316 -9.31118e-19)
(2.58733 1.0584 -6.29304e-19)
(0.937023 -0.243073 1.41208e-18)
(1.27025 -0.282425 -7.74513e-34)
(1.24952 -0.228207 -4.0184e-20)
(1.27153 -0.0360967 -2.28015e-19)
(1.26364 0.144268 -4.47452e-19)
(1.38979 0.302134 -8.87323e-19)
(1.61939 0.459864 -5.07126e-33)
(1.92936 0.630962 -1.73823e-18)
(2.32586 0.80203 -3.17726e-18)
(2.75376 0.902553 1.67529e-18)
(0.927285 -0.300539 0)
(1.316 -0.32717 -1.6203e-33)
(1.11275 -0.20682 0)
(1.10788 -0.0292959 0)
(1.12001 0.114952 0)
(1.25885 0.232671 0)
(1.48981 0.355297 -8.07944e-33)
(1.81512 0.491467 0)
(2.21352 0.634232 -3.39765e-19)
(2.73502 0.711989 1.25759e-18)
(0.916471 -0.360799 1.16119e-19)
(1.25175 -0.326233 -4.68938e-19)
(0.960049 -0.17394 -5.49393e-20)
(0.934431 -0.0256598 0)
(0.956821 0.0826626 0)
(1.09031 0.165365 6.0536e-20)
(1.30648 0.253814 1.17839e-18)
(1.61603 0.354626 -1.95062e-19)
(1.99675 0.466173 -4.95303e-19)
(2.53248 0.520464 4.67295e-18)
(0.88346 -0.405316 -1.52016e-17)
(1.09211 -0.279929 1.08753e-18)
(0.79269 -0.130412 -7.27121e-20)
(0.747318 -0.0209727 -7.5928e-20)
(0.773311 0.0525532 -5.11745e-19)
(0.889715 0.104462 -7.7252e-19)
(1.07643 0.161213 -1.04872e-18)
(1.34609 0.228981 -1.38311e-18)
(1.68764 0.306102 -1.60591e-18)
(2.17994 0.34444 3.61307e-18)
(0.808997 -0.394519 -4.13648e-19)
(0.88649 -0.207587 -1.21642e-18)
(0.605563 -0.0828127 -1.25698e-19)
(0.549862 -0.0152535 -8.41502e-20)
(0.57213 0.0276356 -9.85351e-34)
(0.661721 0.0545124 9.38751e-20)
(0.805526 0.0845464 -1.48608e-32)
(1.01624 0.12292 -1.93434e-19)
(1.29248 0.167301 2.98928e-19)
(1.69929 0.192069 7.05753e-19)
(0.664249 -0.288845 3.4255e-17)
(0.618262 -0.108096 -3.14025e-18)
(0.393381 -0.0351 -2.40794e-19)
(0.33947 -0.00735521 -1.57021e-19)
(0.353897 0.00926894 3.93603e-19)
(0.410542 0.0183477 7.83896e-19)
(0.501241 0.0291739 7.95078e-19)
(0.636743 0.0448771 4.59833e-19)
(0.820758 0.0634538 -1.90375e-19)
(1.10156 0.076225 3.5693e-18)
(0.336835 -0.0768244 5.58809e-19)
(0.261852 -0.00230501 -6.76605e-33)
(0.144385 0.0190758 -3.05008e-19)
(0.120427 0.00335456 0)
(0.123658 -0.00234386 0)
(0.14188 -0.00541057 9.64907e-20)
(0.17239 -0.00624422 9.33817e-35)
(0.2203 -0.00417475 -1.23574e-19)
(0.28813 -0.00161875 -2.82591e-19)
(0.399008 0.00331841 1.00156e-18)
(2.00204 1.09639 -1.78975e-18)
(2.23905 1.07844 -2.30494e-18)
(2.44207 1.02909 0)
(2.63707 0.952494 -7.58108e-19)
(2.82358 0.852504 -1.78287e-18)
(2.99276 0.732388 -2.24949e-18)
(3.13709 0.595041 -4.76004e-19)
(3.25054 0.442698 1.26928e-18)
(3.32824 0.276965 -3.54791e-18)
(3.36764 0.0986985 1.35669e-18)
(2.49865 1.14194 2.67696e-19)
(2.73054 1.0819 1.39728e-18)
(2.92386 1.00418 1.43899e-19)
(3.10673 0.909792 6.75756e-19)
(3.28059 0.800655 -1.10399e-18)
(3.43996 0.678322 -5.00039e-18)
(3.58096 0.544011 2.46791e-18)
(3.70047 0.39932 1.27034e-17)
(3.79428 0.246324 1.04065e-19)