/*--------------------------------*- C++ -*----------------------------------*\
  =========                 |
  \\      /  F ield         | OpenFOAM: The Open Source CFD Toolbox
   \\    /   O peration     | Website:  https://openfoam.org
    \\  /    A nd           | Version:  13
     \\/     M anipulation  |
\*---------------------------------------------------------------------------*/
FoamFile
{
    format      ascii;
    class       volScalarField;
    location    "2";
    object      p;
}
// * * * * * * * * * * * * * * * * * * * * * * * * * * * * * * * * * * * * * //

dimensions      [0 2 -2 0 0 0 0];

internalField   nonuniform List<scalar> 
1800
(
-1.56912
-1.56219
-1.55282
-1.54194
-1.5336
-1.53108
-1.53595
-1.54873
-1.56583
-1.59907
-1.60046
-1.59253
-1.5836
-1.57417
-1.56663
-1.56267
-1.56235
-1.56445
-1.56663
-1.5743
-1.65134
-1.64185
-1.63242
-1.62321
-1.61496
-1.60734
-1.59888
-1.58781
-1.57374
-1.55793
-1.71902
-1.70749
-1.69642
-1.68551
-1.67332
-1.65774
-1.63693
-1.61029
-1.57811
-1.54305
-1.80217
-1.78849
-1.77476
-1.75943
-1.73888
-1.7105
-1.67377
-1.63
-1.58166
-1.53217
-1.89791
-1.88218
-1.86403
-1.84029
-1.8062
-1.76064
-1.70572
-1.64506
-1.58198
-1.51966
-1.99982
-1.98214
-1.95696
-1.92004
-1.86777
-1.80217
-1.7286
-1.65224
-1.57675
-1.50489
-2.09834
-2.07827
-2.04286
-1.98843
-1.91474
-1.82827
-1.73689
-1.64623
-1.55939
-1.47807
-2.18144
-2.15792
-2.10941
-2.03461
-1.93861
-1.83247
-1.72541
-1.62263
-1.52647
-1.43783
-2.23652
-2.20824
-2.14492
-2.04883
-1.932
-1.80886
-1.68877
-1.57598
-1.47186
-1.37648
-0.955384
-0.961937
-0.97007
-0.9803
-0.993125
-1.00726
-1.02115
-1.03287
-1.03841
-1.03308
-1.09779
-1.10297
-1.11012
-1.12075
-1.13539
-1.15249
-1.17017
-1.18637
-1.19662
-1.19439
-1.25112
-1.25468
-1.26055
-1.27194
-1.28909
-1.31008
-1.33266
-1.35465
-1.37176
-1.37588
-1.39187
-1.39352
-1.39771
-1.40985
-1.4294
-1.45415
-1.48144
-1.50884
-1.53301
-1.54522
-1.49993
-1.49836
-1.50067
-1.51211
-1.53223
-1.55884
-1.58887
-1.61944
-1.64778
-1.66479
-1.56455
-1.55937
-1.55835
-1.5664
-1.5836
-1.60834
-1.63787
-1.66913
-1.6987
-1.71813
-1.588
-1.58005
-1.5748
-1.57655
-1.5865
-1.6045
-1.62896
-1.65717
-1.6857
-1.70629
-1.5835
-1.57461
-1.56589
-1.5605
-1.56106
-1.56936
-1.58559
-1.60807
-1.63382
-1.65364
-1.56874
-1.56048
-1.5502
-1.53994
-1.53343
-1.53413
-1.54371
-1.56152
-1.58522
-1.60258
-1.55995
-1.55253
-1.5424
-1.53062
-1.52154
-1.51914
-1.52561
-1.54065
-1.56051
-1.57349
-0.922135
-0.212532
-0.0127538
0.114063
0.101454
0.0803303
0.0590118
0.0402474
0.0233163
0.0078973
-1.04496
-0.274319
-0.0345786
0.104725
0.0971915
0.0775743
0.057023
0.038843
0.0224795
0.00756875
-1.19703
-0.351437
-0.0652189
0.0900512
0.0909061
0.0737792
0.054471
0.0371458
0.0215031
0.00719488
-1.35398
-0.432495
-0.103355
0.0701866
0.0824197
0.0688774
0.0513288
0.0351406
0.0203783
0.00677394
-1.4945
-0.512895
-0.146382
0.0455323
0.071538
0.0628006
0.0475739
0.0328153
0.0190984
0.00630513
-1.60782
-0.591183
-0.191822
0.0166754
0.0581471
0.0554991
0.0431943
0.0301629
0.0176599
0.00578886
-1.6833
-0.668799
-0.238513
-0.0154749
0.0422834
0.0469595
0.0381908
0.0271851
0.0160652
0.00522832
-1.71581
-0.746785
-0.286088
-0.0498984
0.0241387
0.037193
0.03256
0.0238823
0.0143182
0.00463075
-1.70377
-0.82156
-0.333996
-0.0853707
0.00410107
0.0262288
0.0262665
0.0202274
0.012404
0.00400163
-1.64978
-0.888806
-0.38125
-0.120296
-0.0169602
0.0143079
0.0193501
0.0162031
0.0102931
0.0033375
-1.52761
-0.877451
-0.396938
-0.146336
-0.039017
-0.000488954
0.0100628
0.0105862
0.00729461
0.00242075
-1.28923
-0.796821
-0.390822
-0.166842
-0.0626823
-0.0183001
-0.00159056
0.00338344
0.00349089
0.0012107
-1.11743
-0.736114
-0.390678
-0.182757
-0.0807459
-0.0328938
-0.0116885
-0.00304829
4.01843e-05
0.000117368
-0.98492
-0.683864
-0.392115
-0.202999
-0.103067
-0.0500931
-0.022874
-0.00980648
-0.00345868
-0.00100064
-0.883995
-0.647708
-0.399929
-0.222674
-0.121041
-0.0639263
-0.0323279
-0.0157155
-0.00654957
-0.00197336
-0.805086
-0.622245
-0.412019
-0.245826
-0.141107
-0.0784157
-0.0416752
-0.0213151
-0.00937182
-0.00284146
-0.743027
-0.607975
-0.43056
-0.271254
-0.159945
-0.0908219
-0.0494636
-0.0259595
-0.0116494
-0.00350844
-0.697157
-0.603298
-0.452325
-0.296508
-0.17737
-0.101521
-0.05593
-0.0298255
-0.0133933
-0.00396931
-0.67055
-0.606326
-0.468578
-0.312437
-0.187926
-0.107653
-0.0594138
-0.0306729
-0.0141532
-0.00412381
-0.656628
-0.609923
-0.476847
-0.319329
-0.193349
-0.111126
-0.0615923
-0.0321489
-0.0148348
-0.00432569
-1.21209
-1.28116
-1.33168
-1.3726
-1.40098
-1.43299
-1.46125
-1.51031
-1.54835
-1.61901
-1.02631
-1.0986
-1.15483
-1.20303
-1.23909
-1.27404
-1.30044
-1.32992
-1.35589
-1.39169
-0.879382
-0.949492
-1.00771
-1.056
-1.0944
-1.12503
-1.14893
-1.16768
-1.18565
-1.20242
-0.759596
-0.826807
-0.884326
-0.931036
-0.969146
-0.997589
-1.02017
-1.03601
-1.04981
-1.06036
-0.66299
-0.727217
-0.782421
-0.827591
-0.864361
-0.892336
-0.913891
-0.929004
-0.939838
-0.9464
-0.585366
-0.646725
-0.699378
-0.742921
-0.77811
-0.805321
-0.825587
-0.839602
-0.84831
-0.852422
-0.523902
-0.582723
-0.63313
-0.674773
-0.70826
-0.733936
-0.75274
-0.765273
-0.77259
-0.775323
-0.477666
-0.534476
-0.583122
-0.622813
-0.654615
-0.678294
-0.695673
-0.706412
-0.712698
-0.713754
-0.449739
-0.505641
-0.552964
-0.591347
-0.622069
-0.64448
-0.660783
-0.669882
-0.675261
-0.674342
-0.436807
-0.492979
-0.540725
-0.579972
-0.610853
-0.633746
-0.649642
-0.658551
-0.662645
-0.659172
0.333343
0.260829
0.177769
0.0887788
-0.00742371
-0.113285
-0.228739
-0.347374
-0.447353
-0.496506
0.118974
0.0401882
-0.047689
-0.1439
-0.250316
-0.368637
-0.497792
-0.629673
-0.739695
-0.792607
-0.116291
-0.198589
-0.289668
-0.390744
-0.504
-0.63078
-0.769425
-0.910582
-1.02772
-1.08247
-0.343342
-0.429905
-0.526056
-0.633323
-0.753607
-0.887929
-1.03431
-1.18249
-1.30421
-1.35867
-0.550779
-0.642852
-0.745371
-0.859606
-0.987131
-1.12879
-1.28203
-1.43611
-1.5575
-1.61138
-0.738331
-0.83599
-0.944558
-1.06509
-1.19887
-1.34637
-1.50542
-1.65908
-1.77814
-1.83099
-0.905929
-1.00815
-1.12142
-1.24647
-1.38454
-1.53545
-1.6942
-1.84525
-1.95942
-2.00946
-1.05545
-1.16007
-1.27506
-1.40147
-1.54025
-1.69044
-1.84572
-1.98993
-2.09532
-2.14092
-1.18659
-1.2898
-1.40316
-1.52768
-1.66367
-1.80911
-1.95642
-2.08878
-2.18196
-2.22201
-1.29423
-1.39421
-1.50383
-1.62373
-1.75341
-1.88975
-2.02404
-2.13992
-2.21862
-2.25262
1.74518
1.7593
1.77384
1.78768
1.79999
1.81009
1.81728
1.8216
1.82515
1.82924
1.66856
1.67953
1.69018
1.69949
1.70674
1.71126
1.71236
1.71035
1.70839
1.70918
1.57125
1.57814
1.58376
1.58722
1.58802
1.58547
1.57889
1.56891
1.55992
1.55669
1.4547
1.45696
1.45652
1.45283
1.44567
1.43433
1.41819
1.3983
1.38058
1.37263
1.3187
1.31536
1.30794
1.29622
1.28019
1.25912
1.23239
1.20147
1.1739
1.16071
1.16672
1.15763
1.14231
1.12118
1.0947
1.06221
1.02319
0.979678
0.941102
0.921944
0.99891
0.983495
0.960131
0.92956
0.892414
0.847957
0.795803
0.738699
0.688269
0.662846
0.823909
0.801156
0.767631
0.725334
0.67557
0.617667
0.551327
0.479952
0.417382
0.385587
0.646703
0.616435
0.57219
0.517255
0.453586
0.380591
0.298252
0.211018
0.135444
0.0972814
0.481608
0.433684
0.37192
0.301165
0.222441
0.134157
0.036073
-0.0665289
-0.154419
-0.198389
1.49565
1.46838
1.46741
1.46449
1.46141
1.47101
1.49139
1.52811
1.58768
1.68253
1.48854
1.46248
1.46157
1.45757
1.45339
1.46001
1.47713
1.50749
1.55612
1.63302
1.48197
1.45655
1.45559
1.4502
1.44478
1.44797
1.46143
1.48379
1.51896
1.57188
1.47593
1.45063
1.44949
1.44244
1.43557
1.43485
1.44434
1.45689
1.47661
1.49836
1.47039
1.44476
1.44331
1.43433
1.42577
1.42062
1.42593
1.42653
1.42974
1.41133
1.46535
1.43897
1.43705
1.42589
1.41539
1.4053
1.40617
1.39265
1.37859
1.30994
1.46083
1.43329
1.43072
1.41718
1.4044
1.38897
1.38498
1.35518
1.32331
1.19258
1.45683
1.42775
1.42433
1.40822
1.39281
1.37173
1.36218
1.31434
1.26362
1.06056
1.45339
1.42235
1.41789
1.39905
1.38064
1.35373
1.33761
1.27027
1.19783
0.911963
1.45058
1.41714
1.4114
1.38968
1.36805
1.33516
1.31218
1.2246
1.12857
0.758302
1.44775
1.41108
1.40313
1.37802
1.35118
1.31105
1.27734
1.16882
1.04899
0.61221
1.44621
1.40483
1.39396
1.36519
1.33246
1.28571
1.23921
1.12042
0.97254
0.58463
1.44663
1.39948
1.38511
1.35294
1.31431
1.26291
1.2034
1.08151
0.911464
0.570617
1.44963
1.39505
1.37653
1.34126
1.29669
1.24323
1.17045
1.05089
0.862918
0.565453
1.45573
1.39158
1.36809
1.32997
1.27945
1.22669
1.14061
1.02809
0.826241
0.565543
1.46564
1.38913
1.36017
1.31939
1.26297
1.21313
1.11492
1.01218
0.799711
0.565075
1.47895
1.38609
1.35048
1.30729
1.2471
1.20198
1.09351
1.00108
0.781611
0.564077
1.50369
1.38762
1.3443
1.29748
1.23355
1.19315
1.07653
0.99379
0.770185
0.563831
1.51558
1.37932
1.33081
1.28517
1.22279
1.18693
1.06517
0.99019
0.765023
0.565694
1.59141
1.39239
1.33348
1.28087
1.21886
1.18392
1.05957
0.989446
0.762384
0.568934
0.317077
0.141285
-0.0668017
-0.267934
-0.450711
-0.615991
-0.766167
-0.902872
-1.0226
-1.12694
0.266796
0.12798
-0.0303182
-0.189968
-0.340413
-0.480002
-0.609693
-0.730924
-0.841493
-0.941636
0.253052
0.13564
0.00813776
-0.123829
-0.253118
-0.376823
-0.494173
-0.604534
-0.706398
-0.798381
0.268506
0.159383
0.0449817
-0.0702776
-0.18401
-0.294557
-0.400813
-0.501568
-0.595866
-0.682021
0.288794
0.185593
0.0796252
-0.0247064
-0.126873
-0.227051
-0.32469
-0.418674
-0.507504
-0.589213
0.308706
0.210945
0.111624
0.0149294
-0.0792392
-0.172135
-0.263659
-0.352712
-0.437221
-0.5152
0.326996
0.234345
0.140507
0.049198
-0.039896
-0.12817
-0.215553
-0.300838
-0.381814
-0.456626
0.343376
0.255367
0.166088
0.0783762
-0.00801214
-0.0939618
-0.179062
-0.261946
-0.340413
-0.412691
0.358004
0.273933
0.18824
0.102321
0.0163343
-0.069557
-0.154274
-0.23635
-0.313918
-0.385467
0.370239
0.28853
0.204261
0.117801
0.0303958
-0.0566322
-0.141831
-0.223907
-0.301271
-0.372672
-1.15626
-1.12186
-1.04808
-0.954348
-0.858684
-0.771229
-0.695866
-0.633721
-0.585141
-0.550612
-1.19824
-1.1678
-1.10689
-1.02787
-0.944591
-0.866792
-0.798912
-0.742558
-0.698712
-0.668594
-1.18026
-1.15297
-1.10573
-1.0443
-0.976982
-0.911927
-0.853801
-0.804687
-0.766069
-0.739386
-1.1162
-1.09135
-1.05628
-1.01249
-0.962996
-0.913149
-0.867119
-0.82717
-0.794968
-0.771901
-1.02598
-1.00355
-0.977663
-0.948203
-0.914864
-0.879938
-0.846182
-0.815475
-0.789399
-0.768711
-0.930186
-0.910775
-0.891173
-0.871204
-0.849742
-0.827181
-0.804853
-0.78384
-0.76563
-0.751227
-0.844104
-0.828686
-0.813535
-0.798728
-0.783851
-0.769045
-0.7548
-0.741683
-0.729822
-0.718849
-0.775161
-0.76432
-0.753015
-0.741056
-0.728833
-0.717174
-0.707291
-0.699433
-0.695986
-0.69598
-0.722694
-0.716159
-0.708112
-0.697597
-0.685877
-0.674929
-0.667064
-0.664568
-0.666562
-0.681824
-0.685918
-0.682269
-0.675075
-0.664202
-0.651509
-0.640026
-0.633554
-0.637041
-0.649912
-0.690809
-0.674736
-0.670927
-0.662843
-0.650129
-0.635626
-0.623197
-0.616621
-0.619534
-0.63278
-0.652159
-0.691521
-0.685805
-0.677669
-0.667188
-0.656237
-0.647824
-0.644925
-0.649884
-0.664605
-0.684611
-0.718386
-0.712303
-0.706813
-0.703024
-0.702026
-0.705168
-0.713513
-0.727596
-0.747537
-0.768081
-0.73919
-0.735312
-0.734052
-0.737205
-0.745345
-0.758728
-0.777293
-0.800679
-0.827715
-0.851079
-0.74514
-0.744943
-0.747522
-0.754848
-0.767354
-0.784852
-0.80685
-0.832742
-0.861503
-0.884397
-0.737453
-0.740614
-0.745925
-0.754614
-0.767358
-0.783954
-0.803895
-0.826353
-0.849154
-0.869006
-0.728177
-0.733744
-0.740836
-0.749913
-0.76173
-0.775975
-0.791922
-0.808459
-0.823589
-0.835766
-0.733728
-0.740962
-0.749274
-0.758828
-0.770264
-0.783019
-0.796126
-0.808246
-0.817189
-0.821466
-0.768754
-0.776291
-0.785393
-0.795472
-0.807047
-0.81932
-0.831138
-0.840894
-0.845929
-0.844142
-0.842691
-0.850119
-0.858973
-0.869101
-0.880962
-0.893491
-0.905326
-0.914772
-0.918378
-0.912936
-0.790871
-0.649344
-0.38192
-0.125429
0.0235259
0.0605851
0.0573138
0.0442277
0.0274352
0.00975572
-0.867023
-0.61735
-0.296542
-0.0603704
0.0470525
0.0659707
0.058105
0.043929
0.0270044
0.00957214
-0.931007
-0.575329
-0.217759
-0.00628755
0.0652931
0.0705822
0.0590981
0.0438367
0.0266872
0.00942071
-0.987135
-0.527746
-0.152448
0.0337909
0.0780252
0.0743811
0.0601234
0.0438153
0.0264157
0.00928043
-0.990944
-0.466588
-0.10098
0.061861
0.0871873
0.0775831
0.0610174
0.0437611
0.0261448
0.00913985
-0.943335
-0.383106
-0.0582349
0.083461
0.09431
0.0801627
0.0616668
0.0436187
0.025851
0.0089921
-0.87069
-0.288695
-0.025171
0.100069
0.0995528
0.0819533
0.0619852
0.0433436
0.0255117
0.00882935
-0.820149
-0.215195
-0.00461466
0.111294
0.102867
0.0828875
0.0619184
0.0428988
0.0251062
0.00864436
-0.80875
-0.178392
0.00314911
0.11722
0.104275
0.0829461
0.061425
0.0422524
0.0246159
0.00843086
-0.842137
-0.178288
2.27652e-06
0.118167
0.103803
0.0821053
0.0604678
0.0413767
0.0240241
0.0081834
-0.538115
-0.598855
-0.518603
-0.244034
-0.0350972
0.0435178
0.054776
0.0447341
0.0282728
0.0101574
-0.530147
-0.594493
-0.526088
-0.249796
-0.0349184
0.0444473
0.0550009
0.0446678
0.0281415
0.0100926
-0.563463
-0.607144
-0.528959
-0.250423
-0.032169
0.0457929
0.0549994
0.044447
0.0279619
0.0100265
-0.633974
-0.628251
-0.512195
-0.237851
-0.0223391
0.0487849
0.0552521
0.0442865
0.0278213
0.00996361
-0.722582
-0.650167
-0.453037
-0.184517
-0.000952309
0.0546653
0.0564348
0.0444214
0.0277681
0.00991806
-0.517525
-0.630871
-0.705757
-0.744309
-0.754655
-0.737229
-0.725297
-0.680245
-0.650584
-0.605254
-0.51795
-0.63289
-0.706109
-0.743336
-0.748392
-0.732063
-0.717489
-0.668849
-0.647728
-0.5973
-0.519954
-0.635937
-0.707798
-0.744244
-0.743327
-0.733786
-0.706269
-0.674987
-0.654303
-0.621842
-0.525139
-0.642578
-0.713984
-0.749259
-0.74544
-0.738967
-0.702698
-0.691858
-0.672955
-0.68774
-0.534255
-0.653556
-0.724988
-0.758406
-0.754982
-0.742735
-0.709999
-0.700971
-0.686572
-0.752205
1.48831
1.4805
1.46629
1.44857
1.42818
1.4042
1.376
1.3454
1.32001
1.30874
1.57343
1.57674
1.57387
1.56673
1.55647
1.54265
1.52484
1.5045
1.48769
1.48083
1.65481
1.66276
1.66621
1.66648
1.66439
1.65952
1.65135
1.64073
1.63202
1.62931
1.72461
1.73653
1.74584
1.75299
1.75824
1.76108
1.76089
1.75812
1.75591
1.75688
1.78219
1.79716
1.81051
1.82235
1.83268
1.841
1.84667
1.84985
1.85274
1.85661
1.82316
1.84003
1.85647
1.87211
1.88662
1.89944
1.90989
1.91783
1.92466
1.93089
1.84702
1.8651
1.88346
1.90143
1.91844
1.93391
1.94715
1.95789
1.96711
1.97479
1.85177
1.87015
1.88931
1.90834
1.92649
1.94314
1.9576
1.96952
1.9797
1.98795
1.83673
1.8546
1.87341
1.89211
1.90986
1.92601
1.93987
1.95112
1.9607
1.96856
1.80132
1.81778
1.83506
1.85204
1.86784
1.8818
1.89324
1.90195
1.90932
1.91579
-0.385048
-0.425448
-0.478648
-0.545141
-0.625569
-0.719301
-0.823301
-0.927535
-1.01132
-1.04953
-0.178647
-0.224496
-0.281927
-0.351631
-0.434672
-0.531197
-0.640039
-0.75087
-0.841457
-0.882101
0.0564601
0.00576175
-0.0553836
-0.127368
-0.211421
-0.308202
-0.416341
-0.52743
-0.623666
-0.665148
0.301209
0.247377
0.184347
0.112021
0.0292458
-0.064789
-0.169036
-0.277107
-0.369809
-0.412669
0.537172
0.482996
0.421042
0.351383
0.27295
0.184713
0.0872699
-0.0137104
-0.0994257
-0.140497
0.750904
0.700154
0.642993
0.579511
0.508631
0.429181
0.341515
0.250703
0.174012
0.136777
0.939614
0.895632
0.846355
0.791758
0.730688
0.661921
0.585709
0.506635
0.440172
0.407941
1.11035
1.07415
1.03354
0.988451
0.93759
0.879727
0.81511
0.747893
0.691748
0.664838
1.27075
1.24099
1.20683
1.16925
1.12707
1.07903
1.02531
0.969478
0.923284
0.901592
1.40955
1.3856
1.3563
1.32512
1.29145
1.2538
1.21185
1.16819
1.1323
1.11584
1.61459
1.51006
1.50394
1.49804
1.50276
1.52697
1.55052
1.58736
1.60486
1.57722
1.59696
1.50896
1.50362
1.49851
1.50203
1.52573
1.55083
1.59093
1.62217
1.62893
1.58097
1.50674
1.50213
1.49792
1.50053
1.52348
1.55018
1.59429
1.63909
1.67951
1.56652
1.50362
1.49972
1.49638
1.49825
1.52027
1.54821
1.59505
1.65098
1.71738
1.55343
1.4998
1.49656
1.49398
1.49521
1.51615
1.54474
1.59336
1.65801
1.74508
1.54154
1.49541
1.49275
1.49076
1.49141
1.51107
1.53971
1.58918
1.65995
1.76201
1.53071
1.49056
1.48841
1.4868
1.48684
1.50501
1.53314
1.58238
1.65657
1.76822
1.5208
1.48535
1.48363
1.48213
1.48154
1.49799
1.52503
1.57289
1.64771
1.7636
1.51172
1.47988
1.47849
1.47682
1.47551
1.48998
1.51536
1.56071
1.63337
1.74784
1.50336
1.4742
1.47306
1.47093
1.46879
1.48099
1.50414
1.54581
1.6134
1.7208
1.7812
1.51326
1.4935
1.4864
1.49677
1.51872
1.53248
1.55266
1.51719
1.48914
1.70699
1.50705
1.49412
1.48844
1.49764
1.51959
1.53312
1.55401
1.52049
1.48616
1.68427
1.51181
1.49851
1.49128
1.49898
1.52125
1.53557
1.55813
1.53126
1.48847
1.65761
1.51154
1.50128
1.49412
1.50059
1.5235
1.54005
1.56578
1.5496
1.49984
1.63443
1.51074
1.50312
1.49648
1.50208
1.52583
1.54537
1.57585
1.57388
1.51849
1.29392
1.20612
1.08619
0.929845
0.739246
0.521152
0.286143
0.0496003
-0.171571
-0.362496
1.28842
1.20343
1.08872
0.937146
0.751315
0.536475
0.30195
0.0628806
-0.16308
-0.359277
1.29969
1.21052
1.09325
0.943034
0.760687
0.548276
0.313624
0.0720614
-0.15791
-0.35833
1.33275
1.22985
1.10152
0.948652
0.767911
0.556737
0.321346
0.0773157
-0.156198
-0.36047
1.38616
1.26264
1.11547
0.954352
0.771873
0.561007
0.32544
0.0796195
-0.157435
-0.366105
)
;

boundaryField
{
    left
    {
        type            zeroGradient;
    }
    right
    {
        type            fixedValue;
        value           uniform 0;
    }
    down
    {
        type            zeroGradient;
    }
    up
    {
        type            zeroGradient;
    }
    cylinder
    {
        type            zeroGradient;
    }
    defaultFaces
    {
        type            empty;
    }
}


// ************************************************************************* //
