/*--------------------------------*- C++ -*----------------------------------*\
  =========                 |
  \\      /  F ield         | OpenFOAM: The Open Source CFD Toolbox
   \\    /   O peration     | Website:  https://openfoam.org
    \\  /    A nd           | Version:  13
     \\/     M anipulation  |
\*---------------------------------------------------------------------------*/
FoamFile
{
    format      ascii;
    class       surfaceScalarField;
    location    "2";
    object      phi;
}
// * * * * * * * * * * * * * * * * * * * * * * * * * * * * * * * * * * * * * //

dimensions      [0 3 -1 0 0 0 0];

internalField   nonuniform List<scalar> 
3485
(
-0.000175007
0.00508029
-0.00490528
0.00201926
0.00930715
-0.0115014
0.00821224
0.0079576
-0.0141506
0.0194422
0.00105966
-0.0122896
0.0363367
-0.0110745
-0.00582002
0.0591251
-0.0278121
0.00502363
0.0874191
-0.0479427
0.0196487
0.120205
-0.0699396
0.0371533
0.155933
-0.0924425
0.0567148
-0.110269
0.0748353
0.191367
0.000270447
0.00480984
0.00371596
0.00586163
0.0122546
-0.000581073
0.0270849
-0.0137706
0.0486864
-0.0326759
0.0764332
-0.0555589
0.108673
-0.080182
0.143038
-0.104306
0.176538
-0.125942
-0.14364
0.209909
0.001142
0.00366784
0.00693067
7.29611e-05
0.0191279
-0.0127783
0.0386372
-0.0332799
0.0649234
-0.0589621
0.0960095
-0.086645
0.129005
-0.113177
0.160879
-0.13618
0.189371
-0.154434
-0.168014
0.213746
0.00218092
0.00148692
0.0107123
-0.0084584
0.0269836
-0.0290496
0.0507678
-0.0570641
0.0799408
-0.0881351
0.111124
-0.117828
0.140898
-0.142952
0.166788
-0.16207
0.187579
-0.175226
-0.183369
0.202934
0.00333627
-0.00184935
0.0147696
-0.0198917
0.0346645
-0.0489445
0.0610624
-0.0834621
0.0901674
-0.11724
0.118008
-0.145668
0.141816
-0.16676
0.160454
-0.180709
0.174111
-0.188882
-0.193266
0.184007
0.00455984
-0.00640919
0.0186294
-0.0339613
0.0408666
-0.0711818
0.0673577
-0.109953
0.0934459
-0.143328
0.115798
-0.16802
0.133069
-0.184031
0.145493
-0.193133
0.154141
-0.197529
-0.198999
0.159874
0.00573322
-0.0121424
0.0216846
-0.0499127
0.0443797
-0.0938768
0.0685262
-0.1341
0.0898381
-0.16464
0.106344
-0.184526
0.118039
-0.195726
0.125934
-0.201028
0.131197
-0.202792
-0.202702
0.1349
0.00667083
-0.0188132
0.0233626
-0.0666044
0.0446226
-0.115137
0.0648949
-0.154372
0.0810424
-0.180788
0.092418
-0.195902
0.0998108
-0.203119
0.10442
-0.205637
0.10729
-0.205663
-0.20439
0.108979
0.00722754
-0.0260408
0.0234096
-0.0827864
0.041876
-0.133603
0.0577455
-0.170241
0.0691569
-0.192199
0.0763792
-0.203124
0.0805391
-0.207279
0.0827847
-0.207883
0.0839162
-0.206794
-0.204868
0.0843943
0.00732654
-0.0333673
0.0219412
-0.0974011
0.0369432
-0.148605
0.0485182
-0.181816
0.0558648
-0.199546
0.059762
-0.207021
0.0613841
-0.208901
0.0616887
-0.208187
0.0612521
-0.206357
0.0602699
-0.203886
-0.0051358
0.0173726
-0.0122369
-0.0155713
0.0317015
-0.0212661
-0.0281724
0.035361
-0.0227598
-0.0412358
0.0340674
-0.021004
-0.0539675
0.0308004
-0.0180687
-0.0660265
0.0268184
-0.0147594
-0.077241
0.0225051
-0.0112905
-0.0874713
0.0178829
-0.00765262
-0.0965528
0.012866
-0.00378452
0.00742112
-0.104277
0.000303202
-0.0036969
0.0210695
-0.0120973
0.0401019
-0.0228051
0.0460687
-0.0342168
0.0454791
-0.0454307
0.0420143
-0.0559874
0.0373751
-0.0656458
0.0321634
-0.0742501
0.0264872
-0.0816548
0.0202707
0.0134065
-0.0876402
-0.00155966
0.0226292
-0.00668368
0.045226
-0.0141769
0.0535619
-0.0227327
0.0540349
-0.0313197
0.0506013
-0.0392906
0.0453461
-0.0462684
0.0391411
-0.0520344
0.0322533
-0.0564572
0.0246935
0.0162735
-0.0593243
0.000916496
0.0217127
0.000101952
0.0460405
-0.00306355
0.0567274
-0.00765061
0.058622
-0.0126118
0.0555625
-0.0171082
0.0498425
-0.0205607
0.0425937
-0.0225932
0.0342857
-0.0229896
0.0250899
0.014748
-0.021464
0.00310855
0.0186042
0.00676004
0.042389
0.00883358
0.0546539
0.00925479
0.0582008
0.00880894
0.0560083
0.00838768
0.0502637
0.00871199
0.0422694
0.010308
0.0326897
0.0136122
0.0217857
0.00955958
0.0188006
0.00438652
0.0142176
0.0116104
0.0351652
0.0185404
0.0477238
0.0241855
0.0525557
0.0287151
0.0514786
0.0327234
0.0462555
0.0368336
0.0381592
0.0415778
0.0279455
0.0474027
0.0159607
0.00232437
0.0546379
0.00433497
0.00988267
0.0129193
0.0265809
0.0227795
0.0378636
0.0323925
0.0429428
0.0413038
0.0425673
0.0496307
0.0379287
0.0576971
0.0300927
0.0658477
0.0197949
0.0743952
0.00741327
-0.00800526
0.0847248
0.00316803
0.00671464
0.0106229
0.019126
0.0204873
0.0279992
0.0313986
0.0320314
0.0426625
0.0313034
0.0541116
0.0264796
0.065908
0.0182964
0.0783364
0.00736652
0.0917597
-0.00601011
-0.0235548
0.107309
0.00155353
0.00516111
0.00647073
0.0142088
0.0143132
0.0201567
0.0244498
0.0218948
0.0364938
0.0192593
0.0504235
0.0125499
0.0664666
0.00225329
0.0849843
-0.0111512
0.105964
-0.0269899
-0.0467785
0.129188
0.000255829
0.00296322
0.00896936
0.0185746
0.0320139
0.0495875
0.0714895
0.0974916
0.127216
0.155273
-0.0732117
-0.220705
0.18964
0.0285212
-0.353014
0.251281
0.107524
-0.268645
0.189642
0.156322
-0.199237
0.150439
0.184264
-0.146001
0.118059
0.199157
-0.104698
0.089805
0.206723
-0.0797055
0.0721392
0.209925
-0.0549092
0.051707
0.211166
-0.0456308
0.0443897
-0.0299919
0.0303507
-0.0563608
-0.251985
0.0338608
-0.443235
0.110849
-0.345633
0.158067
-0.246456
0.185307
-0.173241
0.199923
-0.119315
0.207356
-0.0871379
0.210503
-0.058056
0.211701
-0.0468291
-0.0296385
-0.0253335
-0.285976
0.047878
-0.516447
0.1174
-0.415155
0.16104
-0.290096
0.186608
-0.198809
0.200587
-0.133293
0.207798
-0.0943493
0.210925
-0.0611829
0.212163
-0.0480674
-0.0294061
0.0149549
-0.322395
0.0703941
-0.571886
0.128031
-0.472792
0.165816
-0.327881
0.188467
-0.221459
0.201263
-0.14609
0.208085
-0.101171
0.211199
-0.0642973
0.212551
-0.0494189
-0.029407
0.0561433
-0.359737
0.0970962
-0.612839
0.14154
-0.517236
0.172159
-0.358499
0.190975
-0.240276
0.202047
-0.157161
0.208261
-0.107385
0.211339
-0.0673752
0.212863
-0.0509429
-0.0297489
0.0956444
-0.400744
0.123203
-0.640397
0.154967
-0.549001
0.178862
-0.382394
0.193819
-0.255233
0.202924
-0.166266
0.208357
-0.112818
0.211361
-0.0703792
0.213101
-0.0526832
-0.0305327
0.127304
-0.443323
0.145297
-0.658389
0.166079
-0.569783
0.184371
-0.400686
0.196281
-0.267143
0.203683
-0.173668
0.208347
-0.117482
0.211276
-0.0733088
0.213271
-0.0546781
-0.0318519
0.150053
-0.486067
0.161749
-0.670086
0.173834
-0.581867
0.187662
-0.414515
0.197578
-0.277059
0.203937
-0.180026
0.208106
-0.121652
0.211064
-0.0762668
0.213373
-0.0569867
-0.0337996
0.165164
-0.522043
0.172216
-0.677137
0.178089
-0.587741
0.188506
-0.424931
0.197251
-0.285804
0.20328
-0.186055
0.207417
-0.125788
0.210641
-0.0794916
0.213379
-0.0597246
-0.0364822
0.175825
-0.542595
0.177859
-0.679171
0.17964
-0.589522
0.187488
-0.432779
0.195428
-0.293744
0.201527
-0.192154
0.206053
-0.130314
0.209866
-0.0833049
0.213227
-0.0630861
-0.0400338
0.606826
-0.544847
-0.604574
0.543108
-0.615453
0.467835
-0.514249
0.413391
-0.378335
0.379787
-0.26014
0.359942
-0.172309
0.3476
-0.117972
0.34014
-0.0758455
0.334894
-0.0578398
-0.0370649
0.634719
-0.472927
-0.70664
0.540378
-0.521112
0.465153
-0.439024
0.415283
-0.328465
0.384
-0.228858
0.364115
-0.152424
0.350918
-0.104775
0.342604
-0.0675315
0.336526
-0.0517622
-0.0334804
0.641378
-0.397996
-0.716309
0.564
-0.443734
0.497928
-0.372951
0.443079
-0.273616
0.402789
-0.188567
0.375534
-0.125169
0.357471
-0.0867118
0.34635
-0.0564103
0.338562
-0.0439745
-0.0290273
0.637401
-0.335478
-0.699919
0.564717
-0.371049
0.498614
-0.306848
0.444614
-0.219617
0.405443
-0.149396
0.378712
-0.0984382
0.360312
-0.0683118
0.348513
-0.0446111
0.339941
-0.0354027
-0.0239879
0.634395
-0.286375
-0.683498
0.572102
-0.308756
0.509407
-0.244154
0.45397
-0.16418
0.411855
-0.107281
0.382822
-0.0694047
0.362905
-0.0483949
0.35016
-0.0318668
0.340879
-0.0261211
-0.018468
0.630882
-0.24617
-0.671087
0.571929
-0.249804
0.509151
-0.181375
0.453567
-0.108596
0.41136
-0.0650745
0.382434
-0.0404786
0.362612
-0.0285731
0.349891
-0.0191457
0.340503
-0.0167329
-0.0127499
0.617931
-0.205218
-0.658883
0.55552
-0.187393
0.491557
-0.117412
0.438362
-0.0554012
0.399495
-0.0262074
0.373551
-0.0145347
0.35589
-0.0109121
0.34454
-0.00779529
0.335953
-0.0081459
-0.00730154
0.566541
-0.147194
-0.624565
0.493855
-0.114706
0.43194
-0.0554973
0.388947
-0.0124077
0.360789
0.00194976
0.343032
0.00322305
0.330982
0.00113809
0.323164
2.18164e-05
0.31685
-0.00183136
-0.00290227
0.414886
-0.0652928
-0.496787
0.339008
-0.0388284
0.293344
-0.00983309
0.274104
0.00683254
0.266555
0.00949868
0.262883
0.0068949
0.259972
0.00404948
0.257776
0.00221742
0.25518
0.000764813
-0.000416029
0.126189
-0.191482
0.0873611
0.077528
0.0843605
0.0938592
0.100754
0.104804
0.107021
0.107786
0.555063
0.0497278
-0.544521
0.566414
0.0730439
0.580559
0.0948338
0.595809
0.11965
0.613237
0.142446
0.63164
0.165604
0.646005
0.18857
0.655205
0.204545
0.638309
0.226806
0.225101
0.532971
0.0401142
-0.523358
0.545344
0.0606711
0.559581
0.0805963
0.577486
0.101745
0.59735
0.122581
0.620797
0.142157
0.645398
0.163968
0.669609
0.180335
0.694691
0.201724
0.213152
0.516954
0.0318151
-0.508655
0.528822
0.0488028
0.542199
0.0672194
0.559503
0.0844412
0.578876
0.103208
0.601435
0.119598
0.627172
0.138231
0.654361
0.153146
0.685902
0.170183
0.182745
0.503838
0.0239818
-0.496005
0.514826
0.0378153
0.527959
0.0540856
0.544273
0.0681272
0.563121
0.0843608
0.584795
0.0979236
0.609613
0.113414
0.636876
0.125883
0.66749
0.139569
0.150316
0.49257
0.0163331
-0.484922
0.502878
0.0275081
0.515958
0.0410056
0.531718
0.0523666
0.550412
0.0656674
0.571692
0.0766431
0.595998
0.089108
0.622686
0.0991946
0.652125
0.11013
0.118943
0.482587
0.00897904
-0.475233
0.49248
0.0176149
0.505392
0.0280935
0.520918
0.0368404
0.539514
0.0470717
0.560656
0.0555011
0.584786
0.0649784
0.611193
0.0727877
0.640233
0.0810897
0.0880893
0.471101
0.0022326
-0.464354
0.480511
0.0082046
0.493004
0.0156012
0.508258
0.0215858
0.526606
0.0287236
0.547696
0.0344108
0.571764
0.0409107
0.598333
0.0462188
0.627663
0.0517599
0.0568692
0.447137
-0.00305658
-0.441847
0.455036
0.000304963
0.466048
0.00458949
0.47984
0.00779336
0.496806
0.0117579
0.516629
0.0145877
0.53944
0.0180995
0.565099
0.0205599
0.593461
0.0233978
0.0257651
0.376726
-0.00426781
-0.375515
0.380057
-0.00302582
0.386249
-0.0016026
0.394686
-0.000643955
0.405904
0.000539925
0.419269
0.00122298
0.435225
0.00214313
0.453349
0.00243606
0.473722
0.00302452
0.00270073
0.184687
-0.188955
0.181661
0.180059
0.179415
0.179955
0.181178
0.183321
0.185757
0.188782
0.0748466
0.147709
-0.135855
-0.0867005
0.0639304
0.149874
-0.138957
0.0538428
0.152481
-0.142393
0.0440473
0.156002
-0.146206
0.0342733
0.159802
-0.150028
0.024585
0.162806
-0.153118
0.0153745
0.162396
-0.153185
0.00743641
0.152671
-0.144733
0.00193691
0.122987
-0.117488
0.0585125
-0.0565756
0.0717733
0.158384
-0.0824487
0.0612135
0.160433
0.0509727
0.162722
0.0410711
0.165903
0.0313924
0.169481
0.0220064
0.172192
0.0133184
0.171084
0.00611576
0.159874
0.00141791
0.127685
0.0599305
0.0649642
0.167752
-0.0743317
0.0552086
0.170189
0.0455137
0.172417
0.0360869
0.17533
0.0269573
0.178611
0.0182591
0.180891
0.0104309
0.178912
0.00426356
0.166041
0.000661663
0.131287
0.0605921
0.0547492
0.175896
-0.0628929
0.0461973
0.178741
0.0375158
0.181098
0.0289696
0.183876
0.0207255
0.186855
0.0130192
0.188597
0.00638536
0.185546
0.00160659
0.17082
-0.000365966
0.13326
0.0602262
0.0426035
0.18301
-0.0497175
0.0352156
0.186129
0.0276577
0.188656
0.0201622
0.191372
0.0129827
0.194034
0.00650158
0.195078
0.00129255
0.190755
-0.0015222
0.173635
-0.00155686
0.133294
0.0586693
0.0287536
0.189063
-0.0348072
0.0225495
0.192333
0.0161985
0.195007
0.00991086
0.197659
0.00399548
0.19995
-0.00104076
0.200114
-0.00424279
0.193957
-0.0049195
0.174311
-0.00280994
0.131185
0.0558594
0.0139084
0.194271
-0.0191162
0.00870835
0.197533
0.00349862
0.200217
-0.00152812
0.202686
-0.00598029
0.204402
-0.00920936
0.203343
-0.0103824
0.19513
-0.00858112
0.17251
-0.00405233
0.126656
0.051807
-0.00243898
0.198632
-0.00192199
-0.0065831
0.201677
-0.0105852
0.204219
-0.014243
0.206344
-0.0170958
0.207255
-0.0183597
0.204607
-0.0170098
0.19378
-0.0123406
0.167841
-0.00522687
0.119542
0.0465802
-0.0204045
0.201865
0.0171718
-0.0233903
0.204663
-0.0261089
0.206938
-0.0282702
0.208505
-0.0292699
0.208254
-0.0281627
0.2035
-0.0238854
0.189503
-0.0160157
0.159971
-0.00623883
0.109765
0.0403413
-0.0402377
0.0382164
-0.0419322
-0.0431819
-0.0435775
-0.0423442
-0.0383899
-0.0307039
-0.0193382
-0.00697401
0.10576
0.0382564
-0.117584
-0.0264328
0.0936745
0.0393396
-0.0272539
0.0813136
0.0405088
-0.0281479
0.0686518
0.0417664
-0.0291046
0.0556716
0.0430948
-0.0301147
0.0423993
0.04436
-0.0310877
0.0290217
0.0450332
-0.0316556
0.0161711
0.0436008
-0.0307502
0.00543337
0.0367491
-0.0260114
0.0188064
-0.0133731
0.105354
0.0501406
-0.117238
0.0932785
0.0514154
0.0809413
0.052846
0.0683149
0.0543928
0.0553756
0.0560341
0.0421462
0.0575894
0.0288166
0.0583629
0.0160262
0.0563912
0.00536441
0.047411
0.0241709
0.104618
0.0619669
-0.116445
0.0925499
0.0634837
0.0802384
0.0651575
0.0676584
0.0669729
0.0547898
0.0689027
0.0416528
0.0707264
0.0284348
0.0715808
0.0157778
0.0690482
0.00526089
0.0579279
0.0294317
0.103065
0.0738438
-0.114942
0.0910758
0.0754729
0.078843
0.0773902
0.0663418
0.079474
0.0535663
0.0816783
0.0405647
0.083728
0.0275519
0.0845936
0.015182
0.0814181
0.00500632
0.0681035
0.0344381
0.10103
0.0855559
-0.112742
0.0891829
0.0873202
0.0771724
0.0894007
0.0649334
0.091713
0.0524167
0.094195
0.0396482
0.0964965
0.026857
0.0973849
0.0147318
0.0935433
0.00482769
0.0780076
0.0392658
0.0977903
0.0973265
-0.109561
0.0860204
0.0990901
0.0740909
0.10133
0.0620125
0.103791
0.0497779
0.10643
0.0374136
0.108861
0.0251335
0.109665
0.0136137
0.105063
0.00436011
0.0872612
0.0436259
0.0942054
0.108521
-0.105399
0.0830271
0.110268
0.0716619
0.112695
0.0600076
0.115446
0.0480683
0.118369
0.0359537
0.120975
0.0239669
0.121652
0.0128388
0.116191
0.00404562
0.0960543
0.0476715
0.0874833
0.119569
-0.0985318
0.0766521
0.1211
0.0658664
0.123481
0.055003
0.126309
0.0439443
0.129428
0.0327102
0.132209
0.0215942
0.132768
0.0113595
0.126426
0.00345288
0.103961
0.0511244
0.0831292
0.128916
-0.0924764
0.0733788
0.13085
0.0630378
0.133822
0.0523306
0.137016
0.0414256
0.140333
0.0304718
0.143163
0.0198074
0.143432
0.010198
0.136035
0.00299606
0.111163
0.0541204
0.0727496
-0.0796885
0.0646422
0.0560711
0.0468812
0.0371854
0.0272304
0.0174777
0.00877998
0.00245522
0.201443
0.00945804
-0.0129115
0.205127
0.0227913
-0.0264755
0.208803
0.0354543
-0.0391298
0.212086
0.0570117
-0.0602949
0.212651
0.0738049
-0.0743698
0.211009
0.0978989
-0.0962569
0.204444
0.118593
-0.112028
0.191703
0.144741
-0.132
0.166469
0.194152
-0.168918
0.251022
-0.202137
0.201118
0.00632934
0.204481
0.0194285
0.207858
0.0320773
0.210825
0.0540447
0.211417
0.0732131
0.209476
0.0998404
0.20318
0.124888
0.190171
0.15775
0.165077
0.219246
0.298861
0.20072
0.00359952
0.203686
0.0164619
0.206713
0.0290505
0.209166
0.0515923
0.209707
0.0726716
0.207139
0.102409
0.201088
0.130939
0.187492
0.171346
0.16293
0.243808
0.345346
0.200241
0.00134802
0.20274
0.0139632
0.205348
0.0264428
0.207114
0.0498258
0.207528
0.0722582
0.203987
0.105949
0.198244
0.136682
0.18346
0.18613
0.160076
0.267193
0.39048
0.19968
-0.00034253
0.201647
0.0119969
0.203741
0.0243482
0.204689
0.0488778
0.204874
0.0720731
0.200101
0.110723
0.194707
0.142076
0.178362
0.202475
0.156477
0.289078
0.434214
0.199036
-0.00138854
0.200413
0.0106193
0.201876
0.0228861
0.201927
0.0488264
0.20173
0.0722699
0.195605
0.116848
0.190517
0.147164
0.172246
0.220746
0.152369
0.308955
0.477022
0.198309
-0.0017075
0.199049
0.00987932
0.199739
0.0221959
0.198871
0.0496946
0.19805
0.0730901
0.190601
0.124297
0.185472
0.152293
0.165523
0.240695
0.147206
0.327272
0.518829
0.197502
-0.0012193
0.197559
0.00982209
0.197332
0.0224225
0.195548
0.0514789
0.193821
0.0748171
0.185096
0.133022
0.179666
0.157723
0.157461
0.262901
0.141697
0.343036
0.561993
0.196616
0.000154836
0.195949
0.0104884
0.194671
0.0237009
0.191987
0.0541628
0.189017
0.0777872
0.179293
0.142746
0.173078
0.163937
0.150537
0.285442
0.13522
0.358353
0.604737
0.195689
0.00245575
0.194185
0.0119921
0.191823
0.0260635
0.18813
0.0578551
0.18371
0.0822072
0.172617
0.15384
0.164716
0.171838
0.140286
0.309872
0.129182
0.369456
0.654231
0.304806
-0.000340167
0.309742
0.00705609
0.315421
0.0203849
0.321064
0.0522124
0.331131
0.0721392
0.333018
0.151954
0.353686
0.151169
0.358596
0.304963
0.409022
0.31903
0.583872
0.479381
0.305335
-0.0036647
0.311383
0.0010075
0.317585
0.0141832
0.325141
0.0446561
0.335462
0.0618183
0.341023
0.146392
0.364412
0.127781
0.378976
0.290399
0.426268
0.271738
0.518601
0.491539
0.306075
-0.00772964
0.313355
-0.00627246
0.320329
0.00720968
0.329812
0.035173
0.338976
0.052654
0.349294
0.136074
0.372882
0.104193
0.393685
0.269596
0.43501
0.230413
0.448005
0.505606
0.307105
-0.0128247
0.315686
-0.0148532
0.324008
-0.00111283
0.33451
0.0246717
0.342833
0.0443306
0.357223
0.121684
0.37862
0.0827963
0.404021
0.244195
0.44289
0.191544
0.372643
0.518252
0.30846
-0.0192749
0.318617
-0.0250099
0.328703
-0.0111991
0.339257
0.0141182
0.347473
0.0361149
0.365242
0.103914
0.383161
0.0648774
0.414721
0.212635
0.449477
0.156788
0.297771
0.52435
0.310216
-0.0274808
0.322273
-0.0370669
0.334104
-0.0230296
0.344214
0.00400836
0.352401
0.0279274
0.372934
0.0833808
0.386197
0.0516144
0.423028
0.175804
0.456102
0.123713
0.226939
0.526934
0.312771
-0.0382421
0.32657
-0.0508653
0.338701
-0.0351604
0.347304
-0.00459458
0.355232
0.0199992
0.377285
0.0613274
0.387416
0.041484
0.429021
0.134198
0.461206
0.0915287
0.161626
0.526519
0.315725
-0.0519572
0.326948
-0.0620879
0.334561
-0.0427737
0.339991
-0.0100243
0.34803
0.01196
0.370735
0.0386224
0.381016
0.0312035
0.427033
0.0881814
0.459531
0.05903
0.100208
0.520949
0.309695
-0.059642
0.302187
-0.0545795
0.293045
-0.0336319
0.291482
-0.00846135
0.299843
0.00359882
0.321648
0.0168177
0.337435
0.0154166
0.386902
0.0387143
0.420336
0.0255959
0.0411312
0.479412
0.242368
0.187789
0.154157
0.145695
0.149294
0.166112
0.181528
0.220243
0.245839
0.28697
0.492617
-0.0999368
0.49747
-0.0873018
0.500972
-0.0778333
0.504915
-0.0668363
0.509687
-0.054489
0.51517
-0.0402909
0.52144
-0.0253854
0.527857
-0.00833901
0.535977
0.00905085
0.0296727
0.492189
-0.100586
0.493294
-0.088407
0.49363
-0.0781697
0.49482
-0.068026
0.496569
-0.0562379
0.499706
-0.0434282
0.50354
-0.0292197
0.50885
-0.013649
0.515213
0.00268788
0.0215285
0.499941
-0.0949208
0.497103
-0.0855687
0.494729
-0.0757958
0.493012
-0.0663089
0.492002
-0.0552286
0.4926
-0.0440259
0.493933
-0.0305523
0.497347
-0.0170638
0.501439
-0.00140386
0.0143127
0.508659
-0.0853275
0.501256
-0.0781661
0.495658
-0.0701982
0.491218
-0.0618683
0.487793
-0.0518041
0.485852
-0.0420848
0.485284
-0.0299843
0.486836
-0.0186151
0.49
-0.00456808
0.00830799
0.513055
-0.0740325
0.503129
-0.0682403
0.494742
-0.061811
0.487795
-0.0549215
0.482451
-0.04646
0.478691
-0.038325
0.476942
-0.0282351
0.477243
-0.0189166
0.479847
-0.00717142
0.00323278
0.513879
-0.0609769
0.502088
-0.0564491
0.491834
-0.0515577
0.483197
-0.0462841
0.476555
-0.0398182
0.471715
-0.0334844
0.469172
-0.0256925
0.468684
-0.018429
0.470804
-0.00929133
-0.00119595
0.512081
-0.0465381
0.498928
-0.0432963
0.48735
-0.03998
0.477508
-0.0364414
0.469773
-0.0320835
0.463971
-0.0276825
0.460526
-0.0222477
0.459197
-0.0170999
0.46059
-0.010684
-0.00496063
0.504417
-0.0300058
0.489382
-0.0282616
0.476069
-0.0266662
0.464578
-0.0249506
0.455204
-0.0227097
0.447803
-0.0202813
0.442766
-0.017211
0.439857
-0.014191
0.439659
-0.0104863
-0.00714877
0.460981
-0.011574
0.444312
-0.0115933
0.429276
-0.0116298
0.415836
-0.0115112
0.404177
-0.0110498
0.394254
-0.0103587
0.386391
-0.00934813
0.380475
-0.00827495
0.376941
-0.00695185
-0.00572301
0.275396
0.263803
0.252173
0.240662
0.229612
0.219253
0.209905
0.20163
0.194678
0.00716254
0.0401153
-0.0472778
0.0171677
0.107429
-0.117435
0.0239729
0.153701
-0.160507
0.0264856
0.179219
-0.181732
0.025734
0.190437
-0.189685
0.023048
0.193582
-0.190896
0.0194007
0.192322
-0.188674
0.0154336
0.187657
-0.18369
0.0117312
0.178265
-0.174562
0.160685
0.00887063
-0.157824
0.00850229
0.031613
0.0228599
0.0930719
0.0351195
0.141442
0.0426374
0.171701
0.0459064
0.187168
0.046322
0.193166
0.0450558
0.193588
0.0427686
0.189944
0.0396312
0.181402
0.164938
0.0353778
0.00896962
0.0226434
0.0269413
0.0751002
0.0449705
0.123413
0.0584188
0.158253
0.0666613
0.178925
0.0708528
0.188975
0.0723077
0.192133
0.071763
0.190489
0.0692427
0.183922
0.170363
0.0638184
0.00845317
0.0141902
0.0283805
0.0551728
0.0517079
0.100085
0.071908
0.138053
0.0864627
0.164371
0.0957161
0.179721
0.100966
0.186883
0.10322
0.188235
0.102437
0.184705
0.175211
0.097589
0.00708222
0.00710801
0.0265312
0.0357239
0.0531427
0.0734736
0.0799327
0.111263
0.102119
0.142184
0.118142
0.163698
0.128581
0.176444
0.134527
0.18229
0.136613
0.182619
0.178442
0.133382
0.0052396
0.00186841
0.0218437
0.0191198
0.0481801
0.0471372
0.0791435
0.0802991
0.108997
0.112331
0.133861
0.138834
0.152291
0.158013
0.164629
0.169952
0.171541
0.175707
0.176481
0.173503
0.00338158
-0.00151317
0.015747
0.00675435
0.0381091
0.0247752
0.0684914
0.0499168
0.102574
0.078248
0.135686
0.105723
0.164298
0.129401
0.186509
0.147742
0.202165
0.16005
0.168821
0.209825
0.00175351
-0.00326667
0.00963481
-0.00112696
0.0258605
0.00854953
0.0510212
0.024756
0.0834435
0.0458257
0.119797
0.0693693
0.156342
0.0928559
0.189579
0.114504
0.217362
0.132267
0.145439
0.240744
0.000220124
-0.0034868
0.00379442
-0.00470125
0.0133979
-0.00105395
0.0309319
0.00722199
0.0567904
0.0199673
0.0898088
0.0363509
0.127607
0.0550577
0.167425
0.0746859
0.204557
0.095135
0.107848
0.242149
-0.00118693
-0.00229986
-0.000973157
-0.00491503
0.00337786
-0.00540497
0.0137533
-0.00315342
0.0314
0.0023206
0.0568017
0.0109491
0.0894041
0.0224554
0.128085
0.036005
0.171179
0.0520407
0.0649668
0.21406
-0.00109913
-0.00120073
-0.00115507
-0.00485909
0.00169673
-0.00825677
0.00858679
-0.0100435
0.0204007
-0.00949329
0.0377493
-0.00639952
0.0610968
-0.000892046
0.0903429
0.00675896
0.125946
0.0164374
0.0293576
0.161555
0.00064089
-0.00184162
0.00363455
-0.00785275
0.00924893
-0.0138712
0.0173891
-0.0181836
0.0280064
-0.0201106
0.0412635
-0.0196567
0.0574935
-0.0171221
0.0771007
-0.0128482
0.10054
-0.00700178
0.00203554
0.127862
0.00223997
-0.00408159
0.00778823
-0.013401
0.0155204
-0.0216033
0.0246401
-0.0273034
0.0347898
-0.0302602
0.0459631
-0.03083
0.0583356
-0.0294945
0.0720878
-0.0266004
0.0872942
-0.0222082
-0.0153854
0.104715
0.00243004
-0.00651162
0.00728034
-0.0182513
0.0129306
-0.0272535
0.0186675
-0.0330403
0.0244886
-0.0360813
0.0307765
-0.0371179
0.0379886
-0.0367066
0.0464492
-0.035061
0.0562443
-0.0320033
-0.0269345
0.0677934
0.00110585
-0.00761748
0.00246564
-0.0196111
0.00307078
-0.0278587
0.00286405
-0.0328336
0.0023113
-0.0355286
0.00202615
-0.0368327
0.00253404
-0.0372145
0.00422172
-0.0367486
0.00749528
-0.0352769
-0.0324386
0.0129993
-0.000987179
-0.0066303
-0.00397974
-0.0166185
-0.00865189
-0.0231865
-0.0143792
-0.0271063
-0.0205046
-0.0294032
-0.0265019
-0.0308354
-0.0319759
-0.0317406
-0.0365777
-0.0321468
-0.0399415
-0.031913
-0.0310341
-0.0413461
-0.00302671
-0.00360359
-0.009701
-0.00994425
-0.0183728
-0.0145147
-0.027925
-0.0175541
-0.0376817
-0.0196465
-0.0472677
-0.0212494
-0.0564423
-0.0225659
-0.0649684
-0.0236207
-0.0725257
-0.0243557
-0.0247833
-0.0787765
-0.00460245
0.000998861
-0.0138948
-0.000651859
-0.0251854
-0.00322412
-0.0370433
-0.00569621
-0.0487809
-0.00790894
-0.0601006
-0.0099297
-0.0708438
-0.0118227
-0.0808527
-0.0136118
-0.0899206
-0.0152878
-0.0168058
-0.0978981
-0.00550722
0.00650608
-0.0162434
0.0100843
-0.0290027
0.0095352
-0.0421388
0.00743991
-0.0549445
0.00489674
-0.0671439
0.00226965
-0.0785869
-0.000379726
-0.0891323
-0.00306637
-0.098615
-0.00580515
-0.00854668
-0.106874
-0.00573077
-0.0169125
-0.0301371
-0.0437012
-0.0568732
-0.0693629
-0.0810332
-0.0917522
-0.101342
-0.109585
0.238522
0.194412
-0.271378
0.263949
0.403992
-0.429419
0.269123
0.203865
-0.209039
0.241524
0.0494127
-0.0218136
0.208326
0.014944
0.0182541
0.192686
0.00262218
0.0130181
0.191235
-0.00960867
0.0110591
0.195208
-0.0137186
0.00974547
0.201214
-0.0168327
0.0108267
-0.0143445
0.00841647
0.22055
0.101724
0.265715
0.358827
0.266711
0.202869
0.22986
0.0862637
0.200897
0.0439065
0.191911
0.0116086
0.193475
-0.0111726
0.197848
-0.0180918
0.20316
-0.0221444
-0.0191902
0.190869
0.0155698
0.243393
0.306304
0.235819
0.210443
0.203421
0.118661
0.189429
0.0578989
0.190035
0.0110024
0.194958
-0.016095
0.199764
-0.0228986
0.204447
-0.0268274
-0.0230302
0.137
-0.0536366
0.186078
0.257225
0.181492
0.215029
0.173382
0.126771
0.180051
0.0512303
0.189266
0.00178727
0.196537
-0.0233658
0.20148
-0.027842
0.205533
-0.0308797
-0.0259545
0.0563762
-0.0970134
0.105408
0.208193
0.128237
0.1922
0.153253
0.101755
0.175876
0.0286072
0.189997
-0.0123336
0.198327
-0.0316959
0.203104
-0.032619
0.206533
-0.0343082
-0.0280628
-0.0229762
-0.115383
0.0403911
0.144826
0.0994215
0.13317
0.146335
0.0548417
0.175855
-0.000913263
0.191657
-0.0281355
0.200175
-0.0402138
0.204621
-0.0370648
0.207468
-0.0371559
-0.0294642
-0.0720469
-0.122113
0.0133503
0.0594288
0.094041
0.0524791
0.147148
0.00173472
0.177698
-0.0314632
0.193591
-0.0440282
0.201921
-0.0485442
0.206001
-0.0411446
0.208341
-0.0394959
-0.0302743
-0.0846551
-0.135356
0.0143114
-0.0395378
0.0980871
-0.0312965
0.150242
-0.0504206
0.179875
-0.0610953
0.195408
-0.0595613
0.203473
-0.0566099
0.207226
-0.0448976
0.209148
-0.0414176
-0.0306118
-0.0826615
-0.159568
0.0226212
-0.144821
0.102495
-0.11117
0.15302
-0.100946
0.181737
-0.0898121
0.196951
-0.0747747
0.204794
-0.0644535
0.20829
-0.0483931
0.209889
-0.0430167
-0.0305972
-0.0795137
0.0269466
0.105419
0.154912
0.183159
0.198189
0.205875
0.209189
0.210562
0.0310131
0.0542344
-0.0852475
-0.00472445
0.0357376
-0.0112952
0.00657079
0.00904534
-0.0203406
0.0313376
-0.0222923
0.0426645
-0.0113269
0.0469686
-0.00430409
0.0485861
-0.00161749
0.049469
-0.000882875
-0.000581094
0.162817
0.176086
-0.284669
0.0640275
0.134527
0.041924
0.0286742
0.0681868
-0.0466033
0.0986005
-0.052706
0.115095
-0.0278213
0.12227
-0.0114792
0.125513
-0.00486007
0.127684
-0.00305465
-0.00198507
0.317266
0.282861
-0.424041
0.186784
0.26501
0.132209
0.0832485
0.136223
-0.050617
0.152641
-0.0691239
0.163573
-0.0387529
0.169457
-0.0173641
0.172798
-0.0082005
0.175594
-0.00585115
-0.00394273
0.41722
0.321611
-0.455971
0.305179
0.377051
0.235233
0.153194
0.209532
-0.0249151
0.19834
-0.0579322
0.194198
-0.0346113
0.194463
-0.0176288
0.196231
-0.00996839
0.198907
-0.00852731
-0.0061454
0.428887
-0.378654
0.376519
0.320674
0.273945
0.234267
0.212674
0.206104
0.205881
0.208181
0.0107061
-0.000157439
-0.0105487
0.0123084
-0.00160229
0.0152495
-0.00294103
0.0197829
-0.00453341
0.0259611
-0.00617825
0.0342823
-0.00832113
0.0437057
-0.00942342
0.0567829
-0.0130772
0.0698373
-0.0130544
-0.0154102
0.0297461
-0.00091036
-0.0289932
0.0343978
-0.00625394
0.0429685
-0.0115118
0.0565457
-0.0181106
0.0756403
-0.0252729
0.10082
-0.0335005
0.134331
-0.0429349
0.175484
-0.0542296
0.224033
-0.061604
-0.0760457
0.0462844
-0.00253466
-0.0446601
0.053774
-0.0137436
0.0673963
-0.025134
0.0890586
-0.0397728
0.118496
-0.05471
0.158778
-0.073783
0.210613
-0.0947695
0.270421
-0.114038
0.346368
-0.13755
-0.153719
0.0601135
-0.00517414
-0.057474
0.0699772
-0.0236073
0.0877708
-0.0429276
0.115092
-0.0670945
0.152043
-0.0916609
0.20174
-0.123479
0.259752
-0.152782
0.327658
-0.181944
0.404249
-0.214141
-0.205441
0.071285
-0.0675885
0.0830555
0.103946
0.134441
0.176162
0.226185
0.283228
0.342028
0.370035
0.0823227
-0.0734435
0.0814967
-0.0903759
0.0736572
-0.0745528
0.0832184
0.0647449
-0.0763278
0.0852401
0.0552468
-0.0782047
0.0877028
0.0450376
-0.0800497
0.0902589
0.034231
-0.0815514
0.0923579
0.0231909
-0.0816012
0.0926413
0.0126704
-0.0773625
0.0878831
0.00411744
-0.0633238
0.0718768
-0.0310401
0.0351575
0.0906796
-0.0639926
-0.10013
0.0808546
-0.0647278
0.0703548
-0.065828
0.0592504
-0.0671004
0.0477206
-0.0685199
0.0359592
-0.06979
0.0242527
-0.0698947
0.013245
-0.0663549
0.00432168
-0.0544005
-0.0267184
0.0909447
-0.0533783
-0.101559
0.080246
-0.0540292
0.0693714
-0.0549534
0.0583316
-0.0560606
0.0470904
-0.0572787
0.0356293
-0.0583288
0.0241176
-0.058383
0.0131858
-0.0554231
0.00428294
-0.0454976
-0.0224355
0.0956553
-0.0426504
-0.106383
0.0847674
-0.0431412
0.0736489
-0.0438349
0.0622107
-0.0446224
0.050395
-0.045463
0.0382359
-0.0461697
0.0259776
-0.0461247
0.0143062
-0.0437518
0.00472467
-0.035916
-0.0177108
0.0975601
-0.0314956
-0.108715
0.0862675
-0.0318486
0.0747209
-0.0322884
0.0628976
-0.0327991
0.0507927
-0.033358
0.0384564
-0.0338334
0.0261027
-0.033771
0.0143651
-0.0320141
0.00472849
-0.0262794
-0.0129823
0.100342
-0.0202312
-0.111606
0.0888367
-0.0203436
0.0770754
-0.0205271
0.0650267
-0.0207503
0.0526688
-0.0210002
0.0400276
-0.0211923
0.0273005
-0.0210438
0.0151284
-0.0198421
0.00504316
-0.0161941
-0.00793914
0.102125
-0.00872517
-0.113631
0.0904167
-0.00863544
0.0784483
-0.00855862
0.0661931
-0.00849509
0.0536302
-0.00843734
0.0407852
-0.0083473
0.0278497
-0.00810828
0.0154586
-0.00745099
0.00516267
-0.00589824
-0.00277647
0.103781
0.00289345
-0.115399
0.0919167
0.00322864
0.0797819
0.00357619
0.0673497
0.00393709
0.0546012
0.00431123
0.0415625
0.00469138
0.0284235
0.00503071
0.0158172
0.00515534
0.00530647
0.00461246
0.00253
0.104901
0.0146252
-0.116633
0.0929243
0.0152057
0.0806741
0.0158264
0.0681252
0.016486
0.0552575
0.0171789
0.0420936
0.0178553
0.0288176
0.0183068
0.0160598
0.0179131
0.00539888
0.0152734
0.00792888
0.105525
-0.117332
0.0934765
0.081155
0.0685364
0.0556006
0.0423682
0.0290194
0.0161822
0.00544419
0.0136041
-0.155668
-0.0157603
0.00905262
-0.170011
0.00346961
-0.178107
-0.00226502
-0.18294
-0.00749039
-0.18567
-0.011417
-0.185759
-0.0129481
-0.1802
-0.0108936
-0.162561
-0.00525456
-0.123074
-0.0525324
0.0368821
-0.152685
-0.0398655
0.0308151
-0.163944
0.0234668
-0.170758
0.0157953
-0.175268
0.00834841