/*--------------------------------*- C++ -*----------------------------------*\
  =========                 |
  \\      /  F ield         | OpenFOAM: The Open Source CFD Toolbox
   \\    /   O peration     | Website:  https://openfoam.org
    \\  /    A nd           | Version:  13
     \\/     M anipulation  |
\*---------------------------------------------------------------------------*/
FoamFile
{
    format      ascii;
    class       volScalarField;
    location    "0.0925";
    object      p;
}
// * * * * * * * * * * * * * * * * * * * * * * * * * * * * * * * * * * * * * //

dimensions      [0 2 -2 0 0 0 0];

internalField   nonuniform List<scalar> 
1800
(
-0.879232
-0.792481
-0.685613
-0.579488
-0.485932
-0.405487
-0.335888
-0.275015
-0.221052
-0.175857
-1.03596
-0.940164
-0.820981
-0.701818
-0.596296
-0.50513
-0.425983
-0.3568
-0.296499
-0.246662
-1.182
-1.07727
-0.946157
-0.814496
-0.697626
-0.596299
-0.508048
-0.430732
-0.363122
-0.305878
-1.31232
-1.19901
-1.05669
-0.913436
-0.78623
-0.675737
-0.579345
-0.494789
-0.420739
-0.357489
-1.42175
-1.3004
-1.14785
-0.994121
-0.857753
-0.73914
-0.635509
-0.544482
-0.464637
-0.395812
-1.50522
-1.37658
-1.21504
-1.05221
-0.908092
-0.782604
-0.672827
-0.576295
-0.491484
-0.417848
-1.55802
-1.4231
-1.25407
-1.08374
-0.933508
-0.802548
-0.687858
-0.586913
-0.498097
-0.420544
-1.57614
-1.43613
-1.2613
-1.08541
-0.93086
-0.795946
-0.677687
-0.573529
-0.481766
-0.401272
-1.55649
-1.41261
-1.23406
-1.05477
-0.897797
-0.760478
-0.640071
-0.533977
-0.440392
-0.357986
-1.49714
-1.35075
-1.17119
-0.989922
-0.832827
-0.694769
-0.573679
-0.466924
-0.372587
-0.289274
0.322188
0.34685
0.367458
0.381578
0.389985
0.394302
0.39569
0.39492
0.392543
0.389098
0.287448
0.314432
0.338049
0.355383
0.366773
0.373762
0.377539
0.378909
0.378453
0.376824
0.22644
0.256931
0.285164
0.307425
0.323375
0.33443
0.34183
0.346435
0.348874
0.350001
0.140893
0.175916
0.210257
0.239031
0.260994
0.277388
0.289522
0.298333
0.304518
0.309201
0.0331187
0.0735531
0.115359
0.152076
0.181355
0.204216
0.222053
0.235898
0.246528
0.255402
-0.093941
-0.0473264
0.00315013
0.0490748
0.086815
0.117124
0.141493
0.161062
0.176698
0.190242
-0.236707
-0.183221
-0.123018
-0.0667754
-0.0195743
0.0190437
0.0506743
0.076568
0.0976841
0.116293
-0.391058
-0.33006
-0.259212
-0.191675
-0.134117
-0.0863937
-0.046807
-0.0140077
0.0130548
0.0371068
-0.552539
-0.48343
-0.401144
-0.321436
-0.252672
-0.19503
-0.146736
-0.106378
-0.0727551
-0.0428024
-0.716673
-0.638914
-0.544519
-0.451824
-0.370939
-0.302314
-0.244075
-0.194717
-0.152751
-0.115932
0.345841
0.262284
0.218422
0.180869
0.148388
0.119321
0.0919444
0.0653806
0.039129
0.0130049
0.345148
0.266388
0.222082
0.183795
0.150525
0.120793
0.09292
0.0659891
0.0394577
0.0131017
0.337716
0.269226
0.225224
0.186641
0.15278
0.122432
0.0940547
0.0667226
0.0398648
0.0132247
0.32295
0.270649
0.227873
0.189396
0.155137
0.124226
0.0953396
0.0675751
0.040347
0.0133732
0.300179
0.270308
0.230036
0.192045
0.157571
0.126161
0.0967646
0.0685399
0.0409008
0.0135466
0.269024
0.267531
0.231642
0.19456
0.160057
0.128218
0.0983178
0.0696094
0.041522
0.0137443
0.229861
0.261323
0.232477
0.196885
0.16256
0.130375
0.0999857
0.0707746
0.0422062
0.0139653
0.183448
0.250904
0.23223
0.198948
0.165049
0.132612
0.101754
0.0720264
0.0429484
0.0142087
0.129669
0.235896
0.2304
0.200588
0.167472
0.134909
0.103614
0.0733582
0.043745
0.0144743
0.0722188
0.218016
0.227438
0.20194
0.169874
0.13728
0.105567
0.0747708
0.0445972
0.0147662
0.0521549
0.211806
0.22734
0.203548
0.171827
0.139045
0.106958
0.0757476
0.0452005
0.0150252
0.049243
0.197084
0.217327
0.198328
0.169443
0.13805
0.106582
0.0756165
0.0451731
0.0150402
0.0623573
0.188763
0.209541
0.193534
0.1669
0.136815
0.106015
0.0753603
0.0450723
0.0150275
0.0796858
0.18317
0.202646
0.188823
0.164157
0.135353
0.105271
0.0749858
0.0449023
0.0149899
0.0987919
0.179828
0.196663
0.184301
0.161317
0.13373
0.104387
0.074512
0.0446725
0.0149304
0.116575
0.177759
0.191413
0.180015
0.158468
0.132014
0.103403
0.0739615
0.0443938
0.0148519
0.130887
0.176085
0.186688
0.175978
0.155676
0.130263
0.102359
0.073357
0.044077
0.0147574
0.140435
0.173984
0.182224
0.172154
0.152975
0.128519
0.101284
0.072716
0.04373
0.0146488
0.143982
0.170362
0.177427
0.168235
0.150192
0.126675
0.100109
0.0719912
0.0433156
0.0145036
0.144116
0.16964
0.175946
0.16696
0.149276
0.126076
0.099737
0.0717683
0.0431942
0.0144655
-0.14833
-0.215196
-0.26101
-0.286485
-0.293203
-0.283372
-0.259184
-0.223646
-0.178961
-0.131755
0.00491059
-0.0613605
-0.110581
-0.143469
-0.161121
-0.165487
-0.157778
-0.142512
-0.118575
-0.0964957
0.122387
0.0585646
0.00862521
-0.0278353
-0.0515753
-0.0642517
-0.0665056
-0.0626397
-0.0501163
-0.0395493
0.212981
0.151002
0.100985
0.0626412
0.0353576
0.0177823
0.00931407
0.00647092
0.0108953
0.0140498
0.282229
0.221879
0.172064
0.132626
0.103059
0.0822851
0.0695656
0.0623142
0.0611326
0.0596744
0.334886
0.275722
0.226078
0.185904
0.15478
0.131846
0.116247
0.106107
0.101221
0.0967917
0.374032
0.315563
0.26589
0.225057
0.192724
0.168212
0.150612
0.138527
0.131189
0.124773
0.401743
0.343413
0.293366
0.25173
0.218251
0.192409
0.17332
0.159939
0.151111
0.143595
0.419217
0.360229
0.309145
0.266203
0.231234
0.20386
0.183297
0.168845
0.159236
0.152111
0.428786
0.367258
0.313403
0.267456
0.229403
0.199081
0.17582
0.159521
0.148522
0.14304
1.41935
1.37386
1.32407
1.27145
1.2136
1.14815
1.07307
0.98748
0.898241
0.821324
1.21741
1.16589
1.11064
1.05017
0.98226
0.905117
0.816806
0.716659
0.612791
0.522699
1.00026
0.94528
0.885306
0.818081
0.741773
0.654663
0.554681
0.441297
0.323921
0.221195
0.789308
0.729437
0.663179
0.588389
0.50339
0.40632
0.294892
0.168642
0.0383782
-0.0764822
0.588391
0.522776
0.449801
0.367373
0.273791
0.167013
0.0445361
-0.0941009
-0.236425
-0.362688
0.398383
0.327387
0.248218
0.158813
0.0574154
-0.0582001
-0.190766
-0.340885
-0.493863
-0.63048
0.221765
0.146256
0.0618201
-0.0335309
-0.141573
-0.264701
-0.406014
-0.566597
-0.728142
-0.873587
0.0618725
-0.0171616
-0.105826
-0.205977
-0.319325
-0.448288
-0.596573
-0.767199
-0.935168
-1.08538
-0.0780011
-0.159586
-0.251446
-0.355281
-0.472808
-0.605975
-0.757896
-0.937606
-1.11051
-1.26141
-0.195239
-0.278453
-0.372382
-0.478517
-0.598882
-0.736025
-0.889281
-1.07172
-1.25086
-1.39794
2.68713
2.70669
2.73117
2.75815
2.78509
2.81111
2.83572
2.8583
2.87868
2.8936
2.63148
2.6492
2.67139
2.69576
2.71985
2.74275
2.76392
2.78269
2.79911
2.81081
2.55511
2.57012
2.58887
2.60932
2.62912
2.64731
2.66327
2.67628
2.6867
2.6938
2.45872
2.47022
2.48447
2.49977
2.51393
2.52593
2.53501
2.5404
2.54287
2.5444
2.34339
2.35069
2.35946
2.36849
2.37577
2.38021
2.38093
2.37705
2.36993
2.36416
2.2107
2.21314
2.21558
2.21733
2.21664
2.21231
2.20329
2.18868
2.17054
2.15563
2.06257
2.05976
2.05522
2.04885
2.0392
2.02497
2.00499
1.97833
1.94784
1.92229
1.90166
1.8933
1.88121
1.86591
1.84639
1.82127
1.78922
1.74935
1.70539
1.66804
1.73397
1.7199
1.69917
1.67357
1.64281
1.6055
1.56011
1.50582
1.44737
1.3973
1.56661
1.54232
1.50998
1.47255
1.42963
1.37932
1.31985
1.25044
1.1769
1.11356
2.83645
1.92331
2.62228
2.44507
2.41499
2.41105
2.42002
2.44753
2.51669
2.61815
2.82867
1.91448
2.61579
2.43704
2.40592
2.40032
2.40653
2.42992
2.49051
2.57997
2.82202
1.90465
2.61065
2.42855
2.396
2.38832
2.39096
2.40894
2.45685
2.52953
2.81638
1.89391
2.60691
2.41959
2.38525
2.37509
2.37335
2.3845
2.41594
2.46648
2.81162
1.88244
2.60459
2.41011
2.3737
2.36069
2.35378
2.35653
2.36795
2.39059
2.80764
1.87046
2.60369
2.39999
2.3614
2.34516
2.33227
2.32488
2.3127
2.30234
2.80432
1.85822
2.60418
2.38914
2.3484
2.32857
2.30886
2.28943
2.25071
2.20146
2.80153
1.84602
2.60595
2.3774
2.33479
2.31096
2.28353
2.2503
2.18402
2.08671
2.79916
1.83423
2.60885
2.36462
2.32071
2.29241
2.25635
2.20771
2.11306
1.95668
2.79696
1.82326
2.61263
2.35071
2.30638
2.27308
2.22779
2.1632
2.04117
1.82047
2.79502
1.81251
2.60849
2.33894
2.28926
2.24789
2.18922
2.10347
1.94854
1.66682
2.79654
1.80379
2.59641
2.33101
2.2722
2.22179
2.15036
2.04702
1.86939
1.5789
2.79925
1.79754
2.58583
2.32329
2.25676
2.19799
2.11563
1.99858
1.80625
1.52065
2.80377
1.79361
2.57702
2.31614
2.24305
2.17686
2.08537
1.95775
1.75683
1.47935
2.81078
1.79184
2.57005
2.30986
2.23122
2.15869
2.05984
1.9243
1.7192
1.44971
2.82098
1.7921
2.56491
2.30467
2.22142
2.14368
2.03909
1.89785
1.69152
1.42906
2.83485
1.79425
2.56142
2.30073
2.21375
2.13194
2.02309
1.87798
1.67215
1.41571
2.85434
1.79816
2.55929
2.29808
2.20829
2.12352
2.01176
1.86426
1.65981
1.40859
2.87609
1.80447
2.55807
2.29674
2.20513
2.11852
2.00515
1.85661
1.65412
1.40832
2.92399
1.81083
2.55922
2.29483
2.20313
2.11533
2.00092
1.8516
1.65017
1.40698
1.39217
1.21591
1.01828
0.828197
0.64918
0.479671
0.321101
0.176294
0.0480942
-0.0605967
1.30758
1.17028
1.0144
0.858461
0.708586
0.564582
0.42799
0.301566
0.187828
0.0883637
1.2599
1.14614
1.01632
0.882275
0.751904
0.626204
0.506175
0.393834
0.29119
0.200046
1.23113
1.13162
1.02027
0.903466
0.788137
0.675952
0.567888
0.46574
0.371442
0.286713
1.2154
1.12539
1.02666
0.922097
0.817491
0.714974
0.615606
0.520986
0.432875
0.352836
1.20797
1.12445
1.0343
0.938334
0.841421
0.745856
0.652731
0.563513
0.479845
0.403211
1.20593
1.1269
1.04255
0.952464
0.860875
0.770129
0.681321
0.595825
0.515199
0.440868
1.20764
1.13169
1.05116
0.964839
0.876651
0.788971
0.70288
0.619683
0.540876
0.467849
1.2146
1.14077
1.06228
0.977658
0.890947
0.804533
0.719465
0.636995
0.558571
0.48557
1.22485
1.1545
1.07735
0.993263
0.906917
0.820522
0.735068
0.651812
0.572168
0.497451
-2.73537
-2.53922
-2.30522
-2.0821
-1.89882
-1.74883
-1.62739
-1.53042
-1.45496
-1.39926
-2.82418
-2.63394
-2.40033
-2.17843
-1.99402
-1.84345
-1.7216
-1.62427
-1.54846
-1.49305
-2.79824
-2.61568
-2.38781
-2.16925
-1.98608
-1.83626
-1.71457
-1.61685
-1.54001
-1.48247
-2.67241
-2.49954
-2.28172
-2.07039
-1.89144
-1.74427
-1.62394
-1.52634
-1.44849
-1.38843
-2.4694
-2.30836
-2.10428
-1.90412
-1.73288
-1.59106
-1.47409
-1.37807
-1.30016
-1.23892
-2.21485
-2.06737
-1.88018
-1.69496
-1.5351
-1.40179
-1.29092
-1.1989
-1.12301
-1.06292
-1.93282
-1.79998
-1.63199
-1.46481
-1.31959
-1.19784
-1.09595
-1.0107
-0.939543
-0.883325
-1.64272
-1.52495
-1.37729
-1.23007
-1.10175
-0.993811
-0.903116
-0.826871
-0.762822
-0.712594
-1.35832
-1.25538
-1.12803
-1.00143
-0.891086
-0.79827
-0.720214
-0.654484
-0.599048
-0.557184
-1.08814
-0.999212
-0.891225
-0.784697
-0.692199
-0.61458
-0.549299
-0.493999
-0.445993
-0.40784
-0.837043
-0.760969
-0.670862
-0.583269
-0.508112
-0.445938
-0.394782
-0.353043
-0.318939
-0.289136
-0.60721
-0.54253
-0.468244
-0.397446
-0.337615
-0.288831
-0.249302
-0.217547
-0.192273
-0.169491
-0.399823
-0.344985
-0.284297
-0.227884
-0.181085
-0.143508
-0.113481
-0.0896352
-0.0708815
-0.0539436
-0.216048
-0.169598
-0.120418
-0.0761666
-0.0403857
-0.0122894
0.00966729
0.0267068
0.0397858
0.0514328
-0.0571424
-0.0177401
0.0218828
0.0560377
0.0826498
0.102821
0.117981
0.12921
0.137342
0.144281
0.0756767
0.109298
0.14123
0.167254
0.186468
0.200208
0.209805
0.216224
0.220198
0.223133
0.181365
0.210466
0.23653
0.256353
0.269912
0.278708
0.283996
0.28665
0.287322
0.287038
0.259141
0.285034
0.30704
0.322581
0.332231
0.337594
0.339871
0.339871
0.338188
0.335572
0.308541
0.332607
0.352362
0.365538
0.373033
0.376503
0.377115
0.375641
0.372639
0.368691
0.329459
0.353122
0.372422
0.385135
0.392225
0.395352
0.395671
0.393941
0.390707
0.386481
-0.0749652
0.103846
0.142694
0.144105
0.132937
0.11439
0.0917859
0.0668916
0.0405792
0.0135599
0.0132866
0.139693
0.157085
0.150033
0.134506
0.1142
0.0910251
0.0661009
0.0400294
0.0133749
0.089714
0.168053
0.168075
0.154129
0.135754
0.114095
0.0904216
0.0654505
0.0395713
0.0132193
0.153118
0.190422
0.177188
0.158056
0.137017
0.114135
0.0899885
0.0649432
0.0392045
0.0130932
0.205902
0.208181
0.18506
0.161692
0.13832
0.114333
0.0897311
0.0645799
0.0389285
0.0129961
0.249163
0.222113
0.192051
0.165135
0.1397
0.114703
0.0896524
0.0643607
0.0387428
0.0129277
0.283378
0.233407
0.198394
0.16845
0.141181
0.115254
0.089754
0.0642849
0.0386464
0.0128877
0.309374
0.242523
0.204197
0.171668
0.142782
0.11599
0.0900362
0.0643513
0.0386383
0.0128757
0.328161
0.250398
0.20948
0.174806
0.144513
0.116914
0.0904974
0.0645579
0.0387171
0.0128915
0.340159
0.256958
0.214224
0.177872
0.146382
0.118026
0.0911349
0.0649022
0.0388814
0.0129346
-0.262516
0.00380735
0.0922544
0.120828
0.122678
0.110442
0.0906802
0.0668951
0.0408675
0.01374
-0.233293
0.015603
0.0976364
0.123139
0.12366
0.110795
0.0907662
0.066882
0.0408319
0.0137213
-0.20384
0.0334064
0.106698
0.127289
0.125454
0.111462
0.0909491
0.0668787
0.0407772
0.0136877
-0.170498
0.054186
0.11776
0.132552
0.127697
0.112471
0.0913362
0.0669947
0.0407911
0.0136793
-0.129828
0.0787292
0.130959
0.13896
0.130848
0.113811
0.0919062
0.0672161
0.0408637
0.0136918
-1.33255
-1.42416
-1.42909
-1.36222
-1.24661
-1.10719
-0.96194
-0.824353
-0.689967
-0.567446
-1.33591
-1.43037
-1.43279
-1.3593
-1.23379
-1.08031
-0.915655
-0.75844
-0.608964
-0.490577
-1.34196
-1.43643
-1.43395
-1.35212
-1.21585
-1.05158
-0.880575
-0.723
-0.5801
-0.470946
-1.35297
-1.44643
-1.43842
-1.3488
-1.20465
-1.03424
-0.860521
-0.70059
-0.558397
-0.446215
-1.36987
-1.46347
-1.45101
-1.35478
-1.20416
-1.02859
-0.851309
-0.685614
-0.536309
-0.404139
2.09221
2.07165
2.04397
2.01265
1.97737
1.93622
1.88756
1.83052
1.77
1.71924
2.2347
2.22696
2.21362
2.19686
2.17644
2.151
2.11924
2.08027
2.03786
2.00271
2.36522
2.36402
2.36063
2.35568
2.34797
2.33618
2.31917
2.29605
2.26956
2.24795
2.47928
2.48395
2.48857
2.49295
2.49542
2.49474
2.48991
2.48008
2.46709
2.45673
2.57289
2.5826
2.59394
2.60604
2.61693
2.62544
2.63074
2.63199
2.63032
2.62889
2.64549
2.65939
2.67621
2.69454
2.71217
2.72804
2.74145
2.75166
2.75923
2.76435
2.69681
2.71387
2.73486
2.7579
2.78063
2.80207
2.82161
2.83859
2.85319
2.86345
2.72666
2.74585
2.76967
2.79592
2.82211
2.84733
2.87105
2.89262
2.91198
2.92605
2.73491
2.75524
2.78058
2.80854
2.83657
2.8638
2.88974
2.91376
2.93566
2.95183
2.72162
2.7421
2.76766
2.79586
2.82414
2.85162
2.87785
2.90219
2.92442
2.94087
-1.19295
-1.25129
-1.3278
-1.4251
-1.54609
-1.6942
-1.87172
-2.10006
-2.32912
-2.52884
-0.879546
-0.942473
-1.02245
-1.12187
-1.2433
-1.39013
-1.56845
-1.78424
-2.00555
-2.21521
-0.478709
-0.550143
-0.636744
-0.740488
-0.863799
-1.01012
-1.18389
-1.38645
-1.60053
-1.80683
-0.0322999
-0.114129
-0.207838
-0.315382
-0.439191
-0.582402
-0.748899
-0.94011
-1.14315
-1.33359
0.408126
0.320745
0.224493
0.117464
-0.00272422
-0.138982
-0.294916
-0.472239
-0.659279
-0.830474
0.808679
0.723688
0.631694
0.530996
0.419436
0.294442
0.152789
-0.00713743
-0.174601
-0.324915
1.15894
1.0824
1.00013
0.910539
0.811697
0.701434
0.577011
0.437035
0.291175
0.162382
1.46459
1.39852
1.32818
1.25192
1.16772
1.07373
0.967728
0.848565
0.724776
0.617181
1.73706
1.67973
1.61923
1.55516
1.48499
1.40685
1.31886
1.22002
1.11764
1.03016
1.96477
1.91674
1.86462
1.812
1.75619
1.69455
1.62509
1.5467
1.46534
1.39683
2.97569
1.96067
2.74986
2.47688
2.45215
2.45
2.4487
2.44555
2.40135
2.30297
2.95699
1.95916
2.73384
2.48054
2.45241
2.45079
2.45235
2.45818
2.43369
2.39723
2.93928
1.95772
2.71792
2.48208
2.45214
2.45088
2.45578
2.46972
2.46581
2.48074
2.9226
1.95608
2.70243
2.48172
2.4511
2.45007
2.45765
2.47844
2.49419
2.54555
2.90696
1.95401
2.68768
2.47969
2.4491
2.44821
2.45786
2.4839
2.51802
2.59421
2.89238
1.95128
2.67388
2.47624
2.44604
2.44521
2.45637
2.48607
2.5353
2.62949
2.87889
1.94775
2.66114
2.47161
2.4419
2.44098
2.45307
2.48494
2.54593
2.65186
2.86653
1.94325
2.64957
2.46601
2.43668
2.43547
2.44787
2.48051
2.54969
2.66156
2.85534
1.93771
2.63921
2.45964
2.43042
2.42865
2.44067
2.4728
2.54621
2.65866
2.84533
1.93106
2.6301
2.45262
2.42317
2.4205
2.4314
2.46182
2.53526
2.64435
3.12971
1.98815
2.76712
2.48478
2.45363
2.44366
2.4267
2.3962
2.28999
2.12409
3.07861
1.98197
2.76433
2.48472
2.45343
2.44429
2.42837
2.39947
2.29623
2.12651
3.04957
1.97588
2.76452
2.48301
2.45325
2.44532
2.43127
2.40539
2.30873
2.13292
3.02176
1.96987
2.76265
2.48014
2.45283
2.44663
2.43561
2.41458
2.32928
2.15607
2.9964
1.96407
2.75985
2.47627
2.45222
2.44811
2.44106
2.42686
2.35752
2.19805
1.83726
1.70167
1.48483
1.18349
0.810146
0.374188
-0.0897001
-0.523968
-0.881727
-1.1513
1.81962
1.67607
1.46209
1.1721
0.817042
0.400908
-0.0523215
-0.48953
-0.861522
-1.14545
1.83309
1.67668
1.45587
1.17021
0.825955
0.422445
-0.023629
-0.466099
-0.850733
-1.14575
1.87565
1.69851
1.46409
1.17757
0.836853
0.438069
-0.00587574
-0.45376
-0.848524
-1.15235
1.94856
1.74037
1.48249
1.18802
0.845742
0.448086
0.00497166
-0.446637
-0.850138
-1.16346
)
;

boundaryField
{
    left
    {
        type            zeroGradient;
    }
    right
    {
        type            fixedValue;
        value           uniform 0;
    }
    down
    {
        type            zeroGradient;
    }
    up
    {
        type            zeroGradient;
    }
    cylinder
    {
        type            zeroGradient;
    }
    defaultFaces
    {
        type            empty;
    }
}


// ************************************************************************* //
