/*--------------------------------*- C++ -*----------------------------------*\
  =========                 |
  \\      /  F ield         | OpenFOAM: The Open Source CFD Toolbox
   \\    /   O peration     | Website:  https://openfoam.org
    \\  /    A nd           | Version:  13
     \\/     M anipulation  |
\*---------------------------------------------------------------------------*/
FoamFile
{
    format      ascii;
    class       surfaceScalarField;
    location    "0.0925";
    object      phi;
}
// * * * * * * * * * * * * * * * * * * * * * * * * * * * * * * * * * * * * * //

dimensions      [0 3 -1 0 0 0 0];

internalField   nonuniform List<scalar> 
3485
(
0.00496592
-0.0642441
0.0592782
0.0140423
-0.128553
0.119477
0.0238874
-0.144315
0.13447
0.0335911
-0.144177
0.134473
0.043006
-0.140593
0.131178
0.0521278
-0.136652
0.12753
0.0609576
-0.132932
0.124102
0.0694734
-0.129488
0.120972
0.0775896
-0.126232
0.118115
-0.122825
0.115138
0.0852766
0.00478835
-0.0690325
0.0133063
-0.137071
0.0224474
-0.153456
0.0314321
-0.153162
0.0401595
-0.149321
0.0486473
-0.14514
0.0569226
-0.141207
0.0650149
-0.13758
0.0729809
-0.134198
-0.130934
0.0810893
0.00458593
-0.0736184
0.0124862
-0.144971
0.0208553
-0.161825
0.0290511
-0.161358
0.0370148
-0.157285
0.044774
-0.152899
0.0523575
-0.14879
0.0597902
-0.145013
0.0670999
-0.141507
-0.138174
0.0743401
0.0043464
-0.0779648
0.0115548
-0.15218
0.0190694
-0.169339
0.026395
-0.168683
0.0335131
-0.164403
0.0404602
-0.159846
0.0472654
-0.155596
0.0539513
-0.151699
0.0605422
-0.148098
-0.14476
0.0671288
0.00405854
-0.0820234
0.0104912
-0.158612
0.0170629
-0.175911
0.0234328
-0.175053
0.0296183
-0.170588
0.0356626
-0.16589
0.0415932
-0.161526
0.0474306
-0.157536
0.0531993
-0.153867
-0.150521
0.0589596
0.00371193
-0.0857353
0.00927787
-0.164178
0.0148175
-0.181451
0.0201489
-0.180385
0.0253181
-0.175757
0.0303741
-0.170946
0.0353429
-0.166495
0.040242
-0.162435
0.0450932
-0.158718
-0.155364
0.0499361
0.00329949
-0.0890348
0.00790711
-0.168786
0.0123365
-0.18588
0.0165571
-0.184605
0.0206359
-0.179836
0.0246284
-0.174939
0.0285582
-0.170425
0.0324403
-0.166317
0.0362928
-0.162571
-0.159207
0.040136
0.00281654
-0.0918513
0.00638285
-0.172352
0.00964376
-0.189141
0.012689
-0.18765
0.0156137
-0.182761
0.0184787
-0.177804
0.0213041
-0.17325
0.0241012
-0.169114
0.0268834
-0.165353
-0.161977
0.0296539
0.00227074
-0.0941221
0.00473489
-0.174816
0.00677346
-0.19118
0.00859308
-0.18947
0.0103154
-0.184483
0.012003
-0.179491
0.0136723
-0.17492
0.0153309
-0.170773
0.0169872
-0.167009
-0.163622
0.0186316
0.00167958
-0.0958016
0.0029941
-0.176131
0.0037438
-0.191929
0.00433823
-0.190065
0.00481878
-0.184964
0.0052931
-0.179966
0.00577157
-0.175398
0.00625259
-0.171254
0.00673608
-0.167493
0.00720971
-0.164095
0.00554693
-0.0105151
0.00496813
0.0172814
-0.0215554
0.00982092
0.0306866
-0.0244647
0.0110596
0.0441526
-0.0245521
0.0110861
0.0572887
-0.0239684
0.0108323
0.0700359
-0.0232902
0.010543
0.0824064
-0.0226391
0.0102686
0.0944242
-0.0220333
0.0100155
0.10611
-0.0214677
0.00978178
-0.0210477
0.117587
0.00957095
0.00553693
-0.016052
0.0172009
-0.0332194
0.0305075
-0.0377714
0.0438701
-0.0379148
0.0569076
-0.0370058
0.0695641
-0.0359467
0.0818534
-0.0349284
0.0937998
-0.0339797
0.105426
-0.0330938
-0.0324731
0.116851
0.00552761
-0.0215796
0.0170967
-0.0447885
0.0302678
-0.0509425
0.0434869
-0.0511338
0.056386
-0.049905
0.0689141
-0.0484748
0.0810864
-0.0471006
0.092928
-0.0458213
0.104464
-0.04463
-0.0438182
0.115809
0.00551731
-0.0270969
0.0169598
-0.056231
0.0299493
-0.063932
0.042975
-0.0641595
0.0556867
-0.0626167
0.068039
-0.060827
0.080049
-0.0591106
0.0917428
-0.0575152
0.10315
-0.0560367
-0.0550435
0.114375
0.00550259
-0.0325995
0.0167788
-0.0675071
0.0295309
-0.0766841
0.0423035
-0.0769321
0.0547681
-0.0750813
0.0668863
-0.0729452
0.0786773
-0.0709016
0.0901682
-0.0690061
0.101393
-0.067261
-0.066093
0.112442
0.00547793
-0.0380774
0.0165394
-0.0785686
0.0289895
-0.0891342
0.0414402
-0.0893829
0.0535889
-0.08723
0.0654045
-0.0847608
0.0769078
-0.0824049
0.0881265
-0.0802248
0.0990978
-0.0782323
-0.0768876
0.109892
0.0054356
-0.043513
0.0162261
-0.0893591
0.0283031
-0.101211
0.0403577
-0.101437
0.0521158
-0.0989882
0.063554
-0.096199
0.0746939
-0.0935447
0.0855619
-0.0910928
0.0961953
-0.0888657
-0.0873209
0.106629
0.00536725
-0.0488803
0.015825
-0.0998169
0.0274559
-0.112842
0.0390393
-0.113021
0.0503327
-0.110282
0.0613209
-0.107187
0.072026
-0.10425
0.0824729
-0.10154
0.092692
-0.0990847
-0.0972721
0.102643
0.00526683
-0.0541471
0.0153282
-0.109878
0.0264403
-0.123954
0.0374801
-0.124061
0.0482395
-0.121041
0.058714
-0.117662
0.0689299
-0.114466
0.0789129
-0.111523
0.0886767
-0.108849
-0.106592
0.0979966
0.00513113
0.0147294
0.0252448
0.0356576
0.045795
0.0556635
0.0652996
0.0747489
0.0840158
0.092562
0.161358
-0.121369
0.0775985
0.183944
-0.0881889
0.0656026
0.195006
-0.0655509
0.0544884
0.200194
-0.049412
0.0442243
0.202298
-0.0370727
0.0349685
0.202686
-0.0272292
0.0268419
0.202067
-0.0191934
0.0198119
0.200825
-0.012482
0.0137241
0.199169
-0.00674046
0.00839645
-0.000966183
0.00296188
0.16025
-0.164768
0.182912
-0.110851
0.19423
-0.0768684
0.199667
-0.0548496
0.201976
-0.0393818
0.202532
-0.0277844
0.202058
-0.0187195
0.200948
-0.0113721
0.199419
-0.0052115
0.000902591
0.158367
-0.207326
0.180976
-0.13346
0.192597
-0.0884886
0.198387
-0.06064
0.201019
-0.0420143
0.201868
-0.028633
0.201668
-0.0185192
0.200821
-0.0105257
0.199552
-0.0039424
0.00251011
0.155666
-0.248617
0.178121
-0.155915
0.190104
-0.100472
0.196354
-0.06689
0.199431
-0.0450906
0.200698
-0.0299
0.200898
-0.0187199
0.200445
-0.0100725
0.199567
-0.00306467
0.00372287
0.152068
-0.288243
0.174333
-0.17818
0.186755
-0.112894
0.193576
-0.0737108
0.197217
-0.0487315
0.199026
-0.0317091
0.199753
-0.0194475
0.199821
-0.0101398
0.199464
-0.00270774
0.00440907
0.147378
-0.325728
0.16959
-0.200392
0.182554
-0.125859
0.190061
-0.0812182
0.194389
-0.0530587
0.196862
-0.0341822
0.198239
-0.0208245
0.198951
-0.010852
0.199241
-0.00299809
0.00443937
0.141168
-0.360267
0.163843
-0.223067
0.177504
-0.13952
0.185824
-0.0895382
0.19096
-0.0581945
0.194217
-0.0374392
0.196363
-0.0229702
0.19784
-0.0123294
0.198901
-0.00405842
0.00368786
0.134385
-0.392009
0.15708
-0.245762
0.171604
-0.154045
0.18088
-0.0988141
0.186948
-0.0642625
0.191106
-0.0415972
0.194136
-0.0259998
0.196494
-0.0146876
0.198443
-0.00600688
0.00203288
0.126679
-0.420691
0.149122
-0.268205
0.164767
-0.16969
0.175205
-0.109252
0.182356
-0.0714134
0.18754
-0.0467814
0.191568
-0.0300283
0.19492
-0.0180391
0.19787
-0.00895691
-0.000642311
0.117358
-0.445487
0.140528
-0.291375
0.157266
-0.186427
0.168913
-0.1209
0.17724
-0.0797404
0.183551
-0.0530917
0.188679
-0.0351569
0.193126
-0.0224863
0.197184
-0.0130144
-0.00444923
0.353494
-0.395606
-0.403375
0.328393
-0.266274
0.318099
-0.176133
0.313618
-0.116418
0.311276
-0.0773983
0.309798
-0.0516147
0.30877
-0.0341281
0.308058
-0.0217748
0.307616
-0.0125721
-0.00428597
0.367721
-0.340098
-0.423229
0.340065
-0.238618
0.326369
-0.162438
0.319165
-0.109214
0.31497
-0.0732031
0.312306
-0.0489512
0.310538
-0.0323602
0.309381
-0.0206172
0.308693
-0.0118846
-0.0040443
0.380802
-0.285946
-0.434954
0.350685
-0.208501
0.333949
-0.145701
0.324319
-0.099584
0.318446
-0.0673306
0.314684
-0.0451892
0.312219
-0.0298951
0.310636
-0.0190342
0.309713
-0.0109611
-0.0037257
0.390331
-0.234885
-0.441393
0.359267
-0.177436
0.340466
-0.1269
0.328918
-0.0880362
0.321615
-0.0600273
0.316875
-0.0404494
0.313774
-0.0267941
0.311797
-0.0170578
0.310654
-0.00981735
-0.00333448
0.39729
-0.187601
-0.444573
0.366111
-0.146258
0.34593
-0.106719
0.3329
-0.0750059
0.324411
-0.051539
0.318829
-0.0348671
0.315167
-0.023132
0.312839
-0.0147296
0.311496
-0.00847501
-0.00287718
0.402265
-0.14408
-0.445786
0.371434
-0.115428
0.350369
-0.085654
0.336227
-0.0608632
0.326789
-0.0421015
0.320507
-0.028585
0.316369
-0.0189939
0.313738
-0.0120991
0.312224
-0.00696057
-0.00236215
0.40571
-0.103859
-0.445931
0.375427
-0.0851451
0.353827
-0.0640538
0.33888
-0.0459161
0.328714
-0.0319354
0.321877
-0.0217484
0.317355
-0.0144713
0.314477
-0.00922192
0.312821
-0.00530443
-0.00179922
0.407948
-0.066207
-0.4456
0.378234
-0.0554305
0.356337
-0.042157
0.340843
-0.030422
0.330154
-0.0212462
0.322908
-0.0145026
0.318097
-0.00966063
0.315033
-0.00615818
0.313269
-0.00354027
-0.00119942
0.408427
-0.0299462
-0.444687
0.379261
-0.0262649
0.357303
-0.0201989
0.341534
-0.0146527
0.330551
-0.0102634
0.323066
-0.00701785
0.318084
-0.00467878
0.31491
-0.00298351
0.313082
-0.00171247
-0.000577707
0.377645
-0.407591
0.35138
0.331181
0.316528
0.306265
0.299247
0.294568
0.291585
0.289872
0.435313
0.00706015
-0.435164
0.434797
0.0191478
0.433587
0.0308639
0.431636
0.0420864
0.428885
0.0526875
0.425288
0.0625568
0.42061
0.0718069
0.415428
0.0795214
0.406446
0.0900715
0.0883474
0.417762
0.00676323
-0.417465
0.418336
0.0185739
0.419117
0.0300832
0.420048
0.041155
0.421056
0.0516795
0.422093
0.0615197
0.422996
0.0709043
0.423995
0.0785221
0.424711
0.0893553
0.0898299
0.403593
0.00620041
-0.40303
0.404903
0.0172637
0.406917
0.0280692
0.40959
0.0384818
0.412866
0.048404
0.416681
0.057705
0.420981
0.0666036
0.425482
0.0740215
0.430993
0.0838437
0.0858697
0.392435
0.00548817
-0.391723
0.394227
0.0154725
0.397066
0.0252296
0.400913
0.0346349
0.405719
0.0435981
0.411413
0.0520106
0.417992
0.0600245
0.42512
0.0668939
0.43369
0.0752736
0.0781666
0.38369
0.00467165
-0.382874
0.385818
0.0133451
0.389228
0.0218193
0.393883
0.0299804
0.399736
0.0377442
0.406722
0.0450247
0.414839
0.0519077
0.423812
0.0579215
0.434298
0.0647869
0.0678919
0.376966
0.00378092
-0.376075
0.379328
0.0109825
0.383135
0.0180131
0.388344
0.0247711
0.394909
0.0311787
0.402767
0.0371673
0.411899
0.0427753
0.422101
0.04772
0.433802
0.0530855
0.055908
0.371974
0.0028345
-0.371028
0.374505
0.00845179
0.378589
0.0139292
0.384181
0.019179
0.391227
0.0241322
0.399662
0.0287326
0.409448
0.032989
0.420433
0.0367358
0.432879
0.0406386
0.0428561
0.368475
0.00183617
-0.367477
0.371138
0.00578903
0.375429
0.00963845
0.381294
0.0133133
0.388669
0.0167573
0.397477
0.0199249
0.407657
0.0228094
0.419089
0.0253038
0.431915
0.0278118
0.0291714
0.364682
0.000723162
-0.363569
0.367557
0.00291476
0.372144
0.00505115
0.378372
0.00708536
0.386148
0.00898107
0.395365
0.0107078
0.405922
0.0122525
0.417678
0.0135482
0.430661
0.014828
0.0151453
0.317077
-0.316353
0.319991
0.325042
0.332128
0.341109
0.351817
0.364069
0.377617
0.392445
0.0800568
0.122236
-0.11204
-0.0902536
0.0706496
0.124561
-0.115154
0.0614593
0.127553
-0.118363
0.0522593
0.130943
-0.121743
0.0429426
0.134653
-0.125337
0.0334441
0.138681
-0.129182
0.0237316
0.142884
-0.133172
0.0139306
0.145639
-0.135838
0.00493073
0.136733
-0.127733
0.0796389
-0.0747082
0.0752602
0.130605
-0.083629
0.0666562
0.133165
0.0579449
0.136265
0.0491591
0.139728
0.0402771
0.143535
0.031259
0.147699
0.0220812
0.152062
0.0128733
0.154847
0.0044965
0.145109
0.0841354
0.0677848
0.137873
-0.075052
0.0602085
0.140741
0.05245
0.144023
0.0445462
0.147632
0.0364949
0.151587
0.0282774
0.155916
0.0198917
0.160448
0.0114903
0.163248
0.00392398
0.152676
0.0880594
0.0596631
0.144276
-0.0660665
0.0530229
0.147381
0.0462124
0.150834
0.0392457
0.154599
0.0321177
0.158715
0.0248163
0.163218
0.0173513
0.167913
0.00989202
0.170707
0.00326693
0.159301
0.0913263
0.0513642
0.149915
-0.057003
0.0455742
0.153171
0.0396612
0.156747
0.0336194
0.160641
0.0274357
0.164898
0.0210975
0.169556
0.0146201
0.17439
0.00818289
0.177144
0.00257578
0.164908
0.0939021
0.0427083
0.154743
-0.0475365
0.037792
0.158088
0.0327969
0.161742
0.0277079
0.16573
0.0225077
0.170098
0.0171829
0.174881
0.0117501
0.179823
0.0063957
0.182499
0.00186784
0.169436
0.09577
0.0335505
0.158661
-0.0374689
0.0295869
0.162051
0.0255745
0.165754
0.0214963
0.169808
0.0173378
0.174257
0.0130897
0.179129
0.00876039
0.184152
0.00453054
0.186729
0.00113519
0.172831
0.0969052
0.0238955
0.161569
-0.0268034
0.0209692
0.164978
0.0180103
0.168713
0.0150028
0.172815
0.0119337
0.177326
0.00881522
0.182248
0.00567393
0.187294
0.00259724
0.189805
0.000322907
0.175105
0.0972281
0.0138523
0.163386
-0.0156692
0.0120303
0.1668
0.0101848
0.170559
0.00830574
0.174695
0.00637662
0.179255
0.00437463
0.184249
0.00248898
0.189179
0.000699404
0.191595
-0.000377891
0.176183
0.0968502
0.00363548
-0.0043447
0.00294259
0.00224741
0.00154377
0.000833237
0.000119077
-0.000766219
-0.00110056
-0.00104853
0.109474
0.0210553
-0.120718
-0.00981155
0.0978608
0.0216308
-0.0100176
0.0859227
0.0221792
-0.0102411
0.0736458
0.02276
-0.0104831
0.0610052
0.0233883
-0.0107477
0.0479719
0.0240722
-0.0110389
0.0345245
0.0248004
-0.011353
0.0207717
0.0253493
-0.0115965
0.00774608
0.0240866
-0.011061
0.0145899
-0.00684377
0.108574
0.0322543
-0.119773
0.0970231
0.0331821
0.0851589
0.0340434
0.0729672
0.0349517
0.060423
0.0359326
0.0474964
0.0369988
0.0341656
0.0381312
0.0205394
0.0389756
0.00764552
0.0369804
0.0222354
0.107292
0.0433832
-0.118421
0.0958368
0.0446377
0.0840832
0.045797
0.0720164
0.0470185
0.0596107
0.0483382
0.0468358
0.0497737
0.0336696
0.0512974
0.0202215
0.0524237
0.00751318
0.0496887
0.0297486
0.105534
0.0544017
-0.116552
0.0942204
0.0559509
0.0826266
0.0573908
0.0707361
0.058909
0.0585226
0.0605518
0.0459551
0.0623412
0.0330118
0.0642406
0.0198049
0.0656306
0.00735042
0.0621432
0.037099
0.103191
0.0652503
-0.114039
0.092084
0.0670576
0.0807148
0.06876
0.0690659
0.0705579
0.0571101
0.0725076
0.0448159
0.0746354
0.0321616
0.0768949
0.0192622
0.0785301
0.00712515
0.0742803
0.0442241
0.100167
0.0758542
-0.110771
0.0893452
0.077879
0.0782806
0.0798246
0.0669531
0.0818854
0.0553337
0.0841269
0.04339
0.0865791
0.0311008
0.089184
0.0185849
0.091046
0.00684039
0.0860247
0.0510645
0.0963815
0.0861343
-0.106662
0.085947
0.0883135
0.0752897
0.0904818
0.0643807
0.0927944
0.0531878
0.0953199
0.0416785
0.0980884
0.0298343
0.101028
0.0177798
0.103101
0.00650355
0.097301
0.0575681
0.0916963
0.0959444
-0.101506
0.0817947
0.0982151
0.0716809
0.100596
0.0613122
0.103163
0.0506547
0.105977
0.0396775
0.109066
0.0283663
0.11234
0.0168543
0.114612
0.00611956
0.108036
0.0636876
0.0865223
0.104937
-0.0955148
0.077385
0.107352
0.067911
0.11007
0.0581221
0.112952
0.0480204
0.116079
0.0375917
0.119494
0.0268335
0.123098
0.0158904
0.125556
0.00572542
0.118201
0.069413
0.0790145
-0.0861172
0.0712131
0.0629197
0.0541291
0.0448713
0.0351833
0.0251092
0.0148271
0.00529516
0.200564
0.0154364
-0.0180105
0.202862
0.0205412
-0.0228394
0.202737
0.0252539
-0.0251288
0.203354
0.0277093
-0.0283259
0.20297
0.0335419
-0.0331582
0.200924
0.0416745
-0.0396282
0.195919
0.0526492
-0.047645
0.185461
0.0675004
-0.0570415
0.163262
0.0897384
-0.0675396
0.121886
-0.0793423
0.200419
0.0130068
0.202595
0.0183654
0.202411
0.0254383
0.20294
0.0271799
0.202432
0.0340504
0.200214
0.0438923
0.194985
0.0578782
0.184259
0.0782266
0.161987
0.11201
0.1641
0.200148
0.0108483
0.202034
0.0164801
0.201696
0.0257759
0.202017
0.0268587
0.201255
0.0348129
0.198741
0.0464064
0.193176
0.0634432
0.182106
0.0892958
0.159846
0.13427
0.205525
0.199747
0.00909146
0.201182
0.0150451
0.200604
0.0263533
0.200595
0.0268682
0.199448
0.0359594
0.196512
0.0493427
0.190492
0.0694631
0.178987
0.100801
0.15674
0.156517
0.245713
0.199207
0.00787473
0.200044
0.0142074
0.199151
0.0272461
0.198685
0.0273345
0.197025
0.0376199
0.193539
0.0528283
0.186937
0.0760655
0.174879
0.112859
0.152411
0.178985
0.284084
0.198517
0.00734708
0.198628
0.0140967
0.197358
0.0285163
0.196303
0.0283896
0.194
0.039923
0.189837
0.0569911
0.182515
0.0833875
0.169752
0.125622
0.146562
0.202174
0.319876
0.197666
0.0076704
0.196942
0.014821
0.195247
0.0302115
0.193462
0.030175
0.19039
0.0429944
0.185422
0.0619598
0.177233
0.0915759
0.163611
0.139244
0.140548
0.225237
0.353763
0.196639
0.00902119
0.194999
0.0164614
0.192844
0.0323656
0.190175
0.0328447
0.186218
0.0469515
0.180316
0.0678619
0.171119
0.100772
0.156525
0.153838
0.134318
0.247445
0.386574
0.195421
0.0115898
0.192816
0.0190666
0.190179
0.035003
0.186453
0.0365701
0.181509
0.0518961
0.174566
0.074804
0.164336
0.111003
0.149014
0.16916
0.128117
0.268341
0.419177
0.194095
0.0154847
0.190404
0.022758
0.187308
0.0380987
0.182337
0.0415411
0.176344
0.0578887
0.168257
0.0828914
0.156727
0.122533
0.139893
0.185994
0.117257
0.290977
0.450316
0.302716
0.0147792
0.303882
0.0215916
0.30711
0.0348713
0.308277
0.0403737
0.310042
0.0561238
0.312368
0.0805653
0.31637
0.118532
0.325159
0.177205
0.349443
0.266693
0.39565
0.40411
0.303416
0.0133738
0.304954
0.0200534
0.308349
0.0314759
0.310546
0.0381766
0.313541
0.053129
0.317868
0.076238
0.325025
0.111375
0.338382
0.163848
0.366818
0.238257
0.340808
0.421659
0.304006
0.0113785
0.306059
0.018
0.309608
0.0279267
0.312688
0.0350972
0.316832
0.0489847
0.322898
0.0701717
0.332566
0.101708
0.349116
0.147297
0.379621
0.207752
0.287241
0.433189
0.304555
0.00883328
0.307093
0.0154626
0.310848
0.0241719
0.314674
0.0312702
0.319855
0.0438044
0.327415
0.0626113
0.339086
0.0900374
0.35788
0.128503
0.389097
0.176534
0.236518
0.43982
0.305093
0.00575081
0.308056
0.0124989
0.312018
0.0202101
0.316466
0.0268221
0.32254
0.0377306
0.331342
0.0538092
0.344562
0.0768173
0.364853
0.108213
0.395969
0.145418
0.18931
0.443177
0.305643
0.00211768
0.308956
0.0091861
0.313082
0.0160844
0.318026
0.0218782
0.324837
0.0309192
0.334635
0.0440115
0.349018
0.0624338
0.370254
0.086977
0.40087
0.114802
0.145672
0.444508
0.306234
-0.00210659
0.309801
0.00561955
0.314005
0.0118801
0.319318
0.0165652
0.326708
0.0235301
0.337269
0.0334498
0.352494
0.047209
0.37429
0.0651809
0.40427
0.084822
0.105222
0.44472
0.306913
-0.00700952
0.310604
0.00192833
0.314754
0.00773007
0.32031
0.0110091
0.32812
0.0157208
0.339231
0.0223385
0.355032
0.0314083
0.377131
0.043081
0.406499
0.0554543
0.067315
0.444406
0.307266
-0.0122656
0.310898
-0.00170335
0.314849
0.00377954
0.320527
0.00533058
0.328605
0.00764274
0.34007
0.010874
0.356227
0.015251
0.378465
0.0208426
0.407336
0.0265835
0.0315932
0.443058
0.289745
0.288041
0.291821
0.297151
0.304794
0.315668
0.330919
0.351762
0.378345
0.409938
0.41291
-0.0990539
0.415445
-0.0861641
0.418458
-0.0780644
0.422083
-0.0696917
0.425629
-0.0605489
0.428742
-0.0506498
0.431288
-0.0400152
0.433232
-0.0287469
0.434546
-0.0169833
-0.0049622
0.421092
-0.0984863
0.420903
-0.0859749
0.420486
-0.0776479
0.419976
-0.0691811
0.419328
-0.0599011
0.418628
-0.0499497
0.418007
-0.0393946
0.417561
-0.0283005
0.41736
-0.0167829
-0.0050674
0.427267
-0.0925645
0.422681
-0.0813887
0.418287
-0.0732541
0.414286
-0.0651803
0.410816
-0.0564306
0.407923
-0.0470574
0.405659
-0.0371301
0.404072
-0.0267142
0.403205
-0.0159156
-0.00489244
0.430352
-0.0830968
0.422612
-0.073649
0.415616
-0.0662584
0.409368
-0.0589316
0.403976
-0.0510383
0.3995
-0.0425821
0.395996
-0.0336259
0.393512
-0.0242304
0.392084
-0.0144869
-0.00453197
0.431466
-0.0713861
0.421549
-0.0637321
0.412709
-0.0574176
0.404884
-0.0511071
0.39816
-0.0443138
0.392599
-0.0370209
0.388251
-0.0292788
0.385162
-0.0211413
0.383365
-0.0126896
-0.00404081
0.43141
-0.0582877
0.420061
-0.0523836
0.409974
-0.04733
0.401085
-0.0422181
0.393458
-0.0366869
0.387154
-0.030717
0.382224
-0.0243494
0.378714
-0.0176312
0.376659
-0.0106339
-0.00345739
0.430788
-0.0443561
0.418541
-0.0401366
0.407651
-0.0364396
0.398066
-0.0326331
0.38984
-0.0284606
0.383035
-0.0239121
0.377707
-0.019022
0.373907
-0.013831
0.371673
-0.00839979
-0.00281217
0.429978
-0.0299279
0.417219
-0.0273777
0.405867
-0.0250875
0.395858
-0.0226245
0.387248
-0.0198506
0.38011
-0.0167741
0.374512
-0.0134237
0.370513
-0.00983172
0.368158
-0.00604532
-0.0021304
0.428144
-0.0150141
0.415126
-0.0143594
0.403487
-0.0134483
0.393155
-0.0122926
0.384212
-0.010908
0.376762
-0.0093239
0.3709
-0.00756199
0.366711
-0.00564247
0.364258
-0.00359193
-0.00144226
0.394924
0.380565
0.367117
0.354824
0.343916
0.334592
0.32703
0.321388
0.317796
0.00448887
0.114846
-0.119335
0.00764166
0.212771
-0.215924
0.0091219
0.233028
-0.234508
0.0101672
0.231826
-0.232871
0.0111289
0.227007
-0.227968
0.0121894
0.222406
-0.223467
0.0133852
0.218535
-0.21973
0.0147107
0.215371
-0.216696
0.0161055
0.212768
-0.214163
0.210055
0.017216
-0.211165
0.0061618
0.108684
0.0125097
0.206423
0.0175978
0.22794
0.0221883
0.227235
0.0267761
0.222419
0.0315588
0.217623
0.0366125
0.213481
0.0419773
0.210006
0.047643
0.207102
0.204492
0.0532058
0.00726878
0.101415
0.0163048
0.197387
0.0245524
0.219692
0.0323852
0.219403
0.0402313
0.214573
0.0483141
0.209541
0.0567476
0.205048
0.0656146
0.201139
0.0749779
0.197739
0.194761
0.0847096
0.0077738
0.0936414
0.0188178
0.186343
0.0296177
0.208892
0.0401126
0.208908
0.0506031
0.204082
0.0613007
0.198843
0.0723372
0.194011
0.0838167
0.189659
0.0958372
0.185718
0.182065
0.108533
0.00779605
0.0858453
0.0201035
0.174036
0.0327421
0.196254
0.0451757
0.196474
0.0575458
0.191712
0.0700213
0.186368
0.0827251
0.181307
0.0957561
0.176628
0.109203
0.172272
0.167983
0.123285
0.00751742
0.0783279
0.0204424
0.161111
0.0342048
0.182491
0.047849
0.18283
0.0613457
0.178216
0.074802
0.172911
0.0883142
0.167795
0.10196
0.162983
0.115799
0.158433
0.153751
0.13003
0.00711178
0.0712161
0.0201934
0.148029
0.0344899
0.168195
0.0487333
0.168586
0.0627448
0.164204
0.076569
0.159087
0.0902712
0.154093
0.103906
0.149349
0.117502
0.144836
0.140035
0.131217
0.00670691
0.0645092
0.0196739
0.135062
0.0340972
0.153772
0.0485071
0.154176
0.062615
0.150096
0.076415
0.145287
0.0899468
0.140561
0.103248
0.136047
0.116357
0.131728
0.127084
0.129309
0.00637036
0.0581388
0.019104
0.122328
0.0334217
0.139454
0.047744
0.139854
0.0617141
0.136126
0.0752922
0.131709
0.0885026
0.12735
0.101382
0.123168
0.113958
0.119151
0.114451
0.126591
0.00612202
0.0520168
0.0186058
0.109845
0.0327204
0.125339
0.0468366
0.125738
0.0605541
0.122409
0.0737971
0.118466
0.0865464
0.114601
0.0987712
0.110943
0.110365
0.107558
0.103729
0.121087
0.00596365
0.0460532
0.0182522
0.0975562
0.0321896
0.111402
0.0461436
0.111784
0.0597129
0.108839
0.0728343
0.105345
0.0855248
0.101911
0.0978262
0.0986418
0.109808
0.0955761
0.0930334
0.120503
0.00585966
0.0401935
0.0180043
0.0854115
0.031799
0.0976073
0.0456152
0.0979678
0.0590501
0.0954044
0.072035
0.0923597
0.0845744
0.0893712
0.0966828
0.0865333
0.10839
0.0838687
0.0820195
0.119404
0.00578514
0.0344084
0.0178306
0.0733661
0.0315256
0.0839123
0.0452453
0.084248
0.0585877
0.082062
0.0714831
0.0794642
0.0839349
0.0769195
0.0959578
0.0745104
0.107577
0.0722491
0.0708008
0.118796
0.0057271
0.0286813
0.0177089
0.0613843
0.0313475
0.0702736
0.045018
0.0705776
0.0583201
0.0687599
0.0711871
0.0665973
0.083625
0.0644816
0.0956531
0.0624823
0.1073
0.0606025
0.0594441
0.118657
0.00567946
0.0230018
0.0176197
0.0494441
0.0312293
0.056664
0.0448796
0.0569273
0.0581709
0.0554686
0.0710384
0.0537297
0.0834911
0.0520289
0.0955512
0.0504222
0.107248
0.0489062
0.0479951
0.118697
0.00564086
0.017361
0.0175509
0.037534
0.0311436
0.0430713
0.0447852
0.0432857
0.0580751
0.0421786
0.0709494
0.0408554
0.0834182
0.0395602
0.0955044
0.0383359
0.107234
0.0371764
0.036498
0.118731
0.00561089
0.0117501
0.017495
0.0256499
0.0310721
0.0294943
0.0447046
0.0296532
0.0579907
0.0288925
0.0708668
0.0279794
0.083343
0.0270839
0.0954425
0.0262364
0.107188
0.0254306
0.0249801
0.118706
0.00558843
0.00616164
0.017446
0.0137923
0.0310016
0.0159387
0.0446173
0.0160375
0.0578909
0.0156189
0.0707588
0.0151114
0.0832317
0.0146111
0.0953325
0.0141357
0.107082
0.0136808
0.0134551
0.118607
0.00557155
0.000590091
0.0173979
0.00196594
0.0309211
0.00241544
0.0445069
0.00245177
0.0577545
0.00237131
0.070601
0.00226488
0.0830571
0.00215492
0.095146
0.00204681
0.106888
0.00193915
0.0019372
0.118406
0.00555822
0.0173451
0.0308201
0.044358
0.0575616
0.0703695
0.082793
0.0948553
0.106576
0.118084
0.136077
0.242985
-0.258559
0.149505
0.109244
-0.122672
0.159168
0.0374502
-0.047113
0.166383
0.00562475
-0.01284
0.172295
-0.00703623
0.00112423
0.177515
-0.0109015
0.00568163
0.182284
-0.0109699
0.00620097
0.186714
-0.00948443
0.00505431
0.19084
-0.00745246
0.00332597
-0.00500251
0.00121139
0.141559
0.22083
0.156365
0.0944388
0.166027
0.0277878
0.172712
-0.00105976
0.177793
-0.0121171
0.182033
-0.0151418
0.185746
-0.014683
0.189078
-0.0128166
0.192093
-0.0104674
-0.00768713
0.145467
0.194159
0.162275
0.0776314
0.172098
0.0179644
0.178365
-0.00732631
0.182765
-0.0165176
0.186146
-0.0185221
0.188911
-0.0174488
0.191254
-0.015159
0.193265
-0.0124785
-0.0093702
0.149297
0.163518
0.167626
0.0593024
0.177571
0.00801883
0.183456
-0.0132107
0.187226
-0.020288
0.189841
-0.0211369
0.191766
-0.0193737
0.19323
-0.0166234
0.19435
-0.0135982
-0.0101623
0.153497
0.128718
0.17232
0.0404794
0.182357
-0.00201854
0.187921
-0.0187738
0.19115
-0.0235173
0.193102
-0.0230888
0.194297
-0.0205694
0.194999
-0.0173255
0.195344
-0.0139431
-0.0101791
0.15654
0.0909093
0.176252
0.0207669
0.186424
-0.0121905
0.191732
-0.0240816
0.194512
-0.0262973
0.195909
-0.0244857
0.196492
-0.0211523
0.196552
-0.0173856
0.196243
-0.0136342
-0.00954047
0.158785
0.050831
0.179422
0.00012967
0.189743
-0.0225114
0.194863
-0.0292021
0.197292
-0.0287265
0.198247
-0.0254409
0.198338
-0.021243
0.19788
-0.0169275
0.197042
-0.0127961
-0.00837067
0.160404
0.00903464
0.181802
-0.0212689
0.192283
-0.0329923
0.197291
-0.0342103
0.199473
-0.0309087
0.200104
-0.0260713
0.199826
-0.0209653
0.198977
-0.0160782
0.197737
-0.0115567
-0.00679714
0.161396
-0.033956
0.183368
-0.0432404
0.19402
-0.0436446
0.198998
-0.0391883
0.201041
-0.0329521
0.201467
-0.0264974
0.200948
-0.0204456
0.199836
-0.0149668
0.198326
-0.0100462
-0.00495011
0.161727
0.184089
0.194933
0.199969
0.201985
0.20233
0.201696
0.200454
0.198804
0.199523
0.0376587
-0.237181
0.178071
0.0214514
0.168786
0.00928558
0.165825
0.00296038
0.16565
0.000174969
0.166473
-0.000822544
0.167482
-0.0010091
0.168334
-0.000851927
0.168899
-0.000565
-0.000204488
0.237301
0.0984568
-0.298099
0.209596
0.0491564
0.198405
0.0204762
0.194929
0.00643595
0.194741
0.000363314
0.195716
-0.00179788
0.196907
-0.00219973
0.197911
-0.00185635
0.198583
-0.00123614
-0.000450885
0.23619
0.156573
-0.294306
0.209345
0.0760018
0.19888
0.030941
0.195857
0.00945855
0.195909
0.000311196
0.197003
-0.00289153
0.198251
-0.00344789
0.199283
-0.00288869
0.199968
-0.00192111
-0.000701886
0.230846
0.210695
-0.284967
0.206405
0.100443
0.197463
0.0398827
0.195265
0.0116571
0.195713
-0.000136628
0.196993
-0.00417186
0.19832
-0.0047751
0.199384
-0.0039523
0.20008
-0.00261691
-0.000955274
0.225084
-0.272948
0.202854
0.195624
0.194441
0.195428
0.196938
0.198364
0.199466
0.200175
0.0232994
-0.00110375
-0.0221956
0.0281408
-0.00484145
0.0375954
-0.00945455
0.0529151
-0.0153197
0.0749236
-0.0220085
0.103071
-0.0281472
0.135728
-0.0326568
0.170115
-0.0343869
0.206117
-0.036003
-0.0310638
0.0620132
-0.00417461
-0.0589423
0.0732628
-0.0160911
0.092849
-0.0290407
0.119909
-0.0423796
0.151809
-0.0539085
0.184989
-0.0613272
0.216733
-0.0644007
0.245574
-0.0632285
0.273143
-0.0635711
-0.05602
0.0872993
-0.00840356
-0.0830704
0.100536
-0.0293275
0.121362
-0.0498666
0.146829
-0.0678467
0.173484
-0.0805638
0.199185
-0.0870286
0.223547
-0.088762
0.24712
-0.0868023
0.271332
-0.0877826
-0.0789945
0.100553
-0.012896
-0.0960604
0.113077
-0.0418513
0.131509
-0.0682993
0.152952
-0.0892893
0.175186
-0.102798
0.197376
-0.109219
0.219341
-0.110727
0.241676
-0.109137
0.263924
-0.110031
-0.100038
0.10637
-0.10205
0.117724
0.134134
0.153378
0.173865
0.194677
0.215167
0.235339
0.251899
0.102622
-0.0904206
0.0991887
-0.111391
0.0930172
-0.0931878
0.102793
0.0827079
-0.0962283
0.106538
0.0716272
-0.0993538
0.110434
0.0598113
-0.102649
0.114465
0.0473227
-0.106163
0.118651
0.0342239
-0.109821
0.12292
0.0206861
-0.11253
0.126068
0.00776808
-0.106664
0.119582
-0.0634137
0.0711818
0.106221
-0.0799478
-0.116694
0.0954927
-0.0824595
0.0842302
-0.0849657
0.0724676
-0.0875912
0.0602207
-0.0904025
0.0474834
-0.0934255
0.0342537
-0.0965913
0.0206597
-0.0989365
0.00774091
-0.0937455
-0.0556728
0.107412
-0.0689633
-0.118397
0.0962056
-0.0712528
0.0846521
-0.0734123
0.0727136
-0.0756526
0.060357
-0.0780459
0.0475512
-0.0806197
0.0342782
-0.0833183
0.020657
-0.0853152
0.00772708
-0.0808156
-0.0479457
0.10865
-0.0578211
-0.119792
0.0972215
-0.0598247
0.0854557
-0.0616465
0.0733285
-0.0635254
0.0608099
-0.0655274
0.0478685
-0.0676783
0.0344837
-0.0699335
0.0207701
-0.0716016
0.00776709
-0.0678126
-0.0401786
0.10952
-0.0466063
-0.120735
0.0979684
-0.0482729
0.0860748
-0.0497529
0.073826
-0.0512766
0.0611964
-0.0528978
0.0481553
-0.0546371
0.034681
-0.0564593
0.0208858
-0.0578064
0.00780982
-0.0547366
-0.0323688
0.110116
-0.0353372
-0.121385
0.0984901
-0.0366468
0.0865212
-0.0377839
0.0741973
-0.0389528
0.0614943
-0.0401947
0.0483825
-0.0415254
0.0348405
-0.0429173
0.0209785
-0.0439444
0.00783717
-0.0415953
-0.0245316
0.110452
-0.0240435
-0.121746
0.0987857
-0.0249807
0.0867768
-0.025775
0.0744126
-0.0265886
0.0616693
-0.0274514
0.0485177
-0.0283737
0.0349364
-0.0293359
0.0210342
-0.0300422
0.00785133
-0.0284124
-0.0166803
0.110549
-0.0127455
-0.121847
0.0988693
-0.0133006
0.0868473
-0.013753
0.0744708
-0.0142121
0.0617157
-0.0146963
0.0485532
-0.0152112
0.0349621
-0.0157449
0.0210513
-0.0161314
0.00786109
-0.0152222
-0.00881919
0.110416
-0.00146831
-0.121693
0.0987441
-0.0016289
0.0867324
-0.00174129
0.074368
-0.00184762
0.0616269
-0.00195522
0.0484805
-0.00206489
0.034908
-0.00217239
0.0210183
-0.0022417
0.00784999
-0.00205387
-0.000969202
0.110058
-0.121338
0.0984113
0.0864289
0.0740982
0.0613953
0.0482915
0.0347661
0.0209279
0.00781298
0.0170316
-0.208033
-0.0201643
0.0139986
-0.21113
0.0110982
-0.213796
0.008273
-0.216905
0.00547172
-0.220665
0.00265006
-0.225147
-0.00021235
-0.230009
-0.0020038
-0.232717
-0.00244577
-0.215482
-0.12178
0.0488537
-0.20072
-0.0561663
0.04158
-0.203856
0.0346563
-0.206872
0.0280336
-0.210283
0.0216242
-0.214256
0.0153692
-0.218892
0.00939044
-0.22403
0.00366916
-0.226996
-0.000249912
-0.211563
-0.12203
0.0758997
-0.189617
-0.0870025
0.0651159
-0.193072
0.0548907
-0.196647
0.0451389
-0.200531
0.0357435
-0.20486
0.0266054
-0.209754