# Forces      
# CofR        : (0.000000e+00 0.000000e+00 0.000000e+00)
# Time        forces(pressure viscous)	moments(pressure viscous)
9.515         	((6.754335e-01 1.107045e-01 2.079460e-18) (1.189039e+00 2.234448e-01 -2.223502e-16)) ((9.618832e-19 -1.645925e-18 1.031230e-07) (-1.648809e-16 1.450755e-16 -2.055298e-02))
9.52          	((6.684157e+00 4.801189e+00 -3.008596e-19) (1.187164e+00 2.272933e-01 6.837921e-19)) ((-7.263290e-20 4.338994e-19 1.618452e-06) (4.173678e-18 6.180370e-19 -2.045898e-02))
