/*--------------------------------*- C++ -*----------------------------------*\
  =========                 |
  \\      /  F ield         | OpenFOAM: The Open Source CFD Toolbox
   \\    /   O peration     | Website:  https://openfoam.org
    \\  /    A nd           | Version:  13
     \\/     M anipulation  |
\*---------------------------------------------------------------------------*/
FoamFile
{
    format      ascii;
    class       volScalarField;
    location    "0.54";
    object      strainRateViscosityModel:nu;
}
// * * * * * * * * * * * * * * * * * * * * * * * * * * * * * * * * * * * * * //

dimensions      [0 2 -1 0 0 0 0];

internalField   nonuniform List<scalar> 
1800
(
9.40488
9.19759
9.01005
8.80092
8.5761
8.34409
8.11543
7.89817
7.62429
7.37941
9.58523
9.41878
9.26689
9.09731
8.91114
8.71139
8.50353
8.28865
8.02733
7.70217
9.70219
9.56269
9.42803
9.27095
9.08866
8.87896
8.64089
8.36901
8.03059
7.61066
9.77539
9.65614
9.53324
9.38287
9.20048
8.9817
8.72279
8.41595
8.02878
7.5546
9.82168
9.7183
9.60558
9.46166
9.2807
9.05695
8.78548
8.45888
8.04776
7.55617
9.85185
9.76081
9.6573
9.52059
9.34355
9.11896
8.84034
8.50016
8.07152
7.57022
9.87179
9.78991
9.69399
9.56396
9.39147
9.16769
8.8842
8.53252
8.08736
7.57568
9.88475
9.80925
9.71888
9.59395
9.42495
9.20146
8.91309
8.55005
8.08853
7.56356
9.8926
9.82107
9.73416
9.6122
9.44467
9.21963
8.92484
8.54923
8.07121
7.52871
9.89646
9.82686
9.74153
9.6207
9.4531
9.22573
8.92513
8.53953
8.05038
7.49285
1.77763
1.40527
1.21462
1.32418
1.72986
2.24709
2.4933
2.44916
2.3607
2.33691
3.70444
1.7854
1.49706
1.98151
2.69022
2.96962
2.82018
2.67652
2.69151
2.74386
4.68649
2.57437
2.43942
3.17352
3.5922
3.34865
3.08773
3.12328
3.26139
3.34134
5.26102
3.8847
3.81682
4.21115
4.17959
3.83285
3.72562
3.85791
3.95973
4.00884
6.05272
5.27641
5.11832
5.12031
4.91493
4.65511
4.58013
4.61403
4.61465
4.65465
6.95883
6.46023
6.22689
6.03783
5.78815
5.54588
5.39004
5.29459
5.22395
5.2767
7.77144
7.37777
7.11673
6.86004
6.58718
6.32052
6.08751
5.90162
5.77133
5.82505
8.40006
8.05529
7.79193
7.51559
7.22627
6.93104
6.64218
6.38658
6.19287
6.23005
8.84933
8.54535
8.29093
8.01018
7.70553
7.37931
7.03553
6.7012
6.41607
6.42226
9.16164
8.90152
8.66628
8.39659
8.0956
7.76565
7.40637
7.03568
6.70876
6.75278
2.19419
1.72997
1.33217
0.934909
0.614187
0.336394
0.157913
0.0992723
0.108536
0.160484
2.52983
1.85078
1.40944
0.933173
0.590741
0.320484
0.141762
0.0609025
0.0449719
0.0798167
2.95105
1.98089
1.4834
0.933336
0.558919
0.296365
0.126087
0.0405446
0.0219765
0.0179229
3.44362
2.15103
1.55539
0.938116
0.523359
0.267272
0.109065
0.0307669
0.0185314
0.0111605
3.98562
2.3888
1.6328
0.947904
0.487195
0.234781
0.0920267
0.026361
0.0179096
0.0110451
4.53069
2.69958
1.72874
0.964295
0.45331
0.199709
0.0753986
0.0241721
0.0178625
0.0110029
4.99876
3.05906
1.8503
0.986784
0.422391
0.162828
0.0589624
0.022739
0.0177125
0.0112169
5.31434
3.44191
2.01721
1.02936
0.401626
0.127637
0.0426415
0.0208278
0.0153248
0.0248613
5.34473
3.72517
2.1666
1.06122
0.37917
0.0941836
0.0286018
0.0172697
0.0207746
0.10799
5.20337
3.99142
2.40232
1.16503
0.39668
0.0779712
0.0165683
0.0136278
0.0922342
0.187827
4.94587
3.94477
2.45909
1.17865
0.370631
0.051252
0.0124024
0.0827826
0.178075
0.273342
5.33209
3.35008
2.14094
0.996324
0.351391
0.116509
0.100221
0.182841
0.271728
0.375958
4.90551
3.04398
2.24292
1.19537
0.579102
0.275224
0.190826
0.253499
0.352787
0.456525
4.54536
3.62827
2.67609
1.63265
0.88413
0.47836
0.321531
0.34725
0.431061
0.527675
5.11293
4.74602
3.34041
2.16052
1.23396
0.718065
0.48238
0.450318
0.50813
0.586315
6.2542
5.6692
4.05698
2.67315
1.59757
0.974755
0.663671
0.568566
0.586896
0.635966
7.26273
6.37383
4.71425
3.15522
1.95791
1.23775
0.854927
0.695322
0.666867
0.677763
8.00016
6.91219
5.26043
3.58992
2.30124
1.50079
1.05098
0.828422
0.748991
0.714646
8.51879
7.33084
5.6978
3.97086
2.62159
1.75566
1.24148
0.957173
0.826018
0.744772
8.93102
7.69126
6.05008
4.2836
2.9263
2.028
1.4565
1.10732
0.919886
0.781034
6.51283
6.43966
6.43045
6.44879
6.48744
6.53008
6.58219
6.7108
6.89555
6.8267
0.260737
1.05728
2.00795
2.92311
3.70415
4.3169
4.73377
4.98345
5.2227
5.72893
3.85067
3.54371
3.28439
3.11106
3.10612
3.24982
3.47219
3.71354
4.16528
4.84552
6.64425
6.62729
6.53716
6.34466
6.04312
5.65751
5.24902
4.89526
4.73851
4.54845
7.69188
7.67657
7.63216
7.54132
7.39616
7.18986
6.92702
6.61934
6.28566
5.65579
8.44953
8.43314
8.39437
8.32774
8.2296
8.09674
7.92839
7.71685
7.42792
6.90776
8.93969
8.92395
8.8903
8.8368
8.76168
8.66292
8.53818
8.37895
8.1547
7.80865
9.27299
9.25981
9.23246
9.18986
9.13052
9.05245
8.9527
8.82482
8.65283
8.43093
9.50446
9.49417
9.47308
9.44024
9.39426
9.33319
9.25424
9.15287
9.02289
8.87535
9.6899
9.68285
9.66852
9.64604
9.61405
9.5707
9.51361
9.43975
9.34638
9.2441
7.24848
7.52644
7.837
8.08763
8.34473
8.59954
8.84132
9.06154
9.25458
9.46027
7.58333
7.94815
8.24096
8.48107
8.70929
8.92476
9.12227
9.29899
9.45391
9.61807
7.49864
7.95742
8.32593
8.62045
8.8757
9.0977
9.28803
9.44951
9.58536
9.72226
7.44698
7.95763
8.37374
8.70196
8.97655
9.20594
9.3947
9.54806
9.67131
9.78824
7.45639
7.98067
8.41859
8.76487
9.05052
9.28355
9.46977
9.61591
9.72868
9.83023
7.48244
8.01168
8.464
8.82145
9.11233
9.34474
9.52606
9.66447
9.76796
9.85764
7.50365
8.03786
8.50277
8.86862
9.16197
9.39189
9.56764
9.6989
9.79479
9.8757
7.51115
8.05246
8.52871
8.90209
9.19746
9.42521
9.5964
9.72213
9.81243
9.88729
7.49836
8.05045
8.53742
8.91898
9.21768
9.44503
9.61372
9.73606
9.8229
9.89404
7.48288
8.04359
8.53593
8.92344
9.22526
9.4533
9.62123
9.74217
9.82746
9.89694
2.55187
2.50926
2.5284
2.73902
2.91919
2.54289
1.69161
1.17953
1.52041
4.17881
2.96117
2.87294
2.71447
2.71413
3.10291
3.42532
2.81389
1.90128
2.11976
5.12748
3.45274
3.40864
3.25054
3.06519
3.26621
3.82366
3.80024
3.15558
3.28195
5.45087
3.94719
3.93599
3.90879
3.7991
3.89179
4.31876
4.58854
4.46443
4.65558
5.909
4.5009
4.47335
4.5481
4.61878
4.78174
5.11457
5.438
5.61726
5.89373
6.62863
5.1039
5.06133
5.20039
5.39794
5.65795
5.98075
6.30841
6.59456
6.89955
7.40527
5.65557
5.6192
5.81951
6.09143
6.40812
6.74088
7.0683
7.37769
7.67818
8.08606
6.06802
6.05326
6.31584
6.64265
6.99501
7.33965
7.66705
7.97394
8.25873
8.61093
6.26127
6.27996
6.63134
7.02597
7.42001
7.78423
8.11654
8.41654
8.68273
8.98795
6.60079
6.57043
6.95621
7.37948
7.78123
8.14298
8.46641
8.75036
8.99297
9.25188
0.107327
0.154303
0.111655
0.0535992
0.0132555
0.373527
0.912679
1.47088
1.94179
2.42592
0.0734759
0.139265
0.107526
0.0535462
0.0139465
0.363483
0.919415
1.53744
2.02476
2.69575
0.0517327
0.131465
0.10645
0.0571759
0.0227864
0.365643
0.931217
1.59234
2.09989
3.01008
0.0389694
0.130651
0.109425
0.0658158
0.0409027
0.377803
0.944088
1.63434
2.20699
3.3992
0.0328466
0.135364
0.114908
0.0768777
0.0645562
0.393101
0.954069
1.67373
2.38668
3.87006
0.0320609
0.143869
0.121144
0.0875942
0.089519
0.407251
0.964157
1.73324
2.65342
4.36693
0.0366847
0.155643
0.126683
0.0958652
0.110941
0.416892
0.97882
1.82943
2.9848
4.79716
0.0477882
0.171522
0.131158
0.10168
0.128129
0.430026
1.02187
1.9881
3.35099
5.0814
0.0678193
0.192002
0.134676
0.101513
0.132636
0.432253
1.05927
2.13863
3.62893
5.0843
0.0995061
0.214312
0.138931
0.104865
0.149268
0.479733
1.19542
2.39645
3.8788
4.89276
0.157507
0.242131
0.14663
0.102673
0.138313
0.477935
1.25711
2.50875
3.88783
4.67517
0.261528
0.27235
0.136374
0.0798123
0.0750089
0.37509
1.12243
2.30528
3.43305
5.19457
0.426488
0.270004
0.10746
0.017399
0.0146333
0.320966
1.13706
2.34452
3.25432
4.93908
0.679362
0.257372
0.0230402
0.0813575
0.110937
0.521852
1.41997
2.6147
3.70939
4.69618
1.06294
0.0492267
0.254419
0.249324
0.326751
0.882539
1.92785
3.20049
4.70354
5.17512
1.51476
0.116369
0.534004
0.429875
0.609823
1.30453
2.47192
3.91477
5.59757
6.22268
2.1941
0.685759
0.851118
0.703292
0.955818
1.73853
2.99223
4.59286
6.30234
7.21638
3.79183
1.70486
1.27243
1.04936
1.33133
2.15341
3.46272
5.16529
6.85427
7.96887
6.86003
3.5761
1.96245
1.43235
1.69173
2.52917
3.87597
5.63172
7.29532
8.50727
9.04904
6.38394
2.84424
2.01083
2.12688
2.90386
4.22773
6.01992
7.68659
8.93806
6.62544
6.6883
6.51142
6.38952
6.34902
6.32273
6.30566
6.31738
6.36197
6.47627
5.53029
5.01135
4.76729
4.52595
4.12756
3.54138
2.79925
1.93254
1.04494
0.284322
4.85087
4.2372
3.82732
3.61643
3.42938
3.30978
3.31469
3.45712
3.65505
3.87416
4.71079
4.88418
5.02691
5.33681
5.70144
6.05207
6.33386
6.52146
6.61663
6.64168
5.68662
6.28517
6.61195
6.91121
7.17237
7.38152
7.53187
7.62821
7.67676
7.69244
6.86568
7.38857
7.68447
7.90238
8.07666
8.2149
8.31785
8.3886
8.43058
8.44891
7.76518
8.12056
8.35202
8.51795
8.648
8.75102
8.82958
8.88584
8.92165
8.939
8.40459
8.63271
8.80889
8.94094
9.04402
9.12466
9.18596
9.23007
9.25855
9.2726
8.86615
9.01619
9.14761
9.25059
9.33082
9.39282
9.43944
9.47267
9.494
9.50442
9.24866
9.35043
9.443
9.51629
9.57293
9.61587
9.64747
9.66956
9.68348
9.69011
9.50943
8.98527
8.2358
6.92817
5.59792
0.131167
3.36079
5.96032
7.21399
8.15178
9.46537
8.92149
8.16804
6.89049
5.54934
0.563761
2.62218
5.70595
6.91633
7.91386
9.36563
8.78274
8.02018
6.80951
5.3663
1.60347
1.41353
5.20657
6.30925
7.4032
9.18249
8.54504
7.77438
6.655
5.18637
2.74001
0.723069
4.23833
5.42148
6.57136
8.86804
8.17348
7.40388
6.37681
5.02643
3.36799
0.970934
2.63158
4.31688
5.39368
8.35042
7.62959
6.87326
5.91713
4.765
3.43999
1.71921
1.30188
3.04926
3.98806
7.53592
6.89644
6.15537
5.22741
4.29956
3.2695
2.14304
1.17238
1.65626
2.55746
6.32525
6.03738
5.28114
4.23178
3.53345
2.91264
2.11836
1.43497
1.0684
1.23552
4.63158
5.23202
4.47413
2.99955
2.43721
2.27461
1.85595
1.38452
1.12234
0.659025
2.67266
4.5392
4.0214
1.96686
1.39695
1.48846
1.4098
1.2113
1.06359
0.844758
1.27662
3.78822
3.66628
1.33768
0.816384
0.897544
0.970671
0.955683
0.97115
1.01932
0.613397
2.96833
3.08141
0.957162
0.575383
0.639417
0.758498
0.819036
0.843115
0.876208
0.355317
2.18763
2.28413
0.688454
0.49204
0.594026
0.72487
0.809288
0.847221
0.872133
0.26531
1.54902
1.48784
0.520671
0.532742
0.67206
0.785519
0.856617
0.880174
0.890588
0.239723
1.01877
0.844379
0.511609
0.666757
0.80042
0.901643
0.965194
0.981038
0.978102
0.243031
0.494733
0.498068
0.633162
0.814045
0.951478
1.0493
1.10715
1.11786
1.1098
0.178791
0.20379
0.505543
0.75303
0.971036
1.11686
1.20692
1.25425
1.271
1.27149
0.0457891
0.24977
0.6472
0.919515
1.13316
1.25123
1.32759
1.39692
1.45281
1.47432
0.0590388
0.490899
0.820226
1.09475
1.22972
1.33834
1.48725
1.64432
1.73119
1.74697
0.686432
0.861395
1.04055
1.1863
1.3252
1.59588
1.906
2.07574
2.07907
2.04686
0.362886
0.0801315
0.222479
0.547782
0.790411
0.886247
0.877499
0.824677
0.779871
0.769094
0.461653
0.201146
0.317255
0.518487
0.720036
0.805846
0.798384
0.75119
0.713224
0.715182
0.524853
0.370127
0.437511
0.510572
0.649899
0.726132
0.720892
0.67827
0.646312
0.659665
0.637243
0.584941
0.592257
0.552062
0.584038
0.639257
0.638214
0.602878
0.578459
0.60262
0.803498
0.799888
0.738096
0.634095
0.53884
0.552146
0.553513
0.526632
0.510177
0.544021
1.00636
0.995396
0.870871
0.732892
0.527432
0.470325
0.467272
0.449628
0.441616
0.483808
1.22406
1.16688
0.985536
0.820377
0.54869
0.403721
0.382241
0.37274
0.373115
0.422061
1.44887
1.32145
1.08456
0.882582
0.584475
0.36183
0.302552
0.297041
0.304965
0.358352
1.68217
1.46597
1.17192
0.918024
0.613311
0.34551
0.234533
0.224126
0.237663
0.293742
1.92516
1.60258
1.25314
0.932633
0.62341
0.342382
0.185495
0.156873
0.171307
0.225174
2.00891
0.746938
0.71566
0.961378
1.19136
1.27668
1.25088
1.17847
1.11233
1.03705
1.39435
0.482644
0.577308
0.870903
1.10371
1.19093
1.16931
1.10168
1.03952
0.977992
0.751687
0.287815
0.479606
0.794169
1.02986
1.11933
1.1013
1.03737
0.979149
0.929312
0.253596
0.170116
0.404044
0.72262
0.95522
1.04352
1.02746
0.967005
0.913105
0.876257
0.435948
0.0327824
0.266175
0.610168
0.859817
0.959862
0.951509
0.896039
0.846628
0.82277
9.3546
9.29
9.14094
8.87303
8.43746
7.77878
6.87122
5.75917
4.58183
3.53691
9.19242
9.09559
8.88104
8.51157
7.9414
7.13633
6.1095
4.95495
3.84463
2.78669
9.02382
8.9002
8.62654
8.16094
7.46163
6.516
5.37127
4.1685
3.08117
1.94233
8.81625
8.66213
8.32141
7.74781
6.90603
5.81409
4.55484
3.29473
2.22586
1.09017
8.58742
8.3793
7.92574
7.17733
6.11238
4.79197
3.35059
2.08519
0.99413
0.302039
1.06084
1.02511
1.01713
1.02071
0.915915
0.800176
1.29382
3.6822
3.8587
1.32353
0.949919
0.934566
0.927143
0.871737
0.719764
0.589388
0.911738
3.14017
3.10792
0.647809
0.986613
0.983097
0.966298
0.893524
0.748258
0.585632
0.699639
2.36985
2.34321
0.377685
1.05356
1.06536
1.06116
1.00139
0.890284
0.741638
0.656942
1.55379
1.62969
0.277431
1.18516
1.20913
1.21469
1.16699
1.07617
0.951459
0.788903
0.906554
0.914994
0.246334
1.34875
1.36859
1.37676
1.35134
1.28115
1.1479
0.926906
0.667172
0.356568
0.216471
1.55096
1.54692
1.51482
1.47247
1.42089
1.31343
1.07356
0.75003
0.271628
0.0662703
1.8164
1.80966
1.72727
1.57557
1.43679
1.33974
1.20323
0.895299
0.491311
0.0466907
2.09544
2.14198
2.13898
1.94511
1.60445
1.31847
1.18332
1.0509
0.849565
0.67196
2.30436
2.35141
2.47488
2.52368
2.21989
1.6228
1.17852
1.06447
1.29873
2.02337
8.15158
7.21363
5.95995
3.36028
0.131424
5.59645
6.92768
8.23561
8.98529
9.50952
7.91318
6.91523
5.70494
2.62157
0.563632
5.54549
6.88904
8.16745
8.92154
9.46568
7.40174
6.30736
5.20478
1.41542
1.59975
5.3618
6.80725
8.0193
8.78287
9.36622
6.56872
5.41859
4.23615
0.726231
2.73173
5.18164
6.65216
7.77341
8.54537
9.18352
5.3893
4.31237
2.63251
0.971048
3.35668
5.02047
6.37336
7.40295
8.17422
8.86979
3.97964
3.04127
1.31004
1.71337
3.42674
4.75611
5.91232
6.87237
7.63106
8.3534
2.54075
1.65312
1.18732
2.13307
3.25083
4.28284
5.21865
6.15443
6.8993
7.54126
1.21703
1.08764
1.45211
2.10746
2.88037
3.5029
4.21732
5.28177
6.04325
6.33601
0.671538
1.15328
1.40753
1.8426
2.23203
2.40027
2.98379
4.47891
5.24309
4.65576
0.885372
1.10288
1.24772
1.41321
1.46416
1.36928
1.9434
4.02571
4.56445
2.71714
2.08933
0.543242
1.05945
0.633654
0.667852
0.760089
0.632418
0.299785
0.062822
0.356751
1.62932
0.237258
0.867546
0.483736
0.573981
0.682333
0.592589
0.356373
0.266613
0.488922
1.3333
0.057923
0.639289
0.345875
0.48517
0.602271
0.560593
0.459377
0.473537
0.591533
1.09667
0.0149276
0.390777
0.238031
0.399934
0.517909
0.560442
0.625728
0.731747
0.758353
0.845986
0.0906316
0.188183
0.163599
0.321127
0.440604
0.606768
0.803574
0.972195
0.976374
0.633589
0.155323
0.0513435
0.107133
0.247864
0.384352
0.691716
0.971207
1.18928
1.22183
0.461097
0.209888
0.0509143
0.0505628
0.182793
0.362444
0.783281
1.11188
1.37892
1.47562
0.328299
0.211428
0.104683
0.010429
0.121841
0.369471
0.853279
1.22529
1.54813
1.7281
0.229092
0.197187
0.114461
0.0375812
0.0607429
0.382812
0.892244
1.31758
1.7002
1.96759
0.157466
0.174737
0.117315
0.0507005
0.024071
0.385452
0.907608
1.39755
1.83324
2.19107
9.33656
6.77029
2.66576
1.70225
1.20646
1.12487
0.969398
0.784463
0.797704
2.03339
8.2109
4.63637
2.21543
1.42052
1.07457
1.03969
0.894984
0.653385
0.529049
1.3987
6.12007
3.06388
1.78543
1.21348
0.97018
0.974932
0.835172
0.563076
0.329698
0.740938
4.13292
1.87579
1.497
1.00723
0.864646
0.907229
0.777898
0.488947
0.22943
0.224503
2.83508
1.06132
1.24532
0.807083
0.761792
0.828798
0.686933
0.356646
0.044434
0.397825
3.54772
4.58905
5.76308
6.87337
7.78031
8.43859
8.8738
9.14142
9.29027
9.35469
2.78085
3.84092
4.95219
6.10771
7.13572
7.94141
8.51178
8.88126
9.09576
9.19248
1.92831
3.07177
4.16202
5.36652
6.51346
7.46049
8.16052
8.62645
8.90022
9.02384
1.05499
2.20274
3.28138
4.54659
5.8099
6.90382
7.74669
8.32094
8.66198
8.81622
0.300292
0.962043
2.06357
3.33725
4.78499
6.1088
7.17535
7.92479
8.37893
8.58733
)
;

boundaryField
{
    left
    {
        type            calculated;
        value           nonuniform List<scalar> 
35
(
0.29942
0.570337
0.990193
1.62668
2.52411
3.69503
5.06582
6.47612
8.15853
9.4418
0.205536
0.125946
0.0754052
0.0463498
0.0320339
0.0275579
0.0321048
0.0501566
0.089981
0.159105
4.93338
4.06135
3.23425
2.5124
1.91651
1.42608
1.02891
0.721369
0.491052
0.323427
9.61572
8.97909
7.9221
6.84787
5.85947
)
;
    }
    right
    {
        type            calculated;
        value           nonuniform List<scalar> 
35
(
1.03667
0.978064
0.930019
0.87809
0.82603
0.774007
0.721756
0.66769
0.611881
0.554278
0.494732
0.433197
0.36909
0.303344
0.23275
0.165378
0.0807535
0.0170178
0.0107195
0.0106798
0.0106279
0.0109405
0.0270332
0.120847
0.208281
0.297948
0.401754
0.482437
0.551795
0.606961
0.651753
0.688089
0.719965
0.746476
0.779183
)
;
    }
    down
    {
        type            calculated;
        value           nonuniform List<scalar> 
40
(
9.4543
7.26628
2.89663
1.79124
1.24691
1.15334
0.995164
0.826121
0.89876
2.26057
3.83287
4.88234
6.03379
7.09271
7.94448
8.55492
8.95439
9.19919
9.33559
9.39483
9.39473
9.33531
9.19867
8.95353
8.55359
7.94255
7.08981
6.02861
4.87302
3.81869
2.23201
0.847017
0.759496
0.993234
1.22291
1.30611
1.27782
1.20318
1.13558
1.05591
)
;
    }
    up
    {
        type            calculated;
        value           nonuniform List<scalar> 
40
(
9.03411
7.80888
6.16791
4.39525
3.03427
2.123
1.52943
1.15573
0.949176
0.792698
9.72927
9.72305
9.71045
9.69064
9.66234
9.62377
9.57263
9.50586
9.42075
9.32814
9.33503
9.42653
9.51038
9.57622
9.62664
9.6646
9.69238
9.71168
9.72379
9.72951
9.27072
7.09643
3.24007
2.1618
2.24573
3.02379
4.35003
6.1495
7.81371
9.04492
)
;
    }
    cylinder
    {
        type            calculated;
        value           nonuniform List<scalar> 
80
(
1.96926
4.53454
5.51583
5.76718
6.30019
7.08905
7.86141
8.4747
8.91245
9.21291
9.44582
9.61872
9.72982
9.7983
9.84096
9.86846
9.8865
9.89817
9.90522
9.90869
9.50042
9.65062
9.74904
9.81047
9.849
9.87389
9.89016
9.90055
9.90657
9.90913
5.30131
6.22498
6.20752
6.31188
6.83173
7.5253
8.17574
8.68589
9.05067
9.30253
0.994836
0.47188
0.264375
0.183334
0.159798
0.165727
0.082941
0.0421389
0.747073
2.40667
9.59442
9.55585
9.4674
9.30181
9.00972
8.51127
7.68617
6.3666
4.38768
2.23952
9.59432
9.55553
9.46679
9.30073
9.00785
8.5081
7.68041
6.35438
4.35806
2.1912
0.952686
0.44217
0.244263
0.170802
0.150303
0.165485
0.1622
0.0846316
0.0433747
0.723938
)
;
    }
    defaultFaces
    {
        type            empty;
    }
}


// ************************************************************************* //
