# Selection   : all
# Cells       : 440
# Volume      : 7.374263e+01
# Time        	min(p)
9.92          	-1.642280e+00
