# Selection   : all
# Cells       : 440
# Volume      : 7.374263e+01
# Time        	max(p)
8.015         	2.326240e+00
8.06          	2.348381e+00
8.11          	2.326476e+00
