/*--------------------------------*- C++ -*----------------------------------*\
  =========                 |
  \\      /  F ield         | OpenFOAM: The Open Source CFD Toolbox
   \\    /   O peration     | Website:  https://openfoam.org
    \\  /    A nd           | Version:  13
     \\/     M anipulation  |
\*---------------------------------------------------------------------------*/
FoamFile
{
    format      ascii;
    class       surfaceScalarField;
    location    "0.995";
    object      phi;
}
// * * * * * * * * * * * * * * * * * * * * * * * * * * * * * * * * * * * * * //

dimensions      [0 3 -1 0 0 0 0];

internalField   nonuniform List<scalar> 
823
(
0.0113783
-0.0505537
0.0391754
0.03876
-0.133435
0.106053
0.0788337
-0.205877
0.165804
0.130172
-0.268871
0.217532
-0.323261
0.259419
0.194014
0.0107034
-0.0612571
0.036144
-0.158875
0.0726492
-0.242382
0.117973
-0.314194
-0.375601
0.170313
0.00837713
-0.0696343
0.0282853
-0.178784
0.0567257
-0.270823
0.0918102
-0.349279
-0.41605
0.132259
0.00529925
-0.0749335
0.0179955
-0.19148
0.0362293
-0.289057
0.0588833
-0.371933
-0.442414
0.0852472
0.00196194
-0.0768955
0.00662993
-0.196148
0.0132895
-0.295716
0.0215216
-0.380165
0.0310616
-0.451954
0.0066103
-0.0107695
0.00415906
0.0221175
-0.0309467
0.0154395
0.0452985
-0.0485523
0.0253713
0.0744283
-0.064001
0.0348712
-0.0770988
0.108066
0.0434609
0.00573676
-0.0165063
0.0214303
-0.0466403
0.0466086
-0.0737307
0.0796215
-0.0970138
-0.116139
0.118662
0.00638788
-0.0228942
0.023636
-0.0638884
0.0511899
-0.101285
0.0878432
-0.133667
-0.160142
0.131847
0.00753527
-0.0304294
0.0270828
-0.0834359
0.0573036
-0.131505
0.0969974
-0.173361
-0.20791
0.144765
0.00874594
0.0313632
0.0656614
0.109833
0.161342
0.322391
-0.958694
0.74437
0.474582
-0.824383
0.672192
0.575463
-0.358551
0.25767
0.619964
-0.0714546
0.026954
0.00165493
-0.00772039
0.330061
-1.17009
0.470714
-0.965036
0.576754
-0.464591
0.644551
-0.139251
-0.024601
0.336224
-1.37447
0.460441
-1.08925
0.562441
-0.566591
0.644988
-0.221798
-0.0697199
0.337207
-1.56691
0.447417
-1.19946
0.540425
-0.6596
0.615468
-0.29684
-0.109133
0.327596
-1.73317
0.42782
-1.29969
0.508724
-0.740504
0.571428
-0.359544
-0.139349
1.19773
-1.59058
-1.34032
1.00764
-1.1096
0.884704
-0.617569
0.823576
-0.298417
-0.115883
1.32964
-1.13313
-1.78709
0.981481
-0.761441
0.772632
-0.40872
0.675524
-0.20131
-0.0807391
1.18935
-0.607674
-1.7148
0.81604
-0.388135
0.6099
-0.202579
0.510289
-0.101699
-0.0424784
0.822341
-0.185288
-1.24473
0.545274
-0.111068
0.396278
-0.0535836
0.321936
-0.0273563
-0.0123086
0.306716
-0.492004
0.195648
0.142064
0.114708
1.56259
0.0462488
-1.57778
1.52169
0.126153
1.46267
0.191282
1.39634
0.236635
0.250038
1.67586
0.0356504
-1.66526
1.69931
0.102694
1.7308
0.159794
1.76527
0.202165
0.228224
1.38797
0.0184771
-1.37079
1.43705
0.053608
1.51387
0.0829775
1.61014
0.105892
0.123567
0.977699
0.00531439
-0.964536
1.01588
0.0154233
1.07582
0.0230448
1.15388
0.0278276
0.0327213
0.392987
-0.387673
0.408411
0.431455
0.459283
0.128769
0.327629
-0.264674
-0.191724
0.0781586
0.273215
-0.222604
0.038525
0.209792
-0.170158
0.0113404
0.136442
-0.109257
0.051952
-0.0406116
0.115953
0.378907
-0.167231
0.0714993
0.317669
0.03562
0.245671
0.0105618
0.1615
0.0625138
0.0888496
0.418274
-0.128217
0.0548116
0.351707
0.0272884
0.273194
0.00806523
0.180723
0.070579
0.0552406
0.443533
-0.0804991
0.0337631
0.373184
0.0166552
0.290302
0.00486436
0.192514
0.0754434
0.0174805
-0.025902
0.0104998
0.00508594
0.00145208
0.0727085
0.0873856
-0.10737
-0.0527239
0.042935
0.0737582
-0.0439847
0.0197598
0.056981
-0.0338058
0.00514514
0.0368387
-0.0222241
0.0133086
-0.00816345
0.0760111
0.125967
-0.114592
0.0437101
0.106059
0.0196359
0.0810553
0.00508766
0.051387
0.0183962
0.0843382
0.168601
-0.126973
0.0490481
0.141349
0.0227119
0.107392
0.00616655
0.0679323
0.0245628
0.0940125
0.214701
-0.140112
0.055742
0.17962
0.0265115
0.136622
0.00742357
0.0870202
0.0319864
0.107383
-0.157356
0.0643984
0.0308622
0.00862518
0.513547
0.177912
-0.295479
0.56432
0.157889
-0.208662
0.498065
0.314163
-0.247908
0.335431
0.802681
-0.640046
1.04198
-0.813922
0.515208
0.0586833
0.563525
0.109573
0.488968
0.38872
0.331628
0.96002
1.25902
0.516109
-0.0614462
0.550514
0.075168
0.468038
0.471196
0.327994
1.10006
1.46004
0.512708
-0.178174
0.527972
0.0599038
0.442123
0.557046
0.323603
1.21858
1.64353
0.499917
-0.282112
0.494324
0.0654965
0.41227
0.6391
0.311781
1.31907
1.79796
0.761543
-0.439634
0.840283
-0.013244
0.955925
0.523458
1.16944
1.10555
1.61981
1.34759
0.70484
-0.540454
0.778142
-0.0865452
0.953436
0.348163
1.29746
0.761531
1.14354
1.77373
0.602268
-0.538702
0.632311
-0.116589
0.803158
0.177317
1.17242
0.392268
0.612046
1.70391
0.448526
-0.383208
0.40505
-0.0731129
0.535813
0.0465537
0.815994
0.112087
0.186909
1.24113
0.220813
0.1477
0.194253
0.30634
0.493249
1.40261
-0.246739
1.46575
-0.230374
1.523
-0.185465
1.56316
-0.120658
-0.0405262
1.75264
-0.225645
1.71972
-0.19746
1.69061
-0.156349
1.67083
-0.100881
-0.0349546
1.60146
-0.123193
1.50876
-0.104757
1.43456
-0.0821511
1.38705
-0.053374
-0.018696
1.15107
-0.033135
1.07431
-0.0279903
1.0153
-0.0231449
0.977572
-0.0156458
-0.00566049
0.460114
0.432124
0.408979
0.393333
0.00250158
0.043009
-0.0455106
0.00732842
0.101057
-0.105884
0.0160962
0.148403
-0.157171
0.0165795
0.151918
-0.152401
0.114035
0.0148151
-0.11227
0.00682889
0.0361802
0.0201792
0.0877068
0.0409604
0.127622
0.0482581
0.14462
0.116388
0.0459045
0.00880998
0.0273702
0.0270786
0.0694381
0.0521542
0.102547
0.073097
0.123677
0.114042
0.0754435
0.00780178
0.0195684
0.025515
0.0517249
0.0497512
0.0783106
0.0774358
0.0959927
0.0992468
0.0922309
0.00509884
0.0144696
0.0179731
0.0388506
0.0367677
0.0595159
0.0600137
0.0727467
0.0767435
0.082517
0.00342309
0.0110465
0.0125788
0.0296949
0.0274452
0.0446495
0.0470663
0.0531256
0.0561427
0.067667
0.00222145
0.00882501
0.0089346
0.0229818
0.0222856
0.0312984
0.041051
0.0343603
0.0347446
0.0624491
0.00168277
0.00714226
0.0101683
0.0144963
0.0262535
0.0152132
0.046833
0.0137807
0.0114702
0.0701073
0.00378305
0.00335922
0.0176088
0.000670549
0.0369661
-0.00414424
0.0600074
-0.00926061
-0.0144609
0.0859384
0.0075182
0.0236282
0.0448552
0.0704657
0.0994657
0.153989
0.0194766
-0.105798
0.243737
-0.130715
0.0409667
0.265265
-0.0385257
0.0169975
0.269962
0.00463993
-0.00933675
-0.000711242
-0.00519727
0.215065
-0.13314
0.325763
-0.241413
0.35215
-0.064913
0.354382
0.00240896
-0.00308132
0.260446
-0.323479
0.391985
-0.372952
0.434587
-0.107515
0.435688
0.00130817
-0.000944004
0.293681
-0.531222
0.439379
-0.51865
0.503866
-0.172001
0.510275
-0.00510085
0.00419687
0.312614
0.466155
0.551824
0.573677
0.0707144
0.038634
-0.109348
0.0787325
-0.00801811
0.0831521
-0.00441966
0.0803937
0.00275842
0.00130381
0.194242
-0.261407
0.227191
0.239769
0.233191
0.0207331
-0.00433173
-0.0164014
0.034284
-0.0135509
0.0567635
-0.0224795
0.0856243
-0.0288608
-0.0237241
0.0539263
-0.043443
0.0862799
0.139244
0.202614
0.0478214
-0.0551594
0.0763613
-0.0690233
0.0275534
-0.0521797
0.0724477
0.0123373
-0.044387
0.059603
0.0033184
-0.0300428
0.0390617
-0.0112608
0.0145792
0.0453516
-0.0322871
-0.0682239
0.0249339
-0.031762
0.00980872
-0.0292618
0.00218694
-0.0224211
-0.00907382
0.0560278
-0.00670905
-0.0816058
0.0330953
-0.00882959
0.014255
-0.0104215
0.0025802
-0.0107463
-0.00649361
0.0701429
0.0215507
-0.0984026
0.0448541
0.0164592
0.0233738
0.0110587
0.00692086
0.00570665
0.000427228
0.0745262
-0.105699
0.0470008
0.0242538
0.00773626
0.0165861
-0.114033
-0.0148234
0.0160951
-0.15191
0.00730704
-0.148383
0.00248927
-0.101066
-0.0430213
0.0482733
-0.116377
-0.0459289
0.0409339
-0.144571
0.020165
-0.127614
0.00682164
-0.0877228
-0.0361997
0.0731265
-0.113971
-0.0755326
0.0521258
-0.12357
0.0270667
-0.102555
0.00880683
-0.0694629
-0.0273929
0.0773409
-0.0989754
-0.0923368
0.0496233
-0.0958527
0.025435
-0.0783668
0.0077762
-0.0518042
-0.0196167
0.0599487
-0.0825628
0.0365437
0.01778
0.00503751
0.341912
0.583348
-0.52928
0.280604
0.224931
-0.163623
0.247101
0.0560862
-0.0225835
0.165211
0.112775
-0.0308847
-0.00111061
0.0972983
0.407667
0.571661
0.371388
0.26121
0.335309
0.0921653
0.23346
0.214624
0.164125
0.459529
0.508111
0.451337
0.269402
0.409024
0.134478
0.283731
0.339917
0.366251
0.494272
0.409818
0.51406
0.249615
0.461474
0.187065
0.318028
0.483362
0.585876
0.510319
0.551272
0.490428
0.333744
0.15867
0.351381
0.0848151
0.0738551
0.0797943
0.0050208
0.0724135
0.00738075
-0.0369834
0.109397
0.332152
0.242384
0.224821
0.201317
0.261632
0.0856732
0.0237238
0.0567955
0.0288777
0.0342951
0.0225004
0.0207366
0.0135585
0.00433524
0.202793
0.139334
0.0863016
0.0539312
)
;

boundaryField
{
    left
    {
        type            calculated;
        value           nonuniform List<scalar> 
17
(
-0.60402
-0.60402
-0.60402
-0.60402
-0.60402
-0.39598
-0.39598
-0.39598
-0.39598
-0.39598
-0.39598
-0.39598
-0.39598
-0.39598
-0.39598
-0.510051
-0.510051
)
;
    }
    right
    {
        type            calculated;
        value           nonuniform List<scalar> 
17
(
0.07909
0.229297
0.275871
0.356752
0.433551
0.505134
0.570154
0.626029
0.670807
0.690107
0.654881
0.601644
0.80011
0.64038
0.472028
0.291766
0.1024
)
;
    }
    down
    {
        type            calculated;
        value           uniform 0;
    }
    up
    {
        type            calculated;
        value           uniform 0;
    }
    cylinder
    {
        type            calculated;
        value           uniform 0;
    }
    defaultFaces
    {
        type            empty;
    }
}


// ************************************************************************* //
