/*--------------------------------*- C++ -*----------------------------------*\
  =========                 |
  \\      /  F ield         | OpenFOAM: The Open Source CFD Toolbox
   \\    /   O peration     | Website:  https://openfoam.org
    \\  /    A nd           | Version:  13
     \\/     M anipulation  |
\*---------------------------------------------------------------------------*/
FoamFile
{
    format      ascii;
    class       volScalarField;
    location    "4.06";
    object      p;
}
// * * * * * * * * * * * * * * * * * * * * * * * * * * * * * * * * * * * * * //

dimensions      [0 2 -2 0 0 0 0];

internalField   nonuniform List<scalar> 
440
(
-1.0433
-1.01531
-1.01551
-0.970188
-1.06821
-1.09938
-1.07923
-1.05551
-1.02492
-1.00485
-1.22114
-1.18869
-1.15344
-1.11211
-1.06728
-1.35394
-1.3045
-1.22537
-1.13363
-1.04356
-1.45167
-1.38786
-1.24968
-1.10914
-0.981906
-0.988558
-1.00108
-1.02738
-1.06327
-1.09972
-1.04868
-1.05394
-1.07097
-1.10103
-1.13488
-1.10534
-1.10174
-1.1101
-1.13144
-1.15683
-1.10095
-1.08977
-1.08379
-1.08888
-1.1071
-1.05057
-1.02931
-1.0054
-0.980649
-1.00634
-1.2549
-0.825018
-0.402926
-0.0644057
0.0335593
-1.32408
-0.984132
-0.43163
-0.0816024
0.0332672
-1.3481
-1.11322
-0.459951
-0.0995674
0.0237073
-1.27053
-1.20963
-0.495052
-0.119828
0.00926951
-1.15606
-1.26497
-0.534583
-0.146144
-0.00379958
-0.910891
-1.20367
-0.520343
-0.167745
-0.0234441
-0.746616
-0.960227
-0.493922
-0.196622
-0.0464551
-0.657819
-0.763729
-0.524546
-0.255034
-0.065934
-0.55983
-0.629822
-0.527477
-0.291328
-0.0809554
-0.462829
-0.53099
-0.530033
-0.32447
-0.0879583
-0.768529
-0.877435
-1.03325
-1.18344
-1.25465
-0.552914
-0.675966
-0.75657
-0.810007
-0.817052
-0.401751
-0.509748
-0.573093
-0.620476
-0.655555
-0.313787
-0.41012
-0.479424
-0.523229
-0.556082
-0.272888
-0.369133
-0.439154
-0.476507
-0.491758
0.567265
0.416732
0.223523
0.0132485
-0.206446
0.156948
-0.00213129
-0.190084
-0.401504
-0.637646
-0.231539
-0.38832
-0.585572
-0.803314
-1.02894
-0.594089
-0.750703
-0.942983
-1.14643
-1.31792
-0.825686
-0.979724
-1.15763
-1.34128
-1.45101
1.62529
1.65198
1.67533
1.68544
1.67947
1.42751
1.44363
1.45305
1.44643
1.41865
1.20465
1.19074
1.15262
1.09259
1.00775
0.955344
0.923631
0.856168
0.7589
0.636285
0.752591
0.647738
0.510893
0.359952
0.17958
1.42407
1.40371
1.41285
1.48796
1.52914
1.41405
1.39461
1.39135
1.47421
1.43344
1.40484
1.3816
1.36994
1.44691
1.30338
1.39651
1.36745
1.34775
1.39924
1.11944
1.38925
1.35321
1.32617
1.36164
0.920536
1.38255
1.3297
1.29713
1.25165
0.703714
1.37605
1.30544
1.29178
1.15145
0.87927
1.38183
1.28901
1.28124
1.10519
0.941245
1.37708
1.2647
1.28101
1.04508
0.979127
1.41137
1.26218
1.27636
1.00829
1.00231
0.552922
0.253842
-0.0855252
-0.394665
-0.596237
0.423689
0.215557
-0.0129974
-0.22515
-0.411648
0.39996
0.219302
0.0452471
-0.114867
-0.274394
0.448732
0.26294
0.0999229
-0.0484231
-0.189128
0.480761
0.292064
0.130873
-0.0141652
-0.150514
-1.59236
-1.46392
-1.3133
-1.18824
-1.1138
-1.66651
-1.60086
-1.48582
-1.39011
-1.33211
-1.59309
-1.54438
-1.4793
-1.42773
-1.39657
-1.45601
-1.4169
-1.38194
-1.35593
-1.33763
-1.35401
-1.33302
-1.31741
-1.3028
-1.29718
-1.29367
-1.28194
-1.27431
-1.27046
-1.24058
-1.25823
-1.25135
-1.25346
-1.26023
-1.2619
-1.23742
-1.24221
-1.25459
-1.27299
-1.29086
-1.13911
-1.15492
-1.18382
-1.22223
-1.25475
-1.03325
-1.04662
-1.07376
-1.10752
-1.13946
-1.22279
-0.552965
-0.268733
-0.0623297
-0.00444733
-1.20755
-0.484726
-0.228304
-0.0474182
0.00220224
-1.17082
-0.496347
-0.22425
-0.0292962
0.0100905
-1.16166
-0.556086
-0.278306
-0.0288325
0.0178123
-1.18013
-0.661666
-0.351169
-0.0410943
0.0264297
-0.932364
-0.691305
-0.378396
-0.0970407
-0.0086777
-1.13818
-0.635617
-0.31862
-0.0774598
-0.00268262
-1.06749
-1.30694
-1.37484
-1.33856
-1.16795
-1.08715
-1.31023
-1.38367
-1.32527
-1.29164
1.33003
1.31116
1.27724
1.22963
1.166
1.51055
1.53029
1.53774
1.53117
1.51102
1.65725
1.68868
1.71518
1.7312
1.73361
1.73667
1.77269
1.81145
1.84327
1.85837
1.72332
1.75501
1.78935
1.81649
1.82801
-0.687279
-0.780656
-0.928013
-1.10289
-1.30527
-0.117198
-0.238724
-0.400938
-0.593884
-0.833731
0.393853
0.267221
0.116809
-0.0586343
-0.274375
0.806403
0.708811
0.590225
0.44751
0.278442
1.13483
1.06757
0.981142
0.877738
0.757005
1.48359
1.43539
1.45596
1.46278
1.46875
1.46908
1.43076
1.45324
1.47913
1.52406
1.45696
1.42596
1.44949
1.49714
1.5897
1.44539
1.41999
1.44154
1.50306
1.59756
1.43437
1.41339
1.42836
1.5026
1.58226
1.5372
1.44427
1.44489
1.39453
1.33505
1.49371
1.43279
1.4426
1.41277
1.35665
1.02028
0.811072
0.446447
-0.0791524
-0.660206
1.10156
0.842366
0.462981
-0.0593252
-0.651478
)
;

boundaryField
{
    left
    {
        type            zeroGradient;
    }
    right
    {
        type            fixedValue;
        value           uniform 0;
    }
    down
    {
        type            zeroGradient;
    }
    up
    {
        type            zeroGradient;
    }
    cylinder
    {
        type            zeroGradient;
    }
    defaultFaces
    {
        type            empty;
    }
}


// ************************************************************************* //
