/*--------------------------------*- C++ -*----------------------------------*\
  =========                 |
  \\      /  F ield         | OpenFOAM: The Open Source CFD Toolbox
   \\    /   O peration     | Website:  https://openfoam.org
    \\  /    A nd           | Version:  13
     \\/     M anipulation  |
\*---------------------------------------------------------------------------*/
FoamFile
{
    format      ascii;
    class       volVectorField;
    location    "0.85";
    object      U;
}
// * * * * * * * * * * * * * * * * * * * * * * * * * * * * * * * * * * * * * //

dimensions      [0 1 -1 0 0 0 0];

internalField   nonuniform List<vector> 
1800
(
(0.0978004 -0.0883282 -4.48847e-20)
(0.286895 -0.24195 -3.41128e-20)
(0.473972 -0.379044 -4.85009e-19)
(0.657692 -0.500158 1.91467e-19)
(0.836612 -0.607173 7.43978e-20)
(1.00992 -0.70138 -3.90518e-20)
(1.17716 -0.783475 5.54994e-20)
(1.33794 -0.853689 1.97481e-19)
(1.4916 -0.912974 5.92299e-19)
(1.63354 -0.966916 8.10093e-19)
(0.11906 -0.0915023 -7.91098e-20)
(0.34429 -0.247709 -7.7061e-19)
(0.563282 -0.384749 3.78143e-21)
(0.775364 -0.504236 1.25739e-19)
(0.979506 -0.608923 -1.2625e-19)
(1.17522 -0.700697 7.65667e-20)
(1.36232 -0.780792 -2.80752e-19)
(1.54078 -0.850104 -5.03009e-20)
(1.71011 -0.910712 -6.93577e-19)
(1.86786 -0.967055 6.2982e-19)
(0.14165 -0.0923227 4.88225e-20)
(0.403679 -0.247731 2.09287e-19)
(0.653754 -0.382116 5.43304e-19)
(0.892178 -0.497904 -1.90255e-19)
(1.11866 -0.598385 -1.4299e-19)
(1.33321 -0.685813 7.56034e-20)
(1.53605 -0.761708 9.82368e-20)
(1.72743 -0.827301 1.94053e-19)
(1.90721 -0.884806 2.73654e-21)
(2.07422 -0.937876 1.50979e-19)
(0.163906 -0.0897206 -4.57189e-20)
(0.461698 -0.23947 -2.0439e-19)
(0.741427 -0.367618 -1.81257e-19)
(1.00451 -0.476976 -1.42291e-19)
(1.25162 -0.571022 1.81302e-19)
(1.48351 -0.652128 -5.70881e-20)
(1.70093 -0.721907 -4.31001e-21)
(1.90453 -0.781624 2.90807e-21)
(2.09455 -0.833368 -1.60483e-19)
(2.27026 -0.88036 -1.05923e-19)
(0.184657 -0.0833563 -1.14035e-19)
(0.515893 -0.221807 8.76387e-20)
(0.823291 -0.33943 1.79835e-19)
(1.10931 -0.439063 2.43298e-19)
(1.37561 -0.524071 -2.85011e-19)
(1.62371 -0.596778 -3.58069e-21)
(1.85494 -0.658768 4.24953e-19)
(2.07043 -0.711263 -1.85055e-19)
(2.27083 -0.756166 -1.23985e-19)
(2.45578 -0.7964 -5.35427e-20)
(0.203189 -0.0734999 1.73587e-19)
(0.56447 -0.1952 1.02983e-18)
(0.89679 -0.298074 1.43257e-19)
(1.20351 -0.384735 -5.03129e-19)
(1.48719 -0.458227 -1.75496e-19)
(1.75003 -0.520669 6.37667e-19)
(1.9939 -0.573525 -1.45366e-19)
(2.22036 -0.617901 -4.3156e-19)
(2.43047 -0.655446 -3.1667e-19)
(2.6242 -0.688745 2.61586e-19)
(0.218898 -0.0605912 1.16339e-19)
(0.605744 -0.160701 -7.47583e-19)
(0.959312 -0.24503 -1.08559e-18)
(1.2837 -0.315798 3.83777e-19)
(1.58223 -0.375564 4.4993e-19)
(1.85767 -0.426128 -9.02017e-22)
(2.11239 -0.46874 -6.39653e-19)
(2.34829 -0.504326 2.1931e-19)
(2.56683 -0.534214 -3.64516e-19)
(2.76827 -0.560571 -3.11222e-19)
(0.231235 -0.0451722 -3.42482e-19)
(0.638199 -0.119684 -6.92592e-19)
(1.00849 -0.182294 1.21219e-18)
(1.34677 -0.2347 5.98692e-19)
(1.65693 -0.278852 -2.69751e-19)
(1.94224 -0.316136 -2.11492e-19)
(2.20543 -0.347515 0)
(2.44874 -0.37369 1.16798e-19)
(2.67398 -0.395623 -2.95838e-19)
(2.88171 -0.414971 -7.74204e-20)
(0.239766 -0.0278753 -2.04463e-19)
(0.660651 -0.0737557 5.62376e-19)
(1.04249 -0.112198 1.71005e-19)
(1.39031 -0.144289 -5.12485e-19)
(1.7084 -0.171277 -7.84181e-19)
(2.00037 -0.194053 3.66184e-20)
(2.26924 -0.213246 1.67126e-19)
(2.51752 -0.229294 -5.46831e-19)
(2.74731 -0.242785 -2.89766e-19)
(2.95953 -0.254779 -5.6359e-19)
(0.244259 -0.0094024 4.51402e-19)
(0.672451 -0.024704 3.44144e-19)
(1.0603 -0.0373616 -9.38585e-20)
(1.41303 -0.0477885 -1.29778e-20)
(1.73514 -0.0564623 -3.87501e-19)
(2.03041 -0.0637233 -8.57332e-20)
(2.30205 -0.0698103 -2.90573e-19)
(2.55275 -0.0748906 6.46551e-19)
(2.7848 -0.0791715 1.71001e-19)
(2.99945 -0.0830124 2.2207e-21)
(-0.00234199 -0.0217748 -3.51291e-20)
(0.00857902 -0.0693592 -6.99704e-20)
(0.0248593 -0.120594 -7.33138e-21)
(0.0492954 -0.171358 -3.39571e-20)
(0.0776474 -0.216766 -1.27376e-20)
(0.106479 -0.254904 -3.9008e-19)
(0.135495 -0.28883 -1.9551e-20)
(0.166279 -0.322149 1.19949e-19)
(0.199107 -0.355679 1.09418e-20)
(0.232998 -0.388062 -3.57212e-20)
(0.000851062 -0.024671 -9.77609e-20)
(0.014934 -0.0850583 -2.13428e-19)
(0.0393447 -0.160413 -5.32332e-20)
(0.0692683 -0.225379 -1.10288e-19)
(0.0994705 -0.275671 -9.61938e-20)
(0.13042 -0.318098 -2.79376e-19)
(0.16443 -0.359096 2.00262e-19)
(0.202092 -0.400518 1.68776e-19)
(0.241595 -0.440455 -2.56936e-19)
(0.281101 -0.476851 8.14126e-20)
(0.00549704 -0.0314775 -8.54149e-20)
(0.0287742 -0.107408 -8.68754e-19)
(0.0628663 -0.19616 -1.30094e-19)
(0.097452 -0.269046 9.26915e-20)
(0.131798 -0.32729 6.76928e-20)
(0.169622 -0.380363 -4.48254e-19)
(0.212917 -0.432409 3.54243e-20)
(0.259112 -0.481925 3.67033e-19)
(0.305457 -0.526401 -3.86684e-19)
(0.351401 -0.565806 -2.58672e-19)
(0.0113685 -0.0409729 -1.77103e-21)
(0.0466245 -0.130872 1.90133e-19)
(0.0896496 -0.225362 1.60401e-21)
(0.133079 -0.307078 -1.07078e-20)
(0.17778 -0.37792 -2.99952e-20)
(0.22723 -0.443919 8.58471e-20)
(0.281086 -0.505707 7.26873e-20)
(0.335656 -0.560993 -1.36006e-19)
(0.389714 -0.609485 9.20982e-21)
(0.443879 -0.652061 -1.04425e-20)
(0.0185089 -0.0507637 0)
(0.0672394 -0.152427 5.50654e-21)
(0.121945 -0.25365 -5.11141e-19)
(0.178698 -0.345501 5.17196e-20)
(0.237807 -0.428608 -9.62927e-21)
(0.300514 -0.505133 5.11981e-21)
(0.365308 -0.574436 -2.52242e-20)
(0.429802 -0.635506 -7.76156e-21)
(0.493938 -0.688922 0)
(0.55813 -0.734941 -2.05816e-20)
(0.0273251 -0.0596459 3.18753e-20)
(0.0918956 -0.172855 -1.54536e-19)
(0.161769 -0.28253 -4.61579e-20)
(0.234632 -0.383902 -5.82911e-20)
(0.309738 -0.476772 4.95814e-20)
(0.386739 -0.561563 5.94157e-21)
(0.464245 -0.637741 8.89229e-20)
(0.540939 -0.704994 -2.17555e-20)
(0.61691 -0.763506 -6.95981e-19)
(0.69216 -0.812719 -1.01004e-20)
(0.0379742 -0.0676024 6.77283e-22)
(0.121237 -0.192177 5.55365e-20)
(0.209164 -0.310619 -7.83743e-20)
(0.299929 -0.420182 -1.66852e-20)
(0.392139 -0.52068 -7.29123e-20)
(0.484781 -0.612145 -9.31918e-21)
(0.576706 -0.69435 1.01482e-20)
(0.666946 -0.767178 -2.11343e-19)
(0.755532 -0.830309 3.83365e-19)
(0.842325 -0.882373 9.71345e-19)
(0.0503607 -0.0745996 1.51089e-20)
(0.155129 -0.209609 -1.42227e-19)
(0.263462 -0.335964 -2.13679e-19)
(0.373671 -0.452113 8.89773e-20)
(0.484105 -0.55827 -6.43108e-20)
(0.593548 -0.654626 9.85755e-20)
(0.700949 -0.741291 1.9658e-19)
(0.805415 -0.818321 -1.0895e-19)
(0.907029 -0.885142 -3.05864e-19)
(1.0057 -0.939564 7.25219e-19)
(0.0642894 -0.0803588 -2.65107e-20)
(0.193285 -0.224025 -5.78112e-19)
(0.324297 -0.356559 5.24284e-19)
(0.455684 -0.477231 3.37466e-19)
(0.58574 -0.586748 -8.59094e-20)
(0.713227 -0.685665 3.08593e-19)
(0.837134 -0.774442 -1.59943e-19)
(0.956571 -0.853472 -7.72621e-19)
(1.07174 -0.922055 -4.03649e-19)
(1.18268 -0.977306 4.53589e-19)
(0.0795446 -0.0846654 -7.98172e-20)
(0.235845 -0.234416 -5.44368e-19)
(0.392392 -0.370524 -8.3121e-21)
(0.547542 -0.492795 6.88592e-20)
(0.699595 -0.602464 3.37737e-19)
(0.847394 -0.700436 -1.85377e-19)
(0.990017 -0.787447 -1.69433e-19)
(1.12654 -0.863836 1.88956e-19)
(1.25681 -0.928663 -3.51592e-19)
(1.38008 -0.980374 -5.84513e-19)
(0.402893 -0.532207 9.822e-19)
(0.684812 -0.618791 -2.39479e-19)
(0.913732 -0.558233 -1.418e-19)
(1.08776 -0.431908 2.67273e-19)
(1.24048 -0.280898 -2.29732e-19)
(1.3632 -0.140334 -2.99244e-19)
(1.4621 -0.0357538 -2.66563e-19)
(1.52167 0.0186228 -3.19156e-20)
(1.54418 0.0340153 -3.42185e-20)
(1.56267 0.0257464 3.01572e-20)
(0.468827 -0.620064 9.64091e-19)
(0.741427 -0.694221 7.08397e-20)
(0.966223 -0.618298 1.09808e-20)
(1.12484 -0.481198 -2.14399e-19)
(1.26579 -0.321344 -7.10626e-19)
(1.38155 -0.173196 0)
(1.48193 -0.0610323 -2.4877e-19)
(1.55924 0.00384282 5.19618e-20)
(1.59889 0.0270654 4.57197e-21)
(1.63208 0.0215853 2.42166e-20)
(0.556167 -0.705704 -9.98208e-19)
(0.810713 -0.767183 -7.11317e-20)
(1.02544 -0.676206 1.56217e-19)
(1.16612 -0.528304 -5.40485e-20)
(1.29126 -0.36057 -3.65581e-20)
(1.39753 -0.205949 6.40638e-20)
(1.49371 -0.0882485 0)
(1.57988 -0.0160924 0)
(1.6379 0.0144249 -2.20909e-21)
(1.69333 0.0146399 0)
(0.665666 -0.787428 -2.25093e-19)
(0.895534 -0.835729 4.05209e-19)
(1.09185 -0.730896 2.68328e-20)
(1.21234 -0.572233 0)
(1.31785 -0.397672 6.0422e-19)
(1.41222 -0.23754 -1.40312e-19)
(1.50104 -0.115919 0)
(1.58913 -0.0379589 1.37363e-19)
(1.65187 -0.00472627 0)
(1.74304 0.00349797 -4.26299e-20)
(0.795721 -0.86409 -1.48816e-19)
(0.997572 -0.897878 4.56002e-19)
(1.16608 -0.781212 -1.46499e-20)
(1.26367 -0.612157 0)
(1.34626 -0.431821 1.79761e-19)
(1.4261 -0.267194 2.64955e-19)
(1.50579 -0.14286 4.70722e-20)
(1.59241 -0.0600775 6.5393e-21)
(1.64952 -0.0257923 -2.07416e-20)
(1.77116 -0.0145861 3.58673e-20)
(0.942244 -0.934934 -1.33337e-18)
(1.11643 -0.952279 -9.43893e-19)
(1.24875 -0.825893 4.7525e-21)
(1.31988 -0.64736 5.76559e-19)
(1.37687 -0.462234 -3.07164e-19)
(1.43933 -0.294326 1.4592e-19)
(1.50887 -0.16821 2.28066e-19)
(1.58984 -0.0816878 -1.87262e-19)
(1.64666 -0.0463301 -1.94046e-21)
(1.75356 -0.0348782 -7.23095e-21)
(1.10011 -0.999588 -2.61076e-19)
(1.24998 -0.998748 2.87119e-19)
(1.34009 -0.863825 3.90567e-21)
(1.38065 -0.677161 -1.76512e-20)
(1.40978 -0.488158 -5.93813e-19)
(1.45188 -0.318378 5.37542e-20)
(1.51032 -0.191401 -9.43612e-20)
(1.58269 -0.101812 -2.61565e-20)
(1.64367 -0.0653656 6.51211e-21)
(1.70557 -0.0469021 -2.37391e-20)
(1.26434 -1.05695 -1.20036e-18)
(1.39472 -1.03789 2.10303e-19)
(1.43907 -0.894421 0)
(1.44501 -0.701135 3.44915e-20)
(1.44429 -0.509102 5.22915e-19)
(1.46342 -0.338901 -1.80223e-21)
(1.50897 -0.212384 -3.20279e-19)
(1.57491 -0.119035 7.39457e-20)
(1.61728 -0.08025 -1.81832e-21)
(1.64414 -0.052846 -5.60394e-20)
(1.43202 -1.10358 3.3909e-18)
(1.54804 -1.07062 2.45702e-19)
(1.54553 -0.918387 4.65057e-19)
(1.5132 -0.719702 -3.17991e-20)
(1.48049 -0.525234 -3.44686e-20)
(1.47368 -0.355956 -4.28834e-19)
(1.5035 -0.23019 9.75184e-20)
(1.5566 -0.135595 3.10036e-21)
(1.56165 -0.0849813 -2.42714e-20)
(1.57359 -0.055176 6.68055e-20)
(1.59926 -1.12825 -2.998e-18)
(1.70186 -1.09579 1.2719e-18)
(1.65389 -0.938369 -2.33514e-19)
(1.58135 -0.736351 -7.89609e-19)
(1.51534 -0.540106 -6.54442e-19)
(1.48 -0.37334 -2.51113e-19)
(1.49279 -0.24832 -7.24384e-20)
(1.50143 -0.144159 0)
(1.4962 -0.08613 -7.55053e-20)
(1.49724 -0.0559959 1.55508e-19)
(1.88821 -1.17029 -6.71027e-18)
(1.92741 -1.10532 -1.69141e-18)
(1.8048 -0.932549 -5.80095e-20)
(1.67304 -0.728114 1.11684e-19)
(1.56183 -0.535208 1.58198e-19)
(1.48771 -0.374215 -9.94042e-20)
(1.44083 -0.247883 -4.03146e-20)
(1.41657 -0.143166 7.60803e-20)
(1.40366 -0.0848093 -6.45658e-20)
(1.39458 -0.0555663 -7.11395e-20)
(2.28935 -1.13493 4.95949e-19)
(2.17884 -1.05685 -2.92135e-19)
(1.94263 -0.865553 4.88773e-19)
(1.73542 -0.665118 -8.32977e-20)
(1.56121 -0.481607 -1.01592e-20)
(1.42497 -0.33455 -7.50763e-20)
(1.33804 -0.222634 9.25051e-20)
(1.2989 -0.131659 -3.31473e-20)
(1.27922 -0.079138 2.18993e-19)
(1.26174 -0.052546 9.98082e-20)
(2.61059 -1.04365 2.27078e-18)
(2.35188 -0.948855 3.25713e-19)
(2.00804 -0.759616 -1.17585e-19)
(1.73209 -0.573153 1.67416e-36)
(1.50438 -0.411318 -2.56181e-20)
(1.33774 -0.287456 1.49743e-33)
(1.23127 -0.19346 -2.12881e-20)
(1.17479 -0.117628 -1.72831e-33)
(1.14801 -0.0714396 7.01239e-21)
(1.12344 -0.0477571 -1.15677e-20)
(2.787 -0.894004 3.88561e-33)
(2.36933 -0.795685 2.96659e-18)
(1.97338 -0.630584 1.81675e-18)
(1.65311 -0.469542 0)
(1.40587 -0.335259 8.29599e-19)
(1.22871 -0.234131 4.24988e-19)
(1.11192 -0.158634 1.71411e-19)
(1.04433 -0.0993666 -3.0513e-33)
(1.01108 -0.0614476 -5.45185e-20)
(0.980881 -0.0414537 6.2685e-21)
(2.76361 -0.705915 3.84246e-18)
(2.24583 -0.629917 -1.46798e-19)
(1.8464 -0.491076 0)
(1.51532 -0.361767 0)
(1.2709 -0.255873 0)
(1.09661 -0.178723 0)
(0.97959 -0.122338 -1.28787e-20)
(0.907394 -0.0787313 -4.32643e-33)
(0.869615 -0.0496593 7.95792e-21)
(0.835398 -0.0340144 4.58944e-34)
(2.55115 -0.517048 3.26548e-18)
(2.02001 -0.462929 0)
(1.63849 -0.353667 0)
(1.32665 -0.256761 0)
(1.10074 -0.179775 0)
(0.941279 -0.125705 0)
(0.832746 -0.0869269 3.31228e-20)
(0.7627 -0.0573682 -9.58057e-20)
(0.723633 -0.0368419 8.85532e-21)
(0.687714 -0.0258831 2.62744e-20)
(2.19011 -0.342715 0)
(1.70261 -0.303518 1.09801e-18)
(1.36124 -0.227617 1.09014e-18)
(1.09125 -0.161992 0)
(0.898288 -0.112363 6.66066e-19)
(0.763751 -0.078792 4.02644e-19)
(0.671181 -0.0551042 2.50283e-19)
(0.609256 -0.037268 8.61343e-20)
(0.572756 -0.0241908 -3.88894e-20)
(0.538195 -0.0176968 -2.06933e-21)
(1.70285 -0.191138 -6.73874e-19)
(1.30017 -0.165596 -2.74175e-19)
(1.02503 -0.12176 1.75654e-19)
(0.815051 -0.0844345 -2.1121e-34)
(0.667653 -0.0580865 -7.71259e-20)
(0.566037 -0.0410829 3.70209e-33)
(0.495363 -0.0291659 4.87487e-20)
(0.446606 -0.0202867 9.89836e-20)
(0.416538 -0.0131321 1.01684e-20)
(0.386956 -0.0102376 -1.14637e-21)
(1.10088 -0.0758222 3.40805e-18)
(0.823154 -0.0626794 -1.86591e-19)
(0.640569 -0.044295 -5.88994e-19)
(0.506132 -0.0289859 0)
(0.413802 -0.019567 -6.40146e-19)
(0.350593 -0.0141417 -4.32295e-19)
(0.306024 -0.0103775 -2.04633e-19)
(0.274432 -0.00764251 -1.45132e-19)
(0.25425 -0.00492948 1.84483e-19)
(0.233701 -0.00427616 -3.44935e-20)
(0.397351 -0.00331884 0)
(0.287865 0.00159443 0)
(0.220888 0.00409441 0)
(0.173547 0.00624835 0)
(0.142371 0.00585933 0)
(0.121176 0.0047199 0)
(0.105821 0.00370169 5.5899e-20)
(0.0945012 0.00262599 -2.17644e-34)
(0.0869515 0.0023309 1.26756e-20)
(0.0788994 0.00103651 1.12915e-20)
(3.3671 -0.0863124 5.39217e-19)
(3.32642 -0.265088 -8.41879e-20)
(3.24735 -0.430659 8.52082e-19)
(3.13238 -0.582162 -6.04754e-19)
(2.98634 -0.71813 6.66394e-19)
(2.81524 -0.836389 2.75237e-19)
(2.62661 -0.934068 -1.92747e-18)
(2.42951 -1.00786 -7.7479e-20)
(2.22468 -1.0537 0)
(1.98487 -1.06658 4.26029e-19)
(3.86191 -0.0750609 7.07366e-18)
(3.79859 -0.234217 1.95629e-18)
(3.70428 -0.387315 -4.86732e-18)
(3.58426 -0.531997 -4.49142e-19)
(3.44239 -0.665902 3.55894e-18)
(3.28186 -0.787331 1.92354e-18)
(3.10651 -0.895082 -5.16881e-18)
(2.92205 -0.987722 -1.95222e-18)
(2.7276 -1.06341 2.20319e-18)
(2.49238 -1.12055 8.52202e-19)
(3.83307 -0.0533022 -1.2626e-19)
(3.82024 -0.171569 4.40354e-18)
(3.78546 -0.299765 -1.08814e-18)
(3.72433 -0.430924 -3.44615e-18)
(3.63617 -0.558737 -6.79982e-18)
(3.52371 -0.67881 1.02786e-17)
(3.39117 -0.788803 4.18057e-18)
(3.2435 -0.888 -3.91183e-18)
(3.08161 -0.978737 -2.90278e-18)
(2.88723 -1.06303 -3.42509e-18)
(3.62866 -0.0472872 -4.83934e-18)
(3.61961 -0.144933 -4.35338e-18)
(3.59963 -0.243743 5.47205e-18)
(3.56735 -0.343098 1.91183e-18)
(3.5224 -0.442383 -8.97106e-18)
(3.46415 -0.540815 4.9213e-19)
(3.39182 -0.637055 3.88629e-18)
(3.3051 -0.730442 -1.05389e-18)
(3.20497 -0.823078 1.27676e-18)
(3.08304 -0.914789 2.81778e-19)
(3.34405 -0.0365794 -9.15979e-19)
(3.339 -0.111657 3.00406e-18)
(3.3271 -0.188677 1.61955e-18)
(3.30744 -0.267173 -1.89422e-18)
(3.27986 -0.346072 -2.00133e-18)
(3.24465 -0.42414 -2.43393e-18)
(3.20203 -0.500339 3.79649e-19)
(3.15175 -0.5745 1.39032e-19)
(3.09547 -0.647767 -2.13962e-18)
(3.03285 -0.721316 -2.03428e-18)
(2.96257 -0.0265554 -1.82246e-18)
(2.95981 -0.0798897 -5.87279e-20)
(2.9533 -0.1346 -1.6375e-18)
(2.9424 -0.190904 3.12136e-19)
(2.92675 -0.248551 5.36775e-18)
(2.90629 -0.306931 -3.66746e-19)
(2.88091 -0.365117 4.43378e-20)
(2.85022 -0.422061 -2.60855e-18)
(2.81643 -0.476886 -3.49557e-18)
(2.78599 -0.529869 3.72852e-19)
(2.48713 -0.0175114 -2.89323e-20)
(2.48578 -0.0519353 -8.143e-19)
(2.48259 -0.0872487 -2.6148e-18)
(2.47707 -0.123772 -3.43096e-18)
(2.4688 -0.161534 2.49651e-18)
(2.45744 -0.200268 1.50223e-18)
(2.44261 -0.239354 -1.38505e-18)
(2.4237 -0.277792 1.62448e-18)
(2.40274 -0.314484 -4.29704e-19)
(2.38953 -0.349543 -9.6376e-19)
(1.91464 -0.00968879 7.72441e-19)
(1.91408 -0.0282979 -8.31779e-19)
(1.91278 -0.0474399 -3.27677e-20)
(1.91031 -0.0673593 -3.47245e-20)
(1.90624 -0.0881303 -7.27407e-20)
(1.90013 -0.109615 -2.33191e-18)
(1.89151 -0.131405 -6.78669e-19)
(1.87978 -0.152783 2.62609e-18)
(1.86664 -0.172975 -6.03506e-19)
(1.86191 -0.192208 -1.35114e-18)
(1.23989 -0.00373781 -1.64278e-18)
(1.23967 -0.0106958 -8.48892e-19)
(1.23923 -0.0179013 2.33914e-18)
(1.23823 -0.0254786 -8.89757e-19)
(1.23625 -0.0334753 -6.7411e-19)
(1.2329 -0.0418316 1.352e-18)
(1.22775 -0.05035 -1.29588e-18)
(1.22038 -0.0586655 1.28698e-18)
(1.21202 -0.0663426 -1.21032e-18)
(1.21007 -0.0735085 -4.24828e-18)
(0.454916 -0.000257994 6.63065e-19)
(0.454827 -0.000700543 7.03037e-19)
(0.454692 -0.00115912 7.48165e-19)
(0.454325 -0.00164005 1.35394e-18)
(0.453496 -0.00214017 -6.71972e-19)
(0.451984 -0.00263717 -1.2996e-18)
(0.449568 -0.00309909 6.14707e-19)
(0.445993 -0.00359291 2.48375e-20)
(0.441737 -0.00439221 -4.96534e-20)
(0.44035 -0.00504563 1.1057e-19)
(1.65357 0.997295 -2.85833e-19)
(1.51228 0.941875 1.79921e-20)
(1.3588 0.880757 -2.28763e-19)
(1.19768 0.808446 1.76303e-19)
(1.02957 0.723983 -1.91843e-19)
(0.854825 0.627079 -1.01081e-19)
(0.673759 0.516943 2.31971e-19)
(0.487035 0.392146 -3.04876e-19)
(0.29589 0.250642 3.09879e-19)
(0.101429 0.0916432 2.38693e-19)
(1.88639 0.992205 0)
(1.72968 0.934749 6.39404e-19)
(1.56084 0.872775 3.32642e-19)
(1.38229 0.801857 1.62654e-19)
(1.19453 0.71988 4.31119e-19)
(0.997534 0.625899 -8.68403e-20)
(0.79136 0.518602 -7.8528e-20)
(0.576345 0.395989 8.87399e-20)
(0.353317 0.255174 -1.04514e-18)
(0.122698 0.0943546 -1.66599e-20)
(2.09104 0.959046 1.56801e-19)
(1.92524 0.905074 0)
(1.74614 0.846466 -1.00731e-19)
(1.55494 0.779552 -3.83313e-19)
(1.3517 0.702083 5.37029e-20)
(1.13609 0.61279 3.9707e-19)
(0.907783 0.510088 -6.06841e-19)
(0.666588 0.391637 -2.00884e-19)
(0.412594 0.254043 7.83576e-19)
(0.14525 0.0947345 -1.75923e-19)
(2.28485 0.898359 1.87938e-19)
(2.11045 0.850564 1.19721e-20)
(1.9213 0.797863 2.45263e-20)
(1.71811 0.737002 3.60808e-20)
(1.50058 0.665856 -2.9295e-20)
(1.26792 0.583132 2.73234e-19)
(1.01926 0.487167 -2.06869e-19)
(0.753673 0.37553 -8.55538e-19)
(0.470269 0.244677 0)
(0.167387 0.091696 0)
(2.46796 0.811822 -1.07084e-18)
(2.28436 0.770838 -6.09247e-19)
(2.08493 0.725062 -1.20686e-19)
(1.87003 0.671523 -6.65693e-20)
(1.6389 0.608295 0)
(1.39031 0.534136 2.40741e-19)
(1.12275 0.447433 2.67766e-19)
(0.834553 0.345834 2.86228e-19)
(0.523838 0.225952 -4.23726e-19)
(0.187907 0.0848977 -8.12311e-20)
(2.634 0.702095 7.66444e-19)
(2.44156 0.668064 -1.39169e-19)
(2.23244 0.629679 -2.21593e-19)
(2.00664 0.584306 0)
(1.76301 0.530278 0)
(1.49987 0.466487 0)
(1.21522 0.391463 -3.89786e-20)
(0.906683 0.303089 3.70271e-19)
(0.571497 0.198348 3.79146e-19)
(0.206082 0.074624 -3.08559e-19)
(2.7758 0.572356 -1.19358e-18)
(2.5755 0.54526 -1.4814e-18)
(2.35786 0.514529 -3.03362e-22)
(2.1226 0.477946 -1.87649e-19)
(1.86818 0.434181 -9.28777e-20)
(1.59258 0.382318 -1.7883e-19)
(1.29332 0.321124 4.59079e-19)
(0.967488 0.248836 2.14862e-19)
(0.611582 0.162966 5.40013e-19)
(0.221314 0.0613401 2.02848e-19)
(2.88707 0.425749 -1.15708e-18)
(2.68027 0.405633 8.4704e-20)
(2.45576 0.38282 1.64527e-19)
(2.21297 0.355611 1.68143e-20)
(1.95004 0.323051 -3.14394e-19)
(1.66465 0.284468 -1.74202e-19)
(1.35397 0.238937 -6.21197e-19)
(1.01463 0.18514 1.18529e-19)
(0.642603 0.121236 5.14734e-20)
(0.233065 0.0456126 -6.2692e-21)
(2.96279 0.265187 1.01366e-19)
(2.7512 0.252354 3.97e-19)
(2.52189 0.237904 -3.3029e-19)
(2.27394 0.22074 3.63006e-19)
(2.00523 0.200297 3.72542e-19)
(1.71322 0.176176 4.91888e-19)
(1.39481 0.147809 -6.3573e-19)
(1.04633 0.114389 -3.2441e-19)
(0.66341 0.0748095 -4.58505e-20)
(0.240916 0.0280951 -3.26989e-19)
(3.00052 0.0935771 5.8181e-19)
(2.78612 0.0887855 -1.8616e-19)
(2.55425 0.0834438 4.79557e-19)
(2.30366 0.07715 -3.10659e-19)
(2.03208 0.0697277 2.66476e-19)
(1.73679 0.0610617 6.054e-19)
(1.41457 0.0509783 3.78879e-19)
(1.06161 0.0392345 3.09337e-19)
(0.673395 0.0255065 2.65857e-19)
(0.244653 0.00950721 5.43606e-19)
(0.239654 0.45228 -4.693e-19)
(0.204044 0.418552 -1.87901e-19)
(0.168466 0.381455 1.39237e-19)
(0.134925 0.343774 -4.19137e-19)
(0.105184 0.307637 -1.19363e-19)
(0.0782854 0.270383 6.92888e-19)
(0.051911 0.223978 3.35781e-19)
(0.0259873 0.159106 -1.55116e-19)
(0.00706604 0.0797507 1.14913e-19)
(-0.0011215 0.0224619 -6.07715e-20)
(0.288669 0.544578 4.11519e-19)
(0.248764 0.507776 4.58551e-19)
(0.208215 0.465718 -1.15615e-20)
(0.167881 0.418674 -1.32866e-19)
(0.131151 0.370528 -3.13768e-19)
(0.100616 0.322912 8.28537e-20)
(0.0734898 0.269576 2.25385e-19)
(0.0459116 0.1971 1.65621e-19)
(0.018356 0.101983 -5.914e-19)
(0.00279595 0.0289023 -1.23679e-19)
(0.35965 0.633389 -6.01016e-19)
(0.313788 0.593232 -4.81564e-19)
(0.267995 0.547384 2.57839e-19)
(0.221356 0.494062 1.38432e-19)
(0.17581 0.434279 -6.20531e-21)
(0.136271 0.372042 -1.40247e-19)
(0.10212 0.305748 -2.96519e-20)
(0.0684423 0.225002 -5.54932e-19)
(0.0336827 0.126099 -2.69344e-19)
(0.00764529 0.0378262 -3.90544e-20)
(0.454194 0.718115 5.03414e-19)
(0.40004 0.673908 1.64743e-19)
(0.346351 0.622883 -1.4948e-19)
(0.29222 0.563822 6.32108e-20)
(0.237743 0.495705 -6.0585e-22)
(0.186583 0.421003 1.27956e-21)
(0.140103 0.340758 -1.32511e-19)
(0.0954619 0.250324 3.78136e-19)
(0.0514422 0.147785 -4.19158e-19)
(0.0135868 0.0477305 -6.50309e-20)
(0.571986 0.798059 -2.82177e-19)
(0.507842 0.749951 -8.88793e-20)
(0.443565 0.693088 -1.43635e-20)
(0.378958 0.62735 -7.04937e-20)
(0.313714 0.552072 5.866e-20)
(0.24966 0.468152 5.29289e-20)
(0.188379 0.376779 -2.80045e-20)
(0.129326 0.276696 -2.81994e-19)
(0.0725314 0.167669 2.18284e-19)
(0.0209229 0.0568513 8.72434e-20)
(0.709406 0.87111 6.43232e-19)
(0.634359 0.819713 3.20628e-19)
(0.558125 0.75753 2.02758e-19)
(0.480852 0.685449 4.82266e-20)
(0.402411 0.603596 1.55304e-19)
(0.323871 0.512413 7.86858e-20)
(0.246468 0.412554 1.43568e-19)
(0.170867 0.303935 5.79489e-20)
(0.0980562 0.186813 -1.58523e-20)
(0.0299999 0.0650359 -1.3277e-20)
(0.862021 0.934995 -1.19782e-19)
(0.775543 0.880783 -8.24381e-19)
(0.686705 0.814142 -7.56605e-20)
(0.595726 0.736883 -5.281e-20)
(0.502564 0.649668 -1.98902e-20)
(0.408127 0.55274 1.51656e-19)
(0.31348 0.446329 -4.3806e-20)
(0.219711 0.330423 6.49474e-20)
(0.128295 0.205086 -1.44617e-19)
(0.0409054 0.0724959 -1.27211e-21)
(1.02673 0.986129 -8.84544e-19)
(0.928476 0.929717 5.94317e-20)
(0.826663 0.859768 -2.34168e-19)
(0.721468 0.77893 -7.2318e-20)
(0.612772 0.688037 -2.3805e-20)
(0.50146 0.587086 -7.5197e-20)
(0.388528 0.475904 5.62511e-20)
(0.275164 0.354201 6.02935e-20)
(0.162983 0.22156 -9.82088e-21)
(0.0535445 0.0791212 -1.03764e-19)
(1.20391 1.01801 1.23817e-19)
(1.09351 0.961 5.22944e-19)
(0.978262 0.889763 1.55077e-21)
(0.858229 0.807585 -2.94692e-20)
(0.73315 0.71532 1.50767e-19)
(0.603894 0.612562 -3.4717e-19)
(0.471405 0.498757 -2.44334e-19)
(0.336831 0.373212 3.56088e-19)
(0.201772 0.235008 1.44168e-19)
(0.0677021 0.0845325 -3.62018e-20)
(1.4006 1.01552 7.39588e-19)
(1.27807 0.962386 3.23635e-19)
(1.14784 0.895396 5.59482e-20)
(1.01088 0.816425 -1.94806e-19)
(0.867275 0.726537 -1.64232e-20)
(0.717903 0.625346 4.65509e-19)
(0.563585 0.512008 -2.68183e-19)
(0.405341 0.385477 -1.84468e-19)
(0.244705 0.24432 3.35778e-19)
(0.0831136 0.0884405 -6.03376e-21)
(0.977528 0.0989712 8.58319e-21)
(1.14099 0.1426 -2.10475e-21)
(1.21364 0.19081 -2.42085e-20)
(1.32657 0.169974 0)
(1.37969 0.155161 -5.25068e-22)
(1.28035 0.233874 -5.8444e-20)
(1.13037 0.385512 -5.44187e-20)
(0.94993 0.543637 -9.79548e-21)
(0.711965 0.648617 -3.08002e-19)
(0.416688 0.595815 4.20795e-19)
(0.983228 0.0802713 1.99722e-19)
(1.1326 0.114908 -3.219e-20)
(1.21055 0.16034 1.88498e-21)
(1.31729 0.15045 1.0755e-20)
(1.38392 0.157397 3.23496e-21)
(1.30024 0.268657 -1.36688e-21)
(1.16026 0.435831 8.6408e-21)
(0.994415 0.606823 0)
(0.761744 0.727736 8.06332e-19)
(0.479469 0.687045 -5.7044e-19)
(0.988703 0.0618606 -1.14514e-19)
(1.12897 0.0882232 6.43433e-21)
(1.21052 0.130716 7.84231e-20)
(1.31411 0.129576 1.92406e-20)
(1.38751 0.158664 -2.33186e-20)
(1.32009 0.301476 -3.47448e-20)
(1.19319 0.484686 -1.54219e-20)
(1.04436 0.668431 4.48295e-20)
(0.823211 0.804268 -1.28261e-21)
(0.564477 0.774847 -3.61699e-19)
(0.99368 0.0431226 -8.10554e-20)
(1.12976 0.0621489 1.53441e-20)
(1.21394 0.101752 7.55574e-20)
(1.31735 0.108593 3.16264e-20)
(1.39334 0.159558 -2.39965e-20)
(1.34009 0.332255 -2.81773e-20)
(1.22956 0.531342 8.1967e-20)
(1.10033 0.727313 2.69855e-20)
(0.899902 0.875945 -5.50493e-19)
(0.67367 0.857252 -1.77545e-19)
(0.997738 0.0236039 3.6154e-20)
(1.13413 0.0362385 -4.5336e-20)
(1.22031 0.0733251 -6.75767e-20)
(1.32563 0.0882667 2.30993e-20)
(1.40048 0.161015 0)
(1.35998 0.361352 0)
(1.2695 0.575117 8.16765e-20)
(1.16351 0.782068 -2.83153e-20)
(0.99461 0.940272 -1.18445e-19)
(0.805078 0.932617 -5.7384e-20)
(1.00032 0.003126 3.25079e-21)
(1.14102 0.0100692 5.8134e-20)
(1.22866 0.0453365 -2.07366e-19)
(1.337 0.069131 -7.76742e-20)
(1.40779 0.16387 -4.74446e-21)
(1.37968 0.388889 1.31047e-19)
(1.31323 0.615131 1.56953e-19)
(1.23545 0.830971 -1.80599e-20)
(1.10774 0.995452 -4.45224e-20)
(0.953743 1.0003 3.21951e-21)
(1.00059 -0.0183629 2.57901e-21)
(1.14948 -0.0167323 3.06059e-20)
(1.23803 0.0178052 -6.55944e-20)
(1.34988 0.0516639 -1.57727e-19)
(1.41439 0.168376 1.16611e-20)
(1.39951 0.414513 7.29381e-21)
(1.36138 0.650253 -5.99441e-20)
(1.31725 0.872369 -1.06189e-19)
(1.23723 1.04121 -3.11862e-20)
(1.11387 1.06046 -9.79453e-19)
(0.997846 -0.040526 1.50787e-20)
(1.15898 -0.0444665 -1.46789e-19)
(1.24781 -0.00908731 1.33037e-19)
(1.36303 0.0365885 1.03739e-19)
(1.41917 0.174987 4.98868e-21)
(1.41946 0.43774 -1.37195e-19)
(1.41383 0.679446 1.25857e-21)
(1.40826 0.905335 -1.36378e-19)
(1.37929 1.07842 1.10985e-20)
(1.27988 1.11254 2.88306e-18)
(0.992244 -0.0627856 -8.91349e-20)
(1.16948 -0.0732586 8.18787e-20)
(1.25771 -0.0351501 1.91837e-19)
(1.37579 0.024014 -1.16007e-19)
(1.42271 0.183466 -2.32054e-19)
(1.44111 0.458254 9.26044e-21)
(1.47186 0.702578 1.71304e-19)
(1.50841 0.930584 -5.79589e-19)
(1.53083 1.10838 -2.6854e-20)
(1.44838 1.15349 -6.47517e-18)
(0.984763 -0.0856645 4.09161e-21)
(1.18131 -0.103099 1.43968e-19)
(1.26768 -0.0601858 6.20619e-20)
(1.38707 0.0164408 -2.80541e-19)
(1.42288 0.197877 -2.49528e-19)
(1.46204 0.479625 -7.50325e-20)
(1.53108 0.723444 8.44917e-20)
(1.61153 0.951466 -2.01416e-19)
(1.68374 1.1307 -1.08574e-18)
(1.61566 1.17244 -7.95113e-18)
(0.974576 -0.116764 -1.44943e-20)
(1.19584 -0.142716 -3.34008e-20)
(1.277 -0.0939047 -7.80003e-20)
(1.39761 0.0023692 1.4697e-19)
(1.4237 0.197185 2.05573e-19)
(1.49161 0.475032 -6.25874e-20)
(1.61185 0.712781 -1.42035e-19)
(1.75374 0.940584 -1.19879e-18)
(1.9028 1.13268 -1.5987e-18)
(1.89938 1.20877 3.28573e-18)
(0.962123 -0.155504 -4.04006e-19)
(1.21466 -0.192187 1.93676e-20)
(1.28115 -0.139856 -5.90793e-20)
(1.39778 -0.0189926 3.44552e-19)
(1.4007 0.175123 3.4735e-19)
(1.49277 0.429786 9.64717e-21)
(1.66788 0.648313 -6.42737e-20)
(1.88058 0.866123 -2.79454e-19)
(2.13955 1.07151 2.81138e-19)
(2.28455 1.1609 -3.23556e-19)
(0.94942 -0.196082 -2.79117e-20)
(1.24008 -0.24208 -5.50458e-20)
(1.2805 -0.184523 3.09563e-20)
(1.39285 -0.0369517 2.69772e-20)
(1.37321 0.164233 1.71524e-33)
(1.4688 0.372173 2.5617e-21)
(1.67993 0.561644 -2.02932e-33)
(1.94879 0.75976 1.85053e-19)
(2.30183 0.956491 -9.30816e-19)
(2.58734 1.05851 -6.29249e-19)
(0.93701 -0.242905 1.41033e-18)
(1.27161 -0.282153 -7.76206e-34)
(1.24953 -0.229506 -4.06748e-20)
(1.26907 -0.0375213 -2.2862e-19)
(1.2606 0.145247 -4.44643e-19)
(1.38854 0.303058 -8.79922e-19)
(1.6186 0.460281 -5.05595e-33)
(1.92893 0.631222 -1.73731e-18)
(2.32564 0.802162 -3.1777e-18)
(2.75369 0.902628 1.67507e-18)
(0.927299 -0.300534 0)
(1.31683 -0.327144 -1.61985e-33)
(1.11269 -0.207276 0)
(1.10633 -0.0301107 0)
(1.11808 0.115233 0)
(1.25813 0.233184 0)
(1.48927 0.355572 -8.04955e-33)
(1.81481 0.491649 0)
(2.21335 0.634326 -3.39689e-19)
(2.73493 0.712041 1.25742e-18)
(0.916501 -0.360822 1.16138e-19)
(1.25153 -0.326154 -4.68179e-19)
(0.960108 -0.174303 -5.51479e-20)
(0.933284 -0.0261026 0)
(0.955521 0.0827685 0)
(1.08981 0.165661 6.03164e-20)
(1.30611 0.253988 1.17546e-18)
(1.61584 0.354733 -1.95055e-19)
(1.99665 0.466223 -4.95302e-19)
(2.53243 0.520492 4.67316e-18)
(0.883475 -0.405314 -1.52014e-17)
(1.09207 -0.27996 1.08675e-18)
(0.792709 -0.130615 -7.27783e-20)
(0.746576 -0.0211734 -7.31799e-20)
(0.772424 0.0525613 -5.13202e-19)
(0.889351 0.10463 -7.73039e-19)
(1.07617 0.161327 -1.0477e-18)
(1.34598 0.229041 -1.38187e-18)
(1.68759 0.306126 -1.60497e-18)
(2.17992 0.344449 3.61225e-18)
(0.809008 -0.394515 -4.13697e-19)
(0.886454 -0.207587 -1.21653e-18)
(0.605588 -0.0829072 -1.25611e-19)
(0.549407 -0.0153316 -8.42565e-20)
(0.57156 0.0276134 -9.91353e-34)
(0.661458 0.0545909 9.36138e-20)
(0.805356 0.0846126 -1.48474e-32)
(1.01618 0.122951 -1.93435e-19)
(1.29246 0.167311 2.98966e-19)
(1.69929 0.192072 7.05784e-19)
(0.664256 -0.288842 3.42549e-17)
(0.618254 -0.108101 -3.13998e-18)
(0.393397 -0.0351319 -2.40627e-19)
(0.339237 -0.00736874 -1.59067e-19)
(0.353579 0.00924689 3.94298e-19)
(0.410377 0.0183708 7.84458e-19)
(0.501142 0.029201 7.95439e-19)
(0.636713 0.0448884 4.59885e-19)
(0.82075 0.0634573 -1.9046e-19)
(1.10156 0.0762256 3.56947e-18)
(0.336839 -0.0768231 5.58834e-19)
(0.26185 -0.00230483 -6.76607e-33)
(0.144387 0.0190783 -3.04843e-19)
(0.120363 0.00337752 0)
(0.123564 -0.00235458 0)
(0.141818 -0.00541919 9.6324e-20)
(0.172353 -0.00624826 9.36362e-35)
(0.22029 -0.00417764 -1.23569e-19)
(0.288129 -0.00161947 -2.8263e-19)
(0.399011 0.00331821 1.00161e-18)
(2.00207 1.09645 -1.7899e-18)
(2.23907 1.07849 -2.30495e-18)
(2.44208 1.02912 0)
(2.63708 0.952517 -7.57998e-19)
(2.82359 0.852519 -1.78261e-18)
(2.99276 0.732398 -2.24949e-18)
(3.13709 0.595046 -4.75828e-19)
(3.25054 0.442701 1.26927e-18)
(3.32824 0.276966 -3.54789e-18)
(3.36764 0.0986983 1.35668e-18)
(2.49868 1.14202 2.67754e-19)
(2.73057 1.08195 1.3974e-18)
(2.92388 1.00422 1.43925e-19)
(3.10674 0.909821 6.75728e-19)
(3.2806 0.800675 -1.104e-18)
(3.43997 0.678335 -5.00053e-18)
(3.58096 0.54402 2.46809e-18)
(3.70048 0.399326 1.27036e-17)
(3.79428 0.246327 1.04071e-19)
(3.8587 0.0872579 -1.07365e-17)