# Selection   : all
# Cells       : 1800
# Volume      : 7.372328e+01
# Time        	minMag(U)
2.95          	5.226240e-03
2.975         	3.584773e-03
3             	3.102349e-03
