/*--------------------------------*- C++ -*----------------------------------*\
  =========                 |
  \\      /  F ield         | OpenFOAM: The Open Source CFD Toolbox
   \\    /   O peration     | Website:  https://openfoam.org
    \\  /    A nd           | Version:  13
     \\/     M anipulation  |
\*---------------------------------------------------------------------------*/
FoamFile
{
    format      ascii;
    class       volVectorField;
    object      U;
}
// * * * * * * * * * * * * * * * * * * * * * * * * * * * * * * * * * * * * * //

dimensions      [0 1 -1 0 0 0 0];

internalField   nonuniform List<vector>
440
(
(-0.620105440579 0.495658811721 -2.65477886052e-16)
(-0.423169929266 0.258825873009 3.96824024685e-16)
(-0.317190010526 0.118863990165 -1.53839123355e-16)
(-0.296589996531 0.0465012538913 -9.05128340298e-17)
(-0.317503109576 0.0275207954722 1.65792651929e-17)
(-0.783413801831 0.450869386299 8.61752526985e-17)
(-0.538173956212 0.250338935727 6.94558897619e-18)
(-0.410206400797 0.13312080472 -5.65270250965e-17)
(-0.383050027214 0.076935450627 7.75895334037e-17)
(-0.408321469736 0.0652971579256 5.09056312803e-17)
(-0.926216833348 0.359575090739 2.78145761653e-17)
(-0.640869201933 0.208613223327 4.30941726487e-17)
(-0.492390859497 0.118932846857 1.6100908538e-17)
(-0.452773579049 0.0752607781059 -7.19988198976e-17)
(-0.475460727821 0.0674020046529 -1.70536681816e-17)
(-1.03234965253 0.229230088643 -3.13008471329e-17)
(-0.719681815637 0.13825369883 1.12238816129e-17)
(-0.555564065117 0.0812580549532 6.92916290024e-17)
(-0.506418172875 0.0526564490209 -3.58088592642e-17)
(-0.519089047369 0.046215651847 -5.09637222816e-17)
(-1.08853918904 0.0728147208994 -3.14826560386e-17)
(-0.763288904384 0.0481054700003 -1.25839098842e-17)
(-0.59058826599 0.0280287637378 -5.77363579605e-17)
(-0.536330842095 0.0174487565179 3.5368521109e-17)
(-0.538674560673 0.0141528032127 9.85862311477e-18)
(-0.0363326137422 0.0671158625637 1.08524970891e-18)
(-0.116403206838 -0.0641476454294 -2.07155543947e-17)
(-0.131816347138 -0.138246839197 4.03630350949e-17)
(-0.131194715224 -0.157867826985 -8.8538933517e-18)
(-0.114675619917 -0.147775232108 -8.24113292709e-17)
(-0.0788582722977 0.225142319945 6.98648546586e-18)
(-0.120384638993 0.0364060067886 2.06764915012e-17)
(-0.126908477813 -0.0879643140806 6.20647024275e-18)
(-0.129373580863 -0.147221079553 3.74821489343e-18)
(-0.124550887244 -0.147419428769 -3.12192588287e-18)
(-0.171185632987 0.354671827191 -4.13210471324e-17)
(-0.156130789367 0.12422430001 -2.93945487023e-17)
(-0.137402700733 -0.0219868593328 -1.92381924845e-17)
(-0.133199166982 -0.100809816823 6.14660078651e-17)
(-0.135365244482 -0.105295269918 -1.37873808365e-18)
(-0.301500376659 0.446753635778 -1.22766617528e-17)
(-0.22285849058 0.194518130404 1.58193775362e-17)
(-0.171955293684 0.0395005764503 -3.42076723113e-17)
(-0.157222281528 -0.0438699191488 -3.69551967475e-17)
(-0.162117278757 -0.0494307527194 4.94810467447e-18)
(-0.454456463683 0.494624011924 1.70164791721e-17)
(-0.311294074145 0.240367860558 1.04358706998e-17)
(-0.229077704218 0.087364147058 -5.31325229544e-20)
(-0.201106904256 0.00621472923295 1.21459126208e-17)
(-0.215945183564 0.00152652175118 4.79379685466e-17)
(-0.0886728202984 0.0292430620969 5.52675086763e-17)
(-0.161144416358 0.338924314434 -2.99597179387e-17)
(-0.562327575556 0.0730595369641 -3.30044404785e-19)
(-0.529338947425 0.0378729219992 1.07839897939e-17)
(-0.503161071438 0.0252865115445 6.40002080801e-18)
(-0.199918864226 0.0263424896087 4.0128108379e-17)
(-0.251916255858 0.41476105472 -8.67772326787e-18)
(-0.561255821331 0.108139747189 1.84230442055e-17)
(-0.488044650631 0.0210099392137 1.94376300379e-17)
(-0.390538550674 0.0100447648786 -1.20937273987e-17)
(-0.289040223521 0.0392107865401 8.20814088213e-18)
(-0.400680039697 0.448387568574 4.71042747042e-17)
(-0.560292075285 0.14113826347 -1.37797107623e-17)
(-0.491430001268 -0.0010403034478 1.18771431229e-17)
(-0.391495685783 -0.00603362138111 8.34233331551e-18)
(-0.368343445877 0.0686677905373 -3.96547539709e-17)
(-0.533858060733 0.467156407228 -2.86108646642e-17)
(-0.591209428812 0.174584023209 3.81689997544e-18)
(-0.527370819951 -0.0205122891784 -1.48431573372e-17)
(-0.417413879713 -0.0204463058785 6.7051181471e-18)
(-0.439700705994 0.0891951990024 -7.37522057009e-18)
(-0.661655443569 0.484890487939 -6.43329261402e-17)
(-0.638058956191 0.222419863275 0)
(-0.571008977094 -0.0373690632218 5.05842421204e-19)
(-0.547963355023 -0.0336158063357 -3.31916599507e-18)
(-0.602058556609 0.219746410853 -2.9260161753e-18)
(-0.793346658522 0.540663201723 2.69363331502e-17)
(-0.708477826555 0.3097175753 -3.49764368991e-18)
(-0.740439624748 0.00162843260454 1.4296822716e-17)
(-0.831869160267 -0.0335117613966 9.75933303472e-18)
(-0.867259171013 0.23239012719 1.01599929626e-17)
(-0.699086329453 0.372793053502 -1.99182519742e-18)
(-0.483482684145 0.174723645849 -3.53151750742e-18)
(-0.488020643555 -0.0143882057966 -9.6976728778e-19)
(-0.518034349897 -0.0280345172715 0)
(-0.625346062168 0.159983481193 8.15098886844e-18)
(-0.229079273627 0.232974194489 3.49914404911e-18)
(0.212851026863 0.0884668146649 -6.16372331599e-18)
(0.280818265899 -0.00116166482333 4.35835839356e-19)
(0.190024350909 -0.0197515321678 7.49589059538e-20)
(-0.440598755816 0.110613385053 -2.99272284499e-17)
(-0.173038386338 0.119829487081 2.89266162383e-17)
(0.142298435229 0.0510902242295 -1.11603122836e-17)
(0.207841809679 0.0155249578149 -1.67849792268e-31)
(0.151890271351 -0.00598016421918 1.86133680708e-17)
(-0.432838738849 0.0125554736365 -2.05939064736e-18)
(-0.291155276152 -0.0111491917225 -4.90270288893e-19)
(-0.164294666604 -0.030661458233 -1.13873190461e-17)
(-0.142594361117 -0.00202099436168 -5.45619668392e-20)
(-0.155468568285 0.000824959467067 -6.21655433553e-20)
(-0.672529385654 0.0189994884922 -5.4759463118e-17)
(-0.654350724944 0.0653058443368 3.33792560597e-17)
(-0.616175977423 0.0996707177235 -1.58367599132e-17)
(-0.562561861539 0.113047308905 -1.66807419686e-17)
(-0.478149604449 0.0951718626023 8.92385487823e-19)
(-0.937128871397 0.0217191523691 -3.19179243627e-17)
(-0.926141185996 0.0743438315782 1.95922326775e-18)
(-0.909439342131 0.124779963894 1.52315744791e-17)
(-0.887842329504 0.183641203715 -1.42226309137e-17)
(-0.840354047404 0.253605530825 2.7597670499e-18)
(-0.688549280002 0.0131484627773 -1.54327733363e-17)
(-0.697328284961 0.0421265536442 1.24177883513e-17)
(-0.709813424952 0.0747750339521 -2.6983623328e-17)
(-0.72157532786 0.112124257198 2.36601292437e-18)
(-0.723683474043 0.152808930644 2.87029174012e-17)
(-0.634168766174 0.0128005177499 -1.70504523708e-17)
(-0.625906273193 0.0404030450702 -5.24869586517e-17)
(-0.609972092128 0.0691809810726 4.42324861399e-18)
(-0.591545771859 0.0956909468063 5.46626941584e-17)
(-0.566247434686 0.109189765182 -1.32105828509e-17)
(-0.660496767643 0.00264399510379 -5.1563528253e-17)
(-0.644142210971 0.00804191596492 1.55355881e-18)
(-0.612748014599 0.0135979378225 -7.53479196922e-19)
(-0.570339907422 0.0178500665414 2.65314958049e-17)
(-0.524155883624 0.016408705403 4.3693168864e-17)
(-0.333123197039 -0.0481067479679 -3.16789465103e-17)
(-0.310684741905 -0.0623889352639 -4.83240400826e-18)
(-0.328969511148 -0.130668248622 2.69796583528e-17)
(-0.430469294762 -0.265410773123 -1.28346424506e-17)
(-0.61501480405 -0.50614581377 1.16874018684e-17)
(-0.421866323817 -0.0776204762136 2.36120390178e-17)
(-0.395809228814 -0.0873166102312 3.74096149834e-17)
(-0.421726938698 -0.140978299202 2.6657977753e-18)
(-0.545431737566 -0.254795103497 2.24114677065e-17)
(-0.777988620755 -0.464096064813 1.50091331287e-17)
(-0.485823783618 -0.0767005277092 1.05842213059e-17)
(-0.46285514756 -0.0828185778088 -1.4603361329e-17)
(-0.502103470732 -0.124535864859 -2.72274484475e-17)
(-0.64719369026 -0.211645193188 -7.98953809367e-18)
(-0.921519640983 -0.375643973878 -2.79709446717e-17)
(-0.525908479267 -0.0533672246784 3.23316204397e-18)
(-0.512931554765 -0.0583158485856 5.2349240316e-18)
(-0.562053529737 -0.0849553130923 3.67915874941e-17)
(-0.723968491317 -0.140034390332 -3.07974296408e-17)
(-1.0290796936 -0.247483071356 1.6368060545e-17)
(-0.541325545644 -0.0201572390413 2.35575640981e-17)
(-0.538669511058 -0.0221621212982 4.07170674092e-17)
(-0.592952607542 -0.0306358339598 1.78484678086e-17)
(-0.764827547761 -0.0492365285826 -2.51793623056e-17)
(-1.0873531443 -0.0923322663415 1.62092474187e-17)
(-0.0994562701251 0.0654571258878 -1.05164270374e-16)
(-0.116859637389 0.0776013632459 -8.07586772753e-17)
(-0.118328129848 0.0659484255753 1.0919520881e-17)
(-0.103765258156 0.0118597657503 -6.63570399146e-18)
(-0.0342503520651 -0.08864108128 -3.42408973277e-18)
(-0.119097601293 0.0705867954294 -4.81619066559e-17)
(-0.125329923055 0.0765670229314 -2.56647174922e-17)
(-0.124001038471 0.0317562084079 -7.81275135561e-18)
(-0.118504701611 -0.0697560978148 3.39263320035e-18)
(-0.0802508126695 -0.237665532863 -4.0935415833e-18)
(-0.142885460465 0.0441724172377 3.44131989468e-17)
(-0.14088462451 0.047404015887 -4.38946318484e-17)
(-0.144354615179 -0.016640427827 -7.4821595533e-18)
(-0.161407568058 -0.145358621478 1.10178774581e-17)
(-0.172369333509 -0.362948659459 -4.86373622968e-18)
(-0.175841711291 0.00514125202861 -2.93960644705e-17)
(-0.170048840455 0.00658380294683 4.0500355424e-17)
(-0.182898931971 -0.0654735346044 6.56033070401e-17)
(-0.230322663255 -0.208661577214 -1.75097872313e-17)
(-0.300461016874 -0.454283110974 1.45465564561e-17)
(-0.230157045978 -0.0320113708652 1.62601536564e-17)
(-0.214248215754 -0.031293125289 2.0385357955e-17)
(-0.240229687341 -0.104942949077 3.51046446431e-19)
(-0.318545008461 -0.250220591657 -2.97332356014e-18)
(-0.450990024585 -0.503166274621 4.51173748481e-20)
(-0.475794626402 -0.0249328921667 -9.5707020129e-18)
(-0.609989177443 -0.0423734608581 -9.94516456732e-18)
(-0.459970216724 -0.032685149063 -4.63999918086e-18)
(-0.219125282536 -0.311141719826 -5.22208207764e-18)
(-0.0656258981699 -0.100924047071 4.53929502443e-17)
(-0.448734194615 0.0267783911325 1.7965638954e-18)
(-0.578894693988 -0.0479765745616 -1.77152128331e-17)
(-0.441153969009 -0.0440521335264 5.752496312e-19)
(-0.263531511475 -0.394582306775 -3.03564151204e-17)
(-0.174952382678 -0.10455500716 3.70170206811e-17)
(-0.431217337487 0.0713186520663 -4.19288556621e-19)
(-0.574346540774 -0.0473954033672 1.78351658751e-18)
(-0.425824005499 -0.0689716352889 1.700108661e-17)
(-0.385592474205 -0.43200412319 1.27244450081e-17)
(-0.276063291028 -0.114005457657 1.45282923076e-17)
(-0.429877135641 0.111094840416 5.07735407549e-19)
(-0.597468412479 -0.0380730075384 3.02973902919e-17)
(-0.454160033478 -0.100445755723 1.03513568437e-17)
(-0.502027925481 -0.449847207076 3.68395627484e-17)
(-0.366408795748 -0.135517474142 -2.26203533903e-17)
(-0.44648826924 0.142223016478 3.40713904897e-18)
(-0.656047423099 -0.0224552062102 1.96721769501e-18)
(-0.498945905336 -0.146812819281 -8.60414283094e-18)
(-0.621671585165 -0.465556043721 -1.08045291604e-17)
(-0.445057385133 -0.146054745581 2.31735782626e-17)
(-0.488366085072 0.220120634427 4.11862111423e-18)
(-0.726685084885 -0.0169902754074 -1.8027230557e-17)
(-0.555908942196 -0.205609496387 5.83472061671e-18)
(-0.734044951496 -0.513050925787 -5.26648903784e-17)
(-0.606191697006 -0.263996020758 4.51334107863e-17)
(-0.501426157529 0.393065568221 6.94756191807e-19)
(-0.607674266649 0.0704657381063 4.69397940929e-18)
(-0.508115737772 -0.147332222389 -3.59007698402e-18)
(-0.658964981015 -0.362840470263 4.75367494506e-18)
(-0.836506663023 -0.253746096874 -3.21152542378e-18)
(-0.313441928602 0.31730338406 7.66114848901e-18)
(0.181138148152 0.119902083243 -4.39580453301e-34)
(0.207512534996 -0.0693245247356 3.78179012556e-19)
(-0.198239177165 -0.220055512592 -2.57390728002e-18)
(-0.601451769913 -0.173914830566 -2.31572152708e-17)
(-0.166366407208 0.0540703940964 -1.26442569079e-18)
(0.208571738533 0.0336650886788 5.44589000036e-19)
(0.173671124828 -0.0423530925793 -1.11435502125e-17)
(-0.144507713688 -0.115149100487 -1.14793204819e-17)
(-0.42453602736 -0.115436247896 4.45784160927e-17)
(-0.0986991913744 0.00082590388313 1.3900906192e-18)
(-0.188909654736 -0.0678961394156 -4.99351086265e-19)
(-0.162045532405 0.0226158755117 -1.34199125228e-17)
(-0.280724802313 0.0126726569915 5.77817655815e-19)
(-0.427492509501 -0.0125033873304 1.32584870322e-17)
(-0.495364931214 -0.116231213446 -3.26781659037e-17)
(-0.575366325215 -0.12757102193 -3.00110516506e-17)
(-0.626272779204 -0.111268795851 3.73721599673e-17)
(-0.662127884208 -0.0759217793768 6.05992688001e-17)
(-0.676139724977 -0.0299119274502 -5.90989214133e-17)
(-0.830790730242 -0.258880969482 -8.64346871991e-18)
(-0.876205032544 -0.192290748584 -1.08839580029e-16)
(-0.897282985819 -0.13285657822 -2.6630780905e-17)
(-0.914769880237 -0.0827684369728 9.97474056519e-17)
(-0.931779992928 -0.032967927789 1.48780021655e-17)
(-0.709101249932 -0.159414199923 2.94039472092e-17)
(-0.712113609738 -0.117902537912 1.82811639228e-17)
(-0.704409105627 -0.0799175743075 2.41253343319e-17)
(-0.694953595891 -0.0455151473963 2.98472300913e-17)
(-0.68802777177 -0.014998348714 -2.71585217026e-17)
(-0.556493703659 -0.110203248252 -4.20937502617e-17)
(-0.584588569269 -0.0967704406802 2.86691165015e-18)
(-0.605371432873 -0.0709050718169 -3.21486301287e-17)
(-0.623118870152 -0.0421842910497 -3.93901501993e-17)
(-0.633265361847 -0.0145723804428 3.57004270201e-17)
(-0.521297987578 -0.0157414617402 6.55362679784e-18)
(-0.568180552619 -0.0175362919078 -4.43756400166e-17)
(-0.611119646655 -0.0135759906862 -2.7948852535e-17)
(-0.643228948591 -0.00809375818159 5.27688251849e-17)
(-0.660214928506 -0.00269674045563 4.15165398225e-19)
(-0.974345526014 -0.0579876671547 -1.65001990262e-17)
(-0.226137893777 0.000670485015822 1.26822507114e-17)
(0.188289236625 0.038465181535 6.57701928794e-18)
(0.439937404035 0.0478176740131 1.44013072011e-17)
(0.272574235832 0.00522381182237 1.51465525896e-17)
(-0.900287172081 -0.192657094882 -2.95961063291e-17)
(-0.209918845132 -0.0143543814725 -2.01434717888e-17)
(0.162964586896 0.0720203488718 1.03375715985e-17)
(0.301625151702 0.0867906138359 -1.48825223542e-17)
(0.190446030447 0.0184067586955 4.02333099685e-17)
(-0.79428391008 -0.308268495396 -2.68717457778e-17)
(-0.20868671373 -0.0546673703316 4.42820464868e-18)
(0.124083917205 0.0611671420995 1.22915584323e-17)
(0.238091958376 0.0871392198142 1.06567764948e-17)
(0.205267067191 0.0545080503467 5.46252054231e-17)
(-0.676492383999 -0.395120300226 2.96040751035e-17)
(-0.225528556874 -0.103305218717 2.79906759e-17)
(0.0535013093508 0.0409267214418 -5.70875377141e-17)
(0.180881840672 0.0876364057017 3.54278967233e-18)
(0.172370895701 0.0763727061169 -1.60102839433e-17)
(-0.54516174121 -0.441472405784 4.54890525183e-17)
(-0.2306694282 -0.140533482455 -2.95609557211e-17)
(-0.0127467097655 0.0257037746374 2.08498621384e-17)
(0.109780755898 0.106382578944 3.75212930694e-17)
(0.163621107949 0.122561583304 3.38296445274e-18)
(-0.406239712821 -0.439969705815 2.28640405008e-17)
(-0.210408898184 -0.161181033694 1.99492249484e-17)
(-0.058094581616 -0.000857496716931 3.76083031585e-17)
(0.05358801058 0.0940734424634 -2.45533499101e-17)
(0.140246813087 0.113268000973 9.27992288838e-18)
(-0.275369723378 -0.396189320518 -1.61030049337e-17)
(-0.177386239891 -0.178920493649 -1.4179173142e-17)
(-0.0882154836286 -0.0534885026593 -1.33587932938e-18)
(-0.00711365787291 0.0320835859971 -2.41057177555e-17)
(0.0650981848086 0.0510163523594 -1.25879696679e-17)
(-0.159848579589 -0.323857596768 -1.2070374271e-17)
(-0.135988508733 -0.208972663399 3.08922272682e-17)
(-0.0944660369499 -0.101657645187 -4.95358617299e-17)
(-0.0382529446098 -0.0254341755131 -1.01531452965e-16)
(0.017475494169 -0.00408332425831 4.23965704754e-17)
(-0.0634530624029 -0.272948113736 -4.50026704008e-18)
(-0.109681337411 -0.221948183917 -1.75909261716e-17)
(-0.0988728409654 -0.136331451383 4.95527065687e-17)
(-0.0681230772479 -0.0804650193136 9.01516158289e-17)
(-0.0269100918056 -0.0585781290123 -1.16308549067e-17)
(-0.0690358254777 -0.135920656946 1.39798799068e-18)
(-0.123615477784 -0.162576099741 -5.56864943217e-18)
(-0.126977103591 -0.151019799824 2.5217878181e-18)
(-0.113305052973 -0.127171394528 -1.4732126407e-18)
(-0.0822398494846 -0.10900656236 -3.51459380177e-17)
(0.226408406429 0.0673867356951 2.48267780969e-17)
(-0.0263904695157 0.0316897774858 1.10504138558e-16)
(0.0438319570253 -0.0317431286377 -2.38955580185e-17)
(0.100789188848 -0.0186862944058 -3.68210962368e-17)
(0.12256580563 -0.00257598357326 -2.18004709145e-18)
(0.213078843343 0.0227480162002 2.77487922904e-17)
(-0.12733630425 0.0226554445687 -5.80941650719e-17)
(-0.0611427169108 -0.0630687096866 -6.6741912396e-17)
(-0.00244207824498 -0.0293971008382 -7.27343100729e-18)
(0.0125554195524 -0.00334735287026 6.26102151573e-18)
(0.179681612108 0.0332453124916 5.15807728431e-17)
(-0.212842340506 0.083364179837 -1.31593894959e-16)
(-0.34808335024 -0.0764996815216 1.62829742956e-17)
(-0.366088726083 -0.0391561046182 1.56103189567e-17)
(-0.388794478881 -0.00399395502391 -1.03766160548e-17)
(0.120567161396 0.0310849749352 -2.26541577806e-17)
(-0.207853487938 0.153978187008 7.40287786829e-17)
(-0.507154752923 -0.0300695226301 1.8064337431e-17)
(-0.654443566844 -0.00992931846549 3.13936171057e-18)
(-0.744263451164 0.00641766935656 -1.8573459551e-18)
(0.0293585820271 0.0327032868256 -1.2387317796e-17)
(-0.166122724091 0.242894453516 4.49156750475e-17)
(-0.546911357705 0.0278660138729 -1.12729426888e-17)
(-0.635560194653 0.0299115747432 -1.2872912241e-17)
(-0.722194598926 0.0221715400118 -5.50778762026e-18)
(-0.380203581643 -0.0171871865938 -2.74534437772e-17)
(-0.32024387089 -0.00966916299859 0)
(-0.272351412946 0.00189061591036 -1.17145425256e-17)
(-0.244573461824 0.00280580909022 1.37873843299e-19)
(-0.234173897549 0.000958812636254 1.1386278564e-17)
(0.00472418861896 -0.0489194936584 0)
(-0.105159807138 -0.015575082986 0)
(-0.038411394082 -0.0176284746274 2.69054433084e-17)
(0.0184176418001 -0.00932284750835 6.15431664486e-19)
(0.0385662459358 -0.00165270929923 -2.70430653664e-18)
(-1.00762973941 -0.00158588494252 2.07028610745e-17)
(-0.846604582805 -0.00775850603428 -1.27558181959e-16)
(-0.656745910228 -0.00943452179846 1.29879412307e-17)
(-0.500815512841 -0.00435296373869 8.12334946699e-17)
(-0.403746196372 0.00621051600543 2.62954803293e-17)
(-0.557364351216 -0.0134575329699 -2.0036344028e-17)
(-0.260477136015 -0.0282477635496 -1.10487907574e-16)
(-0.049014643279 -0.0201853001488 7.29210463393e-17)
(0.0513794549337 0.00776153153563 -4.38541478955e-18)
(0.0748440782254 0.0395311935666 -1.40628687162e-17)
(0.139911603695 -0.117240697496 -9.11452532777e-18)
(0.0566128153913 -0.0994183866832 2.16761425795e-17)
(-0.05777190337 -0.000813433123753 5.56642242661e-18)
(-0.210108036395 0.162480293325 9.76407238292e-19)
(-0.400577246425 0.44499453985 -9.60667426524e-18)
(0.0573718340024 -0.0778263261875 1.95043910404e-17)
(-0.00848798287544 -0.0583137172259 6.80330289384e-17)
(-0.0889755653943 0.0353382058985 2.45293995387e-17)
(-0.178748739262 0.177811965934 -1.15743284362e-17)
(-0.271075218456 0.400238727146 -4.12012226495e-18)
(-0.00394362896929 -0.0470222159999 -4.1797392088e-17)
(-0.0501902864836 -0.0265325999828 4.35799889319e-18)
(-0.0989250271836 0.0527328520857 6.0419169727e-17)
(-0.138833426522 0.179104964856 1.22457912619e-17)
(-0.155518838845 0.322089440489 8.72209466177e-18)
(-0.0499045198593 -0.00904380594915 -6.00404905206e-17)
(-0.0856798186398 0.0101948887724 -4.56009419593e-17)
(-0.109766313357 0.065877028524 2.86212010729e-17)
(-0.121196722739 0.153692011059 2.72620711663e-17)
(-0.0812926273786 0.269165370378 2.06699730369e-18)
(-0.0811825360148 0.0320248864382 -1.75466993177e-17)
(-0.110260849286 0.0481680279138 -1.65847828628e-17)
(-0.121298291427 0.0717276366448 -2.38338062788e-18)
(-0.114915418616 0.0861133517499 6.92282219006e-18)
(-0.0425372413149 0.0677361307422 1.96248638218e-18)
(0.269427568479 -0.00475381105438 -1.58908387895e-17)
(0.438180995421 -0.0489760821079 1.53816076303e-17)
(0.187435137422 -0.0404555111478 -1.74805179657e-17)
(-0.225420617815 -0.00203682407859 -5.9303909309e-18)
(-0.970453836725 0.0830740037892 -1.60265059316e-17)
(0.188965670715 -0.0185495037852 -3.05640602867e-17)
(0.300604690196 -0.0868822613724 -7.40424869017e-17)
(0.162685154428 -0.0729119581829 -1.07704132954e-17)
(-0.208002044908 0.0129772612859 -2.53340139093e-17)
(-0.89135767079 0.214417460962 1.63570279011e-17)
(0.204264679291 -0.0552828159966 7.35970401839e-17)
(0.237894938524 -0.0875135840844 2.92205648098e-17)
(0.12407318364 -0.0615473125144 -3.44910531656e-17)
(-0.206702211254 0.0533973131287 -6.22195497927e-18)
(-0.783750787591 0.325162910623 -4.86810367653e-18)
(0.170876016059 -0.0777767317795 -2.13642332127e-17)
(0.181270520784 -0.0887229769738 9.01848298962e-17)
(0.0533898915034 -0.0414372464952 4.38699575902e-17)
(-0.223974899231 0.102291451028 -2.17198078793e-18)
(-0.666471900263 0.40695831006 -2.78478110139e-17)
(0.165599090728 -0.125189027698 -6.04012560312e-18)
(0.111725966939 -0.109644567067 -2.62538486107e-17)
(-0.0121519329842 -0.0265054460596 1.77138167278e-17)
(-0.229273654931 0.139954777841 1.66842987166e-17)
(-0.536822375886 0.449008255155 6.21446191195e-20)
(-0.253102646305 -0.0864764956415 2.01327358578e-18)
(0.112852286721 -0.0514223302428 -7.42151191802e-18)
(0.0958962549027 0.0495028161604 -4.0938726125e-17)
(-0.0664458999546 -0.0217137640506 4.87051879276e-17)
(0.178931265303 -0.0750483140542 1.11526692528e-17)
(-0.394374699108 -0.234905007937 -2.47514651972e-19)
(-5.47774598765e-05 -0.0675294755403 3.93883874958e-17)
(-0.030532469908 0.0792534996363 -7.01610350026e-17)
(-0.195588979215 -0.00239134069631 -9.40333743954e-17)
(0.145953032049 -0.0445643109953 -2.83401843384e-17)
(-0.508131856906 -0.287091409572 -1.12047754352e-17)
(-0.584953424566 -0.043633460502 3.08701003305e-18)
(-0.334577468124 0.0728190691308 -6.42063618941e-18)
(-0.317070246277 -0.058697379108 -8.17239455438e-17)
(0.108112883608 -0.068956731529 4.76214237717e-17)
(-0.516436017796 -0.18660145402 1.11191907645e-17)
(-0.842850190568 -0.0135804928477 -4.29468036509e-18)
(-0.472094504362 0.031745035562 1.31059838752e-17)
(-0.323264978837 -0.128145915271 1.80001778715e-17)
(0.0684891650573 -0.0774254731558 4.30042188423e-17)
(-0.500532763086 -0.0909745573832 2.80424637551e-18)
(-0.679688322465 -0.026035715401 5.67574171791e-18)
(-0.468969076198 -0.0109154442457 5.29274824863e-18)
(-0.264714569149 -0.215311829393 2.11866062326e-17)
(0.0200049452795 -0.0905772224815 -2.90246321173e-18)
(-0.108431977504 0.00133842556925 0)
(-0.286003157012 0.0551540163673 -9.31682762345e-19)
(-0.261515726645 0.00517417956758 -1.17907244991e-17)
(-0.324814725436 0.00812518842149 -1.38745506264e-18)
(-0.381616955554 0.0185833104036 5.16102075364e-17)
(-0.169169286461 -0.0376154487393 -7.91897487925e-18)
(0.0102728478681 -0.0292327433526 -2.38441806853e-17)
(-0.00107362382107 0.0159916724883 4.45119017672e-17)
(-0.126022221228 0.0159559129693 6.91192327051e-17)
(-0.0102722321488 0.0467538042827 5.30617595568e-17)
(-0.404271873576 -0.00616683484382 8.45647709388e-18)
(-0.499878309724 0.00428223830591 -6.53547936845e-17)
(-0.656115330616 0.00910097651002 -2.20782798393e-17)
(-0.846496150465 0.00748996589721 -1.32694897113e-17)
(-1.00750839277 0.00132566609368 0)
(0.0690376113697 -0.0398426981783 -7.32094560926e-17)
(0.0503060786585 -0.00799718247483 -1.24124870583e-16)
(-0.0480709008997 0.0200712669282 5.58055617949e-17)
(-0.258350483509 0.0283642901778 5.65493505963e-18)
(-0.555239831805 0.0138913842622 -2.1312067859e-17)
)
;

boundaryField
{
    left
    {
        type            fixedValue;
        value           uniform (1 0 0);
    }

    right
    {
        type            zeroGradient;
    }

    down
    {
        type            noSlip;
    }

    up
    {
        type            noSlip;
    }

    cylinder
    {
        type            noSlip;
    }

    defaultFaces
    {
        type            empty;
    }
}

// ************************************************************************* //
