/*--------------------------------*- C++ -*----------------------------------*\
  =========                 |
  \\      /  F ield         | OpenFOAM: The Open Source CFD Toolbox
   \\    /   O peration     | Website:  https://openfoam.org
    \\  /    A nd           | Version:  13
     \\/     M anipulation  |
\*---------------------------------------------------------------------------*/
FoamFile
{
    format      ascii;
    class       volVectorField;
    location    "0.5";
    object      vorticity;
}
// * * * * * * * * * * * * * * * * * * * * * * * * * * * * * * * * * * * * * //

dimensions      [0 0 -1 0 0 0 0];

internalField   nonuniform List<vector> 
440
(
(-1.90706e-15 -1.29138e-16 12.2277)
(2.43621e-16 -5.46237e-16 -2.5501)
(-2.49295e-15 1.75028e-15 -1.22765)
(9.9094e-16 -5.48324e-16 -0.198765)
(5.46909e-16 -8.58506e-16 0.39984)
(1.10225e-15 -3.49693e-16 14.0476)
(-1.13419e-15 -1.51725e-16 -2.5565)
(6.99883e-16 2.03216e-16 -1.13129)
(5.95753e-16 -3.31453e-16 -0.0775567)
(-3.49892e-16 8.7385e-17 0.492943)
(1.22944e-16 -1.1599e-15 15.5361)
(-4.74744e-16 -7.37088e-16 -2.5621)
(-3.91197e-16 7.8606e-16 -1.11097)
(-1.61542e-16 -1.33526e-16 -0.0357897)
(3.33094e-16 -3.88344e-16 0.564774)
(-6.84861e-16 -1.51182e-15 16.6029)
(7.052e-16 9.39783e-17 -2.56076)
(-4.76245e-16 -5.08283e-16 -1.10569)
(-7.30658e-16 3.82136e-16 -0.0729411)
(7.85685e-17 8.41435e-17 0.545735)
(-6.41934e-16 -2.87179e-15 17.1651)
(-1.6167e-16 1.99495e-16 -2.55487)
(2.3609e-16 -4.32292e-16 -1.1052)
(4.12211e-16 8.35099e-17 -0.1279)
(-3.43206e-16 2.27332e-16 0.493736)
(-6.87398e-17 2.61354e-19 0.527726)
(2.66183e-16 -3.24127e-16 -1.2801)
(-9.35542e-17 -4.68484e-17 -0.586459)
(-4.5703e-17 7.74914e-16 -0.0231846)
(-5.09069e-17 7.67877e-16 0.264754)
(4.32035e-16 6.47705e-17 3.26615)
(-3.98845e-16 5.39067e-17 -1.84076)
(-1.9081e-16 6.49684e-17 -1.15478)
(1.5493e-16 1.01767e-16 -0.38915)
(1.68729e-16 7.89667e-17 0.0810124)
(-2.34542e-16 6.06348e-16 5.75809)
(5.69005e-16 -7.48167e-17 -2.14779)
(1.35114e-16 -5.69504e-16 -1.36557)
(-1.83833e-16 -1.40145e-16 -0.513101)
(-2.93213e-16 5.91414e-16 0.0347857)
(-7.38132e-16 -4.65256e-16 8.08273)
(-1.8365e-16 1.12759e-16 -2.37481)
(-3.9106e-17 3.37782e-16 -1.41873)
(1.47695e-16 -2.57641e-16 -0.491959)
(3.81293e-16 -2.71941e-16 0.0848443)
(-1.10258e-15 -1.39971e-15 10.2214)
(8.53514e-16 8.7752e-16 -2.51816)
(-8.99767e-17 -1.7304e-16 -1.39232)
(5.0736e-17 -3.32025e-16 -0.334145)
(3.2627e-16 -1.57928e-16 0.301516)
(1.8046e-16 -1.35318e-17 0.963575)
(-2.68554e-16 -3.55455e-19 0.261792)
(4.92617e-17 -2.99572e-17 -0.159737)
(7.06788e-17 -1.37546e-16 -0.390082)
(-2.05477e-17 -1.02993e-16 -0.833068)
(-7.34848e-17 -1.68959e-16 0.961456)
(1.9312e-16 5.59838e-17 0.695354)
(-4.19505e-17 -3.0501e-17 -0.253254)
(3.46191e-17 4.82511e-17 -0.168719)
(2.41129e-17 8.36056e-17 -0.283657)
(-2.26852e-16 -1.43515e-16 0.931841)
(-9.33615e-17 -3.35265e-16 0.839734)
(-3.27646e-17 4.17329e-17 -0.214092)
(-4.72943e-17 -5.21872e-17 -0.015445)
(4.611e-17 -8.71027e-21 0.0643536)
(-8.61131e-17 1.33265e-16 0.965643)
(-2.90521e-16 2.86686e-18 0.828559)
(5.31003e-17 6.17732e-18 -0.122587)
(-5.07994e-17 5.73152e-17 0.0556407)
(-1.2108e-17 -1.09925e-16 0.399456)
(8.77591e-18 8.48118e-17 1.08458)
(1.53678e-16 4.06648e-17 0.77944)
(-7.123e-18 -4.16037e-17 -0.0506801)
(6.76446e-17 -8.39578e-17 0.293728)
(-1.33775e-18 -7.81976e-17 0.883087)
(2.17556e-18 -8.37291e-17 1.07502)
(1.57129e-16 6.47556e-17 0.0860935)
(-5.26083e-18 7.28905e-18 -0.608767)
(-4.44774e-18 -2.05043e-18 -0.224165)
(1.60362e-17 4.3252e-17 0.145636)
(1.87015e-17 -5.69133e-18 0.068908)
(-1.48671e-16 -1.94248e-16 -0.970137)
(-2.53775e-18 3.8556e-19 -1.76671)
(-2.39417e-17 -3.65976e-16 -1.81717)
(-1.60332e-17 -4.03057e-19 -1.69749)
(-2.53168e-17 1.76869e-16 -0.673812)
(5.08541e-17 5.01439e-18 -0.915497)
(-4.43148e-17 -1.61737e-16 -1.18199)
(-3.62065e-18 1.17686e-16 -1.21952)
(3.66703e-17 -1.77686e-16 -1.11684)
(-3.02335e-17 -9.56781e-18 -0.319558)
(-5.14556e-17 -2.23955e-17 0.0656626)
(-7.16954e-18 2.34328e-17 0.559365)
(-8.11889e-19 -1.85619e-17 0.665411)
(-5.63992e-19 -6.8594e-18 0.563051)
(-2.27588e-18 -4.39608e-16 -1.93713)
(-4.03647e-17 -1.16076e-16 -1.18199)
(4.26564e-17 6.38778e-17 -0.381256)
(-9.21415e-19 -3.2678e-17 -0.223123)
(-2.09584e-17 5.56634e-17 -0.345953)
(-2.50403e-16 -3.51386e-16 1.23289)
(2.85599e-16 -3.32777e-16 1.21556)
(8.26695e-17 2.9088e-16 1.19099)
(-2.54248e-16 9.18977e-17 1.18021)
(-6.92993e-17 -4.55575e-17 1.25778)
(6.40802e-17 2.4216e-17 0.29844)
(-3.99709e-17 -1.05819e-16 0.342854)
(-8.61066e-18 4.28577e-17 0.466072)
(1.6779e-17 8.14049e-18 0.668991)
(4.26242e-17 -8.31482e-17 0.729506)
(2.8829e-17 -9.47067e-17 -0.549654)
(-1.10631e-16 1.65266e-17 -0.518221)
(-3.59317e-17 5.99903e-17 -0.46921)
(1.3413e-16 -1.93316e-16 -0.412646)
(-2.80151e-17 -8.33153e-17 -0.393787)
(-8.83324e-17 2.16516e-16 0.0698428)
(-4.12317e-17 -4.82673e-17 0.0149387)
(6.56322e-17 -2.75607e-16 -0.0819971)
(6.13563e-17 3.35684e-17 -0.22327)
(2.79842e-17 2.51624e-16 -0.338404)
(2.51383e-16 -4.68594e-18 -3.86805)
(7.4728e-17 -3.53036e-17 -3.68047)
(-1.24002e-17 -2.78932e-16 -3.34568)
(-1.66183e-16 -5.53225e-17 -2.94486)
(-1.43415e-16 -7.54962e-17 -2.51726)
(-1.40683e-16 -1.90381e-16 0.481501)
(-2.76409e-16 -2.82333e-16 -0.117529)
(-8.09062e-17 1.01231e-16 -1.13753)
(2.27507e-16 -7.50618e-17 -2.45284)
(1.12583e-16 6.12812e-18 12.29)
(-1.7087e-16 -1.79074e-16 0.526864)
(-6.36559e-18 8.71545e-17 -0.0397372)
(-8.93904e-17 2.61994e-16 -1.07173)
(-7.35623e-17 -1.52552e-17 -2.47655)
(7.95035e-16 -8.22469e-16 14.0974)
(2.27415e-16 2.22728e-16 0.581476)
(1.84552e-16 1.58742e-16 -0.0182294)
(-1.72964e-16 1.0988e-16 -1.07362)
(-1.44169e-16 2.69807e-16 -2.50013)
(-6.02658e-16 4.67559e-16 15.5761)
(1.19745e-16 7.09141e-17 0.559232)
(-1.36902e-16 -2.13542e-16 -0.0634395)
(1.81725e-16 1.10219e-16 -1.08351)
(-2.6512e-17 4.68624e-16 -2.52064)
(2.76896e-16 -8.65492e-16 16.6277)
(-3.26727e-16 1.39096e-17 0.501286)
(4.28871e-17 -5.25663e-17 -0.123753)
(4.07422e-16 2.10983e-16 -1.09747)
(3.02086e-17 -1.72485e-16 -2.5405)
(2.77597e-16 -2.23767e-15 17.1734)
(-1.65327e-16 -2.64763e-16 0.271145)
(-8.08268e-17 -7.58816e-16 0.0375454)
(-7.22909e-17 -4.77341e-16 -0.401591)
(3.98066e-17 1.13853e-16 -0.942108)
(-5.63925e-17 -3.18197e-17 1.09709)
(2.33249e-16 -2.63588e-16 0.202318)
(6.13913e-17 -2.64508e-16 -0.198591)
(-8.43962e-17 -1.69596e-16 -0.857952)
(3.48638e-17 -3.58804e-17 -1.51091)
(-5.09635e-18 -3.50283e-17 3.57149)
(4.62451e-16 7.06003e-16 0.179579)
(3.02436e-16 1.7907e-16 -0.311497)
(1.41205e-16 -4.08499e-16 -1.10882)
(-1.62896e-16 1.77056e-17 -1.91266)
(-6.30019e-16 3.4555e-16 5.94591)
(-5.22889e-16 -5.65153e-16 0.205933)
(-2.8668e-16 -5.8242e-16 -0.337064)
(-2.36294e-16 4.23271e-16 -1.23915)
(3.6201e-16 2.32764e-16 -2.21545)
(-2.37707e-16 3.06201e-16 8.20857)
(-3.18272e-17 -8.39013e-18 0.395758)
(-2.6618e-17 1.57796e-16 -0.223599)
(-5.32343e-17 2.02305e-16 -1.27009)
(-1.06562e-16 5.42782e-17 -2.40215)
(-4.77535e-18 -1.61356e-17 10.309)
(1.00828e-16 -3.08306e-17 -0.206658)
(-6.40512e-17 -3.61734e-17 -0.249289)
(-9.7735e-18 -5.759e-18 -0.238763)
(-3.35786e-16 -3.8423e-17 -0.0270211)
(1.54844e-16 1.83694e-16 0.822814)
(-3.42938e-17 -2.46943e-17 -0.163327)
(3.48032e-17 2.5951e-17 -0.133903)
(6.99235e-17 2.07088e-17 -0.299605)
(5.45603e-17 -7.2721e-17 0.412751)
(-7.79764e-18 9.79326e-17 0.94049)
(-7.97803e-17 3.32461e-19 -0.0771141)
(1.19498e-16 -1.21074e-17 -0.044241)
(1.29346e-17 -1.87876e-18 -0.203791)
(1.88962e-16 -8.00762e-17 0.611191)
(-1.74831e-16 4.71214e-17 0.958224)
(1.00717e-17 7.79394e-18 0.031015)
(2.0875e-17 8.71819e-17 0.0717839)
(-8.70934e-17 1.87194e-17 -0.0683358)
(-6.7086e-17 2.41706e-16 0.63404)
(6.22532e-18 1.78093e-17 0.994577)
(3.07283e-17 4.40379e-17 0.1675)
(-1.2469e-16 -1.76531e-17 0.115855)
(-5.94576e-18 2.04948e-17 -0.0341111)
(-1.77776e-16 -1.71489e-16 0.599387)
(1.2375e-16 3.34458e-17 1.09434)
(4.47791e-17 -3.70565e-17 0.322291)
(-2.61119e-17 1.04156e-17 -0.305485)
(1.22352e-17 1.94792e-17 -0.298581)
(-4.1237e-17 -3.65038e-17 -0.0132407)
(-1.44163e-17 1.02832e-17 0.994587)
(9.90184e-18 1.6927e-17 0.229788)
(7.86068e-17 -3.20698e-16 -1.83987)
(-6.93406e-18 -2.85752e-19 -1.53404)
(1.87295e-16 -1.91091e-16 -0.953408)
(-1.21005e-16 4.10351e-18 0.0252874)
(-8.74717e-17 -8.08508e-17 -0.109247)
(-6.86962e-18 4.54045e-18 -1.59239)
(1.70094e-17 -1.81219e-16 -1.34069)
(-7.01495e-17 1.04554e-16 -0.916927)
(7.79943e-17 -6.75395e-17 -0.65418)
(-1.15532e-17 -2.42993e-17 -0.274112)
(-3.36721e-17 7.06875e-17 0.552528)
(-2.07343e-17 2.49125e-18 0.519055)
(6.25386e-18 -4.32185e-17 0.0909985)
(5.9725e-17 1.07674e-16 -0.289256)
(5.9264e-18 1.2061e-16 -0.537618)
(2.08557e-17 -3.24831e-17 -0.381719)
(6.01044e-17 5.33244e-17 -0.294644)
(1.97405e-17 -1.31555e-16 -1.11091)
(-9.34407e-17 4.92748e-18 -1.90169)
(9.07532e-18 9.11766e-17 1.26039)
(-3.44253e-16 -2.34653e-16 1.16762)
(4.87471e-17 -3.24965e-16 1.16607)
(3.15286e-16 3.75106e-16 1.19087)
(-2.33077e-16 2.61669e-16 1.22187)
(7.67157e-17 3.67656e-16 0.661473)
(-4.909e-18 6.46483e-17 0.610358)
(-6.66694e-17 -5.42264e-16 0.42955)
(-1.66014e-19 -1.07558e-16 0.308625)
(7.60763e-17 3.14674e-16 0.280082)
(-4.08538e-17 -2.92446e-17 -0.388228)
(2.24043e-16 7.70162e-17 -0.404617)
(1.93423e-17 -1.46504e-16 -0.450681)
(-2.87333e-16 9.64547e-17 -0.493199)
(3.24672e-17 9.44386e-17 -0.53671)
(-2.30166e-17 -1.42612e-16 -0.31803)
(-1.11101e-16 -5.87773e-17 -0.213469)
(-1.13951e-16 8.86699e-17 -0.0776704)
(2.66667e-17 -1.6061e-16 0.0171958)
(7.96425e-17 -5.40534e-17 0.0702088)
(1.82626e-17 2.67464e-16 -2.49682)
(1.69655e-16 3.76547e-17 -2.92937)
(1.41862e-16 4.54781e-17 -3.33363)
(-1.6242e-16 -2.49452e-16 -3.67266)
(-5.51228e-17 2.39754e-16 -3.86544)
(1.41981e-16 8.61137e-17 -13.3287)
(-1.74067e-16 3.48403e-16 7.20671)
(3.38877e-17 -6.72348e-16 4.46119)
(-7.89785e-17 2.54019e-17 0.831417)
(3.37226e-16 -8.91382e-16 -7.84076)
(2.10126e-16 1.25542e-15 -12.6099)
(-3.85901e-16 5.35134e-16 6.64019)
(-7.70889e-17 2.70714e-16 3.3263)
(-2.44674e-16 -7.09498e-17 0.263506)
(9.25704e-16 -7.96134e-16 -3.94225)
(1.63905e-16 4.86581e-16 -11.7902)
(1.6972e-16 -1.06136e-15 5.93235)
(-9.71241e-17 1.10613e-16 2.92671)
(-2.44123e-16 -2.45418e-16 0.549909)
(-4.56807e-16 1.11228e-16 -1.64605)
(-1.01736e-15 8.09744e-16 -11.0375)
(5.66961e-16 1.06607e-16 5.10643)
(-7.1564e-17 4.96171e-16 2.87629)
(-1.68769e-16 -1.96715e-16 0.940051)
(-4.46349e-17 3.17976e-16 -0.46464)
(-6.11038e-16 7.04475e-17 -10.0572)
(-1.50476e-16 3.99e-16 4.2488)
(-2.91355e-16 -2.71675e-16 2.71265)
(7.24193e-17 6.93278e-17 1.44024)
(2.42512e-16 2.16601e-16 0.213421)
(4.35052e-16 -9.57331e-16 -8.70976)
(2.06078e-16 -3.0076e-16 3.29663)
(2.90888e-16 9.8049e-17 2.29285)
(-1.15246e-16 4.17643e-16 1.44407)
(-3.12813e-16 -2.3622e-16 0.927769)
(2.8605e-16 1.04026e-16 -7.19448)
(-2.24078e-16 2.32417e-17 2.17446)
(-2.42964e-16 2.39878e-16 1.61733)
(-1.17125e-16 1.37863e-16 1.08882)
(4.4217e-18 -1.54385e-16 0.749182)
(2.38077e-16 -1.02163e-16 -5.7613)
(4.79758e-16 1.17481e-16 1.2133)
(2.472e-16 8.30796e-16 1.23191)
(-2.26836e-16 -3.37611e-16 0.858413)
(-6.90852e-16 -1.43805e-15 0.604057)
(4.51813e-16 5.37523e-18 -4.48846)
(-2.96506e-16 -3.39391e-16 0.776495)
(2.33593e-16 -7.77344e-16 0.970309)
(4.61599e-16 1.86174e-16 0.697018)
(1.14879e-16 1.08811e-15 0.559047)
(-8.22301e-17 6.44521e-17 -2.41184)
(-5.88367e-18 -2.47517e-17 -0.0658451)
(-2.3351e-17 -1.50734e-17 0.312457)
(-2.25469e-16 2.62971e-16 0.424253)
(-1.48485e-16 3.74194e-16 0.469705)
(5.46672e-17 -6.88031e-17 -0.748751)
(-7.32333e-17 3.21049e-16 -0.119352)
(-2.00443e-16 8.53084e-17 0.0453849)
(5.79541e-18 -6.61499e-17 0.118168)
(2.2928e-17 -1.17145e-17 0.125677)
(5.61306e-17 -2.07533e-17 0.101857)
(-6.5236e-16 -5.22694e-17 0.320359)
(1.30149e-16 -2.18922e-16 1.00997)
(1.27358e-16 -6.47566e-17 1.24005)
(-1.93178e-17 -1.68336e-16 1.29741)
(-1.06439e-16 6.34536e-17 0.349793)
(1.91865e-16 3.17994e-17 0.0121466)
(1.8728e-16 -1.22492e-16 0.988053)
(4.59896e-17 6.1632e-16 1.67703)
(-2.13682e-17 -6.7332e-19 1.92323)
(-1.47724e-16 -5.10178e-17 0.576075)
(6.88254e-16 -2.303e-16 -0.236825)
(-3.39959e-17 1.00808e-16 0.327703)
(-6.86353e-17 1.60296e-17 0.680676)
(1.96416e-17 9.41004e-17 0.849292)
(1.72356e-16 -7.00821e-17 0.822067)
(-1.94826e-16 -6.61572e-18 -0.137148)
(-6.78102e-17 3.4047e-17 -0.024734)
(1.75825e-17 2.79616e-18 -0.306524)
(3.16509e-17 -1.44716e-16 -0.60441)
(-1.06935e-16 5.37652e-17 1.46168)
(7.12863e-33 -9.81216e-18 1.40508)
(-1.09394e-17 9.55009e-19 1.12592)
(1.08677e-18 1.8963e-16 0.934362)
(4.1096e-17 -4.77046e-18 0.867061)
(1.10827e-16 -1.17365e-17 -1.29722)
(2.56869e-16 -1.14322e-16 -0.541094)
(-6.71145e-17 -1.19589e-16 -0.624671)
(-9.72541e-17 -1.1524e-16 -0.670492)
(-2.37505e-17 8.99294e-17 -0.696828)
(2.57287e-16 4.27532e-16 21.5653)
(-2.25159e-15 -4.87518e-15 13.4359)
(2.97383e-16 3.64157e-16 6.66692)
(5.25604e-16 6.31108e-17 3.25597)
(9.79672e-17 1.65773e-16 1.76077)
(-1.47381e-16 3.82856e-16 -10.42)
(1.18816e-15 1.53962e-15 -7.34254)
(2.44968e-16 -1.59364e-15 -4.31262)
(-3.14196e-16 2.97789e-16 -2.12279)
(-5.21145e-17 1.96655e-16 -1.34287)
(2.80431e-16 -2.93337e-16 0.93908)
(2.74638e-16 1.31761e-16 1.49417)
(8.50446e-17 2.67577e-16 2.36767)
(-2.46618e-16 -7.50279e-17 3.31391)
(4.42153e-17 -1.16307e-16 -8.69842)
(2.68333e-16 -3.99003e-16 0.80121)
(1.71907e-16 1.96841e-16 1.20389)
(6.04591e-18 6.0268e-16 1.82601)
(-4.34336e-17 1.79346e-16 2.3303)
(-4.1949e-16 -4.36589e-16 -7.19363)
(4.07753e-17 -5.06796e-16 0.607573)
(-2.39443e-17 -7.05365e-16 0.909867)
(2.8478e-16 5.96252e-17 1.4148)
(6.39334e-17 3.68543e-16 1.56357)
(1.77302e-16 2.78171e-16 -5.53398)
(5.96377e-17 -1.74955e-16 0.467889)
(9.29134e-18 -6.05651e-16 0.641416)
(6.02638e-17 -4.63874e-16 0.966402)
(1.26687e-16 1.35998e-16 1.18421)
(-2.40229e-16 6.1792e-17 -4.24163)
(-1.0744e-16 -4.85814e-18 0.351794)
(-8.92806e-17 -1.03786e-16 0.330347)
(-3.55508e-17 -1.54146e-16 0.262025)
(-1.03494e-16 -6.40234e-17 -0.0765128)
(-7.9077e-17 2.58377e-18 -1.3007)
(2.70689e-16 1.01704e-15 -7.80385)
(-7.54685e-18 -2.53146e-16 0.813399)
(-1.18388e-16 3.41732e-16 4.44286)
(1.08886e-16 8.72954e-16 7.1898)
(2.34097e-16 9.17547e-17 -13.2953)
(-3.21592e-16 1.06498e-15 -3.91659)
(1.71751e-16 1.0517e-17 0.252317)
(2.90964e-16 -1.26608e-16 3.30205)
(1.66285e-16 -3.03852e-17 6.61613)
(-8.22579e-17 7.07392e-17 -12.538)
(-4.67297e-16 -6.00841e-16 -1.63515)
(-4.63044e-16 5.7565e-16 0.546024)
(-2.23261e-16 -2.70713e-18 2.91113)
(3.09217e-16 2.43765e-16 5.91207)
(5.87593e-16 1.24271e-15 -11.7146)
(1.02718e-15 -7.87596e-16 -0.470195)
(3.43672e-16 -1.44379e-16 0.938548)
(-3.86347e-17 1.25652e-15 2.87069)
(-6.04824e-16 -1.16788e-16 5.09176)
(5.51561e-16 2.28884e-16 -10.9735)
(1.25303e-16 1.53248e-16 0.188615)
(1.23397e-18 -2.2554e-16 1.4577)
(2.19568e-16 -1.54523e-16 2.72823)
(6.47179e-17 2.40681e-16 4.24323)
(-3.11178e-17 8.05145e-17 -10.0091)
(2.64846e-17 5.78173e-18 0.530357)
(1.48598e-16 4.74942e-17 0.125325)
(-2.64205e-16 4.65406e-18 0.135419)
(-3.6633e-16 -1.98151e-16 0.00181839)
(-2.27551e-16 3.11351e-17 -0.639789)
(-3.62116e-17 -8.42724e-18 0.434454)
(1.66861e-17 -5.78999e-16 1.95393)
(8.99887e-17 4.43181e-16 1.19228)
(-3.47645e-16 1.47401e-16 0.488472)
(1.78822e-16 -1.5252e-16 0.0878282)
(5.53538e-17 2.18429e-17 0.0218053)
(-1.09575e-16 -2.00876e-17 2.3569)
(1.81273e-16 2.0518e-16 1.04164)
(1.92526e-16 4.13992e-17 0.120027)
(1.50469e-16 7.88153e-17 0.225415)
(-7.46306e-17 -5.53398e-17 -0.206695)
(4.20932e-18 -7.43102e-18 0.378921)
(5.14036e-17 -4.49808e-17 0.202054)
(3.75858e-16 8.31327e-17 -0.274758)
(-1.43367e-16 1.46551e-16 0.343052)
(-7.77708e-17 8.52881e-18 -0.215595)
(-2.07617e-17 -6.192e-17 -0.517652)
(-2.3949e-17 -6.68865e-18 -0.16563)
(1.57301e-17 5.3761e-17 -0.322167)
(7.0894e-18 6.80258e-17 0.571543)
(-1.03506e-17 3.87228e-19 0.670887)
(-6.14438e-17 -1.58331e-16 1.11043)
(1.25931e-17 -2.4977e-19 0.997533)
(1.04289e-16 4.89444e-16 1.44673)
(2.70195e-16 2.66861e-17 1.48657)
(-1.33778e-17 2.68636e-17 0.29359)
(-6.64814e-17 -2.58176e-16 -0.78638)
(-1.19009e-16 5.40343e-17 -0.702644)
(1.04924e-16 -2.56548e-17 -0.467873)
(-1.1397e-16 1.16483e-16 -1.19434)
(-7.39008e-17 3.64087e-16 1.77062)
(-6.98197e-16 -1.80533e-16 3.25094)
(-5.70455e-17 -8.81654e-16 6.65605)
(-1.2038e-16 2.47493e-15 13.4226)
(-1.29332e-16 -1.24007e-16 21.5473)
(2.42346e-16 2.94484e-16 -1.36742)
(4.84874e-16 -2.45668e-16 -2.11789)
(2.83317e-16 -1.46009e-15 -4.30311)
(-1.7144e-16 -5.40647e-16 -7.33059)
(-1.67678e-16 9.74885e-16 -10.4025)
)
;

boundaryField
{
    left
    {
        type            calculated;
        value           nonuniform List<vector> 
17
(
(4.47791e-17 -4.94264e-17 0.608656)
(9.90184e-18 1.80116e-17 0.690601)
(-8.74717e-17 -9.04032e-17 0.236554)
(-1.15532e-17 -2.24963e-17 -0.220685)
(5.9264e-18 1.18669e-16 -0.508369)
(1.00828e-16 -2.09777e-17 -0.220782)
(-3.42938e-17 -3.60499e-17 -0.103164)
(-7.97803e-17 1.85909e-18 0.0417578)
(1.00717e-17 2.0415e-17 0.194294)
(3.07283e-17 4.07035e-17 0.35851)
(2.64846e-17 7.65429e-19 0.437597)
(-3.62116e-17 8.61063e-18 0.153166)
(5.53538e-17 4.00137e-17 -0.354425)
(-7.46306e-17 -7.40312e-17 -0.459613)
(-7.77708e-17 7.01829e-18 -0.329701)
(-1.03506e-17 -0 0.649633)
(-1.33778e-17 2.51243e-17 0.257296)
)
;
    }
    right
    {
        type            calculated;
        value           nonuniform List<vector> 
17
(
(4.1096e-17 -9.53748e-20 0.867829)
(-2.37505e-17 8.98672e-17 -0.700153)
(2.2928e-17 3.20471e-18 0.118924)
(-1.93178e-17 -1.61257e-16 1.28603)
(-2.13682e-17 -1.34753e-17 1.90794)
(1.96416e-17 9.23245e-17 0.842162)
(3.16509e-17 -1.42022e-16 -0.601338)
(-2.05477e-17 -1.03637e-16 -0.828015)
(2.41129e-17 6.72538e-17 -0.278426)
(4.611e-17 -4.36312e-19 0.0669497)
(-1.2108e-17 -1.00237e-16 0.399698)
(-1.33775e-18 -7.84912e-17 0.880708)
(1.60362e-17 3.9832e-17 0.159911)
(-1.60332e-17 -0 -1.69182)
(3.66703e-17 -1.77836e-16 -1.10911)
(-5.63992e-19 8.76728e-19 0.571989)
(-2.09584e-17 5.56602e-17 -0.347136)
)
;
    }
    down
    {
        type            calculated;
        value           nonuniform List<vector> 
20
(
(0 3.87228e-19 0.874954)
(-3.39313e-17 -1.58331e-16 2.24533)
(-9.18201e-17 -2.4977e-19 2.02158)
(8.50557e-18 4.89444e-16 2.55567)
(4.02856e-16 2.66861e-17 2.96961)
(7.42213e-17 3.64087e-16 3.72087)
(-8.47135e-16 -1.80533e-16 6.49165)
(-4.34489e-16 -8.81654e-16 12.3882)
(-3.23908e-16 2.47493e-15 23.3802)
(0 -1.24007e-16 36.6936)
(7.541e-16 4.27532e-16 36.7007)
(-3.44075e-15 -4.87518e-15 23.3855)
(2.2423e-16 3.64157e-16 12.402)
(1.05116e-15 6.31108e-17 6.50478)
(2.38743e-16 1.65773e-16 3.71736)
(-2.14238e-16 5.37652e-17 2.95878)
(0 -9.81216e-18 2.52336)
(-9.20412e-17 9.55009e-19 2.14365)
(8.22995e-19 1.8963e-16 1.91745)
(8.92783e-17 -4.77046e-18 1.83571)
)
;
    }
    up
    {
        type            calculated;
        value           nonuniform List<vector> 
20
(
(-2.86019e-17 -4.39608e-16 -2.88407)
(-6.81457e-18 -1.16076e-16 -1.95506)
(6.80437e-17 6.38778e-17 -1.08232)
(-7.40752e-19 -3.2678e-17 -0.924672)
(-2.08657e-19 5.56634e-17 -1.02838)
(4.6179e-16 -4.68594e-18 -5.9105)
(-1.12429e-17 -3.53036e-17 -5.59614)
(-3.39782e-18 -2.78932e-16 -5.03833)
(-1.99063e-16 -5.53225e-17 -4.36418)
(-3.08182e-16 -7.54962e-17 -3.67625)
(-5.15836e-17 2.67464e-16 -3.65709)
(3.42501e-16 3.76547e-17 -4.34927)
(2.16789e-16 4.54781e-17 -5.02586)
(-4.54209e-16 -2.49452e-16 -5.58838)
(-3.53914e-18 2.39754e-16 -5.90797)
(-7.19636e-20 1.2061e-16 -0.680804)
(2.31102e-17 -3.24831e-17 -1.23743)
(9.22403e-17 5.33244e-17 -1.02288)
(5.15732e-18 -1.31555e-16 -1.88094)
(-8.81056e-17 4.92748e-18 -2.84865)
)
;
    }
    cylinder
    {
        type            calculated;
        value           nonuniform List<vector> 
40
(
(-6.03185e-17 -1.04227e-16 1.67012)
(4.31207e-16 6.82198e-17 6.07349)
(-3.88751e-16 9.7864e-16 10.1077)
(-8.57497e-16 -2.70469e-16 13.851)
(-1.01206e-15 -1.52069e-15 17.269)
(-5.80659e-15 3.20135e-15 20.4062)
(2.00365e-15 -9.02069e-16 23.2221)
(2.78375e-16 -1.23921e-15 25.5189)
(-1.12345e-15 -1.40653e-15 27.1555)
(-9.91482e-16 -2.84428e-15 28.0115)
(2.70101e-16 1.4066e-16 20.4641)
(8.75029e-16 -7.73448e-16 23.2647)
(-9.05461e-16 3.57055e-16 25.5519)
(6.10726e-16 -7.85346e-16 27.1745)
(5.93166e-16 -2.21284e-15 28.0174)
(-5.75882e-17 -4.70124e-17 2.29653)
(-2.09692e-17 -1.01143e-16 6.40235)
(-6.66315e-16 2.42176e-16 10.3072)
(-1.00485e-16 5.30126e-16 13.9838)
(5.37157e-18 -4.25495e-18 17.3587)
(1.27292e-16 -2.13579e-16 -15.3446)
(-4.18145e-16 -4.38782e-16 -12.4024)
(1.59626e-16 3.34181e-16 -9.22713)
(-2.18913e-16 -2.69987e-17 -7.10579)
(-7.86804e-17 -2.45616e-18 -1.8126)
(4.135e-16 7.76348e-17 -24.9725)
(-3.92108e-16 1.45128e-16 -23.5591)
(6.15641e-16 1.21597e-15 -21.8227)
(8.48685e-16 4.68074e-17 -20.0578)
(2.57956e-17 3.19063e-17 -17.9485)
(4.11869e-16 1.07355e-16 -25.0269)
(4.97707e-16 1.32446e-15 -23.6681)
(4.95266e-16 6.39002e-16 -21.9305)
(-1.23879e-15 6.74049e-16 -20.1443)
(-1.15622e-15 -3.95181e-16 -18.009)
(2.99289e-16 -1.11629e-15 -15.3575)
(3.61367e-16 2.26933e-16 -12.3869)
(3.54053e-16 1.64758e-16 -9.38084)
(4.4762e-16 -1.20906e-17 -7.0751)
(-8.55195e-17 2.26577e-17 -3.49021)
)
;
    }
    defaultFaces
    {
        type            empty;
    }
}


// ************************************************************************* //
