/*--------------------------------*- C++ -*----------------------------------*\
  =========                 |
  \\      /  F ield         | OpenFOAM: The Open Source CFD Toolbox
   \\    /   O peration     | Website:  https://openfoam.org
    \\  /    A nd           | Version:  13
     \\/     M anipulation  |
\*---------------------------------------------------------------------------*/
FoamFile
{
    format      ascii;
    class       volScalarField;
    location    "39";
    object      p;
}
// * * * * * * * * * * * * * * * * * * * * * * * * * * * * * * * * * * * * * //

dimensions      [0 2 -2 0 0 0 0];

internalField   nonuniform List<scalar> 
440
(
-0.989869
-0.971903
-0.961156
-0.924151
-0.97151
-1.06685
-1.04653
-1.02104
-0.990453
-0.963553
-1.19192
-1.15577
-1.10973
-1.05065
-0.985866
-1.33502
-1.28405
-1.18464
-1.0665
-0.947748
-1.43001
-1.3589
-1.19653
-1.0286
-0.875935
-1.04468
-1.08077
-1.14804
-1.20722
-1.24202
-1.11499
-1.12294
-1.14555
-1.17595
-1.19405
-1.0946
-1.08227
-1.07493
-1.0816
-1.09186
-1.03886
-1.01928
-0.995081
-0.976161
-0.9781
-0.96739
-0.951919
-0.92595
-0.884823
-0.891014
-1.39623
-0.594272
0.251871
0.0630847
0.0180406
-1.24482
-0.865245
0.119316
-0.0270944
0.0268278
-1.25503
-1.10466
0.0231101
-0.0992291
0.0339053
-1.16292
-1.15025
-0.0210503
-0.0760881
0.0422094
-1.00372
-1.07132
-0.0303907
-0.010387
0.0406757
-0.701382
-0.825681
-0.0212815
0.0435569
0.0288128
-0.422453
-0.477803
-0.0526951
-0.0135141
0.00526345
-0.320458
-0.285665
-0.0552445
0.123883
0.0165299
-0.224927
-0.171433
-0.0652924
0.0804812
0.00697157
-0.105321
-0.187601
-0.0753264
0.110911
0.0160423
-0.620037
-0.728278
-0.861261
-1.0087
-1.12228
-0.370532
-0.482612
-0.553505
-0.596888
-0.606329
-0.201437
-0.296325
-0.352149
-0.383377
-0.403354
-0.0912468
-0.175925
-0.232026
-0.260524
-0.273499
-0.0376838
-0.119726
-0.170146
-0.187733
-0.176173
0.692321
0.536732
0.338602
0.119929
-0.11483
0.270721
0.107737
-0.0907316
-0.315606
-0.569404
-0.134048
-0.300323
-0.510378
-0.744597
-0.984006
-0.488879
-0.658922
-0.871084
-1.09934
-1.28495
-0.726836
-0.899984
-1.09894
-1.30664
-1.42822
1.74992
1.77918
1.80432
1.81496
1.8085
1.55879
1.57802
1.59065
1.58546
1.55892
1.34819
1.3345
1.29683
1.23582
1.1489
1.10882
1.07312
1.00057
0.897473
0.766613
0.901246
0.793505
0.653354
0.493459
0.302437
1.5384
1.53184
1.50505
1.57697
1.63832
1.52889
1.52144
1.48629
1.55898
1.54839
1.52053
1.50812
1.46498
1.52965
1.42959
1.5134
1.49247
1.44268
1.48363
1.2615
1.50734
1.47682
1.41982
1.4385
1.07931
1.50358
1.45151
1.39174
1.33849
0.873516
1.50197
1.42201
1.38979
1.2082
1.007
1.50799
1.40693
1.38453
1.14478
1.05884
1.5083
1.38159
1.37576
1.08287
1.08769
1.54236
1.37936
1.37283
1.04363
1.13325
0.659539
0.351274
0.0150855
-0.282554
-0.462947
0.551466
0.335507
0.112915
-0.0822569
-0.245211
0.532455
0.361885
0.199131
0.0521116
-0.0898684
0.598983
0.438364
0.286501
0.147571
0.018339
0.648635
0.482012
0.3298
0.192666
0.0677755
-1.57975
-1.44533
-1.28285
-1.14912
-1.06863
-1.68073
-1.60991
-1.47873
-1.36731
-1.2932
-1.63562
-1.58362
-1.49704
-1.41451
-1.34848
-1.51966
-1.47684
-1.42186
-1.36388
-1.30501
-1.40344
-1.38383
-1.35466
-1.31773
-1.27691
-1.38562
-1.37905
-1.35751
-1.34361
-1.26234
-1.31977
-1.31265
-1.29806
-1.29404
-1.25465
-1.413
-1.42866
-1.44645
-1.45547
-1.44893
-1.34004
-1.4054
-1.49027
-1.56735
-1.62519
-0.935934
-1.0549
-1.19346
-1.30663
-1.38809
-1.0936
0.0923039
0.273451
0.264767
-0.022361
-1.09415
0.126912
0.348319
0.271174
-0.0254647
-1.17259
0.176833
0.399221
0.252807
-0.0189866
-1.42751
0.107753
0.382309
0.187214
-0.0064786
-1.53638
-0.251163
0.331194
0.106408
0.00501009
-0.625811
-0.115248
0.18341
0.245194
-0.00335895
-0.924639
-0.00804445
0.248869
0.27204
-0.00693241
-1.0206
-1.25301
-1.2739
-1.22311
-0.991153
-1.04004
-1.25851
-1.29878
-1.2392
-1.19162
1.40433
1.3846
1.34859
1.29746
1.2298
1.59353
1.6134
1.62006
1.61159
1.58799
1.7511
1.78378
1.81081
1.82678
1.82877
1.84215
1.88048
1.92105
1.954
1.96917
1.83663
1.87197
1.91096
1.9429
1.95708
-0.634533
-0.733588
-0.887021
-1.07323
-1.28037
-0.0626222
-0.187465
-0.354742
-0.555555
-0.799894
0.454248
0.323395
0.167242
-0.0157218
-0.237341
0.867663
0.766785
0.644361
0.497138
0.322111
1.19836
1.12887
1.03952
0.933011
0.808696
1.59927
1.55892
1.54018
1.54614
1.54942
1.58415
1.55632
1.53993
1.56198
1.61289
1.57136
1.55256
1.53815
1.5828
1.68323
1.55951
1.54748
1.5314
1.59065
1.69545
1.54846
1.54097
1.51986
1.58902
1.68443
1.65558
1.56538
1.52829
1.47085
1.41329
1.60972
1.55572
1.52306
1.48941
1.43458
1.09009
0.876327
0.508469
-0.0229195
-0.60389
1.16469
0.906269
0.525208
-0.00271163
-0.596745
)
;

boundaryField
{
    left
    {
        type            zeroGradient;
    }
    right
    {
        type            fixedValue;
        value           uniform 0;
    }
    down
    {
        type            zeroGradient;
    }
    up
    {
        type            zeroGradient;
    }
    cylinder
    {
        type            zeroGradient;
    }
    defaultFaces
    {
        type            empty;
    }
}


// ************************************************************************* //
