/*--------------------------------*- C++ -*----------------------------------*\
  =========                 |
  \\      /  F ield         | OpenFOAM: The Open Source CFD Toolbox
   \\    /   O peration     | Website:  https://openfoam.org
    \\  /    A nd           | Version:  13
     \\/     M anipulation  |
\*---------------------------------------------------------------------------*/
FoamFile
{
    format      ascii;
    class       surfaceScalarField;
    location    "39";
    object      phi;
}
// * * * * * * * * * * * * * * * * * * * * * * * * * * * * * * * * * * * * * //

dimensions      [0 3 -1 0 0 0 0];

internalField   nonuniform List<scalar> 
823
(
-0.00537516
0.0177712
-0.012396
0.0117534
0.00613729
-0.0232659
0.0761498
-0.0456481
-0.0187484
0.178683
-0.113304
0.0107711
-0.155185
0.00572023
0.328148
0.00683259
0.0109386
0.0611456
-0.0481757
0.16321
-0.147712
0.28251
-0.232604
-0.306816
0.434141
0.0265239
-0.0155853
0.120163
-0.141815
0.234387
-0.261937
0.339308
-0.337525
-0.377347
0.409839
0.0489438
-0.0645291
0.147248
-0.240119
0.226598
-0.341287
0.270626
-0.381553
-0.392003
0.285282
0.0601528
-0.124682
0.128002
-0.307968
0.163947
-0.377232
0.17714
-0.394747
0.185787
-0.40065
-0.0265973
0.0771282
-0.0505308
-0.0836823
0.134487
-0.0774024
-0.140396
0.136808
-0.0800939
-0.186723
0.127082
-0.0807553
0.11632
-0.217333
-0.0857098
0.0290118
0.0481163
0.0481074
0.115392
0.0456537
0.139261
0.0351605
0.137575
0.123024
0.0284564
0.0313625
0.0167539
0.0823064
0.0644478
0.12536
0.0962077
0.155685
0.10725
0.106814
0.171895
0.011659
0.00509487
0.0467699
0.0293369
0.0926383
0.0503393
0.144905
0.0549832
0.0638238
0.187896
-0.00730117
-0.00123009
0.0303608
0.0961151
0.165659
0.212838
0.629378
-1.05955
0.59986
-1.48949
1.10246
0.5647
-1.17797
1.21313
0.520894
0.492276
-0.44847
0.262132
-0.208273
0.270456
0.387379
0.512377
-1.73141
0.584139
-1.24973
0.5366
0.539815
0.309199
0.259971
0.299302
0.368056
-1.83949
0.489239
-1.37091
0.515639
0.513416
0.334037
0.407074
0.0801244
0.407798
-1.84022
0.419854
-1.38297
0.465994
0.467276
0.310369
0.518175
-0.272391
0.467457
-1.7895
0.358424
-1.27393
0.394574
0.431126
0.198018
1.48811
-0.529333
-1.23117
1.2591
-1.56049
0.743004
-0.757841
0.696797
0.477333
0.0119579
1.46802
-0.592197
-1.40516
0.981438
-1.0739
0.527339
-0.303741
0.747039
0.257633
-0.175886
1.31087
-0.547557
-1.35551
0.857977
-0.621006
0.604594
-0.0503585
0.89098
-0.0287534
-0.235998
1.11653
-0.348066
-1.31602
0.707018
-0.211494
0.668863
-0.0122038
0.78002
-0.13991
-0.122644
0.512903
-0.860968
0.301409
0.289205
0.149295
1.10689
0.147603
-1.06871
1.18197
0.210199
1.29201
0.299806
1.33792
0.388229
0.434901
1.00575
0.0942639
-0.952411
1.08097
0.134975
1.17342
0.207363
1.29184
0.269803
0.321584
0.964772
0.0476291
-0.918137
1.02311
0.076633
1.10842
0.122056
1.22307
0.155149
0.189146
0.941483
0.00889883
-0.902753
0.996197
0.0219191
1.0801
0.0381565
1.18645
0.0487917
0.0595781
0.692523
-0.683624
0.714442
0.752598
0.80139
0.140569
0.300869
-0.246386
-0.195052
0.0944433
0.306464
-0.260338
0.0534051
0.317183
-0.276145
0.0186451
0.308167
-0.273407
0.197736
-0.179091
0.100864
0.336768
-0.136763
0.0647728
0.342555
0.0328156
0.349141
0.00772932
0.333253
0.205465
0.0701321
0.373224
-0.106588
0.0376595
0.375028
0.00998062
0.376819
-0.00542177
0.348655
0.200043
-0.00863568
0.388819
-0.00695906
-0.0257558
0.392148
-0.0342682
0.385332
-0.0267055
0.341093
0.173338
-0.0872814
0.0754504
-0.0898804
-0.0817806
-0.0486557
0.199262
0.107637
-0.252959
-0.05394
0.145015
0.111703
-0.0574562
0.0896957
0.116246
-0.0609266
0.0363619
0.115542
-0.0622081
0.0809215
-0.0445596
0.1935
0.150873
-0.236735
0.147036
0.158166
0.0953474
0.167935
0.0405115
0.170378
0.121433
0.136666
0.195335
-0.181129
0.0960194
0.198813
0.0569913
0.206963
0.0205053
0.206864
0.141938
0.152198
0.227323
-0.184185
0.113699
0.237312
0.0702054
0.250457
0.0274532
0.249616
0.169392
0.0822041
-0.101268
0.0591779
0.0334897
0.00969896
0.408072
0.0437021
-0.0557944
0.426407
0.0425164
-0.0608512
0.408669
0.208779
-0.191042
0.397492
0.207439
-0.196262
0.492403
-0.34787
0.406396
0.0332856
0.418964
0.0299487
0.39831
0.229433
0.385912
0.219837
0.64158
0.400133
0.0291327
0.412125
0.0179558
0.374715
0.266844
0.372527
0.222025
0.832978
0.397105
0.0280071
0.393424
0.0216373
0.364207
0.29606
0.355073
0.231159
1.00387
0.387649
0.0363377
0.378957
0.0303297
0.336645
0.338372
0.323918
0.243886
1.22652
0.621189
0.0191689
0.631193
0.0203262
0.686675
0.28289
0.793036
0.137524
1.034
0.98555
0.630952
-0.00776293
0.614298
0.03698
0.729898
0.16729
0.80559
0.0618323
0.80286
1.03673
0.627173
-0.0309154
0.641658
0.0224951
0.764795
0.0441531
0.800345
0.0262824
0.581412
1.02179
0.623767
-0.0506615
0.67389
-0.0276282
0.736203
-0.0181599
0.740262
0.0222232
0.300694
1.02098
0.553359
0.525731
0.507571
0.529794
0.830488
1.02728
-0.236777
1.01658
-0.126065
1.02761
-0.117621
1.0215
-0.000845282
0.0282395
0.980408
-0.180451
0.955117
-0.100775
0.928053
-0.0905575
0.934664
-0.00745629
0.0104927
0.949193
-0.107852
0.923914
-0.0754948
0.895877
-0.0625213
0.907834
-0.0194133
0.000190066
0.958156
-0.045028
0.921592
-0.0389309
0.892989
-0.0339182
0.893291
-0.0197149
-0.00927204
0.78546
0.746529
0.712611
0.692896
0.0464896
0.153808
-0.200297
0.0696366
0.327713
-0.35086
0.0698729
0.379699
-0.379935
0.0607341
0.380608
-0.371469
0.348355
0.0486405
-0.336261
0.0688091
0.0849988
0.136734
0.259788
0.168738
0.347695
0.172997
0.376348
0.364441
0.156911
0.0593281
0.0256706
0.166942
0.152174
0.253413
0.261225
0.308473
0.321288
0.363185
0.309729
0.0290352
-0.00336461
0.1268
0.0544092
0.243432
0.144593
0.354237
0.210482
0.283009
0.434414
0.00756126
-0.0109259
0.0604942
0.00147628
0.156447
0.0486401
0.269316
0.0976127
0.156321
0.396004
0.000683594
-0.0116095
0.0140312
-0.0118714
0.0566506
0.00602082
0.122434
0.031829
0.0766242
0.202131
0.00204899
-0.0136584
0.00746241
-0.0172848
0.018828
-0.00534477
0.0362758
0.0143813
0.0444139
0.0684861
0.0271676
-0.0408261
0.0521756
-0.0422927
0.0598952
-0.0130643
0.0621427
0.0121337
0.0358941
0.0706625
-0.00828989
-0.0325362
-0.0297014
-0.0208812
-0.0544497
0.011684
-0.0744562
0.0321401
0.0478169
-0.0863789
-0.083067
-0.181351
-0.249761
-0.298376
-0.336269
0.146032
1.16953
-1.11343
0.292146
-0.116569
-0.029545
0.343387
0.0286429
-0.0798836
0.225807
0.224707
-0.107128
-0.0904448
0.123191
0.0529616
1.18505
0.218793
-0.2824
0.440638
-0.193203
0.338184
0.327161
-0.0307478
-0.09783
1.35355
0.097852
-0.478082
0.539438
-0.634789
0.442524
0.424075
0.0515468
-0.16488
1.43205
0.117078
-0.76004
0.5561
-1.07381
0.512168
0.468007
0.137055
0.036231
0.378654
0.517969
0.537507
-0.101343
0.634308
-0.532965
-0.0486955
-0.0526475
0.0103908
-0.0590863
0.0584805
-0.0480897
-0.0946336
0.563878
-1.043
0.481686
0.342716
0.187498
0.0850528
-0.0124828
-0.0725699
0.135903
-0.0508498
0.230917
-0.0950142
0.368717
-0.1378
-0.164249
0.193855
-0.157697
0.299916
0.514631
0.811245
0.139836
-0.137376
0.167413
-0.169873
0.106272
-0.143011
0.176576
0.0681108
-0.150484
0.188645
0.027507
-0.150769
0.191372
-0.106454
0.133961
0.179721
-0.0979835
-0.219114
0.135869
-0.0991589
0.0865993
-0.101214
0.0358612
-0.10003
-0.0705929
0.189671
-0.04887
-0.238785
0.139023
-0.0485108
0.0867335
-0.0489252
0.0353464
-0.0486433
-0.0352465
0.201944
0.00277954
-0.253593
0.149532
0.00390146
0.0955011
0.00510534
0.0403572
0.00650063
0.00511069
0.204532
-0.255693
0.150978
0.0951564
0.0394489
0.0407488
-0.316476
-0.0605341
0.0160429
-0.346764
-0.00591609
-0.357976
-0.0150675
-0.341708
-0.215365
0.120824
-0.28573
-0.151571
0.0792014
-0.305141
0.0385013
-0.317276
0.00787216
-0.311079
-0.207493
0.139265
-0.246583
-0.178411
0.0978835
-0.263759
0.0571182
-0.276511
0.0202187
-0.27418
-0.187274
0.156784
-0.212009
-0.191359
0.114859
-0.221834
0.0699652
-0.231617
0.0274511
-0.231666
-0.159823
0.154386
-0.198982
0.109127
0.0661552
0.0258618
0.392368
0.0963442
-0.0927325
0.390284
0.105356
-0.103272
0.356093
0.162574
-0.128382
0.297908
0.0650244
-0.00684025
-0.194213
0.322248
0.400123
0.0922011
0.405717
0.099762
0.394911
0.17338
0.347269
0.112666
-0.0660579
0.405112
0.0830684
0.415706
0.0891683
0.409831
0.179255
0.372691
0.149806
0.0678488
0.408904
0.0701437
0.422122
0.0759506
0.418043
0.183334
0.391662
0.176187
0.205918
0.410329
0.425428
0.41772
0.397645
0.415814
0.0942369
0.328512
0.087302
0.239062
0.0894497
0.241894
-0.00283117
-0.177556
0.41945
0.511555
0.495585
0.456652
0.446981
0.591673
0.337478
0.0819724
0.263481
0.0739964
0.175991
0.0874902
0.102356
0.073635
0.029786
0.474664
0.357302
0.266381
0.188445
)
;

boundaryField
{
    left
    {
        type            calculated;
        value           nonuniform List<scalar> 
17
(
-0.60402
-0.60402
-0.60402
-0.60402
-0.60402
-0.39598
-0.39598
-0.39598
-0.39598
-0.39598
-0.39598
-0.39598
-0.39598
-0.39598
-0.39598
-0.510051
-0.510051
)
;
    }
    right
    {
        type            calculated;
        value           nonuniform List<scalar> 
17
(
0.153114
0.216056
0.193061
0.278487
0.360229
0.42666
0.466288
0.467034
0.489534
0.4908
0.489662
0.506926
0.882857
0.934883
0.951092
0.666666
0.0266506
)
;
    }
    down
    {
        type            calculated;
        value           uniform 0;
    }
    up
    {
        type            calculated;
        value           uniform 0;
    }
    cylinder
    {
        type            calculated;
        value           uniform 0;
    }
    defaultFaces
    {
        type            empty;
    }
}


// ************************************************************************* //
