/*--------------------------------*- C++ -*----------------------------------*\
  =========                 |
  \\      /  F ield         | OpenFOAM: The Open Source CFD Toolbox
   \\    /   O peration     | Website:  https://openfoam.org
    \\  /    A nd           | Version:  13
     \\/     M anipulation  |
\*---------------------------------------------------------------------------*/
FoamFile
{
    format      ascii;
    class       volVectorField;
    location    "39";
    object      U;
}
// * * * * * * * * * * * * * * * * * * * * * * * * * * * * * * * * * * * * * //

dimensions      [0 1 -1 0 0 0 0];

internalField   nonuniform List<vector> 
440
(
(-0.0882992 0.0604838 -7.08521e-20)
(-0.108794 0.0726924 5.16461e-20)
(0.0650396 0.0406411 1.41637e-19)
(0.518173 0.0238093 2.18232e-20)
(0.58908 0.120908 2.02e-20)
(-0.0988484 0.0561898 4.62567e-20)
(0.0790333 0.00949308 -1.3697e-19)
(0.633564 -0.0495873 -1.33888e-19)
(1.21317 -0.0844561 7.71193e-20)
(1.76521 -0.114845 2.03113e-20)
(-0.0166758 0.00354805 5.608e-20)
(0.585315 -0.0544285 8.18316e-19)
(1.41039 -0.0575328 -5.21843e-19)
(2.01347 -0.0428961 -1.6675e-18)
(2.48667 -0.0373641 7.00096e-19)
(0.219115 -0.0495156 -1.8057e-19)
(1.29447 -0.0023715 -5.94594e-19)
(2.06531 0.0531976 1.94904e-18)
(2.45315 0.0802142 2.13585e-18)
(2.48548 0.0858556 -6.03976e-19)
(0.605811 -0.00321413 -3.12089e-19)
(1.81129 0.177098 -6.72482e-19)
(2.33438 0.241733 2.05635e-18)
(2.45586 0.245851 2.19984e-18)
(2.54862 0.220089 7.37669e-19)
(-0.0435894 0.526965 1.54118e-19)
(-0.222584 0.748295 4.25883e-19)
(-0.371181 0.668945 -7.27874e-19)
(-0.4697 0.612687 9.15725e-20)
(-0.511115 0.604743 5.8686e-19)
(-0.0600177 0.440548 -3.76148e-20)
(-0.0810994 0.905728 -1.96112e-19)
(-0.104418 0.986247 -2.55494e-20)
(-0.119175 0.902655 -2.13476e-20)
(-0.103629 0.775613 3.28844e-20)
(-0.0501562 0.176439 8.98142e-20)
(-0.0577593 0.597636 -1.33992e-19)
(-0.0343338 0.832299 8.44516e-20)
(0.00476572 0.900235 -1.51916e-19)
(0.0749359 0.861694 5.96683e-21)
(-0.0157501 0.0286539 -3.52214e-20)
(-0.0613455 0.242249 8.84424e-20)
(-0.0579856 0.460037 1.55573e-20)
(-0.0102748 0.588358 -1.82907e-19)
(0.0369863 0.679898 2.1331e-20)
(-0.0371396 0.0234942 -5.30187e-20)
(-0.121664 0.100242 -7.73593e-20)
(-0.141809 0.197064 -2.07207e-19)
(-0.024206 0.264566 1.17168e-19)
(0.044359 0.393278 -1.06296e-19)
(-0.753878 0.604233 1.33164e-18)
(1.82761 -0.857534 2.17037e-18)
(1.21102 -0.820667 3.06967e-19)
(1.42981 0.338449 -5.98946e-19)
(1.17946 0.165672 3.00932e-20)
(-0.0855758 0.319289 -3.7916e-19)
(1.56003 -1.16516 -3.80266e-19)
(1.33729 -0.863582 1.3514e-19)
(1.46204 0.319819 7.20293e-19)
(1.23601 0.18352 -4.31107e-20)
(0.175563 0.177668 -1.36318e-19)
(1.44956 -1.28629 1.53299e-18)
(1.05353 -0.893732 -1.04279e-19)
(1.37232 0.35734 2.06282e-19)
(1.23901 0.215584 1.00259e-21)
(0.624395 0.206396 3.89031e-19)
(1.96271 -1.2206 -1.69484e-19)
(1.0746 -0.942201 4.61393e-20)
(1.14591 0.301167 2.81327e-19)
(1.23614 0.20818 -2.05901e-20)
(1.29273 -0.109736 -2.1692e-19)
(2.43326 -1.16291 6.542e-19)
(1.25571 -0.829338 0)
(0.749144 0.309965 -2.93035e-19)
(1.27991 0.167992 1.41756e-20)
(2.0134 -0.235129 -4.85709e-19)
(2.75974 -0.950808 -4.07969e-20)
(1.55507 -0.705743 -2.00816e-20)
(0.837346 0.226118 -1.94481e-20)
(1.46155 0.0478714 -8.32597e-20)
(2.28419 -0.406356 2.36466e-20)
(2.50586 -0.945569 9.69187e-19)
(0.819369 -0.271054 -1.12348e-20)
(0.898693 0.329959 1.42884e-19)
(1.54771 -0.0345279 0)
(2.21067 -0.364258 -3.32621e-19)
(2.14373 -0.426014 6.17788e-21)
(0.717282 -0.0959708 -2.66094e-20)
(1.31839 0.0219128 -8.20076e-20)
(1.57476 -0.175825 2.25345e-21)
(2.20749 -0.316237 7.61329e-20)
(1.51478 -0.331936 1.15017e-19)
(0.823555 0.0316048 -1.7832e-20)
(1.42978 -0.0666157 -9.50146e-35)
(1.10384 -0.127584 -7.90758e-21)
(1.20191 -0.0934212 1.69213e-19)
(0.455861 0.0503566 -9.39856e-21)
(0.562053 -0.0476368 -1.2256e-20)
(0.426487 -0.0951359 1.76894e-20)
(0.0442523 -0.0191947 -8.0114e-21)
(2.38362 0.223226 -9.14241e-19)
(2.62041 0.010404 -1.1297e-18)
(2.42715 0.0254698 8.68357e-19)
(2.74817 -0.161289 4.88595e-20)
(2.13813 -0.0238777 -1.68673e-20)
(2.06901 0.156853 4.52042e-20)
(2.4118 -0.0133943 -3.86175e-20)
(2.21224 -0.0263158 -1.2527e-19)
(2.44564 -0.175013 -2.18938e-19)
(2.33171 -0.246839 -4.73102e-21)
(2.08748 0.0783584 6.36612e-20)
(2.20072 -0.0115874 1.06187e-19)
(2.20266 -0.0627869 -1.41657e-19)
(2.22523 -0.13318 4.50255e-20)
(2.26519 -0.205244 2.73491e-20)
(2.0845 0.0118613 1.07481e-19)
(2.11579 -0.0444468 1.10035e-19)
(2.15896 -0.0707911 -1.74186e-20)
(2.16629 -0.122699 -1.11829e-20)
(2.18641 -0.156659 2.71306e-20)
(1.57514 -0.0275683 1.47926e-19)
(1.51155 -0.0284717 -1.2466e-20)
(1.55284 -0.0447421 2.65443e-20)
(1.45593 -0.0427665 -1.10121e-20)
(1.49466 -0.067016 3.249e-20)
(1.55473 0.816486 1.13453e-18)
(1.51918 0.921845 -3.76927e-19)
(1.52645 1.058 -1.36077e-18)
(1.45421 1.1059 7.26829e-19)
(0.885583 0.788133 -1.65555e-19)
(1.86118 0.802749 -5.73811e-19)
(1.82534 0.876803 -3.02252e-18)
(1.82804 0.980607 -1.16271e-18)
(1.73728 0.991987 -4.03478e-19)
(1.05609 0.691047 -6.56013e-19)
(2.14903 0.661501 7.54206e-19)
(2.13953 0.736585 1.95859e-19)
(2.11823 0.827794 -2.28332e-18)
(1.97947 0.816054 -6.41341e-19)
(1.16748 0.540454 4.74293e-19)
(2.33911 0.554516 2.26344e-18)
(2.31699 0.602225 1.68893e-18)
(2.31188 0.655325 -1.95861e-18)
(2.10059 0.615879 -1.49312e-18)
(1.15052 0.35815 -2.74087e-19)
(2.46321 0.392336 1.15094e-18)
(2.49335 0.418343 -8.15973e-19)
(2.39982 0.444152 5.90664e-19)
(2.06306 0.391729 4.68304e-19)
(0.972653 0.160522 -3.99803e-19)
(0.575796 0.484097 -6.48727e-19)
(0.482617 0.52119 -4.89932e-19)
(0.363234 0.557508 5.33605e-20)
(0.225828 0.555573 -4.00873e-21)
(0.0553908 0.389586 7.96354e-20)
(0.679381 0.63906 8.04992e-20)
(0.614285 0.69365 -2.92318e-19)
(0.524634 0.758011 1.74177e-19)
(0.399934 0.815845 -8.15218e-20)
(0.17444 0.617949 1.15894e-19)
(0.772316 0.855006 1.19046e-19)
(0.701923 0.938433 4.45065e-19)
(0.646704 1.03052 1.13931e-19)
(0.560428 1.05816 -3.00736e-19)
(0.305553 0.769417 2.5365e-19)
(1.04309 0.89897 2.25518e-19)
(0.993285 0.979371 -7.23675e-19)
(0.947612 1.0811 -1.919e-18)
(0.868917 1.14874 7.59569e-19)
(0.509973 0.845351 -1.55272e-19)
(1.12438 0.973037 -9.06457e-20)
(1.15767 1.08723 -1.65679e-19)
(1.17646 1.1914 -3.77006e-19)
(1.11922 1.20397 -4.18714e-19)
(0.683597 0.850682 -6.5245e-21)
(1.01431 0.0379184 -8.50994e-20)
(1.0072 0.0374431 -2.79195e-20)
(1.03871 0.142979 -1.4233e-21)
(0.940668 0.139343 -1.73205e-19)
(0.908537 0.297184 2.93648e-19)
(1.00362 0.0337086 5.27821e-20)
(1.02642 0.0342393 1.06916e-19)
(1.0158 0.155647 1.15476e-19)
(0.98646 0.162534 2.43104e-20)
(0.935044 0.381687 -6.59589e-21)
(1.01428 0.0316913 6.98175e-20)
(1.00637 0.0263647 -4.28205e-21)
(1.06007 0.176711 -3.6459e-21)
(0.93008 0.160086 1.27412e-19)
(1.14892 0.525426 -4.73326e-19)
(1.01431 0.0296822 -2.57205e-22)
(1.01924 0.0193178 -1.52601e-19)
(1.03762 0.200992 -5.73595e-20)
(1.03696 0.149931 -3.34772e-19)
(1.16924 0.587506 7.98611e-20)
(1.0212 0.0220008 -1.08141e-20)
(1.00097 0.0260554 4.26986e-20)
(1.08418 0.196288 2.60893e-20)
(1.02115 0.177067 4.23581e-19)
(1.37922 0.712145 -4.69758e-19)
(0.999123 0.025273 -4.41212e-21)
(1.0417 0.00500556 9.21089e-20)
(1.04909 0.22545 -4.85473e-20)
(1.27658 0.0911744 9.64463e-19)
(1.30385 0.786053 -3.25317e-19)
(0.95644 -0.00239924 -1.28581e-21)
(1.10485 0.0185434 -7.9307e-20)
(0.96265 0.137116 5.17373e-21)
(1.42456 0.0687083 -3.44569e-19)
(1.32084 0.57339 -8.19254e-20)
(0.979061 -0.00631606 6.52153e-21)
(1.06399 0.0306044 1.30811e-35)
(1.1025 0.0693748 -1.22491e-20)
(1.37832 0.0149977 1.09343e-19)
(1.36895 0.40548 1.66628e-19)
(1.02812 -0.0356446 3.77065e-21)
(0.997433 -0.00525853 -2.42851e-20)
(1.28487 -0.0161634 2.11448e-20)
(1.08838 0.0151682 2.03913e-20)
(1.46286 0.306953 -2.48886e-19)
(0.944334 -0.021256 -3.68889e-20)
(0.845108 -0.0267586 -1.29243e-21)
(0.944324 -0.00602207 2.63458e-20)
(0.675904 0.00985853 -2.2811e-20)
(1.16876 0.0840456 -5.66564e-20)
(1.79693 0.579185 2.74661e-19)
(1.89614 0.640626 7.21084e-19)
(2.16016 0.479091 -1.03594e-18)
(2.21756 0.476452 1.68475e-20)
(2.43642 0.265562 4.30576e-19)
(1.78714 0.376754 9.16964e-20)
(1.77293 0.440879 9.74494e-19)
(2.03893 0.314702 1.09248e-19)
(1.93751 0.328657 -8.51758e-19)
(2.26928 0.154819 -2.71498e-19)
(1.70846 0.299813 -2.22457e-19)
(1.77126 0.304722 -1.41542e-19)
(1.92553 0.226913 2.3057e-19)
(1.93917 0.208028 -2.67605e-19)
(2.10357 0.107886 2.44831e-19)
(1.68885 0.190565 3.84325e-19)
(1.80391 0.170534 1.34879e-21)
(1.87488 0.111758 2.05425e-19)
(1.96348 0.0925158 1.61931e-19)
(2.01966 0.0311785 -1.63647e-19)
(1.37803 0.0415714 -5.09909e-20)
(1.48053 0.0226807 2.40075e-19)
(1.49589 0.00820503 9.69538e-20)
(1.56023 -0.00681949 -1.96355e-19)
(1.52856 -0.0141129 5.75523e-22)
(1.17871 -0.0167605 7.45885e-20)
(2.18351 -0.0284042 -4.75545e-19)
(2.40677 -0.0186862 1.29415e-18)
(2.38692 0.0203547 5.86118e-19)
(2.19649 0.0406724 -4.10506e-19)
(0.776923 0.105261 1.58228e-19)
(1.97003 0.115295 -5.10355e-19)
(2.40164 0.121198 -7.18446e-19)
(2.42443 0.12692 9.40887e-19)
(2.19619 0.112196 -6.6768e-19)
(0.297003 0.104699 1.4943e-21)
(1.3957 0.195261 6.05586e-19)
(2.10047 0.2288 8.37951e-20)
(2.44536 0.226338 8.43183e-19)
(2.50599 0.210162 4.40461e-19)
(0.0192004 0.0141965 2.05523e-19)
(0.605012 0.148692 2.29391e-19)
(1.379 0.234996 -6.66684e-19)
(1.85703 0.277353 6.02935e-20)
(2.37291 0.302859 4.94332e-19)
(-0.0466748 -0.0349732 1.11733e-19)
(0.127345 0.039034 -1.60179e-19)
(0.608556 0.150648 -1.40543e-19)
(1.07248 0.216191 1.49276e-19)
(1.54567 0.322526 8.03368e-20)
(-0.0604486 -0.0734936 2.58758e-20)
(-0.0672122 -0.0809879 8.45607e-20)
(0.0879993 -0.0256156 1.23197e-19)
(0.308525 0.0751716 -4.33025e-19)
(0.734089 0.182111 4.00744e-21)
(-0.0166356 -0.0252758 -6.39877e-22)
(-0.00138314 -0.0255356 -7.36879e-20)
(0.0577948 0.0317863 -5.76249e-20)
(0.142547 0.131834 6.77863e-20)
(0.328551 0.282996 6.34314e-20)
(-0.0366538 -0.170152 2.45577e-20)
(0.0239849 -0.262329 -2.70811e-19)
(0.088153 -0.199899 2.21256e-19)
(0.124304 -0.0909826 -6.39029e-20)
(0.174949 0.039986 4.05686e-20)
(-0.0838676 -0.347436 1.35425e-19)
(-0.126646 -0.275597 7.55338e-19)
(-0.113025 0.0194181 -1.65583e-18)
(-0.124461 0.22948 -1.16937e-18)
(-0.102104 0.367136 1.50176e-19)
(-0.107749 0.0338038 -1.00439e-19)
(-0.417581 0.146003 2.96844e-19)
(-0.589131 0.274527 -7.86591e-20)
(-0.668189 0.352895 -5.42084e-20)
(-0.691698 0.422794 2.6344e-19)
(1.10191 0.726077 -6.36691e-20)
(0.292495 -0.0287623 7.83264e-19)
(1.2806 0.0590297 -8.15289e-20)
(0.644574 0.11693 2.88946e-20)
(0.488241 -0.072557 -3.12805e-21)
(1.00662 0.859619 1.94467e-19)
(-0.327802 -0.142243 -7.81027e-20)
(1.36247 0.00422277 -4.30609e-19)
(0.981643 0.199087 1.66253e-20)
(0.704044 -0.0356261 -1.31117e-20)
(0.859847 0.770329 -5.03854e-19)
(-1.10174 -0.225019 -2.24761e-19)
(1.43023 -0.224538 1.28201e-20)
(1.27796 0.272345 -3.63238e-19)
(0.910414 0.0140226 7.79418e-21)
(0.248341 1.03869 7.6506e-19)
(-0.81694 -0.413819 -3.93031e-18)
(1.17855 -0.610053 -8.93452e-20)
(1.44794 0.334995 -1.39498e-20)
(1.07795 0.0781874 3.53047e-20)
(-0.659503 0.880001 -4.29022e-20)
(0.870357 -0.705134 -4.96284e-19)
(0.888363 -0.851872 1.53683e-19)
(1.50459 0.306182 4.0387e-20)
(1.17777 0.124217 7.54772e-20)
(-0.047582 0.140351 -1.32282e-19)
(-0.333322 -0.150044 0)
(0.136053 -0.0883983 -2.47313e-20)
(-0.0923743 -0.0429609 3.81931e-20)
(0.300722 -0.0258479 -1.07457e-20)
(1.56653 0.594502 0)
(0.737215 0.094896 0)
(1.09646 0.0242039 2.64102e-19)
(0.273185 -0.0107489 4.49847e-20)
(0.424209 -0.0897162 2.88954e-20)
(0.708687 0.00241665 -1.28425e-19)
(0.72849 -0.00240331 2.5412e-19)
(0.930346 0.0108365 -4.94391e-20)
(0.853918 0.0171861 3.41656e-19)
(1.25137 0.121013 2.27476e-19)
(1.59652 0.0315867 1.22508e-19)
(1.71124 0.0750408 3.70899e-19)
(1.8737 0.0954288 -6.36743e-19)
(2.30498 0.224433 1.8679e-19)
(2.14636 0.251276 4.10824e-19)
(0.899306 -0.473946 -1.96953e-20)
(0.886352 -0.563311 -1.72935e-19)
(0.875552 -0.659909 -1.20127e-19)
(0.805831 -0.727774 7.34037e-20)
(0.493266 -0.573433 1.32408e-19)
(0.79433 -0.374788 1.17309e-19)
(0.739904 -0.440062 2.16059e-19)
(0.669236 -0.51256 -5.93819e-20)
(0.560648 -0.575684 1.44981e-19)
(0.308851 -0.462523 5.34238e-20)
(0.650182 -0.233942 -1.33555e-19)
(0.565672 -0.274207 -5.67017e-20)
(0.465229 -0.323561 8.96407e-20)
(0.344437 -0.36759 -2.16762e-20)
(0.153614 -0.29898 -1.29034e-19)
(0.550586 -0.00177173 -4.30222e-19)
(0.464275 -0.0165365 -3.5147e-19)
(0.353037 -0.0386561 2.83612e-19)
(0.225337 -0.0690308 1.62454e-19)
(0.0621153 -0.0795892 1.34409e-20)
(0.524979 0.204331 -1.48304e-19)
(0.43853 0.205501 -1.58795e-19)
(0.32104 0.205858 -5.55371e-20)
(0.183113 0.211509 3.36296e-20)
(0.0269982 0.155097 1.22896e-20)
(1.9802 -0.0359527 8.24892e-19)
(2.22772 -0.0996637 2.7822e-19)
(2.31332 -0.181904 -7.31365e-19)
(2.17692 -0.207816 -1.52066e-18)
(1.32 -0.184031 1.31047e-19)
(1.94554 -0.120943 1.34699e-18)
(2.04765 -0.229946 1.79275e-18)
(2.07428 -0.348681 1.51693e-19)
(1.9984 -0.406143 2.68418e-19)
(1.28437 -0.355984 -1.77629e-19)
(1.67413 -0.280409 -3.46581e-18)
(1.74113 -0.396499 3.75149e-19)
(1.79064 -0.519759 1.09763e-18)
(1.73474 -0.592096 -4.08804e-19)
(1.12947 -0.499849 6.50679e-19)
(1.46176 -0.402494 8.32109e-19)
(1.48592 -0.501352 -2.2159e-18)
(1.48089 -0.618238 -2.52014e-18)
(1.41729 -0.702087 7.66772e-19)
(0.917429 -0.576637 5.28177e-19)
(1.18791 -0.459937 1.76917e-19)
(1.15242 -0.553752 2.55954e-19)
(1.14637 -0.673479 -3.84893e-19)
(1.09287 -0.757636 -4.63782e-19)
(0.695289 -0.602964 -4.30669e-21)
(1.07195 0.0514495 7.1798e-21)
(0.938271 0.060421 -4.31248e-22)
(1.10914 0.0842952 7.08586e-21)
(0.818248 0.00859765 -2.4704e-19)
(1.06664 -0.19462 -1.78314e-20)
(1.081 0.0526232 -2.36726e-21)
(0.934441 0.0579777 2.92285e-20)
(1.11125 0.102729 -9.59503e-21)
(0.897984 0.0571749 1.94726e-19)
(0.977448 -0.0805613 -1.0739e-21)
(1.07805 0.0474828 -5.63265e-20)
(0.937767 0.0541486 -4.97444e-23)
(1.09782 0.106582 -1.12749e-20)
(0.901401 0.0791385 1.11449e-19)
(0.944796 -0.0184356 -2.32565e-19)
(1.05756 0.0446152 6.71881e-20)
(0.963338 0.0486923 2.9212e-21)
(1.06666 0.115502 2.49398e-20)
(0.930417 0.104097 -5.11008e-20)
(0.864056 0.0886855 7.33056e-20)
(1.02981 0.0400271 1.66473e-20)
(0.995973 0.0460037 -2.37684e-20)
(1.03551 0.123841 3.74727e-20)
(0.955239 0.129436 3.76143e-20)
(0.843166 0.192608 -6.72523e-20)
(0.891599 0.0339171 0)
(0.712215 0.0283691 9.41626e-21)
(0.591629 0.0222126 6.48579e-21)
(0.338919 -0.00559539 4.45029e-20)
(0.650015 -0.0511311 -1.54244e-19)
(1.03888 0.0733152 -6.40874e-20)
(0.947118 0.0753768 -6.44481e-21)
(1.01198 0.0835861 -5.83604e-20)
(0.799675 0.00124031 -1.46205e-19)
(1.00884 -0.18166 -1.66104e-19)
(0.897439 -0.065913 -3.63753e-20)
(0.985328 -0.0325956 5.31666e-19)
(1.07456 0.035015 3.12976e-19)
(0.954246 0.0508007 3.19536e-20)
(0.742683 0.0270907 0)
(1.24986 -0.306666 3.48272e-19)
(1.36371 -0.271044 1.49276e-18)
(1.53498 -0.152936 -1.60814e-18)
(1.63146 -0.0211878 -4.97465e-19)
(1.54066 0.0268857 3.86729e-19)
)
;

boundaryField
{
    left
    {
        type            fixedValue;
        value           uniform (1 0 0);
    }
    right
    {
        type            zeroGradient;
    }
    down
    {
        type            noSlip;
    }
    up
    {
        type            noSlip;
    }
    cylinder
    {
        type            noSlip;
    }
    defaultFaces
    {
        type            empty;
    }
}


// ************************************************************************* //
