# Selection   : all
# Cells       : 440
# Volume      : 7.374263e+01
# Time        	maxMag(U)
2.7           	2.758737e+00
2.75          	2.769676e+00
2.8           	2.779760e+00
