/*--------------------------------*- C++ -*----------------------------------*\
  =========                 |
  \\      /  F ield         | OpenFOAM: The Open Source CFD Toolbox
   \\    /   O peration     | Website:  https://openfoam.org
    \\  /    A nd           | Version:  13
     \\/     M anipulation  |
\*---------------------------------------------------------------------------*/
FoamFile
{
    format      ascii;
    class       volScalarField;
    location    "0.555";
    object      p;
}
// * * * * * * * * * * * * * * * * * * * * * * * * * * * * * * * * * * * * * //

dimensions      [0 2 -2 0 0 0 0];

internalField   nonuniform List<scalar> 
440
(
7.8351
10.5915
12.9543
13.1369
10.1623
20.7275
24.1108
27.1063
27.8071
25.9198
41.2649
44.2962
46.9993
47.792
46.6313
67.3981
69.4959
71.4093
72.066
71.3786
96.6747
97.4917
98.2887
98.6888
98.6552
-0.434907
-0.534126
-0.0621799
0.49784
0.839491
-1.68106
-2.34387
-2.08023
-1.38277
-0.744844
-2.03145
-2.91129
-2.82979
-2.07211
-0.953365
-0.683195
-0.815056
-0.407954
0.558267
2.42438
3.08766
4.39929
5.82929
7.26201
9.51295
2.09828
2.28129
1.36016
0.69569
0.237514
1.06597
2.08713
1.23817
0.637617
0.223453
-0.0865953
1.67285
1.10226
0.59077
0.21406
-0.392844
1.06997
0.89143
0.548939
0.208179
1.51792
0.48416
0.605248
0.500161
0.204193
4.39071
0.257104
0.336138
0.445467
0.185695
6.73103
0.714832
0.432717
0.440276
0.122255
9.99391
2.45566
1.08422
0.564318
0.0855793
13.8844
4.762
2.13924
0.832746
0.0861635
16.621
7.12585
3.46213
1.30485
0.176879
100.699
75.8507
53.3352
33.1607
12.3582
102.395
78.953
57.5478
39.0677
23.4939
104.296
82.7128
62.4855
45.245
32.8981
105.179
85.0322
66.5143
51.1954
40.6692
105.097
84.7548
66.3401
51.2629
40.9088
219.88
216.401
216.108
218.225
220.958
202.7
200.234
200.493
203.234
206.526
180.552
178.779
179.143
181.565
184.444
154.753
153.41
153.615
155.209
157.105
126.872
126.158
126.098
126.558
127.15
235.58
236.009
236.648
237.072
236.817
236.16
236.796
237.353
237.331
236.378
234.959
235.935
236.351
236.079
235.091
230.073
231.674
232.239
232.376
232.285
221.585
223.449
224.462
225.672
227.027
235.749
234.727
234.904
234.117
234.269
235.718
234.712
234.85
234.075
234.802
235.708
234.673
234.792
234.194
235.328
235.709
234.611
234.789
234.451
234.919
235.713
234.53
234.861
234.651
232.228
235.722
234.392
234.913
234.429
228.733
235.906
234.254
234.801
233.942
226.366
236.802
234.022
234.166
232.253
223.345
240.837
234.004
232.983
229.787
219.668
249.806
234.728
231.765
227.241
216.915
217.77
196.244
175.037
151.744
126.457
207.377
191.381
172.336
150.432
126.662
198.889
186.209
168.626
148.098
126.344
191.753
180.793
165.11
146.272
125.931
191.535
180.774
165.365
146.672
126.161
96.404
95.5272
95.0795
94.3126
94.156
57.3242
55.3772
53.6718
51.7501
50.9842
29.4949
27.1516
24.3889
22.09
20.7656
15.0436
12.6271
10.1617
8.1415
7.17105
9.21463
7.32698
5.94001
4.96443
4.37734
5.98547
4.88326
4.303
4.21387
4.30204
4.07935
3.61921
3.54611
3.70108
3.85446
2.77491
2.75945
2.9917
3.29433
3.45252
1.67425
1.97802
2.42818
2.77847
2.9232
0.627804
1.02491
1.59685
1.99805
2.17185
3.62386
3.19213
2.08077
0.98
0.286224
3.67765
3.02153
1.98865
0.924446
0.274664
3.48024
2.76152
1.86006
0.872562
0.264598
3.16143
2.51978
1.6984
0.818373
0.255216
2.74464
2.37265
1.51812
0.759693
0.249013
4.49178
3.17664
1.99412
1.01977
0.317319
3.75473
3.26998
2.08339
1.01496
0.29955
94.9116
54.1543
27.5178
14.4949
9.47508
93.6904
51.145
22.9947
9.47968
5.26955
232.144
232.225
232.175
231.66
230.583
232.733
232.906
233.136
233.175
232.8
233.295
233.467
233.854
234.251
234.422
233.891
234.042
234.445
235.047
235.465
234.631
234.867
235.37
235.981
236.239
141.986
141.794
140.966
140.456
139.544
185.219
184.41
182.431
180.665
178.687
215.517
214.147
211.797
208.983
206.609
229.152
228.145
226.095
223.597
221.152
232
231.385
230.414
229.032
227.133
238.822
234.449
234.552
233.51
232.899
237.121
234.489
234.641
233.68
232.918
236.36
234.577
234.744
233.903
233.248
235.995
234.659
234.846
234.1
233.623
235.822
234.711
234.909
234.175
233.934
252.26
235.787
234.908
233.445
231.984
243.167
234.695
234.489
233.389
232.702
226.938
221.864
208.757
182.042
141.236
231.135
226.893
213.311
185.065
142.459
)
;

boundaryField
{
    left
    {
        type            zeroGradient;
    }
    right
    {
        type            fixedValue;
        value           uniform 0;
    }
    down
    {
        type            zeroGradient;
    }
    up
    {
        type            zeroGradient;
    }
    cylinder
    {
        type            zeroGradient;
    }
    defaultFaces
    {
        type            empty;
    }
}


// ************************************************************************* //
