/*--------------------------------*- C++ -*----------------------------------*\
  =========                 |
  \\      /  F ield         | OpenFOAM: The Open Source CFD Toolbox
   \\    /   O peration     | Website:  https://openfoam.org
    \\  /    A nd           | Version:  13
     \\/     M anipulation  |
\*---------------------------------------------------------------------------*/
FoamFile
{
    format      ascii;
    class       volVectorField;
    location    "0.555";
    object      U;
}
// * * * * * * * * * * * * * * * * * * * * * * * * * * * * * * * * * * * * * //

dimensions      [0 1 -1 0 0 0 0];

internalField   nonuniform List<vector> 
440
(
(0.218261 -0.176696 -1.81105e-19)
(0.61308 -0.436661 1.07882e-18)
(0.984291 -0.640908 4.23325e-19)
(1.32754 -0.795388 1.24257e-18)
(1.63256 -0.916742 -2.59998e-19)
(0.304894 -0.177684 -5.44499e-19)
(0.819134 -0.428701 -1.01957e-18)
(1.27997 -0.618902 1.14515e-19)
(1.6919 -0.761638 -1.21516e-18)
(2.05374 -0.875109 -1.02099e-18)
(0.38488 -0.152407 -6.98073e-19)
(1.00468 -0.363015 1.58977e-18)
(1.53976 -0.518386 -1.93465e-18)
(2.00471 -0.632633 1.37939e-18)
(2.40594 -0.721475 1.42986e-18)
(0.445867 -0.102745 5.62393e-19)
(1.14609 -0.243084 -1.29951e-18)
(1.73744 -0.344812 -7.50806e-19)
(2.24294 -0.418221 1.96655e-18)
(2.67446 -0.474463 2.50018e-18)
(0.479256 -0.0361583 6.86907e-19)
(1.22363 -0.0847543 1.69139e-19)
(1.8459 -0.119363 2.53132e-18)
(2.37402 -0.143864 -1.06202e-18)
(2.82295 -0.162494 -4.83733e-19)
(-0.000881094 -0.0516889 2.76594e-19)
(0.0501578 -0.144385 -3.85666e-19)
(0.106088 -0.222457 1.1088e-18)
(0.171626 -0.292328 -1.76479e-19)
(0.239792 -0.353942 -1.59782e-18)
(0.0137131 -0.0843289 -2.62173e-19)
(0.0893287 -0.227864 -4.23001e-19)
(0.174152 -0.350213 1.10865e-19)
(0.268448 -0.45013 5.97808e-20)
(0.364728 -0.53023 -3.61566e-20)
(0.0433379 -0.114269 7.05344e-20)
(0.165462 -0.30318 5.25427e-19)
(0.296166 -0.467392 9.49194e-20)
(0.432868 -0.598838 1.46074e-18)
(0.567927 -0.697381 -2.49902e-20)
(0.0866186 -0.140999 6.69248e-20)
(0.276371 -0.367825 -3.47549e-20)
(0.469492 -0.563003 2.17795e-19)
(0.661407 -0.7185 -2.03727e-18)
(0.844117 -0.830416 9.57508e-19)
(0.142125 -0.161724 -2.35887e-19)
(0.420082 -0.412852 -4.427e-19)
(0.691401 -0.621471 -7.70654e-19)
(0.950145 -0.782399 9.53712e-19)
(1.1852 -0.892816 3.455e-18)
(0.592848 -0.591709 -4.06294e-18)
(0.962449 -0.516582 1.02881e-18)
(1.29328 -0.211579 3.7189e-19)
(1.48487 -0.0378263 -6.04417e-19)
(1.55643 -0.00174691 -8.21363e-20)
(0.78559 -0.743189 4.83872e-18)
(1.04402 -0.623016 -3.13328e-19)
(1.31916 -0.283473 -1.41597e-19)
(1.52391 -0.0780203 3.90247e-19)
(1.614 -0.0187312 1.56835e-19)
(1.03654 -0.877853 1.53949e-18)
(1.17867 -0.709071 4.04885e-18)
(1.34371 -0.353061 6.76285e-20)
(1.53325 -0.118094 4.16092e-19)
(1.61613 -0.034822 -4.95733e-20)
(1.33057 -0.988546 1.2221e-18)
(1.35934 -0.770776 -4.19503e-19)
(1.38886 -0.412712 -7.74085e-19)
(1.51845 -0.15147 -2.93438e-19)
(1.60861 -0.0487578 2.65773e-20)
(1.62986 -1.04739 3.30261e-21)
(1.5554 -0.81092 -1.70331e-18)
(1.44905 -0.461368 0)
(1.48729 -0.197155 2.73073e-19)
(1.55115 -0.0633765 4.57192e-20)
(2.15625 -1.11523 -1.57894e-18)
(1.83409 -0.800795 -4.93974e-19)
(1.55945 -0.454024 -1.01649e-20)
(1.4179 -0.198084 6.06543e-20)
(1.37499 -0.063987 -2.17096e-19)
(2.63266 -0.889753 -1.61218e-18)
(1.9002 -0.59101 2.97555e-18)
(1.4334 -0.318022 6.11417e-21)
(1.16505 -0.145456 2.03394e-19)
(1.10763 -0.0467968 0)
(2.47862 -0.522808 -6.92746e-18)
(1.60563 -0.338886 -1.49255e-19)
(1.14914 -0.178117 1.99083e-18)
(0.896485 -0.0874758 -3.18705e-19)
(0.818984 -0.0301362 -4.47744e-20)
(1.76238 -0.219986 6.8357e-18)
(1.08881 -0.135716 1.24775e-18)
(0.751841 -0.0675995 2.24224e-19)
(0.573331 -0.0350196 2.89162e-33)
(0.505585 -0.0134543 -7.86273e-20)
(0.683158 0.000161983 1.55231e-18)
(0.395287 0.0235424 7.12994e-19)
(0.267615 0.0240525 -5.17847e-19)
(0.206111 0.0144479 2.20852e-19)
(0.177283 0.00510434 -6.92824e-20)
(3.58189 -0.168158 1.25617e-17)
(3.41717 -0.502935 -1.04435e-17)
(3.13668 -0.786991 7.10864e-18)
(2.7806 -0.996086 2.32076e-18)
(2.33313 -1.10179 -4.14323e-19)
(3.78454 -0.103586 1.03948e-17)
(3.71748 -0.324459 -6.63904e-19)
(3.57774 -0.55182 -4.26996e-18)
(3.3783 -0.785754 2.68993e-18)
(3.10034 -1.01977 -6.62792e-19)
(3.11484 -0.0605672 3.65445e-18)
(3.09866 -0.181683 -2.51879e-18)
(3.05962 -0.309665 5.01275e-18)
(2.99892 -0.444854 -1.52934e-19)
(2.92436 -0.593615 -4.79055e-18)
(2.19087 -0.0276238 2.78877e-18)
(2.18384 -0.08337 8.43037e-18)
(2.16463 -0.144006 -6.53261e-19)
(2.13408 -0.20728 -6.6086e-18)
(2.11307 -0.269437 1.94592e-18)
(0.87944 -0.00184244 5.21225e-18)
(0.87649 -0.00523906 -1.16439e-19)
(0.867371 -0.00956809 -4.25787e-20)
(0.850509 -0.0162545 -2.0094e-18)
(0.841158 -0.0229064 -3.60545e-18)
(1.65314 0.94008 2.27551e-18)
(1.3483 0.81671 -7.87107e-20)
(1.00338 0.658652 -3.52141e-20)
(0.627869 0.44948 -1.96276e-19)
(0.225227 0.182296 -1.34099e-19)
(2.0705 0.892516 -1.21849e-18)
(1.71068 0.777736 -1.203e-18)
(1.29832 0.632588 7.31955e-19)
(0.834041 0.438724 -4.84101e-19)
(0.312141 0.182088 -4.07761e-21)
(2.4186 0.735855 -5.8925e-19)
(2.01967 0.645357 5.25248e-19)
(1.555 0.528763 2.43658e-18)
(1.01754 0.370198 8.08309e-19)
(0.391338 0.155286 5.26068e-19)
(2.68202 0.486721 1.54017e-20)
(2.25239 0.428295 -2.71626e-19)
(1.74743 0.352326 -6.46754e-19)
(1.15477 0.247647 2.05641e-18)
(0.450325 0.104145 -3.26832e-19)
(2.82547 0.173873 -1.17056e-18)
(2.37728 0.152648 -1.60649e-18)
(1.8494 0.125348 -7.28693e-19)
(1.22671 0.0878349 7.96279e-19)
(0.480857 0.036687 -3.2583e-19)
(0.241017 0.417108 -2.14776e-18)
(0.170852 0.353579 -1.82149e-18)
(0.103375 0.277138 3.1658e-19)
(0.045733 0.183712 -4.70052e-20)
(-0.00162893 0.0675929 3.41845e-20)
(0.371118 0.594716 -8.01695e-19)
(0.274181 0.510299 -6.71266e-19)
(0.17883 0.399598 1.2188e-20)
(0.0926058 0.259639 -2.56022e-20)
(0.0168642 0.0965578 2.61745e-20)
(0.581691 0.753909 2.18422e-18)
(0.446223 0.649988 -1.52394e-19)
(0.307951 0.507395 -1.44781e-19)
(0.174406 0.328663 -2.15348e-19)
(0.0484093 0.123998 1.67432e-19)
(0.862055 0.875122 -1.29539e-18)
(0.679168 0.758512 1.97641e-18)
(0.485285 0.594227 3.04146e-19)
(0.28834 0.38845 1.02147e-19)
(0.0925415 0.149193 -1.18368e-19)
(1.20368 0.92525 -4.41317e-19)
(0.969111 0.811853 -4.57982e-19)
(0.708595 0.645107 3.60172e-19)
(0.433328 0.429182 3.59353e-19)
(0.148462 0.168538 1.89647e-21)
(0.936979 0.165701 -4.25152e-19)
(1.49252 0.134231 5.23851e-20)
(1.32679 0.196044 1.95436e-20)
(1.01287 0.499914 -5.02433e-19)
(0.598832 0.645524 5.28562e-20)
(0.941748 0.0878011 1.6246e-19)
(1.50099 0.109781 2.94694e-19)
(1.35396 0.244852 2.61701e-19)
(1.06027 0.615254 -6.02809e-20)
(0.784711 0.803342 7.59006e-19)
(0.945096 0.0106263 5.55339e-20)
(1.5158 0.0861125 -2.06854e-20)
(1.35467 0.29399 -5.70137e-20)
(1.16549 0.712618 -4.30696e-19)
(1.03728 0.937638 1.12894e-19)
(0.946469 -0.0643374 -1.94402e-20)
(1.52246 0.0660565 -6.99263e-19)
(1.3601 0.343507 8.71513e-20)
(1.32696 0.779614 1.20422e-18)
(1.33494 1.04206 9.45331e-19)
(0.944288 -0.137539 -2.62244e-20)
(1.50828 0.0564286 2.03148e-19)
(1.38252 0.392387 -6.42404e-20)
(1.51065 0.821198 -3.84863e-19)
(1.63604 1.09205 -2.73467e-18)
(0.931286 -0.232184 2.34235e-19)
(1.46907 0.0231527 4.85066e-19)
(1.46267 0.390303 -3.22021e-20)
(1.76757 0.80015 3.08618e-18)
(2.15309 1.14337 -5.5205e-18)
(0.884066 -0.344457 -2.51021e-20)
(1.33292 -0.0283408 -6.45779e-19)
(1.40571 0.280933 7.17661e-21)
(1.84319 0.594833 -3.06705e-18)
(2.59446 0.900654 1.6694e-18)
(0.78622 -0.411941 5.51709e-18)
(1.08172 -0.089731 6.84034e-35)
(1.13609 0.149756 -2.13465e-18)
(1.57665 0.339854 2.63874e-18)
(2.45669 0.529632 5.03199e-18)
(0.634307 -0.291708 1.50513e-19)
(0.71402 -0.0717081 5.272e-19)
(0.73297 0.0519802 2.48668e-19)
(1.0755 0.135053 6.23047e-19)
(1.75836 0.220502 -8.64398e-18)
(0.322555 -0.0431612 -4.30694e-18)
(0.293864 0.00559668 2.83409e-19)
(0.265346 -0.0132757 1.11057e-18)
(0.393496 -0.0240283 -7.70595e-19)
(0.686176 -0.000453807 -1.46608e-18)
(2.34862 1.1212 4.69043e-18)
(2.78729 1.01256 3.47285e-18)
(3.14088 0.803387 -5.69176e-18)
(3.41899 0.519604 -1.4616e-17)
(3.5824 0.185881 1.57636e-17)
(3.07888 1.01884 5.00885e-18)
(3.35407 0.795224 2.56354e-17)
(3.55696 0.560668 7.24261e-18)
(3.70111 0.331823 -3.08291e-17)
(3.77794 0.111137 -5.17337e-18)
(2.90573 0.592001 -7.22858e-18)
(2.98598 0.448101 -3.38045e-18)
(3.05218 0.312113 -6.29751e-18)
(3.09524 0.181725 -6.88931e-18)
(3.11401 0.0584284 6.52282e-18)
(2.10627 0.265905 5.41551e-18)
(2.13012 0.205751 -4.04628e-19)
(2.16254 0.143043 4.87119e-18)
(2.18312 0.0821352 6.28923e-18)
(2.19077 0.0259978 -5.88787e-18)
(0.842535 0.022058 -5.74639e-19)
(0.851932 0.0156551 3.521e-18)
(0.868633 0.00913218 2.44316e-18)
(0.877493 0.00479288 -5.16938e-18)
(0.879838 0.00136164 -3.84286e-20)
(0.281977 0.0207599 5.52127e-19)
(0.656766 0.0404725 -7.43593e-19)
(0.973262 0.0440732 -8.18491e-19)
(0.944432 0.0274356 -1.51802e-18)
(0.697943 0.0163883 -6.63734e-19)
(0.245616 0.0554684 7.45749e-19)
(0.591351 0.107091 1.44151e-18)
(0.864791 0.12516 -6.97376e-19)
(0.940059 0.0970128 1.96082e-18)
(0.724267 0.0532492 -2.70089e-18)
(0.185649 0.0742757 4.96246e-19)
(0.476456 0.145916 -1.39889e-18)
(0.707861 0.184786 -9.13925e-19)
(0.857412 0.175437 -1.81025e-18)
(0.741648 0.101246 -2.86233e-18)
(0.123322 0.0774845 -7.72677e-19)
(0.344807 0.160375 -1.37664e-18)
(0.5346 0.214906 4.39914e-18)
(0.677802 0.233343 -3.667e-19)
(0.713128 0.180051 2.25507e-18)
(0.0752808 0.0723744 -6.22992e-19)
(0.230736 0.160118 1.56427e-18)
(0.372315 0.224549 6.12352e-19)
(0.482866 0.257803 -1.29589e-18)
(0.561378 0.258498 -1.74885e-19)
(0.0451484 0.0637773 8.42593e-20)
(0.149955 0.148764 -1.22231e-18)
(0.247754 0.212156 -9.45742e-19)
(0.325468 0.234127 -8.67845e-20)
(0.37126 0.223882 -5.00111e-20)
(0.0264616 0.0556953 3.12142e-19)
(0.0950717 0.134296 5.94654e-19)
(0.160892 0.184861 -2.08476e-19)
(0.213776 0.195526 2.59598e-19)
(0.253627 0.185484 1.71433e-19)
(0.0133324 0.0488596 2.49937e-19)
(0.0586115 0.1115 1.31163e-18)
(0.103712 0.121357 -1.23781e-18)
(0.142685 0.107583 -2.78733e-18)
(0.178868 0.0861657 4.08362e-19)
(0.00616737 0.0393808 -2.3762e-19)
(0.0425356 0.0491374 -1.80857e-18)
(0.0798187 0.0221529 3.21866e-18)
(0.119859 -0.00960484 1.31506e-18)
(0.161341 -0.0433678 -2.69625e-19)
(0.00999551 0.0021947 2.10024e-19)
(0.0421314 -0.0497133 -4.5236e-19)
(0.0822145 -0.0958832 8.99151e-20)
(0.130897 -0.143839 1.05214e-19)
(0.181589 -0.190043 2.77222e-21)
(0.338675 0.0720632 -7.50054e-20)
(0.613161 -0.042117 -1.22416e-18)
(0.702704 -0.0132735 2.54006e-19)
(0.714762 0.00608479 4.00171e-19)
(0.700375 0.00338089 1.25738e-20)
(0.302791 -0.0340849 -1.00153e-19)
(0.749625 -0.114649 1.46509e-18)
(0.886468 -0.022881 9.18626e-19)
(0.913678 0.00923474 7.5753e-20)
(0.904177 0.00577195 -3.45192e-20)
(0.319518 -0.149408 -8.0984e-19)
(0.83425 -0.197842 3.14708e-18)
(1.04784 -0.0420853 -1.81404e-19)
(1.10029 0.011062 -3.62366e-19)
(1.09595 0.008089 7.18157e-20)
(0.375794 -0.28809 1.10592e-18)
(0.883588 -0.297283 -2.71095e-18)
(1.17022 -0.0827108 -5.33284e-19)
(1.26592 0.00737011 -3.21039e-20)
(1.2724 0.00881343 2.32326e-21)
(0.462861 -0.436464 5.01929e-19)
(0.919032 -0.404589 -5.49688e-19)
(1.24844 -0.14242 4.79335e-19)
(1.39922 -0.00682633 1.17821e-19)
(1.42689 0.00693915 -2.78514e-21)
(0.182964 -0.0449844 9.54892e-19)
(0.144894 -0.00525814 0)
(0.162409 0.000989686 1.16407e-19)
(0.161896 -0.000371799 -5.38634e-21)
(0.156226 -0.000715995 -7.26765e-20)
(0.399677 0.0700213 0)
(0.408299 -0.000436709 0)
(0.466072 -0.00408485 5.04391e-20)
(0.467351 0.00324615 -2.81446e-20)
(0.45259 0.00139756 4.44122e-20)
(0.16269 -0.000821288 -3.68467e-19)
(0.186408 -0.00179208 3.10767e-18)
(0.213218 -0.00502081 -6.86298e-19)
(0.229816 -0.0149893 -3.11701e-18)
(0.24571 -0.0170123 -7.97018e-19)
(0.432041 0.00444138 6.0993e-19)
(0.484571 0.0196962 4.11558e-18)
(0.536466 0.0466985 -6.73001e-18)
(0.567636 0.0806186 2.20943e-18)
(0.598324 0.162222 3.79768e-18)
(0.370721 -0.220623 -3.32716e-19)
(0.324349 -0.231608 -9.29578e-20)
(0.248387 -0.212665 -3.30746e-19)
(0.150767 -0.150741 3.88229e-19)
(0.0458673 -0.0645778 1.14063e-19)
(0.257518 -0.169639 4.22346e-19)
(0.215073 -0.181727 1.41381e-18)
(0.162386 -0.177073 2.59294e-19)
(0.0967177 -0.135086 2.36416e-19)
(0.0269031 -0.0571931 -1.86307e-20)
(0.19319 -0.0548206 -3.11158e-19)
(0.151618 -0.0773827 -1.05276e-19)
(0.10878 -0.0949394 1.63364e-18)
(0.0623219 -0.0971762 2.86217e-19)
(0.0132396 -0.0480021 -3.13622e-19)
(0.178698 0.0868743 -6.36083e-19)
(0.132664 0.0530261 -7.05977e-19)
(0.0877674 0.0193236 1.3096e-18)
(0.0494825 -0.0107585 1.60123e-18)
(0.0112339 -0.0298662 1.99003e-19)
(0.188735 0.244158 1.23742e-19)
(0.134324 0.197863 -1.20232e-19)
(0.0819174 0.148066 2.48382e-19)
(0.0382165 0.0969733 6.22522e-19)
(-0.00227022 0.0356132 9.25043e-20)
(0.69794 -0.0163436 1.53156e-18)
(0.944438 -0.0274127 -1.80084e-18)
(0.973071 -0.0441992 2.27003e-18)
(0.656778 -0.040535 3.64619e-19)
(0.282011 -0.0207685 5.36682e-19)
(0.724257 -0.053142 1.7726e-18)
(0.939917 -0.0970275 7.94683e-18)
(0.864589 -0.125264 1.03368e-18)
(0.591404 -0.10713 1.34951e-18)
(0.245711 -0.0554896 -4.7851e-19)
(0.741565 -0.101 -1.22147e-18)
(0.856808 -0.175273 -2.29648e-18)
(0.707782 -0.184847 2.92447e-18)
(0.476523 -0.145985 -1.08278e-19)
(0.185771 -0.0743114 3.39521e-19)
(0.712603 -0.179871 1.75891e-20)
(0.677099 -0.233291 -7.68599e-18)
(0.534635 -0.215237 -5.99959e-18)
(0.344943 -0.16071 1.09165e-18)
(0.123504 -0.0775886 5.08043e-19)
(0.558964 -0.256975 4.68178e-19)
(0.481843 -0.257222 5.33463e-19)
(0.372387 -0.225272 -8.99472e-19)
(0.230993 -0.160992 -8.88284e-19)
(0.0756292 -0.0726326 -5.14434e-21)
(0.727566 0.373122 1.17563e-18)
(0.880833 0.127672 -1.91185e-19)
(0.677368 0.0194513 2.51738e-19)
(0.64531 0.0362573 -7.5554e-19)
(0.362655 -0.061851 -1.00781e-19)
(0.827331 0.398062 -1.70454e-19)
(1.0892 0.157668 -5.68557e-19)
(0.868915 0.0379304 8.35443e-19)
(0.805137 0.0994366 1.67871e-18)
(0.340548 0.0541124 1.03465e-19)
(0.891951 0.372668 -2.24855e-18)
(1.26951 0.171761 -3.74491e-20)
(1.03971 0.0621362 2.50313e-19)
(0.908913 0.178827 1.69768e-18)
(0.364861 0.176694 -1.43872e-18)
(0.922923 0.317377 1.48905e-18)
(1.41418 0.173971 1.61768e-20)
(1.17661 0.0999094 -2.13977e-19)
(0.964236 0.277418 -7.45099e-19)
(0.415615 0.323343 -5.87784e-19)
(0.932107 0.243838 1.7528e-19)
(1.48753 0.15723 3.82114e-20)
(1.27 0.146209 -7.76565e-20)
(0.992259 0.385213 -8.77928e-20)
(0.48571 0.480638 1.36078e-18)
(0.275651 0.04837 0)
(0.244316 -0.0112394 6.49487e-19)
(0.157659 -0.015919 1.27203e-19)
(0.150517 0.00553227 -1.10082e-19)
(0.184391 0.0440957 -1.80762e-18)
(0.573341 0.266339 -1.0198e-17)
(0.609528 0.07517 -2.56255e-18)
(0.445339 0.0131065 4.99782e-19)
(0.424218 0.000499667 -6.57447e-19)
(0.407637 -0.0683241 -6.62007e-19)
(0.245846 0.0169757 -9.36865e-22)
(0.229912 0.0150778 1.92875e-18)
(0.213296 0.0050643 5.24501e-19)
(0.186458 0.001802 3.23022e-19)
(0.162706 0.00082515 0)
(0.599212 -0.162118 -1.14568e-19)
(0.568195 -0.0803257 2.54721e-18)
(0.536574 -0.0464755 -1.37641e-19)
(0.484631 -0.0196432 -2.70495e-19)
(0.432065 -0.00441911 7.605e-19)
)
;

boundaryField
{
    left
    {
        type            fixedValue;
        value           uniform (1 0 0);
    }
    right
    {
        type            zeroGradient;
    }
    down
    {
        type            noSlip;
    }
    up
    {
        type            noSlip;
    }
    cylinder
    {
        type            noSlip;
    }
    defaultFaces
    {
        type            empty;
    }
}


// ************************************************************************* //
