# Selection   : all
# Cells       : 440
# Volume      : 7.374263e+01
# Time        	minMag(U)
7.515         	9.078879e-03
7.56          	9.522760e-03
7.61          	1.000257e-02
