/*--------------------------------*- C++ -*----------------------------------*\
  =========                 |
  \\      /  F ield         | OpenFOAM: The Open Source CFD Toolbox
   \\    /   O peration     | Website:  https://openfoam.org
    \\  /    A nd           | Version:  13
     \\/     M anipulation  |
\*---------------------------------------------------------------------------*/
FoamFile
{
    format      ascii;
    class       surfaceScalarField;
    location    "0.135";
    object      phi;
}
// * * * * * * * * * * * * * * * * * * * * * * * * * * * * * * * * * * * * * //

dimensions      [0 3 -1 0 0 0 0];

internalField   nonuniform List<scalar> 
823
(
0.0113757
-0.0505495
0.0391738
0.0387431
-0.133437
0.106069
0.0787818
-0.205898
0.16586
0.130052
-0.268921
0.217652
-0.323341
0.259604
0.193788
0.0107045
-0.0612541
0.0361433
-0.158876
0.0726377
-0.242393
0.117935
-0.314219
-0.37564
0.170235
0.00838032
-0.0696344
0.0282922
-0.178788
0.056733
-0.270833
0.0918113
-0.349297
-0.416077
0.132248
0.00530179
-0.0749362
0.0180018
-0.191488
0.0362381
-0.28907
0.0588916
-0.37195
-0.442436
0.0852512
0.00196267
-0.0768988
0.006631
-0.196156
0.0132893
-0.295728
0.021518
-0.380179
0.031052
-0.45197
0.00594749
-0.0109846
0.00503715
0.0207855
-0.0315317
0.0166938
0.0433828
-0.0494935
0.0268962
0.0720181
-0.0651868
0.0365516
-0.0784282
0.105205
0.0452411
0.00557381
-0.0165584
0.0209323
-0.0468901
0.045711
-0.0742722
0.0783428
-0.0978186
-0.117113
0.117028
0.00636797
-0.0229264
0.0235021
-0.0640242
0.0508227
-0.101593
0.0871839
-0.13418
-0.160817
0.130888
0.00751891
-0.0304453
0.0269976
-0.0835029
0.0570657
-0.131661
0.0965295
-0.173644
-0.208319
0.144031
0.00872852
0.031295
0.0654935
0.109502
0.160787
0.316693
-0.975362
0.763875
0.459684
-0.790897
0.647905
0.519993
-0.322961
0.262653
0.533213
-0.113744
0.100524
-0.022407
0.0273907
0.325868
-1.1842
0.460166
-0.925194
0.521485
-0.384281
0.535669
-0.127928
-0.0194182
0.333636
-1.38695
0.455124
-1.04668
0.517852
-0.44701
0.535768
-0.145843
-0.0213901
0.33525
-1.57817
0.446501
-1.15793
0.510424
-0.510932
0.533606
-0.169026
-0.0309518
0.325888
-1.74327
0.430142
-1.26219
0.496348
-0.577138
0.528583
-0.201261
-0.050924
1.1868
-1.58988
-1.34019
0.991985
-1.06737
0.89131
-0.476463
0.856112
-0.166063
-0.0418329
1.33089
-1.13361
-1.78716
1.00607
-0.742553
0.860918
-0.331315
0.810751
-0.115896
-0.0261354
1.19086
-0.609287
-1.71518
0.828128
-0.379826
0.665878
-0.169065
0.611411
-0.0614286
-0.0127814
0.821172
-0.185973
-1.24449
0.54968
-0.108334
0.426435
-0.0458207
0.383498
-0.018491
-0.00355806
0.305761
-0.491734
0.197427
0.151607
0.133116
1.56267
0.0462007
-1.57782
1.5218
0.12613
1.46278
0.191264
1.39641
0.2366
0.250014
1.67591
0.0356447
-1.66535
1.69938
0.102656
1.73091
0.159737
1.76539
0.202124
0.228241
1.38798
0.0184765
-1.37081
1.43707
0.0535638
1.51393
0.0828806
1.61031
0.105742
0.123374
0.977682
0.00531558
-0.964521
1.01584
0.0154069
1.07572
0.0230031
1.15371
0.0277485
0.0325963
0.392979
-0.387663
0.408386
0.431389
0.459137
0.128818
0.327531
-0.26453
-0.191818
0.0781749
0.273168
-0.222525
0.0385265
0.20978
-0.170131
0.0113391
0.136449
-0.109262
0.0519619
-0.0406228
0.11596
0.378857
-0.167286
0.0714869
0.317641
0.0356057
0.245661
0.0105548
0.1615
0.0625168
0.0888717
0.418257
-0.128272
0.0548162
0.351697
0.0272865
0.273191
0.00806342
0.180723
0.0705802
0.0552697
0.443536
-0.0805492
0.0337776
0.373189
0.0166607
0.290308
0.00486544
0.192518
0.0754456
0.0175014
-0.0259355
0.0105111
0.00509075
0.00145324
0.0705799
0.0869689
-0.10451
-0.0530388
0.0414941
0.0734003
-0.0443146
0.0189937
0.0566189
-0.0341186
0.00493387
0.0364839
-0.022424
0.0131016
-0.00816779
0.0757977
0.125367
-0.114196
0.0436529
0.105545
0.0196726
0.0805991
0.00512384
0.0510327
0.0182255
0.0849579
0.168153
-0.127743
0.0495067
0.140996
0.0229827
0.107123
0.00626015
0.0677552
0.0244856
0.094567
0.214449
-0.140864
0.0561112
0.179452
0.0267095
0.136525
0.00748886
0.0869758
0.0319745
0.107614
-0.157695
0.0645408
0.0309342
0.00864831
0.486699
0.165526
-0.256245
0.507419
0.197709
-0.218429
0.466388
0.318559
-0.277528
0.324558
0.778915
-0.637085
1.0358
-0.815753
0.481647
0.0798589
0.504552
0.174804
0.461564
0.361547
0.326177
0.914301
1.24778
0.478265
-0.00242618
0.498441
0.154627
0.451164
0.408825
0.328462
1.037
1.4485
0.475929
-0.0823759
0.491568
0.138989
0.438023
0.46237
0.327099
1.14793
1.63474
0.474467
-0.160864
0.480686
0.13277
0.418929
0.524126
0.31619
1.25067
1.79323
0.765337
-0.32218
0.853644
0.0444631
0.956376
0.421394
1.16447
1.04257
1.61099
1.34671
0.762653
-0.480812
0.856604
-0.0494876
0.986979
0.291019
1.30338
0.726173
1.14009
1.77428
0.645359
-0.522151
0.692588
-0.096716
0.826242
0.157365
1.17702
0.375397
0.612014
1.70509
0.462428
-0.380559
0.433704
-0.0679924
0.547191
0.0438775
0.816061
0.106527
0.187059
1.24102
0.223462
0.155469
0.199347
0.305874
0.492933
1.40213
-0.247239
1.46553
-0.230682
1.52292
-0.185662
1.56315
-0.120782
-0.0406099
1.75316
-0.226122
1.72017
-0.197689
1.69093
-0.156426
1.67103
-0.100876
-0.0349359
1.6021
-0.123131
1.50906
-0.104642
1.43467
-0.0820388
1.38709
-0.053296
-0.0186576
1.15091
-0.0330299
1.07417
-0.0279013
1.01522
-0.0230848
0.977535
-0.0156102
-0.00564371
0.459903
0.432002
0.408917
0.393307
0.00250113
0.0429931
-0.0454942
0.00732702
0.101024
-0.10585
0.0160929
0.148362
-0.157127
0.0165752
0.151878
-0.152361
0.114001
0.0148102
-0.112236
0.00682724
0.0361659
0.0201742
0.0876771
0.0409502
0.127586
0.0482499
0.144579
0.116359
0.0458924
0.0088066
0.0273593
0.0270677
0.069416
0.0521362
0.102517
0.0730991
0.123616
0.114007
0.0754509
0.00778926
0.01957
0.0254799
0.0517254
0.0497067
0.0782903
0.0774369
0.0958856
0.0991149
0.0923288
0.00507176
0.0144983
0.0178907
0.0389065
0.0366996
0.0594814
0.0600701
0.072515
0.0765199
0.0826651
0.00340139
0.0110969
0.0125497
0.0297582
0.0276761
0.044355
0.0477362
0.052455
0.0554354
0.0688208
0.0022894
0.00880748
0.00953229
0.0225154
0.0238085
0.0300789
0.0434091
0.0328545
0.0332323
0.0656122
0.00210558
0.00670194
0.0117745
0.0128466
0.0287081
0.0131455
0.049924
0.0116387
0.00928626
0.0738701
0.00462702
0.002075
0.0187334
-0.00125955
0.0380381
-0.00615912
0.0610525
-0.0113755
-0.0166515
0.0869902
0.0071123
0.0225467
0.0432839
0.0684599
0.0970496
0.16201
0.00437576
-0.097565
0.249932
-0.12671
0.0387878
0.277991
-0.054185
0.0261256
0.296413
-0.0267665
0.00834505
-0.016137
0.00281189
0.224926
-0.154939
0.332953
-0.234737
0.366656
-0.0878887
0.384346
-0.0444563
-0.0260177
0.266043
-0.347111
0.39563
-0.364324
0.44704
-0.139298
0.466137
-0.0635538
-0.03087
0.293071
-0.553192
0.432706
-0.50396
0.495108
-0.2017
0.516295
-0.0847409
-0.031293
0.307732
0.451678
0.51263
0.528413
0.0722571
0.0369577
-0.109215
0.08014
-0.00788297
0.087202
-0.007062
0.089065
-0.00186296
-0.00063596
0.20115
-0.261757
0.232055
0.251119
0.257601
0.0207258
-0.00433003
-0.0163957
0.0342704
-0.0135447
0.0567385
-0.022468
0.0855821
-0.0288437
-0.0236328
0.0539091
-0.0434289
0.0862568
0.13924
0.202725
0.0484742
-0.0546706
0.0761973
-0.0700009
0.027855
-0.0516108
0.07223
0.0123651
-0.0440387
0.0595286
0.0033028
-0.0300351
0.0390974
-0.0112994
0.0146022
0.0477016
-0.0310667
-0.0713054
0.0265855
-0.0304948
0.01064
-0.0280933
0.00235748
-0.0217526
-0.00894198
0.0579229
-0.00513194
-0.0838578
0.0346856
-0.00725753
0.0154302
-0.00883802
0.00298898
-0.00931142
-0.00595303
0.0691264
0.0227317
-0.0969901
0.0442436
0.0176253
0.0231702
0.0122353
0.00700171
0.00685702
0.00104865
0.0712589
-0.101566
0.0445695
0.0226862
0.00711914
0.0165815
-0.113999
-0.0148185
0.0160914
-0.151871
0.00730529
-0.148341
0.00248868
-0.101033
-0.0430055
0.0482646
-0.116347
-0.0459163
0.0409234
-0.144529
0.0201592
-0.127577
0.00681966
-0.0876938
-0.0361859
0.073129
-0.11394
-0.0755369
0.0521086
-0.123509
0.0270547
-0.102523
0.00880279
-0.0694418
-0.0273831
0.077354
-0.0988687
-0.0924248
0.0495917
-0.0957466
0.0254042
-0.0783357
0.00776462
-0.0518022
-0.0196185
0.060045
-0.0827165
0.0365283
0.0177211
0.00501628
0.349859
0.570088
-0.523967
0.299864
0.199158
-0.149162
0.257781
0.0701257
-0.0280436
0.171889
0.123582
-0.0376892
0.0118888
0.089999
0.422294
0.543773
0.395042
0.22641
0.346474
0.118694
0.239516
0.23054
0.1801
0.483707
0.456046
0.473901
0.236215
0.413026
0.179569
0.284603
0.358962
0.380845
0.498653
0.353373
0.50245
0.232418
0.44847
0.233549
0.311305
0.496127
0.595161
0.493107
0.507095
0.463116
0.322158
0.159447
0.350604
0.0889643
0.070483
0.0833964
0.00556787
0.074059
0.00933743
-0.0352417
0.109301
0.336687
0.258008
0.235532
0.20718
0.261937
0.0856376
0.0236631
0.0567715
0.0288661
0.0342817
0.0224898
0.0207293
0.0135524
0.00433353
0.202883
0.139325
0.0862777
0.0539139
)
;

boundaryField
{
    left
    {
        type            calculated;
        value           nonuniform List<scalar> 
17
(
-0.60402
-0.60402
-0.60402
-0.60402
-0.60402
-0.39598
-0.39598
-0.39598
-0.39598
-0.39598
-0.39598
-0.39598
-0.39598
-0.39598
-0.39598
-0.510051
-0.510051
)
;
    }
    right
    {
        type            calculated;
        value           nonuniform List<scalar> 
17
(
0.0897009
0.259777
0.309738
0.394227
0.47099
0.516718
0.524511
0.52823
0.53268
0.53774
0.543168
0.548555
0.847021
0.795053
0.598057
0.374274
0.129557
)
;
    }
    down
    {
        type            calculated;
        value           uniform 0;
    }
    up
    {
        type            calculated;
        value           uniform 0;
    }
    cylinder
    {
        type            calculated;
        value           uniform 0;
    }
    defaultFaces
    {
        type            empty;
    }
}


// ************************************************************************* //
