/*--------------------------------*- C++ -*----------------------------------*\
  =========                 |
  \\      /  F ield         | OpenFOAM: The Open Source CFD Toolbox
   \\    /   O peration     | Website:  https://openfoam.org
    \\  /    A nd           | Version:  13
     \\/     M anipulation  |
\*---------------------------------------------------------------------------*/
FoamFile
{
    format      ascii;
    class       volVectorField;
    location    "0.135";
    object      U;
}
// * * * * * * * * * * * * * * * * * * * * * * * * * * * * * * * * * * * * * //

dimensions      [0 1 -1 0 0 0 0];

internalField   nonuniform List<vector> 
440
(
(0.218233 -0.176663 -1.81278e-19)
(0.613081 -0.436666 1.07523e-18)
(0.984374 -0.641069 4.16475e-19)
(1.32772 -0.795844 1.25602e-18)
(1.63286 -0.917525 -2.60314e-19)
(0.304868 -0.177666 -5.43891e-19)
(0.819133 -0.428687 -1.01872e-18)
(1.28004 -0.618945 1.15514e-19)
(1.69205 -0.761799 -1.21506e-18)
(2.05396 -0.87542 -1.02169e-18)
(0.384868 -0.152398 -6.97752e-19)
(1.00469 -0.362999 1.58956e-18)
(1.53981 -0.518383 -1.93273e-18)
(2.00483 -0.632667 1.38634e-18)
(2.40611 -0.721569 1.42556e-18)
(0.445875 -0.102745 5.62308e-19)
(1.14613 -0.243078 -1.29933e-18)
(1.73751 -0.344808 -7.51424e-19)
(2.24304 -0.418226 1.96424e-18)
(2.6746 -0.474489 2.50132e-18)
(0.479274 -0.036159 6.8698e-19)
(1.22368 -0.084755 1.69259e-19)
(1.84597 -0.119367 2.53094e-18)
(2.37412 -0.143876 -1.06282e-18)
(2.82307 -0.162521 -4.84309e-19)
(-0.00196068 -0.0535074 2.76503e-19)
(0.0470687 -0.15013 -2.72681e-19)
(0.102065 -0.231003 1.02452e-18)
(0.16672 -0.302508 -1.75955e-19)
(0.23413 -0.365151 -1.64419e-18)
(0.0136833 -0.0850704 -2.92379e-19)
(0.0887336 -0.230533 -5.82797e-19)
(0.173131 -0.355448 1.04882e-19)
(0.267028 -0.45744 6.03231e-20)
(0.363026 -0.538799 -3.98079e-20)
(0.0435444 -0.11452 6.21391e-20)
(0.165724 -0.3044 6.05833e-19)
(0.29642 -0.4702 9.69005e-20)
(0.433103 -0.603405 1.37237e-18)
(0.568183 -0.703178 -2.39502e-20)
(0.0867334 -0.141087 6.67299e-20)
(0.276618 -0.368401 -4.18145e-20)
(0.469846 -0.564461 2.28923e-19)
(0.661875 -0.721155 -1.98541e-18)
(0.844715 -0.83411 9.48071e-19)
(0.14214 -0.161728 -2.34381e-19)
(0.420157 -0.41306 -4.39336e-19)
(0.69157 -0.622122 -7.59434e-19)
(0.950452 -0.783764 9.40075e-19)
(1.18571 -0.894952 3.4169e-18)
(0.583363 -0.606444 -4.31084e-18)
(0.94797 -0.499461 1.13704e-18)
(1.22476 -0.206208 3.33598e-19)
(1.30057 -0.0786197 -6.97305e-19)
(1.33395 -0.0212792 -1.27448e-19)
(0.781029 -0.755299 5.03922e-18)
(1.02949 -0.600973 -3.36154e-19)
(1.26168 -0.250689 -1.8244e-19)
(1.32322 -0.0939 3.55217e-19)
(1.34515 -0.0251684 2.29158e-19)
(1.03497 -0.887674 1.55679e-18)
(1.16393 -0.683005 3.90476e-18)
(1.29874 -0.292841 9.71346e-20)
(1.34707 -0.1067 4.08602e-19)
(1.3579 -0.0282531 -8.80107e-20)
(1.33042 -0.996852 1.27356e-18)
(1.34072 -0.743195 -4.16862e-19)
(1.35289 -0.32874 -6.79766e-19)
(1.37036 -0.115688 -2.43706e-19)
(1.37157 -0.0303135 1.40798e-20)
(1.63091 -1.05461 -4.11187e-20)
(1.53329 -0.785366 -1.52227e-18)
(1.41931 -0.361869 0)
(1.39058 -0.125185 2.78297e-19)
(1.38511 -0.0316899 5.21602e-20)
(2.15655 -1.11827 -1.61451e-18)
(1.80398 -0.779106 -4.82103e-19)
(1.53856 -0.364742 -6.33215e-22)
(1.42993 -0.124451 -6.09094e-21)
(1.402 -0.0303374 -1.13427e-19)
(2.63333 -0.890972 -1.6078e-18)
(1.90311 -0.579488 2.62427e-18)
(1.51786 -0.257417 8.53143e-21)
(1.36461 -0.0891053 2.76574e-19)
(1.31601 -0.0206341 0)
(2.48053 -0.523291 -6.94628e-18)
(1.6088 -0.326969 -1.50128e-19)
(1.19027 -0.14233 2.06602e-18)
(1.03301 -0.0533781 -2.97172e-19)
(0.990217 -0.0126746 -2.56542e-20)
(1.76209 -0.220458 6.84464e-18)
(1.08638 -0.131744 1.41648e-18)
(0.768272 -0.0574461 2.37983e-19)
(0.652396 -0.023248 2.96316e-33)
(0.6202 -0.00535758 -1.63353e-19)
(0.682579 1.67338e-05 1.57624e-18)
(0.39396 0.0233545 7.46092e-19)
(0.273119 0.0202751 -4.49317e-19)
(0.230438 0.00777686 1.46972e-19)
(0.215272 0.00278488 -3.93526e-20)
(3.58202 -0.168241 1.25641e-17)
(3.41739 -0.503017 -1.04411e-17)
(3.13693 -0.787167 7.10264e-18)
(2.78082 -0.99648 2.32147e-18)
(2.33323 -1.1025 -4.16295e-19)
(3.78463 -0.103673 1.03956e-17)
(3.71756 -0.324546 -6.63955e-19)
(3.57787 -0.551924 -4.27038e-18)
(3.37845 -0.785852 2.69054e-18)
(3.10048 -1.01986 -6.62233e-19)
(3.11487 -0.0605673 3.6543e-18)
(3.09868 -0.181802 -2.51867e-18)
(3.05966 -0.309896 5.01266e-18)
(2.99905 -0.445167 -1.52595e-19)
(2.92472 -0.593991 -4.79079e-18)
(2.19084 -0.0276206 2.78849e-18)
(2.18379 -0.0834523 8.42965e-18)
(2.16449 -0.144204 -6.53165e-19)
(2.13382 -0.207624 -6.60444e-18)
(2.11269 -0.269923 1.94513e-18)
(0.879426 -0.00184102 5.21239e-18)
(0.876462 -0.0052444 -1.16376e-19)
(0.867288 -0.00958476 -4.27867e-20)
(0.850317 -0.0162945 -2.00767e-18)
(0.840822 -0.0229875 -3.59806e-18)
(1.65269 0.939467 2.263e-18)
(1.34805 0.816429 -7.53561e-20)
(1.0033 0.658565 -3.3796e-20)
(0.627888 0.449499 -1.96264e-19)
(0.225267 0.182335 -1.34639e-19)
(2.07022 0.892253 -1.21647e-18)
(1.7105 0.777647 -1.19429e-18)
(1.29824 0.632584 7.33552e-19)
(0.834035 0.438754 -4.84678e-19)
(0.312163 0.182108 -4.23616e-21)
(2.41847 0.735703 -5.91958e-19)
(2.01957 0.645291 5.2524e-19)
(1.55495 0.528741 2.43772e-18)
(1.01752 0.370197 8.08506e-19)
(0.391341 0.155288 5.26173e-19)
(2.68201 0.486626 1.27075e-20)
(2.25239 0.428245 -2.72348e-19)
(1.74744 0.352303 -6.46594e-19)
(1.15477 0.247641 2.05681e-18)
(0.450331 0.104146 -3.2683e-19)
(2.82554 0.173816 -1.17131e-18)
(2.37734 0.152616 -1.60644e-18)
(1.84945 0.125333 -7.28812e-19)
(1.22675 0.0878305 7.96257e-19)
(0.480873 0.0366872 -3.25782e-19)
(0.235793 0.417608 -2.09891e-18)
(0.166819 0.353991 -1.74288e-18)
(0.100604 0.277108 2.82876e-19)
(0.0442391 0.183004 -5.83589e-21)
(-0.00194673 0.0669368 4.06501e-20)
(0.369888 0.592225 -7.97385e-19)
(0.273211 0.50803 -6.10067e-19)
(0.178156 0.397326 -2.04926e-21)
(0.0922256 0.257687 -2.03517e-20)
(0.0165924 0.0956189 2.04178e-20)
(0.58183 0.750725 2.13933e-18)
(0.446303 0.647391 -1.46294e-19)
(0.307934 0.505285 -1.25459e-19)
(0.174291 0.327203 -2.17242e-19)
(0.0481599 0.123408 1.71331e-19)
(0.862137 0.872916 -1.29365e-18)
(0.679283 0.756899 1.97648e-18)
(0.485348 0.593131 3.11245e-19)
(0.288324 0.387822 1.00567e-19)
(0.092426 0.149001 -1.16835e-19)
(1.20349 0.924233 -4.44051e-19)
(0.969048 0.81119 -4.59885e-19)
(0.708611 0.64476 3.6307e-19)
(0.433371 0.429063 3.61329e-19)
(0.148472 0.168547 1.9016e-21)
(0.848306 0.148494 -5.73969e-19)
(1.39753 0.148869 7.59583e-20)
(1.20282 0.210562 3.02629e-20)
(0.981206 0.490604 -3.80001e-19)
(0.587608 0.64572 -1.09427e-19)
(0.840885 0.0911918 2.21958e-19)
(1.40117 0.139949 2.95979e-19)
(1.23393 0.241052 -3.63015e-21)
(1.04228 0.592872 -1.02193e-19)
(0.781007 0.798789 7.85709e-19)
(0.835086 0.0352721 -1.81574e-19)
(1.41752 0.126869 -2.30735e-20)
(1.26047 0.271099 -7.68169e-20)
(1.15942 0.676852 -4.85985e-19)
(1.03649 0.930684 2.30602e-19)
(0.831391 -0.0195757 -3.24843e-20)
(1.44236 0.110365 -5.58936e-19)
(1.30055 0.298726 1.17336e-19)
(1.32375 0.736738 1.12005e-18)
(1.33391 1.03588 9.31408e-19)
(0.830108 -0.0702386 9.46063e-20)
(1.47408 0.0929108 7.41713e-20)
(1.35226 0.328095 -5.49692e-20)
(1.50719 0.778378 -2.93565e-19)
(1.63451 1.08852 -2.82444e-18)
(0.836783 -0.148917 4.17857e-19)
(1.51289 0.0623274 3.52197e-19)
(1.45504 0.320635 -4.9904e-21)
(1.76115 0.763122 2.76232e-18)
(2.14976 1.13967 -5.52044e-18)
(0.842214 -0.276412 -3.5967e-20)
(1.50061 -0.00037706 -4.75568e-19)
(1.48817 0.234759 1.36364e-20)
(1.86234 0.571451 -2.8476e-18)
(2.59625 0.89923 1.64385e-18)
(0.777961 -0.406984 5.04669e-18)
(1.21254 -0.0711365 5.68722e-35)
(1.19675 0.127407 -2.18513e-18)
(1.58989 0.321177 2.78153e-18)
(2.4609 0.528071 5.03482e-18)
(0.630316 -0.286438 1.55893e-19)
(0.76718 -0.0647601 4.65355e-19)
(0.761801 0.0483555 2.71718e-19)
(1.07758 0.128573 6.34271e-19)
(1.75862 0.220254 -8.62383e-18)
(0.320903 -0.0432781 -4.27926e-18)
(0.306874 0.00165369 2.56167e-19)
(0.275625 -0.00935076 1.03392e-18)
(0.394059 -0.0238095 -7.93558e-19)
(0.685708 -0.000173362 -1.45907e-18)
(2.34759 1.11987 4.67046e-18)
(2.78672 1.01189 3.4594e-18)
(3.14061 0.803002 -5.68035e-18)
(3.4189 0.519374 -1.46074e-17)
(3.58243 0.185737 1.576e-17)
(3.07967 1.01821 4.99867e-18)
(3.35488 0.794891 2.56585e-17)
(3.5577 0.560522 7.24624e-18)
(3.70164 0.331744 -3.08475e-17)
(3.77821 0.111049 -5.17431e-18)
(2.90718 0.591683 -7.24157e-18)
(2.98672 0.448016 -3.38425e-18)
(3.05251 0.312187 -6.31123e-18)
(3.09536 0.181853 -6.89027e-18)
(3.11405 0.0585232 6.52231e-18)
(2.10601 0.266305 5.39737e-18)
(2.12985 0.206152 -4.0585e-19)
(2.16234 0.143338 4.86775e-18)
(2.18301 0.0823125 6.28749e-18)
(2.19072 0.0260793 -5.88689e-18)
(0.842117 0.022186 -5.72255e-19)
(0.851635 0.0157253 3.51518e-18)
(0.868462 0.00916785 2.44119e-18)
(0.877409 0.00481077 -5.16779e-18)
(0.879806 0.0013696 -3.84192e-20)
(0.281889 0.0207535 5.51951e-19)
(0.656583 0.0404598 -7.43318e-19)
(0.973025 0.0440593 -8.18734e-19)
(0.944213 0.0274273 -1.51791e-18)
(0.69776 0.016383 -6.63744e-19)
(0.245533 0.0554509 7.45308e-19)
(0.59118 0.107058 1.44176e-18)
(0.864572 0.125126 -6.96568e-19)
(0.939847 0.0969823 1.95989e-18)
(0.724087 0.0532231 -2.70112e-18)
(0.185582 0.07425 4.95849e-19)
(0.476309 0.145882 -1.40044e-18)
(0.707674 0.184745 -9.13702e-19)
(0.857168 0.175353 -1.81104e-18)
(0.741515 0.101162 -2.86305e-18)
(0.1233 0.0774797 -7.73284e-19)
(0.344714 0.160432 -1.37706e-18)
(0.534483 0.214925 4.39087e-18)
(0.677463 0.233198 -3.65656e-19)
(0.713001 0.179897 2.23655e-18)
(0.0753308 0.0724323 -6.26968e-19)
(0.230693 0.160368 1.5589e-18)
(0.37217 0.224606 5.8576e-19)
(0.482226 0.257162 -1.28359e-18)
(0.56021 0.257511 -1.7802e-19)
(0.0453021 0.064038 6.8782e-20)
(0.150197 0.149288 -1.18351e-18)
(0.247878 0.211611 -8.65446e-19)
(0.324783 0.231887 -1.77504e-19)
(0.371186 0.221231 -5.22275e-20)
(0.0262262 0.0559809 3.1227e-19)
(0.0955577 0.133512 4.99835e-19)
(0.161234 0.179412 -2.75985e-19)
(0.213904 0.186793 2.67469e-19)
(0.2549 0.175316 1.79146e-19)
(0.012652 0.0477181 2.2976e-19)
(0.0595442 0.104146 1.67392e-18)
(0.104496 0.108507 -1.35452e-18)
(0.144399 0.0933468 -2.86362e-18)
(0.182158 0.0712586 4.44561e-19)
(0.00710107 0.0365044 -2.50077e-19)
(0.0435796 0.0356566 -1.7664e-18)
(0.0794285 0.00789659 3.184e-18)
(0.119569 -0.0243793 1.35101e-18)
(0.160886 -0.0583795 -2.78119e-19)
(0.00565615 -0.0102641 1.69476e-19)
(0.0387906 -0.0615281 -4.04063e-19)
(0.0779159 -0.108144 8.79439e-20)
(0.125653 -0.156534 1.06967e-19)
(0.175389 -0.203188 -2.95006e-20)
(0.351094 0.0622205 -9.87111e-20)
(0.633432 -0.0403151 -1.17105e-18)
(0.721805 -0.0211694 2.62806e-19)
(0.763376 -0.0076899 3.64729e-19)
(0.782271 -0.00252788 2.55534e-20)
(0.318949 -0.0501427 -7.91243e-20)
(0.771376 -0.112119 1.29593e-18)
(0.906033 -0.0354051 9.56087e-19)
(0.966074 -0.0125843 8.86527e-20)
(0.995621 -0.00382434 -7.23656e-20)
(0.330825 -0.165162 -8.32541e-19)
(0.846684 -0.192817 2.69546e-18)
(1.05501 -0.0624098 -2.0281e-19)
(1.14806 -0.0225398 -4.05183e-19)
(1.18946 -0.00641985 1.24352e-19)
(0.374183 -0.303569 1.09018e-18)
(0.883729 -0.289435 -1.95772e-18)
(1.13521 -0.108904 -5.2679e-19)
(1.25287 -0.0423302 -4.42225e-20)
(1.30493 -0.0116141 -1.56303e-20)
(0.452261 -0.452075 5.08795e-19)
(0.90967 -0.39252 -5.00449e-19)
(1.18275 -0.158795 4.44772e-19)
(1.2809 -0.0615683 1.68966e-19)
(1.32459 -0.0168001 -3.42935e-20)
(0.183412 -0.0446165 9.51692e-19)
(0.14905 -0.00412846 0)
(0.167323 0.00214963 1.22988e-19)
(0.174051 0.00125587 5.54918e-20)
(0.175913 0.000360296 -9.90106e-20)
(0.407136 0.0688896 0)
(0.421307 -0.00112659 0)
(0.480565 -0.00749806 1.32323e-19)
(0.502164 -0.00229924 1.24951e-19)
(0.509393 -0.000819383 6.05868e-21)
(0.162642 -0.000820973 -3.68352e-19)
(0.18635 -0.00179109 3.10739e-18)
(0.213144 -0.0050153 -6.87466e-19)
(0.229725 -0.014974 -3.11526e-18)
(0.245548 -0.0168001 -7.94267e-19)
(0.43192 0.00444063 6.09775e-19)
(0.48444 0.0196902 4.116e-18)
(0.536362 0.0466472 -6.73474e-18)
(0.567757 0.0804385 2.20456e-18)
(0.59885 0.162368 3.78893e-18)
(0.371122 -0.218638 -3.69621e-19)
(0.323868 -0.229618 -7.52529e-20)
(0.24837 -0.211751 -2.59045e-19)
(0.150961 -0.150962 3.64451e-19)
(0.0459322 -0.0647917 1.1628e-19)
(0.25962 -0.161467 4.38433e-19)
(0.215888 -0.174171 1.49148e-18)
(0.162826 -0.171359 3.29319e-19)
(0.0971993 -0.133247 2.39397e-19)
(0.0265957 -0.0571134 -7.54836e-21)
(0.194317 -0.0448182 -3.30104e-19)
(0.15194 -0.0674497 -9.62183e-20)
(0.108509 -0.0853795 1.69147e-18)
(0.0625325 -0.0899006 3.28121e-19)
(0.0126582 -0.0464451 -3.07264e-19)
(0.174123 0.0948356 -6.79235e-19)
(0.128846 0.0613266 -7.34359e-19)
(0.0846279 0.0281236 1.30887e-18)
(0.0472452 -0.00162985 1.61701e-18)
(0.01169 -0.0252769 2.10981e-19)
(0.18034 0.248302 1.1285e-19)
(0.127537 0.202097 -1.27035e-19)
(0.0767453 0.152228 2.43532e-19)
(0.0344421 0.100294 5.5503e-19)
(-0.00398942 0.0367285 6.76854e-20)
(0.697756 -0.0163389 1.53109e-18)
(0.944218 -0.027406 -1.8006e-18)
(0.972835 -0.0441874 2.26945e-18)
(0.656596 -0.0405234 3.64271e-19)
(0.281923 -0.0207624 5.36514e-19)
(0.724075 -0.053119 1.77155e-18)
(0.939701 -0.0969997 7.9459e-18)
(0.864373 -0.125233 1.03351e-18)
(0.591235 -0.107101 1.34915e-18)
(0.245631 -0.0554728 -4.78345e-19)
(0.741425 -0.100928 -1.2258e-18)
(0.856573 -0.175199 -2.29425e-18)
(0.707599 -0.184809 2.92374e-18)
(0.476384 -0.145957 -1.08615e-19)
(0.18571 -0.0742893 3.39746e-19)
(0.7125 -0.179735 3.2348e-20)
(0.676784 -0.233139 -7.6691e-18)
(0.53451 -0.215223 -5.9835e-18)
(0.344857 -0.160753 1.09009e-18)
(0.123485 -0.0775863 5.08417e-19)
(0.558187 -0.256187 4.77933e-19)
(0.481295 -0.256604 5.32518e-19)
(0.372243 -0.225197 -8.88594e-19)
(0.230966 -0.161165 -8.83579e-19)
(0.0756721 -0.0726876 -5.11896e-21)
(0.719561 0.367961 1.13682e-18)
(0.934348 0.113628 -1.63306e-19)
(0.717886 0.0269456 2.63293e-19)
(0.657753 0.0404627 -7.15838e-19)
(0.374489 -0.0569103 -1.01231e-19)
(0.812752 0.392125 -1.57652e-19)
(1.16571 0.136073 -5.7799e-19)
(0.912372 0.0515648 7.00915e-19)
(0.81063 0.108826 1.56813e-18)
(0.352907 0.0633942 1.02436e-19)
(0.856085 0.348632 -1.85921e-18)
(1.38165 0.142465 -4.53533e-20)
(1.0613 0.0880763 1.57661e-19)
(0.898021 0.18882 1.29094e-18)
(0.368913 0.185428 -1.20935e-18)
(0.861549 0.275603 1.26069e-18)
(1.42795 0.148205 5.07971e-20)
(1.13187 0.133705 -1.47557e-19)
(0.9366 0.284645 -8.63234e-20)
(0.406352 0.329644 -4.55208e-19)
(0.856131 0.208717 1.71256e-19)
(1.40809 0.152013 -7.62733e-20)
(1.1678 0.175681 -7.79197e-20)
(0.956744 0.385984 9.80592e-20)
(0.469611 0.484422 1.39928e-18)
(0.274035 0.0482084 0)
(0.25034 -0.0088364 6.1015e-19)
(0.166312 -0.015636 1.26994e-19)
(0.154339 0.00412668 -1.98685e-19)
(0.185039 0.0435029 -1.80825e-18)
(0.568641 0.264044 -1.01491e-17)
(0.63451 0.0708278 -2.36316e-18)
(0.474656 0.0139439 6.0929e-19)
(0.434502 0.00263284 -6.66401e-19)
(0.413661 -0.0666619 -6.6322e-19)
(0.245711 0.0167371 -2.40004e-23)
(0.229824 0.0150537 1.92671e-18)
(0.213224 0.00505885 5.23419e-19)
(0.1864 0.00180109 3.23248e-19)
(0.162657 0.000824853 0)
(0.599576 -0.162166 -1.1785e-19)
(0.568245 -0.080172 2.56119e-18)
(0.536458 -0.0464336 -1.35262e-19)
(0.484497 -0.0196378 -2.69573e-19)
(0.431943 -0.00441841 7.6023e-19)
)
;

boundaryField
{
    left
    {
        type            fixedValue;
        value           uniform (1 0 0);
    }
    right
    {
        type            zeroGradient;
    }
    down
    {
        type            noSlip;
    }
    up
    {
        type            noSlip;
    }
    cylinder
    {
        type            noSlip;
    }
    defaultFaces
    {
        type            empty;
    }
}


// ************************************************************************* //
