/*--------------------------------*- C++ -*----------------------------------*\
  =========                 |
  \\      /  F ield         | OpenFOAM: The Open Source CFD Toolbox
   \\    /   O peration     | Website:  https://openfoam.org
    \\  /    A nd           | Version:  13
     \\/     M anipulation  |
\*---------------------------------------------------------------------------*/
FoamFile
{
    format      ascii;
    class       volVectorField;
    location    "26.5";
    object      U;
}
// * * * * * * * * * * * * * * * * * * * * * * * * * * * * * * * * * * * * * //

dimensions      [0 1 -1 0 0 0 0];

internalField   nonuniform List<vector> 
440
(
(-0.0894263 0.0635104 -7.5286e-20)
(-0.10226 0.0846732 4.6877e-20)
(0.0859206 0.0622152 9.98317e-20)
(0.560326 0.0500268 1.32648e-19)
(0.66801 0.129639 1.99043e-20)
(-0.0911731 0.0499876 4.61877e-20)
(0.114046 -0.00410738 -1.46364e-19)
(0.702484 -0.0644055 -1.28204e-19)
(1.30082 -0.105637 6.65292e-20)
(1.87166 -0.133182 1.0045e-20)
(-0.00255497 -0.00376559 5.60163e-20)
(0.650184 -0.06669 8.96407e-19)
(1.49757 -0.0726155 -5.70945e-19)
(2.10637 -0.0536429 -1.74599e-18)
(2.55833 -0.0572558 7.33253e-19)
(0.25043 -0.0558003 -1.85525e-19)
(1.37887 -0.00862665 -6.54988e-19)
(2.15154 0.0426899 2.12254e-18)
(2.51715 0.0601178 2.32587e-18)
(2.54421 0.0645758 -6.46927e-19)
(0.654696 -0.00103806 -3.3251e-19)
(1.88694 0.176345 -7.19727e-19)
(2.39417 0.232916 2.19844e-18)
(2.51096 0.235469 2.30008e-18)
(2.5955 0.205566 7.64269e-19)
(-0.0102564 0.87837 5.40501e-19)
(-0.0616509 1.27013 1.01502e-18)
(-0.107521 1.23648 -2.17781e-18)
(-0.127842 1.10803 3.39647e-19)
(-0.13212 0.995744 2.29553e-18)
(-0.0564791 0.533522 -5.43216e-20)
(0.00444195 1.08353 -2.66328e-19)
(0.0602074 1.19609 -6.64968e-20)
(0.147984 1.09074 -7.38613e-20)
(0.197376 0.86947 1.30214e-19)
(-0.0489211 0.178483 1.55635e-19)
(-0.0385076 0.613779 -3.39049e-19)
(0.00985473 0.836225 1.30888e-19)
(0.111965 0.868683 8.83723e-20)
(0.185704 0.775248 5.41485e-21)
(-0.0227042 0.0374083 -6.12636e-20)
(-0.0721734 0.256222 1.30654e-19)
(-0.0607219 0.447504 -4.65498e-20)
(0.0120555 0.53431 -2.80981e-19)
(0.0601799 0.577888 2.9617e-20)
(-0.0466511 0.034516 -3.75132e-20)
(-0.132 0.119085 -5.6194e-20)
(-0.139732 0.206453 -1.34568e-19)
(-0.0116693 0.252546 7.10667e-21)
(0.0832688 0.344232 -3.56255e-19)
(0.245846 0.305862 -2.24221e-18)
(0.123361 -1.20147 1.22485e-18)
(1.26765 -0.259598 -2.58411e-19)
(1.1728 0.572883 -5.53778e-19)
(1.04125 0.0359538 2.57183e-20)
(1.016 0.139187 -1.61735e-18)
(1.63529 -1.27084 -2.16097e-19)
(1.22543 -0.446496 1.39141e-19)
(1.21954 0.573167 3.90287e-19)
(1.14258 0.0535294 -3.15883e-20)
(0.682448 -0.118262 -1.5796e-18)
(2.43184 -1.32553 9.81707e-19)
(1.18808 -0.327516 -1.0288e-19)
(1.05019 0.621274 2.48029e-19)
(1.22658 0.0535912 -6.23234e-21)
(0.896211 -0.261528 1.98387e-19)
(2.28809 -1.38325 -2.33757e-19)
(1.1926 -0.242598 -3.22314e-19)
(0.833968 0.600787 4.11968e-20)
(1.38333 0.000257369 1.40899e-19)
(1.6219 -0.517207 -7.32118e-20)
(1.76492 -1.35527 3.39079e-19)
(1.00499 -0.14912 0)
(0.815541 0.572889 -2.20494e-19)
(1.57624 -0.0700574 4.49403e-20)
(2.39767 -0.368474 -4.78593e-19)
(2.01643 -1.06541 5.76788e-20)
(0.995825 -0.235083 -1.31539e-20)
(1.2063 0.424196 -1.85937e-19)
(1.76618 -0.167427 6.20081e-20)
(2.60622 -0.571568 4.7676e-20)
(2.08609 -0.83966 9.01598e-19)
(0.419542 0.0735313 -8.71847e-21)
(1.44634 0.287126 1.94199e-19)
(1.78573 -0.218288 0)
(2.25074 -0.427916 -4.73854e-19)
(1.92801 -0.368005 1.39673e-20)
(0.564858 0.0542755 2.45263e-20)
(1.80557 -0.119179 -9.28332e-21)
(1.68572 -0.294397 7.64069e-21)
(2.1206 -0.344876 5.90837e-20)
(1.29241 -0.219174 6.98396e-20)
(1.04224 0.0821569 -1.48756e-20)
(1.65797 -0.165853 1.71003e-34)
(1.02793 -0.162783 -2.55281e-20)
(1.11774 -0.0684653 1.57748e-19)
(0.468424 0.030845 -2.41238e-20)
(0.701947 -0.0848889 -4.90002e-20)
(0.416694 -0.0938523 2.35501e-20)
(-0.0488337 -0.013078 -1.22581e-20)
(2.43984 0.227577 -9.33398e-19)
(2.65842 -0.0365649 -1.21025e-18)
(2.48919 0.0311985 9.16363e-19)
(2.84901 -0.209944 7.33132e-20)
(2.20107 -0.0122513 -9.55775e-21)
(2.0933 0.150926 5.21888e-20)
(2.44369 -0.075369 -4.0241e-20)
(2.20391 -0.0341149 -1.40776e-19)
(2.54463 -0.230973 -2.31319e-19)
(2.33354 -0.257564 -6.59527e-21)
(2.11508 0.0507502 6.85554e-20)
(2.25299 -0.0569192 1.10533e-19)
(2.2014 -0.0891744 -1.53423e-19)
(2.26885 -0.176951 5.10107e-20)
(2.2799 -0.234929 3.45164e-20)
(2.11284 -0.0096741 1.13082e-19)
(2.11843 -0.0709116 1.11684e-19)
(2.15861 -0.0858073 -1.78814e-20)
(2.14073 -0.145076 2.46143e-21)
(2.16857 -0.167647 2.53079e-20)
(1.55491 -0.0292502 1.56441e-19)
(1.4703 -0.0270149 -1.29954e-20)
(1.51756 -0.0443308 2.71839e-20)
(1.40075 -0.0381689 -9.03279e-21)
(1.452 -0.0667231 3.88661e-20)
(1.58195 0.838387 1.17425e-18)
(1.54279 0.94318 -3.89004e-19)
(1.55049 1.08075 -1.41546e-18)
(1.48101 1.12845 7.60316e-19)
(0.905405 0.807199 -1.73451e-19)
(1.89005 0.815059 -5.97093e-19)
(1.85331 0.88883 -3.14676e-18)
(1.8561 0.992809 -1.21164e-18)
(1.76885 1.00612 -4.20312e-19)
(1.08056 0.707573 -6.89797e-19)
(2.18485 0.66433 7.93936e-19)
(2.17501 0.74062 2.04163e-19)
(2.15508 0.835218 -2.3678e-18)
(2.02024 0.824587 -6.75719e-19)
(1.20064 0.55456 5.03472e-19)
(2.37335 0.555772 2.39326e-18)
(2.35461 0.604467 1.77649e-18)
(2.35076 0.659015 -2.05784e-18)
(2.1481 0.621502 -1.58317e-18)
(1.19001 0.369901 -2.95377e-19)
(2.50642 0.373654 1.22628e-18)
(2.53738 0.403026 -8.72797e-19)
(2.4528 0.436067 6.28259e-19)
(2.12379 0.389482 5.07504e-19)
(1.02244 0.169263 -4.41697e-19)
(0.57306 0.509352 -6.06727e-19)
(0.4794 0.547167 -4.4203e-19)
(0.360072 0.583342 4.3326e-20)
(0.224483 0.582306 5.59435e-21)
(0.0554818 0.412705 8.95606e-20)
(0.686687 0.665429 1.17436e-19)
(0.624105 0.723451 -2.7784e-19)
(0.535851 0.789766 1.84466e-19)
(0.410066 0.848035 -8.63085e-20)
(0.179889 0.643183 1.22001e-19)
(0.780279 0.87378 8.60569e-20)
(0.708479 0.959253 4.89135e-19)
(0.655768 1.05578 1.32419e-19)
(0.572402 1.08649 -3.22051e-19)
(0.313792 0.793213 2.73473e-19)
(1.06442 0.922142 2.52965e-19)
(1.01459 1.00273 -7.80752e-19)
(0.967094 1.10435 -2.03347e-18)
(0.888654 1.17454 8.0376e-19)
(0.523459 0.86933 -1.60996e-19)
(1.13628 0.988788 -9.96432e-20)
(1.1747 1.10786 -1.7692e-19)
(1.19787 1.2165 -3.92521e-19)
(1.14356 1.23148 -4.37982e-19)
(0.701473 0.874523 -6.8649e-21)
(1.01893 0.0409131 -9.62306e-20)
(1.00207 0.0480778 -3.15847e-20)
(1.0334 0.142599 -1.39311e-21)
(0.942683 0.152271 -2.34021e-19)
(0.906322 0.315629 3.02077e-19)
(1.00951 0.036421 6.06207e-20)
(1.01835 0.0468613 1.17062e-19)
(1.01393 0.153087 1.30911e-19)
(0.990135 0.17798 3.33476e-20)
(0.934524 0.394449 -2.13468e-20)
(1.02002 0.0344155 8.23346e-20)
(0.996495 0.0397775 -4.51338e-21)
(1.06096 0.174489 -5.48443e-21)
(0.93264 0.172376 1.45198e-19)
(1.16933 0.543071 -4.94007e-19)
(1.0195 0.0326732 -2.26532e-22)
(1.00619 0.034391 -1.62442e-19)
(1.04461 0.193938 -6.54336e-20)
(1.05015 0.166468 -3.64469e-19)
(1.16891 0.597595 9.33629e-20)
(1.02341 0.026609 -1.36013e-20)
(0.98845 0.0384536 4.51146e-20)
(1.10174 0.188409 3.02249e-20)
(1.01869 0.196717 4.50975e-19)
(1.40446 0.726288 -4.78173e-19)
(0.997478 0.0314988 -9.77241e-21)
(1.0284 0.0144046 9.48669e-20)
(1.07619 0.218467 -6.42629e-20)
(1.28116 0.105215 9.96081e-19)
(1.3233 0.789095 -3.5936e-19)
(0.95064 0.00678557 -1.22487e-21)
(1.08799 0.0210548 -8.07247e-20)
(1.0186 0.120645 5.65293e-21)
(1.45569 0.09593 -3.16663e-19)
(1.29338 0.574023 -7.71806e-20)
(0.969274 0.0110088 4.09534e-21)
(1.07406 0.0143627 1.46823e-35)
(1.15126 0.0489477 -3.00586e-20)
(1.36538 0.0635868 9.41204e-20)
(1.338 0.428813 1.82822e-19)
(1.02826 -0.0251149 3.7532e-21)
(1.0435 -0.0274192 -2.74763e-20)
(1.23742 -0.0128118 2.09496e-20)
(1.0701 0.0588326 2.0534e-20)
(1.52723 0.301833 -2.6961e-19)
(0.955148 -0.0222877 -3.75421e-20)
(0.861921 -0.0274957 -5.34848e-22)
(0.883255 0.000992662 2.7631e-20)
(0.735425 0.0148956 -2.08208e-20)
(1.23251 0.0703831 -6.20562e-20)
(1.8285 0.595721 2.90593e-19)
(1.92313 0.651596 7.44155e-19)
(2.17896 0.47858 -1.08112e-18)
(2.25098 0.481756 2.54133e-20)
(2.45451 0.232404 4.72263e-19)
(1.73827 0.366826 8.65035e-20)
(1.75504 0.439204 1.01635e-18)
(1.99366 0.281771 1.16611e-19)
(1.95692 0.323488 -8.87334e-19)
(2.24154 0.097849 -2.80108e-19)
(1.7174 0.306776 -2.28379e-19)
(1.80367 0.294596 -1.48679e-19)
(1.95733 0.203 2.42381e-19)
(1.98694 0.183237 -2.83994e-19)
(2.14715 0.0680198 2.59811e-19)
(1.74756 0.175084 4.13595e-19)
(1.87416 0.146648 6.00049e-22)
(1.92846 0.0876821 2.24248e-19)
(2.02184 0.068309 1.79516e-19)
(2.05016 0.00600006 -1.75113e-19)
(1.41473 0.0322837 -5.29419e-20)
(1.50774 0.0145732 2.59087e-19)
(1.50818 0.00238046 1.08232e-19)
(1.56248 -0.0106528 -2.09341e-19)
(1.50905 -0.0157518 6.28223e-22)
(1.09388 -0.0148837 6.35668e-20)
(2.07335 -0.0387514 -4.0947e-19)
(2.30348 -0.0283498 1.13307e-18)
(2.2876 0.00867406 5.06154e-19)
(2.11677 0.0335229 -3.56022e-19)
(0.699565 0.0968166 1.22807e-19)
(1.85766 0.0952854 -4.25864e-19)
(2.30587 0.0988128 -5.85299e-19)
(2.35122 0.106032 7.35121e-19)
(2.11613 0.0921402 -4.89922e-19)
(0.243497 0.0855474 -9.73031e-21)
(1.26661 0.159536 4.66932e-19)
(1.976 0.183836 6.2881e-20)
(2.34671 0.176 5.13609e-19)
(2.46356 0.168186 2.45737e-19)
(-0.00605332 -0.00365467 1.7721e-19)
(0.498877 0.101497 1.8328e-19)
(1.24649 0.174396 -4.37295e-19)
(1.71915 0.209808 3.06178e-20)
(2.27562 0.236544 1.71332e-19)
(-0.070175 -0.0558601 9.93905e-20)
(0.0497537 -0.0168011 -1.26476e-19)
(0.473994 0.066069 -5.95509e-20)
(0.928469 0.107246 3.38972e-20)
(1.33555 0.180188 -4.34119e-21)
(-0.0711294 -0.0836552 4.40836e-20)
(-0.0954596 -0.116225 5.51772e-20)
(0.0193755 -0.101135 6.74055e-20)
(0.210253 -0.0474142 -1.83227e-19)
(0.567724 0.0166032 7.48351e-21)
(-0.0284478 -0.0446602 5.49476e-21)
(-0.0421874 -0.0917658 -3.42534e-20)
(-0.0182724 -0.0845056 -4.85229e-20)
(0.0419655 -0.0399445 1.13404e-19)
(0.18794 0.0547379 8.20774e-20)
(-0.0511596 -0.204407 -2.90306e-20)
(-0.0288959 -0.323243 -1.04061e-18)
(-0.0118162 -0.315429 5.83754e-19)
(-0.0288137 -0.261097 1.11684e-18)
(-0.0340397 -0.196693 -1.42465e-19)
(-0.110211 -0.200298 7.66973e-20)
(-0.315347 -0.0559307 6.49114e-19)
(-0.454256 0.252865 -1.74829e-18)
(-0.6218 0.414596 -1.30864e-18)
(-0.708293 0.435945 8.678e-20)
(-0.0884723 0.498413 -1.3288e-19)
(-0.488071 0.700733 4.55081e-19)
(-0.775911 0.73353 -1.6526e-19)
(-0.934972 0.701887 1.55932e-19)
(-0.98411 0.613579 1.17062e-18)
(1.15494 0.66086 -1.51741e-20)
(0.997243 -0.0137313 1.01469e-18)
(1.32515 0.252228 5.47919e-20)
(0.382299 0.111913 1.78037e-20)
(0.364092 -0.15696 -8.25545e-21)
(1.09942 0.610284 1.3826e-19)
(0.732914 -0.101931 -5.60108e-19)
(1.51543 0.336713 3.44988e-20)
(0.743565 0.200726 4.15882e-21)
(0.553944 -0.131495 8.00589e-22)
(0.496323 0.44569 2.77699e-19)
(0.200124 -0.197004 6.24633e-19)
(1.65378 0.331096 -5.66759e-20)
(1.00642 0.309252 1.45826e-19)
(0.718441 -0.0954496 2.54071e-21)
(-0.747315 0.517197 8.47227e-19)
(-0.259326 -0.539258 -7.69788e-18)
(1.68858 0.248637 4.05438e-19)
(1.18669 0.419857 -7.42306e-21)
(0.872049 -0.044811 6.31673e-20)
(-0.972765 0.156512 6.46728e-19)
(-0.661354 -1.09859 -9.97869e-19)
(1.54493 -0.0331183 -5.25744e-19)
(1.25437 0.491971 4.98609e-20)
(0.977327 0.00686881 1.20378e-19)
(0.0880875 0.15874 -1.21747e-19)
(-0.242705 -0.137596 0)
(0.0915911 -0.078602 8.44518e-21)
(-0.243499 -0.0441066 2.24239e-20)
(0.303598 -0.0335187 -7.86626e-21)
(1.54269 0.546035 0)
(1.0311 0.124651 0)
(1.02604 0.0949094 7.13053e-20)
(-0.0292152 -0.025233 1.36375e-20)
(0.372861 -0.140802 4.98241e-20)
(0.680237 0.000946228 -1.21434e-19)
(0.695393 -0.00421263 1.85971e-19)
(0.929415 -0.000183792 -5.43962e-20)
(0.87824 0.0115072 2.7864e-19)
(1.29834 0.0882204 2.03687e-19)
(1.53715 0.0254717 1.14778e-19)
(1.6489 0.067218 2.67936e-19)
(1.83997 0.0504639 -4.39645e-19)
(2.31609 0.197483 3.9336e-20)
(2.11512 0.143317 2.09418e-19)
(0.866139 -0.44781 -3.43948e-20)
(0.850464 -0.532413 -1.4815e-19)
(0.8371 -0.62413 -9.39825e-20)
(0.76528 -0.687114 5.81347e-20)
(0.463257 -0.535808 1.20106e-19)
(0.765472 -0.348286 1.24457e-19)
(0.710925 -0.410151 2.57501e-19)
(0.639657 -0.47817 -3.30727e-20)
(0.530195 -0.535492 1.31615e-19)
(0.287153 -0.42606 5.33613e-20)
(0.630485 -0.206017 -1.50968e-19)
(0.544966 -0.242495 -4.97731e-20)
(0.443602 -0.287557 1.30319e-19)
(0.323498 -0.327934 -9.07055e-21)
(0.139812 -0.265478 -1.12862e-19)
(0.538856 0.0262298 -4.29424e-19)
(0.45233 0.014351 -3.5504e-19)
(0.341404 -0.00502177 2.80881e-19)
(0.214153 -0.0337284 1.74502e-19)
(0.0545025 -0.0507639 1.34616e-20)
(0.517272 0.232179 -1.63101e-19)
(0.430806 0.236868 -1.65778e-19)
(0.314192 0.242036 -7.10705e-20)
(0.177863 0.251022 1.82031e-20)
(0.0239587 0.185118 1.09278e-20)
(1.89935 -0.038992 7.40248e-19)
(2.14916 -0.100118 2.46844e-19)
(2.22381 -0.178326 -6.59061e-19)
(2.07597 -0.204334 -1.34178e-18)
(1.23855 -0.171618 1.15853e-19)
(1.8709 -0.117747 1.22433e-18)
(1.965 -0.222854 1.63086e-18)
(1.98667 -0.337408 1.37029e-19)
(1.90388 -0.392006 2.41913e-19)
(1.20843 -0.332866 -1.59208e-19)
(1.60808 -0.270737 -3.16266e-18)
(1.67422 -0.382595 3.47472e-19)
(1.71883 -0.500009 9.95452e-19)
(1.65471 -0.567244 -3.65577e-19)
(1.06532 -0.469222 5.77827e-19)
(1.40598 -0.387138 7.53215e-19)
(1.42686 -0.481239 -2.00148e-18)
(1.41745 -0.592483 -2.27603e-18)
(1.34875 -0.670137 6.84963e-19)
(0.864618 -0.541496 4.747e-19)
(1.14197 -0.440597 1.52414e-19)
(1.10549 -0.52987 2.2983e-19)
(1.09621 -0.643482 -3.43038e-19)
(1.03886 -0.720839 -4.12741e-19)
(0.65476 -0.565989 -3.79605e-21)
(1.07468 0.053727 7.63447e-21)
(0.928215 0.0637511 -3.37715e-21)
(1.10592 0.0861554 4.00081e-22)
(0.802684 0.0186621 -2.1404e-19)
(1.03853 -0.182 -1.23304e-20)
(1.08374 0.0554672 -2.50195e-21)
(0.926121 0.0624811 4.15802e-20)
(1.10706 0.104422 -3.35833e-20)
(0.887195 0.0668566 1.45222e-19)
(0.951253 -0.0674728 -1.25203e-20)
(1.08105 0.0508422 -6.08341e-20)
(0.930272 0.0600078 1.95764e-22)
(1.09527 0.107533 -1.87122e-20)
(0.89084 0.0921285 6.08445e-20)
(0.928204 -0.00557376 -1.88251e-19)
(1.06052 0.0481364 7.36474e-20)
(0.958015 0.0558658 3.2785e-21)
(1.06284 0.116314 3.21668e-20)
(0.924059 0.116569 -1.05654e-20)
(0.853833 0.104194 9.5079e-20)
(1.03354 0.0434877 1.85561e-20)
(0.991012 0.0545977 -2.72369e-20)
(1.0315 0.124091 4.51991e-20)
(0.952527 0.143123 5.93664e-20)
(0.836821 0.206481 -1.01361e-19)
(0.89237 0.0340652 0)
(0.705672 0.0286616 1.01852e-20)
(0.585553 0.023008 4.74356e-21)
(0.324101 -0.00504803 3.94579e-20)
(0.616658 -0.0485224 -1.27433e-19)
(1.04115 0.074719 -6.5822e-20)
(0.937371 0.0774487 -1.48992e-20)
(1.00565 0.0849744 -4.08125e-20)
(0.783812 0.00867561 -1.19421e-19)
(0.974515 -0.170473 -1.38276e-19)
(0.849082 -0.0628641 -3.06297e-20)
(0.932103 -0.0298326 4.71519e-19)
(1.01301 0.0345504 2.83047e-19)
(0.896257 0.0474825 2.98562e-20)
(0.698322 0.0247543 0)
(1.20302 -0.29585 2.89944e-19)
(1.31115 -0.261536 1.33581e-18)
(1.47264 -0.147107 -1.46226e-18)
(1.56125 -0.0215063 -4.49508e-19)
(1.46655 0.0228944 3.47133e-19)
)
;

boundaryField
{
    left
    {
        type            fixedValue;
        value           uniform (1 0 0);
    }
    right
    {
        type            zeroGradient;
    }
    down
    {
        type            noSlip;
    }
    up
    {
        type            noSlip;
    }
    cylinder
    {
        type            noSlip;
    }
    defaultFaces
    {
        type            empty;
    }
}


// ************************************************************************* //
