/*--------------------------------*- C++ -*----------------------------------*\
  =========                 |
  \\      /  F ield         | OpenFOAM: The Open Source CFD Toolbox
   \\    /   O peration     | Website:  https://openfoam.org
    \\  /    A nd           | Version:  13
     \\/     M anipulation  |
\*---------------------------------------------------------------------------*/
FoamFile
{
    format      ascii;
    class       volVectorField;
    location    "8.71";
    object      U;
}
// * * * * * * * * * * * * * * * * * * * * * * * * * * * * * * * * * * * * * //

dimensions      [0 1 -1 0 0 0 0];

internalField   nonuniform List<vector> 
440
(
(-0.0832696 0.0576675 -8.04048e-20)
(-0.0980002 0.0941858 4.58514e-20)
(0.0615824 0.0839967 8.20623e-20)
(0.535337 0.0762546 2.06562e-19)
(0.562845 0.179059 1.33805e-20)
(-0.0847085 0.0447109 3.98092e-20)
(0.0987391 -0.00337209 -1.44543e-19)
(0.645731 -0.056089 -1.19722e-19)
(1.22485 -0.0932384 5.94935e-20)
(1.77179 -0.114381 5.83567e-21)
(-0.00794373 -0.000852965 5.41582e-20)
(0.597762 -0.05873 8.50769e-19)
(1.42195 -0.0575557 -5.27539e-19)
(2.02937 -0.0324617 -1.61099e-18)
(2.50277 -0.0256033 6.74107e-19)
(0.232935 -0.0527204 -1.82806e-19)
(1.32219 -0.004512 -6.2632e-19)
(2.10297 0.0547462 2.01347e-18)
(2.49751 0.0806006 2.21493e-18)
(2.54872 0.0883589 -6.12564e-19)
(0.625496 -0.00263558 -3.22003e-19)
(1.85072 0.181815 -6.95639e-19)
(2.37702 0.248189 2.12879e-18)
(2.49859 0.255915 2.23982e-18)
(2.58136 0.229921 7.50164e-19)
(-0.0328529 0.457131 2.08161e-19)
(-0.12699 0.677024 2.5083e-19)
(-0.214438 0.676629 -7.33041e-19)
(-0.279356 0.630181 1.44213e-19)
(-0.31544 0.573899 1.31534e-18)
(-0.069423 0.435462 -2.43559e-20)
(-0.09918 0.757759 -2.09192e-19)
(-0.10545 0.797837 9.98525e-21)
(-0.0951183 0.737776 8.92242e-21)
(-0.0656784 0.649346 -1.76081e-20)
(-0.0798803 0.265493 2.56758e-20)
(-0.107785 0.61473 -1.03581e-19)
(-0.085132 0.73773 4.89689e-20)
(-0.0337 0.730064 -1.59833e-19)
(0.0405613 0.654556 6.40212e-21)
(-0.048564 0.0978668 -4.08763e-20)
(-0.0947836 0.335359 8.42919e-20)
(-0.0777546 0.479296 1.07939e-20)
(-0.0158864 0.524217 -9.54829e-20)
(0.0627629 0.521829 3.97589e-21)
(-0.0525218 0.0476186 -4.92579e-20)
(-0.123797 0.152517 -6.8867e-20)
(-0.124916 0.241631 -1.35618e-19)
(-0.000122144 0.274646 2.94185e-20)
(0.095314 0.362306 -2.81879e-19)
(-0.460053 0.286175 -2.22408e-18)
(0.296741 -1.03572 1.90015e-18)
(0.938679 -0.762337 -1.85265e-19)
(0.761199 0.527283 -4.89339e-19)
(0.688164 0.293589 -2.6238e-20)
(-0.0321066 0.193815 -7.66654e-19)
(1.67875 -1.16324 -3.57591e-19)
(1.00666 -0.731635 8.69931e-20)
(0.464441 0.609262 2.3591e-19)
(0.748484 0.264799 1.36683e-19)
(0.233002 -0.0199581 -1.00271e-18)
(2.1825 -1.31358 1.24196e-18)
(1.31796 -0.601276 -8.57244e-20)
(0.401316 0.64467 4.38032e-19)
(0.914425 0.20394 -8.32575e-21)
(0.588188 -0.166699 2.48379e-19)
(2.15903 -1.36004 -2.73789e-19)
(1.10387 -0.477063 8.24562e-20)
(0.354682 0.656287 2.62194e-20)
(1.13343 0.117163 3.97413e-19)
(1.03266 -0.359785 -1.4482e-19)
(2.31514 -1.28004 4.20815e-19)
(0.35404 -0.274925 0)
(0.0840997 0.675466 -6.9516e-19)
(1.381 -0.0177241 1.55558e-19)
(1.86166 -0.332648 -5.61412e-19)
(2.49319 -1.07432 1.17361e-19)
(0.812708 -0.153079 -1.17237e-20)
(0.770033 0.404845 -4.44891e-19)
(1.73813 -0.214941 -1.176e-19)
(2.47717 -0.486967 4.00551e-20)
(2.27388 -0.869119 9.68675e-19)
(0.550102 0.193884 -1.22787e-20)
(1.56484 0.286639 2.46748e-19)
(1.96246 -0.291628 0)
(2.33277 -0.389826 -4.83181e-19)
(1.96822 -0.390386 1.6735e-20)
(0.645509 0.134931 9.16335e-20)
(2.01488 -0.0924003 -5.72981e-20)
(1.8226 -0.325604 9.49766e-20)
(2.1961 -0.309208 5.62207e-20)
(1.4255 -0.230473 1.311e-19)
(1.08256 0.0962216 -2.23568e-20)
(1.84949 -0.209052 3.6938e-34)
(1.16307 -0.23593 -1.75095e-20)
(1.21126 -0.0780541 1.54803e-19)
(0.528982 0.0346682 -2.16682e-20)
(0.807229 -0.0515855 -4.62171e-20)
(0.570129 -0.0881378 4.35251e-20)
(-0.0576947 0.00131623 -3.71909e-20)
(2.46724 0.247972 -9.24506e-19)
(2.64899 0.000314762 -1.18714e-18)
(2.52174 0.0583554 8.86122e-19)
(2.77038 -0.173248 7.29884e-20)
(2.1996 0.0207295 -1.77675e-20)
(2.15969 0.177398 5.88772e-20)
(2.43715 -0.0360952 -4.08888e-20)
(2.28577 0.00283166 -1.41357e-19)
(2.5289 -0.186487 -2.30921e-19)
(2.37242 -0.218507 -6.9615e-21)
(2.11112 0.0762588 7.13976e-20)
(2.24045 -0.0375958 1.05509e-19)
(2.21341 -0.0516334 -1.46102e-19)
(2.28808 -0.141807 4.92262e-20)
(2.29088 -0.188319 2.98494e-20)
(2.1055 0.00251901 1.12833e-19)
(2.11957 -0.0557004 1.20582e-19)
(2.16966 -0.068061 -1.78943e-20)
(2.16725 -0.122189 -6.54606e-21)
(2.20297 -0.143297 2.5654e-20)
(1.56296 -0.0257013 1.61278e-19)
(1.48457 -0.0268142 -1.25899e-20)
(1.537 -0.0370941 2.6119e-20)
(1.43406 -0.0360838 -1.14371e-20)
(1.48957 -0.0552201 3.48621e-20)
(1.59 0.848581 1.19137e-18)
(1.55419 0.954628 -3.91732e-19)
(1.5597 1.09124 -1.42696e-18)
(1.48928 1.13763 7.67031e-19)
(0.910924 0.8134 -1.75237e-19)
(1.89093 0.821729 -6.04971e-19)
(1.85578 0.897173 -3.18504e-18)
(1.86331 1.0034 -1.22313e-18)
(1.77465 1.01413 -4.23627e-19)
(1.08275 0.709822 -6.92079e-19)
(2.19739 0.677765 7.93011e-19)
(2.18288 0.75165 2.06358e-19)
(2.1584 0.844085 -2.37371e-18)
(2.02182 0.831689 -6.71962e-19)
(1.19739 0.554772 4.99233e-19)
(2.37339 0.568952 2.39226e-18)
(2.35643 0.61713 1.76583e-18)
(2.35317 0.669939 -2.04091e-18)
(2.14172 0.628199 -1.55633e-18)
(1.17969 0.368537 -2.89662e-19)
(2.5221 0.393305 1.19609e-18)
(2.53861 0.419785 -8.59566e-19)
(2.44304 0.449179 6.13679e-19)
(2.10689 0.39719 4.94674e-19)
(1.00129 0.16586 -4.24872e-19)
(0.568231 0.51385 -5.97432e-19)
(0.474036 0.554335 -4.27913e-19)
(0.356106 0.594253 3.97747e-20)
(0.222803 0.595158 9.00918e-21)
(0.054949 0.421586 9.20448e-20)
(0.695605 0.667845 1.19486e-19)
(0.631547 0.72646 -2.80788e-19)
(0.541729 0.793613 1.8736e-19)
(0.414745 0.854354 -8.75716e-20)
(0.182081 0.649758 1.23536e-19)
(0.778443 0.878558 7.41935e-20)
(0.708801 0.966226 5.02801e-19)
(0.657828 1.0647 1.35988e-19)
(0.575921 1.09739 -3.27676e-19)
(0.31676 0.802775 2.78406e-19)
(1.07295 0.929132 2.6229e-19)
(1.02279 1.01196 -8.04441e-19)
(0.973809 1.11472 -2.07622e-18)
(0.894156 1.18417 8.19912e-19)
(0.526841 0.875998 -1.60941e-19)
(1.14295 0.992236 -1.02828e-19)
(1.18037 1.11197 -1.80937e-19)
(1.20475 1.22233 -3.96735e-19)
(1.15108 1.23844 -4.43503e-19)
(0.706385 0.880546 -6.95538e-21)
(1.01432 0.0549795 -9.7277e-20)
(0.993956 0.0381936 -3.45494e-20)
(1.03312 0.143274 -1.49065e-21)
(0.94044 0.147752 -2.49362e-19)
(0.906922 0.310606 3.04665e-19)
(1.0033 0.0531186 6.11075e-20)
(1.00766 0.0350919 1.26302e-19)
(1.01711 0.154165 1.31207e-19)
(0.986547 0.169678 3.50757e-20)
(0.944623 0.393466 -2.06584e-20)
(1.0083 0.0522965 8.26548e-20)
(0.99252 0.028272 -4.88059e-21)
(1.06085 0.172354 -5.22714e-21)
(0.944953 0.168063 1.52483e-19)
(1.16393 0.539317 -4.97674e-19)
(1.00195 0.0524904 -2.89471e-22)
(1.0109 0.0191793 -1.80413e-19)
(1.05199 0.191722 -6.50628e-20)
(1.0514 0.157429 -3.85042e-19)
(1.1843 0.59831 9.49204e-20)
(0.998354 0.0458408 -1.34462e-20)
(1.01117 0.0216758 5.08857e-20)
(1.105 0.186711 3.04531e-20)
(1.03705 0.190985 4.82706e-19)
(1.40466 0.727446 -4.83383e-19)
(0.95709 0.0492571 -7.3935e-21)
(1.08263 -0.00551338 1.09891e-19)
(1.0869 0.215747 -6.51716e-20)
(1.30381 0.0972017 1.03869e-18)
(1.34431 0.792193 -3.63713e-19)
(0.89628 0.0195891 -1.52566e-21)
(1.17933 -0.00908092 -9.91194e-20)
(1.01683 0.12727 5.61762e-21)
(1.44633 0.089708 -3.367e-19)
(1.27076 0.585906 -8.39398e-20)
(0.941569 0.0129176 8.33191e-22)
(1.15085 -0.0202802 1.54786e-35)
(1.09159 0.0774009 -2.11909e-20)
(1.33962 0.0652858 9.68766e-20)
(1.30229 0.427414 1.8944e-19)
(1.0613 -0.0348588 4.31177e-21)
(1.01761 -0.042187 -3.14474e-20)
(1.18268 0.0264467 2.09049e-20)
(1.09077 0.0529572 1.99166e-20)
(1.50626 0.292201 -2.91379e-19)
(0.98917 -0.0233878 -4.0699e-20)
(0.791161 -0.0231069 -3.1706e-21)
(0.903171 0.00721881 2.48445e-20)
(0.769481 0.00701835 -2.15572e-20)
(1.22956 0.0735401 -6.65813e-20)
(1.82999 0.604705 2.98878e-19)
(1.93887 0.660412 7.58431e-19)
(2.1903 0.495584 -1.09721e-18)
(2.27624 0.495424 1.23905e-20)
(2.47045 0.261939 4.77629e-19)
(1.7529 0.361034 9.40229e-20)
(1.77429 0.440444 1.02847e-18)
(2.00683 0.290737 1.22042e-19)
(1.99286 0.33671 -9.06449e-19)
(2.24859 0.123966 -2.87209e-19)
(1.69644 0.271423 -2.50384e-19)
(1.78225 0.282195 -1.54013e-19)
(1.92945 0.184953 2.00375e-19)
(1.96541 0.191618 -2.8338e-19)
(2.11733 0.0695321 2.61501e-19)
(1.72976 0.165232 4.33438e-19)
(1.85989 0.143969 -1.14925e-21)
(1.90772 0.0849826 2.21312e-19)
(2.00339 0.073633 1.81619e-19)
(2.03275 0.0117281 -1.79028e-19)
(1.42054 0.0291534 -5.54823e-20)
(1.5146 0.0137511 2.64001e-19)
(1.50844 -0.00133207 1.07421e-19)
(1.56386 -0.01042 -2.12516e-19)
(1.51169 -0.0181892 4.84e-22)
(1.08525 -0.0164301 6.06664e-20)
(2.06871 -0.0443129 -3.95742e-19)
(2.30455 -0.0357063 1.09161e-18)
(2.27966 0.00294874 4.80632e-19)
(2.13853 0.0297639 -3.42465e-19)
(0.679983 0.0938547 1.1273e-19)
(1.84668 0.0846778 -4.02243e-19)
(2.3034 0.0870209 -5.44535e-19)
(2.37447 0.0919773 6.64238e-19)
(2.10433 0.0821882 -4.28998e-19)
(0.223445 0.0785597 -1.40615e-20)
(1.232 0.145783 4.27952e-19)
(1.95999 0.161942 5.55853e-20)
(2.33301 0.153834 3.62302e-19)
(2.52757 0.142546 1.23526e-19)
(-0.0188722 -0.0118883 1.69685e-19)
(0.453142 0.0805277 1.70562e-19)
(1.19948 0.147463 -3.75903e-19)
(1.68119 0.170934 2.08907e-20)
(2.22421 0.198259 3.77423e-20)
(-0.0810808 -0.0659336 1.09483e-19)
(0.0122613 -0.0395735 -1.27248e-19)
(0.40729 0.0319141 -4.46435e-20)
(0.865236 0.0643598 3.79528e-20)
(1.22902 0.110859 -1.90518e-20)
(-0.0625777 -0.0630213 1.12232e-20)
(-0.101623 -0.0871057 5.29423e-20)
(-0.0121169 -0.0753686 6.76456e-20)
(0.183761 -0.0418411 -1.1688e-19)
(0.4844 0.0018475 4.10116e-22)
(-0.0304657 -0.0427211 -5.21982e-21)
(-0.0791241 -0.09927 -6.81008e-21)
(-0.093185 -0.142385 3.92343e-22)
(-0.0648121 -0.156116 1.91478e-20)
(0.040499 -0.12934 1.50129e-20)
(-0.0222062 -0.0425696 -8.17816e-21)
(-0.0734814 -0.102863 -1.16513e-19)
(-0.117595 -0.14197 1.08513e-19)
(-0.157891 -0.14995 2.22373e-19)
(-0.165353 -0.132922 -2.52539e-20)
(-0.0134297 0.0377926 9.13636e-21)
(-0.12026 0.0481523 7.83564e-20)
(-0.228932 0.0760672 -2.72375e-19)
(-0.333259 0.115826 -4.33073e-19)
(-0.412407 0.137176 2.37917e-20)
(-0.0132413 0.271292 -1.35948e-20)
(-0.16544 0.391002 5.8538e-20)
(-0.316302 0.411014 -3.33321e-20)
(-0.438762 0.40315 7.22823e-20)
(-0.522061 0.378583 5.27649e-19)
(1.39963 0.430934 -2.664e-20)
(1.21569 0.139048 1.25326e-18)
(1.64274 0.0551323 -7.25718e-20)
(1.34412 0.0899721 -5.11938e-21)
(0.832055 0.0272415 7.61377e-21)
(0.893008 0.275008 1.15778e-19)
(0.70424 0.0306349 -6.32309e-19)
(1.60072 0.0426966 -3.1303e-19)
(1.43789 0.192396 6.59007e-21)
(0.845869 0.0878042 -4.53458e-20)
(-0.0151732 0.182173 -1.78451e-19)
(-0.0116354 -0.118811 -8.01279e-20)
(1.42862 -0.0840361 -1.18796e-20)
(1.36614 0.284894 -2.67449e-19)
(0.79763 0.165575 1.82174e-20)
(-0.686807 0.22869 8.66956e-19)
(-0.528837 -0.42676 -3.6003e-18)
(1.26192 -0.294617 1.82255e-19)
(1.19794 0.371882 -8.47833e-21)
(0.733392 0.228851 2.52506e-20)
(-0.834536 0.243469 5.02439e-19)
(-0.611046 -0.811312 -4.63307e-19)
(1.10503 -0.555161 -1.83722e-19)
(0.987127 0.468404 3.45319e-20)
(0.691795 0.276465 3.44898e-20)
(0.635461 0.155397 -8.06449e-20)
(-0.0857193 -0.0442933 0)
(-0.0142192 -0.102759 -1.48655e-20)
(0.0293584 -0.0659008 4.96136e-20)
(0.295511 -0.0325355 -1.39913e-20)
(1.87483 0.39028 0)
(1.33881 0.231975 0)
(1.34089 0.0724179 4.66345e-19)
(0.978846 -0.0236487 8.67527e-20)
(0.732906 -0.0484635 -9.8607e-21)
(0.681919 -0.000157856 -1.20498e-19)
(0.742432 -0.00214984 2.79081e-19)
(0.872882 -0.0156593 -1.621e-20)
(1.03823 0.0116885 2.60142e-19)
(1.28106 0.0492323 1.69041e-19)
(1.55463 0.0188305 1.1518e-19)
(1.66475 0.0697776 3.05335e-19)
(1.85805 0.0321963 -1.13685e-19)
(2.42368 0.15383 -1.17498e-20)
(2.05764 0.101335 1.07794e-19)
(0.870367 -0.44461 -3.97209e-20)
(0.853209 -0.528068 -1.43985e-19)
(0.837485 -0.618446 -8.88922e-20)
(0.763334 -0.681215 5.58089e-20)
(0.460934 -0.531872 1.18929e-19)
(0.764589 -0.344427 1.27151e-19)
(0.708197 -0.405249 2.67495e-19)
(0.63549 -0.472325 -2.89869e-20)
(0.525771 -0.529025 1.29625e-19)
(0.284051 -0.420894 5.30826e-20)
(0.630349 -0.201601 -1.56383e-19)
(0.544367 -0.237068 -4.87013e-20)
(0.442673 -0.281287 1.42801e-19)
(0.32202 -0.321231 -5.70223e-21)
(0.138145 -0.260085 -1.10547e-19)
(0.535786 0.0309309 -4.33107e-19)
(0.448697 0.0205677 -3.58283e-19)
(0.337472 0.00282911 2.81324e-19)
(0.210811 -0.0247901 1.76229e-19)
(0.052554 -0.0442448 1.34133e-20)
(0.521071 0.235875 -1.67993e-19)
(0.435557 0.241528 -1.70487e-19)
(0.318753 0.246571 -7.48713e-20)
(0.180578 0.256378 1.75992e-20)
(0.024376 0.191599 1.11863e-20)
(1.89216 -0.0417521 7.26307e-19)
(2.15931 -0.103334 2.40497e-19)
(2.2248 -0.180767 -6.47909e-19)
(2.07397 -0.207346 -1.31953e-18)
(1.23374 -0.17216 1.1323e-19)
(1.88144 -0.118447 1.21627e-18)
(1.9638 -0.223437 1.61967e-18)
(1.98616 -0.338718 1.35777e-19)
(1.90299 -0.392776 2.39133e-19)
(1.20637 -0.332761 -1.57045e-19)
(1.60421 -0.271537 -3.15056e-18)
(1.67614 -0.383621 3.46323e-19)
(1.72066 -0.500124 9.87621e-19)
(1.65449 -0.567228 -3.63349e-19)
(1.0642 -0.469008 5.74525e-19)
(1.41324 -0.387063 7.44624e-19)
(1.43093 -0.480179 -1.98072e-18)
(1.41738 -0.590578 -2.25567e-18)
(1.34722 -0.668414 6.79895e-19)
(0.863374 -0.54071 4.71632e-19)
(1.14284 -0.439279 1.48818e-19)
(1.10413 -0.527885 2.27597e-19)
(1.0946 -0.640927 -3.3862e-19)
(1.03698 -0.718294 -4.08076e-19)
(0.653113 -0.564423 -3.75179e-21)
(1.05895 0.0580948 7.83882e-21)
(0.923353 0.0580651 -4.11449e-21)
(1.10389 0.0855894 -1.36372e-21)
(0.801666 0.0176423 -2.09912e-19)
(1.04834 -0.181183 -1.12125e-20)
(1.07322 0.0626151 -2.54588e-21)
(0.918143 0.0552974 4.44103e-20)
(1.10301 0.103563 -3.98562e-20)
(0.88243 0.064465 1.36061e-19)
(0.956194 -0.0675207 -1.52474e-20)
(1.07326 0.0605424 -6.25079e-20)
(0.925287 0.0520227 2.84844e-22)
(1.09036 0.107085 -2.02532e-20)
(0.883726 0.087659 5.15355e-20)
(0.930055 -0.00562486 -1.79034e-19)
(1.05372 0.059339 7.51365e-20)
(0.95618 0.0475551 3.3836e-21)
(1.05927 0.116274 3.36821e-20)
(0.917872 0.111662 -3.69084e-21)
(0.852949 0.102104 1.0076e-19)
(1.02762 0.0562069 1.88947e-20)
(0.98775 0.0449359 -2.91464e-20)
(1.02981 0.12605 4.64469e-20)
(0.94713 0.136417 6.33964e-20)
(0.836225 0.204771 -1.05362e-19)
(0.883547 0.0338368 0)
(0.712215 0.029059 1.02337e-20)
(0.586336 0.0238261 4.36965e-21)
(0.326687 -0.00576588 3.89295e-20)
(0.617947 -0.0484649 -1.23683e-19)
(1.02209 0.0758669 -6.57071e-20)
(0.941054 0.0738741 -1.69697e-20)
(1.00445 0.0853828 -3.80726e-20)
(0.793852 0.00930238 -1.1473e-19)
(0.974798 -0.169396 -1.33853e-19)
(0.848692 -0.0622774 -2.94912e-20)
(0.931208 -0.0296092 4.64213e-19)
(1.01171 0.0347226 2.80077e-19)
(0.897154 0.0474459 2.96735e-20)
(0.698208 0.0247282 0)
(1.20784 -0.295867 2.79752e-19)
(1.31386 -0.262113 1.31926e-18)
(1.47347 -0.14762 -1.4547e-18)
(1.5663 -0.0228578 -4.45844e-19)
(1.46229 0.0228905 3.41632e-19)
)
;

boundaryField
{
    left
    {
        type            fixedValue;
        value           uniform (1 0 0);
    }
    right
    {
        type            zeroGradient;
    }
    down
    {
        type            noSlip;
    }
    up
    {
        type            noSlip;
    }
    cylinder
    {
        type            noSlip;
    }
    defaultFaces
    {
        type            empty;
    }
}


// ************************************************************************* //
