/*--------------------------------*- C++ -*----------------------------------*\
  =========                 |
  \\      /  F ield         | OpenFOAM: The Open Source CFD Toolbox
   \\    /   O peration     | Website:  https://openfoam.org
    \\  /    A nd           | Version:  13
     \\/     M anipulation  |
\*---------------------------------------------------------------------------*/
FoamFile
{
    format      ascii;
    class       volScalarField;
    location    "0.485";
    object      p;
}
// * * * * * * * * * * * * * * * * * * * * * * * * * * * * * * * * * * * * * //

dimensions      [0 2 -2 0 0 0 0];

internalField   nonuniform List<scalar> 
440
(
-1.21295
-1.13172
-0.966436
-0.783093
-0.636705
-1.52914
-1.42254
-1.21631
-1.00587
-0.842486
-1.78008
-1.63829
-1.39374
-1.15813
-0.966986
-1.93882
-1.754
-1.48472
-1.23344
-1.033
-1.97036
-1.74028
-1.4604
-1.20246
-0.998873
0.112904
0.15617
0.192598
0.226516
0.251858
-0.0205392
0.0217754
0.0690972
0.117144
0.157338
-0.246865
-0.202211
-0.137874
-0.0679313
-0.00605345
-0.541559
-0.49096
-0.403283
-0.305413
-0.220189
-0.872036
-0.809628
-0.687747
-0.550376
-0.435492
0.253519
0.134912
0.0778718
0.0422393
0.0133798
0.240212
0.128273
0.0774324
0.0422518
0.013337
0.20242
0.117811
0.0757628
0.0419575
0.0132726
0.123557
0.105691
0.0731328
0.0413835
0.0131975
0.00343286
0.0913616
0.0695199
0.0404116
0.0130613
-0.0799159
0.0783632
0.0657645
0.0385577
0.012785
-0.120874
0.044233
0.0518889
0.0332652
0.0114803
-0.120954
0.0290882
0.0453605
0.0298501
0.0105114
-0.1275
0.0120206
0.0371366
0.0260281
0.0093463
-0.133072
0.00292877
0.0325432
0.0240208
0.00876622
-0.691647
-0.730764
-0.702429
-0.636876
-0.523874
-0.471414
-0.516979
-0.519724
-0.484973
-0.425926
-0.320927
-0.364296
-0.376426
-0.353306
-0.314592
-0.234191
-0.278243
-0.295622
-0.280175
-0.250541
-0.187591
-0.238959
-0.263503
-0.258262
-0.236852
0.454772
0.332181
0.177195
-0.00459007
-0.224247
0.0840284
-0.0551085
-0.230621
-0.440608
-0.704301
-0.308945
-0.46539
-0.666254
-0.895634
-1.18994
-0.636517
-0.811182
-1.04616
-1.30185
-1.59259
-0.866656
-1.06127
-1.31592
-1.59112
-1.85812
1.54257
1.57189
1.6061
1.63385
1.64437
1.39036
1.40871
1.42692
1.43369
1.42302
1.17599
1.17847
1.1699
1.14207
1.09097
0.925773
0.908384
0.866501
0.797984
0.698308
0.684355
0.615728
0.519103
0.396637
0.236873
1.49015
1.12009
1.46038
1.29248
1.47218
1.47988
1.10724
1.44413
1.26113
1.39955
1.46995
1.09277
1.42633
1.22031
1.29522
1.4604
1.07727
1.40718
1.17014
1.1387
1.4519
1.06153
1.38722
1.11246
0.96891
1.44192
1.04166
1.35486
1.03121
0.772272
1.43655
1.02189
1.3245
0.962371
0.73658
1.4379
1.00709
1.30159
0.914581
0.70355
1.43897
0.997839
1.28627
0.884659
0.694466
1.46228
0.995149
1.27846
0.868835
0.688043
0.423048
0.145461
-0.16717
-0.41771
-0.588355
0.343605
0.162466
-0.042662
-0.229565
-0.373531
0.330964
0.190266
0.0421409
-0.108007
-0.2322
0.346272
0.216672
0.0917603
-0.0363679
-0.149662
0.362835
0.239616
0.123734
0.00532957
-0.103013
-2.66805
-2.36235
-2.10184
-1.88748
-1.75997
-2.69951
-2.50418
-2.25198
-2.02328
-1.86678
-2.45857
-2.33351
-2.07197
-1.82386
-1.6254
-2.03647
-1.93634
-1.69361
-1.43065
-1.2227
-1.4767
-1.39409
-1.20909
-0.961835
-0.769631
-0.90598
-0.844851
-0.719411
-0.544787
-0.387753
-0.451862
-0.398869
-0.318914
-0.217105
-0.122407
-0.123194
-0.0846403
-0.029951
0.0311407
0.0867434
0.0724131
0.108372
0.147926
0.187226
0.218763
0.14612
0.187516
0.22069
0.251177
0.272908
0.0617031
0.0667482
0.0551157
0.0383589
0.0134795
0.185265
0.0987629
0.066324
0.0397206
0.0134418
0.238299
0.108594
0.0695619
0.0404936
0.0134047
0.254634
0.124901
0.0739398
0.0413421
0.0134094
0.256719
0.134085
0.0767157
0.0419225
0.0134017
-0.210296
-0.0270119
0.0350988
0.0335666
0.0130096
0.0191034
0.0805797
0.0578812
0.0379206
0.0135953
-1.69221
-1.77579
-1.58911
-1.21575
-0.878934
-1.71448
-1.78746
-1.52488
-1.11377
-0.704476
1.19329
1.15229
1.0907
1.00795
0.896657
1.36838
1.37762
1.37242
1.34782
1.30076
1.52687
1.54753
1.56516
1.57087
1.5603
1.60911
1.64034
1.67587
1.70548
1.71772
1.61679
1.65069
1.69111
1.72704
1.74507
-1.26695
-1.40445
-1.62553
-1.89215
-2.30827
-0.573972
-0.739037
-0.958251
-1.23174
-1.65574
0.0847931
-0.0822119
-0.281563
-0.525485
-0.87646
0.619602
0.487884
0.326836
0.128291
-0.132536
1.02172
0.92348
0.793142
0.635475
0.447273
1.54319
1.15436
1.51386
1.30579
1.3835
1.53208
1.15105
1.50637
1.31585
1.43745
1.5216
1.14623
1.49852
1.32566
1.5158
1.51108
1.13964
1.48789
1.32404
1.52311
1.50057
1.13094
1.47503
1.31353
1.51278
1.5836
1.16163
1.51184
1.25546
1.25262
1.55277
1.15626
1.50956
1.27601
1.24826
0.875625
0.619482
0.166471
-0.502365
-1.21909
0.98912
0.666934
0.180087
-0.487571
-1.21647
)
;

boundaryField
{
    left
    {
        type            zeroGradient;
    }
    right
    {
        type            fixedValue;
        value           uniform 0;
    }
    down
    {
        type            zeroGradient;
    }
    up
    {
        type            zeroGradient;
    }
    cylinder
    {
        type            zeroGradient;
    }
    defaultFaces
    {
        type            empty;
    }
}


// ************************************************************************* //
