# Selection   : all
# Cells       : 440
# Volume      : 7.374263e+01
# Time        	max(p)
2.6           	1.863640e+00
2.65          	1.859239e+00
2.7           	1.853247e+00
