/*--------------------------------*- C++ -*----------------------------------*\
  =========                 |
  \\      /  F ield         | OpenFOAM: The Open Source CFD Toolbox
   \\    /   O peration     | Website:  https://openfoam.org
    \\  /    A nd           | Version:  13
     \\/     M anipulation  |
\*---------------------------------------------------------------------------*/
FoamFile
{
    format      ascii;
    class       volScalarField;
    location    "33";
    object      p;
}
// * * * * * * * * * * * * * * * * * * * * * * * * * * * * * * * * * * * * * //

dimensions      [0 2 -2 0 0 0 0];

internalField   nonuniform List<scalar> 
440
(
-1.00198
-0.984494
-0.973229
-0.938122
-0.982742
-1.07724
-1.05658
-1.0312
-1.00111
-0.974555
-1.20156
-1.16509
-1.1186
-1.05877
-0.992899
-1.34415
-1.29308
-1.19284
-1.07374
-0.953999
-1.4383
-1.36684
-1.2037
-1.03494
-0.881528
-1.07032
-1.10268
-1.16469
-1.2189
-1.24986
-1.12414
-1.13127
-1.15237
-1.17988
-1.194
-1.10345
-1.0914
-1.08337
-1.08703
-1.09376
-1.04854
-1.0301
-1.00662
-0.986983
-0.988343
-0.978948
-0.964431
-0.93959
-0.89943
-0.905122
-1.38123
-0.608517
0.191351
0.0651535
0.019265
-1.23233
-0.888297
0.0537346
-0.0513986
0.0250427
-1.23221
-1.11678
-0.0545764
-0.133859
0.0303631
-1.14532
-1.14277
-0.109171
-0.120042
0.0399411
-0.994844
-1.04503
-0.114882
-0.0679491
0.0405958
-0.707813
-0.785843
-0.0717827
-0.0123101
0.0262823
-0.424098
-0.424874
-0.0439383
-0.0405276
-0.00035021
-0.321579
-0.255042
-0.0367358
0.12164
0.0127486
-0.224788
-0.146678
-0.0518551
0.0768627
0.00303787
-0.100547
-0.17697
-0.0566066
0.116894
0.0172919
-0.624557
-0.732409
-0.864469
-1.01093
-1.1271
-0.374122
-0.485778
-0.556222
-0.600057
-0.610305
-0.204986
-0.299309
-0.354322
-0.38557
-0.405053
-0.0946139
-0.178367
-0.233211
-0.261102
-0.273195
-0.0404782
-0.121407
-0.170045
-0.18608
-0.172735
0.68424
0.529178
0.331803
0.113903
-0.120356
0.263654
0.101012
-0.0971462
-0.321754
-0.575379
-0.14046
-0.306727
-0.516702
-0.750756
-0.990226
-0.495088
-0.665134
-0.877465
-1.10582
-1.29173
-0.732578
-0.906279
-1.10572
-1.31381
-1.43589
1.74005
1.76948
1.79486
1.80581
1.79968
1.55026
1.56978
1.58282
1.57813
1.55215
1.34049
1.32705
1.28975
1.22928
1.14304
1.10186
1.06652
0.994415
0.891761
0.761461
0.89444
0.787276
0.647774
0.488423
0.298196
1.52643
1.51966
1.49318
1.56455
1.62751
1.517
1.50932
1.47463
1.54664
1.53834
1.50871
1.49609
1.45352
1.51728
1.42088
1.50164
1.48057
1.43138
1.47154
1.25408
1.49564
1.46493
1.40869
1.42574
1.07311
1.49195
1.43989
1.38074
1.32613
0.868507
1.49044
1.41042
1.37915
1.19565
1.00133
1.49641
1.39531
1.37398
1.13168
1.05127
1.49703
1.37017
1.36497
1.0696
1.07974
1.53087
1.36811
1.36204
1.03053
1.1261
0.651597
0.344206
0.00915424
-0.288002
-0.467396
0.543995
0.327888
0.106605
-0.0879231
-0.249135
0.524366
0.35384
0.192187
0.0463758
-0.0939079
0.59122
0.431043
0.279843
0.141786
0.0133242
0.64076
0.474558
0.322973
0.187039
0.0632821
-1.62462
-1.4877
-1.32291
-1.18704
-1.10501
-1.72678
-1.65446
-1.5205
-1.40587
-1.32902
-1.68212
-1.62927
-1.53967
-1.45338
-1.38328
-1.56552
-1.52236
-1.46545
-1.40354
-1.33962
-1.44932
-1.42983
-1.39871
-1.35726
-1.30797
-1.42647
-1.42039
-1.3977
-1.38264
-1.29555
-1.36418
-1.3579
-1.34211
-1.33839
-1.2925
-1.44145
-1.45127
-1.46195
-1.46699
-1.45631
-1.42539
-1.4943
-1.57755
-1.6503
-1.71059
-1.03002
-1.14282
-1.27187
-1.37725
-1.45225
-1.08361
0.0533344
0.282582
0.305379
-0.00163792
-1.10037
0.0863604
0.352068
0.308399
-0.00570136
-1.2088
0.100601
0.373651
0.274615
-0.00368438
-1.51284
0.0460079
0.324251
0.199074
0.0030977
-1.56975
-0.267672
0.267013
0.122442
0.009959
-0.626281
-0.150364
0.19181
0.28658
0.00869462
-0.909325
-0.036509
0.264843
0.313977
0.0120016
-1.05596
-1.28575
-1.30633
-1.24685
-1.01113
-1.07566
-1.29234
-1.3307
-1.26605
-1.20805
1.38777
1.36753
1.33084
1.27887
1.21016
1.57829
1.59791
1.60417
1.59516
1.57088
1.73711
1.7697
1.79657
1.81231
1.81403
1.82958
1.86792
1.90848
1.94138
1.95649
1.82522
1.86074
1.89999
1.93221
1.94659
-0.668056
-0.768272
-0.923582
-1.11183
-1.32234
-0.0916844
-0.217815
-0.386789
-0.589721
-0.837396
0.429432
0.297338
0.13971
-0.0450473
-0.269419
0.846618
0.744745
0.621081
0.472283
0.295122
1.18033
1.10996
1.0195
0.911701
0.785812
1.58698
1.54628
1.52745
1.53286
1.53494
1.5719
1.54378
1.5273
1.54878
1.59932
1.55919
1.54011
1.5257
1.5699
1.67039
1.54739
1.53512
1.51914
1.57792
1.68323
1.53642
1.5287
1.50779
1.57645
1.67281
1.64319
1.55256
1.51526
1.45701
1.3982
1.59737
1.54298
1.51013
1.47549
1.41943
1.07113
0.855314
0.484272
-0.0513939
-0.636996
1.1465
0.88561
0.50112
-0.0311085
-0.629872
)
;

boundaryField
{
    left
    {
        type            zeroGradient;
    }
    right
    {
        type            fixedValue;
        value           uniform 0;
    }
    down
    {
        type            zeroGradient;
    }
    up
    {
        type            zeroGradient;
    }
    cylinder
    {
        type            zeroGradient;
    }
    defaultFaces
    {
        type            empty;
    }
}


// ************************************************************************* //
