/*--------------------------------*- C++ -*----------------------------------*\
  =========                 |
  \\      /  F ield         | OpenFOAM: The Open Source CFD Toolbox
   \\    /   O peration     | Website:  https://openfoam.org
    \\  /    A nd           | Version:  13
     \\/     M anipulation  |
\*---------------------------------------------------------------------------*/
FoamFile
{
    format      ascii;
    class       surfaceScalarField;
    location    "33";
    object      phi;
}
// * * * * * * * * * * * * * * * * * * * * * * * * * * * * * * * * * * * * * //

dimensions      [0 3 -1 0 0 0 0];

internalField   nonuniform List<scalar> 
823
(
-0.00484849
0.01795
-0.0131015
0.0129072
0.00611773
-0.0238734
0.0777237
-0.0464426
-0.0183739
0.180636
-0.11436
0.011448
-0.158728
0.00954786
0.329816
0.00712098
0.010829
0.0621992
-0.0489605
0.164853
-0.149096
0.284813
-0.23432
-0.308662
0.434747
0.0267402
-0.0159112
0.120629
-0.142849
0.234543
-0.26301
0.338471
-0.338247
-0.377454
0.407262
0.0490945
-0.0650057
0.147078
-0.240833
0.225721
-0.341654
0.269042
-0.381568
-0.391923
0.283511
0.0600371
-0.125043
0.127359
-0.308155
0.162846
-0.37714
0.175863
-0.394585
0.184413
-0.400473
-0.0292405
0.0703442
-0.0411037
-0.0881386
0.125544
-0.0666456
-0.14666
0.128894
-0.0703724
-0.195057
0.120985
-0.0725875
0.11244
-0.228517
-0.0789806
0.0258122
0.044532
0.0428831
0.108473
0.0395117
0.132265
0.0287069
0.131789
0.119392
0.0217545
0.0286534
0.0158786
0.0760378
0.0610884
0.116481
0.0918217
0.145417
0.102853
0.103466
0.161343
0.0103437
0.00553491
0.0425082
0.028924
0.0855616
0.0487683
0.135521
0.0528945
0.0605307
0.178456
-0.00756655
-0.002516
0.0278783
0.0922208
0.162299
0.209227
0.655099
-1.09284
0.627877
-1.51122
1.09257
0.587549
-1.26727
1.3076
0.527864
0.492984
-0.433299
0.290909
-0.237977
0.273792
0.403061
0.524856
-1.76228
0.594307
-1.33672
0.545012
0.542279
0.338583
0.272358
0.292046
0.377001
-1.86693
0.49286
-1.45258
0.521964
0.513175
0.365656
0.421709
0.0487931
0.417917
-1.86314
0.434139
-1.4688
0.475462
0.471852
0.354331
0.521541
-0.310448
0.465927
-1.80752
0.357013
-1.35989
0.383104
0.445761
0.249157
1.48673
-0.560695
-1.23648
1.239
-1.55979
0.68287
-0.80376
0.62359
0.505041
0.0325269
1.46001
-0.617904
-1.4028
0.950197
-1.04998
0.45427
-0.307834
0.693015
0.266296
-0.182933
1.30612
-0.571869
-1.35216
0.855377
-0.599235
0.575044
-0.0275007
0.873332
-0.0319926
-0.249137
1.10043
-0.36136
-1.31094
0.693186
-0.191986
0.655243
0.0104429
0.7749
-0.15165
-0.134032
0.491297
-0.852657
0.299311
0.309754
0.158104
1.10631
0.146226
-1.06812
1.18096
0.208862
1.29093
0.297295
1.33924
0.386435
0.432573
1.00304
0.0932092
-0.95002
1.07859
0.13331
1.1704
0.20548
1.2902
0.266638
0.319974
0.961424
0.0469657
-0.91518
1.02012
0.0746134
1.10478
0.120822
1.2197
0.151716
0.187518
0.938867
0.00855149
-0.900452
0.992884
0.0205954
1.07638
0.0373244
1.18136
0.0467408
0.0579306
0.690066
-0.681514
0.710661
0.747985
0.794726
0.140435
0.300604
-0.246135
-0.194904
0.0943132
0.306188
-0.260067
0.0533051
0.316881
-0.275873
0.0185781
0.307905
-0.273178
0.19763
-0.179052
0.101008
0.336553
-0.136956
0.0648598
0.342336
0.0328406
0.348901
0.00774035
0.333006
0.205371
0.0701562
0.373033
-0.106636
0.0377382
0.374754
0.0101073
0.376531
-0.00534884
0.348462
0.200022
-0.00818356
0.388579
-0.00736261
-0.0253632
0.391934
-0.0339788
0.385147
-0.0265337
0.341017
0.173488
-0.0866624
0.0747684
-0.0893137
-0.0813069
-0.0484452
0.199108
0.106986
-0.252766
-0.0533283
0.144908
0.111024
-0.0568239
0.0896564
0.115535
-0.060284
0.0363655
0.114832
-0.0615409
0.0804204
-0.0440549
0.193883
0.150281
-0.237177
0.147353
0.157555
0.0955778
0.16731
0.0406214
0.169788
0.121042
0.136769
0.19479
-0.181279
0.0960956
0.198228
0.0570331
0.206372
0.0205253
0.206296
0.141567
0.152506
0.226917
-0.184632
0.11387
0.236863
0.070309
0.249934
0.0275046
0.2491
0.169072
0.0832014
-0.102419
0.0599982
0.0340585
0.00998034
0.408318
0.0428688
-0.0552076
0.426426
0.0425453
-0.0606525
0.408488
0.208584
-0.190647
0.397205
0.205686
-0.194402
0.488183
-0.343744
0.406645
0.0322037
0.418979
0.030211
0.397982
0.229581
0.385618
0.21805
0.636623
0.400434
0.0277494
0.411992
0.0186529
0.374393
0.26718
0.372267
0.220176
0.827611
0.397335
0.0263942
0.393208
0.0227794
0.363865
0.296523
0.354818
0.229224
0.997797
0.387839
0.0345349
0.378612
0.0320067
0.336533
0.338602
0.324628
0.241129
1.22001
0.621263
0.0172923
0.630349
0.0229206
0.686407
0.282544
0.791137
0.136399
1.02733
0.983811
0.6305
-0.00918778
0.613674
0.0397475
0.729801
0.166416
0.806037
0.0601627
0.798402
1.03497
0.626138
-0.0313052
0.641533
0.0243526
0.766214
0.0417347
0.801422
0.0249545
0.580693
1.01913
0.623082
-0.0503669
0.67484
-0.0274047
0.73664
-0.0200657
0.739159
0.0224351
0.301289
1.01856
0.553654
0.526249
0.506183
0.528618
0.829907
1.02584
-0.236937
1.01565
-0.126761
1.02691
-0.117897
1.02084
-0.00129077
0.027484
0.978361
-0.180332
0.952848
-0.101249
0.925597
-0.0906458
0.932255
-0.00794884
0.0097195
0.946443
-0.107642
0.920776
-0.0755817
0.892809
-0.0626792
0.904627
-0.0197665
-0.000834092
0.956064
-0.0451433
0.919498
-0.0390155
0.891077
-0.0342578
0.891262
-0.0199517
-0.0100245
0.784764
0.745748
0.71149
0.691539
0.0466312
0.155175
-0.201806
0.0697103
0.329838
-0.352917
0.0698981
0.381684
-0.381872
0.0608199
0.382378
-0.3733
0.349953
0.0488226
-0.337956
0.0691608
0.0860139
0.136947
0.262051
0.168696
0.349935
0.172801
0.378273
0.365981
0.156774
0.0597491
0.0262649
0.167467
0.154333
0.253445
0.263957
0.307723
0.323995
0.365266
0.308437
0.0293879
-0.00312306
0.127672
0.0560495
0.244202
0.147427
0.354453
0.213744
0.286255
0.433465
0.00761049
-0.0107335
0.0605455
0.00311446
0.156519
0.0514531
0.268679
0.101584
0.161671
0.393262
-7.7438e-05
-0.0106561
0.0129612
-0.00992416
0.055971
0.00844324
0.12199
0.0355652
0.0818342
0.201827
0.000476924
-0.011133
0.00410114
-0.0135484
0.0137916
-0.00124718
0.0300781
0.0192787
0.0495154
0.0623969
0.0251594
-0.0362924
0.0498876
-0.0382766
0.0589317
-0.0102913
0.0615279
0.0166826
0.0417592
0.069284
-0.00104817
-0.0352442
-0.0129968
-0.026328
-0.0304215
0.00713353
-0.0435042
0.0297653
0.0472534
-0.0489984
-0.076348
-0.169322
-0.23256
-0.275383
-0.30711
0.125368
1.19346
-1.117
0.277045
-0.13636
-0.0153174
0.368539
-0.0839898
-0.00750421
0.253696
0.219357
-0.104513
-0.0469911
0.082009
0.0158699
1.23998
0.188902
-0.309392
0.455765
-0.350853
0.34905
0.326072
0.0134674
-0.122345
1.43161
0.0815199
-0.513257
0.542461
-0.811794
0.447797
0.420736
0.0935328
-0.103611
1.48622
0.139619
-0.756486
0.536528
-1.2087
0.507701
0.449563
0.172399
0.0862721
0.422356
0.521251
0.537516
-0.101401
0.62926
-0.527859
-0.0444366
-0.0569646
0.0357055
-0.0801421
0.0826719
-0.0469664
-0.0760238
0.55663
-1.04437
0.484348
0.396702
0.245222
0.0854729
-0.0125117
-0.0729612
0.136113
-0.0506398
0.230016
-0.0939034
0.367424
-0.137408
-0.160435
0.194814
-0.158503
0.300949
0.515483
0.81154
0.140276
-0.138106
0.168204
-0.170374
0.106645
-0.143784
0.177415
0.0683819
-0.151311
0.189574
0.0276341
-0.151644
0.192392
-0.107144
0.134778
0.179984
-0.0986369
-0.219452
0.136048
-0.099848
0.0867024
-0.101965
0.0359087
-0.100851
-0.0712348
0.189787
-0.0494981
-0.238926
0.139122
-0.0491832
0.0868177
-0.0496609
0.0353941
-0.049427
-0.0358408
0.201962
0.00214659
-0.253607
0.149549
0.00323006
0.0955163
0.00437194
0.0403677
0.00572159
0.00452693
0.204853
-0.256035
0.151259
0.0953473
0.039528
0.0412851
-0.318089
-0.0611522
0.0164368
-0.348451
-0.00569991
-0.359735
-0.0150415
-0.343575
-0.216847
0.121509
-0.287156
-0.152442
0.0796716
-0.306614
0.038765
-0.318828
0.0079615
-0.312772
-0.208886
0.140056
-0.247811
-0.179401
0.0985028
-0.265061
0.0575444
-0.27787
0.0204117
-0.275639
-0.188474
0.15775
-0.213069
-0.192492
0.115591
-0.222902
0.0704433
-0.232722
0.0276703
-0.232866
-0.160804
0.155135
-0.200001
0.109648
0.0665003
0.0260262
0.392402
0.0960595
-0.0924822
0.390333
0.105119
-0.10305
0.356054
0.161619
-0.127339
0.298319
0.0630578
-0.00532353
-0.1971
0.325045
0.400148
0.0918914
0.405773
0.0994936
0.394879
0.172512
0.347352
0.110585
-0.0692002
0.405145
0.0827265
0.415765
0.0888735
0.40977
0.178507
0.372593
0.147762
0.0644673
0.408993
0.0697128
0.422189
0.0756779
0.417976
0.18272
0.391495
0.174242
0.202356
0.410485
0.42551
0.417583
0.397423
0.415921
0.09413
0.328829
0.0870924
0.239866
0.0889625
0.243426
-0.00355968
-0.178908
0.422334
0.511699
0.495742
0.457365
0.448482
0.594619
0.339759
0.0825744
0.265271
0.0744878
0.177232
0.0880393
0.103081
0.0741513
0.0301197
0.477192
0.359188
0.267826
0.189536
)
;

boundaryField
{
    left
    {
        type            calculated;
        value           nonuniform List<scalar> 
17
(
-0.60402
-0.60402
-0.60402
-0.60402
-0.60402
-0.39598
-0.39598
-0.39598
-0.39598
-0.39598
-0.39598
-0.39598
-0.39598
-0.39598
-0.39598
-0.510051
-0.510051
)
;
    }
    right
    {
        type            calculated;
        value           nonuniform List<scalar> 
17
(
0.158696
0.251207
0.218678
0.288592
0.367731
0.428835
0.471939
0.474932
0.497338
0.494891
0.486787
0.488278
0.84022
0.908475
0.939536
0.659794
0.0240719
)
;
    }
    down
    {
        type            calculated;
        value           uniform 0;
    }
    up
    {
        type            calculated;
        value           uniform 0;
    }
    cylinder
    {
        type            calculated;
        value           uniform 0;
    }
    defaultFaces
    {
        type            empty;
    }
}


// ************************************************************************* //
