/*--------------------------------*- C++ -*----------------------------------*\
  =========                 |
  \\      /  F ield         | OpenFOAM: The Open Source CFD Toolbox
   \\    /   O peration     | Website:  https://openfoam.org
    \\  /    A nd           | Version:  13
     \\/     M anipulation  |
\*---------------------------------------------------------------------------*/
FoamFile
{
    format      ascii;
    class       volVectorField;
    location    "33";
    object      U;
}
// * * * * * * * * * * * * * * * * * * * * * * * * * * * * * * * * * * * * * //

dimensions      [0 1 -1 0 0 0 0];

internalField   nonuniform List<vector> 
440
(
(-0.0903154 0.063269 -6.91623e-20)
(-0.109897 0.0761757 5.2409e-20)
(0.068995 0.04325 1.37455e-19)
(0.520933 0.0248831 1.89496e-20)
(0.6156 0.108886 1.9428e-20)
(-0.0989269 0.0564376 4.50792e-20)
(0.0823466 0.00951657 -1.37732e-19)
(0.642268 -0.0503756 -1.32063e-19)
(1.22424 -0.086466 7.3754e-20)
(1.7831 -0.119364 1.78122e-20)
(-0.015237 0.00287628 5.53493e-20)
(0.592643 -0.0558927 8.24681e-19)
(1.41935 -0.0602543 -5.29212e-19)
(2.02301 -0.0470242 -1.69093e-18)
(2.48903 -0.0427128 7.16873e-19)
(0.221757 -0.0499576 -1.80301e-19)
(1.30039 -0.00327256 -5.9868e-19)
(2.06929 0.0510077 1.96334e-18)
(2.45159 0.0771883 2.15453e-18)
(2.48293 0.082062 -6.09049e-19)
(0.609027 -0.00311798 -3.12969e-19)
(1.81369 0.175858 -6.7549e-19)
(2.33388 0.239276 2.06715e-18)
(2.45625 0.242654 2.2107e-18)
(2.54894 0.217012 7.41239e-19)
(-0.0440982 0.464941 1.03707e-19)
(-0.226631 0.673298 3.86482e-19)
(-0.380778 0.598823 -6.47167e-19)
(-0.482445 0.549729 8.22504e-20)
(-0.530429 0.549601 5.19944e-19)
(-0.0566009 0.404454 -3.32193e-20)
(-0.0814383 0.848014 -1.77024e-19)
(-0.107893 0.933981 -2.66596e-20)
(-0.126118 0.865374 -2.27497e-20)
(-0.114868 0.755896 3.6793e-20)
(-0.0476217 0.164446 8.91826e-20)
(-0.0582636 0.560847 -1.37109e-19)
(-0.0387261 0.78808 8.18539e-20)
(-0.00245974 0.856848 -1.00672e-19)
(0.0607315 0.827052 4.99248e-21)
(-0.0164976 0.0289536 -3.23507e-20)
(-0.0633429 0.230197 8.43983e-20)
(-0.0629224 0.437202 1.26089e-20)
(-0.0172229 0.561391 -1.89912e-19)
(0.0243821 0.651659 2.26663e-20)
(-0.0403281 0.0274524 -5.01261e-20)
(-0.125304 0.101444 -7.37174e-20)
(-0.143551 0.190432 -2.00883e-19)
(-0.0249917 0.253198 1.15293e-19)
(0.0523373 0.368138 -9.07588e-20)
(-0.800695 0.606925 1.55273e-18)
(1.85382 -0.875023 2.20766e-18)
(1.31969 -0.881243 3.09034e-19)
(1.4393 0.332507 -7.68544e-19)
(1.1994 0.18632 1.94732e-20)
(-0.112163 0.34641 -4.05215e-19)
(1.59324 -1.18207 -3.74004e-19)
(1.37516 -0.926932 1.3749e-19)
(1.4842 0.318551 8.88118e-19)
(1.25568 0.202378 -3.10733e-20)
(0.183848 0.176399 -1.57065e-19)
(1.50286 -1.30979 1.36673e-18)
(1.06337 -0.953082 -1.0361e-19)
(1.39438 0.362127 2.89364e-19)
(1.24928 0.235248 2.74848e-21)
(0.674172 0.196058 3.65039e-19)
(2.00001 -1.23034 -1.38999e-19)
(1.11025 -1.00266 2.87588e-20)
(1.20341 0.298819 2.11252e-19)
(1.2288 0.232867 -3.12787e-20)
(1.35645 -0.137805 -2.12396e-19)
(2.42778 -1.18259 7.75707e-19)
(1.27602 -0.881762 0)
(0.738995 0.315137 -2.64966e-19)
(1.2327 0.202174 1.20725e-20)
(2.05238 -0.249296 -4.79036e-19)
(2.72517 -0.950476 -5.66587e-20)
(1.51054 -0.750209 -1.80464e-20)
(0.686412 0.243284 -4.04629e-20)
(1.39086 0.072569 -9.2255e-20)
(2.27707 -0.426762 2.66461e-20)
(2.50662 -0.939198 9.53036e-19)
(0.701487 -0.275852 -9.30036e-21)
(0.771857 0.348724 2.38268e-19)
(1.50397 -0.0349701 0)
(2.17607 -0.377341 -3.36308e-19)
(2.1727 -0.408474 6.63513e-21)
(0.65793 -0.0998443 -1.96096e-20)
(1.27989 0.0155903 -1.02419e-19)
(1.55564 -0.183021 4.47003e-21)
(2.18642 -0.333507 7.59065e-20)
(1.49015 -0.319142 1.00029e-19)
(0.785038 0.0629898 -1.58235e-20)
(1.4245 -0.0654433 -6.48869e-35)
(1.09248 -0.138035 -6.70529e-21)
(1.17296 -0.0916424 1.758e-19)
(0.414362 0.061332 -1.76094e-20)
(0.597278 -0.0487936 -1.65931e-20)
(0.459418 -0.108988 2.32711e-20)
(0.0399877 -0.0214996 -1.25895e-20)
(2.38169 0.219768 -9.19203e-19)
(2.61985 0.00783096 -1.13738e-18)
(2.4228 0.0191736 8.82915e-19)
(2.74998 -0.166744 4.53407e-20)
(2.14009 -0.0347363 -1.89433e-20)
(2.06251 0.154567 4.45004e-20)
(2.40812 -0.0166768 -3.86802e-20)
(2.20505 -0.0297199 -1.25486e-19)
(2.44185 -0.180156 -2.18488e-19)
(2.32902 -0.250375 -4.79084e-21)
(2.08263 0.0759917 6.32637e-20)
(2.19111 -0.0148321 1.0701e-19)
(2.1996 -0.0661291 -1.43198e-19)
(2.21353 -0.138501 4.54359e-20)
(2.26518 -0.20915 2.83657e-20)
(2.08148 0.0111866 1.06825e-19)
(2.10675 -0.0493391 1.07366e-19)
(2.15472 -0.0722889 -1.73906e-20)
(2.15513 -0.129442 -8.59528e-21)
(2.17982 -0.15963 2.7345e-20)
(1.5715 -0.028458 1.45714e-19)
(1.50333 -0.0291879 -1.25419e-20)
(1.54617 -0.0462976 2.71224e-20)
(1.44314 -0.0435006 -9.8378e-21)
(1.48372 -0.069739 3.48714e-20)
(1.55314 0.81544 1.13137e-18)
(1.51754 0.92096 -3.74964e-19)
(1.52517 1.05718 -1.35652e-18)
(1.45305 1.10515 7.25208e-19)
(0.885204 0.78798 -1.65829e-19)
(1.86071 0.801944 -5.72678e-19)
(1.82473 0.875993 -3.0171e-18)
(1.82669 0.979666 -1.16105e-18)
(1.73606 0.991207 -4.03379e-19)
(1.05562 0.690729 -6.55782e-19)
(2.14673 0.660426 7.54921e-19)
(2.13735 0.735634 1.95755e-19)
(2.11684 0.826841 -2.28185e-18)
(1.97817 0.815131 -6.41127e-19)
(1.16706 0.540076 4.74632e-19)
(2.33928 0.553529 2.26576e-18)
(2.31654 0.600914 1.68977e-18)
(2.31028 0.654032 -1.95989e-18)
(2.09987 0.614863 -1.49437e-18)
(1.15077 0.357954 -2.74675e-19)
(2.46058 0.390488 1.15591e-18)
(2.49121 0.416782 -8.17849e-19)
(2.39932 0.44256 5.91941e-19)
(2.06304 0.390541 4.69781e-19)
(0.974105 0.160641 -4.01597e-19)
(0.57505 0.480292 -6.51733e-19)
(0.481948 0.517305 -4.93618e-19)
(0.362735 0.553636 5.42212e-20)
(0.225546 0.551692 -4.9007e-21)
(0.055265 0.386563 7.86494e-20)
(0.67932 0.634946 7.71712e-20)
(0.614159 0.689271 -2.94294e-19)
(0.524317 0.753367 1.73336e-19)
(0.399404 0.811393 -8.1092e-20)
(0.174015 0.615028 1.15366e-19)
(0.771127 0.851512 1.20896e-19)
(0.700698 0.934931 4.42187e-19)
(0.645512 1.02717 1.11981e-19)
(0.559266 1.0552 -2.98826e-19)
(0.304876 0.767421 2.51653e-19)
(1.04244 0.896138 2.23185e-19)
(0.992263 0.976509 -7.17268e-19)
(0.946119 1.07804 -1.90976e-18)
(0.867127 1.14552 7.56556e-19)
(0.508808 0.843094 -1.55284e-19)
(1.12493 0.969763 -9.11608e-20)
(1.15779 1.08381 -1.66215e-19)
(1.17606 1.18794 -3.75145e-19)
(1.11848 1.20138 -4.16694e-19)
(0.683157 0.849707 -6.49859e-21)
(1.01441 0.0374178 -8.44471e-20)
(1.00799 0.0374179 -2.76905e-20)
(1.0381 0.142696 -1.41538e-21)
(0.940104 0.138202 -1.7181e-19)
(0.907675 0.29422 2.92777e-19)
(1.00397 0.033071 5.23582e-20)
(1.02694 0.0342884 1.06263e-19)
(1.01549 0.155681 1.14286e-19)
(0.984696 0.161222 2.3942e-20)
(0.934683 0.378654 -4.67032e-21)
(1.01461 0.0308565 6.92062e-20)
(1.00718 0.0266893 -4.25025e-21)
(1.05883 0.176828 -3.63766e-21)
(0.929034 0.15886 1.27513e-19)
(1.14826 0.521914 -4.69136e-19)
(1.01488 0.0286948 -2.61102e-22)
(1.01949 0.0199473 -1.51893e-19)
(1.03663 0.201269 -5.69468e-20)
(1.03554 0.148963 -3.36572e-19)
(1.16833 0.583801 7.92087e-20)
(1.0218 0.0209302 -1.07061e-20)
(1.00114 0.026897 4.24429e-20)
(1.08281 0.196639 2.5957e-20)
(1.02061 0.175171 4.25831e-19)
(1.38142 0.70831 -4.66724e-19)
(1.00027 0.0240222 -4.23109e-21)
(1.04074 0.00638138 9.15258e-20)
(1.04737 0.225184 -4.79522e-20)
(1.27678 0.0902323 9.61624e-19)
(1.29909 0.781876 -3.24733e-19)
(0.958033 -0.00341397 -1.28682e-21)
(1.10171 0.0202802 -7.93035e-20)
(0.963976 0.137001 5.19699e-21)
(1.42165 0.0682748 -3.45889e-19)
(1.32635 0.568972 -8.07242e-20)
(0.978944 -0.00701219 6.85874e-21)
(1.06066 0.0324094 1.30283e-35)
(1.1057 0.0684269 -1.2423e-20)
(1.37901 0.0132283 1.09971e-19)
(1.3725 0.403852 1.66186e-19)
(1.02503 -0.0354122 3.77526e-21)
(0.99825 -0.00484551 -2.39645e-20)
(1.28743 -0.0182491 2.12758e-20)
(1.08669 0.0153384 2.01901e-20)
(1.46133 0.307956 -2.47749e-19)
(0.942283 -0.0211748 -3.66879e-20)
(0.848155 -0.0268915 -1.19464e-21)
(0.943131 -0.00624482 2.64694e-20)
(0.672159 0.00996632 -2.27119e-20)
(1.16901 0.0840208 -5.64595e-20)
(1.79386 0.578003 2.74754e-19)
(1.89444 0.639277 7.18925e-19)
(2.15816 0.478455 -1.03552e-18)
(2.21642 0.475201 1.90158e-20)
(2.43496 0.264458 4.3026e-19)
(1.78065 0.37092 9.17128e-20)
(1.77192 0.437091 9.71949e-19)
(2.03109 0.310543 1.08775e-19)
(1.93435 0.326671 -8.46978e-19)
(2.26271 0.152032 -2.71123e-19)
(1.70218 0.298898 -2.22611e-19)
(1.76798 0.303689 -1.41052e-19)
(1.9169 0.226012 2.30643e-19)
(1.93466 0.206403 -2.65467e-19)
(2.0942 0.106212 2.43085e-19)
(1.68415 0.189331 3.83731e-19)
(1.80105 0.169888 1.47179e-21)
(1.86937 0.109675 2.04397e-19)
(1.96112 0.0917414 1.6062e-19)
(2.01271 0.028053 -1.6195e-19)
(1.37645 0.0412132 -5.09234e-20)
(1.4798 0.0223305 2.39294e-19)
(1.49342 0.00781143 9.62932e-20)
(1.55869 -0.0073611 -1.9441e-19)
(1.52363 -0.0146445 6.13088e-22)
(1.18821 -0.0172257 7.54073e-20)
(2.19649 -0.0274562 -4.82883e-19)
(2.41922 -0.0180711 1.31373e-18)
(2.39851 0.0213528 5.96956e-19)
(2.20736 0.0409303 -4.17849e-19)
(0.78505 0.106065 1.61813e-19)
(1.98381 0.117363 -5.21228e-19)
(2.41413 0.123981 -7.35749e-19)
(2.43548 0.129542 9.68715e-19)
(2.20593 0.11546 -6.91229e-19)
(0.301465 0.106285 2.34108e-21)
(1.40994 0.19893 6.23411e-19)
(2.11532 0.233429 8.67162e-20)
(2.45691 0.232204 8.88543e-19)
(2.51356 0.214319 4.68309e-19)
(0.0218394 0.015965 2.06766e-19)
(0.61747 0.153891 2.33421e-19)
(1.3964 0.242737 -6.9845e-19)
(1.87594 0.285954 6.49294e-20)
(2.38638 0.312586 5.4439e-19)
(-0.0470574 -0.0355515 1.14869e-19)
(0.131894 0.0433087 -1.66038e-19)
(0.620549 0.159971 -1.55608e-19)
(1.0867 0.230162 1.73051e-19)
(1.56668 0.339664 9.58695e-20)
(-0.0582406 -0.0699178 2.75926e-20)
(-0.0618005 -0.0694347 8.69373e-20)
(0.100022 -0.00762612 1.30515e-19)
(0.327242 0.099562 -4.66546e-19)
(0.759999 0.212153 3.90129e-21)
(-0.0145379 -0.0198399 -3.65412e-21)
(-0.00332795 -0.0134269 -7.3592e-20)
(0.0542737 0.0468338 -5.26145e-20)
(0.138906 0.153208 5.30279e-20)
(0.329188 0.311147 5.73828e-20)
(-0.0277013 -0.138874 3.1608e-20)
(0.0351332 -0.21769 -1.27201e-19)
(0.102259 -0.151502 1.67788e-19)
(0.140583 -0.046069 -2.03231e-19)
(0.191128 0.0840957 5.62112e-20)
(-0.0717287 -0.341895 1.4437e-19)
(-0.0944794 -0.303778 7.50629e-19)
(-0.0643279 -0.0213696 -1.56311e-18)
(-0.0565298 0.205127 -1.19617e-18)
(-0.0275818 0.354749 1.49568e-19)
(-0.0989516 -0.00797642 -9.60873e-20)
(-0.390553 0.101659 2.80778e-19)
(-0.552883 0.237645 -7.22079e-20)
(-0.618365 0.328211 -6.82123e-20)
(-0.633549 0.409334 1.8169e-19)
(1.11774 0.730526 -7.59542e-20)
(0.138191 -0.0428823 7.36023e-19)
(1.32254 0.000606969 -8.36988e-20)
(0.724951 0.112374 4.2951e-20)
(0.552889 -0.0435591 -1.682e-21)
(1.00661 0.888477 2.02235e-19)
(-0.540796 -0.155476 1.02493e-19)
(1.39123 -0.0797957 -3.39814e-19)
(1.0129 0.198832 1.93278e-20)
(0.729512 -0.00778928 -8.7502e-21)
(0.848135 0.813242 -6.50716e-19)
(-1.20143 -0.257586 -7.08389e-20)
(1.41523 -0.351297 2.3389e-20)
(1.28676 0.268209 -4.83208e-19)
(0.929305 0.0444957 1.18815e-20)
(0.370483 1.07525 7.58695e-19)
(-0.659722 -0.424378 -3.41437e-18)
(1.1064 -0.731548 -1.40835e-19)
(1.4195 0.327208 -1.28478e-20)
(1.08341 0.105233 2.17443e-20)
(-0.553723 0.939515 -1.16071e-19)
(1.02465 -0.682281 -4.30518e-19)
(0.932493 -0.916481 1.55675e-19)
(1.48291 0.292908 3.43354e-20)
(1.19204 0.145883 5.2093e-20)
(-0.0469348 0.138319 -1.33901e-19)
(-0.339424 -0.14995 0)
(0.161671 -0.0934879 -2.99804e-20)
(-0.0138292 -0.0442388 3.89763e-20)
(0.311676 -0.023323 -1.42894e-20)
(1.58533 0.59331 0)
(0.684053 0.0907109 0)
(1.16448 0.00558545 2.64092e-19)
(0.424097 -0.0080357 4.25422e-20)
(0.493098 -0.0670422 1.86001e-20)
(0.711138 0.00253089 -1.28333e-19)
(0.734998 -0.00176903 2.61153e-19)
(0.924043 0.0114179 -4.82582e-20)
(0.856613 0.0191172 3.54402e-19)
(1.24042 0.124213 2.30976e-19)
(1.60321 0.0316908 1.22545e-19)
(1.72196 0.0773421 3.83101e-19)
(1.8737 0.100498 -6.59517e-19)
(2.31057 0.227218 2.1018e-19)
(2.14505 0.267213 4.44296e-19)
(0.903291 -0.476822 -1.75596e-20)
(0.890549 -0.56664 -1.75292e-19)
(0.879907 -0.663634 -1.23543e-19)
(0.810157 -0.731846 7.5352e-20)
(0.496208 -0.577042 1.33358e-19)
(0.797207 -0.377942 1.16362e-19)
(0.7427 -0.443549 2.10634e-19)
(0.672009 -0.516431 -6.25905e-20)
(0.563526 -0.579963 1.45807e-19)
(0.310872 -0.466092 5.29233e-20)
(0.652007 -0.237461 -1.32184e-19)
(0.567545 -0.27805 -5.71777e-20)
(0.467252 -0.327774 8.53757e-20)
(0.346512 -0.372115 -2.30183e-20)
(0.155016 -0.302534 -1.30261e-19)
(0.551511 -0.00539778 -4.30134e-19)
(0.465276 -0.0204777 -3.50876e-19)
(0.354128 -0.0430054 2.83397e-19)
(0.226493 -0.0736879 1.60896e-19)
(0.0629334 -0.0831265 1.33995e-20)
(0.525972 0.200562 -1.4715e-19)
(0.439635 0.201518 -1.58458e-19)
(0.322077 0.201538 -5.41566e-20)
(0.183904 0.206905 3.53764e-20)
(0.0274318 0.151677 1.24933e-20)
(1.98988 -0.0352631 8.33357e-19)
(2.23841 -0.0993843 2.82312e-19)
(2.32469 -0.182061 -7.40452e-19)
(2.18921 -0.208132 -1.54209e-18)
(1.3293 -0.1855 1.32311e-19)
(1.95585 -0.121471 1.3606e-18)
(2.05779 -0.230889 1.80983e-18)
(2.08451 -0.350161 1.53061e-19)
(2.00926 -0.40783 2.70701e-19)
(1.29293 -0.35871 -1.79294e-19)
(1.68213 -0.281466 -3.49912e-18)
(1.74945 -0.397999 3.7909e-19)
(1.79949 -0.521809 1.108e-18)
(1.74428 -0.594782 -4.13738e-19)
(1.13675 -0.50331 6.58775e-19)
(1.46955 -0.404254 8.40331e-19)
(1.49363 -0.503498 -2.23774e-18)
(1.48834 -0.62085 -2.54682e-18)
(1.42485 -0.705337 7.75998e-19)
(0.923032 -0.580348 5.33416e-19)
(1.19361 -0.462056 1.79675e-19)
(1.15764 -0.55625 2.58116e-19)
(1.1518 -0.676595 -3.89235e-19)
(1.09869 -0.761448 -4.69012e-19)
(0.699433 -0.606729 -4.36123e-21)
(1.07216 0.0512633 7.13914e-21)
(0.938189 0.0602936 -2.11481e-22)
(1.10998 0.0835927 7.3605e-21)
(0.818069 0.00737874 -2.49286e-19)
(1.07152 -0.196537 -1.81817e-20)
(1.08119 0.0524356 -2.35935e-21)
(0.934311 0.0577988 2.83535e-20)
(1.11202 0.102164 -8.25293e-21)
(0.897633 0.0558833 1.96653e-19)
(0.98029 -0.0824895 -3.55547e-22)
(1.07825 0.0472622 -5.60175e-20)
(0.937638 0.05396 -6.64191e-23)
(1.09848 0.106015 -1.07415e-20)
(0.900879 0.077672 1.1358e-19)
(0.946537 -0.0205637 -2.35722e-19)
(1.05765 0.0443548 6.68009e-20)
(0.963548 0.0485096 2.89672e-21)
(1.06693 0.114988 2.44384e-20)
(0.929919 0.102757 -5.23953e-20)
(0.864746 0.086333 7.1768e-20)
(1.0299 0.039704 1.65318e-20)
(0.996399 0.0457826 -2.35246e-20)
(1.0356 0.123536 3.69146e-20)
(0.954371 0.12804 3.7039e-20)
(0.843433 0.189913 -6.35074e-20)
(0.891743 0.0339102 0)
(0.712421 0.0282735 9.34314e-21)
(0.592773 0.0222089 6.55609e-21)
(0.340895 -0.00572144 4.43111e-20)
(0.654382 -0.0515693 -1.56183e-19)
(1.03902 0.0731947 -6.39403e-20)
(0.947457 0.0752232 -5.77126e-21)
(1.01242 0.0829986 -5.95279e-20)
(0.802101 0.000336906 -1.48028e-19)
(1.01266 -0.183005 -1.67901e-19)
(0.903635 -0.0661699 -3.6746e-20)
(0.991918 -0.0328771 5.36408e-19)
(1.08193 0.0351654 3.15638e-19)
(0.96114 0.0512623 3.18693e-20)
(0.747593 0.0274126 0)
(1.25648 -0.307862 3.52478e-19)
(1.37081 -0.27213 1.50664e-18)
(1.54306 -0.153601 -1.62325e-18)
(1.64057 -0.0212037 -5.02711e-19)
(1.54955 0.0276163 3.90171e-19)
)
;

boundaryField
{
    left
    {
        type            fixedValue;
        value           uniform (1 0 0);
    }
    right
    {
        type            zeroGradient;
    }
    down
    {
        type            noSlip;
    }
    up
    {
        type            noSlip;
    }
    cylinder
    {
        type            noSlip;
    }
    defaultFaces
    {
        type            empty;
    }
}


// ************************************************************************* //
