/*--------------------------------*- C++ -*----------------------------------*\
  =========                 |
  \\      /  F ield         | OpenFOAM: The Open Source CFD Toolbox
   \\    /   O peration     | Website:  https://openfoam.org
    \\  /    A nd           | Version:  13
     \\/     M anipulation  |
\*---------------------------------------------------------------------------*/
FoamFile
{
    format      ascii;
    class       volScalarField;
    location    "6.455";
    object      p;
}
// * * * * * * * * * * * * * * * * * * * * * * * * * * * * * * * * * * * * * //

dimensions      [0 2 -2 0 0 0 0];

internalField   nonuniform List<scalar> 
440
(
-0.666789
-0.650499
-0.677657
-0.652448
-0.780355
-0.676773
-0.658891
-0.642837
-0.627158
-0.628707
-0.766794
-0.736296
-0.702871
-0.666285
-0.627103
-0.880587
-0.832004
-0.756452
-0.666798
-0.576426
-0.96887
-0.906327
-0.770785
-0.630043
-0.501406
-0.762603
-0.762544
-0.771955
-0.790647
-0.810452
-0.649594
-0.65433
-0.666796
-0.684965
-0.701906
-0.581281
-0.586256
-0.597012
-0.610698
-0.620425
-0.590672
-0.59617
-0.607291
-0.621504
-0.631301
-0.618274
-0.626022
-0.644243
-0.648351
-0.702936
-0.892889
-0.721236
-0.770476
-0.525472
-0.11128
-0.803261
-0.551894
-0.808935
-0.684336
-0.0885629
-0.645463
-0.343751
-0.769244
-0.806928
-0.0795154
-0.49635
-0.137579
-0.706638
-0.848481
-0.0853424
-0.477027
0.0163128
-0.644089
-0.813856
-0.0976176
-0.304638
0.123591
-0.561222
-0.702122
-0.113856
-0.103192
0.053787
-0.321182
-0.462324
-0.133799
-0.131256
0.15139
-0.0926906
-0.258392
-0.136913
-0.0567516
0.244174
0.033551
-0.182069
-0.133775
-0.00135551
0.308292
0.208828
-0.0908229
-0.137177
-0.279947
-0.401911
-0.592261
-0.775711
-0.907749
-0.0400858
-0.163925
-0.248622
-0.288942
-0.292143
0.127343
0.0166579
-0.054068
-0.108286
-0.141252
0.223387
0.115883
0.0359294
-0.0224457
-0.0560522
0.265054
0.157589
0.076693
0.0220306
-0.00234388
1.06749
0.926398
0.746432
0.542571
0.31414
0.653321
0.500423
0.312361
0.0974551
-0.147247
0.246479
0.0906828
-0.106794
-0.331803
-0.550367
-0.107625
-0.266835
-0.461118
-0.672295
-0.835972
-0.343172
-0.498411
-0.676921
-0.863386
-0.965924
2.22969
2.26165
2.29139
2.30757
2.30649
2.04186
2.06413
2.08206
2.08347
2.06405
1.81457
1.80724
1.77864
1.72787
1.65104
1.56298
1.53081
1.46499
1.36872
1.24282
1.32136
1.22567
1.09906
0.948783
0.765013
1.97568
1.96508
1.95583
2.01384
2.10764
1.96564
1.95247
1.93725
1.98919
2.0195
1.95662
1.93653
1.91593
1.95257
1.90816
1.94895
1.91787
1.89217
1.90536
1.74607
1.94254
1.89839
1.86701
1.85091
1.57441
1.93777
1.8677
1.83396
1.74956
1.37356
1.93665
1.83542
1.81863
1.6416
1.43238
1.94292
1.81828
1.80925
1.56839
1.39759
1.93746
1.79478
1.80452
1.51066
1.34504
1.97491
1.78566
1.80256
1.48698
1.33281
1.03121
0.730362
0.386642
0.0922734
-0.107788
0.93673
0.719365
0.483648
0.278292
0.104769
0.914991
0.742787
0.568204
0.409185
0.25611
0.947327
0.795175
0.64108
0.49267
0.350582
0.980667
0.834092
0.685032
0.535914
0.393569
-1.29592
-1.14717
-0.976625
-0.837298
-0.755716
-1.34225
-1.2782
-1.15071
-1.04667
-0.98518
-1.24492
-1.19612
-1.12296
-1.06305
-1.02637
-1.0751
-1.03321
-0.989975
-0.956717
-0.9365
-0.935994
-0.913477
-0.885223
-0.866474
-0.887594
-0.856498
-0.844048
-0.812662
-0.804862
-0.787065
-0.85266
-0.83747
-0.813135
-0.798457
-0.800765
-0.884811
-0.870414
-0.853648
-0.843438
-0.849026
-0.902481
-0.893399
-0.888597
-0.89516
-0.909952
-0.86425
-0.860245
-0.864211
-0.880295
-0.904404
-0.898589
-0.74591
-0.317638
-0.239708
-0.0114787
-0.891991
-0.70776
-0.323687
-0.25385
-0.0300318
-0.861088
-0.726067
-0.388644
-0.296272
-0.0753797
-0.913815
-0.786418
-0.517778
-0.349786
-0.116764
-0.924385
-0.79828
-0.660758
-0.410847
-0.129156
-0.407092
-0.860543
-0.438753
-0.271009
-0.0102803
-0.785197
-0.834354
-0.35675
-0.231881
-0.00442774
-0.708959
-0.962894
-0.9946
-0.95697
-0.726343
-0.729155
-0.961288
-1.0084
-0.940678
-0.936167
1.892
1.86501
1.81936
1.756
1.67251
2.07621
2.09476
2.09646
2.07978
2.04568
2.23217
2.26447
2.28799
2.29848
2.29432
2.32023
2.35999
2.4017
2.43548
2.45065
2.31727
2.35559
2.39819
2.43418
2.45108
-0.287221
-0.395482
-0.566891
-0.773698
-1.02043
0.33398
0.191877
0.00185992
-0.226999
-0.522736
0.890162
0.741186
0.563735
0.354285
0.0868809
1.33555
1.22086
1.08053
0.909058
0.699169
1.68935
1.60757
1.5009
1.37316
1.22231
2.0407
1.9982
1.99193
2.00241
2.02534
2.02502
1.99431
1.99041
2.01859
2.08526
2.01131
1.98932
1.98893
2.03536
2.15644
1.99847
1.98328
1.98193
2.03841
2.16423
1.98658
1.97567
1.97061
2.03147
2.15316
2.09554
2.0057
1.98072
1.92892
1.90591
2.05142
1.99586
1.97567
1.9492
1.91254
1.57019
1.3497
0.958066
0.382645
-0.25556
1.65605
1.38267
0.973768
0.403032
-0.246544
)
;

boundaryField
{
    left
    {
        type            zeroGradient;
    }
    right
    {
        type            fixedValue;
        value           uniform 0;
    }
    down
    {
        type            zeroGradient;
    }
    up
    {
        type            zeroGradient;
    }
    cylinder
    {
        type            zeroGradient;
    }
    defaultFaces
    {
        type            empty;
    }
}


// ************************************************************************* //
