/*--------------------------------*- C++ -*----------------------------------*\
  =========                 |
  \\      /  F ield         | OpenFOAM: The Open Source CFD Toolbox
   \\    /   O peration     | Website:  https://openfoam.org
    \\  /    A nd           | Version:  13
     \\/     M anipulation  |
\*---------------------------------------------------------------------------*/
FoamFile
{
    format      ascii;
    class       surfaceScalarField;
    location    "7.845";
    object      phi;
}
// * * * * * * * * * * * * * * * * * * * * * * * * * * * * * * * * * * * * * //

dimensions      [0 3 -1 0 0 0 0];

internalField   nonuniform List<scalar> 
823
(
0.00445335
0.0127918
-0.0172452
0.0315057
0.00143881
-0.0284912
0.0983209
-0.0453786
-0.0214366
0.198009
-0.112566
0.0128774
-0.146084
0.00864076
0.335452
0.00707171
0.00572009
0.0601134
-0.0516029
0.160516
-0.145781
0.275506
-0.227556
-0.299648
0.42907
0.0254381
-0.019718
0.117717
-0.143881
0.234083
-0.262147
0.344687
-0.33816
-0.381564
0.426603
0.0487237
-0.0684417
0.148895
-0.244052
0.232433
-0.345685
0.281231
-0.386959
-0.397063
0.29673
0.0611904
-0.129632
0.13159
-0.314451
0.169249
-0.383344
0.182616
-0.400326
0.19217
-0.406617
-0.0267886
0.0460693
-0.0192807
-0.0692186
0.056332
-0.013902
-0.112971
0.0520559
-0.00830372
-0.154021
0.0444896
-0.00343959
0.0314261
-0.190384
0.00493685
-0.00956019
0.0556295
-0.0323635
0.0791354
-0.058667
0.0783594
-0.0841577
0.0699804
0.0553275
-0.108059
0.00927054
0.0463589
0.0134077
0.0749982
0.0146679
0.0770992
0.0166884
0.0679599
0.0533011
0.0187147
0.0203893
0.0259697
0.0471635
0.0482239
0.0731089
0.0511538
0.101286
0.0397831
0.0353985
0.119188
0.0087245
0.0284573
0.0581744
0.110835
0.154874
-0.0407807
-0.746336
0.596733
0.282519
-1.01842
0.695118
0.162103
1.01608
-0.895667
0.140949
0.942133
-0.920979
-0.237938
0.0534632
-0.122059
-0.732336
0.124591
-1.26507
0.179544
0.961129
0.208188
0.913489
-0.444084
-0.0947365
-0.618885
0.0988097
-1.45861
0.275574
0.784365
0.32739
0.861672
-0.650988
0.154604
-0.654301
0.138519
-1.44253
0.291437
0.631447
0.491379
0.661731
-0.829063
0.356257
-0.855684
0.116195
-1.20246
0.220239
0.527403
0.676851
0.205119
-0.933193
1.28255
-0.923141
-1.21509
0.754915
-0.674827
0.687594
0.594723
1.29462
-0.401907
-0.927634
1.27153
-0.751508
-1.44316
0.902811
-0.306106
1.08875
0.408785
1.4005
-0.713654
-0.792996
1.16421
-0.520014
-1.3957
0.953737
-0.0956333
1.27371
0.0888162
1.25936
-0.699306
-0.52626
1.02901
-0.245182
-1.30384
0.971365
-0.0379878
1.17935
-0.119171
0.88222
-0.402174
-0.19778
0.612734
-0.857915
0.574746
0.455575
0.0534007
1.1248
0.158729
-1.09136
1.21092
0.210611
1.31066
0.326866
1.34375
0.395972
0.464111
1.03311
0.100038
-0.974417
1.11193
0.131792
1.21059
0.228203
1.32809
0.278474
0.349035
0.989361
0.0487012
-0.938025
1.04339
0.0777629
1.13824
0.133355
1.25384
0.162868
0.207175
0.931233
0.0121914
-0.894724
0.98206
0.0269366
1.06761
0.0478079
1.17236
0.0581152
0.075693
0.649363
-0.637171
0.676299
0.724107
0.782222
0.142779
0.305178
-0.248449
-0.199508
0.0952298
0.309795
-0.262246
0.0535495
0.320291
-0.278611
0.0187039
0.311854
-0.277008
0.201861
-0.183157
0.103465
0.341436
-0.139724
0.0672135
0.346047
0.0348591
0.352646
0.00886652
0.337846
0.210727
0.074203
0.378548
-0.111314
0.0404068
0.379843
0.0115126
0.38154
-0.00489543
0.354254
0.205832
-0.00764118
0.394447
-0.00825857
-0.0249223
0.397124
-0.0337121
0.39033
-0.0268076
0.34735
0.179024
-0.0860736
0.0739034
-0.0892756
-0.0822904
-0.0493919
0.195614
0.109591
-0.248479
-0.056726
0.142255
0.114055
-0.0606967
0.0880793
0.118936
-0.0647604
0.035664
0.11891
-0.0664944
0.0847072
-0.0490432
0.193332
0.152656
-0.236397
0.147284
0.160103
0.0955755
0.170645
0.0405247
0.17396
0.125232
0.134965
0.197524
-0.179833
0.094175
0.200893
0.0558375
0.208983
0.0201286
0.209669
0.14536
0.156247
0.229039
-0.187763
0.116945
0.240195
0.0720768
0.253851
0.0282617
0.253485
0.173622
0.0798688
-0.0992785
0.0578179
0.0330581
0.00953457
0.404908
0.0780789
-0.0870072
0.421812
0.0321856
-0.0490901
0.410554
0.188872
-0.177613
0.394479
0.220517
-0.204443
0.500193
-0.354193
0.402077
0.071981
0.416238
0.0180251
0.402027
0.203083
0.38355
0.238994
0.647346
0.396064
0.0718963
0.411348
0.00274086
0.381971
0.23246
0.371787
0.249179
0.8393
0.393239
0.0746371
0.39869
-0.00271006
0.372889
0.258261
0.347992
0.274075
0.99953
0.386402
0.0842145
0.390433
-0.00674123
0.34301
0.305684
0.319748
0.297338
1.22
0.625755
0.06248
0.660527
-0.0415129
0.70151
0.264701
0.781334
0.217514
0.989161
1.01217
0.642679
0.0238215
0.664099
-0.0629327
0.733243
0.195557
0.759405
0.191352
0.729481
1.01908
0.651341
-0.0234992
0.660727
-0.0723187
0.714624
0.14166
0.762726
0.143251
0.463538
1.02867
0.640548
-0.0600266
0.625834
-0.0576046
0.70043
0.0670636
0.793651
0.0500298
0.202937
1.05425
0.543994
0.486389
0.553453
0.603483
0.806419
1.04919
-0.236522
1.03619
-0.126727
1.04661
-0.121739
1.04019
-0.00183377
0.0227334
0.970913
-0.18835
0.957554
-0.113368
0.939305
-0.10349
0.952026
-0.0145552
0.000342441
0.964798
-0.124478
0.947493
-0.0960635
0.917644
-0.0736405
0.932184
-0.029095
-0.00549873
0.985616
-0.0558423
0.93786
-0.0483078
0.900595
-0.0363755
0.892965
-0.0214646
-0.00725781
0.750577
0.702269
0.665894
0.644429
0.0504972
0.138222
-0.188719
0.0767505
0.314988
-0.341241
0.0779093
0.372183
-0.373342
0.0670993
0.37737
-0.36656
0.345959
0.0548213
-0.333681
0.0722999
0.0659223
0.148864
0.238424
0.186191
0.334856
0.190983
0.372578
0.37042
0.166522
0.057801
0.00812128
0.176558
0.119667
0.277098
0.234316
0.350408
0.299268
0.35916
0.361668
0.0257195
-0.0175982
0.12415
0.0212365
0.251573
0.106892
0.377562
0.173279
0.242138
0.494585
0.0032265
-0.0208247
0.0468745
-0.0224114
0.144722
0.00904461
0.268723
0.0492791
0.090311
0.420549
-0.00901206
-0.0118126
-0.00562951
-0.025794
0.032971
-0.0295559
0.104999
-0.022749
-0.00281474
0.198125
-0.00405608
-0.00775654
-0.00223474
-0.0276153
0.0121704
-0.043961
0.0421528
-0.0527314
-0.0524342
0.0917723
0.00307117
-0.0108277
0.0120227
-0.0365668
0.0223012
-0.0542395
0.0319268
-0.062357
-0.0640497
0.0435422
-0.00557745
-0.00525026
-0.0154831
-0.0266612
-0.0319954
-0.0377272
-0.0528917
-0.0414607
-0.044148
-0.0727933
-0.024531
-0.0650942
-0.111125
-0.156025
-0.195237
0.474576
0.342609
-0.619059
0.533084
0.404415
-0.462923
0.429457
0.306222
-0.202596
0.24667
0.275577
-0.0927902
0.0555795
0.0101692
0.43963
-0.00524872
0.557987
0.286057
0.43728
0.42693
0.222588
0.490269
0.11792
0.261318
-0.223025
0.507342
0.0400331
0.378342
0.55593
0.180409
0.688202
0.134493
0.0960374
-0.391856
0.447005
-0.310935
0.289804
0.713132
0.143293
0.834713
0.0781425
0.00964036
0.393823
0.211288
0.125021
0.162916
0.489231
-0.652148
-0.0634713
0.226388
-0.051431
-0.0120403
0.0341687
-0.0855997
-0.060649
0.942559
-1.07239
0.706024
0.491388
0.312998
0.0862933
-0.0157811
-0.0705122
0.139661
-0.0533673
0.257516
-0.117856
0.43559
-0.178074
-0.216557
0.194918
-0.155878
0.308073
0.551885
0.868395
0.140614
-0.133243
0.163601
-0.170972
0.1073
-0.138045
0.171359
0.0691673
-0.144407
0.18254
0.0280902
-0.143322
0.184399
-0.0990233
0.127113
0.178708
-0.093933
-0.218019
0.134801
-0.0941373
0.0855023
-0.0951083
0.0351516
-0.092971
-0.0638717
0.185256
-0.0447823
-0.234406
0.134853
-0.0437345
0.0835211
-0.0437766
0.0338288
-0.0432787
-0.0300429
0.198781
0.00630082
-0.249864
0.147098
0.00794878
0.0938054
0.00951574
0.0394749
0.0110519
0.00943196
0.203046
-0.253471
0.150298
0.0950537
0.0396112
0.0363649
-0.312575
-0.0574715
0.0127126
-0.342908
-0.009054
-0.351575
-0.0170744
-0.333221
-0.205794
0.119811
-0.282374
-0.150012
0.0768985
-0.299995
0.0362736
-0.31095
0.00644388
-0.303391
-0.19935
0.136732
-0.243401
-0.175704
0.0965236
-0.259787
0.0563428
-0.270769
0.0196828
-0.266731
-0.179667
0.158402
-0.209403
-0.1924
0.115789
-0.217174
0.070184
-0.225165
0.02742
-0.223967
-0.152247
0.153142
-0.198945
0.107327
0.0647019
0.0251336
0.385405
0.11145
-0.100876
0.387293
0.090612
-0.0924996
0.3549
0.160014
-0.127622
0.299616
0.0726143
-0.0173303
-0.190503
0.319147
0.393772
0.113658
0.400479
0.0839046
0.393259
0.167235
0.346098
0.119774
-0.062423
0.400485
0.109153
0.410611
0.0737779
0.407117
0.17073
0.370873
0.156018
0.0740436
0.40622
0.0989126
0.417606
0.0623919
0.415479
0.172856
0.388907
0.18259
0.213087
0.407885
0.421187
0.41643
0.394578
0.414407
0.0956438
0.330425
0.0839818
0.239542
0.0908836
0.237737
0.00180535
-0.174023
0.41176
0.504819
0.496301
0.459563
0.444038
0.589162
0.329568
0.0821912
0.256444
0.0731242
0.170802
0.0856423
0.0988921
0.0719099
0.0283799
0.472409
0.353133
0.263071
0.184969
)
;

boundaryField
{
    left
    {
        type            calculated;
        value           nonuniform List<scalar> 
17
(
-0.60402
-0.60402
-0.60402
-0.60402
-0.60402
-0.39598
-0.39598
-0.39598
-0.39598
-0.39598
-0.39598
-0.39598
-0.39598
-0.39598
-0.39598
-0.510051
-0.510051
)
;
    }
    right
    {
        type            calculated;
        value           nonuniform List<scalar> 
17
(
0.0948177
0.262518
0.180922
0.160247
0.163837
0.199643
0.256627
0.325425
0.414334
0.534293
0.669454
0.780981
1.28906
1.26586
0.992621
0.55374
-0.14438
)
;
    }
    down
    {
        type            calculated;
        value           uniform 0;
    }
    up
    {
        type            calculated;
        value           uniform 0;
    }
    cylinder
    {
        type            calculated;
        value           uniform 0;
    }
    defaultFaces
    {
        type            empty;
    }
}


// ************************************************************************* //
