/*--------------------------------*- C++ -*----------------------------------*\
  =========                 |
  \\      /  F ield         | OpenFOAM: The Open Source CFD Toolbox
   \\    /   O peration     | Website:  https://openfoam.org
    \\  /    A nd           | Version:  13
     \\/     M anipulation  |
\*---------------------------------------------------------------------------*/
FoamFile
{
    format      ascii;
    class       surfaceScalarField;
    location    "0.2225";
    object      phi;
}
// * * * * * * * * * * * * * * * * * * * * * * * * * * * * * * * * * * * * * //

dimensions      [0 3 -1 0 0 0 0];

internalField   nonuniform List<scalar> 
3485
(
0.0032833
-0.0296975
0.0264142
0.0110168
-0.0901576
0.0824241
0.0206724
-0.126884
0.117229
0.0307244
-0.142039
0.131987
0.0405753
-0.145317
0.135466
0.0500717
-0.143637
0.134141
0.0591864
-0.140339
0.131224
0.0678835
-0.136693
0.127996
0.0760837
-0.133012
0.124812
-0.129124
0.121328
0.0838796
0.00345666
-0.0331542
0.0111239
-0.0978248
0.0203919
-0.136152
0.0298652
-0.151512
0.0390927
-0.154545
0.0480327
-0.152577
0.0567525
-0.149058
0.065339
-0.145279
0.0739355
-0.141608
-0.138063
0.0828746
0.00360478
-0.036759
0.0111221
-0.105342
0.0198713
-0.144902
0.028592
-0.160233
0.0369587
-0.162911
0.0449935
-0.160612
0.0527766
-0.156842
0.0603684
-0.152871
0.067805
-0.149045
-0.145358
0.0750993
0.00373854
-0.0404975
0.0110421
-0.112646
0.0191995
-0.153059
0.0271179
-0.168151
0.034618
-0.170411
0.0418036
-0.167798
0.0487894
-0.163827
0.0556463
-0.159728
0.0624228
-0.155822
-0.152187
0.0692521
0.00381593
-0.0443135
0.0107823
-0.119612
0.0182046
-0.160481
0.0251766
-0.175123
0.0316607
-0.176896
0.0378289
-0.173966
0.0438168
-0.169815
0.0496989
-0.16561
0.0555245
-0.161647
-0.158016
0.0613536
0.00383131
-0.0481448
0.0103365
-0.126117
0.0169042
-0.167049
0.0228358
-0.181055
0.028235
-0.182295
0.033335
-0.179066
0.0382877
-0.174768
0.0431664
-0.170489
0.0480105
-0.166491
-0.162873
0.0528675
0.00375929
-0.0519041
0.00965726
-0.132015
0.0152382
-0.17263
0.020023
-0.18584
0.0242496
-0.186521
0.0282
-0.183017
0.0320345
-0.178603
0.0358233
-0.174278
0.0395999
-0.170268
-0.166659
0.0433857
0.00358847
-0.0554925
0.00873619
-0.137163
0.0132121
-0.177106
0.0167668
-0.189394
0.0197615
-0.189516
0.0225107
-0.185766
0.025174
-0.181266
0.0278136
-0.176917
0.0304552
-0.17291
-0.169304
0.0331002
0.00330802
-0.0588006
0.00756634
-0.141421
0.0108304
-0.18037
0.0130949
-0.191659
0.0148164
-0.191237
0.0163272
-0.187276
0.0177808
-0.18272
0.0192305
-0.178367
0.0206949
-0.174374
-0.170769
0.02216
0.00291981
-0.0617204
0.00616086
-0.144662
0.00813906
-0.182348
0.00908397
-0.192604
0.00951095
-0.191664
0.00976842
-0.187534
0.0099913
-0.182942
0.0102243
-0.1786
0.0104864
-0.174636
0.0107546
-0.171037
0.00187582
-0.00428792
0.0024121
0.00903841
-0.0144861
0.00732352
0.0199125
-0.0213266
0.0104526
0.0325624
-0.0245118
0.0118619
0.0457629
-0.0254565
0.012256
0.0589267
-0.0253472
0.0121833
0.0718227
-0.0248312
0.0119352
0.0843803
-0.0241966
0.011639
0.0965919
-0.0235542
0.0113426
-0.0230959
0.108614
0.0110738
0.00192625
-0.00621417
0.00912628
-0.0216861
0.0199887
-0.032189
0.0325855
-0.0371085
0.0457085
-0.0385796
0.0587851
-0.0384237
0.0715927
-0.0376389
0.0840656
-0.0366695
0.0962003
-0.0356888
-0.0350466
0.108151
0.00199992
-0.00821409
0.00925849
-0.0289447
0.0201105
-0.043041
0.0326376
-0.0496356
0.0456557
-0.0515977
0.0586121
-0.0513801
0.0712965
-0.0503233
0.0836494
-0.0490224
0.095673
-0.0477125
-0.046891
0.107517
0.0021013
-0.0103154
0.00944199
-0.0362854
0.0202824
-0.0538815
0.0327172
-0.0620704
0.0455961
-0.0644766
0.058393
-0.0641771
0.070914
-0.0628443
0.0831078
-0.0612161
0.0949834
-0.0595881
-0.0585903
0.106683
0.00223358
-0.012549
0.00967949
-0.0437313
0.0205022
-0.0647042
0.0328154
-0.0743836
0.0455136
-0.0771748
0.0581063
-0.0767698
0.07042
-0.075158
0.0824136
-0.0732097
0.0941035
-0.071278
-0.0701017
0.105615
0.00239675
-0.0149457
0.0099651
-0.0512997
0.0207547
-0.0754937
0.0329069
-0.0865358
0.0453746
-0.0896426
0.0577123
-0.0891074
0.0697722
-0.087218
0.0815255
-0.0849629
0.0929942
-0.0827467
-0.081376
0.104268
0.00258593
-0.0175317
0.0102805
-0.0589943
0.0210057
-0.0862189
0.0329427
-0.0984728
0.0451174
-0.101817
0.0571397
-0.10113
0.0688945
-0.0989727
0.080368
-0.0964365
0.0915839
-0.0939625
-0.0923481
0.102556
0.00278684
-0.0203185
0.0105854
-0.0667928
0.0211877
-0.0968212
0.0328297
-0.110115
0.0446251
-0.113613
0.0562494
-0.112754
0.0676252
-0.110349
0.0787574
-0.107569
0.0896614
-0.104867
-0.102883
0.100196
0.00297108
-0.0232896
0.010808
-0.0746297
0.021184
-0.107197
0.0324046
-0.121335
0.0436817
-0.12489
0.0547616
-0.123834
0.0656065
-0.121194
0.0762375
-0.1182
0.0866459
-0.115275
-0.11266
0.0964232
0.00312467
0.0109191
0.0209507
0.0316019
0.0421784
0.0524857
0.0625163
0.0723121
0.0818489
0.0905171
0.157106
-0.137648
0.0891564
0.182188
-0.0994014
0.0743191
0.194707
-0.0739457
0.0614272
0.200702
-0.0557205
0.0497254
0.203281
-0.0418779
0.0392982
0.203956
-0.0309352
0.0302603
0.203518
-0.0221138
0.0225519
0.202396
-0.0148399
0.0159627
0.200836
-0.00891213
0.0104716
-0.00214124
0.00409441
0.156089
-0.185587
0.181215
-0.124528
0.193976
-0.086706
0.200215
-0.0619598
0.202993
-0.0446559
0.20383
-0.031772
0.20353
-0.0218143
0.202534
-0.0138437
0.201096
-0.00747425
-0.000312422
0.154337
-0.232406
0.179371
-0.149561
0.192405
-0.0997397
0.198982
-0.0685374
0.202072
-0.047746
0.203194
-0.0328935
0.203161
-0.0217813
0.202422
-0.013105
0.201239
-0.00629092
0.00125708
0.15181
-0.277533
0.176639
-0.174391
0.189991
-0.113091
0.197005
-0.075552
0.200522
-0.0512632
0.202051
-0.0344222
0.202411
-0.0221414
0.202059
-0.0127534
0.201262
-0.0054937
0.00243317
0.148474
-0.320393
0.173013
-0.198929
0.186736
-0.126814
0.194289
-0.0831051
0.19835
-0.055324
0.200408
-0.0364798
0.201286
-0.0230194
0.201448
-0.0129158
0.201166
-0.00521198
0.00308344
0.144279
-0.360404
0.168479
-0.223128
0.182647
-0.140983
0.190844
-0.0913018
0.195566
-0.0600459
0.198272
-0.0391863
0.19979
-0.0245372
0.200591
-0.0137164
0.200951
-0.00557216
0.00307797
0.139094
-0.396942
0.162997
-0.247031
0.177724
-0.15571
0.18668
-0.100258
0.192182
-0.0655483
0.195656
-0.0426602
0.197933
-0.0268135
0.199491
-0.0152751
0.200616
-0.00669681
0.00229024
0.132873
-0.429619
0.156441
-0.270598
0.171921
-0.17119
0.181795
-0.110133
0.18821
-0.0719629
0.192572
-0.047022
0.195723
-0.0299648
0.198156
-0.0177081
0.200163
-0.00870416
0.000597907
0.125337
-0.458533
0.148506
-0.293768
0.165033
-0.187716
0.1761
-0.1212
0.18362
-0.0794838
0.189016
-0.0524176
0.193167
-0.0341155
0.19659
-0.0211312
0.199595
-0.0117089
-0.00211688
0.117431
-0.485446
0.140157
-0.316494
0.157605
-0.205165
0.169823
-0.133417
0.17851
-0.0881702
0.185034
-0.0589416
0.190286
-0.0393675
0.194803
-0.0256485
0.198912
-0.0158178
-0.00596696
0.366118
-0.430351
-0.421214
0.33789
-0.288265
0.324393
-0.191668
0.318269
-0.127294
0.315109
-0.08501
0.313183
-0.0570164
0.311881
-0.0380649
0.310988
-0.0247556
0.310405
-0.0152345
-0.0057339
0.379204
-0.36784
-0.441716
0.348532
-0.257592
0.332657
-0.175793
0.324123
-0.11876
0.319106
-0.0799934
0.315916
-0.0538256
0.313797
-0.0359459
0.312395
-0.0233542
0.311515
-0.0143541
-0.0053959
0.393429
-0.30798
-0.453289
0.359988
-0.224152
0.340871
-0.156676
0.32973
-0.107619
0.322898
-0.0731619
0.318507
-0.0494344
0.315614
-0.0330534
0.31373
-0.0214694
0.312563
-0.0131878
-0.00495451
0.403161
-0.25198
-0.45916
0.368836
-0.189827
0.347758
-0.135598
0.334659
-0.0945201
0.326319
-0.0648215
0.320876
-0.0439912
0.317286
-0.0294635
0.314958
-0.0191416
0.313526
-0.0117561
-0.00441574
0.410179
-0.200275
-0.461885
0.375863
-0.155511
0.353482
-0.113216
0.338887
-0.0799256
0.329312
-0.0552464
0.322973
-0.037652
0.318774
-0.0252645
0.316054
-0.0164215
0.314384
-0.0100864
-0.00378857
0.41512
-0.152667
-0.462728
0.381284
-0.121675
0.358085
-0.0900167
0.342383
-0.0642243
0.331832
-0.0446954
0.324758
-0.0305773
0.320048
-0.0205543
0.316994
-0.0133676
0.315119
-0.00821178
-0.00308424
0.418478
-0.108554
-0.462591
0.385301
-0.0884983
0.361622
-0.066337
0.345134
-0.0477371
0.333846
-0.0334068
0.326197
-0.0229282
0.321079
-0.0154369
0.317756
-0.0100446
0.315714
-0.00616955
-0.00231584
0.420441
-0.0669208
-0.462075
0.387906
-0.0559629
0.364
-0.042431
0.347015
-0.0307516
0.335224
-0.021616
0.32717
-0.014874
0.32176
-0.010027
0.318241
-0.00652647
0.316076
-0.00400381
-0.00149949
0.41751
-0.0253616
-0.45907
0.385683
-0.0241356
0.362081
-0.018829
0.345125
-0.0137959
0.333253
-0.00974322
0.325099
-0.00672079
0.319609
-0.00453641
0.316037
-0.00295516
0.313841
-0.00180692
-0.000670864
0.345774
-0.371135
0.321638
0.302809
0.289013
0.27927
0.272549
0.268013
0.265057
0.263251
0.453988
0.00972288
-0.452956
0.454221
0.0219262
0.453627
0.0336941
0.452147
0.0448665
0.449575
0.0554393
0.446275
0.0646531
0.440738
0.0747897
0.436448
0.0793894
0.425373
0.0939496
0.0880386
0.435626
0.00882613
-0.434729
0.436717
0.0208347
0.437911
0.0325002
0.439181
0.0435965
0.440291
0.0543296
0.441535
0.0634082
0.442028
0.0742975
0.443062
0.078355
0.443926
0.0930852
0.0902493
0.420394
0.00771806
-0.419286
0.422195
0.0190342
0.424624
0.0300714
0.427651
0.0405688
0.431182
0.050799
0.435155
0.0594351
0.439678
0.0697749
0.443828
0.0742044
0.44967
0.0872438
0.0866305
0.408558
0.00653815
-0.407378
0.410774
0.0168182
0.413988
0.026857
0.418145
0.0364123
0.423238
0.0457053
0.429005
0.0536679
0.435957
0.0628231
0.442653
0.0675089
0.451604
0.0782925
0.0790743
0.399291
0.00530302
-0.398056
0.401807
0.0143027
0.405568
0.023096
0.410508
0.0314721
0.416649
0.0395635
0.423708
0.0466096
0.432204
0.0543269
0.440866
0.0588468
0.451735
0.0674231
0.0689249
0.392235
0.00401785
-0.39095
0.394963
0.011575
0.399102
0.018957
0.404584
0.0259896
0.411422
0.0327254
0.419376
0.0386559
0.428835
0.0448683
0.438829
0.0488522
0.450845
0.0554076
0.0570419
0.387061
0.00267821
-0.385721
0.389953
0.00868259
0.394367
0.0145432
0.400233
0.0201234
0.407536
0.0254229
0.416084
0.0301082
0.426123
0.0348287
0.436972
0.0380037
0.449651
0.0427285
0.044102
0.383086
0.00121153
-0.381619
0.386177
0.0055912
0.390874
0.00984621
0.397099
0.0138986
0.404794
0.0177278
0.413791
0.0211111
0.424195
0.0244247
0.435554
0.0266444
0.448544
0.0297389
0.030571
0.372548
-0.000290404
-0.371046
0.376081
0.00205799
0.381434
0.00449295
0.388516
0.00681693
0.397206
0.00903787
0.407281
0.0110365
0.418723
0.012982
0.431073
0.0142949
0.444732
0.0160794
0.0162336
0.278103
-0.278393
0.280161
0.284654
0.291471
0.300509
0.311545
0.324527
0.338822
0.354902
0.0789235
0.12518
-0.113747
-0.0903571
0.0684754
0.127511
-0.117063
0.0586663
0.130396
-0.120586
0.0491186
0.133912
-0.124364
0.0395547
0.137822
-0.128259
0.0298559
0.141854
-0.132155
0.0200988
0.144863
-0.135106
0.0107832
0.142205
-0.13289
0.00328158
0.121123
-0.113621
0.0601103
-0.0568287
0.0772111
0.134997
-0.0870277
0.0672551
0.137467
0.0574041
0.140247
0.0477146
0.143601
0.0381031
0.147434
0.028503
0.151454
0.0189929
0.154373
0.0100558
0.151142
0.00299083
0.128188
0.0631011
0.0698593
0.143252
-0.0781145
0.0612212
0.146105
0.0524183
0.149049
0.0435568
0.152463
0.0346547
0.156336
0.025721
0.160388
0.0168922
0.163202
0.00870141
0.159333
0.00242721
0.134462
0.0655283
0.0598328
0.1501
-0.0666808
0.052657
0.153281
0.0451997
0.156507
0.0375305
0.160132
0.0297016
0.164165
0.0217744
0.168315
0.0139491
0.171027
0.00682416
0.166458
0.00165689
0.139629
0.0671852
0.0496046
0.155869
-0.0553732
0.0436162
0.15927
0.0373593
0.162764
0.030862
0.166629
0.0241691
0.170858
0.0173616
0.175123
0.0106839
0.177705
0.00477784
0.172364
0.000840307
0.143567
0.0680255
0.0398162
0.160777
-0.0447249
0.0347783
0.164308
0.0295441
0.167998
0.0241174
0.172056
0.0185261
0.176449
0.0128531
0.180796
0.0073687
0.183189
0.00275298
0.17698
3.24104e-06
0.146316
0.0680287
0.0301433
0.164841
-0.0342075
0.0260161
0.168435
0.0217628
0.172251
0.0173775
0.176441
0.0128797
0.180947
0.0083558
0.18532
0.00408242
0.187463
0.00068767
0.180374
-0.00066216
0.147666
0.0673666
0.0202721
0.16795
-0.0233802
0.0171343
0.171573
0.013911
0.175474
0.0105991
0.179753
0.00721588
0.18433
0.003862
0.188674
0.000825514
0.190499
-0.00118017
0.18238
-0.00129846
0.147785
0.0660681
0.0101517
0.170017
-0.0122189
0.00808033
0.173644
0.00595438
0.1776
0.00377894
0.181929
0.00157323
0.186536
-0.000567635
0.190815
-0.00226773
0.192199
-0.00289359
0.183006
-0.00190558
0.146797
0.0641625
2.36206e-05
-0.00104387
-0.000968372
-0.00196784
-0.00298171
-0.00397989
-0.00482979
-0.00523421
-0.00457636
-0.00244217
0.106556
0.022591
-0.117877
-0.0112695
0.0948765
0.0231982
-0.0115189
0.08285
0.0238127
-0.0117862
0.0704629
0.024461
-0.012074
0.0576995
0.0251508
-0.0123874
0.0445468
0.0258762
-0.0127235
0.0310632
0.0265097
-0.013026
0.0176858
0.0263594
-0.0129821
0.0060408
0.0231646
-0.0115195
0.012331
-0.00629016
0.105673
0.033876
-0.116958
0.0940473
0.0348236
0.0820874
0.0357726
0.0697794
0.036769
0.0571069
0.0378233
0.0440569
0.0389262
0.0306889
0.0398778
0.0174427
0.0396055
0.00593941
0.0346679
0.0182704
0.104404
0.0451025
-0.11563
0.0928657
0.0463615
0.0810086
0.0476297
0.0688183
0.0489594
0.0562778
0.0503638
0.0433743
0.0518297
0.0301696
0.0530825
0.0171071
0.052668
0.00579775
0.0459773
0.0240681
0.102665
0.056235
-0.113798
0.0912561
0.0577709
0.0795464
0.0593394
0.0675214
0.0609843
0.0551636
0.0627216
0.0424603
0.064533
0.0294776
0.0660651
0.0166651
0.0654804
0.00561293
0.0570295
0.029681
0.100355
0.0672354
-0.111355
0.0891262
0.0689995
0.0776235
0.0708421
0.0658277
0.0727801
0.0537179
0.0748315
0.0412806
0.0769703
0.0285871
0.0787587
0.0160983
0.0779692
0.0053917
0.0677361
0.0350727
0.0973379
0.0780483
-0.108151
0.0863561
0.0799813
0.0751306
0.0820676
0.0636384
0.0842722
0.051855
0.0866149
0.0397653
0.08906
0.027445
0.091079
0.0153648
0.0900493
0.00508655
0.0780144
0.0401593
0.093534
0.0885441
-0.10403
0.0829594
0.0905559
0.0721628
0.0928642
0.0610975
0.0953376
0.0497321
0.0979803
0.0380577
0.100734
0.0261663
0.10297
0.0145504
0.101665
0.00475543
0.0878094
0.0449147
0.0880574
0.0985276
-0.0980408
0.0780537
0.10056
0.067881
0.103037
0.0574677
0.105751
0.0467573
0.108691
0.0357269
0.111765
0.0244715
0.114226
0.0134976
0.112639
0.00432996
0.096977
0.0492447
0.0841524
0.107445
-0.0930698
0.0750052
0.109707
0.0653434
0.112699
0.0552562
0.115838
0.0448279
0.119119
0.0341082
0.122485
0.0232257
0.125108
0.0127014
0.123164
0.00401842
0.10566
0.0532631
0.0738309
-0.0801325
0.0664745
0.0585867
0.0500609
0.0409214
0.0312505
0.0212527
0.0115266
0.00356557
0.201395
0.014086
-0.0174912
0.203846
0.0247026
-0.0271538
0.203987
0.0300832
-0.030224
0.20488
0.0319862
-0.0328794
0.204363
0.0380837
-0.0375668
0.202075
0.0466095
-0.0443211
0.196602
0.0584681
-0.0529955
0.185875
0.0744348
-0.0637072
0.162088
0.0994655
-0.0756791
0.134498
-0.0902867
0.201183
0.0108925
0.203505
0.022381
0.20359
0.0299978
0.204409
0.0311672
0.203786
0.0387073
0.201343
0.0490525
0.195674
0.0641365
0.184647
0.085462
0.160775
0.123337
0.178315
0.200844
0.00803822
0.202881
0.020344
0.202816
0.0300627
0.203428
0.0305554
0.202564
0.039571
0.199842
0.0517743
0.193875
0.0701035
0.182452
0.0968851
0.158491
0.147299
0.221176
0.200373
0.00565508
0.201979
0.0187381
0.201676
0.030366
0.201946
0.0302845
0.20071
0.0408072
0.197585
0.0548996
0.191203
0.076485
0.179277
0.108811
0.155098
0.171478
0.262476
0.199763
0.00388213
0.200803
0.0176974
0.200183
0.0309866
0.199977
0.0304902
0.198239
0.0425458
0.194584
0.0585538
0.187658
0.0834115
0.175122
0.121347
0.150841
0.195759
0.301962
0.199005
0.00286665
0.199362
0.0173406
0.198355
0.0319934
0.197534
0.0313118
0.195167
0.0449125
0.190857
0.0628638
0.183238
0.0910306
0.169982
0.134603
0.146177
0.219564
0.339988
0.198091
0.00276529
0.197664
0.0177673
0.196212
0.0334455
0.194631
0.0328931
0.191518
0.0480259
0.186422
0.0679593
0.177963
0.0994895
0.163819
0.148748
0.141138
0.242245
0.377096
0.197011
0.00374447
0.195724
0.0190541
0.193776
0.0353935
0.191286
0.0353828
0.187317
0.0519952
0.181306
0.0739698
0.171905
0.108891
0.156649
0.164003
0.135192
0.263702
0.414248
0.195762
0.00597236
0.193566
0.0212503
0.191069
0.0378898
0.187516
0.0389362
0.182592
0.0569194
0.175555
0.0810063
0.165214
0.119233
0.149383
0.179834
0.129629
0.283455
0.450807
0.194463
0.0094994
0.191215
0.0244977
0.188148
0.0409574
0.183309
0.0437747
0.177425
0.0628037
0.16924
0.0891916
0.157377
0.131095
0.13987
0.197342
0.118847
0.304477
0.489522
0.303078
0.00843121
0.305324
0.0222519
0.308959
0.0373224
0.31054
0.0421942
0.312921
0.060422
0.31572
0.086393
0.320363
0.126452
0.330003
0.187702
0.355524
0.278956
0.429998
0.415048
0.303863
0.0065788
0.306445
0.0196697
0.310444
0.0333236
0.313003
0.0396348
0.316658
0.0567668
0.321615
0.0814357
0.329622
0.118445
0.344079
0.173245
0.374219
0.248816
0.371297
0.432921
0.304595
0.00399357
0.307688
0.0165769
0.311933
0.029079
0.315399
0.0361684
0.320187
0.0519793
0.326957
0.0746651
0.337606
0.107796
0.355299
0.155552
0.387868
0.216248
0.313347
0.445817
0.305329
0.000674703
0.30892
0.0129859
0.3134
0.0245994
0.317633
0.0319349
0.32344
0.046172
0.33175
0.0663556
0.344461
0.0950849
0.364477
0.135536
0.397795
0.18293
0.258022
0.45312
0.306104
-0.00341901
0.31015
0.0089402
0.314805
0.0199437
0.319656
0.0270839
0.326337
0.039491
0.335911
0.0567824
0.350186
0.0808094
0.371802
0.11392
0.404811
0.149921
0.206153
0.45668
0.306971
-0.00837963
0.3114
0.00451146
0.31612
0.0152235
0.321427
0.0217764
0.32882
0.0320988
0.339392
0.04621
0.35482
0.065381
0.37746
0.0912809
0.409687
0.117694
0.157886
0.457954
0.307982
-0.0143518
0.312696
-0.000202294
0.317315
0.0106049
0.322907
0.0161838
0.330844
0.0241619
0.342169
0.034885
0.358417
0.0491331
0.381649
0.0680489
0.41299
0.0863525
0.112875
0.458001
0.309202
-0.0215438
0.314048
-0.00504808
0.318302
0.00635073
0.323997
0.0104893
0.33232
0.0158389
0.344176
0.0230287
0.360983
0.0323265
0.384517
0.044514
0.415069
0.0558009
0.0705766
0.457368
0.308791
-0.0283245
0.31301
-0.00926711
0.316746
0.00261469
0.32245
0.00478568
0.331004
0.00728445
0.343202
0.010831
0.360374
0.0151544
0.384028
0.0208595
0.414089
0.0257402
0.0317497
0.452916
0.273686
0.264419
0.267033
0.271819
0.279103
0.289934
0.305089
0.325948
0.351689
0.383438
0.428256
-0.103565
0.431746
-0.0905175
0.433824
-0.0801929
0.436491
-0.069348
0.439759
-0.0586407
0.443184
-0.0481506
0.446423
-0.0374464
0.449207
-0.026164
0.451412
-0.0144237
-0.00258792
0.433023
-0.103668
0.432801
-0.090295
0.43205
-0.0794417
0.431975
-0.0692735
0.432313
-0.0589786
0.432686
-0.0485233
0.433013
-0.0377732
0.43343
-0.026581
0.434025
-0.0150188
-0.0032919
0.439485
-0.0973358
0.434758
-0.0855679
0.43046
-0.0751433
0.426785
-0.0655983
0.423896
-0.0560905
0.421684
-0.0463104
0.420107
-0.0361965
0.4192
-0.0256738
0.418946
-0.0147655
-0.00363164
0.442866
-0.0870816
0.434626
-0.0773286
0.427616
-0.0681333
0.421646
-0.0596285
0.416762
-0.0512057
0.412909
-0.0424576
0.410032
-0.0333192
0.408135
-0.0237774
0.407241
-0.013871
-0.00376878
0.444195
-0.0745966
0.433704
-0.0668378
0.424798
-0.0592265
0.41721
-0.0520404
0.410891
-0.0448867
0.405827
-0.0373939
0.402001
-0.0294938
0.399423
-0.0211995
0.398114
-0.0125614
-0.00371079
0.444205
-0.0608472
0.432315
-0.0549477
0.422118
-0.04903
0.413415
-0.043337
0.406126
-0.0375977
0.400245
-0.0315128
0.395775
-0.0250238
0.392729
-0.0181537
0.391122
-0.0109547
-0.00353859
0.443526
-0.0463717
0.430786
-0.042208
0.419769
-0.0380132
0.410344
-0.0339117
0.402424
-0.0296781
0.396006
-0.0250944
0.391106
-0.0201236
0.387746
-0.014794
0.385951
-0.00915949
-0.00330924
0.442405
-0.0314089
0.429111
-0.0289145
0.417589
-0.0264906
0.407703
-0.0240257
0.399361
-0.0213364
0.39257
-0.0183032
0.387363
-0.0149163
0.383777
-0.0112088
0.381851
-0.00723332
-0.00307703
0.43694
-0.0154333
0.422949
-0.0149232
0.410765
-0.0143069
0.400183
-0.0134437
0.391124
-0.0122775
0.383627
-0.0108063
0.37778
-0.00906903
0.373684
-0.00711268
0.371427
-0.00497669
-0.00269557
0.368005
0.353082
0.338775
0.325331
0.313054
0.302247
0.293178
0.286066
0.281089
0.00779633
0.0754221
-0.0832184
0.0149765
0.17956
-0.186741
0.0179755
0.226446
-0.229445
0.0181764
0.239534
-0.239735
0.0171857
0.239472
-0.238482
0.0158854
0.235953
-0.234652
0.0145632
0.232091
-0.230769
0.0132525
0.228313
-0.227002
0.0119186
0.223435
-0.222101
0.213153
0.0105444
-0.211779
0.00934805
0.066074
0.0203246
0.168584
0.0276609
0.219109
0.0319805
0.235214
0.0349406
0.236512
0.0375948
0.233298
0.040345
0.229341
0.0431772
0.225481
0.045599
0.221013
0.21269
0.0460625
0.0099222
0.0561518
0.0237219
0.154784
0.0349517
0.207879
0.0433015
0.226864
0.0501657
0.229648
0.0566701
0.226794
0.0633504
0.222661
0.0702803
0.218551
0.0769326
0.214361
0.208472
0.0811498
0.00951762
0.0466342
0.0248302
0.139472
0.0390354
0.193674
0.0508983
0.215001
0.0613063
0.21924
0.0712776
0.216823
0.0814174
0.212521
0.0919388
0.208029
0.102619
0.203681
0.19904
0.112052
0.0083659
0.0382683
0.0238113
0.124026
0.0397891
0.177696
0.0542969
0.200494
0.0675862
0.205951
0.0803938
0.204015
0.0932782
0.199637
0.106528
0.19478
0.120185
0.190023
0.185266
0.133959
0.00682225
0.031446
0.0212802
0.109568
0.0377915
0.161185
0.053873
0.184412
0.0691426
0.190681
0.0839443
0.189213
0.0986765
0.184904
0.113604
0.179852
0.128877
0.17475
0.169363
0.14478
0.00526005
0.026186
0.0181234
0.0967049
0.0342062
0.145102
0.0508511
0.167767
0.0671642
0.174368
0.0830861
0.173291
0.0987948
0.169196
0.114466
0.164181
0.130199
0.159018
0.153212
0.146349
0.0039444
0.0222416
0.0151212
0.0855281
0.0302303
0.129993
0.0466566
0.151341
0.0631669
0.157858
0.0793693
0.157089
0.0952241
0.153341
0.110791
0.148614
0.126174
0.143635
0.137996
0.14139
0.00301886
0.0192227
0.0128025
0.0757445
0.0268457
0.11595
0.042686
0.135501
0.0589315
0.141612
0.0749933
0.141027
0.0906982
0.137636
0.106055
0.133257
0.121162
0.128528
0.122612
0.136547
0.00244789
0.0167748
0.0112241
0.0669682
0.024301
0.102873
0.0393659
0.120436
0.0549595
0.126019
0.0703556
0.125631
0.0852292
0.122762
0.0994185
0.119068
0.112709
0.115237
0.110442
0.124879
0.00216521
0.0146096
0.0103367
0.0587968
0.0227325
0.0904774
0.0371771
0.105991
0.0522495
0.110946
0.0672351
0.110646
0.0818432
0.108154
0.0960026
0.104908
0.109724
0.101516
0.0985423
0.121624
0.00204724
0.0125624
0.00988539
0.0509586
0.0218377
0.0785252
0.0358213
0.0920074
0.0504653
0.0963025
0.0650744
0.0960366
0.0793554
0.0938733
0.0932091
0.0910544
0.106629
0.0880962
0.0861483
0.119023
0.00197877
0.0105836
0.00959472
0.0433427
0.0212125
0.0669074
0.0347991
0.0784207
0.0490195
0.0820821
0.0631964
0.0818597
0.0770399
0.0800298
0.0904447
0.0776496
0.103387
0.0751539
0.0737424
0.115793
0.00192535
0.00865826
0.00937625
0.0358918
0.0207415
0.0555422
0.0340169
0.0651453
0.0478957
0.0682033
0.0617211
0.0680342
0.0752137
0.0665372
0.088271
0.0645923
0.100866
0.0625594
0.061493
0.113115
0.00188441
0.00677384
0.00921636
0.0285598
0.0204054
0.0443531
0.0334659
0.0520848
0.0471114
0.0545579
0.0607031
0.0544425
0.0739732
0.0532671
0.086827
0.0517386
0.0992423
0.050144
0.0493479
0.111387
0.00185411
0.00491974
0.00910217
0.0213118
0.020173
0.0332823
0.0330935
0.0391643
0.0465913
0.04106
0.0600409
0.040993
0.0731841
0.0401238
0.0859334
0.0389893
0.098272
0.0378054
0.0372462
0.110374
0.00183412
0.00308561
0.0090256
0.0141203
0.0200186
0.0222893
0.0328498
0.0263331
0.0462567
0.0276531
0.0596225
0.0276272
0.0726959
0.0270504
0.0853941
0.0262911
0.097703
0.0254966
0.0251576
0.109792
0.00182523
0.00126039
0.00898278
0.00696272
0.0199254
0.0113467
0.0326982
0.0135603
0.0460465
0.0143048
0.0593599
0.0143139
0.0723918
0.0140185
0.0850627
0.0136201
0.0973596
0.0131996
0.0130707
0.109447
0.00182792
-0.000567531
0.00897191
-0.00018127
0.0198815
0.000437081
0.0326113
0.000830541
0.0459144
0.00100172
0.0591859
0.00104234
0.0721836
0.00102083
0.0848305
0.000973255
0.0971146
0.000915495
0.000990226
0.109195
0.00184457
0.00898683
0.0198765
0.0325689
0.0458266
0.0590522
0.0720083
0.0846206
0.0968786
0.108943
0.1381
0.266213
-0.282689
0.150179
0.11616
-0.128239
0.159646
0.0398908
-0.0493576
0.166938
0.00562039
-0.0129123
0.173039
-0.0078725
0.00177102
0.178464
-0.0119334
0.00650871
0.183438
-0.0119585
0.00698468
0.188058
-0.0103792
0.00575908
0.192369
-0.00834178
0.00403096
-0.00550915
0.00160332
0.141553
0.243683
0.156468
0.101246
0.166335
0.0300229
0.173283
-0.00132726
0.178584
-0.0131734
0.183035
-0.0163842
0.186945
-0.0158687
0.190455
-0.0138892
0.193639
-0.0115263
-0.00829593
0.144626
0.21485
0.161926
0.0839456
0.172249
0.0196998
0.178881
-0.007959
0.183574
-0.0178672
0.187185
-0.0199947
0.190148
-0.0188315
0.192659
-0.0164001
0.194827
-0.0136945
-0.0100704
0.147537
0.180428
0.1668
0.0646826
0.177556
0.00894399
0.18394
-0.0143431
0.188049
-0.0219762
0.190913
-0.0228582
0.193035
-0.0209541
0.194661
-0.0180256
0.195927
-0.0149608
-0.0109445
0.150399
0.141416
0.171115
0.0439668
0.182212
-0.00215331
0.188378
-0.0205083
0.191988
-0.0255861
0.194204
-0.0250741
0.195597
-0.0223477
0.196454
-0.0188821
0.196936
-0.015443
-0.011035
0.152805
0.098985
0.174801
0.0219706
0.186189
-0.0135415
0.192173
-0.0264922
0.195368
-0.0287806
0.19704
-0.026747
0.197821
-0.0231279
0.198029
-0.0190903
0.197849
-0.0152631
-0.0104629
0.154753
0.0540235
0.177809
-0.00108583
0.189449
-0.0251807
0.195299
-0.0323421
0.198168
-0.0316502
0.199408
-0.0279866
0.199694
-0.0234143
0.199378
-0.0187743
0.198661
-0.0145465
-0.00935311
0.156212
0.00725816
0.180088
-0.0249621
0.191956
-0.0370488
0.197731
-0.0381166
0.200372
-0.0342915
0.201292
-0.0289067
0.201208
-0.0233298
0.200495
-0.0180612
0.19937
-0.0134216
-0.0078341
0.157119
-0.0406658
0.1816
-0.0494434
0.193683
-0.0491312
0.199451
-0.0438852
0.201966
-0.0368057
0.202683
-0.0296246
0.202354
-0.0229999
0.201373
-0.0170804
0.19997
-0.0120192
-0.00603684
0.157433
0.182309
0.194605
0.200445
0.202938
0.203573
0.203125
0.202008
0.20046
0.153706
0.0163573
-0.170063
0.14179
0.0119157
0.136059
0.00573131
0.134426
0.00163292
0.134734
-0.00030853
0.135705
-0.000970798
0.136727
-0.00102169
0.137562
-0.000834825
0.138133
-0.000571152
-0.000219273
0.235783
0.085074
-0.3045
0.205723
0.0419755
0.194017
0.0174381
0.190581
0.0050682
0.190555
-0.000282318
0.191721
-0.00213632
0.193088
-0.00238892
0.194247
-0.00199393
0.195068
-0.00139166
-0.000546997
0.243229
0.157341
-0.315496
0.211793
0.0734116
0.199727
0.0295041
0.1963
0.00849507
0.196372
-0.000353999
0.197626
-0.00338997
0.199068
-0.00383114
0.200285
-0.00321075
0.201149
-0.00225611
-0.00089457
0.238184
0.223597
-0.30444
0.209474
0.102122
0.198797
0.0401811
0.196116
0.0111759
0.196547
-0.000784427
0.197991
-0.00483375
0.199515
-0.00535583
0.200769
-0.00446427
0.201649
-0.00313605
-0.0012469
0.232315
-0.291407
0.206197
0.19702
0.195284
0.196271
0.197945
0.199574
0.200869
0.201764
0.0161238
-2.29096e-05
-0.0161009
0.0182533
-0.00212951
0.0225755
-0.00432221
0.0296193
-0.0070438
0.040523
-0.0109037
0.0562017
-0.0156787
0.0786756
-0.0224739
0.104883
-0.0262074
0.138791
-0.033908
-0.0312719
0.0453818
-0.000879469
-0.0445253
0.0521681
-0.00891579
0.0654667
-0.0176208
0.086251
-0.0278281
0.115003
-0.0396561
0.150757
-0.0514325
0.191537
-0.063254
0.231594
-0.0662639
0.271934
-0.0742477
-0.0638383
0.0695929
-0.00296114
-0.0675112
0.0801512
-0.0194741
0.0996369
-0.0371065
0.12788
-0.0560712
0.162755
-0.0745308
0.200334
-0.0890122
0.235715
-0.0986342
0.266274
-0.0968231
0.293477
-0.101451
-0.0858572
0.0876655
-0.00625438
-0.0843723
0.100471
-0.03228
0.122502
-0.0591371
0.151678
-0.0852475
0.183803
-0.106656
0.214561
-0.11977
0.240658
-0.124731
0.264452
-0.120617
0.285401
-0.1224
-0.104896
0.0999748
-0.0956847
0.113757
0.13577
0.162574
0.189877
0.214887
0.236505
0.257279
0.271425
0.0962765
-0.0898079
0.0981226
-0.104591
0.0871908
-0.0923214
0.101407
0.0776327
-0.0956394
0.105197
0.0672325
-0.0990393
0.10944
0.0559007
-0.102464
0.113796
0.0436876
-0.105917
0.11813
0.0307614
-0.108846
0.121772
0.0176634
-0.108163
0.121261
0.00609244
-0.0941979
0.105769
-0.0487824
0.0548749
0.105086
-0.0794638
-0.115431
0.0944164
-0.0816514
0.0829606
-0.0841835
0.0708112
-0.0868899
0.0581072
-0.0897602
0.0449335
-0.0927433
0.0313915
-0.0953039
0.0179315
-0.0947026
0.00617266
-0.0824391
-0.0426098
0.104424
-0.0682226
-0.115665
0.093043
-0.0702705
0.081374
-0.0725145
0.0693587
-0.0748746
0.0569382
-0.0773398
0.0440707
-0.0798758
0.0308025
-0.0820357
0.0175723
-0.0814723
0.00601129
-0.0708782
-0.0365985
0.106133
-0.0568733
-0.117483
0.0945976
-0.0587347
0.0827252
-0.0606421
0.070466
-0.0626154
0.0577867
-0.0646604
0.0446725
-0.0667616
0.0311887
-0.0685519
0.0177848
-0.0680684
0.00609459
-0.0591879
-0.0305039
0.106877
-0.0455026
-0.118248
0.0952122
-0.0470694
0.0831945
-0.0486243
0.0708041
-0.0502251
0.0580213
-0.0518776
0.0448306
-0.0535709
0.0312892
-0.0550105
0.0178351
-0.0546144
0.0060971
-0.0474499
-0.0244068
0.107333
-0.0341409
-0.118695
0.0956333
-0.0353695
0.08357
-0.036561
0.0711276
-0.0377827
0.0582888
-0.0390388
0.0450399
-0.040322
0.0314386
-0.0414093
0.0179222
-0.041098
0.00612967
-0.0356573
-0.0182771
0.10758
-0.0227794
-0.118942
0.0958571
-0.0236464
0.083766
-0.0244699
0.0712933
-0.02531
0.058424
-0.0261694
0.0451454
-0.0270435
0.0315151
-0.027779
0.0179701
-0.0275531
0.00615327
-0.0238404
-0.0121239
0.107639
-0.0114186
-0.119
0.0959047
-0.0119118
0.0838033
-0.0123685
0.0713222
-0.0128289
0.0584462
-0.0132934
0.045163
-0.0137602
0.0315297
-0.0141457
0.0179826
-0.014006
0.00616056
-0.0120183
-0.00596331
0.107488
-8.71099e-05
-0.11882
0.09576
-0.000183769
0.0836683
-0.000276749
0.0711999
-0.000360553
0.05834
-0.000433505
0.045076
-0.000496251
0.0314651
-0.000534829
0.017943
-0.000483836
0.00614501
-0.000220364
0.000181705
0.107116
-0.118473
0.0954133
0.0833503
0.0709158
0.0580949
0.0448751
0.0313143
0.0178484
0.00610846
0.0213836
-0.20875
-0.0244123
0.0166284
-0.217346
0.0114509
-0.221825
0.00627579
-0.225594
0.00122419
-0.229601
-0.00352485
-0.233733
-0.00728795
-0.235972
-0.00844615
-0.228286
-0.00550846
-0.189678
-0.0887268
0.0523595
-0.202738
-0.0583721
0.0441139
-0.2091
0.0354388
-0.21315
0.0268709
-0.217026
0.0185168
-0.221247
0.010477
-0.225693
0.00320826
-0.228703
-0.00201455
-0.223064
-0.00287232
-0.188821
-0.0915992
0.0786104
-0.192745
-0.0886026
0.0671507
-0.19764