/*--------------------------------*- C++ -*----------------------------------*\
  =========                 |
  \\      /  F ield         | OpenFOAM: The Open Source CFD Toolbox
   \\    /   O peration     | Website:  https://openfoam.org
    \\  /    A nd           | Version:  13
     \\/     M anipulation  |
\*---------------------------------------------------------------------------*/
FoamFile
{
    format      ascii;
    class       volVectorField;
    location    "0.4";
    object      U;
}
// * * * * * * * * * * * * * * * * * * * * * * * * * * * * * * * * * * * * * //

dimensions      [0 1 -1 0 0 0 0];

internalField   nonuniform List<vector> 
1800
(
(0.378262 -0.341593 1.20603e-19)
(0.973644 -0.833689 5.36605e-20)
(1.25483 -1.0178 -6.62079e-19)
(1.35967 -1.04672 5.34938e-19)
(1.39741 -1.01703 1.14354e-18)
(1.40924 -0.968885 4.70222e-19)
(1.40962 -0.916148 -2.40293e-19)
(1.40446 -0.864063 -6.24991e-19)
(1.3982 -0.81161 -3.25747e-19)
(1.37369 -0.764091 -2.63742e-19)
(0.443076 -0.341064 6.48827e-21)
(1.11762 -0.818723 -8.64504e-19)
(1.4246 -0.992488 6.62322e-21)
(1.53032 -1.01676 -4.1472e-19)
(1.56103 -0.984827 9.26593e-20)
(1.56409 -0.935733 1.10066e-18)
(1.55594 -0.882694 -7.99921e-19)
(1.54344 -0.830096 4.04377e-19)
(1.5301 -0.777915 6.70275e-19)
(1.50834 -0.736741 -3.4168e-19)
(0.510288 -0.332525 5.53488e-20)
(1.26151 -0.784197 2.48912e-19)
(1.5913 -0.943422 5.3573e-19)
(1.6961 -0.962799 -3.14675e-19)
(1.71877 -0.929881 -1.37107e-18)
(1.7125 -0.881792 2.9958e-19)
(1.69545 -0.830866 5.24485e-19)
(1.67485 -0.781071 -5.39536e-20)
(1.6541 -0.732699 -4.44183e-21)
(1.62645 -0.69306 -2.39312e-20)
(0.578703 -0.315372 -6.21986e-20)
(1.402 -0.729797 -2.73556e-19)
(1.75081 -0.870725 -3.6666e-19)
(1.85293 -0.885094 5.20809e-20)
(1.86698 -0.852229 3.67997e-19)
(1.85148 -0.806415 2.82755e-20)
(1.82601 -0.758716 -2.14619e-20)
(1.79802 -0.712414 4.86135e-19)
(1.77057 -0.667718 4.07804e-19)
(1.73903 -0.632067 -1.43125e-19)
(0.64689 -0.289232 1.46893e-19)
(1.53551 -0.656024 3.35508e-19)
(1.89876 -0.775771 -6.41554e-20)
(1.99633 -0.785589 -7.07561e-20)
(2.0013 -0.75423 -1.09588e-18)
(1.97674 -0.712407 9.1144e-21)
(1.94331 -0.669612 8.44692e-19)
(1.90845 -0.628428 2.75395e-19)
(1.8749 -0.58913 1.26446e-20)
(1.83951 -0.557827 -1.86495e-19)
(0.713115 -0.253836 -6.2877e-20)
(1.65831 -0.563676 7.97746e-19)
(2.031 -0.660179 1.33275e-18)
(2.12249 -0.666175 -8.50067e-19)
(2.11837 -0.637702 -7.9799e-19)
(2.08546 -0.601293 1.31541e-18)
(2.045 -0.564593 -9.27787e-19)
(2.00422 -0.529502 -1.0504e-18)
(1.96555 -0.496275 7.41438e-19)
(1.92703 -0.470055 -1.72074e-20)
(0.775461 -0.20928 3.21378e-19)
(1.76672 -0.454427 -1.28143e-18)
(2.14369 -0.526651 -3.62918e-18)
(2.22783 -0.52995 1.37192e-18)
(2.21495 -0.505859 2.02623e-18)
(2.17462 -0.476362 -5.70043e-21)
(2.12821 -0.447024 -2.54203e-18)
(2.08258 -0.419134 1.17851e-20)
(2.0398 -0.392936 2.28431e-18)
(1.99872 -0.372466 5.96655e-19)
(0.831814 -0.155963 -1.41444e-19)
(1.85722 -0.330414 7.53537e-19)
(2.23346 -0.378205 2.79918e-18)
(2.30941 -0.380061 -3.56642e-20)
(2.28853 -0.361694 -1.30909e-18)
(2.24205 -0.340327 -4.04018e-19)
(2.19101 -0.319264 0)
(2.1417 -0.299314 8.96168e-19)
(2.09589 -0.280703 -8.79333e-21)
(2.05296 -0.266521 -7.40238e-19)
(0.880091 -0.0947482 -1.53772e-20)
(1.92679 -0.194544 1.83753e-18)
(2.29769 -0.218633 2.40606e-18)
(2.36501 -0.22041 -1.9969e-18)
(2.33726 -0.208996 -1.36814e-18)
(2.28615 -0.196775 4.04667e-19)
(2.23191 -0.184699 -1.67801e-18)
(2.18021 -0.173258 -1.18706e-18)
(2.13251 -0.162671 1.36371e-18)
(2.08847 -0.155148 1.15641e-18)
(0.918268 -0.0268779 2.58933e-19)
(1.97298 -0.0502246 1.17907e-18)
(2.33441 -0.0520994 4.40388e-19)
(2.39309 -0.0550243 -2.85074e-18)
(2.35999 -0.0515153 1.08158e-20)
(2.30586 -0.0490644 3.85661e-18)
(2.2499 -0.0464011 -2.0605e-18)
(2.1971 -0.0437858 -1.10447e-18)
(2.14865 -0.0414297 3.85518e-19)
(2.10433 -0.0407075 -8.54195e-19)
(0.00527034 -0.0627707 1.22065e-19)
(0.0487745 -0.159871 1.37111e-19)
(0.112141 -0.202262 -2.01475e-21)
(0.1788 -0.214659 -5.32401e-21)
(0.242757 -0.215243 -1.57416e-21)
(0.302212 -0.211276 -3.41154e-20)
(0.356887 -0.205372 7.31653e-21)
(0.406858 -0.198686 -1.60699e-20)
(0.45254 -0.191826 1.57356e-21)
(0.494249 -0.186203 -4.00233e-21)
(0.0150858 -0.102755 8.05112e-20)
(0.074773 -0.268203 1.30694e-19)
(0.145164 -0.339196 -1.21381e-19)
(0.213522 -0.357653 -4.28695e-20)
(0.277188 -0.355542 -5.45295e-20)
(0.335601 -0.345719 -6.37659e-20)
(0.388924 -0.332769 2.57347e-20)
(0.437449 -0.318684 -1.0743e-20)
(0.481613 -0.30451 -6.94899e-22)
(0.522416 -0.293678 -5.63937e-21)
(0.0313053 -0.14175 9.43945e-21)
(0.11812 -0.372638 3.00801e-19)
(0.200297 -0.470675 8.10789e-20)
(0.271498 -0.494663 2.60689e-19)
(0.334656 -0.489751 4.15526e-20)
(0.391305 -0.474155 -2.285e-19)
(0.442351 -0.454346 -2.03708e-20)
(0.488438 -0.433111 7.27205e-20)
(0.53005 -0.411954 -3.30688e-20)
(0.569385 -0.396094 -5.8522e-21)
(0.0539043 -0.179168 -9.91798e-20)
(0.178319 -0.471136 -6.79795e-20)
(0.27672 -0.593924 2.60295e-20)
(0.351748 -0.622678 -1.07127e-19)
(0.414103 -0.614825 4.6463e-20)
(0.46823 -0.59359 1.52948e-19)
(0.516062 -0.567209 4.39046e-20)
(0.558731 -0.539198 -1.17283e-20)
(0.596806 -0.511538 1.66086e-20)
(0.634106 -0.490889 -2.06049e-21)
(0.0828393 -0.214429 0)
(0.25465 -0.561702 7.63562e-20)
(0.373248 -0.706234 4.33333e-19)
(0.452875 -0.738773 -2.70869e-19)
(0.514026 -0.727821 -4.85961e-19)
(0.564829 -0.701151 1.60824e-19)
(0.608513 -0.6686 -2.28707e-20)
(0.646813 -0.634324 -7.91078e-20)
(0.680445 -0.600797 0)
(0.715121 -0.575648 -7.11428e-21)
(0.118039 -0.246927 -8.63087e-21)
(0.346138 -0.642387 2.89628e-19)
(0.488303 -0.805008 1.30493e-19)
(0.57302 -0.840162 1.91347e-19)
(0.632435 -0.825956 -1.52906e-19)
(0.679065 -0.794144 -2.39885e-19)
(0.717672 -0.755962 4.1373e-19)
(0.750698 -0.716088 4.32571e-20)
(0.779073 -0.677481 -2.44803e-19)
(0.810461 -0.64814 -5.65626e-21)
(0.159379 -0.276009 3.08445e-20)
(0.451519 -0.7113 3.56691e-19)
(0.619873 -0.887798 4.94285e-20)
(0.709832 -0.924262 1.78665e-20)
(0.766831 -0.906687 2.66651e-19)
(0.808388 -0.870146 -3.32425e-19)
(0.841015 -0.827019 -3.29366e-19)
(0.867919 -0.782375 -2.78875e-19)
(0.890325 -0.7396 2.02987e-19)
(0.917559 -0.706336 2.22727e-19)
(0.206617 -0.300922 -1.12561e-19)
(0.569158 -0.766602 -1.4074e-19)
(0.765455 -0.952357 1.76048e-19)
(0.860431 -0.988776 -1.41312e-19)
(0.914194 -0.967809 2.81051e-19)
(0.94977 -0.927089 6.63722e-19)
(0.975586 -0.879852 4.57874e-19)
(0.995625 -0.831412 -3.48917e-19)
(1.0115 -0.785432 -1.66686e-19)
(1.03334 -0.748308 2.40818e-19)
(0.259305 -0.320779 -2.95723e-19)
(0.696997 -0.806508 -9.46148e-19)
(0.922045 -0.996676 9.67038e-19)
(1.02143 -1.03176 7.85575e-19)
(1.07102 -1.00755 -6.55888e-19)
(1.09974 -0.963404 7.10884e-19)
(1.11808 -0.913089 1.04046e-19)
(1.13069 -0.862069 -8.41612e-19)
(1.1398 -0.813809 -2.04112e-19)
(1.15409 -0.772433 2.70188e-19)
(0.31677 -0.334622 -2.57691e-20)
(0.832633 -0.82934 -8.19497e-19)
(1.08627 -1.01898 -4.58922e-19)
(1.18903 -1.05156 7.21665e-19)
(1.2333 -1.02445 5.62047e-19)
(1.25417 -0.977864 -6.39446e-19)
(1.26419 -0.925787 -5.25255e-19)
(1.26869 -0.873784 3.11233e-19)
(1.27095 -0.823778 -3.16556e-19)
(1.27234 -0.77765 -2.01374e-19)
(0.639913 -0.151043 -3.7788e-21)
(0.813804 -0.116625 1.30676e-20)
(0.889479 -0.0911711 1.46762e-20)
(0.936291 -0.0714565 1.29752e-22)
(0.963091 -0.0553943 2.31076e-22)
(0.979055 -0.0421255 3.65899e-21)
(0.988879 -0.0310952 1.59242e-21)
(0.994978 -0.0217738 -3.48101e-21)
(0.998548 -0.0139752 3.35326e-21)
(1.00065 -0.0053174 3.36147e-21)
(0.657221 -0.216892 5.75545e-20)
(0.823737 -0.15272 -1.17341e-20)
(0.896926 -0.110447 3.72428e-21)
(0.941887 -0.0822918 5.40257e-21)
(0.967562 -0.0617327 1.21063e-20)
(0.982689 -0.0459186 0)
(0.99187 -0.0333966 1.50344e-21)
(0.997487 -0.0231574 3.17725e-21)
(1.00074 -0.0147704 5.59562e-22)
(1.0026 -0.00560251 -3.19526e-21)
(0.685371 -0.280615 -3.70953e-20)
(0.838101 -0.188063 -1.10599e-20)
(0.906932 -0.129547 2.17357e-21)
(0.948765 -0.0930352 -8.7087e-21)
(0.97274 -0.0679912 -4.25088e-21)
(0.986739 -0.0496353 6.63061e-21)
(0.99512 -0.0356267 0)
(1.00016 -0.0244811 0)
(1.00305 -0.0155213 6.2661e-22)
(1.00465 -0.00587 0)
(0.724155 -0.340998 -2.30218e-20)
(0.856815 -0.22212 2.01067e-20)
(0.919414 -0.148257 8.11426e-21)
(0.956925 -0.10358 0)
(0.978617 -0.0741066 -4.21295e-21)
(0.991197 -0.0532373 2.37045e-21)
(0.998611 -0.0377616 0)
(1.003 -0.0257303 -3.82861e-21)
(1.00547 -0.0162185 0)
(1.00678 -0.00611583 -3.73735e-22)
(0.773262 -0.396933 -2.78352e-20)
(0.8798 -0.254388 4.43957e-20)
(0.934249 -0.166349 -4.82145e-21)
(0.96636 -0.113823 0)
(0.985187 -0.0800191 -4.32146e-21)
(0.996053 -0.0566867 -5.64669e-21)
(1.00234 -0.0397777 6.93261e-21)
(1.00598 -0.0268902 1.46457e-21)
(1.00798 -0.0168522 -7.63045e-22)
(1.00899 -0.00633635 3.25167e-21)
(0.832137 -0.447401 -5.11122e-19)
(0.906975 -0.284461 -9.43999e-20)
(0.951288 -0.183601 2.18524e-21)
(0.977044 -0.123667 4.9797e-21)
(0.992436 -0.0856728 7.81822e-21)
(1.00129 -0.0599477 -1.37934e-21)
(1.00629 -0.0416507 -9.85456e-21)
(1.00908 -0.0279439 4.28355e-21)
(1.01057 -0.0174137 -2.9171e-22)
(1.01125 -0.00652883 2.36459e-21)
(0.899803 -0.49129 5.89464e-21)
(0.93817 -0.312141 4.14637e-20)
(0.970336 -0.199879 5.05663e-21)
(0.988914 -0.13304 -7.62327e-23)
(1.00034 -0.0910228 -4.21555e-21)
(1.00689 -0.0629885 5.79552e-21)
(1.01044 -0.0433575 2.25245e-21)
(1.01229 -0.0288757 -5.42878e-21)
(1.01322 -0.0178936 -8.16944e-22)
(1.01355 -0.0066891 -2.33247e-21)
(0.974653 -0.527591 2.00716e-19)
(0.972691 -0.336702 5.51312e-20)
(0.991014 -0.214889 0)
(1.00181 -0.141812 -3.88369e-21)
(1.00883 -0.096011 2.96055e-21)
(1.01281 -0.0657774 2.09303e-21)
(1.01476 -0.0448785 2.55783e-21)
(1.0156 -0.0296722 -6.42055e-22)
(1.01592 -0.0182822 5.54245e-23)
(1.01588 -0.00681238 6.43949e-22)
(1.05423 -0.557166 -3.01563e-19)
(1.00896 -0.358374 -1.58794e-19)
(1.01207 -0.228634 2.79834e-20)
(1.01505 -0.149849 2.13745e-21)
(1.01758 -0.100543 -2.0553e-21)
(1.01891 -0.0682671 1.45048e-21)
(1.01919 -0.0461954 -2.24978e-21)
(1.01896 -0.0303271 6.83128e-22)
(1.01864 -0.0185757 -4.14555e-21)
(1.01822 -0.0069001 -5.03393e-21)
(1.13774 -0.582837 2.08465e-19)
(1.04578 -0.383081 -1.56481e-19)
(1.03142 -0.24596 -2.26821e-20)
(1.02695 -0.160008 -1.30907e-20)
(1.02556 -0.106059 -4.16783e-21)
(1.02463 -0.0711064 -1.88607e-21)
(1.02348 -0.0475732 -2.6136e-21)
(1.02227 -0.030936 0)
(1.02133 -0.0188075 2.37949e-21)
(1.02056 -0.00695132 8.11907e-22)
(1.27585 -0.564756 3.01271e-19)
(1.13356 -0.377802 9.78014e-20)
(1.08128 -0.246209 -6.03337e-20)
(1.05566 -0.161355 2.28617e-21)
(1.04263 -0.107037 3.30283e-21)
(1.03527 -0.0715404 1.50327e-21)
(1.03046 -0.0476265 5.88756e-21)
(1.02712 -0.0308041 2.09031e-21)
(1.02498 -0.0186351 -2.62399e-21)
(1.02357 -0.00686637 1.09589e-21)
(1.32388 -0.475122 1.46886e-21)
(1.17051 -0.32885 9.17355e-20)
(1.11101 -0.222805 7.71212e-20)
(1.07744 -0.149859 -8.86696e-21)
(1.05778 -0.100837 3.23749e-20)
(1.0457 -0.067847 1.98038e-20)
(1.03776 -0.0452729 1.45216e-20)
(1.03241 -0.0292926 -1.23145e-21)
(1.02909 -0.0177158 5.12216e-21)
(1.027 -0.00651793 4.29297e-21)
(1.37318 -0.406852 -9.83086e-20)
(1.21508 -0.292066 -7.63585e-21)
(1.14309 -0.202972 2.27386e-21)
(1.09957 -0.138449 -5.7885e-37)
(1.07274 -0.0938384 2.79311e-21)
(1.05587 -0.0633435 -5.54158e-35)
(1.04482 -0.0422985 -4.78697e-21)
(1.03749 -0.0273537 -3.00427e-34)
(1.03302 -0.0165278 1.24587e-21)
(1.03025 -0.00607369 -3.62616e-21)
(1.40473 -0.336653 -1.63717e-34)
(1.2484 -0.249841 -1.8827e-20)
(1.1692 -0.178103 -2.49978e-20)
(1.11864 -0.123574 0)
(1.08609 -0.0845663 -1.43772e-20)
(1.06511 -0.0573601 -9.49539e-21)
(1.0513 -0.0383746 -3.81989e-21)
(1.04218 -0.0248245 -4.38448e-34)
(1.03662 -0.0149953 -8.21449e-22)
(1.03323 -0.00550652 3.55541e-21)
(1.42467 -0.272581 -5.06972e-20)
(1.27407 -0.208387 2.67428e-21)
(1.19053 -0.151648 0)
(1.13479 -0.106727 0)
(1.09769 -0.0736544 0)
(1.07326 -0.0501857 0)
(1.05706 -0.0336456 -1.11416e-21)
(1.04636 -0.0217784 -4.93718e-34)
(1.03985 -0.0131546 1.18988e-21)
(1.03588 -0.00482878 4.35842e-34)
(1.43693 -0.213404 -1.01238e-20)
(1.29329 -0.167365 0)
(1.2074 -0.123925 0)
(1.14801 -0.0883014 0)
(1.10738 -0.0614027 0)
(1.08017 -0.0420156 0)
(1.06199 -0.0282279 2.05417e-21)
(1.04995 -0.0182847 3.48556e-21)
(1.04262 -0.0110447 1.16306e-21)
(1.03816 -0.00405273 4.05447e-21)
(1.44405 -0.158759 0)
(1.30714 -0.127198 -5.07514e-21)
(1.22018 -0.0955153 -1.00728e-20)
(1.15833 -0.068758 0)
(1.11509 -0.0481224 -7.13172e-21)
(1.08574 -0.033052 -5.02167e-21)
(1.06598 -0.0222482 -1.3786e-21)
(1.05286 -0.0144225 -2.12502e-21)
(1.04488 -0.00871135 3.54505e-21)
(1.04001 -0.00319489 2.93128e-21)
(1.44742 -0.107671 3.33619e-21)
(1.31593 -0.0875615 3.00969e-21)
(1.22873 -0.0663683 -1.09036e-21)
(1.16536 -0.0481317 4.47122e-36)
(1.12042 -0.0338479 -1.08807e-21)
(1.08956 -0.0233146 -4.075e-35)
(1.06867 -0.015717 1.89949e-21)
(1.05478 -0.010194 6.20389e-21)
(1.04631 -0.00614996 1.03192e-21)
(1.04114 -0.00224887 -3.28383e-21)
(1.43867 -0.0597284 -1.41717e-20)
(1.3113 -0.0510763 6.12355e-21)
(1.2251 -0.0394327 7.70198e-21)
(1.16178 -0.0288837 0)
(1.11647 -0.0204142 4.904e-21)
(1.08515 -0.0140969 3.46002e-21)
(1.06388 -0.0095135 4.16281e-21)
(1.04971 -0.00617139 1.49926e-21)
(1.04107 -0.00371306 -6.64844e-22)
(1.03582 -0.00135062 3.53938e-21)
(1.23925 -0.00904005 0)
(1.13932 -0.00963014 0)
(1.06821 -0.00786785 0)
(1.01445 -0.00586207 0)
(0.975549 -0.00417128 0)
(0.948509 -0.00289282 0)
(0.930081 -0.00195598 1.79283e-21)
(0.9178 -0.00127114 -8.67376e-36)
(0.910321 -0.000752439 1.08099e-21)
(0.905869 -0.000264485 3.18457e-21)
(2.02714 -0.0367448 7.97118e-19)
(2.0143 -0.134856 5.36382e-20)
(1.98485 -0.230253 -1.06392e-19)
(1.93925 -0.321218 -3.17549e-19)
(1.87957 -0.405516 -9.67962e-20)
(1.80539 -0.482639 -1.52245e-19)
(1.72348 -0.54808 -3.95945e-19)
(1.62445 -0.607852 1.15131e-19)
(1.53723 -0.638274 0)
(1.40012 -0.705325 4.96354e-20)
(1.94543 -0.0269585 2.3074e-19)
(1.93549 -0.100795 -2.97523e-19)
(1.91362 -0.173109 -3.2029e-20)
(1.87904 -0.243237 -1.27537e-19)
(1.83526 -0.308213 4.99093e-20)
(1.77809 -0.370977 1.33778e-19)
(1.7193 -0.421943 -5.04897e-20)
(1.64062 -0.478075 6.08903e-20)
(1.58077 -0.496355 -8.13642e-20)
(1.47742 -0.570606 2.82369e-20)
(1.87753 -0.0205987 -1.04783e-19)
(1.86976 -0.0791161 2.21437e-19)
(1.85255 -0.136299 1.62515e-19)
(1.82469 -0.192337 -2.27669e-19)
(1.79006 -0.243882 3.78484e-20)
(1.74409 -0.295681 1.95934e-19)
(1.69751 -0.33642 -1.67882e-20)
(1.63505 -0.385584 2.78265e-20)
(1.58542 -0.40091 3.89698e-20)
(1.50957 -0.467024 5.1904e-20)
(1.82463 -0.0169461 -2.35713e-19)
(1.81825 -0.0622268 -1.14842e-20)
(1.80401 -0.106531 -2.97695e-20)
(1.78096 -0.150392 -3.50488e-20)
(1.75224 -0.190663 -7.57545e-20)
(1.7147 -0.232123 -8.44173e-20)
(1.67574 -0.264441 1.12851e-19)
(1.62613 -0.30479 1.36751e-20)
(1.58313 -0.318464 1.99231e-21)
(1.52563 -0.372284 9.86275e-21)
(1.78326 -0.0135467 3.58733e-20)
(1.77789 -0.0482694 8.84425e-20)
(1.76567 -0.0822445 -3.19181e-20)
(1.7461 -0.116046 1.71722e-19)
(1.72136 -0.147159 -1.60265e-20)
(1.68984 -0.179484 -1.48078e-19)
(1.65598 -0.204928 2.21274e-20)
(1.61541 -0.236697 -7.12853e-20)
(1.5771 -0.248983 6.48077e-20)
(1.53159 -0.290455 4.33797e-20)
(1.75159 -0.0111539 -1.24208e-19)
(1.74696 -0.0369967 -5.40366e-20)
(1.73615 -0.0623119 5.37378e-21)
(1.71901 -0.0875835 7.75088e-20)
(1.69697 -0.111016 1.25415e-19)
(1.66957 -0.135431 -4.12858e-20)
(1.63922 -0.155054 3.40208e-21)
(1.60465 -0.179226 6.43237e-21)
(1.56978 -0.189832 2.43571e-20)
(1.53192 -0.220707 -3.50928e-20)
(1.72811 -0.00929111 -3.98942e-20)
(1.72406 -0.0275175 -8.72376e-20)
(1.71425 -0.0453868 -9.26249e-20)
(1.69882 -0.0632783 -1.55394e-19)
(1.67865 -0.0800343 2.58913e-20)
(1.65399 -0.097553 2.2779e-20)
(1.62604 -0.111985 1.69906e-20)
(1.59531 -0.129569 1.45036e-20)
(1.56286 -0.138141 -3.4056e-20)
(1.52969 -0.160332 -6.20822e-21)
(1.70989 -0.00765628 4.63036e-20)
(1.70645 -0.0190431 1.98063e-20)
(1.69761 -0.0302009 1.17807e-20)
(1.68362 -0.0414325 -2.24734e-20)
(1.66501 -0.0520718 -1.91685e-20)
(1.64238 -0.0633739 -1.14748e-20)
(1.61624 -0.0728884 -1.53217e-20)
(1.58798 -0.0847552 9.46763e-21)
(1.55717 -0.090908 -5.14613e-21)
(1.52682 -0.106461 1.96131e-20)
(1.67279 -0.00774031 -5.06696e-20)
(1.67012 -0.0124116 -8.92005e-21)
(1.66309 -0.016933 8.15098e-20)
(1.65178 -0.0215819 -1.23406e-20)
(1.63641 -0.0260167 -1.63264e-20)
(1.61762 -0.0311652 2.37801e-20)
(1.59504 -0.0354425 -1.07179e-20)
(1.57117 -0.0417655 1.54588e-21)
(1.54255 -0.0446887 3.85499e-21)
(1.51723 -0.0546014 2.28811e-20)
(1.33695 -0.00366127 4.20737e-20)
(1.33223 -0.00269741 3.32631e-20)
(1.32762 -0.00177701 3.10493e-20)
(1.32318 -0.00100547 4.64085e-20)
(1.31849 -0.000398879 -1.83006e-20)
(1.3139 -0.000154925 -2.46399e-20)
(1.30741 2.0849e-05 6.36178e-21)
(1.30272 -0.000699201 1.94341e-21)
(1.29053 -0.000119635 -3.21121e-21)
(1.2891 -0.00434565 3.27927e-21)
(1.3552 0.718825 -4.81001e-20)
(1.35091 0.764135 2.68971e-20)
(1.35578 0.816386 -3.60395e-19)
(1.36302 0.874879 2.31512e-19)
(1.37114 0.937588 6.98816e-19)
(1.37827 1.00384 -1.46531e-19)
(1.3781 1.06984 -7.82681e-19)
(1.3416 1.1111 -5.39955e-20)
(1.16558 1.01994 -5.19129e-19)
(0.597765 0.554485 7.94875e-20)
(1.4956 0.701605 0)
(1.49745 0.744039 4.81994e-19)
(1.50331 0.793234 1.06512e-18)
(1.51343 0.849279 -6.28399e-19)
(1.52658 0.910302 -1.53994e-18)
(1.5402 0.975375 -1.40155e-19)
(1.54677 1.04037 -1.79879e-19)
(1.51245 1.08095 6.72194e-19)
(1.31813 0.990322 1.15326e-18)
(0.676058 0.535918 4.92412e-19)
(1.61501 0.673201 6.25893e-20)
(1.62609 0.713761 0)
(1.6392 0.759866 -6.67395e-20)
(1.65595 0.811834 6.61748e-19)
(1.67582 0.868748 5.27726e-20)
(1.69674 0.929934 -1.72099e-18)
(1.71033 0.991294 1.12991e-18)
(1.67805 1.02922 7.9698e-19)
(1.46499 0.939805 -1.06107e-18)
(0.750015 0.505331 -3.00783e-19)
(1.72022 0.625703 -1.03351e-19)
(1.74033 0.664384 -8.44548e-20)
(1.76212 0.707371 2.07366e-19)
(1.78682 0.755092 -2.60325e-19)
(1.81436 0.807321 -1.27235e-18)
(1.84314 0.86362 -9.86713e-19)
(1.8639 0.920051 1.14243e-18)
(1.83329 0.954309 8.17629e-19)
(1.60104 0.86744 0)
(0.816139 0.462296 0)
(1.81622 0.561726 -7.55076e-19)
(1.84364 0.597443 -1.2696e-18)
(1.87305 0.636454 -5.12244e-19)
(1.9052 0.67927 -3.55113e-20)
(1.94025 0.726042 0)
(1.97659 0.776426 1.47915e-19)
(2.00387 0.826718 1.75375e-19)
(1.97397 0.856478 2.25684e-19)
(1.72192 0.773881 -3.46601e-19)
(0.871728 0.407761 -8.92024e-20)
(1.90226 0.483933 8.88305e-19)
(1.93523 0.515308 -4.76789e-20)
(1.97081 0.549243 -1.05416e-18)
(2.00945 0.586266 0)
(2.05124 0.626638 0)
(2.09427 0.670025 0)
(2.12695 0.712879 1.48099e-18)
(2.09624 0.737624 -1.93037e-18)
(1.82406 0.661448 -1.57884e-18)
(0.914766 0.343648 1.07789e-19)
(1.97583 0.394021 -1.20645e-18)
(2.01299 0.420032 -2.51587e-18)
(2.05345 0.447959 -4.36119e-21)
(2.09745 0.478339 5.04791e-19)
(2.14489 0.511418 -4.37661e-20)
(2.19339 0.546677 1.20691e-18)
(2.22985 0.581141 -7.25858e-19)
(2.19684 0.600266 -2.48628e-18)
(1.90468 0.533237 1.70967e-19)
(0.943648 0.27245 1.35957e-19)
(2.03457 0.294087 -9.88446e-19)
(2.07487 0.313988 1.95917e-20)
(2.11903 0.335117 3.83578e-19)
(2.16718 0.358078 -3.69118e-19)
(2.21897 0.383095 5.69424e-19)
(2.27139 0.40953 1.70862e-18)
(2.30986 0.434405 -2.43488e-19)
(2.27333 0.447419 -1.50167e-18)
(1.9606 0.393946 4.49428e-19)
(0.957779 0.197969 9.57408e-20)
(2.07639 0.1866 3.66604e-19)
(2.11895 0.199877 9.50068e-20)
(2.16575 0.213556 -4.16494e-19)
(2.21678 0.228419 -9.31657e-19)
(2.27153 0.244748 1.0703e-19)
(2.32632 0.261762 1.16361e-19)
(2.36501 0.275964 -1.71792e-18)
(2.32231 0.284672 8.64255e-19)
(1.99033 0.248107 3.42319e-19)
(0.958017 0.121713 -2.48518e-19)
(2.10001 0.0740968 7.40252e-19)
(2.1439 0.0801507 -1.11839e-18)
(2.1921 0.0860557 1.96552e-19)
(2.2447 0.0923801 2.35583e-18)
(2.30088 0.0992933 1.26377e-18)
(2.35631 0.106719 -2.93136e-18)
(2.39308 0.111813 -3.34671e-18)
(2.3426 0.116939 2.0112e-18)
(1.99442 0.0986052 -1.04938e-20)
(0.944633 0.0460003 -2.09403e-20)
(0.524738 0.183447 -2.05991e-19)
(0.49024 0.189848 -1.83942e-19)
(0.447446 0.196825 1.11786e-19)
(0.400013 0.204321 -3.70326e-19)
(0.348382 0.212408 -5.26881e-20)
(0.291367 0.221125 3.21446e-19)
(0.227859 0.22989 9.86851e-20)
(0.157071 0.234465 -7.04879e-20)
(0.0834116 0.215638 -1.55114e-20)
(0.0146233 0.12195 3.03902e-20)
(0.550295 0.281386 1.67258e-19)
(0.516709 0.294492 2.43387e-19)
(0.47528 0.308875 3.57122e-20)
(0.42936 0.324301 -1.07064e-19)
(0.379367 0.340905 -3.55454e-19)
(0.32416 0.358811 2.60453e-20)
(0.262532 0.377025 2.35443e-19)
(0.192924 0.388159 -9.11468e-21)
(0.116618 0.358728 -3.27791e-20)
(0.0332423 0.201777 -9.67722e-21)
(0.592781 0.375211 -1.86184e-19)
(0.560817 0.394766 -2.03111e-19)
(0.521736 0.416179 1.73553e-19)
(0.478383 0.439139 1.62493e-19)
(0.431145 0.463852 -6.34752e-20)
(0.378955 0.490511 -1.48949e-19)
(0.320438 0.517714 -8.6521e-20)
(0.252732 0.535032 5.00278e-20)
(0.171784 0.49528 -2.78675e-20)
(0.0638754 0.277635 6.84292e-21)
(0.651135 0.462816 1.06225e-19)
(0.62147 0.488447 1.80743e-21)
(0.585671 0.516345 -1.42389e-19)
(0.545891 0.54626 1.05353e-19)
(0.502479 0.578483 -1.00473e-19)
(0.454471 0.613258 4.61645e-20)
(0.400249 0.648782 -9.59792e-20)
(0.33514 0.671744 -7.18756e-20)
(0.247556 0.622156 -2.09366e-19)
(0.105709 0.347775 5.25893e-20)
(0.723869 0.542221 -3.58996e-20)
(0.697142 0.573415 -1.51822e-20)
(0.665509 0.607083 -4.39335e-20)
(0.630276 0.64322 -1.40738e-19)
(0.591736 0.682199 5.95959e-20)
(0.549036 0.724282 -1.15384e-19)
(0.500233 0.767278 1.88546e-19)
(0.438352 0.795207 2.61869e-20)
(0.342362 0.736394 2.80575e-19)
(0.157858 0.410524 2.22275e-19)
(0.808955 0.611772 1.22541e-20)
(0.785719 0.647833 -4.61271e-20)
(0.75902 0.686299 1.89637e-19)
(0.729187 0.727672 9.05629e-20)
(0.696465 0.772432 1.71089e-19)
(0.660124 0.820811 6.51023e-20)
(0.617797 0.870217 3.46306e-19)
(0.559728 0.902247 1.80262e-19)
(0.453878 0.834878 1.77202e-19)
(0.218956 0.464005 1.94875e-19)
(0.904367 0.669153 -9.68669e-20)
(0.88547 0.709359 2.43373e-19)
(0.864765 0.751654 1.27514e-19)
(0.841385 0.797236 -1.06621e-19)
(0.815447 0.846708 -6.18971e-20)
(0.786355 0.900269 4.19606e-19)
(0.75128 0.95498 -9.89563e-20)
(0.697313 0.990319 -2.70894e-19)
(0.580025 0.915347 -4.88663e-20)
(0.287567 0.506875 2.26331e-19)
(1.00488 0.714017 1.51887e-19)
(0.990164 0.756875 5.56881e-20)
(0.97599 0.801566 -5.1642e-19)
(0.960134 0.850247 2.41699e-20)
(0.942372 0.903421 2.72829e-19)
(0.922035 0.961012 -2.3509e-19)
(0.895574 1.01967 -4.12494e-20)
(0.846455 1.05711 -1.25354e-19)
(0.716738 0.975288 1.51072e-20)
(0.361379 0.537659 -2.78917e-19)
(1.11562 0.740568 2.52263e-20)
(1.10762 0.785862 -3.482e-19)
(1.10099 0.83171 -2.47339e-21)
(1.09243 0.88214 2.59499e-19)
(1.08213 0.937862 -2.44973e-19)
(1.06991 0.998534 5.25971e-19)
(1.05158 1.06039 4.04428e-19)
(1.00664 1.0997 -7.14866e-19)
(0.862569 1.01301 -5.90162e-20)
(0.439097 0.555939 -3.19574e-19)
(1.20172 0.750454 -1.74533e-19)
(1.20515 0.798131 -1.79249e-19)
(1.21341 0.845649 2.24565e-19)
(1.21835 0.897396 4.25131e-19)
(1.22025 0.954353 1.89454e-19)
(1.21946 1.01629 -4.37327e-19)
(1.21139 1.07935 4.12326e-21)
(1.17158 1.11898 1.56258e-19)
(1.01256 1.02839 -2.75078e-19)
(0.518247 0.56152 -2.37325e-19)
(0.710743 0.0235666 1.80826e-20)
(1.20205 0.0355873 -2.28626e-20)
(0.906704 0.0407452 -4.50767e-21)
(1.01526 0.0443302 0)
(0.984178 0.0519166 2.22435e-20)
(0.966405 0.0622581 2.6573e-20)
(0.941979 0.0760411 3.33078e-20)
(0.894508 0.0938288 6.66106e-20)
(0.829653 0.118451 -9.49025e-20)
(0.660484 0.150175 -1.06292e-19)
(0.71045 0.0213824 4.1139e-20)
(1.20236 0.0360369 -7.80593e-20)
(0.907448 0.0433813 -1.4949e-21)
(1.01708 0.046119 -1.1995e-20)
(0.986798 0.055694 1.08161e-20)
(0.97011 0.0683597 -1.38256e-20)
(0.946842 0.086513 -8.30413e-20)
(0.901696 0.111358 0)
(0.83832 0.153666 2.03976e-19)
(0.680238 0.211081 -2.53863e-19)
(0.709959 0.0192746 -6.16278e-20)
(1.20282 0.0363514 2.12794e-20)
(0.908101 0.0457818 3.10613e-20)
(1.01929 0.0477221 1.7295e-20)
(0.989779 0.0592933 -2.58596e-20)
(0.974495 0.0743045 -2.53721e-22)
(0.952782 0.0967981 -5.84858e-20)
(0.911529 0.128768 -4.76642e-21)
(0.850569 0.188131 2.36426e-22)
(0.712192 0.270154 6.35291e-19)
(0.709266 0.0173354 -9.5409e-21)
(1.20333 0.0365227 5.03221e-21)
(0.908671 0.0478845 2.79971e-20)
(1.02187 0.049129 1.53531e-20)
(0.993123 0.0626844 -1.29218e-20)
(0.979559 0.0800394 -1.58784e-20)
(0.959857 0.10679 8.71499e-20)
(0.923875 0.145908 -1.41093e-21)
(0.866576 0.221315 -2.48529e-19)
(0.755788 0.326395 6.79982e-20)
(0.708352 0.0156315 9.17005e-21)
(1.20388 0.0365274 -4.38741e-20)
(0.909184 0.0496252 -2.20205e-20)
(1.02486 0.0503352 6.41593e-21)
(0.996833 0.065838 0)
(0.985292 0.0855139 0)
(0.968123 0.116397 7.4067e-20)
(0.938546 0.162621 2.36391e-22)
(0.886617 0.252564 -1.20678e-19)
(0.810238 0.379021 9.32266e-20)
(0.7072 0.0142421 -1.4892e-21)
(1.20435 0.0363299 3.70743e-20)
(0.909666 0.0509422 -4.33213e-20)
(1.02826 0.0513448 -3.47812e-20)
(1.0009 0.0687255 -5.22518e-22)
(0.991683 0.0906817 6.34199e-20)
(0.977625 0.125548 1.15594e-19)
(0.955309 0.178767 -7.77912e-22)
(0.911101 0.281589 2.05572e-19)
(0.874443 0.42752 -2.02989e-19)
(0.705787 0.0132645 -2.85124e-20)
(1.20464 0.0358805 1.88071e-20)
(0.910159 0.0517727 -3.94576e-21)
(1.03208 0.0521726 -5.65012e-20)
(1.00531 0.0713183 1.475e-21)
(0.998724 0.095504 -1.06652e-21)
(0.98839 0.134184 -7.0944e-21)
(0.974025 0.19422 -2.01834e-19)
(0.940338 0.307771 1.58032e-19)
(0.946699 0.470508 -4.72445e-19)
(0.704075 0.0127973 1.15917e-20)
(1.20467 0.0351035 -5.53363e-20)
(0.910718 0.0520617 1.60647e-20)
(1.03635 0.0528461 4.46396e-20)
(1.01003 0.0735889 7.07053e-22)
(1.00641 0.0999612 -7.34703e-20)
(1.00044 0.142324 -6.35853e-20)
(0.994545 0.209221 3.65977e-19)
(0.974831 0.331626 1.2001e-20)
(1.02577 0.51203 7.54107e-19)
(0.702023 0.0129647 -1.43892e-21)
(1.20438 0.0338599 2.39682e-20)
(0.911423 0.0517518 -4.27371e-22)
(1.04104 0.0534219 -4.6355e-20)
(1.015 0.0754812 -8.10542e-20)
(1.01468 0.103844 1.67644e-21)
(1.0137 0.149206 -8.77071e-20)
(1.01681 0.221083 4.78921e-19)
(1.01618 0.345998 -7.50934e-21)
(1.10672 0.538105 -1.03402e-18)
(0.699645 0.0141671 7.71671e-21)
(1.20432 0.0322571 3.4819e-20)
(0.912241 0.0508275 1.53189e-20)
(1.04602 0.0540583 -1.01666e-19)
(1.01967 0.0774515 -7.53347e-20)
(1.02207 0.108528 -6.10181e-20)
(1.0245 0.158618 -1.5608e-19)
(1.03303 0.239088 -4.44922e-19)
(1.04865 0.373457 -2.64908e-19)
(1.18205 0.589067 -1.12603e-18)
(0.70038 0.0146782 -2.15977e-20)
(1.20613 0.0299852 -7.05754e-21)
(0.914328 0.0481804 -1.26592e-20)
(1.05216 0.0536649 1.60881e-21)
(1.02854 0.0769061 5.34855e-20)
(1.03666 0.108753 -4.22996e-20)
(1.04855 0.158972 1.40072e-19)
(1.07273 0.237511 -4.45836e-19)
(1.11715 0.357935 -1.88507e-19)
(1.2428 0.565677 6.33384e-19)
(0.700983 0.0128231 1.86608e-20)
(1.20992 0.0273363 1.29071e-20)
(0.918432 0.0434978 5.05078e-21)
(1.05757 0.0511101 4.05216e-20)
(1.0385 0.0729469 8.24845e-20)
(1.05154 0.103459 1.24297e-19)
(1.07142 0.150256 3.01363e-20)
(1.10805 0.220997 2.43064e-19)
(1.16582 0.323305 3.08915e-19)
(1.3067 0.484425 -1.38235e-20)
(0.701322 0.0104471 -2.16048e-20)
(1.21375 0.0241267 -4.62624e-21)
(0.922752 0.0387515 -1.12366e-20)
(1.06304 0.0474307 1.9219e-20)
(1.04805 0.0676753 2.25935e-34)
(1.06556 0.0960474 -8.78503e-21)
(1.0922 0.138397 -5.73475e-34)
(1.13877 0.200421 2.03794e-20)
(1.20418 0.283841 -5.71556e-20)
(1.35681 0.412688 -4.92642e-20)
(0.701681 0.00722328 3.72086e-20)
(1.21744 0.0202745 -4.92461e-35)
(0.926988 0.0336499 1.09347e-20)
(1.06831 0.0427201 -1.66182e-20)
(1.05682 0.061075 -3.25566e-20)
(1.0782 0.086683 -4.1612e-20)
(1.11044 0.123923 -7.17696e-34)
(1.16442 0.177095 -1.06539e-19)
(1.23486 0.243608 -1.45092e-19)
(1.39076 0.344453 9.12313e-20)
(0.702115 0.00310505 0)
(1.2211 0.0158517 -4.55182e-37)
(0.931061 0.028238 0)
(1.07324 0.0371352 0)
(1.06462 0.0533076 0)
(1.08924 0.0756417 0)
(1.12602 0.107322 -4.33195e-34)
(1.18516 0.151612 0)
(1.25914 0.203221 -2.2206e-20)
(1.41152 0.280178 5.53249e-20)
(0.702687 -0.00177897 2.3307e-20)
(1.22491 0.0109539 -4.15481e-21)
(0.934938 0.0226189 1.01867e-20)
(1.07763 0.0308578 0)
(1.07133 0.0445778 0)
(1.09856 0.0632608 7.52663e-21)
(1.13888 0.0891522 3.05012e-20)
(1.20146 0.124691 -1.52605e-20)
(1.27786 0.163526 -3.30443e-20)
(1.42339 0.220231 2.06648e-19)
(0.703437 -0.00819399 -4.94389e-20)
(1.22901 0.00551848 5.4636e-21)
(0.938586 0.0168628 9.76899e-21)
(1.08139 0.0240612 -5.26517e-21)
(1.07683 0.0350876 -1.11604e-20)
(1.10604 0.0498484 -8.90126e-21)
(1.14901 0.069856 -2.29573e-20)
(1.21377 0.096893 -4.3918e-20)
(1.29169 0.124879 -6.05801e-20)
(1.42971 0.164521 8.97618e-20)
(0.704467 -0.0136569 -3.24097e-20)
(1.23364 0.000144139 -1.59018e-20)
(0.941834 0.0115785 9.09442e-21)
(1.0842 0.0168925 -1.41388e-20)
(1.08083 0.0249257 7.03308e-35)
(1.11146 0.0355193 8.15657e-21)
(1.15633 0.0495445 -1.05257e-33)
(1.2224 0.0682581 -1.55436e-20)
(1.3011 0.0868277 2.08146e-20)
(1.43282 0.111607 2.76668e-20)
(0.704196 -0.027349 1.79074e-19)
(1.23212 -0.00610812 -9.71609e-21)
(0.938932 0.00552952 8.95142e-21)
(1.08036 0.0103642 2.73887e-21)
(1.07778 0.0151056 3.73022e-21)
(1.10936 0.0217771 1.48651e-20)
(1.15543 0.0302531 8.64903e-21)
(1.22233 0.0415094 -5.23082e-21)
(1.30109 0.0521178 -2.2488e-20)
(1.42937 0.0654271 1.44023e-19)
(0.658024 -0.0199814 2.74388e-20)
(1.09838 -0.00861018 -7.24386e-35)
(0.816333 0.00274465 8.34257e-21)
(0.950889 0.00154951 0)
(0.945182 0.00332558 0)
(0.974234 0.00475518 8.41002e-21)
(1.01632 0.00655487 -1.00485e-35)
(1.0765 0.00910206 -1.55182e-20)
(1.14798 0.0111893 -3.05966e-20)
(1.25707 0.0135254 6.09845e-20)
(1.42121 0.622609 -1.88289e-19)
(1.51295 0.619241 -2.81194e-19)
(1.60726 0.595075 0)
(1.69388 0.549426 9.25506e-20)
(1.77501 0.489428 4.55709e-19)
(1.84937 0.418951 -1.44789e-19)
(1.91373 0.339198 1.36479e-18)
(1.96536 0.251698 -5.32619e-20)
(2.0024 0.158378 -3.54307e-19)
(2.02319 0.0619577 3.09225e-19)
(1.46062 0.512852 7.62455e-20)
(1.53409 0.501754 1.14762e-19)
(1.61523 0.469874 -2.88383e-21)
(1.68828 0.425974 1.55239e-19)
(1.75352 0.375644 -1.4225e-19)
(1.81144 0.31959 -3.71486e-19)
(1.86055 0.257743 -7.65792e-20)
(1.89946 0.190812 5.25123e-19)
(1.92705 0.120133 -1.88632e-20)