/*--------------------------------*- C++ -*----------------------------------*\
  =========                 |
  \\      /  F ield         | OpenFOAM: The Open Source CFD Toolbox
   \\    /   O peration     | Website:  https://openfoam.org
    \\  /    A nd           | Version:  13
     \\/     M anipulation  |
\*---------------------------------------------------------------------------*/
FoamFile
{
    format      ascii;
    class       volVectorField;
    location    "7.63";
    object      U;
}
// * * * * * * * * * * * * * * * * * * * * * * * * * * * * * * * * * * * * * //

dimensions      [0 1 -1 0 0 0 0];

internalField   nonuniform List<vector> 
440
(
(-0.0720468 0.0596111 -6.50426e-20)
(-0.0660585 0.107686 2.67756e-20)
(0.0795338 0.0956972 2.10431e-20)
(0.526129 0.0900825 3.1636e-19)
(0.534648 0.179922 -2.32535e-21)
(-0.0631886 0.0340549 2.9058e-20)
(0.109248 -0.00683137 -1.28488e-19)
(0.601896 -0.0509377 -9.15116e-20)
(1.16406 -0.0787426 2.79638e-20)
(1.62853 -0.0861611 -1.43449e-20)
(0.00802657 -0.00612922 4.40117e-20)
(0.568401 -0.0608387 8.03608e-19)
(1.36154 -0.0513604 -5.03504e-19)
(1.93707 -0.021154 -1.47453e-18)
(2.47423 -0.00808015 6.29541e-19)
(0.235872 -0.0535631 -1.73123e-19)
(1.27906 -0.004343 -6.13687e-19)
(2.05064 0.0627556 1.89837e-18)
(2.48456 0.0981154 2.12514e-18)
(2.52614 0.114467 -5.63847e-19)
(0.616098 -0.00450761 -3.07947e-19)
(1.82639 0.183493 -6.76879e-19)
(2.36512 0.255824 2.08456e-18)
(2.47126 0.265874 2.14446e-18)
(2.55719 0.23758 7.14499e-19)
(-0.0303593 0.0843197 1.72427e-19)
(-0.133425 0.0276661 7.42718e-20)
(-0.236727 -0.0203883 -2.46391e-19)
(-0.32504 -0.0606286 2.10745e-20)
(-0.381736 -0.117078 -1.32219e-20)
(-0.0619638 0.213854 -5.31291e-20)
(-0.143795 0.231881 -3.6337e-19)
(-0.218269 0.189137 8.93277e-20)
(-0.285265 0.131956 9.12472e-20)
(-0.311902 0.0459814 -1.71543e-19)
(-0.107783 0.272348 -3.82549e-19)
(-0.17157 0.377695 3.74173e-19)
(-0.199885 0.357514 -1.77621e-19)
(-0.212201 0.294956 -8.99873e-19)
(-0.193253 0.198716 4.6049e-21)
(-0.102333 0.208785 5.48325e-21)
(-0.128642 0.361217 -6.33145e-20)
(-0.0994356 0.389462 6.05087e-20)
(-0.0407046 0.364799 7.58274e-19)
(0.0102795 0.319036 -1.51588e-19)
(-0.0796238 0.105378 -8.26476e-21)
(-0.116325 0.217301 -1.59015e-20)
(-0.0925928 0.257788 -1.0544e-20)
(0.0387181 0.258789 -1.12266e-19)
(0.0896089 0.324261 -4.36846e-19)
(-0.496096 -0.521488 -7.84941e-19)
(0.640463 -0.400657 9.82694e-20)
(0.851915 0.840572 2.60341e-19)
(-0.183349 0.567674 -2.36923e-19)
(0.910835 -0.248011 -3.27511e-19)
(-0.102595 -0.624909 1.09432e-18)
(0.12535 -0.634223 -5.15659e-20)
(0.860845 0.918382 -3.28503e-20)
(0.0359931 0.542719 -2.20514e-19)
(1.15903 -0.39097 3.78985e-19)
(0.364774 -0.617895 4.96787e-19)
(-0.417743 -0.778052 -6.54492e-19)
(0.814407 0.868857 4.7505e-20)
(0.438855 0.489973 -6.67708e-19)
(1.46992 -0.513486 5.11588e-20)
(0.959349 -0.526912 -4.29609e-19)
(-0.221835 -0.786313 -2.05641e-20)
(0.103783 0.741217 1.05342e-18)
(1.0974 0.354624 3.42159e-19)
(1.80212 -0.585109 -4.94995e-19)
(1.62776 -0.532012 -1.87603e-19)
(0.735276 -0.672171 1.33961e-18)
(-0.693459 0.440116 0)
(1.80154 0.0170312 2.38719e-19)
(2.02791 -0.637372 -2.18692e-19)
(2.10087 -0.503987 -4.90723e-19)
(2.07292 -0.363203 9.55226e-20)
(0.188877 0.263614 2.13328e-20)
(2.29904 -0.366862 7.04512e-20)
(2.14222 -0.6526 4.11673e-19)
(2.36053 -0.577292 7.25057e-20)
(1.8725 -0.168724 -2.07387e-19)
(1.27497 0.346477 1.52467e-20)
(2.67463 -0.523842 3.59924e-19)
(2.0563 -0.578964 0)
(2.32495 -0.327039 -4.99352e-19)
(1.60192 -0.00571128 2.24237e-20)
(1.86035 0.041543 3.21205e-19)
(2.52983 -0.567297 -2.44898e-19)
(1.55103 -0.420757 6.00497e-20)
(2.01184 -0.228868 -4.70427e-22)
(1.55341 -0.022425 1.29849e-19)
(1.98016 -0.0974571 1.67601e-20)
(1.90218 -0.442891 1.28219e-33)
(0.842227 -0.246913 -6.95473e-21)
(1.18688 -0.0303595 9.18304e-20)
(1.05262 -0.0156052 -5.12967e-21)
(1.06507 -0.123557 -4.3456e-20)
(0.326044 -0.0400521 1.03895e-19)
(-0.274167 0.0266543 -2.66501e-20)
(2.41597 0.250804 -8.57662e-19)
(2.66721 0.0281413 -1.16973e-18)
(2.45291 0.0830789 8.51491e-19)
(2.7893 -0.143298 6.93016e-20)
(2.04543 0.0670666 -3.15531e-20)
(2.11253 0.187589 7.00911e-20)
(2.49018 -0.0200106 -4.11483e-20)
(2.25179 0.040095 -1.47582e-19)
(2.5461 -0.177707 -2.26822e-19)
(2.35513 -0.157575 -7.28023e-21)
(2.11537 0.0797259 7.87367e-20)
(2.26656 -0.00929153 9.85895e-20)
(2.22259 -0.0318006 -1.3519e-19)
(2.29961 -0.10953 4.82094e-20)
(2.3034 -0.157128 2.75655e-20)
(2.06073 0.0175209 1.16163e-19)
(2.035 -0.0209109 1.41811e-19)
(2.13809 -0.0371291 -1.83242e-20)
(2.08331 -0.0760279 -2.13559e-20)
(2.188 -0.0943494 2.28801e-20)
(1.46414 -0.00634022 1.77591e-19)
(1.39928 -0.00701482 -1.18351e-20)
(1.49183 -0.0196807 2.14282e-20)
(1.38948 -0.0154168 -2.01041e-20)
(1.50186 -0.0350096 1.81075e-20)
(1.58528 0.826393 1.1445e-18)
(1.53587 0.926967 -3.68422e-19)
(1.53297 1.06119 -1.38733e-18)
(1.4654 1.11271 7.49904e-19)
(0.900282 0.802793 -1.76719e-19)
(1.86699 0.798854 -5.94709e-19)
(1.83599 0.876251 -3.0535e-18)
(1.84512 0.982964 -1.16953e-18)
(1.75681 0.998006 -4.24808e-19)
(1.07719 0.705802 -6.8267e-19)
(2.18462 0.666077 7.5285e-19)
(2.16109 0.738129 2.08135e-19)
(2.13119 0.830849 -2.27566e-18)
(2.00249 0.82277 -6.51074e-19)
(1.19302 0.553765 5.05636e-19)
(2.3494 0.558403 2.29018e-18)
(2.33719 0.609546 1.698e-18)
(2.33961 0.663216 -1.99758e-18)
(2.12661 0.623825 -1.50389e-18)
(1.17723 0.368699 -2.92238e-19)
(2.50369 0.398643 1.13647e-18)
(2.51843 0.422567 -8.48979e-19)
(2.41421 0.450962 5.86132e-19)
(2.08956 0.399583 4.93418e-19)
(0.994258 0.164583 -4.22925e-19)
(0.566459 0.480207 -6.41058e-19)
(0.475604 0.517178 -4.78867e-19)
(0.358798 0.553923 5.23354e-20)
(0.224194 0.559207 -3.16878e-21)
(0.0556462 0.403796 9.0886e-20)
(0.679253 0.643556 1.17837e-19)
(0.615885 0.701688 -3.00879e-19)
(0.528117 0.768837 1.91541e-19)
(0.403007 0.827079 -8.86584e-20)
(0.176961 0.631573 1.25169e-19)
(0.76962 0.843616 1.37382e-19)
(0.697173 0.92589 4.80443e-19)
(0.643986 1.02291 1.05426e-19)
(0.56287 1.06074 -3.12592e-19)
(0.310324 0.781632 2.60822e-19)
(1.05787 0.906455 2.26785e-19)
(1.01048 0.98743 -6.91576e-19)
(0.958723 1.08495 -1.9299e-18)
(0.876908 1.15403 7.78649e-19)
(0.518166 0.859671 -1.72008e-19)
(1.11205 0.960029 -1.07449e-19)
(1.15195 1.08222 -1.85781e-19)
(1.18205 1.19547 -3.70137e-19)
(1.13099 1.21452 -4.17875e-19)
(0.696762 0.867893 -6.68733e-21)
(1.00819 0.0604221 -1.0535e-19)
(0.988629 0.026448 -3.98825e-20)
(1.04196 0.128058 -1.5797e-21)
(0.943389 0.144017 -3.11628e-19)
(0.891867 0.293386 3.32698e-19)
(0.995187 0.0595043 6.68181e-20)
(1.00233 0.0214041 1.42086e-19)
(1.0337 0.137329 1.40187e-19)
(0.982195 0.171418 4.50393e-20)
(0.932883 0.376221 -1.71515e-20)
(0.998983 0.058992 9.1549e-20)
(0.989981 0.0132418 -5.45492e-21)
(1.07952 0.155199 -6.3453e-21)
(0.940316 0.170614 1.62629e-19)
(1.14439 0.520301 -5.25375e-19)
(0.99218 0.0595592 -4.0634e-22)
(1.01149 0.00137494 -1.97025e-19)
(1.07813 0.17223 -7.12941e-20)
(1.03396 0.178507 -4.11213e-19)
(1.15426 0.571735 9.45638e-20)
(0.98808 0.052204 -1.59447e-20)
(1.02138 0.00106675 5.72763e-20)
(1.12889 0.175321 3.36424e-20)
(1.00343 0.207967 4.90344e-19)
(1.38778 0.703388 -4.94837e-19)
(0.94952 0.0536742 -9.47127e-21)
(1.10231 -0.0294725 1.17642e-19)
(1.10851 0.208339 -8.26016e-20)
(1.24758 0.132037 9.46377e-19)
(1.29707 0.746755 -3.72717e-19)
(0.898556 0.0204238 -1.66359e-21)
(1.20181 -0.0346588 -1.03291e-19)
(1.03118 0.135934 4.93523e-21)
(1.35056 0.142303 -2.84344e-19)
(1.22058 0.510383 -5.117e-20)
(0.954032 0.00645467 -4.48573e-21)
(1.16677 -0.0466803 1.48862e-35)
(1.04789 0.121226 -3.01214e-20)
(1.25571 0.111787 9.12742e-20)
(1.36921 0.338042 1.85156e-19)
(1.07857 -0.0465862 4.40215e-21)
(0.990755 -0.0460767 -2.93893e-20)
(1.11215 0.0795051 1.85637e-20)
(1.17657 0.0528838 2.88824e-20)
(1.56476 0.186469 -2.85001e-19)
(0.994275 -0.0241484 -4.17716e-20)
(0.750289 -0.0200842 -5.03902e-21)
(0.908571 0.0140057 2.2542e-20)
(0.902989 -0.00790081 -1.76332e-20)
(1.15415 0.0427103 -6.51326e-20)
(1.84009 0.600686 3.01964e-19)
(1.9112 0.642394 7.54766e-19)
(2.20019 0.491752 -1.08702e-18)
(2.23584 0.481826 -3.61759e-20)
(2.48196 0.272939 4.98711e-19)
(1.77499 0.381651 9.80996e-20)
(1.74909 0.425784 1.06751e-18)
(2.06013 0.30799 1.389e-19)
(1.95486 0.327537 -9.73946e-19)
(2.32 0.143231 -2.89592e-19)
(1.73591 0.282973 -2.53502e-19)
(1.80891 0.261437 -1.62989e-19)
(1.97397 0.208013 1.61255e-19)
(1.98145 0.180596 -3.06969e-19)
(2.16231 0.0972005 2.76001e-19)
(1.73044 0.14368 3.89034e-19)
(1.83369 0.118122 -6.2337e-21)
(1.86542 0.093553 2.34174e-19)
(1.96005 0.0697117 2.04481e-19)
(1.96477 0.0359641 -1.92839e-19)
(1.29988 0.0385573 -4.66831e-20)
(1.35924 0.0287541 2.53992e-19)
(1.36758 0.022354 1.15604e-19)
(1.42135 0.011009 -2.31324e-19)
(1.39368 0.00511867 1.95976e-22)
(1.13277 -0.0259899 4.82229e-20)
(2.1661 -0.0535497 -3.9874e-19)
(2.40615 -0.0439251 1.12623e-18)
(2.38451 -0.00167366 5.02234e-19)
(2.2549 0.0300459 -3.39765e-19)
(0.679514 0.0872098 8.02754e-20)
(1.93446 0.0706053 -4.06677e-19)
(2.41689 0.0723147 -5.33366e-19)
(2.49352 0.0842665 6.38799e-19)
(2.20917 0.0743252 -3.82571e-19)
(0.176229 0.0637365 -3.4813e-20)
(1.2678 0.127344 4.09568e-19)
(2.0564 0.144685 6.06126e-20)
(2.46005 0.136654 2.99687e-19)
(2.69013 0.13617 1.15562e-19)
(-0.0693211 -0.0413701 1.90826e-19)
(0.406059 0.0471598 1.84287e-19)
(1.23305 0.119488 -3.73034e-19)
(1.74875 0.148209 1.7287e-20)
(2.35556 0.179425 -5.38288e-20)
(-0.119455 -0.0970853 1.35472e-19)
(-0.0558818 -0.0805901 -1.44221e-19)
(0.374715 -0.00362796 -2.18413e-20)
(0.866488 0.0263022 3.64805e-20)
(1.25988 0.0704177 -4.94815e-20)
(-0.0822582 -0.0768611 4.62743e-21)
(-0.155946 -0.112388 8.77897e-20)
(-0.0790187 -0.117606 1.29085e-19)
(0.118021 -0.105272 -1.33629e-19)
(0.436148 -0.0663928 8.9788e-21)
(-0.0312888 -0.039569 1.28317e-21)
(-0.0976772 -0.131791 -7.98311e-20)
(-0.120099 -0.227035 -7.00992e-20)
(-0.0893231 -0.295576 2.72942e-20)
(-0.00378579 -0.304331 1.58749e-20)
(-0.0228645 -0.0632449 8.98283e-21)
(-0.0563625 -0.231442 1.82607e-19)
(-0.064452 -0.368341 -8.73627e-20)
(-0.0597103 -0.447415 -2.56433e-19)
(-0.0458174 -0.48312 3.38362e-20)
(-0.0261357 -0.114327 -1.19096e-20)
(-0.0688922 -0.320147 -5.7526e-20)
(-0.103218 -0.430758 1.1457e-19)
(-0.135942 -0.457207 3.22254e-20)
(-0.154712 -0.437982 -2.84978e-20)
(-0.0196173 -0.0694074 7.96884e-22)
(-0.10442 -0.206716 -1.07538e-22)
(-0.197454 -0.246448 -3.49768e-21)
(-0.283551 -0.243888 3.43925e-20)
(-0.348997 -0.24888 9.07449e-20)
(1.59236 0.394484 -2.03026e-20)
(1.63923 0.310479 5.92202e-19)
(1.53894 0.159473 -5.42583e-20)
(0.683119 0.126759 -3.75716e-21)
(0.401532 0.00850962 -2.05166e-21)
(1.12956 0.136175 9.05494e-21)
(1.52416 0.300388 -2.52708e-19)
(1.56178 0.283959 -3.98735e-20)
(0.540137 0.261178 5.49405e-21)
(0.353938 0.037395 4.57777e-20)
(0.337795 -0.117822 -1.19232e-19)
(1.2447 0.224853 -4.19962e-19)
(1.40559 0.406395 1.99976e-20)
(0.267299 0.401303 -4.12693e-19)
(0.396319 0.0525518 1.16611e-20)
(-0.261998 -0.217732 1.54621e-19)
(0.974147 0.0768438 9.14446e-19)
(1.19305 0.537308 -1.6202e-19)
(-0.0183209 0.506614 -4.55374e-21)
(0.526262 0.00308295 -2.10419e-19)
(-0.59482 -0.34098 7.42304e-20)
(0.82435 -0.151012 1.46233e-19)
(0.999166 0.691846 2.56533e-19)
(-0.200776 0.56823 9.96695e-21)
(0.705018 -0.103273 -6.50741e-19)
(0.681875 0.180586 -2.41864e-20)
(-0.147722 -0.074283 0)
(-0.151023 -0.111141 -2.04308e-20)
(-0.0811757 -0.0643848 5.79372e-20)
(0.164486 -0.0261815 -8.30187e-21)
(2.08887 0.405546 0)
(1.53457 0.34196 0)
(1.23235 0.0929204 3.54948e-19)
(0.622413 -0.032854 9.31375e-20)
(0.481862 -0.0444588 1.08049e-21)
(0.71771 1.48612e-05 -1.14881e-19)
(0.774306 -0.00305667 1.69421e-19)
(0.9516 -0.0191112 -1.75413e-20)
(1.09572 0.0107339 3.03837e-19)
(1.4056 0.0479291 1.93459e-19)
(1.63863 0.0192076 1.08468e-19)
(1.76849 0.0707023 2.09724e-19)
(1.97208 0.0179078 -4.93256e-20)
(2.60649 0.157864 -5.52451e-20)
(2.20419 0.0739981 3.32983e-20)
(0.896153 -0.463412 -1.93134e-20)
(0.881749 -0.55022 -1.4442e-19)
(0.869937 -0.643818 -1.13913e-19)
(0.794935 -0.708429 7.08257e-20)
(0.477453 -0.551132 1.1566e-19)
(0.793049 -0.367055 1.29705e-19)
(0.735014 -0.429304 2.62784e-19)
(0.658763 -0.496896 -3.75808e-20)
(0.545052 -0.553764 1.19387e-19)
(0.293024 -0.435886 4.15443e-20)
(0.638541 -0.226284 -1.69627e-19)
(0.548659 -0.263104 -4.31975e-20)
(0.447371 -0.310247 1.34436e-19)
(0.329851 -0.35233 -9.76689e-21)
(0.143501 -0.278511 -1.01309e-19)
(0.541817 0.00644628 -4.47884e-19)
(0.455575 -0.0066876 -3.71038e-19)
(0.346105 -0.0290422 2.86921e-19)
(0.219955 -0.0595745 1.86251e-19)
(0.0578753 -0.0653279 1.37759e-20)
(0.521105 0.211464 -1.85642e-19)
(0.435915 0.215865 -1.82868e-19)
(0.320239 0.218668 -8.35642e-20)
(0.183512 0.224968 1.70148e-20)
(0.0263879 0.170931 1.23222e-20)
(1.97658 -0.0433543 7.42742e-19)
(2.25437 -0.107442 2.64794e-19)
(2.32072 -0.190544 -6.97239e-19)
(2.16656 -0.217261 -1.41567e-18)
(1.28866 -0.185684 1.05188e-19)
(1.9768 -0.121608 1.26657e-18)
(2.05262 -0.230761 1.66515e-18)
(2.06838 -0.350122 1.35791e-19)
(1.98777 -0.407388 2.32396e-19)
(1.26279 -0.351912 -1.52829e-19)
(1.67592 -0.28205 -3.31481e-18)
(1.74407 -0.395982 3.95657e-19)
(1.7902 -0.516139 1.02715e-18)
(1.72561 -0.587421 -4.00481e-19)
(1.11092 -0.49215 6.22366e-19)
(1.48159 -0.399134 7.81933e-19)
(1.49553 -0.493427 -2.05181e-18)
(1.47613 -0.606522 -2.39981e-18)
(1.40439 -0.690154 7.39543e-19)
(0.899061 -0.563467 4.82192e-19)
(1.19212 -0.455255 1.64948e-19)
(1.14248 -0.545072 2.19305e-19)
(1.13217 -0.662673 -3.56295e-19)
(1.07602 -0.744397 -4.31e-19)
(0.675873 -0.58591 -4.07151e-21)
(1.0451 0.0584001 8.11564e-21)
(0.926548 0.0497913 -6.88414e-21)
(1.12006 0.0823128 -8.1882e-21)
(0.802159 0.0118577 -1.81775e-19)
(1.10077 -0.201173 -5.87139e-21)
(1.06246 0.0644341 -2.66684e-21)
(0.916545 0.0449408 5.73333e-20)
(1.11441 0.0991167 -5.81358e-20)
(0.886048 0.0572675 9.25239e-20)
(0.983671 -0.0850308 -2.75007e-20)
(1.06556 0.0638473 -6.63368e-20)
(0.921898 0.0399738 6.01349e-22)
(1.09777 0.0997817 -2.36575e-20)
(0.882608 0.0796507 1.6181e-21)
(0.956007 -0.0243159 -1.40565e-19)
(1.04799 0.0636653 8.04487e-20)
(0.953983 0.0352253 3.56572e-21)
(1.06086 0.106417 3.7871e-20)
(0.921055 0.104153 4.0496e-20)
(0.861024 0.0874184 1.27924e-19)
(1.02259 0.061077 2.03269e-20)
(0.983962 0.0329817 -3.26805e-20)
(1.0333 0.114153 5.07884e-20)
(0.948233 0.129651 8.53251e-20)
(0.836126 0.187973 -1.41777e-19)
(0.878132 0.0335932 0)
(0.721339 0.0292945 1.06436e-20)
(0.597966 0.0234073 2.5591e-21)
(0.34018 -0.00719775 3.72123e-20)
(0.651632 -0.0518252 -1.04122e-19)
(1.00795 0.0747886 -6.57397e-20)
(0.950876 0.0691076 -2.34929e-20)
(1.02106 0.0828837 -2.60042e-20)
(0.80952 0.0058419 -9.07376e-20)
(1.00286 -0.18537 -1.09652e-19)
(0.903067 -0.062047 -2.46863e-20)
(0.985565 -0.031459 4.39658e-19)
(1.07307 0.0365401 2.79094e-19)
(0.951589 0.0524919 2.26046e-20)
(0.734469 0.0275045 0)
(1.27244 -0.305784 2.4525e-19)
(1.38049 -0.270942 1.30629e-18)
(1.54942 -0.15438 -1.50496e-18)
(1.64797 -0.0229103 -4.66635e-19)
(1.53792 0.0258798 3.39622e-19)
)
;

boundaryField
{
    left
    {
        type            fixedValue;
        value           uniform (1 0 0);
    }
    right
    {
        type            zeroGradient;
    }
    down
    {
        type            noSlip;
    }
    up
    {
        type            noSlip;
    }
    cylinder
    {
        type            noSlip;
    }
    defaultFaces
    {
        type            empty;
    }
}


// ************************************************************************* //
