/*--------------------------------*- C++ -*----------------------------------*\
  =========                 |
  \\      /  F ield         | OpenFOAM: The Open Source CFD Toolbox
   \\    /   O peration     | Website:  https://openfoam.org
    \\  /    A nd           | Version:  13
     \\/     M anipulation  |
\*---------------------------------------------------------------------------*/
FoamFile
{
    format      ascii;
    class       volVectorField;
    location    "6";
    object      U;
}
// * * * * * * * * * * * * * * * * * * * * * * * * * * * * * * * * * * * * * //

dimensions      [0 1 -1 0 0 0 0];

internalField   nonuniform List<vector> 
440
(
(-0.0931813 0.0707415 -6.35127e-20)
(-0.123954 0.13167 -5.00086e-20)
(-0.0565386 0.121417 1.92376e-20)
(0.305505 0.184771 4.35835e-19)
(0.113325 0.383798 4.9556e-21)
(-0.080995 0.043956 1.8478e-20)
(0.00356726 0.035767 -9.28951e-20)
(0.378659 -0.000375945 -6.51484e-20)
(0.909856 -0.0116935 2.59412e-20)
(1.21575 0.0262695 -1.47436e-20)
(-0.0390683 0.0165761 4.31095e-20)
(0.354647 -0.0139691 5.7168e-19)
(1.05372 0.0120604 -2.93181e-19)
(1.61971 0.0557458 -8.92606e-19)
(2.2077 0.0910517 2.94087e-19)
(0.140437 -0.0338174 -1.62886e-19)
(1.01067 0.014961 -4.53947e-19)
(1.7992 0.107226 1.3799e-18)
(2.31063 0.168181 1.52395e-18)
(2.46994 0.209311 -4.13299e-19)
(0.467211 -0.00952574 -2.7202e-19)
(1.61504 0.195699 -5.5176e-19)
(2.22281 0.30231 1.65571e-18)
(2.39035 0.336557 1.79433e-18)
(2.45186 0.312655 6.07954e-19)
(0.0334699 -0.395681 -1.59417e-19)
(-0.0100823 -0.590047 9.42273e-20)
(-0.0836206 -0.581365 -2.07596e-19)
(-0.155922 -0.525608 6.01312e-20)
(-0.207017 -0.458721 5.13777e-19)
(0.0483145 -0.27858 -1.80144e-20)
(-0.0324868 -0.39925 -3.8126e-20)
(-0.1384 -0.387695 -7.76169e-20)
(-0.234383 -0.345764 -6.12428e-20)
(-0.30249 -0.291466 9.87588e-20)
(0.0211985 -0.108022 1.81169e-19)
(-0.0610678 -0.15483 5.95202e-20)
(-0.145567 -0.169555 9.61409e-20)
(-0.218836 -0.172588 -8.09111e-20)
(-0.271385 -0.153837 2.91537e-21)
(0.00227628 -0.023489 1.30112e-20)
(-0.0610019 -0.0249605 -1.64044e-20)
(-0.12887 -0.0252248 4.31169e-20)
(-0.196911 -0.0367534 -8.54845e-20)
(-0.261816 -0.0241899 5.11296e-20)
(-0.0588361 0.0465641 9.08933e-21)
(-0.15904 0.084186 3.88169e-21)
(-0.248825 0.1256 -4.45184e-20)
(-0.25724 0.167797 1.8911e-20)
(-0.293208 0.226401 -1.34173e-19)
(-0.286317 -0.0593358 1.25022e-18)
(-0.0141244 0.841513 -3.36065e-19)
(-0.315035 0.57879 1.75478e-19)
(0.884936 -0.450559 -7.18719e-19)
(1.16412 -0.509095 2.49638e-20)
(-0.479359 -0.0301409 -1.42515e-18)
(-0.501214 0.802407 1.14747e-19)
(0.113113 0.372633 3.67239e-20)
(1.33548 -0.626059 3.85667e-19)
(1.42188 -0.553727 -5.29791e-21)
(-0.398437 -0.0685987 -9.10933e-19)
(-0.571686 0.639299 -1.1901e-18)
(0.655593 0.0755324 -1.22463e-20)
(1.78485 -0.749073 -4.76272e-20)
(1.70003 -0.568438 3.05146e-20)
(-0.403988 -0.0151297 2.23636e-19)
(-0.170313 0.50521 1.43777e-19)
(1.16192 -0.184298 -5.37763e-20)
(2.01688 -0.8509 1.32903e-19)
(1.84846 -0.570719 1.28599e-19)
(-0.177893 -0.170522 -1.4303e-19)
(0.469952 0.226812 7.84834e-19)
(1.62701 -0.37777 0)
(2.15436 -0.900263 -2.69034e-19)
(1.85199 -0.560193 1.79927e-20)
(1.34742 -0.0659326 -2.95097e-19)
(1.49179 0.0314051 -1.66539e-19)
(2.16998 -0.489143 8.21666e-22)
(2.35293 -0.860811 -1.57262e-19)
(1.83482 -0.5155 -3.5859e-20)
(1.9947 -0.039548 7.06805e-21)
(2.27064 -0.0238175 4.38793e-19)
(2.64831 -0.557314 1.91075e-21)
(2.41621 -0.75931 4.84905e-19)
(1.6415 -0.401155 0)
(2.05879 0.00678166 -9.88372e-20)
(2.43336 -0.168136 -3.85978e-21)
(2.49383 -0.530452 4.65645e-19)
(1.94254 -0.503386 -1.40982e-19)
(1.2225 -0.232849 -6.55841e-21)
(2.16035 -0.0622898 6.65853e-20)
(2.34943 -0.20021 1.76117e-19)
(2.03728 -0.423467 1.55397e-20)
(1.35951 -0.335488 3.5476e-35)
(0.651792 -0.110184 5.08737e-20)
(1.5732 -0.025289 9.36713e-20)
(1.4589 -0.124701 5.66419e-20)
(0.615467 -0.0668969 -1.28532e-19)
(0.0587769 0.041152 2.06405e-20)
(-0.160955 0.0214839 1.05914e-20)
(2.36654 0.307168 -7.43671e-19)
(2.56903 0.130908 -9.52422e-19)
(2.44759 0.176812 5.3626e-19)
(2.59607 0.019545 1.0641e-19)
(1.91913 0.1825 -3.01437e-20)
(2.12533 0.208053 7.11911e-20)
(2.34965 0.129136 -3.72238e-20)
(2.26183 0.0664628 -1.27955e-19)
(2.41679 0.000442916 -2.2741e-19)
(2.31229 -0.116738 -4.9529e-21)
(2.01714 0.109304 7.81391e-20)
(2.09103 0.121552 7.48924e-20)
(2.15329 0.00716843 -7.48571e-20)
(2.15436 0.0357984 2.81267e-20)
(2.25956 -0.0770197 -2.28576e-20)
(1.99162 0.051047 1.14877e-19)
(2.01953 0.0709021 1.77764e-19)
(2.13567 0.00096658 -1.99145e-20)
(2.12371 0.0144035 -1.00602e-19)
(2.23617 -0.0421711 3.33874e-20)
(1.55309 -0.0159912 1.89441e-19)
(1.57178 -0.00479689 -1.13074e-20)
(1.61606 -0.0259501 1.7764e-20)
(1.60363 -0.0132997 -4.37477e-20)
(1.65629 -0.0368878 -3.08181e-20)
(1.55928 0.846448 1.04775e-18)
(1.51717 0.944144 -3.22143e-19)
(1.51615 1.07214 -1.2678e-18)
(1.44748 1.11637 7.00923e-19)
(0.888995 0.799809 -1.70666e-19)
(1.83485 0.806288 -5.4514e-19)
(1.80851 0.885999 -2.86053e-18)
(1.81351 0.992448 -1.11051e-18)
(1.72102 0.998927 -3.94412e-19)
(1.04442 0.687248 -6.30757e-19)
(2.12639 0.696677 6.97396e-19)
(2.10265 0.762144 1.87656e-19)
(2.08168 0.845153 -2.1702e-18)
(1.94245 0.827907 -5.92844e-19)
(1.12779 0.532414 4.27086e-19)
(2.2818 0.592826 2.11575e-18)
(2.28098 0.643097 1.54595e-18)
(2.2661 0.684163 -1.78985e-18)
(2.02727 0.633034 -1.32549e-18)
(1.07848 0.344831 -2.34094e-19)
(2.43223 0.448866 1.00001e-18)
(2.41879 0.469084 -7.2792e-19)
(2.31319 0.48774 5.20267e-19)
(1.9495 0.416127 3.95528e-19)
(0.851772 0.139244 -3.20125e-19)
(0.576849 0.420065 -7.21284e-19)
(0.483692 0.453965 -5.69246e-19)
(0.362576 0.486911 6.99964e-20)
(0.224344 0.486603 -1.88898e-20)
(0.0540068 0.343677 6.97688e-20)
(0.69124 0.581541 5.09544e-20)
(0.627879 0.637369 -3.40757e-19)
(0.535232 0.701404 1.73501e-19)
(0.402538 0.758599 -7.95993e-20)
(0.171449 0.581804 1.14095e-19)
(0.767424 0.796458 1.90108e-19)
(0.698935 0.87918 4.09366e-19)
(0.644327 0.976141 6.26421e-20)
(0.55827 1.02027 -2.77565e-19)
(0.304414 0.757601 2.26868e-19)
(1.0403 0.864392 2.10216e-19)
(0.990574 0.951781 -6.39334e-19)
(0.940889 1.05569 -1.81841e-18)
(0.859099 1.12656 7.40099e-19)
(0.505978 0.839715 -1.6969e-19)
(1.14542 0.91656 -1.21034e-19)
(1.16395 1.03598 -1.9638e-19)
(1.18077 1.15258 -3.34978e-19)
(1.12553 1.18636 -3.88423e-19)
(0.691183 0.855883 -6.31555e-21)
(0.989067 0.0512661 -8.84558e-20)
(1.01355 0.00664009 -3.20766e-20)
(1.03881 0.132288 -1.62043e-21)
(0.932519 0.109977 -2.14104e-19)
(0.904377 0.248518 3.05347e-19)
(0.974496 0.0490994 5.4803e-20)
(1.03627 -0.000914688 1.19552e-19)
(1.02287 0.150016 1.1133e-19)
(0.965459 0.131293 2.48969e-20)
(0.929193 0.322235 2.07443e-20)
(0.980878 0.0475636 7.29281e-20)
(1.02553 -0.00983586 -4.61561e-21)
(1.06203 0.168588 -3.7372e-21)
(0.913844 0.135895 1.4363e-19)
(1.12233 0.460524 -4.32812e-19)
(0.978022 0.046138 -3.7617e-22)
(1.04639 -0.021777 -1.75884e-19)
(1.04629 0.200916 -6.04749e-20)
(0.988889 0.135626 -3.72011e-19)
(1.18151 0.509172 8.12329e-20)
(0.982488 0.0370613 -1.15857e-20)
(1.04721 -0.0164346 5.07956e-20)
(1.07517 0.203278 2.87068e-20)
(0.995556 0.150822 4.75198e-19)
(1.4058 0.636997 -4.40044e-19)
(0.960942 0.0351984 -3.72626e-21)
(1.10953 -0.038009 9.9552e-20)
(1.02827 0.236805 -6.4143e-20)
(1.23782 0.0799233 9.35048e-19)
(1.33513 0.680528 -3.65798e-19)
(0.938173 0.00103968 -1.53009e-21)
(1.17495 -0.0215869 -8.48643e-20)
(0.922244 0.170564 5.00412e-21)
(1.35951 0.0497829 -3.68383e-19)
(1.3761 0.454193 -8.65515e-21)
(0.977919 -0.0176757 1.44922e-21)
(1.11682 -0.000158142 1.3435e-35)
(1.00652 0.134561 -6.25193e-21)
(1.3608 -0.0379809 1.19534e-19)
(1.41454 0.299009 1.56502e-19)
(1.05363 -0.0559148 4.14179e-21)
(0.950469 -0.00241027 -2.73344e-20)
(1.21537 0.033229 2.14036e-20)
(1.20867 -0.0499352 3.04393e-20)
(1.30113 0.222179 -2.22888e-19)
(0.959192 -0.0227162 -4.00098e-20)
(0.765093 -0.0213614 -3.39272e-21)
(0.990821 -0.00575441 2.50606e-20)
(0.7287 -0.0166333 -1.3324e-20)
(0.939927 0.0900632 -4.84239e-20)
(1.78312 0.646092 2.91621e-19)
(1.89142 0.656339 7.05405e-19)
(2.13203 0.544106 -9.92076e-19)
(2.19842 0.512221 -2.29747e-21)
(2.3971 0.337359 4.34396e-19)
(1.78126 0.458583 7.91073e-20)
(1.81048 0.449244 9.77927e-19)
(2.00682 0.403081 1.12058e-19)
(1.98936 0.350932 -8.52678e-19)
(2.19954 0.262915 -2.68847e-19)
(1.67601 0.360633 -2.20252e-19)
(1.7196 0.308145 -1.42368e-19)
(1.83305 0.313745 2.14141e-19)
(1.86652 0.217539 -2.74736e-19)
(1.97994 0.218411 2.55592e-19)
(1.54153 0.251788 3.34583e-19)
(1.62155 0.19218 5.50822e-22)
(1.71753 0.196458 2.10089e-19)
(1.8113 0.116119 1.83375e-19)
(1.88489 0.133421 -1.86922e-19)
(1.24038 0.0657887 -4.34961e-20)
(1.31891 0.0394579 2.25035e-19)
(1.40811 0.0299261 9.92744e-20)
(1.46054 0.00528515 -2.21455e-19)
(1.51443 0.00627109 1.58716e-22)
(1.32357 -0.0364446 6.78351e-20)
(2.41787 -0.0401362 -5.21567e-19)
(2.64618 -0.0343845 1.39263e-18)
(2.62543 0.0124963 6.21936e-19)
(2.46417 0.0381539 -4.27265e-19)
(0.833858 0.0975094 1.23092e-19)
(2.18934 0.097503 -5.15674e-19)
(2.65592 0.0990524 -7.0647e-19)
(2.6954 0.112091 8.86583e-19)
(2.43436 0.101224 -5.91856e-19)
(0.243045 0.0858129 -3.32522e-20)
(1.51194 0.167593 5.47158e-19)
(2.31942 0.196129 8.32696e-20)
(2.70618 0.190567 5.94147e-19)
(2.85443 0.184751 2.7288e-19)
(-0.0545229 -0.0280495 2.36242e-19)
(0.567327 0.0973212 2.40049e-19)
(1.47608 0.183523 -5.36423e-19)
(2.01958 0.223837 3.12749e-20)
(2.6344 0.251379 9.06662e-20)
(-0.120187 -0.0945122 1.74024e-19)
(0.00449996 -0.0446704 -1.99691e-19)
(0.55008 0.0612153 -3.12101e-20)
(1.06552 0.101879 5.34214e-20)
(1.59085 0.195858 -3.32555e-20)
(-0.088286 -0.0901935 -4.62192e-21)
(-0.144377 -0.133702 1.36282e-19)
(0.00305198 -0.132462 1.18906e-19)
(0.220397 -0.109174 -7.0058e-20)
(0.701638 -0.0122665 6.59274e-21)
(-0.0519876 -0.0792861 -1.06651e-20)
(-0.109489 -0.209372 -1.15525e-19)
(-0.089606 -0.286646 -6.00296e-20)
(-0.0188228 -0.307876 1.76786e-20)
(0.146062 -0.227784 1.74299e-20)
(-0.0470922 -0.142231 -2.29617e-21)
(-0.0625596 -0.373475 2.67408e-19)
(-0.0316214 -0.481939 -8.75795e-20)
(0.0297061 -0.495298 3.97867e-20)
(0.0760225 -0.445453 -8.25417e-20)
(-0.042974 -0.287163 -1.0222e-20)
(-0.0287301 -0.593175 -5.41155e-21)
(0.00309633 -0.679113 -1.55581e-19)
(0.0448513 -0.646224 -3.59134e-19)
(0.0786559 -0.564449 4.87906e-20)
(-0.00938997 -0.40455 -2.54259e-21)
(-0.00967515 -0.675665 2.36734e-20)
(-0.0243733 -0.689135 -1.33364e-20)
(-0.0351077 -0.616393 -2.85914e-20)
(-0.0450931 -0.523676 1.44896e-19)
(1.6643 0.554845 -7.7245e-20)
(1.42083 0.348961 6.31381e-19)
(0.796306 0.152871 -6.92763e-20)
(0.13301 0.00756179 2.71179e-20)
(0.534765 -0.103121 -7.13404e-21)
(1.40606 0.445946 8.12157e-22)
(1.2247 0.457435 5.84907e-20)
(0.532078 0.299 9.16235e-20)
(-0.161035 0.0167131 -7.03793e-21)
(0.465421 -0.184431 6.04718e-20)
(1.03795 0.25327 3.81499e-20)
(1.05755 0.54491 5.31925e-19)
(0.202743 0.445983 5.53879e-20)
(-0.189882 0.00578374 -5.06852e-19)
(0.518568 -0.287842 -1.52693e-20)
(0.572573 0.0869489 8.22329e-20)
(0.846871 0.651737 -1.52603e-18)
(-0.18741 0.572758 -2.79e-19)
(0.100955 -0.0869636 3.39533e-21)
(0.673685 -0.378758 -2.3337e-20)
(0.0639956 0.0323646 -5.55051e-20)
(0.50636 0.779845 -1.66238e-20)
(-0.438649 0.637187 2.20347e-19)
(0.507556 -0.252807 -3.68306e-20)
(0.915107 -0.448731 -2.71198e-21)
(0.456629 0.169923 -4.62011e-20)
(-0.28246 -0.0957513 0)
(-0.18979 -0.113331 -4.43495e-20)
(-0.043231 -0.0580429 6.21997e-20)
(0.246398 -0.0231607 1.29701e-20)
(2.09402 0.542045 0)
(1.47808 0.331428 0)
(0.899518 0.0337924 3.71808e-19)
(0.45484 -0.0585088 2.95698e-20)
(0.672704 -0.0706039 -4.05397e-21)
(0.802962 0.00256341 -1.45031e-19)
(0.873376 -0.00364997 2.70766e-19)
(1.05379 -0.000264232 -2.51621e-20)
(1.1126 0.00990001 3.28813e-19)
(1.49295 0.0896735 2.21152e-19)
(1.79727 0.0278922 1.38243e-19)
(1.97332 0.0826694 3.47716e-19)
(2.1204 0.0629677 -2.90527e-19)
(2.72984 0.206463 6.28067e-21)
(2.42758 0.158051 1.19869e-19)
(0.972247 -0.526646 2.58705e-20)
(0.964451 -0.624267 -2.08524e-19)
(0.959583 -0.728403 -1.8597e-19)
(0.890376 -0.803665 1.11955e-19)
(0.548 -0.639977 1.45097e-19)
(0.863198 -0.435573 1.10038e-19)
(0.806646 -0.506063 1.50661e-19)
(0.731289 -0.582866 -1.07411e-19)
(0.618105 -0.650527 1.504e-19)
(0.344149 -0.52177 3.84619e-20)
(0.682105 -0.296678 -1.24857e-19)
(0.592332 -0.341965 -5.96601e-20)
(0.492577 -0.399928 1.3734e-20)
(0.375968 -0.451526 -4.74641e-20)
(0.175741 -0.361166 -1.39431e-19)
(0.574679 -0.0643104 -4.49848e-19)
(0.48988 -0.0849076 -3.62389e-19)
(0.380368 -0.115608 2.93797e-19)
(0.251733 -0.153332 1.53959e-19)
(0.0779504 -0.141757 1.35266e-20)
(0.542877 0.139904 -1.46186e-19)
(0.457559 0.138284 -1.64193e-19)
(0.339281 0.13402 -4.45241e-20)
(0.198005 0.136361 5.48056e-20)
(0.0342232 0.102723 1.54095e-20)
(2.18565 -0.0378764 9.24242e-19)
(2.45532 -0.109088 3.20629e-19)
(2.54058 -0.20183 -8.43553e-19)
(2.40655 -0.226924 -1.81532e-18)
(1.47788 -0.216974 1.37666e-19)
(2.16385 -0.131104 1.56924e-18)
(2.25425 -0.249121 2.0614e-18)
(2.27425 -0.379762 1.71155e-19)
(2.20811 -0.44215 2.95677e-19)
(1.44096 -0.407541 -1.95699e-19)
(1.84319 -0.305908 -4.06638e-18)
(1.90695 -0.429961 4.62535e-19)
(1.96097 -0.563371 1.27518e-18)
(1.91582 -0.645667 -5.08418e-19)
(1.26317 -0.565424 8.0744e-19)
(1.61473 -0.436528 9.79508e-19)
(1.63426 -0.541912 -2.5866e-18)
(1.62562 -0.668657 -3.00928e-18)
(1.56663 -0.766223 9.47711e-19)
(1.02406 -0.647345 6.14974e-19)
(1.30413 -0.5005 2.26886e-19)
(1.25651 -0.600956 2.83185e-19)
(1.25327 -0.733379 -4.60631e-19)
(1.20561 -0.831601 -5.59038e-19)
(0.772188 -0.674268 -5.37354e-21)
(1.01946 0.0485377 7.25577e-21)
(0.97067 0.0450579 -1.74728e-21)
(1.12527 0.0845939 5.46706e-21)
(0.832899 -0.0125001 -2.54897e-19)
(1.17307 -0.235581 -1.85073e-20)
(1.03888 0.0534654 -2.45633e-21)
(0.945454 0.0362873 3.67909e-20)
(1.12394 0.103269 -3.21818e-21)
(0.9108 0.028362 2.07782e-19)
(1.04185 -0.122678 -9.90879e-22)
(1.04549 0.0526022 -5.93106e-20)
(0.940006 0.0276465 1.93178e-22)
(1.10214 0.103457 -6.71336e-21)
(0.905374 0.0488668 9.60589e-20)
(0.999535 -0.0604136 -2.49499e-19)
(1.03193 0.0533816 7.10985e-20)
(0.965237 0.0201294 2.63809e-21)
(1.06139 0.108825 2.22482e-20)
(0.938029 0.0727756 -3.66674e-20)
(0.887963 0.0488788 7.47445e-20)
(1.0063 0.0512107 1.7539e-20)
(0.999435 0.0166373 -2.41961e-20)
(1.03189 0.116215 3.43063e-20)
(0.950725 0.0956571 4.95197e-20)
(0.854072 0.143714 -3.37575e-20)
(0.872873 0.0333476 0)
(0.751164 0.0296254 9.47805e-21)
(0.59446 0.0203664 6.03359e-21)
(0.382916 -0.0131832 5.18322e-20)
(0.734549 -0.0583054 -1.69591e-19)
(0.986261 0.0677804 -6.19599e-20)
(1.00185 0.0682464 -8.29476e-21)
(1.01871 0.0823313 -6.02865e-20)
(0.840575 -0.0143814 -1.43101e-19)
(1.07727 -0.217381 -1.76353e-19)
(1.03187 -0.0657061 -3.84581e-20)
(1.12451 -0.0356362 5.85728e-19)
(1.23281 0.0387015 3.5231e-19)
(1.10381 0.0618604 3.06639e-20)
(0.854544 0.0338486 0)
(1.38722 -0.331993 3.87624e-19)
(1.51158 -0.293858 1.69154e-18)
(1.70933 -0.169207 -1.86467e-18)
(1.82529 -0.0230634 -5.83472e-19)
(1.73529 0.0350533 4.30999e-19)
)
;

boundaryField
{
    left
    {
        type            fixedValue;
        value           uniform (1 0 0);
    }
    right
    {
        type            zeroGradient;
    }
    down
    {
        type            noSlip;
    }
    up
    {
        type            noSlip;
    }
    cylinder
    {
        type            noSlip;
    }
    defaultFaces
    {
        type            empty;
    }
}


// ************************************************************************* //
