/*--------------------------------*- C++ -*----------------------------------*\
  =========                 |
  \\      /  F ield         | OpenFOAM: The Open Source CFD Toolbox
   \\    /   O peration     | Website:  https://openfoam.org
    \\  /    A nd           | Version:  13
     \\/     M anipulation  |
\*---------------------------------------------------------------------------*/
FoamFile
{
    format      ascii;
    class       volVectorField;
    location    "44.7";
    object      U;
}
// * * * * * * * * * * * * * * * * * * * * * * * * * * * * * * * * * * * * * //

dimensions      [0 1 -1 0 0 0 0];

internalField   nonuniform List<vector> 
440
(
(-0.0927183 0.0665587 -7.07139e-20)
(-0.10789 0.0831146 5.45978e-20)
(0.0817539 0.0533153 1.20885e-19)
(0.551311 0.032529 6.81581e-20)
(0.664963 0.112688 1.67103e-20)
(-0.0971135 0.0547115 4.56429e-20)
(0.100484 0.00351432 -1.43962e-19)
(0.682496 -0.0579054 -1.30668e-19)
(1.27756 -0.0967886 6.98101e-20)
(1.84456 -0.129872 1.38728e-20)
(-0.00925234 -0.000433256 5.61028e-20)
(0.629397 -0.0623794 8.71915e-19)
(1.47117 -0.0689164 -5.59983e-19)
(2.0764 -0.0550575 -1.75774e-18)
(2.5332 -0.0553356 7.44105e-19)
(0.237693 -0.0531146 -1.83874e-19)
(1.34805 -0.0064108 -6.29294e-19)
(2.11754 0.0448402 2.05806e-18)
(2.48743 0.0657131 2.2526e-18)
(2.5112 0.0691492 -6.33837e-19)
(0.634927 -0.00189494 -3.25683e-19)
(1.85475 0.174844 -7.0307e-19)
(2.366 0.233215 2.14602e-18)
(2.48477 0.235397 2.27045e-18)
(2.5741 0.207603 7.56408e-19)
(-0.0256031 0.73385 3.55422e-19)
(-0.13914 1.06282 6.57811e-19)
(-0.238044 1.00268 -1.35328e-18)
(-0.308605 0.898362 2.00714e-19)
(-0.320459 0.831009 1.41866e-18)
(-0.0557238 0.481488 -3.84169e-20)
(-0.0237961 1.01107 -1.84524e-19)
(0.00317333 1.12928 -4.44868e-20)
(0.0430317 1.0515 -5.09183e-20)
(0.0926958 0.886307 9.90687e-20)
(-0.0470477 0.162286 1.10322e-19)
(-0.0451974 0.582415 -3.30916e-19)
(-0.00992364 0.818494 9.5494e-20)
(0.058312 0.87587 2.38548e-19)
(0.133476 0.813097 2.26882e-22)
(-0.023924 0.0375078 -4.81984e-20)
(-0.0748788 0.242949 1.04064e-19)
(-0.0717508 0.446728 -3.39441e-20)
(-0.0144159 0.559152 -1.15855e-19)
(0.0265482 0.632108 -2.00777e-20)
(-0.0489411 0.0387926 -3.69556e-20)
(-0.133276 0.118869 -5.41277e-20)
(-0.143115 0.207949 -1.37484e-19)
(-0.0132728 0.266208 3.83106e-22)
(0.0723795 0.374168 -4.17673e-19)
(-0.272962 0.510724 7.07267e-19)
(1.56615 -1.10241 1.76535e-18)
(1.10138 -0.680027 4.24937e-19)
(1.36644 0.499983 -6.41887e-19)
(1.12247 0.144872 4.46756e-20)
(0.487693 0.210204 -1.86591e-18)
(2.23693 -1.25204 -2.54663e-19)
(1.39987 -0.682989 1.62381e-19)
(1.40243 0.478885 7.59786e-19)
(1.1959 0.164087 -7.66916e-20)
(0.383458 -0.0681586 -6.52843e-19)
(1.87414 -1.41713 1.08784e-18)
(1.32249 -0.606813 -9.45334e-20)
(1.30982 0.544884 6.0066e-19)
(1.21344 0.192529 -1.46918e-21)
(0.877208 -0.0624109 -3.93511e-20)
(1.65145 -1.41176 -1.59507e-19)
(1.17372 -0.654469 7.41769e-20)
(1.04047 0.534156 1.33892e-20)
(1.25214 0.178512 3.94006e-20)
(1.64985 -0.30151 -1.19623e-19)
(1.91138 -1.32176 7.37214e-19)
(1.03711 -0.594945 0)
(0.638929 0.533863 -3.20497e-19)
(1.35314 0.119674 5.0697e-20)
(2.31136 -0.293216 -5.26313e-19)
(2.46253 -1.01592 -1.62747e-21)
(1.17852 -0.564173 -1.28243e-20)
(0.779904 0.415501 -2.07057e-19)
(1.55432 -0.0177401 -8.47239e-20)
(2.4324 -0.535489 4.07095e-20)
(2.34786 -0.904928 8.70086e-19)
(0.482605 -0.107154 -8.4947e-21)
(1.03994 0.3914 3.28558e-19)
(1.65411 -0.117771 0)
(2.18995 -0.410659 -4.06145e-19)
(2.07368 -0.390738 1.08831e-20)
(0.499743 -0.0241405 -2.61949e-20)
(1.52336 -0.0136422 -6.14869e-20)
(1.64458 -0.234966 4.54806e-21)
(2.14165 -0.357397 6.60284e-20)
(1.36846 -0.255194 7.70827e-20)
(0.846126 0.100093 -1.59625e-20)
(1.55608 -0.108356 2.61354e-35)
(1.09429 -0.157651 -1.7348e-20)
(1.12199 -0.0778455 1.66712e-19)
(0.405014 0.0535376 -2.7675e-20)
(0.679464 -0.0678784 -3.91241e-20)
(0.47804 -0.108288 2.29977e-20)
(0.0126003 -0.0187694 -1.4454e-20)
(2.40478 0.221669 -9.29842e-19)
(2.64273 -0.0176188 -1.17641e-18)
(2.44206 0.0147788 9.08385e-19)
(2.81546 -0.189631 6.10198e-20)
(2.17071 -0.0333815 -1.24891e-20)
(2.06008 0.151205 4.96e-20)
(2.434 -0.0493612 -3.93549e-20)
(2.1847 -0.0386022 -1.32625e-19)
(2.4943 -0.2142 -2.24641e-19)
(2.32875 -0.258501 -5.52197e-21)
(2.09677 0.0610592 6.5622e-20)
(2.22742 -0.0410928 1.10692e-19)
(2.20216 -0.0843058 -1.49584e-19)
(2.23821 -0.166157 4.87369e-20)
(2.27802 -0.232061 3.20577e-20)
(2.10502 -0.00192477 1.10236e-19)
(2.11966 -0.0673278 1.06747e-19)
(2.16263 -0.084463 -1.76614e-20)
(2.14975 -0.146712 -3.798e-22)
(2.17588 -0.171244 2.64767e-20)
(1.56796 -0.030813 1.49185e-19)
(1.48734 -0.0300548 -1.30451e-20)
(1.5302 -0.0472077 2.79721e-20)
(1.41549 -0.042241 -8.68505e-21)
(1.45946 -0.0707657 3.83996e-20)
(1.56741 0.830344 1.15675e-18)
(1.53147 0.936354 -3.83024e-19)
(1.54047 1.07379 -1.38847e-18)
(1.4699 1.12097 7.44644e-19)
(0.897211 0.799951 -1.70282e-19)
(1.87738 0.812861 -5.85613e-19)
(1.83987 0.885801 -3.09525e-18)
(1.84185 0.989038 -1.19222e-18)
(1.75315 1.00047 -4.12071e-19)
(1.06825 0.69942 -6.74724e-19)
(2.16688 0.661949 7.77336e-19)
(2.15761 0.737755 1.99947e-19)
(2.13793 0.830949 -2.3327e-18)
(2.00084 0.819663 -6.60551e-19)
(1.18433 0.54702 4.88536e-19)
(2.35811 0.557618 2.33503e-18)
(2.33687 0.604489 1.73776e-18)
(2.3309 0.657536 -2.01041e-18)
(2.12491 0.618531 -1.54214e-18)
(1.17081 0.36399 -2.8496e-19)
(2.48128 0.379068 1.20243e-18)
(2.51399 0.407359 -8.47433e-19)
(2.42738 0.437609 6.15281e-19)
(2.09501 0.388888 4.8962e-19)
(0.99976 0.165141 -4.22592e-19)
(0.573814 0.496339 -6.25936e-19)
(0.480211 0.534073 -4.64321e-19)
(0.360892 0.570599 4.7989e-20)
(0.224718 0.568889 1.02914e-21)
(0.0553059 0.400496 8.41348e-20)
(0.683495 0.650727 9.82111e-20)
(0.619546 0.706824 -2.83793e-19)
(0.530266 0.771887 1.78544e-19)
(0.404841 0.830221 -8.35968e-20)
(0.17703 0.629452 1.18518e-19)
(0.777055 0.864422 9.92098e-20)
(0.705927 0.949339 4.66794e-19)
(0.651866 1.04386 1.24085e-19)
(0.566683 1.07259 -3.1114e-19)
(0.309607 0.780944 2.63373e-19)
(1.05627 0.910055 2.40619e-19)
(1.00573 0.99054 -7.55554e-19)
(0.958564 1.09194 -1.98153e-18)
(0.879518 1.16066 7.83007e-19)
(0.516826 0.857019 -1.57795e-19)
(1.13465 0.97997 -9.63299e-20)
(1.1702 1.09654 -1.72684e-19)
(1.19048 1.20312 -3.84515e-19)
(1.13432 1.21843 -4.28096e-19)
(0.694422 0.864677 -6.69534e-21)
(1.01706 0.0386794 -8.99467e-20)
(1.00559 0.0438546 -2.92197e-20)
(1.03473 0.143409 -1.38621e-21)
(0.94081 0.145519 -1.99979e-19)
(0.90756 0.305184 2.94655e-19)
(1.00733 0.0341268 5.62702e-20)
(1.02305 0.0419066 1.10466e-19)
(1.01358 0.155227 1.21372e-19)
(0.987075 0.169944 2.79648e-20)
(0.934679 0.38663 -1.30526e-20)
(1.01806 0.0319489 7.55339e-20)
(1.002 0.03469 -4.32895e-21)
(1.05864 0.17667 -4.53973e-21)
(0.930165 0.165944 1.36629e-19)
(1.16042 0.53238 -4.77552e-19)
(1.01816 0.0299436 -2.34721e-22)
(1.01238 0.02895 -1.55426e-19)
(1.03912 0.198653 -6.06528e-20)
(1.04322 0.157127 -3.51394e-19)
(1.17196 0.590306 8.65931e-20)
(1.02372 0.0231238 -1.20904e-20)
(0.993452 0.0347132 4.32957e-20)
(1.09129 0.193014 2.78673e-20)
(1.02076 0.185251 4.36136e-19)
(1.39363 0.716548 -4.68426e-19)
(1.00053 0.0274096 -7.69104e-21)
(1.03153 0.0123795 9.27517e-20)
(1.06147 0.222196 -5.52872e-20)
(1.27814 0.0978435 9.83006e-19)
(1.31509 0.784572 -3.43259e-19)
(0.955683 0.00135308 -1.23205e-21)
(1.09094 0.0226227 -8.00727e-20)
(0.991414 0.12867 5.51783e-21)
(1.44273 0.0791932 -3.36463e-19)
(1.3285 0.571086 -7.87876e-20)
(0.972866 0.00247687 7.68054e-21)
(1.06559 0.0261303 1.31396e-35)
(1.13271 0.0547426 -2.10235e-20)
(1.38099 0.0340681 1.01601e-19)
(1.35018 0.42095 1.74605e-19)
(1.02261 -0.0289275 3.70873e-21)
(1.0267 -0.0159094 -2.40243e-20)
(1.26527 -0.0200445 2.14974e-20)
(1.07377 0.0382676 1.97987e-20)
(1.48554 0.311461 -2.577e-19)
(0.946532 -0.0216735 -3.72404e-20)
(0.86133 -0.0277988 -8.38516e-22)
(0.909524 -0.00295082 2.75207e-20)
(0.696842 0.0133384 -2.15431e-20)
(1.20508 0.0781255 -5.90964e-20)
(1.80929 0.587808 2.8533e-19)
(1.91443 0.6504 7.32535e-19)
(2.16687 0.47674 -1.06185e-18)
(2.23593 0.485183 2.94988e-20)
(2.44191 0.242433 4.46764e-19)
(1.75663 0.366141 8.72764e-20)
(1.76635 0.443338 9.91018e-19)
(2.00401 0.296455 1.09619e-19)
(1.94209 0.331064 -8.59159e-19)
(2.25016 0.124051 -2.75114e-19)
(1.70279 0.307126 -2.24153e-19)
(1.78068 0.306302 -1.4358e-19)
(1.93237 0.217607 2.43844e-19)
(1.95795 0.197561 -2.73758e-19)
(2.12344 0.0868857 2.50085e-19)
(1.71377 0.184075 4.00287e-19)
(1.83931 0.160028 1.63366e-21)
(1.90306 0.0978339 2.13923e-19)
(1.99844 0.0793606 1.68842e-19)
(2.03956 0.0139005 -1.67135e-19)
(1.40241 0.0363085 -5.23411e-20)
(1.50265 0.0178484 2.49406e-19)
(1.50905 0.00394736 1.02032e-19)
(1.56981 -0.0105682 -2.00218e-19)
(1.52209 -0.0167827 6.72336e-22)
(1.13805 -0.0156939 7.00725e-20)
(2.12955 -0.0334967 -4.43748e-19)
(2.3559 -0.0238067 1.21434e-18)
(2.33754 0.0140734 5.45756e-19)
(2.15866 0.0365472 -3.84797e-19)
(0.740315 0.101582 1.42407e-19)
(1.91507 0.10569 -4.67967e-19)
(2.35483 0.11044 -6.52853e-19)
(2.38922 0.116429 8.39715e-19)
(2.15596 0.102398 -5.81254e-19)
(0.272953 0.0960891 -2.56135e-21)
(1.33212 0.178309 5.37122e-19)
(2.03812 0.206511 7.26131e-20)
(2.39635 0.201636 6.74676e-19)
(2.48704 0.188774 3.37148e-19)
(0.00918999 0.0065487 1.9111e-19)
(0.553058 0.125708 2.0547e-19)
(1.31268 0.204598 -5.46475e-19)
(1.78593 0.241899 4.49742e-20)
(2.3237 0.269133 3.35334e-19)
(-0.0555132 -0.0433034 9.89775e-20)
(0.091877 0.0120682 -1.37543e-19)
(0.542287 0.109078 -1.03071e-19)
(1.00088 0.162556 9.13785e-20)
(1.4366 0.251541 4.0519e-20)
(-0.067052 -0.0816152 3.44299e-20)
(-0.0813891 -0.101159 6.42899e-20)
(0.0509644 -0.0615166 1.0741e-19)
(0.257753 0.0199777 -3.49784e-19)
(0.644031 0.105605 4.01158e-21)
(-0.0218336 -0.0341574 6.51338e-22)
(-0.0157962 -0.0493989 -5.73599e-20)
(0.0283865 -0.0124012 -5.53418e-20)
(0.105602 0.0602488 9.46995e-20)
(0.27033 0.181153 7.24645e-20)
(-0.0428225 -0.194142 9.40893e-21)
(0.00941777 -0.298927 -7.2627e-19)
(0.054643 -0.26333 4.33001e-19)
(0.0618497 -0.183854 4.64784e-19)
(0.0818455 -0.0870527 -3.06365e-20)
(-0.110219 -0.306645 1.26908e-19)
(-0.23323 -0.170785 7.57367e-19)
(-0.278453 0.151676 -1.70966e-18)
(-0.356687 0.335774 -1.15703e-18)
(-0.386563 0.426743 1.45525e-19)
(-0.105498 0.257683 -1.15652e-19)
(-0.479862 0.415351 3.88785e-19)
(-0.726158 0.499967 -1.2231e-19)
(-0.851251 0.529525 3.13494e-20)
(-0.90273 0.526868 7.12149e-19)
(1.10686 0.705194 -4.52904e-20)
(0.553174 -0.0576828 9.32167e-19)
(1.4001 0.111558 -4.48182e-20)
(0.556278 0.126978 5.36116e-20)
(0.468377 -0.0867225 -3.68008e-21)
(1.105 0.75422 1.81632e-19)
(0.0626675 -0.176935 -4.72605e-19)
(1.50602 0.123767 -4.12501e-19)
(0.878863 0.224486 1.72671e-20)
(0.639726 -0.0560585 -7.90491e-21)
(0.763864 0.635013 -2.38468e-19)
(-0.659813 -0.242764 -2.13965e-19)
(1.59288 -0.0250161 -2.16036e-20)
(1.16501 0.317494 -2.83011e-19)
(0.827136 -0.00930617 9.70662e-21)
(-0.26558 0.864794 9.63777e-19)
(-0.760806 -0.513251 -6.66208e-18)
(1.48998 -0.281908 2.1793e-19)
(1.35308 0.419175 -1.70459e-20)
(0.984119 0.0473848 4.40497e-20)
(-0.993034 0.581695 3.10318e-19)
(0.175714 -1.0016 -8.87555e-19)
(1.16745 -0.595647 2.2833e-20)
(1.46148 0.434078 6.57262e-20)
(1.10034 0.103968 1.00225e-19)
(0.0371063 0.153715 -1.36009e-19)
(-0.285718 -0.140831 0)
(0.157394 -0.0906236 -1.31059e-20)
(-0.0913191 -0.0422185 3.45884e-20)
(0.299795 -0.0243927 -1.3326e-20)
(1.55405 0.563901 0)
(0.847615 0.0979703 0)
(1.16456 0.0436998 2.35742e-19)
(0.239628 -0.00696669 3.74062e-20)
(0.444551 -0.0886786 2.77677e-20)
(0.696194 0.00151161 -1.26115e-19)
(0.715906 -0.00298139 2.30511e-19)
(0.927105 0.00395239 -5.04241e-20)
(0.873845 0.01523 3.12364e-19)
(1.27349 0.103099 2.17107e-19)
(1.56931 0.0278278 1.19866e-19)
(1.68239 0.0719753 3.2703e-19)
(1.85675 0.0725406 -5.29916e-19)
(2.31393 0.20868 1.1735e-19)
(2.12893 0.198407 3.17852e-19)
(0.884043 -0.461631 -2.72071e-20)
(0.869672 -0.54864 -1.61969e-19)
(0.857296 -0.642755 -1.07446e-19)
(0.786366 -0.708245 6.58776e-20)
(0.479121 -0.555649 1.27042e-19)
(0.779826 -0.362341 1.20081e-19)
(0.725318 -0.426036 2.33424e-19)
(0.654501 -0.496512 -4.77901e-20)
(0.545861 -0.556937 1.39507e-19)
(0.298723 -0.445711 5.38658e-20)
(0.64102 -0.220767 -1.40723e-19)
(0.556273 -0.259221 -5.39115e-20)
(0.455487 -0.306494 1.08355e-19)
(0.334931 -0.348863 -1.57742e-20)
(0.147394 -0.28353 -1.22482e-19)
(0.545157 0.0113069 -4.29124e-19)
(0.45879 -0.00203198 -3.5245e-19)
(0.347709 -0.0227448 2.82279e-19)
(0.220202 -0.052307 1.67431e-19)
(0.058607 -0.0662167 1.34659e-20)
(0.521844 0.216905 -1.53742e-19)
(0.43546 0.21982 -1.61284e-19)
(0.318272 0.222718 -6.18769e-20)
(0.180847 0.230433 2.71634e-20)
(0.0256322 0.169391 1.17058e-20)
(1.9407 -0.0374454 7.8448e-19)
(2.19078 -0.0998351 2.61509e-19)
(2.27057 -0.179984 -6.94451e-19)
(2.12829 -0.206009 -1.43244e-18)
(1.28117 -0.177907 1.24465e-19)
(1.90985 -0.119645 1.29005e-18)
(2.00689 -0.22685 1.71898e-18)
(2.03122 -0.34356 1.45186e-19)
(1.95225 -0.399482 2.56954e-19)
(1.24798 -0.34489 -1.69576e-19)
(1.6415 -0.275771 -3.3245e-18)
(1.70919 -0.389917 3.60031e-19)
(1.7567 -0.510309 1.0497e-18)
(1.69669 -0.580188 -3.87225e-19)
(1.0992 -0.485252 6.15266e-19)
(1.43511 -0.395358 7.95258e-19)
(1.45751 -0.491956 -2.11765e-18)
(1.45002 -0.606076 -2.40537e-18)
(1.38392 -0.68683 7.27427e-19)
(0.892228 -0.559941 5.03811e-19)
(1.16543 -0.450811 1.65415e-19)
(1.1298 -0.542529 2.44807e-19)
(1.12252 -0.659312 -3.65351e-19)
(1.06732 -0.740201 -4.39718e-19)
(0.676377 -0.585596 -4.05988e-21)
(1.07383 0.0524182 7.36137e-21)
(0.933067 0.0624982 -1.63604e-21)
(1.1074 0.0850117 4.37781e-21)
(0.809941 0.013273 -2.35784e-19)
(1.05305 -0.188442 -1.56426e-20)
(1.08285 0.0538272 -2.42462e-21)
(0.930176 0.0607097 3.40938e-20)
(1.10902 0.103496 -1.9335e-20)
(0.892032 0.0617094 1.73688e-19)
(0.964436 -0.0742597 -5.569e-21)
(1.08004 0.0488593 -5.81923e-20)
(0.933929 0.0577059 4.17113e-23)
(1.09644 0.107005 -1.43434e-20)
(0.895514 0.0855222 9.03653e-20)
(0.936038 -0.0123901 -2.14901e-19)
(1.05944 0.045988 6.99299e-20)
(0.960923 0.0530076 3.06494e-21)
(1.06439 0.11604 2.7853e-20)
(0.926353 0.110155 -3.41111e-20)
(0.858856 0.0956549 8.11644e-20)
(1.03207 0.0412465 1.74636e-20)
(0.994064 0.05112 -2.50504e-20)
(1.03286 0.124338 4.05233e-20)
(0.952851 0.136167 4.71403e-20)
(0.840016 0.198296 -7.85765e-20)
(0.892256 0.0339954 0)
(0.708846 0.028475 9.76511e-21)
(0.588361 0.0226718 5.68495e-21)
(0.331944 -0.00517075 3.7174e-20)
(0.633954 -0.0499212 -1.4353e-19)
(1.04045 0.0739421 -6.48323e-20)
(0.942319 0.0766267 -1.00407e-20)
(1.00801 0.0841172 -5.0837e-20)
(0.792756 0.00508584 -1.35154e-19)
(0.991747 -0.17593 -1.54708e-19)
(0.873918 -0.0644719 -3.40498e-20)
(0.959724 -0.0311619 5.06272e-19)
(1.0448 0.0348482 2.99797e-19)
(0.926745 0.0491139 3.15821e-20)
(0.721655 0.0259662 0)
(1.2267 -0.30162 3.24272e-19)
(1.33797 -0.266631 1.42398e-18)
(1.50437 -0.150113 -1.54183e-18)
(1.59791 -0.0215387 -4.7488e-19)
(1.50448 0.02498 3.68671e-19)
)
;

boundaryField
{
    left
    {
        type            fixedValue;
        value           uniform (1 0 0);
    }
    right
    {
        type            zeroGradient;
    }
    down
    {
        type            noSlip;
    }
    up
    {
        type            noSlip;
    }
    cylinder
    {
        type            noSlip;
    }
    defaultFaces
    {
        type            empty;
    }
}


// ************************************************************************* //
