/*--------------------------------*- C++ -*----------------------------------*\
  =========                 |
  \\      /  F ield         | OpenFOAM: The Open Source CFD Toolbox
   \\    /   O peration     | Website:  https://openfoam.org
    \\  /    A nd           | Version:  13
     \\/     M anipulation  |
\*---------------------------------------------------------------------------*/
FoamFile
{
    format      ascii;
    class       volScalarField;
    location    "1.485";
    object      p;
}
// * * * * * * * * * * * * * * * * * * * * * * * * * * * * * * * * * * * * * //

dimensions      [0 2 -2 0 0 0 0];

internalField   nonuniform List<scalar> 
440
(
-1.36473
-1.34786
-1.34827
-1.31856
-1.24174
-1.50702
-1.48428
-1.4502
-1.3799
-1.27973
-1.68401
-1.64317
-1.55244
-1.42419
-1.2815
-1.82664
-1.76291
-1.60824
-1.43129
-1.26611
-1.88964
-1.78278
-1.57204
-1.36187
-1.17531
-0.479453
-0.48453
-0.486924
-0.468631
-0.426124
-0.666555
-0.66835
-0.671142
-0.651385
-0.586804
-0.912754
-0.913764
-0.916812
-0.925066
-0.794195
-1.12364
-1.12384
-1.13817
-1.15745
-1.05801
-1.25196
-1.24103
-1.24544
-1.25503
-1.1687
-0.0908556
-0.00234545
0.0742943
0.0453802
0.0139781
-0.193647
-0.010941
0.0682063
0.0427917
0.0131509
-0.324678
-0.0241709
0.0600606
0.03963
0.0122622
-0.449632
-0.0480806
0.0496583
0.0356981
0.0112578
-0.576681
-0.0816258
0.0365073
0.0309021
0.0100228
-0.6014
-0.104992
0.0190114
0.0227086
0.00789123
-0.503585
-0.126847
-0.0191926
0.00341909
0.00264525
-0.433669
-0.126913
-0.0237825
-0.00176912
0.0006873
-0.39939
-0.152628
-0.0460364
-0.0134565
-0.00285772
-0.373142
-0.161954
-0.058234
-0.0199195
-0.00470699
-0.872609
-0.977474
-1.02551
-1.04907
-1.03749
-0.615144
-0.708694
-0.760994
-0.778441
-0.773348
-0.441249
-0.52703
-0.580534
-0.597107
-0.593614
-0.329166
-0.413733
-0.465386
-0.483217
-0.480608
-0.272928
-0.358754
-0.41177
-0.432181
-0.42988
0.404541
0.258725
0.0813204
-0.119994
-0.350816
0.0140274
-0.147748
-0.345838
-0.572582
-0.831225
-0.39516
-0.568314
-0.786269
-1.02473
-1.28417
-0.743642
-0.925915
-1.1596
-1.40857
-1.6302
-1.0125
-1.20212
-1.42873
-1.66854
-1.83575
1.70913
1.73051
1.75141
1.76192
1.7579
1.50541
1.51605
1.52171
1.51181
1.4832
1.24867
1.23557
1.20344
1.15029
1.07266
0.971872
0.931294
0.858743
0.757539
0.627508
0.689674
0.59714
0.472485
0.322761
0.142341
1.56782
1.44009
1.541
1.53106
1.64123
1.55531
1.42533
1.51869
1.49522
1.54487
1.54337
1.40887
1.49431
1.44872
1.41887
1.53218
1.39129
1.46791
1.39313
1.24131
1.5222
1.37284
1.44081
1.33008
1.04779
1.51112
1.34917
1.40349
1.22751
0.832239
1.50191
1.32362
1.37214
1.13742
0.836356
1.50183
1.30427
1.34924
1.08086
0.839117
1.49835
1.28645
1.33419
1.03781
0.849073
1.5255
1.28276
1.32608
1.01129
0.855797
0.413149
0.12572
-0.216096
-0.500793
-0.724228
0.371494
0.16958
-0.0686625
-0.288986
-0.475966
0.386943
0.207051
0.0187242
-0.161796
-0.314266
0.425497
0.254405
0.0851361
-0.0725932
-0.208645
0.447113
0.281507
0.122831
-0.0248579
-0.154957
-1.10458
-0.978413
-0.829091
-0.711456
-0.642462
-1.12069
-1.06597
-0.955746
-0.860542
-0.801993
-1.00121
-0.955372
-0.886281
-0.831232
-0.790572
-0.823869
-0.770564
-0.746297
-0.743578
-0.760441
-0.724507
-0.681927
-0.668879
-0.70968
-0.768852
-0.803765
-0.798434
-0.788384
-0.900234
-0.891752
-0.795765
-0.812456
-0.837951
-0.944382
-0.86204
-0.593476
-0.607945
-0.642278
-0.672762
-0.627791
-0.43581
-0.441963
-0.449888
-0.440431
-0.406518
-0.400849
-0.408516
-0.414034
-0.401846
-0.370561
-0.491851
-0.0648466
0.0689663
0.0490466
0.0172055
-0.394505
-0.0299534
0.0792033
0.0553523
0.0175882
-0.233241
-0.00915842
0.0801709
0.0499244
0.0161132
-0.0991942
0.000583453
0.0811868
0.0495079
0.0155734
-0.0487865
0.00249023
0.0782534
0.047416
0.0147285
-0.401662
-0.219559
0.0219569
0.0430047
0.0177996
-0.496705
-0.12011
0.0836807
0.0692459
0.0222875
-0.611996
-0.749452
-0.806668
-0.739705
-0.569419
-0.622403
-0.769399
-0.782995
-0.757609
-0.705888
1.58057
1.56133
1.52852
1.48272
1.42207
1.71462
1.73488
1.74392
1.73939
1.72182
1.82303
1.8493
1.86822
1.8767
1.87438
1.86281
1.89606
1.93287
1.96433
1.97966
1.82698
1.85725
1.89161
1.92029
1.93308
-0.248236
-0.339771
-0.488154
-0.666903
-0.878852
0.275244
0.15512
-0.00301811
-0.196908
-0.44387
0.755509
0.632221
0.483785
0.307052
0.0860392
1.12671
1.03358
0.920583
0.780956
0.612067
1.41721
1.35495
1.27141
1.16949
1.05059
1.63465
1.48458
1.6078
1.57885
1.67729
1.62017
1.47978
1.59904
1.58584
1.70094
1.6069
1.47287
1.59024
1.58525
1.74707
1.59372
1.46406
1.57681
1.57655
1.72836
1.58068
1.45307
1.56042
1.55822
1.70049
1.68379
1.49377
1.60625
1.5333
1.58819
1.64512
1.48488
1.60231
1.55216
1.58859
1.30313
1.13225
0.810971
0.318104
-0.224882
1.38716
1.16485
0.824584
0.335498
-0.216617
)
;

boundaryField
{
    left
    {
        type            zeroGradient;
    }
    right
    {
        type            fixedValue;
        value           uniform 0;
    }
    down
    {
        type            zeroGradient;
    }
    up
    {
        type            zeroGradient;
    }
    cylinder
    {
        type            zeroGradient;
    }
    defaultFaces
    {
        type            empty;
    }
}


// ************************************************************************* //
