/*--------------------------------*- C++ -*----------------------------------*\
  =========                 |
  \\      /  F ield         | OpenFOAM: The Open Source CFD Toolbox
   \\    /   O peration     | Website:  https://openfoam.org
    \\  /    A nd           | Version:  13
     \\/     M anipulation  |
\*---------------------------------------------------------------------------*/
FoamFile
{
    format      ascii;
    class       volScalarField;
    location    "52";
    object      p;
}
// * * * * * * * * * * * * * * * * * * * * * * * * * * * * * * * * * * * * * //

dimensions      [0 2 -2 0 0 0 0];

internalField   nonuniform List<scalar> 
440
(
-0.550247
-0.535413
-0.544059
-0.497017
-0.552981
-0.593505
-0.576835
-0.556659
-0.529963
-0.510188
-0.696424
-0.665151
-0.628491
-0.582754
-0.530548
-0.823362
-0.776451
-0.694861
-0.596756
-0.497658
-0.91539
-0.852939
-0.71254
-0.565835
-0.430007
-1.16632
-1.17966
-1.2106
-1.26196
-1.33113
-1.02183
-1.04464
-1.09503
-1.17502
-1.2839
-0.802454
-0.797729
-0.791266
-0.780467
-0.760037
-0.617955
-0.611986
-0.597281
-0.565193
-0.519847
-0.482588
-0.478135
-0.459319
-0.407794
-0.350294
-1.3564
-1.54625
-1.05491
0.450404
-0.00417033
-0.970329
-1.3019
-0.955686
0.318718
-0.00524419
-0.687596
-1.01821
-0.802167
0.139319
-0.0295398
-0.485361
-1.09227
-0.668173
0.0366492
-0.0573303
-0.335693
-1.17445
-0.564109
-0.0047264
-0.0481585
-0.108719
-1.11221
-0.43113
-0.0540638
-0.0427542
-0.00561474
-0.797388
-0.264658
-0.0656138
-0.0627021
0.0610365
-0.529568
-0.205883
-0.0486088
-0.0260416
0.114358
-0.342959
-0.186883
-0.0663748
-0.0476176
0.195112
-0.215943
-0.21216
-0.073411
-0.0353425
-0.19311
-0.312111
-0.43212
-0.569905
-0.626145
0.0436735
-0.07392
-0.133269
-0.16986
-0.155689
0.195225
0.104344
0.047435
0.0153094
-0.00379114
0.291487
0.207319
0.141428
0.108123
0.0830187
0.336676
0.250498
0.184612
0.155026
0.14242
1.04066
0.896062
0.71405
0.512674
0.291784
0.653379
0.498531
0.308992
0.0953876
-0.140092
0.268041
0.109663
-0.0870698
-0.310332
-0.52125
-0.0595318
-0.222228
-0.418773
-0.630509
-0.792931
-0.290177
-0.446986
-0.626441
-0.813065
-0.917875
2.14343
2.17548
2.20583
2.22292
2.22245
1.96418
1.9866
2.00467
2.00627
1.98684
1.74926
1.73933
1.70782
1.65475
1.57691
1.50481
1.4722
1.40535
1.30861
1.18445
1.27493
1.17781
1.05026
0.902077
0.72396
1.89232
1.88759
1.86431
1.93595
2.02111
1.88359
1.87724
1.84748
1.91867
1.94057
1.87594
1.86371
1.82761
1.88974
1.83662
1.86956
1.84768
1.80615
1.84502
1.67965
1.86445
1.83096
1.78374
1.80068
1.51207
1.86102
1.80553
1.75488
1.69543
1.31883
1.86174
1.77648
1.75116
1.58241
1.39417
1.8665
1.76455
1.75071
1.52262
1.42002
1.86631
1.73703
1.74851
1.46284
1.42601
1.90269
1.73276
1.74791
1.42854
1.44923
1.01943
0.741549
0.419504
0.147481
-0.0495764
0.938242
0.742443
0.528394
0.338781
0.169161
0.933727
0.765826
0.604712
0.45042
0.313068
0.975466
0.816047
0.668891
0.529469
0.406453
1.01924
0.860976
0.714876
0.576739
0.452101
-1.75386
-1.57199
-1.36989
-1.20063
-1.09639
-1.8585
-1.76452
-1.59044
-1.43089
-1.31678
-1.80027
-1.73888
-1.60649
-1.46837
-1.34299
-1.65692
-1.60665
-1.52838
-1.42737
-1.31536
-1.50171
-1.47796
-1.43721
-1.37248
-1.27676
-1.40519
-1.39926
-1.37541
-1.38201
-1.27788
-1.33734
-1.33923
-1.328
-1.35621
-1.2762
-1.2498
-1.24678
-1.24009
-1.25292
-1.2194
-1.17431
-1.15613
-1.13435
-1.11498
-1.09958
-1.16666
-1.15553
-1.14534
-1.14239
-1.14824
-0.779859
-0.978099
0.0646247
0.414222
0.0439253
-0.81449
-1.01491
0.0628595
0.487471
0.0377985
-0.918311
-1.21641
-0.403508
0.543163
0.00594794
-1.18982
-1.63305
-0.894983
0.555255
0.00945265
-1.44092
-1.78001
-1.04407
0.526212
0.00128124
-0.483053
-1.09855
-0.0244071
0.32619
0.0525482
-0.737262
-0.995256
0.0566053
0.369781
0.0563999
-1.03611
-1.23079
-1.23585
-1.11816
-0.8901
-1.05811
-1.25304
-1.25291
-1.16636
-1.05683
1.70922
1.68053
1.63336
1.56849
1.48243
1.91883
1.93634
1.93762
1.92057
1.88557
2.09729
2.12868
2.15227
2.16299
2.15881
2.20429
2.24338
2.28448
2.31736
2.3317
2.21837
2.25606
2.29796
2.33289
2.34907
-0.606636
-0.728138
-0.917396
-1.1427
-1.4144
0.0351879
-0.113137
-0.310498
-0.549408
-0.857609
0.62644
0.473678
0.289742
0.0720891
-0.20406
1.10166
0.981965
0.837061
0.661135
0.445585
1.48254
1.39824
1.28871
1.15738
1.0016
1.95065
1.91174
1.89063
1.88994
1.88396
1.93596
1.90996
1.89161
1.91135
1.95854
1.92363
1.90694
1.89195
1.93509
2.04333
1.91228
1.90252
1.8869
1.94531
2.06004
1.90182
1.8965
1.87738
1.94579
2.05922
2.00555
1.91606
1.87546
1.80863
1.74057
1.96052
1.90743
1.87147
1.83218
1.75696
1.35945
1.11291
0.692583
0.0873085
-0.567314
1.44639
1.14878
0.710088
0.108401
-0.561058
)
;

boundaryField
{
    left
    {
        type            zeroGradient;
    }
    right
    {
        type            fixedValue;
        value           uniform 0;
    }
    down
    {
        type            zeroGradient;
    }
    up
    {
        type            zeroGradient;
    }
    cylinder
    {
        type            zeroGradient;
    }
    defaultFaces
    {
        type            empty;
    }
}


// ************************************************************************* //
