/*--------------------------------*- C++ -*----------------------------------*\
  =========                 |
  \\      /  F ield         | OpenFOAM: The Open Source CFD Toolbox
   \\    /   O peration     | Website:  https://openfoam.org
    \\  /    A nd           | Version:  13
     \\/     M anipulation  |
\*---------------------------------------------------------------------------*/
FoamFile
{
    format      ascii;
    class       volVectorField;
    location    "52";
    object      U;
}
// * * * * * * * * * * * * * * * * * * * * * * * * * * * * * * * * * * * * * //

dimensions      [0 1 -1 0 0 0 0];

internalField   nonuniform List<vector> 
440
(
(-0.0957527 0.0701469 -5.95337e-20)
(-0.126271 0.0908034 -1.40108e-20)
(0.00153758 0.0527008 1.12335e-19)
(0.376821 0.0720057 1.70324e-20)
(0.364595 0.181961 2.30816e-20)
(-0.0895798 0.0512959 3.1073e-20)
(0.0425865 0.0234172 -1.11135e-19)
(0.514607 -0.0265938 -1.03326e-19)
(1.05141 -0.0533765 5.31201e-20)
(1.55406 -0.074936 9.32837e-21)
(-0.0228392 0.00863954 4.76475e-20)
(0.477979 -0.0357199 6.78254e-19)
(1.23353 -0.0273827 -4.05889e-19)
(1.82372 -0.00626365 -1.32092e-18)
(2.31431 0.0165636 5.59802e-19)
(0.185285 -0.0420127 -1.66481e-19)
(1.14963 0.0038841 -5.06016e-19)
(1.91112 0.0688483 1.61895e-18)
(2.33126 0.109707 1.77715e-18)
(2.41775 0.118474 -5.00588e-19)
(0.535935 -0.00591443 -2.78307e-19)
(1.67912 0.174709 -5.8621e-19)
(2.21689 0.251709 1.78269e-18)
(2.35723 0.263466 1.93723e-18)
(2.44133 0.242723 6.63644e-19)
(0.0416232 -0.270425 -4.33726e-20)
(0.0774402 -0.394405 1.95968e-19)
(0.0942683 -0.364529 -4.90009e-19)
(0.140351 -0.250926 1.22024e-19)
(0.185097 -0.0646526 9.87708e-19)
(0.0594107 -0.25089 -9.45727e-20)
(0.037285 -0.322872 -3.56754e-19)
(-0.0116711 -0.360577 -1.17374e-19)
(-0.0556842 -0.362174 -8.16366e-20)
(-0.0956727 -0.247622 1.04533e-19)
(0.0730359 -0.189939 4.75495e-19)
(0.0340794 -0.1891 -8.53553e-20)
(-0.0369192 -0.153206 2.79692e-19)
(-0.111753 -0.166095 1.94911e-19)
(-0.189324 -0.145026 5.03055e-21)
(0.0706487 -0.146625 3.54095e-20)
(0.00683318 -0.165836 6.52304e-21)
(-0.0770195 -0.113442 1.10672e-19)
(-0.145512 -0.0804328 -6.99885e-19)
(-0.20326 -0.0332055 2.26193e-19)
(-0.0283585 -0.0123713 -4.04804e-20)
(-0.149305 -0.0230599 -6.06143e-20)
(-0.231109 -0.0026957 -2.27063e-19)
(-0.211989 0.0216692 3.59733e-19)
(-0.190225 0.0837101 8.48723e-19)
(0.932959 1.29909 1.88634e-18)
(0.739358 0.191737 -1.94269e-18)
(1.31365 -1.34292 -1.31417e-19)
(1.06545 -0.591239 -8.08739e-19)
(1.34033 -0.0515808 -2.40858e-20)
(0.251959 1.01574 -1.9721e-18)
(1.02882 0.145971 3.22037e-19)
(2.0081 -1.24803 1.72988e-19)
(1.31817 -0.607347 1.46663e-18)
(1.35502 -0.070428 9.56836e-20)
(-0.548837 0.655697 -1.18856e-18)
(1.51254 -0.156876 -1.02298e-18)
(1.99974 -1.31847 -8.90526e-20)
(1.47909 -0.570669 1.1983e-18)
(1.36116 -0.0378717 -5.64588e-21)
(-0.80549 0.502447 5.18187e-19)
(1.9419 -0.414753 -1.42877e-20)
(1.93145 -1.23088 5.09544e-19)
(1.32284 -0.526446 -4.31017e-19)
(1.26917 -0.0240817 5.64875e-20)
(-0.390117 0.181676 -1.4034e-19)
(2.19802 -0.620244 -1.20419e-19)
(2.09735 -1.13227 0)
(1.2038 -0.453014 1.67444e-19)
(1.14808 -0.00878999 -1.94009e-20)
(1.16532 0.0675238 -2.63391e-19)
(2.59966 -0.66478 -1.14093e-19)
(2.05497 -0.964577 -2.52148e-20)
(1.24626 -0.408575 1.01927e-19)
(1.19187 -0.011327 -1.23983e-20)
(1.948 0.0560132 -1.80018e-20)
(2.81786 -0.775014 1.03037e-18)
(1.77532 -0.717507 -1.77074e-20)
(0.789326 -0.140847 9.7032e-21)
(1.08656 0.0265927 0)
(2.21098 -0.0747309 -1.88934e-19)
(2.41319 -0.527087 -6.21762e-21)
(1.59198 -0.32736 9.14633e-20)
(0.996489 -0.125377 6.63926e-22)
(1.1973 -0.10061 1.99237e-20)
(2.26318 -0.0807136 1.06486e-19)
(2.08205 -0.452751 2.18035e-19)
(1.09873 -0.204441 -1.95782e-20)
(1.05788 -0.0246989 -1.82826e-34)
(0.952879 -0.0560094 1.63247e-20)
(1.51193 -0.126141 1.13337e-19)
(0.768485 0.00528945 7.38376e-20)
(0.392857 0.0270006 1.22429e-20)
(0.31532 -0.0779378 -4.09033e-21)
(0.0767352 -0.0326992 -1.08404e-20)
(2.36774 0.245531 -8.41139e-19)
(2.52469 0.0657292 -1.00691e-18)
(2.41556 0.0570011 7.64649e-19)
(2.55311 -0.0683467 3.52276e-20)
(2.05461 -0.0154489 -3.91578e-20)
(2.15205 0.123575 5.59787e-20)
(2.33467 0.09825 -3.71405e-20)
(2.29193 -0.0499739 -1.1499e-19)
(2.36703 -0.0355287 -2.14569e-19)
(2.34675 -0.250058 -2.45675e-21)
(2.07366 0.0480844 6.5858e-20)
(2.146 0.0574595 9.42753e-20)
(2.18141 -0.064856 -1.10644e-19)
(2.19766 -0.033307 3.65108e-20)
(2.24252 -0.164809 1.58289e-20)
(1.97828 0.0211031 1.03217e-19)
(2.04623 0.018378 1.27405e-19)
(2.06581 -0.0444292 -1.61069e-20)
(2.11976 -0.0331285 -4.32406e-20)
(2.13056 -0.105621 2.42902e-20)
(1.49338 -0.0159354 1.58982e-19)
(1.48762 -0.0193379 -1.05777e-20)
(1.50778 -0.0224862 1.82366e-20)
(1.49548 -0.0334781 -2.37021e-20)
(1.49783 -0.0291856 6.35291e-22)
(1.52338 0.844654 1.07133e-18)
(1.48657 0.939586 -3.38465e-19)
(1.48866 1.06373 -1.26282e-18)
(1.41412 1.09793 6.83067e-19)
(0.862799 0.773501 -1.6338e-19)
(1.80729 0.793319 -5.4471e-19)
(1.77522 0.867587 -2.88089e-18)
(1.7785 0.970822 -1.10812e-18)
(1.68322 0.974572 -3.82046e-19)
(1.01576 0.664039 -6.09317e-19)
(2.09278 0.681481 7.30614e-19)
(2.07256 0.743667 1.84329e-19)
(2.04594 0.821098 -2.16283e-18)
(1.90068 0.801256 -5.8706e-19)
(1.10467 0.514063 4.25272e-19)
(2.26187 0.554472 2.19579e-18)
(2.24279 0.60128 1.58955e-18)
(2.22757 0.647454 -1.81343e-18)
(1.99995 0.600394 -1.35302e-18)
(1.07457 0.334774 -2.41153e-19)
(2.40369 0.406033 1.03787e-18)
(2.39995 0.425862 -7.4167e-19)
(2.29239 0.441497 5.3148e-19)
(1.94526 0.382429 4.12469e-19)
(0.890644 0.144185 -3.43882e-19)
(0.580309 0.426574 -7.02412e-19)
(0.489133 0.46118 -5.63198e-19)
(0.370027 0.495712 7.12615e-20)
(0.230135 0.494622 -2.0922e-20)
(0.0558255 0.346716 6.76891e-20)
(0.684425 0.590975 5.37431e-20)
(0.617682 0.643507 -3.23324e-19)
(0.525323 0.705969 1.70653e-19)
(0.396815 0.764006 -7.90584e-20)
(0.170202 0.584691 1.13304e-19)
(0.766009 0.805036 1.63037e-19)
(0.693871 0.886573 4.19163e-19)
(0.636052 0.980764 7.59961e-20)
(0.549765 1.01926 -2.78787e-19)
(0.300252 0.750054 2.27548e-19)
(1.03469 0.878591 2.10033e-19)
(0.984586 0.960213 -6.42197e-19)
(0.932521 1.05752 -1.8012e-18)
(0.847689 1.11936 7.24337e-19)
(0.497545 0.825173 -1.64345e-19)
(1.11766 0.929833 -1.09794e-19)
(1.14466 1.04574 -1.84021e-19)
(1.16237 1.15452 -3.36637e-19)
(1.10439 1.17682 -3.79247e-19)
(0.675683 0.837011 -6.09345e-21)
(1.00679 0.0405489 -7.92723e-20)
(1.00693 0.0134369 -2.78219e-20)
(1.04791 0.134132 -1.53007e-21)
(0.942199 0.111661 -1.55282e-19)
(0.904244 0.254089 2.86327e-19)
(0.993547 0.0380702 4.83486e-20)
(1.02888 0.00598537 1.07164e-19)
(1.02648 0.149416 1.06217e-19)
(0.973968 0.132081 1.70635e-20)
(0.940843 0.340994 1.33881e-20)
(1.00206 0.0361365 6.32178e-20)
(1.01534 -0.00254158 -4.29908e-21)
(1.06418 0.169321 -2.86939e-21)
(0.92693 0.133478 1.32761e-19)
(1.13393 0.475705 -4.29867e-19)
(1.00042 0.0344001 -2.90383e-22)
(1.03589 -0.0134095 -1.59609e-19)
(1.04287 0.197207 -5.57841e-20)
(1.01443 0.124993 -3.29913e-19)
(1.1525 0.537432 8.28341e-20)
(1.00759 0.0245242 -9.5619e-21)
(1.02968 -0.00646701 4.47287e-20)
(1.07279 0.197898 2.58723e-20)
(1.0025 0.15396 4.51175e-19)
(1.37442 0.668738 -4.29e-19)
(0.984722 0.0223858 -1.65317e-21)
(1.08745 -0.0245673 9.13135e-20)
(1.01977 0.230798 -5.167e-20)
(1.27847 0.0639185 9.22324e-19)
(1.30546 0.71313 -3.45095e-19)
(0.942981 -0.00974696 -1.37103e-21)
(1.16689 -0.00649883 -7.29069e-20)
(0.905403 0.150559 4.69606e-21)
(1.39086 0.0507244 -3.07386e-19)
(1.20378 0.531767 -4.3652e-20)
(0.98996 -0.0291633 4.24482e-21)
(1.09074 0.0174894 1.27901e-35)
(1.01141 0.117265 2.33881e-21)
(1.317 0.000840769 1.04318e-19)
(1.33877 0.376249 1.57008e-19)
(1.06545 -0.0602802 3.84723e-21)
(0.906684 0.0101263 -2.79439e-20)
(1.27203 0.0257475 1.94084e-20)
(1.13751 -0.0269231 2.28279e-20)
(1.44236 0.253126 -2.37698e-19)
(0.955989 -0.0214639 -3.92016e-20)
(0.761945 -0.0204365 -2.47872e-21)
(1.02115 -0.0109282 2.20518e-20)
(0.689679 -0.00399647 -1.99422e-20)
(1.08472 0.0842951 -5.31157e-20)
(1.75716 0.643214 2.832e-19)
(1.86264 0.647782 7.2048e-19)
(2.10941 0.532951 -1.01886e-18)
(2.18965 0.480187 2.23941e-20)
(2.38396 0.308171 4.25198e-19)
(1.68883 0.410832 6.39789e-20)
(1.73099 0.409037 9.1121e-19)
(1.95255 0.35111 1.02073e-19)
(1.96655 0.286628 -8.39531e-19)
(2.18708 0.225812 -2.68197e-19)
(1.67489 0.276405 -2.18498e-19)
(1.76032 0.251686 -1.41068e-19)
(1.87958 0.219429 1.65777e-19)
(1.93238 0.161276 -2.59799e-19)
(2.04048 0.140319 2.38112e-19)
(1.66974 0.184778 3.6216e-19)
(1.74835 0.157963 -1.60777e-21)
(1.82327 0.131819 2.01175e-19)
(1.87279 0.09179 1.62384e-19)
(1.9457 0.0725726 -1.63752e-19)
(1.28747 0.0506338 -4.68579e-20)
(1.37141 0.0314248 2.29485e-19)
(1.40447 0.018095 9.30695e-20)
(1.4535 0.00110915 -1.96219e-19)
(1.46016 -0.00539157 3.70625e-22)
(1.35424 -0.0263754 8.44615e-20)
(2.42704 -0.00896622 -6.04974e-19)
(2.64402 -0.00201881 1.62401e-18)
(2.60928 0.0453362 7.59905e-19)
(2.36183 0.0515864 -5.17547e-19)
(0.926673 0.114547 2.01773e-19)
(2.2237 0.149347 -6.81098e-19)
(2.62688 0.162717 -9.77189e-19)
(2.62471 0.168349 1.34755e-18)
(2.42305 0.162604 -1.00545e-18)
(0.36314 0.125921 -2.06695e-21)
(1.6647 0.251775 8.53645e-19)
(2.3851 0.307986 1.31183e-19)
(2.65915 0.324401 1.50506e-18)
(2.60721 0.286305 8.41585e-19)
(0.0277167 0.023634 2.49261e-19)
(0.824326 0.216944 3.01116e-19)
(1.7009 0.34787 -1.03909e-18)
(2.22834 0.415295 1.09869e-19)
(2.63737 0.454224 1.043e-18)
(-0.0783505 -0.064483 1.94088e-19)
(0.19977 0.069151 -2.30505e-19)
(0.858438 0.261403 -1.93634e-19)
(1.41058 0.400369 3.08299e-19)
(2.02938 0.564865 1.96114e-19)
(-0.0816474 -0.0983587 6.45421e-20)
(-0.0375684 -0.0628246 1.0237e-19)
(0.276665 0.056271 8.76976e-20)
(0.584462 0.233933 -4.51495e-19)
(1.31169 0.492133 8.44505e-21)
(-0.0688633 -0.120736 -5.02953e-20)
(-0.0864758 -0.14157 -2.7059e-20)
(0.0282 -0.0654524 6.33189e-20)
(0.167856 0.120015 -6.6436e-20)
(0.586887 0.411748 -1.40121e-21)
(-0.0492962 -0.109722 -5.81591e-20)
(-0.0705649 -0.132401 7.53224e-21)
(-0.0283108 -0.0476492 -2.96558e-20)
(0.0185135 0.110902 -1.93216e-19)
(0.155398 0.338169 3.02698e-19)
(-0.024343 -0.0969834 -3.80375e-20)
(-0.0185066 -0.144341 -1.51611e-19)
(0.0293129 -0.0489451 2.97578e-19)
(0.096769 0.145899 3.92682e-19)
(0.177462 0.405582 -2.36293e-20)
(0.00192889 -0.170591 1.03336e-20)
(0.0448037 -0.284404 -2.5505e-20)
(0.0986354 -0.219625 3.62541e-21)
(0.178977 -0.0410105 2.72054e-20)
(0.280414 0.21826 2.10045e-19)
(1.47017 0.731437 -2.33915e-20)
(0.0130896 0.236596 2.84328e-20)
(0.463304 -0.120127 -1.52704e-19)
(0.901036 -0.099579 -3.71936e-19)
(0.802248 -0.0114408 9.62952e-22)
(1.35437 0.859849 1.52262e-19)
(-1.01847 0.373525 1.32922e-18)
(0.368178 -0.299099 1.11181e-18)
(1.05466 -0.163843 -2.42074e-20)
(1.03079 0.0108193 3.41152e-20)
(0.704058 1.04849 -6.44774e-19)
(-1.91708 0.356583 3.95795e-18)
(0.421876 -0.858842 1.88255e-19)
(0.980538 -0.27991 2.95839e-19)
(1.18642 0.0220652 2.94746e-20)
(0.216218 1.22021 9.33348e-19)
(-0.975047 0.274936 -4.94981e-18)
(0.496847 -1.12647 -7.88355e-19)
(0.863691 -0.399183 1.89471e-20)
(1.25144 0.00168624 2.34595e-21)
(0.566631 1.38819 1.71241e-19)
(0.429668 0.266582 1.55598e-19)
(0.926479 -1.21782 1.02063e-19)
(0.986598 -0.530912 -8.89887e-20)
(1.32934 -0.0387084 -2.2622e-20)
(-0.252433 0.068914 -4.13192e-20)
(-0.41958 -0.185282 0)
(-0.164919 -0.100739 -9.7757e-20)
(0.0883189 -0.068077 6.20159e-20)
(0.356621 -0.0238588 -2.21091e-20)
(1.72888 0.631782 0)
(0.730134 0.210358 0)
(0.61119 -0.0645651 3.19059e-19)
(0.647037 -0.0977106 2.03338e-19)
(0.626904 -0.0467378 1.71523e-20)
(0.746921 0.00678737 -1.30423e-19)
(0.814041 0.00257817 3.52978e-19)
(0.906152 0.0408653 -3.23861e-20)
(0.826111 0.0279265 3.96939e-19)
(1.13777 0.20427 2.21517e-19)
(1.69469 0.0447686 1.26477e-19)
(1.89691 0.0949246 5.43954e-19)
(1.94792 0.195873 -9.70658e-19)
(2.32665 0.279331 4.2862e-19)
(2.27176 0.489358 7.06634e-19)
(0.965375 -0.523435 1.95912e-20)
(0.957986 -0.621768 -2.11973e-19)
(0.956014 -0.728352 -1.76014e-19)
(0.890455 -0.805647 1.06206e-19)
(0.550014 -0.642403 1.49667e-19)
(0.861094 -0.429702 1.09443e-19)
(0.805505 -0.500167 1.50702e-19)
(0.731088 -0.577131 -1.07424e-19)
(0.617613 -0.646001 1.57825e-19)
(0.344685 -0.522061 4.37916e-20)
(0.684201 -0.29147 -1.14669e-19)
(0.596365 -0.337292 -6.30029e-20)
(0.496177 -0.394242 1.04467e-20)
(0.377137 -0.444211 -4.75618e-20)
(0.175729 -0.357644 -1.44951e-19)
(0.57328 -0.0600622 -4.37793e-19)
(0.487129 -0.0804625 -3.50285e-19)
(0.375814 -0.109845 2.85569e-19)
(0.246834 -0.145209 1.42886e-19)
(0.0759627 -0.136534 1.28761e-20)
(0.541548 0.150383 -1.35676e-19)
(0.454888 0.147859 -1.54999e-19)
(0.335832 0.141278 -3.8614e-20)
(0.195231 0.138731 5.39556e-20)
(0.0333362 0.100711 1.42547e-20)
(2.18512 -0.023645 9.86752e-19)
(2.41376 -0.0960752 3.60507e-19)
(2.51132 -0.187721 -9.10072e-19)
(2.39963 -0.214882 -1.93417e-18)
(1.49026 -0.212805 1.51215e-19)
(2.11033 -0.12887 1.59909e-18)
(2.23422 -0.244788 2.09345e-18)
(2.27069 -0.373149 1.75235e-19)
(2.20449 -0.435663 3.06682e-19)
(1.44358 -0.406396 -2.05644e-19)
(1.83911 -0.300801 -4.05076e-18)
(1.89534 -0.423488 4.53657e-19)
(1.94333 -0.557041 1.29149e-18)
(1.903 -0.640926 -5.09111e-19)
(1.25973 -0.563086 8.10786e-19)
(1.59147 -0.432011 9.91095e-19)
(1.61823 -0.538554 -2.61433e-18)
(1.62052 -0.666584 -3.00698e-18)
(1.56386 -0.763946 9.4062e-19)
(1.02362 -0.646148 6.22622e-19)
(1.29664 -0.500345 2.24044e-19)
(1.25219 -0.600968 2.91517e-19)
(1.24449 -0.731209 -4.64945e-19)
(1.19559 -0.827499 -5.642e-19)
(0.76901 -0.67225 -5.39241e-21)
(1.06334 0.0500698 6.90502e-21)
(0.949196 0.049925 1.69773e-21)
(1.12355 0.0769752 1.05723e-20)
(0.841859 -0.00876545 -2.6895e-19)
(1.15164 -0.228995 -2.22571e-20)
(1.07271 0.0514981 -2.28863e-21)
(0.942714 0.044902 2.18937e-20)
(1.12364 0.095447 6.16368e-21)
(0.913105 0.033467 2.3888e-19)
(1.03881 -0.115163 6.78823e-21)
(1.06968 0.0468502 -5.41948e-20)
(0.945269 0.0376303 -1.10977e-22)
(1.10656 0.100231 -5.50289e-21)
(0.911101 0.0501353 1.33803e-19)
(0.992815 -0.0535773 -2.77638e-19)
(1.05012 0.0446121 6.39394e-20)
(0.968 0.0298392 2.63743e-21)
(1.07352 0.108161 2.00983e-20)
(0.940891 0.0755754 -7.04779e-20)
(0.888454 0.0536072 5.68768e-20)
(1.02267 0.0411367 1.57616e-20)
(0.997662 0.0244889 -2.25056e-20)
(1.04321 0.117426 3.21386e-20)
(0.958651 0.0971194 3.02751e-20)
(0.857621 0.155402 -1.68199e-20)
(0.88835 0.0336089 0)
(0.721718 0.0276208 8.40826e-21)
(0.613323 0.0209306 7.37127e-21)
(0.370381 -0.00935831 5.64757e-20)
(0.726963 -0.0575805 -1.81943e-19)
(1.03162 0.0719444 -6.23561e-20)
(0.958047 0.0684073 8.76527e-22)
(1.03401 0.0780264 -6.99296e-20)
(0.83135 -0.011143 -1.59459e-19)
(1.08511 -0.211467 -1.92955e-19)
(1.01219 -0.069124 -4.21236e-20)
(1.10475 -0.0378945 6.08506e-19)
(1.2119 0.0361083 3.59774e-19)
(1.078 0.0596863 2.89746e-20)
(0.84035 0.0325693 0)
(1.37111 -0.330157 4.1099e-19)
(1.49516 -0.290331 1.73413e-18)
(1.68873 -0.16661 -1.87327e-18)
(1.78763 -0.0197181 -5.97051e-19)
(1.72479 0.0380217 4.52859e-19)
)
;

boundaryField
{
    left
    {
        type            fixedValue;
        value           uniform (1 0 0);
    }
    right
    {
        type            zeroGradient;
    }
    down
    {
        type            noSlip;
    }
    up
    {
        type            noSlip;
    }
    cylinder
    {
        type            noSlip;
    }
    defaultFaces
    {
        type            empty;
    }
}


// ************************************************************************* //
