# Selection   : all
# Cells       : 440
# Volume      : 7.374263e+01
# Time        	max(p)
2.3           	1.867030e+00
2.35          	1.894523e+00
2.4           	1.886190e+00
