/*--------------------------------*- C++ -*----------------------------------*\
  =========                 |
  \\      /  F ield         | OpenFOAM: The Open Source CFD Toolbox
   \\    /   O peration     | Website:  https://openfoam.org
    \\  /    A nd           | Version:  13
     \\/     M anipulation  |
\*---------------------------------------------------------------------------*/
FoamFile
{
    format      ascii;
    class       volScalarField;
    location    "0.0575";
    object      p;
}
// * * * * * * * * * * * * * * * * * * * * * * * * * * * * * * * * * * * * * //

dimensions      [0 2 -2 0 0 0 0];

internalField   nonuniform List<scalar> 
1800
(
-0.838185
-0.717429
-0.602089
-0.496646
-0.405428
-0.326936
-0.258874
-0.199291
-0.146377
-0.1015
-0.979885
-0.846184
-0.718079
-0.600061
-0.497253
-0.408308
-0.330862
-0.263009
-0.203602
-0.154097
-1.1098
-0.963544
-0.823465
-0.693528
-0.579858
-0.481217
-0.395129
-0.319609
-0.253422
-0.197246
-1.22303
-1.06485
-0.913906
-0.772953
-0.649358
-0.541928
-0.448051
-0.365622
-0.293318
-0.231429
-1.31458
-1.14538
-0.98491
-0.83405
-0.701636
-0.586436
-0.485664
-0.397099
-0.319321
-0.252193
-1.37955
-1.20052
-1.03207
-0.872581
-0.732653
-0.610858
-0.504226
-0.410427
-0.327947
-0.256267
-1.41343
-1.22619
-1.05139
-0.884662
-0.738757
-0.611723
-0.500421
-0.40244
-0.316175
-0.240784
-1.41249
-1.21886
-1.03947
-0.866923
-0.716867
-0.586107
-0.471461
-0.370466
-0.281443
-0.203282
-1.37414
-1.17539
-0.99381
-0.816729
-0.66471
-0.531874
-0.415303
-0.312546
-0.221861
-0.14194
-1.2971
-1.09272
-0.913487
-0.732175
-0.581219
-0.447973
-0.330907
-0.227632
-0.136337
-0.0556483
0.281416
0.304386
0.327707
0.34383
0.354105
0.36045
0.364016
0.365522
0.365487
0.364363
0.252365
0.278617
0.305288
0.324534
0.337585
0.346391
0.352138
0.355574
0.357247
0.357709
0.196909
0.228453
0.260249
0.284289
0.301597
0.314162
0.323229
0.329597
0.333856
0.336732
0.116881
0.155681
0.194183
0.224551
0.24748
0.264992
0.278411
0.288603
0.296219
0.302222
0.0148879
0.0626774
0.109265
0.147338
0.177119
0.200641
0.219322
0.234112
0.245733
0.255441
-0.105707
-0.047544
0.00831812
0.0553155
0.0930438
0.123514
0.14825
0.168299
0.184464
0.198339
-0.240906
-0.171329
-0.105163
-0.0481673
-0.0015119
0.0367479
0.0682468
0.0941343
0.115297
0.133718
-0.386275
-0.304513
-0.227124
-0.159161
-0.102656
-0.0557822
-0.0168048
0.0155097
0.0421069
0.0653984
-0.537223
-0.442713
-0.353272
-0.273452
-0.206176
-0.149781
-0.102456
-0.0629292
-0.0302054
-0.00145017
-0.689265
-0.581659
-0.479462
-0.38702
-0.308056
-0.241062
-0.184126
-0.135923
-0.0952257
-0.0595304
0.326291
0.23585
0.203679
0.17323
0.144799
0.11791
0.0916244
0.0655094
0.0393318
0.0130933
0.329495
0.244488
0.210136
0.178036
0.148261
0.120331
0.0932685
0.0665608
0.0399128
0.0132715
0.325702
0.253051
0.21665
0.18305
0.151994
0.123009
0.0951258
0.06777
0.0405899
0.0134814
0.314597
0.261051
0.223195
0.188248
0.155978
0.12593
0.0971877
0.0691312
0.0413601
0.0137225
0.295945
0.267692
0.229683
0.19359
0.160183
0.129077
0.0994429
0.0706375
0.0422198
0.0139943
0.269905
0.271824
0.235906
0.199013
0.164574
0.132429
0.101878
0.0722806
0.0431649
0.0142961
0.237174
0.272231
0.241489
0.20442
0.169105
0.13596
0.104479
0.0740508
0.0441904
0.0146268
0.198129
0.268865
0.246061
0.209696
0.173731
0.139644
0.107227
0.0759375
0.0452907
0.0149853
0.153504
0.26095
0.2492
0.214701
0.178408
0.143465
0.110115
0.0779344
0.0464623
0.015371
0.106736
0.249691
0.25133
0.219534
0.183162
0.147433
0.113147
0.0800443
0.0477077
0.0157893
0.101867
0.256152
0.258846
0.226171
0.188431
0.151374
0.115955
0.0819097
0.0488022
0.0162052
0.107705
0.249157
0.254932
0.225604
0.18936
0.152648
0.117087
0.0827311
0.0492997
0.0163862
0.129353
0.246221
0.251859
0.224615
0.189675
0.153444
0.117901
0.0833584
0.0496895
0.0165292
0.155101
0.24516
0.248941
0.223171
0.189448
0.153807
0.118415
0.0837955
0.0499726
0.0166361
0.181439
0.245579
0.246224
0.221388
0.18877
0.153784
0.118648
0.0840484
0.0501508
0.0167075
0.20509
0.246696
0.243651
0.219357
0.187731
0.153428
0.118626
0.0841285
0.0502285
0.0167442
0.223889
0.24766
0.24108
0.217129
0.186405
0.152793
0.118377
0.0840497
0.0502111
0.0167472
0.236589
0.24764
0.238298
0.214701
0.184836
0.151915
0.117925
0.0838231
0.0501025
0.0167172
0.241928
0.245672
0.234911
0.21193
0.182965
0.150762
0.117244
0.0834281
0.0498828
0.0166398
0.245616
0.247703
0.235619
0.212316
0.183275
0.151039
0.117474
0.083594
0.0499837
0.016676
0.0817529
-0.00204424
-0.065076
-0.107858
-0.131781
-0.138834
-0.13111
-0.111528
-0.0816866
-0.0508384
0.231827
0.149591
0.08413
0.0349153
0.000954846
-0.0193587
-0.0274134
-0.0270008
-0.017303
-0.0110384
0.346656
0.267811
0.202731
0.15115
0.112372
0.0851081
0.0683839
0.0588336
0.0579607
0.0538566
0.434982
0.358959
0.294769
0.242283
0.200971
0.1698
0.147884
0.132569
0.124453
0.114543
0.502565
0.428913
0.36569
0.312894
0.270124
0.236548
0.211273
0.192336
0.179438
0.166248
0.553904
0.482034
0.419594
0.366684
0.323009
0.287901
0.260464
0.239262
0.223335
0.208161
0.592036
0.521308
0.459295
0.406187
0.361786
0.325563
0.296658
0.273988
0.25615
0.239711
0.619015
0.548732
0.486654
0.433053
0.387827
0.350584
0.320542
0.29689
0.277942
0.260912
0.636172
0.565379
0.50244
0.447699
0.401141
0.362505
0.331145
0.306538
0.286979
0.270426
0.644648
0.571914
0.506785
0.449655
0.400635
0.359619
0.326076
0.299896
0.27918
0.264626
1.78592
1.74268
1.69699
1.64891
1.5957
1.53534
1.46599
1.38605
1.29748
1.20185
1.57476
1.52579
1.47404
1.41743
1.35384
1.28165
1.19901
1.10444
1.00074
0.887746
1.34979
1.29713
1.23998
1.17609
1.1037
1.02118
0.926573
0.818519
0.700904
0.570832
1.12847
1.07078
1.00725
0.935731
0.854566
0.761986
0.655831
0.534887
0.404404
0.257586
0.914836
0.851511
0.781388
0.702333
0.612655
0.510418
0.393259
0.260135
0.118124
-0.0448927
0.710988
0.642395
0.566176
0.48021
0.382751
0.271689
0.144433
0.00011519
-0.151564
-0.329991
0.51989
0.446841
0.365403
0.273512
0.169378
0.0506903
-0.0854876
-0.240102
-0.398964
-0.591728
0.344869
0.268355
0.182768
0.0861631
-0.0232343
-0.147879
-0.291407
-0.456607
-0.619321
-0.824645
0.189085
0.110137
0.0214963
-0.0785938
-0.191823
-0.320295
-0.468297
-0.646143
-0.809911
-1.02212
0.0552069
-0.0252394
-0.115918
-0.218364
-0.334422
-0.466193
-0.611455
-0.801955
-0.966971
-1.18203
3.12444
3.14653
3.17442
3.20541
3.23671
3.2675
3.29736
3.32566
3.35183
3.36936
3.06495
3.08513
3.1107
3.13907
3.16753
3.19522
3.22165
3.24616
3.26822
3.2825
2.98442
3.00176
3.0238
3.04822
3.07236
3.09532
3.11655
3.13526
3.15099
3.1606
2.88344
2.89713
2.91454
2.93376
2.95223
2.96896
2.9833
2.99438
3.00182
3.00478
2.76302
2.77232
2.78413
2.79702
2.80856
2.8177
2.82365
2.82542
2.82279
2.81683
2.62468
2.62897
2.6343
2.63983
2.64333
2.64363
2.63982
2.63078
2.6165
2.5994
2.47059
2.46932
2.4674
2.46466
2.45909
2.44942
2.43461
2.41342
2.3861
2.35585
2.30323
2.29602
2.28621
2.27435
2.25877
2.23812
2.21119
2.1767
2.13517
2.09012
2.12766
2.11417
2.0954
2.07315
2.04634
2.01351
1.97331
1.9244
1.86769
1.80652
1.94896
1.9258
1.89599
1.86229
1.82348
1.77776
1.72359
1.65958
1.58713
1.50899
3.41068
1.91549
2.90523
2.8394
2.82169
2.82233
2.83627
2.87105
2.95423
3.04882
3.40257
1.9048
2.89813
2.83094
2.81185
2.81045
2.82124
2.85126
2.92442
3.00773
3.39601
1.89207
2.89271
2.82266
2.8015
2.79741
2.80406
2.82772
2.88608
2.95447
3.39087
1.87748
2.88908
2.81453
2.79063
2.78323
2.78475
2.80039
2.83969
2.88845
3.38696
1.86129
2.88737
2.80647
2.7792
2.76789
2.76336
2.76922
2.78584
2.80911
3.38406
1.84385
2.88772
2.79835
2.76717
2.75139
2.7399
2.73414
2.72492
2.71638
3.38191
1.82559
2.89023
2.78995
2.75447
2.73374
2.71437
2.69503
2.65649
2.61121
3.38024
1.80702
2.89497
2.78104
2.74107
2.71492
2.68673
2.65193
2.58258
2.49254
3.37872
1.78876
2.90195
2.77129
2.72698
2.69497
2.65703
2.60512
2.50479
2.35879
3.37683
1.7715
2.91107
2.76042
2.71228
2.67404
2.62578
2.55638
2.42704
2.21752
3.37561
1.75625
2.90696
2.74957
2.69433
2.64652
2.58314
2.48993
2.32286
2.05067
3.37861
1.74591
2.88941
2.7399
2.67616
2.61807
2.54031
2.42753
2.23572
1.94903
3.38208
1.73879
2.87475
2.7302
2.65937
2.59206
2.50211
2.37419
2.16688
1.87991
3.3869
1.73446
2.86293
2.72106
2.6442
2.56889
2.46884
2.32932
2.1132
1.82931
3.39395
1.7326
2.85379
2.71295
2.63094
2.5489
2.44074
2.29258
2.07218
1.79187
3.40407
1.73299
2.84711
2.70618
2.61984
2.53233
2.41787
2.26354
2.04173
1.76496
3.41813
1.73547
2.8426
2.70094
2.61106
2.51932
2.40021
2.2417
2.02014
1.74683
3.43736
1.73988
2.83988
2.69732
2.60474
2.50996
2.38768
2.22658
2.00615
1.73632
3.46073
1.74693
2.83844
2.69529
2.60094
2.50428
2.38022
2.21794
1.99925
1.73362
3.50558
1.75228
2.83925
2.69312
2.59806
2.50007
2.37465
2.21127
1.99321
1.73012
1.75498
1.56847
1.36162
1.16104
0.969424
0.786381
0.613826
0.454471
0.310999
0.185896
1.66343
1.51651
1.35071
1.18426
1.0221
0.864827
0.714528
0.573874
0.445343
0.330988
1.60546
1.48181
1.34143
1.19737
1.05598
0.91827
0.785725
0.660406
0.544307
0.439127
1.56739
1.45885
1.33742
1.21097
1.08529
0.96184
0.841978
0.727573
0.620513
0.522502
1.54362
1.44539
1.33716
1.22331
1.10897
0.995885
0.885355
0.779085
0.678835
0.586211
1.5297
1.43862
1.33954
1.23464
1.12846
1.02286
0.919075
0.818696
0.723389
0.63469
1.52273
1.43662
1.3438
1.24507
1.14459
1.0442
0.945113
0.848823
0.756924
0.670905
1.52095
1.43827
1.3496
1.25489
1.15807
1.06103
0.964919
0.871179
0.781348
0.696873
1.52531
1.44515
1.35881
1.26603
1.17089
1.07529
0.980379
0.887559
0.798326
0.714095
1.53436
1.45697
1.37133
1.27876
1.18381
1.08823
0.993119
0.899822
0.80978
0.724345
-2.52193
-2.25415
-2.02054
-1.80238
-1.62771
-1.48571
-1.37128
-1.28068
-1.21107
-1.16071
-2.64455
-2.386
-2.14916
-1.93504
-1.76005
-1.6181
-1.50391
-1.41353
-1.34392
-1.29339
-2.65545
-2.40568
-2.17338
-1.96436
-1.79174
-1.65131
-1.53795
-1.44776
-1.37777
-1.32596
-2.56812
-2.33024
-2.1069
-1.90587
-1.73847
-1.60152
-1.49023
-1.40089
-1.3307
-1.27772
-2.40358
-2.18126
-1.97064
-1.78075
-1.62151
-1.49036
-1.38289
-1.29563
-1.22594
-1.17257
-2.18553
-1.98156
-1.78705
-1.61129
-1.46308
-1.34024
-1.23872
-1.15535
-1.08766
-1.03533
-1.93604
-1.75215
-1.57628
-1.41709
-1.28237
-1.17012
-1.07673
-0.999331
-0.935619
-0.886248
-1.67303
-1.51001
-1.35417
-1.21306
-1.0935
-0.993574
-0.910031
-0.840355
-0.782477
-0.737768
-1.40955
-1.26734
-1.13176
-1.00929
-0.905717
-0.819087
-0.746493
-0.685699
-0.634824
-0.596547
-1.15424
-1.03217
-0.916094
-0.811981
-0.724407
-0.651318
-0.59003
-0.538346
-0.493786
-0.45813
-0.912463
-0.809313
-0.711456
-0.624872
-0.552979
-0.493799
-0.445222
-0.405778
-0.37396
-0.346212
-0.687219
-0.601331
-0.519806
-0.448953
-0.391007
-0.343916
-0.305759
-0.275165
-0.250979
-0.229645
-0.480684
-0.410172
-0.34289
-0.285671
-0.239676
-0.202771
-0.173177
-0.149617
-0.131038
-0.114594
-0.294924
-0.237839
-0.182771
-0.137162
-0.101292
-0.0729944
-0.0506394
-0.0330814
-0.0193836
-0.00734337
-0.132053
-0.0863744
-0.0416074
-0.00570909
0.0217022
0.0427771
0.0590028
0.0713929
0.0807565
0.0887555
0.0059091
0.0423329
0.0786532
0.106662
0.127202
0.142371
0.153538
0.161605
0.167279
0.171788
0.11728
0.146726
0.176473
0.198402
0.213648
0.224245
0.231465
0.236128
0.238857
0.240549
0.200894
0.225645
0.250757
0.268437
0.27999
0.287389
0.291833
0.294083
0.294704
0.294347
0.256143
0.278344
0.300828
0.316123
0.325612
0.331227
0.334123
0.335023
0.334458
0.332925
0.282896
0.304529
0.326425
0.341208
0.350277
0.355544
0.358148
0.3588
0.358014
0.356224
-0.140515
0.0748753
0.12384
0.130514
0.123302
0.107737
0.0873827
0.0641578
0.0390973
0.0130956
-0.0510749
0.111246
0.137872
0.136456
0.125072
0.107805
0.086861
0.0635485
0.0386589
0.0129479
0.0287399
0.139444
0.148613
0.140796
0.12658
0.108001
0.0865254
0.0630982
0.0383226
0.012833
0.0969657
0.16113
0.157459
0.144789
0.128146
0.108387
0.0863915
0.0628113
0.038089
0.0127513
0.154795
0.178338
0.16506
0.14858
0.129835
0.108987
0.0864689
0.0626906
0.0379585
0.0127024
0.203549
0.191445
0.171911
0.152334
0.131703
0.109822
0.0867644
0.062738
0.0379311
0.0126862
0.243563
0.201863
0.178321
0.15616
0.133789
0.110907
0.087283
0.0629548
0.0380069
0.0127027
0.275279
0.210624
0.184622
0.160128
0.136124
0.112253
0.088028
0.0633412
0.0381856
0.0127517
0.299489
0.219029
0.190931
0.164281
0.13873
0.113868
0.0890006
0.0638968
0.0384666
0.0128332
0.316296
0.227361
0.197279
0.168644
0.14162
0.115753
0.0902002
0.0646203
0.0388491
0.0129471
-0.327816
-0.0144523
0.0795376
0.110496
0.114161
0.10384
0.0859537
0.063795
0.0391155
0.0131729
-0.302428
-0.0049175
0.0838297
0.112335
0.114959
0.104179
0.086086
0.0638372
0.0391226
0.0131714
-0.270814
0.0119463
0.0921178
0.116027
0.116527
0.104801
0.0862939
0.063876
0.0391039
0.0131528
-0.235863
0.0314985
0.102245
0.120695
0.11854
0.105766
0.0867203
0.064049
0.0391626
0.0131619
-0.193499
0.0537105
0.114148
0.126321
0.121449
0.107068
0.0873505
0.0643475
0.0392927
0.0131958
-1.09627
-1.21485
-1.25545
-1.23661
-1.17459
-1.08645
-0.982381
-0.868873
-0.749688
-0.635934
-1.10195
-1.22922
-1.27058
-1.24282
-1.16497
-1.05345
-0.92353
-0.791748
-0.664054
-0.561974
-1.10895
-1.23887
-1.2768
-1.24004
-1.14939
-1.02595
-0.888852
-0.755013
-0.629121
-0.533191
-1.11932
-1.24897
-1.28258
-1.23876
-1.13988
-1.00941
-0.86768
-0.730493
-0.603708
-0.504619
-1.13475
-1.26567
-1.29618
-1.2466
-1.14112
-1.0046
-0.857778
-0.71396
-0.57841
-0.456352
2.54657
2.52552
2.49867
2.46947
2.43669
2.39858
2.35382
2.30108
2.24145
2.17958
2.69111
2.68287
2.67043
2.65601
2.63846
2.61641
2.58876
2.55428
2.51362
2.47092
2.82161
2.8208
2.81894
2.81667
2.81209
2.8039
2.79111
2.77261
2.74866
2.72253
2.93451
2.94016
2.94683
2.95424
2.96014
2.96332
2.96292
2.9579
2.94825
2.9359
3.02664
3.03781
3.05162
3.06702
3.08157
3.09414
3.10402
3.11026
3.11262
3.11125
3.09752
3.11317
3.13273
3.15455
3.17602
3.19613
3.21426
3.2296
3.24172
3.24856
3.14666
3.16574
3.18969
3.21638
3.24311
3.26894
3.29336
3.31565
3.3353
3.34783
3.17386
3.19531
3.22229
3.25232
3.28265
3.3124
3.34112
3.36817
3.39298
3.40941
3.17908
3.20185
3.23049
3.26235
3.29463
3.3265
3.35755
3.38716
3.41476
3.43343
3.16249
3.18549
3.21444
3.24662
3.27921
3.31143
3.34284
3.37286
3.40089
3.41994
-0.915808
-0.968794
-1.04043
-1.13268
-1.248
-1.38971
-1.56263
-1.78668
-1.99705
-2.28666
-0.558997
-0.619813
-0.69783
-0.794929
-0.913315
-1.05645
-1.23003
-1.43779
-1.64658
-1.93682
-0.114434
-0.188981
-0.277455
-0.381816
-0.504303
-0.648244
-0.817799
-1.01413
-1.22405
-1.49139
0.364949
0.277217
0.179557
0.0698148
-0.0543492
-0.196033
-0.358991
-0.545429
-0.748182
-0.988581
0.825626
0.732726
0.63262
0.523276
0.402482
0.267422
0.114635
-0.0585319
-0.247033
-0.460261
1.23899
1.14992
1.05503
0.952577
0.840657
0.716881
0.578229
0.42217
0.25259
0.0667529
1.59879
1.51934
1.43501
1.34421
1.24532
1.13639
1.01491
0.878623
0.73065
0.572114
1.91086
1.84275
1.77106
1.69406
1.61018
1.51782
1.41491
1.29949
1.1741
1.04206
2.1852
2.12637
2.06576
2.00203
1.93304
1.85726
1.77293
1.67826
1.57522
1.46823
2.41343
2.36404
2.31323
2.26268
2.20925
2.15075
2.08543
2.01155
1.93046
1.8469
3.567
1.92306
3.06644
2.90595
2.87771
2.87376
2.87465
2.87277
2.8306
2.76386
3.54674
1.92651
3.0429
2.90476
2.8766
2.8739
2.878
2.88617
2.86417
2.85716
3.52709
1.93018
3.0208
2.90136
2.87451
2.87311
2.88099
2.8983
2.89842
2.9373
3.50822
1.9335
3.00035
2.89618
2.87131
2.87119
2.88226
2.90737
2.92954
2.99867
3.49031
1.936
2.98166
2.88963
2.86697
2.86803
2.8817
2.91283
2.95543
3.04446
3.47352
1.93724
2.96475
2.88211
2.86154
2.86359
2.87925
2.91486
2.97412
3.07708
3.458
1.93689
2.94958
2.87395
2.85511
2.85786
2.87484
2.91338
2.98613
3.09613
3.44388
1.93468
2.93609
2.86542
2.8478
2.85084
2.86839
2.90829
2.99074
3.10224
3.43127
1.93043
2.92422
2.85672
2.83973
2.84255
2.85984
2.89955
2.98727
3.09576
3.42023
1.92405
2.91393
2.84801
2.831
2.83304
2.84914
2.88714
2.97519
3.07811
3.72755
1.94834
3.08331
2.91887
2.88241
2.86883
2.85166
2.81897
2.71059
2.57774
3.67877
1.94286
3.08102
2.91835
2.88205
2.86929
2.85347
2.82279
2.7177
2.58048
3.64676
1.93588
3.08142
2.91627
2.88143
2.87008
2.8564
2.82896
2.7303
2.58694
3.61698
1.9295
3.08085
2.91288
2.88034
2.8711
2.86086
2.83877
2.7518
2.61038
3.58923
1.92376
3.0799
2.90822
2.87881
2.8722
2.86655
2.85208
2.78221
2.65475
2.30479
2.16834
1.94848
1.647
1.27186
0.822507
0.322813
-0.169033
-0.581857
-0.888484
2.2868
2.14126
1.92201
1.62946
1.27141
0.844278
0.361977
-0.124835
-0.551565
-0.878445
2.29608
2.13709
1.91052
1.62073
1.27163
0.857989
0.388474
-0.0970658
-0.535147
-0.876263
2.33479
2.15575
1.91612
1.62379
1.27595
0.8663
0.401136
-0.0855681
-0.531391
-0.881576
2.40268
2.1931
1.93154
1.63097
1.2803
0.871132
0.407925
-0.0794524
-0.531394
-0.890576
)
;

boundaryField
{
    left
    {
        type            zeroGradient;
    }
    right
    {
        type            fixedValue;
        value           uniform 0;
    }
    down
    {
        type            zeroGradient;
    }
    up
    {
        type            zeroGradient;
    }
    cylinder
    {
        type            zeroGradient;
    }
    defaultFaces
    {
        type            empty;
    }
}


// ************************************************************************* //
