/*--------------------------------*- C++ -*----------------------------------*\
  =========                 |
  \\      /  F ield         | OpenFOAM: The Open Source CFD Toolbox
   \\    /   O peration     | Website:  https://openfoam.org
    \\  /    A nd           | Version:  13
     \\/     M anipulation  |
\*---------------------------------------------------------------------------*/
FoamFile
{
    format      ascii;
    class       surfaceScalarField;
    location    "0.945";
    object      phi;
}
// * * * * * * * * * * * * * * * * * * * * * * * * * * * * * * * * * * * * * //

dimensions      [0 3 -1 0 0 0 0];

internalField   nonuniform List<scalar> 
823
(
0.0113783
-0.0505538
0.0391755
0.0387598
-0.133435
0.106053
0.0788335
-0.205877
0.165804
0.130172
-0.26887
0.217532
-0.323261
0.259419
0.194014
0.0107034
-0.0612572
0.0361439
-0.158875
0.0726491
-0.242382
0.117973
-0.314194
-0.375601
0.170313
0.00837712
-0.0696343
0.0282853
-0.178784
0.0567257
-0.270823
0.0918102
-0.349279
-0.41605
0.13226
0.00529925
-0.0749335
0.0179955
-0.19148
0.0362294
-0.289057
0.0588834
-0.371933
-0.442414
0.0852473
0.00196194
-0.0768955
0.00662994
-0.196148
0.0132895
-0.295716
0.0215216
-0.380165
0.0310617
-0.451954
0.00661309
-0.0107683
0.00415509
0.0221227
-0.0309441
0.0154344
0.0453057
-0.0485484
0.0253654
0.0744371
-0.0639962
0.0348648
-0.0770933
0.108077
0.0434539
0.00573777
-0.0165061
0.0214332
-0.0466395
0.0466136
-0.0737289
0.0796285
-0.0970111
-0.116136
0.118671
0.00638812
-0.0228943
0.023637
-0.0638883
0.0511921
-0.101284
0.0878469
-0.133666
-0.16014
0.131852
0.00753531
-0.0304296
0.027083
-0.0834361
0.0573044
-0.131505
0.0969989
-0.17336
-0.207909
0.144767
0.0087459
0.0313632
0.0656614
0.109833
0.161343
0.322409
-0.958605
0.744273
0.474596
-0.824242
0.672054
0.575379
-0.358028
0.257245
0.619348
-0.0702507
0.0262818
0.00258221
-0.00825407
0.330087
-1.17002
0.470758
-0.964913
0.576769
-0.464039
0.643891
-0.137372
-0.0229349
0.336247
-1.37442
0.460481
-1.08915
0.562667
-0.566225
0.644116
-0.218822
-0.066646
0.337225
-1.56687
0.447456
-1.19938
0.540433
-0.659202
0.615599
-0.293988
-0.106317
0.32761
-1.73314
0.427834
-1.2996
0.508704
-0.740071
0.571743
-0.357027
-0.136881
1.19773
-1.59056
-1.34032
1.00765
-1.10952
0.885154
-0.617573
0.825069
-0.296942
-0.113748
1.32965
-1.13312
-1.78709
0.981534
-0.761404
0.77269
-0.408728
0.676321
-0.200573
-0.0794095
1.18935
-0.607674
-1.7148
0.81607
-0.388121
0.609936
-0.202594
0.510804
-0.101441
-0.0418534
0.822342
-0.185289
-1.24473
0.545285
-0.111063
0.396272
-0.053582
0.32215
-0.0273194
-0.0121552
0.306715
-0.492004
0.195652
0.14207
0.114751
1.56259
0.0462489
-1.57778
1.52169
0.126153
1.46266
0.191283
1.39634
0.236635
0.250039
1.67586
0.0356505
-1.66526
1.69931
0.102694
1.7308
0.159794
1.76527
0.202166
0.228225
1.38797
0.0184771
-1.37079
1.43705
0.053608
1.51387
0.0829775
1.61014
0.105892
0.123567
0.977699
0.00531441
-0.964536
1.01588
0.0154233
1.07582
0.0230448
1.15388
0.0278276
0.0327213
0.392987
-0.387673
0.408411
0.431455
0.459283
0.128769
0.327629
-0.264674
-0.191725
0.0781585
0.273215
-0.222604
0.0385249
0.209792
-0.170158
0.0113404
0.136442
-0.109257
0.0519521
-0.0406118
0.115953
0.378907
-0.167231
0.0714991
0.317669
0.0356198
0.245671
0.0105617
0.1615
0.0625138
0.0888495
0.418274
-0.128217
0.0548115
0.351707
0.0272883
0.273195
0.0080652
0.180723
0.070579
0.0552406
0.443533
-0.0804992
0.0337631
0.373184
0.0166551
0.290302
0.00486435
0.192514
0.0754434
0.0174805
-0.025902
0.0104997
0.00508594
0.00145208
0.072702
0.0873814
-0.107361
-0.0527222
0.0429308
0.0737545
-0.0439832
0.0197575
0.0569779
-0.0338046
0.00514442
0.0368364
-0.0222234
0.0133075
-0.00816311
0.0760116
0.125962
-0.114592
0.0437107
0.106055
0.0196363
0.0810523
0.0050878
0.0513849
0.0183953
0.0843429
0.168598
-0.126979
0.0490513
0.141347
0.0227135
0.10739
0.00616708
0.0679314
0.0245625
0.0940164
0.2147
-0.140118
0.0557445
0.179619
0.0265128
0.136622
0.00742398
0.0870202
0.0319865
0.107384
-0.157358
0.0643992
0.0308625
0.00862529
0.513557
0.177656
-0.295233
0.564211
0.158267
-0.208922
0.497964
0.314057
-0.24781
0.335387
0.802725
-0.640149
1.04194
-0.81391
0.515061
0.0585754
0.563236
0.110092
0.488837
0.388456
0.331602
0.95996
1.25895
0.515871
-0.0613155
0.550171
0.0757924
0.467933
0.470693
0.328003
1.09989
1.45997
0.512429
-0.177765
0.527725
0.060496
0.442103
0.556316
0.323629
1.21837
1.64348
0.499821
-0.281606
0.494366
0.0659515
0.412311
0.638371
0.311805
1.31887
1.79793
0.761875
-0.43946
0.840798
-0.0129722
0.955975
0.523194
1.16944
1.1054
1.61978
1.34759
0.70506
-0.540499
0.778499
-0.0864121
0.953547
0.348147
1.29748
0.761467
1.14353
1.77373
0.602245
-0.538724
0.632362
-0.116529
0.803193
0.177316
1.17243
0.392231
0.612046
1.70391
0.448512
-0.383215
0.405083
-0.0731007
0.535839
0.0465598
0.815995
0.112075
0.18691
1.24113
0.220805
0.147704
0.194264
0.306339
0.493249
1.4026
-0.246741
1.46575
-0.230375
1.523
-0.185465
1.56316
-0.120659
-0.0405262
1.75264
-0.225646
1.71972
-0.19746
1.69061
-0.156349
1.67083
-0.100881
-0.0349545
1.60146
-0.123193
1.50876
-0.104757
1.43456
-0.0821509
1.38705
-0.0533738
-0.0186959
1.15107
-0.0331348
1.07431
-0.0279902
1.0153
-0.0231447
0.977572
-0.0156457
-0.00566045
0.460114
0.432124
0.408979
0.393333
0.00250157
0.043009
-0.0455106
0.00732842
0.101057
-0.105884
0.0160961
0.148403
-0.157171
0.0165795
0.151918
-0.152401
0.114035
0.014815
-0.11227
0.00682888
0.0361801
0.0201792
0.0877067
0.0409604
0.127622
0.0482581
0.14462
0.116388
0.0459044
0.00880997
0.0273702
0.0270786
0.0694381
0.0521541
0.102547
0.0730969
0.123677
0.114042
0.0754433
0.00780178
0.0195684
0.025515
0.0517248
0.0497512
0.0783106
0.0774356
0.0959929
0.099247
0.0922304
0.00509888
0.0144695
0.0179732
0.0388505
0.0367678
0.059516
0.0600134
0.0727472
0.0767442
0.0825162
0.00342317
0.0110463
0.0125789
0.0296947
0.027445
0.04465
0.0470652
0.053127
0.0561444
0.067665
0.00222149
0.00882483
0.00893386
0.0229823
0.0222831
0.0313007
0.0410467
0.0343634
0.034748
0.0624431
0.00168175
0.0071431
0.010164
0.0145001
0.0262465
0.0152183
0.0468237
0.0137862
0.011476
0.0700955
0.00377966
0.00336345
0.0176034
0.000676265
0.0369596
-0.00413791
0.0599995
-0.00925387
-0.0144537
0.0859291
0.00751845
0.0236291
0.0448566
0.0704675
0.0994677
0.153968
0.0195184
-0.105821
0.243696
-0.130676
0.0409478
0.265186
-0.038427
0.016937
0.269862
0.0046539
-0.00933028
-0.000692155
-0.00519509
0.215035
-0.133074
0.32571
-0.241351
0.352044
-0.0647612
0.354227
0.0024711
-0.00301599
0.260417
-0.323395
0.39193
-0.372863
0.434457
-0.107288
0.435461
0.00146766
-0.000792884
0.293662
-0.531128
0.439332
-0.518534
0.503726
-0.171681
0.509948
-0.00475437
0.00449456
0.312612
0.466132
0.551696
0.573223
0.0707084
0.0386398
-0.109348
0.0787231
-0.00801466
0.0831233
-0.00440023
0.080372
0.00275131
0.00130044
0.194224
-0.261405
0.227157
0.239694
0.233115
0.0207331
-0.00433173
-0.0164013
0.034284
-0.0135509
0.0567635
-0.0224795
0.0856242
-0.0288608
-0.023724
0.0539263
-0.043443
0.0862798
0.139244
0.202613
0.047822
-0.0551586
0.0763608
-0.0690242
0.0275536
-0.0521789
0.0724473
0.0123373
-0.0443864
0.0596028
0.00331837
-0.0300428
0.0390617
-0.0112608
0.0145792
0.0453542
-0.0322856
-0.0682274
0.0249358
-0.0317605
0.00980971
-0.0292604
0.00218714
-0.0224202
-0.00907365
0.0560304
-0.00670719
-0.0816088
0.0330976
-0.00882774
0.0142567
-0.0104196
0.00258085
-0.0107443
-0.00649279
0.0701405
0.0215516
-0.0983992
0.0448527
0.01646
0.0233734
0.0110598
0.00692102
0.00570804
0.000428205
0.0745182
-0.105689
0.0469951
0.0242503
0.00773496
0.0165861
-0.114033
-0.0148234
0.0160951
-0.15191
0.00730704
-0.148383
0.00248927
-0.101066
-0.0430213
0.0482733
-0.116377
-0.0459289
0.0409339
-0.144571
0.020165
-0.127614
0.00682164
-0.0877227
-0.0361997
0.0731266
-0.113971
-0.0755327
0.0521258
-0.12357
0.0270667
-0.102555
0.00880683
-0.0694629
-0.0273929
0.077341
-0.0989751
-0.0923371
0.0496233
-0.0958525
0.0254349
-0.0783666
0.00777619
-0.0518041
-0.0196167
0.059949
-0.0825634
0.0365438
0.0177799
0.0050375
0.341908
0.583356
-0.529285
0.280576
0.22498
-0.163648
0.247126
0.0559413
-0.0224914
0.165218
0.112849
-0.0309412
-0.00109935
0.0972934
0.407667
0.571669
0.371356
0.261291
0.33533
0.0919673
0.233467
0.214712
0.16414
0.459546
0.508103
0.451311
0.269526
0.409038
0.13424
0.283735
0.340016
0.366266
0.494335
0.409747
0.514064
0.249797
0.461473
0.186831
0.318017
0.483471
0.585885
0.510494
0.551369
0.490391
0.333713
0.15867
0.351381
0.0848062
0.0738635
0.0798151
0.0049911
0.0724144
0.00740066
-0.0369829
0.109397
0.332148
0.242363
0.224863
0.201322
0.261633
0.0856732
0.0237241
0.0567955
0.0288777
0.0342951
0.0225004
0.0207366
0.0135585
0.00433523
0.202793
0.139334
0.0863015
0.0539312
)
;

boundaryField
{
    left
    {
        type            calculated;
        value           nonuniform List<scalar> 
17
(
-0.60402
-0.60402
-0.60402
-0.60402
-0.60402
-0.39598
-0.39598
-0.39598
-0.39598
-0.39598
-0.39598
-0.39598
-0.39598
-0.39598
-0.39598
-0.510051
-0.510051
)
;
    }
    right
    {
        type            calculated;
        value           nonuniform List<scalar> 
17
(
0.0790716
0.22922
0.275749
0.356551
0.433237
0.50466
0.569464
0.62502
0.669408
0.687827
0.65527
0.602308
0.801935
0.641982
0.473248
0.292452
0.102595
)
;
    }
    down
    {
        type            calculated;
        value           uniform 0;
    }
    up
    {
        type            calculated;
        value           uniform 0;
    }
    cylinder
    {
        type            calculated;
        value           uniform 0;
    }
    defaultFaces
    {
        type            empty;
    }
}


// ************************************************************************* //
