/*--------------------------------*- C++ -*----------------------------------*\
  =========                 |
  \\      /  F ield         | OpenFOAM: The Open Source CFD Toolbox
   \\    /   O peration     | Website:  https://openfoam.org
    \\  /    A nd           | Version:  13
     \\/     M anipulation  |
\*---------------------------------------------------------------------------*/
FoamFile
{
    format      ascii;
    class       volScalarField;
    location    "0.945";
    object      strainRateViscosityModel:nu;
}
// * * * * * * * * * * * * * * * * * * * * * * * * * * * * * * * * * * * * * //

dimensions      [0 2 -1 0 0 0 0];

internalField   nonuniform List<scalar> 
440
(
9.41953
8.96974
8.54455
8.04241
7.5862
9.68995
9.35817
8.98179
8.48006
7.87557
9.80074
9.53084
9.15877
8.58509
7.84826
9.84962
9.61817
9.25861
8.64755
7.86607
9.86917
9.65606
9.30591
8.68093
7.90878
1.30882
1.79049
2.04956
2.29951
2.36363
3.38719
3.3019
3.31539
3.42317
3.49387
5.89264
5.27129
4.92717
4.7266
4.75615
7.76951
6.99346
6.42024
5.90438
5.82662
8.82061
8.15139
7.55214
6.91816
6.87141
1.85062
0.845558
0.42448
0.16819
0.18696
2.61432
0.905763
0.368377
0.140062
0.0771377
3.5106
1.14497
0.300502
0.108948
0.0201268
4.09041
1.43276
0.274882
0.0564859
0.101646
4.6034
1.74995
0.319668
0.0114672
0.193767
4.22901
1.73903
0.310985
0.0817258
0.292446
3.71209
1.82522
0.636015
0.305802
0.410942
4.92022
3.20809
1.24395
0.559288
0.517377
7.00949
4.2877
1.91829
0.899755
0.63391
8.27286
5.07575
2.49615
1.30362
0.808865
2.84817
3.68247
4.61954
5.50535
6.14855
3.68377
3.69671
3.77236
3.85237
3.36795
8.22648
8.08652
7.7993
7.38545
6.34651
9.0529
8.99236
8.85902
8.62148
8.16013
9.60671
9.56995
9.48702
9.33805
9.1188
7.50319
8.01245
8.55947
9.01088
9.46415
7.79401
8.45169
8.98717
9.37788
9.70863
7.77901
8.55907
9.15944
9.54077
9.80944
7.81628
8.62756
9.25739
9.62275
9.85359
7.89134
8.67365
9.30535
9.65743
9.87034
2.53553
2.47651
2.2765
2.12202
2.05103
3.48102
3.43315
3.47403
3.69447
4.2487
4.63528
4.65871
5.04955
5.5997
6.45267
5.68277
5.82504
6.49702
7.18777
8.04126
6.75282
6.84138
7.58021
8.24264
8.93533
0.213887
0.0630372
0.286144
0.876206
2.02953
0.187813
0.078736
0.232002
0.89323
2.66119
0.169658
0.080378
0.173006
1.082
3.4392
0.157661
0.0605071
0.155292
1.38422
3.94019
0.158257
0.0649477
0.245999
1.73227
4.36308
0.20544
0.102642
0.274162
1.86821
4.09973
0.338704
0.120303
0.28216
1.81734
3.8623
0.669225
0.236668
0.772658
3.03785
4.90867
2.27575
0.813182
1.50827
4.16247
6.96074
5.05796
2.53623
2.41811
5.03734
8.27917
5.94666
5.26575
4.40212
3.51027
2.77973
3.52259
3.99138
3.97115
3.87645
3.76368
6.3211
7.35231
7.77899
8.06766
8.21845
8.12118
8.59991
8.84942
8.98861
9.05202
9.11695
9.33782
9.48741
9.57051
9.60696
9.3109
7.9169
1.39868
3.63026
7.73685
9.08189
7.44086
3.20604
1.64078
6.7891
8.39875
6.57777
4.20856
1.00362
4.14772
6.81574
5.09481
3.45532
1.70081
1.0387
4.50395
3.14528
2.03878
1.37806
0.460172
2.59751
1.61862
1.0026
0.797383
0.926971
1.45666
0.779341
0.580498
0.613968
0.686581
0.800963
0.406877
0.592378
0.761179
0.834428
0.304925
0.509764
0.886864
1.05283
1.11418
0.16359
0.935624
1.2818
1.51826
1.57285
0.19066
0.363419
0.712255
0.780225
0.733738
0.396473
0.502637
0.58114
0.639733
0.62648
0.616027
0.650077
0.467069
0.496511
0.51576
0.968148
0.798923
0.420324
0.357946
0.403498
1.33182
0.848244
0.426522
0.242131
0.289413
1.10597
0.859735
1.12623
1.11099
0.995815
0.283412
0.472855
0.868331
0.923019
0.845473
9.1912
8.8387
7.75889
5.73035
3.55987
8.58734
7.72297
5.85165
3.49147
0.865836
0.964469
0.858062
1.02667
1.62022
2.65828
0.81281
0.76675
0.703317
0.824367
1.52688
1.05931
1.01054
0.847276
0.552753
0.745392
1.38529
1.3483
1.15036
0.798497
0.229133
1.85855
1.81186
1.55956
1.24129
0.598685
7.73638
3.6272
1.39996
7.91514
9.31104
6.7853
1.64061
3.20266
7.43777
9.08253
4.13443
1.01085
4.1944
6.5732
8.40033
1.0369
1.70529
3.43375
5.08574
6.82226
0.475952
1.37617
2.01483
3.12778
4.52682
1.31272
0.540649
0.551188
0.452062
0.175633
0.679218
0.28931
0.469298
0.518887
0.485102
0.40207
0.15004
0.382584
0.62115
0.803747
0.292958
0.066269
0.342539
0.77491
1.22447
0.248098
0.0465052
0.320492
0.862163
1.59088
5.48152
2.46087
1.03479
0.958226
1.14175
2.88813
1.08741
0.724447
0.553769
0.252447
3.56818
5.73584
7.76006
8.83923
9.19135
0.843801
3.47231
5.84509
7.7216
8.58718
)
;

boundaryField
{
    left
    {
        type            calculated;
        value           nonuniform List<scalar> 
17
(
0.461418
1.12727
2.18761
3.90987
6.58065
0.305884
0.189793
0.139058
0.144619
0.215417
2.9597
2.06293
1.34216
0.825231
0.502788
6.97891
4.57985
)
;
    }
    right
    {
        type            calculated;
        value           nonuniform List<scalar> 
17
(
0.996112
0.846926
0.735889
0.629448
0.518263
0.402908
0.282569
0.172162
0.0617538
0.0175823
0.12277
0.248508
0.357021
0.463711
0.549497
0.646181
0.800995
)
;
    }
    down
    {
        type            calculated;
        value           nonuniform List<scalar> 
20
(
5.99537
3.00032
1.14436
1.04075
1.8532
4.27031
6.38394
8.13151
9.01585
9.3093
9.30913
9.0152
8.13001
6.37991
4.26422
1.83185
0.934246
1.19275
1.16793
1.04261
)
;
    }
    up
    {
        type            calculated;
        value           nonuniform List<scalar> 
20
(
8.54864
5.4038
2.72553
1.45436
0.876201
9.69562
9.66615
9.59857
9.47421
9.2934
9.29641
9.47647
9.60018
9.66726
9.69603
5.70583
3.14788
2.65823
5.39318
8.56559
)
;
    }
    cylinder
    {
        type            calculated;
        value           nonuniform List<scalar> 
40
(
1.37593
3.59229
6.11887
7.96022
8.95699
9.50511
9.74576
9.84079
9.88145
9.89745
9.54741
9.76282
9.84855
9.88495
9.89848
2.28971
4.52663
6.69965
8.23427
9.0698
3.0437
1.85064
1.09526
0.447919
0.605608
9.51907
9.33192
8.74238
7.26986
4.98631
9.5189
9.33118
8.74031
7.26161
4.95774
2.96616
1.73391
1.07389
0.666713
0.102805
)
;
    }
    defaultFaces
    {
        type            empty;
    }
}


// ************************************************************************* //
