/*--------------------------------*- C++ -*----------------------------------*\
  =========                 |
  \\      /  F ield         | OpenFOAM: The Open Source CFD Toolbox
   \\    /   O peration     | Website:  https://openfoam.org
    \\  /    A nd           | Version:  13
     \\/     M anipulation  |
\*---------------------------------------------------------------------------*/
FoamFile
{
    format      ascii;
    class       volScalarField;
    location    "8.68";
    object      p;
}
// * * * * * * * * * * * * * * * * * * * * * * * * * * * * * * * * * * * * * //

dimensions      [0 2 -2 0 0 0 0];

internalField   nonuniform List<scalar> 
440
(
-1.16896
-1.14645
-1.14318
-1.11906
-1.19323
-1.23067
-1.20739
-1.18231
-1.15727
-1.13697
-1.3603
-1.32146
-1.27391
-1.21503
-1.15352
-1.49961
-1.44598
-1.34147
-1.21938
-1.09656
-1.58993
-1.51498
-1.34708
-1.1746
-1.01896
-1.05632
-1.0729
-1.1171
-1.18379
-1.2603
-1.21211
-1.21684
-1.24078
-1.28383
-1.33617
-1.23403
-1.22438
-1.22016
-1.22877
-1.24325
-1.19237
-1.17338
-1.15245
-1.14113
-1.14547
-1.14524
-1.12641
-1.10461
-1.08142
-1.09648
-1.64803
-0.480303
0.455308
-0.0831056
0.11976
-1.73416
-0.719187
0.532112
-0.115303
0.103802
-1.47619
-0.881221
0.498052
-0.138807
0.071961
-1.30535
-0.931653
0.407146
-0.20022
0.0237582
-1.28552
-0.869917
0.473268
-0.128077
-0.0609773
-1.02581
-0.625399
0.566729
0.150119
-0.134097
-0.608449
-0.286403
0.211907
0.206298
-0.0855071
-0.45838
-0.0980394
0.280069
0.289336
-0.00136594
-0.322941
-0.0407063
0.291995
0.268711
-0.0125152
-0.214433
-0.0789953
0.308946
0.346819
0.0303982
-0.754798
-0.868752
-1.03236
-1.20166
-1.35331
-0.492025
-0.609864
-0.698172
-0.754639
-0.779691
-0.313845
-0.416267
-0.478119
-0.51617
-0.537939
-0.203338
-0.295186
-0.353791
-0.383076
-0.392322
-0.149597
-0.239381
-0.292866
-0.312077
-0.299999
0.65309
0.490056
0.282684
0.0531372
-0.196106
0.21285
0.0406473
-0.168301
-0.404876
-0.673601
-0.215907
-0.390119
-0.609395
-0.853228
-1.10628
-0.592469
-0.771323
-0.992757
-1.2298
-1.42583
-0.844707
-1.0258
-1.23356
-1.45067
-1.57955
1.8094
1.83588
1.85687
1.86259
1.85117
1.60163
1.61814
1.62725
1.6177
1.58619
1.3732
1.35388
1.31003
1.24241
1.14674
1.11439
1.07375
0.994791
0.883246
0.741165
0.885827
0.770838
0.622498
0.453763
0.250039
1.60535
1.59826
1.57331
1.6456
1.71049
1.59445
1.58553
1.55141
1.621
1.6101
1.58456
1.56999
1.52734
1.58447
1.4848
1.576
1.55199
1.50207
1.53082
1.30556
1.56885
1.53288
1.47576
1.47962
1.11359
1.56332
1.50383
1.44256
1.36689
0.901734
1.56062
1.46582
1.43225
1.23442
1.03179
1.56848
1.44797
1.41872
1.17895
1.09252
1.56262
1.41788
1.41094
1.12397
1.12813
1.59983
1.41231
1.40895
1.08707
1.15603
0.620146
0.300323
-0.0551899
-0.370205
-0.569338
0.508373
0.280014
0.0444381
-0.165104
-0.342
0.487762
0.300204
0.127139
-0.0307673
-0.187387
0.55518
0.373009
0.206012
0.0573211
-0.0849888
0.599065
0.412928
0.247281
0.101029
-0.0348256
-1.05385
-0.946338
-0.807741
-0.697169
-0.63115
-1.12526
-1.07029
-0.968359
-0.886895
-0.841096
-1.06591
-1.02252
-0.966333
-0.924148
-0.901268
-0.944587
-0.9119
-0.877899
-0.853189
-0.838565
-0.858142
-0.840731
-0.822143
-0.806335
-0.815892
-0.810442
-0.80468
-0.793903
-0.785598
-0.769373
-0.800041
-0.799246
-0.797805
-0.801167
-0.802479
-0.799883
-0.80265
-0.810682
-0.821651
-0.827181
-0.769099
-0.775155
-0.79108
-0.813489
-0.831353
-0.843131
-0.860133
-0.898002
-0.94747
-0.993259
-0.800797
0.0504737
0.122125
0.128518
0.0861242
-0.777147
0.167033
0.161289
0.127447
0.0959998
-0.785226
0.240536
0.221577
0.111091
0.104509
-0.896244
0.148322
0.29236
0.0689516
0.112635
-1.20509
-0.151092
0.370301
-0.00261408
0.118765
-0.468796
-0.123159
-0.023546
0.085288
0.0745492
-0.695883
-0.0943974
0.0334474
0.120518
0.0874352
-0.592196
-0.82219
-0.8863
-0.854073
-0.675901
-0.60863
-0.825103
-0.894656
-0.842892
-0.839863
1.57313
1.55935
1.53068
1.48841
1.43217
1.73791
1.76048
1.77067
1.76691
1.7495
1.87095
1.90504
1.93372
1.95198
1.95671
1.9396
1.9779
2.01814
2.05075
2.06604
1.91414
1.94861
1.98666
2.01779
2.03102
-0.240151
-0.32622
-0.460988
-0.626307
-0.801291
0.27554
0.16255
0.0112097
-0.169077
-0.38271
0.735336
0.616986
0.476302
0.312235
0.117189
1.10072
1.01097
0.901655
0.770383
0.616364
1.39196
1.33192
1.2541
1.16116
1.0533
1.67289
1.63451
1.62479
1.64619
1.67755
1.65677
1.63034
1.62139
1.65755
1.72526
1.64265
1.62483
1.61636
1.67082
1.78163
1.62939
1.61796
1.60623
1.67247
1.78371
1.61692
1.60942
1.59137
1.6643
1.7629
1.73029
1.64373
1.61799
1.58106
1.55773
1.68442
1.6332
1.6112
1.59731
1.57594
1.29214
1.11031
0.786203
0.310695
-0.214862
1.35962
1.13569
0.800425
0.329086
-0.207208
)
;

boundaryField
{
    left
    {
        type            zeroGradient;
    }
    right
    {
        type            fixedValue;
        value           uniform 0;
    }
    down
    {
        type            zeroGradient;
    }
    up
    {
        type            zeroGradient;
    }
    cylinder
    {
        type            zeroGradient;
    }
    defaultFaces
    {
        type            empty;
    }
}


// ************************************************************************* //
