# Selection   : all
# Cells       : 440
# Volume      : 7.374263e+01
# Time        	maxMag(U)
9.315         	2.809678e+00
9.36          	2.833440e+00
9.41          	2.858496e+00
