/*--------------------------------*- C++ -*----------------------------------*\
  =========                 |
  \\      /  F ield         | OpenFOAM: The Open Source CFD Toolbox
   \\    /   O peration     | Website:  https://openfoam.org
    \\  /    A nd           | Version:  13
     \\/     M anipulation  |
\*---------------------------------------------------------------------------*/
FoamFile
{
    format      ascii;
    class       volScalarField;
    location    "2.65";
    object      p;
}
// * * * * * * * * * * * * * * * * * * * * * * * * * * * * * * * * * * * * * //

dimensions      [0 2 -2 0 0 0 0];

internalField   nonuniform List<scalar> 
1800
(
-1.46921
-1.46646
-1.46001
-1.4491
-1.43582
-1.42355
-1.41635
-1.41961
-1.4338
-1.49015
-1.49516
-1.49142
-1.48526
-1.47616
-1.46536
-1.4548
-1.44701
-1.44501
-1.44899
-1.47725
-1.53932
-1.53296
-1.52564
-1.51692
-1.50727
-1.49738
-1.488
-1.47985
-1.47475
-1.47573
-1.59689
-1.58749
-1.57789
-1.56773
-1.55646
-1.54333
-1.52782
-1.51013
-1.49083
-1.47147
-1.6691
-1.65684
-1.64451
-1.63128
-1.61501
-1.59386
-1.56719
-1.53567
-1.50092
-1.46539
-1.75657
-1.74146
-1.72538
-1.70616
-1.68001
-1.64531
-1.60295
-1.55531
-1.50496
-1.45446
-1.85456
-1.83733
-1.81565
-1.78611
-1.74473
-1.69197
-1.63148
-1.56749
-1.50329
-1.44152
-1.95539
-1.93598
-1.90578
-1.86099
-1.79978
-1.72633
-1.64714
-1.56737
-1.49014
-1.41722
-2.04727
-2.02507
-1.98309
-1.9191
-1.83557
-1.74133
-1.64481
-1.55118
-1.46295
-1.38117
-2.11681
-2.0906
-2.03443
-1.94908
-1.84339
-1.73023
-1.61867
-1.51315
-1.41528
-1.32529
-1.14819
-1.15309
-1.15984
-1.17125
-1.18908
-1.21262
-1.24027
-1.27013
-1.30018
-1.32947
-1.29516
-1.29811
-1.30302
-1.31482
-1.33477
-1.36182
-1.39421
-1.42979
-1.46582
-1.5004
-1.42987
-1.43055
-1.43294
-1.44503
-1.46659
-1.49634
-1.53238
-1.57255
-1.61371
-1.65249
-1.52798
-1.5248
-1.52562
-1.53676
-1.55831
-1.58877
-1.626
-1.66778
-1.71161
-1.75167
-1.57773
-1.57059
-1.56845
-1.5766
-1.59521
-1.623
-1.658
-1.69805
-1.74054
-1.78027
-1.58293
-1.57295
-1.56729
-1.57004
-1.58187
-1.60239
-1.63039
-1.66417
-1.70165
-1.73791
-1.55923
-1.54869
-1.54021
-1.53633
-1.53828
-1.54711
-1.5631
-1.58565
-1.61376
-1.64406
-1.52457
-1.51583
-1.50638
-1.49707
-1.48938
-1.48563
-1.48784
-1.49714
-1.51414
-1.53857
-1.49118
-1.4853
-1.47643
-1.46418
-1.45008
-1.43733
-1.42947
-1.42949
-1.43998
-1.46221
-1.46813
-1.46473
-1.45713
-1.44433
-1.42856
-1.41323
-1.40266
-1.40138
-1.41199
-1.43638
-1.45144
-0.89735
-0.276402
0.00614592
0.0656451
0.0829471
0.0677338
0.0474535
0.0275598
0.00961154
-1.62567
-1.05375
-0.346792
-0.0211134
0.0573902
0.0793129
0.0656073
0.0460857
0.0266932
0.00924276
-1.78585
-1.21315
-0.428864
-0.0561984
0.0440642
0.072557
0.0619003
0.043924
0.025456
0.00875213
-1.90113
-1.35008
-0.517762
-0.0975923
0.0261105
0.0627427
0.0565711
0.040927
0.0238352
0.00813651
-1.95355
-1.45809
-0.605568
-0.143743
0.00433182
0.0501619
0.0496419
0.0370729
0.0218234
0.00739577
-1.94092
-1.53341
-0.687516
-0.193393
-0.0204304
0.035345
0.0412639
0.0323897
0.0194261
0.00653408
-1.86916
-1.577
-0.761134
-0.245723
-0.0477446
0.0188182
0.0316939
0.0269702
0.0166705
0.00556396
-1.76481
-1.59215
-0.825219
-0.299311
-0.0774389
0.000860084
0.0211468
0.0209278
0.0135983
0.00450851
-1.66765
-1.58357
-0.879264
-0.352112
-0.10901
-0.0183874
0.00969986
0.0143108
0.0102241
0.00338959
-1.57463
-1.55806
-0.924921
-0.402932
-0.141398
-0.0385393
-0.0025169
0.00715046
0.00653381
0.00221029
-1.46744
-1.46149
-0.90677
-0.427248
-0.169414
-0.0610076
-0.017775
-0.0023515
0.00148925
0.000625218
-1.31456
-1.26063
-0.833479
-0.432717
-0.197296
-0.0873127
-0.0364385
-0.0141422
-0.00466512
-0.00133193
-1.18859
-1.1046
-0.777616
-0.442077
-0.223883
-0.111292
-0.0535921
-0.0250163
-0.0103302
-0.00308465
-1.08108
-0.984661
-0.730734
-0.452685
-0.253082
-0.138686
-0.0731938
-0.0370692
-0.0164093
-0.00494318
-0.983193
-0.894874
-0.7008
-0.471118
-0.284998
-0.163707
-0.0895539
-0.0469631
-0.0214398
-0.00638863
-0.897425
-0.827117
-0.681472
-0.493231
-0.319225
-0.191142
-0.107159
-0.0570268
-0.0262358
-0.00766443
-0.822984
-0.774956
-0.673128
-0.521188
-0.353619
-0.215215
-0.121181
-0.064586
-0.0296913
-0.00843103
-0.761862
-0.739198
-0.672156
-0.54633
-0.381318
-0.234328
-0.131729
-0.0700437
-0.0320152
-0.00883487
-0.722848
-0.722957
-0.673382
-0.558062
-0.393027
-0.24359
-0.137361
-0.0729039
-0.0331202
-0.00867828
-0.701633
-0.723838
-0.678232
-0.560418
-0.394117
-0.246536
-0.139949
-0.0746019
-0.034057
-0.00905668
-1.16984
-1.2363
-1.28534
-1.32676
-1.35695
-1.39299
-1.42564
-1.4774
-1.5082
-1.56317
-0.992781
-1.06587
-1.12275
-1.17475
-1.21508
-1.25592
-1.28763
-1.32088
-1.34791
-1.38426
-0.852683
-0.925306
-0.986064
-1.03941
-1.08279
-1.12009
-1.15035
-1.17724
-1.20211
-1.22865
-0.737865
-0.808073
-0.869563
-0.921481
-0.965332
-1.00108
-1.0314
-1.05749
-1.08176
-1.10587
-0.643859
-0.711499
-0.771366
-0.821781
-0.864796
-0.900206
-0.930261
-0.956029
-0.978626
-0.999461
-0.567547
-0.632726
-0.690119
-0.738999
-0.780458
-0.814937
-0.843663
-0.867657
-0.887738
-0.904888
-0.506898
-0.569775
-0.624785
-0.671747
-0.711179
-0.743682
-0.770158
-0.791475
-0.808769
-0.822732
-0.461296
-0.522267
-0.575343
-0.620143
-0.657364
-0.687199
-0.711002
-0.729107
-0.743406
-0.75374
-0.433966
-0.493789
-0.545519
-0.588841
-0.624622
-0.652459
-0.67415
-0.689254
-0.700806
-0.707088
-0.421758
-0.481872
-0.533948
-0.577708
-0.61337
-0.641171
-0.662167
-0.676191
-0.685626
-0.687568
0.327988
0.253242
0.16768
0.0760735
-0.0229047
-0.131742
-0.250319
-0.371971
-0.474252
-0.524146
0.116049
0.0352638
-0.0547707
-0.153264
-0.262147
-0.383135
-0.51508
-0.64957
-0.761503
-0.814765
-0.116167
-0.199991
-0.292788
-0.395741
-0.511056
-0.640047
-0.780936
-0.924035
-1.04257
-1.09712
-0.340262
-0.427829
-0.525086
-0.633573
-0.755184
-0.890876
-1.03861
-1.18791
-1.31001
-1.3634
-0.542638
-0.635239
-0.738341
-0.853202
-0.981477
-1.12388
-1.27694
-1.43164
-1.55059
-1.60377
-0.724475
-0.822151
-0.930587
-1.0508
-1.18424
-1.33203
-1.48886
-1.6405
-1.75681
-1.80846
-0.884687
-0.986392
-1.09872
-1.22248
-1.35893
-1.50787
-1.66381
-1.81105
-1.9213
-1.96945
-1.02747
-1.13013
-1.24281
-1.36661
-1.50232
-1.6488
-1.79949
-1.93801
-2.03809
-2.0813
-1.14984
-1.25024
-1.36031
-1.48097
-1.61237
-1.75222
-1.89273
-2.01736
-2.10411
-2.1415
-1.24985
-1.34579
-1.45072
-1.56514
-1.68833
-1.81692
-1.9421
-2.04843
-2.12002
-2.15146
1.72136
1.73535
1.74975
1.76339
1.77542
1.78515
1.79189
1.79569
1.79878
1.80263
1.64577
1.65649
1.66682
1.6757
1.68243
1.6863
1.68663
1.68378
1.68107
1.68147
1.54926
1.55573
1.5608
1.56358
1.56357
1.56006
1.55238
1.5412
1.53116
1.52738
1.43349
1.43518
1.43398
1.42934
1.42105
1.40841
1.3908
1.36931
1.35018
1.34153
1.29819
1.29407
1.28566
1.27273
1.25532
1.23265
1.20412
1.17127
1.142
1.12794
1.14722
1.13719
1.12065
1.09803
1.06986
1.03543
0.994259
0.948472
0.907901
0.887729
0.980582
0.964077
0.939325
0.907082
0.868003
0.821341
0.766727
0.707039
0.654372
0.627845
0.807476
0.78348
0.748338
0.704117
0.652157
0.591777
0.522697
0.448478
0.383496
0.350562
0.632791
0.601128
0.555086
0.498028
0.431954
0.356267
0.270982
0.180738
0.102674
0.0634184
0.471863
0.422019
0.357985
0.284768
0.203383
0.112207
0.0110258
-0.0946641
-0.185014
-0.229957
1.46881
1.45021
1.44218
1.43943
1.43754
1.44452
1.46529
1.50235
1.56358
1.65921
1.46193
1.44444
1.43679
1.43299
1.43044
1.43456
1.45236
1.48325
1.53368
1.61125
1.45562
1.43867
1.43125
1.42611
1.42275
1.42348
1.43804
1.46104
1.49818
1.55153
1.44985
1.43296
1.42558
1.41884
1.41446
1.41125
1.42241
1.43554
1.45758
1.47931
1.44459
1.42733
1.4198
1.41119
1.40558
1.39788
1.40548
1.40652
1.41258
1.39346
1.43984
1.42184
1.4139
1.40322
1.39608
1.38342
1.38718
1.37391
1.36341
1.29315
1.43559
1.41649
1.40789
1.39494
1.38593
1.36795
1.36739
1.33768
1.31019
1.17678
1.43186
1.41132
1.40176
1.38642
1.37513
1.35156
1.34592
1.29807
1.25268
1.04573
1.42869
1.40634
1.39553
1.37767
1.36369
1.33442
1.32257
1.25525
1.18909
0.898178
1.42611
1.40156
1.38922
1.36869
1.35183
1.31672
1.29835
1.21101
1.12211
0.745715
1.42356
1.39609
1.38114
1.35747
1.3355
1.29358
1.26462
1.15688
1.04544
0.601617
1.42231
1.39061
1.37213
1.3451
1.31666
1.26934
1.22733
1.11064
0.971906
0.580872
1.42302
1.38612
1.36332
1.33345
1.29783
1.24734
1.19198
1.07404
0.91275
0.572794
1.42624
1.38266
1.35473
1.32252
1.27935
1.228
1.1593
1.04538
0.864559
0.57067
1.43255
1.38022
1.3462
1.31216
1.26098
1.21173
1.12941
1.02361
0.827183
0.572268
1.44266
1.37885
1.33792
1.3026
1.24314
1.19861
1.10312
1.00748
0.800269
0.574267
1.45614
1.37679
1.32803
1.29134
1.225
1.18765
1.08103
0.995094
0.782268
0.576911
1.48116
1.37933
1.32179
1.28217
1.2095
1.17891
1.06356
0.986406
0.771029
0.580449
1.49328
1.37155
1.30872
1.2695
1.19537
1.17285
1.05204
0.982169
0.766191
0.585402
1.56954
1.38458
1.31228
1.26558
1.19069
1.17032
1.04628
0.981787
0.764084
0.59048
0.314766
0.141974
-0.0636022
-0.262341
-0.440852
-0.601185
-0.744514
-0.874783
-0.989051
-1.08899
0.267946
0.131632
-0.0240128
-0.181297
-0.327647
-0.463067
-0.587193
-0.705052
-0.811704
-0.910358
0.257433
0.142004
0.0170429
-0.111936
-0.237437
-0.357522
-0.471236
-0.579495
-0.679191
-0.771487
0.276002
0.168905
0.0570244
-0.0550018
-0.165505
-0.273104
-0.377407
-0.476995
-0.571257
-0.658369
0.299452
0.198782
0.0955549
-0.00575774
-0.10545
-0.203668
-0.300609
-0.394372
-0.484166
-0.567257
0.323266
0.228332
0.131687
0.0374291
-0.0551372
-0.147067
-0.238669
-0.328214
-0.414231
-0.49417
0.345793
0.255831
0.164261
0.074694
-0.0135336
-0.101564
-0.189562
-0.275939
-0.358904
-0.436273
0.365988
0.280285
0.192749
0.106145
0.0200304
-0.0662347
-0.152409
-0.236825
-0.317602
-0.392732
0.383395
0.301199
0.216778
0.131426
0.0452259
-0.0414425
-0.127587
-0.211522
-0.291628
-0.366155
0.396654
0.316378
0.233003
0.146768
0.0589434
-0.0290101
-0.115699
-0.199736
-0.279662
-0.35407
-1.23581
-1.20278
-1.13237
-1.04281
-0.9511
-0.86703
-0.794515
-0.734767
-0.688184
-0.655234
-1.29184
-1.2625
-1.20396
-1.12806
-1.04794
-0.973001
-0.907642
-0.853528
-0.811653
-0.78316
-1.29027
-1.26401
-1.21813
-1.1585
-1.09323
-1.03018
-0.973908
-0.926505
-0.889419
-0.863996
-1.24327
-1.21948
-1.18501
-1.14175
-1.09298
-1.04403
-0.99901
-0.960215
-0.92933
-0.907726
-1.16884
-1.14746
-1.12184
-1.09215
-1.05855
-1.02358
-0.990084
-0.959925
-0.934627
-0.914797
-1.08581
-1.06736
-1.04797
-1.02755
-1.00529
-0.981879
-0.9588
-0.937217
-0.918582
-0.903917
-1.00885
-0.994053
-0.979218
-0.964378
-0.949084
-0.933527
-0.918321
-0.904219
-0.891818
-0.881128
-0.945762
-0.935051
-0.924074
-0.912733
-0.901075
-0.889403
-0.878395
-0.868169
-0.860924
-0.856421
-0.897666
-0.891059
-0.883613
-0.874994
-0.865447
-0.85566
-0.846693
-0.840048
-0.835286
-0.842795
-0.861565
-0.858301
-0.853601
-0.846835
-0.838414
-0.829544
-0.821824
-0.818196
-0.817244
-0.836541
-0.837683
-0.83606
-0.832245
-0.82553
-0.817178
-0.808224
-0.800556
-0.796741
-0.796728
-0.794115
-0.830836
-0.829046
-0.825139
-0.818691
-0.810497
-0.801818
-0.794443
-0.79013
-0.789655
-0.786944
-0.837538
-0.835097
-0.831924
-0.827982
-0.823638
-0.819682
-0.817084
-0.816715
-0.818915
-0.822482
-0.844704
-0.842977
-0.84185
-0.841738
-0.842994
-0.846056
-0.851313
-0.858912
-0.868408
-0.878263
-0.846235
-0.846604
-0.847948
-0.850772
-0.855808
-0.862999
-0.87216
-0.882949
-0.895884
-0.900942
-0.843685
-0.84669
-0.85085
-0.856607
-0.864835
-0.875671
-0.88871
-0.903101
-0.918262
-0.936516
-0.844321
-0.849798
-0.856318
-0.864198
-0.874362
-0.887127
-0.90181
-0.91758
-0.935085
-0.958219
-0.865304
-0.872023
-0.879781
-0.888902
-0.901069
-0.915963
-0.93263
-0.950271
-0.969782
-0.993775
-0.921015
-0.928084
-0.93643
-0.946751
-0.960632
-0.977775
-0.997013
-1.01724
-1.03858
-1.06244
-1.01706
-1.02341
-1.03133
-1.04229
-1.05802
-1.07806
-1.10104
-1.12545
-1.15029
-1.17559
-0.866846
-0.919288
-0.583083
-0.354845
-0.162589
-0.0226664
0.029556
0.0357163
0.0250128
0.00949901
-0.949756
-0.939475
-0.503205
-0.261201
-0.109352
-0.00489112
0.0336954
0.0362648
0.0248875
0.0094149
-1.04162
-0.927875
-0.41358
-0.173707
-0.0634047
0.0113893
0.0388175
0.0377188
0.0252338
0.00947745
-1.11659
-0.888631
-0.33394
-0.100792
-0.0259573
0.0267738
0.0447172
0.0397451
0.0258478
0.00961517
-1.16677
-0.837043
-0.274631
-0.046675
0.00278147
0.0412691
0.0507843
0.0419792
0.0265614
0.00977621
-1.17611
-0.781222
-0.233537
-0.0106019
0.0262193
0.0549573
0.0565567
0.044133
0.0272491
0.00992277
-1.16023
-0.72244
-0.205522
0.0135038
0.0450791
0.0665718
0.0614459
0.045947
0.027807
0.0100243
-1.15555
-0.686632
-0.189879
0.0274832
0.0585804
0.0753164
0.0651238
0.0472641
0.0281631
0.0100589
-1.19874
-0.702115
-0.195658
0.0312017
0.0663796
0.0809494
0.0674417
0.047993
0.0282658
0.01001
-1.29982
-0.773411
-0.224672
0.0240175
0.0686682
0.0834849
0.0683292
0.0480732
0.0280754
0.00986443
-0.702466
-0.693085
-0.629628
-0.501677
-0.243529
-0.0524022
0.0240119
0.0369086
0.0267563
0.0103005
-0.695772
-0.684067
-0.629766
-0.507992
-0.247462
-0.0533482
0.0243461
0.0370183
0.0266577
0.010218
-0.709626
-0.710749
-0.636879
-0.508713
-0.250496
-0.0533604
0.0244067
0.0366569
0.0262989
0.0100673
-0.745728
-0.771592
-0.640808
-0.493683
-0.241708
-0.0491374
0.0248884
0.0360723
0.0258055
0.009866
-0.801885
-0.861235
-0.626572
-0.431047
-0.20909
-0.0387903
0.0263655
0.035705
0.0254093
0.00969628
-0.622858
-0.745192
-0.828249
-0.879947
-0.89293
-0.89323
-0.87911
-0.847935
-0.818775
-0.778601
-0.62351
-0.747724
-0.829347
-0.879985
-0.887537
-0.889396
-0.871912
-0.838125
-0.814659
-0.770975
-0.625624
-0.751162
-0.831792
-0.881115
-0.88512
-0.888791
-0.865442
-0.839048
-0.817773
-0.785517
-0.630761
-0.757955
-0.838602
-0.885879
-0.890077
-0.89067
-0.865903
-0.84779
-0.829675
-0.826219
-0.639651
-0.768904
-0.850029
-0.895067
-0.900975
-0.894589
-0.873144
-0.855155
-0.840114
-0.863189
1.42256
1.41508
1.40149
1.38451
1.36492
1.34181
1.3146
1.28505
1.26044
1.24946
1.51382
1.51707
1.51446
1.50783
1.49822
1.48516
1.46823
1.44876
1.43258
1.42592
1.60115
1.60917
1.61295
1.61372
1.61219
1.60796
1.60045
1.59046
1.58218
1.57961
1.67691
1.68896
1.69851
1.706
1.71167
1.715
1.71533
1.71306
1.7112
1.71227
1.7399
1.755
1.76862
1.78081
1.79156
1.80034
1.80651
1.81015
1.81334
1.81733
1.78579
1.80284
1.81953
1.83548
1.85033
1.86352
1.87436
1.88266
1.88975
1.89609
1.81377
1.83201
1.8506
1.86886
1.88619
1.90199
1.91556
1.9266
1.93604
1.94384
1.82192
1.84044
1.8598
1.87905
1.89743
1.9143
1.92895
1.94102
1.95134
1.95967
1.80952
1.82746
1.84639
1.86522
1.88307
1.89929
1.91318
1.92441
1.93399
1.94185
1.77607
1.79253
1.80982
1.82679
1.84252
1.85636
1.86761
1.87608
1.88325
1.88961
-0.481362
-0.520255
-0.57149
-0.63555
-0.713024
-0.803147
-0.90278
-1.00218
-1.08183
-1.11836
-0.268269
-0.312768
-0.368392
-0.435823
-0.516047
-0.609069
-0.713471
-0.819232
-0.90518
-0.943901
-0.0281191
-0.0777042
-0.137288
-0.207261
-0.288784
-0.382373
-0.486463
-0.592763
-0.68387
-0.723307
0.220238
0.167256
0.105498
0.0348626
-0.0457667
-0.137069
-0.237804
-0.341484
-0.42952
-0.470178
0.458806
0.405225
0.344238
0.275902
0.199164
0.113137
0.0186235
-0.0785901
-0.160354
-0.199368
0.674559
0.624109
0.567576
0.50502
0.435383
0.357635
0.272309
0.184564
0.111076
0.0755791
0.864764
0.820832
0.771909
0.71792
0.657743
0.590288
0.515942
0.439319
0.375355
0.34447
1.03621
0.999995
0.959673
0.915087
0.864995
0.808288
0.745296
0.680126
0.625937
0.600022
1.19675
1.1672
1.13365
1.09685
1.05564
1.00885
0.956688
0.902649
0.858004
0.837028
1.33704
1.31374
1.28556
1.25554
1.22305
1.18668
1.14613
1.10393
1.0692
1.05323
1.58706
1.49221
1.47553
1.46908
1.46936
1.48816
1.50952
1.5417
1.55287
1.52011
1.56932
1.4909
1.47524
1.46996
1.46982
1.48842
1.51183
1.54796
1.57387
1.5767
1.55329
1.48855
1.47388
1.46973
1.46938
1.48755
1.51298
1.55392
1.59454
1.63163
1.53884
1.48535
1.47168
1.46853
1.46808
1.48563
1.51265
1.55713
1.60998
1.67408
1.52579
1.48148
1.4688
1.46646
1.46598
1.48274
1.51069
1.55764
1.62031
1.70593
1.51396
1.47705
1.46534
1.46361
1.46308
1.47887
1.50708
1.55541
1.62523
1.72658
1.50321
1.47219
1.46139
1.46001
1.45942
1.474
1.50186
1.55037
1.62447
1.73604
1.49342
1.467
1.45704
1.45574
1.455
1.46814
1.49505
1.54251
1.61793
1.73421
1.48448
1.46155
1.45234
1.45085
1.44986
1.46129
1.48668
1.53188
1.60565
1.7208
1.4763
1.45593
1.44738
1.4454
1.44403
1.45342
1.47675
1.51851
1.58756
1.69576
1.75482
1.49641
1.46731
1.45647
1.46065
1.47708
1.48776
1.50197
1.46207
1.42581
1.68037
1.49032
1.46818
1.45898
1.46187
1.47801
1.48844
1.50326
1.46464
1.4231
1.65739
1.49499
1.47194
1.46189
1.46349
1.47983
1.49104
1.50741
1.47483
1.42502
1.6305
1.49437
1.47389
1.46471
1.46551
1.48249
1.49609
1.51574
1.49316
1.43704
1.60708
1.4932
1.47502
1.46717
1.46763
1.4856
1.50237
1.52732
1.51871
1.45826
1.22516
1.13477
1.01213
0.853486
0.660933
0.440701
0.202981
-0.0371708
-0.263173
-0.460272
1.22001
1.1326
1.01498
0.860929
0.67309
0.456136
0.218929
-0.0237041
-0.254514
-0.457024
1.23086
1.13954
1.01982
0.867327
0.682877
0.468258
0.230924
-0.0142103
-0.249096
-0.45598
1.26221
1.15782
1.02806
0.873474
0.690675
0.477221
0.239135
-0.00851339
-0.247033
-0.45791
1.314
1.18926
1.04167
0.879521
0.695249
0.482161
0.243887
-0.00561902
-0.247773
-0.463169
)
;

boundaryField
{
    left
    {
        type            zeroGradient;
    }
    right
    {
        type            fixedValue;
        value           uniform 0;
    }
    down
    {
        type            zeroGradient;
    }
    up
    {
        type            zeroGradient;
    }
    cylinder
    {
        type            zeroGradient;
    }
    defaultFaces
    {
        type            empty;
    }
}


// ************************************************************************* //
