/*--------------------------------*- C++ -*----------------------------------*\
  =========                 |
  \\      /  F ield         | OpenFOAM: The Open Source CFD Toolbox
   \\    /   O peration     | Website:  https://openfoam.org
    \\  /    A nd           | Version:  13
     \\/     M anipulation  |
\*---------------------------------------------------------------------------*/
FoamFile
{
    format      ascii;
    class       volVectorField;
    location    "2.65";
    object      U;
}
// * * * * * * * * * * * * * * * * * * * * * * * * * * * * * * * * * * * * * //

dimensions      [0 1 -1 0 0 0 0];

internalField   nonuniform List<vector> 
1800
(
(-0.0319829 0.0256162 9.54389e-21)
(-0.076536 0.0505129 4.33349e-21)
(-0.0904866 0.0651991 -6.33733e-20)
(-0.0671452 0.0725225 6.83175e-20)
(0.000437762 0.0738364 1.6609e-19)
(0.11601 0.0691081 6.25387e-20)
(0.280542 0.0596405 -1.46053e-20)
(0.487079 0.0434339 1.14089e-19)
(0.757702 0.0393362 1.93918e-19)
(0.904591 0.059838 2.27378e-19)
(-0.0448887 0.0333124 8.59879e-21)
(-0.0787803 0.0546443 -5.6223e-20)
(-0.0557612 0.0542895 4.88732e-22)
(0.0258652 0.0398641 -6.52247e-20)
(0.169345 0.016428 2.55046e-20)
(0.373058 -0.0127741 1.30101e-19)
(0.628599 -0.0445116 -2.85664e-20)
(0.919137 -0.0791988 -5.86874e-21)
(1.24312 -0.104022 -1.87636e-19)
(1.46392 -0.129074 1.5755e-19)
(-0.0480162 0.0317912 5.4016e-21)
(-0.0537943 0.0446477 1.99566e-20)
(0.0261695 0.0325681 5.74638e-21)
(0.188036 0.00460615 -1.4723e-20)
(0.426013 -0.0313443 -1.53798e-19)
(0.724383 -0.0691931 2.87583e-20)
(1.05749 -0.104572 5.27879e-20)
(1.39709 -0.13407 -2.18679e-20)
(1.71039 -0.156918 -1.34973e-22)
(1.99386 -0.190081 8.30054e-22)
(-0.0390463 0.0228571 -8.76222e-21)
(0.00509988 0.0200243 -2.76537e-20)
(0.164054 -0.00432649 -2.84695e-20)
(0.424435 -0.040157 2.86448e-20)
(0.762036 -0.0780477 2.69237e-20)
(1.13828 -0.111477 1.09839e-20)
(1.51014 -0.137161 -3.75608e-21)
(1.84066 -0.155041 1.07745e-19)
(2.11356 -0.167714 1.09668e-19)
(2.30411 -0.175569 -5.49926e-20)
(-0.0169498 0.0101821 6.59454e-20)
(0.103038 -0.0102729 6.09884e-20)
(0.362815 -0.0429035 -4.34776e-20)
(0.728836 -0.0768361 -5.33917e-20)
(1.14724 -0.104079 -1.58241e-19)
(1.55656 -0.121699 2.47064e-21)
(1.9085 -0.130854 2.2631e-19)
(2.17945 -0.134812 1.02141e-19)
(2.36324 -0.13484 3.042e-22)
(2.48498 -0.143362 -1.03904e-19)
(0.0212536 -0.00409855 -6.37545e-20)
(0.243896 -0.0379634 -1.28302e-20)
(0.617799 -0.0693334 2.24158e-19)
(1.07547 -0.0895117 -7.63806e-20)
(1.53182 -0.0972579 -1.76517e-19)
(1.91934 -0.0963744 3.79589e-19)
(2.20703 -0.0918195 -3.85933e-19)
(2.3954 -0.0872508 -5.43737e-19)
(2.50674 -0.0849294 4.45066e-19)
(2.55949 -0.0855927 2.90102e-21)
(0.0776831 -0.0166134 6.81352e-20)
(0.424723 -0.053333 -1.56572e-19)
(0.908629 -0.0707881 -5.67722e-19)
(1.42194 -0.0680828 2.90016e-19)
(1.86612 -0.0548803 6.5036e-19)
(2.19335 -0.0400651 -2.52104e-21)
(2.4034 -0.028426 -1.39012e-18)
(2.52182 -0.0214755 9.57579e-21)
(2.57786 -0.0177345 1.64985e-18)
(2.59871 -0.0213644 4.52545e-19)
(0.151388 -0.0235239 6.25926e-20)
(0.633221 -0.047985 3.55169e-19)
(1.20436 -0.039572 5.00604e-19)
(1.72969 -0.0114485 -1.11996e-19)
(2.12636 0.0176787 -5.81533e-19)
(2.38172 0.0392368 -2.22535e-19)
(2.52351 0.0518932 0)
(2.58932 0.0574166 6.83391e-19)
(2.61123 0.0578393 -1.33538e-20)
(2.60749 0.0534314 -6.47577e-19)
(0.23845 -0.0207762 5.34571e-20)
(0.850433 -0.0157814 4.07174e-19)
(1.47506 0.0259784 7.7552e-19)
(1.97766 0.07612 -8.35059e-19)
(2.31204 0.114121 -7.34685e-19)
(2.50029 0.1364 2.86715e-19)
(2.58816 0.146098 -1.35338e-18)
(2.61776 0.147629 -1.02298e-18)
(2.61703 0.144619 1.25116e-18)
(2.6009 0.136638 1.08859e-18)
(0.332271 -0.00522424 -2.64685e-20)
(1.05603 0.0449381 3.25722e-19)
(1.7009 0.121815 1.97993e-19)
(2.16062 0.187797 -1.6243e-18)
(2.43183 0.228206 4.33671e-20)
(2.56383 0.246407 3.21597e-18)
(2.61212 0.249996 -1.8612e-18)
(2.61768 0.245589 -1.08413e-18)
(2.60363 0.237008 3.84923e-19)
(2.57894 0.224821 -8.79731e-19)
(-0.0154848 0.266004 2.79186e-19)
(-0.0690285 0.513904 -1.36842e-19)
(-0.136792 0.598806 1.17461e-21)
(-0.208946 0.604836 -3.69672e-20)
(-0.277761 0.579225 2.61165e-21)
(-0.341797 0.541921 2.11121e-19)
(-0.400975 0.499266 1.86249e-19)
(-0.454739 0.452907 -3.34912e-19)
(-0.501936 0.403489 2.32242e-20)
(-0.542489 0.351888 -7.00602e-20)
(-0.0361838 0.303341 -8.69811e-21)
(-0.0932873 0.610398 2.0159e-20)
(-0.151304 0.7288 1.10638e-20)
(-0.208693 0.748569 4.53489e-20)
(-0.262224 0.725318 -1.899e-19)
(-0.311188 0.684854 2.08799e-19)
(-0.35547 0.636186 -3.19341e-19)
(-0.394431 0.581783 -4.19329e-19)
(-0.426218 0.522449 2.65798e-19)
(-0.449111 0.459069 -8.30884e-20)
(-0.0557756 0.30354 -8.47124e-20)
(-0.116604 0.650477 5.38183e-20)
(-0.162134 0.808092 8.78379e-21)
(-0.199301 0.852073 -2.35111e-19)
(-0.232022 0.83898 -7.65365e-20)
(-0.260418 0.800051 8.21295e-19)
(-0.284301 0.74814 -3.23202e-19)
(-0.303193 0.687348 -3.96981e-19)
(-0.315027 0.619023 4.49148e-19)
(-0.315573 0.544107 2.34237e-19)
(-0.06702 0.266409 -7.57602e-20)
(-0.130084 0.62283 -2.48356e-21)
(-0.163544 0.81942 1.97115e-20)
(-0.180479 0.898699 -8.3182e-20)
(-0.18991 0.907586 2.80538e-19)
(-0.194538 0.879146 -2.77183e-19)
(-0.19478 0.830581 -2.54674e-19)
(-0.190245 0.76878 3.05916e-19)
(-0.18074 0.695549 2.03411e-20)
(-0.158853 0.612319 7.32367e-21)
(-0.0656875 0.203017 0)
(-0.129308 0.530464 1.58179e-20)
(-0.155025 0.752031 -7.77685e-20)
(-0.156456 0.871219 1.16362e-19)
(-0.145461 0.913814 3.33333e-19)
(-0.127599 0.907256 -2.81802e-19)
(-0.105019 0.870822 1.16092e-19)
(-0.0782248 0.814878 6.21324e-21)
(-0.047454 0.743083 0)
(-0.00270972 0.657934 1.66128e-20)
(-0.0527507 0.132023 -2.16356e-20)
(-0.112669 0.396161 6.44693e-20)
(-0.135943 0.614999 1.95872e-20)
(-0.130492 0.763263 -3.25393e-20)
(-0.106876 0.842991 4.05624e-20)
(-0.0720619 0.868868 2.07409e-19)
(-0.0301707 0.856435 -5.26666e-19)
(0.0167562 0.8173 -2.5931e-20)
(0.0662332 0.757417 6.12181e-19)
(0.128622 0.681121 1.00646e-20)
(-0.0342208 0.0714006 9.82344e-21)
(-0.0855062 0.256429 1.25406e-19)
(-0.109556 0.441643 -6.05143e-20)
(-0.105896 0.591978 -9.8479e-21)
(-0.080095 0.693921 -6.90141e-20)
(-0.0379829 0.74917 1.09827e-19)
(0.0154698 0.765623 2.05748e-19)
(0.0768379 0.752116 2.70639e-19)
(0.14136 0.714629 -2.6143e-19)
(0.214178 0.658854 -3.38738e-19)
(-0.0177477 0.0310301 2.35275e-20)
(-0.0592607 0.143605 -6.84766e-20)
(-0.0852076 0.276802 -9.82968e-20)
(-0.0882031 0.400347 3.73179e-20)
(-0.0680482 0.496976 -2.37572e-20)
(-0.0278289 0.561262 1.11183e-20)
(0.0280784 0.594836 -2.82783e-20)
(0.0956466 0.602649 1.57468e-19)
(0.169656 0.589231 1.19138e-19)
(0.250656 0.552828 -2.31886e-19)
(-0.0102456 0.0127883 1.23865e-20)
(-0.04807 0.0738275 -1.16057e-19)
(-0.077422 0.154733 1.60456e-19)
(-0.0876725 0.23596 1.61211e-19)
(-0.0746006 0.304917 -9.66633e-20)
(-0.0382603 0.355738 1.69159e-19)
(0.0190946 0.387742 -4.20858e-20)
(0.095001 0.403458 7.80412e-20)
(0.186552 0.403829 9.36574e-20)
(0.304666 0.374474 -1.8977e-19)
(-0.0165819 0.0144026 -1.05957e-20)
(-0.0589893 0.0483436 -5.96518e-20)
(-0.0890582 0.0885742 -1.88272e-20)
(-0.0965205 0.127956 7.60519e-20)
(-0.0747874 0.161591 1.39696e-19)
(-0.0207551 0.186409 -1.18943e-19)
(0.0668195 0.201988 -5.50059e-20)
(0.18673 0.209137 -2.87952e-20)
(0.341038 0.208226 1.07011e-19)
(0.52352 0.196376 1.42091e-19)
(-0.727442 0.0860235 9.80506e-19)
(-0.575152 -0.374978 -1.66829e-18)
(-0.00923525 -0.45549 -2.55769e-19)
(0.340009 -0.402908 6.31256e-20)
(0.639988 -0.332673 -1.31142e-20)
(0.813076 -0.244858 -8.89754e-21)
(0.926021 -0.185878 -7.91282e-21)
(0.999823 -0.129763 -2.67297e-21)
(1.03461 -0.103485 1.12558e-20)
(1.07045 -0.0689891 2.49048e-21)
(-0.547921 0.118778 1.00102e-18)
(-0.332705 -0.479678 7.46935e-19)
(0.122154 -0.589242 -4.08726e-20)
(0.442805 -0.498552 -1.24809e-19)
(0.704998 -0.396425 -1.31435e-19)
(0.853144 -0.285153 0)
(0.950703 -0.2108 -1.62614e-20)
(1.01408 -0.144398 5.00063e-21)
(1.04451 -0.112735 3.69016e-22)
(1.07541 -0.0738823 -4.91863e-21)
(-0.310305 0.129476 -4.73233e-19)
(-0.0390507 -0.563873 -3.7615e-19)
(0.319514 -0.69717 2.09922e-19)
(0.581799 -0.582262 5.36956e-20)
(0.793081 -0.450889 9.84175e-21)
(0.907105 -0.319272 -2.08319e-21)
(0.982863 -0.231938 0)
(1.03198 -0.156902 0)
(1.05626 -0.120641 -8.70424e-21)
(1.08099 -0.0780409 0)
(-0.0478381 0.125625 -9.93359e-20)
(0.272721 -0.625455 8.22334e-19)
(0.550925 -0.781997 -1.20926e-19)
(0.739199 -0.650373 0)
(0.894801 -0.494342 1.83584e-19)
(0.971464 -0.345778 -3.34721e-20)
(1.02165 -0.248143 0)
(1.05348 -0.16655 3.0469e-20)
(1.06987 -0.126786 0)
(1.08718 -0.0812862 4.08982e-21)
(0.22293 0.110434 2.07074e-20)
(0.59222 -0.668772 3.8425e-19)
(0.793485 -0.844056 8.24006e-20)
(0.900532 -0.701778 0)
(0.998398 -0.526883 7.75992e-20)
(1.03949 -0.364678 8.21227e-20)
(1.06431 -0.259013 1.5846e-21)
(1.07771 -0.172878 2.44079e-23)
(1.08512 -0.130817 -7.89189e-21)
(1.09391 -0.0834524 1.80477e-21)
(0.466008 0.0899009 5.61998e-19)
(0.904006 -0.69784 -3.82275e-19)
(1.03805 -0.883041 -4.34822e-20)
(1.06038 -0.736039 2.88797e-19)
(1.09716 -0.548878 -1.41002e-19)
(1.10481 -0.376795 4.49329e-20)
(1.10705 -0.264935 8.33254e-20)
(1.10306 -0.175851 -7.12058e-20)
(1.10141 -0.132552 9.88112e-24)
(1.10103 -0.0844208 -9.20721e-21)
(0.669579 0.0611762 1.00619e-19)
(1.19794 -0.718222 -1.70821e-21)
(1.27267 -0.90225 -1.2211e-19)
(1.21517 -0.754392 -9.91479e-21)
(1.1898 -0.5608 -1.52634e-19)
(1.16429 -0.382957 -3.76e-21)
(1.1467 -0.266671 -3.60133e-20)
(1.12761 -0.175816 -7.84663e-22)
(1.11784 -0.132022 9.60781e-21)
(1.10824 -0.0841498 -9.27506e-22)
(0.857487 0.0120028 -4.45368e-19)
(1.46805 -0.731777 -5.22758e-21)
(1.48805 -0.903331 0)
(1.36011 -0.75872 7.93377e-20)
(1.27689 -0.563665 1.32067e-19)
(1.21803 -0.383905 -7.43169e-21)
(1.18185 -0.265015 -1.22303e-19)
(1.1498 -0.17334 3.10316e-20)
(1.13336 -0.129466 -4.91798e-22)
(1.11516 -0.0826897 -5.05506e-21)
(1.0762 -0.076545 5.08764e-19)
(1.71306 -0.737336 5.98006e-20)
(1.67839 -0.887638 1.22942e-19)
(1.49149 -0.750219 -5.21651e-20)
(1.35872 -0.55856 4.51927e-21)
(1.26775 -0.380355 -1.25652e-19)
(1.21296 -0.260718 4.16468e-20)
(1.16901 -0.169108 -8.03131e-24)
(1.14709 -0.125328 -8.2747e-22)
(1.12133 -0.080195 6.30275e-21)
(1.33816 -0.174797 -3.4829e-19)
(1.93044 -0.729249 9.30889e-20)
(1.84029 -0.858731 1.14695e-19)
(1.60774 -0.730727 -2.44447e-19)
(1.43512 -0.545854 -1.4907e-19)
(1.31504 -0.372338 -7.15192e-20)
(1.24147 -0.254085 -2.37173e-20)
(1.18572 -0.163687 0)
(1.15871 -0.120181 -1.41228e-20)
(1.12643 -0.0769047 1.02138e-20)
(1.94735 -0.306331 -7.74078e-19)
(2.21606 -0.704812 -5.20641e-19)
(2.03173 -0.804409 -1.26575e-19)
(1.74782 -0.689142 4.22541e-20)
(1.52863 -0.515771 3.9523e-20)
(1.37329 -0.351876 -5.18986e-20)
(1.27556 -0.238771 -3.41443e-20)
(1.20453 -0.153122 2.01886e-20)
(1.17083 -0.111574 -7.90638e-21)
(1.13156 -0.0718322 -5.04258e-21)
(2.40497 -0.389762 1.15682e-19)
(2.37979 -0.688983 -9.45006e-19)
(2.06631 -0.724903 -3.41993e-19)
(1.75563 -0.585061 -6.71141e-21)
(1.54549 -0.421149 1.44231e-19)
(1.39621 -0.28328 1.3315e-19)
(1.29628 -0.193814 9.14368e-20)
(1.21792 -0.126183 -1.02579e-20)
(1.18036 -0.0943143 3.09875e-20)
(1.13515 -0.0627663 4.4884e-21)
(2.47083 -0.384407 -3.53219e-20)
(2.33126 -0.574199 -1.94934e-20)
(2.08746 -0.602562 4.68389e-20)
(1.8436 -0.502975 1.59168e-35)
(1.63811 -0.369602 -2.33856e-20)
(1.46615 -0.246611 -4.02292e-34)
(1.34217 -0.164684 8.18453e-21)
(1.24398 -0.105297 1.39851e-34)
(1.19578 -0.078644 -5.30035e-22)
(1.14071 -0.0535866 9.1991e-22)
(2.42429 -0.349641 -3.15171e-34)
(2.30275 -0.507203 2.77676e-19)
(2.09616 -0.537278 1.01702e-19)
(1.85048 -0.427928 0)
(1.63206 -0.287952 -8.09144e-20)
(1.45729 -0.177881 -6.93959e-20)
(1.33824 -0.11468 -5.23406e-20)
(1.24372 -0.0731232 5.91892e-34)
(1.19834 -0.0569357 -1.54852e-20)
(1.14144 -0.0417403 -1.46735e-21)
(2.37315 -0.322943 -2.10118e-20)
(2.26483 -0.443219 6.56985e-21)
(2.08965 -0.450999 0)
(1.87042 -0.343788 0)
(1.6555 -0.217967 0)
(1.47085 -0.126551 0)
(1.34384 -0.0779185 2.82142e-21)
(1.24463 -0.0483314 6.91063e-34)
(1.19835 -0.0385319 -9.80589e-22)
(1.13977 -0.0306465 -2.24645e-34)
(2.32548 -0.29442 6.10529e-20)
(2.23371 -0.388507 0)
(2.05755 -0.384286 0)
(1.82571 -0.270904 0)
(1.60669 -0.14487 0)
(1.42852 -0.0654666 0)
(1.31216 -0.0331676 -6.24035e-21)
(1.22242 -0.0194094 2.33322e-20)
(1.18287 -0.0184983 -1.19297e-21)
(1.12869 -0.0189254 3.82551e-22)
(2.27196 -0.267818 0)
(2.15452 -0.334639 7.66101e-20)
(1.93202 -0.304425 8.11749e-21)
(1.67841 -0.185562 0)
(1.4675 -0.0720412 -5.41057e-20)
(1.31535 -0.0131575 -3.76315e-20)
(1.22762 0.00193426 -2.84191e-20)
(1.16152 0.00283266 -1.13426e-20)
(1.13617 -0.00243851 8.71497e-21)
(1.09342 -0.00876778 -3.63916e-21)
(2.11701 -0.227871 3.39944e-22)
(1.90756 -0.256028 4.17398e-21)
(1.60381 -0.204031 -8.97411e-21)
(1.33777 -0.0982489 -7.15598e-36)
(1.17053 -0.012406 1.45174e-20)
(1.08121 0.0230512 -2.25974e-34)
(1.04667 0.0238303 -7.64412e-21)
(1.02056 0.0158049 -1.3919e-20)
(1.01689 0.00712223 -1.36876e-21)
(0.993066 -0.00172837 2.75007e-21)
(1.61343 -0.159351 8.65392e-21)
(1.29227 -0.143305 -1.33851e-20)
(0.954785 -0.0818802 5.29462e-21)
(0.748628 -0.0165301 0)
(0.682601 0.0226069 1.11528e-20)
(0.687868 0.0325148 1.06374e-20)
(0.716604 0.0255009 -7.79209e-22)
(0.734146 0.0159638 3.97192e-21)
(0.751486 0.00855103 -5.11051e-21)
(0.748519 0.00152335 -2.58168e-21)
(0.531259 -0.0223031 0)
(0.311278 -0.00586268 0)
(0.159992 0.0014817 0)
(0.106886 0.00446622 0)
(0.127738 0.0068987 0)
(0.17775 0.00670762 0)
(0.225474 0.0046714 -7.99131e-21)
(0.257032 0.00274656 2.32139e-35)
(0.277481 0.00148823 -1.58234e-21)
(0.284931 0.000315283 -2.88047e-21)
(2.51239 0.198924 8.50235e-19)
(2.54633 0.125387 5.23691e-20)
(2.56657 0.0466816 -8.66183e-20)
(2.57732 -0.0107599 -2.80074e-19)
(2.59161 -0.0844352 -5.29185e-20)
(2.55344 -0.113593 -8.19826e-20)
(2.57683 -0.191746 -2.74803e-19)
(2.38281 -0.164223 1.2658e-20)
(2.39503 -0.249825 0)
(1.77835 -0.0994558 8.39933e-21)
(2.43613 0.156999 2.70451e-19)
(2.42461 0.11619 -3.13696e-19)
(2.51303 0.0295278 -6.62036e-20)
(2.45803 0.00522271 -1.36568e-19)
(2.5775 -0.0881421 1.13683e-19)
(2.46302 -0.0922499 1.99262e-19)
(2.62589 -0.193897 -2.68109e-19)
(2.43455 -0.184092 -1.89192e-20)
(2.60294 -0.280053 -9.32094e-21)
(2.32883 -0.26626 9.83158e-20)
(2.3764 0.12563 -1.22742e-19)
(2.34752 0.0946141 2.78683e-19)
(2.44893 0.0187845 1.73542e-19)
(2.38606 -0.0027866 -2.92174e-19)
(2.50102 -0.0801597 -4.64695e-20)
(2.41309 -0.0976195 4.21851e-19)
(2.52865 -0.17012 7.98854e-20)
(2.44066 -0.194655 -9.385e-20)
(2.52295 -0.250185 -5.79185e-20)
(2.46246 -0.290781 -6.91234e-20)
(2.31633 0.0964283 -3.10914e-19)
(2.31375 0.0621841 -4.49301e-20)
(2.37838 0.00849323 2.016e-20)
(2.35962 -0.0236137 -1.81795e-20)
(2.41643 -0.0742521 -2.36948e-19)
(2.39375 -0.108625 -9.88344e-20)
(2.43306 -0.151432 2.43767e-19)
(2.42263 -0.192587 -1.23089e-20)
(2.43726 -0.22493 5.03646e-20)
(2.44588 -0.273764 2.37813e-20)
(2.26709 0.0667513 4.72025e-20)
(2.28931 0.0315292 1.33252e-19)
(2.32226 -0.00583272 -3.02427e-20)
(2.33602 -0.0416036 2.15438e-19)
(2.35637 -0.0759121 -5.43134e-20)
(2.36741 -0.113558 -2.60814e-19)
(2.37408 -0.143295 4.19205e-20)
(2.38734 -0.183298 -1.05526e-19)
(2.38299 -0.209213 2.34544e-20)
(2.39896 -0.251239 3.46356e-21)
(2.22807 0.035959 -1.71082e-19)
(2.25761 0.00493415 -7.8917e-20)
(2.27888 -0.0233328 2.76471e-21)
(2.3014 -0.0552352 1.23956e-19)
(2.31207 -0.081786 2.69754e-19)
(2.32964 -0.114836 -7.69343e-20)
(2.33105 -0.139428 7.11534e-21)
(2.34548 -0.173583 -6.52497e-20)
(2.33975 -0.196698 -9.19119e-20)
(2.35238 -0.231977 -5.56077e-20)
(2.17987 0.00692683 -6.05238e-20)
(2.20784 -0.0179028 -1.32668e-19)
(2.22559 -0.0400136 -1.4507e-19)
(2.24761 -0.0655726 -2.75231e-19)
(2.2571 -0.0871331 6.04828e-20)
(2.27464 -0.113903 6.23215e-20)
(2.27663 -0.134996 1.50106e-20)
(2.29151 -0.163235 7.79643e-20)
(2.28638 -0.183718 -1.03961e-19)
(2.30109 -0.213446 -5.0752e-20)
(2.06748 -0.0173852 6.2664e-20)
(2.09097 -0.0353595 4.23191e-20)
(2.10009 -0.0507744 2.13888e-20)
(2.12133 -0.0696047 -4.40579e-20)
(2.12285 -0.084991 -4.209e-20)
(2.14412 -0.10541 -2.72898e-20)
(2.13781 -0.121022 -4.9728e-20)
(2.16176 -0.143589 8.25079e-20)
(2.14654 -0.15927 -4.22555e-20)
(2.17673 -0.184068 3.75466e-20)
(1.74119 -0.0331315 -5.95182e-20)
(1.74748 -0.0427547 -4.31412e-21)
(1.74034 -0.0507118 1.13755e-19)
(1.74785 -0.0608233 -9.02144e-21)
(1.7337 -0.0686313 -3.21995e-20)
(1.74622 -0.0803393 6.69843e-20)
(1.72284 -0.0885184 -4.67509e-20)
(1.74425 -0.102698 3.11753e-20)
(1.70758 -0.111434 -2.45034e-22)
(1.74401 -0.128597 -3.67628e-20)
(0.866013 -0.0141864 4.98937e-20)
(0.847019 -0.0138826 4.01791e-20)
(0.826551 -0.0137007 3.92054e-20)
(0.808573 -0.0136961 6.26271e-20)
(0.7872 -0.0142074 -3.17156e-20)
(0.771359 -0.015085 -3.6548e-20)
(0.746792 -0.0165905 1.57486e-20)
(0.735019 -0.0186592 -2.88149e-21)
(0.699336 -0.0201251 4.33107e-21)
(0.702997 -0.0277557 -6.18732e-21)
(1.57966 0.960393 -8.67839e-20)
(1.56311 1.00675 2.77844e-20)
(1.56653 1.06088 -6.50338e-19)
(1.5752 1.12252 2.43438e-19)
(1.58186 1.18768 1.21736e-18)
(1.57794 1.2485 -1.5219e-19)
(1.54162 1.28279 -1.08545e-18)
(1.42242 1.23841 -6.04667e-21)
(1.13004 1.01805 -5.37729e-19)
(0.531991 0.491922 1.23103e-19)
(1.74566 0.929367 0)
(1.73416 0.974337 7.55919e-19)
(1.73397 1.02467 1.67323e-18)
(1.74227 1.08381 -1.02861e-18)
(1.75233 1.14755 -2.40203e-18)
(1.75199 1.20649 -1.5927e-19)
(1.71409 1.23731 -2.04026e-19)
(1.58047 1.18844 7.4451e-19)
(1.25036 0.968311 1.114e-18)
(0.583297 0.460808 4.44101e-19)
(1.89995 0.887738 7.07283e-20)
(1.89749 0.93244 0)
(1.89857 0.979829 -7.02916e-20)
(1.90746 1.03449 1.04935e-18)
(1.91963 1.09352 5.80242e-20)
(1.92078 1.14727 -2.35427e-18)
(1.87879 1.17177 1.48794e-18)
(1.72776 1.1176 8.84709e-19)
(1.35829 0.900735 -9.57857e-19)
(0.625765 0.420307 -2.86244e-19)
(2.03469 0.838146 -1.91108e-19)
(2.04263 0.880814 -1.40582e-19)
(2.04951 0.924506 2.89284e-19)
(2.06161 0.973609 -3.58473e-19)
(2.07604 1.02609 -1.66069e-18)
(2.07719 1.07233 -1.28644e-18)
(2.02822 1.08878 1.3582e-18)
(1.85707 1.02782 8.95311e-19)
(1.44583 0.815819 0)
(0.654856 0.370815 0)
(2.15441 0.771139 -9.57558e-19)
(2.17077 0.811519 -1.74579e-18)
(2.18436 0.851852 -6.72263e-19)
(2.20069 0.895884 -3.55153e-20)
(2.21702 0.941935 0)
(2.21627 0.98022 1.43668e-19)
(2.15734 0.986026 1.66377e-19)
(1.96028 0.919322 2.0757e-19)
(1.5053 0.716157 -2.98701e-19)
(0.666727 0.312977 -7.48711e-20)
(2.25862 0.695967 1.14478e-18)
(2.28231 0.731811 -4.39455e-20)
(2.30218 0.767359 -1.34043e-18)
(2.32246 0.805272 0)
(2.33963 0.843166 0)
(2.33392 0.87168 0)
(2.25892 0.868429 1.54577e-18)
(2.02991 0.796204 -1.70901e-18)
(1.53221 0.602813 -1.08787e-18)
(0.658616 0.24955 1.32495e-20)
(2.34993 0.606944 -1.49558e-18)
(2.37848 0.6386 -3.13863e-18)
(2.40288 0.669661 -5.44005e-21)
(2.42548 0.701679 6.33257e-19)
(2.44065 0.731762 -3.99003e-20)
(2.42498 0.750505 1.34045e-18)
(2.32741 0.737631 -7.37955e-19)
(2.06176 0.660734 -1.97751e-18)
(1.52155 0.480776 1.18666e-19)
(0.629244 0.184623 8.99476e-20)
(2.42855 0.514643 -1.17329e-18)
(2.45948 0.540379 1.69068e-20)
(2.48576 0.565809 4.42793e-19)
(2.50785 0.591037 -4.26794e-19)
(2.51698 0.612566 6.61001e-19)
(2.48546 0.621012 1.76759e-18)
(2.35799 0.598306 -1.66108e-19)
(2.04969 0.518387 -1.04582e-18)
(1.46908 0.356625 2.40429e-19)
(0.57876 0.122626 4.37902e-20)
(2.49311 0.415991 4.30501e-19)
(2.52435 0.437519 8.74447e-20)
(2.54992 0.457555 -4.44905e-19)
(2.56802 0.475897 -1.03415e-18)
(2.56584 0.488745 7.72282e-20)
(2.51087 0.487121 6.33025e-20)
(2.34477 0.455787 -1.30469e-18)
(1.98814 0.375929 5.48568e-19)
(1.37284 0.237585 1.5948e-19)
(0.509285 0.0679888 -7.52383e-20)
(2.54348 0.320385 8.06362e-19)
(2.57245 0.336747 -1.19971e-18)
(2.59431 0.35056 1.82571e-19)
(2.60377 0.361487 2.37183e-18)
(2.58319 0.365502 1.16111e-18)
(2.49528 0.354506 -2.50038e-18)
(2.28111 0.316746 -2.32925e-18)
(1.87257 0.241108 9.9871e-19)
(1.23355 0.131318 -3.27712e-20)
(0.42505 0.0245626 -8.3048e-20)
(0.538011 0.407228 -1.51889e-19)
(0.497763 0.421242 -1.58806e-19)
(0.452528 0.436195 6.65587e-20)
(0.40291 0.452243 -2.19554e-19)
(0.348578 0.46925 -1.58422e-20)
(0.288693 0.48576 2.07186e-19)
(0.222299 0.495784 2.9187e-20)
(0.149863 0.482109 9.77862e-21)
(0.0783748 0.407289 2.33394e-20)
(0.0161877 0.208422 1.21324e-20)
(0.583974 0.512966 1.24567e-19)
(0.544648 0.533535 1.57671e-19)
(0.50117 0.555622 4.90258e-20)
(0.45372 0.579393 -4.40581e-20)
(0.401647 0.604603 -2.06934e-19)
(0.34384 0.629267 -2.01327e-20)
(0.278621 0.645474 4.2798e-20)
(0.204546 0.630548 4.43913e-20)
(0.12478 0.534749 -1.32075e-19)
(0.040143 0.274627 -4.57793e-20)
(0.647533 0.611361 -9.72918e-20)
(0.609446 0.63767 -8.31007e-20)
(0.568293 0.665971 9.00609e-20)
(0.523798 0.696745 5.94737e-20)
(0.475032 0.729855 -8.22199e-20)
(0.42056 0.762858 -1.26084e-20)
(0.357629 0.785863 -1.13541e-19)
(0.281907 0.770614 -9.01393e-20)
(0.190662 0.6552 -7.3239e-20)
(0.0741941 0.336803 4.83036e-23)
(0.728161 0.705986 2.27061e-20)
(0.691885 0.738626 -6.14082e-20)
(0.653987 0.773123 -7.62086e-20)
(0.613227 0.810185 -7.23621e-20)
(0.568257 0.84982 -6.62746e-20)
(0.517456 0.889271 -9.16468e-21)
(0.457019 0.916884 -2.98858e-19)
(0.37914 0.899419 6.66355e-20)
(0.273393 0.764386 -3.35104e-19)
(0.116907 0.392324 4.9928e-20)
(0.821764 0.784587 1.35528e-20)
(0.788019 0.822199 1.77194e-20)
(0.754676 0.862212 -5.13917e-20)
(0.719619 0.90568 -2.83608e-19)
(0.680708 0.952376 1.30951e-19)
(0.635516 0.998856 4.7916e-20)
(0.578611 1.03171 3.77094e-20)
(0.497952 1.01305 -1.93128e-19)
(0.373815 0.860554 4.02955e-19)
(0.168178 0.440428 2.92601e-19)
(0.931425 0.861994 -1.05903e-19)
(0.899254 0.904018 -2.00243e-19)
(0.869109 0.947284 1.1839e-20)
(0.838327 0.99428 1.03582e-19)
(0.804743 1.04537 3.84598e-19)
(0.765419 1.09646 2.8423e-19)
(0.712767 1.13196 6.76465e-19)
(0.629473 1.10963 2.77405e-19)
(0.485176 0.93959 1.50694e-19)
(0.224917 0.478325 2.1194e-19)
(1.04699 0.913486 -1.12184e-19)
(1.02094 0.960358 6.49014e-19)
(0.998634 1.0082 4.22868e-19)
(0.975481 1.05954 -5.44521e-19)
(0.948705 1.11495 -2.71372e-19)
(0.915264 1.17032 7.04051e-19)
(0.86598 1.20863 -1.1012e-19)
(0.778014 1.18376 -4.7588e-19)
(0.609226 0.99932 2.70098e-20)
(0.286818 0.505349 2.64589e-19)
(1.16965 0.965746 3.20357e-19)
(1.14357 1.01296 6.12865e-20)
(1.12591 1.06114 -8.05361e-19)
(1.11081 1.11437 1.75838e-19)
(1.09353 1.17236 6.15191e-19)
(1.06895 1.22958 -3.38549e-19)
(1.02495 1.26737 -1.0599e-19)
(0.932569 1.23694 -1.9533e-19)
(0.737689 1.03831 1.97937e-20)
(0.350072 0.520224 -3.08648e-19)
(1.30129 0.983287 1.91367e-20)
(1.28598 1.03436 -5.89851e-19)
(1.27574 1.0835 -4.96123e-21)
(1.26621 1.13775 5.012e-19)
(1.25474 1.19814 -5.19363e-19)
(1.23614 1.25815 1.01497e-18)
(1.19515 1.29677 6.81645e-19)
(1.09558 1.26258 -1.00646e-18)
(0.870658 1.05386 -7.92892e-20)
(0.413648 0.522511 -3.41561e-19)
(1.40527 0.992027 -3.55016e-19)
(1.40156 1.04413 -3.33937e-19)
(1.4089 1.09515 3.11673e-19)
(1.41443 1.15026 8.19727e-19)
(1.41463 1.21016 2.94192e-19)
(1.40472 1.2687 -8.39826e-19)
(1.36734 1.3042 1.07136e-19)
(1.25949 1.26406 2.27895e-19)
(1.00231 1.0473 -3.07665e-19)
(0.474854 0.512938 -2.42512e-19)
(0.990736 0.0149692 7.79874e-22)
(1.01317 0.0409288 -1.88231e-20)
(1.02233 0.0512841 -1.5212e-20)
(1.02039 0.0781707 0)
(1.02669 0.0975951 1.90279e-20)
(1.01998 0.132798 2.72714e-20)
(0.996464 0.172395 3.69095e-20)
(0.949988 0.205948 8.08249e-20)
(0.864007 0.27007 -1.21388e-19)
(0.713509 0.337418 -1.87576e-19)
(0.991201 0.0130613 3.91795e-20)
(1.0115 0.0388449 -6.10159e-20)
(1.02172 0.0497969 1.87009e-22)
(1.01864 0.0770052 -1.91932e-20)
(1.02719 0.0982602 9.48016e-21)
(1.02177 0.137327 -1.38423e-20)
(1.00149 0.18238 -8.59391e-20)
(0.96242 0.225822 0)
(0.879425 0.307421 2.52122e-19)
(0.752694 0.406781 -2.63202e-19)
(0.991351 0.0113776 -2.86923e-20)
(1.01056 0.0369224 1.69195e-20)
(1.02132 0.0482335 4.05913e-20)
(1.01867 0.0761543 1.00889e-20)
(1.02803 0.0984378 -2.28154e-20)
(1.02626 0.142257 1.1317e-21)
(1.00688 0.191347 -5.93998e-20)
(0.979292 0.245471 -5.74843e-21)
(0.897483 0.343087 1.66261e-23)
(0.805908 0.47331 7.42085e-19)
(0.991222 0.00983665 -3.19561e-20)
(1.01024 0.0351387 2.42576e-21)
(1.02122 0.0464488 3.31744e-20)
(1.02019 0.0756692 2.14292e-20)
(1.02938 0.097991 -1.14196e-20)
(1.03311 0.147817 -1.60792e-20)
(1.01289 0.199019 8.5847e-20)
(1.00041 0.265431 -1.62961e-21)
(0.917976 0.375897 -2.77315e-19)
(0.872863 0.535624 9.35006e-20)
(0.990866 0.00838895 2.22824e-20)
(1.01039 0.0334418 -3.17503e-20)
(1.02163 0.0443521 -2.64972e-20)
(1.02282 0.0755655 1.27036e-20)
(1.0316 0.096842 0)
(1.04177 0.154054 0)
(1.02024 0.205268 7.19996e-20)
(1.02442 0.285758 2.62228e-22)
(0.943248 0.405582 -1.26139e-19)
(0.949741 0.591932 9.40362e-20)
(0.990327 0.00699259 6.27463e-21)
(1.01088 0.0317413 2.57112e-20)
(1.02275 0.0419125 -7.16871e-20)
(1.02618 0.0757893 -2.46023e-20)
(1.03506 0.0949922 -6.20625e-22)
(1.05176 0.160939 6.75707e-20)
(1.02918 0.20987 1.10448e-19)
(1.05181 0.306997 -8.31157e-22)
(0.970152 0.429983 2.09611e-19)
(1.04307 0.648112 -2.21824e-19)
(0.989636 0.00561202 -2.43954e-20)
(1.01161 0.0299115 1.36728e-20)
(1.02477 0.0391622 -1.94494e-20)
(1.02988 0.076175 -5.25114e-20)
(1.04019 0.0925687 1.95072e-21)
(1.06232 0.168249 -1.62052e-21)
(1.04109 0.213052 -6.21792e-21)
(1.07949 0.328354 -2.29461e-19)
(1.00749 0.450127 1.53618e-19)
(1.13059 0.688252 -5.49585e-19)
(0.988802 0.00423485 -4.09377e-21)
(1.01257 0.0278136 -3.9765e-20)
(1.02777 0.0361803 3.93173e-20)
(1.03369 0.0765092 2.80181e-20)
(1.04726 0.0897664 1.00951e-21)
(1.07315 0.175594 -7.81286e-20)
(1.05584 0.215205 -6.08852e-20)
(1.10971 0.349981 4.08582e-19)
(1.04403 0.466975 1.54816e-20)
(1.24885 0.745553 8.61027e-19)
(0.987817 0.00285275 1.68613e-20)
(1.01379 0.0253205 1.82423e-20)
(1.03171 0.033073 4.56005e-20)
(1.03759 0.0766598 -3.08783e-20)
(1.05633 0.0866837 -8.13203e-20)
(1.08382 0.183014 1.2116e-21)
(1.07475 0.214501 -8.35412e-20)
(1.13963 0.36948 5.27932e-19)
(1.10118 0.466784 -9.37392e-21)
(1.31888 0.7616 -1.19548e-18)
(0.986688 0.00153279 4.17194e-22)
(1.01532 0.0223734 2.86986e-20)
(1.03643 0.0301225 1.51487e-20)
(1.04181 0.0762428 -6.20891e-20)
(1.06629 0.0855565 -7.91357e-20)
(1.0938 0.190406 -6.57076e-20)
(1.09482 0.221314 -1.52546e-19)
(1.16576 0.391609 -4.73568e-19)
(1.15935 0.493505 -2.56766e-19)
(1.45907 0.829978 -1.25371e-18)
(0.985291 -0.000695689 -1.29671e-21)
(1.01688 0.0178401 -6.39081e-21)
(1.04357 0.0241539 -1.69354e-20)
(1.04748 0.0743155 3.43614e-20)
(1.07951 0.0759044 5.9146e-20)
(1.11303 0.194255 -4.30833e-20)
(1.1164 0.204239 1.44934e-19)
(1.21238 0.400218 -4.38569e-19)
(1.22414 0.431745 -1.95057e-19)
(1.47401 0.819807 6.62781e-19)
(0.984584 -0.00418157 2.1854e-21)
(1.01854 0.0107812 1.31943e-20)
(1.0542 0.0145457 -1.12818e-20)
(1.05179 0.0694381 6.36011e-20)
(1.10165 0.0580472 9.97564e-20)
(1.12825 0.191214 1.26624e-19)
(1.15399 0.176666 3.28751e-20)
(1.24176 0.383779 2.07467e-19)
(1.32368 0.380473 3.13891e-19)
(1.49438 0.718334 2.66206e-20)
(0.983587 -0.0079735 -1.68902e-21)
(1.02231 0.00170786 -4.11263e-21)
(1.06521 0.00522307 3.72374e-21)
(1.05724 0.0614513 4.63001e-21)
(1.12902 0.0405675 3.01307e-34)
(1.13558 0.184496 -7.48295e-21)
(1.19755 0.148345 -5.3758e-34)
(1.26035 0.355786 1.97411e-20)
(1.39483 0.324448 -5.87602e-20)
(1.54018 0.625601 -5.84444e-20)
(0.981506 -0.0128251 1.43113e-20)
(1.0299 -0.00942682 -4.64243e-35)
(1.07365 -0.0042738 -4.25215e-21)
(1.07112 0.0491512 -2.8191e-20)
(1.15176 0.025717 -4.87888e-20)
(1.14569 0.173905 -4.15513e-20)
(1.23186 0.120397 -6.80776e-34)
(1.28318 0.32311 -8.04833e-20)
(1.43433 0.26764 -1.46849e-19)
(1.58617 0.531635 9.84756e-20)
(0.978252 -0.0193181 0)
(1.04166 -0.0219743 4.81131e-35)
(1.07958 -0.0151644 0)
(1.09706 0.032132 0)
(1.16454 0.0140252 0)
(1.16683 0.156994 0)
(1.25316 0.0953882 -4.67423e-34)
(1.31288 0.28192 0)
(1.45589 0.21805 -2.1001e-20)
(1.61131 0.437733 5.82944e-20)
(0.973954 -0.0273893 2.99753e-21)
(1.05728 -0.0348296 4.53273e-21)
(1.08601 -0.0273648 -5.39068e-21)
(1.13062 0.0147398 0)
(1.16968 0.00766856 0)
(1.19521 0.134897 6.51507e-21)
(1.26945 0.0750842 4.2157e-20)
(1.34081 0.234713 -1.40916e-20)
(1.47066 0.176103 -3.06272e-20)
(1.61936 0.349653 2.25913e-19)
(0.9695 -0.0419634 -7.92306e-20)
(1.07769 -0.0540436 4.30708e-22)
(1.09426 -0.0466565 -6.04135e-21)
(1.1595 -0.00830624 -1.78004e-20)
(1.16149 0.000895147 -2.9311e-20)
(1.21624 0.104892 -1.04726e-20)
(1.27609 0.0572452 -3.44678e-20)
(1.35586 0.185114 -3.22661e-20)
(1.47547 0.138857 -5.5043e-20)
(1.625 0.265961 6.51932e-20)
(0.966609 -0.0489683 -6.29729e-21)
(1.09715 -0.0619982 -1.83946e-20)
(1.08444 -0.0539515 -6.69311e-21)
(1.14702 -0.019396 -5.22486e-21)
(1.10282 0.00215454 -5.33751e-35)
(1.19961 0.0732591 6.79044e-21)
(1.22657 0.0427736 -9.07129e-34)
(1.34019 0.134907 -1.36116e-20)
(1.43871 0.101745 1.88891e-20)
(1.62444 0.183442 2.68881e-20)
(0.962239 -0.0903827 1.96124e-19)
(1.05595 -0.091521 -4.75536e-21)
(0.969567 -0.0730964 -7.21467e-21)
(0.981584 -0.0307181 1.44589e-20)
(0.898126 -0.00172839 1.63922e-20)
(1.03256 0.0374262 1.41469e-20)
(1.0139 0.0286559 1.50632e-20)
(1.19211 0.0807334 -9.27544e-21)
(1.25839 0.062706 -2.19986e-20)
(1.50586 0.101572 1.47423e-19)
(0.830086 -0.0459562 8.67953e-21)
(0.73246 -0.0342813 -9.47816e-35)
(0.534707 -0.0172591 -8.40383e-21)
(0.475572 -0.00220848 0)
(0.421205 0.000917727 0)
(0.505795 0.0092153 6.71213e-21)
(0.50471 0.00546442 -5.91331e-36)
(0.644846 0.0177063 -1.3116e-20)
(0.710021 0.00981443 -2.76342e-20)
(0.895157 0.0172473 5.82733e-20)
(1.68269 0.844138 -1.99746e-19)
(1.7843 0.8245 -2.93279e-19)
(1.90275 0.788382 0)
(2.01125 0.743828 1.60914e-19)
(2.11427 0.680943 6.8527e-19)
(2.2032 0.614802 -1.23031e-19)
(2.28587 0.533739 1.77281e-18)
(2.35766 0.455423 -8.64897e-20)
(2.41958 0.366528 -3.93024e-19)
(2.47348 0.285208 3.48529e-19)
(1.70773 0.692958 1.03213e-19)
(1.78496 0.675527 1.17062e-19)
(1.88336 0.640448 -1.45318e-20)
(1.96857 0.600313 2.25928e-19)
(2.06363 0.542491 -1.8525e-19)
(2.12857 0.491071 -4.32024e-19)
(2.2134 0.420894 -1.30786e-19)
(2.2578 0.367173 5.91998e-19)
(2.33726 0.289749 -2.30218e-20)
(2.35807 0.239299 -5.09651e-19)
(1.74353 0.57591 1.00611e-19)