/*--------------------------------*- C++ -*----------------------------------*\
  =========                 |
  \\      /  F ield         | OpenFOAM: The Open Source CFD Toolbox
   \\    /   O peration     | Website:  https://openfoam.org
    \\  /    A nd           | Version:  13
     \\/     M anipulation  |
\*---------------------------------------------------------------------------*/
FoamFile
{
    format      ascii;
    class       volScalarField;
    location    "0.35";
    object      p;
}
// * * * * * * * * * * * * * * * * * * * * * * * * * * * * * * * * * * * * * //

dimensions      [0 2 -2 0 0 0 0];

internalField   nonuniform List<scalar> 
1800
(
-1.03129
-1.01549
-0.971738
-0.898213
-0.808475
-0.716847
-0.631095
-0.55385
-0.485222
-0.42925
-1.21577
-1.19783
-1.1472
-1.06296
-0.961601
-0.859072
-0.763738
-0.678601
-0.604557
-0.544094
-1.39198
-1.37135
-1.31296
-1.21736
-1.10417
-0.990689
-0.885516
-0.7915
-0.709057
-0.63947
-1.55472
-1.53084
-1.46402
-1.35699
-1.23273
-1.10955
-0.996034
-0.894706
-0.80573
-0.729913
-1.69845
-1.67075
-1.59488
-1.47641
-1.34167
-1.20959
-1.08842
-0.980316
-0.885168
-0.8031
-1.81817
-1.78623
-1.701
-1.57168
-1.4277
-1.2882
-1.16089
-1.04747
-0.947519
-0.860705
-1.90876
-1.87223
-1.77759
-1.63827
-1.4864
-1.34089
-1.20875
-1.09118
-0.987482
-0.896862
-1.96601
-1.92476
-1.82108
-1.6731
-1.51504
-1.36521
-1.22976
-1.10939
-1.00313
-0.909817
-1.98616
-1.9403
-1.82829
-1.67327
-1.51087
-1.35844
-1.22121
-1.09943
-0.991835
-0.896953
-1.96665
-1.91661
-1.79734
-1.63725
-1.47249
-1.31918
-1.18162
-1.05967
-0.951819
-0.856379
0.303923
0.314666
0.327687
0.342915
0.357351
0.368859
0.376641
0.380839
0.381952
0.380487
0.260761
0.271385
0.285205
0.302163
0.319081
0.333447
0.344148
0.351142
0.354874
0.355997
0.191993
0.202508
0.217565
0.237191
0.257932
0.276679
0.291838
0.303094
0.310809
0.315883
0.0987714
0.109225
0.125964
0.149183
0.175033
0.199585
0.220611
0.237448
0.250353
0.260582
-0.0173307
-0.00683961
0.0120412
0.039764
0.0719331
0.103576
0.1317
0.155238
0.174336
0.190709
-0.154198
-0.143506
-0.122008
-0.0889051
-0.0493305
-0.0095108
0.0266981
0.0578004
0.0838347
0.107051
-0.309051
-0.297915
-0.273329
-0.234058
-0.18622
-0.137462
-0.0925434
-0.0533854
-0.020018
0.0103063
-0.478362
-0.466446
-0.438278
-0.392106
-0.335349
-0.277222
-0.223374
-0.176109
-0.135433
-0.0982879
-0.657979
-0.645005
-0.612557
-0.55847
-0.491852
-0.423642
-0.360404
-0.304774
-0.256626
-0.213051
-0.843694
-0.829501
-0.791829
-0.728486
-0.650615
-0.570925
-0.49679
-0.43105
-0.373496
-0.322874
0.350293
0.267753
0.209367
0.165775
0.131328
0.102927
0.0779164
0.0547608
0.032564
0.0108198
0.34108
0.262754
0.207932
0.165305
0.131039
0.10265
0.0776551
0.0545463
0.0324195
0.0107568
0.325154
0.253879
0.204857
0.164166
0.130513
0.102316
0.0774062
0.0543644
0.0323019
0.0107031
0.30167
0.241562
0.200201
0.162357
0.129744
0.101917
0.0771628
0.0542095
0.0322079
0.0106581
0.269553
0.226338
0.194045
0.159882
0.128723
0.101446
0.0769184
0.054076
0.0321341
0.0106212
0.227692
0.208763
0.186499
0.156754
0.127445
0.100896
0.0766671
0.0539589
0.0320773
0.0105923
0.174826
0.189241
0.177765
0.15302
0.125913
0.100262
0.0764034
0.053853
0.0320345
0.0105715
0.109115
0.167327
0.167942
0.148713
0.124123
0.0995383
0.076122
0.0537532
0.0320027
0.0105589
0.0298035
0.141728
0.156765
0.143696
0.121992
0.098683
0.0758027
0.053649
0.0319773
0.0105555
-0.0571169
0.112812
0.144635
0.138103
0.119539
0.0976876
0.0754362
0.0535332
0.0319531
0.0105636
-0.107259
0.0882048
0.13159
0.130308
0.114988
0.0950833
0.0739271
0.0526548
0.0315119
0.0104817
-0.122615
0.0591382
0.110187
0.116362
0.106337
0.0897914
0.070674
0.0506845
0.0304584
0.0101628
-0.119662
0.0425654
0.0962643
0.105649
0.0988093
0.0848357
0.0675074
0.0487311
0.0293993
0.00983587
-0.113321
0.0281436
0.0829315
0.0954551
0.0915837
0.0799987
0.0643796
0.0467888
0.0283367
0.00950171
-0.103717
0.0181802
0.0716153
0.0863486
0.0849133
0.0754153
0.0613678
0.0449013
0.0272943
0.00916849
-0.09359
0.0108322
0.061749
0.0781492
0.0788091
0.0711509
0.058531
0.0431085
0.0262936
0.0088428
-0.0849337
0.00501683
0.053181
0.0708424
0.073315
0.0672714
0.0559256
0.0414489
0.0253545
0.00852999
-0.0789974
-0.000349287
0.045549
0.0643603
0.0684578
0.0638339
0.0536047
0.0399604
0.024497
0.00823786
-0.0750749
-0.0054303
0.0383521
0.0582752
0.0639335
0.0606407
0.0514414
0.0385601
0.0236553
0.00792855
-0.0815185
-0.011683
0.0325394
0.0539473
0.0608843
0.0585257
0.0500177
0.0376443
0.0231074
0.00772922
-0.69588
-0.73527
-0.751485
-0.745754
-0.720141
-0.67652
-0.619275
-0.548582
-0.471746
-0.386859
-0.52379
-0.563604
-0.584672
-0.588117
-0.574953
-0.547595
-0.508807
-0.460491
-0.407208
-0.351519
-0.391584
-0.430131
-0.453223
-0.462166
-0.456834
-0.440386
-0.413512
-0.379265
-0.33971
-0.298361
-0.289665
-0.327491
-0.351828
-0.364084
-0.363753
-0.354145
-0.335009
-0.309869
-0.279584
-0.247672
-0.212301
-0.249245
-0.274303
-0.28863
-0.291772
-0.286677
-0.272984
-0.254151
-0.230647
-0.205551
-0.153228
-0.189705
-0.215423
-0.231247
-0.236978
-0.235065
-0.22535
-0.210952
-0.192174
-0.171616
-0.109327
-0.145736
-0.172112
-0.18908
-0.196739
-0.197084
-0.19021
-0.178832
-0.163318
-0.145889
-0.0779861
-0.11495
-0.142242
-0.160353
-0.169535
-0.171475
-0.166488
-0.156982
-0.143488
-0.128054
-0.0617452
-0.0984287
-0.126377
-0.145811
-0.156614
-0.159909
-0.156126
-0.147017
-0.133955
-0.117164
-0.0502465
-0.0895808
-0.120259
-0.142399
-0.156224
-0.16261
-0.162099
-0.155709
-0.144635
-0.128273
0.69777
0.645348
0.584343
0.518618
0.447109
0.367398
0.278633
0.184395
0.101358
0.0590797
0.50601
0.448429
0.383218
0.310973
0.230086
0.138616
0.0364131
-0.0718001
-0.166535
-0.214213
0.292069
0.230913
0.162283
0.0850448
-0.00269204
-0.102696
-0.214901
-0.333962
-0.438195
-0.490139
0.0847033
0.0185638
-0.0559437
-0.140214
-0.235947
-0.344807
-0.46667
-0.595782
-0.708798
-0.764014
-0.105953
-0.178746
-0.260759
-0.353338
-0.458109
-0.576709
-0.70885
-0.848156
-0.969921
-1.02703
-0.279439
-0.359143
-0.448714
-0.549546
-0.663328
-0.791633
-0.934073
-1.08308
-1.21235
-1.26898
-0.43635
-0.521948
-0.618093
-0.726233
-0.848076
-0.985131
-1.1365
-1.29581
-1.42487
-1.48248
-0.575068
-0.665271
-0.766702
-0.880862
-1.00946
-1.15375
-1.31297
-1.47422
-1.60446
-1.66199
-0.692478
-0.786096
-0.891381
-1.00983
-1.14342
-1.29293
-1.45592
-1.61918
-1.74793
-1.80396
-0.787319
-0.882512
-0.989748
-1.11074
-1.24719
-1.39959
-1.56453
-1.72743
-1.85246
-1.90592
1.88151
1.89759
1.91614
1.93545
1.95395
1.97081
1.98531
1.99702
2.00682
2.01475
1.82754
1.84159
1.8576
1.87398
1.88925
1.90257
1.9132
1.92088
1.92709
1.93271
1.75371
1.76489
1.77727
1.78943
1.80005
1.80826
1.8133
1.81513
1.81614
1.81851
1.66052
1.66811
1.67587
1.68265
1.68733
1.68898
1.68684
1.68112
1.67537
1.67373
1.5486
1.55205
1.55445
1.5549
1.55252
1.54639
1.53569
1.52095
1.50697
1.50077
1.41966
1.41874
1.41514
1.40834
1.3978
1.38261
1.36198
1.33678
1.3133
1.30194
1.2757
1.27019
1.26024
1.24566
1.22627
1.20118
1.16964
1.13293
1.09896
1.08183
1.12411
1.11319
1.09521
1.07098
1.04098
1.0044
0.960482
0.910984
0.865672
0.842391
0.969216
0.952835
0.926296
0.891528
0.849748
0.800221
0.742316
0.678466
0.620718
0.591011
0.824657
0.793301
0.751464
0.702665
0.647548
0.584496
0.512518
0.43445
0.364516
0.328497
1.75427
1.53577
1.7195
1.60361
1.61525
1.62424
1.63488
1.66156
1.71395
1.81518
1.7479
1.53013
1.71419
1.59727
1.60815
1.61551
1.6236
1.64633
1.69131
1.7793
1.74214
1.52434
1.7092
1.59031
1.60054
1.60591
1.61063
1.62823
1.66246
1.73205
1.73695
1.51844
1.70455
1.58276
1.59245
1.59545
1.596
1.60711
1.62755
1.67315
1.7323
1.5125
1.70025
1.57463
1.58393
1.58412
1.57973
1.58287
1.58714
1.60169
1.72819
1.50659
1.69627
1.56595
1.57502
1.57193
1.56182
1.55545
1.54181
1.51668
1.72456
1.50079
1.69259
1.55676
1.56577
1.55885
1.54224
1.52485
1.49187
1.41674
1.72145
1.4952
1.68917
1.54708
1.55623
1.54488
1.521
1.49099
1.4375
1.30338
1.71901
1.48991
1.68594
1.53696
1.54644
1.53003
1.49817
1.45402
1.37765
1.17371
1.71719
1.48506
1.68284
1.52646
1.53645
1.51438
1.47416
1.41561
1.31444
1.04036
1.71537
1.47973
1.67805
1.51599
1.52292
1.49387
1.44234
1.36554
1.23935
0.908429
1.71583
1.47468
1.67229
1.507
1.50759
1.47208
1.41011
1.3191
1.17417
0.860488
1.7179
1.4708
1.66721
1.49882
1.49343
1.45198
1.38107
1.27975
1.12105
0.82672
1.72227
1.46819
1.66289
1.49158
1.4807
1.43396
1.35558
1.24689
1.0781
0.804493
1.72929
1.46684
1.65939
1.48536
1.46962
1.41829
1.33391
1.21988
1.04487
0.790245
1.73947
1.46671
1.65667
1.48025
1.46034
1.40517
1.31617
1.19829
1.02041
0.781263
1.75305
1.46753
1.65457
1.47622
1.45298
1.39468
1.30231
1.1818
1.00336
0.776349
1.77378
1.47048
1.6539
1.47342
1.44764
1.38691
1.2923
1.17015
0.992456
0.775085
1.78908
1.47038
1.64902
1.47176
1.44447
1.38197
1.28621
1.16337
0.987042
0.778299
1.84692
1.48037
1.65232
1.46969
1.44372
1.37942
1.28321
1.15986
0.984973
0.779994
0.666981
0.503656
0.314308
0.132236
-0.033038
-0.183025
-0.320256
-0.443211
-0.54837
-0.63316
0.597685
0.471467
0.327384
0.18287
0.0476486
-0.0766723
-0.191687
-0.297039
-0.389495
-0.465298
0.563824
0.460288
0.347395
0.228772
0.113061
0.00478054
-0.095816
-0.188268
-0.269996
-0.33833
0.553384
0.46208
0.367002
0.266122
0.164851
0.0688072
-0.0204399
-0.10268
-0.176258
-0.239132
0.555247
0.471202
0.386808
0.298421
0.208145
0.121008
0.0393658
-0.0363398
-0.104816
-0.164071
0.562555
0.483615
0.406113
0.326005
0.243339
0.162324
0.0858272
0.0146808
-0.0500154
-0.106513
0.57157
0.496435
0.423638
0.34896
0.271397
0.194589
0.121636
0.0536001
-0.00856682
-0.063358
0.581023
0.508483
0.438788
0.367411
0.292881
0.218617
0.147813
0.081641
0.0210208
-0.032618
0.593054
0.522644
0.454428
0.383808
0.3098
0.235914
0.165249
0.0990381
0.0382348
-0.0157991
0.607602
0.540809
0.473624
0.402179
0.327565
0.253466
0.18223
0.11501
0.0529924
-0.00247949
-2.97422
-2.89621
-2.72616
-2.52763
-2.33981
-2.17598
-2.03764
-1.92321
-1.83125
-1.76171
-3.04848
-2.9802
-2.82557
-2.63483
-2.44887
-2.28412
-2.14374
-2.02677
-1.93244
-1.86208
-3.01966
-2.96162
-2.82631
-2.64733
-2.46532
-2.30059
-2.15871
-2.03955
-1.94251
-1.86862
-2.89822
-2.85069
-2.73624
-2.57166
-2.39492
-2.23036
-2.08676
-1.96533
-1.86557
-1.78752
-2.7003
-2.6634
-2.56884
-2.41982
-2.24916
-2.08465
-1.93876
-1.81457
-1.71196
-1.62996
-2.44349
-2.41647
-2.33913
-2.20593
-2.0427
-1.8793
-1.73167
-1.60513
-1.5004
-1.41691
-2.14444
-2.1254
-2.06212
-1.94469
-1.79182
-1.63315
-1.48694
-1.36066
-1.25558
-1.17349
-1.81904
-1.80516
-1.75301
-1.65093
-1.51217
-1.36376
-1.22421
-1.1023
-1.00005
-0.921526
-1.48516
-1.47383
-1.43012
-1.34299
-1.22213
-1.0904
-0.964624
-0.853661
-0.759857
-0.691912
-1.16094
-1.15053
-1.11323
-1.04008
-0.938645
-0.827106
-0.719261
-0.622503
-0.537576
-0.473145
-0.861824
-0.851455
-0.819297
-0.758964
-0.67685
-0.587058
-0.500644
-0.423921
-0.3577
-0.300198
-0.597068
-0.586063
-0.558289
-0.509072
-0.443967
-0.373683
-0.306539
-0.247233
-0.196796
-0.150845
-0.368596
-0.35725
-0.333214
-0.293104
-0.241749
-0.187222
-0.135596
-0.0901353
-0.0516877
-0.0161981
-0.17592
-0.164392
-0.14359
-0.110948
-0.0707511
-0.0291248
0.00955378
0.043117
0.0710947
0.096527
-0.01722
-0.00579001
0.0123096
0.0388581
0.0700095
0.101108
0.129077
0.152587
0.171541
0.188038
0.109289
0.120552
0.136522
0.158307
0.182426
0.205321
0.224893
0.240431
0.252113
0.261339
0.205212
0.216428
0.230795
0.24906
0.268018
0.284885
0.298257
0.307864
0.314062
0.317791
0.271925
0.282988
0.296294
0.312214
0.327732
0.34057
0.349776
0.355376
0.357829
0.357794
0.310162
0.321116
0.333862
0.348533
0.362208
0.372874
0.379825
0.383239
0.383632
0.381507
0.320615
0.331468
0.344128
0.358584
0.371922
0.382171
0.388674
0.391652
0.391629
0.389063
-0.0014214
0.118183
0.13766
0.135662
0.123167
0.104607
0.0830271
0.0600304
0.036285
0.0121633
0.0958002
0.148678
0.15185
0.141968
0.1249
0.104415
0.0821918
0.0591579
0.0356714
0.0119531
0.172374
0.173443
0.163478
0.146612
0.126277
0.104217
0.0814398
0.0583755
0.0351216
0.0117634
0.229162
0.194774
0.174
0.151107
0.127543
0.104051
0.0807775
0.0576811
0.0346317
0.0115927
0.271521
0.21429
0.183482
0.155044
0.128639
0.103905
0.0801962
0.0570684
0.0341978
0.0114395
0.303152
0.231752
0.191661
0.158383
0.129564
0.103771
0.0796876
0.0565314
0.0338161
0.0113025
0.32603
0.246467
0.198394
0.16112
0.130311
0.10364
0.0792426
0.0560637
0.0334831
0.0111804
0.341484
0.257814
0.203597
0.163242
0.130872
0.103501
0.0788519
0.055659
0.033195
0.0110721
0.350418
0.265283
0.207191
0.164733
0.131235
0.103342
0.0785065
0.0553111
0.0329482
0.0109765
0.353329
0.268622
0.209122
0.165581
0.13139
0.103155
0.0781975
0.0550137
0.032739
0.0108927
-0.227689
-0.00626768
0.0784945
0.108165
0.111503
0.100538
0.0822718
0.0604993
0.0369803
0.0125103
-0.196872
0.0152993
0.0869499
0.111609
0.112623
0.100857
0.0822836
0.060398
0.036864
0.0124561
-0.152549
0.0358936
0.0958584
0.115641
0.114419
0.101504
0.0824035
0.0603247
0.0367447
0.0123931
-0.107032
0.0605935
0.107949
0.121361
0.117004
0.102547
0.0827189
0.0603458
0.036675
0.0123488
-0.0607453
0.0926221
0.124722
0.129402
0.120597
0.103965
0.0832061
0.0604483
0.0366478
0.0123217
-1.69657
-1.79299
-1.80748
-1.74628
-1.61452
-1.44851
-1.2399
-1.03683
-0.828743
-0.629891
-1.69553
-1.79134
-1.80115
-1.73403
-1.59664
-1.42583
-1.2129
-1.00249
-0.794136
-0.591869
-1.69809
-1.79372
-1.79997
-1.72694
-1.58311
-1.40071
-1.18067
-0.957275
-0.743722
-0.548333
-1.70805
-1.80472
-1.80894
-1.73011
-1.5788
-1.38076
-1.15089
-0.912217
-0.6951
-0.508298
-1.72613
-1.82508
-1.82811
-1.74412
-1.58497
-1.37324
-1.13199
-0.883031
-0.659472
-0.460134
1.33944
1.31832
1.28869
1.25384
1.21463
1.16953
1.11697
1.05855
1.00526
0.976677
1.46185
1.45728
1.4447
1.42568
1.40137
1.37109
1.33391
1.29133
1.25243
1.23246
1.582
1.58273
1.57834
1.56959
1.55689
1.53949
1.51649
1.48882
1.46339
1.45097
1.68715
1.69259
1.69574
1.69627
1.69378
1.68741
1.6763
1.66101
1.64671
1.64044
1.77621
1.78559
1.79422
1.8015
1.80661
1.80867
1.80684
1.8014
1.79609
1.79489
1.84501
1.85763
1.87085
1.88369
1.89502
1.90397
1.90972
1.91224
1.91401
1.917
1.89335
1.90849
1.92519
1.94218
1.95812
1.97213
1.98346
1.99184
1.99878
2.00499
1.92115
1.93793
1.95694
1.97668
1.99565
2.013
2.028
2.04021
2.05052
2.05886
1.92847
1.94593
1.96601
1.98703
2.00742
2.02634
2.04308
2.05711
2.06901
2.07834
1.91522
1.93246
1.95237
1.97324
1.99346
2.01221
2.02877
2.04261
2.05434
2.06352
-1.56785
-1.63868
-1.72943
-1.84123
-1.97663
-2.1382
-2.32553
-2.52855
-2.70896
-2.7951
-1.28962
-1.36262
-1.45349
-1.56352
-1.69574
-1.85274
-2.03508
-2.24305
-2.428
-2.51939
-0.947822
-1.02335
-1.11522
-1.22437
-1.35352
-1.50571
-1.68281
-1.88064
-2.06834
-2.16353
-0.571032
-0.649397
-0.742167
-0.849985
-0.97523
-1.12102
-1.28916
-1.47571
-1.65273
-1.75035
-0.193031
-0.272826
-0.364454
-0.468435
-0.58694
-0.723056
-0.878816
-1.05063
-1.21239
-1.305
0.156426
0.0799375
-0.00598837
-0.10183
-0.209684
-0.332591
-0.472548
-0.626208
-0.769933
-0.853189
0.466864
0.398984
0.323372
0.239534
0.145351
0.0379112
-0.0845411
-0.218693
-0.343258
-0.415155
0.748134
0.690564
0.626231
0.554917
0.474361
0.38178
0.275844
0.160018
0.0536
-0.0067973
1.01011
0.960815
0.903765
0.84104
0.770849
0.690616
0.599333
0.500379
0.410792
0.361234
1.22974
1.1868
1.13405
1.07805
1.0182
0.951904
0.877633
0.797738
0.726
0.687068
1.86162
1.57685
1.77616
1.62373
1.65687
1.66211
1.66037
1.6629
1.63207
1.50848
1.84611
1.57434
1.77185
1.62562
1.6547
1.66232
1.66365
1.67359
1.66172
1.59372
1.83192
1.5714
1.76685
1.62668
1.65223
1.66173
1.6666
1.68335
1.6883
1.67677
1.81899
1.56807
1.76132
1.62685
1.64939
1.66027
1.66794
1.6904
1.70965
1.73959
1.80717
1.56438
1.75543
1.6261
1.64612
1.65788
1.66785
1.69476
1.72621
1.78813
1.79633
1.56034
1.74933
1.62444
1.64236
1.65455
1.6663
1.69631
1.73806
1.8224
1.7864
1.55599
1.74315
1.62188
1.63808
1.6503
1.66324
1.69496
1.74487
1.84394
1.77728
1.55134
1.73699
1.61847
1.63323
1.64514
1.65862
1.69075
1.74601
1.85384
1.76892
1.5464
1.73095
1.61426
1.62781
1.63906
1.65237
1.68374
1.74122
1.85242
1.76126
1.5412
1.7251
1.60929
1.62181
1.63209
1.64447
1.67401
1.73054
1.83956
2.00482
1.59135
1.78024
1.62418
1.65803
1.65468
1.63916
1.61713
1.52636
1.37728
1.94547
1.58456
1.77923
1.62527
1.6576
1.65591
1.64084
1.62042
1.53324
1.37938
1.92391
1.58488
1.7816
1.6249
1.65796
1.6573
1.64395
1.62647
1.54781
1.38429
1.89991
1.58246
1.78083
1.62417
1.65809
1.65888
1.64834
1.6354
1.5686
1.39987
1.87903
1.57947
1.7792
1.62307
1.65802
1.66052
1.65339
1.64685
1.59483
1.42134
1.04632
0.905308
0.70842
0.442174
0.116489
-0.243569
-0.610541
-0.959938
-1.27021
-1.52033
1.03847
0.897603
0.707929
0.452035
0.137761
-0.215474
-0.582893
-0.938501
-1.25732
-1.51526
1.06117
0.911216
0.715953
0.463623
0.158004
-0.190689
-0.561231
-0.923981
-1.25041
-1.5147
1.11585
0.945224
0.731987
0.476349
0.175375
-0.171266
-0.545955
-0.916147
-1.24987
-1.52031
1.19714
0.998362
0.756575
0.489331
0.187094
-0.159254
-0.536742
-0.913126
-1.25454
-1.53265
)
;

boundaryField
{
    left
    {
        type            zeroGradient;
    }
    right
    {
        type            fixedValue;
        value           uniform 0;
    }
    down
    {
        type            zeroGradient;
    }
    up
    {
        type            zeroGradient;
    }
    cylinder
    {
        type            zeroGradient;
    }
    defaultFaces
    {
        type            empty;
    }
}


// ************************************************************************* //
