/*--------------------------------*- C++ -*----------------------------------*\
  =========                 |
  \\      /  F ield         | OpenFOAM: The Open Source CFD Toolbox
   \\    /   O peration     | Website:  https://openfoam.org
    \\  /    A nd           | Version:  13
     \\/     M anipulation  |
\*---------------------------------------------------------------------------*/
FoamFile
{
    format      ascii;
    class       surfaceScalarField;
    location    "0.35";
    object      phi;
}
// * * * * * * * * * * * * * * * * * * * * * * * * * * * * * * * * * * * * * //

dimensions      [0 3 -1 0 0 0 0];

internalField   nonuniform List<scalar> 
3485
(
0.0027806
-0.0161158
0.0133352
0.00991423
-0.0631598
0.0560262
0.0195432
-0.103806
0.0941771
0.0300477
-0.129632
0.119127
0.0405057
-0.142188
0.13173
0.0505601
-0.146143
0.136089
0.0601349
-0.145535
0.135961
0.0692317
-0.14287
0.133773
0.0778438
-0.139355
0.130743
-0.135333
0.126992
0.0861851
0.00313624
-0.019252
0.0106422
-0.0706657
0.0203211
-0.113485
0.0305222
-0.139833
0.0404519
-0.152117
0.0499175
-0.155609
0.0590013
-0.154619
0.0678717
-0.15174
0.0767572
-0.148241
-0.1446
0.0860247
0.00346956
-0.0227216
0.0112537
-0.0784499
0.0208154
-0.123047
0.0304875
-0.149505
0.0395975
-0.161227
0.048069
-0.16408
0.0560418
-0.162592
0.0636683
-0.159367
0.0710453
-0.155618
-0.151759
0.078204
0.00378944
-0.026511
0.0117699
-0.0864304
0.0211024
-0.132379
0.0301663
-0.158569
0.0384611
-0.169522
0.046068
-0.171687
0.0532263
-0.16975
0.060141
-0.166281
0.0669517
-0.162429
-0.158657
0.0738491
0.00403489
-0.0305459
0.012026
-0.0944215
0.0208881
-0.141241
0.0290921
-0.166773
0.0363158
-0.176746
0.0427718
-0.178143
0.0487608
-0.175739
0.0545039
-0.172025
0.0601365
-0.168061
-0.164269
0.0657485
0.00421658
-0.0347625
0.0120519
-0.102257
0.0202682
-0.149457
0.0274938
-0.173998
0.0336055
-0.182857
0.0389443
-0.183482
0.0438655
-0.18066
0.0486012
-0.17676
0.0532751
-0.172735
-0.168968
0.0579748
0.00428272
-0.0390452
0.0117311
-0.109705
0.0190648
-0.156791
0.0251196
-0.180053
0.0299682
-0.187706
0.0340551
-0.187569
0.0377663
-0.184372
0.041331
-0.180325
0.0448631
-0.176267
-0.172515
0.0484099
0.00423516
-0.0432804
0.0110866
-0.116557
0.0173558
-0.16306
0.0221305
-0.184828
0.0256691
-0.191245
0.0284936
-0.190393
0.0309987
-0.186877
0.033398
-0.182724
0.0357865
-0.178656
-0.174916
0.0381874
0.00404933
-0.0473297
0.0100879
-0.122595
0.0151183
-0.168091
0.0185071
-0.188217
0.0206764
-0.193414
0.0221999
-0.191917
0.023466
-0.188143
0.0246669
-0.183925
0.0258788
-0.179868
-0.176134
0.0270971
0.00373627
-0.051066
0.0087874
-0.127646
0.0124599
-0.171763
0.0144041
-0.190161
0.0151852
-0.194195
0.0154039
-0.192135
0.015429
-0.188168
0.0154269
-0.183923
0.0154592
-0.1799
0.0155149
-0.17619
0.000395223
-0.00165952
0.0012643
0.00429449
-0.00902823
0.00512896
0.0119822
-0.0163693
0.00868156
0.0225025
-0.0216673
0.011147
0.0346913
-0.0247018
0.0125131
0.0476468
-0.0260374
0.0130819
0.0608042
-0.0263279
0.0131706
0.0738575
-0.0260622
0.0130088
0.0866705
-0.0255494
0.0127364
-0.0251198
0.0993445
0.0124457
0.000472584
-0.00213211
0.00448891
-0.0130446
0.0122686
-0.024149
0.0228299
-0.0322286
0.0350084
-0.0368803
0.0479133
-0.0389423
0.0609928
-0.0394075
0.0739527
-0.039022
0.0866654
-0.0382621
-0.0376892
0.0992348
0.00058001
-0.00271212
0.00476221
-0.0172268
0.0126741
-0.0320609
0.023296
-0.0428505
0.0354628
-0.0490472
0.0482995
-0.051779
0.0612726
-0.0523807
0.0741034
-0.0518528
0.0866767
-0.0508353
-0.0501106
0.0990981
0.000726385
-0.0034385
0.00513576
-0.0216361
0.0132292
-0.0401543
0.0239352
-0.0535565
0.0360892
-0.0612012
0.0488386
-0.0645284
0.0616761
-0.0652181
0.074344
-0.0645208
0.0867425
-0.0632338
-0.0623442
0.0989762
0.000919815
-0.00435832
0.00562765
-0.026344
0.0139571
-0.0484837
0.024771
-0.0643704
0.0369079
-0.0733381
0.0495482
-0.0771687
0.0622211
-0.077891
0.0746974
-0.0769971
0.086895
-0.0754315
-0.0743553
0.0989061
0.00116598
-0.00552429
0.00624692
-0.0314249
0.014863
-0.0570998
0.0257979
-0.0753053
0.0379001
-0.0854403
0.0503973
-0.0896658
0.0628689
-0.0903626
0.0751242
-0.0892523
0.0871002
-0.0874076
-0.0861028
0.0988478
0.00146375
-0.00698804
0.00698084
-0.036942
0.0159124
-0.0660314
0.0269532
-0.0863461
0.0389721
-0.0974592
0.0512605
-0.101954
0.063464
-0.102566
0.0754412
-0.10123
0.0871493
-0.0991157
-0.0974984
0.0985449
0.00179337
-0.00878141
0.00776391
-0.0429126
0.016984
-0.0752515
0.0280593
-0.0974214
0.0398919
-0.109292
0.0518516
-0.113914
0.0636594
-0.114374
0.0752265
-0.112797
0.0865248
-0.110414
-0.108323
0.0973494
0.00211926
-0.0109007
0.00849345
-0.0492867
0.0179029
-0.084661
0.0288709
-0.108389
0.0403469
-0.120768
0.0517887
-0.125356
0.062995
-0.12558
0.0739252
-0.123727
0.0845547
-0.121044
-0.118222
0.094454
0.00243453
0.00917398
0.0186902
0.0294278
0.0403897
0.0511225
0.0615029
0.071549
0.0812488
0.090018
0.153756
-0.153814
0.099402
0.180717
-0.10868
0.081719
0.194424
-0.0811996
0.0674924
0.201125
-0.0613172
0.0546165
0.204119
-0.0461758
0.043181
0.205047
-0.0342719
0.0333447
0.204768
-0.0247719
0.0250506
0.20375
-0.0169816
0.0179992
0.202285
-0.0110545
0.01252
-0.00341683
0.00532171
0.152748
-0.207327
0.179758
-0.135689
0.193723
-0.095165
0.200669
-0.0682628
0.203859
-0.0493659
0.204943
-0.0353558
0.204797
-0.0246257
0.2039
-0.0160846
0.202549
-0.00970442
-0.0016329
0.150968
-0.259198
0.177936
-0.162657
0.192192
-0.109421
0.199472
-0.0755431
0.202968
-0.0528613
0.204329
-0.0367173
0.204443
-0.0247392
0.203797
-0.015439
0.202696
-0.00860269
-0.000105312
0.148368
-0.30859
0.17524
-0.189529
0.189828
-0.124009
0.197537
-0.0832526
0.20145
-0.0567742
0.20321
-0.0384771
0.203709
-0.0252381
0.203444
-0.0151741
0.202722
-0.00788072
0.00103145
0.14494
-0.354624
0.171656
-0.216245
0.186631
-0.138983
0.194869
-0.0914908
0.199313
-0.0612181
0.20159
-0.0407548
0.202599
-0.0262462
0.202841
-0.0154164
0.202628
-0.00766766
0.00164461
0.140683
-0.396459
0.167152
-0.242714
0.182598
-0.154429
0.191474
-0.100367
0.196565
-0.0663089
0.19948
-0.0436692
0.201118
-0.0278848
0.201991
-0.0162896
0.202413
-0.00808956
0.00160393
0.135575
-0.433489
0.161651
-0.26879
0.177707
-0.170485
0.187356
-0.110016
0.193218
-0.0721705
0.196888
-0.0473394
0.199276
-0.0302725
0.2009
-0.0179135
0.202079
-0.00926869
0.00078248
0.129603
-0.465742
0.155025
-0.294212
0.171878
-0.187338
0.182489
-0.120627
0.189271
-0.0789518
0.193824
-0.0518927
0.19708
-0.0335284
0.199571
-0.020405
0.201626
-0.0113233
-0.000942623
0.122885
-0.494173
0.147343
-0.31867
0.165018
-0.205014
0.176794
-0.132403
0.184689
-0.0868462
0.190279
-0.0574828
0.194532
-0.0377821
0.198009
-0.0238822
0.201055
-0.0143686
-0.00369005
0.116445
-0.5206
0.139865
-0.34209
0.157931
-0.22308
0.170646
-0.145118
0.179628
-0.0958279
0.18632
-0.0641745
0.191664
-0.0431264
0.196228
-0.0284463
0.20037
-0.0185106
-0.00757312
0.379148
-0.459647
-0.440101
0.346783
-0.309725
0.330287
-0.206584
0.322525
-0.137355
0.31853
-0.0918327
0.316145
-0.0617903
0.314564
-0.0415449
0.313489
-0.027372
0.312758
-0.0177795
-0.00726081
0.390732
-0.390581
-0.459798
0.356126
-0.27512
0.338202
-0.188661
0.328485
-0.127639
0.322734
-0.0860817
0.319055
-0.0581104
0.316599
-0.0390897
0.314963
-0.0257355
0.313884
-0.0167008
-0.00681521
0.405637
-0.325641
-0.470578
0.368812
-0.238294
0.347228
-0.167077
0.334575
-0.114985
0.326826
-0.0783328
0.321836
-0.0531205
0.318534
-0.0357869
0.316359
-0.0235611
0.314946
-0.015287
-0.00623796
0.41525
-0.265314
-0.475577
0.377883
-0.200927
0.354461
-0.143655
0.339813
-0.100338
0.330474
-0.0689937
0.32436
-0.0470066
0.320302
-0.0317288
0.31764
-0.0208984
0.315916
-0.0135634
-0.00553683
0.422254
-0.209915
-0.477653
0.385037
-0.16371
0.36043
-0.119048
0.344273
-0.0841812
0.333643
-0.0583634
0.326579
-0.0399426
0.321867
-0.0270165
0.318775
-0.0178065
0.316775
-0.0115634
-0.00472333
0.427161
-0.159022
-0.478054
0.390516
-0.127065
0.365179
-0.0937106
0.347924
-0.0669267
0.336286
-0.0467253
0.328451
-0.0321072
0.323195
-0.0217604
0.319741
-0.014353
0.317504
-0.00932655
-0.00381173
0.430451
-0.111833
-0.47764
0.394527
-0.0911417
0.368762
-0.0679453
0.350741
-0.048906
0.338357
-0.034341
0.329929
-0.0236799
0.324247
-0.0160782
0.320507
-0.0106127
0.318078
-0.00689792
-0.00281875
0.431956
-0.0667608
-0.477028
0.396636
-0.0558214
0.370731
-0.04204
0.352299
-0.0304742
0.339465
-0.0215071
0.33066
-0.0148753
0.324699
-0.0101166
0.320768
-0.00668219
0.318209
-0.00433865
-0.00176915
0.423855
-0.0210261
-0.46959
0.38934
-0.0213062
0.364245
-0.0169449
0.346332
-0.0125613
0.333776
-0.00895121
0.325119
-0.00621806
0.319241
-0.00423875
0.315365
-0.00280618
0.312843
-0.00181664
-0.000734063
0.315451
-0.336477
0.294145
0.2772
0.264638
0.255687
0.249469
0.24523
0.242424
0.240608
0.468212
0.0135306
-0.466228
0.469462
0.0258476
0.469815
0.0378335
0.469391
0.0488347
0.467361
0.0600042
0.465218
0.0678914
0.459468
0.0795995
0.455843
0.081829
0.444694
0.0971738
0.0907781
0.449195
0.0116866
-0.447351
0.451177
0.0238651
0.453124
0.0358866
0.455262
0.0466969
0.456803
0.0584631
0.458852
0.0658421
0.459595
0.0788571
0.460717
0.080707
0.461922
0.0959685
0.0929024
0.433198
0.00979508
-0.431306
0.435763
0.0213
0.438885
0.032764
0.442602
0.0429802
0.44674
0.0543256
0.451181
0.0614003
0.456289
0.0737491
0.460618
0.0763782
0.466738
0.0898488
0.0890621
0.420825
0.00791647
-0.418946
0.423714
0.0184107
0.427588
0.0288902
0.432289
0.0382787
0.438057
0.0485575
0.444109
0.0553484
0.451714
0.0661441
0.458607
0.069486
0.467751
0.080704
0.0812369
0.411181
0.00606271
-0.409327
0.41429
0.015302
0.418663
0.024517
0.424075
0.032867
0.430869
0.0417628
0.438163
0.0480548
0.447271
0.0570361
0.456151
0.0606056
0.467273
0.0695824
0.0708573
0.40387
0.00420376
-0.402011
0.407149
0.0120224
0.411865
0.0198015
0.417798
0.0269339
0.425241
0.0343194
0.43345
0.0398462
0.443471
0.0470149
0.453695
0.0503819
0.465966
0.057311
0.0587698
0.39846
0.00229775
-0.396554
0.401904
0.00857876
0.406889
0.0148159
0.413234
0.0205895
0.421121
0.0264324
0.42998
0.0309872
0.440534
0.0364608
0.451622
0.0392942
0.464536
0.0443962
0.0456662
0.393217
0.000186762
-0.391106
0.396941
0.00485475
0.402337
0.00941976
0.409221
0.0137059
0.417659
0.0179941
0.427203
0.0214429
0.438261
0.0254029
0.450001
0.0275548
0.46337
0.0310268
0.032008
0.373526
-0.00149843
-0.371841
0.377495
0.000885824
0.38353
0.00338467
0.391481
0.00575495
0.40131
0.00816517
0.412539
0.0102136
0.425409
0.0125334
0.439031
0.0139328
0.454084
0.0159738
0.0165021
0.249131
-0.250629
0.250017
0.253401
0.259156
0.267321
0.277535
0.290068
0.304001
0.319975
0.0760814
0.126822
-0.115546
-0.0873572
0.0657263
0.129018
-0.118663
0.0560879
0.13179
-0.122151
0.0467156
0.135416
-0.126044
0.0372813
0.13946
-0.130025
0.0277012
0.143269
-0.133688
0.0181886
0.144955
-0.135442
0.00942627
0.139145
-0.130383
0.00275409
0.114633
-0.107961
0.0553771
-0.052623
0.0762555
0.137032
-0.0864652
0.0659106
0.139363
0.0557468
0.141953
0.0458727
0.14529
0.0361744
0.149158
0.0265779
0.152865
0.0172514
0.154281
0.00881992
0.147577
0.00252061
0.120932
0.0578977
0.0715855
0.146033
-0.0805872
0.0620676
0.148881
0.0524268
0.151594
0.0428966
0.154821
0.0335225
0.158532
0.0243184
0.162069
0.0154888
0.163111
0.00766688
0.155399
0.00203771
0.126561
0.0599354
0.0624453
0.15373
-0.0701421
0.0543164
0.15701
0.0459013
0.160009
0.0373807
0.163341
0.0288701
0.167043
0.0204873
0.170452
0.0125412
0.171057
0.00574504
0.162195
0.00123203
0.131074
0.0611675
0.0509587
0.160115
-0.0573431
0.0443094
0.163659
0.0373455
0.166973
0.0301455
0.170541
0.0228256
0.174363
0.0155774
0.1777
0.00881902
0.177815
0.00337247
0.167641
0.000257877
0.134189
0.0614254
0.0390894
0.165328
-0.0443025
0.0337362
0.169012
0.0281136
0.172596
0.0222333
0.176422
0.0161953
0.180401
0.0102294
0.183666
0.00483731
0.183207
0.000814616
0.171664
-0.000650563
0.135654
0.0607748
0.0276579
0.169521
-0.031851
0.0234014
0.173269
0.018946
0.177051
0.0142801
0.181087
0.00949338
0.185187
0.0048516
0.188308
0.000837001
0.187222
-0.00147148
0.173972
-0.0014567
0.135639
0.0593181
0.0166675
0.172724
-0.0198711
0.0134335
0.176503
0.0100578
0.180427
0.0065379
0.184607
0.00297032
0.188755
-0.00037919
0.191657
-0.00278857
0.189631
-0.00353912
0.174723
-0.00216802
0.134268
0.0571501
0.00593053
0.174966
-0.0081717
0.00370342
0.17873
0.00140681
0.182724
-0.000951187
0.186965
-0.00326553
0.191069
-0.00520324
0.193595
-0.00620422
0.190632
-0.00547401
0.173993
-0.0027796
0.131574
0.0543705
-0.00469478
0.0034706
-0.00586486
-0.00706436
-0.00826693
-0.009333
-0.0099329
-0.00946153
-0.00723197
-0.00330447
0.105369
0.0238629
-0.116754
-0.0124776
0.0936584
0.0244807
-0.01277
0.0816102
0.0251284
-0.0130802
0.0691995
0.0258197
-0.013409
0.0564076
0.0265541
-0.0137622
0.043239
0.0272957
-0.0141272
0.0298226
0.027817
-0.0144006
0.0167358
0.0272537
-0.0141669
0.00564077
0.0233906
-0.0122955
0.0122163
-0.00657556
0.10451
0.0352152
-0.115862
0.0928467
0.036144
0.0808578
0.0371172
0.0685191
0.0381585
0.0558118
0.0392614
0.0427415
0.0403659
0.0294402
0.0411183
0.0164882
0.0402057
0.00553867
0.0343401
0.017755
0.103265
0.0465209
-0.114571
0.0916769
0.0477319
0.0797796
0.0490145
0.0675488
0.0503892
0.0549658
0.0518444
0.0420376
0.0532941
0.0289009
0.0542551
0.0161407
0.0529659
0.00539445
0.0450864
0.0231495
0.101552
0.0577614
-0.112792
0.0900711
0.0592126
0.0783035
0.0607821
0.0662233
0.0624694
0.0538116
0.0642561
0.0410774
0.0660283
0.0281644
0.0671681
0.0156647
0.0654655
0.00519455
0.0555566
0.028344
0.0992436
0.068902
-0.110384
0.0879228
0.0705334
0.0763502
0.0723547
0.0644926
0.074327
0.0523242
0.0764244
0.039853
0.0784995
0.027232
0.0797891
0.0150682
0.0776294
0.00495888
0.0656659
0.0333029
0.0960143
0.0798764
-0.106989
0.0849272
0.0816205
0.0736188
0.0836631
0.0620593
0.0858865
0.0502263
0.0882575
0.0381292
0.0905966
0.0259263
0.091992
0.0142313
0.0893243
0.00461511
0.0752821
0.037918
0.0923637
0.0904427
-0.10293
0.081747
0.0922372
0.0709086
0.0945016
0.0597749
0.0970202
0.0483181
0.0997143
0.036572
0.102343
0.0247367
0.103827
0.0134656
0.100595
0.00431006
0.0844377
0.0422281
0.0855485
0.100529
-0.0956347
0.0755227
0.102263
0.065394
0.10463
0.0550725
0.107342
0.044475
0.110312
0.0335857
0.113232
0.0225889
0.114824
0.0121484
0.111036
0.00378498
0.0928011
0.046013
0.082792
0.109358
-0.0916215
0.0736325
0.111423
0.0638682
0.114395
0.0536384
0.117572
0.0430817
0.120868
0.0323078
0.124006
0.0215505
0.125581
0.0114736
0.121113
0.0035281
0.100747
0.0495411
0.0717361
-0.0779241
0.0644957
0.056739
0.0482664
0.0391094
0.0294269
0.019566
0.0102961
0.00308192
0.201757
0.0121881
-0.0159553
0.204599
0.0266123
-0.0294548
0.205131
0.0336456
-0.0341771
0.206042
0.0357893
-0.0367007
0.205482
0.0418123
-0.0412517
0.203154
0.0505094
-0.0481814
0.197388
0.0630047
-0.0572386
0.186732
0.0797957
-0.0691401
0.162258
0.106653
-0.0821783
0.144608
-0.0991044
0.201502
0.00867583
0.204193
0.0239215
0.204665
0.0331733
0.205519
0.0349358
0.20487
0.0424611
0.202399
0.0529807
0.196466
0.0689375
0.185477
0.0907845
0.16076
0.13137
0.189505
0.201128
0.00553792
0.203517
0.0215317
0.20383
0.0328609
0.204489
0.0342769
0.203617
0.043333
0.200873
0.0557248
0.194679
0.0751317
0.183237
0.102226
0.158282
0.156325
0.233216
0.200629
0.00289876
0.202576
0.0195846
0.202635
0.0328019
0.202965
0.0339469
0.201736
0.0445619
0.19859
0.0588711
0.192024
0.0816978
0.180008
0.114242
0.155096
0.181236
0.27552
0.2
0.000888813
0.201373
0.0182115
0.201094
0.0330808
0.200962
0.0340791
0.199244
0.0462794
0.195566
0.0625494
0.188494
0.0887696
0.17578
0.126957
0.151396
0.20562
0.316532
0.199233
-0.000354851
0.199914
0.0175309
0.199222
0.0337727
0.198495
0.034806
0.196161
0.0486134
0.19182
0.0668904
0.184084
0.0965057
0.170521
0.140519
0.147146
0.228996
0.35669
0.198324
-0.000689011
0.198208
0.0176467
0.197038
0.0349432
0.195584
0.0362599
0.192511
0.0516863
0.187376
0.0720253
0.178856
0.105026
0.164175
0.155201
0.142306
0.250864
0.396066
0.197263
3.7691e-05
0.196268
0.0186417
0.194561
0.0366507
0.192247
0.0385735
0.18832
0.0556132
0.182261
0.0780841
0.172852
0.114435
0.156895
0.171158
0.136298
0.271461
0.436729
0.196057
0.00197063
0.194124
0.0205743
0.191816
0.0389595
0.188507
0.0418825
0.183615
0.0605051
0.176515
0.0851838
0.166195
0.124754
0.149802
0.187551
0.130689
0.290575
0.475796
0.194829
0.00513149
0.191814
0.0235896
0.188863
0.0419105
0.184336
0.0464088
0.178483
0.0663581
0.1702
0.0934677
0.158183
0.136771
0.140051
0.205682
0.121149
0.309477
0.519022
0.303502
0.00363944
0.306293
0.0207992
0.310334
0.0378691
0.312605
0.0441373
0.315363
0.063601
0.318464
0.0903659
0.323562
0.131673
0.334044
0.1952
0.361531
0.28199
0.461647
0.418905
0.304269
0.00138034
0.30747
0.0175987
0.311955
0.0333844
0.315107
0.0409845
0.319226
0.0594824
0.324599
0.0849933
0.333111
0.123161
0.3486
0.17971
0.378782
0.251809
0.401803
0.438626
0.305044
-0.00165363
0.308834
0.0138086
0.313611
0.028608
0.317608
0.036987
0.322889
0.0542013
0.330124
0.077759
0.341408
0.111877
0.359878
0.161241
0.392791
0.218895
0.340366
0.454228
0.305865
-0.00550838
0.31024
0.00943365
0.315263
0.0235851
0.319973
0.0322764
0.326282
0.0478927
0.335084
0.0689572
0.348501
0.0984592
0.369173
0.140569
0.403221
0.184847
0.280478
0.463109
0.30679
-0.0102885
0.311709
0.00451525
0.316877
0.0184168
0.322143
0.0270105
0.329314
0.0407218
0.339397
0.0588744
0.354391
0.0834651
0.376736
0.118223
0.410512
0.151071
0.22371
0.467281
0.307882
-0.0161603
0.313289
-0.000891838
0.318433
0.0132727
0.324068
0.0213758
0.331923
0.0328663
0.343011
0.0477872
0.359134
0.0673413
0.382646
0.0947115
0.415484
0.118233
0.170603
0.468592
0.309212
-0.0233624
0.31501
-0.00668952
0.3199
0.00838245
0.325695
0.0155809
0.33406
0.0245014
0.345892
0.0359556
0.362799
0.0504335
0.387028
0.0704833
0.418778
0.0864831
0.120923
0.468458
0.310766
-0.0321182
0.316777
-0.0127002
0.321072
0.00408669
0.32677
0.00988378
0.335482
0.0157888
0.347834
0.0236036
0.365288
0.0329797
0.389901
0.0458703
0.420746
0.0556376
0.0743115
0.467358
0.309053
-0.0391608
0.31335
-0.016997
0.316791
0.000645648
0.322466
0.00420806
0.331393
0.00686198
0.344104
0.0108925
0.361976
0.0151081
0.386728
0.0211184
0.417361
0.025005
0.0324022
0.45927
0.262849
0.245852
0.246498
0.250706
0.257568
0.268461
0.283569
0.304687
0.329692
0.362094
0.434155
-0.102607
0.440126
-0.0924357
0.443812
-0.0842732
0.446947
-0.0732772
0.450247
-0.0606433
0.45373
-0.0477856
0.457234
-0.0353545
0.460553
-0.0231901
0.463534
-0.0111534
0.000777037
0.440524
-0.104505
0.441502
-0.0934139
0.440788
-0.0835595
0.440331
-0.0728197
0.440606
-0.0609183
0.441473
-0.0486521
0.442695
-0.0365769
0.44418
-0.0246752
0.445787
-0.0127602
-0.000786878
0.448471
-0.0987485
0.443997
-0.0889393
0.439518
-0.0790808
0.435552
-0.0688537
0.432673
-0.0580388
0.430863
-0.0468423
0.429926
-0.0356402
0.429743
-0.0244924
0.430222
-0.0132388
-0.00187133
0.452895
-0.0885342
0.444375
-0.0804193
0.436939
-0.0716456
0.430551
-0.062465
0.425521
-0.0530089
0.421911
-0.0432324
0.419555
-0.0332847
0.418304
-0.0232413
0.4181
-0.0130344
-0.00271743
0.45464
-0.0758939
0.443673
-0.0694525
0.434235
-0.0622069
0.426244
-0.0544742
0.41979
-0.0465553
0.414915
-0.0383572
0.411524
-0.0298936
0.409503
-0.02122
0.408793
-0.0123245
-0.00325185
0.454672
-0.0619744
0.442306
-0.0570858
0.431578
-0.0514793
0.422508
-0.0454047
0.415106
-0.0391523
0.409378
-0.0326298
0.405273
-0.0257888
0.402712
-0.0186586
0.401637
-0.0112499
-0.00362556
0.453827
-0.0473439
0.440642
-0.043901
0.429108
-0.0399447
0.419336
-0.0356333
0.411315
-0.0311307
0.405031
-0.0263457
0.400454
-0.0212118
0.397535
-0.0157395
0.396244
-0.00995937
-0.00393553
0.452177
-0.0321628
0.438327
-0.0300512
0.42618
-0.0277983
0.415853
-0.0253063
0.40732
-0.0225974
0.400567
-0.0195929
0.395581
-0.016225
0.39234
-0.012499
0.390843
-0.00846277
-0.00419815
0.442403
-0.0152963
0.427335
-0.0149825
0.414072
-0.0145356
0.402614
-0.0138487
0.392917
-0.0129003
0.38497
-0.0116453
0.378809
-0.0100643
0.37451
-0.00819994
0.372167
-0.00611942
-0.00387267
0.346798
0.331815
0.31728
0.303431
0.290531
0.278885
0.268821
0.260621
0.254502
0.00890366
0.0646203
-0.0735239
0.0183302
0.163265
-0.172691
0.022718
0.217138
-0.221525
0.0227956
0.237926
-0.238003
0.0205761
0.242142
-0.239923
0.0174594
0.240245
-0.237128
0.0141185
0.236617
-0.233276
0.0108977
0.231987
-0.228766
0.00818699
0.224412
-0.221702
0.208479
0.0065676
-0.206859
0.0106623
0.0539579
0.0246865
0.149241
0.0341678
0.207656
0.0387485
0.233345
0.0403631
0.240528
0.0407163
0.239892
0.0406912
0.236642
0.0405339
0.232144
0.0400198
0.224926
0.210146
0.0383524
0.0114101
0.0425478
0.0291474
0.131503
0.043623
0.193181
0.0530323
0.223936
0.0588867
0.234673
0.063037
0.235741
0.0666041
0.233075
0.0698521
0.228896
0.0720812
0.222697
0.21104
0.0711877
0.0110678
0.03148
0.030916
0.111655
0.0495373
0.174559
0.0636365
0.209836
0.0739001
0.22441
0.0820391
0.227602
0.0893621
0.225752
0.0963501
0.221908
0.10237
0.216677
0.208568
0.104842
0.0098094
0.0216706
0.0297346
0.0917299
0.050835
0.153459
0.0687726
0.191899
0.0831672
0.210015
0.0952293
0.21554
0.106239
0.214743
0.116911
0.211236
0.127097
0.206491
0.20063
0.135035
0.00796173
0.0137089
0.0260149
0.0736767
0.0473974
0.132077
0.0675459
0.17175
0.0851026
0.192459
0.100521
0.200122
0.114759
0.200505
0.128568
0.197427
0.142233
0.192826
0.187375
0.155488
0.00587876
0.00783011
0.0207847
0.0587708
0.0404601
0.112401
0.0609161
0.151294
0.0802043
0.17317
0.0980149
0.182311
0.114788
0.183732
0.131083
0.181132
0.147232
0.176677
0.17073
0.163877
0.00384999
0.00398012
0.0151964
0.0474244
0.0319439
0.0956536
0.0510638
0.132174
0.0704493
0.153785
0.0892064
0.163554
0.107213
0.165725
0.124662
0.163683
0.141812
0.159528
0.153562
0.158979
0.00217443
0.00180569
0.0103936
0.0392052
0.0240716
0.0819756
0.0411161
0.11513
0.059578
0.135323
0.0782753
0.144857
0.096701
0.1473
0.114764
0.14562
0.132622
0.14167
0.135062
0.151122
0.00100194
0.000803743
0.00694425
0.0332629
0.0180821
0.0708378
0.0329748
0.100237
0.0499016
0.118396
0.0675525
0.127206
0.0851132
0.129739
0.10213
0.128603
0.118252
0.125548
0.120071
0.133243
0.000354707
0.000449036
0.00496342
0.0286542
0.0144262
0.061375
0.0276716
0.0869918
0.0432113
0.102856
0.0597972
0.11062
0.0765987
0.112937
0.0931574
0.112044
0.109244
0.109462
0.106373
0.122941
0.000114418
0.000334618
0.00411821
0.0246504
0.0126754
0.0528178
0.0248735
0.0747937
0.0393829
0.0883468
0.055047
0.0949563
0.0710577
0.0969266
0.0869268
0.0961754
0.102393
0.0939957
0.0922575
0.116509
6.27963e-05
0.000271821
0.00383021
0.020883
0.0119055
0.0447426
0.0234143
0.0632848
0.0371069
0.0746542
0.0519018
0.0801614
0.0670404
0.081788
0.082056
0.0811598
0.0966788
0.0793729
0.0782857
0.110651
8.95852e-05
0.000182236
0.00376542
0.0172071
0.0115688
0.0369392
0.0226167
0.0522369
0.0356971
0.0615738
0.0497859
0.0660726
0.0641763
0.0673975
0.0784365
0.0668996
0.0923165
0.065493
0.0647581
0.105844
0.000137263
4.49727e-05
0.00379644
0.013548
0.0114593
0.0292764
0.0222268
0.0414695
0.0349049
0.0488956
0.0485096
0.052468
0.0623772
0.0535299
0.0761112
0.0531655
0.0894947
0.0521095
0.0516134
0.102639
0.000186562
-0.00014159
0.00385909
0.00987543
0.0114566
0.0216788
0.0220673
0.0308588
0.0345069
0.036456
0.0478183
0.0391566
0.061371
0.0399772
0.0747994
0.0397372
0.0879165
0.0389924
0.0386859
0.100844
0.000225672
-0.000367262
0.00392227
0.00617883
0.011495
0.0141061
0.0220249
0.0203289
0.0343348
0.024146
0.0474859
0.0260055
0.0608702
0.0265929
0.0741434
0.0264639
0.0871386
0.0259973
0.025856
0.0999685
0.000261064
-0.000628326
0.00398643
0.00245346
0.011558
0.00653459
0.0220523
0.00983454
0.0342976
0.0119007
0.047367
0.0129362
0.0606669
0.0132931
0.0738665
0.0132642
0.0868101
0.0130537
0.0130635
0.0996026
0.000296375
-0.000924701
0.00405997
-0.00131014
0.0116493
-0.00105474
0.0221357
-0.000651852
0.0343513
-0.000314877
0.0473777
-9.02008e-05
0.0606298
4.09203e-05
0.0737874
0.000106539
0.0867017
0.000139434
0.000293801
0.0994714
0.000339597
0.00415842
0.0117852
0.0222804
0.0344786
0.0474703
0.0606818
0.0737972
0.086673
0.0994125
0.138616
0.299523
-0.315198
0.150688
0.126599
-0.138671
0.160086
0.0430287
-0.052426
0.167438
0.00578791
-0.0131401
0.173679
-0.00867883
0.00243738
0.179275
-0.0129142
0.00731833
0.184431
-0.0128871
0.0077309
0.189225
-0.0111984
0.00640461
0.193719
-0.00921237
0.00471856
-0.00604723
0.00202045
0.139707
0.276324
0.156028
0.110278
0.166487
0.0325693
0.173742
-0.00146666
0.179249
-0.0141868
0.183889
-0.0175538
0.187978
-0.0169758
0.191651
-0.0148715
0.195004
-0.0125659
-0.00894298
0.141698
0.245276
0.161086
0.0908909
0.172263
0.0213924
0.179303
-0.00850679
0.184259
-0.0191431
0.188074
-0.0213686
0.191215
-0.0201166
0.19388
-0.0175369
0.196205
-0.0148908
-0.0108158
0.144203
0.206918
0.165734
0.0693601
0.177466
0.00965974
0.18434
-0.0153803
0.188748
-0.0235516
0.191831
-0.0244516
0.194132
-0.0224174
0.195905
-0.0193095
0.197317
-0.0163032
-0.0117791
0.146864
0.162694
0.169884
0.0463398
0.182038
-0.0024941
0.188756
-0.0220982
0.192701
-0.0274964
0.195149
-0.0269004
0.196721
-0.0239889
0.197718
-0.0203065
0.198337
-0.0169223
-0.0119507
0.149326
0.114212
0.173459
0.0222071
0.185951
-0.0149869
0.192538
-0.0286851
0.196096
-0.0310545
0.198012
-0.0288162
0.198969
-0.0249459
0.199312
-0.0206489
0.19926
-0.0168707
-0.0114524
0.151365
0.0628152
0.176397
-0.00282444
0.189169
-0.0277597
0.195661
-0.0351764
0.198915
-0.034309
0.200404
-0.0303057
0.200866
-0.0254074
0.200678
-0.020461
0.200082
-0.0162747
-0.01041
0.152864
0.00955415
0.178637
-0.0285974
0.191654
-0.0407771
0.198098
-0.04162
0.201139
-0.0373502
0.202313
-0.03148
0.202401
-0.0254952
0.20181
-0.0198702
0.200799
-0.0152632
-0.00895261
0.153767
-0.0447414
0.180129
-0.0549595
0.193374
-0.0540219
0.19983
-0.0480766
0.202754
-0.040274
0.203728
-0.0324539
0.203567
-0.0253342
0.202703
-0.019006
0.201407
-0.0139674
-0.00721197
0.154073
0.180833
0.194303
0.200843
0.20375
0.204641
0.204357
0.203351
0.201903
0.116924
0.00214459
-0.119069
0.114469
0.00245475
0.112505
0.00196439
0.112266
0.000239303
0.113127
-0.000861905
0.114284
-0.00115641
0.11534
-0.00105654
0.116165
-0.000824808
0.11674
-0.000574364
-0.000231868
0.228356
0.0641526
-0.290364
0.198983
0.0318281
0.187403
0.013544
0.184223
0.00341974
0.184448
-0.00108729
0.18582
-0.00252811
0.187349
-0.00258547
0.188636
-0.00211236
0.189588
-0.00152631
-0.000638531
0.25209
0.154332
-0.342269
0.213964
0.0699544
0.199913
0.0275949
0.196026
0.00730688
0.196109
-0.00117062
0.197518
-0.00393748
0.199143
-0.00421061
0.20053
-0.00349937
0.201572
-0.00256836
-0.00109049
0.248985
0.240807
-0.33546
0.213127
0.105812
0.200152
0.0405693
0.19681
0.0106491
0.197179
-0.00153945
0.198755
-0.00551402
0.200463
-0.00591785
0.201894
-0.00493084
0.202961
-0.00363561
-0.00155294
0.243296
-0.317686
0.210437
0.19858
0.19609
0.196987
0.198792
0.200605
0.202079
0.203162
0.0142705
0.000248562
-0.014519
0.0156205
-0.00135002
0.0182765
-0.00265597
0.0221636
-0.00388713
0.0279718
-0.00580817
0.0359016
-0.00792981
0.0497165
-0.013815
0.066393
-0.0166765
0.092208
-0.025815
-0.0268605
0.0402902
0.000200489
-0.0402421
0.0450609
-0.00612073
0.0545732
-0.0121683
0.069668
-0.0189819
0.0915409
-0.0276811
0.120813
-0.0372024
0.159128
-0.0521295
0.200254
-0.0578026
0.248416
-0.0739768
-0.0688088
0.0627804
-0.000795293
-0.0617846
0.0709756
-0.0143159
0.0867894
-0.027982
0.111266
-0.0434581
0.144611
-0.0610265
0.185766
-0.0783577
0.230626
-0.0969895
0.274008
-0.101184
0.313777
-0.113746
-0.0973008
0.0808675
-0.00303067
-0.0786321
0.0918535
-0.0253019
0.112166
-0.0482941
0.142015
-0.0733076
0.179649
-0.0986606
0.221171
-0.11988
0.259091
-0.13491
0.292461
-0.134554
0.317168
-0.138453
-0.115593
0.0945136
-0.0909767
0.107564
0.130458
0.161992
0.198367
0.233975
0.262942
0.287367
0.300036
0.0934556
-0.0890209
0.0973451
-0.10178
0.0846215
-0.0913008
0.100135
0.0755018
-0.0945588
0.103679
0.0654935
-0.0979597
0.107968
0.0543972
-0.101362
0.112458
0.0422919
-0.104622
0.116727
0.0294733
-0.106792
0.11961
0.0166747
-0.104282
0.117081
0.00566705
-0.088397
0.0994047
-0.044796
0.050463
0.105209
-0.0788805
-0.115349
0.0945837
-0.0806758
0.0829954
-0.0829704
0.0705754
-0.0855398
0.0575571
-0.0883437
0.0441194
-0.0911841
0.0304598
-0.0931322
0.0171526
-0.0909748
0.00583333
-0.0770777
-0.0389626
0.102006
-0.067476
-0.11341
0.0905213
-0.0691912
0.078834
-0.0712831
0.0669066
-0.0736124
0.0546566
-0.0760937
0.0420114
-0.078539
0.0290458
-0.0801667
0.0163163
-0.0782452
0.00548405
-0.0662455
-0.0334786
0.105004
-0.0560684
-0.116412
0.0934754
-0.0576625
0.0816344
-0.0594422
0.0693868
-0.0613647
0.0566788
-0.0633857
0.0435164
-0.0653765
0.0300515
-0.0667018
0.01689
-0.0650837
0.00571066
-0.0550661
-0.0277679
0.10556
-0.0445811
-0.117047
0.0938385
-0.0459409
0.0817856
-0.0473893
0.0693697
-0.0489488
0.0565688
-0.0505849
0.0433853
-0.0521929
0.0299431
-0.0532597
0.0168129
-0.0519534
0.00565788
-0.0439111
-0.02211
0.106064
-0.0331403
-0.117504
0.0943276
-0.034205
0.0822484
-0.0353101
0.069796
-0.0364964
0.0569454
-0.0377342
0.0436967
-0.0389443
0.0301765
-0.0397395
0.0169621
-0.038739
0.00572838
-0.0326774
-0.0163817
0.106298
-0.0217275
-0.117711
0.094554
-0.0224607
0.0824541
-0.0232102
0.0699724
-0.0240147
0.0570892
-0.024851
0.0438083
-0.0256634
0.0302564
-0.0261877
0.0170097
-0.0254923
0.00574767
-0.0214154
-0.010634
0.106365
-0.0103234
-0.117769
0.0946143
-0.0107099
0.0825065
-0.0111023
0.0700168
-0.011525
0.0571264
-0.0119606
0.0438392
-0.0123762
0.0302814
-0.0126298
0.0170285
-0.0122395
0.00575797
-0.0101448
-0.00487601
0.106244
0.00106693
-0.117635
0.0944964
0.00103814
0.0823943
0.000999697
0.0699133
0.000955998
0.0570346
0.000918121
0.0437627
0.000895737
0.0302241
0.000908746
0.0169935
0.000991108
0.00574483
0.0011039
0.000868814
0.105907
-0.117318
0.094175
0.0820946
0.0696415
0.0567975
0.043566
0.0300742
0.0168984
0.00570675
0.0230351
-0.204476
-0.0254187
0.0178326
-0.216499
0.0115963
-0.22253
0.00513251
-0.226813
-0.00117937
-0.230816
-0.00682875
-0.234274
-0.0106798
-0.234152
-0.0110527
-0.221152
-0.00643413
-0.17731
-0.0799581
0.0525148
-0.199534
-0.057457
0.044286
-0.20827
0.0350729
-0.213317
0.0257496
-0.217489
0.0165991
-0.221666
0.00789637
-0.225571
0.00038571
-0.226641
-0.00394587
-0.216821
-0.00367613
-0.17758