/*--------------------------------*- C++ -*----------------------------------*\
  =========                 |
  \\      /  F ield         | OpenFOAM: The Open Source CFD Toolbox
   \\    /   O peration     | Website:  https://openfoam.org
    \\  /    A nd           | Version:  13
     \\/     M anipulation  |
\*---------------------------------------------------------------------------*/
FoamFile
{
    format      ascii;
    class       surfaceScalarField;
    location    "2.75";
    object      phi;
}
// * * * * * * * * * * * * * * * * * * * * * * * * * * * * * * * * * * * * * //

dimensions      [0 3 -1 0 0 0 0];

internalField   nonuniform List<scalar> 
823
(
0.000731913
0.0182926
-0.0190246
0.0292107
0.0139935
-0.0424722
0.103076
-0.0310253
-0.0428405
0.216348
-0.0944296
-0.0188415
-0.151904
0.00733148
0.36092
0.00468875
0.0136039
0.0586922
-0.04001
0.164009
-0.136342
0.292175
-0.222596
-0.297803
0.438073
0.024889
-0.0112851
0.117747
-0.132868
0.23555
-0.254144
0.345076
-0.332122
-0.375096
0.42237
0.0475669
-0.058852
0.148539
-0.23384
0.233908
-0.339513
0.285345
-0.38356
-0.396443
0.306692
0.0611932
-0.120045
0.135424
-0.308072
0.178317
-0.382405
0.196712
-0.401955
0.208235
-0.407965
-0.0219186
0.0657923
-0.0438737
-0.0584225
0.0971857
-0.0606818
-0.0974788
0.0966731
-0.0576168
-0.135362
0.0891308
-0.0512474
0.0786644
-0.170315
-0.0437116
-0.00532542
0.0711177
-0.0244192
0.116279
-0.0466074
0.118861
-0.0648727
0.107396
0.0911284
-0.0773367
0.0171394
0.0539783
0.0293864
0.104033
0.0361019
0.112146
0.0442861
0.0992119
0.0773169
0.0580976
0.0246816
0.0292967
0.058807
0.0699071
0.0884905
0.0824624
0.113494
0.074208
0.0515052
0.139306
0.0102721
0.037707
0.0773288
0.132695
0.191532
-0.0795466
-0.105468
0.0146992
0.147537
-0.704138
0.477054
0.290664
-0.531767
0.38864
0.369329
-0.345402
0.266737
-0.152275
0.125847
0.0524837
-0.235288
0.205629
-0.857284
0.317152
-0.643289
0.381461
-0.409712
-0.175001
0.238393
-0.415583
0.318606
-0.937497
0.370251
-0.694934
0.403407
-0.442868
-0.189533
0.367407
-0.643684
0.41981
-0.9899
0.433696
-0.708821
0.43364
-0.442812
-0.193096
0.396887
-0.849039
0.461169
-1.05418
0.473734
-0.721385
0.460085
-0.429164
-0.190725
1.23525
-0.859183
-1.2251
1.09448
-0.913419
0.926037
-0.55294
0.789362
-0.292489
-0.126875
1.25413
-0.672025
-1.44129
0.999416
-0.658707
0.817655
-0.371179
0.722775
-0.197609
-0.0889648
1.25546
-0.522066
-1.40542
1.05379
-0.457038
0.87459
-0.191977
0.751388
-0.0744079
-0.0348971
1.13623
-0.311761
-1.34654
0.899962
-0.220767
0.752166
-0.0441808
0.66878
0.00897818
0.00196284
0.619344
-0.931105
0.398577
0.354396
0.363374
1.13368
0.170335
-1.09578
1.20939
0.230986
1.29658
0.33518
1.32705
0.407608
0.462865
1.04281
0.110712
-0.983189
1.11857
0.155224
1.21794
0.235817
1.33304
0.2925
0.354624
0.990045
0.0586067
-0.937939
1.05188
0.0933916
1.14605
0.141646
1.26481
0.173742
0.21401
0.94522
0.0161813
-0.902795
1.00544
0.033176
1.09666
0.0504209
1.20872
0.061681
0.0761941
0.709633
-0.693452
0.742809
0.79323
0.854911
0.134173
0.315274
-0.262384
-0.187063
0.0885467
0.321286
-0.27566
0.0484669
0.331833
-0.291753
0.0155955
0.323426
-0.290555
0.209941
-0.194345
0.0978968
0.352767
-0.13539
0.0614477
0.357735
0.0288452
0.364435
0.00412447
0.348147
0.214065
0.0545535
0.384654
-0.0864401
0.0252028
0.387086
0.000861827
0.388776
-0.00986656
0.358875
0.204199
-0.0235911
0.399044
0.00920137
-0.0381856
0.40168
-0.043842
0.394432
-0.0318826
0.346916
0.172316
-0.102868
0.0939459
-0.103143
-0.0911154
-0.052271
0.197124
0.11064
-0.248132
-0.0596319
0.144413
0.115934
-0.0632236
0.0899362
0.122232
-0.0677551
0.0366502
0.123803
-0.0705168
0.0883441
-0.0516939
0.184241
0.153932
-0.227532
0.13907
0.161105
0.0891735
0.172129
0.0371572
0.175819
0.125501
0.15274
0.199975
-0.198783
0.109336
0.204509
0.0669759
0.214489
0.0259646
0.21683
0.151466
0.154495
0.235851
-0.190371
0.113199
0.245805
0.068544
0.259144
0.026263
0.259111
0.177729
0.110524
-0.137057
0.0806692
0.0480603
0.0166165
0.410842
0.0295838
-0.0444461
0.420776
0.0690569
-0.0789914
0.413977
0.198203
-0.191404
0.379934
0.277865
-0.243821
0.49392
-0.362119
0.408636
0.0169277
0.414399
0.0632939
0.404746
0.207856
0.370541
0.31207
0.636929
0.402986
0.00992137
0.408468
0.0578121
0.381427
0.234897
0.364314
0.329183
0.80246
0.397736
0.00816546
0.392934
0.0626134
0.365187
0.262644
0.339048
0.355322
0.951137
0.389021
0.0151243
0.379669
0.0719653
0.333022
0.30929
0.31507
0.373274
1.12915
0.620593
-0.00144841
0.644415
0.0481437
0.665751
0.287953
0.746654
0.292371
0.83636
1.03944
0.625974
-0.0234015
0.644682
0.0294348
0.708356
0.22428
0.791933
0.208794
0.597996
1.0303
0.625708
-0.0450896
0.651773
0.00337029
0.739476
0.136576
0.823521
0.12475
0.393344
1.02817
0.617266
-0.0583356
0.65024
-0.029603
0.742838
0.0439779
0.815584
0.052004
0.195019
1.01391
0.545685
0.516082
0.56006
0.612064
0.807082
1.05948
-0.207098
1.0512
-0.127115
1.0518
-0.0870308
1.05438
0.0066201
0.0525382
0.982799
-0.159599
0.967535
-0.111851
0.94585
-0.065346
0.962538
-0.0100681
0.031887
0.967063
-0.0984895
0.936144
-0.0809324
0.915107
-0.0443089
0.923307
-0.0182679
0.0172547
0.955992
-0.0405734
0.912473
-0.0374126
0.890801
-0.0226373
0.887688
-0.0151551
0.00214811
0.766509
0.729096
0.706459
0.691304
0.0472595
0.13608
-0.183339
0.07251
0.303745
-0.328996
0.0739771
0.358746
-0.360213
0.0635043
0.364001
-0.353528
0.333565
0.051391
-0.321452
0.0674367
0.068643
0.140031
0.231151
0.176555
0.322222
0.182414
0.358143
0.356349
0.15963
0.0552067
0.0134364
0.166356
0.120002
0.262664
0.225914
0.335038
0.285769
0.341223
0.350164
0.0249737
-0.0115373
0.116654
0.028321
0.23672
0.105848
0.355267
0.167223
0.225585
0.470905
0.00294363
-0.0144809
0.0446631
-0.0133985
0.136281
0.0142297
0.251597
0.0519072
0.0800929
0.397089
-0.00276436
-0.0117166
0.00952287
-0.0256857
0.0492872
-0.0255346
0.114648
-0.0134534
0.00384759
0.190893
0.00600566
-0.0177222
0.0163862
-0.0360662
0.0306911
-0.0398396
0.0530694
-0.0358317
-0.0275383
0.0844553
-0.0103542
-0.00736807
-0.0280172
-0.0184031
-0.0453956
-0.0224612
-0.0580397
-0.0231876
-0.0223314
-0.0632466
-0.0251056
0.0177375
-0.063422
0.0199133
-0.10099
0.0151068
-0.134659
0.0104819
0.00669302
-0.163684
-0.0261361
-0.0669047
-0.109415
-0.15018
-0.187199
0.391807
0.346664
-0.547578
0.433612
0.131303
-0.173108
0.390321
0.0731425
-0.0298513
0.384491
0.0510845
-0.0452542
0.00731229
-0.0255576
0.22779
0.203329
0.243114
0.115979
0.288421
0.0278361
0.352592
-0.0130873
-0.0291975
0.00866546
0.131417
0.134033
-0.00938889
0.262751
-0.100882
0.349214
-0.0995497
-0.0656711
-0.0932191
0.0609521
0.127575
-0.230183
0.270285
-0.243592
0.355449
-0.184713
-0.0975039
-0.111548
0.135323
0.280372
0.362396
0.245635
0.393213
-0.638848
0.135936
0.109699
0.192414
-0.0564781
0.253463
-0.0610494
-0.0222485
0.854834
-1.0092
0.791426
0.705096
0.598793
0.0832214
-0.0148342
-0.0683872
0.134221
-0.0509999
0.250585
-0.116364
0.422436
-0.171851
-0.216412
0.187039
-0.150482
0.295669
0.529468
0.828522
0.13855
-0.123408
0.155261
-0.170403
0.104292
-0.127721
0.161979
0.0666125
-0.133854
0.171534
0.0269898
-0.132859
0.172482
-0.091952
0.118942
0.171067
-0.0853909
-0.209084
0.129173
-0.0858275
0.0820442
-0.0867258
0.0337326
-0.0845475
-0.0582193
0.179496
-0.0380916
-0.226795
0.130585
-0.0369168
0.0805026
-0.0366429
0.0323696
-0.0364146
-0.0258498
0.193517
0.0107401
-0.242349
0.143496
0.0131042
0.091374
0.0154793
0.0381832
0.0167763
0.0123334
0.195496
-0.244388
0.145377
0.093101
0.0393605
0.0367773
-0.30188
-0.0563485
0.0140731
-0.330824
-0.00732504
-0.338815
-0.0155381
-0.320783
-0.198877
0.118238
-0.272124
-0.147994
0.0762235
-0.28881
0.0365266
-0.299118
0.00699312
-0.291249
-0.191884
0.136177
-0.233634
-0.174667
0.0962898
-0.248922
0.0563256
-0.259154
0.0198513
-0.254775
-0.172033
0.155287
-0.199999
-0.188922
0.11364
-0.207275
0.0689967
-0.21451
0.0269564
-0.212735
-0.145077
0.15466
-0.199398
0.109364
0.0663876
0.0261347
0.393689
0.0827639
-0.0804733
0.388853
0.128328
-0.123492
0.339321
0.135205
-0.0856723
0.290005
0.0538049
-0.00448929
-0.140623
0.260225
0.399799
0.0789449
0.407902
0.120225
0.38025
0.162857
0.326496
0.107558
-0.0232104
0.403604
0.071321
0.418627
0.105201
0.400476
0.181008
0.350293
0.157742
0.100287
0.408013
0.0592872
0.422398
0.0908163
0.415083
0.188323
0.370063
0.202762
0.228001
0.410821
0.422646
0.419565
0.378506
0.423623
0.0864282
0.326027
0.0975958
0.269214
0.0568126
0.276002
-0.00678763
-0.141855
0.417856
0.516006
0.49011
0.46125
0.449973
0.568343
0.332426
0.0854301
0.255838
0.0765886
0.168032
0.0878055
0.0962424
0.0717899
0.0278552
0.454375
0.342041
0.25518
0.178975
)
;

boundaryField
{
    left
    {
        type            calculated;
        value           nonuniform List<scalar> 
17
(
-0.60402
-0.60402
-0.60402
-0.60402
-0.60402
-0.39598
-0.39598
-0.39598
-0.39598
-0.39598
-0.39598
-0.39598
-0.39598
-0.39598
-0.39598
-0.510051
-0.510051
)
;
    }
    right
    {
        type            calculated;
        value           nonuniform List<scalar> 
17
(
0.275712
0.550986
0.402736
0.389102
0.385687
0.387282
0.390739
0.395757
0.404187
0.417939
0.437203
0.457715
0.725513
0.684865
0.697321
0.63192
0.365337
)
;
    }
    down
    {
        type            calculated;
        value           uniform 0;
    }
    up
    {
        type            calculated;
        value           uniform 0;
    }
    cylinder
    {
        type            calculated;
        value           uniform 0;
    }
    defaultFaces
    {
        type            empty;
    }
}


// ************************************************************************* //
