/*--------------------------------*- C++ -*----------------------------------*\
  =========                 |
  \\      /  F ield         | OpenFOAM: The Open Source CFD Toolbox
   \\    /   O peration     | Website:  https://openfoam.org
    \\  /    A nd           | Version:  13
     \\/     M anipulation  |
\*---------------------------------------------------------------------------*/
FoamFile
{
    format      ascii;
    class       volScalarField;
    location    "43";
    object      p;
}
// * * * * * * * * * * * * * * * * * * * * * * * * * * * * * * * * * * * * * //

dimensions      [0 2 -2 0 0 0 0];

internalField   nonuniform List<scalar> 
440
(
-1.26972
-1.25431
-1.24881
-1.24413
-1.26878
-1.32659
-1.30646
-1.28045
-1.24815
-1.20954
-1.46
-1.41862
-1.35788
-1.27505
-1.18025
-1.58152
-1.52234
-1.40029
-1.25333
-1.10506
-1.64706
-1.56261
-1.37643
-1.18394
-1.00923
-0.660269
-0.659064
-0.662179
-0.671461
-0.677925
-0.920022
-0.937596
-0.978172
-1.04705
-1.12337
-1.14776
-1.16857
-1.21488
-1.29403
-1.40704
-1.22226
-1.22532
-1.23574
-1.25923
-1.30498
-1.23032
-1.22175
-1.21505
-1.21218
-1.21017
-0.571266
0.366355
-0.753819
-0.564724
-0.21802
-0.868475
0.587482
-0.946212
-0.691461
-0.216688
-1.22312
0.475759
-1.09992
-0.646487
-0.203861
-1.29005
0.307567
-1.04137
-0.548382
-0.180105
-1.14935
0.423659
-0.554471
-0.514666
-0.152797
-0.790886
0.78275
0.257393
-0.554132
-0.129896
-0.343746
0.462019
0.305959
-0.398896
-0.110906
-0.174468
0.585905
0.5364
-0.119712
-0.0990669
-0.0620955
0.476112
0.585454
0.0526442
-0.0954906
-0.0310189
0.52363
0.660055
0.221549
-0.0743366
-0.713089
-0.827426
-0.976264
-1.11108
-1.25622
-0.407939
-0.52318
-0.593451
-0.633478
-0.633547
-0.207024
-0.303948
-0.349661
-0.369877
-0.362528
-0.0891165
-0.172801
-0.218545
-0.230741
-0.215802
-0.0355479
-0.117262
-0.161095
-0.171556
-0.147913
0.708975
0.55325
0.356643
0.132846
-0.118868
0.259627
0.0908141
-0.11489
-0.350845
-0.625101
-0.176648
-0.354218
-0.577372
-0.825129
-1.08697
-0.560508
-0.74572
-0.975756
-1.22215
-1.42927
-0.827744
-1.01946
-1.23945
-1.46928
-1.60955
1.96092
1.98951
2.01604
2.02874
2.02402
1.75057
1.76743
1.77739
1.76972
1.74005
1.50736
1.49481
1.4586
1.39813
1.30963
1.23025
1.19239
1.11835
1.01153
0.871735
0.974495
0.867595
0.728258
0.564336
0.363228
1.74598
1.73029
1.72186
1.77588
1.85921
1.73439
1.71644
1.69926
1.74452
1.75916
1.72385
1.7
1.67429
1.7013
1.63156
1.71453
1.6816
1.6467
1.64825
1.45004
1.70646
1.66175
1.61766
1.58981
1.25905
1.69919
1.63347
1.5806
1.48815
1.04465
1.69263
1.59557
1.54975
1.39759
1.10117
1.7002
1.572
1.51921
1.34579
1.06795
1.68855
1.54886
1.49963
1.31008
1.02572
1.72843
1.54421
1.49131
1.29254
1.00251
0.683487
0.354863
-0.00314095
-0.322149
-0.528158
0.597838
0.377202
0.13498
-0.0828717
-0.267143
0.598669
0.426903
0.242973
0.0733838
-0.0874862
0.628874
0.47813
0.321327
0.170522
0.0251085
0.644504
0.506053
0.361054
0.215582
0.074921
-0.847551
-0.729546
-0.58113
-0.46018
-0.388268
-0.881033
-0.827023
-0.71631
-0.626416
-0.572661
-0.789024
-0.743761
-0.6824
-0.630579
-0.596223
-0.636919
-0.600204
-0.563646
-0.535753
-0.516833
-0.52584
-0.506694
-0.482895
-0.472729
-0.496067
-0.46957
-0.463466
-0.441247
-0.448761
-0.428676
-0.455415
-0.451942
-0.441357
-0.437724
-0.430215
-0.466775
-0.462012
-0.450953
-0.433913
-0.418758
-0.495522
-0.487688
-0.475901
-0.459649
-0.437075
-0.538143
-0.531454
-0.520185
-0.505363
-0.489062
-0.484485
-0.132484
-0.00135589
-0.41084
-0.0392616
-0.439187
-0.103708
-0.082465
-0.399943
-0.0962699
-0.319012
-0.0906233
-0.19179
-0.401988
-0.151374
-0.364586
-0.0794242
-0.346843
-0.414666
-0.192253
-0.455242
-0.0297472
-0.544579
-0.430844
-0.211822
0.0198355
-0.259023
-0.00292791
-0.381177
0.0480309
-0.383085
-0.24092
0.0597393
-0.382851
0.0146378
-0.348152
-0.559882
-0.551528
-0.522538
-0.286195
-0.36525
-0.552741
-0.574389
-0.514682
-0.521506
1.78161
1.76391
1.73044
1.6826
1.61961
1.92923
1.95163
1.95974
1.95229
1.93045
2.05067
2.08432
2.10998
2.12393
2.12472
2.10682
2.14574
2.18658
2.22018
2.23622
2.07843
2.11432
2.15354
2.18564
2.19976
-0.00688622
-0.100235
-0.246939
-0.424978
-0.620886
0.506994
0.386056
0.224134
0.0294853
-0.208093
0.966999
0.84077
0.690094
0.512981
0.297129
1.32986
1.23417
1.11715
0.975026
0.806069
1.61733
1.55238
1.46632
1.36286
1.24272
1.81587
1.77312
1.7771
1.8062
1.85881
1.79946
1.76781
1.77167
1.81391
1.89625
1.78502
1.76093
1.76605
1.82163
1.94854
1.77126
1.75261
1.75528
1.81671
1.94279
1.75821
1.74259
1.74019
1.80148
1.91831
1.87372
1.78297
1.77258
1.74634
1.76034
1.82733
1.77232
1.76496
1.76277
1.76644
1.51757
1.34658
1.02766
0.549063
0.0211446
1.5868
1.37048
1.03845
0.565735
0.0285782
)
;

boundaryField
{
    left
    {
        type            zeroGradient;
    }
    right
    {
        type            fixedValue;
        value           uniform 0;
    }
    down
    {
        type            zeroGradient;
    }
    up
    {
        type            zeroGradient;
    }
    cylinder
    {
        type            zeroGradient;
    }
    defaultFaces
    {
        type            empty;
    }
}


// ************************************************************************* //
