/*--------------------------------*- C++ -*----------------------------------*\
  =========                 |
  \\      /  F ield         | OpenFOAM: The Open Source CFD Toolbox
   \\    /   O peration     | Website:  https://openfoam.org
    \\  /    A nd           | Version:  13
     \\/     M anipulation  |
\*---------------------------------------------------------------------------*/
FoamFile
{
    format      ascii;
    class       volVectorField;
    location    "7.7";
    object      U;
}
// * * * * * * * * * * * * * * * * * * * * * * * * * * * * * * * * * * * * * //

dimensions      [0 1 -1 0 0 0 0];

internalField   nonuniform List<vector> 
440
(
(-0.0732957 0.0590604 -7.0715e-20)
(-0.0730349 0.110381 4.38624e-20)
(0.0714636 0.103543 3.46514e-20)
(0.526242 0.100332 3.16105e-19)
(0.52826 0.195556 -1.88516e-21)
(-0.0669267 0.0354186 2.54778e-20)
(0.105326 -0.00575823 -1.39268e-19)
(0.606931 -0.0491711 -9.65272e-20)
(1.17334 -0.0796631 2.82362e-20)
(1.65447 -0.0853956 -1.31032e-20)
(0.00421032 -0.00496518 4.33154e-20)
(0.572716 -0.059415 8.21241e-19)
(1.37409 -0.0502027 -5.0912e-19)
(1.9565 -0.0191864 -1.48028e-18)
(2.48668 -0.00701555 6.25961e-19)
(0.235535 -0.0535266 -1.74807e-19)
(1.29155 -0.00323216 -6.19848e-19)
(2.0661 0.0629596 1.91841e-18)
(2.49536 0.0961845 2.13528e-18)
(2.53634 0.111288 -5.68261e-19)
(0.620951 -0.00372145 -3.10019e-19)
(1.83718 0.184324 -6.79964e-19)
(2.37254 0.254691 2.09036e-18)
(2.47803 0.263649 2.15384e-18)
(2.56517 0.234847 7.18506e-19)
(-0.0368356 0.193773 2.25862e-19)
(-0.140846 0.195899 9.60956e-20)
(-0.238007 0.146974 -3.30728e-19)
(-0.322049 0.0921635 2.69767e-20)
(-0.371832 0.0172084 -7.40944e-20)
(-0.0735714 0.29754 -5.31847e-20)
(-0.149564 0.374608 -3.80068e-19)
(-0.21073 0.339265 9.93041e-20)
(-0.266495 0.276459 1.01695e-19)
(-0.288465 0.18658 -2.05266e-19)
(-0.114783 0.312771 -3.43099e-19)
(-0.172141 0.472597 4.44215e-19)
(-0.183884 0.469062 -1.5391e-19)
(-0.170712 0.411765 -1.47331e-18)
(-0.146858 0.322091 1.52057e-20)
(-0.100878 0.211039 6.01535e-21)
(-0.12968 0.399097 -5.25966e-20)
(-0.0950853 0.448755 9.53334e-20)
(-0.0257754 0.43186 6.20246e-19)
(0.030599 0.391797 -9.66277e-20)
(-0.076179 0.0988642 -3.48433e-20)
(-0.118665 0.220794 -4.68738e-20)
(-0.0959179 0.27221 -6.71185e-20)
(0.0397361 0.276284 -5.64311e-20)
(0.0932339 0.349011 -3.57663e-19)
(-0.404354 -0.49055 -9.45884e-19)
(0.262719 -0.573087 2.20671e-19)
(0.943539 0.644052 -1.379e-19)
(-0.191216 0.636597 -3.37139e-19)
(0.828671 -0.0985033 -3.34592e-19)
(-0.0519965 -0.517833 1.43577e-18)
(-0.308206 -0.773198 -9.15614e-20)
(0.8951 0.68349 -6.32636e-20)
(-0.125224 0.627677 2.66365e-20)
(1.06755 -0.253408 5.8922e-19)
(0.355822 -0.461452 7.05324e-19)
(-0.392118 -0.933142 4.52908e-20)
(0.96753 0.585063 4.13206e-20)
(0.166784 0.598464 -3.90611e-19)
(1.36473 -0.403388 3.84982e-20)
(1.00101 -0.376141 -4.33721e-19)
(0.429385 -0.952246 -1.70069e-19)
(0.328959 0.486926 7.185e-19)
(0.737115 0.53323 4.58582e-19)
(1.69454 -0.504595 -2.14507e-19)
(1.54173 -0.475233 -1.93123e-19)
(1.43098 -0.800805 1.01664e-18)
(-0.635669 0.331648 0)
(1.54617 0.235293 -1.70881e-19)
(1.97419 -0.575035 -2.06845e-19)
(1.94924 -0.498347 -5.30663e-19)
(2.42545 -0.526064 1.24581e-19)
(0.145409 0.249246 1.13076e-20)
(2.16217 -0.183061 -1.03607e-19)
(2.1426 -0.607839 4.98171e-19)
(2.37599 -0.571408 6.99709e-20)
(1.97716 -0.323641 -2.36942e-20)
(1.0444 0.382159 9.20403e-21)
(2.58081 -0.378682 2.18595e-19)
(2.1009 -0.550303 0)
(2.33376 -0.350833 -5.41042e-19)
(1.64828 -0.0759054 2.35379e-20)
(1.6387 0.102667 2.97601e-19)
(2.51469 -0.494364 -1.75251e-19)
(1.63872 -0.415942 7.2804e-20)
(2.06102 -0.248387 1.44137e-20)
(1.50859 -0.0638011 1.26968e-19)
(1.86587 -0.0481011 5.31512e-21)
(1.93044 -0.409394 1.21287e-33)
(0.910192 -0.25255 -1.34402e-20)
(1.21081 -0.04112 1.12962e-19)
(0.944319 -0.00834358 -9.88398e-21)
(1.02932 -0.114428 -3.48288e-20)
(0.37514 -0.0478797 9.24944e-20)
(-0.241245 0.0256803 -3.19638e-20)
(2.43281 0.250282 -8.69013e-19)
(2.67113 0.0210559 -1.17135e-18)
(2.47641 0.0836004 8.52334e-19)
(2.78716 -0.149568 7.46611e-20)
(2.09452 0.0746474 -2.95387e-20)
(2.14353 0.19117 6.86262e-20)
(2.48981 -0.0246927 -4.14829e-20)
(2.2801 0.0412123 -1.4912e-19)
(2.54622 -0.183322 -2.26569e-19)
(2.37991 -0.158986 -7.932e-21)
(2.12077 0.0871467 7.82922e-20)
(2.26491 -0.0109526 1.01145e-19)
(2.22479 -0.0262508 -1.39235e-19)
(2.29888 -0.113739 4.93248e-20)
(2.30187 -0.155505 2.73733e-20)
(2.06465 0.0229103 1.16735e-19)
(2.05161 -0.0230934 1.39148e-19)
(2.14368 -0.0345903 -1.8426e-20)
(2.10409 -0.0808988 -1.95377e-20)
(2.19328 -0.0971783 2.42449e-20)
(1.48979 -0.00830226 1.76358e-19)
(1.42167 -0.00958471 -1.21067e-20)
(1.51273 -0.021325 2.23591e-20)
(1.41044 -0.0182457 -1.83255e-20)
(1.51453 -0.0374466 2.31159e-20)
(1.5895 0.835318 1.16624e-18)
(1.54025 0.935221 -3.75224e-19)
(1.53809 1.06933 -1.40128e-18)
(1.47015 1.11899 7.56138e-19)
(0.902614 0.805259 -1.77171e-19)
(1.87398 0.804605 -6.01457e-19)
(1.8407 0.880747 -3.09264e-18)
(1.84936 0.987067 -1.18283e-18)
(1.76085 1.00107 -4.25993e-19)
(1.07881 0.706656 -6.86425e-19)
(2.19247 0.669226 7.65354e-19)
(2.16746 0.74019 2.08864e-19)
(2.13624 0.832471 -2.29381e-18)
(2.00662 0.823532 -6.56056e-19)
(1.19506 0.554029 5.06561e-19)
(2.35963 0.559232 2.31254e-18)
(2.34325 0.609669 1.70873e-18)
(2.34433 0.663172 -2.00628e-18)
(2.13156 0.623505 -1.51404e-18)
(1.18067 0.369354 -2.9312e-19)
(2.51295 0.397114 1.14464e-18)
(2.52615 0.420651 -8.51052e-19)
(2.421 0.44937 5.89441e-19)
(2.09673 0.398808 4.946e-19)
(1.00036 0.166061 -4.24821e-19)
(0.566228 0.494029 -6.22936e-19)
(0.474755 0.532182 -4.58441e-19)
(0.35797 0.569861 4.78482e-20)
(0.223945 0.5741 1.1015e-21)
(0.0556582 0.413208 9.35106e-20)
(0.683689 0.653799 1.27341e-19)
(0.620138 0.71214 -2.9476e-19)
(0.53195 0.779361 1.93868e-19)
(0.406584 0.838406 -8.9834e-20)
(0.178909 0.64027 1.26528e-19)
(0.770675 0.856568 1.1759e-19)
(0.699684 0.940478 4.94434e-19)
(0.647804 1.03815 1.13916e-19)
(0.567114 1.07465 -3.19142e-19)
(0.31304 0.790499 2.67159e-19)
(1.06108 0.916433 2.41401e-19)
(1.01341 0.997517 -7.31294e-19)
(0.962359 1.09566 -1.98505e-18)
(0.881314 1.16387 7.94783e-19)
(0.520842 0.865263 -1.7026e-19)
(1.1159 0.967711 -1.07956e-19)
(1.15689 1.09011 -1.86595e-19)
(1.18742 1.20334 -3.77195e-19)
(1.13658 1.2218 -4.24555e-19)
(0.699914 0.871925 -6.76858e-21)
(1.01114 0.0600601 -1.05381e-19)
(0.989842 0.0294601 -4.01383e-20)
(1.03933 0.132601 -1.58438e-21)
(0.942516 0.146296 -3.07461e-19)
(0.894538 0.301362 3.29649e-19)
(0.998606 0.0587884 6.68205e-20)
(1.00319 0.0249507 1.41767e-19)
(1.03 0.142292 1.4286e-19)
(0.983271 0.172509 4.45661e-20)
(0.935999 0.384056 -2.26958e-20)
(1.00267 0.0580582 9.15498e-20)
(0.990245 0.0176964 -5.40449e-21)
(1.07585 0.160313 -6.31498e-21)
(0.942039 0.17062 1.61034e-19)
(1.1464 0.52871 -5.27934e-19)
(0.996153 0.0584245 -3.69939e-22)
(1.01089 0.00585615 -1.90976e-19)
(1.07324 0.178032 -7.1897e-20)
(1.0365 0.175936 -4.05912e-19)
(1.1573 0.583167 9.7951e-20)
(0.992148 0.0510528 -1.57626e-20)
(1.01888 0.00614059 5.65284e-20)
(1.12371 0.180173 3.38655e-20)
(1.0102 0.205797 4.92162e-19)
(1.39696 0.712778 -5.0197e-19)
(0.953204 0.0525677 -9.7464e-21)
(1.09816 -0.0226526 1.18594e-19)
(1.10361 0.211922 -8.09794e-20)
(1.26402 0.122926 9.61997e-19)
(1.29702 0.76305 -3.76729e-19)
(0.9009 0.0198597 -1.61728e-21)
(1.19586 -0.0280337 -1.02552e-19)
(1.02982 0.136166 4.98242e-21)
(1.36916 0.134183 -2.8738e-19)
(1.20445 0.52877 -5.87235e-20)
(0.952622 0.00708494 -4.13941e-21)
(1.16358 -0.0398817 1.53068e-35)
(1.05839 0.116337 -2.87933e-20)
(1.26928 0.106191 9.44569e-20)
(1.36213 0.348788 1.89027e-19)
(1.07713 -0.0450607 4.36043e-21)
(0.993166 -0.0441096 -3.03083e-20)
(1.12985 0.0730329 1.8872e-20)
(1.16791 0.0519299 2.80488e-20)
(1.56609 0.198117 -2.91873e-19)
(0.995001 -0.0240426 -4.15267e-20)
(0.754409 -0.0203055 -5.02638e-21)
(0.913058 0.0134639 2.30061e-20)
(0.887371 -0.00557601 -1.84469e-20)
(1.1669 0.0477157 -6.67082e-20)
(1.85062 0.61305 3.05947e-19)
(1.92301 0.652336 7.71854e-19)
(2.21446 0.498546 -1.10565e-18)
(2.25332 0.485583 -3.12257e-20)
(2.49535 0.273189 5.00475e-19)
(1.78847 0.380321 9.82388e-20)
(1.76533 0.428731 1.06678e-18)
(2.07365 0.305906 1.39691e-19)
(1.98147 0.331545 -9.80234e-19)
(2.3281 0.141988 -2.92164e-19)
(1.74973 0.273137 -2.55639e-19)
(1.81692 0.262602 -1.63335e-19)
(1.98136 0.202607 1.6311e-19)
(1.98716 0.188219 -3.06949e-19)
(2.16271 0.0957022 2.76541e-19)
(1.73068 0.145377 3.98449e-19)
(1.83459 0.125777 -5.83424e-21)
(1.86641 0.0948036 2.33559e-19)
(1.96056 0.0784363 2.02512e-19)
(1.97261 0.0356734 -1.92345e-19)
(1.31581 0.0369875 -4.81602e-20)
(1.38259 0.0265058 2.56601e-19)
(1.38702 0.0186909 1.15181e-19)
(1.44752 0.00832042 -2.30256e-19)
(1.41551 0.00154559 2.24919e-22)
(1.10646 -0.0233649 4.8456e-20)
(2.12518 -0.0528831 -3.87448e-19)
(2.36576 -0.0431916 1.09632e-18)
(2.3431 -0.00176535 4.87589e-19)
(2.21327 0.0292394 -3.32158e-19)
(0.665674 0.0872394 8.18741e-20)
(1.89517 0.0706699 -3.96534e-19)
(2.37381 0.0725477 -5.19793e-19)
(2.45279 0.0828301 6.21329e-19)
(2.16926 0.0736254 -3.72789e-19)
(0.17837 0.0641358 -3.18374e-20)
(1.23936 0.126901 4.01017e-19)
(2.01546 0.143184 5.80571e-20)
(2.41399 0.135356 2.85833e-19)
(2.64431 0.132639 1.02336e-19)
(-0.0625981 -0.0376862 1.84177e-19)
(0.400725 0.0483839 1.7783e-19)
(1.20504 0.118468 -3.58762e-19)
(1.7139 0.145255 1.6391e-20)
(2.30563 0.176102 -5.2566e-20)
(-0.113251 -0.0921106 1.28331e-19)
(-0.0490933 -0.076662 -1.37748e-19)
(0.366034 -0.00318906 -2.34115e-20)
(0.84875 0.0266389 3.47769e-20)
(1.23043 0.0687204 -4.49261e-20)
(-0.0789836 -0.0746562 4.96634e-21)
(-0.148275 -0.109756 7.98066e-20)
(-0.0736586 -0.113486 1.16608e-19)
(0.119926 -0.0985872 -1.29474e-19)
(0.427772 -0.0599576 8.36848e-21)
(-0.0313336 -0.0398887 6.42899e-22)
(-0.096395 -0.125257 -6.64178e-20)
(-0.120388 -0.210653 -5.87252e-20)
(-0.0944307 -0.269206 2.38839e-20)
(-0.0069142 -0.271908 1.38782e-20)
(-0.0211989 -0.0530797 1.05008e-20)
(-0.0618579 -0.195648 1.68666e-19)
(-0.0813071 -0.311687 -8.05732e-20)
(-0.0900929 -0.378421 -2.80778e-19)
(-0.0820264 -0.405289 4.95791e-20)
(-0.0219791 -0.0697175 -1.04778e-20)
(-0.083611 -0.222527 -6.99784e-20)
(-0.139655 -0.304144 1.87647e-19)
(-0.190343 -0.320006 7.08696e-20)
(-0.226412 -0.307894 -4.44095e-20)
(-0.0186715 0.0251233 8.57992e-22)
(-0.121208 -0.0478815 -5.55603e-22)
(-0.227704 -0.0788117 -4.5728e-21)
(-0.322878 -0.0922771 5.48988e-20)
(-0.392056 -0.122707 1.37228e-19)
(1.53406 0.359992 -2.12399e-20)
(1.642 0.297036 5.95642e-19)
(1.57982 0.161774 -5.35199e-20)
(0.808511 0.118135 -2.95601e-20)
(0.456457 0.0178021 2.379e-21)
(1.00471 0.101331 1.84906e-20)
(1.47597 0.266308 -3.29794e-19)
(1.62394 0.271319 -6.22123e-20)
(0.737315 0.249778 1.36329e-21)
(0.403905 0.0581129 7.9207e-21)
(0.168028 -0.130582 -1.01738e-19)
(1.13375 0.163146 -5.42502e-19)
(1.50589 0.359645 1.59408e-20)
(0.530095 0.393327 -3.50448e-19)
(0.409828 0.100238 1.48988e-20)
(-0.416936 -0.210477 1.9164e-19)
(0.839672 -0.0399948 6.37819e-19)
(1.32448 0.443458 -7.5957e-20)
(0.239648 0.516891 -2.92099e-21)
(0.494398 0.0929756 -1.26608e-19)
(-0.616763 -0.347654 1.00609e-19)
(0.621507 -0.320004 6.05162e-20)
(1.13084 0.545445 7.66077e-20)
(-0.0438773 0.604408 5.56662e-21)
(0.639831 0.026796 -4.87463e-19)
(0.715958 0.172699 -2.81453e-20)
(-0.106353 -0.0615264 0)
(-0.13946 -0.110724 -1.82094e-20)
(-0.0646959 -0.0653597 5.79928e-20)
(0.179239 -0.0268288 -1.03684e-20)
(2.06083 0.380437 0)
(1.55424 0.33319 0)
(1.26107 0.101875 3.53371e-19)
(0.684036 -0.0337393 9.71793e-20)
(0.513636 -0.0434117 -5.70855e-21)
(0.701806 -0.000187605 -1.12685e-19)
(0.76146 -0.00278288 1.87686e-19)
(0.922546 -0.0196336 -1.32251e-20)
(1.08794 0.0102316 2.91695e-19)
(1.36967 0.044776 1.83057e-19)
(1.60685 0.0183597 1.06671e-19)
(1.73076 0.0693974 2.19356e-19)
(1.9368 0.0178793 -2.29475e-20)
(2.56068 0.150272 -5.21712e-20)
(2.15499 0.0737054 3.64121e-20)
(0.884656 -0.454047 -2.70477e-20)
(0.869039 -0.539337 -1.38547e-19)
(0.855772 -0.631454 -1.03387e-19)
(0.780504 -0.694874 6.48837e-20)
(0.468075 -0.539766 1.1355e-19)
(0.781338 -0.356275 1.3105e-19)
(0.723509 -0.417609 2.73998e-19)
(0.648004 -0.484417 -2.96564e-20)
(0.535181 -0.540503 1.18298e-19)
(0.286888 -0.425524 4.37151e-20)
(0.633246 -0.214989 -1.71578e-19)
(0.544139 -0.250933 -4.262e-20)
(0.442652 -0.29675 1.4724e-19)
(0.324391 -0.337654 -5.68542e-21)
(0.139572 -0.267607 -9.92986e-20)
(0.538103 0.0180616 -4.45235e-19)
(0.451553 0.00611363 -3.69932e-19)
(0.341708 -0.0146942 2.85359e-19)
(0.215585 -0.044182 1.87462e-19)
(0.0550672 -0.0541712 1.36637e-20)
(0.519664 0.222635 -1.865e-19)
(0.434386 0.227727 -1.82641e-19)
(0.318563 0.231494 -8.61795e-20)
(0.181706 0.238978 1.3116e-20)
(0.0252311 0.181409 1.17957e-20)
(1.94174 -0.0432695 7.22987e-19)
(2.21779 -0.106535 2.55824e-19)
(2.28247 -0.187645 -6.76234e-19)
(2.12754 -0.214512 -1.36453e-18)
(1.26109 -0.180366 1.03511e-19)
(1.94101 -0.12013 1.22966e-18)
(2.01742 -0.227687 1.6207e-18)
(2.03452 -0.345423 1.32507e-19)
(1.95214 -0.401553 2.276e-19)
(1.23599 -0.343329 -1.49524e-19)
(1.64696 -0.277803 -3.21502e-18)
(1.71618 -0.390615 3.8144e-19)
(1.76138 -0.509013 9.98182e-19)
(1.69517 -0.578557 -3.84967e-19)
(1.08838 -0.481268 5.9818e-19)
(1.45579 -0.393503 7.56943e-19)
(1.4703 -0.486798 -1.99032e-18)
(1.45174 -0.598404 -2.32035e-18)
(1.37945 -0.679682 7.11242e-19)
(0.88126 -0.551886 4.68472e-19)
(1.17258 -0.447895 1.56198e-19)
(1.12533 -0.53665 2.14868e-19)
(1.1147 -0.652216 -3.43648e-19)
(1.05758 -0.731892 -4.15641e-19)
(0.66323 -0.574229 -3.90361e-21)
(1.04976 0.0592655 8.2093e-21)
(0.922975 0.0512378 -6.85758e-21)
(1.11579 0.0826934 -8.27754e-21)
(0.800558 0.0157166 -1.78411e-19)
(1.08381 -0.193634 -5.60355e-21)
(1.06669 0.0651184 -2.66456e-21)
(0.914871 0.0467652 5.74749e-20)
(1.11051 0.0999903 -6.07815e-20)
(0.883249 0.0610251 8.99381e-20)
(0.973386 -0.0778943 -2.78636e-20)
(1.06906 0.0642903 -6.64597e-20)
(0.921855 0.0423149 6.11163e-22)
(1.0945 0.101629 -2.49781e-20)
(0.88099 0.0837116 1.95733e-21)
(0.947255 -0.0168368 -1.36721e-19)
(1.051 0.0637711 8.04063e-20)
(0.954383 0.0379775 3.63147e-21)
(1.05904 0.10909 3.89302e-20)
(0.918924 0.107726 3.84977e-20)
(0.857437 0.0943118 1.28541e-19)
(1.02548 0.0609337 2.03477e-20)
(0.984664 0.0358724 -3.31182e-20)
(1.03174 0.117651 5.20875e-20)
(0.947014 0.132894 8.40958e-20)
(0.83499 0.19544 -1.45624e-19)
(0.879263 0.0337228 0)
(0.717215 0.0290862 1.06179e-20)
(0.596759 0.023669 2.62463e-21)
(0.334766 -0.00650551 3.95478e-20)
(0.637513 -0.0505724 -1.01322e-19)
(1.01222 0.0756798 -6.62549e-20)
(0.945343 0.0697519 -2.35512e-20)
(1.01809 0.0833341 -2.46915e-20)
(0.804644 0.00864049 -8.98248e-20)
(0.990516 -0.179419 -1.07843e-19)
(0.881392 -0.0616722 -2.42423e-20)
(0.962936 -0.0307256 4.30175e-19)
(1.04741 0.036032 2.72329e-19)
(0.92764 0.0507568 2.30597e-20)
(0.716942 0.0264237 0)
(1.24895 -0.301241 2.37981e-19)
(1.35515 -0.266986 1.27205e-18)
(1.52001 -0.151612 -1.46154e-18)
(1.61581 -0.0227346 -4.52114e-19)
(1.50599 0.0246809 3.31424e-19)
)
;

boundaryField
{
    left
    {
        type            fixedValue;
        value           uniform (1 0 0);
    }
    right
    {
        type            zeroGradient;
    }
    down
    {
        type            noSlip;
    }
    up
    {
        type            noSlip;
    }
    cylinder
    {
        type            noSlip;
    }
    defaultFaces
    {
        type            empty;
    }
}


// ************************************************************************* //
