/*--------------------------------*- C++ -*----------------------------------*\
  =========                 |
  \\      /  F ield         | OpenFOAM: The Open Source CFD Toolbox
   \\    /   O peration     | Website:  https://openfoam.org
    \\  /    A nd           | Version:  13
     \\/     M anipulation  |
\*---------------------------------------------------------------------------*/
FoamFile
{
    format      ascii;
    class       volVectorField;
    object      U;
}
// * * * * * * * * * * * * * * * * * * * * * * * * * * * * * * * * * * * * * //

dimensions      [0 1 -1 0 0 0 0];

internalField   nonuniform List<vector>
440
(
(-1.51511461018 1.22217053914 8.56988350066e-16)
(-0.401108864027 0.287798424958 3.28712082393e-16)
(0.688568257519 -0.468400408304 -1.05560511981e-16)
(1.69457694506 -1.05643779729 -1.59835359642e-16)
(2.61113800056 -1.54626832545 6.60563890108e-17)
(-1.77110336198 1.02992618841 1.38610373676e-16)
(-0.250075821193 0.139376169135 2.36095777049e-17)
(1.14783130568 -0.561103558306 -1.27028579284e-16)
(2.38728994525 -1.096157807 1.48335759799e-16)
(3.47809896819 -1.53619345208 1.15695852085e-16)
(-1.97361259453 0.771863463357 7.07410846925e-17)
(-0.0936451470825 0.0353954435935 1.28156026996e-16)
(1.56251550262 -0.535280319419 3.62903635957e-17)
(2.98440476536 -0.961363129232 -1.961094086e-16)
(4.19042579225 -1.30098324399 -5.10135403617e-17)
(-2.11367951361 0.469423106102 -7.91722522494e-17)
(0.0381302624613 -0.0090681520582 2.32534935473e-17)
(1.89134372995 -0.382374354704 1.90157269754e-16)
(3.45125466547 -0.65461138658 -1.00180671338e-16)
(4.72758003324 -0.864414669581 -1.4072188909e-16)
(-2.18205937425 0.141304388427 -8.23618594942e-17)
(0.116345506591 -0.00646408840292 -3.22328997032e-17)
(2.07916444101 -0.134317222179 -1.53017323279e-16)
(3.71516730288 -0.225623342302 9.58120072225e-17)
(5.01934121867 -0.294272678694 3.0816640746e-17)
(-0.131231537912 0.272549479227 6.95936619444e-18)
(-0.276652583675 -0.0716974784851 -4.97145585108e-17)
(-0.310367234929 -0.369423379359 1.00958599203e-16)
(-0.282575994688 -0.616302539777 -2.32147300096e-17)
(-0.184000839924 -0.81661328223 -2.22645318046e-16)
(-0.27686711437 0.684418563424 1.59785919603e-17)
(-0.318162940398 0.151097850087 4.83619434555e-17)
(-0.251196568762 -0.317501618347 1.81667548637e-17)
(-0.126971303768 -0.702587377175 1.16155793497e-17)
(0.0622128587703 -0.992253294522 -1.24714575955e-17)
(-0.528624941164 1.01582838499 -1.13741563283e-16)
(-0.387768345088 0.317038311065 -7.1127778096e-17)
(-0.152470163272 -0.29847959127 -5.4853938694e-17)
(0.12338513421 -0.8059495561 1.69050712655e-16)
(0.447162972299 -1.17522985387 -4.16756099677e-18)
(-0.851015219926 1.22637948484 -3.22030904832e-17)
(-0.456882608295 0.396438201471 4.13577013824e-17)
(0.00729926305431 -0.324593787785 -9.42559415347e-17)
(0.484229239595 -0.915552655455 -1.03781950998e-16)
(0.978317016841 -1.33788941405 1.36678660459e-17)
(-1.20330810006 1.29811324538 4.6219849742e-17)
(-0.490704108504 0.389169425936 2.84122626639e-17)
(0.256671106226 -0.378934610391 -1.24679460543e-18)
(0.978765180448 -0.988189920593 3.49403372527e-17)
(1.66924536668 -1.41876407222 1.3660491086e-16)
(0.58223181736 -1.60531741126 1.13423869539e-17)
(1.44182932059 -1.31158017081 6.57671489957e-19)
(2.19356777319 -0.555312772315 1.53651554269e-17)
(2.88707849134 -0.023987485844 9.74370532724e-18)
(3.14842975019 0.0409413727927 1.71759985807e-17)
(1.04172004965 -1.93841304682 2.41979314808e-16)
(1.6065951649 -1.56815904894 -4.1189185214e-17)
(2.25329905667 -0.767977266737 5.61418384472e-17)
(3.04111835301 -0.18408459728 8.30254598969e-17)
(3.49915418785 -0.0303712661322 -3.24476935605e-17)
(1.64544200438 -2.22128421119 1.07162691823e-16)
(1.90016881907 -1.78728795684 2.87366804409e-16)
(2.30139229084 -0.975623944291 -4.30189512905e-17)
(3.04326361866 -0.354295805751 6.10783278591e-17)
(3.547533848 -0.119837614995 2.52660125615e-17)
(2.34690802937 -2.44182262456 -1.61379714936e-16)
(2.35199311699 -1.93811435067 -1.00114380982e-16)
(2.39403170849 -1.14953392166 -1.15441878447e-17)
(2.93692735151 -0.501929242761 -6.36758177311e-17)
(3.39595702818 -0.197745030826 2.4908703482e-17)
(3.08273562186 -2.53070597155 -8.46686463964e-18)
(2.86821756917 -2.01688005111 -2.98021507733e-16)
(2.5340031073 -1.27460264146 0)
(2.75961923664 -0.687537379146 1.59743414312e-17)
(2.96362642881 -0.25908910961 -8.80575745506e-18)
(4.3439780162 -2.74896685975 1.30438469245e-17)
(3.56539614292 -1.95906141484 1.01842810187e-16)
(2.80061417804 -1.17749331796 -1.17712851641e-17)
(2.27057381511 -0.645922590846 5.19115695738e-17)
(2.06495963587 -0.254350799493 2.71327474265e-17)
(5.61365397458 -2.18831559511 3.53694696445e-17)
(3.75351727873 -1.42957767295 -2.54528713999e-17)
(2.44682792842 -0.82832201994 -1.20077347749e-17)
(1.53498414374 -0.474602537333 -8.82299705843e-18)
(1.3059868196 -0.189372965948 0)
(5.14063314299 -1.22985684086 3.0000849118e-17)
(2.96285792714 -0.742208852665 1.22556556386e-17)
(1.92729968158 -0.433703755606 -1.85979538276e-17)
(1.1688098134 -0.263766806333 2.40996951344e-18)
(0.833295848156 -0.1183153409 -1.42143721097e-18)
(2.99623502425 -0.475066571333 -9.30626075927e-17)
(1.32993732543 -0.256151222935 9.61792059708e-17)
(0.602142518751 -0.134711944488 -3.55612090293e-17)
(0.115541179108 -0.0861723711065 -5.16791411358e-31)
(-0.147595494241 -0.0489630052665 5.66764260134e-17)
(-0.0623023636946 0.034106948227 -4.58694680657e-18)
(-0.622559545862 0.0858781081014 -4.61768496147e-20)
(-0.812448866129 0.0665344241284 -3.59878808487e-17)
(-0.937665984679 0.0533990190364 3.06345422544e-19)
(-1.02448617225 0.020835391804 -1.23061396695e-19)
(7.50272379941 -0.355694857202 -1.63047515781e-16)
(7.11255981701 -1.0765426629 9.64508761785e-17)
(6.46702840399 -1.68314050809 -4.69302777266e-17)
(5.65582300685 -2.11030618258 -4.75271766657e-17)
(4.60781722132 -2.27351626502 5.64908802616e-18)
(8.31233816148 -0.223584264479 -1.01620358149e-16)
(8.18201197736 -0.717760402207 6.26412396374e-18)
(7.88684353285 -1.25252822424 4.83169876779e-17)
(7.4460530372 -1.83078570696 -4.07709888827e-17)
(6.78040653218 -2.41091372946 8.61535763552e-18)
(6.48392226568 -0.136909010551 -6.30876049922e-17)
(6.47220387356 -0.410310973087 4.98636756238e-17)
(6.42929204087 -0.70591877574 -1.03960250506e-16)
(6.35255354988 -1.03007103531 8.84968517301e-18)
(6.23805007302 -1.39509730009 1.07722669194e-16)
(3.91444639614 -0.061393736878 -5.68318455899e-17)
(3.91611775337 -0.186604955157 -1.75758277577e-16)
(3.9029099968 -0.328241806213 1.46647139274e-17)
(3.87367377681 -0.480647537566 1.87862389324e-16)
(3.86657233456 -0.625168492671 -4.45231337828e-17)
(0.201188118337 -0.000919277166537 -1.31663813204e-16)
(0.213349684225 -0.00207396208291 4.10267730042e-18)
(0.226014154935 -0.0065728366588 -2.30694954701e-18)
(0.230288756077 -0.0187093843322 7.0123521423e-17)
(0.248147587722 -0.0303289086485 1.16622292856e-16)
(2.66749753561 1.61156585358 -8.00645762007e-17)
(1.75319293912 1.11684280803 -1.45903565291e-17)
(0.742443691843 0.518680331669 7.41888463939e-17)
(-0.359374935395 -0.251349908112 -3.54879516517e-17)
(-1.47558678469 -1.23067820243 3.14156908208e-17)
(3.52248764089 1.58717047461 6.48581459214e-17)
(2.43888581837 1.14229012477 1.00477352774e-16)
(1.19873549478 0.600504113903 9.20350408277e-18)
(-0.208346194049 -0.110402128502 6.01585390246e-17)
(-1.73051991592 -1.05087251257 4.06316014894e-17)
(4.22345998279 1.34242651206 3.17331503041e-17)
(3.02450170049 0.997311899244 -3.97433466002e-17)
(1.60413092624 0.564913951068 -6.88359724154e-17)
(-0.0580680677633 -0.0147393769308 -1.97357515626e-17)
(-1.93826057122 -0.80617644005 -7.42470283945e-17)
(4.7474835799 0.898603814943 1.45920890522e-17)
(3.47583105715 0.682486097143 1.48216865392e-17)
(1.91814949199 0.403514650896 9.98168996057e-17)
(0.061791515922 0.0220254227007 -7.88173274826e-17)
(-2.08965671218 -0.515044300708 4.33534256415e-17)
(5.02622893195 0.324340808522 6.99907649458e-17)
(3.72341829787 0.249354651089 1.11099635904e-16)
(2.08839583264 0.150847285948 4.7408643659e-17)
(0.124656798178 0.0150312112079 -6.66830538466e-17)
(-2.17353484032 -0.193300962183 4.28902402609e-17)
(-0.170032011301 0.971848620988 -2.8214592347e-16)
(-0.277240781467 0.766622883399 -2.14100225765e-16)
(-0.312081474757 0.502823673968 2.79703342564e-17)
(-0.284543762214 0.166208927173 -1.58352398161e-17)
(-0.132821103566 -0.236437099033 -9.27955357312e-18)
(0.085875941463 1.15664179032 -1.37450128285e-16)
(-0.107405476437 0.855946433772 -6.58026752096e-17)
(-0.235772815653 0.443651668161 -2.300876001e-17)
(-0.307999395135 -0.0698865882178 9.66190327442e-18)
(-0.265825139332 -0.656095719521 -1.14127562591e-17)
(0.486384349532 1.32375557436 9.10703645492e-17)
(0.160386259325 0.94003663064 -1.21650885794e-16)
(-0.120213080577 0.404178730678 -1.75316276308e-17)
(-0.363998855148 -0.249482478716 2.81743236882e-17)
(-0.50816493908 -0.99550590527 -1.13711834086e-17)
(1.02784305913 1.45726756216 -8.34318185523e-17)
(0.532990345908 1.02184869049 1.12034951695e-16)
(0.0504244692136 0.40852829869 1.75837416757e-16)
(-0.424737320916 -0.340856995935 -4.53859705205e-17)
(-0.822919046625 -1.21428981546 3.98304432665e-17)
(1.72278341988 1.50503005947 4.750474257e-17)
(1.03322614276 1.06665919483 5.676170924e-17)
(0.305446240094 0.443061195099 1.3798517793e-18)
(-0.453690738314 -0.344648454242 -8.05776114602e-18)
(-1.16890744517 -1.29581747988 1.20970464468e-19)
(1.9247412198 0.461552251187 7.04519313472e-18)
(2.66787606231 0.320221315582 -1.67580398715e-17)
(2.41229467304 0.502316670004 -1.33836154438e-17)
(1.58103080346 1.25782900261 1.07062460666e-16)
(0.620840240021 1.7343480407 8.83463838979e-17)
(1.97338422121 0.228954636109 -1.19088689093e-17)
(2.72552885341 0.229228662145 -8.74353760909e-17)
(2.50241330882 0.651849476821 -3.30210345205e-17)
(1.66139212872 1.54304345048 -1.07145467078e-16)
(1.05377432702 2.08668224083 1.16288580446e-16)
(2.01282942948 -0.00960911578179 -1.5115010119e-17)
(2.77253610938 0.151237917427 6.30402304876e-18)
(2.48099859639 0.796290040095 5.29090480364e-17)
(1.86838047645 1.80481974667 -8.75259545779e-18)
(1.65041627156 2.37327094818 1.00406673472e-16)
(2.03279959577 -0.245904536807 1.88436358086e-18)
(2.7549365146 0.0956757620655 1.20762584449e-16)
(2.4270985051 0.942070752084 4.8729644241e-17)
(2.26257849962 1.98054386756 2.14952550722e-16)
(2.35461129194 2.5798041534 -6.91434244906e-17)
(2.02550509462 -0.481293770069 8.41831559929e-18)
(2.61126805643 0.0891320212117 2.58145790123e-20)
(2.42211338497 1.07801294499 -3.43208048411e-17)
(2.7395174257 2.06884993076 -1.31930238045e-16)
(3.09281960422 2.64394143609 1.05705886867e-16)
(1.94122968451 -0.730845103539 1.49865150612e-18)
(2.35282563902 -0.0129160126467 -6.19278280705e-17)
(2.5816331185 1.03105885396 3.81209611379e-17)
(3.37669656095 1.97997882924 -2.8715976032e-16)
(4.33031231373 2.81554949843 1.69416909456e-16)
(1.74173459075 -0.920492040759 2.60154288998e-18)
(1.91841249395 -0.107891403392 8.2341895146e-18)
(2.32627404786 0.716763057889 -1.20451151506e-17)
(3.58355276591 1.45143877995 3.81747072553e-17)
(5.50282307283 2.2091482346 -1.87307952958e-17)
(1.52686406459 -1.13249380474 1.87229136228e-17)
(1.63000333525 -0.270571629605 8.46849196147e-34)
(1.87485496696 0.350227701914 -5.3625376206e-18)
(2.88837013226 0.756076260808 -8.96041321799e-18)
(5.08262492491 1.24214680171 -8.07737468615e-17)
(1.12602633391 -0.837125352311 -4.61541911834e-18)
(0.469938143495 -0.23553195681 4.56882244684e-18)
(0.550279577117 0.0861293461981 -3.55207153323e-17)
(1.30488061212 0.257405581244 -3.73428022829e-17)
(2.99086405659 0.472284805307 1.38770180411e-16)
(0.382059062642 -0.128435545111 -2.85841912748e-18)
(-0.783253766265 -0.0577304378024 8.89146381687e-19)
(-0.825140169079 -0.0388702800356 -3.49389196369e-17)
(-0.621171558174 -0.0868042426335 -7.02628467072e-20)
(-0.050484989308 -0.0353588974535 3.62395513465e-17)
(4.64707690539 2.33281674664 -8.83447379554e-17)
(5.67387952666 2.15587012732 -7.84454059196e-17)
(6.47739880379 1.72966495952 1.06870066513e-16)
(7.11730465767 1.12398206064 1.78567367575e-16)
(7.50416401293 0.405230968718 -1.72214001169e-16)
(6.71580297925 2.40947848625 -2.71588259653e-17)
(7.37739267212 1.85501744521 -3.34052556484e-16)
(7.82786285734 1.27637917522 -8.66706603245e-17)
(8.13667609307 0.736951547785 3.1325195009e-16)
(8.29453560459 0.242335225419 4.61524331688e-17)
(6.18875612857 1.38992867872 1.10489074675e-16)
(6.32079879503 1.03578193178 6.99706614384e-17)
(6.41158226587 0.71046013431 9.51457952354e-17)
(6.46447960986 0.40885076219 1.19255558621e-16)
(6.48215134354 0.129968672685 -1.1107176761e-16)
(3.85052320494 0.614365183038 -1.44532845839e-16)
(3.8655500335 0.474728410506 9.19398043789e-18)
(3.89891346429 0.324630928315 -1.08080802131e-16)
(3.91502617942 0.182618274377 -1.31057619068e-16)
(3.91444288338 0.0564898902695 1.1926528874e-16)
(0.253835799738 0.0282755412479 1.7243625868e-17)
(0.236003157637 0.0169788327119 -1.16787044213e-16)
(0.230846814806 0.00526577828451 -7.28169212392e-17)
(0.21682732102 0.000696146679046 1.35408074715e-16)
(0.202512985011 -0.000564765351855 1.07201608898e-18)
(-3.40477245527 -0.217090821218 -4.42351727119e-17)
(-2.28160112078 -0.132297073099 3.49978511572e-17)
(-1.24363042507 -0.0673651126578 1.07625880549e-17)
(-1.20329006739 -0.0638671071739 3.91985302525e-17)
(-1.74246226453 -0.0416966170865 2.6603262284e-17)
(-3.21902965181 -0.695852728426 -8.1363003676e-17)
(-2.19636011171 -0.40951563948 -4.65141034256e-17)
(-1.31821479839 -0.211763247869 3.23818559024e-17)
(-0.98174371168 -0.153795282888 -3.3199474905e-17)
(-1.47653056753 -0.142126149331 8.03209665477e-17)
(-2.88216298376 -1.09356275157 -7.33963161234e-17)
(-2.05446503936 -0.683743259432 -2.02332328679e-18)
(-1.33567359748 -0.374471926438 3.06875032217e-17)
(-0.814098241513 -0.213215980129 2.52336537239e-17)
(-1.0377875785 -0.2421296576 1.53645904592e-16)
(-2.4370781853 -1.36612276774 7.5729724272e-17)
(-1.85306697156 -0.898731645161 6.85906787487e-17)
(-1.29735085451 -0.530046497507 -1.36194572275e-16)
(-0.84131805591 -0.275419348882 8.62140887477e-18)
(-0.64285378756 -0.232593252553 -3.06869764866e-17)
(-1.92526489182 -1.48567959987 1.18975162957e-16)
(-1.5772361219 -1.00723003019 -6.91757571331e-17)
(-1.20521305544 -0.620263731428 6.06876179502e-17)
(-0.89848362186 -0.333935758078 9.64049362285e-17)
(-0.605904111059 -0.130258878916 8.60048113613e-18)
(-1.39742321009 -1.45051443137 6.22349978777e-17)
(-1.23772697231 -1.00438535813 4.43085157954e-17)
(-1.0348546879 -0.654274106705 9.29156292157e-17)
(-0.860215459418 -0.433879563612 -6.33011826336e-17)
(-0.712849086157 -0.33920692883 2.39594890934e-17)
(-0.912483661873 -1.26328896301 -4.06618139582e-17)
(-0.904312656705 -0.87511477739 -3.08573676379e-17)
(-0.84169642588 -0.603867726238 -3.10482265231e-18)
(-0.785112103738 -0.447531897498 -6.08681719761e-17)
(-0.707425372674 -0.383010059554 -3.122281765e-17)
(-0.511285889926 -0.941222951787 -2.96404776017e-17)
(-0.613943709194 -0.665479374687 7.31527648788e-17)
(-0.646579473241 -0.540887827558 -1.26911130412e-16)
(-0.660138035644 -0.481990424772 -2.72661143776e-16)
(-0.622534533161 -0.471731593862 1.10193692359e-16)
(-0.219829801151 -0.558287433163 -1.01290411498e-17)
(-0.397299745518 -0.486751866539 -4.55222231911e-17)
(-0.47144170916 -0.493071647617 1.32561222327e-16)
(-0.502709130376 -0.519106294908 2.34244770952e-16)
(-0.467386806749 -0.570015521673 -3.25930011413e-17)
(-0.101018817792 -0.128650672479 4.32280319405e-18)
(-0.293539212522 -0.300690124994 -1.46895260606e-17)
(-0.366615597313 -0.432705675116 6.38760185681e-18)
(-0.384393335429 -0.556234992403 -2.37814108818e-18)
(-0.331968874318 -0.675216272954 -8.67496064662e-17)
(-0.557007818323 -0.0902397205574 5.86554407426e-17)
(0.328276317033 -0.172175685061 2.58628984698e-16)
(0.617482609168 -0.045825802179 -6.28162359543e-17)
(0.632662260222 0.0335566329533 -9.97954265102e-17)
(0.552103367537 0.0201578288441 -6.50935840811e-18)
(-0.512792578155 -0.378079463322 6.72604836679e-17)
(0.754317952832 -0.37358686953 -1.11446047126e-16)
(1.18909831705 -0.0798913291351 -1.69383752703e-16)
(1.26099980004 0.0484811412942 -2.04598164954e-17)
(1.19589101966 0.0321917604353 1.91528511348e-17)
(-0.282603459507 -0.630006392541 1.0078328086e-16)
(1.00543297972 -0.566795596325 -2.69347529363e-16)
(1.53491548662 -0.135335507422 4.48421499323e-17)
(1.63743431979 0.0594781447642 3.37318406528e-17)
(1.56369138529 0.0440793113975 -3.05880759073e-17)
(-0.008449586098 -0.941764455917 -1.80499436151e-17)
(1.18112723445 -0.803993004793 7.55688121606e-17)
(1.83700164515 -0.217835144866 3.92316172855e-17)
(1.99390238525 0.0842683762834 8.96320954678e-18)
(1.90594822549 0.0603031218139 -6.73588220749e-18)
(0.262398309918 -1.26291973747 -1.41905208017e-17)
(1.32013648519 -1.0525706482 9.87453180347e-17)
(2.07082272715 -0.362654772805 -1.91214750992e-17)
(2.4958500194 0.0749502579637 -3.7318299087e-17)
(2.50743223645 0.0680015783668 -1.97414556297e-17)
(-1.35979086261 -0.200072687376 -6.69915749822e-17)
(-1.08210003884 -0.0300364823306 0)
(-0.951238335423 0.00449838140354 -3.08274649505e-17)
(-0.950604153107 0.000495156368886 -2.57005304904e-19)
(-0.980688455769 -0.00214883010862 3.11611367151e-17)
(-0.745173916714 -0.0314387137687 0)
(-0.367451052913 -0.0518364546999 0)
(-0.101971908865 -0.0190931333536 6.70104256351e-17)
(-0.0956985698452 0.0167476723694 -1.31410965355e-18)
(-0.166536101453 0.00866608463166 -7.06883987434e-18)
(-2.94425974171 -0.00639477472352 5.5656319781e-17)
(-2.72085384524 -0.0284087374031 -3.31979714389e-16)
(-2.3447667776 -0.0696977659222 2.99633686859e-17)
(-1.93632289999 -0.135812731438 2.11435062303e-16)
(-1.61329546049 -0.185031633078 6.74333164143e-17)
(-2.40327780925 -0.0319222850568 -5.57981088715e-17)
(-1.99595550787 -0.10847764821 -2.75208644932e-16)
(-1.4761453854 -0.196637154743 1.44710597487e-16)
(-0.98108061406 -0.277509527947 7.55937901699e-19)
(-0.521315732845 -0.199055982755 -2.81995853135e-17)
(-0.712529413753 0.349116243994 -2.36414852313e-17)
(-0.860898253887 0.440934085302 5.63297258913e-17)
(-1.03301124563 0.653361731797 1.15059086107e-17)
(-1.23659704707 1.00089366441 5.74721199212e-18)
(-1.38141884321 1.46341593963 -2.50521708199e-17)
(-0.700910620909 0.417044912394 5.18493648416e-17)
(-0.783766856588 0.476851191912 1.81216908703e-16)
(-0.839465336477 0.618783330924 6.307855033e-17)
(-0.902218944005 0.873795654778 -2.93489855452e-17)
(-0.902066559242 1.26803861185 -1.15005011649e-17)
(-0.590614762788 0.540144728422 -1.0825739709e-16)
(-0.640679114528 0.547501982961 1.04086715951e-17)
(-0.634598271019 0.596246265397 1.56829668042e-16)
(-0.605071115947 0.693828383876 3.09029314793e-17)
(-0.50547153679 0.945729716503 2.15249377623e-17)
(-0.426322664729 0.667396005498 -1.59188090318e-16)
(-0.47433623353 0.61545491876 -1.19003152972e-16)
(-0.454520890489 0.583137059565 7.4382610819e-17)
(-0.383917492658 0.568532170071 6.84318865847e-17)
(-0.216663527909 0.590687875399 5.12135317669e-18)
(-0.308025316814 0.802445638086 -4.00644086416e-17)
(-0.373021660097 0.68237338941 -4.09753580701e-17)
(-0.365864653376 0.552518082003 -3.01882700877e-18)
(-0.302667808318 0.405384354388 1.88244029021e-17)
(-0.124316358475 0.207033506876 4.69856429229e-18)
(-1.74167717696 0.0420814686225 -7.6252340665e-17)
(-1.20167443372 0.0637821561371 3.77521688142e-17)
(-1.24291382486 0.0663183831878 -4.4346959672e-17)
(-2.28014727844 0.131132057138 -2.04511515964e-17)
(-3.39787737502 0.287300395588 -4.2941669696e-17)
(-1.47311282852 0.140689735616 -1.15054704887e-16)
(-0.979119201439 0.152696713749 -1.84948456019e-16)
(-1.31588753967 0.210115622199 -2.66118727732e-17)
(-2.19344039492 0.407835790527 -6.74794102942e-17)
(-3.2013052292 0.757690478105 4.40174746164e-17)
(-1.03533889468 0.239719976862 2.42255952701e-16)
(-0.812786399858 0.21163379525 7.22981857762e-17)
(-1.33339108497 0.372524921458 -8.33467992407e-17)
(-2.05213144176 0.681740212231 -2.07495811189e-17)
(-2.85946221894 1.14243250026 -1.01167882716e-17)
(-0.643513142034 0.229484394796 -6.48673920465e-17)
(-0.840666671422 0.272897529815 2.24333498897e-16)
(-1.29594187427 0.527351381978 9.05945509379e-17)
(-1.85192555865 0.896443131114 3.18645666083e-18)
(-2.41426525545 1.40120392341 -7.33291341481e-17)
(-0.611607432304 0.133808147112 -1.49959589123e-17)
(-0.898468068686 0.332665127731 -6.8660899918e-17)
(-1.20422451856 0.617179289565 4.32432321232e-17)
(-1.57667119449 1.00459490917 3.91089981509e-17)
(-1.90518773623 1.50860612618 1.27051571381e-19)
(1.35893923164 1.0635012059 5.6564933625e-18)
(0.983059449417 0.337203487648 -1.70178085242e-17)
(0.535736132953 0.0665081817924 -1.09602473084e-16)
(0.400411777261 0.150927379739 1.07385570694e-16)
(-0.519353695141 0.117664844286 2.70242928575e-17)
(1.59267079857 1.07208271314 -6.05720179652e-20)
(1.65932151498 0.412364672226 8.63591311097e-17)
(1.11940777495 0.13031263553 -1.65850404941e-16)
(0.889971180032 0.323300951345 -1.98633012128e-16)
(-0.441124757745 0.426686477958 -6.94574334935e-17)
(1.72724808837 0.954340451176 -9.11664102239e-18)
(1.8439953531 0.469164713282 8.78166772832e-18)
(1.48992896011 0.183186778036 -5.72879164767e-18)
(1.18339091929 0.503220969897 -1.6436175838e-16)
(-0.184883315632 0.692654526982 7.84229990104e-17)
(1.83119407039 0.853444811108 -1.85576796699e-18)
(2.17107530943 0.493068352403 -1.43747906182e-17)
(1.87257233557 0.255794040229 2.47041091556e-17)
(1.37456705171 0.736386240148 -8.27764604253e-18)
(0.0885037539632 1.02391318033 8.55840342676e-17)
(1.88104623919 0.680129728117 1.57642818741e-19)
(2.57687976107 0.419239305045 2.93149591105e-17)
(2.21086533849 0.361449787196 8.96467834859e-20)
(1.50446826742 0.987830026769 2.42980301091e-17)
(0.335696224689 1.36782887769 6.23961305453e-17)
(0.291704446314 0.145111263359 0)
(-0.874722541991 0.0355981878414 4.9102656653e-19)
(-0.978300491694 -0.048498124963 -3.10745630999e-17)
(-1.0716887523 0.0299715882395 -5.0248207182e-18)
(-1.36264517226 0.198450500293 1.26261037639e-16)
(0.946365618243 0.723590270433 -3.06213544108e-17)
(0.159409787049 0.189548398079 -7.6084282977e-17)
(-0.174545500301 0.0432915167458 1.11400986034e-16)
(-0.336278891166 0.0486599073969 1.72517983926e-16)
(-0.735692063136 0.032699181808 1.32779912368e-16)
(-1.6164372785 0.183921516968 2.27904915729e-17)
(-1.93411944169 0.13545136648 -1.74607560742e-16)
(-2.34447234476 0.0683581362934 -6.28423542105e-17)
(-2.72194468509 0.0274113327562 -3.07304694951e-17)
(-2.94480075463 0.00551963873701 0)
(-0.525062154802 0.195927432023 -1.93374295435e-16)
(-0.976485361176 0.278731325466 -3.47175536806e-16)
(-1.47174168586 0.196473190348 1.90830508466e-16)
(-1.99033469439 0.108070755708 3.71195806133e-17)
(-2.40014190943 0.0320327675071 -6.91004205883e-17)
)
;

boundaryField
{
    left
    {
        type            fixedValue;
        value           uniform (1 0 0);
    }

    right
    {
        type            zeroGradient;
    }

    down
    {
        type            noSlip;
    }

    up
    {
        type            noSlip;
    }

    cylinder
    {
        type            noSlip;
    }

    defaultFaces
    {
        type            empty;
    }
}

// ************************************************************************* //
