/*--------------------------------*- C++ -*----------------------------------*\
  =========                 |
  \\      /  F ield         | OpenFOAM: The Open Source CFD Toolbox
   \\    /   O peration     | Website:  https://openfoam.org
    \\  /    A nd           | Version:  13
     \\/     M anipulation  |
\*---------------------------------------------------------------------------*/
FoamFile
{
    format      ascii;
    class       surfaceScalarField;
    location    "0.115";
    object      phi;
}
// * * * * * * * * * * * * * * * * * * * * * * * * * * * * * * * * * * * * * //

dimensions      [0 3 -1 0 0 0 0];

internalField   nonuniform List<scalar> 
3485
(
0.00447156
-0.0547198
0.0502483
0.0132535
-0.121353
0.112571
0.0230803
-0.142538
0.132711
0.0328536
-0.144861
0.135088
0.0423431
-0.141962
0.132473
0.0515251
-0.138122
0.12894
0.060394
-0.134359
0.12549
0.0689177
-0.130842
0.122318
0.0769987
-0.127492
0.119411
-0.123973
0.116345
0.084627
0.00437964
-0.0590995
0.0126837
-0.129657
0.0218421
-0.151697
0.0309078
-0.153927
0.0397188
-0.150773
0.048287
-0.14669
0.0566443
-0.142716
0.0648263
-0.139024
0.072906
-0.135572
-0.132246
0.0811783
0.00426493
-0.0633644
0.0120298
-0.137422
0.0204426
-0.160109
0.0287147
-0.162199
0.0367444
-0.158803
0.0445602
-0.154506
0.0521953
-0.150351
0.0596774
-0.146506
0.0670359
-0.142931
-0.139525
0.0743158
0.00411812
-0.0674825
0.0112713
-0.144575
0.018857
-0.167695
0.026257
-0.169599
0.0334306
-0.165977
0.0404237
-0.161499
0.0472722
-0.1572
0.0540014
-0.153235
0.0606374
-0.149567
-0.146168
0.0672795
0.00392439
-0.0714069
0.0103787
-0.151029
0.0170448
-0.174361
0.0234833
-0.176037
0.0297094
-0.172203
0.0357835
-0.167573
0.0417417
-0.163158
0.0476073
-0.1591
0.0534075
-0.155367
-0.151964
0.0592041
0.0036715
-0.0750784
0.00933115
-0.156689
0.0149856
-0.180016
0.0203775
-0.181429
0.0255719
-0.177397
0.0306419
-0.172643
0.0356236
-0.16814
0.0405375
-0.164014
0.0454066
-0.160236
-0.156829
0.0502716
0.00334998
-0.0784284
0.00811696
-0.161456
0.0126784
-0.184577
0.0169479
-0.185699
0.0210353
-0.181485
0.025026
-0.176634
0.0289542
-0.172068
0.0328375
-0.167898
0.0366949
-0.164093
-0.160681
0.0405464
0.00295291
-0.0813813
0.0067376
-0.165241
0.0101411
-0.187981
0.0132191
-0.188777
0.0161359
-0.184402
0.018984
-0.179482
0.0217939
-0.174878
0.0245789
-0.170683
0.0273524
-0.166867
-0.163445
0.0301166
0.00248301
-0.0838643
0.00521641
-0.167974
0.00739593
-0.19016
0.00923066
-0.190611
0.0109328
-0.186104
0.0125911
-0.18114
0.0142324
-0.176519
0.0158661
-0.172316
0.0175007
-0.168501
-0.165069
0.0191252
0.00194983
-0.0858141
0.00356562
-0.16959
0.00445819
-0.191053
0.00505845
-0.191212
0.00550758
-0.186553
0.00594228
-0.181575
0.00638045
-0.176957
0.00682356
-0.172759
0.00727254
-0.16895
0.0077135
-0.16551
0.00453534
-0.00883907
0.00430374
0.0154151
-0.0203187
0.00943896
0.0285241
-0.0242437
0.0111347
0.0419741
-0.0248172
0.0113672
0.0551843
-0.0243794
0.0111693
0.0680249
-0.0237235
0.0108829
0.0804883
-0.0230609
0.0105975
0.0925938
-0.0224365
0.010331
0.104362
-0.0218523
0.0100843
-0.021428
0.115927
0.00986263
0.00454301
-0.0133821
0.015372
-0.0311476
0.0283936
-0.0372654
0.0417447
-0.0381683
0.0548573
-0.0374921
0.067607
-0.0364732
0.079988
-0.0354419
0.0920206
-0.0344691
0.103727
-0.0335585
-0.0329398
0.115239
0.00455819
-0.0179403
0.015321
-0.0419104
0.0282239
-0.0501682
0.0414387
-0.0513832
0.0544157
-0.050469
0.0670374
-0.0490949
0.0793008
-0.0477053
0.091227
-0.0463953
0.102841
-0.0451729
-0.0443686
0.11427
0.00458019
-0.0225205
0.0152556
-0.0525859
0.0279998
-0.0629124
0.0410318
-0.0644152
0.0538258
-0.063263
0.0662735
-0.0615426
0.0783752
-0.059807
0.0901533
-0.0581735
0.101637
-0.0566569
-0.0556752
0.112944
0.00460678
-0.0271272
0.0151663
-0.0631454
0.0277026
-0.0754486
0.0404955
-0.0772082
0.0530492
-0.0758167
0.065267
-0.0737603
0.0771526
-0.0716926
0.0887302
-0.0697511
0.100034
-0.0679604
-0.0668063
0.111165
0.00463328
-0.0317605
0.0150397
-0.0735519
0.0273096
-0.0877185
0.0397981
-0.0896967
0.0520453
-0.0880639
0.0639677
-0.0856827
0.0755728
-0.0832978
0.0868856
-0.0810638
0.097944
-0.0790188
-0.0776876
0.108825
0.00465175
-0.0364123
0.0148582
-0.0837583
0.0267954
-0.0996558
0.0389074
-0.101809
0.050776
-0.0999325
0.062332
-0.0972387
0.0735864
-0.0945522
0.0845639
-0.0920414
0.0953022
-0.089757
-0.0882205
0.105835
0.00465204
-0.0410643
0.0146022
-0.0937085
0.0261348
-0.111188
0.0377952
-0.113469
0.0492116
-0.111349
0.0603312
-0.108358
0.0711694
-0.10539
0.081751
-0.102623
0.0921056
-0.100112
-0.0982896
0.102175
0.00462388
-0.0456882
0.0142527
-0.103337
0.0253018
-0.122237
0.0364291
-0.124596
0.0473147
-0.122234
0.0579257
-0.118969
0.0682864
-0.115751
0.0784253
-0.112762
0.0883529
-0.110039
-0.107732
0.0977951
0.00456007
0.0137938
0.0242678
0.034759
0.0449975
0.0549681
0.0647068
0.0742627
0.083635
0.0922483
0.160439
-0.124376
0.079864
0.183554
-0.0904592
0.0673441
0.194917
-0.0672175
0.055855
0.200267
-0.0506472
0.0452967
0.202466
-0.0380058
0.0358067
0.20291
-0.0279432
0.0274991
0.202327
-0.0197497
0.0203328
0.201108
-0.0129252
0.0141442
0.19947
-0.00712679
0.00876531
-0.00116397
0.00315259
0.159356
-0.168493
0.182538
-0.113641
0.194151
-0.0788302
0.199749
-0.0562456
0.202151
-0.0404082
0.202762
-0.0285541
0.202323
-0.0193101
0.201235
-0.0118374
0.199723
-0.00561442
0.000698123
0.157514
-0.211737
0.180626
-0.136753
0.192532
-0.0907362
0.198479
-0.0621926
0.201202
-0.0431315
0.202105
-0.0294568
0.201937
-0.0191428
0.201112
-0.0110121
0.199859
-0.00436105
0.00229922
0.154876
-0.253669
0.177804
-0.15968
0.190058
-0.10299
0.196458
-0.0685929
0.199621
-0.0462947
0.20094
-0.0307755
0.201172
-0.0193751
0.200739
-0.0105789
0.199876
-0.00349821
0.00350572
0.151377
-0.293881
0.17406
-0.182364
0.186731
-0.115661
0.193693
-0.0755549
0.197416
-0.0500178
0.199274
-0.0326337
0.200032
-0.0201326
0.200118
-0.0106652
0.199775
-0.00315535
0.00418567
0.146859
-0.331915
0.169378
-0.204882
0.182557
-0.128841
0.190194
-0.0831913
0.194597
-0.0544215
0.197117
-0.0351531
0.198522
-0.0215378
0.199252
-0.0113951
0.199555
-0.00345895
0.00420963
0.140918
-0.366998
0.16371
-0.227674
0.17754
-0.14267
0.185973
-0.0916244
0.191178
-0.0596271
0.194478
-0.0384529
0.19665
-0.0237098
0.198144
-0.012889
0.199217
-0.00453172
0.00345154
0.134212
-0.399035
0.15702
-0.250482
0.171671
-0.157322
0.181044
-0.100998
0.187176
-0.0657587
0.191373
-0.0426507
0.194427
-0.0267639
0.196801
-0.0152627
0.198761
-0.0064918
0.00178963
0.126441
-0.427681
0.149051
-0.273092
0.164825
-0.173095
0.175367
-0.11154
0.182585
-0.0729767
0.18781
-0.0478757
0.191863
-0.0308171
0.195229
-0.018629
0.19819
-0.00945288
-0.000893071
0.117348
-0.452781
0.140448
-0.296192
0.157316
-0.189963
0.16907
-0.123294
0.177468
-0.0813745
0.183821
-0.0542294
0.188976
-0.0359713
0.193438
-0.0230913
0.197506
-0.0135212
-0.00470837
0.35591
-0.402183
-0.406508
0.330129
-0.270411
0.319252
-0.179086
0.314476
-0.118518
0.311985
-0.0788842
0.310427
-0.052671
0.309349
-0.0348931
0.308605
-0.0223472
0.308138
-0.0130545
-0.00453359
0.369884
-0.34549
-0.426577
0.341664
-0.242191
0.327555
-0.164977
0.320096
-0.111058
0.315743
-0.0745314
0.31298
-0.0499083
0.311147
-0.0330601
0.309945
-0.021145
0.309224
-0.0123333
-0.00427588
0.383156
-0.290323
-0.438323
0.352416
-0.211451
0.335244
-0.147804
0.325333
-0.101148
0.31928
-0.0684785
0.3154
-0.0460284
0.312856
-0.0305158
0.311218
-0.0195067
0.310252
-0.0113671
-0.00393675
0.392722
-0.238346
-0.444698
0.361053
-0.179783
0.341832
-0.128583
0.329996
-0.0893119
0.322498
-0.0609807
0.317627
-0.0411569
0.314435
-0.0273239
0.312394
-0.0174655
0.311199
-0.0101727
-0.00352081
0.399684
-0.190215
-0.447815
0.367932
-0.148031
0.347345
-0.107996
0.334025
-0.0759917
0.325334
-0.0522895
0.31961
-0.035433
0.315848
-0.0235619
0.313447
-0.015065
0.312047
-0.0087726
-0.00303501
0.404647
-0.145894
-0.448968
0.373271
-0.116655
0.351815
-0.0865408
0.337385
-0.0615612
0.32774
-0.0426447
0.32131
-0.0290028
0.317065
-0.0193172
0.314356
-0.0123562
0.312778
-0.00719453
-0.00248822
0.408073
-0.104906
-0.449061
0.377267
-0.0858487
0.355289
-0.0645628
0.340059
-0.0463308
0.329684
-0.0322701
0.322696
-0.0220143
0.318062
-0.0146835
0.315102
-0.00939626
0.313378
-0.00547012
-0.00189082
0.410276
-0.0664971
-0.448685
0.380054
-0.0556268
0.357792
-0.0423006
0.342022
-0.0305605
0.331126
-0.0213744
0.323728
-0.0146159
0.318804
-0.00975983
0.315655
-0.0062474
0.31382
-0.00363452
-0.00125455
0.410318
-0.0292957
-0.44752
0.380682
-0.0259902
0.358408
-0.0200272
0.342401
-0.0145532
0.331237
-0.0102104
0.323615
-0.00699457
0.318531
-0.00467485
0.315277
-0.00299359
0.31338
-0.00173815
-0.000596844
0.372182
-0.401478
0.346192
0.326165
0.311612
0.301401
0.294407
0.289732
0.286738
0.285
0.439087
0.00743038
-0.438804
0.438675
0.0195381
0.437535
0.0312559
0.435618
0.0424633
0.432857
0.0530326
0.429232
0.0628295
0.424392
0.0721198
0.419301
0.0794061
0.409692
0.0907872
0.0878113
0.421359
0.00705822
-0.420987
0.421994
0.0189036
0.422816
0.030434
0.423767
0.0415117
0.424764
0.0520361
0.425781
0.0618128
0.426587
0.0713134
0.427581
0.0784124
0.428281
0.0900867
0.0895153
0.406981
0.00642218
-0.406345
0.408353
0.0175314
0.410414
0.0283725
0.41312
0.0388056
0.416412
0.048745
0.420227
0.0579978
0.424528
0.0670122
0.428935
0.0740047
0.43451
0.0845125
0.0857021
0.395683
0.00564815
-0.394909
0.397527
0.015687
0.40041
0.0254899
0.404288
0.0349274
0.409114
0.0439186
0.414807
0.0523053
0.421408
0.0604109
0.428437
0.0669764
0.4371
0.0758487
0.0781041
0.386832
0.00477594
-0.385959
0.389008
0.0135102
0.392459
0.0220388
0.397145
0.0302424
0.403021
0.0380418
0.41001
0.0453169
0.418154
0.0522661
0.427055
0.0580762
0.437626
0.0652773
0.0679153
0.380038
0.00383236
-0.379095
0.382448
0.0111009
0.386293
0.0181936
0.391532
0.0250035
0.39812
0.0314538
0.405983
0.0374538
0.415138
0.043111
0.425288
0.0479261
0.437052
0.0535129
0.0559998
0.375012
0.00283312
-0.374013
0.377589
0.00852378
0.381711
0.0140714
0.387332
0.0193827
0.394399
0.0243872
0.402838
0.0290141
0.412638
0.0333118
0.423582
0.0369815
0.436069
0.0410257
0.0430083
0.371475
0.00177452
-0.370417
0.374192
0.00580726
0.378528
0.00973489
0.384429
0.0134819
0.391828
0.0169886
0.400642
0.0201996
0.410825
0.0231294
0.42222
0.0255858
0.43506
0.0281862
0.0293826
0.366835
0.000580502
-0.365641
0.369812
0.00283056
0.374511
0.00503615
0.380854
0.00713834
0.388743
0.00910014
0.398057
0.010885
0.408699
0.0124882
0.420492
0.0137925
0.433517
0.0151613
0.0153799
0.309666
-0.309086
0.312497
0.317533
0.324671
0.333771
0.344656
0.357144
0.370937
0.386098
0.0799669
0.122976
-0.112415
-0.0905284
0.0702907
0.125302
-0.115626
0.060942
0.128264
-0.118915
0.051638
0.131673
-0.122369
0.0422351
0.135426
-0.126023
0.0326586
0.139485
-0.129909
0.02289
0.143568
-0.1338
0.0131299
0.145356
-0.135596
0.00444124
0.133194
-0.124505
0.073532
-0.0690907
0.0755845
0.131631
-0.0842397
0.0667327
0.134154
0.0578064
0.13719
0.0488331
0.140646
0.0397864
0.144473
0.0306249
0.148647
0.0213398
0.152853
0.0121347
0.154561
0.00403654
0.141292
0.0775685
0.0679148
0.139022
-0.0753054
0.0601943
0.141874
0.0522759
0.145109
0.0442109
0.148711
0.0360056
0.152678
0.0276463
0.157006
0.0191509
0.161349
0.0107525
0.162959
0.00346702
0.148577
0.0810355
0.0594375
0.145458
-0.0658732
0.052736
0.148576
0.0458336
0.152011
0.0387588
0.155786
0.0315167
0.159921
0.0241027
0.16442
0.0165519
0.1689
0.00912044
0.170391
0.00280018
0.154898
0.0838357
0.0509117
0.151111
-0.0565649
0.0450881
0.1544
0.0391154
0.157984
0.0329978
0.161904
0.0267289
0.16619
0.0203035
0.170845
0.0137649
0.175438
0.00738323
0.176772
0.00210517
0.160176
0.0859409
0.0421625
0.155967
-0.0470189
0.037209
0.159353
0.0321601
0.163033
0.0270066
0.167057
0.021735
0.171461
0.0163385
0.176242
0.0108629
0.180914
0.00558459
0.182051
0.00140126
0.164359
0.0873421
0.0329738
0.159928
-0.0369347
0.0289647
0.163362
0.024897
0.1671
0.0207567
0.171197
0.0165318
0.175686
0.0122209
0.180553
0.00786367
0.185271
0.00372694
0.186188
0.000657171
0.167429
0.0879993
0.0233111
0.162883
-0.0262662
0.0203366
0.166337
0.0173226
0.170114
0.0142544
0.174265
0.0111191
0.178821
0.00793728
0.183735
0.00478374
0.188425
0.00186702
0.189104
-0.000100415
0.169396
0.0878989
0.0132729
0.164746
-0.0151362
0.0114029
0.168207
0.00950431
0.172013
0.00757005
0.1762
0.00558521
0.180806
0.00352617
0.185794
0.00157041
0.190381
-0.000115214
0.19079
-0.000731022
0.170012
0.0871679
0.00309326
-0.00385713
0.0023496
0.00160312
0.000845669
7.71179e-05
-0.000682074
-0.00151314
-0.00177596
-0.00135375
0.108721
0.0213642
-0.11998
-0.0101048
0.0970882
0.0219516
-0.0103193
0.0851237
0.0225164
-0.0105518
0.0728159
0.0231114
-0.0108035
0.0601424
0.0237521
-0.0110786
0.0470755
0.0244471
-0.0113802
0.0336037
0.0251699
-0.0116982
0.019902
0.0255963
-0.0118946
0.00720236
0.0238353
-0.0111357
0.0138083
-0.00660598
0.107827
0.0325811
-0.119044
0.0962553
0.0335236
0.084363
0.0344086
0.0721392
0.0353352
0.0595608
0.0363305
0.0465995
0.0374084
0.0332436
0.0385258
0.0196684
0.0391714
0.00710149
0.0364023
0.0209098
0.106553
0.043731
-0.117703
0.0950752
0.0450019
0.083292
0.0461919
0.0711914
0.0474357
0.0587499
0.0487721
0.0459384
0.0502198
0.0327455
0.0517188
0.0193474
0.0525695
0.00696442
0.0487853
0.0278742
0.104805
0.054774
-0.115848
0.0934672
0.0563398
0.0818419
0.0578172
0.0699157
0.0593619
0.0576643
0.0610235
0.0450585
0.0628256
0.0320873
0.06469
0.0189312
0.0657255
0.00680383
0.0609127
0.0346781
0.102477
0.0656517
-0.113354
0.0913419
0.0674747
0.0799384
0.0692207
0.0682514
0.0710489
0.0562556
0.0730194
0.0439209
0.0751603
0.0312377
0.0773732
0.018391
0.0785723
0.00658353
0.0727201
0.0412616
0.0994746
0.0762966
-0.110119
0.0886172
0.0783321
0.0775129
0.0803249
0.0661434
0.0824184
0.0544809
0.0846818
0.0424942
0.087147
0.0301746
0.0896928
0.0177122
0.0910347
0.00629913
0.0841332
0.0475607
0.0957052
0.0866287
-0.106037
0.0852313
0.088806
0.0745334
0.0910229
0.0635813
0.0933704
0.052343
0.0959202
0.0407875
0.0987024
0.02891
0.10157
0.0169089
0.103036
0.00596535
0.0950768
0.0535261
0.0909688
0.0964933
-0.100833
0.0810281
0.0987468
0.0708808
0.10117
0.0604784
0.103773
0.0497844
0.106614
0.0387685
0.109718
0.0274305
0.112908
0.0159792
0.114487
0.00558272
0.105473
0.0591088
0.0859471
0.105501
-0.0949545
0.0767903
0.107904
0.0672661
0.110694
0.0574114
0.113628
0.0472409
0.116785
0.0367458
0.120213
0.0259394
0.123715
0.0150426
0.125384
0.00520456
0.115311
0.0643134
0.0778871
-0.084801
0.0701645
0.0619438
0.0532023
0.0439636
0.0342682
0.0241831
0.0139712
0.00477736
0.200772
0.015297
-0.0180797
0.203058
0.0215063
-0.0237922
0.202946
0.0262542
-0.026142
0.203636
0.0285261
-0.029216
0.20322
0.034439
-0.0340229
0.20111
0.0426668
-0.040557
0.195998
0.053832
-0.0487204
0.185432
0.068942
-0.0583753
0.162828
0.091801
-0.0691976
0.124401
-0.0815528
0.200613
0.0126733
0.202777
0.0193423
0.202608
0.0264238
0.203213
0.0279213
0.202675
0.0349768
0.200397
0.0449446
0.195066
0.0591631
0.184229
0.0797793
0.161562
0.114468
0.166919
0.200326
0.0103371
0.202203
0.0174653
0.201883
0.0267434
0.20228
0.027525
0.20149
0.0357666
0.19892
0.0475148
0.19326
0.064823
0.182074
0.0909646
0.159428
0.137114
0.208644
0.199906
0.0084208
0.20134
0.0160315
0.200785
0.0272988
0.200847
0.0274623
0.199675
0.0369392
0.196686
0.0505029
0.190579
0.07093
0.178952
0.102592
0.156314
0.159752
0.24911
0.199346
0.00706491
0.200193
0.015184
0.199327
0.0281654
0.198927
0.0278622
0.197242
0.0386244
0.193709
0.0540352
0.187027
0.0776121
0.174841
0.114778
0.151912
0.182681
0.287667
0.198635
0.00641994
0.19877
0.0150488
0.197529
0.0294066
0.196532
0.0288593
0.194206
0.0409496
0.190003
0.0582384
0.182608
0.0850076
0.169721
0.127665
0.146229
0.206173
0.323776
0.197761
0.00664863
0.19708
0.0157303
0.195413
0.031073
0.193675
0.0305976
0.190587
0.0440374
0.185585
0.0632408
0.177327
0.0932654
0.163593
0.141399
0.140516
0.229251
0.358255
0.196711
0.0079273
0.195135
0.0173066
0.193004
0.0332039
0.190369
0.0332328
0.186406
0.0480003
0.180477
0.0691696
0.171222
0.102521
0.156511
0.156109
0.134427
0.251335
0.391849
0.195473
0.0104439
0.192956
0.0198239
0.190327
0.0358326
0.186624
0.0369362
0.18169
0.0529337
0.174728
0.0761319
0.16446
0.112789
0.149063
0.171506
0.128412
0.271986
0.425306
0.194139
0.0142948
0.190555
0.0234076
0.187441
0.038947
0.182475
0.0419024
0.176525
0.0588833
0.168417
0.0842399
0.156812
0.124393
0.139853
0.188466
0.117409
0.29443
0.457914
0.302742
0.0135626
0.304167
0.0219826
0.307475
0.0356399
0.308677
0.0407005
0.310582
0.056978
0.313014
0.0818078
0.317153
0.120254
0.326114
0.179505
0.350766
0.269778
0.40179
0.40689
0.303478
0.0120953
0.305249
0.0202114
0.30878
0.0321086
0.311016
0.0384643
0.314141
0.0538534
0.318604
0.0773442
0.325949
0.11291
0.339551
0.165903
0.368521
0.240808
0.346158
0.424153
0.304109
0.00999611
0.306383
0.0179382
0.310091
0.0284
0.313223
0.035332
0.317488
0.0495886
0.323705
0.0711275
0.333585
0.103029
0.350406
0.149083
0.381445
0.209768
0.291819
0.435783
0.304705
0.00730087
0.307456
0.015188
0.311376
0.0244793
0.315268
0.0314408
0.320564
0.0442917
0.328284
0.0634084
0.340178
0.0911354
0.359262
0.129999
0.390969
0.178061
0.240323
0.442466
0.305297
0.00401391
0.30847
0.0120149
0.312591
0.0203587
0.317109
0.0269225
0.323297
0.0381036
0.332262
0.0544435
0.345709
0.0776887
0.366301
0.109406
0.397843
0.14652
0.19232
0.445846
0.305915
0.000108731
0.309435
0.0084956
0.313699
0.0160948
0.318711
0.0219098
0.325634
0.0311808
0.335595
0.0444823
0.350204
0.0630801
0.371746
0.0878633
0.402726
0.11554
0.147875
0.447171
0.306583
-0.004464
0.31036
0.00471846
0.314669
0.0117862
0.320041
0.0165378
0.327537
0.0236846
0.33826
0.0337591
0.353706
0.0476339
0.375806
0.0657634
0.406104
0.0852418
0.106619
0.44736
0.307372
-0.00982575
0.311264
0.00082615
0.315462
0.00758802
0.321058
0.0109424
0.328968
0.0157739
0.340238
0.0224894
0.356256
0.0316157
0.378653
0.0433665
0.408308
0.0555875
0.0679242
0.447003
0.307665
-0.0154808
0.311435
-0.00294343
0.315371
0.00365149
0.321062
0.00525139
0.329235
0.00760112
0.340855
0.0108692
0.357229
0.0152424
0.379756
0.0208391
0.408899
0.0264441
0.0316127
0.445211
0.286529
0.283586
0.287237
0.292489
0.30009
0.310959
0.326202
0.347041
0.373485
0.405097
0.416518
-0.100157
0.418908
-0.0866295
0.421547
-0.0779444
0.42499
-0.0693159
0.428539
-0.0601137
0.43176
-0.0502397
0.434463
-0.0396381
0.436577
-0.0283805
0.438037
-0.0165958
-0.00462464
0.423548
-0.0995522
0.423337
-0.0864186
0.422975
-0.0775822
0.42265
-0.0689911
0.422213
-0.0596766
0.421689
-0.0497153
0.421207
-0.0391562
0.420875
-0.0280487
0.420795
-0.016515
-0.00481722
0.429738
-0.0935071
0.425178
-0.0818582
0.420869
-0.0732732
0.416968
-0.06509
0.413614
-0.0563224
0.410839
-0.0469407
0.408689
-0.0370062
0.407215
-0.0265746
0.406451
-0.0157507
-0.00471121
0.432833
-0.0838737
0.425071
-0.0740968
0.418151
-0.0663534
0.412
-0.0589389
0.406715
-0.0510374
0.402346
-0.0425718
0.398941
-0.0336012
0.396549
-0.0241817
0.395201
-0.0144032
-0.00441885
0.433983
-0.0720112
0.424027
-0.0641406
0.415244
-0.0575705
0.4075
-0.0511946
0.400861
-0.0443984
0.395386
-0.037097
0.391122
-0.0293374
0.388112
-0.0211716
0.386388
-0.0126799
-0.00398984
0.433947
-0.0587874
0.422554
-0.0527477
0.412507
-0.0475232
0.403684
-0.0423718
0.396129
-0.036844
0.389901
-0.0308681
0.385045
-0.0244821
0.381607
-0.0177331
0.379619
-0.0106921
-0.00346577
0.433325
-0.0447527
0.421035
-0.0404572
0.410175
-0.0366637
0.40065
-0.0328459
0.39249
-0.0286846
0.385755
-0.0241331
0.380498
-0.019225
0.376766
-0.0140013
0.374598
-0.00852372
-0.00288036
0.432479
-0.0302286
0.419673
-0.0276515
0.408348
-0.0253392
0.398397
-0.0228948
0.389852
-0.0201395
0.382782
-0.0170631
0.377253
-0.0136954
0.373321
-0.01007
0.371033
-0.00623552
-0.00226381
0.430126
-0.0151436
0.417003
-0.0145286
0.405344
-0.0136797
0.395021
-0.0125724
0.386094
-0.011212
0.378662
-0.00963159
0.372825
-0.00785874
0.368672
-0.00591636
0.366268
-0.00383149
-0.0016375
0.389954
0.375425
0.361746
0.349173
0.337961
0.32833
0.320471
0.314555
0.310723
0.00528517
0.103138
-0.108423
0.00915081
0.205822
-0.209688
0.0108016
0.233044
-0.234695
0.0116391
0.234367
-0.235205
0.0122713
0.230091
-0.230724
0.0129881
0.225531
-0.226248
0.0138413
0.221617
-0.22247
0.0148081
0.218385
-0.219352
0.0157783
0.215594
-0.216564
0.211994
0.016281
-0.212496
0.00685419
0.096284
0.0139504
0.198726
0.0193051
0.227689
0.0237795
0.229893
0.0281254
0.225745
0.032647
0.221009
0.0374455
0.216818
0.0425469
0.213284
0.0478657
0.210275
0.207195
0.0526639
0.00775729
0.0885267
0.0174807
0.189003
0.0260858
0.219084
0.0339424
0.222036
0.0416752
0.218013
0.0496196
0.213065
0.0579231
0.208515
0.066665
0.204542
0.0758604
0.20108
0.197953
0.0851033
0.00799136
0.0805354
0.0195818
0.177412
0.030792
0.207874
0.0414581
0.21137
0.0519994
0.207471
0.0627214
0.202343
0.0737926
0.197444
0.0853239
0.193011
0.0974017
0.189002
0.185292
0.110062
0.00771189
0.0728235
0.0203594
0.164765
0.0334133
0.19482
0.0461471
0.198637
0.058734
0.194884
0.0714041
0.189673
0.0843131
0.184535
0.0975721
0.179751
0.111276
0.175298
0.170916
0.125652
0.00714403
0.0656794
0.0201635
0.151745
0.0342964
0.180687
0.0483256
0.184607
0.062169
0.181041
0.075955
0.175887
0.0898017
0.170688
0.103799
0.165754
0.118019
0.161078
0.156247
0.132688
0.0064994
0.05918
0.019431
0.138814
0.0340146
0.166104
0.0486727
0.169949
0.0631037
0.16661
0.0773353
0.161655
0.0914407
0.156582
0.105483
0.151712
0.119497
0.147064
0.14208
0.133664
0.00592331
0.0532567
0.0185323
0.126205
0.0331398
0.151496
0.0479443
0.155145
0.0624858
0.152068
0.0767107
0.14743
0.0906538
0.142639
0.104357
0.138009
0.117868
0.133553
0.128737
0.131212
0.00548223
0.0477745
0.0177047
0.113982
0.0321089
0.137092
0.046781
0.140473
0.061167
0.137682
0.0751628
0.133435
0.0887807
0.129021
0.102062
0.124728
0.115045
0.120569
0.115645
0.128137
0.00517629
0.0425982
0.0170414
0.102117
0.0311517
0.122982
0.0455481
0.126076
0.0596198
0.123611
0.0732118
0.119842
0.0862788
0.115954
0.098776
0.112231
0.11057
0.108775
0.10479
0.121425
0.00499377
0.0376044
0.0166002
0.0905107
0.0304697
0.109112
0.0446521
0.111894
0.0585388
0.109724
0.0719906
0.106391
0.0850063
0.102939
0.0976298
0.0996072
0.109936
0.0964692
0.093866
0.12086
0.00487972
0.0327247
0.0163012
0.0790892
0.0299784
0.0954351
0.0439764
0.0978957
0.0576888
0.0960117
0.0709722
0.0931074
0.0838114
0.0900995
0.096219
0.0871996
0.108228
0.0844601
0.0826139
0.11948
0.00479492
0.0279298
0.0160791
0.0678051
0.0296067
0.0819076
0.043453
0.0840494
0.0570148
0.08245
0.0701466
0.0799756
0.0828294
0.0774167
0.0950722
0.0749568
0.106899
0.0726337
0.0712129
0.1183
0.00472555
0.0232042
0.015911
0.0566196
0.0293372
0.0684813
0.043085
0.0703017
0.0565549
0.06898
0.0696047
0.0669258
0.0822176
0.0648037
0.0944062
0.0627682
0.106196
0.0608439
0.0597207
0.117688
0.00466742
0.0185368
0.015782
0.0455051
0.0291439
0.0551193
0.0428343
0.0566113
0.056256
0.0555583
0.0692696
0.0539123
0.0818613
0.052212
0.0940472
0.0505822
0.105854
0.0490373
0.0481623
0.117412
0.00462017
0.0139166
0.0156822
0.0344431
0.0290017
0.0417999
0.0426575
0.0429555
0.0560529
0.0421629
0.0690497
0.0409155
0.0816359
0.0396258
0.0938289
0.0383892
0.105653
0.0372131
0.0365684
0.117247
0.00458404
0.00933261
0.0156051
0.023422
0.0288919
0.0285131
0.042522
0.0293254
0.055898
0.0287869
0.0688825
0.027931
0.0814641
0.0270442
0.0936605
0.0261928
0.105493
0.0253801
0.0249588
0.117103
0.00455856
0.00477405
0.0155452
0.0124354
0.0288008
0.0152575
0.0424043
0.0157218
0.0557588
0.0154324
0.0687274
0.0149624
0.0812993
0.0144722
0.0934925
0.0139997
0.105327
0.0135456
0.0133435
0.116942
0.00454264
0.000231411
0.0154969
0.00148108
0.0287164
0.00203799
0.0422854
0.00215287
0.0556092
0.00210862
0.0685522
0.00201943
0.0811042
0.00192016
0.0932835
0.00182043
0.105109
0.00172003
0.00173514
0.116717
0.00453515
0.0154552
0.0286279
0.0421479
0.0554258
0.0683281
0.0808458
0.0929972
0.104802
0.116399
0.136436
0.246341
-0.261917
0.14962
0.110406
-0.123589
0.159231
0.0378827
-0.0474942
0.166465
0.00563346
-0.012867
0.172418
-0.00717973
0.00122672
0.177678
-0.0110899
0.00582941
0.182486
-0.0111538
0.00634619
0.186951
-0.00965165
0.00518658
0.19111
-0.00761113
0.00345237
-0.00508863
0.00127817
0.141576
0.224245
0.156399
0.0955828
0.166071
0.0282107
0.172801
-0.00109663
0.177925
-0.0123036
0.182206
-0.0153711
0.185957
-0.0149043
0.189322
-0.0130167
0.192366
-0.0106558
-0.00779042
0.145373
0.197171
0.162221
0.0787353
0.172109
0.0183227
0.178442
-0.00742949
0.1829
-0.0167619
0.186325
-0.0187963
0.189129
-0.0177075
0.191502
-0.0153903
0.193541
-0.0126945
-0.00948884
0.14905
0.165809
0.167463
0.0603219
0.177546
0.00823949
0.183525
-0.0134087
0.187363
-0.0205995
0.190027
-0.0214599
0.191989
-0.0196702
0.193484
-0.0168847
0.194629
-0.01384
-0.0102947
0.152961
0.13026
0.172067
0.0412157
0.182304
-0.00199685
0.187984
-0.0190891
0.191289
-0.0239044
0.193293
-0.0234635
0.194526
-0.0209038
0.195257
-0.0176158
0.195627
-0.0142092
-0.0103238
0.155804
0.0917037
0.175938
0.0210812
0.18635
-0.0124088
0.191792
-0.0245309
0.194655
-0.0267669
0.196106
-0.0249147
0.196727
-0.0215247
0.196815
-0.0177038
0.196529
-0.0139232
-0.00969626
0.157944
0.0508629
0.179068
-4.26863e-05
0.189655
-0.0229962
0.194922
-0.0297976
0.197439
-0.0292839
0.19845
-0.0259258
0.198578
-0.0216532
0.198147
-0.0172726
0.197331
-0.0131067
-0.00853645
0.159511
0.00829424
0.181421
-0.0219523
0.192188
-0.0337632
0.19735
-0.0349603
0.199624
-0.0315577
0.200312
-0.0266133
0.200071
-0.021413
0.199248
-0.0164492
0.198029
-0.0118878
-0.00697198
0.160476
-0.0354641
0.182974
-0.0444505
0.193922
-0.0447111
0.19906
-0.0400981
0.201197
-0.0336951
0.201681
-0.027097
0.201198
-0.0209303
0.200112
-0.0153628
0.19862
-0.0103967
-0.00513321
0.160799
0.183693
0.194837
0.200035
0.202147
0.202549
0.201951
0.200733
0.199102
0.190957
0.0333912
-0.224348
0.171063
0.0198937
0.162335
0.00872831
0.159583
0.00275185
0.159478
0.000104627
0.160322
-0.000843221
0.161332
-0.00101015
0.162182
-0.000849776
0.162749
-0.000567461
-0.000207714
0.237396
0.0963888
-0.300393
0.209183
0.0481062
0.197881
0.0200305
0.194395
0.00623813
0.194227
0.000272742
0.195234
-0.00185099
0.196458
-0.002234
0.197493
-0.00188421
0.198192
-0.00126638
-0.000468452
0.23732
0.156514
-0.297445
0.209772
0.075654
0.199057
0.0307457
0.195968
0.00932695
0.196024
0.00021683
0.197147
-0.00297416
0.198431
-0.00351794
0.199498
-0.0029505
0.200214
-0.00198287
-0.000735586
0.231968
0.212343
-0.287797
0.206888
0.100734
0.197679
0.0399552
0.195407
0.011598
0.195856
-0.000231742
0.197168
-0.00428638
0.198532
-0.00488203
0.199631
-0.00404894
0.200359
-0.00271075
-0.00100536
0.226237
-0.275811
0.203382
0.195843
0.194574
0.195569
0.197112
0.198576
0.199713
0.200455
0.0210504
-0.000805896
-0.0202445
0.0250878
-0.0040374
0.0330341
-0.00794633
0.0460919
-0.0130577
0.0654284
-0.0193365
0.0911473
-0.0257189
0.122322
-0.0311749
0.15605
-0.0337279
0.192714
-0.0366635
-0.0316346
0.0572569
-0.00336724
-0.0546956
0.0675423
-0.0143228
0.0860039
-0.0264079
0.112448
-0.0395022
0.144963
-0.0518514
0.180091
-0.0608467
0.214484
-0.0655684
0.245563
-0.0648066
0.274896
-0.0659964
-0.0571318
0.08297
-0.00725247
-0.0790848
0.0960563
-0.0274091
0.117427
-0.0477785
0.144498
-0.0665729
0.173449
-0.0808031
0.201219
-0.0886167
0.226753
-0.0911021
0.250658
-0.0887114
0.274846
-0.0901849
-0.0797305
0.0981386
-0.0117328
-0.0936583
0.111247
-0.0405177
0.131005
-0.067536
0.154177
-0.0897452
0.177855
-0.104481
0.200808
-0.11157
0.222867
-0.113161
0.245145
-0.11099
0.267098
-0.112138
-0.100429
0.105771
-0.101223
0.117917
0.135485
0.155801
0.176973
0.198091
0.218594
0.238816
0.254815
0.101357
-0.090347
0.0989658
-0.109976
0.0918466
-0.0930837
0.102594
0.0816686
-0.0962087
0.106387
0.0707009
-0.0993907
0.110358
0.0589545
-0.102709
0.114456
0.0464886
-0.106226
0.118692
0.0333831
-0.109806
0.122912
0.0198833
-0.111894
0.125393
0.00725422
-0.103782
0.116411
-0.0588111
0.0660653
0.105817
-0.0798629
-0.116301
0.0950814
-0.082348
0.083767
-0.0848943
0.0719255
-0.0875491
0.0595924
-0.0903762
0.0467699
-0.0934039
0.0334662
-0.0965025
0.0198743
-0.0983018
0.00723129
-0.0911391
-0.0515798
0.106786
-0.0688207
-0.117828
0.0955393
-0.071101
0.083949
-0.073304
0.0719722
-0.0755723
0.0595742
-0.0779781
0.0467235
-0.0805532
0.0334113
-0.0831903
0.0198225
-0.084713
0.00719591
-0.0785126
-0.0443839
0.108027
-0.0576326
-0.119215
0.0965666
-0.0596407
0.0847644
-0.0615018
0.0725952
-0.0634031
0.0600299
-0.0654129
0.0470387
-0.067562
0.0336116
-0.0697632
0.0199304
-0.0710318
0.00723384
-0.065816
-0.0371501
0.108855
-0.0463878
-0.120099
0.0972753
-0.0480614
0.0853471
-0.0495736
0.0730585
-0.0511145
0.0603858
-0.0527401
0.0472998
-0.054476
0.0337889
-0.0562523
0.0200319
-0.0572748
0.00726992
-0.0530539
-0.0298802
0.109411
-0.0350997
-0.120699
0.0977637
-0.0364146
0.0857656
-0.0375755
0.0734064
-0.0387553
0.0606644
-0.0399981
0.0475115
-0.0413231
0.0339361
-0.0426769
0.0201143
-0.043453
0.00728746
-0.0402271
-0.0225927
0.109721
-0.0237906
-0.12103
0.0980364
-0.0247304
0.0860008
-0.0255399
0.0736042
-0.0263587
0.0608251
-0.027219
0.0476361
-0.0281341
0.0340255
-0.0290663
0.0201683
-0.0295958
0.00730635
-0.0273651
-0.0152863
0.109804
-0.0124788
-0.121116
0.0981063
-0.0130329
0.0860586
-0.0134922
0.0736512
-0.0139513
0.0608623
-0.0144301
0.0476648
-0.0149366
0.0340472
-0.0154488
0.0201844
-0.0157331
0.00731753
-0.0144982
-0.00796881
0.109661
-0.0011903
-0.12095
0.0979723
-0.00134412
0.0859356
-0.00145547
0.0735411
-0.00155683
0.0607675
-0.00165647
0.0475875
-0.00175662
0.0339901
-0.00185137
0.02015
-0.00189296
0.00730595
-0.00165414
-0.000662866
0.109299
-0.120594
0.0976353
0.085628
0.0732676
0.0605325
0.0473958
0.0338462
0.0200587
0.00726884
0.0177097
-0.209176
-0.0210302
0.0142954
-0.21315
0.011001
-0.216058
0.00779623
-0.219265
0.00462963
-0.223081
0.00147166
-0.227566
-0.00163539
-0.232098
-0.0034982
-0.232832
-0.00319872
-0.209988
-0.111622
0.0496646
-0.201959
-0.0568813
0.0421005
-0.205586
0.034801
-0.208758
0.0277928
-0.212257
0.0209941
-0.216282
0.014345
-0.220917
0.00804276
-0.225796
0.00238853
-0.227178
-0.000967091
-0.206632
-0.112589
0.0767902
-0.190914
-0.0878355
0.0657545
-0.19455
0.0551924
-0.198196
0.045086
-0.20215