/*--------------------------------*- C++ -*----------------------------------*\
  =========                 |
  \\      /  F ield         | OpenFOAM: The Open Source CFD Toolbox
   \\    /   O peration     | Website:  https://openfoam.org
    \\  /    A nd           | Version:  13
     \\/     M anipulation  |
\*---------------------------------------------------------------------------*/
FoamFile
{
    format      ascii;
    class       surfaceScalarField;
    location    "0.12";
    object      phi;
}
// * * * * * * * * * * * * * * * * * * * * * * * * * * * * * * * * * * * * * //

dimensions      [0 3 -1 0 0 0 0];

internalField   nonuniform List<scalar> 
3485
(
0.00437973
-0.0529119
0.0485321
0.0130988
-0.119754
0.111035
0.0229191
-0.142042
0.132221
0.0327067
-0.144949
0.135161
0.0422122
-0.142238
0.132732
0.0514073
-0.138434
0.129239
0.0602851
-0.134665
0.125788
0.0688116
-0.131133
0.122606
0.0768877
-0.127764
0.119688
-0.124222
0.116601
0.0845084
0.00430485
-0.0572167
0.0125648
-0.128014
0.0217262
-0.151203
0.0308095
-0.154032
0.0396389
-0.151067
0.0482248
-0.14702
0.0566003
-0.143041
0.0648026
-0.139335
0.0729083
-0.135869
-0.13253
0.0812167
0.00420738
-0.0614241
0.0119461
-0.135752
0.0203689
-0.159626
0.0286581
-0.162321
0.036702
-0.159111
0.0445294
-0.154847
0.0521747
-0.150686
0.0596663
-0.146827
0.067034
-0.143237
-0.139817
0.0743206
0.00407887
-0.065503
0.0112243
-0.142898
0.0188275
-0.167229
0.0262449
-0.169739
0.0334307
-0.166297
0.0404331
-0.16185
0.0472903
-0.157543
0.0540281
-0.153565
0.0606731
-0.149882
-0.14647
0.0673264
0.00390354
-0.0694065
0.0103676
-0.149362
0.0170576
-0.173919
0.0235125
-0.176194
0.0297474
-0.172532
0.035827
-0.167929
0.0417901
-0.163506
0.0476606
-0.159435
0.0534665
-0.155688
-0.152273
0.0592695
0.00366888
-0.0730754
0.00935462
-0.155048
0.0150384
-0.179603
0.0204453
-0.181601
0.0256451
-0.177732
0.0307173
-0.173001
0.0357005
-0.16849
0.0406164
-0.164351
0.0454882
-0.16056
-0.157142
0.0503567
0.00336485
-0.0764403
0.00817271
-0.159855
0.0127678
-0.184198
0.0170501
-0.185883
0.0211395
-0.181821
0.0251288
-0.176991
0.0290554
-0.172416
0.0329378
-0.168233
0.0367951
-0.164417
-0.160994
0.0406472
0.00298409
-0.0794243
0.00682273
-0.163694
0.0102622
-0.187638
0.0133499
-0.18897
0.0162653
-0.184737
0.0191089
-0.179834
0.0219143
-0.175222
0.0246955
-0.171015
0.0274659
-0.167187
-0.163756
0.0302277
0.00252842
-0.0819528
0.00532643
-0.166492
0.00754165
-0.189853
0.00938294
-0.190812
0.011081
-0.186435
0.0127323
-0.181485
0.0143665
-0.176856
0.0159937
-0.172642
0.0176226
-0.168816
-0.165375
0.0192419
0.00200629
-0.083959
0.00369366
-0.168179
0.00462246
-0.190782
0.00522541
-0.191415
0.00566885
-0.186878
0.00609486
-0.181911
0.00652355
-0.177285
0.0069577
-0.173076
0.00739862
-0.169257
0.00783204
-0.165808
0.00434343
-0.00851788
0.00417445
0.0150335
-0.0200366
0.0093465
0.0280654
-0.0241695
0.0111375
0.0415047
-0.0248594
0.0114201
0.0547287
-0.0244623
0.0112384
0.0675894
-0.0238151
0.0109544
0.0800735
-0.0231512
0.0106671
0.0921989
-0.0225232
0.0103979
0.103986
-0.021935
0.0101483
-0.0215096
0.115571
0.00992436
0.00435433
-0.0128722
0.014998
-0.0306803
0.0279453
-0.0371167
0.0412869
-0.0382011
0.0544137
-0.037589
0.0671834
-0.0365848
0.0795849
-0.0355527
0.0916368
-0.0345751
0.103361
-0.0336594
-0.0330406
0.114892
0.00437398
-0.0172462
0.014958
-0.0412643
0.0277906
-0.0499494
0.0409979
-0.0514083
0.0539896
-0.0505808
0.0666315
-0.0492267
0.0789151
-0.0478363
0.0908603
-0.0465204
0.102492
-0.0452914
-0.0444878
0.11394
0.00440196
-0.0216481
0.0149072
-0.0517695
0.0275868
-0.0626289
0.040614
-0.0644356
0.0534238
-0.0633906
0.0658921
-0.061695
0.078014
-0.0599582
0.0898109
-0.0583172
0.101312
-0.0567926
-0.0558123
0.112636
0.00443635
-0.0260845
0.0148369
-0.0621701
0.0273158
-0.0751077
0.0401074
-0.0772273
0.0526787
-0.0759619
0.0649178
-0.0739341
0.0768243
-0.0718647
0.088421
-0.0699139
0.099742
-0.0681136
-0.0669611
0.110891
0.00447264
-0.0305571
0.0147339
-0.0724313
0.0269551
-0.087329
0.0394467
-0.0897189
0.0517138
-0.0882289
0.0636591
-0.0858794
0.0752865
-0.0834921
0.08662
-0.0812474
0.0976974
-0.079191
-0.0778612
0.108598
0.00450288
-0.03506
0.01458
-0.0825084
0.0264785
-0.0992275
0.0385987
-0.101839
0.0504899
-0.10012
0.0620713
-0.0974608
0.0733507
-0.0947715
0.0843523
-0.092249
0.0951136
-0.0899523
-0.0884159
0.105668
0.0045166
-0.0395766
0.0143547
-0.0923466
0.0258589
-0.110732
0.0375323
-0.113512
0.0489741
-0.111562
0.0601218
-0.108608
0.0709888
-0.105639
0.0815997
-0.10286
0.0919838
-0.100336
-0.0985107
0.102079
0.00450261
-0.0440792
0.0140364
-0.10188
0.0250658
-0.121761
0.0362089
-0.124656
0.0471202
-0.122473
0.0577596
-0.119248
0.0681503
-0.116029
0.0783212
-0.113031
0.0882822
-0.110297
-0.107977
0.097749
0.00445293
0.0136073
0.0240677
0.0345734
0.0448323
0.0548232
0.0645816
0.0741571
0.0835472
0.0921708
0.160251
-0.125024
0.0803433
0.183476
-0.0909355
0.0677111
0.194901
-0.0675696
0.0561446
0.200285
-0.0509093
0.0455247
0.202504
-0.0382043
0.0359853
0.20296
-0.0280956
0.0276394
0.202385
-0.0198689
0.0204445
0.201171
-0.0130207
0.0142348
0.199536
-0.00721153
0.00884625
-0.00120808
0.00319512
0.159172
-0.169304
0.182462
-0.114225
0.194137
-0.0792439
0.199769
-0.0565414
0.202191
-0.0406264
0.202814
-0.0287182
0.202381
-0.0194365
0.201298
-0.0119376
0.199789
-0.00570276
0.000652523
0.157338
-0.212703
0.180555
-0.137442
0.192521
-0.0912098
0.198501
-0.0625213
0.201243
-0.0433687
0.202157
-0.0296322
0.201997
-0.0192762
0.201176
-0.0111168
0.199926
-0.0044528
0.0022522
0.154711
-0.254777
0.177739
-0.160471
0.190051
-0.103521
0.196483
-0.0689533
0.199664
-0.0465502
0.200994
-0.0309619
0.201233
-0.0195152
0.200804
-0.0106878
0.199944
-0.00359318
0.0034573
0.151229
-0.295115
0.174004
-0.183246
0.186728
-0.116245
0.19372
-0.0759453
0.197461
-0.0502907
0.199329
-0.0328305
0.200093
-0.020279
0.200183
-0.0107781
0.199844
-0.00325335
0.00413587
0.146743
-0.33326
0.169333
-0.205837
0.18256
-0.129472
0.190224
-0.0836093
0.194644
-0.0547106
0.197173
-0.0353595
0.198584
-0.0216901
0.199318
-0.0115117
0.199624
-0.0035598
0.00415844
0.140859
-0.368451
0.163682
-0.228659
0.177549
-0.143339
0.186006
-0.0920668
0.191227
-0.0599311
0.194536
-0.0386683
0.196713
-0.0238676
0.198211
-0.0130091
0.199286
-0.00463522
0.00339892
0.134176
-0.400549
0.157005
-0.251489
0.171686
-0.158019
0.181081
-0.101462
0.187226
-0.0660763
0.191432
-0.0428745
0.194491
-0.0269269
0.196868
-0.015386
0.198831
-0.00659777
0.0017355
0.126393
-0.429192
0.149036
-0.274132
0.164838
-0.173821
0.175403
-0.112027
0.182635
-0.0733088
0.187869
-0.0481082
0.191927
-0.0309851
0.195297
-0.0187555
0.19826
-0.00956119
-0.000948817
0.117357
-0.454379
0.140432
-0.297207
0.157328
-0.190717
0.169105
-0.123804
0.177518
-0.0817215
0.183881
-0.054471
0.18904
-0.0361447
0.193506
-0.0232208
0.197576
-0.0136318
-0.00476592
0.356419
-0.403606
-0.407191
0.330505
-0.271294
0.319503
-0.179714
0.314662
-0.118963
0.31214
-0.079199
0.310563
-0.0528949
0.309474
-0.0350557
0.308723
-0.0224696
0.308251
-0.0131597
-0.00458855
0.370344
-0.346646
-0.427305
0.342007
-0.242956
0.32781
-0.165517
0.320297
-0.11145
0.315911
-0.0748125
0.313127
-0.0501108
0.311279
-0.0332087
0.310068
-0.0212578
0.309339
-0.012431
-0.00432725
0.383661
-0.291253
-0.439054
0.352789
-0.212084
0.335523
-0.148251
0.325552
-0.101479
0.319461
-0.0687209
0.315555
-0.0462056
0.312994
-0.0306473
0.311344
-0.0196074
0.310368
-0.0114555
-0.00398354
0.393236
-0.239077
-0.445413
0.361438
-0.180286
0.342126
-0.12894
0.330229
-0.0895811
0.322689
-0.0611814
0.317789
-0.0413058
0.314578
-0.0274358
0.312523
-0.0175522
0.311317
-0.0102499
-0.00356208
0.4002
-0.190763
-0.448514
0.368324
-0.148409
0.34765
-0.108266
0.334268
-0.0761985
0.325533
-0.0524466
0.319778
-0.0355515
0.315995
-0.0236523
0.313579
-0.0151361
0.312166
-0.00883713
-0.00306993
0.405162
-0.146271
-0.449654
0.373667
-0.116914
0.352127
-0.086726
0.337634
-0.0617061
0.327945
-0.0427573
0.321483
-0.0290895
0.317215
-0.0193846
0.31449
-0.0124103
0.312898
-0.00724509
-0.00251605
0.408584
-0.10512
-0.449735
0.377664
-0.0859941
0.355604
-0.0646661
0.340313
-0.0464146
0.329893
-0.0323378
0.322872
-0.0220683
0.318214
-0.014727
0.315237
-0.0094325
0.313497
-0.00550569
-0.00191095
0.410778
-0.0665475
-0.449351
0.380446
-0.0556616
0.358105
-0.0423248
0.342275
-0.0305849
0.331335
-0.0213978
0.323904
-0.0146373
0.318956
-0.00977909
0.315789
-0.00626529
0.313937
-0.00365442
-0.00126655
0.410714
-0.029138
-0.448123
0.380975
-0.0259222
0.358634
-0.0199842
0.342576
-0.0145273
0.331374
-0.0101958
0.323724
-0.00698721
0.318618
-0.00467238
0.315347
-0.0029947
0.313436
-0.00174318
-0.000600884
0.370959
-0.400097
0.345037
0.325053
0.310526
0.30033
0.293343
0.28867
0.285676
0.283932
0.439884
0.00751813
-0.43957
0.439496
0.0196301
0.438375
0.0313488
0.436468
0.0425535
0.433708
0.0531169
0.430081
0.0628965
0.425206
0.072202
0.420143
0.0793829
0.410413
0.0909475
0.0877295
0.422119
0.0071274
-0.421728
0.422769
0.0189804
0.423602
0.0305158
0.42456
0.0415952
0.425556
0.052121
0.426572
0.061881
0.427358
0.0714159
0.428352
0.0783887
0.429052
0.0902478
0.0894761
0.407696
0.00647371
-0.407042
0.409083
0.0175931
0.411157
0.0284423
0.413872
0.03888
0.417169
0.0488246
0.420985
0.0580641
0.425289
0.067112
0.429678
0.0740001
0.435266
0.0846595
0.0856888
0.396369
0.00568477
-0.39558
0.398226
0.0157356
0.40112
0.0255488
0.405006
0.0349934
0.409839
0.0439918
0.415532
0.0523709
0.422141
0.060503
0.429148
0.0669935
0.437832
0.075976
0.0781075
0.387495
0.00479917
-0.38661
0.389684
0.0135468
0.393146
0.0220874
0.397839
0.0303004
0.403722
0.0381085
0.410712
0.0453811
0.418865
0.0523495
0.42775
0.058109
0.438339
0.0653862
0.0679326
0.380688
0.00384291
-0.379732
0.383109
0.011126
0.386964
0.0182324
0.39221
0.0250537
0.398805
0.0315141
0.40667
0.037516
0.415832
0.0431871
0.425971
0.0479701
0.437749
0.0536078
0.0560283
0.375654
0.00283104
-0.374642
0.378242
0.0085376
0.382374
0.0141005
0.388003
0.0194254
0.395075
0.0244416
0.403517
0.0290741
0.413321
0.0333831
0.424257
0.0370337
0.436754
0.0411112
0.043047
0.372107
0.0017579
-0.371034
0.374837
0.00580787
0.379185
0.00975239
0.385095
0.0135151
0.392501
0.017036
0.401318
0.0202566
0.411504
0.0231981
0.422892
0.025645
0.435736
0.0282676
0.029432
0.367258
0.000546265
-0.366046
0.370259
0.00280688
0.374984
0.00502681
0.381356
0.00714319
0.389273
0.0091192
0.398613
0.0109167
0.409277
0.0125336
0.421083
0.0138394
0.434122
0.0152288
0.0154303
0.308053
-0.307506
0.310859
0.315886
0.323029
0.332149
0.343065
0.355599
0.369438
0.384667
0.0799463
0.123122
-0.112488
-0.0905805
0.0702137
0.12545
-0.115717
0.0608316
0.128405
-0.119023
0.051507
0.131819
-0.122494
0.0420879
0.13558
-0.126161
0.032497
0.139644
-0.130053
0.0227195
0.143693
-0.133916
0.0129726
0.145258
-0.135511
0.00435098
0.132449
-0.123828
0.072424
-0.068073
0.0756657
0.131842
-0.0843851
0.0667577
0.134358
0.0577837
0.137379
0.0487703
0.140832
0.0396888
0.144662
0.0304976
0.148835
0.0211916
0.152999
0.0119908
0.154458
0.00395237
0.140488
0.0763763
0.0679609
0.139263
-0.0753826
0.0602061
0.142113
0.0522513
0.145334
0.0441502
0.148933
0.0359107
0.152901
0.0275206
0.157226
0.0190027
0.161517
0.0106082
0.162853
0.00338285
0.147713
0.0797592
0.059401
0.145708
-0.0658454
0.0526854
0.148828
0.0457623
0.152257
0.0386632
0.156032
0.0313954
0.160169
0.0239568
0.164664
0.0163886
0.169085
0.00896666
0.170275
0.00271255
0.153967
0.0824717
0.0508174
0.151363
-0.056473
0.0449874
0.154658
0.0390022
0.158243
0.032868
0.162166
0.0265803
0.166457
0.0201361
0.171108
0.0135859
0.175636
0.00722046
0.17664
0.00201517
0.159172
0.0844869
0.0420426
0.156225
-0.0469039
0.0370821
0.159619
0.0320222
0.163302
0.0268548
0.167334
0.0215677
0.171744
0.0161563
0.17652
0.0106737
0.181118
0.00541646
0.181898
0.00131056
0.163278
0.0857975
0.0328445
0.160194
-0.0368138
0.0288262
0.163637
0.0247468
0.167382
0.0205931
0.171487
0.0163536
0.175983
0.0120293
0.180844
0.00766924
0.185478
0.00356038
0.186007
0.000561689
0.166277
0.0863592
0.0231787
0.163159
-0.0261436
0.0201941
0.166622
0.017168
0.170408
0.0140865
0.174569
0.0109366
0.179133
0.00773982
0.184041
0.00458104
0.188637
0.00170243
0.188885
-0.000187567
0.168167
0.0861716
0.0131408
0.165032
-0.0150143
0.0112604
0.168502
0.00935028
0.172318
0.00740418
0.176515
0.00540846
0.181129
0.00334192
0.186107
0.00137867
0.1906
-0.000280664
0.190544
-0.000794392
0.168681
0.0853772
0.00296761
-0.00374366
0.00221261
0.00145464
0.000685098
-9.71854e-05
-0.000867881
-0.00168237
-0.00191945
-0.00141815
0.108574
0.0214291
-0.119836
-0.0101664
0.0969378
0.0220185
-0.0103827
0.0849682
0.0225867
-0.0106171
0.0726544
0.0231846
-0.0108708
0.0599744
0.023828
-0.011148
0.046901
0.0245251
-0.0114517
0.0334253
0.0252458
-0.0117701
0.0197368
0.0256437
-0.0119552
0.0071046
0.0237829
-0.0111507
0.0136703
-0.00656567
0.107681
0.0326497
-0.118902
0.0961055
0.0335945
0.084208
0.0344842
0.0719779
0.0354147
0.0593927
0.0364131
0.0464247
0.0374932
0.0330647
0.0386058
0.0195029
0.0392054
0.00700374
0.0362821
0.020674
0.106409
0.043804
-0.117563
0.0949263
0.045077
0.0831374
0.0462731
0.0710302
0.0475218
0.0585816
0.0488617
0.0457632
0.0503116
0.0325658
0.0518032
0.0191811
0.0525901
0.00686586
0.0485973
0.0275399
0.104662
0.054852
-0.11571
0.0933193
0.0564197
0.0816879
0.0579045
0.0697548
0.059455
0.057496
0.0611205
0.0448827
0.0629249
0.0319069
0.064779
0.0187643
0.0657327
0.00670474
0.0606569
0.0342446
0.102336
0.0657358
-0.11322
0.0911955
0.0675601
0.0797853
0.0693146
0.0680909
0.0711494
0.0560871
0.0731243
0.0437447
0.0752673
0.0310568
0.0774668
0.0182242
0.0785653
0.00648543
0.0723956
0.04073
0.0993373
0.0763895
-0.109991
0.0884726
0.0784249
0.0773603
0.0804268
0.0659825
0.0825272
0.0543115
0.0847953
0.0423166
0.0872623
0.0299921
0.0897913
0.0175442
0.0910132
0.00620064
0.0837392
0.0469307
0.0955695
0.0867321
-0.105912
0.0850879
0.0889065
0.0743821
0.0911326
0.0634216
0.0934877
0.0521744
0.0960425
0.0406101
0.0988266
0.0287272
0.101674
0.0167407
0.103
0.00586718
0.0946127
0.0527979
0.0908162
0.0966073
-0.100691
0.0808682
0.0988545
0.0707152
0.101286
0.0603072
0.103896
0.049607
0.106743
0.0385845
0.109849
0.0272432
0.113016
0.0158087
0.114434
0.00548414
0.104937
0.058282
0.0858313
0.105615
-0.0948389
0.0766724
0.108013
0.0671387
0.110819
0.0572705
0.113764
0.0470855
0.116928
0.0365767
0.120358
0.0257615
0.123831
0.014878
0.125318
0.00510918
0.114706
0.0633912
0.0776486
-0.0845217
0.0699447
0.0617406
0.0530106
0.043777
0.0340815
0.0239963
0.0138033
0.0046818
0.200813
0.0152589
-0.0180825
0.2031
0.021703
-0.0239895
0.202995
0.0264624
-0.0263574
0.2037
0.0287005
-0.0294056
0.203277
0.03463
-0.0342066
0.201154
0.0428767
-0.0407539
0.19602
0.0540809
-0.0489473
0.185435
0.0692424
-0.0586569
0.162752
0.0922282
-0.0695455
0.124933
-0.0820173
0.200651
0.0125973
0.202816
0.0195386
0.202654
0.0266245
0.203274
0.02808
0.20273
0.0351741
0.20044
0.0451668
0.195088
0.0594327
0.184231
0.0800994
0.161486
0.114973
0.167518
0.200361
0.0102263
0.202239
0.0176604
0.201927
0.0269364
0.202339
0.0276681
0.201543
0.0359699
0.198961
0.0477485
0.193282
0.0651119
0.182076
0.091306
0.159351
0.137697
0.209306
0.199937
0.00827885
0.201374
0.0162241
0.200826
0.0274836
0.200904
0.0275905
0.199726
0.0371481
0.196727
0.0507471
0.190603
0.0712364
0.178952
0.102957
0.156232
0.160417
0.249828
0.199373
0.00689555
0.200225
0.0153721
0.199367
0.0283417
0.198981
0.0279766
0.197291
0.0388385
0.193749
0.0542888
0.187051
0.0779345
0.17484
0.115167
0.151812
0.183445
0.288421
0.198658
0.0062271
0.198801
0.0152298
0.197568
0.0295744
0.196583
0.0289618
0.194253
0.0411683
0.190042
0.0585001
0.182631
0.0853446
0.16972
0.128079
0.146177
0.206988
0.324606
0.197781
0.00643626
0.19711
0.0159009
0.195451
0.0312331
0.193722
0.0306905
0.190631
0.0442593
0.185622
0.063509
0.177351
0.0936161
0.163594
0.141835
0.140522
0.230061
0.359216
0.196727
0.00769914
0.195165
0.0174631
0.19304
0.033358
0.190412
0.0333185
0.186448
0.0482233
0.180514
0.069443
0.171247
0.102883
0.156512
0.156571
0.134455
0.252117
0.39298
0.195486
0.010203
0.192987
0.0199622
0.190361
0.0359838
0.186662
0.0370172
0.181731
0.0531546
0.174765
0.0764091
0.16449
0.113157
0.149075
0.171986
0.128475
0.272717
0.426616
0.194151
0.0140415
0.190589
0.0235245
0.187472
0.0391011
0.182506
0.0419827
0.176565
0.0590956
0.168453
0.0845208
0.156834
0.124777
0.139848
0.188973
0.117452
0.295112
0.459546
0.302753
0.0132989
0.304229
0.0220479
0.307552
0.035779
0.308763
0.0407711
0.310698
0.0571604
0.313152
0.0820668
0.317319
0.12061
0.326315
0.179977
0.351032
0.270396
0.40313
0.407448
0.303494
0.011815
0.305313
0.0202293
0.30887
0.0322221
0.311116
0.0385248
0.314269
0.0540073
0.318761
0.0775745
0.326145
0.113226
0.339795
0.166326
0.368867
0.241325
0.347328
0.424669
0.304134
0.00969142
0.306452
0.0179109
0.310192
0.0284827
0.313336
0.03538
0.317628
0.0497159
0.323876
0.0713263
0.3338
0.103302
0.350675
0.149451
0.381821
0.210179
0.292818
0.43633
0.304739
0.00696226
0.307534
0.0151166
0.311487
0.0245297
0.315392
0.0314742
0.320715
0.0443934
0.328467
0.0635739
0.340408
0.0913619
0.35955
0.130309
0.391358
0.17837
0.241149
0.443027
0.305343
0.00362968
0.308559
0.0119003
0.312711
0.0203779
0.317245
0.0269405
0.323457
0.0381806
0.332456
0.0545749
0.34595
0.0778682
0.366605
0.109655
0.398234
0.146741
0.192971
0.446412
0.305976
-0.000336357
0.309537
0.00833911
0.313829
0.0160868
0.318856
0.021913
0.325803
0.031234
0.335798
0.0445796
0.350453
0.0632129
0.372059
0.0880486
0.403114
0.115686
0.148351
0.447735
0.306654
-0.00497999
0.31048
0.0045134
0.314809
0.0117575
0.320193
0.0165286
0.327712
0.0237151
0.338469
0.0338226
0.353961
0.0477209
0.376125
0.0658853
0.406488
0.0853231
0.106919
0.447919
0.307468
-0.0104376
0.311406
0.000575568
0.315612
0.00755076
0.321215
0.0109255
0.329148
0.0157829
0.34045
0.0225199
0.356514
0.0316576
0.378973
0.0434262
0.408685
0.0556108
0.0680528
0.447551
0.307743
-0.0161703
0.311542
-0.00322358
0.315474
0.0036189
0.321167
0.00523214
0.32936
0.00759037
0.341012
0.0108674
0.357431
0.0152394
0.380019
0.020838
0.409218
0.0264119
0.0316163
0.445654
0.28584
0.282616
0.286235
0.291467
0.299058
0.309925
0.325165
0.346003
0.372414
0.404031
0.417259
-0.100392
0.419639
-0.0867646
0.422204
-0.0779476
0.425603
-0.0692444
0.429147
-0.0600177
0.432388
-0.050145
0.435125
-0.0395501
0.437276
-0.0282947
0.438768
-0.0165061
-0.00454626
0.424065
-0.0997871
0.423845
-0.0865452
0.423486
-0.0775882
0.423197
-0.0689556
0.422806
-0.0596271
0.422323
-0.0496613
0.421873
-0.0391006
0.421569
-0.02799
0.421516
-0.0164535
-0.00475874
0.430259
-0.0937159
0.425699
-0.0819853
0.421405
-0.073294
0.417524
-0.0650749
0.414195
-0.0562982
0.411447
-0.0469127
0.409322
-0.0369762
0.407873
-0.0265411
0.407132
-0.0157121
-0.00466919
0.433357
-0.0840456
0.425585
-0.0742128
0.418677
-0.0663865
0.412546
-0.0589436
0.407284
-0.0510367
0.402939
-0.0425678
0.399557
-0.0335937
0.397185
-0.024169
0.395856
-0.0143833
-0.00439297
0.434515
-0.0721491
0.424545
-0.0642427
0.415771
-0.0576127
0.408043
-0.0512157
0.401423
-0.0444164
0.395967
-0.0371124
0.391723
-0.0293488
0.38873
-0.021177
0.387024
-0.012677
-0.00397845
0.434483
-0.0588971
0.423076
-0.0528357
0.413035
-0.0475711
0.404225
-0.0424063
0.396687
-0.0368778
0.390474
-0.0309002
0.385636
-0.0245104
0.382214
-0.017755
0.380242
-0.0107049
-0.00346824
0.433861
-0.0448392
0.421557
-0.0405321
0.410702
-0.0367156
0.401188
-0.0328924
0.393043
-0.0287328
0.386324
-0.0241809
0.381083
-0.0192692
0.377366
-0.0140389
0.375213
-0.00855184
-0.00289689
0.433006
-0.0302934
0.420186
-0.0277124
0.408864
-0.025394
0.398924
-0.0229526
0.390393
-0.0202015
0.383338
-0.0171257
0.377824
-0.013755
0.373908
-0.0101231
0.371635
-0.00627898
-0.00229587
0.43053
-0.0151695
0.417378
-0.0145606
0.40571
-0.0137252
0.395386
-0.0126293
0.38646
-0.0112754
0.379031
-0.00969683
0.373199
-0.00792262
0.369052
-0.00597639
0.366659
-0.00388536
-0.00168325
0.388861
0.374301
0.360575
0.347946
0.336671
0.326974
0.319051
0.313075
0.30919
0.00544841
0.100962
-0.10641
0.00947821
0.204312
-0.208342
0.0111753
0.232934
-0.234631
0.0119698
0.234845
-0.23564
0.0125266
0.230717
-0.231274
0.0131611
0.226175
-0.22681
0.0139304
0.222255
-0.223024
0.0148083
0.219008
-0.219886
0.0156742
0.216163
-0.217029
0.212322
0.0160415
-0.21269
0.00700119
0.0939605
0.0142748
0.197039
0.0196979
0.227511
0.0241493
0.230394
0.0284369
0.226429
0.0328926
0.22172
0.037625
0.217522
0.0426569
0.213976
0.0478822
0.210938
0.207719
0.0524856
0.00786742
0.0860931
0.0177584
0.187148
0.0264536
0.218816
0.0343165
0.222531
0.0420176
0.218728
0.0499213
0.213816
0.058185
0.209259
0.0668874
0.205274
0.0760286
0.201796
0.198621
0.0851269
0.008049
0.0780441
0.0197756
0.175421
0.0310866
0.207505
0.0417908
0.211827
0.0523361
0.208183
0.0630528
0.203099
0.0741201
0.198192
0.085651
0.193743
0.0977273
0.18972
0.185995
0.110353
0.00770854
0.0703355
0.0204435
0.162686
0.033596
0.194352
0.0463956
0.199027
0.0590241
0.195554
0.071728
0.190395
0.0846723
0.185247
0.097972
0.180443
0.111723
0.175969
0.171568
0.12615
0.00708057
0.063255
0.0201281
0.149639
0.0343448
0.180136
0.0484577
0.184914
0.0623732
0.181639
0.0762258
0.176543
0.0901397
0.171333
0.104208
0.166374
0.118507
0.161671
0.156808
0.133267
0.0063854
0.0568696
0.0192857
0.136738
0.0339292
0.165492
0.0486763
0.170167
0.0631976
0.167117
0.0775162
0.162224
0.0917077
0.157142
0.105837
0.152245
0.119941
0.147567
0.142543
0.134206
0.00577283
0.0510967
0.0183
0.124211
0.03294
0.150852
0.0478275
0.155279
0.0624632
0.152482
0.0767813
0.147906
0.0908145
0.143109
0.104605
0.138454
0.118205
0.133968
0.129114
0.131633
0.00530972
0.045787
0.0174136
0.112107
0.0318256
0.13644
0.0465696
0.140535
0.0610467
0.138005
0.0751358
0.133817
0.0888452
0.129399
0.102217
0.125083
0.115291
0.120893
0.11592
0.128486
0.00499202
0.040795
0.0167136
0.100386
0.0308097
0.122344
0.0452616
0.126084
0.0594106
0.123856
0.0730813
0.120146
0.0862209
0.11626
0.0987817
0.112522
0.110625
0.109049
0.105029
0.121516
0.004805
0.03599
0.0162538
0.0889371
0.0300938
0.108504
0.044319
0.111858
0.0582734
0.109901
0.0717978
0.106622
0.0848848
0.103173
0.0975779
0.0998288
0.109952
0.0966753
0.0940574
0.120923
0.00468972
0.0313003
0.0159453
0.0776815
0.0295822
0.0948672
0.0436124
0.0978281
0.0573836
0.0961299
0.0707326
0.0932732
0.0836383
0.0902668
0.096112
0.0873551
0.108187
0.0845998
0.0827523
0.119493
0.00460371
0.0266966
0.0157147
0.0665705
0.0291915
0.0813905
0.0430581
0.0839615
0.0566659
0.082522
0.0698501
0.080089
0.0825849
0.077532
0.0948776
0.0750624
0.106751
0.0727261
0.0713093
0.118194
0.00453288
0.0221637
0.0155385
0.0555649
0.0289045
0.0680245
0.0426616
0.0702044
0.0561661
0.0690175
0.0692561
0.066999
0.0819085
0.0648796
0.0941337
0.0628372
0.105956
0.0609035
0.0597862
0.117479
0.00447342
0.0176903
0.0154026
0.0446358
0.0286968
0.0547303
0.0423884
0.0565129
0.0558363
0.0555696
0.0688817
0.0539536
0.0815046
0.0522567
0.093719
0.0506228
0.105551
0.0490718
0.0482032
0.117134
0.00442514
0.0132651
0.0152976
0.0337633
0.028544
0.0414839
0.0421953
0.0428616
0.0556112
0.0421537
0.0686345
0.0409302
0.081247
0.0396442
0.093464
0.0384057
0.10531
0.0372263
0.0365877
0.116925
0.00438838
0.00887675
0.0152171
0.0229346
0.0284273
0.0282737
0.0420492
0.0292397
0.0554423
0.0287607
0.0684501
0.0279224
0.0810552
0.0270391
0.0932735
0.0261875
0.105126
0.0253735
0.0249577
0.116756
0.00436277
0.00451398
0.0151557
0.0121417
0.0283327
0.0150967
0.041926
0.0156464
0.0552955
0.0153911
0.0682858
0.0149321
0.0808798
0.0144451
0.0930938
0.0139734
0.104948
0.0135197
0.0133222
0.116583
0.00434735
0.000166632
0.0151079
0.00138114
0.0282482
0.00195645
0.0418059
0.00208862
0.0551438
0.00205323
0.0681076
0.00196833
0.0806811
0.00187158
0.0928808
0.00177375
0.104725
0.00167497
0.00169347
0.116354
0.00434108
0.0150687
0.0281627
0.0416714
0.054963
0.0678857
0.0804244
0.092596
0.104419
0.116037
0.136524
0.247128
-0.262728
0.149647
0.11065
-0.123774
0.159248
0.0379724
-0.0475729
0.166485
0.00563257
-0.0128694
0.172446
-0.00721216
0.00125079
0.177715
-0.0111311
0.00586198
0.182531
-0.0111936
0.00637766
0.187004
-0.00968779
0.00521512
0.19117
-0.00764593
0.00348004
-0.00510779
0.00129302
0.141585
0.225036
0.156409
0.0958266
0.166082
0.0282984
0.172822
-0.00110731
0.177955
-0.012345
0.182245
-0.0154209
0.186004
-0.0149521
0.189376
-0.0130599
0.192427
-0.0106972
-0.00781343
0.145357
0.197873
0.162211
0.0789731
0.172114
0.0183958
0.17846
-0.00745413
0.182931
-0.0168156
0.186366
-0.0188557
0.189177
-0.0177634
0.191557
-0.0154403
0.193602
-0.0127419
-0.00951527
0.148999
0.166353
0.16743
0.0605416
0.177543
0.00828259
0.183543
-0.0134534
0.187394
-0.0206674
0.190068
-0.0215296
0.192039
-0.0197341
0.19354
-0.0169412
0.194691
-0.0138931
-0.0103242
0.152844
0.130643
0.172016
0.0413696
0.182295
-0.00199646
0.188
-0.0191586
0.191321
-0.0239882
0.193336
-0.0235442
0.194577
-0.0209758
0.195315
-0.0176785
0.195689
-0.0142676
-0.010356
0.155648
0.0919197
0.175874
0.0211434
0.186337
-0.0124593
0.191807
-0.0246286
0.194687
-0.026868
0.19615
-0.0250069
0.196779
-0.0216049
0.196873
-0.0177725
0.196592
-0.0139866
-0.00973099
0.15777
0.0509062
0.178996
-8.27932e-05
0.189639
-0.0231027
0.194937
-0.0299259
0.197472
-0.0294034
0.198495
-0.0260298
0.198632
-0.0217414
0.198206
-0.0173471
0.197395
-0.013175
-0.00857342
0.159327
0.00816216
0.181344
-0.0220997
0.19217
-0.0339291
0.197366
-0.0351209
0.199659
-0.0316965
0.200358
-0.0267294
0.200126
-0.0215092
0.199308
-0.0165293
0.198094
-0.0119605
-0.00701098
0.160287
-0.0357709
0.182895
-0.0447075
0.193904
-0.0449383
0.199075
-0.0402921
0.201233
-0.0338537
0.201728
-0.0272253
0.201254
-0.0210343
0.200172
-0.0154483
0.198686
-0.0104736
-0.00517405
0.16061
0.183613
0.194819
0.200052
0.202184
0.202598
0.202008
0.200795
0.199167
0.189083
0.0324739
-0.221557
0.16955
0.0195337
0.16095
0.00859929
0.158247
0.0027033
0.158159
8.81298e-05
0.159007
-0.000848295
0.160018
-0.00101044
0.160867
-0.000849202
0.161435
-0.000567882
-0.000208373
0.237397
0.0959369
-0.30086
0.209073
0.0478572
0.197748
0.019924
0.194261
0.00619035
0.194099
0.00025099
0.195113
-0.00186326
0.196345
-0.00224146
0.197385
-0.00189007
0.19809
-0.00127284
-0.000472275
0.237572
0.156529
-0.298164
0.209866
0.0755629
0.199095
0.0306953
0.195992
0.00929369
0.196049
0.000194025
0.197178
-0.00299284
0.19847
-0.00353318
0.199544
-0.00296374
0.200267
-0.00199627
-0.00074302
0.232219
0.212756
-0.288446
0.206998
0.100785
0.197727
0.0399655
0.19544
0.0115811
0.195889
-0.000254599
0.197208
-0.00431189
0.19858
-0.00490525
0.199686
-0.00406975
0.200421
-0.00273125
-0.00101647
0.226489
-0.276462
0.2035
0.195893
0.194604
0.195601
0.197151
0.198623
0.199768
0.200517
0.0206504
-0.000749801
-0.0199006
0.0245428
-0.00389235
0.0322142
-0.00767146
0.0448399
-0.0126257
0.0636314
-0.0187914
0.0888069
-0.0251755
0.119602
-0.0307953
0.153102
-0.0335
0.189831
-0.0367288
-0.0317262
0.0563659
-0.0032055
-0.0539102
0.0664452
-0.0139717
0.0846417
-0.0258679
0.110883
-0.0388668
0.14342
-0.0513287
0.178872
-0.0606271
0.213809
-0.0657326
0.245403
-0.0650946
0.275184
-0.0665094
-0.0574018
0.0820909
-0.00700464
-0.0782918
0.0951042
-0.026985
0.116521
-0.0472846
0.143867
-0.066213
0.173298
-0.0807592
0.201564
-0.0888936
0.22742
-0.0915886
0.251445
-0.0891192
0.275645
-0.0907098
-0.0799207
0.097583
-0.0114604
-0.0931272
0.110778
-0.0401801
0.13079
-0.0672969
0.154347
-0.0897693
0.178385
-0.104798
0.201556
-0.112064
0.223661
-0.113694
0.245937
-0.111395
0.267825
-0.112597
-0.100542
0.105575
-0.100994
0.117881
0.135711
0.156294
0.177647
0.19885
0.219361
0.239599
0.255487
0.10108
-0.0903287
0.098918
-0.109669
0.0915916
-0.0930564
0.102545
0.0814436
-0.0961981
0.106346
0.0705027
-0.0993927
0.110334
0.0587744
-0.102716
0.114445
0.0463171
-0.106233
0.118691
0.0332142
-0.109791
0.122894
0.0197275
-0.111736
0.125223
0.00716068
-0.103184
0.115751
-0.0579812
0.0651418
0.105742
-0.0798446
-0.116226
0.0950069
-0.0823209
0.0836825
-0.0848737
0.0718243
-0.0875345
0.0594727
-0.0903648
0.0466323
-0.0933928
0.033314
-0.096473
0.0197254
-0.0981474
0.00713997
-0.0905985
-0.0508412
0.106658
-0.0687905
-0.117712
0.0954026
-0.0710657
0.0838055
-0.0732766
0.0718221
-0.0755511
0.0594169
-0.0779597
0.0465586
-0.0805344
0.0332406
-0.083155
0.0196624
-0.0845693
0.00709977
-0.0780358
-0.0437414
0.107904
-0.0575928
-0.119102
0.0964375
-0.0595993
0.0846285
-0.0614676
0.0724514
-0.063374
0.0598772
-0.0653855
0.0468765
-0.0675338
0.0334421
-0.0697206
0.0197707
-0.0708979
0.00713788
-0.065403
-0.0366035
0.108724
-0.0463415
-0.119976
0.0971394
-0.0480144
0.0852046
-0.0495328
0.0729083
-0.0510776
0.0602272
-0.0527044
0.0471326
-0.0544392
0.0336156
-0.0562035
0.0198696
-0.0571519
0.00717255
-0.052706
-0.029431
0.109272
-0.0350495
-0.120564
0.0976216
-0.0363639
0.0856181
-0.0375293
0.0732521
-0.0387117
0.0605026
-0.0399548
0.0473418
-0.0412785
0.0337607
-0.0426224
0.0199502
-0.0433414
0.00718869
-0.0399445
-0.0222423
0.109578
-0.0237373
-0.12089
0.0978901
-0.0246764
0.0858496
-0.0254888
0.0734468
-0.0263089
0.0606608
-0.0271688
0.0474646
-0.0280822
0.0338491
-0.0290069
0.0200041
-0.0294964
0.00720878
-0.0271491
-0.0150335
0.109658
-0.0124227
-0.120973
0.0979576
-0.0129757
0.0859052
-0.0134363
0.0734918
-0.0138955
0.0606963
-0.0143734
0.0474921
-0.014878
0.0338701
-0.015385
0.02002
-0.0156463
0.00721997
-0.0143491
-0.00781354
0.109514
-0.00113184
-0.120805
0.0978221
-0.00128382
0.0857807
-0.00139489
0.0733804
-0.00149532
0.0606004
-0.00159336
0.0474139
-0.0016915
0.0338124
-0.00178346
0.0199853
-0.00181917
0.00720819
-0.00157197
-0.000605353
0.109151
-0.120449
0.0974842
0.0854722
0.0731061
0.0603648
0.0472216
0.0336681
0.0198937
0.00717102
0.017877
-0.209341
-0.0212255
0.0143775
-0.213529
0.0109903
-0.216498
0.00769522
-0.219729
0.00444202
-0.223557
0.00120557
-0.228037
-0.00194899
-0.232485
-0.00380977
-0.23277
-0.00335554
-0.208797
-0.109766
0.0498392
-0.20216
-0.0570205
0.0422166
-0.205907
0.0348345
-0.209116
0.0277404
-0.212635
0.0208557
-0.216672
0.0141222
-0.221304
0.00774906
-0.226112
0.00210755
-0.227129
-0.00110152
-0.205587
-0.110867
0.0769591
-0.191142
-0.0879764
0.0658776
-0.194825
0.0552473
-0.198486
0.0450674