/*--------------------------------*- C++ -*----------------------------------*\
  =========                 |
  \\      /  F ield         | OpenFOAM: The Open Source CFD Toolbox
   \\    /   O peration     | Website:  https://openfoam.org
    \\  /    A nd           | Version:  13
     \\/     M anipulation  |
\*---------------------------------------------------------------------------*/
FoamFile
{
    format      ascii;
    class       volVectorField;
    location    "0.475";
    object      U;
}
// * * * * * * * * * * * * * * * * * * * * * * * * * * * * * * * * * * * * * //

dimensions      [0 1 -1 0 0 0 0];

internalField   nonuniform List<vector> 
1800
(
(0.0210677 -0.0263127 1.41742e-19)
(0.497637 -0.424033 6.55519e-20)
(0.992447 -0.81073 -3.8793e-19)
(1.2941 -1.01455 4.92915e-19)
(1.43124 -1.07291 1.2842e-18)
(1.47975 -1.05543 5.65065e-19)
(1.48919 -1.008 -2.95731e-19)
(1.48283 -0.952672 -7.4729e-19)
(1.47278 -0.892527 -3.97591e-19)
(1.44041 -0.841631 -3.2702e-19)
(0.045754 -0.0425418 5.9176e-20)
(0.599462 -0.432321 -3.23609e-19)
(1.14997 -0.79862 4.43547e-21)
(1.47358 -0.985368 -4.42578e-19)
(1.61212 -1.03411 1.18662e-19)
(1.65419 -1.01239 1.29571e-18)
(1.65596 -0.963378 -9.41777e-19)
(1.64359 -0.906857 4.82626e-19)
(1.6286 -0.847576 7.98032e-19)
(1.60608 -0.803704 -4.11572e-19)
(0.0777915 -0.058241 6.73587e-21)
(0.709088 -0.430154 9.68624e-20)
(1.3093 -0.767228 2.98955e-19)
(1.64867 -0.933009 -2.80917e-19)
(1.7842 -0.972281 -1.51509e-18)
(1.81687 -0.948821 3.46992e-19)
(1.80831 -0.902274 6.19371e-19)
(1.78622 -0.850542 -7.57045e-20)
(1.76194 -0.798118 -5.26513e-21)
(1.72984 -0.75663 -3.39586e-20)
(0.117156 -0.0715378 -1.05711e-20)
(0.824525 -0.414756 -1.11133e-19)
(1.46708 -0.714145 -2.54417e-19)
(1.8162 -0.855246 6.88743e-20)
(1.94594 -0.884287 3.93327e-19)
(1.96881 -0.859167 3.61992e-20)
(1.95085 -0.814819 -2.50652e-20)
(1.9207 -0.766466 5.69235e-19)
(1.88924 -0.71768 4.74672e-19)
(1.85375 -0.680899 -1.59878e-19)
(0.163542 -0.0810258 1.0868e-19)
(0.943231 -0.385465 1.72725e-19)
(1.61892 -0.640902 -7.97892e-20)
(1.97078 -0.755777 -9.3737e-20)
(2.09133 -0.775862 -1.18573e-18)
(2.10346 -0.751421 1.07095e-20)
(2.07633 -0.711965 9.63645e-19)
(2.03874 -0.66992 3.30259e-19)
(2.00086 -0.628332 2.15198e-20)
(1.96112 -0.596333 -2.10566e-19)
(0.215745 -0.0848066 -7.74271e-20)
(1.06144 -0.340503 2.43446e-19)
(1.76 -0.547073 1.00621e-18)
(2.10786 -0.635035 -7.81293e-19)
(2.21675 -0.64733 -8.61363e-19)
(2.21809 -0.624848 1.46808e-18)
(2.18265 -0.591181 -1.06442e-18)
(2.1386 -0.555939 -1.18547e-18)
(2.09529 -0.521403 8.57652e-19)
(2.05223 -0.495196 -3.01831e-20)
(0.272255 -0.0815199 8.18715e-20)
(1.17538 -0.279826 -5.75949e-19)
(1.88602 -0.434886 -2.67802e-18)
(2.22357 -0.496927 1.30298e-18)
(2.31895 -0.503606 2.1782e-18)
(2.30994 -0.484996 -6.40935e-21)
(2.26745 -0.458661 -2.87493e-18)
(2.21837 -0.431482 1.26489e-21)
(2.17101 -0.405091 2.59707e-18)
(2.12541 -0.385168 6.84343e-19)
(0.330803 -0.0699428 -2.21855e-22)
(1.28054 -0.2036 4.52122e-19)
(1.99242 -0.306345 2.07732e-18)
(2.31428 -0.344464 -6.92435e-20)
(2.39522 -0.34786 -1.40378e-18)
(2.37682 -0.334624 -4.42356e-19)
(2.32868 -0.31659 0)
(2.27589 -0.298145 1.00953e-18)
(2.22566 -0.280345 6.16136e-21)
(2.17841 -0.267328 -8.27449e-19)
(0.38877 -0.0494851 3.60315e-21)
(1.37272 -0.113242 9.62857e-19)
(2.07555 -0.164781 1.87361e-18)
(2.37762 -0.181928 -1.92738e-18)
(2.44413 -0.184547 -1.4357e-18)
(2.41773 -0.178004 4.49695e-19)
(2.36555 -0.16905 -1.89992e-18)
(2.31051 -0.159811 -1.30555e-18)
(2.25872 -0.150877 1.54619e-18)
(2.21072 -0.144986 1.31923e-18)
(0.443192 -0.0201921 1.09865e-19)
(1.44794 -0.0108704 6.58807e-19)
(2.13226 -0.0137826 3.52776e-19)
(2.41203 -0.0135341 -2.80686e-18)
(2.46479 -0.0176884 3.3133e-20)
(2.43211 -0.0187877 4.28242e-18)
(2.37753 -0.019361 -2.28492e-18)
(2.32165 -0.0195132 -1.27529e-18)
(2.26958 -0.0194451 4.21615e-19)
(2.2218 -0.02073 -9.57996e-19)
(-0.00402215 0.000763502 9.9116e-20)
(-0.00210831 -0.0802134 5.15876e-20)
(0.0391574 -0.166538 -1.5815e-21)
(0.0975914 -0.218946 -8.81689e-21)
(0.163009 -0.240669 -2.18318e-21)
(0.228082 -0.244689 -5.51224e-20)
(0.2893 -0.240497 1.1576e-20)
(0.34568 -0.23315 -1.30136e-20)
(0.396784 -0.225004 3.26359e-21)
(0.444909 -0.218313 -8.47539e-21)
(-0.00532842 0.010311 2.79056e-20)
(0.00981886 -0.119935 7.33884e-20)
(0.0657323 -0.264865 -9.97306e-20)
(0.13303 -0.353005 -4.50817e-20)
(0.201849 -0.388245 -7.89132e-20)
(0.26722 -0.392808 -9.29969e-20)
(0.327299 -0.383214 4.39712e-20)
(0.382016 -0.368285 -6.81722e-21)
(0.431183 -0.352216 -1.3031e-20)
(0.478294 -0.339951 -4.73425e-21)
(-0.00796745 0.018289 -4.47164e-20)
(0.0286434 -0.159727 1.69742e-19)
(0.108765 -0.360267 6.92592e-20)
(0.190759 -0.481792 2.62378e-19)
(0.265236 -0.529285 5.06279e-20)
(0.331123 -0.533899 -3.09781e-19)
(0.389346 -0.518851 -2.65989e-20)
(0.441344 -0.496505 1.1058e-19)
(0.487355 -0.472847 -5.5831e-20)
(0.53292 -0.455176 -1.4296e-20)
(-0.0113794 0.0240409 -1.18525e-19)
(0.0549149 -0.199321 -2.8265e-20)
(0.168231 -0.451069 3.2983e-20)
(0.270251 -0.602589 -1.39506e-19)
(0.352314 -0.660557 7.83629e-20)
(0.41876 -0.664565 2.00228e-19)
(0.47435 -0.64403 6.05691e-20)
(0.522572 -0.61453 -1.88327e-20)
(0.564279 -0.583766 2.27193e-20)
(0.607774 -0.560899 -2.95541e-21)
(-0.0147297 0.027024 0)
(0.0894262 -0.238433 9.05472e-20)
(0.243981 -0.535652 2.2327e-19)
(0.370629 -0.712758 -2.58402e-19)
(0.461774 -0.77894 -5.76138e-19)
(0.528615 -0.781562 2.03459e-19)
(0.580747 -0.755563 -3.04842e-20)
(0.62418 -0.719302 -1.05297e-19)
(0.660562 -0.682067 0)
(0.701487 -0.654218 -9.67404e-21)
(-0.0171849 0.0268751 4.19126e-20)
(0.132943 -0.276831 1.11788e-19)
(0.335739 -0.612422 2.46007e-20)
(0.490627 -0.80976 2.50127e-19)
(0.591763 -0.881493 -1.97461e-19)
(0.658589 -0.881898 -3.00257e-19)
(0.70641 -0.850576 5.39856e-19)
(0.744125 -0.808116 5.68573e-20)
(0.774371 -0.765186 -3.28002e-19)
(0.812184 -0.732485 -7.51969e-21)
(-0.017945 0.0229318 6.30063e-21)
(0.185837 -0.314081 5.41664e-20)
(0.443009 -0.679553 1.44962e-19)
(0.628492 -0.891101 2.80873e-20)
(0.739781 -0.965533 3.23754e-19)
(0.805873 -0.962983 -4.12936e-19)
(0.848502 -0.926692 -4.25451e-19)
(0.879672 -0.878862 -3.64974e-19)
(0.903242 -0.831134 2.67816e-19)
(0.937061 -0.793458 2.92722e-19)
(-0.015454 0.0149261 -1.30087e-19)
(0.248991 -0.349177 3.42575e-20)
(0.56463 -0.735222 3.11331e-19)
(0.78167 -0.95458 -1.79494e-19)
(0.902524 -1.02892 3.35128e-19)
(0.966887 -1.023 8.13148e-19)
(1.00345 -0.982543 5.76639e-19)
(1.02732 -0.930732 -4.5164e-19)
(1.04395 -0.879379 -2.16534e-19)
(1.07161 -0.83639 3.12316e-19)
(-0.00858084 0.00334332 -2.24155e-19)
(0.322428 -0.38069 -3.81075e-19)
(0.698446 -0.777382 6.04209e-19)
(0.946315 -0.998063 7.07782e-19)
(1.07523 -1.06973 -7.43472e-19)
(1.13648 -1.06042 8.48582e-19)
(1.16597 -1.01714 1.37905e-19)
(1.18167 -0.963512 -1.05482e-18)
(1.19107 -0.910098 -2.58752e-19)
(1.20758 -0.861906 3.48752e-19)
(0.00332959 -0.0107699 5.66206e-20)
(0.405334 -0.406427 -3.84304e-19)
(0.841492 -0.803435 -4.28885e-19)
(1.11774 -1.0189 7.39823e-19)
(1.25202 -1.08524 6.01631e-19)
(1.30782 -1.07224 -7.64872e-19)
(1.32812 -1.02701 -6.43338e-19)
(1.3336 -0.972997 3.85535e-19)
(1.33423 -0.917629 -4.0012e-19)
(1.33126 -0.865668 -2.4551e-19)
(0.624363 -0.177588 4.31731e-20)
(0.802571 -0.134317 -5.71928e-20)
(0.889544 -0.105334 5.95995e-21)
(0.940478 -0.082536 1.11792e-20)
(0.97004 -0.0640432 -5.65198e-21)
(0.987671 -0.0489088 -2.90812e-21)
(0.998605 -0.0364976 -4.66747e-21)
(1.00553 -0.0261554 -3.08541e-21)
(1.00971 -0.018053 7.90898e-21)
(1.01253 -0.00755871 2.91112e-21)
(0.642076 -0.253286 1.14793e-19)
(0.814898 -0.17356 1.18722e-20)
(0.898001 -0.126516 3.98921e-21)
(0.946918 -0.0944612 -5.72269e-21)
(0.97515 -0.0710407 -1.46369e-20)
(0.991782 -0.0531096 0)
(1.00194 -0.0390683 -4.87194e-21)
(1.00827 -0.0277327 3.82292e-21)
(1.01206 -0.0190239 4.68895e-22)
(1.01453 -0.00794305 -3.60824e-21)
(0.67034 -0.326182 -7.90075e-20)
(0.832693 -0.212157 -3.39789e-20)
(0.909245 -0.147505 1.46464e-20)
(0.954768 -0.106276 -8.50558e-21)
(0.981035 -0.0779342 -3.74247e-21)
(0.996349 -0.0572092 6.01508e-21)
(1.00555 -0.0415424 0)
(1.01118 -0.0292263 0)
(1.01452 -0.0199256 -2.22714e-21)
(1.01661 -0.00829487 0)
(0.709218 -0.394753 -3.64291e-20)
(0.855632 -0.249584 7.02385e-20)
(0.923259 -0.168082 7.58276e-21)
(0.964033 -0.117865 0)
(0.987691 -0.0846538 2.00725e-20)
(1.00136 -0.0611646 -3.29426e-21)
(1.00943 -0.0438928 0)
(1.01426 -0.0306187 4.40713e-21)
(1.01708 -0.0207471 0)
(1.01877 -0.00861022 6.80264e-22)
(0.758763 -0.457503 -4.02095e-20)
(0.883317 -0.285329 9.52853e-20)
(0.939998 -0.188034 -4.06359e-21)
(0.974713 -0.129119 0)
(0.995113 -0.0911325 4.22135e-21)
(1.00682 -0.064934 6.47798e-21)
(1.01357 -0.0460927 5.86045e-21)
(1.0175 -0.0318916 1.0705e-21)
(1.01974 -0.0214774 -2.25068e-21)
(1.02099 -0.00888529 2.64868e-21)
(0.818733 -0.512955 -7.33502e-19)
(0.915242 -0.318996 -1.81937e-19)
(0.959352 -0.207214 1.56579e-21)
(0.986796 -0.139944 2.92045e-20)
(1.00329 -0.097311 -6.59964e-21)
(1.01269 -0.0684776 4.75722e-21)
(1.01794 -0.0481154 5.05857e-21)
(1.02087 -0.0330278 -9.48419e-21)
(1.02249 -0.0221057 -2.05728e-22)
(1.02328 -0.00911558 -1.42651e-23)
(0.888086 -0.559308 -4.94997e-21)
(0.950383 -0.349792 7.14209e-20)
(0.981006 -0.225477 2.67395e-21)
(1.00022 -0.150285 -8.45821e-22)
(1.01219 -0.103151 -2.27257e-20)
(1.01896 -0.0717643 5.26852e-21)
(1.02254 -0.0499382 -3.49288e-21)
(1.02437 -0.0340107 -4.21406e-21)
(1.0253 -0.0226205 1.15658e-21)
(1.02559 -0.00929587 -1.83192e-21)
(0.965742 -0.595029 2.86842e-19)
(0.986787 -0.376458 8.76314e-20)
(1.00378 -0.242155 0)
(1.01459 -0.159838 -4.67413e-22)
(1.02167 -0.108514 1.84427e-20)
(1.02557 -0.0747289 1.14776e-21)
(1.02732 -0.0515295 -1.5436e-20)
(1.02795 -0.0348231 4.39378e-21)
(1.02814 -0.0230117 -4.42066e-23)
(1.02794 -0.00942295 -3.73042e-22)
(1.05536 -0.623444 -4.23721e-19)
(1.02535 -0.401292 -2.37583e-19)
(1.02651 -0.258247 5.35627e-20)
(1.02899 -0.168889 -2.81806e-22)
(1.0312 -0.113406 -2.276e-21)
(1.03225 -0.0773146 -1.46952e-20)
(1.03217 -0.0528402 3.98391e-21)
(1.03159 -0.035435 5.20603e-22)
(1.03101 -0.0232632 -3.1605e-21)
(1.03028 -0.00949459 -2.61854e-21)
(1.16102 -0.649095 2.97675e-19)
(1.07601 -0.425617 -2.34864e-19)
(1.05296 -0.276857 -4.03657e-20)
(1.04427 -0.180283 -4.25413e-20)
(1.04086 -0.119645 -2.31695e-20)
(1.0389 -0.0805124 -1.14279e-20)
(1.037 -0.0543614 -5.5906e-21)
(1.03521 -0.0360653 0)
(1.03385 -0.0234666 -5.09123e-22)
(1.03263 -0.00952181 2.17983e-21)
(1.31861 -0.634353 4.70211e-19)
(1.17931 -0.425474 1.54954e-19)
(1.11249 -0.278667 -1.22495e-19)
(1.07836 -0.182139 7.73901e-21)
(1.06072 -0.120726 9.17051e-21)
(1.05104 -0.0808883 -5.2884e-21)
(1.04483 -0.0542965 1.99693e-22)
(1.04051 -0.0358024 4.60048e-21)
(1.03772 -0.0231628 -3.17279e-21)
(1.03566 -0.00937789 3.60721e-24)
(1.36916 -0.518777 -7.17232e-21)
(1.21045 -0.361208 1.46042e-19)
(1.13964 -0.246363 1.2359e-19)
(1.10039 -0.166248 -1.4931e-20)
(1.07676 -0.112256 5.73363e-20)
(1.06229 -0.0759406 3.67904e-20)
(1.05273 -0.0511983 2.50416e-20)
(1.04619 -0.0338227 -2.47473e-21)
(1.04199 -0.0219067 8.77157e-21)
(1.03906 -0.00886182 3.83842e-21)
(1.427 -0.446401 -1.44727e-19)
(1.26174 -0.32429 -1.18667e-20)
(1.17606 -0.225928 6.40209e-21)
(1.12526 -0.154134 5.95587e-37)
(1.09343 -0.104532 6.82301e-22)
(1.07354 -0.0708145 -1.02107e-34)
(1.06046 -0.0477274 -2.87177e-21)
(1.05164 -0.0314928 -2.09848e-34)
(1.04609 -0.0203763 8.33135e-22)
(1.04225 -0.00823808 -2.4643e-21)
(1.46313 -0.365404 -2.20249e-34)
(1.29728 -0.274639 -4.02613e-20)
(1.20454 -0.196579 -4.31521e-20)
(1.14627 -0.136734 0)
(1.10816 -0.0937012 -2.48414e-20)
(1.08369 -0.0637935 -1.67874e-20)
(1.06752 -0.0430763 -9.7541e-21)
(1.05665 -0.0284342 -2.54404e-34)
(1.04984 -0.0183996 -3.01713e-21)
(1.04514 -0.00743855 2.32955e-21)
(1.48564 -0.294049 -8.89136e-20)
(1.32444 -0.227666 4.77136e-21)
(1.22772 -0.166296 0)
(1.16398 -0.117373 0)
(1.12091 -0.0811166 0)
(1.09259 -0.0554683 0)
(1.07375 -0.0375288 -5.50633e-22)
(1.06109 -0.0247874 -2.83925e-34)
(1.05316 -0.0160473 7.29995e-22)
(1.04771 -0.00648978 2.77816e-34)
(1.49954 -0.228214 -3.39744e-20)
(1.34454 -0.181074 0)
(1.24585 -0.134611 0)
(1.17834 -0.0962557 0)
(1.13149 -0.0670438 0)
(1.10009 -0.0460377 0)
(1.07905 -0.0312134 9.08524e-22)
(1.06488 -0.0206325 5.95693e-21)
(1.056 -0.0133671 6.83355e-22)
(1.0499 -0.00540919 3.1795e-21)
(1.50758 -0.167567 0)
(1.35876 -0.13565 -1.17482e-20)
(1.25938 -0.10231 -1.66404e-20)
(1.18936 -0.0739687 0)
(1.13979 -0.0518722 -1.14366e-20)
(1.10606 -0.0357544 -8.09981e-21)
(1.08327 -0.0242902 -4.67075e-21)
(1.0679 -0.0160719 -3.47726e-21)
(1.05827 -0.010421 4.60326e-21)
(1.05161 -0.00422055 1.27429e-21)
(1.51058 -0.111417 9.22171e-21)
(1.36664 -0.0908251 7.04132e-21)
(1.26742 -0.0690226 -4.18205e-21)
(1.1961 -0.0503022 2.50681e-36)
(1.14487 -0.0354517 7.75672e-22)
(1.10959 -0.0245077 -6.20258e-35)
(1.08564 -0.0166778 6.61689e-22)
(1.06944 -0.0110451 2.97764e-21)
(1.05927 -0.00716066 5.60123e-22)
(1.05222 -0.00289618 -1.86185e-21)
(1.4868 -0.053527 -4.56113e-20)
(1.34557 -0.0485774 1.01013e-20)
(1.24898 -0.0382873 1.14843e-20)
(1.17929 -0.0283841 0)
(1.12886 -0.0201497 7.20526e-21)
(1.09392 -0.0139799 5.10083e-21)
(1.07009 -0.00953378 4.01345e-21)
(1.05397 -0.00632314 2.22782e-21)
(1.04385 -0.00409829 -2.08579e-21)
(1.03682 -0.00165371 2.26415e-21)
(1.08735 -0.00152724 0)
(1.00268 -0.00596247 0)
(0.938526 -0.00573012 0)
(0.889577 -0.00449164 0)
(0.853312 -0.00323887 0)
(0.827978 -0.00227058 0)
(0.810612 -0.00156022 5.0772e-22)
(0.798803 -0.00104626 -3.45705e-36)
(0.791368 -0.000664692 5.56188e-22)
(0.786274 -0.00025642 1.71245e-21)
(2.13708 -0.0204491 8.90831e-19)
(2.12833 -0.12709 6.16001e-20)
(2.10188 -0.231889 -1.31948e-19)
(2.05766 -0.332581 -3.53122e-19)
(1.99798 -0.426964 -1.22003e-19)
(1.92029 -0.515232 -1.82682e-19)
(1.83796 -0.586269 -4.39421e-19)
(1.72326 -0.665034 1.40149e-19)
(1.6449 -0.686459 0)
(1.47962 -0.770246 4.5592e-20)
(2.05083 -0.0142125 2.25056e-19)
(2.04394 -0.0942391 -3.44439e-19)
(2.02402 -0.173317 -5.19047e-21)
(1.98871 -0.250751 -1.39817e-19)
(1.94555 -0.322653 2.29211e-20)
(1.88127 -0.397013 1.28706e-19)
(1.82625 -0.44607 1.4661e-20)
(1.72979 -0.529343 9.6638e-20)
(1.67669 -0.531397 -1.18372e-19)
(1.56225 -0.623321 2.63058e-20)
(1.97642 -0.0107393 -1.16599e-19)
(1.97107 -0.0744209 2.14224e-19)
(1.95579 -0.137012 1.92985e-19)
(1.92708 -0.198916 -2.31203e-19)
(1.89398 -0.254789 1.01849e-19)
(1.84133 -0.316823 1.28511e-19)
(1.79893 -0.351956 -6.42147e-20)
(1.72368 -0.426776 7.63997e-20)
(1.67604 -0.425286 7.81259e-20)
(1.59298 -0.507286 1.01126e-19)
(1.91954 -0.0107225 -1.97642e-19)
(1.91524 -0.0594364 4.69746e-20)
(1.90255 -0.107273 -1.07725e-19)
(1.87866 -0.155408 -6.61341e-20)
(1.85098 -0.198354 2.53759e-20)
(1.80807 -0.248317 -1.06253e-19)
(1.7713 -0.2752 8.52423e-20)
(1.71307 -0.336862 2.91757e-20)
(1.6692 -0.33649 -1.41535e-20)
(1.60674 -0.403758 9.48885e-21)
(1.87508 -0.00949604 5.48152e-20)
(1.87157 -0.0466241 4.96584e-20)
(1.86062 -0.082982 -6.31281e-20)
(1.84049 -0.11979 2.31051e-19)
(1.8161 -0.152498 1.40694e-20)
(1.78069 -0.191082 -1.39607e-19)
(1.74727 -0.212155 2.11976e-20)
(1.70078 -0.259776 -8.8788e-20)
(1.66056 -0.261334 1.15613e-19)
(1.61078 -0.313295 8.41334e-20)
(1.84143 -0.00969094 -1.0544e-19)
(1.8386 -0.0368437 -5.86465e-20)
(1.82884 -0.0634151 3.53295e-20)
(1.81139 -0.0904326 8.1169e-20)
(1.7891 -0.11461 4.27615e-20)
(1.75886 -0.143152 -4.11907e-20)
(1.72765 -0.159547 3.25193e-21)
(1.68856 -0.194741 5.42774e-20)
(1.65141 -0.197674 1.02919e-19)
(1.6092 -0.236351 -5.515e-20)
(1.81681 -0.0103466 -4.34247e-20)
(1.81458 -0.0288804 -8.03527e-20)
(1.80576 -0.0469897 -5.22728e-20)
(1.79021 -0.0654862 -1.0413e-19)
(1.76942 -0.0822287 -2.04652e-20)
(1.74254 -0.102049 -4.63207e-21)
(1.7129 -0.114019 4.75685e-20)
(1.67827 -0.138734 -1.62586e-20)
(1.64349 -0.141941 -3.34309e-20)
(1.60548 -0.169559 1.03127e-20)
(1.7947 -0.0102252 3.56759e-20)
(1.79375 -0.0211298 3.40691e-20)
(1.78641 -0.0316892 1.26149e-20)
(1.77304 -0.0425201 -2.2186e-20)
(1.75415 -0.0524764 -1.79987e-20)
(1.73017 -0.0646918 3.52225e-20)
(1.70222 -0.0723085 -1.84653e-21)
(1.67049 -0.0886737 -4.74132e-20)
(1.63755 -0.0910735 1.09711e-20)
(1.60175 -0.111038 5.09358e-20)
(1.71174 -0.0156601 -2.72397e-20)
(1.71203 -0.018022 3.94864e-21)
(1.7088 -0.019901 4.17311e-20)
(1.70172 -0.0218362 3.04075e-21)
(1.69034 -0.0232419 -2.76534e-21)
(1.67545 -0.026484 -6.11635e-21)
(1.65582 -0.0269743 1.8978e-20)
(1.63419 -0.0343621 -2.9022e-20)
(1.60662 -0.0330967 3.68594e-20)
(1.5822 -0.044527 1.20814e-19)
(1.10382 -0.00939177 3.02909e-20)
(1.09464 -0.00639905 1.95548e-20)
(1.08869 -0.00338013 1.55868e-20)
(1.08635 -0.000437552 1.68799e-20)
(1.08669 0.00242103 -2.68458e-21)
(1.09073 0.00477367 6.20845e-21)
(1.09391 0.00747576 -9.08282e-21)
(1.10378 0.00752487 2.0773e-21)
(1.10188 0.0111657 -3.36451e-21)
(1.11919 0.00718065 3.71989e-21)
(1.38213 0.748057 -5.68534e-20)
(1.36759 0.794562 2.50014e-20)
(1.37137 0.85154 -4.46901e-19)
(1.38119 0.916259 2.16662e-19)
(1.39154 0.98455 8.69854e-19)
(1.3972 1.05269 -1.37169e-19)
(1.37933 1.10551 -8.49939e-19)
(1.27856 1.08666 -4.33551e-20)
(0.984266 0.877698 -4.16225e-19)
(0.422864 0.3836 1.54454e-19)
(1.55698 0.726165 0)
(1.54725 0.772755 5.39234e-19)
(1.54509 0.82518 1.21344e-18)
(1.55086 0.886334 -7.38904e-19)
(1.56181 0.952998 -1.78941e-18)
(1.57087 1.02069 -1.39897e-19)
(1.55466 1.07327 -1.7878e-19)
(1.4436 1.05417 6.45909e-19)
(1.10981 0.847985 8.4843e-19)
(0.472853 0.365568 3.80407e-19)
(1.69696 0.705642 6.17156e-20)
(1.70047 0.750344 0)
(1.70436 0.798112 -6.47204e-20)
(1.71368 0.853434 7.66761e-19)
(1.72829 0.914793 5.23782e-20)
(1.74133 0.978016 -1.88227e-18)
(1.72618 1.0267 1.19452e-18)
(1.6036 1.0051 7.57384e-19)
(1.2292 0.803938 -7.73999e-19)
(0.518052 0.340291 -2.81061e-19)
(1.8086 0.670809 -1.3467e-19)
(1.82485 0.711573 -1.02747e-19)
(1.83981 0.754826 2.29112e-19)
(1.85818 0.804552 -2.86581e-19)
(1.88047 0.86009 -1.37179e-18)
(1.89978 0.917623 -1.06552e-18)
(1.88621 0.960814 1.16634e-18)
(1.75124 0.935328 7.58268e-19)
(1.33511 0.742209 0)
(0.553351 0.305987 0)
(1.9045 0.614316 -8.03465e-19)
(1.93069 0.650813 -1.4238e-18)
(1.95646 0.689941 -5.59163e-19)
(1.98505 0.73453 -3.36143e-20)
(2.01645 0.784173 0)
(2.04287 0.835375 1.41902e-19)
(2.03045 0.872285 1.69419e-19)
(1.88135 0.842423 2.16795e-19)
(1.42215 0.661165 -3.26539e-19)
(0.575859 0.263074 -8.20516e-20)
(1.99118 0.537098 9.79809e-19)
(2.0245 0.569301 -4.2143e-20)
(2.05896 0.604176 -1.15455e-18)
(2.09652 0.643476 0)
(2.13629 0.686813 0)
(2.16895 0.730998 0)
(2.15595 0.761246 1.49071e-18)
(1.99044 0.728239 -1.76749e-18)
(1.48642 0.562735 -1.09459e-18)
(0.584291 0.213629 -5.40905e-20)
(2.06838 0.443525 -1.31568e-18)
(2.10675 0.470975 -2.75476e-18)
(2.14775 0.500776 -4.82631e-21)
(2.19237 0.534006 5.68398e-19)
(2.23885 0.570266 -4.11917e-20)
(2.27594 0.606704 1.29926e-18)
(2.2606 0.629025 -7.5601e-19)
(2.07484 0.596929 -2.21202e-18)
(1.52668 0.453972 1.78323e-19)
(0.578984 0.16115 1.27804e-19)
(2.13282 0.337856 -1.0639e-18)
(2.17497 0.359677 1.62073e-20)
(2.2208 0.38328 4.15109e-19)
(2.27066 0.40941 -4.08516e-19)
(2.32195 0.437644 6.46463e-19)
(2.36145 0.465097 1.86174e-18)
(2.34025 0.48127 -2.25287e-19)
(2.13127 0.453253 -1.26083e-18)
(1.54309 0.337984 2.95059e-19)
(0.560651 0.109281 4.55913e-20)
(2.18117 0.223388 4.0946e-19)
(2.22615 0.238805 8.16231e-20)
(2.27541 0.255223 -4.41574e-19)
(2.32884 0.273353 -1.05393e-18)
(2.38305 0.292723 9.31456e-20)
(2.42244 0.311598 9.55556e-20)
(2.39281 0.322606 -1.68769e-18)
(2.16011 0.299585 7.14109e-19)
(1.53524 0.218654 2.09608e-19)
(0.530936 0.0609012 -1.66753e-19)
(2.21139 0.102855 8.07135e-19)
(2.2582 0.111139 -1.23954e-18)
(2.30949 0.119644 1.89012e-19)
(2.36489 0.129112 2.63374e-18)
(2.42018 0.139286 1.37731e-18)
(2.45724 0.148777 -3.19617e-18)
(2.41716 0.156138 -3.33185e-18)
(2.16059 0.142586 1.63773e-18)
(1.50295 0.10083 5.47017e-21)
(0.491325 0.0170956 5.18052e-20)
(0.511884 0.208365 -1.61984e-19)
(0.474509 0.215625 -1.48255e-19)
(0.430934 0.223569 8.05528e-20)
(0.382837 0.232083 -2.60526e-19)
(0.329872 0.241179 -3.15794e-20)
(0.271355 0.25064 2.18257e-19)
(0.206415 0.258303 5.14172e-20)
(0.134871 0.254504 -2.17166e-20)
(0.0636706 0.21467 4.28305e-21)
(0.0104447 0.106301 1.45119e-20)
(0.539929 0.308366 1.30973e-19)
(0.503419 0.322462 1.82095e-19)
(0.461243 0.338189 3.4807e-20)
(0.414714 0.355056 -6.93405e-20)
(0.363431 0.373 -2.4694e-19)
(0.306716 0.39165 4.48222e-21)
(0.243314 0.407248 1.1602e-19)
(0.1714 0.403165 1.53458e-20)
(0.0944733 0.338509 -6.88717e-20)
(0.0257126 0.164526 -2.29257e-20)
(0.585209 0.404316 -1.32821e-19)
(0.550227 0.424986 -1.36254e-19)
(0.510467 0.448084 1.21732e-19)
(0.466602 0.472871 1.03622e-19)
(0.418143 0.49922 -6.20548e-20)
(0.364417 0.52659 -7.43512e-20)
(0.303513 0.549634 -8.49892e-20)
(0.230826 0.545001 -1.70452e-20)
(0.14415 0.456133 -4.18671e-20)
(0.0498684 0.21927 3.37757e-21)
(0.646626 0.494162 6.42213e-20)
(0.613802 0.521016 -2.14164e-20)
(0.577407 0.550865 -1.02423e-19)
(0.537248 0.582925 2.74421e-20)
(0.492703 0.617034 -7.59563e-20)
(0.443092 0.652447 1.88409e-20)
(0.385595 0.682252 -1.66744e-19)
(0.311734 0.67672 -8.29005e-21)
(0.211346 0.564686 -2.27877e-19)
(0.0820651 0.26898 4.67556e-20)
(0.722573 0.575961 -1.51247e-20)
(0.692511 0.608511 -2.04019e-21)
(0.660423 0.644362 -4.23821e-20)
(0.625031 0.682906 -1.79749e-19)
(0.585511 0.723974 8.06015e-20)
(0.541128 0.766581 -3.87337e-20)
(0.48787 0.802293 1.08146e-19)
(0.412437 0.795427 -5.56399e-20)
(0.294394 0.661625 2.87088e-19)
(0.121302 0.312343 2.14405e-19)
(0.811032 0.648107 -2.87722e-20)
(0.78414 0.685492 -9.46472e-20)
(0.757024 0.726135 1.10685e-19)
(0.727188 0.770014 8.70486e-20)
(0.693618 0.817002 2.34097e-19)
(0.655486 0.865777 1.43229e-19)
(0.607251 0.906364 4.397e-19)
(0.529838 0.897599 1.95663e-19)
(0.390636 0.743703 1.65607e-19)
(0.166142 0.347623 1.90457e-19)
(0.909965 0.708011 -9.37035e-20)
(0.88759 0.749683 3.54395e-19)
(0.867056 0.794283 2.1829e-19)
(0.844215 0.842452 -2.5375e-19)
(0.817689 0.894186 -1.33582e-19)
(0.786551 0.947927 4.90311e-19)
(0.743573 0.992338 -9.44117e-20)
(0.663151 0.981395 -3.06863e-19)
(0.498875 0.80966 -5.90378e-20)
(0.215603 0.374265 1.99494e-19)
(1.01008 0.757085 1.91644e-19)
(0.9908 0.800697 5.25289e-20)
(0.97688 0.847137 -5.71424e-19)
(0.962373 0.898311 7.76908e-20)
(0.945136 0.953799 3.78191e-19)
(0.923511 1.01131 -2.54472e-19)
(0.887782 1.05803 -6.20926e-20)
(0.804789 1.04381 -1.3373e-19)
(0.613161 0.856253 1.28609e-20)
(0.266693 0.390558 -2.86849e-19)
(1.13068 0.779534 2.08522e-20)
(1.12038 0.826192 -3.95708e-19)
(1.11447 0.873653 -3.14183e-21)
(1.1063 0.926581 3.26723e-19)
(1.09512 0.985248 -3.29987e-19)
(1.07987 1.04667 6.77402e-19)
(1.04861 1.0965 4.76548e-19)
(0.959886 1.08109 -7.31824e-19)
(0.736014 0.882941 -3.64573e-20)
(0.319874 0.397455 -2.87004e-19)
(1.20106 0.793829 -2.28686e-19)
(1.20462 0.843037 -2.24009e-19)
(1.21929 0.893598 2.38045e-19)
(1.23003 0.948723 5.45839e-19)
(1.23477 1.00819 2.15564e-19)
(1.2326 1.06958 -5.68257e-19)
(1.20966 1.11832 4.28884e-20)
(1.11643 1.09875 1.59364e-19)
(0.859164 0.891448 -2.0317e-19)
(0.371916 0.395235 -2.03832e-19)
(0.824106 0.0216181 3.7134e-21)
(1.15815 0.0427386 -1.64447e-20)
(0.916598 0.0497357 -1.44314e-20)
(1.03999 0.0526745 0)
(0.988133 0.060382 1.64871e-20)
(0.973242 0.0712203 2.18965e-20)
(0.950078 0.0863978 2.79916e-20)
(0.89914 0.106416 5.72608e-20)
(0.830199 0.134948 -8.26621e-20)
(0.663198 0.171671 -1.05253e-19)
(0.823559 0.0184274 3.27593e-20)
(1.15798 0.0425901 -5.21371e-20)
(0.917018 0.0516773 1.55871e-22)
(1.0417 0.0542925 -1.32165e-20)
(0.990781 0.0644208 8.97475e-21)
(0.977286 0.0774705 -1.1219e-20)
(0.955415 0.0975411 -6.95118e-20)
(0.907443 0.123905 0)
(0.83988 0.172754 1.78848e-19)
(0.685679 0.236041 -2.19566e-19)
(0.822779 0.0154256 -2.96958e-20)
(1.15802 0.04231 1.67469e-20)
(0.917365 0.0533642 3.2943e-20)
(1.04391 0.055675 1.22785e-20)
(0.993759 0.0682143 -2.18285e-20)
(0.9821 0.0835198 1.04833e-22)
(0.961774 0.108391 -4.93394e-20)
(0.918704 0.141315 -4.09559e-21)
(0.853131 0.209494 1.03154e-22)
(0.721054 0.298617 5.89245e-19)
(0.821763 0.0126832 -2.26787e-20)
(1.15822 0.0418883 -1.3503e-21)
(0.917652 0.054746 2.4741e-20)
(1.04662 0.0568222 1.6598e-20)
(0.997081 0.0717284 -9.47006e-21)
(0.987674 0.0893196 -1.28488e-20)
(0.969254 0.118824 7.38855e-20)
(0.932719 0.158557 -1.16659e-21)
(0.870224 0.24458 -2.17545e-19)
(0.768698 0.358405 7.01609e-20)
(0.820506 0.0102304 1.61461e-20)
(1.1585 0.0412964 -2.91875e-20)
(0.917904 0.0557706 -1.81446e-20)
(1.04981 0.0577387 8.81565e-21)
(1.00075 0.0749298 0)
(0.993984 0.0948212 0)
(0.977969 0.128736 6.32396e-20)
(0.949223 0.175578 1.18242e-22)
(0.891514 0.277415 -1.04381e-19)
(0.827739 0.414469 8.35845e-20)
(0.819008 0.00812471 3.80781e-21)
(1.15878 0.0405023 2.05853e-20)
(0.918149 0.0563853 -4.58537e-20)
(1.05349 0.0584348 -2.73062e-20)
(1.00476 0.0777856 6.88676e-22)
(1.00101 0.0999793 5.24157e-20)
(0.988031 0.138057 9.9369e-20)
(0.967917 0.192308 -7.51377e-22)
(0.917425 0.307193 1.82338e-19)
(0.897243 0.46723 -1.91182e-19)
(0.817267 0.00643494 -2.07411e-20)
(1.15896 0.0394695 1.36105e-20)
(0.918435 0.0565381 -1.2161e-20)
(1.05766 0.0589286 -5.02552e-20)
(1.00911 0.0802625 -1.35304e-21)
(1.00874 0.104762 -8.56104e-22)
(0.999533 0.146755 -6.2992e-21)
(0.988415 0.2086 -1.815e-19)
(0.948719 0.332399 1.40273e-19)
(0.974513 0.514119 -4.60114e-19)
(0.815278 0.00522002 -6.28283e-22)
(1.15898 0.0381396 -2.9306e-20)
(0.918819 0.0561897 2.36827e-20)
(1.06228 0.0592451 3.25942e-20)
(1.01376 0.082314 -4.3045e-22)
(1.01718 0.109137 -6.21333e-20)
(1.01252 0.15487 -5.56059e-20)
(1.01041 0.2248 3.30875e-19)
(0.98601 0.355578 1.33356e-20)
(1.05892 0.565311 7.28894e-19)
(0.813032 0.00448366 9.82306e-21)
(1.15885 0.0363725 1.11311e-20)
(0.919377 0.0552908 3.0267e-20)
(1.06734 0.0593984 -3.34951e-20)
(1.01866 0.0838295 -5.94043e-20)
(1.02624 0.112807 1.55793e-21)
(1.02685 0.161334 -7.69155e-20)
(1.03409 0.236891 4.34572e-19)
(1.03288 0.365768 -8.06886e-21)
(1.14028 0.590439 -1.00133e-18)
(0.81055 0.0046954 1.56305e-21)
(1.15955 0.0344003 1.34202e-20)
(0.919932 0.0539784 9.06946e-21)
(1.07285 0.0597058 -6.78445e-20)
(1.0235 0.0855619 -5.87356e-20)
(1.03475 0.11775 -5.20513e-20)
(1.03929 0.171408 -1.37678e-19)
(1.05231 0.256789 -4.00978e-19)
(1.0733 0.393808 -2.44421e-19)
(1.23359 0.658095 -1.04561e-18)
(0.808149 0.00438446 -4.39427e-21)
(1.16276 0.0310983 -2.69678e-21)
(0.921407 0.0510285 -9.98049e-21)
(1.07981 0.0583646 1.31186e-20)
(1.03256 0.0843686 4.774e-20)
(1.05019 0.117634 -3.67607e-20)
(1.06422 0.171372 1.22353e-19)
(1.09132 0.254515 -3.98596e-19)
(1.14436 0.373611 -1.7369e-19)
(1.23645 0.642542 5.78106e-19)
(0.808693 0.00175914 3.40725e-21)
(1.167 0.0266145 8.44323e-21)
(0.925817 0.0455973 -7.21683e-21)
(1.08589 0.0544874 4.07551e-20)
(1.04328 0.0793358 7.48006e-20)
(1.06592 0.111255 1.07309e-19)
(1.08833 0.161029 2.63056e-20)
(1.12961 0.235404 2.10008e-19)
(1.19597 0.341425 2.57879e-19)
(1.31636 0.537785 3.52025e-21)
(0.808953 -0.00146607 -4.60814e-21)
(1.17177 0.0217923 3.51085e-22)
(0.930683 0.0399487 3.91344e-21)
(1.09206 0.0497679 1.0368e-20)
(1.0537 0.073117 2.07632e-34)
(1.08077 0.103035 -7.97591e-21)
(1.11015 0.148058 -5.23677e-34)
(1.16302 0.213577 1.85044e-20)
(1.23347 0.300158 -5.42128e-20)
(1.38217 0.46212 -4.96509e-20)
(0.80928 -0.00586806 1.74452e-20)
(1.17672 0.0162809 -1.20796e-36)
(0.935653 0.0338219 -4.27577e-21)
(1.09802 0.0441041 -1.62838e-20)
(1.06336 0.0654688 -3.00519e-20)
(1.09419 0.0926758 -3.61873e-20)
(1.12937 0.132136 -6.46911e-34)
(1.19086 0.188748 -9.1221e-20)
(1.2635 0.257119 -1.24599e-19)
(1.4268 0.38528 8.84951e-20)
(0.809781 -0.0114905 0)
(1.18205 0.0101361 -1.75133e-35)
(0.940666 0.0273898 0)
(1.10362 0.0376567 0)
(1.07202 0.0566484 0)
(1.10593 0.0805632 0)
(1.14584 0.114002 -3.85034e-34)
(1.2132 0.161595 0)
(1.28801 0.213474 -2.03425e-20)
(1.4532 0.312741 5.30557e-20)
(0.810548 -0.0181331 5.60651e-21)
(1.18807 0.00352711 -1.89775e-21)
(0.945741 0.0208956 -5.10418e-21)
(1.10872 0.0306202 0)
(1.07955 0.0468996 0)
(1.11582 0.0670715 6.7002e-21)
(1.1595 0.0942785 2.68939e-20)
(1.23052 0.132759 -1.35753e-20)
(1.30741 0.170718 -2.98706e-20)
(1.46752 0.2447 2.02351e-19)
(0.811667 -0.0277899 -6.20794e-20)
(1.195 -0.00402009 4.0865e-21)
(0.950847 0.0144393 -5.36451e-21)
(1.11316 0.0232034 -5.63438e-21)
(1.08576 0.0364599 -1.07592e-20)
(1.12379 0.0525472 -8.29045e-21)
(1.17029 0.0734558 -2.042e-20)
(1.24342 0.102863 -3.77457e-20)
(1.32194 0.12942 -5.20965e-20)
(1.47464 0.18135 7.02431e-20)
(0.81321 -0.0333715 -9.05954e-21)
(1.20338 -0.010755 -6.16875e-21)
(0.955703 0.00970106 -5.7303e-21)
(1.11627 0.0154667 -8.48231e-21)
(1.09006 0.0253586 2.03071e-35)
(1.12929 0.0370422 7.21607e-21)
(1.1778 0.0515074 -9.35224e-34)
(1.25214 0.0717697 -1.37237e-20)
(1.33164 0.0887747 1.8438e-20)
(1.47802 0.12014 2.56832e-20)
(0.810775 -0.0584783 1.5145e-19)
(1.19506 -0.0222278 -9.19304e-21)
(0.945211 0.00271287 -6.02674e-21)
(1.10331 0.00900904 4.26152e-21)
(1.07814 0.0145827 3.07931e-21)
(1.11815 0.0221667 1.37996e-20)
(1.16803 0.030638 7.81408e-21)
(1.24316 0.0426651 -4.81415e-21)
(1.32246 0.0515926 -2.00981e-20)
(1.46752 0.0675863 1.38103e-19)
(0.729928 -0.0382213 9.53228e-21)
(0.945352 -0.0187555 -4.8597e-35)
(0.710783 0.00278019 -6.93664e-21)
(0.854923 0.000182682 0)
(0.822283 0.00286997 0)
(0.857467 0.00444482 7.46074e-21)
(0.899526 0.00601964 -8.93038e-36)
(0.961562 0.00868479 -1.36728e-20)
(1.02851 0.00998728 -2.6786e-20)
(1.13906 0.0126516 5.55874e-20)
(1.47444 0.637249 -1.81095e-19)
(1.5843 0.619461 -2.68554e-19)
(1.68458 0.606603 0)
(1.77219 0.581551 1.17452e-19)
(1.85298 0.534479 5.48899e-19)
(1.92931 0.466437 -1.15623e-19)
(1.99871 0.383009 1.5511e-18)
(2.05681 0.289606 -8.00168e-20)
(2.10032 0.189476 -3.4659e-19)
(2.12744 0.0860613 3.29752e-19)
(1.51398 0.519383 8.24217e-20)
(1.59021 0.506169 1.06646e-19)
(1.66908 0.489263 -9.23986e-21)
(1.74577 0.459449 1.76777e-19)
(1.81792 0.414757 -1.50433e-19)
(1.88419 0.357703 -3.66975e-19)
(1.94208 0.291808 -1.12314e-19)
(1.9888 0.219915 5.04206e-19)
(2.02318 0.144028 -2.1868e-20)
(2.04382 0.0657796 -4.39709e-19)