# Selection   : all
# Cells       : 440
# Volume      : 7.374263e+01
# Time        	max(p)
3.3           	1.828640e+00
3.35          	1.827350e+00
3.4           	1.821482e+00
