/*--------------------------------*- C++ -*----------------------------------*\
  =========                 |
  \\      /  F ield         | OpenFOAM: The Open Source CFD Toolbox
   \\    /   O peration     | Website:  https://openfoam.org
    \\  /    A nd           | Version:  13
     \\/     M anipulation  |
\*---------------------------------------------------------------------------*/
FoamFile
{
    format      ascii;
    class       volScalarField;
    location    "0.94";
    object      p;
}
// * * * * * * * * * * * * * * * * * * * * * * * * * * * * * * * * * * * * * //

dimensions      [0 2 -2 0 0 0 0];

internalField   nonuniform List<scalar> 
440
(
7.82825
10.5846
12.9471
13.1285
10.152
20.718
24.1013
27.0967
27.7971
25.9088
41.2544
44.2857
46.9888
47.7814
46.6203
67.3872
69.485
71.3984
72.055
71.3675
96.6635
97.4804
98.2774
98.6775
98.6439
-0.449744
-0.549961
-0.0786229
0.482775
0.826037
-1.67036
-2.33825
-2.0803
-1.38583
-0.748377
-2.01412
-2.89758
-2.82303
-2.07134
-0.955167
-0.675031
-0.808375
-0.405478
0.555789
2.41898
3.08649
4.39773
5.82624
7.25635
9.50485
2.08834
2.26738
1.33564
0.681229
0.240301
1.06255
2.08187
1.21918
0.622443
0.237148
-0.0902317
1.67105
1.0912
0.576738
0.229303
-0.402295
1.06524
0.881221
0.545148
0.215036
1.50339
0.473852
0.597453
0.485932
0.187249
4.37285
0.245322
0.347394
0.411753
0.140067
6.71946
0.71044
0.450463
0.407034
0.0761107
9.98404
2.44794
1.09351
0.540639
0.0427663
13.8722
4.74601
2.13589
0.824267
0.0547255
16.6079
7.10708
3.45548
1.31485
0.162418
100.688
75.8393
53.3235
33.1483
12.3452
102.383
78.942
57.5369
39.057
23.4831
104.284
82.7015
62.4747
45.2346
32.8881
105.167
85.0204
66.5021
51.1829
40.6564
105.086
84.743
66.328
51.2504
40.8959
219.867
216.385
216.089
218.204
220.937
202.688
200.22
200.479
203.22
206.511
180.54
178.766
179.13
181.552
184.431
154.741
153.398
153.603
155.196
157.093
126.86
126.146
126.086
126.546
127.139
235.599
236.031
236.674
237.105
236.852
236.158
236.797
237.357
237.338
236.388
234.934
235.91
236.326
236.053
235.067
230.045
231.643
232.204
232.338
232.247
221.565
223.426
224.435
225.641
226.995
235.711
234.733
234.894
234.15
234.282
235.675
234.717
234.842
234.103
234.799
235.662
234.674
234.776
234.21
235.306
235.664
234.607
234.765
234.459
234.891
235.671
234.519
234.832
234.657
232.206
235.688
234.37
234.878
234.43
228.725
235.888
234.23
234.767
233.93
226.353
236.798
234
234.143
232.249
223.333
240.849
233.977
232.966
229.794
219.662
249.821
234.705
231.743
227.25
216.912
217.761
196.235
175.027
151.732
126.446
207.364
191.368
172.323
150.42
126.651
198.876
186.196
168.614
148.087
126.333
191.744
180.784
165.099
146.261
125.919
191.527
180.765
165.354
146.66
126.15
96.3955
95.5187
95.071
94.3041
94.1475
57.3133
55.3664
53.661
51.7392
50.9732
29.4823
27.139
24.3762
22.0771
20.7525
15.0301
12.6135
10.148
8.12771
7.15712
9.20033
7.31255
5.9258
4.95057
4.36335
5.96958
4.86765
4.28828
4.19996
4.28833
4.06006
3.60102
3.52957
3.68577
3.8396
2.74993
2.73727
2.97197
3.27613
3.43473
1.65013
1.95495
2.40743
2.75853
2.9034
0.60622
1.00223
1.57522
1.97797
2.15267
3.60942
3.17596
2.06224
0.949343
0.268385
3.66285
3.0039
1.97008
0.893767
0.258266
3.46284
2.74089
1.841
0.843389
0.251436
3.14229
2.4966
1.67791
0.793347
0.247695
2.72787
2.35111
1.49486
0.739219
0.244255
4.47673
3.15819
1.97497
0.994384
0.304576
3.74055
3.25397
2.06416
0.986009
0.282647
94.903
54.1433
27.5053
14.4814
9.46094
93.6818
51.1339
22.9817
9.46555
5.25515
232.146
232.227
232.176
231.659
230.581
232.733
232.906
233.135
233.173
232.797
233.296
233.469
233.856
234.254
234.424
233.899
234.051
234.456
235.06
235.48
234.649
234.886
235.392
236.008
236.27
141.98
141.788
140.96
140.45
139.539
185.216
184.407
182.428
180.661
178.684
215.516
214.145
211.796
208.982
206.607
229.153
228.146
226.095
223.597
221.152
232.001
231.387
230.415
229.032
227.132
238.823
234.448
234.525
233.516
232.899
237.119
234.49
234.614
233.684
232.916
236.349
234.581
234.718
233.907
233.246
235.975
234.663
234.822
234.112
233.628
235.793
234.717
234.89
234.2
233.948
252.266
235.788
234.881
233.453
231.982
243.171
234.694
234.463
233.397
232.702
226.938
221.864
208.756
182.039
141.23
231.135
226.893
213.31
185.062
142.453
)
;

boundaryField
{
    left
    {
        type            zeroGradient;
    }
    right
    {
        type            fixedValue;
        value           uniform 0;
    }
    down
    {
        type            zeroGradient;
    }
    up
    {
        type            zeroGradient;
    }
    cylinder
    {
        type            zeroGradient;
    }
    defaultFaces
    {
        type            empty;
    }
}


// ************************************************************************* //
