/*--------------------------------*- C++ -*----------------------------------*\
  =========                 |
  \\      /  F ield         | OpenFOAM: The Open Source CFD Toolbox
   \\    /   O peration     | Website:  https://openfoam.org
    \\  /    A nd           | Version:  13
     \\/     M anipulation  |
\*---------------------------------------------------------------------------*/
FoamFile
{
    format      ascii;
    class       volScalarField;
    location    "0.6775";
    object      p;
}
// * * * * * * * * * * * * * * * * * * * * * * * * * * * * * * * * * * * * * //

dimensions      [0 2 -2 0 0 0 0];

internalField   nonuniform List<scalar> 
1800
(
-1.12853
-1.12158
-1.07981
-1.00039
-0.902271
-0.804331
-0.715145
-0.636153
-0.566337
-0.509152
-1.32482
-1.31678
-1.26843
-1.17798
-1.06752
-0.95796
-0.858462
-0.770768
-0.69488
-0.632502
-1.51147
-1.5019
-1.44631
-1.34453
-1.22191
-1.101
-0.991248
-0.894339
-0.809776
-0.737922
-1.68366
-1.67204
-1.60883
-1.49608
-1.36241
-1.23166
-1.1133
-1.00873
-0.917235
-0.838914
-1.83537
-1.82107
-1.74968
-1.62618
-1.4823
-1.34271
-1.21659
-1.10505
-1.00718
-0.922383
-1.9619
-1.94437
-1.86466
-1.73114
-1.57846
-1.43166
-1.29936
-1.18233
-1.0794
-0.989618
-2.0582
-2.03688
-1.94881
-1.80619
-1.64621
-1.49379
-1.3568
-1.2356
-1.12886
-1.03525
-2.12039
-2.09488
-1.99883
-1.84836
-1.68282
-1.52654
-1.38644
-1.26251
-1.15321
-1.05693
-2.14524
-2.11534
-2.01194
-1.85509
-1.68587
-1.5275
-1.38588
-1.26062
-1.15006
-1.05231
-2.13072
-2.0965
-1.98659
-1.82512
-1.65414
-1.49541
-1.3538
-1.22858
-1.1179
-1.01974
0.323634
0.330402
0.341477
0.355162
0.367495
0.376138
0.380733
0.38184
0.3802
0.376403
0.274554
0.281152
0.293004
0.308731
0.324006
0.335885
0.343622
0.34764
0.348661
0.347433
0.197474
0.203943
0.216993
0.235846
0.255607
0.272406
0.28491
0.293336
0.298385
0.301071
0.0938514
0.100285
0.114993
0.138041
0.163765
0.187059
0.20583
0.220026
0.230335
0.238146
-0.0341764
-0.0279106
-0.0109908
0.0173308
0.0504017
0.0816236
0.107992
0.129145
0.145769
0.159746
-0.184425
-0.17778
-0.158259
-0.123684
-0.0820216
-0.0416391
-0.0065581
0.0225215
0.0463045
0.0672673
-0.352833
-0.346492
-0.323755
-0.281953
-0.230617
-0.180095
-0.135461
-0.097758
-0.0662141
-0.0377694
-0.535863
-0.529749
-0.50334
-0.453608
-0.391944
-0.330784
-0.276234
-0.229672
-0.190161
-0.154309
-0.729179
-0.723001
-0.692291
-0.633826
-0.561189
-0.488973
-0.424287
-0.368802
-0.321284
-0.278558
-0.928185
-0.921736
-0.885871
-0.817375
-0.732368
-0.647674
-0.571346
-0.505225
-0.447892
-0.397773
0.340273
0.271115
0.213333
0.168945
0.133682
0.104499
0.0788411
0.0552577
0.0328227
0.010918
0.327664
0.265162
0.210741
0.167457
0.132546
0.103562
0.078093
0.0547091
0.0324791
0.0107877
0.307073
0.255318
0.206489
0.165291
0.131142
0.10253
0.0773288
0.0541741
0.0321516
0.0106628
0.277965
0.241641
0.200548
0.16241
0.129452
0.101392
0.0765396
0.0536461
0.0318359
0.0105425
0.239605
0.224227
0.192889
0.158772
0.127456
0.100137
0.0757168
0.0531185
0.0315285
0.0104261
0.191222
0.203231
0.183491
0.154331
0.125129
0.0987539
0.0748526
0.0525854
0.0312262
0.0103134
0.132211
0.178992
0.172447
0.149068
0.122451
0.0972333
0.0739404
0.0520414
0.0309256
0.0102044
0.0613494
0.151399
0.159899
0.143015
0.11942
0.0955732
0.0729773
0.0514825
0.0306249
0.0100995
-0.0232394
0.118945
0.145295
0.135913
0.115903
0.0937146
0.0719379
0.0508967
0.030319
0.01
-0.11626
0.0823167
0.128994
0.127882
0.111877
0.0916194
0.0707959
0.0502673
0.0299982
0.00990553
-0.169726
0.0490994
0.109754
0.116452
0.10509
0.0875104
0.0682598
0.0487263
0.0291815
0.00969351
-0.185122
0.0153296
0.0829039
0.0985173
0.0938217
0.0804664
0.0638316
0.0460097
0.0277097
0.00923169
-0.183954
-0.00516724
0.0637903
0.0839211
0.0837374
0.0738206
0.0595417
0.0433443
0.0262509
0.00876985
-0.179535
-0.0227061
0.0462152
0.0702175
0.0740859
0.0673708
0.0553477
0.0407282
0.0248104
0.00830801
-0.170985
-0.0349809
0.0317544
0.0581658
0.0652429
0.0613193
0.0513652
0.0382271
0.0234227
0.00785852
-0.161596
-0.0441053
0.0196151
0.0476116
0.0572819
0.0557718
0.0476764
0.0358948
0.0221179
0.00743084
-0.153434
-0.0511212
0.00945479
0.0385146
0.0502845
0.050828
0.0443602
0.033783
0.0209225
0.00703182
-0.148135
-0.0572539
0.000813592
0.0307958
0.0443171
0.0465841
0.0414973
0.0319477
0.0198679
0.00667489
-0.143853
-0.0626568
-0.00670772
0.0241991
0.039252
0.0429837
0.0390603
0.0303709
0.0189296
0.00633769
-0.15029
-0.0687382
-0.0122414
0.0199505
0.0361127
0.0407729
0.0375691
0.0294078
0.0183496
0.00612924
-0.854074
-0.885991
-0.894366
-0.880417
-0.846046
-0.793586
-0.726876
-0.646723
-0.560123
-0.466335
-0.675479
-0.707153
-0.720121
-0.715603
-0.694251
-0.659344
-0.612318
-0.555683
-0.495087
-0.431216
-0.539476
-0.570649
-0.586077
-0.587233
-0.57387
-0.550213
-0.515477
-0.473918
-0.42817
-0.378777
-0.434938
-0.465531
-0.48251
-0.487309
-0.47941
-0.462949
-0.436393
-0.40461
-0.368475
-0.329532
-0.355674
-0.385639
-0.403624
-0.410751
-0.40668
-0.394927
-0.374207
-0.349137
-0.319782
-0.288039
-0.295421
-0.325114
-0.343966
-0.352784
-0.351534
-0.343002
-0.326429
-0.305877
-0.281104
-0.254121
-0.250885
-0.280633
-0.300269
-0.310379
-0.311214
-0.304924
-0.291263
-0.273728
-0.252147
-0.228378
-0.21909
-0.249647
-0.270261
-0.281495
-0.283919
-0.279229
-0.267562
-0.251983
-0.232508
-0.211234
-0.203092
-0.233156
-0.254682
-0.267319
-0.271152
-0.267561
-0.256788
-0.241434
-0.221876
-0.198558
-0.191818
-0.22464
-0.248374
-0.263466
-0.270354
-0.26991
-0.262687
-0.250227
-0.23272
-0.209892
0.467931
0.415142
0.354156
0.288139
0.215324
0.133349
0.0419394
-0.0528252
-0.131843
-0.165601
0.274126
0.21717
0.15247
0.0803598
-0.00119314
-0.0940837
-0.197935
-0.305515
-0.39513
-0.432656
0.0654286
0.00372619
-0.0656876
-0.143675
-0.232391
-0.333687
-0.447041
-0.564679
-0.663668
-0.703531
-0.131468
-0.199791
-0.276406
-0.362486
-0.460072
-0.571004
-0.694552
-0.822252
-0.931496
-0.972157
-0.31185
-0.387719
-0.472467
-0.567518
-0.674941
-0.796594
-0.931349
-1.06911
-1.18858
-1.22809
-0.477552
-0.560322
-0.652637
-0.756179
-0.873085
-1.00515
-1.15126
-1.29962
-1.42347
-1.46298
-0.628263
-0.716557
-0.815203
-0.926023
-1.05115
-1.19231
-1.34775
-1.50777
-1.62815
-1.67057
-0.760847
-0.853402
-0.957112
-1.07383
-1.20556
-1.35394
-1.51863
-1.68052
-1.80121
-1.84434
-0.871396
-0.967279
-1.07486
-1.19603
-1.33289
-1.48684
-1.65575
-1.81961
-1.93846
-1.98005
-0.958213
-1.0561
-1.16601
-1.28999
-1.4301
-1.58746
-1.75833
-1.92227
-2.03747
-2.07575
1.63963
1.65372
1.6696
1.68549
1.70036
1.71359
1.72443
1.73238
1.7387
1.74387
1.58753
1.59961
1.61302
1.62608
1.63783
1.64762
1.65467
1.65872
1.66172
1.66512
1.51522
1.52447
1.53435
1.54336
1.55063
1.55546
1.55705
1.55548
1.5537
1.55461
1.42323
1.42895
1.43435
1.43818
1.43972
1.43819
1.43279
1.42401
1.41609
1.41384
1.31245
1.31412
1.31427
1.31198
1.3067
1.29758
1.28381
1.26639
1.25108
1.24506
1.18453
1.18177
1.17598
1.16669
1.15356
1.13568
1.11224
1.08487
1.06107
1.05088
1.04212
1.03473
1.02262
1.0057
0.983916
0.9563
0.9221
0.883635
0.85036
0.835618
0.891557
0.878744
0.858853
0.832696
0.800709
0.761843
0.715411
0.664532
0.620846
0.601433
0.738384
0.720088
0.691675
0.655183
0.611703
0.560133
0.499948
0.435244
0.380119
0.355733
0.59521
0.562318
0.518774
0.468524
0.411792
0.346589
0.272218
0.19355
0.126958
0.0978588
1.48558
1.39176
1.4996
1.38828
1.41772
1.42295
1.42912
1.4537
1.49658
1.58149
1.47983
1.38663
1.49463
1.38235
1.41118
1.41491
1.41881
1.43977
1.47615
1.54759
1.47455
1.38158
1.48992
1.37579
1.40424
1.40611
1.40702
1.42321
1.45042
1.50196
1.46971
1.37665
1.48548
1.36863
1.39696
1.39655
1.39372
1.40389
1.41934
1.44414
1.46531
1.37188
1.4813
1.36091
1.38939
1.38619
1.3789
1.38167
1.38293
1.37347
1.46142
1.36731
1.47734
1.35267
1.38155
1.37501
1.36252
1.35641
1.34111
1.28932
1.45793
1.36302
1.47355
1.34399
1.3735
1.36295
1.34454
1.32801
1.29351
1.19069
1.4549
1.35907
1.4698
1.33499
1.36523
1.34995
1.32486
1.29636
1.23981
1.07977
1.45234
1.35554
1.46596
1.32585
1.35674
1.33604
1.3035
1.26123
1.17887
0.953547
1.45048
1.35261
1.46179
1.3168
1.34794
1.32128
1.28084
1.22414
1.11399
0.825219
1.44842
1.3494
1.45643
1.30815
1.33517
1.30246
1.25144
1.17701
1.04124
0.705497
1.44838
1.34577
1.4518
1.30009
1.32037
1.28228
1.22085
1.13192
0.979843
0.662391
1.44918
1.34294
1.4481
1.29254
1.30684
1.26355
1.1931
1.09318
0.930905
0.630102
1.4529
1.34139
1.44512
1.28583
1.29468
1.24657
1.1685
1.06055
0.891291
0.608377
1.459
1.34125
1.44278
1.28008
1.28406
1.2317
1.14744
1.03374
0.860505
0.595645
1.46793
1.34264
1.44097
1.27536
1.27512
1.21915
1.13008
1.0124
0.837564
0.588861
1.47988
1.34241
1.43952
1.27161
1.26796
1.20905
1.11645
0.996138
0.821295
0.586289
1.49966
1.34689
1.43927
1.26884
1.2627
1.20152
1.10654
0.984631
0.810719
0.587192
1.5144
1.34678
1.43677
1.26675
1.25954
1.19663
1.10039
0.977718
0.804814
0.591226
1.56715
1.35688
1.43893
1.26411
1.25911
1.19406
1.09752
0.974334
0.802414
0.593815
0.440504
0.274244
0.0926447
-0.0761726
-0.229969
-0.372737
-0.504615
-0.622063
-0.721096
-0.798814
0.381144
0.253521
0.114622
-0.0189853
-0.143717
-0.261202
-0.371166
-0.470475
-0.556048
-0.6252
0.3561
0.253263
0.143388
0.0325009
-0.0740716
-0.175012
-0.269918
-0.356429
-0.43162
-0.493162
0.353517
0.263059
0.169632
0.0739198
-0.0193786
-0.107761
-0.19105
-0.267686
-0.335085
-0.391241
0.360682
0.277991
0.19548
0.110961
0.0271621
-0.0529651
-0.128773
-0.19901
-0.261437
-0.314159
0.372185
0.294925
0.21939
0.142194
0.0647107
-0.00989069
-0.0805491
-0.14626
-0.2051
-0.255249
0.38462
0.311346
0.240483
0.16815
0.0949091
0.0239694
-0.043341
-0.106129
-0.16269
-0.211347
0.396767
0.326061
0.258264
0.188911
0.118168
0.0493586
-0.0160205
-0.077113
-0.132293
-0.179943
0.411026
0.341996
0.275251
0.206347
0.135813
0.0670688
0.00166842
-0.059524
-0.115038
-0.163323
0.424473
0.358965
0.292913
0.223444
0.152786
0.0838038
0.0177446
-0.0443059
-0.100815
-0.150333
-3.2298
-3.17169
-3.01924
-2.82114
-2.62573
-2.45374
-2.30842
-2.18804
-2.09132
-2.01849
-3.31325
-3.26603
-3.12927
-2.93803
-2.74197
-2.5668
-2.41824
-2.2951
-2.19669
-2.12426
-3.29627
-3.26039
-3.14089
-2.95791
-2.76084
-2.58119
-2.42814
-2.30129
-2.19967
-2.12432
-3.18267
-3.15754
-3.05503
-2.88077
-2.68238
-2.49711
-2.33821
-2.20649
-2.10058
-2.01983
-2.98029
-2.96458
-2.87731
-2.71258
-2.51439
-2.32448
-2.16011
-2.02364
-1.91363
-1.82782
-2.70076
-2.69237
-2.61785
-2.46447
-2.27091
-2.08079
-1.91435
-1.7756
-1.66329
-1.57582
-2.36269
-2.35864
-2.29463
-2.15553
-1.97367
-1.79109
-1.62915
-1.49328
-1.38209
-1.29633
-1.99168
-1.98838
-1.93307
-1.81091
-1.64789
-1.48138
-1.33171
-1.20498
-1.10035
-1.02004
-1.61519
-1.61075
-1.56334
-1.45989
-1.32083
-1.1772
-1.04683
-0.93561
-0.843043
-0.775027
-1.25578
-1.25066
-1.21039
-1.12525
-1.01112
-0.89251
-0.783903
-0.690132
-0.609183
-0.547362
-0.929907
-0.923351
-0.88983
-0.82145
-0.731048
-0.637654
-0.552791
-0.480751
-0.419961
-0.367635
-0.643476
-0.636366
-0.608651
-0.554352
-0.483951
-0.411926
-0.346939
-0.292035
-0.246395
-0.204958
-0.397132
-0.389906
-0.366913
-0.323863
-0.269374
-0.214371
-0.165189
-0.12378
-0.0896677
-0.058258
-0.189352
-0.182145
-0.162966
-0.129053
-0.08756
-0.0466604
-0.0108316
0.0188005
0.0427282
0.0644094
-0.018091
-0.0109922
0.0051826
0.0317835
0.062832
0.0922911
0.117161
0.136937
0.152205
0.165359
0.118633
0.125518
0.139466
0.160486
0.183514
0.204128
0.220454
0.232444
0.240758
0.247005
0.222244
0.228966
0.241349
0.258337
0.275525
0.289658
0.299679
0.305861
0.308915
0.309929
0.293711
0.300491
0.311836
0.326168
0.339493
0.349312
0.355111
0.357372
0.356837
0.35427
0.333954
0.34081
0.351616
0.364563
0.375857
0.383391
0.386936
0.38709
0.384605
0.38007
0.3437
0.350562
0.361284
0.374032
0.385019
0.39219
0.395362
0.395156
0.392326
0.387407
-0.0521409
0.116837
0.150281
0.148182
0.132821
0.111404
0.087667
0.0630537
0.0380447
0.012776
0.0531625
0.152437
0.164807
0.154155
0.133981
0.110771
0.0865301
0.0619827
0.0373151
0.0125253
0.137355
0.181013
0.176415
0.158051
0.134731
0.110117
0.0854661
0.0609919
0.036642
0.0122926
0.20094
0.204867
0.186532
0.161727
0.135317
0.109481
0.0844797
0.0600786
0.036022
0.0120767
0.249869
0.225423
0.19522
0.164688
0.135693
0.108846
0.0835583
0.059235
0.0354508
0.0118761
0.287063
0.242513
0.20223
0.166958
0.135874
0.108208
0.0826929
0.0584548
0.0349244
0.0116894
0.31417
0.255921
0.207619
0.168591
0.13586
0.107552
0.0818731
0.0577309
0.0344389
0.0115152
0.332436
0.265578
0.211428
0.169603
0.135644
0.106867
0.0810886
0.0570564
0.0339901
0.0113522
0.342652
0.271316
0.213655
0.170001
0.135217
0.106139
0.0803287
0.0564242
0.033574
0.0111992
0.34523
0.273164
0.214296
0.169786
0.134567
0.105354
0.079583
0.0558271
0.0331863
0.0110548
-0.263262
-0.00662714
0.0902054
0.120772
0.12192
0.108097
0.0874833
0.0639105
0.0389692
0.0131995
-0.239393
0.0163784
0.0997058
0.12478
0.12311
0.108384
0.0874654
0.0637979
0.0388458
0.0131432
-0.20088
0.0334869
0.108202
0.128739
0.124826
0.108943
0.0875243
0.0636836
0.0387044
0.0130752
-0.161155
0.0564925
0.119859
0.134272
0.127266
0.109855
0.087736
0.0636305
0.0385907
0.0130172
-0.117877
0.0868441
0.13617
0.142238
0.130718
0.111083
0.0880833
0.0636327
0.0385025
0.012969
-1.95346
-2.05648
-2.06698
-1.98815
-1.83062
-1.63145
-1.3842
-1.15159
-0.910572
-0.688628
-1.95088
-2.05142
-2.0567
-1.97236
-1.81172
-1.60965
-1.35954
-1.12057
-0.886509
-0.663951
-1.95282
-2.05363
-2.05535
-1.96446
-1.796
-1.58134
-1.32388
-1.0679
-0.830269
-0.621168
-1.96243
-2.06548
-2.06511
-1.96657
-1.78625
-1.55185
-1.28314
-1.01473
-0.781908
-0.586547
-1.9814
-2.08652
-2.08416
-1.97792
-1.78498
-1.53368
-1.25562
-0.982903
-0.744914
-0.537129
1.05433
1.03187
1.00125
0.965611
0.92525
0.878236
0.823263
0.763606
0.712717
0.689049
1.18481
1.17792
1.16313
1.1422
1.11617
1.08391
1.0445
1.00062
0.963189
0.946315
1.31088
1.30928
1.30261
1.29161
1.27668
1.25685
1.23117
1.20149
1.17619
1.16545
1.4218
1.42516
1.42584
1.42358
1.41822
1.40892
1.39477
1.37693
1.36159
1.35585
1.51521
1.52246
1.52859
1.5329
1.53494
1.5339
1.52891
1.52058
1.51338
1.51189
1.58839
1.59892
1.60958
1.61926
1.62727
1.63286
1.63519
1.63442
1.63359
1.63535
1.64056
1.6536
1.66766
1.68133
1.69376
1.70427
1.71205
1.71688
1.72076
1.7249
1.67172
1.68641
1.70273
1.71905
1.73438
1.74812
1.75947
1.76796
1.77488
1.78054
1.6819
1.69731
1.71469
1.73224
1.74895
1.7642
1.77724
1.78746
1.79578
1.80211
1.67117
1.68639
1.70361
1.721
1.73753
1.75261
1.76545
1.77548
1.78359
1.78976
-1.81887
-1.89422
-1.99027
-2.10799
-2.24998
-2.41871
-2.61284
-2.8152
-2.98022
-3.04713
-1.54295
-1.62095
-1.71663
-1.83162
-1.96957
-2.13314
-2.32182
-2.52759
-2.7016
-2.77241
-1.21251
-1.29164
-1.3867
-1.49903
-1.63238
-1.78969
-1.97104
-2.1654
-2.34976
-2.4197
-0.851116
-0.930252
-1.02399
-1.13297
-1.26039
-1.4093
-1.58035
-1.76575
-1.93928
-2.01402
-0.484172
-0.563047
-0.654321
-0.758231
-0.877741
-1.01612
-1.17478
-1.3466
-1.50272
-1.57495
-0.139494
-0.215145
-0.300662
-0.396149
-0.50455
-0.629218
-0.771749
-0.925489
-1.06287
-1.12853
0.167639
0.100325
0.0249552
-0.0584797
-0.152883
-0.261494
-0.385757
-0.519487
-0.63756
-0.694658
0.443017
0.386945
0.323785
0.253655
0.173666
0.0808397
-0.0258551
-0.140492
-0.240319
-0.288515
0.70199
0.655124
0.601035
0.540907
0.472105
0.392029
0.300083
0.201963
0.118043
0.0781202
0.929757
0.888321
0.838449
0.784806
0.72558
0.658271
0.581957
0.501259
0.433203
0.401399
1.57877
1.44236
1.54732
1.40673
1.4611
1.45833
1.45411
1.45307
1.4151
1.25101
1.56514
1.43785
1.54479
1.40801
1.45832
1.45872
1.45652
1.46364
1.44703
1.33699
1.55282
1.43304
1.54125
1.40882
1.45522
1.45831
1.45934
1.47351
1.47486
1.42301
1.54168
1.42805
1.53693
1.40903
1.45181
1.45699
1.46048
1.48014
1.4958
1.48909
1.53154
1.42294
1.53204
1.40848
1.4481
1.4547
1.46022
1.4841
1.51101
1.54085
1.52225
1.41777
1.52677
1.40712
1.44405
1.45149
1.4586
1.48542
1.52109
1.57833
1.51371
1.41257
1.52129
1.40493
1.43962
1.4474
1.4556
1.48412
1.52632
1.60266
1.50583
1.40735
1.51573
1.40191
1.4348
1.44248
1.45116
1.48027
1.52662
1.6147
1.49854
1.40214
1.51021
1.3981
1.42954
1.43675
1.44528
1.47392
1.52174
1.61503
1.49181
1.39693
1.50481
1.39354
1.42385
1.43023
1.43794
1.46507
1.51175
1.60393
1.71208
1.45817
1.55414
1.40429
1.46349
1.45141
1.43509
1.40748
1.31662
1.1051
1.65703
1.45202
1.55195
1.40658
1.46234
1.45292
1.43653
1.41081
1.32346
1.10992
1.63578
1.45334
1.5524
1.40738
1.46239
1.45415
1.43942
1.41721
1.33727
1.12094
1.61296
1.45062
1.55099
1.40731
1.46245
1.45544
1.44343
1.42639
1.35597
1.14247
1.59422
1.4467
1.54919
1.40655
1.46242
1.45671
1.44792
1.43777
1.37974
1.1658
0.747331
0.59134
0.385787
0.116392
-0.202681
-0.543944
-0.884509
-1.21375
-1.51748
-1.77019
0.747307
0.592263
0.393792
0.134325
-0.175869
-0.514801
-0.859854
-1.19578
-1.50622
-1.76507
0.767096
0.607536
0.406621
0.153926
-0.148582
-0.487899
-0.840235
-1.18357
-1.49989
-1.76394
0.818014
0.639701
0.424583
0.172083
-0.126019
-0.466171
-0.825681
-1.17705
-1.49949
-1.76904
0.897146
0.689756
0.450213
0.188629
-0.11084
-0.452284
-0.816859
-1.17551
-1.50502
-1.78168
)
;

boundaryField
{
    left
    {
        type            zeroGradient;
    }
    right
    {
        type            fixedValue;
        value           uniform 0;
    }
    down
    {
        type            zeroGradient;
    }
    up
    {
        type            zeroGradient;
    }
    cylinder
    {
        type            zeroGradient;
    }
    defaultFaces
    {
        type            empty;
    }
}


// ************************************************************************* //
