/*--------------------------------*- C++ -*----------------------------------*\
  =========                 |
  \\      /  F ield         | OpenFOAM: The Open Source CFD Toolbox
   \\    /   O peration     | Website:  https://openfoam.org
    \\  /    A nd           | Version:  13
     \\/     M anipulation  |
\*---------------------------------------------------------------------------*/
FoamFile
{
    format      ascii;
    class       volScalarField;
    location    "0.5";
    object      p;
}
// * * * * * * * * * * * * * * * * * * * * * * * * * * * * * * * * * * * * * //

dimensions      [0 2 -2 0 0 0 0];

internalField   nonuniform List<scalar>
1800
(
-1.55976261337
-1.57212060958
-1.52471832994
-1.43694967896
-1.33753187172
-1.24260040858
-1.15788207658
-1.08341445654
-1.01799913112
-0.965417936131
-1.75939308966
-1.77253447711
-1.71702474119
-1.61716049281
-1.50536248077
-1.39901205599
-1.30425550653
-1.2214783512
-1.15026804457
-1.09261440563
-1.9510728943
-1.96430286165
-1.89971843602
-1.78744736422
-1.66325594838
-1.54538891651
-1.44013366949
-1.34776383445
-1.26737873349
-1.19971037061
-2.12950966631
-2.14211808729
-2.06788877799
-1.94370093152
-1.8082193
-1.68026492771
-1.56608638512
-1.46575484863
-1.37819844713
-1.30385370561
-2.28872128762
-2.29993221953
-2.21550874666
-2.08002481818
-1.93420237999
-1.79711332958
-1.67479340139
-1.56710162893
-1.47280751011
-1.39169922273
-2.42343617024
-2.43261393955
-2.33787308523
-2.19224068613
-2.03755365946
-1.89290322769
-1.76397899153
-1.65036943291
-1.55066219039
-1.46424478961
-2.52840204554
-2.53492752573
-2.43002519941
-2.27570706122
-2.11371950791
-1.96309484129
-1.82900047221
-1.71077697184
-1.6068413259
-1.51620332042
-2.59922580951
-2.60260354934
-2.48818684995
-2.32694007392
-2.15942573394
-2.00459648313
-1.86695047521
-1.74556370789
-1.63867940705
-1.54498297898
-2.63230032724
-2.63226158894
-2.50941103471
-2.3430261145
-2.17185640163
-2.01466329095
-1.87506670632
-1.75197522559
-1.64347377667
-1.54792403822
-2.62532517209
-2.62203533184
-2.49171944317
-2.32271286839
-2.14930001206
-1.99148224716
-1.85140003363
-1.72783734872
-1.61888575459
-1.52264276645
-0.138872065845
-0.12913685446
-0.11789015195
-0.104342297258
-0.092784605629
-0.0855107367858
-0.0825225973048
-0.0830504260286
-0.0863180131734
-0.0916908213472
-0.18630888776
-0.177858094199
-0.165755718598
-0.149805972761
-0.135069083344
-0.124494320024
-0.118377208239
-0.116010357064
-0.116611777212
-0.119372679314
-0.259727950858
-0.253159873111
-0.239731993153
-0.220116381496
-0.200552829689
-0.184970174022
-0.174105956842
-0.167354577569
-0.163916916896
-0.162694846459
-0.358227781801
-0.353975512805
-0.338689870876
-0.314174419411
-0.288245967736
-0.266087015859
-0.249005859475
-0.236528769679
-0.227830707977
-0.221402904013
-0.48050860072
-0.478842304158
-0.461111954299
-0.430495279994
-0.396810533184
-0.366689304519
-0.342119772114
-0.322780429093
-0.307805873991
-0.295164730259
-0.62471779455
-0.625768087959
-0.604964529832
-0.567124456109
-0.524469788386
-0.485238752939
-0.452149599017
-0.425060172084
-0.403047123055
-0.383465792754
-0.788297895223
-0.792086507881
-0.767582496473
-0.721562573742
-0.669008425032
-0.619835225191
-0.577514272033
-0.54209193276
-0.512561801717
-0.485687322562
-0.967837276902
-0.974286468927
-0.945474015902
-0.890533929977
-0.827517851349
-0.768011238911
-0.716207228938
-0.672322722304
-0.635162706435
-0.60113514579
-1.15914480892
-1.16801975032
-1.1341099487
-1.06938405004
-0.995277746238
-0.925034488438
-0.863548440656
-0.81115908825
-0.766303986603
-0.72569373656
-1.35789792665
-1.3687810041
-1.32864150489
-1.25281940023
-1.16635691998
-1.08407399443
-1.01146280811
-0.948875262087
-0.894596468824
-0.84735534613
-0.134625544015
-0.211956090526
-0.280876265139
-0.33112974824
-0.369565553353
-0.400436486262
-0.427068367837
-0.451337432775
-0.474353673501
-0.496772511189
-0.146145118412
-0.220018666559
-0.284598008328
-0.333187156025
-0.370965640483
-0.401505337036
-0.427883731046
-0.451917412556
-0.474705319323
-0.496900280696
-0.164072727392
-0.232579928807
-0.29036091267
-0.336118200462
-0.372700641286
-0.402685293987
-0.428719090241
-0.452483845045
-0.475040071112
-0.49702182377
-0.189365231005
-0.249132573991
-0.298082059306
-0.339910053753
-0.374778403634
-0.403986217606
-0.429581301035
-0.453042464309
-0.475361723323
-0.49713790676
-0.223404344914
-0.26896576846
-0.307616008805
-0.344534060575
-0.377200478268
-0.405412567895
-0.430476512831
-0.453598800419
-0.475673502405
-0.497249286824
-0.267914742788
-0.291227733331
-0.318738782375
-0.349947657261
-0.379967379183
-0.40697002013
-0.431410251663
-0.454157887153
-0.475978625822
-0.497356002816
-0.324800414262
-0.315111874539
-0.331073279093
-0.356065280968
-0.38307053564
-0.408660753922
-0.43238725681
-0.454724471816
-0.47628007285
-0.497458097955
-0.395901137709
-0.341336767159
-0.344341360507
-0.3627993227
-0.386498682131
-0.41048869592
-0.433411664525
-0.455302928476
-0.476580303012
-0.497555459219
-0.48165543975
-0.37192476491
-0.358856848754
-0.370289357069
-0.390337447227
-0.412499354112
-0.434504660997
-0.455903414369
-0.476883614634
-0.497647075691
-0.575475774367
-0.406381944231
-0.374355900426
-0.378394057194
-0.394546331089
-0.414686135794
-0.435668439025
-0.4565322772
-0.47719539538
-0.497730836879
-0.635030584
-0.443064489659
-0.392759021609
-0.389862158228
-0.401604421444
-0.418955613986
-0.438262036618
-0.458086102008
-0.478006804411
-0.497930040658
-0.658423973638
-0.480138889735
-0.418575369498
-0.406924970209
-0.412604889881
-0.425934661879
-0.442669037501
-0.460793327666
-0.479467787818
-0.498376006791
-0.664142057556
-0.50185981668
-0.437100403202
-0.420888131353
-0.422412738503
-0.432484542738
-0.446914914497
-0.463435341034
-0.480908324691
-0.498822529792
-0.666021882106
-0.519850926133
-0.454029629158
-0.433773743763
-0.431610307503
-0.438740941017
-0.451020593473
-0.466007926732
-0.48232181712
-0.499266405453
-0.663430901287
-0.532825716432
-0.468316307886
-0.445189084764
-0.439998856106
-0.444571729403
-0.454899238351
-0.468458124125
-0.483678909219
-0.499698254051
-0.658952777732
-0.542732389147
-0.480470205607
-0.455247571393
-0.447537157094
-0.449892755356
-0.458478173447
-0.470736603323
-0.484952595623
-0.500109422305
-0.654624544026
-0.550691208628
-0.490797309327
-0.46400148784
-0.454177884538
-0.454629741402
-0.461692006957
-0.472797948264
-0.486118295558
-0.500493093279
-0.651806210935
-0.557739011254
-0.499721003888
-0.471551991944
-0.459905236575
-0.45872680965
-0.464485029362
-0.474601312239
-0.487154361296
-0.500841004061
-0.649683510193
-0.564441206899
-0.508125474998
-0.478558008682
-0.465160423136
-0.46246883038
-0.46703986682
-0.476264507927
-0.488148120453
-0.50120037551
-0.658528244655
-0.571766755644
-0.514742952511
-0.483598698553
-0.468807562612
-0.465032752284
-0.468779513904
-0.477390269512
-0.488814991725
-0.501438196879
-1.36217519334
-1.38642758277
-1.38780640993
-1.36733180322
-1.32711170371
-1.26979397691
-1.19911971252
-1.11619929426
-1.02843059558
-0.93182578931
-1.18957502929
-1.21555218245
-1.22278179794
-1.21258490441
-1.18585838643
-1.14606037815
-1.09436063489
-1.03486111599
-0.971355923443
-0.903151034337
-1.05704549333
-1.08261902876
-1.09298054193
-1.08936489039
-1.07176222241
-1.04420658719
-1.00562716969
-0.961717427694
-0.91253541501
-0.85939608177
-0.954363415711
-0.980269789167
-0.992892010578
-0.993476267833
-0.981897906177
-0.96193690264
-0.932068288015
-0.89809037146
-0.858703703011
-0.816546950331
-0.876649878477
-0.902345296684
-0.916372853257
-0.919714385585
-0.91239007279
-0.897499217386
-0.873990535975
-0.846959511061
-0.814936495961
-0.78089067169
-0.817274749421
-0.843053186864
-0.858260227595
-0.863641513662
-0.859471596365
-0.848172105356
-0.829344076741
-0.807187468736
-0.780336900309
-0.751818475861
-0.773175517092
-0.799243851771
-0.815443070592
-0.822364240506
-0.820509670998
-0.811750303511
-0.796222215162
-0.777388517965
-0.754206039114
-0.729596882364
-0.741901875568
-0.768604295081
-0.785879878926
-0.794129065414
-0.794012559314
-0.787035637642
-0.773703624075
-0.756918943541
-0.736046380987
-0.714071073115
-0.72578988877
-0.75207674335
-0.77025941054
-0.779932913909
-0.781351152158
-0.775592529466
-0.763311740656
-0.746825224633
-0.726196382733
-0.702941036824
-0.712268841141
-0.742873561017
-0.764491264318
-0.777765317447
-0.783293083176
-0.781760571038
-0.773974947749
-0.760957785189
-0.742966779742
-0.720206240679
-0.0794009385445
-0.132865414867
-0.197419721393
-0.267300184473
-0.342694046261
-0.426518244495
-0.520373508722
-0.620352541488
-0.706769189773
-0.734443618985
-0.267090364727
-0.325718816354
-0.393448952546
-0.468413712823
-0.552147491594
-0.647081012485
-0.753919843056
-0.867826092563
-0.966003191007
-0.995706115555
-0.478317132438
-0.540599056788
-0.610748072793
-0.689678160091
-0.779471421806
-0.88225816433
-0.998513904173
-1.1231234298
-1.23080372924
-1.2610976217
-0.677469678252
-0.744744010876
-0.82062295506
-0.906573372068
-1.004444989
-1.11625174759
-1.2424448452
-1.37782030641
-1.49485928058
-1.52465229819
-0.85553734246
-0.929663631977
-1.01324563249
-1.10779549321
-1.21508404916
-1.33713347258
-1.47422399403
-1.62094519171
-1.74783846615
-1.77557847576
-1.01578951013
-1.09682318729
-1.18800918108
-1.29094660822
-1.40746019884
-1.53953764598
-1.68701713392
-1.8438229582
-1.98068438712
-2.00310926393
-1.1599824364
-1.24668670991
-1.34435501663
-1.45461957306
-1.57932854752
-1.72032888042
-1.87696250588
-2.04178039846
-2.18503404323
-2.19804205147
-1.28552589823
-1.37658813591
-1.47946889373
-1.59576868097
-1.7274823928
-1.87644051608
-2.04096508082
-2.20876345431
-2.35037030917
-2.35923848463
-1.38822525571
-1.48269988344
-1.58952293737
-1.71007061805
-1.84641110232
-2.00099206463
-2.17200508605
-2.33730279902
-2.48418763357
-2.48517272638
-1.46542249896
-1.56296648934
-1.67199175011
-1.79542596896
-1.93412491311
-2.09056439627
-2.26751248532
-2.43494474448
-2.57114657677
-2.5768796424
1.02896123323
1.04315588943
1.05930659959
1.07577467553
1.09117088925
1.10460750475
1.11528615734
1.12267532772
1.12784311343
1.13303157008
0.979022836109
0.991329047789
1.00504547047
1.01866033594
1.03090331049
1.040845049
1.04768510295
1.05108534102
1.05288284657
1.05624706543
0.90954675022
0.919172903431
0.929389066317
0.938878053776
0.946535567982
0.951439947909
0.952700642901
0.950312845779
0.947330099112
0.947926231971
0.821261223112
0.827446938766
0.83317177634
0.837369811898
0.83914359388
0.837577409921
0.83170043691
0.821838681644
0.812645585232
0.809628367112
0.714976727464
0.717127370004
0.717588782382
0.715502338866
0.710299173513
0.700997112422
0.686551385718
0.667664979535
0.65058178701
0.644315692351
0.591767798408
0.589650513995
0.584307191554
0.575154626308
0.561955140722
0.543787623395
0.519510021134
0.490271961921
0.46393418663
0.454134794676
0.453755022278
0.447549442366
0.436281367291
0.419538907853
0.397590183932
0.369540209229
0.334293467956
0.293485251718
0.256816461715
0.243283980721
0.307683765927
0.296833898945
0.278317682831
0.252477250827
0.22026986151
0.180922531242
0.133323886073
0.079623781242
0.0316951516185
0.0144261899685
0.161336015066
0.145533226138
0.118611186598
0.0820607783664
0.0378695211423
-0.0145309563086
-0.0762023147341
-0.144394108021
-0.204737241767
-0.225778986737
0.0309475971046
-0.000984218816092
-0.0445023953767
-0.0961526607454
-0.154357464786
-0.220776287826
-0.297018026709
-0.379972000853
-0.452740114215
-0.477204247178
0.853857708831
0.974920585281
0.955082957664
0.771431034407
0.782303170313
0.792511666345
0.801324115444
0.822509623799
0.86398263217
0.96802645704
0.848043492187
0.970703103159
0.950293434595
0.765602835275
0.776009426919
0.784832639556
0.791405844904
0.809291195256
0.844653046105
0.93486179493
0.842553199723
0.966820353384
0.94540339329
0.758749211856
0.769155275571
0.776360545329
0.779937636648
0.793538293857
0.819989851968
0.890097762674
0.837362224479
0.963321125768
0.940395979242
0.750924762791
0.761814130745
0.767122640684
0.766931001601
0.775100120426
0.789507777428
0.834070099237
0.832507311764
0.960207028867
0.935229475585
0.742160339656
0.754044267241
0.757096822582
0.752397138975
0.753757667728
0.752975186132
0.766852033999
0.82806774285
0.957486218898
0.929849702297
0.732537190487
0.745947493696
0.7463102957
0.736348575561
0.729395840585
0.711508167387
0.686792125621
0.824114799872
0.955159693491
0.924186794568
0.722134346769
0.737603077741
0.734721641977
0.718755042802
0.702114726366
0.666768638639
0.590910484573
0.820716553494
0.953211213201
0.91817747582
0.711079416834
0.729082294982
0.722329585421
0.699618616227
0.67195207557
0.618046615561
0.481124613955
0.818002394059
0.951610929433
0.911784203333
0.699537341077
0.720467040199
0.709134017568
0.679049342006
0.638821493461
0.563358308233
0.354254023083
0.816251962173
0.95036754611
0.904982111758
0.687663668259
0.711718571242
0.695137408417
0.657435028091
0.604196732282
0.504847402601
0.225925842578
0.814549427801
0.948090086964
0.900512897135
0.67674917181
0.69922180386
0.676815097391
0.629045731299
0.559743761665
0.439810931534
0.105202566129
0.814667600033
0.944972602104
0.899432410263
0.668549949117
0.684356336453
0.657002956808
0.600120317516
0.518093257204
0.38147930111
0.0679563740142
0.816954841438
0.942583127046
0.898371791864
0.661343775656
0.670697947663
0.638618246726
0.573914071504
0.482433046084
0.333300732839
0.0412035126436
0.821647247653
0.941141542814
0.897387193023
0.655134230408
0.658544379995
0.622087508324
0.550908344321
0.452471973343
0.29431451165
0.025216699688
0.82923824389
0.94071578357
0.896599463034
0.649943959778
0.64810571249
0.607735009073
0.531376122567
0.427775717045
0.264291136076
0.01629462983
0.839804545919
0.941307786814
0.896014373701
0.645780530806
0.639496935444
0.595723136022
0.515420228969
0.408032196748
0.242358964427
0.0119456833724
0.851637453303
0.942702390856
0.895588461142
0.642630548172
0.632777239288
0.586186654608
0.502987327657
0.3929799924
0.227285410958
0.0108099905174
0.872843661061
0.945330569262
0.895430911918
0.640506835932
0.628010831091
0.579181240789
0.494044466777
0.382382321084
0.217870446692
0.012383969302
0.88728966293
0.945982539162
0.8924173172
0.639610609311
0.625416020986
0.574881445724
0.488758357606
0.376436207441
0.213648871577
0.0179714928318
0.946550031716
0.956801092738
0.895885829893
0.63781401412
0.62546997657
0.573137891478
0.486748358484
0.374116072831
0.213131202002
0.0214533541077
-0.11385159255
-0.270476959711
-0.452719156616
-0.62501431931
-0.777597064016
-0.91507544853
-1.04065012488
-1.15165999235
-1.24378252033
-1.31572271241
-0.179450922826
-0.297670767855
-0.433881430129
-0.56924602429
-0.692751015289
-0.804940496696
-0.908466305513
-1.00170316401
-1.08171781155
-1.14517364305
-0.206089421813
-0.299966726792
-0.403445764833
-0.51395496203
-0.620026557608
-0.717690860828
-0.807997112412
-0.889917893608
-0.960376892867
-1.016477685
-0.210528433856
-0.292413256079
-0.378267108412
-0.471559102952
-0.563866191601
-0.64962259059
-0.728877829762
-0.801139447107
-0.864062527712
-0.915495281785
-0.203537266539
-0.278507338475
-0.353658818397
-0.434643373239
-0.516798552896
-0.59445224003
-0.666537179376
-0.732642811958
-0.790957353781
-0.839455999316
-0.191979784837
-0.262389821699
-0.330971502702
-0.403898505844
-0.479026438735
-0.551043050824
-0.618173405395
-0.679935690974
-0.734857602504
-0.781088651042
-0.179722808793
-0.246877279448
-0.311119639307
-0.378770424334
-0.449157960502
-0.517324654731
-0.581104470788
-0.639942906048
-0.692591700049
-0.737431933353
-0.168163113661
-0.233151307944
-0.294523324471
-0.358949642529
-0.426505084169
-0.49235238288
-0.55412490478
-0.611217213793
-0.662462539947
-0.70638098937
-0.154519145322
-0.217875955273
-0.277999134409
-0.341684996882
-0.408772339321
-0.474383654681
-0.536162639146
-0.593449288325
-0.645111371829
-0.689635402992
-0.137167919267
-0.196072595144
-0.254743623515
-0.31906975719
-0.386702464067
-0.452920707961
-0.51582521631
-0.57455134608
-0.62776230897
-0.6740423021
-3.7782188896
-3.75869111185
-3.577436429
-3.3654330738
-3.16271569693
-2.98776534992
-2.84114376023
-2.72021694081
-2.62296678857
-2.54878751719
-3.82874866429
-3.81952987628
-3.65298971471
-3.44321991244
-3.23895724979
-3.06066201475
-2.91098888421
-2.7873995859
-2.68837379933
-2.61477134826
-3.76630558827
-3.76766004989
-3.61800372215
-3.41299440263
-3.20764761952
-3.02615411827
-2.87340919947
-2.74702535419
-2.64502946101
-2.56810704362
-3.59860061286
-3.60872929731
-3.47789125241
-3.28009172322
-3.07485491701
-2.89060809309
-2.73473570685
-2.6055694532
-2.50056502342
-2.41888041498
-3.34201286512
-3.35859023577
-3.24674819435
-3.05924834773
-2.85691337315
-2.67186469702
-2.51414176955
-2.38308861171
-2.27602542144
-2.19103571371
-3.01893195588
-3.03989392559
-2.94583033438
-2.77215320802
-2.577408221
-2.39576842482
-2.23946257097
-2.1089980889
-2.00183310106
-1.9169256263
-2.65599909137
-2.6789265807
-2.60093096098
-2.44484073222
-2.26389363208
-2.09199190047
-1.94248639343
-1.81706086683
-1.71312519469
-1.63193749362
-2.27996170415
-2.30231443905
-2.23835265518
-2.10269862732
-1.94133286091
-1.78555405428
-1.64862383468
-1.53297997734
-1.43655727681
-1.36202972361
-1.91439814358
-1.93416029527
-1.88228981656
-1.76828280113
-1.6304347389
-1.49597176774
-1.37699927076
-1.27617425023
-1.19188712519
-1.13041946727
-1.57549152112
-1.59158591441
-1.54965933632
-1.45626735126
-1.34236829936
-1.23054197195
-1.13091698224
-1.04555784243
-0.971794844351
-0.916089794197
-1.27236670609
-1.28457040979
-1.25067916664
-1.17585194507
-1.08474103754
-0.995699785829
-0.917102335086
-0.850899393205
-0.794989797516
-0.746745820144
-1.00836344046
-1.01655207753
-0.989032239103
-0.929828632168
-0.858330615643
-0.789084871873
-0.728522016671
-0.677940248514
-0.636061759052
-0.597577546785
-0.782526261315
-0.786815522805
-0.764168276728
-0.717491853122
-0.661893349564
-0.608721757858
-0.562700778576
-0.524511792821
-0.493348061078
-0.464351571803
-0.592829920059
-0.593543418235
-0.574713525348
-0.538227081841
-0.495790863243
-0.45614036437
-0.422604072775
-0.39538812226
-0.373757578941
-0.354025853506
-0.437304919766
-0.434852507976
-0.419009091126
-0.390751553174
-0.359106440493
-0.330659057598
-0.307595504239
-0.28975109583
-0.276357263021
-0.264811698403
-0.314114129413
-0.308921807013
-0.295288007326
-0.27338543794
-0.250205092963
-0.230599265161
-0.215856606521
-0.205551099401
-0.198895866823
-0.19411840325
-0.221691739505
-0.214241472947
-0.202118283773
-0.184845439419
-0.167933309278
-0.154911388284
-0.146405502574
-0.141810709738
-0.140338971804
-0.140787556848
-0.158802792158
-0.149682256647
-0.13847254332
-0.124254424257
-0.111550094995
-0.102969904612
-0.0986950394666
-0.0980069677907
-0.100120651315
-0.104195674417
-0.12451157479
-0.114409979927
-0.103591120962
-0.0909693613028
-0.0805163539103
-0.0743291048105
-0.0723440941623
-0.0737852865664
-0.0778728701754
-0.0839684256361
-0.118089600649
-0.107787961789
-0.0969917967852
-0.0845475100432
-0.0744311402363
-0.0686413416514
-0.0670568338961
-0.068879789764
-0.0733331380815
-0.0798417733951
-0.463528394866
-0.351591091015
-0.344152865359
-0.353604996525
-0.371134684651
-0.39344835458
-0.417972480289
-0.443334838173
-0.469051602619
-0.494924329909
-0.366525828995
-0.320924408554
-0.33088192907
-0.347950273277
-0.36986062242
-0.394009074973
-0.419101198788
-0.444415556572
-0.46978750291
-0.495174089317
-0.290898694921
-0.296356368038
-0.320097096895
-0.3439735468
-0.368944775529
-0.394601430866
-0.420165803078
-0.445418816224
-0.470467044268
-0.495405877575
-0.235302957616
-0.275756885643
-0.310078546804
-0.339918927146
-0.368144164409
-0.395187171679
-0.421161372929
-0.446347676091
-0.471094286403
-0.495621076122
-0.194657865675
-0.257461718691
-0.300901813754
-0.336426760304
-0.367559833115
-0.395790390602
-0.422098069622
-0.447208526866
-0.471673203956
-0.495821008246
-0.165902219708
-0.240880976494
-0.29300026651
-0.33359767842
-0.367209966001
-0.396417689588
-0.422985878313
-0.448008271305
-0.472207671858
-0.496007120821
-0.146492385097
-0.227002640784
-0.286679743425
-0.33148675464
-0.367108923335
-0.397086928078
-0.423835782805
-0.448754092171
-0.472701848819
-0.496180717379
-0.134524066184
-0.216213095805
-0.282180813786
-0.330147340868
-0.367279699052
-0.397809236091
-0.424658677075
-0.449452957539
-0.473159462707
-0.496342935599
-0.128934608942
-0.210125362143
-0.279679185537
-0.329624387869
-0.367735066562
-0.398600584947
-0.425465088526
-0.450111987155
-0.47358474725
-0.496494845415
-0.128960392824
-0.208647028708
-0.279236885864
-0.329945347515
-0.368492760832
-0.39947270845
-0.426265178014
-0.450737915197
-0.473981526246
-0.496637698511
-0.676647179783
-0.47983446387
-0.405460647736
-0.382781730528
-0.383505139277
-0.397406417331
-0.41837514159
-0.442526887967
-0.468126574822
-0.494491737008
-0.631833564162
-0.456113477965
-0.395723228439
-0.378909874027
-0.382023594155
-0.397050005449
-0.418387303867
-0.442650129065
-0.468257372231
-0.49455265891
-0.600785826677
-0.436955865854
-0.386223532115
-0.374377639066
-0.380111943334
-0.396352897478
-0.418284158749
-0.442760916138
-0.468409369167
-0.494629724521
-0.566079862612
-0.413355445518
-0.374116355021
-0.368384741377
-0.37728446931
-0.395288010059
-0.41801204138
-0.442793932723
-0.468517879654
-0.494687925852
-0.524152266791
-0.381320165215
-0.357578171434
-0.360059359897
-0.373611460578
-0.393897828747
-0.417599937354
-0.442766807847
-0.468596197462
-0.494732934417
-2.48019674122
-2.54889793772
-2.52146502243
-2.40453313278
-2.2119940559
-1.98167050093
-1.71581880049
-1.47431269229
-1.24250603163
-1.041361541
-2.47762058796
-2.54354697173
-2.50924828958
-2.38534715486
-2.18839772756
-1.95704246321
-1.69535984318
-1.45502218528
-1.22496087174
-1.01175168245
-2.47963558188
-2.54420062199
-2.50462298171
-2.37300647129
-2.16861326943
-1.9251724443
-1.65568504218
-1.4007536584
-1.17121850662
-0.978600184103
-2.49019318859
-2.55561019211
-2.51199407664
-2.37085838266
-2.15436838645
-1.89439297223
-1.6177357639
-1.35560440553
-1.13272019299
-0.948545744226
-2.50972812613
-2.57626463851
-2.5284636754
-2.37786898503
-2.14927487225
-1.87609972846
-1.59324931052
-1.32735079223
-1.10227285584
-0.907534674224
0.458599053924
0.437603473392
0.406862957306
0.369284883514
0.326810314786
0.277983512724
0.220665666385
0.156938006836
0.100692922925
0.0797186215043
0.579858990811
0.575450836124
0.562018601497
0.540599181817
0.513245652014
0.479505390575
0.438065912131
0.390826757824
0.349127300417
0.334138931236
0.702133329975
0.702182114131
0.696557800045
0.685589010514
0.67014056562
0.649468550846
0.622380205761
0.590161194545
0.561748715592
0.552062866484
0.811319538346
0.815622034158
0.816850368955
0.814607614416
0.80893342342
0.798976451135
0.783636482347
0.763742717528
0.746234829212
0.740778465094
0.903206368946
0.911016521529
0.917440797338
0.921863188343
0.923812782173
0.922377865164
0.916507758445
0.906653114353
0.897978272451
0.895958103161
0.97485151483
0.985832465402
0.996751873458
1.00669219635
1.01482591264
1.02022364614
1.02192854181
1.02002896781
1.01793615646
1.01935324763
1.02611178093
1.03952845499
1.05389944488
1.06801290019
1.08076862069
1.09126088009
1.09862381977
1.10259582712
1.10521345704
1.10948963168
1.05725464399
1.07221343668
1.08885040457
1.1057130435
1.12150370283
1.1353485534
1.14642553603
1.1542365257
1.15996072256
1.16581591627
1.06832235189
1.08384199478
1.10148911173
1.1196187221
1.13682186887
1.15224015133
1.16507534005
1.17470431688
1.18187328608
1.18839027774
1.05882505576
1.0741112931
1.09152617174
1.10947632423
1.12655998446
1.14187135093
1.15457876293
1.16407695879
1.17109111645
1.17726067755
-2.37820053114
-2.45513561805
-2.55163626284
-2.66960304585
-2.8123851086
-2.98323604164
-3.18599256625
-3.39253122107
-3.58885141724
-3.6162541738
-2.12297056002
-2.20087350568
-2.29619949827
-2.4108703351
-2.54892980626
-2.71376289718
-2.90521226617
-3.11948744772
-3.32576401667
-3.35282995226
-1.80600702727
-1.88214015601
-1.97522033251
-2.08646754678
-2.21931716369
-2.37708301465
-2.56181288525
-2.77065245649
-2.967708388
-3.01441202856
-1.44737313093
-1.52297813052
-1.6144875548
-1.72255763746
-1.85002030646
-2.0002237265
-2.17556362259
-2.37231194262
-2.55414594085
-2.6145020706
-1.07684389267
-1.15373325456
-1.243826998
-1.34766685265
-1.4679513255
-1.60810280429
-1.77062059745
-1.95133915682
-2.11738022783
-2.17944178686
-0.729320971393
-0.804151860424
-0.889373670667
-0.985464877822
-1.09512130164
-1.22178519714
-1.36792029061
-1.52941298071
-1.67698118955
-1.7347767386
-0.420326708966
-0.487564796754
-0.563174671742
-0.647520876474
-0.743337825824
-0.853982407598
-0.981671977201
-1.12240586887
-1.25013614716
-1.3008822089
-0.139463053973
-0.196697709063
-0.261389091879
-0.333237553584
-0.415103170138
-0.510322877548
-0.620674698328
-0.742057362738
-0.851117929712
-0.894209452702
0.126741226146
0.078459902831
0.0203855833257
-0.0437605972701
-0.115781931405
-0.199013696952
-0.294962394463
-0.399537314426
-0.491997781098
-0.527845724613
0.352350625893
0.31093627
0.256234164546
0.196937883277
0.133684445901
0.0633216764881
-0.016359828457
-0.102299449429
-0.1773295855
-0.205804115739
0.945855141618
1.02634440247
0.979169565786
0.769604530476
0.819624805037
0.825754666623
0.820175426773
0.818542771968
0.781716586154
0.62728495409
0.931817068078
1.02169346648
0.980794181989
0.773993306544
0.816924489814
0.826000177649
0.823425088004
0.829231287546
0.811057683828
0.714625184639
0.919335726019
1.01659780225
0.981141838866
0.777832883078
0.814163250699
0.82545006973
0.826762587332
0.838914582312
0.83692790112
0.802064351066
0.908259944662
1.01120618527
0.980296362367
0.780877755271
0.811344070723
0.824097826727
0.828516112762
0.84601515761
0.856749325843
0.869369742901
0.898339320349
1.00567263838
0.978432686454
0.782957512634
0.808372983006
0.821927010372
0.828908831311
0.850493509273
0.872117410432
0.921359010037
0.889388266669
1.00013187064
0.975724523291
0.783928721405
0.805174581703
0.818973319683
0.827929400227
0.852355563607
0.884141695038
0.957986823978
0.881196643664
0.99467130755
0.972346361076
0.783757144595
0.801630202354
0.815246760855
0.825577679087
0.851387180729
0.890793217569
0.982682085877
0.873658716013
0.989379884086
0.96846266097
0.782392317745
0.797625883189
0.810749985275
0.821780396331
0.847803581588
0.891785885524
0.996231709667
0.866615075689
0.9842903363
0.964226711329
0.779868038711
0.793106275236
0.805466385026
0.816490212857
0.841754352946
0.887554618725
0.999094998809
0.860038218096
0.979457927209
0.959732196127
0.776201853262
0.788002103593
0.799394953702
0.809684480657
0.833324230466
0.878249632443
0.989423722741
1.08147521694
1.04293983877
0.982659940457
0.766339718822
0.821258058303
0.818844206668
0.799941479339
0.775399821636
0.683077401354
0.496276895958
1.02174498275
1.0355700526
0.981704036472
0.768160869407
0.820514055475
0.820052189465
0.801548203865
0.778385141761
0.689355425274
0.498894430677
1.00286252205
1.03550411492
0.983692566106
0.7679659076
0.820796126973
0.82137989752
0.804581358625
0.7843049528
0.703670998391
0.50381249441
0.980756422803
1.0332318833
0.981985719646
0.76766908675
0.821023507482
0.822831948777
0.808737634082
0.792792227173
0.723422708708
0.520346944566
0.961815917267
1.03015700351
0.97937258135
0.767316931878
0.821082330513
0.824326523813
0.8136204456
0.803581369143
0.747748647108
0.54078199576
0.146601430293
0.00540067320673
-0.192259466627
-0.467358731154
-0.802247648378
-1.15678121325
-1.49583401496
-1.80559570604
-2.0870916902
-2.32060105391
0.1388525833
-0.000340119295581
-0.187890259477
-0.449973390306
-0.772338218132
-1.12340385292
-1.46967402095
-1.79103861896
-2.07971228499
-2.31732570507
0.165899956009
0.0168015133524
-0.175758310206
-0.43145869096
-0.742424191715
-1.0908220531
-1.44726978794
-1.7807166529
-2.07626648516
-2.31775142937
0.225393444752
0.0528099053743
-0.159073274645
-0.415127846124
-0.71791203804
-1.06413229075
-1.42871906207
-1.77383422825
-2.0774014907
-2.32412315453
0.311367674271
0.109470211134
-0.132882138353
-0.399539450818
-0.701605781422
-1.04710960068
-1.41655470883
-1.77128351554
-2.08417610546
-2.33831246981
)
;

boundaryField
{
    left
    {
        type            zeroGradient;
    }
    right
    {
        type            fixedValue;
        value           uniform 0;
    }
    down
    {
        type            zeroGradient;
    }
    up
    {
        type            zeroGradient;
    }
    cylinder
    {
        type            zeroGradient;
    }
    defaultFaces
    {
        type            empty;
    }
}


// ************************************************************************* //
