# Selection   : all
# Cells       : 440
# Volume      : 7.374263e+01
# Time        	max(p)
6.515         	2.452710e+00
6.56          	2.445910e+00
6.61          	2.469484e+00
