/*--------------------------------*- C++ -*----------------------------------*\
  =========                 |
  \\      /  F ield         | OpenFOAM: The Open Source CFD Toolbox
   \\    /   O peration     | Website:  https://openfoam.org
    \\  /    A nd           | Version:  13
     \\/     M anipulation  |
\*---------------------------------------------------------------------------*/
FoamFile
{
    format      ascii;
    class       volScalarField;
    location    "0.82";
    object      p;
}
// * * * * * * * * * * * * * * * * * * * * * * * * * * * * * * * * * * * * * //

dimensions      [0 2 -2 0 0 0 0];

internalField   nonuniform List<scalar> 
440
(
7.82665
10.583
12.9455
13.1271
10.1509
20.7168
24.1001
27.0955
27.7959
25.9078
41.2534
44.2847
46.9877
47.7803
46.6193
67.3862
69.484
71.3974
72.054
71.3665
96.6625
97.4794
98.2764
98.6765
98.6429
-0.4516
-0.55152
-0.079888
0.481413
0.824459
-1.67597
-2.34291
-2.08386
-1.38876
-0.751149
-2.02013
-2.90298
-2.82726
-2.07453
-0.957928
-0.679285
-0.812409
-0.408879
0.553151
2.41678
3.08388
4.39517
5.82389
7.25439
9.50321
2.0862
2.26641
1.33531
0.679626
0.237143
1.05975
2.08031
1.21729
0.620908
0.231316
-0.0928099
1.67002
1.08787
0.575293
0.223932
-0.404182
1.06522
0.878579
0.542053
0.212685
1.50206
0.474727
0.594659
0.485802
0.190229
4.37208
0.246053
0.341365
0.414755
0.147597
6.718
0.709894
0.443729
0.409645
0.0843528
9.98244
2.44768
1.08858
0.541513
0.050845
13.8709
4.7467
2.13334
0.822268
0.0604761
16.6068
7.10803
3.45359
1.31001
0.164696
100.687
75.8384
53.3226
33.1475
12.3445
102.382
78.941
57.5359
39.056
23.482
104.283
82.7005
62.4736
45.2335
32.8868
105.166
85.0195
66.5013
51.182
40.6555
105.085
84.7421
66.3271
51.2496
40.895
219.867
216.385
216.089
218.205
220.937
202.687
200.22
200.478
203.219
206.511
180.539
178.766
179.129
181.552
184.43
154.74
153.397
153.602
155.195
157.092
126.859
126.146
126.085
126.545
127.138
235.594
236.026
236.668
237.098
236.845
236.156
236.794
237.354
237.335
236.384
234.935
235.911
236.327
236.054
235.068
230.047
231.645
232.207
232.341
232.249
221.565
223.427
224.436
225.643
226.997
235.713
234.729
234.894
234.142
234.278
235.678
234.712
234.841
234.095
234.797
235.666
234.671
234.776
234.204
235.307
235.668
234.604
234.766
234.455
234.893
235.674
234.517
234.834
234.653
232.207
235.689
234.37
234.882
234.427
228.723
235.886
234.23
234.77
233.929
226.353
236.794
234
234.144
232.247
223.332
240.842
233.978
232.966
229.79
219.66
249.814
234.705
231.744
227.246
216.91
217.76
196.234
175.026
151.731
126.445
207.363
191.368
172.323
150.419
126.65
198.875
186.195
168.613
148.086
126.332
191.743
180.783
165.098
146.26
125.918
191.526
180.763
165.353
146.659
126.149
96.3939
95.5171
95.0694
94.3025
94.1459
57.3119
55.365
53.6596
51.7378
50.9719
29.481
27.1377
24.375
22.0758
20.7513
15.0289
12.6123
10.1468
8.12648
7.15591
9.19925
7.31147
5.92462
4.94928
4.36208
5.96886
4.86685
4.28723
4.1987
4.28701
4.06006
3.60078
3.52897
3.68489
3.83861
2.7508
2.7376
2.97185
3.27573
3.43427
1.65031
1.95504
2.40721
2.75821
2.90306
0.605503
1.00188
1.57488
1.97745
2.15199
3.60826
3.1755
2.06237
0.953074
0.270852
3.66184
3.00376
1.97015
0.897144
0.260161
3.46224
2.74128
1.84106
0.846002
0.252413
3.14177
2.49721
1.67804
0.794646
0.24734
2.72675
2.3512
1.49507
0.73897
0.24251
4.47573
3.15826
1.97557
0.997983
0.306901
3.73927
3.25345
2.06453
0.989824
0.28531
94.9015
54.1419
27.504
14.4801
9.45981
93.6802
51.1325
22.9805
9.46444
5.25402
232.144
232.225
232.174
231.657
230.579
232.731
232.904
233.133
233.171
232.796
233.294
233.467
233.854
234.251
234.422
233.896
234.048
234.452
235.056
235.476
234.644
234.881
235.387
236.003
236.264
141.979
141.787
140.958
140.448
139.537
185.214
184.405
182.426
180.659
178.682
215.513
214.143
211.794
208.979
206.605
229.151
228.143
226.093
223.595
221.149
231.999
231.385
230.413
229.029
227.13
238.819
234.444
234.527
233.513
232.897
237.115
234.486
234.616
233.681
232.914
236.347
234.576
234.72
233.904
233.244
235.974
234.659
234.823
234.108
233.626
235.794
234.712
234.891
234.194
233.944
252.262
235.784
234.883
233.449
231.98
243.167
234.69
234.465
233.393
232.7
226.936
221.862
208.754
182.036
141.228
231.133
226.89
213.307
185.06
142.451
)
;

boundaryField
{
    left
    {
        type            zeroGradient;
    }
    right
    {
        type            fixedValue;
        value           uniform 0;
    }
    down
    {
        type            zeroGradient;
    }
    up
    {
        type            zeroGradient;
    }
    cylinder
    {
        type            zeroGradient;
    }
    defaultFaces
    {
        type            empty;
    }
}


// ************************************************************************* //
