/*--------------------------------*- C++ -*----------------------------------*\
  =========                 |
  \\      /  F ield         | OpenFOAM: The Open Source CFD Toolbox
   \\    /   O peration     | Website:  https://openfoam.org
    \\  /    A nd           | Version:  13
     \\/     M anipulation  |
\*---------------------------------------------------------------------------*/
FoamFile
{
    format      ascii;
    class       volScalarField;
    location    "0.82";
    object      strainRateViscosityModel:nu;
}
// * * * * * * * * * * * * * * * * * * * * * * * * * * * * * * * * * * * * * //

dimensions      [0 2 -1 0 0 0 0];

internalField   nonuniform List<scalar> 
440
(
9.41954
8.96973
8.54453
8.04239
7.5862
9.68995
9.35817
8.98178
8.48004
7.87557
9.80074
9.53084
9.15877
8.58509
7.84825
9.84962
9.61817
9.25861
8.64755
7.86606
9.86917
9.65606
9.30591
8.68093
7.90878
1.30794
1.79073
2.04998
2.30004
2.36413
3.38649
3.30217
3.31608
3.4241
3.49481
5.89256
5.27137
4.92752
4.72721
4.75683
7.76957
6.99346
6.42029
5.90458
5.82691
8.82064
8.15138
7.55211
6.91818
6.87149
1.85126
0.846211
0.423069
0.163326
0.171841
2.61535
0.907389
0.368473
0.133382
0.0592699
3.51149
1.14644
0.303143
0.0968371
0.0164373
4.09102
1.43412
0.276353
0.0534576
0.0686287
4.60383
1.75141
0.321931
0.011517
0.177807
4.22927
1.73976
0.306006
0.0730582
0.284022
3.71174
1.82481
0.632389
0.309243
0.41488
4.91992
3.20833
1.24212
0.557125
0.528389
7.00947
4.28815
1.91772
0.899335
0.648965
8.27284
5.07616
2.49629
1.30381
0.825008
2.84821
3.68253
4.61963
5.50548
6.14871
3.68375
3.69667
3.77229
3.85228
3.36792
8.22649
8.08653
7.7993
7.38544
6.34647
9.0529
8.99236
8.85903
8.62148
8.16015
9.60671
9.56995
9.48702
9.33805
9.1188
7.50321
8.01244
8.55946
9.01088
9.46417
7.794
8.45167
8.98715
9.37788
9.70863
7.779
8.55906
9.15943
9.54077
9.80944
7.81628
8.62756
9.25739
9.62275
9.85359
7.89134
8.67366
9.30535
9.65743
9.87034
2.53383
2.47485
2.27491
2.12052
2.04951
3.48044
3.43251
3.47321
3.69341
4.24699
4.63573
4.65903
5.04958
5.59942
6.45195
5.68331
5.82547
6.49722
7.18781
8.04117
6.75304
6.84154
7.58028
8.24268
8.93535
0.211296
0.0615871
0.283757
0.872427
2.02782
0.183568
0.0771648
0.229059
0.890165
2.66072
0.16443
0.0797831
0.171457
1.08151
3.44009
0.152605
0.0624915
0.156152
1.38569
3.94137
0.155013
0.0677723
0.248404
1.73401
4.36396
0.203974
0.105709
0.272424
1.86888
4.10037
0.336373
0.123547
0.278389
1.8147
3.8619
0.667091
0.242086
0.773781
3.03751
4.90838
2.27512
0.814382
1.50877
4.16241
6.96072
5.05745
2.53715
2.41929
5.03766
8.27914
5.94686
5.26592
4.40223
3.51033
2.77977
3.52245
3.99124
3.97105
3.8764
3.76366
6.32106
7.35232
7.77901
8.06768
8.21846
8.1212
8.59992
8.84943
8.98861
9.05202
9.11694
9.33781
9.48741
9.57051
9.60696
9.31089
7.91689
1.39867
3.63024
7.73684
9.08188
7.44084
3.20601
1.64078
6.78909
8.39873
6.57776
4.20854
1.0036
4.14773
6.81572
5.0948
3.45532
1.70073
1.03873
4.50391
3.14532
2.0388
1.37799
0.460074
2.5974
1.61865
1.00253
0.79715
0.926744
1.45649
0.779235
0.580133
0.613466
0.686123
0.801248
0.406487
0.591585
0.760369
0.833627
0.305317
0.508943
0.886278
1.05208
1.11346
0.163115
0.935561
1.28168
1.51805
1.57258
0.190526
0.363001
0.710707
0.777868
0.730636
0.396095
0.501848
0.579783
0.637271
0.621523
0.615283
0.649017
0.465876
0.493895
0.508674
0.967444
0.797831
0.418984
0.354965
0.393695
1.33167
0.84771
0.424977
0.238417
0.277348
1.10579
0.858801
1.1241
1.10873
0.99565
0.283627
0.472257
0.866519
0.920713
0.843957
9.19119
8.83869
7.75886
5.7303
3.55979
8.58732
7.72295
5.85164
3.49151
0.865963
0.964555
0.858213
1.02677
1.62021
2.65827
0.813065
0.767056
0.703598
0.824464
1.52673
1.05943
1.01068
0.847435
0.5529
0.744882
1.38472
1.34771
1.14979
0.798102
0.228778
1.85707
1.8104
1.55822
1.24016
0.59844
7.73637
3.62718
1.39995
7.91512
9.31103
6.78528
1.64058
3.20265
7.43775
9.08252
4.13437
1.01086
4.19439
6.57317
8.40031
1.03684
1.70536
3.43373
5.0857
6.82222
0.476024
1.37624
2.01482
3.12772
4.52677
1.3123
0.541371
0.550803
0.452714
0.175783
0.678473
0.290503
0.46861
0.519267
0.485473
0.400673
0.152478
0.381788
0.621181
0.804006
0.291237
0.0686657
0.341744
0.774083
1.224
0.246727
0.0458325
0.320126
0.859874
1.58945
5.48138
2.46054
1.03479
0.959586
1.14174
2.88793
1.08749
0.724202
0.554646
0.252275
3.56822
5.73583
7.76004
8.83922
9.19134
0.843688
3.47224
5.84506
7.72158
8.58717
)
;

boundaryField
{
    left
    {
        type            calculated;
        value           nonuniform List<scalar> 
17
(
0.458964
1.12439
2.18649
3.91002
6.58053
0.304971
0.1891
0.138347
0.143761
0.214302
2.95947
2.06229
1.34028
0.82197
0.50065
6.97885
4.57979
)
;
    }
    right
    {
        type            calculated;
        value           nonuniform List<scalar> 
17
(
0.995942
0.845408
0.732777
0.624467
0.511144
0.393138
0.270792
0.158008
0.0472694
0.014648
0.0840376
0.2288
0.347906
0.469093
0.56197
0.661948
0.816988
)
;
    }
    down
    {
        type            calculated;
        value           nonuniform List<scalar> 
20
(
5.99525
2.99986
1.14434
1.04213
1.85311
4.27033
6.38392
8.13149
9.01584
9.30929
9.30912
9.01519
8.13
6.37988
4.26418
1.83175
0.933356
1.19055
1.16564
1.04272
)
;
    }
    up
    {
        type            calculated;
        value           nonuniform List<scalar> 
20
(
8.54863
5.40418
2.72574
1.45398
0.891459
9.69562
9.66615
9.59857
9.47421
9.2934
9.2964
9.47647
9.60018
9.66726
9.69603
5.70536
3.14823
2.65935
5.39348
8.56556
)
;
    }
    cylinder
    {
        type            calculated;
        value           nonuniform List<scalar> 
40
(
1.37451
3.5915
6.11885
7.9603
8.95703
9.50511
9.74576
9.84079
9.88145
9.89745
9.54742
9.76283
9.84855
9.88495
9.89848
2.28803
4.52477
6.69888
8.23419
9.06984
3.04371
1.85054
1.09468
0.446986
0.60558
9.51906
9.33191
8.74236
7.26983
4.98627
9.51889
9.33117
8.7403
7.26159
4.9577
2.96601
1.73361
1.07397
0.667379
0.103173
)
;
    }
    defaultFaces
    {
        type            empty;
    }
}


// ************************************************************************* //
