/*--------------------------------*- C++ -*----------------------------------*\
  =========                 |
  \\      /  F ield         | OpenFOAM: The Open Source CFD Toolbox
   \\    /   O peration     | Website:  https://openfoam.org
    \\  /    A nd           | Version:  13
     \\/     M anipulation  |
\*---------------------------------------------------------------------------*/
FoamFile
{
    format      ascii;
    class       volVectorField;
    location    "2.625";
    object      U;
}
// * * * * * * * * * * * * * * * * * * * * * * * * * * * * * * * * * * * * * //

dimensions      [0 1 -1 0 0 0 0];

internalField   nonuniform List<vector> 
440
(
(-0.10056 0.0743644 -9.18837e-20)
(-0.142671 0.149215 1.0171e-19)
(0.0436988 0.1749 1.3733e-20)
(0.436018 0.181959 4.22147e-19)
(0.778063 0.146823 2.73351e-21)
(-0.1084 0.0570488 3.21079e-20)
(0.0603965 0.0221885 -1.56306e-19)
(0.614044 -0.0273119 -9.52563e-20)
(1.22461 -0.066516 5.23101e-20)
(1.80279 -0.104631 -9.74577e-21)
(-0.0327535 0.00953628 6.20458e-20)
(0.563582 -0.0463095 8.08397e-19)
(1.38978 -0.0507846 -4.37249e-19)
(2.00289 -0.0295568 -1.37635e-18)
(2.44331 -0.0278749 5.77042e-19)
(0.199756 -0.0453568 -1.87286e-19)
(1.26507 0.000560325 -5.76661e-19)
(2.04909 0.0619998 1.92881e-18)
(2.43774 0.0950508 2.1001e-18)
(2.51219 0.105516 -5.95771e-19)
(0.581639 -0.00469587 -3.20573e-19)
(1.80113 0.183431 -6.76422e-19)
(2.35154 0.260871 2.06515e-18)
(2.50449 0.27486 2.22327e-18)
(2.58428 0.253957 7.45193e-19)
(-0.0412744 0.330188 1.80479e-19)
(-0.153291 0.453939 6.88191e-20)
(-0.248692 0.423915 -2.89398e-19)
(-0.328473 0.366595 3.1215e-20)
(-0.373795 0.302826 1.11129e-20)
(-0.0973423 0.432102 -1.94104e-20)
(-0.201874 0.62773 -2.59659e-19)
(-0.263333 0.597439 7.24223e-20)
(-0.29834 0.521026 7.20276e-20)
(-0.294496 0.433117 -1.35591e-19)
(-0.139002 0.41268 -2.46998e-19)
(-0.21729 0.705069 1.5155e-19)
(-0.215055 0.704056 -9.77622e-20)
(-0.168521 0.596758 -6.36537e-19)
(-0.102901 0.473364 4.92805e-21)
(-0.12118 0.249891 -2.81165e-20)
(-0.193614 0.563158 2.16599e-20)
(-0.167072 0.646792 5.76053e-20)
(-0.0857425 0.592513 3.67257e-19)
(0.037506 0.451123 -7.42933e-20)
(-0.0898311 0.112682 -6.62719e-20)
(-0.182065 0.317422 -8.4504e-20)
(-0.154983 0.426251 -6.73056e-20)
(-0.0490678 0.43353 -8.74339e-20)
(0.218594 0.362418 -3.71831e-19)
(-0.390466 -0.0927931 -9.90039e-19)
(0.171892 -0.422462 3.2593e-19)
(0.613161 -0.296872 4.29172e-21)
(0.85158 -0.194231 -1.79388e-21)
(1.00569 -0.0894901 -2.8035e-21)
(0.0388733 -0.177466 1.3968e-18)
(0.391161 -0.555787 -1.36533e-19)
(0.714856 -0.390548 4.20639e-20)
(0.90244 -0.245584 3.55594e-20)
(1.02332 -0.109406 1.05153e-20)
(0.689004 -0.28256 5.29346e-19)
(0.820754 -0.61718 7.36772e-19)
(0.920237 -0.447407 -3.74685e-20)
(0.994221 -0.280413 6.78306e-20)
(1.05173 -0.123519 -3.97637e-21)
(1.26638 -0.422658 -3.1049e-19)
(1.26912 -0.644068 -2.95099e-19)
(1.18774 -0.458069 -4.48967e-20)
(1.12511 -0.287943 -8.05635e-20)
(1.09244 -0.127684 2.43485e-20)
(1.62269 -0.550738 -1.2926e-19)
(1.57826 -0.656432 -6.43953e-19)
(1.40584 -0.442981 0)
(1.257 -0.268777 8.33459e-20)
(1.13861 -0.119662 1.45709e-20)
(2.2364 -0.54586 -4.38571e-19)
(1.91581 -0.614256 2.16743e-19)
(1.58771 -0.408113 -1.12761e-20)
(1.36858 -0.226466 6.73306e-20)
(1.18298 -0.0972386 -5.24973e-20)
(2.33349 -0.537804 4.4473e-20)
(1.79016 -0.473907 1.21546e-19)
(1.38794 -0.24751 -9.28916e-21)
(1.23454 -0.124191 -6.72999e-20)
(1.12772 -0.0558281 0)
(2.27833 -0.365435 -4.94489e-19)
(1.8824 -0.324787 1.57302e-20)
(1.5044 -0.177551 -9.88808e-20)
(1.2986 -0.0987265 3.00338e-20)
(1.14559 -0.0450539 -1.45978e-20)
(2.12599 -0.29272 7.38251e-20)
(1.63659 -0.22329 9.91615e-20)
(1.30469 -0.0545995 -2.39117e-20)
(1.15559 0.00144356 -2.58525e-34)
(1.04993 -0.00118233 1.20249e-20)
(1.29707 -0.078198 1.53792e-19)
(0.758236 -0.0243381 5.33121e-21)
(0.606092 0.00729452 -3.45037e-21)
(0.617292 0.00695429 -5.47877e-21)
(0.625428 0.00129542 -9.85697e-22)
(2.44127 0.267496 -9.30531e-19)
(2.66421 0.0472756 -1.14409e-18)
(2.44567 0.0711469 7.94801e-19)
(2.73596 -0.164397 5.99451e-20)
(2.08439 0.0142205 -1.51367e-20)
(2.19742 0.175761 7.62232e-20)
(2.45067 0.0233678 -4.06154e-20)
(2.31027 0.0188661 -1.42305e-19)
(2.5158 -0.157517 -1.86129e-19)
(2.3673 -0.183738 -7.91045e-21)
(2.15517 0.0935259 8.26883e-20)
(2.25441 0.0250621 9.26767e-20)
(2.26151 -0.0277187 -1.20435e-19)
(2.30747 -0.103177 4.59216e-20)
(2.32345 -0.169483 9.36809e-21)
(2.10404 0.0288358 1.23115e-19)
(2.11553 -0.00506604 1.5246e-19)
(2.20025 -0.0441742 -2.06278e-20)
(2.17453 -0.0877312 -4.40616e-20)
(2.24985 -0.125898 3.36361e-20)
(1.60454 -0.0197259 1.86139e-19)
(1.56555 -0.0185127 -1.32497e-20)
(1.62143 -0.0357156 2.4772e-20)
(1.53531 -0.0331882 -2.55231e-20)
(1.59735 -0.0569284 1.13152e-20)
(1.63907 0.917596 1.20024e-18)
(1.59305 1.01334 -3.62588e-19)
(1.59525 1.14138 -1.39422e-18)
(1.52814 1.18112 7.79689e-19)
(0.944698 0.855686 -1.87532e-19)
(1.93494 0.854776 -6.05398e-19)
(1.90698 0.936082 -3.24899e-18)
(1.90626 1.04575 -1.26409e-18)
(1.81884 1.05185 -4.339e-19)
(1.1126 0.736157 -7.13092e-19)
(2.20076 0.733685 8.7e-19)
(2.19222 0.801828 2.05212e-19)
(2.18578 0.887113 -2.51574e-18)
(2.048 0.866461 -6.90753e-19)
(1.20173 0.568526 4.82934e-19)
(2.39571 0.602371 2.53331e-18)
(2.38227 0.648529 1.82977e-18)
(2.36754 0.698226 -2.07699e-18)
(2.14531 0.649057 -1.59327e-18)
(1.16038 0.368097 -2.77097e-19)
(2.50302 0.425414 1.21972e-18)
(2.52237 0.452789 -8.53069e-19)
(2.4412 0.473721 6.22734e-19)
(2.08342 0.409849 4.77017e-19)
(0.957073 0.158093 -4.03108e-19)
(0.563928 0.49033 -5.04093e-19)
(0.477343 0.527063 -3.78443e-19)
(0.362332 0.568053 3.93918e-20)
(0.228256 0.591181 5.87061e-21)
(0.0584395 0.436763 9.68122e-20)
(0.669304 0.683896 1.76577e-19)
(0.60523 0.753145 -2.14685e-19)
(0.52043 0.829734 1.87665e-19)
(0.398823 0.876131 -8.9034e-20)
(0.175055 0.653549 1.24202e-19)
(0.813869 0.837681 8.1686e-20)
(0.738854 0.916595 5.1603e-19)
(0.680956 1.01996 1.3161e-19)
(0.597024 1.0809 -3.32789e-19)
(0.327607 0.805945 2.8259e-19)
(1.08721 0.950647 3.10521e-19)
(1.03614 1.04332 -8.74879e-19)
(0.981822 1.14438 -2.2009e-18)
(0.897494 1.20164 8.71445e-19)
(0.530929 0.892328 -1.72571e-19)
(1.22819 0.957244 -1.39033e-19)
(1.24533 1.08342 -2.1757e-19)
(1.25836 1.20606 -3.85178e-19)
(1.20017 1.24642 -4.47565e-19)
(0.737427 0.909928 -7.15547e-21)
(0.930618 0.0281839 -1.05704e-19)
(1.06767 0.0555399 -3.75458e-20)
(1.00607 0.139661 -2.10444e-21)
(0.948366 0.179247 -3.44054e-19)
(0.86833 0.304715 2.84458e-19)
(0.930153 0.022642 7.15799e-20)
(1.07059 0.0568121 1.31202e-19)
(1.00796 0.145695 1.25424e-19)
(0.976941 0.216403 5.03897e-20)
(0.931553 0.374243 -3.20198e-20)
(0.933566 0.0184629 9.7722e-20)
(1.063 0.0542678 -4.72036e-21)
(1.04508 0.160677 -4.97314e-21)
(0.935879 0.221128 1.71595e-19)
(1.16775 0.525021 -4.7528e-19)
(0.933955 0.0144858 -1.43332e-21)
(1.0686 0.0514363 -1.69875e-19)
(1.0448 0.174974 -6.6706e-20)
(1.01775 0.232479 -4.33237e-19)
(1.20256 0.540009 1.15995e-19)
(0.933953 0.0102698 -2.11828e-20)
(1.06692 0.0529338 4.56358e-20)
(1.08282 0.180812 3.27582e-20)
(0.995928 0.246958 4.72806e-19)
(1.48869 0.69652 -4.48623e-19)
(0.918213 0.00706443 -1.72026e-20)
(1.0985 0.0374791 9.01899e-20)
(1.07202 0.202788 -9.03968e-20)
(1.15213 0.186435 8.40028e-19)
(1.38259 0.651743 -4.24767e-19)
(0.916876 -0.0104684 -2.11852e-21)
(1.11203 0.0278507 -8.11501e-20)
(1.06822 0.157527 4.8454e-21)
(1.2516 0.160845 -2.73041e-19)
(1.45172 0.427967 1.37874e-20)
(0.925186 -0.0174289 -6.54838e-21)
(1.09997 0.0189386 1.28637e-35)
(1.11261 0.119786 -4.27905e-20)
(1.3006 0.0937372 9.08443e-20)
(1.48606 0.307856 1.63424e-19)
(0.939477 -0.0428634 5.02158e-21)
(1.05618 -0.0110476 -2.41903e-20)
(1.15853 0.04677 1.8698e-20)
(1.25336 0.0546703 3.49738e-20)
(1.50126 0.19428 -2.46946e-19)
(0.885402 -0.0230684 -3.58115e-20)
(0.873214 -0.0219351 -2.37869e-21)
(0.891331 0.00536274 2.83593e-20)
(0.92109 0.00702365 -1.53185e-20)
(1.16791 0.0589059 -5.61047e-20)
(1.87195 0.730897 3.53853e-19)
(1.96278 0.701094 8.61763e-19)
(2.22276 0.595585 -1.20459e-18)
(2.27731 0.525438 7.13313e-20)
(2.50029 0.330281 4.9243e-19)
(1.77197 0.500859 2.97621e-20)
(1.82434 0.443863 9.7526e-19)
(2.01715 0.407306 9.63002e-20)
(2.03389 0.326442 -9.74924e-19)
(2.26845 0.217963 -3.06942e-19)
(1.71064 0.341157 -2.1035e-19)
(1.80685 0.279323 -1.5433e-19)
(1.91937 0.272986 1.8936e-19)
(2.00023 0.194704 -3.15011e-19)
(2.1217 0.155873 2.81227e-19)
(1.69232 0.206325 3.41113e-19)
(1.78691 0.162154 -4.3254e-21)
(1.85745 0.153814 2.3397e-19)
(1.96043 0.0983795 2.07888e-19)
(2.00833 0.0763714 -1.99604e-19)
(1.36915 0.0487584 -4.11019e-20)
(1.43633 0.0292332 2.3564e-19)
(1.48579 0.0212911 1.11508e-19)
(1.54365 0.00136601 -2.36524e-19)
(1.55222 -0.00271674 3.90624e-22)
(1.0676 -0.0179841 5.54767e-20)
(2.04016 -0.0483159 -3.69566e-19)
(2.27593 -0.0380983 1.01452e-18)
(2.2517 -0.00154718 4.40456e-19)
(2.12539 0.0320343 -3.09901e-19)
(0.658908 0.0894475 9.52962e-20)
(1.82026 0.0762948 -3.7155e-19)
(2.28042 0.0753441 -4.85303e-19)
(2.36605 0.0851576 5.6023e-19)
(2.09144 0.0692024 -3.1816e-19)
(0.200966 0.0703207 -2.1583e-20)
(1.19091 0.129205 3.85272e-19)
(1.92371 0.142122 5.12446e-20)
(2.30362 0.125568 2.20877e-19)
(2.54012 0.126123 4.26842e-20)
(-0.0354392 -0.0207094 1.73243e-19)
(0.41003 0.0655651 1.74489e-19)
(1.14666 0.123432 -3.58126e-19)
(1.616 0.139795 1.42275e-20)
(2.16627 0.153489 -1.19355e-19)
(-0.0817252 -0.0592683 1.22762e-19)
(-0.00448607 -0.0348069 -1.4298e-19)
(0.363306 0.0240309 -3.30999e-20)
(0.825318 0.0383183 1.72063e-20)
(1.09804 0.0420888 -6.76675e-20)
(-0.0473609 -0.0438302 -4.11673e-20)
(-0.0908317 -0.105179 9.31834e-20)
(-0.0188894 -0.134086 9.02451e-20)
(0.152704 -0.128441 -1.08304e-19)
(0.380057 -0.1284 -8.26806e-21)
(-0.0482346 -0.0961048 -1.16464e-21)
(-0.0931452 -0.22937 -7.54462e-22)
(-0.0844569 -0.273915 9.71245e-21)
(-0.0365252 -0.256447 4.90293e-20)
(0.0579037 -0.214567 2.56091e-20)
(-0.0540624 -0.108283 -6.92415e-21)
(-0.139922 -0.187311 -2.07886e-19)
(-0.189953 -0.173723 1.9268e-19)
(-0.21729 -0.140166 4.49609e-19)
(-0.211342 -0.11536 -5.45658e-20)
(-0.0186727 0.0215942 1.43489e-20)
(-0.130907 0.00659477 7.49834e-20)
(-0.230464 -0.00718832 -1.83701e-19)
(-0.306045 -0.0101054 -1.857e-19)
(-0.346889 -0.0104749 -9.42193e-21)
(-0.00817736 0.180573 -4.21409e-21)
(-0.113791 0.237621 1.79221e-20)
(-0.217552 0.21802 -1.14871e-20)
(-0.30638 0.188215 4.36092e-20)
(-0.361675 0.154507 1.06988e-19)
(1.35561 0.291084 -2.60107e-20)
(1.31569 0.0702828 8.39253e-19)
(1.11232 0.0434728 -5.79162e-20)
(0.981911 0.0600457 -3.89287e-20)
(1.01611 0.0256053 -3.33345e-22)
(0.81078 0.163325 8.21497e-20)
(0.607683 0.120748 -3.93726e-19)
(0.711773 0.0801167 -1.6742e-19)
(0.834093 0.0289112 -7.27886e-21)
(0.990512 -0.00114812 -9.26733e-21)
(-0.00673672 0.101812 1.35445e-19)
(0.165835 0.06035 -6.72843e-19)
(0.567442 -0.00530987 2.00328e-20)
(0.801512 -0.0196609 7.71945e-20)
(0.983901 -0.0163322 3.95555e-21)
(-0.410186 0.0362239 1.04417e-19)
(0.105361 -0.0733382 -2.96412e-20)
(0.56042 -0.098136 5.66221e-20)
(0.807417 -0.0827155 1.23793e-21)
(0.987408 -0.045146 4.42284e-21)
(-0.492242 -0.0241995 7.95015e-20)
(0.118633 -0.244984 1.21318e-19)
(0.578289 -0.195 -3.0025e-20)
(0.825774 -0.137067 -2.75767e-21)
(0.994897 -0.0664899 6.33273e-21)
(0.699983 0.0981021 -5.6323e-20)
(0.252324 -0.0582269 0)
(0.331568 -0.0812364 -2.71751e-20)
(0.459735 -0.0568825 3.67501e-20)
(0.552842 -0.0212731 -1.04804e-21)
(1.80503 0.362525 0)
(1.65747 0.184475 0)
(1.50843 0.0147467 3.28923e-19)
(1.23794 -0.00968721 4.24511e-20)
(1.06922 -0.00146248 6.07708e-22)
(0.68325 -0.000466242 -1.17289e-19)
(0.71675 -0.00473392 1.84778e-19)
(0.916003 -0.0200188 -2.34937e-20)
(1.04471 0.00348303 2.22578e-19)
(1.35254 0.0293786 1.49033e-19)
(1.55389 0.0197043 1.10859e-19)
(1.64188 0.0654944 2.00847e-19)
(1.88991 0.00202029 -8.83696e-21)
(2.44356 0.142872 -1.06391e-19)
(2.0661 0.0263159 -5.56345e-20)
(0.843677 -0.40848 -4.04014e-20)
(0.817982 -0.488168 -1.30559e-19)
(0.799051 -0.576302 -7.73754e-20)
(0.725448 -0.637918 4.72395e-20)
(0.434251 -0.497043 1.09238e-19)
(0.730981 -0.315264 1.16882e-19)
(0.677766 -0.374092 2.5597e-19)
(0.606785 -0.438419 -1.8493e-20)
(0.496033 -0.489629 1.16042e-19)
(0.263294 -0.385675 4.96519e-20)
(0.59528 -0.17652 -1.45416e-19)
(0.510353 -0.208656 -4.1381e-20)
(0.409648 -0.250823 1.3835e-19)
(0.294964 -0.290565 -3.3436e-21)
(0.124722 -0.2347 -9.52334e-20)
(0.512483 0.0516819 -3.93728e-19)
(0.430703 0.0432503 -3.35327e-19)
(0.324306 0.0244642 2.69131e-19)
(0.201098 -0.00794 1.8076e-19)
(0.0481069 -0.0320575 1.36547e-20)
(0.498665 0.250211 -1.68534e-19)
(0.417023 0.262618 -1.6645e-19)
(0.307428 0.276228 -8.13352e-20)
(0.177438 0.284569 6.69894e-21)
(0.0230826 0.205435 9.56913e-21)
(1.88063 -0.0388595 6.69804e-19)
(2.14411 -0.0981373 2.15298e-19)
(2.19933 -0.176138 -6.00179e-19)
(2.04598 -0.203364 -1.24692e-18)
(1.21652 -0.170462 1.08258e-19)
(1.86618 -0.106452 1.13812e-18)
(1.93737 -0.211288 1.53012e-18)
(1.95308 -0.325527 1.30117e-19)
(1.8694 -0.382746 2.31184e-19)
(1.18629 -0.327055 -1.52122e-19)
(1.5914 -0.25572 -2.94243e-18)
(1.65436 -0.365678 3.087e-19)
(1.69142 -0.480738 9.27558e-19)
(1.62166 -0.549724 -3.3687e-19)
(1.04247 -0.458109 5.39783e-19)
(1.39055 -0.364962 6.78583e-19)
(1.40279 -0.454497 -1.8236e-18)
(1.38403 -0.56184 -2.0578e-18)
(1.30983 -0.640723 6.201e-19)
(0.838031 -0.522235 4.47799e-19)
(1.13085 -0.407804 1.24032e-19)
(1.08621 -0.493516 2.14863e-19)
(1.06501 -0.602686 -3.07682e-19)
(1.00003 -0.679513 -3.72836e-19)
(0.625698 -0.536036 -3.39488e-21)
(0.948257 0.0443474 6.07648e-21)
(1.04452 0.0741309 -3.96354e-21)
(1.04062 0.0584777 -1.44595e-20)
(0.780729 0.00808788 -1.60548e-19)
(1.03874 -0.153737 -8.67265e-21)
(0.94879 0.0452872 -2.68714e-21)
(1.04045 0.0710816 5.03848e-20)
(1.0576 0.0904036 -6.03101e-20)
(0.841009 0.0453247 6.8248e-20)
(0.914912 -0.049024 -1.79081e-20)
(0.947952 0.0405622 -5.8882e-20)
(1.03483 0.0659553 3.93597e-22)
(1.06107 0.102367 -2.1497e-20)
(0.846542 0.0821994 -1.26035e-20)
(0.88315 0.00512466 -1.32617e-19)
(0.941294 0.037703 7.89555e-20)
(1.04697 0.0585644 3.98756e-21)
(1.03285 0.120163 3.47974e-20)
(0.899714 0.111924 5.58189e-20)
(0.807839 0.110601 1.09408e-19)
(0.934365 0.0330373 1.94145e-20)
(1.06058 0.0570223 -3.29959e-20)
(1.00998 0.127992 4.42546e-20)
(0.937264 0.15266 9.22194e-20)
(0.797001 0.200492 -1.22956e-19)
(0.860253 0.0333196 0)
(0.758725 0.0297248 1.08903e-20)
(0.556841 0.0175468 2.34969e-22)
(0.493815 -0.00904275 3.60236e-20)
(0.644845 -0.0394154 -1.18945e-19)
(0.941885 0.0651266 -5.92839e-20)
(1.03823 0.0846249 -1.7269e-20)
(0.921093 0.0464845 -2.36182e-20)
(0.873245 0.000924644 -9.00696e-20)
(0.947944 -0.146781 -1.23579e-19)
(0.895578 -0.0488192 -2.47457e-20)
(0.96971 -0.0155303 4.31679e-19)
(1.03904 0.0460325 2.64294e-19)
(0.904488 0.0523978 3.2348e-20)
(0.693705 0.0258035 0)
(1.20018 -0.276534 2.54121e-19)
(1.30659 -0.247834 1.2348e-18)
(1.47283 -0.135392 -1.36701e-18)
(1.56154 -0.0143231 -4.15029e-19)
(1.45369 0.0257697 3.1739e-19)
)
;

boundaryField
{
    left
    {
        type            fixedValue;
        value           uniform (1 0 0);
    }
    right
    {
        type            zeroGradient;
    }
    down
    {
        type            noSlip;
    }
    up
    {
        type            noSlip;
    }
    cylinder
    {
        type            noSlip;
    }
    defaultFaces
    {
        type            empty;
    }
}


// ************************************************************************* //
