/*--------------------------------*- C++ -*----------------------------------*\
  =========                 |
  \\      /  F ield         | OpenFOAM: The Open Source CFD Toolbox
   \\    /   O peration     | Website:  https://openfoam.org
    \\  /    A nd           | Version:  13
     \\/     M anipulation  |
\*---------------------------------------------------------------------------*/
FoamFile
{
    format      ascii;
    class       surfaceScalarField;
    location    "1";
    object      phi;
}
// * * * * * * * * * * * * * * * * * * * * * * * * * * * * * * * * * * * * * //

dimensions      [0 3 -1 0 0 0 0];

internalField   nonuniform List<scalar> 
3485
(
0.00137168
-0.0112579
0.00988626
0.00505118
-0.0319067
0.0282272
0.0107642
-0.0513828
0.0456698
0.0183125
-0.0696769
0.0621285
0.0275453
-0.0868351
0.0776023
0.0383483
-0.102901
0.0920983
0.0506328
-0.117907
0.105622
0.0643558
-0.131871
0.118148
0.0796147
-0.144862
0.129603
-0.156896
0.139505
0.0970055
0.00150034
-0.0127583
0.00544584
-0.0358522
0.0114762
-0.0574132
0.0193235
-0.0775242
0.0287728
-0.0962843
0.0396466
-0.113775
0.0518006
-0.130061
0.065127
-0.145198
0.0795342
-0.159269
-0.172198
0.0948361
0.00147419
-0.0142325
0.005327
-0.039705
0.0111745
-0.0632607
0.0187208
-0.0850705
0.0277252
-0.105289
0.0379883
-0.124038
0.0493441
-0.141416
0.061653
-0.157507
0.074783
-0.172399
-0.186038
0.0886224
0.00133887
-0.0155713
0.00485904
-0.0432251
0.0102109
-0.0686125
0.0171171
-0.0919767
0.0253538
-0.113525
0.0347401
-0.133424
0.0451299
-0.151806
0.0564032
-0.16878
0.0684532
-0.184449
-0.198791
0.0812066
0.00116694
-0.0167383
0.004256
-0.0463142
0.00897314
-0.0733296
0.0150817
-0.0980852
0.0223916
-0.120835
0.0307522
-0.141785
0.0400458
-0.1611
0.0501797
-0.178914
0.0610763
-0.195346
-0.210402
0.0726877
0.000980025
-0.0177183
0.00358795
-0.0489221
0.0075866
-0.0773283
0.0127839
-0.103283
0.019026
-0.127077
0.0261924
-0.148951
0.0341911
-0.169099
0.0429529
-0.187676
0.0524228
-0.204816
-0.220549
0.0625696
0.000780725
-0.018499
0.002865
-0.0510064
0.00606896
-0.0805322
0.0102428
-0.107456
0.0152664
-0.132101
0.0210466
-0.154732
0.027514
-0.175566
0.0346201
-0.194782
0.0423308
-0.212526
-0.228851
0.0506322
0.000569701
-0.0190687
0.00209345
-0.0525302
0.00443785
-0.0828766
0.00749263
-0.110511
0.0111686
-0.135777
0.0153967
-0.15896
0.0201273
-0.180297
0.0253292
-0.199984
0.0309862
-0.218183
-0.234967
0.0371027
0.000352504
-0.0194212
0.00129575
-0.0534734
0.00274499
-0.0843259
0.00462829
-0.112394
0.00688641
-0.138035
0.00947299
-0.161546
0.0123552
-0.183179
0.0155141
-0.203143
0.0189446
-0.221614
-0.238684
0.0226613
0.000137792
-0.019559
0.000502451
-0.0538381
0.00105694
-0.0848804
0.0017695
-0.113107
0.00261367
-0.138879
0.00356833
-0.162501
0.00461802
-0.184229
0.00575321
-0.204278
0.00697046
-0.222831
0.00827485
-0.239988
0.000486719
-0.00186828
0.00138157
0.0020844
-0.00625506
0.00465738
0.00542523
-0.0114284
0.00808759
0.0101133
-0.016206
0.0115179
0.0155369
-0.0201993
0.0147757
0.0214328
-0.0235946
0.0176987
0.0278977
-0.0267755
0.0203105
0.0350805
-0.0299708
0.022788
0.0429658
-0.0331322
0.0252468
-0.0361069
0.0514194
0.0276533
0.000426731
-0.00229502
0.00210992
-0.00793826
0.00543637
-0.0147549
0.00981156
-0.0205812
0.0148809
-0.0252686
0.0207549
-0.0294686
0.027607
-0.0336275
0.035385
-0.0377488
0.0438769
-0.0416241
-0.0451475
0.0529176
0.00068285
-0.00297787
0.00271682
-0.00997223
0.00577902
-0.0178171
0.00975902
-0.0245612
0.0148106
-0.0303202
0.0211071
-0.0357651
0.0285792
-0.0410996
0.0369466
-0.0461163
0.0459902
-0.0506676
-0.0547764
0.055619
0.000868703
-0.00384657
0.00306169
-0.0121652
0.00607849
-0.0208339
0.0101985
-0.0286812
0.0156956
-0.0358173
0.0225527
-0.0426222
0.0305275
-0.0490744
0.0393827
-0.0549715
0.0490236
-0.0603085
-0.0651211
0.0593684
0.00092348
-0.00477005
0.00320124
-0.014443
0.0065189
-0.0241515
0.011116
-0.0332783
0.0171336
-0.0418348
0.0244461
-0.0499348
0.0328614
-0.0574897
0.0422823
-0.0643924
0.052646
-0.0706722
-0.0762953
0.0638201
0.000944199
-0.00571425
0.00337318
-0.016872
0.00709149
-0.0278699
0.0121741
-0.0383609
0.0186321
-0.0482929
0.0263542
-0.0576568
0.035243
-0.0663785
0.0452516
-0.074401
0.0563017
-0.0817224
-0.0882289
0.0682354
0.000980158
-0.00669441
0.00358437
-0.0194762
0.0076415
-0.031927
0.013107
-0.0438264
0.0199253
-0.0551112
0.0280099
-0.0657414
0.0372987
-0.0756673
0.0477458
-0.0848481
0.0592782
-0.0932547
-0.100702
0.071751
0.00101813
-0.00771254
0.003768
-0.022226
0.00807131
-0.0362303
0.0138199
-0.049575
0.0209192
-0.0622105
0.0292802
-0.0741025
0.0388335
-0.0852206
0.0495223
-0.0955368
0.061288
-0.10502
-0.113444
0.0740305
0.00105471
-0.00876725
0.0039369
-0.0251082
0.00846115
-0.0407546
0.0144821
-0.0555959
0.0218736
-0.069602
0.0305252
-0.0827541
0.0403416
-0.0950369
0.0512339
-0.106429
0.0631214
-0.116908
-0.126322
0.0759991
0.00111901
0.00423794
0.00915316
0.0156858
0.0236861
0.0330303
0.0436154
0.0553345
0.0680298
0.0812131
0.114318
-0.414681
0.351782
0.168124
-0.472026
0.41822
0.210273
-0.42224
0.380091
0.244168
-0.327139
0.293244
0.270991
-0.214926
0.188103
0.291628
-0.110685
0.0900477
0.305328
-0.0329727
0.0192734
0.310931
0.00908394
-0.0146871
0.311923
0.024152
-0.0251441
0.0199636
-0.0192156
0.115894
-0.477657
0.169674
-0.525806
0.211789
-0.464355
0.24542
-0.36077
0.272385
-0.241891
0.29382
-0.13212
0.310279
-0.049432
0.319871
-0.000507835
0.324232
0.0197911
0.0188621
0.117701
-0.539739
0.170494
-0.5786
0.212195
-0.506056
0.245203
-0.393777
0.272021
-0.26871
0.293762
-0.15386
0.311855
-0.0675253
0.324869
-0.0135223
0.333771
0.0108893
0.0146844
0.120082
-0.600453
0.17086
-0.629378
0.211671
-0.546867
0.243749
-0.425855
0.270148
-0.29511
0.291927
-0.175639
0.310908
-0.0865061
0.325886
-0.0285
0.339182
-0.00240637
0.00558085
0.122983
-0.659616
0.170973
-0.677367
0.210347
-0.586241
0.241249
-0.456757
0.266968
-0.320829
0.288611
-0.197282
0.308172
-0.106066
0.324187
-0.044516
0.340559
-0.0187777
-0.00845138
0.125844
-0.717225
0.170861
-0.722384
0.208304
-0.623684
0.23784
-0.486293
0.262639
-0.345628
0.284027
-0.21867
0.303894
-0.125934
0.320866
-0.0614883
0.336878
-0.0347895
-0.0210575
0.127786
-0.77326
0.170337
-0.764935
0.205589
-0.658936
0.233635
-0.51434
0.2573
-0.369293
0.278317
-0.239687
0.298339
-0.145956
0.316043
-0.0791925
0.330089
-0.048835
-0.0297816
0.12787
-0.8271
0.168918
-0.805983
0.202063
-0.692081
0.228597
-0.540873
0.250992
-0.391687
0.271484
-0.260179
0.291826
-0.166299
0.308328
-0.0956941
0.318777
-0.0592842
-0.0367437
0.125794
-0.876895
0.166197
-0.846386
0.197676
-0.72356
0.222817
-0.566014
0.243804
-0.412675
0.263669
-0.280043
0.282939
-0.185569
0.296557
-0.109312
0.304324
-0.0670512
-0.0435287
0.122113
-0.917794
0.161373
-0.885647
0.191554
-0.753741
0.215591
-0.590051
0.235256
-0.43234
0.254514
-0.299301
0.270502
-0.201557
0.280862
-0.119672
0.288431
-0.0746207
-0.0505674
0.583958
-0.920274
-0.581479
0.561184
-0.862872
0.523941
-0.716498
0.487817
-0.553928
0.460414
-0.404936
0.443448
-0.282336
0.430468
-0.188576
0.423879
-0.113083
0.420434
-0.0711754
-0.0490629
0.682872
-0.871681
-0.731464
0.619671
-0.799671
0.553823
-0.65065
0.496162
-0.496266
0.450331
-0.359106
0.418265
-0.25027
0.397615
-0.167925
0.38746
-0.102928
0.381718
-0.0654328
-0.0455654
0.753981
-0.775233
-0.850429
0.655058
-0.700748
0.563292
-0.558885
0.487128
-0.420102
0.428989
-0.300967
0.388638
-0.209918
0.362813
-0.142101
0.34916
-0.0892747
0.341267
-0.0575404
-0.0404588
0.778959
-0.641714
-0.912478
0.653675
-0.575464
0.546146
-0.451355
0.460814
-0.33477
0.397685
-0.237838
0.353813
-0.166047
0.325203
-0.113492
0.309063
-0.0731345
0.29942
-0.0478969
-0.0341238
0.752957
-0.492448
-0.902223
0.617519
-0.440026
0.506107
-0.339943
0.419979
-0.248642
0.3573
-0.175159
0.313663
-0.12241
0.284651
-0.0844795
0.267292
-0.0557748
0.256493
-0.0370986
-0.0269749
0.685093
-0.345842
-0.831698
0.552681
-0.307614
0.446415
-0.233678
0.365935
-0.168162
0.308159
-0.117383
0.267921
-0.082172
0.240713
-0.0572719
0.223633
-0.0386946
0.212551
-0.0260161
-0.019532
0.582614
-0.213865
-0.714591
0.46288
-0.187881
0.369299
-0.140096
0.299916
-0.0987788
0.25084
-0.0683075
0.216663
-0.0479944
0.193193
-0.0338024
0.177868
-0.0233691
0.167549
-0.0156971
-0.0124151
0.448757
-0.105525
-0.557096
0.351174
-0.090298
0.277048
-0.0659705
0.223516
-0.0452467
0.186241
-0.0310322
0.160238
-0.021992
0.142102
-0.0156663
0.129856
-0.0111233
0.121412
-0.00725235
-0.00630606
0.28659
-0.030221
-0.361894
0.220908
-0.0246158
0.172485
-0.0175475
0.138708
-0.0114691
0.115471
-0.00779543
0.0991112
-0.00563234
0.08752
-0.00407509
0.0794453
-0.00304868
0.0739777
-0.00178469
-0.00192072
0.101315
-0.131536
0.0766996
0.059152
0.0476829
0.0398875
0.0342551
0.03018
0.0271314
0.0253467
0.73882
0.0102222
-0.740768
0.733074
0.0284072
0.723436
0.0467413
0.710163
0.0639051
0.69357
0.0791622
0.674077
0.092181
0.652274
0.10301
0.628714
0.112182
0.604271
0.11928
0.119797
0.845548
0.013398
-0.848724
0.837321
0.0366343
0.827288
0.0567746
0.816594
0.0745992
0.805251
0.0905048
0.792897
0.104535
0.779284
0.116623
0.764589
0.126877
0.749125
0.134744
0.137458
0.844982
0.0114252
-0.843009
0.848881
0.0327347
0.853018
0.0526377
0.85647
0.071148
0.858831
0.0881434
0.859918
0.103448
0.859594
0.116947
0.857967
0.128505
0.8553
0.13741
0.142329
0.800212
0.00930435
-0.798092
0.80582
0.0271269
0.814417
0.0440404
0.825635
0.0599301
0.839
0.0747792
0.853848
0.0885996
0.869416
0.101378
0.885049
0.112872
0.899934
0.122525
0.129785
0.737865
0.00703865
-0.7356
0.744154
0.0208384
0.754123
0.0340714
0.767503
0.0465501
0.784082
0.0581998
0.80366
0.0690223
0.825987
0.0790508
0.85062
0.0882392
0.876539
0.0966054
0.104101
0.653921
0.0048539
-0.651736
0.660203
0.0145561
0.670378
0.0238963
0.684221
0.0327074
0.701525
0.0408959
0.722111
0.0484359
0.745805
0.0553566
0.772329
0.0617158
0.801215
0.0677185
0.0736184
0.549112
0.00291604
-0.547174
0.554812
0.00885587
0.564138
0.0145705
0.576905
0.01994
0.592915
0.0248867
0.611968
0.0293826
0.633871
0.033454
0.658406
0.0371801
0.685379
0.040746
0.0444057
0.422793
0.00137569
-0.421252
0.427413
0.00423593
0.435008
0.0069756
0.445422
0.00952586
0.45847
0.0118388
0.473957
0.0138957
0.491697
0.0157138
0.511527
0.0173497
0.533346
0.0189271
0.020656
0.273829
0.000366651
-0.272819
0.276915
0.00114943
0.281999
0.00189174
0.288955
0.00256942
0.29763
0.00316447
0.307856
0.00366915
0.319482
0.00408805
0.332395
0.00443667
0.346562
0.00476039
0.00532319
0.100484
-0.100117
0.101633
0.103525
0.106094
0.109259
0.112928
0.117016
0.121453
0.126213
0.0779284
0.159505
-0.142493
-0.0949408
0.0630252
0.147461
-0.132558
0.0496167
0.134407
-0.120998
0.0376022
0.120333
-0.108318
0.0270257
0.105171
-0.0945945
0.0179774
0.0888945
-0.0798462
0.0105726
0.0714606
-0.0640558
0.00496319
0.0528094
-0.0472
0.00134799
0.0328743
-0.0292591
0.0116389
-0.0102909
0.0779387
0.174434
-0.0928679
0.0638697
0.16153
0.0508388
0.147438
0.0389375
0.132234
0.0282757
0.115833
0.019
0.0981702
0.0112895
0.0791712
0.00535955
0.0587393
0.00147721
0.0367566
0.0131161
0.0731782
0.187929
-0.0866725
0.0603692
0.174339
0.0483498
0.159457
0.0372484
0.143335
0.027203
0.125878
0.0183792
0.106994
0.0109766
0.0865738
0.00523535
0.0644806
0.00144963
0.0405423
0.0145658
0.0667701
0.200353
-0.0791947
0.0550326
0.186077
0.0440491
0.17044
0.0339215
0.153463
0.0247664
0.135033
0.0167269
0.115033
0.00998166
0.0933191
0.00475147
0.0697108
0.00130966
0.0439841
0.0158754
0.0593119
0.211657
-0.0706155
0.048715
0.196674
0.0388672
0.180288
0.029841
0.162489
0.0217242
0.14315
0.0146295
0.122128
0.00870233
0.0992463
0.00412645
0.0742866
0.00113097
0.0469796
0.0170064
0.0505977
0.221521
-0.0604616
0.0414108
0.205861
0.0329274
0.188772
0.0251971
0.170219
0.0182837
0.150064
0.0122721
0.12814
0.00727496
0.104243
0.00343653
0.0781251
0.000937285
0.0494789
0.0179437
0.040457
0.229564
-0.0484999
0.0330125
0.213305
0.0261763
0.195608
0.0199772
0.176418
0.0144573
0.155583
0.00967743
0.13292
0.00572043
0.1082
0.00269377
0.0811517
0.00073184
0.0514408
0.0186755
0.029054
0.235441
-0.0349315
0.0236511
0.218708
0.0187146
0.200544
0.0142551
0.180878
0.0102962
0.159542
0.00687752
0.136338
0.0040556
0.111022
0.00190427
0.0833031
0.000515284
0.0528298
0.0191908
0.0169174
0.238926
-0.0204018
0.0137418
0.221884
0.0108548
0.203431
0.00825481
0.183478
0.00595148
0.161846
0.0039665
0.138323
0.00233219
0.112657
0.00109067
0.0845446
0.000293243
0.0536272
0.019484
0.00482786
-0.00589045
0.00388045
0.00303405
0.00228343
0.00162819
0.00107202
0.00062163
0.000285835
7.49733e-05
0.0436778
0.0414206
-0.0525781
-0.0325203
0.0352972
0.0383709
-0.0299903
0.0276233
0.0349701
-0.0272963
0.0208836
0.0313534
-0.0246137
0.0150813
0.027784
-0.0219817
0.00997463
0.0242246
-0.019118
0.0054446
0.020088
-0.015558
0.00197744
0.0144747
-0.0110075
0.000387127
0.00740118
-0.00581086
0.00208967
-0.00170254
0.0437661
0.0505943
-0.0529398
0.0351118
0.0470251
0.0270678
0.0430142
0.0199166
0.0385046
0.0139756
0.033725
0.00925315
0.0289471
0.00550436
0.0238368
0.00257678
0.0174023
0.000622127
0.00935583
0.00271179
0.0449349
0.0601523
-0.0544929
0.0360103
0.0559498
0.02777
0.0512545
0.0203305
0.0459442
0.0140174
0.0400381
0.00909609
0.0338684
0.00551322
0.0274197
0.00289151
0.020024
0.000809512
0.0114378
0.00352131
0.047355
0.0703386
-0.0575413
0.0379196
0.0653851
0.0293504
0.0598237
0.0216851
0.0536095
0.0150484
0.0466747
0.00969943
0.0392174
0.00576001
0.0313591
0.00295771
0.0228263
0.000874655
0.0135209
0.00439596
0.0508201
0.0812638
-0.0617453
0.0407175
0.0754877
0.0316016
0.0689396
0.0235347
0.0616764
0.0165397
0.0536696
0.0107431
0.045014
0.00628007
0.0358222
0.00306038
0.026046
0.000879983
0.0157013
0.00527595
0.0545194
0.0928596
-0.0661152
0.0437996
0.0862075
0.0341187
0.0786205
0.0255516
0.0702434
0.0181202
0.0611011
0.0118803
0.0512539
0.00692708
0.0407754
0.00327773
0.0296953
0.000908247
0.0180708
0.00618419
0.0575758
0.10494
-0.0696563
0.0464175
0.0973659
0.0363155
0.0887224
0.0273301
0.0792289
0.0194971
0.0689342
0.0128668
0.0578841
0.00751891
0.0461233
0.00352468
0.0336896
0.000959443
0.020636
0.00714364
0.0596348
0.117266
-0.0719608
0.0482586
0.108742
0.0379172
0.0990638
0.0286559
0.0884901
0.0205264
0.0770637
0.0135977
0.0648128
0.00796095
0.0517601
0.00372149
0.037929
0.00100522
0.0233523
0.00814885
0.0614503
0.129719
-0.0739032
0.0499535
0.120239
0.0394051
0.109612
0.0298767
0.0980186
0.0214544
0.0854859
0.0142354
0.0720318
0.00833415
0.0576614
0.0038844
0.0423788
0.00104186
0.0261948
0.00919071
0.0663076
-0.0790814
0.0539885
0.0426026
0.0323031
0.0231945
0.0153802
0.00898573
0.0041645
0.00110023
0.213693
0.0622276
-0.0779313
0.236344
0.0906214
-0.113272
0.26085
0.124321
-0.148827
0.277139
0.111665
-0.127955
0.276327
0.109119
-0.108307
0.253316
0.178433
-0.155422
0.219037
0.29361
-0.259332
0.174921
0.412613
-0.368497
0.118455
0.494777
-0.438311
0.461804
-0.395927
0.213038
0.0471798
0.234608
0.0690507
0.258228
0.100701
0.275202
0.0946917
0.275993
0.108328
0.253717
0.200708
0.219241
0.328087
0.174662
0.457192
0.118108
0.551331
0.526973
0.212814
0.0323556
0.233541
0.0483235
0.256323
0.0779192
0.273298
0.0777165
0.274414
0.107212
0.252519
0.222604
0.217982
0.362624
0.173338
0.501836
0.117881
0.606788
0.590361
0.212958
0.0173876
0.233139
0.028142
0.255195
0.0558631
0.271671
0.0612412
0.271906
0.106976
0.249856
0.244654
0.215426
0.397055
0.171343
0.545919
0.118369
0.659762
0.651188
0.213326
0.00205157
0.233241
0.00822642
0.254626
0.0344784
0.269972
0.0458955
0.268389
0.10856
0.245805
0.267238
0.211776
0.431084
0.1691
0.588595
0.119707
0.709155
0.70915
0.213728
-0.0136871
0.233614
-0.011659
0.254282
0.0138104
0.267848
0.0323295
0.26376
0.112648
0.24048
0.290517
0.207295
0.464269
0.166886
0.629004
0.121433
0.754608
0.764468
0.213983
-0.0296807
0.234049
-0.0317244
0.253875
-0.00601552
0.265061
0.021143
0.258002
0.119707
0.234095
0.314424
0.202264
0.496101
0.164686
0.666581
0.122651
0.796643
0.817463
0.214005
-0.0456961
0.234432
-0.052151
0.253188
-0.0247718
0.261377
0.0129544
0.251046
0.130038
0.226779
0.338691
0.196733
0.526147
0.162069
0.701245
0.122336
0.836375
0.867839
0.21382
-0.0615263
0.234752
-0.0730831
0.252105
-0.0421242
0.256825
0.00823354
0.243156
0.143707
0.218899
0.362947
0.190815
0.554232
0.158606
0.733454
0.120091
0.874891
0.914026
0.213695
-0.0772314
0.234981
-0.0943694
0.250619
-0.0577622
0.251082
0.00777121
0.233806
0.160983
0.209824
0.38693
0.183578
0.580477
0.153424
0.763608
0.116418
0.911897
0.951362
0.331976
-0.107197
0.370633
-0.133027
0.407066
-0.0941946
0.424374
-0.00953727
0.438764
0.146593
0.467381
0.358313
0.506583
0.541275
0.549578
0.720613
0.581376
0.880099
0.946232
0.586506
0.333682
-0.138869
0.373299
-0.172643
0.408514
-0.12941
0.421949
-0.0229719
0.435234
0.133307
0.475838
0.317709
0.534251
0.482863
0.604458
0.650406
0.675404
0.809153
0.888646
0.732991
0.336397
-0.173256
0.375599
-0.211845
0.408996
-0.162807
0.416649
-0.0306257
0.426954
0.123003
0.473809
0.270853
0.546409
0.410263
0.638785
0.558029
0.742279
0.705659
0.784509
0.846417
0.340539
-0.211785
0.373523
-0.244828
0.384248
-0.173532
0.380157
-0.026535
0.398772
0.104388
0.452788
0.216837
0.534057
0.328994
0.64048
0.451606
0.767065
0.579074
0.647084
0.90449
0.348518
-0.258293
0.356647
-0.252957
0.337502
-0.154387
0.334056
-0.0230888
0.358436
0.0800081
0.413956
0.161317
0.497197
0.245753
0.60785
0.340954
0.743723
0.443201
0.495875
0.894932
0.340775
-0.297057
0.321182
-0.233364
0.287874
-0.121079
0.283819
-0.0190343
0.308819
0.0550084
0.361039
0.109097
0.439716
0.167076
0.545738
0.234931
0.678756
0.310183
0.347989
0.826642
0.314276
-0.309323
0.271573
-0.190662
0.233602
-0.0831073
0.228539
-0.0139718
0.250974
0.0325736
0.296125
0.0639466
0.364588
0.0986119
0.458317
0.141202
0.578793
0.189707
0.215106
0.711677
0.273775
-0.281088
0.212885
-0.129772
0.174329
-0.0445511
0.168737
-0.00837967
0.186211
0.0150995
0.220939
0.0292187
0.27416
0.0453906
0.348679
0.0666829
0.447049
0.091337
0.106139
0.556015
0.214648
-0.193725
0.140478
-0.0556016
0.109361
-0.0134341
0.104065
-0.00308372
0.115332
0.00383259
0.137257
0.00729327
0.171088
0.0115593
0.219969
0.0178027
0.286339
0.0249664
0.0304075
0.362071
0.108285
0.0526833
0.0392492
0.0361655
0.039998
0.0472913
0.0588506
0.0766533
0.10162
0.132027
0.60866
-0.117095
0.632323
-0.116531
0.65514
-0.109489
0.676291
-0.100346
0.695234
-0.0895586
0.711371
-0.0765981
0.724263
-0.0613927
0.73359
-0.044258
0.739075
-0.0258867
-0.00758336
0.750324
-0.134428
0.765226
-0.131433
0.779427
-0.123691
0.79265
-0.113568
0.804713
-0.101621
0.815848
-0.0877332
0.826403
-0.0719477
0.836392
-0.054247
0.844841
-0.0343354
-0.0114667
0.851037
-0.139048
0.853479
-0.133875
0.854993
-0.125205
0.85537
-0.113945
0.854521
-0.100773
0.852621
-0.0858327
0.849895
-0.0692216
0.846738
-0.0510904
0.843946
-0.0315429
-0.0105298
0.892547
-0.127105
0.878531
-0.119859
0.863852
-0.110526
0.849288
-0.0993821
0.835445
-0.0869289
0.823018
-0.0734066
0.812635
-0.0588383
0.804756
-0.0432111
0.799744
-0.0265314
-0.00887716
0.870306
-0.102479
0.845546
-0.0950993
0.821943
-0.0869225
0.800488
-0.0779276
0.781654
-0.0680941
0.765714
-0.0574669
0.75289
-0.0460142
0.743403
-0.0337242
0.737523
-0.0206518
-0.0069537
0.796995
-0.0728325
0.768932
-0.0670362
0.743121
-0.0611114
0.720037
-0.0548429
0.699971
-0.0480287
0.683112
-0.0406075
0.669641
-0.0325438
0.659769
-0.0238516
0.653726
-0.0146086
-0.00496387
0.682983
-0.044139
0.656499
-0.0405523
0.632401
-0.0370128
0.610878
-0.0333203
0.592145
-0.0292955
0.576396
-0.0248581
0.563828
-0.0199764
0.554646
-0.0146697
0.549043
-0.00900565
-0.00309482
0.53251
-0.0206336
0.510908
-0.0189508
0.491275
-0.0173796
0.473704
-0.015749
0.458351
-0.0139424
0.445397
-0.0119047
0.435037
-0.00961626
0.427458
-0.0070909
0.422824
-0.00437158
-0.00152293
0.346789
-0.00535166
0.332648
-0.00480908
0.319753
-0.00448488
0.308137
-0.00413361
0.297909
-0.00371367
0.289215
-0.00321088
0.282219
-0.00262003
0.277075
-0.00194741
0.273913
-0.00120947
-0.000429235
0.126676
0.121866
0.117382
0.113248
0.109534
0.106323
0.103703
0.101756
0.100546
0.000185057
0.0116093
-0.0117943
0.000623737
0.0304466
-0.0308852
0.00123716
0.0462418
-0.0468552
0.00197733
0.0594677
-0.0602078
0.00277662
0.0700217
-0.070821
0.00376954
0.0798893
-0.0808822
0.00396349
0.0772675
-0.0774614
0.00408486
0.0700426
-0.070164
0.00394498
0.0610798
-0.06094
0.0499562
0.00350723
-0.0495184
0.000533397
0.0110759
0.00180387
0.0291761
0.00358509
0.0444606
0.00574126
0.0573115
0.00807285
0.0676901
0.0110397
0.0769225
0.011676
0.0766311
0.0120809
0.0696377
0.0117737
0.0613871
0.0510786
0.0106513
0.000835501
0.0102404
0.00283184
0.0271798
0.00563914
0.0416533
0.00904159
0.053909
0.0127395
0.0639922
0.0172475
0.0724145
0.0187903
0.0750884
0.0195719
0.0688561
0.0193857
0.0615733
0.052435
0.0180293
0.00105598
0.00918438
0.00359703
0.0246387
0.00719367
0.0380567
0.0115559
0.0495468
0.0163567
0.0591915
0.0217479
0.0670233
0.0250729
0.0717634
0.0263553
0.0675737
0.0266035
0.061325
0.0535669
0.0254717
0.00115146
0.00803292
0.00397935
0.0218108
0.0080418
0.0339942
0.0129971
0.0445916
0.0185519
0.0536367
0.0245578
0.0610174
0.0299525
0.0663687
0.0320904
0.0654358
0.0330118
0.0604037
0.0540917
0.032487
0.0011115
0.00692143
0.00396604
0.0189563
0.0081857
0.0297746
0.0133904
0.0393868
0.0193183
0.0477088
0.0257723
0.0545633
0.0324164
0.0597247
0.0363131
0.0615391
0.0381249
0.0585918
0.0537077
0.0385089
0.000926237
0.00599519
0.00357299
0.0163096
0.00771073
0.0256368
0.0128819
0.0342157
0.0187869
0.0418038
0.0253385
0.0480117
0.0323215
0.0527417
0.0382759
0.0555846
0.0415883
0.0552795
0.0521836
0.0431124
0.000567812
0.00542738
0.00278658
0.0140908
0.00665744
0.021766
0.0116213
0.0292519
0.0172043
0.0362208
0.0234474
0.0417686
0.0302863
0.0459029
0.0371846
0.0486863
0.0425623
0.0499018
0.0489244
0.0458215
0.000103723
0.00532366
0.00176839
0.0124261
0.00517543
0.0183589
0.00981451
0.0246128
0.0149565
0.0310788
0.0206208
0.0361043
0.0269034
0.0396203
0.0335874
0.0420023
0.0400858
0.0434034
0.0437954
0.0452148
-0.000175864
0.00549953
0.00108636
0.0111639
0.00385525
0.01559
0.00788563
0.0205824
0.0124998
0.0264647
0.0175704
0.0310337
0.0231766
0.034014
0.0292494
0.0359295
0.0356364
0.0370163
0.0373682
0.0420636
-2.17654e-05
0.00552129
0.00113891
0.0100032
0.00327618
0.0134528
0.00641127
0.0174473
0.0102925
0.0225835
0.0148342
0.0264919
0.0199547
0.0288935
0.0254877
0.0303966
0.0312261
0.031278
0.0316935
0.0369008
0.000376533
0.00514476
0.00152999
0.00884977
0.00317822
0.0118045
0.00548853
0.015137
0.00870798
0.019364
0.0128943
0.0223056
0.017747
0.0240408
0.0230151
0.0251285
0.0285075
0.0257856
0.0260559
0.0341451
0.000623181
0.00452158
0.00170504
0.00776791
0.00302488
0.0104847
0.00484473
0.0133172
0.00783741
0.0163714
0.0119285
0.0182144
0.0166817
0.0192876
0.0218574
0.0199527
0.0273234
0.0203196
0.0204009
0.0329784
0.000676614
0.00384496
0.00164221
0.00680231
0.00282256
0.00930435
0.00470781
0.0114319
0.0079861
0.0130931
0.0122203
0.0139802
0.0170407
0.0144672
0.0222858
0.0147077
0.027859
0.0147463
0.0145852
0.0336747
0.000664957
0.00318001
0.00155693
0.00591033
0.00300349
0.00785779
0.00559786
0.00883753
0.00939645
0.00929447
0.0139256
0.00945102
0.0189762
0.0094167
0.0244486
0.00923521
0.0302752
0.00891974
0.00847617
0.0363843
0.000595055
0.00258495
0.00172484
0.00478053
0.00408194
0.00550068
0.00754955
0.00536991
0.0118122
0.00503185
0.0166698
0.00459335
0.0220213
0.00406527
0.0278073
0.00344915
0.0339766
0.00275049
0.00198248
0.0404702
0.00052866
0.00205628
0.00250284
0.00280633
0.00578053
0.00222299
0.00978711
0.00136332
0.0143862
0.000432758
0.0195325
-0.000552958
0.0251962
-0.0015984
0.0313343
-0.00268898
0.0378858
-0.00380099
-0.00492228
0.0447905
0.000886004
0.00117027
0.00363771
5.46124e-05
0.00720442
-0.00134373
0.0113949
-0.00282722
0.0161966
-0.00436893
0.0216203
-0.00597661
0.027624
-0.00760209
0.0341162
-0.00918126
0.0410137
-0.0106985
-0.0121844
0.0482758
0.00150679
-0.00033653
0.00413389
-0.0025725
0.00755625
-0.0047661
0.0117745
-0.00704544
0.0167956
-0.00939009
0.0225397
-0.0117207
0.0288383
-0.0139007
0.0355702
-0.0159132
0.0427106
-0.0178389
-0.0197339
0.0502602
0.00104503
0.0031299
0.0064514
0.0109239
0.0163095
0.0222875
0.0286973
0.035572
0.04298
0.0508993
0.0514355
0.0836902
-0.0982249
0.0773655
-0.00760827
-0.0183217
0.100028
-0.0512931
0.0286301
0.113744
-0.0472243
0.0335087
0.121744
-0.0269724
0.0189722
0.125397
-0.00812019
0.00446736
0.126462
0.00332666
-0.00439197
0.126609
0.00735957
-0.00750656
0.126434
0.00802601
-0.0078512
0.00577804
-0.00628729
0.0586589
0.0591764
0.0917547
-0.0407042
0.118974
-0.0785127
0.135035
-0.0632851
0.143804
-0.035741
0.147494
-0.0118102
0.148295
0.0025251
0.148105
0.00754922
0.147589
0.00854241
0.00561495
0.0666952
0.0254595
0.105159
-0.079168
0.136218
-0.109572
0.155912
-0.0829785
0.165958
-0.0457871
0.169722
-0.0155742
0.170155
0.0020916
0.169471
0.0082331
0.168452
0.00956176
0.0059351
0.075598
-0.0164639
0.118017
-0.121587
0.151975
-0.143529
0.175436
-0.106439
0.187539
-0.0578905
0.191644
-0.019679
0.19175
0.00198532
0.190525
0.00945791
0.188931
0.0111561
0.00681082
0.0846709
-0.0647505
0.12986
-0.166777
0.165988
-0.179657
0.192764
-0.133215
0.207781
-0.0729071
0.212829
-0.024728
0.212811
0.00200331
0.211097
0.0111721
0.208935
0.0133188
0.00825247
0.0931382
-0.117418
0.140352
-0.21399
0.178167
-0.217472
0.207506
-0.162555
0.225821
-0.0912215
0.232737
-0.0316445
0.233019
0.00172118
0.230993
0.0131989
0.228361
0.0159503
0.0102018
0.100336
-0.172963
0.149216
-0.26287
0.18841
-0.256667
0.219585
-0.193729
0.240962
-0.112599
0.250722
-0.0414048
0.252008
0.000434938
0.249997
0.0152108
0.247098
0.0188491
0.0125282
0.105914
-0.230601
0.156326
-0.313282
0.196663
-0.297004
0.229106
-0.226172
0.252882
-0.136375
0.266049
-0.0545717
0.269331
-0.00284795
0.267856
0.0166864
0.265011
0.0216934
0.0150224
0.109856
-0.290197
0.161715
-0.365142
0.202951
-0.33824
0.236244
-0.259465
0.261633
-0.161764
0.278084
-0.071023
0.284431
-0.00919409
0.284261
0.0168563
0.281941
0.0240137
0.0173863
0.112484
0.165563
0.207413
0.241192
0.267532
0.286557
0.296636
0.298805
0.297675
0.013201
0.00607747
-0.0192784
0.0109912
0.00220974
0.0115129
-0.000521714
0.0129389
-0.00142594
0.0136568
-0.000717967
0.0137792
-0.000122322
0.0135562
0.000222919
0.0131888
0.000367435
0.0129224
0.000266425
0.000377176
0.0372502
0.0232137
-0.0543864
0.0315009
0.00795901
0.0340196
-0.00304044
0.0380849
-0.00549123
0.0402673
-0.0029003
0.0406768
-0.000531829
0.0400429
0.000856791
0.0390436
0.00136674
0.0380929
0.00121713
0.00126875
0.0579689
0.0480916
-0.0828469
0.0508959
0.0150321
0.0559184
-0.008063
0.0625115
-0.0120843
0.0661949
-0.00658377
0.0669692
-0.00130614
0.0659932
0.00183284
0.0644213
0.00293865
0.0627876
0.0028508
0.00258977
0.0739109
0.0753925
-0.101212
0.0680988
0.0208441
0.0764824
-0.0164465
0.0858362
-0.0214381
0.0911761
-0.0119237
0.0924553
-0.00258534
0.0912434
0.0030448
0.0891677
0.00501434
0.0869261
0.00509235
0.00428593
0.0814041
-0.104237
0.0839264
0.0961099
0.10818
0.115229
0.117111
0.115764
0.113272
0.110513
0.00273369
-0.000172927
-0.00256076
0.00326457
-0.000530877
0.00417681
-0.00091224
0.00548788
-0.00131107
0.00718431
-0.00169643
0.00922888
-0.00204458
0.0115855
-0.00235661
0.0141738
-0.00258835
0.016859
-0.00268517
-0.00241946
0.00778748
-0.000645704
-0.00731471
0.00923439
-0.00197778
0.0117138
-0.00339163
0.0152702
-0.00486749
0.0198845
-0.00631072
0.0254825
-0.00764261
0.0319649
-0.00883896
0.0391563
-0.00977984
0.0467678
-0.0102967
-0.0100381
0.0124781
-0.00138377
-0.0117401
0.0147278
-0.00422749
0.0185608
-0.00722453
0.0240247
-0.0103315
0.0310794
-0.0133654
0.0395863
-0.0161495
0.0493283
-0.018581
0.0600518
-0.0205033
0.0714162
-0.0216611
-0.0214688
0.0168075
-0.00234772
-0.0158436
0.0197318
-0.00715175
0.024675
-0.0121678
0.0316516
-0.017308
0.0405502
-0.022264
0.0511065
-0.0267057
0.0629378
-0.0304123
0.075695
-0.0332606
0.0888621
-0.0348281
-0.0338185
0.0207931
-0.0196336
0.0242927
0.0301542
0.0383179
0.0485409
0.0603441
0.0730441
0.085605
0.0959916
0.0314432
-0.0313072
0.0371116
-0.0372476
0.0255831
-0.0309042
0.0367642
0.019925
-0.0300715
0.0357297
0.0146789
-0.0286755
0.0339216
0.0100594
-0.0264668
0.0310863
0.00620451
-0.0227792
0.0266342
0.00311366
-0.0176478
0.0207386
0.0010173
-0.0136222
0.0157185
-8.68201e-05
-0.0101617
0.0112658
-0.00564253
0.00555571
0.0294588
-0.0254441
-0.0353218
0.0237433
-0.0251887
0.0182537
-0.0245819
0.013168
-0.0235898
0.00873949
-0.0220383
0.00534989
-0.0193896
0.00301942
-0.0153173
0.0013963
-0.0119991
0.000298068
-0.00906347
-0.00534446
0.0294299
-0.0194562
-0.0354179
0.0236261
-0.0193848
0.018109
-0.0190648
0.0129959
-0.0184767
0.00848969
-0.017532
0.00504152
-0.0159414
0.00300338
-0.0132791
0.0016441
-0.0106398
0.000582216
-0.00800158
-0.00476224
0.0313507
-0.0131932
-0.0376136
0.0253223
-0.0133564
0.0196119
-0.0133544
0.0143059
-0.0131707
0.00954311
-0.0127692
0.00564833
-0.0120466
0.00319489
-0.0108257
0.00175984
-0.00920471
0.000726361
-0.0069681
-0.00403587
0.0349541
-0.00653776
-0.0416095
0.0285805
-0.00698274
0.0225608
-0.00733474
0.0169612
-0.00757109
0.0118723
-0.00768031
0.00747871
-0.00765308
0.00413294
-0.00747991
0.00199156
-0.00706331
0.000798002
-0.00577453
-0.00323787
0.039278
0.000570945
-0.0463867
0.0324944
-0.000199128
0.0261084
-0.000948773
0.0201948
-0.00165743
0.0148141
-0.0022996
0.0100294
-0.00286837
0.00592443
-0.00337498
0.00267383
-0.00381271
0.00072059
-0.00382128
-0.00251727
0.0431206
0.00809005
-0.0506397
0.0359417
0.00697979
0.0291565
0.00583644
0.0228651
0.00463394
0.0171701
0.00339545
0.0121111
0.00219061
0.00766913
0.00106702
0.00384993
6.49898e-06
0.000979893
-0.000951229
-0.00153737
0.0454034
0.0158969
-0.0532102
0.037973
0.0144102
0.0309162
0.0128932
0.0242691
0.0112811
0.0181749
0.0094897
0.0128202
0.00754528
0.00828442
0.00560283
0.00454252
0.00374841
0.00163291
0.00195839
9.55492e-05
0.0455578
0.0240026
-0.0536635
0.0379372
0.0220308
0.0308053
0.0200251
0.0240746
0.0180118
0.017712
0.0158523
0.0119116
0.0133456
0.00705158
0.0104629
0.00341931
0.00738069
0.00114832
0.00422938
0.00124387
0.0444964
-0.0530141
0.0365369
0.0292657
0.0226638
0.0165344