/*--------------------------------*- C++ -*----------------------------------*\
  =========                 |
  \\      /  F ield         | OpenFOAM: The Open Source CFD Toolbox
   \\    /   O peration     | Website:  https://openfoam.org
    \\  /    A nd           | Version:  13
     \\/     M anipulation  |
\*---------------------------------------------------------------------------*/
FoamFile
{
    format      ascii;
    class       volScalarField;
    location    "1";
    object      strainRateViscosityModel:nu;
}
// * * * * * * * * * * * * * * * * * * * * * * * * * * * * * * * * * * * * * //

dimensions      [0 2 -1 0 0 0 0];

internalField   nonuniform List<scalar> 
1800
(
9.40487
9.1976
9.01007
8.80097
8.57617
8.34417
8.1155
7.89819
7.6242
7.37922
9.58523
9.41878
9.2669
9.09733
8.91118
8.71145
8.50359
8.28869
8.0273
7.70207
9.70218
9.56269
9.42803
9.27097
9.08869
8.879
8.64093
8.36905
8.03058
7.61061
9.77539
9.65614
9.53324
9.38287
9.2005
8.98173
8.72282
8.41597
8.02878
7.55456
9.82168
9.7183
9.60558
9.46167
9.28071
9.05696
8.7855
8.45889
8.04776
7.55614
9.85185
9.76081
9.6573
9.52059
9.34355
9.11896
8.84034
8.50016
8.07152
7.5702
9.87179
9.78991
9.69398
9.56396
9.39147
9.16769
8.8842
8.53252
8.08735
7.57567
9.88475
9.80924
9.71888
9.59394
9.42494
9.20146
8.91309
8.55005
8.08853
7.56355
9.8926
9.82107
9.73416
9.6122
9.44466
9.21962
8.92483
8.54922
8.07121
7.52871
9.89646
9.82685
9.74153
9.62069
9.45309
9.22573
8.92512
8.53953
8.05038
7.49285
1.80457
1.40508
1.20819
1.31901
1.73022
2.25212
2.49688
2.44862
2.35851
2.33484
3.734
1.78011
1.49011
1.98089
2.69642
2.97277
2.81638
2.6705
2.68687
2.74044
4.70519
2.56874
2.43452
3.1771
3.59729
3.34563
3.08024
3.11726
3.25766
3.33838
5.27046
3.88092
3.81452
4.21389
4.18077
3.82861
3.72024
3.85437
3.95704
4.00604
6.05626
5.27478
5.11755
5.12149
4.91493
4.65291
4.57762
4.61185
4.61212
4.65181
6.95995
6.45971
6.22669
6.03832
5.78829
5.54527
5.38901
5.29309
5.22185
5.27442
7.77172
7.37765
7.11675
6.86034
6.58747
6.32056
6.08721
5.9008
5.76999
5.82354
8.40011
8.05529
7.79202
7.51582
7.22657
6.93127
6.64222
6.38628
6.19216
6.22913
8.84933
8.54537
8.29101
8.01035
7.70576
7.37954
7.03568
6.70114
6.4157
6.42166
9.16163
8.90154
8.66633
8.39669
8.09575
7.76581
7.40649
7.03567
6.70851
6.75235
2.1929
1.72864
1.33115
0.936642
0.619134
0.349395
0.188286
0.145358
0.165678
0.2652
2.52702
1.84751
1.40588
0.931574
0.59255
0.333329
0.178521
0.111008
0.11363
0.209242
2.94753
1.97649
1.47804
0.92867
0.556411
0.305543
0.167123
0.0966003
0.0767671
0.150396
3.43998
2.14642
1.54928
0.931454
0.516755
0.269783
0.14999
0.0857601
0.0733187
0.0920804
3.98232
2.38454
1.62672
0.940455
0.477957
0.229881
0.128508
0.0712877
0.0825107
0.0367921
4.52798
2.69579
1.72307
0.95683
0.443074
0.189081
0.103317
0.0574619
0.064346
0.0786594
4.99657
3.05563
1.8451
0.979571
0.412053
0.14942
0.0770455
0.0447397
0.0397834
0.148825
5.31248
3.43871
2.01234
1.02232
0.391318
0.113295
0.0533359
0.025754
0.0585225
0.212957
5.34302
3.72219
2.1621
1.05426
0.368014
0.0815643
0.0305797
0.0262223
0.109999
0.273573
5.20179
3.9883
2.39769
1.15808
0.384347
0.0649361
0.010204
0.0645413
0.153255
0.322712
4.94411
3.94187
2.45488
1.1725
0.359486
0.0542695
0.0383976
0.110298
0.208047
0.377312
5.33006
3.34714
2.13973
0.999493
0.361882
0.143121
0.119292
0.177534
0.27713
0.435406
4.90462
3.04629
2.24972
1.20824
0.594403
0.297498
0.210421
0.246908
0.338151
0.477973
4.54706
3.63308
2.68312
1.6427
0.894809
0.497876
0.344187
0.33528
0.402986
0.51247
5.11451
4.74815
3.34327
2.16493
1.23881
0.730491
0.501055
0.437772
0.470585
0.539731
6.2545
5.66961
4.05706
2.67374
1.59841
0.981357
0.676569
0.5536
0.542877
0.563161
7.26268
6.3737
4.71351
3.15427
1.95684
1.23984
0.860753
0.677067
0.618173
0.584553
8.00009
6.91201
5.25968
3.58868
2.29961
1.50002
1.05054
0.806129
0.696913
0.606444
8.51875
7.33071
5.69721
3.96983
2.62013
1.75335
1.23674
0.932576
0.773505
0.62719
8.931
7.69117
6.04963
4.28289
2.92511
2.02398
1.44711
1.0793
0.868484
0.659189
6.51282
6.43966
6.43043
6.44873
6.48732
6.5299
6.58193
6.71045
6.89511
6.82613
0.260648
1.05706
2.00762
2.92263
3.70352
4.3161
4.7328
4.98226
5.22127
5.72741
3.85083
3.54395
3.28474
3.11153
3.10659
3.25017
3.47234
3.71342
4.16488
4.84462
6.64415
6.62721
6.53712
6.3447
6.04334
5.65798
5.2498
4.89633
4.73976
4.54968
7.69183
7.67653
7.63211
7.54128
7.39613
7.18986
6.9271
6.61957
6.28609
5.6566
8.4495
8.43311
8.39434
8.32771
8.22957
8.09671
7.92836
7.71683
7.42793
6.90786
8.93967
8.92393
8.89028
8.83679
8.76166
8.6629
8.53815
8.37892
8.15467
7.80861
9.27298
9.25981
9.23246
9.18985
9.13052
9.05245
8.95268
8.82481
8.65281
8.4309
9.50446
9.49417
9.47307
9.44024
9.39426
9.33319
9.25424
9.15286
9.02288
8.87534
9.6899
9.68285
9.66852
9.64604
9.61405
9.5707
9.51361
9.43975
9.34638
9.2441
7.24796
7.52613
7.83691
8.08767
8.34482
8.59964
8.8414
9.06159
9.25458
9.46024
7.58306
7.94803
8.24096
8.48113
8.70936
8.92482
9.12231
9.299
9.45391
9.61805
7.49847
7.95736
8.32596
8.62051
8.87576
9.09774
9.28806
9.44952
9.58535
9.72225
7.44686
7.9576
8.37377
8.702
8.97659
9.20597
9.39471
9.54806
9.6713
9.78823
7.45631
7.98066
8.41861
8.7649
9.05054
9.28356
9.46978
9.61591
9.72868
9.83022
7.4824
8.01168
8.46402
8.82147
9.11234
9.34475
9.52606
9.66446
9.76796
9.85764
7.50363
8.03786
8.50278
8.86863
9.16197
9.39189
9.56763
9.6989
9.79478
9.8757
7.51114
8.05246
8.52872
8.90209
9.19746
9.42521
9.5964
9.72212
9.81243
9.88729
7.49836
8.05045
8.53742
8.91898
9.21768
9.44503
9.61371
9.73605
9.82289
9.89404
7.48288
8.04358
8.53593
8.92344
9.22525
9.4533
9.62123
9.74216
9.82746
9.89693
2.56029
2.51659
2.53415
2.74587
2.93247
2.56059
1.70327
1.18374
1.52467
4.20307
2.96659
2.87831
2.71829
2.71556
3.10531
3.43447
2.82652
1.91053
2.12835
5.13871
3.45299
3.40971
3.25194
3.06524
3.26499
3.8241
3.80522
3.16453
3.29257
5.45769
3.94333
3.93265
3.90647
3.79744
3.8903
4.31784
4.5898
4.4695
4.66318
5.91488
4.49603
4.46858
4.54413
4.61603
4.78016
5.11389
5.43852
5.61976
5.89772
6.63233
5.09977
5.05727
5.19705
5.39569
5.6568
5.9804
6.30874
6.59572
6.90131
7.407
5.65257
5.61638
5.81741
6.09017
6.40761
6.74087
7.06861
7.37827
7.6789
8.08668
6.06599
6.05149
6.31474
6.64215
6.99494
7.33983
7.66734
7.97426
8.25902
8.6111
6.25985
6.27887
6.63081
7.02584
7.42013
7.78445
8.11677
8.41673
8.68286
8.98797
6.59977
6.56968
6.95591
7.37947
7.78135
8.14315
8.46656
8.75046
8.99302
9.25186
0.114276
0.15395
0.12282
0.0658014
0.0161265
0.396994
0.934585
1.48687
1.95314
2.43481
0.0810835
0.139666
0.119032
0.0686086
0.0160265
0.390599
0.938614
1.54922
2.03136
2.70011
0.059466
0.131395
0.11747
0.0719123
0.0251417
0.391067
0.943952
1.59817
2.10094
3.0094
0.0463005
0.128896
0.119265
0.0790314
0.0433998
0.398346
0.948714
1.63419
2.20357
3.39534
0.0395821
0.131361
0.123055
0.0881395
0.0664839
0.406961
0.950516
1.6689
2.381
3.86531
0.038565
0.138239
0.127294
0.0967137
0.0900969
0.413674
0.953543
1.72577
2.64743
4.36252
0.0435377
0.149862
0.130836
0.102625
0.109552
0.416254
0.963126
1.82126
2.97943
4.79339
0.0550107
0.166608
0.133344
0.106133
0.124486
0.423901
1.00337
1.98033
3.34632
5.07814
0.0746467
0.188085
0.135002
0.103189
0.127214
0.423298
1.04009
2.1317
3.62488
5.08134
0.105189
0.211099
0.137343
0.10362
0.142043
0.469867
1.17664
2.39002
3.87468
4.88999
0.161654
0.240314
0.142889
0.100783
0.13017
0.473519
1.24192
2.50318
3.88402
4.6724
0.264591
0.272529
0.133226
0.0751897
0.0687837
0.38651
1.11821
2.30208
3.4289
5.19155
0.429429
0.272177
0.0996091
0.013576
0.0150273
0.349991
1.15163
2.35245
3.2565
4.93773
0.682661
0.255343
0.0232814
0.0827525
0.0989651
0.541604
1.43415
2.62647
3.71649
4.69876
1.06585
0.0479298
0.265922
0.234638
0.312355
0.89237
1.93473
3.20767
4.70781
5.17805
1.51475
0.122589
0.540065
0.415898
0.593806
1.30866
2.47435
3.91765
5.59899
6.2235
2.19501
0.683159
0.857761
0.688535
0.940018
1.73833
2.99221
4.59366
6.30249
7.21636
3.79215
1.70617
1.27608
1.03637
1.31618
2.14986
3.46098
5.16513
6.85406
7.96875
6.86012
3.57559
1.96431
1.42108
1.67775
2.52326
3.87295
5.63109
7.29511
8.50723
9.04906
6.38371
2.84355
2.00143
2.11454
2.89574
4.22315
6.01895
7.68649
8.9381
6.6243
6.68737
6.5107
6.38896
6.34863
6.32248
6.30552
6.31732
6.36195
6.47625
5.52771
5.00889
4.7652
4.52423
4.12617
3.54029
2.79845
1.93201
1.04462
0.284207
4.84947
4.23668
3.8273
3.61686
3.43014
3.31071
3.31559
3.45781
3.65549
3.87438
4.71275
4.88626
5.02871
5.33815
5.70225
6.05244
6.33394
6.52139
6.61652
6.64157
5.68817
6.28606
6.61241
6.91139
7.17237
7.38146
7.53179
7.62813
7.67669
7.69239
6.86593
7.38862
7.68442
7.9023
8.07657
8.21482
8.31779
8.38855
8.43054
8.44888
7.76509
8.12048
8.35195
8.5179
8.64795
8.75098
8.82955
8.88582
8.92164
8.93899
8.40453
8.63267
8.80887
8.94092
9.04401
9.12465
9.18596
9.23006
9.25854
9.27259
8.86615
9.0162
9.14761
9.2506
9.33082
9.39283
9.43944
9.47267
9.494
9.50442
9.24869
9.35045
9.44302
9.51631
9.57294
9.61588
9.64748
9.66957
9.68348
9.69012
9.50947
8.98534
8.2359
6.92826
5.59796
0.131167
3.36083
5.96039
7.2141
8.15188
9.46542
8.92156
8.16814
6.89059
5.54938
0.563768
2.62221
5.70602
6.91644
7.91397
9.36569
8.78283
8.02029
6.80962
5.36636
1.60348
1.41357
5.20663
6.30936
7.40332
9.18256
8.54514
7.77451
6.65513
5.18645
2.74003
0.723099
4.23838
5.42158
6.5715
8.86812
8.1736
7.40403
6.37697
5.02653
3.36803
0.97096
2.63163
4.31696
5.39382
8.35054
7.62974
6.87344
5.91731
4.76513
3.44004
1.71926
1.30194
3.04928
3.98815
7.53605
6.89662
6.15557
5.22759
4.29966
3.26954
2.14312
1.17257
1.65625
2.55741
6.32539
6.0376
5.28137
4.23189
3.53342
2.91257
2.11847
1.4353
1.06863
1.23533
4.63172
5.23229
4.47439
2.99957
2.43704
2.2744
1.85604
1.38497
1.12284
0.659197
2.67285
4.53962
4.02167
1.96666
1.39671
1.4883
1.40998
1.2119
1.06422
0.845384
1.27683
3.78914
3.66668
1.33709
0.816123
0.897687
0.971252
0.956511
0.971959
1.02004
0.61355
2.97017
3.08233
0.956351
0.575321
0.640169
0.759747
0.820345
0.844318
0.877264
0.35542
2.19001
2.28562
0.688157
0.492825
0.595734
0.726891
0.811252
0.849003
0.873725
0.265342
1.55093
1.4893
0.521841
0.535126
0.674816
0.788336
0.859354
0.882738
0.892944
0.239654
1.01862
0.845521
0.515005
0.670467
0.804055
0.905258
0.968755
0.984437
0.9813
0.242845
0.492417
0.500277
0.63724
0.81835
0.955858
1.05362
1.11126
1.12174
1.11356
0.176577
0.204012
0.508724
0.756838
0.975598
1.12139
1.211
1.25796
1.27478
1.27544
0.0450708
0.25234
0.64967
0.923309
1.13655
1.2538
1.32987
1.39985
1.45659
1.47847
0.0615696
0.492715
0.822534
1.09599
1.22947
1.33836
1.48927
1.64826
1.73551
1.75095
0.698872
0.866024
1.04033
1.18271
1.3226
1.59719
1.9107
2.08031
2.08163
2.0484
0.363111
0.0806742
0.224164
0.551393
0.795803
0.892875
0.888724
0.843769
0.795431
0.757748
0.46225
0.202734
0.319687
0.522082
0.724856
0.811678
0.809768
0.773161
0.73226
0.710187
0.526049
0.372875
0.440779
0.514351
0.654146
0.731148
0.732485
0.703332
0.669299
0.662423
0.63937
0.588659
0.596395
0.55636
0.587839
0.643542
0.650208
0.631059
0.605505
0.614521
0.806626
0.804346
0.742963
0.639099
0.542504
0.555917
0.566103
0.557834
0.541395
0.566497
1.01025
1.00024
0.876229
0.738602
0.531402
0.474003
0.480741
0.483579
0.476993
0.518295
1.22829
1.1717
0.991009
0.826619
0.553357
0.407988
0.39701
0.409063
0.412599
0.469751
1.45289
1.32568
1.08957
0.888996
0.590018
0.36762
0.319328
0.335313
0.34854
0.420594
1.68517
1.46889
1.17567
0.923942
0.619588
0.353676
0.25448
0.264182
0.285352
0.370438
1.92616
1.60352
1.25478
0.937026
0.629732
0.353243
0.210165
0.199086
0.223885
0.318836
2.00922
0.74772
0.718492
0.966922
1.20031
1.28818
1.26329
1.18496
1.1136
1.00937
1.39446
0.483125
0.579926
0.876127
1.11194
1.20147
1.1815
1.11071
1.04277
0.951597
0.751571
0.288103
0.481962
0.799028
1.03741
1.12897
1.11327
1.04856
0.984695
0.90509
0.253282
0.17047
0.406311
0.727179
0.962113
1.0522
1.0392
0.980686
0.921551
0.855206
0.435781
0.032692
0.267714
0.614054
0.865817
0.967379
0.962839
0.912336
0.858658
0.806121
9.35465
9.29007
9.14101
8.87311
8.43757
7.77891
6.87137
5.75934
4.58203
3.53715
9.19249
9.09567
8.88112
8.51168
7.94154
7.13649
6.10967
4.95513
3.8448
2.78685
9.0239
8.90028
8.62664
8.16107
7.46179
6.51619
5.37147
4.16867
3.0813
1.94239
8.81633
8.66222
8.32152
7.74795
6.9062
5.81428
4.55501
3.29481
2.2258
1.08988
8.58751
8.37941
7.92586
7.17748
6.11255
4.79212
3.35063
2.08508
0.993807
0.301991
1.06011
1.0243
1.01606
1.01956
0.915006
0.799531
1.2933
3.68359
3.85999
1.32281
0.949033
0.933573
0.925933
0.870483
0.718576
0.588302
0.910589
3.14227
3.11037
0.647274
0.985805
0.982265
0.965368
0.892573
0.74708
0.58403
0.697877
2.37322
2.34752
0.377347
1.05331
1.06522
1.06106
1.00122
0.889673
0.740268
0.655175
1.55838
1.63586
0.277207
1.18616
1.21033
1.21606
1.16833
1.07709
0.951832
0.789135
0.910869
0.920803
0.246102
1.35164
1.37159
1.37989
1.35485
1.28505
1.15177
0.930311
0.670545
0.358708
0.216852
1.55653
1.55247
1.52002
1.47765
1.42697
1.32089
1.08072
0.755003
0.272663
0.0664566
1.82509
1.81876
1.73615
1.58294
1.44272
1.34617
1.21166
0.903043
0.495
0.0467851
2.10573
2.15313
2.15183
1.95796
1.61379
1.32369
1.18783
1.05813
0.857899
0.676458
2.31409
2.36085
2.48559
2.53841
2.2365
1.63432
1.1833
1.06709
1.30563
2.0452
8.15169
7.21374
5.96003
3.36032
0.131423
5.5965
6.92777
8.2357
8.98536
9.50957
7.91329
6.91533
5.70501
2.62161
0.563638
5.54554
6.88914
8.16755
8.92162
9.46573
7.40187
6.30747
5.20484
1.41546
1.59976
5.36187
6.80736
8.01941
8.78296
9.36628
6.56885
5.41868
4.23622
0.726273
2.73172
5.18172
6.65229
7.77353
8.54547
9.18359
5.38944
4.31248
2.63266
0.971024
3.35668
5.02057
6.37351
7.4031
8.17435
8.86988
3.97983
3.04149
1.31019
1.71319
3.42678
4.75624
5.91251
6.87256
7.63123
8.35351
2.54112
1.65353
1.18714
2.13284
3.2509
4.28303
5.21887
6.15468
6.89954
7.54138
1.21768
1.08763
1.45165
2.10721
2.88049
3.50309
4.21752
5.28214
6.04361
6.33606
0.671615
1.15282
1.40698
1.84228
2.23202
2.40022
2.98384
4.47949
5.24366
4.65549
0.884739
1.10231
1.24695
1.41254
1.46369
1.3689
1.94325
4.02669
4.5653
2.71644
2.09018
0.54343
1.06112
0.628365
0.660287
0.758261
0.632613
0.300342
0.061862
0.35645
1.63044
0.236806
0.870119
0.477983
0.56623
0.681164
0.593857
0.356933
0.265737
0.488404
1.33449
0.0584914
0.642046
0.33948
0.47761
0.602011
0.562787
0.459596
0.473176
0.590965
1.09842
0.0146441
0.394193
0.230753
0.392905
0.518593
0.563061
0.626131
0.732876
0.758296
0.848541
0.0887908
0.18972
0.157184
0.315223
0.442246
0.609393
0.80539
0.975327
0.977679
0.636372
0.153398
0.0531472
0.100374
0.243506
0.386558
0.694996
0.975731
1.19496
1.2253
0.464201
0.208481
0.0484304
0.052378
0.180023
0.365336
0.789052
1.12006
1.38754
1.48185
0.332043
0.209071
0.10648
0.0107911
0.121752
0.37423
0.863498
1.23746
1.55969
1.73718
0.233851
0.194458
0.121194
0.0360245
0.0640157
0.39185
0.907816
1.33316
1.71384
1.97863
0.163389
0.173047
0.12691
0.0585974
0.0290213
0.400496
0.927717
1.41474
1.84704
2.2022
9.33657
6.77035
2.66473
1.69911
1.20152
1.11996
0.964151
0.78124
0.796187
2.03309
8.21092
4.6365
2.21483
1.41703
1.0688
1.03511
0.890644
0.650646
0.527783
1.39863
6.12016
3.06403
1.78513
1.2096
0.963791
0.970817
0.831763
0.560972
0.328652
0.741049
4.13322
1.87601
1.49729
1.00301
0.857666
0.903695
0.775534
0.487513
0.228558
0.225244
2.83569
1.06135
1.2462
0.802256
0.754501
0.826213
0.685949
0.356354
0.0444271
0.398176
3.54769
4.58915
5.76325
6.87356
7.78046
8.43871
8.87389
9.14149
9.29033
9.35474
2.78094
3.84107
4.95238
6.10791
7.13589
7.94155
8.5119
8.88135
9.09583
9.19255
1.92843
3.07191
4.1622
5.36671
6.51363
7.46064
8.16064
8.62655
8.90031
9.02392
1.05573
2.20317
3.28165
4.54678
5.81006
6.90398
7.74683
8.32106
8.66207
8.81631
0.300558
0.962806
2.06402
3.33753
4.78516
6.10895
7.17549
7.92491
8.37904
8.58742
)
;

boundaryField
{
    left
    {
        type            calculated;
        value           nonuniform List<scalar> 
35
(
0.297454
0.566155
0.986923
1.62644
2.52476
3.69555
5.06604
6.47602
8.15848
9.4418
0.215052
0.135405
0.0829332
0.0505888
0.0333361
0.0278269
0.0333001
0.0528264
0.0925603
0.159927
4.93339
4.06163
3.23483
2.51293
1.91703
1.42706
1.03077
0.724869
0.496895
0.331519
9.61573
8.97907
7.92204
6.84776
5.85938
)
;
    }
    right
    {
        type            calculated;
        value           nonuniform List<scalar> 
35
(
1.0089
0.951312
0.905092
0.856012
0.808014
0.76115
0.715199
0.668918
0.622407
0.575674
0.528583
0.480835
0.431965
0.381338
0.328214
0.271722
0.211314
0.145903
0.080656
0.0273523
0.0736821
0.157971
0.23417
0.300423
0.352423
0.408955
0.465958
0.505853
0.535972
0.557624
0.575001
0.590834
0.608579
0.627166
0.657155
)
;
    }
    down
    {
        type            calculated;
        value           nonuniform List<scalar> 
40
(
9.45431
7.26636
2.89567
1.78832
1.2423
1.14833
0.989611
0.822767
0.897287
2.26032
3.83286
4.88245
6.03397
7.09289
7.94462
8.55503
8.95448
9.19926
9.33565
9.39488
9.39479
9.33537
9.19874
8.95361
8.55369
7.94267
7.08995
6.02877
4.87322
3.81893
2.23234
0.847814
0.762398
0.998914
1.23211
1.31795
1.29042
1.20895
1.13651
1.02811
)
;
    }
    up
    {
        type            calculated;
        value           nonuniform List<scalar> 
40
(
9.0341
7.80881
6.16751
4.39467
3.03339
2.11896
1.5197
1.12832
0.901063
0.671744
9.72927
9.72305
9.71045
9.69064
9.66234
9.62377
9.57263
9.50586
9.42076
9.32814
9.33506
9.42656
9.5104
9.57623
9.62665
9.66461
9.69238
9.71169
9.72379
9.72952
9.27074
7.09625
3.23947
2.15329
2.23395
3.01525
4.34529
6.14861
7.81367
9.04497
)
;
    }
    cylinder
    {
        type            calculated;
        value           nonuniform List<scalar> 
80
(
2.00712
4.57707
5.5422
5.78109
6.30552
7.09071
7.86182
8.47476
8.91244
9.2129
9.4458
9.61871
9.72981
9.79829
9.84096
9.86846
9.8865
9.89817
9.90522
9.90869
9.50039
9.6506
9.74902
9.81046
9.849
9.87389
9.89016
9.90054
9.90657
9.90913
5.33091
6.23506
6.21172
6.31636
6.83496
7.52687
8.17628
8.68601
9.05066
9.3025
0.994204
0.471505
0.264173
0.183198
0.159526
0.165565
0.0828423
0.0423062
0.750443
2.43527
9.59446
9.55589
9.46745
9.30187
9.00979
8.51138
7.68626
6.36654
4.38713
2.23865
9.59436
9.55557
9.46684
9.30079
9.00793
8.5082
7.68053
6.3545
4.35817
2.19137
0.952872
0.442326
0.244382
0.170865
0.150292
0.16551
0.160652
0.0838138
0.0433612
0.739473
)
;
    }
    defaultFaces
    {
        type            empty;
    }
}


// ************************************************************************* //
