/*--------------------------------*- C++ -*----------------------------------*\
  =========                 |
  \\      /  F ield         | OpenFOAM: The Open Source CFD Toolbox
   \\    /   O peration     | Website:  https://openfoam.org
    \\  /    A nd           | Version:  13
     \\/     M anipulation  |
\*---------------------------------------------------------------------------*/
FoamFile
{
    format      ascii;
    class       volVectorField;
    location    "1";
    object      U;
}
// * * * * * * * * * * * * * * * * * * * * * * * * * * * * * * * * * * * * * //

dimensions      [0 1 -1 0 0 0 0];

internalField   nonuniform List<vector> 
1800
(
(0.0978001 -0.0883279 -4.48819e-20)
(0.286894 -0.24195 -3.4111e-20)
(0.473972 -0.379043 -4.85007e-19)
(0.657691 -0.500158 1.91467e-19)
(0.836612 -0.607172 7.44044e-20)
(1.00992 -0.70138 -3.90495e-20)
(1.17716 -0.783475 5.54998e-20)
(1.33794 -0.85369 1.97507e-19)
(1.4916 -0.912978 5.92316e-19)
(1.63354 -0.966921 8.10115e-19)
(0.11906 -0.0915021 -7.91089e-20)
(0.34429 -0.247708 -7.70611e-19)
(0.563281 -0.384749 3.78144e-21)
(0.775363 -0.504236 1.25733e-19)
(0.979506 -0.608922 -1.26246e-19)
(1.17522 -0.700697 7.65656e-20)
(1.36232 -0.780792 -2.8074e-19)
(1.54078 -0.850105 -5.03084e-20)
(1.71011 -0.910714 -6.93602e-19)
(1.86786 -0.967058 6.29843e-19)
(0.14165 -0.0923225 4.88225e-20)
(0.403679 -0.24773 2.09287e-19)
(0.653754 -0.382116 5.43302e-19)
(0.892177 -0.497904 -1.90253e-19)
(1.11866 -0.598385 -1.4299e-19)
(1.33321 -0.685813 7.56024e-20)
(1.53606 -0.761708 9.82337e-20)
(1.72743 -0.827301 1.94051e-19)
(1.90721 -0.884808 2.73663e-21)
(2.07422 -0.937878 1.50978e-19)
(0.163906 -0.0897205 -4.57189e-20)
(0.461697 -0.239469 -2.0439e-19)
(0.741427 -0.367618 -1.81257e-19)
(1.00451 -0.476976 -1.4229e-19)
(1.25162 -0.571022 1.81301e-19)
(1.48351 -0.652128 -5.70876e-20)
(1.70093 -0.721907 -4.30994e-21)
(1.90453 -0.781624 2.90525e-21)
(2.09456 -0.833369 -1.60489e-19)
(2.27026 -0.880362 -1.05916e-19)
(0.184657 -0.0833562 -1.14034e-19)
(0.515893 -0.221807 8.76392e-20)
(0.823291 -0.33943 1.79834e-19)
(1.10931 -0.439063 2.43296e-19)
(1.37561 -0.524071 -2.8501e-19)
(1.62371 -0.596778 -3.58067e-21)
(1.85494 -0.658768 4.2495e-19)
(2.07043 -0.711264 -1.85055e-19)
(2.27083 -0.756166 -1.23984e-19)
(2.45578 -0.796401 -5.35379e-20)
(0.203189 -0.0734999 1.73587e-19)
(0.56447 -0.1952 1.02983e-18)
(0.89679 -0.298074 1.43257e-19)
(1.20351 -0.384735 -5.03127e-19)
(1.48719 -0.458226 -1.75496e-19)
(1.75003 -0.520669 6.37664e-19)
(1.9939 -0.573525 -1.45365e-19)
(2.22036 -0.617901 -4.31557e-19)
(2.43047 -0.655446 -3.16673e-19)
(2.6242 -0.688745 2.61586e-19)
(0.218898 -0.0605912 1.16339e-19)
(0.605744 -0.1607 -7.47582e-19)
(0.959312 -0.24503 -1.08559e-18)
(1.2837 -0.315798 3.83777e-19)
(1.58223 -0.375564 4.49928e-19)
(1.85767 -0.426128 -9.02013e-22)
(2.11239 -0.46874 -6.3965e-19)
(2.34829 -0.504326 2.1931e-19)
(2.56683 -0.534214 -3.64522e-19)
(2.76827 -0.560572 -3.11226e-19)
(0.231235 -0.0451722 -3.42481e-19)
(0.638198 -0.119684 -6.92591e-19)
(1.00849 -0.182294 1.21219e-18)
(1.34677 -0.2347 5.98691e-19)
(1.65693 -0.278852 -2.6975e-19)
(1.94224 -0.316136 -2.11491e-19)
(2.20543 -0.347516 0)
(2.44874 -0.37369 1.16797e-19)
(2.67398 -0.395623 -2.95837e-19)
(2.88171 -0.414971 -7.74178e-20)
(0.239766 -0.0278753 -2.04463e-19)
(0.660651 -0.0737557 5.62375e-19)
(1.04249 -0.112198 1.71005e-19)
(1.39031 -0.144289 -5.12484e-19)
(1.7084 -0.171277 -7.8418e-19)
(2.00037 -0.194054 3.66183e-20)
(2.26923 -0.213246 1.67126e-19)
(2.51752 -0.229294 -5.4683e-19)
(2.74731 -0.242785 -2.89766e-19)
(2.95953 -0.254779 -5.6359e-19)
(0.244259 -0.0094024 4.51401e-19)
(0.672451 -0.024704 3.44143e-19)
(1.0603 -0.0373616 -9.38584e-20)
(1.41303 -0.0477885 -1.29776e-20)
(1.73514 -0.0564624 -3.87501e-19)
(2.03041 -0.0637233 -8.57328e-20)
(2.30205 -0.0698104 -2.90573e-19)
(2.55275 -0.0748907 6.4655e-19)
(2.7848 -0.0791717 1.71001e-19)
(2.99945 -0.0830126 2.21987e-21)
(-0.00234125 -0.0217701 -3.54827e-20)
(0.0085683 -0.0693622 -6.98941e-20)
(0.0248447 -0.120628 -7.33421e-21)
(0.0492813 -0.171416 -3.39211e-20)
(0.0776316 -0.216832 -1.27393e-20)
(0.106457 -0.254968 -3.90091e-19)
(0.135468 -0.28889 -1.95687e-20)
(0.166248 -0.322212 1.19954e-19)
(0.199075 -0.355747 1.09379e-20)
(0.232964 -0.388136 -3.57006e-20)
(0.00085211 -0.0246642 -9.77638e-20)
(0.0149298 -0.0850511 -2.13762e-19)
(0.0393432 -0.160442 -5.28728e-20)
(0.0692648 -0.225427 -1.10215e-19)
(0.099459 -0.275719 -9.60751e-20)
(0.130399 -0.318144 -2.79182e-19)
(0.164405 -0.359145 2.00137e-19)
(0.202066 -0.400575 1.68824e-19)
(0.241568 -0.440519 -2.57063e-19)
(0.281072 -0.47692 8.14551e-20)
(0.00549736 -0.0314703 -8.54176e-20)
(0.0287722 -0.107401 -8.6954e-19)
(0.0628697 -0.196179 -1.30309e-19)
(0.0974515 -0.269075 9.24141e-20)
(0.131789 -0.327319 6.76399e-20)
(0.169607 -0.380395 -4.47509e-19)
(0.212901 -0.43245 3.53164e-20)
(0.259096 -0.481974 3.67027e-19)
(0.305439 -0.526456 -3.8677e-19)
(0.351379 -0.565865 -2.58717e-19)
(0.0113682 -0.0409664 -1.77408e-21)
(0.0466238 -0.130868 1.90265e-19)
(0.0896525 -0.225371 1.60266e-21)
(0.133079 -0.307093 -1.06908e-20)
(0.177775 -0.377936 -2.99323e-20)
(0.227223 -0.443942 8.55319e-20)
(0.281079 -0.505738 7.25133e-20)
(0.335648 -0.561031 -1.3594e-19)
(0.389702 -0.609528 9.21196e-21)
(0.443864 -0.652108 -1.04426e-20)
(0.0185083 -0.0507594 0)
(0.0672391 -0.152423 5.52227e-21)
(0.121946 -0.253653 -5.1155e-19)
(0.178698 -0.345506 5.17728e-20)
(0.237804 -0.428616 -9.42398e-21)
(0.300511 -0.505147 4.85525e-21)
(0.365305 -0.574457 -2.51434e-20)
(0.429799 -0.635533 -7.76229e-21)
(0.493932 -0.688953 0)
(0.558123 -0.734977 -2.05803e-20)
(0.0273244 -0.0596433 3.18971e-20)
(0.091895 -0.172852 -1.54651e-19)
(0.161769 -0.282529 -4.62394e-20)
(0.234632 -0.383904 -5.82552e-20)
(0.309738 -0.476776 4.95548e-20)
(0.386739 -0.561571 6.10396e-21)
(0.464245 -0.637753 8.86125e-20)
(0.540939 -0.705012 -2.17523e-20)
(0.616909 -0.763528 -6.95835e-19)
(0.692159 -0.812746 -1.00991e-20)
(0.0379735 -0.0676007 6.74175e-22)
(0.121236 -0.192174 5.54564e-20)
(0.209164 -0.310617 -7.83328e-20)
(0.299928 -0.420182 -1.66792e-20)
(0.392139 -0.520681 -7.29063e-20)
(0.484782 -0.612148 -9.23519e-21)
(0.576707 -0.694357 1.02443e-20)
(0.666948 -0.767189 -2.11209e-19)
(0.755534 -0.830324 3.8329e-19)
(0.842327 -0.882392 9.71238e-19)
(0.0503601 -0.0745986 1.50996e-20)
(0.155128 -0.209607 -1.42205e-19)
(0.263462 -0.335963 -2.13638e-19)
(0.373671 -0.452112 8.89615e-20)
(0.484105 -0.55827 -6.43044e-20)
(0.593549 -0.654627 9.85075e-20)
(0.700951 -0.741294 1.96475e-19)
(0.805418 -0.818327 -1.08877e-19)
(0.907032 -0.885152 -3.05822e-19)
(1.00571 -0.939578 7.2515e-19)
(0.0642889 -0.0803582 -2.65188e-20)
(0.193284 -0.224023 -5.78106e-19)
(0.324296 -0.356557 5.24271e-19)
(0.455684 -0.47723 3.37456e-19)
(0.585741 -0.586747 -8.59079e-20)
(0.713228 -0.685665 3.08555e-19)
(0.837136 -0.774444 -1.59934e-19)
(0.956573 -0.853476 -7.72491e-19)
(1.07174 -0.922062 -4.03617e-19)
(1.18269 -0.977316 4.53546e-19)
(0.0795442 -0.084665 -7.98152e-20)
(0.235844 -0.234415 -5.44372e-19)
(0.392391 -0.370523 -8.32254e-21)
(0.547542 -0.492794 6.88702e-20)
(0.699596 -0.602464 3.37729e-19)
(0.847395 -0.700436 -1.85371e-19)
(0.990018 -0.787448 -1.69415e-19)
(1.12654 -0.863839 1.88934e-19)
(1.25682 -0.928667 -3.51567e-19)
(1.38008 -0.98038 -5.84472e-19)
(0.402849 -0.532304 9.81522e-19)
(0.684756 -0.61895 -2.38507e-19)
(0.913676 -0.558479 -1.41587e-19)
(1.08775 -0.432312 2.66865e-19)
(1.24054 -0.281463 -2.29396e-19)
(1.36333 -0.141159 -2.98217e-19)
(1.4627 -0.0377226 -2.65873e-19)
(1.5243 0.0157572 -3.18233e-20)
(1.54855 0.0330284 -6.10837e-20)
(1.57152 0.0253778 3.08852e-20)
(0.468784 -0.620155 9.63859e-19)
(0.741364 -0.694375 7.07941e-20)
(0.966152 -0.618546 1.09947e-20)
(1.1248 -0.481616 -2.14135e-19)
(1.26579 -0.321928 -7.09642e-19)
(1.38162 -0.174079 0)
(1.48248 -0.0633192 -2.48524e-19)
(1.562 0.000361812 5.1878e-20)
(1.60369 0.0252377 4.60744e-21)
(1.64297 0.0204083 3.60982e-20)
(0.556132 -0.705785 -9.98369e-19)
(0.810653 -0.76733 -7.13134e-20)
(1.02536 -0.67645 1.56413e-19)
(1.16606 -0.528728 -5.41254e-20)
(1.2912 -0.361162 -3.65964e-20)
(1.39755 -0.206885 6.39084e-20)
(1.49422 -0.0908925 0)
(1.58315 -0.0202726 0)
(1.64298 0.0114419 5.65363e-22)
(1.70661 0.0122823 0)
(0.665641 -0.787499 -2.25203e-19)
(0.895484 -0.835866 4.05762e-19)
(1.09178 -0.731129 2.68508e-20)
(1.21227 -0.572652 0)
(1.31774 -0.398261 6.05687e-19)
(1.41219 -0.238513 -1.39212e-19)
(1.50138 -0.119009 0)
(1.59311 -0.0430582 1.40393e-19)
(1.65851 -0.00911488 0)
(1.75873 0.00023018 -5.53242e-20)
(0.795708 -0.86415 -1.48773e-19)
(0.997534 -0.898001 4.56615e-19)
(1.16602 -0.781431 -1.46562e-20)
(1.26361 -0.612563 0)
(1.34612 -0.432394 1.8065e-19)
(1.42608 -0.268165 2.63756e-19)
(1.50577 -0.146484 4.6643e-20)
(1.597 -0.0661441 6.37123e-21)
(1.65755 -0.0316652 -1.55109e-20)
(1.79051 -0.0199673 3.80204e-20)
(0.942241 -0.934984 -1.33435e-18)
(1.11641 -0.952389 -9.44836e-19)
(1.2487 -0.826094 4.75236e-21)
(1.31983 -0.647747 5.77061e-19)
(1.3767 -0.462787 -3.0889e-19)
(1.4394 -0.295233 1.45905e-19)
(1.50849 -0.172385 2.26441e-19)
(1.59417 -0.0890279 -1.88332e-19)
(1.6566 -0.0529939 -1.90443e-21)
(1.76474 -0.0417836 -3.01638e-20)
(1.10011 -0.999629 -2.61326e-19)
(1.24996 -0.998844 2.87404e-19)
(1.34004 -0.864008 3.89466e-21)
(1.38061 -0.677524 -1.766e-20)
(1.40958 -0.4887 -5.9595e-19)
(1.45215 -0.319143 5.34505e-20)
(1.50978 -0.196205 -9.49305e-20)
(1.58702 -0.109723 -2.56277e-20)
(1.65068 -0.0739951 1.55911e-20)
(1.71092 -0.0531431 -2.43899e-20)
(1.26435 -1.05698 -1.20017e-18)
(1.39472 -1.03798 2.10493e-19)
(1.43904 -0.894583 0)
(1.44498 -0.701467 3.44655e-20)
(1.44403 -0.509662 5.24083e-19)
(1.46392 -0.3395 -1.9637e-21)
(1.50858 -0.217583 -3.23503e-19)
(1.57981 -0.127973 8.31389e-20)
(1.6143 -0.0878322 -2.45125e-21)
(1.64497 -0.059135 -7.46322e-20)
(1.43203 -1.10361 3.39083e-18)
(1.54804 -1.07069 2.45511e-19)
(1.54551 -0.918529 4.65543e-19)
(1.51319 -0.719992 -3.17909e-20)
(1.48017 -0.525825 -3.4476e-20)
(1.4742 -0.356573 -4.2797e-19)
(1.50528 -0.235329 1.00034e-19)
(1.553 -0.143978 3.14419e-21)
(1.55588 -0.0921504 -2.42605e-20)
(1.57116 -0.0619384 8.81241e-20)
(1.59927 -1.12827 -2.9979e-18)
(1.70187 -1.09585 1.27174e-18)
(1.65388 -0.938494 -2.3379e-19)
(1.58136 -0.736591 -7.89959e-19)
(1.51498 -0.540719 -6.53528e-19)
(1.48057 -0.374054 -2.48294e-19)
(1.49476 -0.253619 -7.44782e-20)
(1.49507 -0.150142 0)
(1.48894 -0.0934058 -8.63538e-20)
(1.49225 -0.0631175 1.78728e-19)
(1.88822 -1.17031 -6.70958e-18)
(1.92742 -1.10538 -1.69116e-18)
(1.80479 -0.932664 -5.76863e-20)
(1.67306 -0.728298 1.11561e-19)
(1.56142 -0.535761 1.57052e-19)
(1.48834 -0.374571 -9.75789e-20)
(1.4361 -0.250325 -3.97836e-20)
(1.41042 -0.148248 7.86195e-20)
(1.39581 -0.0921961 -6.89496e-20)
(1.38714 -0.0629077 -8.17714e-20)
(2.28937 -1.13495 4.96012e-19)
(2.17885 -1.0569 -2.93861e-19)
(1.94258 -0.865642 4.84632e-19)
(1.73532 -0.665223 -8.2504e-20)
(1.56063 -0.481991 -1.69109e-20)
(1.42428 -0.334802 -7.74684e-20)
(1.3362 -0.2247 9.03419e-20)
(1.29363 -0.136231 -3.31802e-20)
(1.27156 -0.0860871 2.27904e-19)
(1.25247 -0.0596351 1.05686e-19)
(2.61059 -1.04367 2.27078e-18)
(2.35186 -0.948884 3.25676e-19)
(2.00795 -0.759673 -1.17478e-19)
(1.7319 -0.573219 1.69616e-36)
(1.5039 -0.411595 -2.56926e-20)
(1.33706 -0.287686 1.48989e-33)
(1.22992 -0.194661 -2.20137e-20)
(1.17085 -0.121056 -1.79762e-33)
(1.14115 -0.0774735 7.26972e-21)
(1.11333 -0.0541769 -9.67821e-21)
(2.78699 -0.894015 3.88516e-33)
(2.36929 -0.795706 2.96657e-18)
(1.97329 -0.630626 1.8161e-18)
(1.65297 -0.469586 0)
(1.40558 -0.335414 8.27711e-19)
(1.22822 -0.234232 4.22092e-19)
(1.11118 -0.159476 1.70659e-19)
(1.04161 -0.101853 -3.16449e-33)
(1.00541 -0.0663016 -5.14989e-20)
(0.970814 -0.0469061 4.29752e-21)
(2.7636 -0.705923 3.84238e-18)
(2.2458 -0.62993 -1.46794e-19)
(1.84634 -0.491099 0)
(1.51525 -0.361783 0)
(1.27075 -0.255943 0)
(1.09631 -0.178757 0)
(0.979179 -0.122845 -1.29719e-20)
(0.905643 -0.0804115 -4.42381e-33)
(0.865257 -0.0532462 8.25374e-21)
(0.826082 -0.0383249 2.22204e-34)
(2.55114 -0.517051 3.26539e-18)
(2.02 -0.462934 0)
(1.63846 -0.353677 0)
(1.32661 -0.256762 0)
(1.10067 -0.179798 0)
(0.941112 -0.125699 0)
(0.832562 -0.0872224 3.32303e-20)
(0.761644 -0.0584278 -9.63814e-20)
(0.720531 -0.0392305 9.12852e-21)
(0.679683 -0.0290071 2.10023e-20)
(2.1901 -0.342717 0)
(1.7026 -0.30352 1.09792e-18)
(1.36123 -0.227622 1.09011e-18)
(1.09123 -0.16199 0)
(0.898257 -0.112366 6.65921e-19)
(0.763669 -0.0787749 4.01677e-19)
(0.671121 -0.0552602 2.48913e-19)
(0.608653 -0.0378705 8.64699e-20)
(0.570725 -0.0255643 -4.63299e-20)
(0.531797 -0.0197125 1.43797e-23)
(1.70285 -0.191139 -6.73878e-19)
(1.30017 -0.165597 -2.7418e-19)
(1.02502 -0.121763 1.75656e-19)
(0.815039 -0.0844331 -2.11236e-34)
(0.667641 -0.0580837 -7.71579e-20)
(0.566004 -0.0410686 3.6977e-33)
(0.49536 -0.0292383 4.87822e-20)
(0.446274 -0.0205798 9.90233e-20)
(0.415338 -0.0137538 1.03468e-20)
(0.382377 -0.0113302 -3.01502e-22)
(1.10088 -0.0758225 3.40807e-18)
(0.823153 -0.0626798 -1.86604e-19)
(0.640565 -0.0442963 -5.8905e-19)
(0.506125 -0.0289852 0)
(0.413798 -0.0195646 -6.40213e-19)
(0.350585 -0.0141358 -4.32148e-19)
(0.306039 -0.0104034 -2.04553e-19)
(0.274269 -0.00774868 -1.46297e-19)
(0.253665 -0.00509813 1.9377e-19)
(0.230998 -0.00469556 -3.9322e-20)
(0.397351 -0.00331885 0)
(0.287865 0.00159453 0)
(0.220886 0.00409439 0)
(0.173545 0.00624849 0)
(0.142371 0.00585969 0)
(0.121177 0.00472137 0)
(0.105827 0.0037086 5.58738e-20)
(0.0944426 0.00264471 -2.17243e-34)
(0.0867888 0.00245766 1.27852e-20)
(0.0780483 0.00113644 1.14216e-20)
(3.3671 -0.0863126 5.39218e-19)
(3.32642 -0.265088 -8.4188e-20)
(3.24735 -0.43066 8.52084e-19)
(3.13238 -0.582162 -6.04746e-19)
(2.98634 -0.718131 6.664e-19)
(2.81524 -0.836391 2.7525e-19)
(2.62661 -0.934071 -1.92741e-18)
(2.42952 -1.00786 -7.74994e-20)
(2.22469 -1.0537 0)
(1.98487 -1.06659 4.25978e-19)
(3.86191 -0.0750611 7.07367e-18)
(3.79859 -0.234217 1.95629e-18)
(3.70428 -0.387316 -4.86735e-18)
(3.58426 -0.531999 -4.49148e-19)
(3.44239 -0.665904 3.55898e-18)
(3.28186 -0.787334 1.92357e-18)
(3.10651 -0.895087 -5.16891e-18)
(2.92205 -0.987728 -1.95227e-18)
(2.72761 -1.06342 2.20324e-18)
(2.49239 -1.12056 8.52208e-19)
(3.83307 -0.0533026 -1.2626e-19)
(3.82024 -0.17157 4.40352e-18)
(3.78545 -0.299766 -1.08813e-18)
(3.72433 -0.430925 -3.44615e-18)
(3.63617 -0.558738 -6.79978e-18)
(3.52371 -0.678813 1.02787e-17)
(3.39117 -0.788807 4.18059e-18)
(3.2435 -0.888004 -3.91188e-18)
(3.08161 -0.978744 -2.90282e-18)
(2.88724 -1.06304 -3.42515e-18)
(3.62866 -0.0472876 -4.83934e-18)
(3.61961 -0.144934 -4.35337e-18)
(3.59963 -0.243744 5.47204e-18)
(3.56735 -0.343099 1.91183e-18)
(3.5224 -0.442385 -8.97101e-18)
(3.46415 -0.540817 4.92124e-19)
(3.39181 -0.637057 3.88626e-18)
(3.3051 -0.730445 -1.05388e-18)
(3.20497 -0.823082 1.27675e-18)
(3.08303 -0.914794 2.81782e-19)
(3.34405 -0.0365798 -9.1598e-19)
(3.339 -0.111657 3.00406e-18)
(3.3271 -0.188678 1.61956e-18)
(3.30744 -0.267173 -1.89424e-18)
(3.27986 -0.346072 -2.00133e-18)
(3.24465 -0.424141 -2.43389e-18)
(3.20203 -0.50034 3.79641e-19)
(3.15174 -0.574502 1.39048e-19)
(3.09547 -0.64777 -2.1396e-18)
(3.03284 -0.72132 -2.03425e-18)
(2.96257 -0.0265557 -1.82247e-18)
(2.95981 -0.07989 -5.87277e-20)
(2.9533 -0.1346 -1.6375e-18)
(2.9424 -0.190904 3.12134e-19)
(2.92675 -0.248551 5.36776e-18)
(2.90629 -0.306931 -3.66742e-19)
(2.88091 -0.365117 4.43372e-20)
(2.85022 -0.422062 -2.60854e-18)
(2.81643 -0.476887 -3.49556e-18)
(2.78599 -0.52987 3.72873e-19)
(2.48713 -0.0175117 -2.89323e-20)
(2.48578 -0.0519355 -8.143e-19)
(2.48259 -0.0872488 -2.6148e-18)
(2.47707 -0.123772 -3.43097e-18)
(2.4688 -0.161534 2.49651e-18)
(2.45744 -0.200268 1.50223e-18)
(2.44261 -0.239354 -1.38506e-18)
(2.4237 -0.277792 1.62448e-18)
(2.40274 -0.314485 -4.29699e-19)
(2.38952 -0.349543 -9.63758e-19)
(1.91464 -0.00968894 7.72442e-19)
(1.91408 -0.028298 -8.31781e-19)
(1.91278 -0.04744 -3.2768e-20)
(1.91032 -0.0673593 -3.47241e-20)
(1.90624 -0.0881303 -7.27403e-20)
(1.90013 -0.109615 -2.33191e-18)
(1.89151 -0.131405 -6.7867e-19)
(1.87978 -0.152783 2.6261e-18)
(1.86664 -0.172976 -6.03509e-19)
(1.86191 -0.192208 -1.35115e-18)
(1.23989 -0.00373787 -1.64278e-18)
(1.23967 -0.0106958 -8.48893e-19)
(1.23923 -0.0179013 2.33915e-18)
(1.23823 -0.0254786 -8.89758e-19)
(1.23625 -0.0334753 -6.74111e-19)
(1.2329 -0.0418316 1.35201e-18)
(1.22775 -0.0503499 -1.29588e-18)
(1.22038 -0.0586655 1.28698e-18)
(1.21202 -0.0663427 -1.21032e-18)
(1.21007 -0.0735086 -4.2483e-18)
(0.454917 -0.000258 6.63065e-19)
(0.454827 -0.000700546 7.03038e-19)
(0.454692 -0.00115912 7.48165e-19)
(0.454325 -0.00164005 1.35394e-18)
(0.453496 -0.00214017 -6.71973e-19)
(0.451984 -0.00263717 -1.2996e-18)
(0.449568 -0.00309908 6.14708e-19)
(0.445993 -0.0035929 2.48375e-20)
(0.441737 -0.0043922 -4.96535e-20)
(0.44035 -0.00504562 1.1057e-19)
(1.65358 0.99731 -2.85851e-19)
(1.51228 0.941887 1.79913e-20)
(1.3588 0.880766 -2.28812e-19)
(1.19768 0.808452 1.76294e-19)
(1.02958 0.723987 -1.91804e-19)
(0.854826 0.627082 -1.01075e-19)
(0.673759 0.516944 2.31967e-19)
(0.487035 0.392147 -3.04865e-19)
(0.29589 0.250642 3.09879e-19)
(0.101429 0.091643 2.38686e-19)
(1.8864 0.992216 0)
(1.72969 0.934758 6.39451e-19)
(1.56084 0.872781 3.32706e-19)
(1.38229 0.801861 1.62622e-19)
(1.19453 0.719883 4.31076e-19)
(0.997534 0.625901 -8.68373e-20)
(0.79136 0.518602 -7.85248e-20)
(0.576345 0.395989 8.87319e-20)
(0.353316 0.255174 -1.04513e-18)
(0.122697 0.0943544 -1.66641e-20)
(2.09105 0.959054 1.568e-19)
(1.92524 0.90508 0)
(1.74614 0.84647 -1.00729e-19)
(1.55494 0.779554 -3.83289e-19)
(1.3517 0.702085 5.37019e-20)
(1.13609 0.61279 3.97057e-19)
(0.907782 0.510088 -6.06832e-19)
(0.666588 0.391637 -2.00885e-19)
(0.412594 0.254043 7.83572e-19)
(0.14525 0.0947343 -1.75919e-19)
(2.28485 0.898364 1.87916e-19)
(2.11045 0.850567 1.19655e-20)
(1.9213 0.797865 2.45303e-20)
(1.71811 0.737003 3.60776e-20)
(1.50058 0.665857 -2.93008e-20)
(1.26792 0.583132 2.73229e-19)
(1.01926 0.487167 -2.06868e-19)
(0.753672 0.375529 -8.55531e-19)
(0.470269 0.244677 0)
(0.167387 0.0916959 0)
(2.46796 0.811825 -1.07087e-18)
(2.28436 0.77084 -6.09282e-19)
(2.08493 0.725063 -1.20691e-19)
(1.87003 0.671523 -6.65688e-20)
(1.6389 0.608295 0)
(1.39031 0.534136 2.40739e-19)
(1.12275 0.447433 2.67763e-19)
(0.834553 0.345834 2.86226e-19)
(0.523838 0.225952 -4.23722e-19)
(0.187907 0.0848976 -8.12304e-20)
(2.634 0.702096 7.66473e-19)
(2.44156 0.668065 -1.39168e-19)
(2.23244 0.62968 -2.21599e-19)
(2.00664 0.584306 0)
(1.76301 0.530279 0)
(1.49987 0.466487 0)
(1.21522 0.391463 -3.89783e-20)
(0.906682 0.303089 3.70271e-19)
(0.571497 0.198347 3.79147e-19)
(0.206082 0.0746239 -3.08558e-19)
(2.7758 0.572357 -1.1936e-18)
(2.5755 0.545261 -1.48142e-18)
(2.35786 0.51453 -3.03378e-22)
(2.1226 0.477946 -1.87647e-19)
(1.86818 0.434181 -9.28773e-20)
(1.59257 0.382317 -1.78829e-19)
(1.29332 0.321124 4.59077e-19)
(0.967487 0.248836 2.14862e-19)
(0.611582 0.162966 5.40011e-19)
(0.221314 0.06134 2.02847e-19)
(2.88707 0.425749 -1.15709e-18)
(2.68027 0.405633 8.47037e-20)
(2.45576 0.38282 1.64527e-19)
(2.21296 0.355611 1.68137e-20)
(1.95004 0.32305 -3.14393e-19)
(1.66465 0.284468 -1.742e-19)
(1.35397 0.238937 -6.21195e-19)
(1.01463 0.18514 1.18529e-19)
(0.642603 0.121236 5.1473e-20)
(0.233065 0.0456125 -6.26925e-21)
(2.96279 0.265187 1.01368e-19)
(2.7512 0.252354 3.96999e-19)
(2.52189 0.237904 -3.3029e-19)
(2.27394 0.22074 3.63004e-19)
(2.00523 0.200296 3.72541e-19)
(1.71322 0.176176 4.91887e-19)
(1.39481 0.147809 -6.35728e-19)
(1.04633 0.114389 -3.24409e-19)
(0.66341 0.0748095 -4.58505e-20)
(0.240915 0.028095 -3.26988e-19)
(3.00052 0.093577 5.81811e-19)
(2.78612 0.0887854 -1.86162e-19)
(2.55425 0.0834437 4.79557e-19)
(2.30366 0.0771499 -3.10657e-19)
(2.03208 0.0697276 2.66476e-19)
(1.73679 0.0610616 6.05398e-19)
(1.41457 0.0509782 3.78878e-19)
(1.06161 0.0392345 3.09336e-19)
(0.673395 0.0255065 2.65857e-19)
(0.244653 0.0095072 5.43605e-19)
(0.23969 0.45236 -4.69363e-19)
(0.204076 0.418628 -1.88042e-19)
(0.168492 0.381525 1.39275e-19)
(0.134945 0.343836 -4.19099e-19)
(0.105198 0.307691 -1.19333e-19)
(0.0782988 0.270436 6.9294e-19)
(0.0519245 0.224031 3.35756e-19)
(0.0259977 0.15915 -1.54909e-19)
(0.00706915 0.0797704 1.15029e-19)
(-0.00112027 0.0224674 -6.07889e-20)
(0.288686 0.544666 4.116e-19)
(0.24878 0.507862 4.58673e-19)
(0.208229 0.4658 -1.15044e-20)
(0.167892 0.418748 -1.32954e-19)
(0.131157 0.370592 -3.14056e-19)
(0.10062 0.322966 8.287e-20)
(0.0734947 0.269624 2.25523e-19)
(0.0459182 0.197142 1.657e-19)
(0.0183619 0.102012 -5.91558e-19)
(0.00279839 0.0289123 -1.23707e-19)
(0.359649 0.633479 -6.01135e-19)
(0.313787 0.593318 -4.81656e-19)
(0.267996 0.547465 2.57964e-19)
(0.221358 0.494138 1.3856e-19)
(0.175812 0.434345 -6.26761e-21)
(0.136272 0.372097 -1.40351e-19)
(0.10212 0.305791 -2.9739e-20)
(0.0684443 0.225035 -5.54793e-19)
(0.0336876 0.126125 -2.69305e-19)
(0.00764805 0.0378375 -3.90491e-20)
(0.454184 0.718201 5.03514e-19)
(0.400032 0.673988 1.6475e-19)
(0.346345 0.622956 -1.49543e-19)
(0.292216 0.563889 6.3219e-20)
(0.237742 0.495763 -6.36113e-22)
(0.186583 0.421051 1.26838e-21)
(0.140103 0.340794 -1.32605e-19)
(0.0954628 0.25035 3.77956e-19)
(0.0514453 0.147804 -4.19082e-19)
(0.0135893 0.0477392 -6.49936e-20)
(0.571978 0.798135 -2.82193e-19)
(0.507835 0.750021 -8.88766e-20)
(0.443559 0.69315 -1.43723e-20)
(0.378955 0.627404 -7.05914e-20)
(0.313712 0.552118 5.87096e-20)
(0.24966 0.468189 5.30032e-20)
(0.18838 0.376807 -2.8022e-20)
(0.129328 0.276716 -2.81893e-19)
(0.0725336 0.167682 2.18244e-19)
(0.0209249 0.0568568 8.72293e-20)
(0.709403 0.871174 6.43197e-19)
(0.634357 0.81977 3.20552e-19)
(0.558123 0.75758 2.02614e-19)
(0.480851 0.685491 4.8234e-20)
(0.402411 0.60363 1.55425e-19)
(0.323871 0.51244 7.87835e-20)
(0.246469 0.412573 1.43665e-19)
(0.170869 0.303948 5.79538e-20)
(0.0980579 0.186821 -1.57976e-20)
(0.0300013 0.0650389 -1.32456e-20)
(0.862023 0.935045 -1.1979e-19)
(0.775545 0.880827 -8.24147e-19)
(0.686706 0.814179 -7.54375e-20)
(0.595728 0.736913 -5.31008e-20)
(0.502565 0.649691 -1.99907e-20)
(0.408128 0.552758 1.5173e-19)
(0.313481 0.446341 -4.38024e-20)
(0.219713 0.330431 6.49318e-20)
(0.128296 0.20509 -1.44626e-19)
(0.0409062 0.0724973 -1.27773e-21)
(1.02674 0.986167 -8.84454e-19)
(0.92848 0.92975 5.94336e-20)
(0.826667 0.859795 -2.3431e-19)
(0.721471 0.778951 -7.22453e-20)
(0.612775 0.688052 -2.37011e-20)
(0.501462 0.587097 -7.52068e-20)
(0.38853 0.475911 5.62395e-20)
(0.275165 0.354205 6.0288e-20)
(0.162983 0.221562 -9.82071e-21)
(0.0535449 0.0791217 -1.03756e-19)
(1.20391 1.01803 1.23814e-19)
(1.09352 0.961024 5.22855e-19)
(0.978267 0.889782 1.54986e-21)
(0.858233 0.807599 -2.94047e-20)
(0.733152 0.715331 1.50715e-19)
(0.603896 0.612569 -3.47109e-19)
(0.471406 0.498761 -2.4431e-19)
(0.336832 0.373214 3.56074e-19)
(0.201772 0.235009 1.44162e-19)
(0.0677022 0.0845326 -3.61947e-20)
(1.40061 1.01554 7.39505e-19)
(1.27807 0.962403 3.23591e-19)
(1.14784 0.895409 5.59647e-20)
(1.01088 0.816435 -1.94737e-19)
(0.867277 0.726543 -1.64154e-20)
(0.717905 0.62535 4.65475e-19)
(0.563586 0.512011 -2.68169e-19)
(0.405341 0.385478 -1.84462e-19)
(0.244705 0.24432 3.35771e-19)
(0.0831135 0.0884404 -6.02989e-21)
(0.977875 0.0991535 8.55436e-21)
(1.13998 0.143002 -2.5145e-21)
(1.21338 0.191493 -2.47439e-20)
(1.32591 0.1692 0)
(1.38019 0.154701 -9.41842e-22)
(1.28089 0.233628 -6.0452e-20)
(1.13077 0.385448 -5.48881e-20)
(0.950174 0.543678 -9.05141e-21)
(0.712097 0.648704 -3.09266e-19)
(0.416747 0.595905 4.18613e-19)
(0.983818 0.0805722 2.01738e-19)
(1.13136 0.115339 -3.29426e-20)
(1.21055 0.161064 1.88026e-21)
(1.31663 0.14933 1.02525e-20)
(1.385 0.156974 3.11422e-21)
(1.30089 0.268451 -5.07318e-22)
(1.16066 0.435817 7.23613e-21)
(0.994616 0.606908 0)
(0.761832 0.72785 8.1e-19)
(0.479496 0.68715 -5.71953e-19)
(0.989651 0.0622895 -1.15375e-19)
(1.12761 0.0886692 6.27602e-21)
(1.21083 0.131454 7.88078e-20)
(1.3135 0.128092 1.93233e-20)
(1.38899 0.158149 -2.33382e-20)
(1.32075 0.301365 -3.46022e-20)
(1.19354 0.484746 -1.77937e-20)
(1.0445 0.668565 4.49493e-20)
(0.823249 0.804407 -1.29722e-21)
(0.564476 0.774959 -3.57462e-19)
(0.995082 0.0436557 -8.14501e-20)
(1.12844 0.0626142 1.5322e-20)
(1.21452 0.102479 7.53823e-20)
(1.31686 0.106756 3.19636e-20)
(1.39496 0.159017 -2.40722e-20)
(1.34069 0.332301 -2.85442e-20)
(1.22983 0.53149 8.60905e-20)
(1.1004 0.727491 2.70379e-20)
(0.899897 0.8761 -5.52581e-19)
(0.673655 0.857366 -1.7738e-19)
(0.999535 0.0241556 3.59759e-20)
(1.13298 0.0367397 -4.45238e-20)
(1.22106 0.0740118 -6.72026e-20)
(1.32532 0.0861469 2.33309e-20)
(1.40207 0.160487 0)
(1.36047 0.361582 0)
(1.26967 0.57535 8.44669e-20)
(1.16352 0.782279 -2.83484e-20)
(0.994582 0.940433 -1.18689e-19)
(0.805062 0.932724 -5.73462e-20)
(1.00218 0.00358731 3.17196e-21)
(1.14007 0.010617 5.81166e-20)
(1.22943 0.0459523 -2.06311e-19)
(1.33689 0.0668029 -7.80401e-20)
(1.40921 0.16339 -4.703e-21)
(1.38005 0.389302 1.34113e-19)
(1.31331 0.615433 1.59579e-19)
(1.23542 0.831197 -1.80674e-20)
(1.10771 0.995608 -4.48267e-20)
(0.953734 1.0004 3.36395e-21)
(1.00211 -0.0179932 3.10455e-21)
(1.14871 -0.0161374 3.10202e-20)
(1.23871 0.0183232 -6.54112e-20)
(1.34992 0.0491806 -1.5911e-19)
(1.41555 0.167982 1.16136e-20)
(1.39974 0.415092 7.2331e-21)
(1.3614 0.6506 -6.01153e-20)
(1.31721 0.872595 -1.05282e-19)
(1.2372 1.04135 -3.15367e-20)
(1.11387 1.06055 -9.79254e-19)
(0.998914 -0.0401832 1.51895e-20)
(1.15839 -0.0438348 -1.48369e-19)
(1.24834 -0.00868638 1.32997e-19)
(1.36317 0.0339909 1.04589e-19)
(1.41998 0.174714 4.98294e-21)
(1.41956 0.438452 -1.397e-19)
(1.41381 0.679808 1.52782e-21)
(1.40821 0.90555 -1.38682e-19)
(1.37926 1.07855 1.10963e-20)
(1.27989 1.11261 2.88296e-18)
(0.992971 -0.0624602 -8.9885e-20)
(1.1691 -0.072608 8.27205e-20)
(1.2581 -0.034876 1.9241e-19)
(1.37599 0.0213266 -1.16623e-19)
(1.42311 0.183354 -2.34702e-19)
(1.44112 0.459053 9.26389e-21)
(1.47183 0.702928 1.72124e-19)
(1.50837 0.93078 -5.82332e-19)
(1.53082 1.10849 -2.68584e-20)
(1.44839 1.15355 -6.47541e-18)
(0.985267 -0.0853675 4.08239e-21)
(1.18113 -0.102454 1.45525e-19)
(1.26801 -0.0600547 6.24805e-20)
(1.38732 0.0138316 -2.83004e-19)
(1.42284 0.197982 -2.51932e-19)
(1.46198 0.480454 -7.66808e-20)
(1.53105 0.723761 8.6108e-20)
(1.6115 0.951642 -1.98952e-19)
(1.68373 1.1308 -1.08541e-18)
(1.61567 1.17249 -7.951e-18)
(0.974896 -0.116512 -1.4493e-20)
(1.19591 -0.142101 -3.38378e-20)
(1.27742 -0.0938894 -7.86859e-20)
(1.39803 1.12101e-05 1.50514e-19)
(1.42312 0.197478 2.07482e-19)
(1.49145 0.475809 -6.37577e-20)
(1.6118 0.713059 -1.41872e-19)
(1.75371 0.940747 -1.19784e-18)
(1.9028 1.13277 -1.59849e-18)
(1.89939 1.20881 3.28563e-18)
(0.96232 -0.155337 -4.03645e-19)
(1.21493 -0.191662 2.02241e-20)
(1.28181 -0.139865 -5.95207e-20)
(1.39836 -0.0212252 3.50529e-19)
(1.39939 0.175445 3.49241e-19)
(1.4924 0.430344 1.36811e-20)
(1.66776 0.648519 -6.33497e-20)
(1.88053 0.866262 -2.75501e-19)
(2.13954 1.07159 2.8291e-19)
(2.28457 1.16095 -3.23621e-19)
(0.949542 -0.195993 -2.79281e-20)
(1.24037 -0.241656 -5.51007e-20)
(1.28144 -0.184717 3.11107e-20)
(1.39357 -0.0388145 2.70132e-20)
(1.3714 0.164747 1.71235e-33)
(1.46821 0.372548 2.55926e-21)
(1.67967 0.561783 -2.02449e-33)
(1.94868 0.759858 1.84945e-19)
(2.30179 0.956544 -9.30711e-19)
(2.58734 1.05855 -6.29236e-19)
(0.937074 -0.242866 1.41081e-18)
(1.27187 -0.281853 -7.76449e-34)
(1.25003 -0.22964 -4.09145e-20)
(1.26867 -0.0381767 -2.28662e-19)
(1.25973 0.14547 -4.43405e-19)
(1.38818 0.30331 -8.77301e-19)
(1.61837 0.460394 -5.05079e-33)
(1.9288 0.631298 -1.7368e-18)
(2.32557 0.802203 -3.17773e-18)
(2.75366 0.902652 1.67501e-18)
(0.92733 -0.300518 0)
(1.3169 -0.326973 -1.62598e-33)
(1.11302 -0.207323 0)
(1.10615 -0.0305047 0)
(1.11754 0.115251 0)
(1.25793 0.233312 0)
(1.48911 0.355643 -8.04051e-33)
(1.81471 0.491701 0)
(2.2133 0.634355 -3.39669e-19)
(2.73491 0.712058 1.25737e-18)
(0.916516 -0.360811 1.16141e-19)
(1.25153 -0.326107 -4.67467e-19)
(0.960353 -0.17436 -5.53002e-20)
(0.933131 -0.0263061 0)
(0.95515 0.0827657 0)
(1.08968 0.165731 6.02609e-20)
(1.30601 0.254033 1.17469e-18)
(1.61579 0.354763 -1.95054e-19)
(1.99662 0.466238 -4.95305e-19)
(2.53241 0.520501 4.67324e-18)
(0.883484 -0.405306 -1.52012e-17)
(1.09208 -0.279937 1.08598e-18)
(0.792851 -0.130645 -7.28392e-20)
(0.746483 -0.0212656 -7.20551e-20)
(0.772172 0.0525471 -5.13445e-19)
(0.889255 0.104667 -7.73261e-19)
(1.0761 0.161357 -1.04749e-18)
(1.34595 0.229059 -1.38156e-18)
(1.68757 0.306133 -1.60471e-18)
(2.17991 0.344453 3.61201e-18)
(0.809013 -0.394511 -4.13726e-19)
(0.886456 -0.207577 -1.21662e-18)
(0.605664 -0.0829237 -1.25594e-19)
(0.54935 -0.0153666 -8.42748e-20)
(0.571399 0.0276015 -9.91983e-34)
(0.661389 0.0546069 9.35572e-20)
(0.805306 0.0846303 -1.48439e-32)
(1.01616 0.12296 -1.93434e-19)
(1.29245 0.167315 2.98976e-19)
(1.69929 0.192073 7.05794e-19)
(0.66426 -0.28884 3.4255e-17)
(0.618255 -0.108099 -3.1398e-18)
(0.393432 -0.0351381 -2.40563e-19)
(0.339209 -0.00737549 -1.5978e-19)
(0.353491 0.00924016 3.94372e-19)
(0.410335 0.0183743 7.84633e-19)
(0.501112 0.0292083 7.95555e-19)
(0.636704 0.0448918 4.59914e-19)
(0.820747 0.0634585 -1.90481e-19)
(1.10156 0.0762259 3.56953e-18)
(0.33684 -0.0768224 5.58849e-19)
(0.261851 -0.00230516 -6.76613e-33)
(0.144396 0.0190757 -3.04774e-19)
(0.120355 0.00338455 0)
(0.123539 -0.00235603 0)
(0.141803 -0.00542191 9.62934e-20)
(0.172342 -0.00624913 9.37076e-35)
(0.220287 -0.00417848 -1.23567e-19)
(0.288129 -0.00161965 -2.82641e-19)
(0.399012 0.00331815 1.00162e-18)
(2.00207 1.09647 -1.78996e-18)
(2.23908 1.0785 -2.30496e-18)
(2.44209 1.02914 0)
(2.63708 0.952524 -7.57955e-19)
(2.82359 0.852523 -1.7825e-18)
(2.99276 0.7324 -2.24949e-18)
(3.13709 0.595048 -4.75729e-19)
(3.25054 0.442702 1.26927e-18)
(3.32824 0.276966 -3.5479e-18)
(3.36764 0.0986983 1.35668e-18)
(2.49869 1.14204 2.67785e-19)
(2.73058 1.08197 1.39745e-18)
(2.92389 1.00424 1.4393e-19)
(3.10675 0.90983 6.75744e-19)
(3.28061 0.800681 -1.10402e-18)
(3.43997 0.678339 -5.00062e-18)
(3.58097 0.544022 2.46814e-18)
(3.70048 0.399327 1.27037e-17)
(3.79428 0.246328 1.04073e-19)
(3.85869 0.0872582 -1.07365e-17)