/*--------------------------------*- C++ -*----------------------------------*\
  =========                 |
  \\      /  F ield         | OpenFOAM: The Open Source CFD Toolbox
   \\    /   O peration     | Website:  https://openfoam.org
    \\  /    A nd           | Version:  13
     \\/     M anipulation  |
\*---------------------------------------------------------------------------*/
FoamFile
{
    format      ascii;
    class       surfaceScalarField;
    location    "9";
    object      phi;
}
// * * * * * * * * * * * * * * * * * * * * * * * * * * * * * * * * * * * * * //

dimensions      [0 3 -1 0 0 0 0];

internalField   nonuniform List<scalar> 
823
(
-0.00191986
0.0164495
-0.0145296
0.0191863
0.00625563
-0.0273618
0.0865042
-0.0428341
-0.0244838
0.191356
-0.111259
0.00640708
-0.148012
0.00174215
0.337626
0.00614968
0.0102998
0.0598688
-0.0474635
0.162184
-0.14515
0.280887
-0.229962
-0.303752
0.436627
0.026061
-0.0157612
0.119944
-0.141346
0.236918
-0.262123
0.34608
-0.339124
-0.381352
0.42368
0.0490384
-0.0647996
0.149341
-0.241649
0.231561
-0.344344
0.278164
-0.385727
-0.396824
0.293636
0.061264
-0.126064
0.131442
-0.311827
0.169257
-0.382159
0.183636
-0.400106
0.192894
-0.406082
-0.010174
0.0615293
-0.0513553
-0.0365323
0.107708
-0.0813498
-0.0654756
0.114515
-0.0855719
-0.0891045
0.107828
-0.084199
0.0968159
-0.103261
-0.0826595
0.015187
0.0463423
0.0240467
0.0988484
0.0234257
0.115136
0.0191044
0.112149
0.100432
0.015488
0.021889
0.0244533
0.0533249
0.0674125
0.0794743
0.0889868
0.0990007
0.0926227
0.0853235
0.11411
0.013172
0.0112813
0.043171
0.0374136
0.0781296
0.0540281
0.116605
0.0541477
0.0531319
0.148796
-0.00324834
0.00680344
0.0363478
0.0969025
0.151777
0.139218
0.501722
-0.744201
0.45521
-1.42883
1.11284
0.427272
-1.43693
1.46487
0.339824
0.504784
-0.417336
0.452764
-0.410701
0.296253
0.220957
0.612107
-1.74469
0.45309
-1.27791
0.291774
0.666101
0.454353
0.28374
0.0513272
0.509933
-1.97088
0.405278
-1.17326
0.286573
0.784806
0.415247
0.356926
-0.156803
0.400181
-2.01414
0.282344
-1.05542
0.305138
0.762012
0.330472
0.399525
-0.404551
0.342281
-1.95689
0.129906
-0.843046
0.250362
0.641556
0.111592
1.35844
-0.525859
-1.23714
1.08017
-1.67862
0.554734
-0.317611
0.612136
0.584154
-0.196484
1.48909
-0.573242
-1.4417
0.93972
-1.12925
0.598076
0.0240328
0.907592
0.274638
-0.371252
1.32057
-0.519086
-1.37473
0.796674
-0.605354
0.713006
0.107701
1.07955
-0.0919055
-0.363361
1.12824
-0.326574
-1.32075
0.719628
-0.196743
0.794386
0.0329425
0.899942
-0.197461
-0.183811
0.540903
-0.867477
0.34416
0.377103
0.179642
1.12275
0.155274
-1.08513
1.2062
0.210182
1.31334
0.316546
1.3519
0.398061
0.452393
1.02146
0.0948616
-0.961052
1.09956
0.132081
1.20273
0.213383
1.32108
0.279713
0.331766
0.969186
0.0451362
-0.919461
1.02722
0.074048
1.11715
0.123454
1.23816
0.158706
0.195194
0.943963
0.00754323
-0.90637
0.997346
0.0206656
1.08122
0.0395828
1.18954
0.0503819
0.0639833
0.692863
-0.68532
0.713529
0.753112
0.803494
0.139651
0.30479
-0.250673
-0.193768
0.0936064
0.311242
-0.265198
0.0526126
0.322474
-0.28148
0.0181676
0.313614
-0.279169
0.201708
-0.183541
0.100174
0.3416
-0.136984
0.0640436
0.347373
0.0322229
0.354295
0.00731878
0.338518
0.209027
0.0704173
0.377659
-0.106476
0.0375878
0.380202
0.00973049
0.382152
-0.00563021
0.353879
0.203397
-0.0115981
0.393792
-0.00453472
-0.0281358
0.39674
-0.0360344
0.39005
-0.0276955
0.34554
0.175701
-0.0878764
0.0755868
-0.0912427
-0.083351
-0.0496379
0.195237
0.110388
-0.248815
-0.05681
0.141364
0.114746
-0.0608732
0.0871358
0.11941
-0.0651816
0.0351689
0.118836
-0.0668693
0.0835254
-0.0483565
0.196696
0.153916
-0.240224
0.14987
0.161573
0.0974057
0.171874
0.0414697
0.174772
0.124995
0.136841
0.198555
-0.18148
0.096222
0.202192
0.0572088
0.210887
0.0206333
0.211348
0.145628
0.155034
0.231117
-0.187597
0.115689
0.241537
0.071366
0.25521
0.0279065
0.254807
0.173535
0.0842988
-0.103854
0.0606374
0.0343676
0.0100059
0.405984
0.0658989
-0.075903
0.423179
0.0416839
-0.0588791
0.407194
0.209587
-0.193602
0.395895
0.213557
-0.202258
0.501916
-0.354836
0.403504
0.058375
0.415663
0.0295242
0.397691
0.227559
0.385983
0.225266
0.647675
0.397344
0.057011
0.409328
0.0175394
0.376583
0.260304
0.373807
0.228041
0.840003
0.394352
0.058639
0.393939
0.0179521
0.368036
0.286207
0.357197
0.23888
1.0096
0.386193
0.0684254
0.383318
0.0208273
0.341742
0.327783
0.325891
0.254731
1.23164
0.621873
0.0505733
0.64701
-0.00430991
0.702366
0.272426
0.810955
0.146142
1.04671
0.995888
0.635966
0.0186278
0.645604
-0.013948
0.749251
0.16878
0.807761
0.087632
0.833379
1.02109
0.640901
-0.0182529
0.660148
-0.0331951
0.754145
0.0747828
0.776344
0.0654327
0.598975
1.01075
0.638114
-0.0523466
0.654052
-0.0491325
0.713149
0.0156852
0.741378
0.0372041
0.301023
1.03933
0.551674
0.502541
0.518227
0.555431
0.856453
1.03577
-0.233649
1.02627
-0.127486
1.03703
-0.117238
1.03348
-0.000984386
0.0239401
0.970076
-0.182637
0.946818
-0.104227
0.927394
-0.0978145
0.937935
-0.0115248
0.000822865
0.943354
-0.115242
0.92228
-0.0831536
0.897144
-0.072678
0.910503
-0.0248838
-0.00813495
0.97491
-0.0508229
0.936279
-0.0445222
0.903221
-0.0396198
0.901786
-0.0234485
-0.0127198
0.805631
0.761108
0.721489
0.69804
0.0471322
0.14396
-0.191092
0.0720336
0.314758
-0.33966
0.0732989
0.368885
-0.370151
0.0636774
0.372085
-0.362464
0.340387
0.0521182
-0.328828
0.0680449
0.075915
0.139089
0.243714
0.174162
0.333813
0.179222
0.367025
0.361007
0.158602
0.0568995
0.0190155
0.167161
0.133452
0.259938
0.241036
0.325415
0.301547
0.352232
0.334191
0.0273698
-0.00835431
0.12227
0.0385522
0.241862
0.121444
0.358609
0.1848
0.25051
0.460331
0.00605859
-0.0144129
0.0527216
-0.0081108
0.147045
0.0271205
0.262076
0.0697693
0.11461
0.397976
-0.00311252
-0.0113004
0.00726385
-0.0184872
0.0478606
-0.0134763
0.115696
0.00193429
0.031159
0.199146
-0.00103887
-0.0102615
0.000706006
-0.020232
0.0111835
-0.0239538
0.0344775
-0.0213597
-0.0100307
0.0756672
-0.00235092
-0.00791059
-0.00897351
-0.0136094
-0.0191144
-0.0138129
-0.0299193
-0.0105549
-0.00427219
-0.0356777
-0.0237137
0.0158031
-0.063264
0.0259409
-0.108382
0.0313052
-0.155013
0.0360766
0.0404923
-0.199778
-0.0355523
-0.0909612
-0.145228
-0.19335
-0.235518
0.315691
0.669246
-0.785791
0.446349
0.102294
-0.232952
0.557315
-0.137308
0.0263418
0.46474
0.146263
-0.0536874
0.0779349
0.000331146
0.198302
0.546611
0.341213
-0.0406171
0.574856
-0.370951
0.496599
0.224519
0.170111
-0.109675
0.620609
0.156127
-0.30642
0.55055
-0.765373
0.480791
0.294278
0.262656
-0.339619
0.76045
0.0699791
-0.716018
0.507008
-1.2024
0.438787
0.362499
0.346409
-0.219269
0.177556
0.440022
0.385185
0.0945627
0.502897
-0.59746
-0.0376419
0.132205
0.0261535
-0.0637954
0.101125
-0.0749714
-0.0643915
0.747102
-1.03
0.646355
0.608901
0.480242
0.0853361
-0.0149828
-0.0703533
0.136093
-0.0507566
0.243086
-0.106993
0.405813
-0.162727
-0.191647
0.191019
-0.153883
0.298864
0.526062
0.823667
0.139542
-0.133131
0.163244
-0.169655
0.105978
-0.138143
0.171707
0.0678626
-0.144859
0.182974
0.027378
-0.144501
0.184986
-0.10133
0.128708
0.17709
-0.0938895
-0.216331
0.133589
-0.0946416
0.0849349
-0.0962047
0.0350602
-0.0946267
-0.0662698
0.188451
-0.0451837
-0.237157
0.138151
-0.0443407
0.0861365
-0.0441906
0.0350405
-0.0435307
-0.0312292
0.199701
0.00611921
-0.251004
0.147692
0.00766921
0.0941919
0.00930908
0.0396869
0.0109743
0.00845765
0.20487
-0.255561
0.151666
0.0957939
0.0398989
0.0373414
-0.308776
-0.0573939
0.0139299
-0.339052
-0.0073973
-0.348823
-0.0156054
-0.331452
-0.206697
0.117449
-0.278906
-0.147318
0.0758875
-0.297491
0.0362624
-0.309198
0.0068466
-0.302036
-0.199851
0.135056
-0.240749
-0.173213
0.0952405
-0.257676
0.0554685
-0.269426
0.0194432
-0.266011
-0.180408
0.153977
-0.207176
-0.18755
0.11247
-0.216168
0.0681295
-0.225086
0.0265096
-0.224391
-0.153898
0.151168
-0.195101
0.106707
0.0645947
0.02519
0.388133
0.106895
-0.0990479
0.387033
0.101341
-0.100242
0.353565
0.16323
-0.129762
0.295918
0.0715853
-0.0139387
-0.181438
0.307701
0.396474
0.106401
0.401761
0.0960544
0.391142
0.173849
0.344155
0.118572
-0.0536139
0.402553
0.0998269
0.412446
0.0861617
0.405798
0.180497
0.369254
0.155117
0.0784824
0.407217
0.0885897
0.419907
0.0734718
0.414727
0.185677
0.388163
0.181681
0.215641
0.408666
0.423259
0.415334
0.394756
0.41422
0.0958311
0.327851
0.0863686
0.236387
0.0914646
0.23542
0.000966666
-0.16979
0.40521
0.506834
0.492961
0.454664
0.441692
0.579602
0.325651
0.079559
0.253968
0.071683
0.169423
0.0845456
0.0986133
0.0708094
0.02826
0.46406
0.348194
0.259526
0.183017
)
;

boundaryField
{
    left
    {
        type            calculated;
        value           nonuniform List<scalar> 
17
(
-0.60402
-0.60402
-0.60402
-0.60402
-0.60402
-0.39598
-0.39598
-0.39598
-0.39598
-0.39598
-0.39598
-0.39598
-0.39598
-0.39598
-0.39598
-0.510051
-0.510051
)
;
    }
    right
    {
        type            calculated;
        value           nonuniform List<scalar> 
17
(
0.165516
0.416182
0.386474
0.404423
0.388247
0.355033
0.320893
0.297761
0.290184
0.325678
0.389914
0.469242
0.920212
1.08236
1.07166
0.720391
-0.00416905
)
;
    }
    down
    {
        type            calculated;
        value           uniform 0;
    }
    up
    {
        type            calculated;
        value           uniform 0;
    }
    cylinder
    {
        type            calculated;
        value           uniform 0;
    }
    defaultFaces
    {
        type            empty;
    }
}


// ************************************************************************* //
