/*--------------------------------*- C++ -*----------------------------------*\
  =========                 |
  \\      /  F ield         | OpenFOAM: The Open Source CFD Toolbox
   \\    /   O peration     | Website:  https://openfoam.org
    \\  /    A nd           | Version:  13
     \\/     M anipulation  |
\*---------------------------------------------------------------------------*/
FoamFile
{
    format      ascii;
    class       surfaceScalarField;
    location    "77.6";
    object      phi;
}
// * * * * * * * * * * * * * * * * * * * * * * * * * * * * * * * * * * * * * //

dimensions      [0 3 -1 0 0 0 0];

internalField   nonuniform List<scalar> 
823
(
0.0060405
0.0283964
-0.0344369
0.020403
0.024911
-0.0392735
0.0618368
-0.0265073
-0.0149264
0.141077
-0.0901988
0.0109584
-0.126743
0.0106479
0.257172
0.019159
0.00923744
0.0766872
-0.0326172
0.166575
-0.116395
0.273152
-0.196776
-0.268874
0.415283
0.0218822
-0.0126448
0.105164
-0.115899
0.215687
-0.226918
0.323496
-0.304586
-0.353314
0.407936
0.0416195
-0.0542642
0.138272
-0.212552
0.227376
-0.316021
0.285629
-0.362839
-0.377107
0.309423
0.0557603
-0.110025
0.129639
-0.286431
0.173445
-0.359827
0.190237
-0.379631
0.198083
-0.384953
0.0213457
-0.0607104
0.0393646
0.0514805
-0.123955
0.0938201
0.072226
-0.135515
0.114769
0.0785145
-0.116541
0.110252
-0.0880429
0.0725953
0.0939621
0.021871
-0.0825813
0.0386138
-0.140698
0.0354491
-0.13235
0.0168891
-0.0979809
-0.0605395
-0.0106143
0.0186242
-0.101206
0.017696
-0.139769
0.00145443
-0.116109
-0.0132529
-0.0832736
-0.0551168
-0.0186755
-0.0412239
-0.0599816
-0.11087
-0.070123
-0.171286
-0.0556926
-0.21422
-0.0403399
-0.0248925
-0.244444
-0.0944185
-0.203815
-0.274434
-0.303816
-0.31806
0.259437
-0.29435
0.107508
0.319172
1.80117
-1.86091
0.406102
0.640698
-0.727628
0.462655
-1.56094
1.50439
-0.966492
0.953894
-0.091439
-0.213525
0.143174
1.56656
0.517733
0.266139
0.516152
-1.55936
-0.966573
-0.0838627
-0.148338
0.131151
1.35155
0.575723
-0.178434
0.562497
-1.54613
-0.95009
-0.102139
-0.290644
0.229478
1.01993
0.639664
-0.588619
0.622126
-1.52859
-0.908094
-0.0711868
-0.537517
0.312159
0.636586
0.663598
-0.940059
0.654769
-1.51976
-0.855794
0.808904
-0.243272
-1.10315
1.06168
0.383811
1.32256
-1.20094
1.13005
-1.32725
-0.649785
1.21961
-0.126714
-1.33616
1.45375
0.149669
1.37254
-1.11973
1.01591
-0.970622
-0.410981
1.2787
-0.085423
-1.31999
1.52665
-0.0982806
1.23949
-0.832579
0.871503
-0.60263
-0.224033
1.2668
-0.0578124
-1.29441
1.35767
-0.18915
0.947396
-0.422303
0.570121
-0.225355
-0.0661581
0.831203
-0.889016
0.642053
0.21975
-0.00560481
1.07856
0.146105
-1.02658
1.14675
0.241236
1.25357
0.301116
1.25678
0.412069
0.410803
1.00239
0.0778664
-0.934149
1.05964
0.183987
1.15745
0.203307
1.25335
0.316164
0.327989
0.939691
0.0347224
-0.896547
1.00395
0.119727
1.08357
0.12369
1.20548
0.194252
0.213483
0.890072
0.00805469
-0.863405
0.963947
0.0458523
1.04238
0.0452552
1.16113
0.0754991
0.0802042
0.642205
-0.63415
0.688057
0.733312
0.808812
0.129819
0.296136
-0.247826
-0.178129
0.0863752
0.30352
-0.260076
0.0470455
0.314067
-0.274738
0.0149173
0.305456
-0.273328
0.19759
-0.182672
0.0916751
0.333164
-0.128703
0.0570101
0.338185
0.0264375
0.34464
0.003167
0.328726
0.200757
0.0507325
0.362675
-0.0802443
0.0223256
0.366592
-0.00100595
0.367972
-0.0101651
0.337885
0.190592
-0.0238632
0.378599
0.00793934
-0.0378688
0.380597
-0.0428128
0.372916
-0.030741
0.325814
0.159851
-0.103264
0.0969104
-0.102298
-0.0892091
-0.0498261
0.20521
0.0934779
-0.258226
-0.0404614
0.150794
0.0976285
-0.0432133
0.094344
0.10229
-0.0458394
0.0386634
0.102519
-0.0468388
0.0729879
-0.0343245
0.197713
0.13841
-0.242646
0.150544
0.144798
0.09808
0.154753
0.0418375
0.158762
0.114825
0.151065
0.18413
-0.196785
0.107532
0.188332
0.0651351
0.19715
0.0247344
0.199163
0.13956
0.157988
0.219982
-0.19384
0.116882
0.229438
0.0715843
0.242447
0.0277329
0.243014
0.167293
0.108621
-0.136465
0.0779835
0.0456932
0.0153797
0.404251
0.0682213
-0.0764925
0.422627
0.00561017
-0.0239866
0.416225
0.153152
-0.14675
0.391809
0.186848
-0.162432
0.388943
-0.25536
0.401861
0.0623399
0.417554
-0.0100824
0.405529
0.165177
0.375832
0.216546
0.522128
0.396725
0.0615948
0.413352
-0.0267095
0.383708
0.194821
0.361467
0.238786
0.686811
0.394818
0.062756
0.401475
-0.033366
0.3679
0.228396
0.338133
0.268554
0.831103
0.38914
0.0695953
0.390854
-0.0350795
0.338323
0.280927
0.310748
0.296129
1.00539
0.629219
0.0443968
0.661406
-0.0672662
0.674683
0.26765
0.734937
0.235875
0.762566
0.977756
0.647434
0.000983243
0.661621
-0.0814534
0.687227
0.242044
0.779436
0.143666
0.532976
1.00903
0.654346
-0.0493424
0.641817
-0.0689243
0.691316
0.192545
0.791952
0.0430299
0.340702
0.984227
0.629531
-0.0748528
0.604742
-0.0441356
0.722328
0.0749592
0.772171
-0.00681319
0.162253
0.95062
0.529168
0.485032
0.559991
0.553178
0.715431
0.993346
-0.193719
0.993001
-0.128358
0.984908
-0.0721511
0.998723
-0.00587571
0.0690512
0.948328
-0.133022
0.932806
-0.112835
0.903468
-0.0428137
0.92526
-0.0276678
0.060163
0.927048
-0.0758426
0.89286
-0.0786469
0.873335
-0.0232889
0.878004
-0.032337
0.0416196
0.903819
-0.0290421
0.859095
-0.0339231
0.848071
-0.0122648
0.835077
-0.0193425
0.0132917
0.686389
0.652466
0.640201
0.620859
0.0551438
0.176989
-0.232133
0.0786475
0.375255
-0.398759
0.0770841
0.428812
-0.427248
0.0670917
0.428954
-0.418961
0.396217
0.0531124
-0.382238
0.0860452
0.0909438
0.161486
0.299814
0.193749
0.396549
0.197829
0.424875
0.41127
0.182776
0.0743977
0.0165461
0.201901
0.172311
0.295769
0.30268
0.347649
0.372994
0.416865
0.342054
0.0358075
-0.0192614
0.157522
0.0505972
0.293928
0.166274
0.422321
0.244601
0.338659
0.500527
0.00573974
-0.0250011
0.0696927
-0.0133557
0.189944
0.0460226
0.337729
0.0968165
0.196147
0.480241
-0.00579792
-0.0192032
0.0146987
-0.0338523
0.0832592
-0.022538
0.189156
-0.0090804
0.068297
0.317006
-0.00372354
-0.0154797
0.00311021
-0.0406861
0.0309614
-0.0503892
0.0708856
-0.0490046
-0.0115062
0.150689
0.000692342
-0.016172
0.00858764
-0.0485814
0.0244086
-0.0662101
0.0434546
-0.0680507
-0.0547553
0.0867037
0.00843167
-0.0246037
0.0275845
-0.0677342
0.0515877
-0.0902133
0.0765726
-0.0930356
-0.0845073
0.106325
0.0147609
0.0408468
0.0654028
0.0826196
0.0920744
0.389056
1.08788
-1.15993
0.149428
0.887514
-0.647886
-0.0835669
0.489995
-0.257
0.148308
-0.730272
0.498397
-0.591086
0.400078
0.344886
0.893679
0.00829818
1.2241
-0.0843843
0.582677
0.209009
-1.02367
-0.728674
0.378815
0.601568
0.0401569
1.56276
0.0314889
0.591345
0.279601
-1.27178
-0.823446
0.460892
0.247001
0.234873
1.78878
0.179349
0.646869
0.324385
-1.41681
-0.905211
0.446583
0.374454
0.293695
0.381268
-0.15156
0.741993
-0.590432
-0.301551
0.149991
-0.220852
-0.0806996
0.0723152
-0.293167
-0.168267
0.815306
-1.23324
0.31741
-0.0202894
0.184941
0.0964396
-0.0122124
-0.0842271
0.156922
-0.0604823
0.258371
-0.101449
0.410996
-0.152625
-0.179437
0.221635
-0.180735
0.343929
0.584533
0.932435
0.147585
-0.154522
0.186404
-0.179467
0.112844
-0.161123
0.195863
0.0734218
-0.169976
0.209398
0.030356
-0.170952
0.214018
-0.121113
0.151469
0.192433
-0.113988
-0.232967
0.146416
-0.115105
0.0935786
-0.117139
0.0389476
-0.116322
-0.0821658
0.187173
-0.062559
-0.238602
0.13501
-0.062943
0.0831572
-0.0652853
0.0336817
-0.066846
-0.0484841
0.205262
-0.0109588
-0.256863
0.152846
-0.0105271
0.0980686
-0.0105075
0.04159
-0.0103674
-0.00689414
0.208512
-0.259932
0.154772
0.0984248
0.0412187
0.049671
-0.358348
-0.0735603
0.0197216
-0.389012
-0.00589799
-0.401629
-0.0173851
-0.387272
-0.249518
0.138067
-0.323264
-0.173151
0.092465
-0.34341
0.0460772
-0.355241
0.0101122
-0.351307
-0.239406
0.162125
-0.27841
-0.206979
0.113616
-0.294901
0.0668273
-0.308452
0.0243267
-0.308806
-0.215079
0.179978
-0.238146
-0.220242
0.132977
-0.2479
0.0827961
-0.258271
0.0337537
-0.259764
-0.181325
0.176511
-0.228253
0.124474
0.0756015
0.0298558
0.388792
0.103548
-0.0963603
0.392055
0.0779351
-0.0811982
0.359982
0.137467
-0.105394
0.313262
0.0252057
0.0215148
-0.274689
0.408484
0.396479
0.103048
0.406168
0.0682467
0.39789
0.145744
0.354207
0.0688893
-0.153449
0.401629
0.0973987
0.415538
0.0543382
0.412266
0.149016
0.376192
0.104963
-0.0158589
0.406002
0.0873766
0.420461
0.0398787
0.422585
0.146892
0.392454
0.135094
0.119733
0.406864
0.422756
0.422898
0.395559
0.415546
0.0945048
0.338704
0.0768418
0.260401
0.078303
0.276001
-0.0155996
-0.220204
0.496205
0.508195
0.503839
0.476748
0.482663
0.670943
0.397151
0.0990546
0.309619
0.0875316
0.207957
0.101662
0.121268
0.0866889
0.0370409
0.541744
0.409033
0.303716
0.217254
)
;

boundaryField
{
    left
    {
        type            calculated;
        value           nonuniform List<scalar> 
17
(
-0.60402
-0.60402
-0.60402
-0.60402
-0.60402
-0.39598
-0.39598
-0.39598
-0.39598
-0.39598
-0.39598
-0.39598
-0.39598
-0.39598
-0.39598
-0.510051
-0.510051
)
;
    }
    right
    {
        type            calculated;
        value           nonuniform List<scalar> 
17
(
0.240583
0.416751
0.339316
0.346597
0.374373
0.406149
0.429951
0.475253
0.516234
0.546013
0.580129
0.602469
0.924038
0.777107
0.684555
0.412245
-0.0717629
)
;
    }
    down
    {
        type            calculated;
        value           uniform 0;
    }
    up
    {
        type            calculated;
        value           uniform 0;
    }
    cylinder
    {
        type            calculated;
        value           uniform 0;
    }
    defaultFaces
    {
        type            empty;
    }
}


// ************************************************************************* //
