/*--------------------------------*- C++ -*----------------------------------*\
  =========                 |
  \\      /  F ield         | OpenFOAM: The Open Source CFD Toolbox
   \\    /   O peration     | Website:  https://openfoam.org
    \\  /    A nd           | Version:  13
     \\/     M anipulation  |
\*---------------------------------------------------------------------------*/
FoamFile
{
    format      ascii;
    class       volScalarField;
    location    "0.895";
    object      p;
}
// * * * * * * * * * * * * * * * * * * * * * * * * * * * * * * * * * * * * * //

dimensions      [0 2 -2 0 0 0 0];

internalField   nonuniform List<scalar> 
1800
(
5.75095
7.85804
10.0108
11.4392
12.2736
12.6841
12.815
12.6572
11.4106
7.31795
9.5997
12.0754
14.5803
16.2643
17.3208
17.9835
18.438
18.6769
17.9521
15.2739
15.9913
18.6161
21.2888
23.152
24.4122
25.2938
25.9445
26.3277
25.8563
24.025
24.986
27.5553
30.2038
32.1182
33.4834
34.4924
35.2548
35.7067
35.3004
33.6155
36.0441
38.405
40.8572
42.6687
43.9931
44.9892
45.7437
46.193
45.8427
44.287
48.7206
50.7732
52.9168
54.5231
55.714
56.6162
57.2984
57.709
57.4277
56.0682
62.6688
64.3416
66.0973
67.4292
68.4312
69.2008
69.7922
70.1691
69.994
68.9052
77.5944
78.8359
80.147
81.1563
81.9322
82.546
83.0401
83.3949
83.3615
82.625
93.2123
93.9919
94.8234
95.4783
96.0011
96.4386
96.8213
97.1447
97.2549
96.9204
109.241
109.545
109.877
110.152
110.39
110.611
110.828
111.041
111.202
111.23
-0.60247
-0.855651
-0.632648
-0.217743
0.255296
0.723677
1.08337
1.2941
1.43924
1.58626
-0.469135
-0.986211
-1.09752
-0.892468
-0.468721
-0.0451533
0.246736
0.488962
0.769478
1.04338
0.536488
-0.433117
-1.26888
-1.43605
-1.10917
-0.804509
-0.592516
-0.287797
0.119721
0.50574
0.930997
-0.212306
-1.41405
-1.7536
-1.53344
-1.38152
-1.25859
-0.954451
-0.497736
0.00999483
0.498697
-0.470799
-1.41387
-1.70579
-1.64904
-1.66152
-1.62715
-1.36669
-0.876116
-0.182261
-0.20747
-0.725348
-1.12739
-1.2575
-1.2787
-1.34546
-1.33955
-1.13249
-0.608939
0.322964
-0.545505
-0.508238
-0.332526
-0.186945
-0.102849
-0.0833119
-0.0461674
0.12237
0.699036
1.92849
-0.0643978
0.521724
1.24235
1.74654
2.07579
2.2885
2.43717
2.65285
3.38252
5.04412
1.38107
2.48895
3.73726
4.65861
5.32847
5.82055
6.16017
6.49876
7.48493
9.77186
3.62163
5.26449
7.08262
8.45851
9.48118
10.2413
10.7634
11.2161
12.2767
14.4394
2.30517
2.44441
2.33669
2.09062
1.58512
1.18227
0.867126
0.596658
0.354429
0.139213
1.95733
2.42209
2.2337
2.00874
1.50286
1.10354
0.816045
0.580444
0.362153
0.150857
1.48023
2.39306
2.13313
1.91789
1.4289
1.03816
0.769936
0.560718
0.366623
0.161744
0.855285
2.31029
2.03305
1.81251
1.35453
0.981118
0.730751
0.542783
0.363445
0.17166
0.16049
2.13375
1.92194
1.69031
1.27358
0.927701
0.69711
0.527508
0.35115
0.177913
-0.413064
1.85409
1.78266
1.54997
1.18254
0.874574
0.667366
0.513851
0.355736
0.17822
-0.56333
1.50499
1.60217
1.38926
1.07966
0.819668
0.639734
0.501602
0.359381
0.171953
0.164701
1.17514
1.37152
1.1994
0.961629
0.761184
0.612495
0.49007
0.350829
0.16001
2.42079
1.0384
1.07007
0.955783
0.820246
0.696763
0.585231
0.473332
0.331679
0.141908
6.65548
1.40705
0.712107
0.638115
0.648374
0.62631
0.555744
0.450996
0.307159
0.121159
9.98009
2.57616
0.687632
0.395807
0.472982
0.550565
0.517019
0.417214
0.273194
0.0936445
11.7648
2.5729
0.26829
0.0649758
0.363202
0.518747
0.482099
0.371695
0.227297
0.0578854
12.8644
2.78133
0.401388
0.162585
0.478308
0.580367
0.483998
0.34087
0.186601
0.0233276
14.1869
4.37028
1.2868
0.736133
0.796953
0.726628
0.52694
0.329128
0.154987
-0.00762237
16.3637
7.1134
2.70525
1.59736
1.2458
0.940665
0.610448
0.339726
0.136119
-0.032094
19.253
9.87718
4.33631
2.56056
1.77382
1.20436
0.726318
0.371918
0.131894
-0.047789
21.7566
11.938
5.85321
3.51945
2.33876
1.49843
0.864313
0.422382
0.142222
-0.0534298
23.0356
13.1208
7.05035
4.41924
2.91192
1.80907
1.01695
0.487694
0.166016
-0.0485974
22.9755
13.5
7.91127
5.26656
3.50117
2.14395
1.19089
0.572186
0.207021
-0.0317363
22.4227
13.7251
8.68277
6.12774
4.12763
2.52293
1.40838
0.693724
0.286138
0.00315699
111.786
97.8404
84.0758
71.0706
59.1314
48.3512
38.7699
30.0934
20.0824
4.97782
112.766
99.4781
85.9774
72.9711
60.928
50.0472
40.5141
32.256
23.591
11.4781
113.298
100.213
87.3326
75.0065
63.4679
52.8761
43.4464
35.2577
27.4713
18.3374
114.51
102.77
90.8115
78.9811
67.6248
57.0299
47.3971
38.797
31.0904
23.8274
115.087
104.076
93.1558
82.465
72.1183
62.1942
52.7321
43.822
36.0042
29.8256
115.437
104.71
94.2034
84.0418
74.3214
65.0922
56.3331
48.0919
41.0504
36.0336
115.668
105.109
94.7982
84.8662
75.4237
66.5434
58.2347
50.5673
44.2134
40.0939
115.769
105.247
94.9812
85.1101
75.7561
67.0104
58.9068
51.5135
45.3968
41.4371
115.718
105.033
94.6068
84.5879
75.109
66.2766
58.1467
50.7773
44.5535
40.1007
115.595
104.648
93.9609
83.6836
73.9584
64.9084
56.6138
49.1191
42.6102
37.4153
234.119
229.755
228.187
227.745
227.654
227.905
228.639
230.02
232.171
234.31
225.557
222.538
221.488
221.449
221.674
222.159
223.089
224.697
227.168
229.644
216.044
213.869
213.096
213.221
213.652
214.355
215.48
217.249
219.863
222.461
205.738
203.711
203.007
203.202
203.746
204.575
205.799
207.607
210.176
212.695
194.416
192.506
191.851
192.039
192.571
193.382
194.559
196.253
198.608
200.898
182.049
180.324
179.731
179.872
180.325
181.036
182.072
183.55
185.579
187.544
168.703
167.241
166.747
166.849
167.206
167.778
168.617
169.811
171.438
173.009
154.57
153.453
153.098
153.176
153.431
153.844
154.451
155.313
156.484
157.611
139.961
139.247
139.04
139.089
139.235
139.469
139.82
140.321
141.003
141.66
125.436
125.093
124.952
124.905
124.892
124.915
124.981
125.101
125.278
125.454
246.556
246.795
247.048
247.266
247.564
248.065
248.618
248.955
248.959
248.445
246.628
246.959
247.362
247.669
247.869
248.205
248.63
248.545
247.727
246.706
246.635
247.031
247.477
247.789
247.872
248.002
248.284
247.924
246.536
245.281
246.512
247.014
247.444
247.676
247.608
247.493
247.528
247.105
245.811
244.654
246.019
246.673
247.062
247.167
246.989
246.711
246.533
246.173
245.364
244.575
244.812
245.655
245.99
245.953
245.721
245.436
245.238
245.067
244.827
244.541
242.467
243.563
243.9
243.783
243.572
243.406
243.371
243.502
243.809
244.049
238.583
240.068
240.536
240.469
240.384
240.435
240.672
241.166
241.979
242.718
233.109
235.163
235.871
235.938
236.063
236.408
236.996
237.901
239.205
240.417
227.755
229.62
230.364
230.531
230.837
231.454
232.395
233.747
235.593
237.302
246.936
246.718
246.677
246.49
246.422
246.309
245.934
245.677
245.574
245.72
246.894
246.717
246.672
246.492
246.421
246.321
245.943
245.658
245.38
245.739
246.866
246.713
246.663
246.488
246.413
246.322
245.941
245.601
245.141
245.819
246.847
246.706
246.651
246.475
246.399
246.317
245.927
245.507
244.921
246.004
246.835
246.697
246.634
246.455
246.379
246.302
245.898
245.396
244.786
246.241
246.829
246.685
246.616
246.431
246.353
246.273
245.859
245.303
244.76
246.35
246.827
246.671
246.596
246.404
246.322
246.233
245.823
245.252
244.808
246.018
246.831
246.652
246.574
246.374
246.287
246.189
245.806
245.257
244.83
244.781
246.84
246.629
246.55
246.34
246.249
246.156
245.839
245.334
244.653
242.006
246.858
246.605
246.52
246.305
246.215
246.152
245.943
245.461
243.974
237.291
246.896
246.577
246.479
246.247
246.15
246.08
245.874
245.135
242.443
233.742
247.011
246.556
246.44
246.194
246.093
246.115
246.067
245.334
242.178
231.8
247.252
246.562
246.401
246.114
246.016
246.076
246.056
245.233
241.882
230.534
247.702
246.617
246.371
246.028
245.88
245.811
245.608
244.528
240.475
229.313
248.54
246.684
246.395
245.937
245.669
245.306
244.74
243.224
238.005
227.457
250.377
246.75
246.504
245.868
245.377
244.645
243.656
241.568
235.373
224.912
254.257
247.061
246.659
245.811
245.022
243.931
242.56
239.957
233.311
222.584
262.562
248.199
246.934
245.77
244.648
243.241
241.558
238.668
232.073
221.328
280.122
250.933
247.585
245.806
244.294
242.588
240.649
237.737
231.63
221.358
306.093
254.979
249.09
246.02
244.003
241.967
239.765
236.921
231.359
221.885
236.415
221.066
210.444
201.13
190.969
179.665
167.27
153.898
139.853
125.723
230.027
217.734
208.582
199.86
189.923
178.685
166.338
153.088
139.364
125.89
223.494
214.129
205.95
197.423
187.709
176.868
165.115
152.615
139.598
126.42
218.378
210.871
202.879
194.029
184.187
173.422
161.93
149.988
137.925
126.091
212.98
206.587
198.595
189.501
179.832
169.695
159.145
148.277
137.222
126.13
207.384
202.088
194.828
186.358
177.36
167.904
157.985
147.662
137.043
126.255
203.59
199.15
192.56
184.663
176.13
167.044
157.423
147.349
136.938
126.328
202.308
198.05
191.704
184.091
175.778
166.842
157.323
147.32
136.962
126.393
203.634
198.919
192.469
184.885
176.552
167.537
157.9
147.754
137.239
126.507
206.308
200.873
194.137
186.426
177.93
168.698
158.816
148.412
137.636
126.644
112.19
112.36
112.444
112.295
111.789
111.428
111.243
111.528
111.52
111.271
89.6151
90.0784
90.2971
89.8635
88.4315
87.3451
86.7242
87.3858
87.4235
86.8369
68.772
69.3997
69.6611
68.9943
67.055
65.3432
64.323
64.8717
65.1761
64.621
50.6542
51.2608
51.4504
50.6273
48.6482
46.4822
45.1521
45.1875
45.926
45.6926
36.009
36.4175
36.4679
35.5865
33.7947
31.4787
29.8349
29.2696
30.0772
30.265
24.9568
25.0603
24.9383
24.0152
22.4376
20.4081
18.6173
17.6757
17.9307
18.4308
17.0703
16.92
16.7053
15.7143
14.2998
12.7965
11.309
10.244
9.90424
10.2707
11.5833
11.4065
11.358
10.3586
9.03967
8.03779
7.14626
6.30346
5.71498
5.63112
7.90923
7.82104
8.11711
7.24922
6.08313
5.49269
5.16403
4.77956
4.29563
3.91579
6.04024
5.83537
6.2209
5.48301
4.61364
4.33775
4.36202
4.35287
4.20037
3.8043
5.2728
5.03605
5.11856
4.42419
3.89205
3.83615
3.98626
4.1292
4.25039
4.30705
4.84526
4.7362
4.45897
3.79267
3.50705
3.5947
3.79821
3.96596
4.08576
4.17201
4.46638
4.42164
3.98991
3.43948
3.31982
3.48305
3.70806
3.88692
4.00494
4.06528
4.01159
3.95662
3.55055
3.19944
3.20975
3.41336
3.62646
3.78387
3.8825
3.92381
3.46317
3.36989
3.097
2.97765
3.09479
3.31182
3.50207
3.63979
3.72112
3.74484
2.81145
2.71748
2.6587
2.74958
2.94656
3.1511
3.31699
3.43649
3.50345
3.51688
2.08798
2.10511
2.24068
2.47575
2.71164
2.91028
3.06562
3.17942
3.2458
3.26131
1.41544
1.53378
1.7855
2.07884
2.33509
2.54968
2.72577
2.86467
2.95237
2.98052
0.738676
0.873172
1.14826
1.47787
1.78835
2.06063
2.29863
2.48387
2.58882
2.62647
0.0661121
-0.0192225
0.216528
0.629096
1.05049
1.43364
1.7586
1.97399
2.07725
2.14057
3.66088
3.70443
3.5739
3.24743
2.59546
1.90398
1.30888
0.834241
0.450056
0.0844644
3.73339
3.67787
3.52317
3.23138
2.556
1.84806
1.25748
0.797489
0.426449
0.0819471
3.75957
3.57139
3.41101
3.17705
2.51195
1.79547
1.20924
0.763443
0.405308
0.0814921
3.72012
3.39459
3.25776
3.07421
2.45459
1.74449
1.1642
0.73224
0.386845
0.0826892
3.61187
3.186
3.08906
2.92026
2.37198
1.69058
1.12162
0.703854
0.371267
0.0856765
3.44811
2.98803
2.92817
2.7357
2.25778
1.6298
1.08127
0.678656
0.35895
0.0905828
3.25453
2.82077
2.78437
2.55264
2.11491
1.55839
1.04245
0.65699
0.350291
0.0974155
3.04753
2.68416
2.65836
2.39538
1.95869
1.47358
1.0037
0.638835
0.345567
0.106045
2.82565
2.57367
2.54578
2.2711
1.81059
1.37658
0.962757
0.623657
0.344874
0.116198
2.58184
2.49203
2.4403
2.17367
1.68539
1.27556
0.917346
0.610262
0.348044
0.127443
5.42224
3.97572
3.27683
2.89664
2.41423
1.88965
1.3854
0.928822
0.540883
0.128166
4.6184
3.75521
3.31324
2.95814
2.45519
1.89868
1.37275
0.909883
0.518016
0.115767
3.94841
3.66333
3.37425
3.0279
2.49485
1.9068
1.36154
0.893013
0.500513
0.105088
3.62854
3.66392
3.45997
3.10854
2.53638
1.91471
1.35094
0.877487
0.485307
0.0964754
3.61384
3.70722
3.56202
3.20131
2.58262
1.92287
1.33962
0.861724
0.470563
0.0897807
112.021
88.9537
67.9025
50.1307
36.1158
25.7953
18.6251
13.7496
10.5675
8.75325
111.8
88.3913
67.1962
49.3963
35.3135
24.791
17.3214
12.216
9.07309
7.57284
111.614
87.9109
66.5578
48.6555
34.4022
23.6182
15.901
10.681
7.53631
6.07818
111.403
87.3371
65.7173
47.5906
33.0774
22.024
14.1292
8.89626
5.81067
4.43494
111.149
86.6089
64.5879
46.1173
31.2771
19.9561
11.9603
6.9238
4.44072
3.62494
243.77
243.808
243.927
244.099
244.312
244.32
243.816
243.113
243.217
242.994
243.982
244.054
244.168
244.357
244.627
244.802
244.584
243.934
243.677
243.57
244.178
244.226
244.34
244.536
244.822
245.084
245.058
244.55
244.123
244.072
244.42
244.453
244.551
244.725
244.983
245.273
245.379
245.109
244.723
244.655
244.695
244.713
244.795
244.944
245.16
245.426
245.63
245.632
245.467
245.376
244.988
245.001
245.07
245.193
245.366
245.597
245.869
246.112
246.218
246.207
245.263
245.282
245.364
245.499
245.676
245.906
246.208
246.57
246.875
246.998
245.55
245.567
245.664
245.856
246.111
246.412
246.773
247.187
247.554
247.735
245.932
245.961
246.037
246.26
246.632
247.086
247.593
248.114
248.461
248.422
246.326
246.436
246.537
246.727
247.126
247.697
248.301
248.853
249.207
249.002
136.503
136.244
136.221
136.484
136.266
135.868
135.327
135.155
135.226
135.391
160.954
160.357
160.379
161.016
160.363
159.241
157.777
157.321
157.526
157.984
183.199
182.632
182.919
183.442
182.392
180.646
178.678
177.989
178.238
178.861
202.165
201.919
202.638
202.648
201.29
199.093
197.085
196.241
196.419
197.021
217.637
217.811
218.595
218.007
216.339
213.995
212.174
211.271
211.31
211.715
229.517
229.998
230.228
229.269
227.461
225.404
223.795
222.848
222.715
222.817
237.716
238.052
237.689
236.616
235.124
233.595
232.145
231.128
230.903
230.752
242.371
242.251
241.642
240.809
239.93
238.912
237.558
236.532
236.474
236.296
244.095
243.677
243.184
242.826
242.528
241.942
240.752
239.857
240.143
240.058
244.235
243.809
243.656
243.677
243.749
243.506
242.632
241.871
242.256
242.067
254.846
246.871
247.5
246.285
246.035
245.528
244.996
244.635
244.504
244.543
252.013
246.808
247.314
246.263
246.087
245.591
245.012
244.667
244.581
244.514
250.09
246.814
247.091
246.259
246.143
245.659
245.055
244.761
244.75
244.546
248.903
246.843
246.878
246.277
246.201
245.733
245.136
244.914
244.98
244.652
248.217
246.846
246.739
246.316
246.257
245.816
245.264
245.106
245.222
244.823
247.769
246.804
246.702
246.366
246.31
245.91
245.432
245.295
245.431
245.03
247.454
246.75
246.701
246.41
246.356
246.013
245.609
245.451
245.586
245.241
247.238
246.722
246.693
246.445
246.389
246.118
245.757
245.562
245.686
245.436
247.094
246.716
246.684
246.469
246.405
246.21
245.856
245.631
245.725
245.595
246.999
246.717
246.68
246.483
246.415
246.275
245.91
245.667
245.691
245.69
317.35
253.756
249.909
246.972
246.14
245.568
245.251
244.931
244.238
242.722
295.618
251.366
248.788
246.739
246.057
245.539
245.207
244.902
244.451
243.523
277.177
249.21
248.191
246.566
246.017
245.521
245.157
244.844
244.534
244.196
265.774
247.865
247.867
246.436
245.998
245.509
245.1
244.762
244.524
244.524
259.003
247.135
247.644
246.327
245.996
245.501
245.031
244.66
244.479
244.557
239.301
237.452
234.236
229.329
222.126
211.772
197.721
179.916
158.84
135.759
240.484
238.948
235.773
230.637
223.135
212.578
198.458
180.625
159.403
135.98
241.997
240.5
237.318
232.065
224.314
213.493
199.202
181.265
159.885
136.167
243.659
242.253
239.125
233.851
225.916
214.823
200.269
182.106
160.458
136.376
244.448
243.611
241.108
236.037
227.995
216.628
201.744
183.236
161.186
136.629
)
;

boundaryField
{
    left
    {
        type            zeroGradient;
    }
    right
    {
        type            fixedValue;
        value           uniform 0;
    }
    down
    {
        type            zeroGradient;
    }
    up
    {
        type            zeroGradient;
    }
    cylinder
    {
        type            zeroGradient;
    }
    defaultFaces
    {
        type            empty;
    }
}


// ************************************************************************* //
