/*--------------------------------*- C++ -*----------------------------------*\
  =========                 |
  \\      /  F ield         | OpenFOAM: The Open Source CFD Toolbox
   \\    /   O peration     | Website:  https://openfoam.org
    \\  /    A nd           | Version:  13
     \\/     M anipulation  |
\*---------------------------------------------------------------------------*/
FoamFile
{
    format      ascii;
    class       volVectorField;
    location    "67.3";
    object      U;
}
// * * * * * * * * * * * * * * * * * * * * * * * * * * * * * * * * * * * * * //

dimensions      [0 1 -1 0 0 0 0];

internalField   nonuniform List<vector> 
440
(
(-0.0891283 0.0751307 -6.88522e-20)
(-0.0601967 0.0939846 2.23262e-20)
(0.183708 0.050976 2.3158e-20)
(0.637848 0.00815058 1.49619e-19)
(0.949858 -0.041391 5.59932e-21)
(-0.069723 0.0405059 4.98775e-20)
(0.183865 -0.0290065 -1.36516e-19)
(0.79207 -0.106098 -1.23698e-19)
(1.39912 -0.16266 4.2945e-20)
(1.97125 -0.211699 -1.48755e-20)
(0.0261669 -0.0147782 5.41769e-20)
(0.712388 -0.0900339 9.56087e-19)
(1.55554 -0.104949 -7.01127e-19)
(2.14737 -0.0938214 -2.2042e-18)
(2.55694 -0.0986077 1.00989e-18)
(0.28416 -0.062989 -1.83809e-19)
(1.42253 -0.0222274 -7.26162e-19)
(2.18458 0.0243358 2.35724e-18)
(2.53678 0.0431675 2.67925e-18)
(2.55829 0.0446256 -7.35711e-19)
(0.683964 -0.00249031 -3.4805e-19)
(1.92511 0.17295 -7.75806e-19)
(2.43273 0.23143 2.4107e-18)
(2.54714 0.233363 2.50192e-18)
(2.63485 0.208632 8.40626e-19)
(-0.057911 0.384959 3.50392e-19)
(-0.210531 0.489079 4.06289e-19)
(-0.370452 0.500298 -1.31412e-18)
(-0.525827 0.480804 2.26299e-19)
(-0.590532 0.381098 1.19766e-18)
(-0.077369 0.463064 -1.39206e-19)
(-0.0891232 0.697021 -7.87631e-19)
(-0.0765677 0.747027 4.37131e-20)
(-0.0340738 0.736488 5.47269e-20)
(-0.0108239 0.664043 -1.44491e-19)
(-0.0802675 0.269163 -8.18688e-20)
(-0.0727178 0.49273 8.3515e-21)
(-0.020182 0.551459 3.8403e-20)
(0.0842732 0.538321 -5.45733e-19)
(0.125342 0.480934 1.23649e-20)
(-0.0716232 0.133073 -5.62075e-20)
(-0.0994331 0.271615 8.86356e-20)
(-0.0633919 0.307443 -5.84854e-20)
(0.0315871 0.277422 -6.42908e-20)
(0.141114 0.186016 3.94506e-22)
(-0.0835753 0.0971152 3.63626e-21)
(-0.12157 0.172934 -4.48152e-21)
(-0.0568576 0.181426 1.25998e-20)
(0.11843 0.137407 -6.71629e-20)
(0.333725 0.0975244 -2.17136e-19)
(-0.245536 -0.610439 -2.0538e-18)
(1.44036 -0.809486 1.5325e-18)
(1.17769 1.13387 9.15134e-19)
(0.745343 0.336126 3.6842e-19)
(1.10328 -0.483744 -2.25122e-20)
(1.32942 -0.915972 1.64315e-18)
(1.30681 -0.920563 -6.75593e-20)
(0.796291 1.24612 2.67048e-20)
(0.855671 0.289583 2.4306e-19)
(1.27902 -0.518685 -5.27777e-20)
(2.03639 -1.07469 3.99495e-20)
(0.395843 -0.825891 -1.08757e-18)
(0.429833 1.25998 6.13578e-20)
(1.05583 0.143819 2.95428e-19)
(1.44914 -0.562771 3.79907e-20)
(1.65915 -1.03401 -1.13724e-19)
(-0.725388 -0.715326 1.65519e-20)
(0.768052 1.10208 1.67996e-18)
(1.38303 0.0356445 6.46768e-19)
(1.65381 -0.577008 -2.91436e-19)
(1.89254 -0.900318 -2.15071e-19)
(-0.210267 -0.750258 7.50592e-19)
(0.527309 0.825145 0)
(1.7824 -0.0500681 -3.58267e-19)
(1.84239 -0.583161 -1.3289e-19)
(2.45126 -0.787019 -5.83687e-19)
(1.80103 -0.610228 1.77461e-19)
(0.443124 0.37462 2.58671e-20)
(2.19884 -0.320777 1.22834e-19)
(1.94764 -0.597617 2.7115e-19)
(2.3254 -0.812168 7.91062e-20)
(1.19895 -0.182057 3.7916e-20)
(0.767859 0.58922 1.37663e-20)
(2.33236 -0.457206 1.52094e-19)
(1.81785 -0.512209 0)
(2.27012 -0.405216 -6.16306e-19)
(1.13787 -0.0365541 2.126e-20)
(1.57751 0.130056 5.74437e-19)
(2.37947 -0.599239 -2.39002e-19)
(1.45539 -0.436137 1.26929e-20)
(1.91659 -0.314526 -3.9223e-21)
(1.22818 0.0204968 6.80959e-20)
(1.89454 -0.0163757 1.50342e-20)
(1.79454 -0.390558 1.22392e-33)
(0.728992 -0.203078 -4.03459e-21)
(1.00638 -0.025235 8.43616e-20)
(0.834576 -0.0219108 -3.21059e-21)
(1.00601 -0.127924 -3.27926e-20)
(0.312545 -0.0757888 9.07351e-20)
(-0.257765 -0.00333291 -2.91936e-20)
(2.44405 0.228826 -1.07168e-18)
(2.72706 -0.030395 -1.39072e-18)
(2.44525 -0.00283168 1.18973e-18)
(2.82308 -0.277388 3.50024e-21)
(2.15532 -0.122405 -5.42367e-20)
(2.15426 0.167899 4.20962e-20)
(2.47821 -0.0517012 -4.52852e-20)
(2.28491 -0.0153381 -1.52507e-19)
(2.51199 -0.252924 -2.51416e-19)
(2.3632 -0.264163 -6.77176e-21)
(2.10063 0.0530212 6.74861e-20)
(2.2268 -0.022314 1.26782e-19)
(2.19387 -0.0792173 -1.86877e-19)
(2.25959 -0.14819 5.89838e-20)
(2.24336 -0.236948 6.6648e-20)
(2.02109 0.00951967 1.104e-19)
(1.98706 -0.0336415 9.44165e-20)
(2.08622 -0.0610756 -1.61569e-20)
(2.02684 -0.110378 3.7711e-20)
(2.11638 -0.138485 1.37298e-20)
(1.45486 -0.0205475 1.5177e-19)
(1.36543 -0.0165344 -1.23296e-20)
(1.45584 -0.037741 2.53514e-20)
(1.32126 -0.026404 -1.57601e-21)
(1.42859 -0.0598621 5.1128e-20)
(1.62982 0.848263 1.19425e-18)
(1.57082 0.94846 -3.80852e-19)
(1.56869 1.08581 -1.43597e-18)
(1.50293 1.13937 7.85758e-19)
(0.92715 0.829594 -1.84954e-19)
(1.92279 0.810238 -6.18906e-19)
(1.88257 0.887 -3.19991e-18)
(1.88485 0.996684 -1.23347e-18)
(1.80366 1.01811 -4.44503e-19)
(1.11284 0.730803 -7.2693e-19)
(2.23402 0.678596 8.27942e-19)
(2.21327 0.751983 2.16284e-19)
(2.18974 0.84766 -2.4118e-18)
(2.06192 0.839777 -7.01554e-19)
(1.23771 0.574967 5.42029e-19)
(2.41993 0.564493 2.5186e-18)
(2.39496 0.611675 1.84896e-18)
(2.39216 0.669515 -2.1586e-18)
(2.19425 0.633894 -1.65416e-18)
(1.22804 0.383981 -3.20803e-19)
(2.54443 0.384059 1.29665e-18)
(2.5768 0.413234 -9.3174e-19)
(2.49477 0.444783 6.54703e-19)
(2.17029 0.397624 5.51142e-19)
(1.05413 0.174305 -4.84356e-19)
(0.574944 0.485794 -6.2446e-19)
(0.485134 0.521702 -4.72054e-19)
(0.367016 0.557705 5.21143e-20)
(0.229372 0.567058 -2.42602e-21)
(0.0574343 0.41373 9.26049e-20)
(0.679936 0.662035 1.31569e-19)
(0.617138 0.724336 -2.82241e-19)
(0.531083 0.794899 1.92148e-19)
(0.406456 0.849711 -8.97249e-20)
(0.178496 0.645267 1.26667e-19)
(0.785381 0.845001 1.24858e-19)
(0.710007 0.926562 4.94032e-19)
(0.655335 1.02722 1.17409e-19)
(0.574673 1.07301 -3.24042e-19)
(0.316871 0.795003 2.73536e-19)
(1.07832 0.925464 2.46204e-19)
(1.03155 1.00927 -7.39774e-19)
(0.978446 1.10697 -2.02252e-18)
(0.89473 1.17516 8.16043e-19)
(0.528691 0.878878 -1.73655e-19)
(1.13625 0.958763 -1.12445e-19)
(1.17646 1.08632 -1.92707e-19)
(1.20847 1.20658 -3.85359e-19)
(1.16061 1.23517 -4.38523e-19)
(0.716764 0.892244 -7.01062e-21)
(1.02471 0.04861 -1.05259e-19)
(0.98627 0.0512541 -3.74467e-20)
(1.03216 0.12148 -1.44946e-21)
(0.948642 0.158065 -3.13394e-19)
(0.892506 0.301529 3.2368e-19)
(1.01655 0.0449763 6.68981e-20)
(0.995992 0.0520698 1.32056e-19)
(1.02215 0.127138 1.40911e-19)
(0.987703 0.186925 4.44788e-20)
(0.937934 0.379535 -2.15541e-20)
(1.02484 0.0433896 9.1225e-20)
(0.973392 0.0470494 -4.92187e-21)
(1.07322 0.144811 -7.13113e-21)
(0.940371 0.18481 1.59414e-19)
(1.16277 0.526437 -5.18458e-19)
(1.02084 0.043331 -3.71559e-22)
(0.98224 0.0409063 -1.82214e-19)
(1.07845 0.155918 -7.3004e-20)
(1.03894 0.193118 -4.0915e-19)
(1.16107 0.568065 1.0045e-19)
(1.01733 0.0387988 -1.6092e-20)
(0.977457 0.0396182 4.96186e-20)
(1.14054 0.155745 3.45447e-20)
(0.994978 0.221681 4.79204e-19)
(1.44247 0.704234 -4.92125e-19)
(0.980836 0.0438524 -1.33697e-20)
(1.02814 0.0145259 1.01086e-19)
(1.14264 0.182044 -9.00801e-20)
(1.23203 0.143459 8.92026e-19)
(1.29324 0.7304 -3.86863e-19)
(0.919735 0.0225997 -1.40506e-21)
(1.1061 -0.00131277 -9.97259e-20)
(1.14117 0.0963033 5.01601e-21)
(1.35133 0.175974 -2.58005e-19)
(1.20374 0.461225 -3.80023e-20)
(0.952428 0.0285795 -2.50962e-21)
(1.12382 -0.0433445 1.53422e-35)
(1.177 0.0700588 -5.98475e-20)
(1.23584 0.161291 7.81181e-20)
(1.42752 0.302013 1.82521e-19)
(1.06256 -0.0240076 4.01113e-21)
(1.0607 -0.0669766 -2.53241e-20)
(1.10882 0.0415023 1.76196e-20)
(1.14957 0.101758 2.91382e-20)
(1.60927 0.167083 -2.77573e-19)
(0.991157 -0.0245114 -4.00346e-20)
(0.821017 -0.0243699 -2.03213e-21)
(0.815312 0.0142521 2.69937e-20)
(0.91559 0.00685411 -1.13389e-20)
(1.18394 0.034581 -6.37766e-20)
(1.91104 0.634907 3.18588e-19)
(1.95749 0.656783 8.14082e-19)
(2.27407 0.517466 -1.17803e-18)
(2.27983 0.488684 3.7006e-20)
(2.55527 0.26798 5.10118e-19)
(1.78502 0.380791 8.31608e-20)
(1.763 0.41199 1.05224e-18)
(2.06931 0.311241 1.16467e-19)
(1.98315 0.3187 -9.64088e-19)
(2.31961 0.138463 -3.10117e-19)
(1.72699 0.264695 -2.37394e-19)
(1.80655 0.242151 -1.56023e-19)
(1.94212 0.197097 2.11059e-19)
(1.96977 0.163606 -3.00755e-19)
(2.11945 0.0903399 2.70303e-19)
(1.6926 0.137651 3.6648e-19)
(1.80721 0.119132 -4.927e-21)
(1.80913 0.0951338 2.20758e-19)
(1.92232 0.0725028 1.84701e-19)
(1.91046 0.0343779 -1.77806e-19)
(1.30689 0.0314641 -4.26782e-20)
(1.36386 0.0210651 2.33419e-19)
(1.3537 0.0139979 1.02583e-19)
(1.41663 -0.000456376 -2.13757e-19)
(1.37603 -0.00469024 4.85105e-22)
(1.1005 -0.0211109 5.09625e-20)
(2.10898 -0.0481137 -3.91748e-19)
(2.34615 -0.0363756 1.11153e-18)
(2.33649 0.00430388 4.9973e-19)
(2.1793 0.0318028 -3.37579e-19)
(0.672832 0.0891003 8.9629e-20)
(1.88495 0.0780568 -4.06908e-19)
(2.35728 0.0812802 -5.43427e-19)
(2.41421 0.0921524 6.67517e-19)
(2.16577 0.0816504 -4.20163e-19)
(0.191294 0.068834 -2.71126e-20)
(1.25187 0.135777 4.23772e-19)
(2.01035 0.158943 6.23177e-20)
(2.41132 0.152591 4.02474e-19)
(2.57371 0.151561 2.00019e-19)
(-0.051454 -0.0302689 1.84978e-19)
(0.430509 0.0639164 1.82691e-19)
(1.22684 0.136889 -3.89481e-19)
(1.732 0.175119 2.15125e-20)
(2.34168 0.207072 4.22963e-20)
(-0.104053 -0.0843169 1.2154e-19)
(-0.0240499 -0.0613021 -1.39157e-19)
(0.412769 0.0158356 -2.04417e-20)
(0.87509 0.045194 3.22162e-21)
(1.3229 0.120371 -4.06423e-20)
(-0.0806444 -0.0847137 1.08226e-20)
(-0.144345 -0.130306 7.25138e-20)
(-0.047819 -0.139331 5.72156e-20)
(0.132281 -0.119113 -6.87223e-20)
(0.524456 -0.0529543 2.01282e-21)
(-0.0443457 -0.0614267 -6.38155e-21)
(-0.118402 -0.141646 -1.92639e-20)
(-0.141302 -0.204799 -5.1358e-21)
(-0.111765 -0.234174 1.07985e-21)
(0.0273693 -0.181899 4.6638e-21)
(-0.0211769 -0.0354298 9.61619e-22)
(-0.0815003 -0.128216 4.04341e-20)
(-0.1279 -0.226909 -1.77853e-20)
(-0.158286 -0.294813 -2.72352e-20)
(-0.145894 -0.301872 2.50904e-20)
(-0.0116066 -0.00139679 -5.81005e-21)
(-0.0822508 -0.0942982 -4.29987e-20)
(-0.153264 -0.184996 1.40191e-19)
(-0.227954 -0.227639 1.56403e-19)
(-0.287348 -0.229427 -5.38711e-20)
(-0.0187959 0.119913 8.65741e-21)
(-0.153219 0.0924104 -1.68667e-20)
(-0.300019 0.0819947 -4.22676e-21)
(-0.458276 0.114255 9.63599e-20)
(-0.598209 0.109619 2.84088e-19)
(1.40497 0.586279 -2.33524e-20)
(1.50368 0.271188 1.07933e-18)
(0.996011 0.354189 1.16231e-19)
(-0.115803 -0.0212962 1.37715e-19)
(0.398095 -0.30972 -3.58769e-20)
(1.05924 0.431929 7.09265e-20)
(1.56319 0.269699 -5.88681e-19)
(1.31249 0.520314 6.23261e-19)
(0.208906 0.0571813 9.68628e-21)
(0.464964 -0.35354 1.71517e-19)
(0.323673 0.175459 2.54691e-19)
(1.50655 0.175831 -5.55796e-19)
(1.40971 0.702582 -6.50746e-20)
(0.383754 0.173663 7.00684e-20)
(0.598917 -0.392517 -2.44004e-20)
(-0.570357 -0.0461385 1.6886e-19)
(1.5003 -0.039597 -9.61803e-19)
(1.38376 0.847016 -5.54895e-19)
(0.548754 0.253349 -4.9015e-22)
(0.767026 -0.420743 -1.06701e-19)
(-1.07348 -0.213704 2.15788e-19)
(1.50715 -0.423106 -4.40939e-19)
(1.3388 1.008 7.47818e-19)
(0.674368 0.326593 -1.55225e-20)
(0.937603 -0.443692 -1.78794e-19)
(0.17502 0.183821 -6.43936e-20)
(-0.269351 -0.149361 0)
(-0.239089 -0.0883874 1.82427e-20)
(-0.387828 -0.0565321 2.47185e-20)
(0.31526 -0.0406618 5.50428e-21)
(1.77437 0.534906 0)
(1.27092 0.285936 0)
(0.656179 0.106815 -1.32788e-20)
(-0.393496 -0.0891334 -5.54742e-20)
(0.49023 -0.195088 1.13327e-19)
(0.691289 0.0010894 -1.12601e-19)
(0.714669 -0.0064197 1.13777e-19)
(0.971179 -0.000416713 -4.64616e-20)
(0.929625 0.00480449 3.04804e-19)
(1.38784 0.0823384 2.16462e-19)
(1.5744 0.0242673 1.05671e-19)
(1.70911 0.0644128 1.92499e-19)
(1.90577 0.0361721 -3.07573e-19)
(2.4584 0.183168 -1.33513e-20)
(2.19861 0.107873 1.43008e-19)
(0.871471 -0.451166 -2.35513e-20)
(0.85586 -0.535822 -1.39302e-19)
(0.845011 -0.627863 -1.02044e-19)
(0.772237 -0.690163 6.25394e-20)
(0.46312 -0.534183 1.1301e-19)
(0.776593 -0.35602 1.28917e-19)
(0.721229 -0.41717 2.70036e-19)
(0.646474 -0.482582 -2.88539e-20)
(0.531869 -0.535963 1.18713e-19)
(0.284155 -0.420516 4.49701e-20)
(0.627578 -0.215533 -1.66119e-19)
(0.537674 -0.250495 -4.30734e-20)
(0.435392 -0.294971 1.34225e-19)
(0.318452 -0.334844 -8.4963e-21)
(0.137419 -0.265166 -9.97658e-20)
(0.536967 0.017432 -4.38988e-19)
(0.451215 0.00521232 -3.64708e-19)
(0.342 -0.01645 2.84514e-19)
(0.215851 -0.0470339 1.86396e-19)
(0.0554975 -0.0563333 1.39518e-20)
(0.516113 0.224505 -1.82174e-19)
(0.430111 0.230951 -1.78591e-19)
(0.315021 0.236838 -8.24018e-20)
(0.180555 0.243506 1.31971e-20)
(0.0249464 0.181189 1.1186e-20)
(1.93685 -0.0405821 7.26798e-19)
(2.19236 -0.104027 2.56843e-19)
(2.26386 -0.184078 -6.7293e-19)
(2.10884 -0.210696 -1.35238e-18)
(1.25062 -0.177452 1.05072e-19)
(1.91818 -0.118944 1.22034e-18)
(2.00678 -0.224486 1.60587e-18)
(2.01954 -0.340258 1.31852e-19)
(1.93422 -0.396749 2.27838e-19)
(1.2236 -0.338763 -1.49946e-19)
(1.6444 -0.274774 -3.17683e-18)
(1.70283 -0.386291 3.73755e-19)
(1.74378 -0.503787 9.87755e-19)
(1.67671 -0.57239 -3.76566e-19)
(1.07556 -0.474792 5.85657e-19)
(1.43884 -0.390125 7.53563e-19)
(1.45476 -0.482496 -1.97461e-18)
(1.43886 -0.593143 -2.28481e-18)
(1.36611 -0.67297 6.95121e-19)
(0.871324 -0.54463 4.62598e-19)
(1.16557 -0.445047 1.54671e-19)
(1.11832 -0.532786 2.14171e-19)
(1.10426 -0.646534 -3.40339e-19)
(1.04486 -0.72396 -4.10151e-19)
(0.654459 -0.566236 -3.83233e-21)
(1.07351 0.0570471 7.90776e-21)
(0.91493 0.0602947 -6.31706e-21)
(1.11685 0.0799139 -7.8169e-21)
(0.788902 0.0180476 -1.78607e-19)
(1.07274 -0.194835 -6.27852e-21)
(1.08282 0.0602488 -2.62773e-21)
(0.914305 0.0592877 5.63792e-20)
(1.11317 0.0971961 -5.57584e-20)
(0.878412 0.0645635 8.9252e-20)
(0.960965 -0.0781496 -2.59139e-20)
(1.08087 0.057123 -6.46575e-20)
(0.918949 0.0569885 5.56042e-22)
(1.10116 0.0979658 -2.29869e-20)
(0.878196 0.0906965 -1.95805e-22)
(0.941692 -0.0191794 -1.44796e-19)
(1.06134 0.0552075 7.93554e-20)
(0.948891 0.0540261 3.64939e-21)
(1.06313 0.104242 3.66769e-20)
(0.921379 0.116031 4.38854e-20)
(0.853611 0.094779 1.22117e-19)
(1.03697 0.0511527 2.01343e-20)
(0.978999 0.054433 -3.1883e-20)
(1.03166 0.108484 4.96359e-20)
(0.951019 0.144658 8.73292e-20)
(0.833993 0.194101 -1.36072e-19)
(0.891691 0.0339899 0)
(0.700396 0.0283684 1.05884e-20)
(0.598062 0.0234718 2.63968e-21)
(0.327672 -0.00543376 3.9706e-20)
(0.631923 -0.0509722 -1.02878e-19)
(1.04025 0.0762004 -6.65626e-20)
(0.9254 0.0746852 -2.17945e-20)
(1.01838 0.0800801 -2.46756e-20)
(0.788143 0.00960305 -9.19876e-20)
(0.988107 -0.178966 -1.09991e-19)
(0.874954 -0.0613283 -2.49178e-20)
(0.955318 -0.0298397 4.3138e-19)
(1.03802 0.0360706 2.7151e-19)
(0.915636 0.0502863 2.37198e-20)
(0.710742 0.025919 0)
(1.23976 -0.29982 2.42492e-19)
(1.34763 -0.264989 1.27077e-18)
(1.51278 -0.150379 -1.44811e-18)
(1.59892 -0.0215767 -4.4929e-19)
(1.50122 0.0239958 3.3289e-19)
)
;

boundaryField
{
    left
    {
        type            fixedValue;
        value           uniform (1 0 0);
    }
    right
    {
        type            zeroGradient;
    }
    down
    {
        type            noSlip;
    }
    up
    {
        type            noSlip;
    }
    cylinder
    {
        type            noSlip;
    }
    defaultFaces
    {
        type            empty;
    }
}


// ************************************************************************* //
