/*--------------------------------*- C++ -*----------------------------------*\
  =========                 |
  \\      /  F ield         | OpenFOAM: The Open Source CFD Toolbox
   \\    /   O peration     | Website:  https://openfoam.org
    \\  /    A nd           | Version:  13
     \\/     M anipulation  |
\*---------------------------------------------------------------------------*/
FoamFile
{
    format      ascii;
    class       volScalarField;
    location    "0.545";
    object      p;
}
// * * * * * * * * * * * * * * * * * * * * * * * * * * * * * * * * * * * * * //

dimensions      [0 2 -2 0 0 0 0];

internalField   nonuniform List<scalar> 
440
(
7.83622
10.5927
12.9555
13.1381
10.1636
20.7287
24.112
27.1076
27.8084
25.9211
41.2662
44.2975
47.0006
47.7933
46.6327
67.3994
69.4973
71.4107
72.0673
71.3799
96.6761
97.4931
98.2901
98.6901
98.6566
-0.432902
-0.532117
-0.0602048
0.499703
0.841257
-1.68042
-2.34302
-2.07917
-1.38162
-0.743693
-2.03136
-2.91103
-2.82921
-2.07126
-0.952399
-0.682752
-0.814538
-0.407218
0.559253
2.42552
3.08851
4.40017
5.83025
7.26311
9.51419
2.09986
2.28296
1.36258
0.697441
0.237427
1.06711
2.08816
1.24051
0.639441
0.22377
-0.0855151
1.67344
1.10431
0.592394
0.214204
-0.391421
1.07058
0.893285
0.55026
0.208394
1.51967
0.485045
0.606902
0.501573
0.204808
4.39265
0.258146
0.336848
0.447662
0.187626
6.73255
0.715438
0.432945
0.442805
0.124749
9.99531
2.45651
1.08476
0.566398
0.0876981
13.8859
4.76344
2.14037
0.834218
0.0878579
16.6226
7.12752
3.46339
1.30524
0.177845
100.701
75.852
53.3366
33.1621
12.3597
102.396
78.9543
57.5491
39.0691
23.4953
104.297
82.7141
62.4869
45.2463
32.8994
105.18
85.0336
66.5157
51.1968
40.6706
105.099
84.7562
66.3415
51.2643
40.9103
219.882
216.403
216.11
218.227
220.96
202.701
200.235
200.495
203.236
206.528
180.553
178.781
179.144
181.567
184.445
154.754
153.411
153.616
155.21
157.107
126.873
126.16
126.099
126.559
127.152
235.579
236.008
236.647
237.071
236.816
236.161
236.797
237.353
237.331
236.378
234.961
235.937
236.354
236.082
235.094
230.076
231.676
232.242
232.379
232.288
221.587
223.451
224.465
225.675
227.03
235.752
234.728
234.905
234.116
234.269
235.722
234.713
234.851
234.075
234.803
235.712
234.674
234.793
234.194
235.33
235.713
234.613
234.791
234.451
234.921
235.716
234.531
234.863
234.651
232.229
235.726
234.394
234.916
234.429
228.734
235.909
234.256
234.804
233.943
226.368
236.803
234.024
234.168
232.254
223.346
240.838
234.007
232.985
229.788
219.669
249.807
234.73
231.767
227.241
216.916
217.772
196.245
175.039
151.745
126.459
207.378
191.382
172.337
150.434
126.664
198.891
186.21
168.627
148.1
126.346
191.754
180.795
165.111
146.274
125.932
191.536
180.775
165.366
146.673
126.163
96.4053
95.5284
95.0807
94.3138
94.1572
57.3256
55.3787
53.6733
51.7516
50.9857
29.4965
27.1532
24.3905
22.0916
20.7672
15.0453
12.6288
10.1634
8.1432
7.17276
9.21635
7.32871
5.94175
4.96617
4.37908
5.98723
4.88502
4.30474
4.2156
4.30377
4.08123
3.62105
3.54789
3.70283
3.8562
2.77708
2.76151
2.99365
3.29622
3.45438
1.67654
1.98023
2.43027
2.7805
2.92523
0.630123
1.02723
1.59906
2.00016
2.17391
3.62561
3.1939
2.08258
0.982149
0.287387
3.67938
3.02334
1.99047
0.926678
0.275839
3.4821
2.76348
1.86192
0.874731
0.265759
3.16342
2.5219
1.70036
0.820474
0.256359
2.74658
2.37475
1.5203
0.761646
0.249232
4.49353
3.17849
1.99586
1.02149
0.318085
3.75649
3.27175
2.08521
1.01694
0.300597
94.9128
54.1557
27.5194
14.4966
9.47679
93.6916
51.1464
22.9964
9.48139
5.27128
232.145
232.226
232.176
231.661
230.583
232.734
232.907
233.137
233.176
232.801
233.296
233.468
233.854
234.252
234.423
233.891
234.042
234.445
235.046
235.464
234.63
234.866
235.369
235.98
236.238
141.987
141.795
140.967
140.457
139.546
185.22
184.411
182.432
180.666
178.688
215.518
214.147
211.798
208.984
206.609
229.153
228.145
226.095
223.597
221.152
232
231.386
230.414
229.032
227.133
238.823
234.45
234.554
233.51
232.9
237.122
234.49
234.643
233.68
232.919
236.362
234.578
234.746
233.904
233.248
235.997
234.66
234.848
234.1
233.623
235.825
234.712
234.91
234.174
233.933
252.261
235.788
234.91
233.446
231.985
243.168
234.696
234.491
233.389
232.703
226.939
221.865
208.758
182.042
141.237
231.136
226.893
213.312
185.066
142.46
)
;

boundaryField
{
    left
    {
        type            zeroGradient;
    }
    right
    {
        type            fixedValue;
        value           uniform 0;
    }
    down
    {
        type            zeroGradient;
    }
    up
    {
        type            zeroGradient;
    }
    cylinder
    {
        type            zeroGradient;
    }
    defaultFaces
    {
        type            empty;
    }
}


// ************************************************************************* //
