/*--------------------------------*- C++ -*----------------------------------*\
  =========                 |
  \\      /  F ield         | OpenFOAM: The Open Source CFD Toolbox
   \\    /   O peration     | Website:  https://openfoam.org
    \\  /    A nd           | Version:  13
     \\/     M anipulation  |
\*---------------------------------------------------------------------------*/
FoamFile
{
    format      ascii;
    class       volVectorField;
    location    "2.41";
    object      U;
}
// * * * * * * * * * * * * * * * * * * * * * * * * * * * * * * * * * * * * * //

dimensions      [0 1 -1 0 0 0 0];

internalField   nonuniform List<vector> 
440
(
(-0.110304 0.0849929 -9.87893e-20)
(-0.136317 0.155813 9.87613e-20)
(0.10454 0.156946 -1.16125e-20)
(0.531291 0.123553 3.78391e-19)
(1.01051 0.0245091 1.45902e-21)
(-0.108913 0.059154 3.85549e-20)
(0.102445 0.0153721 -1.56187e-19)
(0.706139 -0.0503994 -9.76409e-20)
(1.34226 -0.104962 5.52704e-20)
(1.91744 -0.155067 -1.08903e-20)
(-0.0174942 0.00319734 6.63374e-20)
(0.640626 -0.0621043 8.60172e-19)
(1.47468 -0.0778176 -4.9622e-19)
(2.06335 -0.0672246 -1.61442e-18)
(2.4355 -0.0692869 6.99994e-19)
(0.230038 -0.0499129 -1.88548e-19)
(1.32106 -0.00971262 -6.05168e-19)
(2.07522 0.0393348 2.05782e-18)
(2.42241 0.0660152 2.2321e-18)
(2.49435 0.0678233 -6.35318e-19)
(0.61458 -0.00335027 -3.3116e-19)
(1.82152 0.170615 -7.02341e-19)
(2.35038 0.239214 2.14662e-18)
(2.50243 0.248028 2.30866e-18)
(2.56898 0.230905 7.75715e-19)
(-0.0424172 0.299273 1.7932e-19)
(-0.157721 0.390421 7.5383e-20)
(-0.249175 0.339325 -2.70311e-19)
(-0.318312 0.267747 2.10842e-20)
(-0.350643 0.200304 -1.17043e-19)
(-0.10045 0.421359 -2.78063e-20)
(-0.213292 0.57725 -2.91515e-19)
(-0.276166 0.508352 7.96151e-20)
(-0.303062 0.403018 7.82345e-20)
(-0.287603 0.30102 -1.40635e-19)
(-0.147126 0.428882 -3.01347e-19)
(-0.22834 0.686228 1.93063e-19)
(-0.219382 0.636786 -1.24356e-19)
(-0.167432 0.483541 -5.95474e-19)
(-0.0848923 0.32186 2.39195e-21)
(-0.134673 0.277486 -2.73572e-20)
(-0.207287 0.578713 1.11729e-20)
(-0.165669 0.627942 6.30794e-20)
(-0.0755488 0.526735 3.79114e-19)
(0.118689 0.320475 -5.61932e-20)
(-0.103986 0.133882 -6.18508e-20)
(-0.193836 0.338746 -8.16549e-20)
(-0.133018 0.422002 -3.74854e-20)
(0.00294268 0.38523 -8.93568e-20)
(0.407593 0.234574 -2.29491e-19)
(-0.313515 -0.177885 -8.63677e-19)
(0.267945 -0.39363 1.42448e-19)
(0.675351 -0.250979 6.37297e-22)
(0.891019 -0.161351 -4.13112e-21)
(1.01463 -0.0741268 -3.53457e-21)
(0.0587606 -0.280519 1.53639e-18)
(0.409479 -0.532097 -1.14813e-19)
(0.744117 -0.338837 2.61634e-20)
(0.926516 -0.205728 2.2572e-20)
(1.0277 -0.090478 1.00684e-20)
(0.679875 -0.394763 6.5673e-19)
(0.7517 -0.606904 7.2906e-19)
(0.891268 -0.401598 -2.52843e-20)
(0.99024 -0.239538 4.74872e-20)
(1.04792 -0.102974 -3.66234e-21)
(1.26807 -0.512828 -3.74036e-19)
(1.18728 -0.631869 -2.96063e-19)
(1.11209 -0.421848 -3.90179e-20)
(1.08771 -0.25301 -5.79424e-20)
(1.07734 -0.108526 1.68581e-20)
(1.6454 -0.61092 -1.47294e-19)
(1.52219 -0.635188 -7.04041e-19)
(1.32659 -0.407739 0)
(1.19982 -0.241261 6.67658e-20)
(1.11377 -0.104361 1.09516e-20)
(2.23173 -0.604526 -4.28406e-19)
(1.85483 -0.598284 2.25392e-19)
(1.5206 -0.371362 -9.26996e-21)
(1.31039 -0.203082 5.76792e-20)
(1.15445 -0.0865907 -4.32604e-20)
(2.25411 -0.556493 4.82438e-20)
(1.68517 -0.43604 6.29148e-20)
(1.33756 -0.217151 -7.98267e-21)
(1.21004 -0.111519 -6.42414e-20)
(1.11754 -0.0511635 0)
(2.22414 -0.379265 -4.74244e-19)
(1.79453 -0.3055 1.59136e-20)
(1.43795 -0.164611 -9.0028e-20)
(1.26156 -0.091406 2.57873e-20)
(1.13166 -0.0411326 -1.19435e-20)
(2.06965 -0.289692 5.76491e-20)
(1.5923 -0.190489 8.73645e-20)
(1.2846 -0.0434862 -2.1852e-20)
(1.15075 -0.00383133 -2.11905e-34)
(1.05505 -0.00454049 9.10416e-21)
(1.25451 -0.0723394 1.37137e-19)
(0.776747 -0.0207313 1.53882e-21)
(0.653971 0.00594617 -2.59835e-21)
(0.661765 0.00515344 -5.10387e-21)
(0.65944 0.000954156 9.87898e-22)
(2.42273 0.23273 -9.71201e-19)
(2.62375 0.0327174 -1.17647e-18)
(2.41498 0.00715353 8.70106e-19)
(2.67586 -0.199348 2.83451e-20)
(2.1112 -0.082408 -2.72491e-20)
(2.20642 0.135757 7.18255e-20)
(2.41166 0.0267898 -4.07568e-20)
(2.30874 -0.0295158 -1.37249e-19)
(2.45826 -0.174239 -1.80509e-19)
(2.3431 -0.233649 -6.89825e-21)
(2.16688 0.0667229 8.11188e-20)
(2.24319 0.0237051 9.59284e-20)
(2.2624 -0.0566875 -1.26259e-19)
(2.28576 -0.119853 4.63166e-20)
(2.29969 -0.202066 1.7467e-20)
(2.1061 0.0111823 1.2319e-19)
(2.11346 -0.00982359 1.45195e-19)
(2.19177 -0.0638117 -2.03235e-20)
(2.1589 -0.0986133 -3.62011e-20)
(2.22719 -0.149011 3.11062e-20)
(1.60326 -0.023359 1.83818e-19)
(1.56713 -0.0207558 -1.3413e-20)
(1.60756 -0.0402377 2.50706e-20)
(1.52239 -0.035719 -2.41682e-20)
(1.57077 -0.0620459 1.26745e-20)
(1.63003 0.932216 1.21011e-18)
(1.58611 1.02429 -3.59523e-19)
(1.58942 1.14953 -1.38558e-18)
(1.52325 1.18458 7.78516e-19)
(0.943473 0.856528 -1.89446e-19)
(1.92313 0.849977 -6.06485e-19)
(1.8997 0.932586 -3.26362e-18)
(1.90103 1.04354 -1.27093e-18)
(1.81497 1.04967 -4.34432e-19)
(1.11055 0.734075 -7.14102e-19)
(2.18549 0.733935 8.84243e-19)
(2.17669 0.80036 2.05118e-19)
(2.17469 0.88381 -2.53226e-18)
(2.03932 0.862118 -6.94482e-19)
(1.19826 0.565918 4.85801e-19)
(2.38107 0.589394 2.58396e-18)
(2.37349 0.634708 1.85674e-18)
(2.35776 0.687024 -2.10296e-18)
(2.14025 0.640188 -1.62312e-18)
(1.16253 0.365693 -2.83019e-19)
(2.48589 0.409763 1.24114e-18)
(2.50429 0.439064 -8.65572e-19)
(2.43446 0.459392 6.34192e-19)
(2.08501 0.398086 4.91191e-19)
(0.970947 0.158399 -4.21514e-19)
(0.557765 0.490675 -4.79664e-19)
(0.471355 0.528746 -3.55788e-19)
(0.357366 0.571597 3.60125e-20)
(0.225123 0.595374 7.96286e-21)
(0.0577057 0.439841 9.9146e-20)
(0.669412 0.683943 1.92836e-19)
(0.604373 0.752309 -2.0647e-19)
(0.519055 0.827917 1.90471e-19)
(0.397715 0.873274 -9.01187e-20)
(0.174785 0.651737 1.25212e-19)
(0.817891 0.835572 7.74984e-20)
(0.742982 0.914156 5.27473e-19)
(0.683392 1.01633 1.28406e-19)
(0.598576 1.07832 -3.33764e-19)
(0.328765 0.80645 2.81519e-19)
(1.08933 0.955758 3.22491e-19)
(1.03856 1.04859 -8.85645e-19)
(0.983061 1.14803 -2.21441e-18)
(0.896533 1.20185 8.75077e-19)
(0.530573 0.893104 -1.77112e-19)
(1.23271 0.954026 -1.46819e-19)
(1.24932 1.08038 -2.25606e-19)
(1.26227 1.20347 -3.78378e-19)
(1.20413 1.24647 -4.41933e-19)
(0.740735 0.912886 -7.12787e-21)
(0.921643 0.0276345 -1.0849e-19)
(1.0756 0.0585266 -3.90313e-20)
(0.997254 0.139156 -2.21048e-21)
(0.950279 0.174649 -3.60841e-19)
(0.863395 0.301005 2.80462e-19)
(0.921392 0.0221001 7.38978e-20)
(1.07772 0.0599633 1.3525e-19)
(1.00161 0.14584 1.29367e-19)
(0.975615 0.210348 5.18855e-20)
(0.932203 0.375631 -3.68051e-20)
(0.924165 0.017773 1.01146e-19)
(1.07189 0.0580724 -4.82437e-21)
(1.03449 0.16014 -5.05215e-21)
(0.943265 0.217221 1.77322e-19)
(1.16301 0.51894 -4.77582e-19)
(0.924704 0.0136731 -1.53819e-21)
(1.07645 0.055884 -1.73805e-19)
(1.03614 0.173568 -6.8085e-20)
(1.02208 0.225813 -4.41304e-19)
(1.20397 0.539396 1.23428e-19)
(0.924348 0.00971296 -2.21311e-20)
(1.0759 0.0572208 4.6302e-20)
(1.07117 0.178398 3.32611e-20)
(1.00349 0.244165 4.82586e-19)
(1.47955 0.694579 -4.52744e-19)
(0.909036 0.0060117 -1.78614e-20)
(1.10636 0.0435947 8.96939e-20)
(1.0589 0.198478 -9.29715e-20)
(1.15907 0.180645 8.57893e-19)
(1.4021 0.643185 -4.39636e-19)
(0.907874 -0.0109023 -2.19864e-21)
(1.11679 0.0345641 -8.23125e-20)
(1.06449 0.15257 4.9743e-21)
(1.25958 0.149888 -2.77488e-19)
(1.45176 0.438124 1.71688e-20)
(0.914073 -0.0173434 -7.31099e-21)
(1.10721 0.0239726 1.29149e-35)
(1.11498 0.113182 -4.4923e-20)
(1.29895 0.0875682 9.03186e-20)
(1.45989 0.319428 1.6323e-19)
(0.924987 -0.0420917 5.15942e-21)
(1.07009 -0.0087243 -2.3567e-20)
(1.15795 0.044436 1.90201e-20)
(1.24623 0.0550908 3.5149e-20)
(1.48336 0.201919 -2.46656e-19)
(0.874618 -0.0233467 -3.53689e-20)
(0.884848 -0.0211992 -2.54142e-21)
(0.890972 0.00562101 2.87077e-20)
(0.924437 0.0081445 -1.53888e-20)
(1.17544 0.0601077 -5.61584e-20)
(1.86121 0.763222 3.67929e-19)
(1.95344 0.698967 8.87577e-19)
(2.20808 0.610899 -1.22399e-18)
(2.26459 0.507235 8.61879e-20)
(2.47637 0.32942 4.92836e-19)
(1.75454 0.526094 1.82182e-20)
(1.82026 0.436777 9.76608e-19)
(1.99776 0.42176 9.15341e-20)
(2.04093 0.298503 -9.8106e-19)
(2.24366 0.228868 -3.10377e-19)
(1.70084 0.352793 -2.08219e-19)
(1.80752 0.277563 -1.55365e-19)
(1.9149 0.278755 1.97867e-19)
(2.0128 0.180019 -3.17745e-19)
(2.11554 0.163018 2.81759e-19)
(1.69564 0.209063 3.46611e-19)
(1.79207 0.157871 -4.24062e-21)
(1.86716 0.152412 2.37252e-19)
(1.96701 0.0879809 2.08164e-19)
(2.01635 0.0757406 -1.97989e-19)
(1.38609 0.0473889 -4.18027e-20)
(1.45131 0.0272676 2.39188e-19)
(1.50362 0.0198162 1.13148e-19)
(1.55276 -0.00101224 -2.36247e-19)
(1.56506 -0.00437269 4.6425e-22)
(1.06934 -0.0193927 5.33492e-20)
(2.04669 -0.0504007 -3.65197e-19)
(2.28364 -0.0396422 1.00421e-18)
(2.26175 -0.00214571 4.35767e-19)
(2.13699 0.0312778 -3.04261e-19)
(0.653341 0.0879129 8.95304e-20)
(1.82644 0.0725903 -3.67213e-19)
(2.29127 0.071273 -4.75222e-19)
(2.38091 0.0827219 5.4035e-19)
(2.10593 0.0673083 -2.94468e-19)
(0.189209 0.0668364 -2.37447e-20)
(1.18479 0.123439 3.83082e-19)
(1.92907 0.136036 5.18202e-20)
(2.31369 0.117375 1.96101e-19)
(2.56348 0.120853 3.37991e-20)
(-0.0435235 -0.0236131 1.80503e-19)
(0.394948 0.0618399 1.8222e-19)
(1.13641 0.117273 -3.65057e-19)
(1.61575 0.134766 1.2312e-20)
(2.17633 0.146823 -1.68926e-19)
(-0.0797909 -0.0533641 1.159e-19)
(-0.0134501 -0.0345363 -1.52629e-19)
(0.356084 0.0154478 -3.9968e-20)
(0.804911 0.0183636 -1.25247e-20)
(1.09233 0.0171693 -8.54548e-20)
(-0.0445991 -0.0450702 -6.98816e-20)
(-0.0969861 -0.135848 1.04869e-19)
(-0.0244295 -0.186307 6.20684e-20)
(0.12716 -0.197351 -3.77025e-20)
(0.371636 -0.195427 -1.32618e-20)
(-0.0596622 -0.12415 2.61303e-21)
(-0.11255 -0.293127 1.17769e-20)
(-0.101302 -0.338407 1.97038e-20)
(-0.050398 -0.304815 5.69541e-20)
(0.0531347 -0.240289 2.60043e-20)
(-0.0671264 -0.139429 -6.20875e-21)
(-0.163691 -0.229434 -2.57079e-19)
(-0.21556 -0.199973 2.29107e-19)
(-0.24075 -0.153195 5.14196e-19)
(-0.230925 -0.123022 -5.04385e-20)
(-0.0248536 -0.00506195 1.62131e-20)
(-0.141395 -0.038906 7.98622e-20)
(-0.236461 -0.0540746 -1.77853e-19)
(-0.302632 -0.0526023 -1.41812e-19)
(-0.333476 -0.0494077 -1.9112e-20)
(-0.0109446 0.149094 -5.13029e-21)
(-0.115979 0.182313 1.95824e-20)
(-0.213209 0.153941 -1.07651e-20)
(-0.291191 0.119546 4.09397e-20)
(-0.333164 0.085461 6.14845e-20)
(1.412 0.266443 -2.81776e-20)
(1.3241 0.0848545 8.45098e-19)
(1.06934 0.0695462 -5.26023e-20)
(0.97148 0.0634488 -5.6093e-21)
(1.01451 0.0211223 -9.2849e-22)
(0.795385 0.165691 8.43509e-20)
(0.627608 0.146366 -4.16291e-19)
(0.733724 0.0888415 -1.50523e-19)
(0.86892 0.0252786 -4.10442e-21)
(1.00156 -0.00407928 -6.34515e-21)
(-0.0105965 0.087604 2.21375e-19)
(0.261482 0.0717892 -7.49049e-19)
(0.630638 0.011124 1.60357e-20)
(0.851306 -0.0125881 3.66435e-20)
(0.997625 -0.0144603 4.28074e-21)
(-0.341201 0.00142448 3.65499e-20)
(0.227782 -0.0656974 1.88008e-19)
(0.631032 -0.0757892 4.51746e-20)
(0.856706 -0.0688499 3.43895e-22)
(1.00041 -0.038596 2.795e-21)
(-0.39006 -0.0833928 5.2129e-20)
(0.24255 -0.226677 1.61745e-19)
(0.649431 -0.160736 -2.29716e-20)
(0.871716 -0.113267 2.53389e-22)
(1.00622 -0.0555083 2.96979e-21)
(0.66941 0.0975729 -5.0639e-20)
(0.288108 -0.0678805 0)
(0.361117 -0.0837515 -2.64997e-20)
(0.492524 -0.0547887 4.33419e-20)
(0.574825 -0.0184685 -2.19709e-21)
(1.86176 0.375576 0)
(1.75456 0.179527 0)
(1.49162 0.0160379 2.98693e-19)
(1.19466 -0.00608746 3.27017e-20)
(1.05031 -0.00082316 3.4935e-21)
(0.68152 -0.000352932 -1.1616e-19)
(0.726716 -0.00633548 1.53875e-19)
(0.929638 -0.0162307 -2.57249e-20)
(1.05122 -0.00258127 2.27984e-19)
(1.38571 0.0275646 1.56065e-19)
(1.55444 0.0184584 1.09442e-19)
(1.66443 0.0665727 1.71128e-19)
(1.90274 -0.00664142 1.04647e-21)
(2.48004 0.144642 -1.37018e-19)
(2.0865 0.00804588 -7.67961e-20)
(0.844611 -0.405511 -3.96003e-20)
(0.818548 -0.485006 -1.28271e-19)
(0.800853 -0.573891 -7.57766e-20)
(0.727247 -0.63642 4.60268e-20)
(0.43391 -0.495476 1.07985e-19)
(0.734099 -0.314095 1.17589e-19)
(0.68083 -0.372431 2.59978e-19)
(0.607959 -0.434986 -1.6156e-20)
(0.494182 -0.483911 1.12909e-19)
(0.260556 -0.380108 4.80855e-20)
(0.591311 -0.176689 -1.45836e-19)
(0.504582 -0.20854 -3.97308e-20)
(0.403709 -0.250851 1.33373e-19)
(0.290726 -0.289961 -4.03233e-21)
(0.122718 -0.232186 -9.18887e-20)
(0.511257 0.054317 -3.92909e-19)
(0.429975 0.0459793 -3.36195e-19)
(0.324404 0.026222 2.69317e-19)
(0.20172 -0.00772807 1.83399e-19)
(0.0482759 -0.0313534 1.36934e-20)
(0.500648 0.249527 -1.72111e-19)
(0.419583 0.26213 -1.68923e-19)
(0.309985 0.275777 -8.58827e-20)
(0.178895 0.285332 3.57719e-21)
(0.0231139 0.208441 9.50545e-21)
(1.89337 -0.037433 6.62041e-19)
(2.15283 -0.0980918 2.14452e-19)
(2.20667 -0.176121 -5.98663e-19)
(2.05163 -0.203989 -1.24464e-18)
(1.21892 -0.171551 1.06517e-19)
(1.87348 -0.105965 1.13586e-18)
(1.94599 -0.21005 1.52335e-18)
(1.95861 -0.324728 1.29233e-19)
(1.87368 -0.382639 2.2896e-19)
(1.18851 -0.327814 -1.50626e-19)
(1.60223 -0.254531 -2.93146e-18)
(1.65875 -0.364981 3.10796e-19)
(1.69269 -0.480187 9.25227e-19)
(1.62292 -0.549751 -3.38352e-19)
(1.04278 -0.458372 5.40571e-19)
(1.39139 -0.364546 6.79406e-19)
(1.40382 -0.453931 -1.81669e-18)
(1.3869 -0.561754 -2.05242e-18)
(1.31304 -0.641159 6.18973e-19)
(0.839183 -0.522579 4.45231e-19)
(1.13431 -0.40754 1.2266e-19)
(1.0886 -0.493274 2.12276e-19)
(1.06516 -0.602111 -3.05382e-19)
(0.998775 -0.678515 -3.7127e-19)
(0.624308 -0.535094 -3.38998e-21)
(0.937488 0.0450721 5.98966e-21)
(1.0532 0.0720375 -4.52088e-21)
(1.02743 0.0537056 -1.70004e-20)
(0.783182 0.00994745 -1.51559e-19)
(1.04648 -0.152773 -7.63606e-21)
(0.937741 0.0458717 -2.72073e-21)
(1.0511 0.0701597 5.2114e-20)
(1.04182 0.0859862 -6.80541e-20)
(0.840008 0.0430386 5.7017e-20)
(0.915348 -0.0493168 -2.01524e-20)
(0.936533 0.0409839 -5.94689e-20)
(1.04694 0.0661185 4.78008e-22)
(1.04576 0.0993934 -2.36576e-20)
(0.843605 0.0793517 -2.69389e-20)
(0.885449 0.00394159 -1.20546e-19)
(0.930594 0.0376191 8.05396e-20)
(1.05801 0.0600528 4.01477e-21)
(1.01955 0.118534 3.70528e-20)
(0.899123 0.106885 6.60397e-20)
(0.805753 0.111256 1.15163e-19)
(0.924763 0.0327215 1.98387e-20)
(1.06952 0.0592157 -3.39447e-20)
(1.00014 0.127367 4.64668e-20)
(0.936124 0.147555 9.72724e-20)
(0.795716 0.198168 -1.26336e-19)
(0.852744 0.0332372 0)
(0.765024 0.0292456 1.05821e-20)
(0.564899 0.0166241 -4.62308e-22)
(0.515307 -0.0097058 3.64118e-20)
(0.651022 -0.0385693 -1.15375e-19)
(0.931439 0.0652492 -5.86611e-20)
(1.04397 0.0813772 -1.84414e-20)
(0.917258 0.041501 -1.79202e-20)
(0.8844 0.0034907 -8.26641e-20)
(0.940442 -0.148238 -1.18854e-19)
(0.911015 -0.0443783 -2.37433e-20)
(0.983857 -0.0115618 4.24253e-19)
(1.05247 0.0489669 2.61801e-19)
(0.912059 0.0542884 3.21691e-20)
(0.700378 0.026345 0)
(1.20267 -0.277405 2.49043e-19)
(1.31207 -0.247469 1.22408e-18)
(1.48421 -0.134607 -1.35927e-18)
(1.56893 -0.0130612 -4.13984e-19)
(1.46893 0.0274571 3.12693e-19)
)
;

boundaryField
{
    left
    {
        type            fixedValue;
        value           uniform (1 0 0);
    }
    right
    {
        type            zeroGradient;
    }
    down
    {
        type            noSlip;
    }
    up
    {
        type            noSlip;
    }
    cylinder
    {
        type            noSlip;
    }
    defaultFaces
    {
        type            empty;
    }
}


// ************************************************************************* //
