/*--------------------------------*- C++ -*----------------------------------*\
  =========                 |
  \\      /  F ield         | OpenFOAM: The Open Source CFD Toolbox
   \\    /   O peration     | Website:  https://openfoam.org
    \\  /    A nd           | Version:  13
     \\/     M anipulation  |
\*---------------------------------------------------------------------------*/
FoamFile
{
    format      ascii;
    class       volScalarField;
    location    "3.3";
    object      p;
}
// * * * * * * * * * * * * * * * * * * * * * * * * * * * * * * * * * * * * * //

dimensions      [0 2 -2 0 0 0 0];

internalField   nonuniform List<scalar>
1800
(
-1.56057320403
-1.57282948717
-1.52517521704
-1.43735593731
-1.33787935987
-1.24292404484
-1.1581642527
-1.08368139469
-1.01826641673
-0.96568575484
-1.760353625
-1.77338618807
-1.71748041331
-1.61753716561
-1.50568077879
-1.39931100216
-1.30451589765
-1.22172320139
-1.15051072914
-1.09285658213
-1.95215119659
-1.96530635608
-1.90016092893
-1.78779146672
-1.66354839557
-1.54567046563
-1.44037873743
-1.34799493968
-1.2676082377
-1.19994219797
-2.13064957018
-2.14325575436
-2.06830941582
-1.94402807707
-1.80849854224
-1.6805476937
-1.56633746189
-1.46599271388
-1.37843408285
-1.30408990242
-2.28983044285
-2.30117542054
-2.21587633255
-2.08033347971
-1.93448973315
-1.79741285262
-1.67506846232
-1.56736296815
-1.47306580084
-1.39195494784
-2.42442063223
-2.43389944777
-2.33818833816
-2.19256450246
-2.03787779597
-1.89324901951
-1.76429643978
-1.65067493808
-1.55095919135
-1.46453492963
-2.52916865505
-2.5361827254
-2.43027190089
-2.27609231833
-2.11409680061
-1.96350696879
-1.82938560904
-1.71114534683
-1.60719519676
-1.51654379794
-2.59972570718
-2.60371645481
-2.48839517229
-2.32741769097
-2.15988551714
-2.00509569215
-1.86742912751
-1.74601859172
-1.63910954502
-1.54538670724
-2.63254541608
-2.63312024639
-2.50960561156
-2.34360850649
-2.17239576441
-2.0152853387
-1.87568512908
-1.75257855367
-1.64403488974
-1.54841687703
-2.62541031352
-2.62252536552
-2.49184439223
-2.32330437989
-2.14996064331
-1.99231364978
-1.85227542064
-1.7287366514
-1.6197101376
-1.52330287844
-0.139008883926
-0.129355039951
-0.11812132983
-0.104562934133
-0.0929853815898
-0.0856901187067
-0.0826873153976
-0.0832047479496
-0.0864634404187
-0.0918252229697
-0.186435894197
-0.178077039435
-0.165987976901
-0.150020320339
-0.135266232016
-0.124666875433
-0.118531661768
-0.116153343434
-0.116746192677
-0.119497031766
-0.259864389028
-0.253386006854
-0.239970905151
-0.220341675935
-0.200763967991
-0.185151519259
-0.174265370252
-0.167501825358
-0.16405522281
-0.162824012163
-0.358393689404
-0.354214652654
-0.338946942939
-0.314427268316
-0.288480392811
-0.2662881659
-0.249182617925
-0.23669308102
-0.22798690371
-0.221552583801
-0.480725105854
-0.479102739584
-0.461401040441
-0.430787444102
-0.397074435069
-0.366921388476
-0.342324819073
-0.322974267761
-0.307995860498
-0.29535255948
-0.624999364813
-0.626059623365
-0.605291515166
-0.567461803434
-0.524772438358
-0.48551117912
-0.452394668433
-0.425296327178
-0.40328575889
-0.383710193416
-0.788656952169
-0.792423626217
-0.767949583377
-0.721945966975
-0.669353112358
-0.620154653246
-0.577806499243
-0.542380772616
-0.512861737021
-0.486004705954
-0.968283663325
-0.974686756564
-0.945877828088
-0.890952431641
-0.827898352426
-0.768371813759
-0.716543376319
-0.672662115658
-0.635524520883
-0.601530743708
-1.15968436295
-1.1685045483
-1.1345411184
-1.06981663227
-0.995668545853
-0.925406152386
-0.863896196358
-0.811513091601
-0.766684896407
-0.726114791421
-1.35855120921
-1.36937299952
-1.3290929835
-1.25324562191
-1.1667319719
-1.08442371816
-1.01177980081
-0.949190527409
-0.894929878469
-0.847715338234
-0.134698612165
-0.211830291338
-0.280694556737
-0.330929211895
-0.369359670056
-0.400230325151
-0.42686238698
-0.451132006888
-0.474148322076
-0.496567043863
-0.14621299219
-0.219903323446
-0.284417861624
-0.332988943193
-0.37076174887
-0.401300813292
-0.42767926362
-0.451713048047
-0.474500550535
-0.496694993629
-0.164145360224
-0.232461186004
-0.290178158927
-0.33592042464
-0.37249819926
-0.402482580172
-0.428516145694
-0.452280482422
-0.474835994651
-0.496816749493
-0.189454879079
-0.248997431457
-0.297891668412
-0.339711179757
-0.374577508749
-0.403785254542
-0.429380002289
-0.452840228523
-0.475158187852
-0.496933021616
-0.223533253997
-0.268798203636
-0.307413471688
-0.344333923323
-0.377001729783
-0.405213633179
-0.430276891835
-0.453397773991
-0.475470687749
-0.497044586226
-0.268117931691
-0.291002537479
-0.318518394716
-0.34974426885
-0.379769233056
-0.406772678023
-0.43121232478
-0.453958011891
-0.475776562097
-0.497151436902
-0.325127013634
-0.314791439757
-0.330830411308
-0.355858751952
-0.382874481284
-0.408465544893
-0.432191068665
-0.454525835012
-0.476078674921
-0.497253794581
-0.396390089469
-0.340898698276
-0.344076045242
-0.362589182188
-0.386303409482
-0.410295400755
-0.433217445893
-0.455105563437
-0.476379716023
-0.497351325844
-0.482234045231
-0.371440319421
-0.358580595271
-0.370079348942
-0.390143471983
-0.412307389208
-0.434312089624
-0.455707480906
-0.476683868896
-0.497443731436
-0.576037323065
-0.40594807286
-0.374091513329
-0.378186065553
-0.394354631864
-0.41449683163
-0.435478374456
-0.456337944605
-0.476996472394
-0.497527616276
-0.635410112735
-0.442764579565
-0.392562494896
-0.389667319103
-0.401416545988
-0.418770140036
-0.438074034162
-0.457893559479
-0.477808950414
-0.497727147559
-0.658654357176
-0.479968408213
-0.418431804843
-0.406739609255
-0.412432537025
-0.42575716265
-0.442483808814
-0.460602476127
-0.479270991251
-0.498173469916
-0.664315104608
-0.501762059121
-0.43699188356
-0.420723939449
-0.422247385989
-0.43231258178
-0.446733808034
-0.463246547128
-0.480712684505
-0.498620277423
-0.666147202575
-0.51981378002
-0.453929227946
-0.433630837322
-0.431454821449
-0.438573487738
-0.450842773
-0.465821076567
-0.482127216603
-0.499064430284
-0.663521959571
-0.532811419388
-0.46823695865
-0.445064317429
-0.439851811465
-0.444408872435
-0.454724253555
-0.468273052143
-0.48348523643
-0.49949655852
-0.659014456592
-0.542732732565
-0.48040661656
-0.455136308126
-0.447397426471
-0.449734590538
-0.458305794454
-0.470553135718
-0.484759691499
-0.499907988997
-0.654656313305
-0.550703606413
-0.490747408857
-0.463899938995
-0.454044936224
-0.454476029842
-0.461521922235
-0.47261580226
-0.485926083375
-0.500291897993
-0.651802261738
-0.557767686476
-0.499681969867
-0.471459248914
-0.459777299795
-0.45857528941
-0.46431665168
-0.474420138648
-0.48696267306
-0.50063997565
-0.649626518214
-0.564499137409
-0.508098996834
-0.47847202054
-0.465036934003
-0.462319975622
-0.466873490265
-0.47608453679
-0.487957155491
-0.500999548471
-0.658892948393
-0.571690948541
-0.514615871306
-0.48345130739
-0.468643814179
-0.464856675038
-0.468594871715
-0.477199009398
-0.488617942841
-0.501235541503
-1.36249053801
-1.38679944897
-1.38816434214
-1.36765229318
-1.32739471702
-1.27004972853
-1.19935688096
-1.11642943689
-1.02867392826
-0.932072971073
-1.18977913352
-1.21582857291
-1.22307220287
-1.21286907303
-1.18612281256
-1.14630836299
-1.09460008125
-1.03508083395
-0.971575276235
-0.903369558559
-1.05724923038
-1.08285416836
-1.0932281919
-1.08961564166
-1.07200146231
-1.04443689867
-1.00585057549
-0.961919309822
-0.912743995071
-0.859627477265
-0.954562343752
-0.980484192404
-0.993115284639
-0.993702527356
-0.982114563282
-0.962149299831
-0.932274108675
-0.89827705102
-0.858890957082
-0.816733756588
-0.876849532513
-0.902551285338
-0.916582510236
-0.919924727352
-0.912591335316
-0.897695072337
-0.874175539588
-0.847125502296
-0.815098325374
-0.781044039734
-0.817473095432
-0.84325525378
-0.858463262732
-0.863842287281
-0.859662831622
-0.848356491099
-0.829513680837
-0.807338675278
-0.78047816
-0.751944813874
-0.773374354153
-0.799446977975
-0.815646867795
-0.822562246158
-0.820696342162
-0.811927534156
-0.796383470974
-0.777530276723
-0.75433226915
-0.729700024152
-0.742126789986
-0.768819628287
-0.786090752472
-0.79432807359
-0.794197785832
-0.787211478417
-0.773862812292
-0.757059247605
-0.736166031122
-0.71415808191
-0.725634005675
-0.752220862963
-0.770453910646
-0.780130174589
-0.781547974464
-0.775781764193
-0.763482141148
-0.746976161926
-0.726329314315
-0.703043275975
-0.712900780378
-0.743227387363
-0.764760601676
-0.778013386354
-0.783529202003
-0.781991397534
-0.774199281299
-0.761183426327
-0.743204690592
-0.72045593076
-0.0796903362712
-0.13316990467
-0.19772274934
-0.267610981533
-0.343015712956
-0.426862264333
-0.520746697766
-0.620761827517
-0.707314073007
-0.735160542982
-0.267306048767
-0.325944113812
-0.393680218529
-0.468660311525
-0.55241926273
-0.647386427352
-0.754275735126
-0.868260747404
-0.966697531459
-0.996598805875
-0.478520763493
-0.540799634188
-0.610956713686
-0.689907417499
-0.779725275244
-0.88254123911
-0.998852920314
-1.12359430958
-1.23171535339
-1.26221930051
-0.677678309968
-0.74495003778
-0.820836983434
-0.906802337327
-1.00469114104
-1.11652343675
-1.2427770253
-1.37837262531
-1.4961107411
-1.52608347784
-0.85571081963
-0.929829019752
-1.01340896375
-1.10795911904
-1.21525686204
-1.33733328219
-1.47451212198
-1.62157897314
-1.7495652746
-1.7773745952
-1.01587898002
-1.09688590283
-1.18803974846
-1.29094307913
-1.40743287963
-1.53953074342
-1.68714672788
-1.8445532451
-1.98334249641
-2.00497432594
-1.16000955884
-1.24665670919
-1.34423505913
-1.45436762
-1.57889279095
-1.71964902803
-1.87643610858
-2.04235262956
-2.18784707497
-2.20266099168
-1.2856286626
-1.37664062652
-1.47941654356
-1.59550994712
-1.72684496071
-1.87502964682
-2.03796674359
-2.20951581381
-2.35841170053
-2.3618248874
-1.38868220346
-1.4832159485
-1.59015479174
-1.71079043492
-1.84715557829
-2.0020176739
-2.17278763136
-2.34071551898
-2.48098103982
-2.48679389681
-1.46647460414
-1.56412082781
-1.67367040063
-1.79703081627
-1.93506601031
-2.09177151235
-2.26752362847
-2.43476387244
-2.57108627163
-2.57706064873
1.02856794457
1.04277928097
1.05894100638
1.0754253756
1.09082749967
1.10428050421
1.11496777733
1.1223620102
1.12753754277
1.13273629837
0.978659109643
0.990961323446
1.00469178747
1.01832683924
1.03056229095
1.04052152971
1.04736266844
1.05077627448
1.05256698694
1.05594132875
0.909204150177
0.918833420058
0.92904803155
0.938541282336
0.946205516574
0.951111189663
0.952370888905
0.94998660189
0.947002414529
0.947622707698
0.820944298819
0.827124376618
0.832843568834
0.837049140598
0.838823956253
0.837254806326
0.83137672386
0.821516640042
0.812343666366
0.80929688954
0.714655408413
0.716812563135
0.717261761806
0.715177350427
0.709968310168
0.700666934314
0.686214607371
0.667337513713
0.650278526056
0.643995781842
0.591454409673
0.58932411404
0.583989397733
0.574832847152
0.561636485139
0.543456532704
0.519180425148
0.489950146264
0.4636272837
0.453806287277
0.453434813542
0.447232562479
0.435957872612
0.419214895956
0.39725772586
0.369205519937
0.333955462735
0.293146815411
0.256502861772
0.24292051595
0.307460311059
0.296579659585
0.278029353915
0.252171113596
0.219943742324
0.180580314534
0.132977471547
0.0792789338348
0.0313559374194
0.0140149276312
0.160993407226
0.145190781543
0.118273455607
0.081718839244
0.0375279232866
-0.0148737397991
-0.0765591396469
-0.144753399203
-0.205110977417
-0.226245279377
0.030595673592
-0.00134698049959
-0.0448636096251
-0.096506740112
-0.154705321491
-0.221135305375
-0.297387081456
-0.380350219748
-0.453174125607
-0.477777320194
0.85536421461
0.974700794981
0.955363070867
0.77144714182
0.78215449839
0.792317095137
0.801107752038
0.822275135654
0.86370693439
0.967580375937
0.849557238907
0.970483730826
0.950582517597
0.765623423691
0.775857701572
0.784642891102
0.791182155071
0.809043172312
0.844362871913
0.934455674535
0.844069831153
0.966596225257
0.945682001619
0.758776551986
0.769001037019
0.776160852295
0.779696426166
0.79327783431
0.819686932635
0.889730002554
0.838892834406
0.963079109508
0.940671324324
0.750961297786
0.761651660601
0.766910400024
0.766681528343
0.774820709602
0.789117608373
0.833812928339
0.834044824799
0.959948506675
0.935497734587
0.742218713149
0.753869768776
0.756872830209
0.752136222783
0.75346732106
0.752647840831
0.766535853976
0.829623254213
0.957204345794
0.930103613169
0.732622704883
0.74576817953
0.746070880017
0.736087301208
0.729102520717
0.711195746802
0.686478660206
0.825679525638
0.954852618039
0.924432789415
0.722253115228
0.737402137996
0.734474193965
0.718479277362
0.701818735464
0.666464642726
0.59059410355
0.822297827446
0.952877526301
0.918407971146
0.711225394393
0.728867578631
0.72206362587
0.699327336513
0.671649678092
0.617748519153
0.480822542229
0.819588469494
0.951247933426
0.912005420123
0.699703584191
0.720224501626
0.708861767155
0.678762484398
0.638514195274
0.563072611725
0.353985417283
0.817855672302
0.949975729128
0.905203676888
0.687835263535
0.711446096095
0.694852298034
0.657137172334
0.603882962438
0.504570810733
0.225644678137
0.816176311088
0.947683946174
0.900752412079
0.676907518462
0.698947889753
0.67652023423
0.628748110993
0.559442344561
0.439537542703
0.104917257774
0.816327347693
0.94457014981
0.899686664719
0.668683291326
0.684083844913
0.656709726268
0.599820981663
0.517794972052
0.381208540378
0.0676875011375
0.818654383379
0.942172197146
0.898642832
0.661434902952
0.670425564915
0.638323159247
0.573621728198
0.482144192613
0.33303406833
0.0409526457479
0.823476119539
0.940706155076
0.89767021137
0.655190369922
0.658276093575
0.621793155627
0.550617698424
0.452186524242
0.294053375123
0.024974379849
0.830084461315
0.940229089379
0.89689521691
0.649971872526
0.647841481285
0.607439675693
0.53108161485
0.427495098233
0.264025292906
0.0160542619992
0.840242638418
0.940814675991
0.896340036064
0.645782942569
0.639226607762
0.595422371308
0.5151246246
0.40774839922
0.2420977022
0.011697291791
0.853577612966
0.942378966259
0.895938682721
0.64262132278
0.632510912793
0.58588718889
0.502691803778
0.392702750069
0.22702294642
0.010567117453
0.874849237088
0.945202312965
0.895786602908
0.640500594832
0.627745022151
0.578880964935
0.493752498838
0.382105012392
0.217616128794
0.0121403221704
0.88920747139
0.94594663019
0.892798912982
0.639604991624
0.625158354501
0.574580844183
0.488464081698
0.376157229261
0.213385005168
0.0177223915395
0.948410909855
0.956667685214
0.896290052234
0.63781711743
0.625190607795
0.572838476548
0.486459775672
0.373830909783
0.212859403048
0.021196599977
-0.114062717672
-0.270673390622
-0.452940396547
-0.625239262124
-0.777785119909
-0.91520216288
-1.04075277595
-1.15181000984
-1.24407516703
-1.31576712966
-0.179679282398
-0.297888811794
-0.434090835478
-0.569451548224
-0.692937076816
-0.805096485848
-0.908615605549
-1.00189055158
-1.08186682842
-1.14521604226
-0.206338896789
-0.300219052064
-0.403675688096
-0.514163090391
-0.62021976367
-0.717865605766
-0.808161191786
-0.890080505215
-0.96053562097
-1.01664506869
-0.210783189209
-0.292667348316
-0.378498262213
-0.471773055133
-0.56406969992
-0.649810794907
-0.72904784368
-0.801314073417
-0.864238999727
-0.915677900964
-0.203792654171
-0.278761924528
-0.353898002721
-0.434863435047
-0.517009063779
-0.594653121838
-0.666725440686
-0.732827625186
-0.791145837343
-0.839648970201
-0.192237230785
-0.262645981588
-0.331213253798
-0.404121892943
-0.479243698733
-0.551255187818
-0.618375975643
-0.68013167364
-0.735052358191
-0.781284231492
-0.179978602396
-0.247129778733
-0.311361530343
-0.378996169916
-0.449382297813
-0.517547807707
-0.581319150327
-0.640146491198
-0.692788799742
-0.737626293928
-0.168414690154
-0.233407337347
-0.294772080985
-0.359185564947
-0.426741855477
-0.492585099424
-0.554347266647
-0.611425700577
-0.662651805724
-0.70655848834
-0.154762704095
-0.218144519592
-0.27827256552
-0.341942213262
-0.409017519021
-0.474625605476
-0.536394555169
-0.593664460986
-0.645280221074
-0.689689664745
-0.137454874489
-0.196341348141
-0.254988568027
-0.319290346872
-0.386913546514
-0.453133867188
-0.516047900988
-0.57480037245
-0.628077481138
-0.674474539065
-3.78069017021
-3.76163698751
-3.57874993658
-3.36642235211
-3.16342807718
-2.98839213955
-2.84170702293
-2.72072520071
-2.6234347431
-2.54923657526
-3.83079491002
-3.82203915088
-3.65441080094
-3.44468247242
-3.24029673653
-3.06195149515
-2.91218754815
-2.78852279433
-2.68943603784
-2.61578866529
-3.76853064953
-3.77035291859
-3.61961831061
-3.414733006
-3.20939036087
-3.02791918799
-2.87510698475
-2.74867080452
-2.64663952384
-2.56971079477
-3.60122612642
-3.61170498044
-3.47983465729
-3.28211096082
-3.07687737716
-2.89262021088
-2.73666525571
-2.60744031464
-2.50241928245
-2.42075141334
-3.3450324859
-3.36163099706
-3.24894975898
-3.06144861965
-2.85901947615
-2.67388345686
-2.51601074879
-2.38484863869
-2.27774622037
-2.19274217125
-3.02213556431
-3.04266533816
-2.94802125523
-2.77428789326
-2.57934516656
-2.39752975982
-2.24101063982
-2.11040473094
-2.00317199042
-1.91823990835
-2.65899115161
-2.68116607806
-2.60281904809
-2.44662794594
-2.2654118219
-2.09329745381
-1.94357188655
-1.81801789329
-1.7140220306
-1.63282995523
-2.28243266729
-2.30392113901
-2.23978944038
-2.10400018502
-1.94238264526
-1.78641726925
-1.64931099457
-1.53359538966
-1.43716596474
-1.36267102117
-1.9162095963
-1.93526110601
-1.88331921938
-1.76921027392
-1.63116158672
-1.49657374792
-1.37749882124
-1.27666993947
-1.19244098911
-1.13104320496
-1.57670124576
-1.59242429691
-1.55045875426
-1.45701650483
-1.34298148542
-1.23108515178
-1.13140857151
-1.04608848128
-0.97241936031
-0.916814631919
-1.27319404213
-1.28528627537
-1.25139119058
-1.17655963115
-1.08536378106
-0.996280547352
-0.917657761389
-0.851502662387
-0.795684919495
-0.747546265922
-1.00905930073
-1.01718801478
-0.989709853273
-0.930534704295
-0.858986527557
-0.78971682708
-0.729137945228
-0.67859583209
-0.636792810272
-0.598397373632
-0.783143919097
-0.787418777205
-0.764828256671
-0.718185339963
-0.6625515344
-0.609362201546
-0.563324634535
-0.52516235555
-0.494052821283
-0.465121077132
-0.593372955942
-0.594117339805
-0.575336898568
-0.538874867892
-0.496412348984
-0.456739535785
-0.423185757675
-0.395981320382
-0.374380342143
-0.354681979128
-0.437770469158
-0.435385324153
-0.419575199618
-0.391329175904
-0.359666217732
-0.331192595958
-0.308109589073
-0.290265339883
-0.276881863056
-0.26534725565
-0.31450311939
-0.309400175835
-0.295786210488
-0.273883856222
-0.250692846363
-0.231058378724
-0.216295114989
-0.205982942407
-0.199326200821
-0.19454620172
-0.222014890912
-0.214662654068
-0.202554380719
-0.185267583149
-0.168343635926
-0.155295344065
-0.146770114433
-0.142164530773
-0.140685366099
-0.141125987528
-0.159074144888
-0.150046877925
-0.138851681814
-0.124618364818
-0.111891213043
-0.103285835518
-0.0989925358427
-0.09829253238
-0.100395348768
-0.104458333916
-0.124711932793
-0.114727811942
-0.103925214162
-0.0912923969688
-0.080804306706
-0.0745884487402
-0.0725851687259
-0.0740134454998
-0.0780885610777
-0.084170770853
-0.118265072697
-0.108011936131
-0.0972299728909
-0.0847817266381
-0.0746525270497
-0.0688451981806
-0.0672482048013
-0.0690619876346
-0.0735051071571
-0.0800012549353
-0.464567038478
-0.351029847574
-0.34382269554
-0.353340742634
-0.370879251322
-0.393215749012
-0.417752002376
-0.443120895919
-0.468841755606
-0.49471748375
-0.367521126217
-0.32034734101
-0.330555767713
-0.347690177416
-0.369613314554
-0.39377955391
-0.418882002933
-0.444202115581
-0.469577906228
-0.494967370967
-0.291768813489
-0.295837824449
-0.319795171032
-0.343721233407
-0.368704358019
-0.394374707695
-0.419948021523
-0.445206211385
-0.470257779788
-0.495199269214
-0.235928156389
-0.275417659844
-0.309817092162
-0.339678129077
-0.367910615053
-0.394963526267
-0.420944949198
-0.446135747511
-0.470885407199
-0.495414537804
-0.195098093505
-0.257272578147
-0.300673955304
-0.336195201413
-0.367331968739
-0.395568498783
-0.42188299272
-0.446997369059
-0.471464775643
-0.495614585587
-0.166223082354
-0.240807550743
-0.292794485753
-0.333374360785
-0.366987016408
-0.396199415826
-0.42277234302
-0.447798035251
-0.471999708374
-0.49580091906
-0.146735430591
-0.227035758925
-0.286480697564
-0.331269190306
-0.366889962931
-0.396870900086
-0.423623750347
-0.448544751556
-0.47249434643
-0.49597459916
-0.134693682981
-0.21593756744
-0.281977645528
-0.329935241324
-0.367064902055
-0.397595554643
-0.424448143118
-0.449244552336
-0.472952441307
-0.496136912889
-0.129051207902
-0.209925674795
-0.279484469293
-0.329417419666
-0.367523506657
-0.398389471936
-0.425256038095
-0.449904518393
-0.473378281027
-0.496288995678
-0.129048687451
-0.208495299902
-0.27904995764
-0.329742662146
-0.368284326108
-0.39926435238
-0.42605766663
-0.45053144616
-0.473775575441
-0.496432066307
-0.678233822027
-0.47899990055
-0.405053941572
-0.382470325538
-0.383517520329
-0.397195999724
-0.418156767933
-0.442310616534
-0.467913649919
-0.494283752442
-0.632865127556
-0.455694767156
-0.395475928956
-0.378648363881
-0.381741449062
-0.39682542127
-0.418167186588
-0.442435406192
-0.468047078695
-0.494345697774
-0.601591697387
-0.43637910674
-0.385957914995
-0.374112668219
-0.379709522263
-0.396117994093
-0.418063185322
-0.442546329814
-0.468199189372
-0.494422740874
-0.566931101712
-0.412871703292
-0.373829930756
-0.368116692716
-0.377026137592
-0.395052543461
-0.417790724553
-0.442579310207
-0.468307685242
-0.494480928218
-0.525171269019
-0.380773628825
-0.357272210025
-0.359793165433
-0.373350794006
-0.393662377307
-0.417378680118
-0.442552388585
-0.468386075917
-0.494526114159
-2.48057800883
-2.54983506448
-2.52303102585
-2.40649563031
-2.21389330342
-1.98337451683
-1.71706180432
-1.47533764471
-1.24341570626
-1.04237845631
-2.47786868465
-2.5444429835
-2.51074614066
-2.38718382996
-2.19022765376
-1.95869569436
-1.69673627621
-1.45614243344
-1.22548979125
-1.01206677994
-2.48008205252
-2.5451492237
-2.50616366753
-2.37486812945
-2.17044625265
-1.92671991576
-1.65693706308
-1.40171467494
-1.17221238476
-0.979490853358
-2.49064081173
-2.55661576913
-2.51359176982
-2.37270892938
-2.15613094916
-1.89586050766
-1.61890177205
-1.35643317971
-1.1334811938
-0.94942369095
-2.51016750535
-2.5773068689
-2.53009286538
-2.37972153637
-2.15100158245
-1.87745508296
-1.59419426441
-1.32806784825
-1.10300082832
-0.908363420317
0.458314374822
0.437296211813
0.4065409175
0.368961360179
0.326492778863
0.277664793113
0.220343137146
0.156620162563
0.100371317798
0.0793240880488
0.57955911846
0.57514882981
0.561721160672
0.540307599142
0.51295807542
0.479215686074
0.437780154846
0.390546017289
0.348863120051
0.33381965691
0.701841647869
0.70191693294
0.696297644099
0.685327944603
0.669877581906
0.649199919942
0.622111087804
0.589893376252
0.56149856403
0.55177836755
0.811098939255
0.815393991184
0.816614167158
0.814371918725
0.808690490911
0.798730729193
0.783384415282
0.763493441121
0.745999105634
0.740534834317
0.903021988872
0.910817459267
0.917231685849
0.921650437131
0.923585174577
0.922149419526
0.916265870293
0.906409251199
0.897757063832
0.895749991721
0.974685339227
0.985660276752
0.996570191958
1.00649503002
1.01462600606
1.02000888114
1.02171101135
1.01981109265
1.01771069937
1.01914406798
1.02598500213
1.03937770128
1.05373389517
1.0678230999
1.08056837252
1.09105157053
1.09840528129
1.10238065296
1.10498904181
1.10927434878
1.057130747
1.07205027696
1.08866333879
1.10550858929
1.12129160187
1.13513312198
1.14620431079
1.15401263616
1.1597309981
1.16557480402
1.06808493413
1.08360441914
1.10123244777
1.11935842267
1.1365721308
1.15200547329
1.16484510348
1.17448449615
1.18164971521
1.18808006081
1.05835626985
1.07369763093
1.09116500467
1.10914739638
1.12623912713
1.14154920175
1.15426772934
1.1637713589
1.17078759627
1.1770054099
-2.37821872041
-2.45513126106
-2.55160802333
-2.66953018719
-2.81226875607
-2.98309955647
-3.18452395453
-3.39446651367
-3.593269312
-3.62019508471
-2.12274080854
-2.20060553637
-2.29584097563
-2.41034974866
-2.54811223115
-2.71235571708
-2.90286113241
-3.11528347138
-3.33640918757
-3.35895469236
-1.80577736447
-1.88190712715
-1.9749638385
-2.08615029124
-2.21890276181
-2.37656449588
-2.56138747578
-2.77163443861
-2.97084212503
-3.01909420566
-1.44725465282
-1.52288235862
-1.61441910181
-1.72251863044
-1.8500287872
-2.00034599914
-2.17593881086
-2.37329670241
-2.55622643822
-2.61735392544
-1.07686600405
-1.15379145898
-1.24393696068
-1.34784219898
-1.46820612892
-1.60846619214
-1.77114728112
-1.95209441199
-2.11872041416
-2.181307285
-0.729462093989
-0.804324428752
-0.889593794
-0.98574396379
-1.09546006787
-1.22218668385
-1.3683988788
-1.53000181163
-1.67791513754
-1.73608067939
-0.420544930529
-0.487798118104
-0.563435419186
-0.647823073402
-0.743680466143
-0.854360974729
-0.982089887061
-1.12287234442
-1.25080584639
-1.30181957121
-0.139698894195
-0.196937147111
-0.261641661833
-0.333514101278
-0.415415221731
-0.51065824856
-0.621041286736
-0.742452320713
-0.851629929809
-0.894916792719
0.126518912365
0.0782226108114
0.0201448766683
-0.0440134403598
-0.116065511741
-0.199327860723
-0.295309672702
-0.399902357052
-0.492433506455
-0.528424135968
0.352116758942
0.310676665268
0.255965114046
0.19665600614
0.133390178937
0.0629999785312
-0.0167037245145
-0.102657504181
-0.177709073063
-0.206291588239
0.947329199273
1.02584780937
0.979358792296
0.7699260207
0.819413909466
0.825527526612
0.819951499775
0.818323725649
0.781545270219
0.627114720985
0.933300269601
1.02123407288
0.980982039929
0.774283012114
0.816736086202
0.825777999767
0.823204089671
0.829010041796
0.810899621139
0.714468293233
0.920816189797
1.01617578022
0.981350468509
0.778071863197
0.813998531958
0.825240854795
0.826549104232
0.838678007616
0.836780859223
0.801939078932
0.909745951124
1.01082059795
0.980521087293
0.781071743549
0.811187004786
0.823898709047
0.828313372575
0.845766390268
0.856615751143
0.869253234324
0.899827311682
1.00533260356
0.978666254315
0.783096650977
0.808234107914
0.821737299339
0.828713646355
0.85036343112
0.871991851776
0.921239394291
0.890873545159
0.999819387417
0.975981627228
0.784031774333
0.805039478973
0.818783078106
0.827734815183
0.852208586944
0.884046223178
0.957892876817
0.882684254625
0.994394634051
0.972617692663
0.783827274376
0.801494965717
0.815065035599
0.825380570173
0.85121922573
0.890653693986
0.98266979328
0.875154083176
0.989130685883
0.968740661705
0.782436614704
0.797484331857
0.810575342637
0.821579644648
0.8476158019
0.891595353321
0.996309720321
0.868119802415
0.984061411887
0.964506640805
0.77989906023
0.792960128604
0.805290777537
0.81628185096
0.841541524693
0.887312218844
0.998516955112
0.861541302837
0.979242126612
0.960021733932
0.776221831709
0.787853892189
0.799213058707
0.809472643115
0.83310216042
0.877987253674
0.988922791328
1.08292352212
1.04230046034
0.982833242898
0.766720282495
0.821005918915
0.818591038021
0.799696153883
0.775156940268
0.682838225112
0.496143200585
1.02319242292
1.03491345763
0.9818797111
0.768541696583
0.820282555621
0.819805880456
0.801305797018
0.77815336274
0.689123153004
0.498756617123
1.00432877062
1.03497400199
0.983872249271
0.768333567537
0.820573184653
0.821142360155
0.804346116071
0.784062962477
0.703449114115
0.503661383542
0.982220519648
1.03270646999
0.982167162188
0.768025586053
0.820804174666
0.822593508075
0.808497079998
0.792559986629
0.723209882308
0.520181563518
0.963292314104
1.029637817
0.97955482373
0.767664816893
0.820862361101
0.82408901036
0.813390386768
0.803347982086
0.747554525368
0.540597916401
0.146465628078
0.0052180745816
-0.192447451778
-0.467459199909
-0.802236918356
-1.15666825119
-1.49561118161
-1.80533297468
-2.08693868901
-2.3206775329
0.138671731036
-0.000517976951902
-0.188064576536
-0.45006760215
-0.772339794746
-1.12330638256
-1.46946297027
-1.79075860056
-2.07953234029
-2.31737425894
0.165726415525
0.016608125697
-0.175945923701
-0.431568545779
-0.742441501584
-1.09074870038
-1.44708285077
-1.78044790629
-2.07606759258
-2.31777899653
0.225236194253
0.0526262660435
-0.159268524651
-0.415278867835
-0.717971790796
-1.06408664758
-1.42855571553
-1.77358597829
-2.07719799216
-2.32413427564
0.31118077751
0.109275387519
-0.133099979957
-0.399727215725
-0.701710834247
-1.04710104984
-1.41641588399
-1.77104720913
-2.08396090042
-2.33831705786
)
;

boundaryField
{
    left
    {
        type            zeroGradient;
    }
    right
    {
        type            fixedValue;
        value           uniform 0;
    }
    down
    {
        type            zeroGradient;
    }
    up
    {
        type            zeroGradient;
    }
    cylinder
    {
        type            zeroGradient;
    }
    defaultFaces
    {
        type            empty;
    }
}


// ************************************************************************* //
