/*--------------------------------*- C++ -*----------------------------------*\
  =========                 |
  \\      /  F ield         | OpenFOAM: The Open Source CFD Toolbox
   \\    /   O peration     | Website:  https://openfoam.org
    \\  /    A nd           | Version:  13
     \\/     M anipulation  |
\*---------------------------------------------------------------------------*/
FoamFile
{
    format      ascii;
    class       volScalarField;
    location    "0.455";
    object      p;
}
// * * * * * * * * * * * * * * * * * * * * * * * * * * * * * * * * * * * * * //

dimensions      [0 2 -2 0 0 0 0];

internalField   nonuniform List<scalar> 
1800
(
5.75716
7.86431
10.0172
11.4457
12.2802
12.691
12.8224
12.6656
11.4203
7.32942
9.60847
12.0842
14.5892
16.2733
17.3301
17.993
18.448
18.6876
17.9638
15.287
16.0022
18.627
21.2998
23.1632
24.4235
25.3055
25.9565
26.3402
25.8694
24.0391
24.9984
27.5679
30.2164
32.131
33.4964
34.5056
35.2682
35.7204
35.3146
33.6304
36.0579
38.4188
40.8711
42.6827
44.0072
45.0035
45.7582
46.2077
45.8577
44.3025
48.7354
50.788
52.9317
54.538
55.7291
56.6314
57.3138
57.7245
57.4434
56.0843
62.6843
64.3572
66.113
67.445
68.4471
69.2168
69.8083
70.1853
70.0103
68.9217
77.6106
78.8522
80.1634
81.1727
81.9487
82.5626
83.0568
83.4117
83.3783
82.642
93.2292
94.0089
94.8405
95.4954
96.0183
96.4558
96.8386
97.162
97.2722
96.9378
109.259
109.563
109.895
110.17
110.407
110.628
110.845
111.059
111.22
111.248
-0.575034
-0.826311
-0.605047
-0.191887
0.278418
0.743928
1.10301
1.31457
1.45927
1.60473
-0.475792
-0.986673
-1.0916
-0.882984
-0.459293
-0.0346587
0.260319
0.503429
0.7819
1.05387
0.504877
-0.456055
-1.27726
-1.43894
-1.11261
-0.804025
-0.586153
-0.279726
0.126423
0.511597
0.891848
-0.243895
-1.43049
-1.76617
-1.54653
-1.3884
-1.25758
-0.950014
-0.492845
0.0151388
0.462752
-0.50108
-1.4335
-1.72273
-1.66479
-1.6706
-1.6285
-1.36385
-0.871406
-0.176622
-0.233614
-0.748126
-1.14441
-1.27247
-1.29178
-1.35349
-1.34178
-1.13044
-0.603961
0.329464
-0.561198
-0.52237
-0.343991
-0.19698
-0.111368
-0.0887872
-0.0477409
0.124715
0.704692
1.93599
-0.0715917
0.515131
1.23686
1.74186
2.07204
2.2864
2.43753
2.65624
3.38882
5.05225
1.38
2.48809
3.73681
4.65858
5.32891
5.82183
6.16284
6.50343
7.49176
9.78039
3.62476
5.2677
7.08598
8.46203
9.4849
10.2454
10.7683
11.2223
12.2846
14.4489
2.31924
2.45761
2.35307
2.11314
1.61737
1.21045
0.87153
0.605024
0.375792
0.14079
1.96553
2.4304
2.24426
2.02416
1.52985
1.13187
0.825782
0.586077
0.368704
0.138351
1.48555
2.39929
2.13995
1.92693
1.44854
1.0619
0.784392
0.567002
0.358672
0.133386
0.860897
2.31734
2.03926
1.81792
1.36768
0.997226
0.746251
0.54885
0.349251
0.128875
0.168298
2.14335
1.93023
1.69541
1.2834
0.936414
0.710443
0.532441
0.341836
0.125983
-0.402545
1.86664
1.79446
1.55735
1.19274
0.878749
0.677462
0.518247
0.336624
0.124912
-0.550454
1.52015
1.6177
1.40027
1.09313
0.823103
0.648068
0.506435
0.333716
0.125742
0.179144
1.19237
1.39039
1.21452
0.980064
0.767149
0.622479
0.497202
0.333412
0.128366
2.43592
1.05704
1.09173
0.97503
0.843821
0.706956
0.600027
0.490906
0.335359
0.132179
6.6712
1.42692
0.736183
0.660969
0.674544
0.638852
0.579381
0.486763
0.335011
0.130978
10.0023
2.60229
0.717412
0.423142
0.497117
0.557442
0.553407
0.47491
0.32275
0.120033
11.7887
2.59579
0.286783
0.0728804
0.361498
0.512627
0.523965
0.439575
0.292109
0.102303
12.8822
2.79209
0.402345
0.151609
0.462589
0.567548
0.520203
0.407261
0.26097
0.0808231
14.1974
4.37232
1.28198
0.723179
0.785553
0.717466
0.554489
0.387058
0.229729
0.0576983
16.3736
7.11904
2.70988
1.59737
1.24872
0.941857
0.628939
0.384623
0.203677
0.0353637
19.2673
9.89152
4.35301
2.57445
1.79073
1.21825
0.739848
0.402634
0.186895
0.0168182
21.7741
11.9571
5.87587
3.54132
2.36512
1.52271
0.875342
0.439784
0.18206
0.00461379
23.0537
13.1407
7.07392
4.444
2.94306
1.83909
1.02558
0.493206
0.190151
0.00047089
22.9934
13.5194
7.93409
5.29171
3.53371
2.17516
1.19535
0.56632
0.214899
0.00631013
22.4404
13.744
8.70489
6.15211
4.15887
2.55174
1.40557
0.675022
0.272454
0.0270144
111.804
97.8578
84.093
71.0877
59.1484
48.3682
38.7869
30.1102
20.0988
4.99303
112.784
99.4956
85.9946
72.9882
60.9453
50.0647
40.5321
32.2746
23.6101
11.4962
113.315
100.23
87.3492
75.0227
63.4838
52.8919
43.4623
35.2741
27.4883
18.3542
114.528
102.787
90.8281
78.9967
67.6395
57.0437
47.4101
38.8095
31.1026
23.8394
115.105
104.094
93.1729
82.4818
72.1346
62.2099
52.7469
43.8356
36.0165
29.8367
115.454
104.727
94.2205
84.0588
74.3382
65.1089
56.3497
48.1082
41.0664
36.049
115.686
105.127
94.8153
84.8831
75.4404
66.5601
58.2514
50.5841
44.2303
40.1112
115.786
105.265
94.9984
85.127
75.7729
67.0271
58.9234
51.5302
45.4136
41.4543
115.736
105.05
94.624
84.6049
75.1258
66.2933
58.1633
50.7941
44.5704
40.1178
115.612
104.666
93.9781
83.7006
73.9752
64.9251
56.6305
49.1359
42.6271
37.4324
234.146
229.785
228.22
227.78
227.69
227.942
228.676
230.058
232.21
234.349
225.582
222.565
221.518
221.479
221.706
222.191
223.122
224.73
227.202
229.678
216.067
213.894
213.123
213.248
213.68
214.383
215.509
217.279
219.893
222.491
205.761
203.734
203.031
203.227
203.772
204.601
205.825
207.634
210.203
212.722
194.437
192.528
191.874
192.062
192.594
193.406
194.583
196.277
198.632
200.923
182.07
180.345
179.752
179.894
180.347
181.059
182.094
183.572
185.602
187.567
168.723
167.261
166.768
166.87
167.227
167.799
168.638
169.832
171.459
173.03
154.589
153.473
153.118
153.195
153.451
153.864
154.471
155.333
156.504
157.632
139.98
139.266
139.059
139.108
139.254
139.488
139.839
140.341
141.022
141.679
125.455
125.111
124.97
124.923
124.911
124.933
124.999
125.119
125.296
125.472
246.541
246.777
247.025
247.242
247.541
248.038
248.586
248.921
248.931
248.424
246.629
246.959
247.358
247.661
247.86
248.193
248.613
248.529
247.723
246.709
246.654
247.049
247.492
247.802
247.885
248.015
248.295
247.934
246.55
245.295
246.543
247.044
247.474
247.705
247.64
247.528
247.566
247.143
245.846
244.685
246.055
246.71
247.1
247.208
247.034
246.76
246.587
246.229
245.418
244.624
244.847
245.691
246.031
245.999
245.772
245.492
245.299
245.129
244.889
244.6
242.5
243.599
243.94
243.829
243.623
243.462
243.43
243.563
243.87
244.109
238.615
240.103
240.576
240.513
240.433
240.486
240.726
241.222
242.035
242.774
233.141
235.197
235.909
235.979
236.107
236.455
237.044
237.949
239.254
240.467
227.785
229.653
230.4
230.569
230.878
231.495
232.438
233.789
235.637
237.345
246.975
246.745
246.713
246.508
246.425
246.281
245.91
245.659
245.564
245.71
246.937
246.744
246.708
246.51
246.424
246.287
245.926
245.653
245.386
245.744
246.91
246.74
246.699
246.505
246.416
246.292
245.938
245.612
245.164
245.841
246.891
246.732
246.687
246.493
246.403
246.293
245.939
245.533
244.956
246.036
246.878
246.722
246.671
246.475
246.386
246.287
245.924
245.432
244.826
246.276
246.871
246.71
246.654
246.454
246.365
246.269
245.894
245.341
244.799
246.382
246.869
246.697
246.635
246.429
246.339
246.239
245.86
245.287
244.841
246.045
246.872
246.681
246.615
246.402
246.31
246.203
245.841
245.284
244.858
244.805
246.881
246.661
246.592
246.373
246.279
246.176
245.867
245.353
244.675
242.027
246.897
246.64
246.565
246.341
246.251
246.177
245.964
245.472
243.993
237.31
246.934
246.616
246.526
246.291
246.193
246.11
245.882
245.132
242.45
233.752
247.05
246.6
246.493
246.249
246.144
246.161
246.091
245.34
242.186
231.806
247.295
246.609
246.463
246.179
246.067
246.132
246.104
245.263
241.905
230.549
247.755
246.667
246.439
246.101
245.926
245.862
245.659
244.571
240.513
229.339
248.599
246.737
246.462
246.005
245.712
245.345
244.773
243.256
238.039
227.485
250.426
246.806
246.564
245.929
245.423
244.677
243.672
241.583
235.392
224.933
254.304
247.113
246.713
245.865
245.072
243.962
242.566
239.962
233.32
222.598
262.608
248.25
246.983
245.816
244.702
243.274
241.562
238.668
232.078
221.339
280.169
250.985
247.628
245.845
244.351
242.624
240.654
237.736
231.634
221.369
306.14
255.032
249.131
246.053
244.062
242.005
239.771
236.921
231.363
221.896
236.436
221.085
210.462
201.148
190.988
179.684
167.289
153.917
139.871
125.741
230.044
217.748
208.597
199.877
189.94
178.703
166.357
153.106
139.382
125.908
223.512
214.147
205.969
197.443
187.729
176.888
165.135
152.635
139.617
126.439
218.404
210.896
202.904
194.054
184.21
173.444
161.951
150.007
137.944
126.109
213.008
206.612
198.618
189.522
179.852
169.714
159.163
148.296
137.24
126.148
207.403
202.106
194.846
186.375
177.377
167.922
158.003
147.681
137.061
126.273
203.605
199.165
192.576
184.68
176.148
167.062
157.441
147.367
136.956
126.346
202.322
198.065
191.72
184.108
175.796
166.86
157.341
147.338
136.979
126.411
203.649
198.935
192.486
184.902
176.57
167.555
157.918
147.772
137.257
126.525
206.323
200.889
194.153
186.443
177.947
168.716
158.834
148.43
137.654
126.662
112.2
112.37
112.454
112.306
111.799
111.438
111.253
111.538
111.53
111.281
89.627
90.0903
90.3089
89.8753
88.4434
87.357
86.7362
87.3978
87.4354
86.8489
68.7857
69.4133
69.6745
69.0077
67.0685
65.3568
64.3367
64.8854
65.1898
64.6347
50.6695
51.2758
51.4653
50.6422
48.6632
46.4973
45.1674
45.2028
45.9412
45.7078
36.0257
36.4339
36.4841
35.6027
33.811
31.4952
29.8515
29.2863
30.0939
30.2816
24.9746
25.0779
24.9557
24.0325
22.4551
20.4259
18.6351
17.6936
17.9487
18.4487
17.089
16.9384
16.7235
15.7326
14.3183
12.8151
11.3277
10.2627
9.92304
10.2896
11.6027
11.4255
11.3769
10.3776
9.059
8.05722
7.16543
6.32241
5.73404
5.65041
7.92926
7.84077
8.13652
7.26893
6.10325
5.5127
5.18345
4.79846
4.3145
3.93503
6.06123
5.85604
6.24115
5.50369
4.63461
4.35824
4.38164
4.3718
4.21908
3.82333
5.29536
5.05827
5.14011
4.44608
3.9138
3.85695
4.00593
4.14814
4.26905
4.32573
4.86995
4.76056
4.4826
3.8162
3.5297
3.61596
3.81823
3.98533
4.10492
4.19117
4.49328
4.44826
4.01607
3.46497
3.34375
3.50523
3.72898
3.90723
4.02503
4.08538
4.04081
3.98574
3.57934
3.22698
3.23544
3.43717
3.64911
3.80592
3.90428
3.94559
3.49552
3.40222
3.12806
3.00685
3.12214
3.33772
3.52705
3.66418
3.74524
3.76896
2.84799
2.753
2.69155
2.77977
2.97514
3.17879
3.34409
3.46321
3.52996
3.54333
2.12742
2.14222
2.2746
2.50724
2.74179
2.93966
3.09456
3.20795
3.27387
3.28914
1.45501
1.57195
1.82132
2.11258
2.36723
2.58073
2.75575
2.89353
2.98041
3.00834
0.781176
0.916991
1.19029
1.51634
1.82339
2.09265
2.32791
2.51141
2.61603
2.6538
0.110488
0.0276641
0.260493
0.668134
1.08466
1.46294
1.78441
1.99897
2.10276
2.16576
3.68076
3.72344
3.59264
3.26621
2.61895
1.93535
1.34614
0.873082
0.470419
0.121902
3.75363
3.69785
3.54239
3.25026
2.57949
1.87846
1.29282
0.835879
0.451793
0.122538
3.78055
3.59289
3.43133
3.19647
2.53538
1.82435
1.24167
0.800764
0.435545
0.124253
3.74242
3.41818
3.27971
3.09473
2.47801
1.77133
1.1927
0.767822
0.421596
0.126403
3.63607
3.21173
3.11305
2.94256
2.39565
1.71507
1.1453
0.737017
0.409803
0.12891
3.47431
3.01543
2.95428
2.76042
2.28227
1.65198
1.09944
0.708694
0.400102
0.131652
3.28212
2.84891
2.81215
2.58012
2.14111
1.57886
1.05486
0.683182
0.392358
0.134404
3.07519
2.71151
2.68654
2.42513
1.9876
1.49365
1.0108
0.66058
0.386343
0.136862
2.85124
2.59808
2.57225
2.30139
1.84259
1.39815
0.965995
0.640618
0.381833
0.138794
2.60259
2.51131
2.4626
2.20161
1.71913
1.30044
0.919421
0.622743
0.378633
0.139997
5.44162
3.99596
3.29895
2.91955
2.44132
1.92474
1.42298
0.959227
0.532701
0.141512
4.63791
3.77517
3.33454
2.98011
2.48157
1.93361
1.41189
0.942979
0.51723
0.134124
3.96813
3.68296
3.39474
3.04898
2.52047
1.94127
1.40139
0.928628
0.505383
0.128594
3.64833
3.68316
3.47956
3.12872
2.56122
1.9484
1.39076
0.91508
0.49546
0.124955
3.63357
3.72598
3.58079
3.22056
2.60664
1.95546
1.37863
0.900584
0.486021
0.123089
112.031
88.9653
67.9156
50.1453
36.1316
25.8122
18.6427
13.7676
10.5858
8.77185
111.81
88.403
67.2094
49.4109
35.3294
24.8079
17.3389
12.234
9.09149
7.59153
111.624
87.9227
66.5712
48.6704
34.4182
23.6352
15.9186
10.6993
7.55502
6.0973
111.413
87.349
65.7309
47.6056
33.0936
22.0412
14.1472
8.91499
5.82999
4.45459
111.159
86.6209
64.6016
46.1325
31.2935
19.9737
11.9789
6.94306
4.46021
3.64444
243.768
243.806
243.925
244.097
244.31
244.319
243.816
243.114
243.217
242.993
243.981
244.053
244.166
244.355
244.626
244.801
244.583
243.934
243.675
243.567
244.178
244.226
244.339
244.535
244.82
245.081
245.055
244.549
244.119
244.068
244.42
244.452
244.55
244.723
244.98
245.268
245.373
245.104
244.717
244.648
244.692
244.71
244.791
244.939
245.153
245.417
245.62
245.622
245.457
245.365
244.98
244.993
245.061
245.183
245.356
245.585
245.855
246.095
246.2
246.188
245.249
245.268
245.349
245.484
245.66
245.89
246.19
246.548
246.849
246.97
245.53
245.548
245.645
245.836
246.089
246.388
246.747
247.157
247.518
247.697
245.906
245.936
246.015
246.238
246.606
247.055
247.557
248.072
248.412
248.374
246.299
246.408
246.509
246.701
247.1
247.665
248.262
248.808
249.157
248.952
136.511
136.252
136.23
136.492
136.274
135.876
135.335
135.164
135.235
135.4
160.96
160.364
160.385
161.023
160.37
159.247
157.784
157.327
157.533
157.991
183.203
182.637
182.924
183.447
182.397
180.651
178.683
177.994
178.243
178.865
202.168
201.922
202.641
202.651
201.293
199.096
197.089
196.245
196.423
197.025
217.638
217.813
218.597
218.009
216.341
213.997
212.176
211.273
211.312
211.717
229.518
229.999
230.229
229.269
227.462
225.405
223.796
222.849
222.716
222.817
237.716
238.052
237.689
236.615
235.123
233.595
232.145
231.128
230.903
230.751
242.37
242.25
241.64
240.806
239.928
238.911
237.558
236.532
236.472
236.294
244.094
243.674
243.181
242.823
242.526
241.941
240.752
239.856
240.141
240.056
244.233
243.806
243.653
243.674
243.747
243.505
242.632
241.871
242.255
242.065
254.861
246.895
247.519
246.309
246.059
245.552
245.008
244.64
244.507
244.543
252.028
246.832
247.333
246.29
246.111
245.615
245.024
244.674
244.585
244.515
250.107
246.839
247.111
246.288
246.167
245.681
245.068
244.769
244.754
244.548
248.923
246.867
246.901
246.309
246.224
245.754
245.15
244.924
244.982
244.653
248.239
246.869
246.765
246.349
246.28
245.835
245.279
245.114
245.22
244.821
247.79
246.826
246.73
246.398
246.331
245.927
245.445
245.297
245.423
245.024
247.477
246.772
246.728
246.438
246.374
246.028
245.616
245.445
245.571
245.228
247.263
246.744
246.721
246.468
246.401
246.128
245.754
245.547
245.665
245.416
247.124
246.739
246.716
246.489
246.413
246.211
245.842
245.609
245.7
245.571
247.034
246.742
246.714
246.5
246.421
246.262
245.887
245.644
245.67
245.669
317.365
253.778
249.928
246.985
246.163
245.596
245.266
244.939
244.242
242.723
295.633
251.389
248.807
246.755
246.081
245.567
245.221
244.908
244.454
243.524
277.192
249.233
248.211
246.583
246.04
245.548
245.17
244.85
244.536
244.197
265.789
247.888
247.887
246.455
246.022
245.536
245.112
244.767
244.526
244.525
259.017
247.158
247.664
246.348
246.019
245.527
245.043
244.664
244.48
244.558
239.301
237.451
234.236
229.329
222.127
211.775
197.725
179.922
158.847
135.767
240.483
238.948
235.773
230.638
223.136
212.58
198.462
180.63
159.41
135.989
241.996
240.499
237.318
232.065
224.315
213.496
199.206
181.27
159.891
136.175
243.659
242.253
239.125
233.851
225.917
214.825
200.273
182.111
160.465
136.385
244.447
243.61
241.108
236.038
227.996
216.63
201.748
183.241
161.193
136.638
)
;

boundaryField
{
    left
    {
        type            zeroGradient;
    }
    right
    {
        type            fixedValue;
        value           uniform 0;
    }
    down
    {
        type            zeroGradient;
    }
    up
    {
        type            zeroGradient;
    }
    cylinder
    {
        type            zeroGradient;
    }
    defaultFaces
    {
        type            empty;
    }
}


// ************************************************************************* //
