/*--------------------------------*- C++ -*----------------------------------*\
  =========                 |
  \\      /  F ield         | OpenFOAM: The Open Source CFD Toolbox
   \\    /   O peration     | Website:  https://openfoam.org
    \\  /    A nd           | Version:  13
     \\/     M anipulation  |
\*---------------------------------------------------------------------------*/
FoamFile
{
    format      ascii;
    class       volScalarField;
    location    "6.46";
    object      p;
}
// * * * * * * * * * * * * * * * * * * * * * * * * * * * * * * * * * * * * * //

dimensions      [0 2 -2 0 0 0 0];

internalField   nonuniform List<scalar> 
440
(
-0.667956
-0.651695
-0.678732
-0.653598
-0.781091
-0.677938
-0.660043
-0.643949
-0.628212
-0.629597
-0.767913
-0.737384
-0.703893
-0.667195
-0.627881
-0.881638
-0.833029
-0.757378
-0.667593
-0.577085
-0.969787
-0.907203
-0.771565
-0.630729
-0.502006
-0.760603
-0.760524
-0.769842
-0.788374
-0.807986
-0.648491
-0.653203
-0.665592
-0.683638
-0.700459
-0.581135
-0.586127
-0.596894
-0.610589
-0.620342
-0.591396
-0.596967
-0.608208
-0.622618
-0.632637
-0.619939
-0.627756
-0.646267
-0.650622
-0.706123
-0.889685
-0.718189
-0.770114
-0.523326
-0.112526
-0.80116
-0.547636
-0.809358
-0.682498
-0.0894599
-0.644782
-0.338262
-0.769386
-0.806418
-0.0800739
-0.496418
-0.131228
-0.705448
-0.849264
-0.0856987
-0.476564
0.0222986
-0.641183
-0.814952
-0.097856
-0.304491
0.12909
-0.557761
-0.703126
-0.114029
-0.102183
0.0580142
-0.31787
-0.462496
-0.133899
-0.130635
0.155222
-0.0894958
-0.257555
-0.136904
-0.056152
0.247636
0.0368469
-0.180831
-0.133749
-0.000917562
0.311389
0.211991
-0.0889735
-0.137047
-0.280422
-0.402281
-0.592562
-0.775769
-0.907742
-0.0404238
-0.164194
-0.248889
-0.289176
-0.292284
0.12712
0.0164779
-0.0541608
-0.108292
-0.141137
0.223217
0.115746
0.0359115
-0.0223574
-0.0558377
0.264883
0.157457
0.0766669
0.0221003
-0.00215545
1.06766
0.926542
0.746532
0.542629
0.314173
0.653353
0.500427
0.31235
0.0974266
-0.147315
0.246384
0.0905665
-0.106947
-0.331955
-0.550631
-0.107907
-0.267154
-0.461487
-0.672715
-0.836484
-0.343618
-0.498921
-0.677505
-0.864052
-0.966666
2.23005
2.26199
2.29172
2.3079
2.30681
2.04215
2.0644
2.0823
2.08368
2.06424
1.8148
1.80746
1.77885
1.72805
1.65121
1.56311
1.53094
1.46512
1.36886
1.24295
1.32147
1.22576
1.09913
0.948844
0.765063
1.9762
1.96559
1.95634
2.01434
2.10808
1.96615
1.95297
1.93774
1.98965
2.01988
1.95713
1.93702
1.91641
1.953
1.90848
1.94945
1.91835
1.89264
1.90576
1.7463
1.94304
1.89886
1.86747
1.8513
1.57457
1.93825
1.86815
1.8344
1.74995
1.37372
1.93713
1.83585
1.81902
1.6421
1.4326
1.94341
1.8187
1.80958
1.56905
1.39789
1.93791
1.79521
1.80484
1.51122
1.34525
1.97537
1.78607
1.80287
1.48754
1.33287
1.03135
0.730384
0.386552
0.0920011
-0.108129
0.936803
0.719358
0.483561
0.27807
0.104488
0.915056
0.742764
0.568085
0.408961
0.255865
0.947302
0.795067
0.640897
0.492446
0.350364
0.9805
0.833883
0.684785
0.535679
0.393352
-1.29282
-1.14418
-0.973726
-0.834476
-0.75294
-1.33902
-1.27502
-1.14762
-1.04365
-0.98223
-1.24164
-1.19286
-1.11978
-1.05995
-1.02335
-1.07184
-1.02996
-0.986772
-0.953555
-0.933381
-0.932827
-0.910331
-0.882092
-0.863344
-0.884495
-0.853353
-0.84093
-0.809531
-0.80166
-0.783837
-0.849577
-0.83441
-0.810044
-0.795287
-0.797549
-0.88187
-0.867477
-0.850686
-0.840408
-0.845882
-0.899705
-0.890626
-0.885797
-0.89229
-0.906954
-0.861799
-0.857813
-0.861787
-0.877896
-0.902151
-0.89536
-0.744372
-0.316389
-0.239021
-0.0116633
-0.888516
-0.706273
-0.322375
-0.253278
-0.0302679
-0.857604
-0.724603
-0.387277
-0.295869
-0.075831
-0.910533
-0.784798
-0.516476
-0.349459
-0.11764
-0.920799
-0.796096
-0.659757
-0.409996
-0.130405
-0.404155
-0.85879
-0.437539
-0.270279
-0.0104188
-0.782151
-0.832839
-0.355583
-0.231165
-0.00457309
-0.706214
-0.960027
-0.991639
-0.953976
-0.723369
-0.726399
-0.958386
-1.00544
-0.937652
-0.93321
1.89305
1.86608
1.82047
1.75716
1.67374
2.07711
2.09568
2.0974
2.08074
2.04668
2.23292
2.26522
2.28875
2.29925
2.29511
2.32083
2.36059
2.4023
2.43608
2.45125
2.31776
2.35607
2.39866
2.43464
2.45154
-0.284759
-0.392964
-0.564288
-0.770997
-1.01758
0.336078
0.194039
0.00410783
-0.224647
-0.52021
0.891918
0.743006
0.565635
0.356282
0.0890333
1.33702
1.22238
1.08211
0.91072
0.700946
1.69057
1.60884
1.50222
1.37454
1.22378
2.04125
1.99876
1.99252
2.00309
2.02614
2.02556
1.99485
1.99098
2.01923
2.08597
2.01184
1.98986
1.98949
2.03597
2.15706
1.99901
1.98381
1.98247
2.03897
2.16479
1.9871
1.97619
1.97114
2.032
2.15366
2.09609
2.00626
1.98134
1.92965
1.90681
2.05197
1.99642
1.97628
1.94991
1.91342
1.57148
1.35119
0.959819
0.384728
-0.253115
1.65729
1.38412
0.975498
0.405099
-0.244102
)
;

boundaryField
{
    left
    {
        type            zeroGradient;
    }
    right
    {
        type            fixedValue;
        value           uniform 0;
    }
    down
    {
        type            zeroGradient;
    }
    up
    {
        type            zeroGradient;
    }
    cylinder
    {
        type            zeroGradient;
    }
    defaultFaces
    {
        type            empty;
    }
}


// ************************************************************************* //
