# Selection   : all
# Cells       : 440
# Volume      : 7.374263e+01
# Time        	max(p)
4.61          	4.816697e-01
