# Selection   : all
# Cells       : 440
# Volume      : 7.374263e+01
# Time        	minMag(U)
3.4           	1.862165e-02
3.45          	1.771659e-02
3.5           	1.683738e-02
