/*--------------------------------*- C++ -*----------------------------------*\
  =========                 |
  \\      /  F ield         | OpenFOAM: The Open Source CFD Toolbox
   \\    /   O peration     | Website:  https://openfoam.org
    \\  /    A nd           | Version:  13
     \\/     M anipulation  |
\*---------------------------------------------------------------------------*/
FoamFile
{
    format      ascii;
    class       volScalarField;
    location    "35.9";
    object      p;
}
// * * * * * * * * * * * * * * * * * * * * * * * * * * * * * * * * * * * * * //

dimensions      [0 2 -2 0 0 0 0];

internalField   nonuniform List<scalar> 
440
(
-1.12814
-1.15744
-1.21968
-1.20901
-1.26143
-1.06785
-1.06149
-1.07216
-1.08741
-1.09826
-1.15513
-1.12208
-1.09313
-1.06078
-1.02092
-1.26869
-1.21996
-1.14024
-1.04457
-0.94589
-1.35
-1.28396
-1.1395
-0.98819
-0.848882
-1.34685
-1.32869
-1.31236
-1.30984
-1.3147
-1.31631
-1.29856
-1.28464
-1.28542
-1.2968
-1.21535
-1.22287
-1.25
-1.26985
-1.27244
-0.985841
-1.03388
-1.11673
-1.17317
-1.17947
-0.763446
-0.879866
-1.00853
-1.06597
-1.06268
-1.39194
-1.49309
-1.02029
-1.28407
0.0821679
-1.40533
-1.35366
-0.838115
-1.17125
0.0384196
-1.12314
-1.07975
-0.793751
-0.984044
-0.00432383
-0.795611
-0.814616
-0.848869
-0.793758
-0.0436621
-0.61445
-0.490097
-0.968433
-0.665484
-0.0729378
-0.403045
-0.178565
-1.07636
-0.558506
-0.0945716
-0.309857
-0.22893
-0.831551
-0.408709
-0.101702
-0.341559
0.000794133
-0.516968
-0.307513
-0.11371
-0.318209
0.106698
-0.332666
-0.267168
-0.1187
-0.270894
0.163758
-0.133644
-0.231409
-0.128198
-0.609784
-0.750348
-0.919397
-1.0932
-1.25902
-0.367316
-0.490837
-0.570266
-0.597972
-0.597199
-0.203721
-0.306555
-0.374776
-0.414375
-0.432658
-0.100793
-0.201337
-0.273346
-0.320995
-0.34271
-0.0539216
-0.154864
-0.227768
-0.27471
-0.289429
0.679667
0.544134
0.372342
0.174488
-0.0530479
0.279854
0.128535
-0.0601057
-0.275509
-0.521302
-0.11562
-0.27499
-0.476338
-0.705686
-0.924855
-0.452671
-0.618351
-0.820403
-1.03897
-1.20736
-0.694463
-0.855851
-1.04119
-1.23409
-1.34217
1.89631
1.92888
1.9612
1.98087
1.98276
1.71138
1.73282
1.75039
1.75225
1.73319
1.48435
1.47761
1.44994
1.40006
1.32437
1.22352
1.19087
1.12534
1.02956
0.903749
0.963068
0.872027
0.748987
0.600565
0.418174
1.63268
1.62109
1.61537
1.66481
1.77657
1.62276
1.60865
1.59785
1.63759
1.6929
1.61384
1.59309
1.57775
1.59793
1.58886
1.6061
1.57487
1.55485
1.54854
1.43322
1.59943
1.55653
1.52996
1.49285
1.26385
1.5942
1.52493
1.49608
1.39818
1.0768
1.59185
1.4887
1.46915
1.30286
1.08084
1.59828
1.47043
1.4453
1.2452
1.01693
1.5891
1.44881
1.43385
1.20715
0.965857
1.62934
1.44017
1.43284
1.18402
0.94478
0.648719
0.36179
0.0310891
-0.244164
-0.448601
0.584795
0.379651
0.152762
-0.0455166
-0.22235
0.594693
0.432217
0.257772
0.0889522
-0.0697159
0.632812
0.492453
0.338536
0.176465
0.0284055
0.653013
0.521189
0.375328
0.216555
0.0753476
-1.74802
-1.57944
-1.39167
-1.23432
-1.14019
-1.79643
-1.72259
-1.57302
-1.44265
-1.35471
-1.69799
-1.64647
-1.54732
-1.44849
-1.36678
-1.52488
-1.47787
-1.42066
-1.35945
-1.29966
-1.36152
-1.33827
-1.30191
-1.27112
-1.26025
-1.26235
-1.25669
-1.21367
-1.23721
-1.1932
-1.22873
-1.22084
-1.19325
-1.19768
-1.16425
-1.23723
-1.22711
-1.20625
-1.18582
-1.17719
-1.26944
-1.25528
-1.23191
-1.20606
-1.19548
-1.31018
-1.29109
-1.2607
-1.22891
-1.19928
-1.11361
-0.816163
-0.924231
-0.77221
0.223914
-1.10638
-0.874383
-1.05497
-0.954058
0.21047
-1.00605
-1.0172
-1.2161
-1.16918
0.186538
-0.917178
-1.25572
-1.3223
-1.30373
0.158934
-0.998674
-1.45215
-1.27123
-1.33182
0.124416
-0.518802
-0.939666
-0.913294
-0.662914
0.238335
-0.989324
-0.906855
-0.842983
-0.666476
0.230609
-1.08725
-1.30528
-1.28185
-1.21319
-0.942951
-1.10791
-1.31139
-1.30599
-1.23618
-1.1978
1.55083
1.52062
1.47126
1.40417
1.31632
1.73454
1.7523
1.75284
1.73462
1.69856
1.89304
1.92423
1.94549
1.95305
1.94605
1.98104
2.02053
2.06222
2.09634
2.11173
1.98461
2.0232
2.06601
2.10192
2.11867
-0.668008
-0.786231
-0.971313
-1.19249
-1.46038
-0.0418725
-0.190528
-0.388382
-0.627668
-0.940417
0.528302
0.374539
0.189699
-0.0293242
-0.310613
0.98365
0.86384
0.71818
0.540695
0.32224
1.34491
1.26085
1.15024
1.01667
0.85876
1.69636
1.65452
1.65048
1.66186
1.68565
1.6809
1.65114
1.64832
1.67673
1.74574
1.66756
1.64625
1.64686
1.69253
1.82052
1.65505
1.63995
1.63991
1.69401
1.82738
1.64339
1.63182
1.62913
1.685
1.82013
1.75202
1.66054
1.63947
1.58707
1.56847
1.70678
1.65155
1.63416
1.60821
1.57222
1.22483
0.999327
0.599854
0.0121848
-0.631252
1.31107
1.03324
0.614556
0.0320466
-0.623896
)
;

boundaryField
{
    left
    {
        type            zeroGradient;
    }
    right
    {
        type            fixedValue;
        value           uniform 0;
    }
    down
    {
        type            zeroGradient;
    }
    up
    {
        type            zeroGradient;
    }
    cylinder
    {
        type            zeroGradient;
    }
    defaultFaces
    {
        type            empty;
    }
}


// ************************************************************************* //
