/*--------------------------------*- C++ -*----------------------------------*\
  =========                 |
  \\      /  F ield         | OpenFOAM: The Open Source CFD Toolbox
   \\    /   O peration     | Website:  https://openfoam.org
    \\  /    A nd           | Version:  13
     \\/     M anipulation  |
\*---------------------------------------------------------------------------*/
FoamFile
{
    format      ascii;
    class       volVectorField;
    location    "35.9";
    object      U;
}
// * * * * * * * * * * * * * * * * * * * * * * * * * * * * * * * * * * * * * //

dimensions      [0 1 -1 0 0 0 0];

internalField   nonuniform List<vector> 
440
(
(-0.223363 0.212598 5.71242e-20)
(-0.242333 0.269099 -3.16003e-19)
(-0.0370442 0.149207 -1.60089e-19)
(0.374837 0.105457 1.99329e-19)
(0.462657 0.103244 -2.46487e-21)
(-0.0617718 0.0506063 3.58577e-23)
(0.0789534 0.0780771 6.26734e-21)
(0.530585 0.0338792 7.13827e-20)
(1.05838 0.00597306 -8.57025e-20)
(1.54847 -0.0205259 -7.23833e-20)
(-0.00989566 0.00479699 3.6117e-20)
(0.460702 -0.0366253 6.0945e-19)
(1.19428 -0.0259447 -3.1595e-19)
(1.78418 -0.0047304 -9.47087e-19)
(2.31022 0.0132782 5.20332e-19)
(0.188792 -0.0435087 -1.61885e-19)
(1.1214 0.00133856 -5.09426e-19)
(1.89106 0.0763993 1.55565e-18)
(2.33561 0.126721 1.78847e-18)
(2.43839 0.148184 -4.66566e-19)
(0.526157 -0.00874055 -2.85167e-19)
(1.67552 0.17824 -6.05212e-19)
(2.23389 0.264094 1.85714e-18)
(2.37669 0.281247 1.98103e-18)
(2.43849 0.256106 6.72126e-19)
(0.0457188 -0.286345 -2.70443e-20)
(0.191798 -0.666205 -1.37195e-19)
(0.270746 -0.785295 9.69397e-20)
(0.292835 -0.726284 3.76081e-21)
(0.270424 -0.597745 1.20705e-19)
(0.140712 -0.439152 6.43032e-20)
(0.313663 -0.81599 2.15489e-19)
(0.303113 -0.814202 -1.20723e-20)
(0.215799 -0.633369 -6.91608e-21)
(0.110193 -0.439258 5.6882e-21)
(0.271688 -0.549174 3.88803e-19)
(0.376814 -0.838562 2.58031e-19)
(0.268614 -0.760497 9.35858e-20)
(0.128927 -0.593604 -1.88501e-19)
(0.0344192 -0.446846 8.46474e-22)
(0.252809 -0.482873 2.21525e-19)
(0.0921792 -0.679023 -3.72095e-19)
(-0.146987 -0.619589 3.53893e-19)
(-0.297203 -0.56379 4.08766e-19)
(-0.366395 -0.482178 5.66808e-20)
(-0.124856 -0.0177471 2.71196e-19)
(-0.351988 -0.233512 3.90718e-19)
(-0.44274 -0.386756 5.44803e-19)
(-0.441525 -0.420705 -1.60199e-19)
(-0.413481 -0.403404 2.71934e-19)
(0.130088 -0.28519 -1.9243e-18)
(1.60565 1.20239 -4.34595e-19)
(0.515236 0.628753 -6.28345e-19)
(1.31594 -1.03205 7.89426e-19)
(1.19168 -0.699081 -1.0005e-19)
(-0.149303 -0.259096 -9.50006e-19)
(0.291075 1.21378 2.273e-19)
(0.770035 0.550527 5.567e-21)
(1.52968 -1.06856 -1.29171e-18)
(1.29027 -0.699118 1.83969e-19)
(0.0899399 -0.374861 -1.56551e-18)
(-0.729098 0.937876 -2.73345e-18)
(1.1809 0.258675 -1.56769e-20)
(1.79189 -1.06605 -1.68227e-18)
(1.39604 -0.678005 3.37547e-20)
(-0.321823 -0.227489 6.4075e-19)
(-0.950968 0.781065 2.0425e-19)
(1.59453 -0.0562464 -2.70728e-19)
(2.02252 -1.02621 1.00114e-18)
(1.50675 -0.640451 2.18832e-19)
(0.0826144 -0.500029 -3.68202e-19)
(-0.756652 0.521305 2.00513e-18)
(1.92599 -0.362692 0)
(2.11892 -0.993661 -6.40044e-19)
(1.5439 -0.583255 3.2892e-20)
(1.83027 -0.303927 -3.69638e-19)
(0.762959 0.16975 -2.7649e-19)
(2.28928 -0.618604 3.57826e-21)
(2.17791 -0.928453 -1.76145e-19)
(1.5347 -0.517784 -2.66489e-20)
(2.03801 -0.200233 4.1811e-20)
(1.85456 0.319119 3.0689e-19)
(2.63395 -0.626035 4.35028e-21)
(2.11953 -0.738696 4.46462e-19)
(1.3191 -0.34116 0)
(1.86343 -0.0985675 5.51969e-21)
(2.31714 -0.0237875 -4.08597e-21)
(2.49446 -0.626679 6.68795e-19)
(1.78604 -0.509587 -1.2349e-19)
(1.15513 -0.216919 -2.24547e-20)
(1.90393 -0.0735164 -2.70792e-20)
(2.29548 -0.0458886 1.39512e-19)
(2.04389 -0.413419 2.64644e-20)
(1.21321 -0.298201 -1.17952e-34)
(0.651787 -0.0839585 4.86753e-20)
(1.37481 -0.0190377 6.81174e-20)
(1.38772 -0.15277 3.31703e-20)
(0.655946 -0.0737795 -1.47833e-19)
(0.0871795 0.00440803 2.07879e-20)
(-0.150073 -0.00879243 8.39324e-21)
(2.34965 0.250598 -8.20766e-19)
(2.51367 0.0921673 -1.09489e-18)
(2.41241 0.0628211 8.39029e-19)
(2.59198 -0.0538515 3.89571e-20)
(1.9855 -0.0229452 -9.02221e-20)
(2.12851 0.116041 6.75173e-20)
(2.3309 0.12261 -4.01229e-20)
(2.22993 -0.053359 -1.29512e-19)
(2.38539 -0.0452463 -2.49654e-19)
(2.25964 -0.249927 -3.50813e-21)
(2.0917 0.0380858 7.537e-20)
(2.10734 0.103216 9.07483e-20)
(2.2064 -0.0648426 -1.11297e-19)
(2.14134 -0.0141209 3.57755e-20)
(2.28185 -0.150826 2.301e-20)
(2.0174 3.05446e-05 1.15654e-19)
(1.97888 0.0497603 1.50226e-19)
(2.13446 -0.0489519 -1.84618e-20)
(2.04233 -0.0161432 -5.5709e-20)
(2.20788 -0.0888972 2.30156e-20)
(1.43482 -0.0142728 1.81552e-19)
(1.45376 -0.00430918 -1.15712e-20)
(1.4759 -0.0237205 1.92207e-20)
(1.45797 -0.0139623 -3.17767e-20)
(1.50281 -0.0347769 -8.18571e-21)
(1.56119 0.850713 1.02382e-18)
(1.5211 0.945741 -2.9804e-19)
(1.51519 1.06838 -1.23774e-18)
(1.44567 1.11205 6.96063e-19)
(0.893173 0.804212 -1.76935e-19)
(1.8214 0.796312 -5.42606e-19)
(1.80103 0.880498 -2.84264e-18)
(1.81 0.988841 -1.10501e-18)
(1.72277 0.997639 -4.02517e-19)
(1.05227 0.693709 -6.39621e-19)
(2.108 0.698843 7.25595e-19)
(2.09294 0.763517 1.8983e-19)
(2.07556 0.843863 -2.20942e-18)
(1.94 0.82631 -6.04196e-19)
(1.13504 0.535743 4.44373e-19)
(2.25991 0.569174 2.22824e-18)
(2.26426 0.621418 1.62503e-18)
(2.25901 0.668344 -1.87158e-18)
(2.03296 0.620889 -1.39577e-18)
(1.09249 0.345334 -2.51243e-19)
(2.4108 0.427809 1.06107e-18)
(2.41077 0.447525 -7.71915e-19)
(2.31304 0.462727 5.45721e-19)
(1.96339 0.397967 4.30339e-19)
(0.888539 0.143999 -3.57716e-19)
(0.577413 0.394197 -7.15482e-19)
(0.489297 0.425757 -5.86654e-19)
(0.370339 0.45735 7.83227e-20)
(0.229867 0.464649 -2.76541e-20)
(0.0562125 0.33755 6.97656e-20)
(0.6717 0.572108 7.10146e-20)
(0.608026 0.630212 -3.22807e-19)
(0.519498 0.698176 1.7521e-19)
(0.391949 0.75338 -8.07292e-20)
(0.167352 0.57681 1.15536e-19)
(0.773254 0.763286 2.09128e-19)
(0.699346 0.840456 4.12899e-19)
(0.639412 0.937995 5.27127e-20)
(0.55355 0.993012 -2.7545e-19)
(0.302622 0.74565 2.22807e-19)
(1.03529 0.860096 2.15833e-19)
(0.987826 0.948281 -6.1568e-19)
(0.936183 1.04872 -1.78802e-18)
(0.851937 1.1162 7.3267e-19)
(0.503235 0.835616 -1.80771e-19)
(1.15633 0.89162 -1.36766e-19)
(1.16589 1.01227 -2.1211e-19)
(1.17926 1.13226 -3.22961e-19)
(1.12367 1.17306 -3.77891e-19)
(0.692421 0.854657 -6.24892e-21)
(1.01393 0.0536986 -8.96834e-20)
(0.98335 0.0159775 -3.45094e-20)
(1.04804 0.1065 -1.37085e-21)
(0.945801 0.124291 -2.74748e-19)
(0.88523 0.235057 3.03404e-19)
(1.00201 0.0528737 5.59419e-20)
(0.99579 0.0112114 1.2435e-19)
(1.04037 0.113334 1.07969e-19)
(0.972952 0.156625 3.20726e-20)
(0.922137 0.309439 1.7717e-20)
(1.00621 0.0524743 7.5214e-20)
(0.98265 0.00339634 -4.74525e-21)
(1.08918 0.128751 -5.63722e-21)
(0.917563 0.163765 1.61758e-19)
(1.11766 0.445026 -4.26907e-19)
(0.998418 0.0527591 -4.34207e-22)
(1.00606 -0.00832234 -1.77682e-19)
(1.08978 0.14781 -6.06212e-20)
(0.981823 0.179986 -3.91308e-19)
(1.16598 0.483026 9.18373e-20)
(0.993995 0.044904 -1.30154e-20)
(1.01777 -0.00787343 5.37754e-20)
(1.13176 0.156164 3.03258e-20)
(0.959134 0.200747 4.62217e-19)
(1.41075 0.609695 -4.18219e-19)
(0.952568 0.0454799 -6.37688e-21)
(1.09981 -0.0367197 1.10745e-19)
(1.12136 0.187092 -8.45568e-20)
(1.15468 0.153682 8.18257e-19)
(1.33003 0.621298 -3.97872e-19)
(0.893552 0.0126843 -1.65877e-21)
(1.20902 -0.0460966 -9.69419e-20)
(1.03682 0.140785 4.49699e-21)
(1.22096 0.1463 -2.72126e-19)
(1.42172 0.38233 2.96155e-20)
(0.967285 -0.00388344 -5.60559e-21)
(1.15937 -0.0553042 1.27593e-35)
(1.02266 0.149556 -4.13427e-20)
(1.23227 0.0602887 8.3499e-20)
(1.46212 0.254521 1.53568e-19)
(1.11345 -0.0565798 4.17468e-21)
(0.939273 -0.043913 -2.66828e-20)
(1.1081 0.0910593 1.7106e-20)
(1.23305 0.0143502 3.3127e-20)
(1.39744 0.148193 -2.1784e-19)
(1.00662 -0.0256296 -4.34203e-20)
(0.706245 -0.0161161 -5.02223e-21)
(0.93616 0.00764478 1.90065e-20)
(0.878255 -0.0141392 -1.34451e-20)
(1.01804 0.0490498 -4.82951e-20)
(1.75299 0.66209 3.15594e-19)
(1.86418 0.644637 7.34172e-19)
(2.09761 0.551902 -1.02881e-18)
(2.1716 0.486966 2.0809e-20)
(2.35821 0.32617 4.50929e-19)
(1.71146 0.493791 4.52913e-20)
(1.78715 0.417548 9.65095e-19)
(1.94984 0.420903 9.37966e-20)
(1.98401 0.285605 -8.84117e-19)
(2.16914 0.26976 -2.84626e-19)
(1.65517 0.383906 -1.99431e-19)
(1.75285 0.273402 -1.42078e-19)
(1.83334 0.316896 2.44747e-19)
(1.93592 0.156857 -2.93664e-19)
(2.00061 0.212601 2.66627e-19)
(1.60912 0.224693 2.96781e-19)
(1.67991 0.144418 -1.62698e-21)
(1.75369 0.176445 2.21203e-19)
(1.85841 0.0682219 1.98795e-19)
(1.88809 0.115379 -1.91555e-19)
(1.23608 0.0512988 -3.40383e-20)
(1.2605 0.0307469 2.07361e-19)
(1.34684 0.0281624 1.06709e-19)
(1.36686 0.00453855 -2.28917e-19)
(1.42497 0.00856354 2.37993e-22)
(1.3571 -0.0379355 6.54962e-20)
(2.46416 -0.0301082 -5.54293e-19)
(2.6903 -0.0213058 1.50778e-18)
(2.68115 0.0281525 6.96783e-19)
(2.45188 0.0446291 -4.63826e-19)
(0.871919 0.0987305 1.28581e-19)
(2.24608 0.112295 -5.76764e-19)
(2.69694 0.118332 -8.0837e-19)
(2.70119 0.133354 1.07178e-18)
(2.50841 0.128102 -7.5481e-19)
(0.257298 0.0916101 -3.58046e-20)
(1.6009 0.190097 6.44965e-19)
(2.40467 0.237581 1.0811e-19)
(2.77142 0.243202 1.0046e-18)
(2.78255 0.230543 5.78916e-19)
(-0.0590883 -0.0280745 2.53266e-19)
(0.652663 0.12575 2.70767e-19)
(1.5959 0.235343 -7.31502e-19)
(2.17455 0.305072 6.23827e-20)
(2.76936 0.341377 4.78694e-19)
(-0.133704 -0.108615 2.00926e-19)
(0.0344736 -0.0266385 -2.21431e-19)
(0.678199 0.121582 -6.09622e-20)
(1.21001 0.201316 1.20524e-19)
(1.89536 0.366671 3.62365e-20)
(-0.100494 -0.107898 4.73595e-20)
(-0.151111 -0.120811 1.53038e-19)
(0.0804663 -0.0942647 9.41461e-20)
(0.275711 -0.0588234 -8.67185e-20)
(1.01304 0.144278 1.38395e-20)
(-0.0595033 -0.0846723 -1.7028e-20)
(-0.148366 -0.18621 -1.08625e-19)
(-0.122009 -0.245556 -3.81161e-20)
(-0.0592682 -0.248318 -2.54586e-20)
(0.245441 -0.0515916 5.92448e-21)
(-0.0332345 -0.068541 3.7614e-21)
(-0.0920908 -0.221151 2.88661e-19)
(-0.0996451 -0.322504 -2.14665e-19)
(-0.0656409 -0.358517 -3.91201e-19)
(-0.000344652 -0.275579 8.89103e-20)
(-0.020122 -0.0903881 -2.72594e-20)
(-0.0338963 -0.31716 -1.76431e-19)
(-0.0119277 -0.475667 4.7384e-19)
(0.0337879 -0.537352 3.01146e-19)
(0.0538734 -0.526851 -5.54805e-20)
(-0.00399716 -0.160669 1.74344e-20)
(0.0490246 -0.471737 -5.87735e-20)
(0.108391 -0.637126 1.99303e-20)
(0.14707 -0.654971 1.51831e-20)
(0.152 -0.587803 -1.46114e-19)
(1.5448 0.756822 -5.4848e-20)
(1.58366 0.454357 9.16324e-20)
(-0.348794 0.298475 1.19569e-19)
(-0.148328 -0.37163 7.90692e-19)
(0.830559 -0.363117 -7.64513e-21)
(1.39214 0.64689 3.99653e-20)
(1.23336 0.662368 9.7186e-19)
(-0.648674 0.409052 9.33612e-19)
(0.215506 -0.608465 2.50361e-20)
(0.844352 -0.487885 7.1291e-20)
(1.40033 0.550604 3.62622e-19)
(1.0066 0.948922 2.55528e-18)
(-0.404601 0.455583 -2.11735e-20)
(0.441335 -0.771439 -1.69695e-18)
(0.909761 -0.562852 -2.50523e-20)
(0.992062 0.233438 1.81922e-20)
(1.16373 1.11464 -3.7407e-18)
(0.119777 0.490269 -8.93701e-20)
(0.660986 -0.920533 2.3679e-20)
(0.973081 -0.640135 -9.67935e-20)
(0.339387 0.0837955 3.07767e-19)
(1.60364 1.25808 -4.2922e-19)
(0.439674 0.547976 -3.99269e-19)
(1.02129 -0.98185 -1.24714e-19)
(1.06335 -0.681235 -2.55109e-19)
(-0.217077 0.140385 -6.20975e-20)
(-0.435616 -0.197112 0)
(-0.717708 -0.113869 -1.8989e-20)
(-0.22214 -0.11862 -5.06694e-21)
(0.50826 -0.0463622 -2.37912e-21)
(1.77224 0.696228 0)
(1.32488 0.379376 0)
(-0.0724807 0.0484802 -8.84617e-20)
(-0.185735 -0.230624 -3.2244e-19)
(0.839338 -0.205649 1.9333e-20)
(0.787235 0.00576219 -1.32757e-19)
(0.835302 -0.00609715 1.98984e-19)
(1.07408 0.0393392 -4.7846e-20)
(0.910032 0.000435111 4.06568e-19)
(1.43217 0.184381 2.70202e-19)
(1.77139 0.0403958 1.26379e-19)
(1.98411 0.0818751 3.55624e-19)
(2.12237 0.127897 -7.31945e-19)
(2.57653 0.255915 1.88879e-19)
(2.53394 0.304859 4.01612e-19)
(0.972712 -0.531006 4.14471e-20)
(0.961674 -0.629306 -2.08339e-19)
(0.96056 -0.736479 -1.98872e-19)
(0.895428 -0.812456 1.17624e-19)
(0.549775 -0.642658 1.41847e-19)
(0.872633 -0.442639 1.09629e-19)
(0.817574 -0.51296 1.47581e-19)
(0.741556 -0.58822 -1.0805e-19)
(0.624003 -0.654166 1.43716e-19)
(0.344895 -0.521538 3.33379e-20)
(0.67958 -0.308563 -1.26806e-19)
(0.586608 -0.352879 -5.57445e-20)
(0.485743 -0.409685 -1.48427e-21)
(0.371912 -0.459901 -5.17909e-20)
(0.174637 -0.363933 -1.31379e-19)
(0.573805 -0.0749134 -4.46043e-19)
(0.490297 -0.0960158 -3.60901e-19)
(0.382687 -0.129381 2.93051e-19)
(0.254924 -0.170124 1.58904e-19)
(0.0800949 -0.151503 1.38009e-20)
(0.5378 0.129659 -1.52274e-19)
(0.452585 0.129199 -1.66676e-19)
(0.335898 0.126028 -4.87735e-20)
(0.19784 0.126098 5.05924e-20)
(0.0345425 0.0940667 1.4877e-20)
(2.24326 -0.0306209 9.57872e-19)
(2.47079 -0.105868 3.54879e-19)
(2.56795 -0.200491 -8.99281e-19)
(2.44295 -0.225644 -1.90921e-18)
(1.50566 -0.22217 1.36665e-19)
(2.16701 -0.131862 1.5976e-18)
(2.28803 -0.24868 2.07394e-18)
(2.3103 -0.378478 1.70379e-19)
(2.2416 -0.44297 2.92338e-19)
(1.46479 -0.414887 -1.9497e-19)
(1.89369 -0.306293 -4.09077e-18)
(1.93902 -0.429666 4.82438e-19)
(1.98019 -0.563794 1.28765e-18)
(1.93491 -0.648356 -5.23868e-19)
(1.27656 -0.572044 8.25497e-19)
(1.62884 -0.437241 9.99289e-19)
(1.6478 -0.542368 -2.60763e-18)
(1.64459 -0.669706 -3.03915e-18)
(1.58527 -0.769148 9.58627e-19)
(1.03405 -0.652187 6.13275e-19)
(1.33172 -0.506228 2.29081e-19)
(1.27934 -0.60583 2.75912e-19)
(1.26473 -0.735516 -4.64883e-19)
(1.21014 -0.831934 -5.64691e-19)
(0.772532 -0.674124 -5.46788e-21)
(1.06193 0.0554432 7.25734e-21)
(0.928337 0.0452911 -1.56707e-21)
(1.139 0.068646 1.0993e-21)
(0.818906 -0.00977607 -2.35608e-19)
(1.19668 -0.247158 -1.5567e-20)
(1.07166 0.0591885 -2.44641e-21)
(0.924057 0.0402954 3.83006e-20)
(1.13226 0.0860657 -1.87078e-20)
(0.898444 0.0312341 1.65512e-19)
(1.04906 -0.130908 -7.44337e-21)
(1.06958 0.0570252 -5.90205e-20)
(0.92705 0.0330208 3.21078e-22)
(1.11659 0.0871241 -1.01442e-20)
(0.890462 0.0513397 5.94125e-20)
(1.00686 -0.0737132 -2.32951e-19)
(1.05107 0.0561947 7.10147e-20)
(0.953369 0.026572 2.95437e-21)
(1.076 0.0920201 2.45511e-20)
(0.933169 0.0778592 2.17733e-22)
(0.88464 0.0391517 8.30693e-20)
(1.02705 0.0539622 1.76217e-20)
(0.978873 0.0228313 -2.73785e-20)
(1.04568 0.0967122 3.4924e-20)
(0.953446 0.105932 7.00317e-20)
(0.847772 0.130875 -4.12095e-20)
(0.887308 0.0335657 0)
(0.712937 0.027137 8.76815e-21)
(0.630688 0.0214877 5.04145e-21)
(0.37257 -0.0100936 5.06877e-20)
(0.746577 -0.0634061 -1.56869e-19)
(1.03038 0.0744524 -6.32981e-20)
(0.939394 0.0647018 -6.78129e-21)
(1.05138 0.0712753 -5.16974e-20)
(0.832274 -0.00879822 -1.34162e-19)
(1.10971 -0.224228 -1.62498e-19)
(1.05155 -0.0671975 -3.627e-20)
(1.1411 -0.0368587 5.68641e-19)
(1.25106 0.037985 3.49446e-19)
(1.11365 0.0636358 2.52583e-20)
(0.867343 0.0345645 0)
(1.41577 -0.335088 3.64192e-19)
(1.54255 -0.294777 1.67242e-18)
(1.7412 -0.170973 -1.8694e-18)
(1.83874 -0.0209459 -5.97105e-19)
(1.77936 0.0372151 4.35845e-19)
)
;

boundaryField
{
    left
    {
        type            fixedValue;
        value           uniform (1 0 0);
    }
    right
    {
        type            zeroGradient;
    }
    down
    {
        type            noSlip;
    }
    up
    {
        type            noSlip;
    }
    cylinder
    {
        type            noSlip;
    }
    defaultFaces
    {
        type            empty;
    }
}


// ************************************************************************* //
