/*--------------------------------*- C++ -*----------------------------------*\
  =========                 |
  \\      /  F ield         | OpenFOAM: The Open Source CFD Toolbox
   \\    /   O peration     | Website:  https://openfoam.org
    \\  /    A nd           | Version:  13
     \\/     M anipulation  |
\*---------------------------------------------------------------------------*/
FoamFile
{
    format      ascii;
    class       surfaceScalarField;
    location    "0.0325";
    object      phi;
}
// * * * * * * * * * * * * * * * * * * * * * * * * * * * * * * * * * * * * * //

dimensions      [0 3 -1 0 0 0 0];

internalField   nonuniform List<scalar> 
3485
(
0.00740777
-0.107857
0.100449
0.0171992
-0.144623
0.134831
0.0269229
-0.144336
0.134612
0.0363575
-0.140099
0.130664
0.0455173
-0.135892
0.126732
0.0544299
-0.132033
0.123121
0.0631212
-0.128504
0.119813
0.0716144
-0.125266
0.116773
0.0799088
-0.122266
0.113971
-0.11928
0.111193
0.0879963
0.00690208
-0.114759
0.0159762
-0.153697
0.0249733
-0.153333
0.0337053
-0.148831
0.0421891
-0.144376
0.0504505
-0.140295
0.0585125
-0.136566
0.0663957
-0.133149
0.0741211
-0.129991
-0.126978
0.0818181
0.0063489
-0.121108
0.0146403
-0.161988
0.0228446
-0.161537
0.0308125
-0.156799
0.0385651
-0.152128
0.0461289
-0.147858
0.0535272
-0.143965
0.0607804
-0.140403
0.0679069
-0.137117
-0.13403
0.074959
0.00573867
-0.126846
0.0131709
-0.16942
0.0205026
-0.168869
0.0276262
-0.163922
0.0345653
-0.159068
0.0413453
-0.154638
0.0479883
-0.150608
0.0545138
-0.146928
0.0609406
-0.143544
-0.140413
0.067324
0.00506676
-0.131913
0.011561
-0.175915
0.0179379
-0.175246
0.0241352
-0.17012
0.0301784
-0.165111
0.0360907
-0.160551
0.0418919
-0.156409
0.0475994
-0.152636
0.0532312
-0.149176
-0.146011
0.0588291
0.00433129
-0.136244
0.00981087
-0.181394
0.0151514
-0.180586
0.0203424
-0.175311
0.0254094
-0.170178
0.0303723
-0.165514
0.0352482
-0.161285
0.0400519
-0.157439
0.0448
-0.153924
-0.150732
0.0495212
0.00353372
-0.139778
0.00792678
-0.185787
0.0121559
-0.184815
0.0162687
-0.179423
0.0202873
-0.174196
0.0242277
-0.169454
0.0281035
-0.16516
0.0319269
-0.161263
0.0357121
-0.157709
-0.154496
0.039476
0.00267973
-0.142458
0.00591883
-0.189026
0.0089742
-0.187871
0.0119494
-0.182399
0.0148595
-0.177106
0.0177162
-0.172311
0.0205291
-0.167973
0.0233073
-0.164041
0.026062
-0.160464
-0.157233
0.0287994
0.00181063
-0.144268
0.00381016
-0.191026
0.0056258
-0.189686
0.00742765
-0.184201
0.0091887
-0.178867
0.0109173
-0.174039
0.0126205
-0.169677
0.0143044
-0.165725
0.0159762
-0.162136
-0.158891
0.0176341
0.000931178
-0.1452
0.00154157
-0.191636
0.00219325
-0.190338
0.00278685
-0.184794
0.00336624
-0.179447
0.00393613
-0.174609
0.00449844
-0.170239
0.00505485
-0.166281
0.00560747
-0.162689
0.00615031
-0.159434
0.0101491
-0.017802
0.00765285
0.0238612
-0.0239087
0.0101966
0.0375727
-0.0239075
0.0101959
0.0508738
-0.0232174
0.00991628
0.0637569
-0.0225218
0.00963877
0.0762512
-0.0218813
0.009387
0.0883856
-0.0212933
0.00915893
0.100186
-0.0207513
0.00895091
0.111674
-0.0202475
0.00875948
-0.0198286
0.122918
0.00858425
0.0100673
-0.0278693
0.0236591
-0.0375005
0.0372507
-0.0374991
0.0504393
-0.036406
0.063219
-0.0353016
0.0756198
-0.034282
0.087671
-0.0333446
0.099399
-0.0324793
0.110826
-0.0316747
-0.0310219
0.122019
0.00995177
-0.037821
0.0233763
-0.050925
0.0367996
-0.0509224
0.0498293
-0.0494356
0.0624614
-0.0479337
0.074727
-0.0465476
0.0866561
-0.0452737
0.0982755
-0.0440988
0.109609
-0.0430084
-0.0421342
0.120722
0.00979582
-0.0476169
0.0229977
-0.0641269
0.0361957
-0.0641205
0.0490106
-0.0622505
0.0614412
-0.0603644
0.0735196
-0.058626
0.0852767
-0.0570308
0.0967403
-0.0555623
0.107936
-0.0542046
-0.053123
0.118925
0.00959423
-0.0572111
0.0225091
-0.0770418
0.0354151
-0.0770264
0.0479492
-0.0747846
0.0601134
-0.0725286
0.0719406
-0.0704531
0.0834625
-0.0685528
0.094708
-0.0668078
0.105706
-0.0652025
-0.0639275
0.116511
0.00934327
-0.0665544
0.0218992
-0.0895977
0.0344383
-0.0895656
0.0466167
-0.086963
0.0584391
-0.084351
0.0699387
-0.0819527
0.0811476
-0.0797617
0.0920955
-0.0777557
0.102814
-0.0759209
-0.0744619
0.113348
0.00904097
-0.0755953
0.0211624
-0.101719
0.0332561
-0.101659
0.0449991
-0.0987059
0.0563977
-0.0957496
0.0674845
-0.0930395
0.0782906
-0.0905678
0.0888451
-0.0883102
0.0991812
-0.086257
-0.084612
0.109331
0.00868902
-0.0842843
0.0203044
-0.113334
0.0318785
-0.113233
0.0431096
-0.109937
0.0540043
-0.106644
0.0645918
-0.103627
0.0749003
-0.100876
0.0849559
-0.0983658
0.0947893
-0.0960905
-0.0942321
0.104409
0.00829524
-0.0925796
0.0193466
-0.124386
0.0303431
-0.12423
0.0410047
-0.120599
0.0513363
-0.116976
0.061361
-0.113652
0.071099
-0.110614
0.0805658
-0.107833
0.0897777
-0.105302
-0.103125
0.0986708
0.00786934
0.0183147
0.0286968
0.0387625
0.0485187
0.0579875
0.0671862
0.0761267
0.0847956
0.0928633
0.164941
-0.112017
0.0699941
0.185541
-0.0803834
0.059784
0.195524
-0.0599899
0.0500065
0.200141
-0.0453676
0.0407509
0.201921
-0.0340559
0.0322758
0.202117
-0.0249471
0.0247508
0.201382
-0.0174449
0.0181803
0.200065
-0.0111246
0.0124411
0.198357
-0.00563337
0.00734132
-0.000433377
0.0024485
0.163681
-0.153678
0.184437
-0.101139
0.194706
-0.0702592
0.199584
-0.0502453
0.201574
-0.0360464
0.201942
-0.025315
0.201354
-0.0168573
0.200173
-0.00994299
0.198594
-0.00405475
0.00145381
0.161535
-0.194492
0.182385
-0.121989
0.193014
-0.0808885
0.198266
-0.0554968
0.20059
-0.0383705
0.201257
-0.0259817
0.200946
-0.0165467
0.200031
-0.00902769
0.198714
-0.00273819
0.0030791
0.158443
-0.23401
0.179369
-0.142915
0.190447
-0.0919666
0.19619
-0.0612389
0.198971
-0.0411523
0.200063
-0.0270738
0.200158
-0.0166417
0.199639
-0.00850849
0.198716
-0.00181515
0.00430935
0.154303
-0.271802
0.175372
-0.163984
0.187008
-0.103602
0.193362
-0.0675931
0.196726
-0.0445165
0.198369
-0.0287165
0.198995
-0.0172681
0.198999
-0.00851297
0.198599
-0.00141501
0.00501312
0.148921
-0.307375
0.170371
-0.185435
0.182699
-0.11593
0.189793
-0.0746866
0.193864
-0.0485879
0.196181
-0.0310331
0.197462
-0.0185494
0.198115
-0.00916555
0.198364
-0.00166418
0.00506146
0.142162
-0.340206
0.164337
-0.207609
0.177529
-0.129122
0.185497
-0.0826555
0.190401
-0.0534919
0.193513
-0.0341443
0.195568
-0.0206049
0.196989
-0.0105867
0.19801
-0.00268534
0.00432885
0.134923
-0.37072
0.157303
-0.229989
0.171507
-0.143325
0.180494
-0.0916429
0.186355
-0.0593533
0.190379
-0.0381675
0.193324
-0.0235499
0.195629
-0.012892
0.19754
-0.00459653
0.00269405
0.127129
-0.399178
0.149368
-0.252228
0.164668
-0.158625
0.174807
-0.101782
0.181747
-0.0662937
0.186796
-0.0432162
0.190741
-0.0274949
0.194041
-0.0161922
0.196955
-0.00751053
4.09422e-05
0.117767
-0.424082
0.140824
-0.275285
0.157219
-0.17502
0.168543
-0.113105
0.176639
-0.0743894
0.182802
-0.0493798
0.187842
-0.032535
0.192237
-0.020587
0.196259
-0.0115322
-0.0037405
0.345273
-0.375718
-0.393638
0.323121
-0.253133
0.314672
-0.166571
0.311095
-0.109529
0.309207
-0.0725012
0.307976
-0.0481492
0.307095
-0.0316539
0.306479
-0.0199713
0.306105
-0.0111581
-0.00360767
0.360685
-0.323241
-0.413162
0.335049
-0.227497
0.322734
-0.154255
0.316367
-0.103162
0.312679
-0.0688135
0.310327
-0.0457972
0.308759
-0.030085
0.307734
-0.0189469
0.307142
-0.0105662
-0.00340883
0.373475
-0.271838
-0.424878
0.345335
-0.199357
0.329987
-0.138908
0.321256
-0.09443
0.315957
-0.0635151
0.312565
-0.0424047
0.310344
-0.027864
0.308928
-0.0175307
0.308125
-0.00976406
-0.00314532
0.383025
-0.22343
-0.431433
0.353769
-0.170101
0.336285
-0.121424
0.32565
-0.0837952
0.318962
-0.0568271
0.314635
-0.0380777
0.311814
-0.0250437
0.310034
-0.0157497
0.309034
-0.00876496
-0.0028206
0.390037
-0.178741
-0.434726
0.360536
-0.1406
0.3416
-0.102488
0.329478
-0.0716731
0.321629
-0.0489775
0.31649
-0.032939
0.313137
-0.0216909
0.311028
-0.0136408
0.309851
-0.00758761
-0.00244002
0.395063
-0.137739
-0.436065
0.365824
-0.111361
0.345945
-0.0826096
0.332696
-0.058424
0.323908
-0.0401897
0.31809
-0.0271209
0.314283
-0.0178834
0.31189
-0.0112485
0.310558
-0.00625515
-0.00201054
0.398552
-0.0999509
-0.43634
0.369809
-0.0826171
0.349351
-0.0621514
0.335279
-0.0443522
0.325765
-0.0306755
0.319404
-0.0207603
0.315227
-0.0137059
0.312601
-0.00862336
0.311141
-0.00479449
-0.00154043
0.400854
-0.0646684
-0.436136
0.372644
-0.0544076
0.351854
-0.0413611
0.337214
-0.0297125
0.327172
-0.0206334
0.320407
-0.0139948
0.315949
-0.0092485
0.313146
-0.00582041
0.311587
-0.0032354
-0.00103895
0.402107
-0.0310574
-0.435718
0.374353
-0.0266538
0.353404
-0.0204123
0.338418
-0.014727
0.328039
-0.0102541
0.32101
-0.00696536
0.316367
-0.00460628
0.313447
-0.00289956
0.311822
-0.00161091
-0.000516516
0.391495
-0.422552
0.364841
0.344429
0.329702
0.319447
0.312482
0.307876
0.304976
0.303365
0.422947
0.00630956
-0.423106
0.42224
0.0183413
0.420957
0.0300817
0.419053
0.0413807
0.416465
0.0521083
0.41313
0.0621642
0.408967
0.0714874
0.403996
0.0799296
0.397332
0.0884822
0.0916911
0.406008
0.00612958
-0.405828
0.406492
0.0178576
0.407242
0.0293315
0.408212
0.0404109
0.40934
0.0509805
0.410552
0.0609519
0.411754
0.0702858
0.412875
0.0788079
0.413725
0.0876324
0.0922545
0.392501
0.0056981
-0.392069
0.393711
0.0166472
0.395671
0.0273719
0.398337
0.0377441
0.401657
0.0476611
0.405563
0.0570457
0.409979
0.0658693
0.414777
0.07401
0.420145
0.0822647
0.0875213
0.381826
0.00510215
-0.38123
0.383529
0.0149445
0.386314
0.024587
0.390143
0.0339146
0.394969
0.0428359
0.400729
0.051285
0.407362
0.0592371
0.414755
0.0666166
0.423096
0.0739234
0.0791848
0.373445
0.00439337
-0.372736
0.375488
0.0129012
0.378843
0.0212325
0.383472
0.0292854
0.389328
0.0369797
0.396354
0.044259
0.404493
0.0510984
0.413655
0.057454
0.423954
0.0636245
0.0684128
0.366965
0.00360588
-0.366178
0.369247
0.0106196
0.372998
0.0174815
0.37818
0.0241037
0.384743
0.0304166
0.39263
0.0363721
0.401783
0.0419453
0.412125
0.047112
0.423702
0.0520471
0.0560502
0.362106
0.00276228
-0.361262
0.364557
0.00816903
0.368587
0.0134515
0.374153
0.0185372
0.381201
0.0233682
0.38967
0.0279039
0.399494
0.0321213
0.410599
0.0360068
0.422985
0.0396609
0.042695
0.358667
0.00187722
-0.357782
0.36124
0.00559585
0.36547
0.00922218
0.371306
0.012701
0.378686
0.0159882
0.387538
0.0190521
0.397786
0.0218733
0.409351
0.0244417
0.422201
0.0268111
0.0287594
0.356287
0.000946898
-0.355356
0.35897
0.00291273
0.363367
0.00482536
0.369417
0.00665028
0.377045
0.00836015
0.386162
0.00993542
0.396672
0.0113633
0.408477
0.0126369
0.421512
0.0137756
0.0145542
0.337538
-0.336591
0.340451
0.345276
0.351927
0.360287
0.370222
0.381585
0.394222
0.407998
0.0805877
0.119329
-0.110292
-0.0896244
0.0719121
0.121769
-0.113094
0.0632012
0.124806
-0.116095
0.0543931
0.128076
-0.119268
0.0454302
0.131626
-0.122663
0.0362606
0.1355
-0.12633
0.0268408
0.139737
-0.130317
0.0171488
0.144202
-0.13451
0.00740086
0.145808
-0.13606
0.112208
-0.104807
0.0750042
0.127054
-0.0827292
0.0670082
0.129765
0.0588901
0.132924
0.0506511
0.136315
0.0422636
0.140013
0.0336941
0.144069
0.0249077
0.148523
0.0158854
0.153224
0.00683606
0.154857
0.119044
0.068174
0.134086
-0.0752065
0.0609534
0.136986
0.0536101
0.140268
0.0461292
0.143796
0.0384922
0.14765
0.030677
0.151885
0.0226583
0.156542
0.014425
0.161458
0.00618423
0.163098
0.125229
0.0607747
0.140395
-0.067084
0.0543271
0.143434
0.0477765
0.146818
0.0411013
0.150471
0.034284
0.154468
0.0273054
0.158863
0.0201439
0.163703
0.0127936
0.168808
0.00545772
0.170434
0.130686
0.0528136
0.145939
-0.0583568
0.0471742
0.149073
0.0414581
0.152535
0.0356409
0.156288
0.0297048
0.160404
0.0236319
0.164936
0.0174028
0.169932
0.0110158
0.175195
0.0046694
0.17678
0.135356
0.0442372
0.150636
-0.0489351
0.0394758
0.153834
0.0346605
0.15735
0.0297675
0.161181
0.02478
0.165391
0.0196814
0.170035
0.0144551
0.175159
0.00910534
0.180545
0.00382848
0.182057
0.139184
0.0350579
0.154403
-0.0388248
0.0312528
0.157639
0.0274111
0.161192
0.023512
0.16508
0.0195413
0.169362
0.0154837
0.174092
0.0113237
0.179319
0.0070735
0.184795
0.00294473
0.186186
0.142129
0.0253495
0.157162
-0.0281082
0.0225721
0.160417
0.0197713
0.163992
0.0169314
0.16792
0.0140416
0.172252
0.0110902
0.177044
0.00805906
0.18235
0.00494111
0.187913
0.00199873
0.189128
0.144128
0.0152305
0.158851
-0.0169193
0.013537
0.16211
0.0118303
0.165699
0.0101013
0.169649
0.00834458
0.174008
0.00655719
0.178831
0.00474181
0.184165
0.00280811
0.189846
0.0009904
0.190946
0.145118
0.00485929
-0.00544258
0.00428122
0.00369918
0.00310923
0.00250837
0.00189273
0.00126365
0.000771921
8.16258e-05
0.112692
0.0199956
-0.123883
-0.00880466
0.10117
0.0205018
-0.00897953
0.0893452
0.0209935
-0.00916879
0.0771916
0.0215286
-0.00937495
0.0646818
0.0221115
-0.0096017
0.0517863
0.0227485
-0.00985303
0.0384721
0.0234475
-0.0101333
0.0247164
0.0241934
-0.0104377
0.0107753
0.0245105
-0.0105694
0.0190402
-0.00826491
0.111742
0.0311322
-0.122879
0.100288
0.0319556
0.088543
0.0327387
0.0764798
0.0335919
0.0640711
0.0345201
0.0512871
0.0355326
0.0380939
0.0366406
0.0244684
0.037819
0.0106645
0.0383144
0.0297047
0.110387
0.042185
-0.12144
0.0990367
0.043306
0.0874091
0.0443664
0.0754775
0.0455234
0.0632142
0.0467834
0.0505884
0.0481584
0.0375659
0.0496631
0.0241225
0.0512623
0.0105101
0.0519268
0.0402148
0.108538
0.0531116
-0.119464
0.0973379
0.0545055
0.0858778
0.0558266
0.0741304
0.0572708
0.0620671
0.0588467
0.0496564
0.0605691
0.0368632
0.0624563
0.0236631
0.0644625
0.0103048
0.0652851
0.0505196
0.106089
0.0638518
-0.116829
0.0951044
0.0654899
0.0838772
0.0670537
0.0723804
0.0687676
0.0605844
0.0706427
0.0484568
0.0726967
0.0359618
0.0749513
0.0230748
0.0773495
0.0100419
0.078318
0.0605615
0.102937
0.0743236
-0.113409
0.0922522
0.0761746
0.0813415
0.0779645
0.0701771
0.0799319
0.0587287
0.0820912
0.0469628
0.0844626
0.0348436
0.0870705
0.022347
0.089846
0.00971679
0.0909482
0.0702783
0.0990013
0.084427
-0.109105
0.0887221
0.0864537
0.0782302
0.0884564
0.0674952
0.0906669
0.0564853
0.0931011
0.0451671
0.0957808
0.0335057
0.098732
0.0214793
0.101872
0.0093298
0.103098
0.0796081
0.0942299
0.0940221
-0.103825
0.0844981
0.0961856
0.074551
0.0984034
0.0643552
0.100863
0.0538799
0.103576
0.0430948
0.106566
0.0319691
0.109858
0.0204862
0.113355
0.00888795
0.114696
0.088496
0.0886984
0.102831
-0.0975074
0.0797195
0.105164
0.0704532
0.10767
0.0608915
0.110424
0.0510224
0.113446
0.0408294
0.116759
0.0302926
0.120394
0.0194045
0.124243
0.00840755
0.125693
0.0969036
0.0824464
-0.0899074
0.0745172
0.0660915
0.0572483
0.0480309
0.0384595
0.0285372
0.0182708
0.00790383
0.199634
0.015684
-0.0173277
0.202209
0.0171828
-0.0197579
0.202502
0.0217103
-0.0220041
0.202887
0.0250941
-0.0254785
0.202513
0.0306918
-0.0303181
0.200643
0.0384011
-0.0365312
0.196021
0.048643
-0.044021
0.186164
0.0624088
-0.0525517
0.165673
0.0823296
-0.0618388
0.11358
-0.0717896
0.199542
0.0141318
0.201984
0.0147407
0.202199
0.0214956
0.202488
0.0248051
0.201983
0.0311966
0.199934
0.0404505
0.195072
0.0535043
0.184937
0.0725438
0.16429
0.102977
0.154992
0.199339
0.012783
0.201466
0.0126132
0.201488
0.0214735
0.201565
0.0247279
0.200807
0.0319549
0.198456
0.042802
0.193239
0.0587206
0.182743
0.0830406
0.16198
0.123739
0.195532
0.199021
0.0117514
0.200657
0.0109773
0.200382
0.0217491
0.200131
0.0249782
0.198996
0.0330904
0.196218
0.0455802
0.190525
0.0644131
0.179565
0.0940006
0.158671
0.144633
0.234739
0.198584
0.0111573
0.19956
0.0100011
0.198895
0.0224146
0.198201
0.0256719
0.196564
0.0347277
0.193232
0.0489117
0.186936
0.0707091
0.17539
0.105547
0.154234
0.165789
0.272143
0.198016
0.0111306
0.198178
0.00983941
0.197047
0.0235456
0.195792
0.0269268
0.193527
0.0369926
0.189514
0.0529246
0.18248
0.077743
0.170195
0.117833
0.148409
0.187575
0.307144
0.197306
0.0118148
0.196516
0.0106286
0.194865
0.0251972
0.192925
0.0288663
0.189906
0.0400117
0.185083
0.0577484
0.177168
0.0856573
0.163969
0.131032
0.141513
0.21003
0.339552
0.196436
0.0133689
0.194583
0.0124808
0.192379
0.0274016
0.189621
0.0316242
0.185723
0.04391
0.179959
0.0635121
0.171017
0.0945996
0.156786
0.145263
0.134346
0.23247
0.370073
0.195389
0.0159701
0.192391
0.015478
0.189627
0.0301664
0.1859
0.0353506
0.181006
0.0488041
0.174194
0.0703246
0.16415
0.104643
0.148979
0.160434
0.127121
0.254328
0.399687
0.194212
0.0197483
0.18993
0.0197592
0.186657
0.03344
0.181803
0.0402047
0.175827
0.0547801
0.167886
0.0782654
0.156644
0.115885
0.140222
0.176856
0.117309
0.277241
0.427089
0.303034
0.018724
0.303052
0.0197413
0.305574
0.0309179
0.306866
0.0389129
0.308355
0.0532909
0.310364
0.0762563
0.313876
0.112373
0.321911
0.168821
0.343989
0.255164
0.377027
0.394051
0.303483
0.0172514
0.304131
0.0190928
0.306733
0.0283162
0.308916
0.03673
0.311627
0.0505804
0.315531
0.0723518
0.322015
0.105889
0.334371
0.156465
0.360545
0.22899
0.324487
0.413085
0.303851
0.0154107
0.305156
0.0177877
0.307937
0.025535
0.310884
0.0337828
0.31472
0.0467452
0.320304
0.0667671
0.329226
0.0969675
0.344714
0.140977
0.37324
0.200463
0.273077
0.42465
0.304201
0.0132204
0.30607
0.015918
0.309114
0.0224911
0.312726
0.0301707
0.317566
0.0419056
0.324603
0.0597297
0.335493
0.0860776
0.353198
0.123272
0.382736
0.170925
0.224606
0.431208
0.304538
0.0106925
0.30688
0.0135758
0.310209
0.0191627
0.314394
0.0259857
0.3201
0.0361989
0.328353
0.0514767
0.340783
0.0736482
0.359987
0.104068
0.389684
0.141229
0.179794
0.434496
0.304868
0.0078346
0.307591
0.0108533
0.311181
0.0155724
0.315845
0.0213215
0.322273
0.0297707
0.331508
0.0422416
0.345104
0.0600522
0.365275
0.0838968
0.394655
0.11185
0.138627
0.435821
0.305197
0.00464798
0.308204
0.00784592
0.312
0.0117766
0.317046
0.0162758
0.324047
0.0227697
0.334042
0.0322466
0.348489
0.0456048
0.36925
0.0631357
0.398104
0.0829956
0.100651
0.43608
0.305535
0.00112365
0.308725
0.00465575
0.312642
0.0078597
0.317969
0.0109487
0.325394
0.0153441
0.335941
0.0216996
0.350976
0.0305698
0.372073
0.0420393
0.40038
0.0546884
0.065172
0.435859
0.305841
-0.00270705
0.309094
0.00140228
0.313021
0.00393281
0.318531
0.00543899
0.326236
0.00763948
0.337141
0.0107946
0.352541
0.0151689
0.373807
0.0207735
0.401667
0.0268284
0.0314724
0.435367
0.299303
0.300705
0.304638
0.310077
0.317717
0.328511
0.34368
0.364454
0.391282
0.422754
0.400665
-0.0962388
0.404447
-0.0865107
0.408522
-0.079282
0.412373
-0.0709351
0.415683
-0.0616671
0.418364
-0.0516158
0.420417
-0.0408772
0.421873
-0.0295647
0.422769
-0.0178152
-0.0057796
0.412766
-0.0959198
0.412315
-0.0860593
0.411415
-0.078382
0.4103
-0.0698202
0.409126
-0.0604933
0.408021
-0.0505104
0.407081
-0.0399375
0.406375
-0.0288585
0.405946
-0.0173869
-0.00566162
0.419009
-0.0902786
0.414086
-0.0811368
0.409342
-0.0736375
0.405009
-0.0654878
0.401195
-0.0566786
0.39797
-0.047286
0.395398
-0.0373655
0.393532
-0.0269918
0.392412
-0.0162674
-0.00531867
0.422097
-0.0811683
0.414134
-0.0731733
0.406807
-0.0663108
0.400254
-0.0589353
0.394569
-0.0509933
0.389821
-0.0425383
0.386071
-0.0336148
0.383366
-0.0242872
0.381745
-0.0146459
-0.00480434
0.423121
-0.0697939
0.413079
-0.0631304
0.40398
-0.0572122
0.395912
-0.0508674
0.388954
-0.0440349
0.383169
-0.0367534
0.378613
-0.0290595
0.375335
-0.0210083
0.373368
-0.0126792
-0.0041727
0.423008
-0.0569803
0.411597
-0.0517193
0.401312
-0.0469276
0.39222
-0.0417758
0.384394
-0.0362084
0.377895
-0.0302549
0.372782
-0.0239457
0.369101
-0.017328
0.366892
-0.01047
-0.00345846
0.422386
-0.043286
0.410108
-0.0394412
0.399053
-0.0358728
0.389283
-0.0320055
0.38087
-0.0277955
0.373881
-0.0232662
0.368379
-0.0184431
0.364416
-0.0133654
0.362035
-0.0080891
-0.00268572
0.421658
-0.0290849
0.408878
-0.0266612
0.397359
-0.024354
0.387159
-0.0218056
0.378359
-0.0189954
0.371036
-0.0159434
0.365262
-0.0126693
0.3611
-0.00920259
0.358596
-0.00558556
-0.00187178
0.420872
-0.01459
0.407894
-0.0136828
0.396139
-0.0125996
0.385681
-0.0113474
0.376624
-0.00993863
0.369066
-0.00838503
0.363094
-0.00669728
0.358783
-0.00489216
0.356192
-0.00299446
-0.00103578
0.408164
0.394482
0.381882
0.370535
0.360596
0.352211
0.345514
0.340622
0.337627
0.00229211
0.171663
-0.173955
0.00387554
0.227664
-0.229248
0.00541271
0.226683
-0.22822
0.00691367
0.221026
-0.222527
0.00846846
0.21583
-0.217385
0.0101087
0.211447
-0.213087
0.0118583
0.207816
-0.209565
0.0137412
0.204861
-0.206744
0.0157798
0.20252
-0.204558
0.20073
0.0179476
-0.202898
0.00445553
0.167208
0.00950152
0.222618
0.0141749
0.222009
0.0188931
0.216307
0.0237465
0.210977
0.0287984
0.206395
0.0341104
0.202504
0.0397459
0.199226
0.0457734
0.196492
0.19426
0.0522431
0.00642048
0.160787
0.0141763
0.214863
0.0217141
0.214471
0.0292728
0.208749
0.0369771
0.203273
0.0449227
0.19845
0.0531995
0.194227
0.0618979
0.190527
0.0711137
0.187276
0.184409
0.0809649
0.00791798
0.152869
0.0178553
0.204925
0.0276742
0.204652
0.0374691
0.198954
0.0473642
0.193378
0.0574636
0.188351
0.0678628
0.183827
0.0786545
0.179736
0.0899286
0.176002
0.17251
0.101828
0.00895456
0.143915
0.0204761
0.193404
0.0319503
0.193178
0.0433257
0.187578
0.0547076
0.181996
0.066191
0.176867
0.0778592
0.172159
0.0897878
0.167807
0.102041
0.163749
0.1598
0.114751
0.00959689
0.134318
0.022157
0.180844
0.0347061
0.180629
0.0470717
0.175213
0.0593294
0.169738
0.0715557
0.164641
0.0838151
0.1599
0.0961614
0.155461
0.108633
0.151278
0.147097
0.121336
0.00993981
0.124378
0.0231021
0.167681
0.0362645
0.167467
0.0491626
0.162315
0.0618427
0.157058
0.0743622
0.152121
0.0867686
0.147493
0.0990986
0.143131
0.111374
0.139002
0.134793
0.123677
0.0100831
0.114295
0.0235385
0.154226
0.0369898
0.154015
0.0501097
0.149195
0.0629197
0.144248
0.0754622
0.139579
0.0877722
0.135184
0.0998755
0.131027
0.111788
0.127089
0.123027
0.123555
0.010112
0.104183
0.0236695
0.140669
0.0372111
0.140474
0.0503688
0.136037
0.0631455
0.131471
0.0755717
0.127153
0.0876733
0.123082
0.099471
0.11923
0.110975
0.115585
0.111665
0.122337
0.0100937
0.0940892
0.0236619
0.1271
0.0372026
0.126933
0.050324
0.122916
0.0630174
0.118778
0.0753059
0.114864
0.0872099
0.111178
0.0987443
0.107695
0.10991
0.10442
0.101012
0.120563
0.0100708
0.0840184
0.0236251
0.113546
0.0371412
0.113417
0.0502135
0.109843
0.0628238
0.106167
0.074986
0.102702
0.0867104
0.0994535
0.0980007
0.0964051
0.108858
0.0935624
0.0911182
0.118752
0.0100699
0.0739485
0.0236345
0.0999815
0.0371596
0.0998919
0.0502353
0.0967677
0.0628428
0.0935598
0.0749978
0.0905469
0.0867151
0.0877362
0.0980058
0.0851144
0.108887
0.0826811
0.0807255
0.11928
0.0100989
0.0638496
0.0237128
0.0863676
0.0372948
0.0863098
0.0504359
0.0836266
0.0631222
0.0808736
0.0753766
0.0782925
0.0872238
0.075889
0.0986875
0.0736507
0.109798
0.0715709
0.0699399
0.120583
0.0101437
0.0537059
0.0238269
0.0726844
0.0374876
0.072649
0.0507162
0.070398
0.0635018
0.068088
0.0758712
0.065923
0.0878529
0.0639073
0.0994742
0.0620294
0.110766
0.0602788
0.0589217
0.121784
0.0101896
0.0435163
0.0239411
0.0589329
0.037678
0.0589121
0.0509882
0.0570879
0.063862
0.0552143
0.0763277
0.0534574
0.0884147
0.0518203
0.100151
0.0502934
0.111565
0.0488646
0.0477656
0.122721
0.0102265
0.0332898
0.0240329
0.0451265
0.0378302
0.0451148
0.0512035
0.0437145
0.0641433
0.0422745
0.0766782
0.0409225
0.0888373
0.0396612
0.100648
0.0384828
0.112136
0.0373763
0.0365327
0.123369
0.0102484
0.0230414
0.0240896
0.0312853
0.0379253
0.0312791
0.0513383
0.0303015
0.0643189
0.0292939
0.0768955
0.0283459
0.089097
0.0274597
0.10095
0.0266302
0.112477
0.0258488
0.0252617
0.123748
0.0102523
0.0127891
0.0241049
0.0174328
0.037954
0.01743
0.0513815
0.016874
0.0643777
0.0162977
0.0769709
0.0157527
0.0891896
0.015241
0.10106
0.0147603
0.112603
0.0143053
0.0139753
0.123889
0.0102377
0.00255141
0.0240751
0.00359537
0.0379102
0.00359481
0.0513258
0.00345846
0.0643123
0.0033112
0.0768981
0.00316689
0.0891117
0.00302741
0.100979
0.00289339
0.11252
0.0027638
0.00269099
0.123804
0.0102043
0.0239963
0.037787
0.0511618
0.0641117
0.0766656
0.088852
0.100696
0.11222
0.123495
0.13539
0.235726
-0.252364
0.149422
0.104898
-0.118931
0.159184
0.0357637
-0.0455255
0.166292
0.00533876
-0.0124464
0.172046
-0.00670776
0.00095332
0.177132
-0.0103644
0.00527899
0.181782
-0.0104171
0.00576672
0.18611
-0.00897985
0.00465215
0.190147
-0.00699878
0.0029615
-0.00476946
0.00102922
0.141429
0.213576
0.15643
0.0898968
0.166053
0.0261412
0.172587
-0.00119539
0.177518
-0.0116384
0.181624
-0.0144712
0.185222
-0.0140148
0.188457
-0.0122148
0.191389
-0.00993104
-0.00740874
0.145938
0.188222
0.16262
0.0732144
0.172252
0.0165091
0.178279
-0.00722152
0.182486
-0.0158462
0.185719
-0.0177039
0.188368
-0.0166633
0.190616
-0.0144636
0.19255
-0.0118648
-0.00905115
0.15058
0.159426
0.16832
0.0554742
0.177844
0.0069855
0.183401
-0.012779
0.186945
-0.0193894
0.189399
-0.0201582
0.191205
-0.0184689
0.192578
-0.0158369
0.193624
-0.0129114
-0.00980666
0.155352
0.126795
0.173318
0.0375081
0.182727
-0.00242354
0.18789
-0.0179416
0.190863
-0.0223625
0.192644
-0.0219389
0.193718
-0.0195436
0.194332
-0.0164505
0.194607
-0.0131871
-0.00979036
0.1591
0.0910643
0.177499
0.019109
0.186869
-0.0117933
0.191717
-0.0227897
0.194217
-0.0248626
0.195434
-0.0231562
0.195895
-0.0200047
0.195869
-0.0164243
0.195495
-0.0128124
-0.00912194
0.161863
0.0529494
0.180846
0.00012556
0.190243
-0.0211896
0.194856
-0.027403
0.196986
-0.026993
0.197756
-0.0239253
0.197724
-0.0199733
0.197182
-0.0158823
0.196282
-0.0119119
-0.00792513
0.163801
0.0130383
0.18335
-0.0194237
0.192817
-0.0306567
0.197284
-0.0318704
0.199154
-0.0288626
0.199594
-0.0243655
0.199194
-0.0195737
0.198264
-0.0149513
0.196965
-0.0106129
-0.00632704
0.164972
-0.028129
0.184977
-0.0394293
0.194567
-0.0402466
0.198983
-0.0362866
0.200705
-0.0305846
0.200939
-0.024599
0.200298
-0.0189331
0.199108
-0.0137606
0.19754
-0.00904544
-0.00445751
0.16536
0.185715
0.195474
0.199939
0.20163
0.201782
0.201029
0.199709
0.198005
0.223343
0.0491859
-0.272529
0.198379
0.0249646
0.187881
0.0104982
0.184502
0.00337869
0.184198
0.000304067
0.184987
-0.000788741
0.185993
-0.00100671
0.186844
-0.000850655
0.187395
-0.000551022
-0.000192661
0.236197
0.104605
-0.291616
0.209865
0.0512964
0.199117
0.0212464
0.195769
0.00672626
0.195566
0.000507747
0.196456
-0.00167948
0.197548
-0.00209838
0.19846
-0.00176292
0.19905
-0.00114075
-0.00039927
0.233086
0.158145
-0.286626
0.208118
0.0762645
0.198355
0.0310095
0.19555
0.00953131
0.195609
0.000448671
0.196618
-0.00268866
0.197761
-0.00324119
0.198693
-0.00269554
0.19929
-0.00173773
-0.000607494
0.22774
0.20828
-0.277875
0.205137
0.0988677
0.196928
0.0392187
0.194945
0.0115139
0.195395
-1.12944e-06
0.196579
-0.00387246
0.197796
-0.00445776
0.198756
-0.00365638
0.199363
-0.00234395
-0.000817525
0.221478
-0.265562
0.201415
0.195108
0.194176
0.195128
0.196534
0.197843
0.198839
0.199457
0.0408476
-0.00283138
-0.0380163
0.0506676
-0.00982001
0.067684
-0.0170164
0.0912374
-0.0235533
0.119653
-0.0284154
0.150688
-0.0310355
0.182454
-0.031766
0.213722
-0.0312674
0.244323
-0.030601
-0.0282065
0.084988
-0.00706903
-0.0807503
0.0973593
-0.0221913
0.116324
-0.0359808
0.139518
-0.0467477
0.164594
-0.0534911
0.190093
-0.0565345
0.215464
-0.0571368
0.240626
-0.0564296
0.266089
-0.056064
-0.0537342
0.0997205
-0.0110305
-0.0957591
0.110599
-0.0330698
0.126743
-0.0521248
0.146271
-0.0662759
0.167764
-0.0749838
0.19043
-0.0792005
0.213842
-0.0805487
0.237739
-0.0803271
0.262339
-0.0806638
-0.0780207
0.103282
-0.0145774
-0.0997348
0.113082
-0.04287
0.127775
-0.0668177
0.145857
-0.0843576
0.166121
-0.0952479
0.187733
-0.100813
0.210102
-0.102918
0.232898
-0.103123
0.255857
-0.103622
-0.100039
0.104116
-0.100745
0.113489
0.127636
0.145106
0.164609
0.185133
0.205892
0.226323
0.245038
0.106018
-0.0905556
0.0997394
-0.115201
0.0961906
-0.0932334
0.10306
0.085614
-0.0960095
0.106586
0.0743932
-0.0989951
0.110216
0.0625998
-0.1022
0.113994
0.0502745
-0.105636
0.117961
0.0374345
-0.109316
0.122157
0.0240931
-0.113144
0.126486
0.0105276
-0.114793
0.128359
-0.0887592
0.0992868
0.108009
-0.0802291
-0.118336
0.0973936
-0.0826179
0.0863417
-0.0849575
0.0748437
-0.0874971
0.0628892
-0.0902458
0.0504662
-0.0932127
0.0375597
-0.09641
0.0241655
-0.0997499
0.010554
-0.101182
-0.0782052
0.109731
-0.0694448
-0.120515
0.0986838
-0.0715712
0.0873059
-0.0735796
0.075562
-0.0757531
0.0634198
-0.0781036
0.0508493
-0.0806423
0.0378219
-0.0833826
0.0243229
-0.086251
0.0106174
-0.087476
-0.0675878
0.111185
-0.0584496
-0.12218
0.0998965
-0.0602828
0.088295
-0.0619781
0.0763512
-0.0638094
0.0640334
-0.0657858
0.051309
-0.0679179
0.038145
-0.0702185
0.0245216
-0.0726276
0.0107004
-0.0736548
-0.0568874
0.112291
-0.0473308
-0.123409
0.100857
-0.048849
0.089111
-0.0502322
0.0770277
-0.0517261
0.0645773
-0.0533353
0.0517281
-0.0550686
0.0384463
-0.0569368
0.0247106
-0.0588919
0.0107807
-0.0597249
-0.0461066
0.113065
-0.0361365
-0.124259
0.101543
-0.0373266
0.0897069
-0.0383964
0.0775325
-0.0395516
0.0649913
-0.0407942
0.0520527
-0.04213
0.0386832
-0.0435674
0.0248608
-0.0450695
0.010845
-0.0457091
-0.0352617
0.11353
-0.0249048
-0.124761
0.10196
-0.0257569
0.0900743
-0.0265108
0.0778478
-0.0273251
0.0652529
-0.0281993
0.0522598
-0.0291369
0.0388355
-0.0301431
0.0249578
-0.0311919
0.0108863
-0.0316375
-0.0243754
0.113716
-0.0136599
-0.12496
0.102127
-0.0141682
0.0902215
-0.0146055
0.077974
-0.0150776
0.0653573
-0.0155827
0.052342
-0.0161216
0.0388955
-0.0166965
0.0249957
-0.017292
0.0109017
-0.0175436
-0.0134736
0.11364
-0.00242276
-0.124877
0.102055
-0.002583
0.0901542
-0.00270491
0.0779124
-0.00283588
0.0653028
-0.00297298
0.0522959
-0.00311471
0.0388594
-0.00326005
0.0249711
-0.00340373
0.0108898
-0.00346224
-0.00258385
0.113305
-0.124532
0.101742
0.0898684
0.0776576
0.0650829
0.0521152
0.0387218
0.0248804
0.0108488
0.0160048
-0.200397
-0.0185062
0.013723
-0.202276
0.0115779
-0.204599
0.00953312
-0.20752
0.00756602
-0.21112
0.0056574
-0.215477
0.00380128
-0.220671
0.00207323
-0.226492
0.000166584
-0.227341
-0.173789
0.046252
-0.193452
-0.0531964
0.0398574
-0.195882
0.0338936
-0.198635
0.0282543
-0.201881
0.0228624
-0.205728
0.0176473
-0.210261
0.0125344
-0.215558
0.00741214
-0.221369
0.00280133
-0.22273
-0.170987
0.0715475
-0.183148
-0.0818516
0.0619453
-0.186279
0.0529358
-0.189626
0.0443734
-0.193319
0.0361472
-0.197502
0.0281545
-0.202269
0.0202906
-0.207694
0.0125088
-0.213588
0.00519274