/*--------------------------------*- C++ -*----------------------------------*\
  =========                 |
  \\      /  F ield         | OpenFOAM: The Open Source CFD Toolbox
   \\    /   O peration     | Website:  https://openfoam.org
    \\  /    A nd           | Version:  13
     \\/     M anipulation  |
\*---------------------------------------------------------------------------*/
FoamFile
{
    format      ascii;
    class       volVectorField;
    location    "0.0325";
    object      U;
}
// * * * * * * * * * * * * * * * * * * * * * * * * * * * * * * * * * * * * * //

dimensions      [0 1 -1 0 0 0 0];

internalField   nonuniform List<vector> 
1800
(
(0.984249 -0.855888 8.93488e-20)
(1.33542 -1.13225 3.38804e-20)
(1.36931 -1.0909 -8.60979e-19)
(1.36473 -1.02029 5.46264e-19)
(1.35729 -0.953183 1.03085e-18)
(1.34999 -0.892097 4.05675e-19)
(1.34309 -0.836447 -2.01709e-19)
(1.33654 -0.785591 -6.0006e-19)
(1.33073 -0.738223 -2.85911e-19)
(1.31402 -0.692853 -2.16321e-19)
(1.1198 -0.830089 -1.10803e-19)
(1.50862 -1.1025 -1.69678e-18)
(1.53697 -1.05995 7.97414e-21)
(1.52189 -0.990613 -3.45351e-19)
(1.5046 -0.924857 5.30333e-20)
(1.48842 -0.865012 9.9103e-19)
(1.4735 -0.810503 -7.72055e-19)
(1.45971 -0.760654 3.74502e-19)
(1.44709 -0.714327 6.29903e-19)
(1.42686 -0.673133 -3.07451e-19)
(1.2512 -0.784594 1.729e-19)
(1.67662 -1.04747 4.84297e-19)
(1.6993 -1.00434 7.04549e-19)
(1.67402 -0.937938 -3.30301e-19)
(1.64722 -0.875099 -1.24486e-18)
(1.6225 -0.81789 2.77013e-19)
(1.59988 -0.765748 4.80383e-19)
(1.57916 -0.718016 -1.70257e-20)
(1.56017 -0.673709 -4.08871e-21)
(1.53564 -0.634481 -8.27225e-21)
(1.37536 -0.72017 -1.89595e-19)
(1.83541 -0.968112 -5.24436e-19)
(1.85229 -0.925122 -4.23373e-19)
(1.81731 -0.863386 2.17836e-20)
(1.78154 -0.805087 3.57179e-19)
(1.74878 -0.752011 1.59911e-20)
(1.71896 -0.703636 -1.95918e-20)
(1.69176 -0.659341 4.43792e-19)
(1.66686 -0.618265 3.80496e-19)
(1.63846 -0.582364 -1.49197e-19)
(1.48919 -0.638024 2.48118e-19)
(1.98105 -0.865897 5.78167e-19)
(1.99205 -0.823814 -2.90621e-20)
(1.94807 -0.768457 -2.4545e-20)
(1.90408 -0.716225 -1.02069e-18)
(1.86398 -0.668666 7.50242e-21)
(1.82757 -0.625321 8.06035e-19)
(1.79445 -0.585626 2.23747e-19)
(1.76417 -0.548874 -4.95505e-21)
(1.73234 -0.517097 -1.83717e-19)
(1.58971 -0.539855 -2.97614e-20)
(2.1098 -0.742895 1.67869e-18)
(2.11487 -0.702481 1.40661e-18)
(2.06284 -0.655208 -8.69892e-19)
(2.01161 -0.610446 -7.39856e-19)
(1.96505 -0.569669 1.25391e-18)
(1.92285 -0.532507 -8.41077e-19)
(1.88453 -0.498471 -1.00628e-18)
(1.84956 -0.467014 6.63715e-19)
(1.81478 -0.440082 7.27751e-21)
(1.67418 -0.427874 9.44704e-19)
(2.21825 -0.60175 -2.35595e-18)
(2.21741 -0.563692 -3.89864e-18)
(2.15852 -0.526208 1.33816e-18)
(2.10125 -0.490134 1.885e-18)
(2.04929 -0.457236 -5.18368e-21)
(2.00227 -0.427254 -2.34118e-18)
(1.95962 -0.399791 3.9153e-20)
(1.92076 -0.374453 2.09072e-18)
(1.88354 -0.352991 5.32367e-19)
(1.74029 -0.304831 -5.13046e-19)
(2.30341 -0.445633 1.13436e-18)
(2.29673 -0.410437 3.00647e-18)
(2.2325 -0.384515 5.48797e-20)
(2.17055 -0.358105 -1.21934e-18)
(2.11443 -0.333975 -3.8928e-19)
(2.06368 -0.311984 0)
(2.01768 -0.291836 8.18026e-19)
(1.97584 -0.273286 -4.33592e-20)
(1.93678 -0.257811 -6.91973e-19)
(1.7864 -0.173733 -5.89707e-20)
(2.36246 -0.277897 3.15896e-18)
(2.35041 -0.246165 2.40976e-18)
(2.28278 -0.233696 -1.96213e-18)
(2.21767 -0.217545 -1.35163e-18)
(2.15872 -0.202815 3.65969e-19)
(2.10543 -0.189404 -1.46742e-18)
(2.05717 -0.177115 -1.12967e-18)
(2.01332 -0.165838 1.20033e-18)
(1.97304 -0.156745 1.00495e-18)
(1.81146 -0.0370435 6.88217e-19)
(2.39265 -0.102016 1.98326e-18)
(2.37733 -0.0756547 4.17069e-19)
(2.30806 -0.0778107 -2.7431e-18)
(2.24135 -0.0717783 -4.74759e-20)
(2.18096 -0.0668433 3.42333e-18)
(2.1264 -0.0623882 -1.871e-18)
(2.07699 -0.0583021 -8.96174e-19)
(2.03214 -0.0545911 3.65414e-19)
(1.99129 -0.052124 -7.66055e-19)
(0.0248632 -0.158497 9.53835e-20)
(0.114276 -0.209204 1.92347e-19)
(0.187373 -0.206314 -2.82818e-21)
(0.255851 -0.197532 -1.33784e-22)
(0.317822 -0.188985 -2.036e-21)
(0.373599 -0.181186 -6.51145e-20)
(0.423955 -0.17408 -1.79212e-20)
(0.469451 -0.167579 3.54904e-20)
(0.510898 -0.161579 -9.47162e-22)
(0.54235 -0.156834 3.18356e-21)
(0.05296 -0.281601 9.74044e-20)
(0.149671 -0.369389 1.64495e-19)
(0.221538 -0.360857 -1.57438e-19)
(0.287931 -0.341737 -5.42628e-20)
(0.347928 -0.323267 -2.6943e-20)
(0.401932 -0.306389 -8.57331e-20)
(0.450707 -0.29098 6.19948e-20)
(0.494797 -0.27687 4.01599e-20)
(0.534967 -0.263846 -3.6829e-20)
(0.565475 -0.25413 3.9413e-21)
(0.100709 -0.399194 4.17153e-20)
(0.210187 -0.522562 3.95043e-19)
(0.28004 -0.50863 9.85208e-20)
(0.342939 -0.479625 3.15376e-19)
(0.39961 -0.451688 4.92519e-20)
(0.450608 -0.426162 -2.97277e-19)
(0.496683 -0.402856 1.75978e-20)
(0.538351 -0.38152 1.01891e-19)
(0.576305 -0.361847 -7.34771e-20)
(0.605192 -0.347429 -2.39067e-20)
(0.167076 -0.508518 -8.30809e-20)
(0.294476 -0.665249 -1.02786e-19)
(0.361538 -0.646264 1.90032e-20)
(0.419567 -0.608031 -7.60869e-20)
(0.4716 -0.571286 -1.37532e-20)
(0.518399 -0.537731 1.61656e-19)
(0.560691 -0.50711 6.37495e-20)
(0.598956 -0.479095 -4.02019e-20)
(0.633793 -0.453312 1.07077e-20)
(0.6604 -0.434563 -2.06013e-21)
(0.250584 -0.606933 0)
(0.400638 -0.79412 6.17829e-20)
(0.464194 -0.770516 6.54189e-19)
(0.516037 -0.723915 -3.03738e-19)
(0.562182 -0.679215 -4.76685e-19)
(0.603643 -0.638434 1.76035e-19)
(0.64112 -0.60125 -3.45446e-20)
(0.675045 -0.567259 -5.51056e-20)
(0.705909 -0.536063 0)
(0.729587 -0.513447 -6.16998e-21)
(0.349332 -0.692006 -6.88275e-20)
(0.526241 -0.906075 4.92808e-19)
(0.585681 -0.878337 2.34119e-19)
(0.630113 -0.824419 1.33082e-19)
(0.669208 -0.7728 -1.10413e-19)
(0.704273 -0.725762 -2.39555e-19)
(0.735966 -0.682916 4.01535e-19)
(0.764668 -0.643799 2.94511e-20)
(0.790748 -0.608027 -2.48064e-19)
(0.810836 -0.582074 -4.57211e-21)
(0.461051 -0.761584 6.83782e-20)
(0.668397 -0.998337 7.3367e-19)
(0.72323 -0.966965 -4.48167e-20)
(0.759155 -0.906943 7.28378e-21)
(0.790161 -0.849592 2.23177e-19)
(0.817872 -0.797395 -3.13889e-19)
(0.842896 -0.749911 -2.91882e-19)
(0.865551 -0.706624 -2.61581e-19)
(0.886078 -0.667224 1.81438e-19)
(0.901874 -0.638493 1.95918e-19)
(0.583181 -0.813876 -9.60678e-20)
(0.823868 -1.06856 -3.74391e-19)
(0.873722 -1.03403 3.63889e-20)
(0.900219 -0.96923 -9.866e-20)
(0.922249 -0.907423 2.37309e-19)
(0.941772 -0.851234 6.15552e-19)
(0.959328 -0.800182 4.37465e-19)
(0.975167 -0.753719 -2.97712e-19)
(0.989389 -0.711677 -1.43085e-19)
(1.00008 -0.680676 1.95094e-19)
(0.712978 -0.847529 -4.61552e-19)
(0.989228 -1.11496 -1.74579e-18)
(1.03386 -1.0777 1.24625e-18)
(1.05025 -1.00949 8.31756e-19)
(1.06264 -0.944524 -5.99166e-19)
(1.07332 -0.885485 6.78194e-19)
(1.08274 -0.831861 6.16663e-20)
(1.09104 -0.783089 -7.69358e-19)
(1.09813 -0.739207 -1.73107e-19)
(1.10262 -0.705995 2.01102e-19)
(0.847634 -0.861678 -1.93698e-19)
(1.16098 -1.13637 -1.46171e-18)
(1.20027 -1.09681 -4.44584e-19)
(1.20621 -1.02662 6.59314e-19)
(1.20868 -0.959818 5.65494e-19)
(1.21031 -0.899063 -5.80503e-19)
(1.21144 -0.843798 -4.75049e-19)
(1.21204 -0.793449 2.75089e-19)
(1.21182 -0.74808 -2.50999e-19)
(1.20853 -0.710814 -1.80266e-19)
(0.651915 -0.127653 -8.04916e-20)
(0.823246 -0.0986363 1.59509e-19)
(0.894042 -0.0777664 2.87548e-20)
(0.935423 -0.0612324 -2.36179e-20)
(0.959252 -0.0475206 1.19719e-20)
(0.973358 -0.0359863 1.52123e-20)
(0.981894 -0.0262236 1.28641e-20)
(0.987057 -0.0178549 -3.39057e-21)
(0.990013 -0.0105037 -5.74105e-21)
(0.991678 -0.00349674 3.43972e-21)
(0.668695 -0.187749 -5.60781e-21)
(0.831445 -0.12957 -7.14401e-20)
(0.900156 -0.0942844 1.698e-21)
(0.940151 -0.0704268 2.85343e-20)
(0.963092 -0.0528378 6.40928e-20)
(0.976536 -0.0391436 0)
(0.984558 -0.0281175 1.34027e-20)
(0.989336 -0.0189672 1.18966e-21)
(0.992033 -0.0110942 6.01436e-22)
(0.993521 -0.00368104 -1.70702e-21)
(0.696893 -0.246098 4.73519e-21)
(0.843669 -0.160003 4.18527e-20)
(0.908399 -0.110705 -2.82597e-20)
(0.945969 -0.0795986 -6.10683e-21)
(0.967529 -0.0581239 -3.99309e-21)
(0.980061 -0.0422574 5.98118e-21)
(0.987437 -0.0299653 0)
(0.99176 -0.0200401 0)
(0.99416 -0.0116586 5.96728e-21)
(0.99545 -0.00385705 0)
(0.736005 -0.301601 -1.35223e-20)
(0.859985 -0.18955 -9.46457e-20)
(0.91872 -0.12687 6.0124e-21)
(0.952875 -0.0886725 0)
(0.972562 -0.0633361 -5.61054e-20)
(0.98393 -0.045301 1.34988e-20)
(0.990524 -0.0317499 0)
(0.994318 -0.0210632 -1.9134e-20)
(0.996382 -0.0121908 0)
(0.997455 -0.0040229 -2.32453e-21)
(0.785322 -0.353209 -1.45852e-20)
(0.880498 -0.217924 -6.56028e-20)
(0.931069 -0.142648 -4.33165e-21)
(0.960862 -0.0975801 0)
(0.978187 -0.0684343 -2.18694e-20)
(0.988135 -0.0482483 -2.96015e-20)
(0.99381 -0.0334538 7.26744e-21)
(0.996998 -0.0220249 1.88197e-21)
(0.998686 -0.0126843 2.37984e-21)
(0.999525 -0.00417631 3.64768e-21)
(0.843866 -0.399855 -3.20767e-19)
(0.905315 -0.24502 8.49709e-20)
(0.945421 -0.157945 2.36377e-21)
(0.969922 -0.106263 -5.13622e-20)
(0.984399 -0.0733816 3.72401e-20)
(0.99267 -0.0510741 -1.39846e-20)
(0.997284 -0.0350593 -3.7904e-20)
(0.999789 -0.0229135 3.10127e-20)
(1.00106 -0.0131322 -3.9168e-22)
(1.00165 -0.00431464 6.5298e-21)
(0.910362 -0.440488 1.74959e-20)
(0.934475 -0.270923 -2.16207e-20)
(0.961809 -0.17273 6.65976e-21)
(0.980056 -0.114681 1.61419e-21)
(0.991194 -0.0781474 3.72105e-20)
(0.997524 -0.053755 5.32363e-21)
(1.00093 -0.0365492 1.35311e-20)
(1.00268 -0.0237169 -6.50168e-21)
(1.00349 -0.013527 -4.6097e-21)
(1.0038 -0.00443486 -2.75332e-21)
(0.983142 -0.474376 1.03979e-19)
(0.967776 -0.295075 -9.99003e-21)
(0.980304 -0.186901 0)
(0.991272 -0.122796 -9.63876e-21)
(0.998565 -0.0827043 -3.10094e-20)
(1.00269 -0.0562704 3.52761e-21)
(1.00474 -0.0379077 3.92543e-20)
(1.00564 -0.0244235 -1.0796e-20)
(1.00596 -0.0138614 2.44925e-22)
(1.00599 -0.00453375 2.56593e-21)
(1.05848 -0.499862 -1.45567e-19)
(1.00396 -0.315148 -1.72523e-20)
(1.00035 -0.199545 -2.75604e-20)
(1.00337 -0.130182 6.22907e-21)
(1.00643 -0.0868579 -1.02574e-21)
(1.00812 -0.0585342 3.5214e-20)
(1.00869 -0.0390972 -1.46795e-20)
(1.00867 -0.0250162 8.39315e-22)
(1.00845 -0.0141275 -5.09698e-21)
(1.00818 -0.00461033 -8.8285e-21)
(1.12507 -0.519642 6.88393e-20)
(1.03302 -0.335564 -1.16916e-20)
(1.01607 -0.212792 2.56562e-20)
(1.01329 -0.137554 5.32138e-20)
(1.01327 -0.0906972 3.90849e-20)
(1.01312 -0.060429 1.97698e-20)
(1.01249 -0.0399779 4.6185e-21)
(1.01166 -0.0253935 0)
(1.01093 -0.0142693 7.85638e-21)
(1.01036 -0.00464336 -2.52092e-21)
(1.2459 -0.498606 -1.00818e-20)
(1.10165 -0.328597 -4.64903e-20)
(1.05486 -0.212316 7.25922e-20)
(1.03581 -0.138396 -9.56795e-21)
(1.02695 -0.0913541 -1.03178e-20)
(1.02183 -0.0606916 1.6009e-20)
(1.01834 -0.0399683 1.66217e-20)
(1.01584 -0.025267 -3.85117e-21)
(1.01419 -0.0141404 -7.27867e-22)
(1.01312 -0.00458051 3.1625e-21)
(1.29632 -0.437293 2.00047e-20)
(1.14547 -0.299764 -1.07002e-20)
(1.0871 -0.200196 -1.46649e-20)
(1.05749 -0.132743 3.79813e-21)
(1.0412 -0.0881921 -2.24909e-20)
(1.03134 -0.0586236 -1.8813e-20)
(1.0249 -0.0385217 -1.04653e-20)
(1.02062 -0.0242812 1.62193e-21)
(1.01796 -0.0135541 -3.72567e-21)
(1.01634 -0.00437892 4.08916e-21)
(1.33717 -0.372546 -4.7721e-20)
(1.18521 -0.266074 -4.55768e-21)
(1.11628 -0.182823 -3.66908e-21)
(1.07755 -0.123257 -2.43971e-36)
(1.05468 -0.0825547 6.18189e-21)
(1.04043 -0.0550265 4.62182e-35)
(1.0312 -0.036152 -7.51297e-21)
(1.02521 -0.0227566 -4.10685e-34)
(1.02156 -0.0126837 1.77324e-21)
(1.01938 -0.00409005 -5.09087e-21)
(1.36356 -0.30997 -1.30356e-34)
(1.21638 -0.230275 1.10636e-20)
(1.14089 -0.162328 3.17467e-21)
(1.09525 -0.111163 0)
(1.0669 -0.0750712 6.00301e-21)
(1.04881 -0.0502086 5.72594e-21)
(1.03705 -0.0330064 8.37807e-21)
(1.02946 -0.020762 -7.01298e-34)
(1.02489 -0.01156 3.72564e-21)
(1.02218 -0.00372305 5.16703e-21)
(1.38002 -0.251607 -1.64281e-21)
(1.24027 -0.193635 6.43651e-22)
(1.16113 -0.139601 0)
(1.11042 -0.0969584 0)
(1.07763 -0.0659974 0)
(1.05627 -0.0443016 0)
(1.04229 -0.0291548 -1.95878e-21)
(1.03328 -0.0183353 -7.92904e-34)
(1.02788 -0.0102022 1.82108e-21)
(1.0247 -0.00328296 6.48805e-34)
(1.38986 -0.197933 3.07439e-20)
(1.25811 -0.157019 0)
(1.1773 -0.115391 0)
(1.12298 -0.0811286 0)
(1.08673 -0.055616 0)
(1.06268 -0.0374651 0)
(1.04683 -0.0246875 3.79044e-21)
(1.0366 -0.0155272 -1.76116e-21)
(1.03047 -0.00863642 1.83654e-21)
(1.02688 -0.00277747 4.90611e-21)
(1.39542 -0.148619 0)
(1.27099 -0.12088 5.6423e-21)
(1.18971 -0.0902391 -8.97643e-22)
(1.13293 -0.0640866 0)
(1.09408 -0.0441981 7.18614e-23)
(1.06792 -0.029867 6.65948e-22)
(1.05055 -0.0197059 4.60477e-21)
(1.03933 -0.0123969 6.70451e-22)
(1.03261 -0.0068938 1.00309e-21)
(1.02868 -0.00221607 5.45888e-21)
(1.39832 -0.102906 -4.93012e-21)
(1.27982 -0.0853938 -2.05564e-21)
(1.19868 -0.0645318 3.17781e-21)
(1.14032 -0.0461863 7.17735e-36)
(1.09961 -0.0320022 -3.92467e-21)
(1.0719 -0.0216798 -9.64549e-37)
(1.0534 -0.0143196 3.7902e-21)
(1.04142 -0.0090107 1.09969e-20)
(1.03425 -0.00500967 1.71275e-21)
(1.03005 -0.00160947 -5.32141e-21)
(1.39912 -0.0608474 3.17549e-20)
(1.28491 -0.0515264 -4.93795e-21)
(1.20417 -0.0393351 -1.59605e-21)
(1.14491 -0.0283317 0)
(1.10305 -0.0197059 -9.69464e-22)
(1.07434 -0.0133775 -9.33024e-22)
(1.05509 -0.00884425 2.98851e-21)
(1.04261 -0.00556714 -5.67217e-22)
(1.03513 -0.00309563 2.51706e-21)
(1.03076 -0.000995122 5.20715e-21)
(1.3598 -0.0129337 0)
(1.25177 -0.0113587 0)
(1.17369 -0.00876669 0)
(1.1157 -0.00634434 0)
(1.07444 -0.00442574 0)
(1.04603 -0.00300977 0)
(1.02694 -0.00199175 3.80557e-21)
(1.01454 -0.00125447 -1.70665e-35)
(1.00712 -0.000695503 1.8617e-21)
(1.00278 -0.00022214 5.35165e-21)
(1.92145 -0.0455868 7.30464e-19)
(1.90597 -0.136112 4.60348e-20)
(1.87503 -0.223811 -7.23925e-20)
(1.82954 -0.306916 -3.03375e-19)
(1.77078 -0.383733 -6.44826e-20)
(1.70031 -0.452699 -1.22695e-19)
(1.62005 -0.51249 -4.03833e-19)
(1.53151 -0.562069 9.33625e-20)
(1.44054 -0.598908 0)
(1.33659 -0.642178 7.66149e-20)
(1.84319 -0.0342934 2.75473e-19)
(1.83172 -0.103139 -2.49298e-19)
(1.80894 -0.17015 -9.20113e-20)
(1.77546 -0.234105 -1.24467e-19)
(1.73217 -0.293865 1.14221e-19)
(1.68015 -0.348398 1.6988e-19)
(1.62083 -0.396812 -1.92363e-19)
(1.55461 -0.438673 -1.46524e-21)
(1.48828 -0.470079 -1.52217e-20)
(1.40629 -0.515773 3.75495e-20)
(1.78089 -0.026578 -9.50961e-20)
(1.77181 -0.0805402 2.67057e-19)
(1.75373 -0.133244 1.26798e-19)
(1.72715 -0.18388 -2.57708e-19)
(1.69282 -0.23167 -8.18299e-20)
(1.65159 -0.275889 3.70392e-19)
(1.60465 -0.315857 7.43501e-20)
(1.5523 -0.351357 -6.89291e-20)
(1.49955 -0.378933 -3.94911e-20)
(1.4384 -0.418229 -3.88384e-20)
(1.73175 -0.0206415 -3.39731e-19)
(1.72431 -0.0626738 -1.27917e-19)
(1.70946 -0.103841 1.18321e-19)
(1.68766 -0.143575 1.96383e-20)
(1.65954 -0.18133 -2.83215e-19)
(1.62586 -0.216592 -5.70793e-20)
(1.58759 -0.248856 1.89238e-19)
(1.54526 -0.277994 -1.49121e-20)
(1.502 -0.301334 3.71669e-20)
(1.45528 -0.333412 1.38608e-20)
(1.69322 -0.0158854 2.31248e-21)
(1.68691 -0.0483037 1.74274e-19)
(1.67432 -0.0801222 2.3855e-20)
(1.65584 -0.110945 8.45167e-20)
(1.63205 -0.140383 -7.499e-20)
(1.60364 -0.168065 -1.90444e-19)
(1.57142 -0.193614 2.84313e-20)
(1.53616 -0.216925 -5.27083e-20)
(1.49953 -0.236067 -2.17541e-20)
(1.46269 -0.26141 -2.33256e-20)
(1.66346 -0.0119974 -1.73509e-19)
(1.65795 -0.0364741 -5.08665e-20)
(1.64692 -0.060547 -5.07705e-20)
(1.63076 -0.0839452 8.10183e-20)
(1.60998 -0.106395 2.95574e-19)
(1.58523 -0.127628 -4.86171e-20)
(1.55723 -0.147361 4.36675e-21)
(1.52683 -0.165503 -8.34454e-20)
(1.49482 -0.180693 -1.21657e-19)
(1.46466 -0.200135 -9.15998e-21)
(1.64116 -0.00872956 -3.66595e-20)
(1.63619 -0.0264663 -1.08564e-19)
(1.62626 -0.0439482 -1.78e-19)
(1.6117 -0.0610002 -2.67429e-19)
(1.593 -0.0774391 1.1261e-19)
(1.57076 -0.093077 7.51265e-20)
(1.54562 -0.107713 -3.32449e-20)
(1.51852 -0.121266 7.4891e-20)
(1.48964 -0.132802 -4.53319e-20)
(1.4639 -0.147159 -3.82427e-20)
(1.62536 -0.00589852 7.0232e-20)
(1.62078 -0.0177228 -9.6911e-21)
(1.61159 -0.0294068 1.06779e-20)
(1.59812 -0.0408526 -2.46056e-20)
(1.58081 -0.0519512 -2.33244e-20)
(1.56023 -0.0625846 -9.35238e-20)
(1.53696 -0.072624 -4.20958e-20)
(1.51197 -0.0820105 1.14978e-19)
(1.48508 -0.09015 -3.72207e-20)
(1.46212 -0.100106 -2.56112e-20)
(1.61438 -0.00332364 -1.06469e-19)
(1.61013 -0.00983251 -3.72854e-20)
(1.60154 -0.0162998 1.6152e-19)
(1.58889 -0.0226963 -4.01355e-20)
(1.57259 -0.0289772 -4.22121e-20)
(1.55315 -0.0350831 8.02133e-20)
(1.53109 -0.0409414 -6.41613e-20)
(1.50734 -0.0465246 5.5568e-20)
(1.48154 -0.0514612 -4.75688e-20)
(1.46013 -0.0578667 -1.32317e-19)
(1.52892 -0.000604472 6.61783e-20)
(1.52582 -0.00150255 6.04985e-20)
(1.51985 -0.0024339 6.05321e-20)
(1.51109 -0.00341801 1.01007e-19)
(1.49966 -0.00446313 -4.79776e-20)
(1.48574 -0.00556457 -7.67463e-20)
(1.46951 -0.00671096 3.3011e-20)
(1.45166 -0.00787848 5.51248e-22)
(1.431 -0.00897732 -1.22165e-21)
(1.416 -0.011372 7.45314e-22)
(1.31571 0.688266 -3.84074e-20)
(1.32443 0.730082 3.15718e-20)
(1.33146 0.778684 -2.48684e-19)
(1.33816 0.831205 2.67306e-19)
(1.34537 0.887676 4.68279e-19)
(1.35297 0.949121 -1.69257e-19)
(1.36092 1.01641 -6.55183e-19)
(1.36775 1.08889 -1.14904e-19)
(1.34881 1.13848 -6.87592e-19)
(0.990096 0.928782 -8.35194e-20)
(1.43066 0.66658 0)
(1.44496 0.708388 4.18628e-19)
(1.45747 0.755254 8.98213e-19)
(1.47059 0.805921 -4.87984e-19)
(1.48504 0.860888 -1.21793e-18)
(1.50086 0.920995 -1.48466e-19)
(1.51812 0.986966 -1.87006e-19)
(1.53515 1.05805 6.94362e-19)
(1.5236 1.10543 1.64613e-18)
(1.12752 0.906346 7.37055e-19)
(1.53855 0.631294 7.08885e-20)
(1.55852 0.671417 0)
(1.57741 0.715627 -7.7184e-20)
(1.59747 0.763443 5.10503e-19)
(1.61946 0.815541 5.7866e-20)
(1.64364 0.872698 -1.48557e-18)
(1.67018 0.935577 9.47011e-19)
(1.69723 1.00341 7.8248e-19)
(1.69282 1.04684 -1.52785e-18)
(1.26086 0.86345 -3.47447e-19)
(1.63958 0.580597 -4.99709e-20)
(1.66466 0.617948 -5.52435e-20)
(1.68958 0.658835 1.81322e-19)
(1.71632 0.703039 -2.26632e-19)
(1.74562 0.751258 -1.15814e-18)
(1.77785 0.80421 -8.5735e-19)
(1.8133 0.862523 1.04056e-18)
(1.84991 0.925492 7.32534e-19)
(1.85208 0.963393 0)
(1.38659 0.800556 0)
(1.73217 0.516166 -7.34637e-19)
(1.76165 0.549766 -1.082e-18)
(1.79194 0.586423 -4.61396e-19)
(1.82472 0.626034 -4.27456e-20)
(1.8607 0.66926 0)
(1.90034 0.716745 1.75235e-19)
(1.944 0.769076 2.06128e-19)
(1.98935 0.825701 2.57936e-19)
(1.99721 0.856583 -3.99276e-19)
(1.50138 0.718771 -1.07107e-19)
(1.81391 0.43981 8.05149e-19)
(1.84707 0.468749 -6.29171e-20)
(1.88199 0.500239 -9.49352e-19)
(1.92005 0.534256 0)
(1.96189 0.571392 0)
(2.00806 0.612198 0)
(2.05897 0.657225 1.3776e-18)
(2.11195 0.706228 -1.86811e-18)
(2.12429 0.728679 -2.3208e-18)
(1.60213 0.619789 4.33066e-19)
(1.88244 0.35333 -1.12761e-18)
(1.91858 0.376837 -2.30698e-18)
(1.95735 0.402314 -3.86205e-21)
(1.9998 0.429829 4.24269e-19)
(2.04655 0.459881 -5.38068e-20)
(2.0982 0.492923 1.07811e-18)
(2.1552 0.529498 -6.06092e-19)
(2.21449 0.56996 -2.37732e-18)
(2.22979 0.582612 1.63824e-19)
(1.68607 0.505773 1.63497e-19)
(1.93578 0.258681 -9.56183e-19)
(1.97418 0.276149 2.85299e-20)
(2.01593 0.294911 3.62013e-19)
(2.06179 0.315158 -3.28913e-19)
(2.11236 0.337278 4.7026e-19)
(2.1683 0.361616 1.54452e-18)
(2.23011 0.388787 -3.17532e-19)
(2.29429 0.420433 -1.38252e-18)
(2.31076 0.422048 6.81607e-19)
(1.75077 0.379264 2.57907e-19)
(1.97233 0.15801 3.28041e-19)
(2.01227 0.169006 1.34596e-19)
(2.05606 0.18053 -4.14618e-19)
(2.10426 0.192933 -7.82765e-19)
(2.15745 0.206473 1.49858e-19)
(2.21632 0.221316 1.75855e-19)
(2.28142 0.238096 -1.71346e-18)
(2.34949 0.261309 7.58333e-19)
(2.36537 0.251356 5.47735e-19)
(1.79375 0.243404 -5.00732e-19)
(1.99103 0.0536269 7.07518e-19)
(2.03178 0.0578896 -1.0084e-18)
(2.07661 0.0618554 2.38967e-19)
(2.126 0.0660827 2.05424e-18)
(2.18053 0.070707 1.16692e-18)
(2.24088 0.075723 -2.56144e-18)
(2.30765 0.0803752 -3.21867e-18)
(2.37744 0.0949621 1.96162e-18)
(2.39306 0.0764093 -1.79367e-20)
(1.8141 0.103275 -2.91957e-19)
(0.544092 0.159155 -2.97878e-19)
(0.515987 0.164262 -2.69047e-19)
(0.475353 0.170127 1.80361e-19)
(0.429175 0.176588 -6.19353e-19)
(0.378848 0.18364 -9.79266e-20)
(0.323279 0.19139 5.57797e-19)
(0.261573 0.19995 1.9937e-19)
(0.193063 0.209221 -1.73213e-19)
(0.119489 0.214923 -5.29481e-20)
(0.0269275 0.169876 5.97851e-20)
(0.566966 0.255719 2.4158e-19)
(0.539801 0.266501 3.7364e-19)
(0.500449 0.279193 4.15737e-20)
(0.455704 0.293241 -1.89213e-19)
(0.406971 0.308534 -6.00029e-19)
(0.353193 0.325295 6.91878e-20)
(0.2935 0.343747 4.89333e-19)
(0.227199 0.363719 -5.94404e-20)
(0.155147 0.377364 3.54921e-20)
(0.0547726 0.300542 1.28592e-20)
(0.60622 0.34827 -2.84454e-19)
(0.580712 0.364447 -3.34674e-19)
(0.543576 0.383597 2.82487e-19)
(0.501283 0.404838 2.88025e-19)
(0.455261 0.427956 -7.14705e-20)
(0.404505 0.453285 -3.03941e-19)
(0.348185 0.481156 -9.68156e-20)
(0.28557 0.511329 1.97382e-19)
(0.216049 0.532552 1.01562e-21)
(0.102296 0.425557 1.42117e-20)
(0.66073 0.434657 1.76954e-19)
(0.637567 0.455841 4.14603e-20)
(0.603549 0.480918 -2.24186e-19)
(0.564694 0.508792 2.6044e-19)
(0.52246 0.539143 -1.53735e-19)
(0.475917 0.572407 1.01456e-19)
(0.424288 0.609018 4.02906e-20)
(0.366789 0.648669 -2.20233e-19)
(0.300827 0.676933 -1.73302e-19)
(0.168488 0.542151 6.69069e-20)
(0.72897 0.512821 -6.86313e-20)
(0.708809 0.538517 -3.78364e-20)
(0.678768 0.568839 -4.88489e-20)
(0.644295 0.602624 -7.41658e-20)
(0.606877 0.639446 2.29701e-20)
(0.56568 0.67983 -2.67112e-19)
(0.519995 0.724303 3.62648e-19)
(0.468968 0.772497 2.2868e-19)
(0.407587 0.807075 2.68289e-19)
(0.251929 0.647634 2.51914e-19)
(0.809027 0.580794 7.15029e-20)
(0.792498 0.610414 2.95633e-20)
(0.767249 0.645161 3.34288e-19)
(0.738051 0.68399 1.0053e-19)
(0.706419 0.72637 6.30183e-20)
(0.671626 0.772899 -7.75897e-20)
(0.633043 0.824182 1.66056e-19)
(0.589739 0.879784 1.41262e-19)
(0.533921 0.919768 2.17097e-19)
(0.350787 0.739467 2.04005e-19)
(0.898674 0.636728 -1.04582e-19)
(0.886375 0.669593 9.0246e-20)
(0.866682 0.707822 -1.67121e-20)
(0.843607 0.750708 1.45248e-19)
(0.818662 0.797613 6.20635e-20)
(0.791239 0.849185 3.0702e-19)
(0.7608 0.906085 -1.11594e-19)
(0.726324 0.967807 -1.59467e-19)
(0.676959 1.01212 -5.66402e-20)
(0.462848 0.815364 2.91605e-19)
(0.995255 0.678845 1.19513e-19)
(0.987782 0.714134 6.19538e-20)
(0.97443 0.754819 -4.58067e-19)
(0.958329 0.800717 -5.88371e-20)
(0.94093 0.851069 1.11312e-19)
(0.921752 0.906526 -2.10185e-19)
(0.900358 0.967779 7.52593e-22)
(0.875632 1.03424 -9.24275e-20)
(0.833458 1.08169 1.82629e-20)
(0.585575 0.873406 -2.60592e-19)
(1.09587 0.70513 3.10984e-20)
(1.09417 0.742216 -3.22224e-19)
(1.08815 0.784314 -1.69057e-21)
(1.07986 0.832175 1.68236e-19)
(1.07073 0.884918 -1.20704e-19)
(1.06047 0.943124 2.91137e-19)
(1.04878 1.00746 2.64992e-19)
(1.03445 1.07725 -6.03611e-19)
(0.999964 1.12662 -9.07625e-20)
(0.716235 0.912159 -3.91709e-19)
(1.19316 0.711304 -1.35603e-19)
(1.20053 0.750143 -1.43769e-19)
(1.20409 0.793468 2.20684e-19)
(1.20503 0.842977 2.65476e-19)
(1.20512 0.89751 1.57755e-19)
(1.20445 0.95758 -2.32414e-19)
(1.20297 1.02387 -8.07331e-20)
(1.19944 1.09563 1.19402e-19)
(1.17288 1.1457 -3.85859e-19)
(0.851988 0.930729 -3.11265e-19)
(0.535448 0.0238854 1.12875e-19)
(1.20859 0.0274622 -4.81251e-20)
(0.971693 0.0318101 5.61492e-20)
(0.985025 0.0365977 0)
(0.976737 0.0438389 3.10632e-20)
(0.961803 0.053492 3.77844e-20)
(0.937637 0.0657789 4.83824e-20)
(0.895626 0.0812154 9.8446e-20)
(0.827561 0.101416 -1.34915e-19)
(0.654331 0.129991 -1.54776e-19)
(0.535416 0.0234541 4.36635e-20)
(1.20933 0.0274434 -2.0923e-19)
(0.972729 0.0342133 -9.81826e-21)
(0.986803 0.038921 -2.82508e-20)
(0.97925 0.0472019 1.44489e-20)
(0.965138 0.0589037 -1.89452e-20)
(0.941966 0.0749606 -1.16954e-19)
(0.901497 0.0975516 0)
(0.83546 0.132205 3.09326e-19)
(0.671721 0.189783 -2.96176e-19)
(0.535277 0.0229218 -2.3214e-19)
(1.21021 0.0273348 -1.41444e-20)
(0.973682 0.0364393 2.27357e-20)
(0.988722 0.0410831 1.11869e-20)
(0.982072 0.0504375 -3.29907e-20)
(0.969043 0.0642231 7.48776e-22)
(0.947348 0.084079 -8.24357e-20)
(0.909511 0.113779 -9.8035e-21)
(0.847274 0.162501 1.0793e-22)
(0.700961 0.247784 7.36881e-19)
(0.535029 0.0223731 1.31616e-19)
(1.21122 0.027163 1.23626e-19)
(0.974548 0.0384457 5.54104e-20)
(0.990796 0.0430497 2.46494e-20)
(0.985217 0.0535148 -1.59549e-20)
(0.973531 0.0694086 -2.11671e-20)
(0.953801 0.0930653 1.21852e-19)
(0.919621 0.129759 -3.28768e-21)
(0.863121 0.191958 -3.77563e-19)
(0.741459 0.302874 7.49871e-20)
(0.534666 0.0218991 -7.95154e-20)
(1.2123 0.0269478 -6.12911e-20)
(0.975321 0.0401834 -5.66227e-20)
(0.993044 0.0447915 1.33699e-20)
(0.9887 0.0564081 0)
(0.978613 0.0744241 0)
(0.961336 0.10186 1.03631e-19)
(0.931787 0.145381 1.43371e-21)
(0.883158 0.220351 -1.79146e-19)
(0.792383 0.35396 1.09472e-19)
(0.534171 0.0215948 -5.03412e-20)
(1.21339 0.0266976 1.46087e-19)
(0.975993 0.0415925 -7.90413e-20)
(0.995493 0.0462877 -2.1623e-20)
(0.992535 0.0590983 -1.09439e-21)
(0.984301 0.07924 8.61053e-20)
(0.969971 0.110417 1.60343e-19)
(0.945998 0.160573 -4.18877e-22)
(0.907542 0.247687 2.92328e-19)
(0.852614 0.399898 -2.30343e-19)
(0.53352 0.0215575 -2.67343e-20)
(1.21439 0.0264049 -1.3976e-20)
(0.976561 0.0426016 2.60942e-20)
(0.998172 0.0475295 -4.5008e-20)
(0.996733 0.0615729 3.42876e-21)
(0.990603 0.0838333 -1.58774e-21)
(0.979723 0.118702 -8.49059e-21)
(0.962319 0.175283 -2.80227e-19)
(0.936302 0.27391 2.2356e-19)
(0.920756 0.439707 -5.10191e-19)
(0.532678 0.0218806 1.05269e-19)
(1.21521 0.0260418 -2.38428e-19)
(0.97703 0.0431253 1.125e-21)
(1.00112 0.048526 2.50136e-20)
(1.0013 0.0638229 1.77255e-21)
(0.997527 0.088181 -1.00767e-19)
(0.990621 0.126681 -8.7331e-20)
(0.980812 0.189427 5.01155e-19)
(0.9694 0.298337 9.69515e-21)
(0.99511 0.473302 8.09583e-19)
(0.531602 0.022664 -1.2363e-19)
(1.21572 0.0255635 1.41694e-19)
(0.977418 0.0430674 -1.4714e-19)
(1.00438 0.0492906 -3.02749e-20)
(1.00622 0.0657835 -1.09284e-19)
(1.00505 0.0920908 2.22522e-21)
(1.00262 0.133855 -1.21101e-19)
(1.00133 0.201712 6.48525e-19)
(1.00686 0.317372 -6.35663e-21)
(1.07355 0.497747 -1.114e-18)
(0.530234 0.0239271 4.94919e-20)
(1.216 0.0250376 2.79102e-19)
(0.97783 0.0423546 5.81664e-20)
(1.0078 0.0497271 -7.18011e-20)
(1.01089 0.0673165 -1.03966e-19)
(1.01169 0.0956225 -8.61969e-20)
(1.01243 0.141045 -2.1783e-19)
(1.01697 0.215121 -6.22223e-19)
(1.0358 0.338752 -3.49553e-19)
(1.1383 0.523352 -1.34874e-18)
(0.533572 0.0241521 -1.38538e-19)
(1.21714 0.0246373 -6.11381e-20)
(0.980269 0.0402261 -2.97561e-20)
(1.01261 0.0492663 3.42265e-20)
(1.01881 0.0672076 6.99904e-20)
(1.02464 0.0959599 -5.96444e-20)
(1.03405 0.141551 1.99992e-19)
(1.05404 0.214043 -6.19498e-19)
(1.09903 0.329219 -2.44457e-19)
(1.24409 0.497958 7.65783e-19)
(0.533551 0.0224409 1.19531e-19)
(1.21952 0.0242423 1.56144e-20)
(0.98461 0.0369335 7.69196e-20)
(1.01777 0.0471687 7.88415e-20)
(1.02747 0.0647828 1.10808e-19)
(1.0384 0.0926978 1.72169e-19)
(1.0556 0.136171 4.15192e-20)
(1.08697 0.202988 3.28755e-19)
(1.14504 0.30211 4.22829e-19)
(1.29857 0.441084 -4.36795e-20)
(0.533558 0.0203599 -1.36288e-19)
(1.22173 0.023017 -1.09726e-19)
(0.988757 0.0335794 -9.58621e-20)
(1.023 0.0439703 6.79971e-21)
(1.03584 0.0606964 3.12687e-34)
(1.05139 0.0867652 -1.21579e-20)
(1.07535 0.126523 -7.38154e-34)
(1.11589 0.185525 2.58422e-20)
(1.18407 0.267868 -6.05638e-20)
(1.33856 0.375148 -4.93741e-20)
(0.53366 0.0178492 1.6175e-19)
(1.22376 0.0210308 -1.02169e-33)
(0.992519 0.0299486 9.4989e-20)
(1.02798 0.0398804 -3.41784e-20)
(1.04359 0.0552853 -4.6301e-20)
(1.06318 0.0788897 -5.72054e-20)
(1.09278 0.114157 -9.28115e-34)
(1.1402 0.164799 -1.38922e-19)
(1.21481 0.231617 -1.75916e-19)
(1.36433 0.312128 9.85413e-20)
(0.533833 0.0149097 0)
(1.22562 0.0184005 -4.10146e-35)
(0.995872 0.0259755 0)
(1.03253 0.0350186 0)
(1.05053 0.0487079 0)
(1.07356 0.0693526 0)
(1.10769 0.0996105 -5.65141e-34)
(1.16013 0.141775 0)
(1.2384 0.194673 -2.48418e-20)
(1.38014 0.253457 6.13138e-20)
(0.534065 0.011554 1.41106e-19)
(1.22734 0.0152399 -9.02405e-21)
(0.998791 0.021661 9.32009e-20)
(1.03653 0.0295003 0)
(1.05651 0.04114 0)
(1.08235 0.0584454 1.01801e-20)
(1.12004 0.0833781 4.02526e-20)
(1.17601 0.117216 -1.9024e-20)
(1.25604 0.157828 -3.78741e-20)
(1.38938 0.199459 2.19752e-19)
(0.534354 0.00778796 6.58141e-20)
(1.22895 0.0116647 9.11945e-21)
(1.00125 0.0170546 9.23511e-20)
(1.03987 0.0234451 -1.1532e-20)
(1.06143 0.032765 -1.65607e-20)
(1.08946 0.0464525 -1.23076e-20)
(1.12982 0.0658888 -3.01262e-20)
(1.18817 0.0916896 -5.55959e-20)
(1.26879 0.121509 -7.3595e-20)
(1.39444 0.149819 1.35418e-19)
(0.534707 0.00365251 -1.87292e-19)
(1.23047 0.00778513 -1.96176e-19)
(1.00324 0.0122428 8.92149e-20)
(1.04245 0.0169792 -5.612e-21)
(1.06518 0.0237712 1.11327e-34)
(1.09482 0.0336459 1.09045e-20)
(1.13707 0.0475085 -1.33916e-33)
(1.19695 0.0655922 -1.93258e-20)
(1.27754 0.0858554 2.47695e-20)
(1.39698 0.103777 3.2355e-20)
(0.535065 -0.00139837 2.79418e-19)
(1.23171 0.0042972 -1.05282e-20)
(1.00452 0.00736553 9.07933e-20)
(1.044 0.0104438 5.40227e-21)
(1.06749 0.0146431 8.05979e-21)
(1.09819 0.0206974 2.2196e-20)
(1.14164 0.0291195 1.43651e-20)
(1.20241 0.0399554 -2.42758e-21)
(1.28273 0.0517939 -2.16737e-20)
(1.39774 0.0614328 1.51763e-19)
(0.524285 -0.00371455 1.44555e-19)
(1.20174 -0.000973558 -5.61542e-34)
(0.976974 0.00207632 9.01938e-20)
(1.01617 0.00232992 0)
(1.03941 0.00329499 0)
(1.06984 0.00465908 1.12289e-20)
(1.11273 0.00654521 -1.09341e-35)
(1.17231 0.0089602 -1.93728e-20)
(1.25024 0.0115282 -3.70912e-20)
(1.35922 0.0133013 7.2614e-20)
(1.35339 0.618731 -2.12363e-19)
(1.43875 0.600571 -3.27859e-19)
(1.53045 0.563527 0)
(1.61719 0.514023 5.92768e-20)
(1.69707 0.45396 3.4576e-19)
(1.76774 0.38469 -2.101e-19)
(1.82703 0.307618 1.18852e-18)
(1.87319 0.224308 -9.77247e-21)
(1.90487 0.136469 -4.14504e-19)
(1.9211 0.0459163 3.14921e-19)
(1.41014 0.500984 6.70955e-20)
(1.47976 0.476166 1.36993e-19)
(1.55281 0.439947 7.33323e-21)
(1.61936 0.397422 1.38702e-19)
(1.67903 0.348743 -1.458e-19)
(1.73111 0.294233 -4.2422e-19)
(1.77451 0.234607 -2.021e-20)
(1.80818 0.170805 6.34297e-19)
(1.83122 0.103915 -1.54539e-20)
(1.84302 0.0351137 -4.95401e-19)