/*--------------------------------*- C++ -*----------------------------------*\
  =========                 |
  \\      /  F ield         | OpenFOAM: The Open Source CFD Toolbox
   \\    /   O peration     | Website:  https://openfoam.org
    \\  /    A nd           | Version:  13
     \\/     M anipulation  |
\*---------------------------------------------------------------------------*/
FoamFile
{
    format      ascii;
    class       volScalarField;
    location    "53.5";
    object      p;
}
// * * * * * * * * * * * * * * * * * * * * * * * * * * * * * * * * * * * * * //

dimensions      [0 2 -2 0 0 0 0];

internalField   nonuniform List<scalar> 
440
(
-0.786268
-0.805118
-0.875166
-0.829285
-0.889785
-0.746479
-0.747875
-0.762847
-0.77275
-0.776824
-0.837664
-0.807763
-0.783002
-0.753548
-0.716103
-0.952671
-0.906894
-0.833378
-0.744899
-0.652465
-1.0401
-0.977312
-0.839769
-0.695071
-0.561487
-1.33901
-1.31983
-1.30091
-1.29974
-1.32227
-1.26861
-1.23511
-1.19395
-1.1611
-1.14148
-1.18393
-1.18512
-1.20007
-1.2179
-1.23506
-0.962186
-1.01585
-1.11152
-1.19037
-1.19894
-0.332974
-0.503471
-0.691578
-0.766714
-0.741889
-1.35189
-1.79532
-0.794406
-0.809946
0.0604038
-0.663495
-1.67087
-0.970653
-0.671013
0.0175925
-0.426985
-1.50479
-1.20176
-0.575807
-0.0104498
-0.249074
-1.27165
-1.3682
-0.517082
-0.0270073
-0.191531
-0.893279
-1.43493
-0.482248
-0.0423658
0.122084
-0.490963
-1.3934
-0.438002
-0.0641777
-0.13701
-0.382557
-1.01604
-0.36669
-0.0848002
-0.0566079
-0.0724638
-0.627874
-0.306898
-0.0998591
-0.0882368
-0.0155546
-0.44462
-0.286579
-0.104834
-0.0258025
0.0990862
-0.242449
-0.276674
-0.117388
-0.329847
-0.470436
-0.625407
-0.791788
-0.898457
-0.092408
-0.220481
-0.296183
-0.331917
-0.340227
0.0616487
-0.0406672
-0.108438
-0.143833
-0.158557
0.160158
0.063239
-0.00994808
-0.0569309
-0.0857249
0.205487
0.109256
0.0330229
-0.0125094
-0.0334154
0.919128
0.785825
0.616886
0.423084
0.200122
0.531453
0.381784
0.194957
-0.0171653
-0.258501
0.145861
-0.0103357
-0.207663
-0.43289
-0.644929
-0.182995
-0.345007
-0.541777
-0.754533
-0.915763
-0.41307
-0.57022
-0.750381
-0.937443
-1.04034
2.10912
2.14228
2.17541
2.19599
2.19871
1.93139
1.95353
1.97209
1.97511
1.95737
1.71135
1.70493
1.6779
1.62913
1.55528
1.4565
1.42494
1.36067
1.26643
1.14307
1.19706
1.10854
0.988417
0.843107
0.664799
1.8383
1.82824
1.82145
1.87228
1.98626
1.82908
1.81793
1.80551
1.84817
1.90741
1.82081
1.80282
1.78683
1.81103
1.81049
1.81372
1.78529
1.76536
1.76347
1.66016
1.80771
1.76718
1.74172
1.71041
1.49657
1.80332
1.73657
1.70938
1.61823
1.31691
1.80252
1.70273
1.68609
1.51804
1.31819
1.81041
1.68707
1.66747
1.45895
1.26058
1.80198
1.66505
1.6596
1.41943
1.21754
1.84225
1.65603
1.65979
1.39779
1.20409
0.888468
0.612407
0.289774
0.0239139
-0.175375
0.830243
0.632688
0.41019
0.219848
0.0441265
0.843637
0.683658
0.512096
0.347256
0.191702
0.88448
0.74117
0.588125
0.429985
0.287405
0.906409
0.769895
0.625454
0.47066
0.33509
-1.77498
-1.59427
-1.39745
-1.23242
-1.13342
-1.83584
-1.75545
-1.59684
-1.45712
-1.36192
-1.74231
-1.68827
-1.57914
-1.46952
-1.3774
-1.56992
-1.51962
-1.45652
-1.38747
-1.31906
-1.39945
-1.37213
-1.33312
-1.29741
-1.2795
-1.30402
-1.29426
-1.2478
-1.27399
-1.2352
-1.28306
-1.27097
-1.24038
-1.25303
-1.22358
-1.29538
-1.27976
-1.25531
-1.23426
-1.22123
-1.33683
-1.32353
-1.30488
-1.2883
-1.29004
-1.35871
-1.34738
-1.33433
-1.33124
-1.34627
-1.12796
-0.880109
-0.767802
-0.41527
0.165347
-1.15753
-0.982815
-0.884639
-0.602881
0.172556
-1.07704
-1.17346
-1.02483
-0.786711
0.159142
-1.09234
-1.46947
-0.98006
-0.879294
0.131071
-1.29285
-1.73143
-0.816901
-0.897331
0.0986682
-0.537546
-0.977652
-0.808754
-0.312325
0.152347
-0.981125
-0.944269
-0.732374
-0.30159
0.154807
-1.07753
-1.30109
-1.28805
-1.21095
-0.945968
-1.09905
-1.31288
-1.31022
-1.24117
-1.19568
1.70753
1.67467
1.62198
1.55085
1.4577
1.90498
1.92147
1.92024
1.89958
1.86023
2.07601
2.10661
2.12717
2.13374
2.12535
2.17547
2.21481
2.25641
2.29023
2.30514
2.18856
2.22758
2.27113
2.30788
2.32514
-0.634099
-0.757642
-0.951102
-1.18139
-1.46514
0.0227833
-0.132047
-0.337621
-0.58611
-0.914595
0.622963
0.463397
0.271315
0.0434434
-0.251562
1.10441
0.979041
0.826912
0.641816
0.412672
1.48664
1.39838
1.28271
1.14306
0.977215
1.89941
1.85815
1.84923
1.85318
1.86406
1.88433
1.85551
1.84852
1.87119
1.93301
1.87145
1.8514
1.8485
1.89048
2.01392
1.85946
1.84587
1.84305
1.89514
2.02727
1.84838
1.83848
1.83377
1.88931
2.02488
1.95439
1.86299
1.83585
1.77369
1.73729
1.90946
1.85445
1.83134
1.79661
1.7432
1.3609
1.11822
0.695483
0.0787812
-0.595445
1.45151
1.1553
0.711973
0.0999051
-0.588046
)
;

boundaryField
{
    left
    {
        type            zeroGradient;
    }
    right
    {
        type            fixedValue;
        value           uniform 0;
    }
    down
    {
        type            zeroGradient;
    }
    up
    {
        type            zeroGradient;
    }
    cylinder
    {
        type            zeroGradient;
    }
    defaultFaces
    {
        type            empty;
    }
}


// ************************************************************************* //
