/*--------------------------------*- C++ -*----------------------------------*\
  =========                 |
  \\      /  F ield         | OpenFOAM: The Open Source CFD Toolbox
   \\    /   O peration     | Website:  https://openfoam.org
    \\  /    A nd           | Version:  13
     \\/     M anipulation  |
\*---------------------------------------------------------------------------*/
FoamFile
{
    format      ascii;
    class       volVectorField;
    location    "0.745";
    object      U;
}
// * * * * * * * * * * * * * * * * * * * * * * * * * * * * * * * * * * * * * //

dimensions      [0 1 -1 0 0 0 0];

internalField   nonuniform List<vector> 
440
(
(0.218257 -0.176692 -1.81132e-19)
(0.613076 -0.436654 1.07868e-18)
(0.984293 -0.640906 4.23137e-19)
(1.32755 -0.795398 1.24313e-18)
(1.63258 -0.916774 -2.59976e-19)
(0.304891 -0.177682 -5.44466e-19)
(0.819131 -0.428697 -1.01955e-18)
(1.27997 -0.618899 1.14524e-19)
(1.6919 -0.76164 -1.21511e-18)
(2.05375 -0.875121 -1.02099e-18)
(0.384878 -0.152406 -6.98059e-19)
(1.00468 -0.363013 1.58977e-18)
(1.53975 -0.518385 -1.93458e-18)
(2.00471 -0.632634 1.37968e-18)
(2.40594 -0.721481 1.42962e-18)
(0.445865 -0.102745 5.62386e-19)
(1.14609 -0.243083 -1.29949e-18)
(1.73743 -0.344811 -7.50802e-19)
(2.24293 -0.418221 1.96647e-18)
(2.67445 -0.474465 2.50022e-18)
(0.479254 -0.0361581 6.86899e-19)
(1.22363 -0.0847541 1.69137e-19)
(1.84589 -0.119363 2.53129e-18)
(2.37401 -0.143864 -1.062e-18)
(2.82294 -0.162495 -4.83732e-19)
(-0.000920691 -0.0518331 2.73757e-19)
(0.0500256 -0.144739 -3.84713e-19)
(0.105942 -0.222932 1.11076e-18)
(0.171462 -0.292866 -1.76945e-19)
(0.239614 -0.35453 -1.60235e-18)
(0.0137154 -0.084392 -2.63112e-19)
(0.0892722 -0.228052 -4.27831e-19)
(0.174059 -0.350537 1.10256e-19)
(0.268318 -0.450557 5.95265e-20)
(0.364565 -0.530733 -3.56729e-20)
(0.0433447 -0.11428 7.05089e-20)
(0.16545 -0.303242 5.29899e-19)
(0.296137 -0.467538 9.50819e-20)
(0.432822 -0.599077 1.45693e-18)
(0.56787 -0.697695 -2.49559e-20)
(0.0866168 -0.140991 6.69706e-20)
(0.276367 -0.36783 -3.53467e-20)
(0.46949 -0.563045 2.18319e-19)
(0.661409 -0.718598 -2.03396e-18)
(0.844126 -0.830567 9.56746e-19)
(0.14212 -0.161716 -2.35718e-19)
(0.420078 -0.412844 -4.42422e-19)
(0.691403 -0.621477 -7.69986e-19)
(0.950157 -0.782433 9.52878e-19)
(1.18523 -0.892883 3.45206e-18)
(0.592607 -0.592543 -4.03322e-18)
(0.962816 -0.51796 9.89031e-19)
(1.29595 -0.213356 3.69603e-19)
(1.49704 -0.0335967 -5.86519e-19)
(1.56701 0.00222862 -6.40557e-20)
(0.785252 -0.744029 4.83167e-18)
(1.04342 -0.624801 -3.07771e-19)
(1.3197 -0.286775 -1.43348e-19)
(1.53934 -0.0785316 3.85212e-19)
(1.66743 -0.015764 1.32411e-19)
(1.03637 -0.878528 1.5453e-18)
(1.1779 -0.710893 4.04472e-18)
(1.34148 -0.358458 6.88588e-20)
(1.54829 -0.127131 3.77765e-19)
(1.69124 -0.0412517 -4.95636e-20)
(1.33057 -0.988996 1.21762e-18)
(1.359 -0.772127 -4.21403e-19)
(1.38581 -0.420074 -7.69028e-19)
(1.53047 -0.169492 -2.88097e-19)
(1.65178 -0.0630707 7.9417e-20)
(1.62991 -1.04768 5.05041e-21)
(1.5555 -0.811668 -1.71855e-18)
(1.4482 -0.468627 0)
(1.49486 -0.22011 3.11156e-19)
(1.53252 -0.0784097 7.5455e-20)
(2.15635 -1.11549 -1.57977e-18)
(1.83427 -0.800913 -4.91217e-19)
(1.55913 -0.457005 -9.62825e-21)
(1.39145 -0.21253 7.47166e-20)
(1.34432 -0.0761806 -2.62141e-19)
(2.63253 -0.889931 -1.6119e-18)
(1.89941 -0.591085 2.97892e-18)
(1.43182 -0.320071 6.59049e-21)
(1.15294 -0.153442 2.13584e-19)
(1.07967 -0.0554529 0)
(2.47851 -0.522918 -6.92674e-18)
(1.60512 -0.338978 -1.49035e-19)
(1.14903 -0.179149 1.9737e-18)
(0.890195 -0.091418 -3.32023e-19)
(0.796628 -0.0353015 -3.24848e-20)
(1.76237 -0.220009 6.83512e-18)
(1.08858 -0.1357 1.24376e-18)
(0.752111 -0.0678448 2.23944e-19)
(0.571194 -0.0362252 2.93677e-33)
(0.492563 -0.0154598 -7.37703e-20)
(0.683161 0.000170342 1.55196e-18)
(0.395214 0.0235615 7.1242e-19)
(0.267705 0.0240798 -5.17403e-19)
(0.205541 0.0150726 2.27271e-19)
(0.173392 0.00580513 -7.80296e-20)
(3.58188 -0.16816 1.25619e-17)
(3.41717 -0.502943 -1.04436e-17)
(3.13669 -0.787007 7.10861e-18)
(2.78062 -0.996119 2.32103e-18)
(2.33317 -1.10185 -4.14198e-19)
(3.78452 -0.103588 1.03946e-17)
(3.71745 -0.324462 -6.63892e-19)
(3.57771 -0.551826 -4.26985e-18)
(3.37826 -0.785769 2.68965e-18)
(3.1003 -1.0198 -6.6279e-19)
(3.11483 -0.0605688 3.65446e-18)
(3.09865 -0.181683 -2.51884e-18)
(3.0596 -0.309667 5.01277e-18)
(2.99889 -0.444866 -1.5297e-19)
(2.92432 -0.593641 -4.79045e-18)
(2.19087 -0.0276238 2.78879e-18)
(2.18384 -0.0833671 8.4305e-18)
(2.16463 -0.144001 -6.53262e-19)
(2.13408 -0.207275 -6.60883e-18)
(2.11306 -0.269436 1.94589e-18)
(0.87944 -0.00184239 5.21228e-18)
(0.876491 -0.00523866 -1.16441e-19)
(0.867374 -0.00956731 -4.25757e-20)
(0.850513 -0.0162533 -2.00945e-18)
(0.841162 -0.0229047 -3.60556e-18)
(1.65317 0.940138 2.27704e-18)
(1.34831 0.816732 -7.92397e-20)
(1.00338 0.65865 -3.56544e-20)
(0.627858 0.449468 -1.96237e-19)
(0.225218 0.182287 -1.3402e-19)
(2.07052 0.892534 -1.21874e-18)
(1.71068 0.777737 -1.20416e-18)
(1.29832 0.63258 7.31712e-19)
(0.834034 0.438714 -4.8402e-19)
(0.312134 0.182083 -4.05084e-21)
(2.4186 0.735861 -5.88974e-19)
(2.01967 0.645356 5.25244e-19)
(1.555 0.528759 2.43643e-18)
(1.01753 0.370194 8.08287e-19)
(0.391334 0.155284 5.26043e-19)
(2.68202 0.486724 1.5656e-20)
(2.25239 0.428295 -2.71556e-19)
(1.74743 0.352325 -6.46746e-19)
(1.15476 0.247645 2.05638e-18)
(0.450323 0.104144 -3.26826e-19)
(2.82546 0.173874 -1.17051e-18)
(2.37727 0.152648 -1.60648e-18)
(1.8494 0.125348 -7.28684e-19)
(1.22671 0.0878344 7.96269e-19)
(0.480855 0.0366868 -3.25826e-19)
(0.241383 0.417522 -2.15294e-18)
(0.171122 0.353967 -1.82559e-18)
(0.103554 0.277478 3.17849e-19)
(0.0458277 0.183968 -4.84921e-20)
(-0.00159718 0.0677097 3.42474e-20)
(0.371203 0.595313 -8.00481e-19)
(0.27425 0.510827 -6.7502e-19)
(0.178884 0.400028 1.3927e-20)
(0.0926483 0.259929 -2.62581e-20)
(0.0169055 0.0966765 2.67428e-20)
(0.581654 0.754462 2.18716e-18)
(0.446201 0.650434 -1.50989e-19)
(0.307949 0.507716 -1.45238e-19)
(0.174424 0.328856 -2.15555e-19)
(0.0484436 0.124067 1.67094e-19)
(0.862033 0.875466 -1.29439e-18)
(0.679145 0.758759 1.97352e-18)
(0.48527 0.594377 3.00125e-19)
(0.288339 0.388524 1.02594e-19)
(0.0925542 0.149211 -1.18455e-19)
(1.2037 0.925396 -4.40958e-19)
(0.969108 0.811943 -4.5769e-19)
(0.708583 0.645144 3.59533e-19)
(0.433315 0.429187 3.58979e-19)
(0.148457 0.168531 1.89562e-21)
(0.944196 0.168597 -4.63597e-19)
(1.49595 0.131679 5.07604e-20)
(1.33729 0.196068 1.89557e-20)
(1.01539 0.498882 -4.99374e-19)
(0.599704 0.645952 6.335e-20)
(0.951117 0.0895251 1.73147e-19)
(1.50967 0.105205 3.07534e-19)
(1.36642 0.246134 2.7648e-19)
(1.0615 0.615072 -5.21756e-20)
(0.784929 0.804144 7.55527e-19)
(0.956761 0.010199 5.94971e-20)
(1.52634 0.0806238 -2.13142e-20)
(1.36605 0.297272 -5.73104e-20)
(1.1649 0.71406 -4.12181e-19)
(1.0372 0.938655 9.84154e-20)
(0.959127 -0.0675195 -1.8866e-20)
(1.53054 0.0597092 -7.40922e-19)
(1.3666 0.349472 7.65266e-20)
(1.3259 0.782091 1.18748e-18)
(1.33495 1.04294 9.46908e-19)
(0.956187 -0.142723 -2.02771e-20)
(1.5053 0.0517031 2.1837e-19)
(1.38553 0.400043 -6.13405e-20)
(1.50981 0.823619 -3.7478e-19)
(1.63617 1.0926 -2.72886e-18)
(0.939653 -0.236834 2.49297e-19)
(1.45129 0.0194087 5.01519e-19)
(1.4622 0.395174 -3.77267e-20)
(1.76692 0.801791 3.11516e-18)
(2.15333 1.14371 -5.51947e-18)
(0.887341 -0.345323 -2.51176e-20)
(1.31583 -0.0295792 -6.45867e-19)
(1.4005 0.283564 6.96552e-21)
(1.84153 0.5959 -3.0707e-18)
(2.59424 0.900788 1.67008e-18)
(0.787401 -0.411676 5.53651e-18)
(1.07779 -0.0914262 6.92515e-35)
(1.13469 0.150488 -2.12174e-18)
(1.57599 0.340572 2.62913e-18)
(2.45653 0.529733 5.03196e-18)
(0.634859 -0.291781 1.51025e-19)
(0.712486 -0.0719393 5.26953e-19)
(0.732014 0.0519711 2.47323e-19)
(1.07526 0.135255 6.22641e-19)
(1.75836 0.220512 -8.64521e-18)
(0.322725 -0.0431223 -4.30783e-18)
(0.293613 0.00570459 2.84892e-19)
(0.265037 -0.0133561 1.11209e-18)
(0.393428 -0.0240332 -7.70069e-19)
(0.686202 -0.000469771 -1.46641e-18)
(2.34869 1.1213 4.69155e-18)
(2.78733 1.01261 3.47389e-18)
(3.14089 0.803411 -5.69277e-18)
(3.41899 0.519615 -1.46165e-17)
(3.58239 0.185885 1.57639e-17)
(3.07879 1.01886 5.00913e-18)
(3.35399 0.795233 2.5633e-17)
(3.55691 0.56067 7.24227e-18)
(3.70107 0.331823 -3.08279e-17)
(3.77792 0.111137 -5.17328e-18)
(2.90567 0.59202 -7.22791e-18)
(2.98595 0.448104 -3.38029e-18)
(3.05216 0.312107 -6.29677e-18)
(3.09524 0.181717 -6.88932e-18)
(3.114 0.0584225 6.52286e-18)
(2.10628 0.265889 5.41633e-18)
(2.13014 0.205733 -4.04575e-19)
(2.16255 0.143029 4.87138e-18)
(2.18313 0.0821271 6.28935e-18)
(2.19077 0.0259943 -5.88794e-18)
(0.842553 0.0220531 -5.74729e-19)
(0.851945 0.0156522 3.52126e-18)
(0.868641 0.0091306 2.44326e-18)
(0.877497 0.00479209 -5.16948e-18)
(0.87984 0.00136135 -3.84294e-20)
(0.281988 0.0207606 5.5215e-19)
(0.656789 0.0404738 -7.43625e-19)
(0.973291 0.0440744 -8.18475e-19)
(0.94446 0.0274364 -1.51804e-18)
(0.697966 0.0163889 -6.63745e-19)
(0.245625 0.0554702 7.45791e-19)
(0.591372 0.107094 1.44152e-18)
(0.864817 0.125164 -6.97417e-19)
(0.940086 0.0970156 1.96084e-18)
(0.72429 0.053251 -2.70092e-18)
(0.185656 0.074278 4.96271e-19)
(0.476472 0.145921 -1.39886e-18)
(0.707883 0.184791 -9.13942e-19)
(0.857436 0.175441 -1.81034e-18)
(0.741671 0.101248 -2.86247e-18)
(0.123327 0.0774868 -7.72689e-19)
(0.344819 0.160381 -1.37667e-18)
(0.534617 0.214912 4.39916e-18)
(0.67782 0.233348 -3.66701e-19)
(0.713151 0.180055 2.2549e-18)
(0.0752842 0.0723768 -6.23043e-19)
(0.230743 0.160126 1.56429e-18)
(0.372326 0.224557 6.12144e-19)
(0.482875 0.257803 -1.29577e-18)
(0.561381 0.258491 -1.74941e-19)
(0.0451536 0.0637824 8.40018e-20)
(0.149961 0.14878 -1.22192e-18)
(0.247763 0.212166 -9.44864e-19)
(0.325468 0.234115 -8.7754e-20)
(0.371262 0.223862 -5.00349e-20)
(0.0264675 0.0557108 3.1226e-19)
(0.0950799 0.134321 5.92528e-19)
(0.160896 0.184836 -2.10065e-19)
(0.213774 0.195452 2.60128e-19)
(0.253637 0.18539 1.71775e-19)
(0.0133363 0.0488631 2.49743e-19)
(0.0586549 0.111412 1.32528e-18)
(0.103775 0.121147 -1.2416e-18)
(0.142788 0.107324 -2.78968e-18)
(0.179023 0.085876 4.08301e-19)
(0.00621496 0.0393232 -2.38296e-19)
(0.0426778 0.0487781 -1.81003e-18)
(0.0799636 0.0217572 3.21976e-18)
(0.120061 -0.0100407 1.31406e-18)
(0.161594 -0.0438342 -2.69375e-19)
(0.00992564 0.00159336 2.09683e-19)
(0.0421289 -0.050247 -4.51984e-19)
(0.0822359 -0.0964144 9.00363e-20)
(0.13094 -0.144381 1.04909e-19)
(0.181658 -0.19061 7.92209e-22)
(0.33875 0.0719583 -7.51314e-20)
(0.613636 -0.042301 -1.22769e-18)
(0.703984 -0.0133343 2.543e-19)
(0.715019 0.0072167 4.04482e-19)
(0.696535 0.00422459 1.18529e-20)
(0.303017 -0.0343114 -1.00142e-19)
(0.750317 -0.11495 1.47537e-18)
(0.88815 -0.0228991 9.19832e-19)
(0.914182 0.0111583 7.55122e-20)
(0.899998 0.00718414 -3.53748e-20)
(0.319995 -0.149845 -8.14434e-19)
(0.835268 -0.198333 3.16651e-18)
(1.05004 -0.0420687 -1.81499e-19)
(1.10145 0.0138703 -3.52297e-19)
(1.09247 0.010164 6.89665e-20)
(0.376323 -0.288696 1.10537e-18)
(0.884866 -0.298053 -2.7167e-18)
(1.1731 -0.0827522 -5.36757e-19)
(1.26858 0.0110832 -3.1621e-20)
(1.27096 0.0117019 6.27298e-21)
(0.463056 -0.437193 4.98583e-19)
(0.920179 -0.405654 -5.43428e-19)
(1.25186 -0.142991 4.83266e-19)
(1.40481 -0.00262758 1.15663e-19)
(1.43111 0.00991653 1.07588e-20)
(0.182975 -0.0449801 9.55075e-19)
(0.14498 -0.00522205 0)
(0.162664 0.000957218 1.16388e-19)
(0.161902 -0.000528223 -8.62073e-21)
(0.155266 -0.000859353 -7.12937e-20)
(0.399731 0.0699994 0)
(0.408625 -0.000486388 0)
(0.466894 -0.00410681 5.00722e-20)
(0.467451 0.00366157 -3.70039e-20)
(0.449818 0.00172734 4.90049e-20)
(0.162696 -0.000821313 -3.68481e-19)
(0.186415 -0.00179199 3.10777e-18)
(0.213226 -0.00502034 -6.86325e-19)
(0.229824 -0.0149886 -3.11711e-18)
(0.245718 -0.0170107 -7.97077e-19)
(0.432056 0.00444155 6.0995e-19)
(0.484588 0.0196969 4.11567e-18)
(0.536485 0.0466997 -6.73013e-18)
(0.567658 0.0806187 2.20943e-18)
(0.598352 0.162223 3.79756e-18)
(0.370758 -0.220721 -3.32715e-19)
(0.32439 -0.231698 -9.32475e-20)
(0.248407 -0.212714 -3.32588e-19)
(0.150772 -0.150749 3.88846e-19)
(0.045871 -0.0645754 1.14014e-19)
(0.257481 -0.169899 4.23062e-19)
(0.215062 -0.181969 1.41432e-18)
(0.162385 -0.177266 2.57921e-19)
(0.0967115 -0.135163 2.36546e-19)
(0.0269191 -0.0572029 -1.88254e-20)
(0.193184 -0.0551237 -3.12082e-19)
(0.151619 -0.0776829 -1.05786e-19)
(0.108793 -0.0952402 1.63405e-18)
(0.0623192 -0.0974262 2.85471e-19)
(0.0132667 -0.0480674 -3.14363e-19)
(0.178943 0.0867239 -6.37169e-19)
(0.132851 0.0528571 -7.06219e-19)
(0.0879045 0.0191152 1.31134e-18)
(0.0495705 -0.0110121 1.60267e-18)
(0.0112352 -0.0300165 1.99014e-19)
(0.189214 0.244289 1.24294e-19)
(0.134688 0.197973 -1.20017e-19)
(0.0821735 0.14814 2.48797e-19)
(0.0383802 0.0970139 6.24991e-19)
(-0.00221486 0.0356301 9.32796e-20)
(0.697963 -0.0163443 1.53163e-18)
(0.944466 -0.027414 -1.80086e-18)
(0.9731 -0.0442009 2.2701e-18)
(0.656801 -0.0405364 3.64659e-19)
(0.282022 -0.0207693 5.36704e-19)
(0.724279 -0.053145 1.77272e-18)
(0.939943 -0.0970314 7.9469e-18)
(0.864617 -0.125269 1.0337e-18)
(0.591425 -0.107134 1.34955e-18)
(0.245721 -0.0554915 -4.78531e-19)
(0.741582 -0.101008 -1.22129e-18)
(0.856835 -0.175281 -2.29673e-18)
(0.707807 -0.184855 2.92457e-18)
(0.476541 -0.14599 -1.08254e-19)
(0.185779 -0.074314 3.39511e-19)
(0.712614 -0.179883 1.68632e-20)
(0.677131 -0.233308 -7.68687e-18)
(0.534656 -0.215248 -6.00039e-18)
(0.344957 -0.160715 1.09172e-18)
(0.123509 -0.0775908 5.08046e-19)
(0.559014 -0.257033 4.67371e-19)
(0.481879 -0.257269 5.33631e-19)
(0.372406 -0.225293 -8.99881e-19)
(0.231003 -0.160997 -8.88455e-19)
(0.0756324 -0.0726337 -5.14491e-21)
(0.727936 0.373162 1.1762e-18)
(0.879788 0.127908 -1.90077e-19)
(0.676427 0.0201888 2.50315e-19)
(0.644046 0.0354648 -7.49247e-19)
(0.362641 -0.0620312 -1.00672e-19)
(0.827959 0.398179 -1.70892e-19)
(1.0866 0.158156 -5.81536e-19)
(0.8681 0.0388453 8.38351e-19)
(0.804128 0.0982481 1.6733e-18)
(0.340399 0.0538261 1.03011e-19)
(0.893047 0.372836 -2.27065e-18)
(1.26534 0.172361 -3.78326e-20)
(1.03962 0.0630756 2.52625e-19)
(0.908574 0.177344 1.71631e-18)
(0.364968 0.176419 -1.45213e-18)
(0.925846 0.318608 1.51963e-18)
(1.40298 0.174495 1.58688e-20)
(1.17866 0.100121 -2.20323e-19)
(0.96491 0.2759 -7.98211e-19)
(0.416275 0.323255 -5.97261e-19)
(0.937539 0.246578 1.84509e-19)
(1.47979 0.158007 4.16299e-20)
(1.27639 0.1461 -9.21224e-20)
(0.994204 0.383894 -1.10848e-19)
(0.486811 0.480793 1.36757e-18)
(0.275709 0.048372 0)
(0.244275 -0.0112968 6.50856e-19)
(0.157435 -0.0159263 1.26975e-19)
(0.150186 0.00554056 -1.09783e-19)
(0.184388 0.0441225 -1.8079e-18)
(0.573536 0.266366 -1.01987e-17)
(0.609191 0.0751916 -2.56684e-18)
(0.444599 0.0135228 5.01586e-19)
(0.423175 0.000184014 -6.51382e-19)
(0.40756 -0.0683442 -6.62104e-19)
(0.245849 0.016976 -8.32484e-22)
(0.229918 0.0150777 1.92878e-18)
(0.213303 0.00506433 5.24607e-19)
(0.186465 0.00180204 3.22997e-19)
(0.162712 0.000825187 0)
(0.599192 -0.162139 -1.16406e-19)
(0.568196 -0.0803409 2.54657e-18)
(0.536589 -0.0464802 -1.38068e-19)
(0.484647 -0.0196441 -2.70605e-19)
(0.43208 -0.00441925 7.60539e-19)
)
;

boundaryField
{
    left
    {
        type            fixedValue;
        value           uniform (1 0 0);
    }
    right
    {
        type            zeroGradient;
    }
    down
    {
        type            noSlip;
    }
    up
    {
        type            noSlip;
    }
    cylinder
    {
        type            noSlip;
    }
    defaultFaces
    {
        type            empty;
    }
}


// ************************************************************************* //
