# Selection   : all
# Cells       : 440
# Volume      : 7.374263e+01
# Time        	max(p)
7.515         	2.488130e+00
7.56          	2.474575e+00
7.61          	2.479430e+00
