/*--------------------------------*- C++ -*----------------------------------*\
  =========                 |
  \\      /  F ield         | OpenFOAM: The Open Source CFD Toolbox
   \\    /   O peration     | Website:  https://openfoam.org
    \\  /    A nd           | Version:  13
     \\/     M anipulation  |
\*---------------------------------------------------------------------------*/
FoamFile
{
    format      ascii;
    class       surfaceScalarField;
    location    "0.645";
    object      phi;
}
// * * * * * * * * * * * * * * * * * * * * * * * * * * * * * * * * * * * * * //

dimensions      [0 3 -1 0 0 0 0];

internalField   nonuniform List<scalar> 
823
(
0.0113777
-0.0505544
0.0391767
0.0387586
-0.133436
0.106055
0.0788324
-0.205877
0.165804
0.130172
-0.268869
0.217529
-0.323257
0.259412
0.194018
0.010703
-0.0612574
0.0361431
-0.158876
0.0726482
-0.242383
0.117973
-0.314194
-0.375599
0.170315
0.00837701
-0.0696345
0.0282851
-0.178784
0.0567257
-0.270823
0.0918108
-0.349279
-0.41605
0.132261
0.00529928
-0.0749337
0.0179957
-0.19148
0.0362298
-0.289057
0.0588843
-0.371933
-0.442415
0.085249
0.00196198
-0.0768957
0.00663008
-0.196148
0.0132898
-0.295717
0.0215221
-0.380165
0.0310625
-0.451955
0.00664922
-0.0107494
0.00410022
0.0221862
-0.0309036
0.0153666
0.0453897
-0.0484909
0.0252874
0.0745373
-0.0639276
0.03478
-0.0770152
0.10819
0.043362
0.00575306
-0.0165025
0.0214752
-0.0466257
0.0466848
-0.0737006
0.0797272
-0.09697
-0.116085
0.118797
0.00639257
-0.0228951
0.0236533
-0.0638865
0.0512273
-0.101275
0.0879038
-0.133647
-0.160112
0.131931
0.00753607
-0.0304312
0.027087
-0.0834374
0.0573159
-0.131503
0.097022
-0.173353
-0.207894
0.144804
0.00874557
0.031363
0.0656632
0.10984
0.161357
0.322514
-0.957378
0.743054
0.474318
-0.822017
0.670213
0.573178
-0.353382
0.254521
0.613772
-0.0676013
0.027008
0.00220242
-0.00695661
0.330418
-1.169
0.471065
-0.962663
0.575086
-0.457403
0.63308
-0.125595
-0.0160972
0.336601
-1.37367
0.461214
-1.08728
0.56295
-0.559139
0.628238
-0.190883
-0.0431131
0.337481
-1.56635
0.448338
-1.19813
0.540659
-0.651459
0.611498
-0.261722
-0.0794892
0.327755
-1.73274
0.428327
-1.29871
0.50885
-0.731982
0.576123
-0.328995
-0.114589
1.19773
-1.59018
-1.34029
1.00789
-1.10887
0.891381
-0.615477
0.841259
-0.278874
-0.0933159
1.32989
-1.13296
-1.78711
0.982223
-0.761204
0.774532
-0.407785
0.686738
-0.19108
-0.0664771
1.1895
-0.60763
-1.71483
0.816369
-0.388077
0.61091
-0.202326
0.517649
-0.0978192
-0.0356416
0.822385
-0.185284
-1.24473
0.545355
-0.111047
0.396498
-0.0534694
0.32537
-0.0266916
-0.0106102
0.30672
-0.492004
0.195673
0.142203
0.115512
1.56259
0.0462506
-1.57778
1.52169
0.126158
1.46266
0.19129
1.39633
0.236646
0.250057
1.67586
0.0356517
-1.66526
1.69933
0.102696
1.73082
0.159798
1.76529
0.202174
0.22824
1.38797
0.0184775
-1.37079
1.43706
0.0536076
1.51388
0.082977
1.61016
0.105893
0.123571
0.977699
0.00531451
-0.964536
1.01588
0.0154231
1.07582
0.0230445
1.15388
0.0278275
0.032722
0.392987
-0.387673
0.40841
0.431455
0.459282
0.128772
0.327624
-0.264664
-0.191732
0.0781586
0.273214
-0.2226
0.0385242
0.209793
-0.170159
0.01134
0.136444
-0.10926
0.0519536
-0.0406136
0.115952
0.378905
-0.167233
0.071497
0.317668
0.035618
0.245672
0.0105609
0.161501
0.0625145
0.0888493
0.418274
-0.128218
0.0548106
0.351707
0.0272875
0.273195
0.00806486
0.180724
0.0705794
0.055241
0.443533
-0.0805004
0.0337631
0.373185
0.016655
0.290303
0.00486426
0.192514
0.0754437
0.0174806
-0.0259024
0.0104998
0.00508592
0.00145207
0.0726024
0.0873131
-0.107222
-0.0526938
0.0428656
0.0736941
-0.0439574
0.0197232
0.0569266
-0.0337842
0.00513394
0.0367988
-0.0222095
0.0132902
-0.00815626
0.0760244
0.125891
-0.114603
0.043723
0.105995
0.0196449
0.0810047
0.00509095
0.0513527
0.0183811
0.0844149
0.168552
-0.127075
0.0490995
0.141311
0.0227391
0.107365
0.00617526
0.0679166
0.0245564
0.0940752
0.214677
-0.140201
0.0557814
0.179605
0.0265316
0.136615
0.00742999
0.0870182
0.0319864
0.107408
-0.157395
0.0644125
0.0308689
0.00862725
0.512964
0.174486
-0.291471
0.56153
0.162697
-0.211263
0.496283
0.313148
-0.247901
0.334703
0.803383
-0.641804
1.04117
-0.813693
0.512903
0.0575627
0.558839
0.116762
0.486917
0.38507
0.331239
0.959061
1.25781
0.51275
-0.059208
0.545601
0.0839118
0.466508
0.464163
0.328142
1.09743
1.45888
0.509081
-0.17231
0.524776
0.0682171
0.441858
0.547081
0.323997
1.21529
1.64267
0.498465
-0.274795
0.494631
0.0720515
0.412893
0.628819
0.312148
1.31603
1.79743
0.765294
-0.436069
0.846335
-0.00898931
0.956595
0.518559
1.16944
1.10319
1.61932
1.34755
0.708428
-0.540477
0.783887
-0.0844488
0.955221
0.347225
1.29786
0.760547
1.14341
1.77378
0.602387
-0.538843
0.633556
-0.115618
0.803744
0.177037
1.17257
0.391722
0.612027
1.70395
0.448464
-0.383286
0.405745
-0.0728993
0.536203
0.0465781
0.816013
0.111912
0.186913
1.24113
0.220734
0.147835
0.194413
0.306326
0.493239
1.40258
-0.246766
1.46574
-0.23039
1.52299
-0.185474
1.56316
-0.120663
-0.0405276
1.75267
-0.22566
1.71975
-0.197466
1.69062
-0.15635
1.67084
-0.10088
-0.034953
1.60148
-0.123191
1.50876
-0.104753
1.43456
-0.082147
1.38705
-0.0533711
-0.0186945
1.15107
-0.0331319
1.0743
-0.0279874
1.0153
-0.0231428
0.977571
-0.0156445
-0.00565989
0.460107
0.43212
0.408977
0.393332
0.0025015
0.043008
-0.0455095
0.00732823
0.101055
-0.105882
0.0160958
0.148401
-0.157168
0.0165792
0.151915
-0.152398
0.114032
0.0148147
-0.112268
0.00682869
0.0361793
0.0201787
0.0877049
0.0409595
0.12762
0.0482569
0.144618
0.116386
0.0459034
0.0088097
0.0273696
0.0270779
0.0694367
0.0521528
0.102545
0.0730947
0.123676
0.11404
0.0754409
0.00780165
0.019568
0.0255146
0.0517237
0.0497503
0.0783092
0.0774332
0.0959929
0.0992476
0.0922252
0.00509912
0.0144688
0.0179739
0.038849
0.0367676
0.0595155
0.0600098
0.0727507
0.0767493
0.082508
0.00342408
0.0110447
0.0125811
0.0296919
0.0274434
0.0446532
0.0470559
0.0531382
0.0561585
0.0676467
0.00222333
0.00882142
0.00892998
0.0229853
0.0222629
0.0313202
0.0410098
0.0343913
0.0347775
0.0623908
0.00167142
0.00714998
0.0101187
0.014538
0.026169
0.0152699
0.0467183
0.013842
0.0115342
0.0699615
0.0037352
0.00341476
0.017529
0.000744081
0.0368624
-0.00406355
0.0598794
-0.00917508
-0.0143704
0.085784
0.00751493
0.0236256
0.0448494
0.0704543
0.099446
0.153776
0.0198767
-0.106006
0.243292
-0.130212
0.0406967
0.26462
-0.0379656
0.0166374
0.269852
0.00325072
-0.00848271
-0.00192501
-0.00445863
0.214732
-0.132464
0.325168
-0.240649
0.351283
-0.0640801
0.354036
0.000497881
-0.00471342
0.260045
-0.322548
0.391274
-0.371878
0.433423
-0.106229
0.434817
-0.000896019
-0.00276792
0.293307
-0.530071
0.438602
-0.517173
0.502371
-0.169999
0.50849
-0.00701489
0.00251716
0.312429
0.46547
0.549992
0.569985
0.0706603
0.0386847
-0.109345
0.078621
-0.00796075
0.0829281
-0.00430707
0.0804185
0.0025096
0.00111064
0.194068
-0.26139
0.226804
0.239134
0.233161
0.0207326
-0.00433163
-0.016401
0.0342832
-0.0135506
0.0567624
-0.0224792
0.0856223
-0.0288599
-0.0237227
0.0539251
-0.043442
0.0862779
0.13924
0.202605
0.0478338
-0.0551435
0.0763508
-0.0690411
0.0275593
-0.0521636
0.0724382
0.0123376
-0.0443763
0.059598
0.0033179
-0.0300409
0.0390606
-0.0112611
0.014579
0.0454036
-0.0322571
-0.06829
0.0249715
-0.0317315
0.00982824
-0.029233
0.00219106
-0.0224037
-0.00907002
0.056072
-0.00667301
-0.0816561
0.0331348
-0.00879428
0.014286
-0.0103843
0.00259191
-0.0107096
-0.00647809
0.0700923
0.0215666
-0.098332
0.0448237
0.0164744
0.023362
0.0110774
0.00692182
0.0057306
0.000443729
0.0743812
-0.105508
0.0468982
0.0241915
0.00771253
0.0165858
-0.114031
-0.0148231
0.016095
-0.151908
0.00730695
-0.14838
0.00248924
-0.101064
-0.0430203
0.0482729
-0.116375
-0.0459281
0.0409335
-0.144568
0.0201647
-0.127611
0.00682152
-0.0877207
-0.0361987
0.073127
-0.113969
-0.0755329
0.0521253
-0.123566
0.0270662
-0.102552
0.00880664
-0.0694611
-0.0273921
0.077342
-0.09897
-0.0923413
0.0496227
-0.0958472
0.0254342
-0.0783639
0.00777588
-0.0518028
-0.0196162
0.0599543
-0.0825735
0.0365453
0.0177794
0.00503724
0.341932
0.583346
-0.529298
0.280568
0.225034
-0.16367
0.247606
0.0544735
-0.0215108
0.165356
0.114005
-0.0317551
-0.000859501
0.097174
0.40785
0.571475
0.371464
0.26142
0.335791
0.0901465
0.233603
0.216193
0.164454
0.459975
0.50748
0.451517
0.269878
0.409349
0.132314
0.283779
0.341763
0.366576
0.495774
0.407686
0.514855
0.250797
0.461428
0.185741
0.317796
0.485395
0.58604
0.512195
0.551729
0.489569
0.333161
0.158667
0.351384
0.0847705
0.0738961
0.0801101
0.00466045
0.0724417
0.00766834
-0.0369585
0.1094
0.332137
0.242363
0.225513
0.201426
0.261642
0.0856727
0.0237275
0.0567942
0.0288785
0.0342943
0.0224999
0.0207361
0.0135582
0.00433512
0.202796
0.139333
0.0863
0.05393
)
;

boundaryField
{
    left
    {
        type            calculated;
        value           nonuniform List<scalar> 
17
(
-0.60402
-0.60402
-0.60402
-0.60402
-0.60402
-0.39598
-0.39598
-0.39598
-0.39598
-0.39598
-0.39598
-0.39598
-0.39598
-0.39598
-0.39598
-0.510051
-0.510051
)
;
    }
    right
    {
        type            calculated;
        value           nonuniform List<scalar> 
17
(
0.0793079
0.229813
0.276236
0.356824
0.432871
0.503205
0.565546
0.618526
0.65138
0.655254
0.647874
0.611223
0.819986
0.659899
0.486813
0.300339
0.104902
)
;
    }
    down
    {
        type            calculated;
        value           uniform 0;
    }
    up
    {
        type            calculated;
        value           uniform 0;
    }
    cylinder
    {
        type            calculated;
        value           uniform 0;
    }
    defaultFaces
    {
        type            empty;
    }
}


// ************************************************************************* //
