/*--------------------------------*- C++ -*----------------------------------*\
  =========                 |
  \\      /  F ield         | OpenFOAM: The Open Source CFD Toolbox
   \\    /   O peration     | Website:  https://openfoam.org
    \\  /    A nd           | Version:  13
     \\/     M anipulation  |
\*---------------------------------------------------------------------------*/
FoamFile
{
    format      ascii;
    class       surfaceScalarField;
    location    "0.3975";
    object      phi;
}
// * * * * * * * * * * * * * * * * * * * * * * * * * * * * * * * * * * * * * //

dimensions      [0 3 -1 0 0 0 0];

internalField   nonuniform List<scalar> 
3485
(
0.00395976
-0.0433361
0.0393763
0.0123865
-0.107216
0.0987892
0.0222738
-0.133973
0.124086
0.0323183
-0.141479
0.131434
0.0421165
-0.141845
0.132047
0.0515753
-0.139727
0.130268
0.0606861
-0.136716
0.127605
0.0694455
-0.133434
0.124675
0.0777879
-0.130073
0.121731
-0.126331
0.118414
0.0857052
0.00400017
-0.0473362
0.0121615
-0.115377
0.0215536
-0.143365
0.0309961
-0.150922
0.0401697
-0.151019
0.049045
-0.148602
0.0576709
-0.145342
0.0661122
-0.141875
0.074472
-0.138433
-0.134961
0.0831017
0.004011
-0.0513472
0.0118215
-0.123188
0.0205968
-0.152141
0.0292897
-0.159615
0.0376558
-0.159385
0.0457016
-0.156647
0.0534875
-0.153128
0.0610745
-0.149462
0.0685181
-0.145877
-0.142295
0.0758523
0.00399298
-0.0553402
0.011372
-0.130567
0.0194353
-0.160204
0.0272948
-0.167474
0.0347944
-0.166884
0.0419866
-0.16384
0.0489539
-0.160095
0.0557641
-0.156273
0.0624686
-0.152581
-0.149018
0.069191
0.00391928
-0.0592595
0.010751
-0.137399
0.0179709
-0.167424
0.024867
-0.17437
0.0313705
-0.173388
0.0375731
-0.170042
0.0435701
-0.166092
0.0494308
-0.162133
0.0552097
-0.15836
-0.154794
0.060986
0.00378494
-0.0630444
0.00995704
-0.143571
0.0162252
-0.173692
0.0220683
-0.180213
0.0275059
-0.178825
0.0326672
-0.175204
0.0376569
-0.171082
0.0425445
-0.167021
0.0473782
-0.163194
-0.159639
0.0522228
0.00356952
-0.066614
0.00895363
-0.148955
0.014154
-0.178892
0.0188428
-0.184902
0.0231236
-0.183106
0.0271566
-0.179237
0.03105
-0.174975
0.0348695
-0.17084
0.0386576
-0.166982
-0.163438
0.042457
0.00327144
-0.0698854
0.00775384
-0.153437
0.0117979
-0.182937
0.0152594
-0.188363
0.0183281
-0.186175
0.0211848
-0.182093
0.0239362
-0.177727
0.0266396
-0.173544
0.029329
-0.169671
-0.166137
0.0320283
0.0028836
-0.072769
0.00636313
-0.156917
0.00917033
-0.185744
0.0113376
-0.190531
0.0131492
-0.187987
0.0147883
-0.183732
0.0163547
-0.179293
0.0178962
-0.175085
0.0194374
-0.171212
-0.167684
0.0209845
0.0024114
-0.0751804
0.00480552
-0.159311
0.00630681
-0.187245
0.00715523
-0.191379
0.00769507
-0.188526
0.00810135
-0.184139
0.00845853
-0.17965
0.00880974
-0.175437
0.00917499
-0.171578
0.00954895
-0.168058
0.00332414
-0.00677398
0.00344984
0.0124824
-0.0175825
0.00842423
0.0243259
-0.0224459
0.0106024
0.0370551
-0.0240455
0.0113163
0.049958
-0.0243608
0.0114579
0.0627564
-0.0241711
0.0113727
0.0753256
-0.0237545
0.0111854
0.0876075
-0.0232345
0.0109526
0.0995809
-0.0226784
0.010705
-0.022273
0.111384
0.01047
0.00335035
-0.0101243
0.0124983
-0.0267304
0.0242971
-0.0342447
0.0369619
-0.0367104
0.0497896
-0.0371884
0.0625072
-0.0368888
0.0749941
-0.0362414
0.0871959
-0.0354363
0.0990953
-0.0345777
-0.0340065
0.110829
0.00339034
-0.0135147
0.0125289
-0.035869
0.0242698
-0.0459856
0.0368483
-0.0492888
0.0495731
-0.0499133
0.0621788
-0.0494945
0.0745503
-0.0486129
0.0866379
-0.0475239
0.09843
-0.0463698
-0.045636
0.11006
0.00344594
-0.0169606
0.0125751
-0.0449982
0.0242413
-0.0576518
0.0367061
-0.0617536
0.0492942
-0.0625014
0.0617504
-0.0619506
0.0739672
-0.0608298
0.0859015
-0.0594582
0.0975492
-0.0580175
-0.0571226
0.109036
0.00351794
-0.0204786
0.0126352
-0.0541155
0.0242047
-0.0692213
0.0365215
-0.0740704
0.0489316
-0.0749115
0.0611933
-0.0742123
0.0732099
-0.0728464
0.0849464
-0.0711947
0.0964078
-0.0694789
-0.0684193
0.107705
0.00360489
-0.0240834
0.0127024
-0.063213
0.0241452
-0.0806641
0.0362702
-0.0861954
0.0484508
-0.0870921
0.0604631
-0.0862246
0.0722244
-0.0846076
0.08371
-0.0826803
0.0949341
-0.080703
-0.0794631
0.105978
0.00370145
-0.0277849
0.0127615
-0.072273
0.024036
-0.0919386
0.0359134
-0.0980729
0.0478007
-0.0989794
0.0594965
-0.0979204
0.0709352
-0.0960463
0.0821041
-0.0938492
0.0930239
-0.0916229
-0.0901583
0.103719
0.00379607
-0.031581
0.0127841
-0.0812611
0.0238331
-0.102988
0.0353935
-0.109633
0.0469128
-0.110499
0.0582164
-0.109224
0.0692584
-0.107088
0.0800392
-0.10463
0.0905791
-0.102163
-0.100367
0.100787
0.00387279
-0.0354537
0.0127338
-0.0901221
0.0234807
-0.113734
0.034638
-0.120791
0.0457019
-0.121562
0.0565298
-0.120052
0.0670988
-0.117657
0.0774243
-0.114956
0.0875129
-0.112251
-0.109887
0.0970335
0.00392257
0.0125896
0.0229414
0.0335852
0.0440696
0.0542854
0.0642336
0.0739527
0.083432
0.0919589
0.157837
-0.130965
0.084511
0.182212
-0.0951017
0.070727
0.194206
-0.0705731
0.0585787
0.200024
-0.0532651
0.0474478
0.202545
-0.0400337
0.0375127
0.203196
-0.0295365
0.0288849
0.202748
-0.021041
0.0214897
0.201617
-0.0139885
0.0151195
0.200044
-0.00815026
0.00972283
-0.00173973
0.00369836
0.156739
-0.176874
0.181193
-0.119556
0.193463
-0.0828435
0.199525
-0.0593268
0.202245
-0.0427541
0.203062
-0.0303525
0.202754
-0.0207338
0.201753
-0.012987
0.200305
-0.00670217
9.29734e-05
0.154869
-0.221683
0.179282
-0.143969
0.191882
-0.0954441
0.198285
-0.06573
0.201318
-0.0457867
0.202421
-0.0314555
0.202383
-0.0206953
0.201641
-0.0122451
0.20045
-0.0055113
0.00166491
0.152211
-0.264858
0.176478
-0.168236
0.189461
-0.108427
0.196306
-0.0725751
0.199766
-0.0492462
0.201277
-0.0329666
0.201633
-0.021052
0.201281
-0.011893
0.200478
-0.0047079
0.00284378
0.148749
-0.305903
0.172791
-0.192279
0.186203
-0.121839
0.193594
-0.0799656
0.197595
-0.053248
0.199635
-0.0350065
0.200511
-0.0219277
0.200674
-0.0120564
0.200388
-0.00442128
0.00349632
0.144455
-0.34438
0.168228
-0.216052
0.182116
-0.135727
0.190158
-0.0880077
0.194817
-0.0579076
0.197505
-0.037694
0.19902
-0.0234429
0.199822
-0.0128582
0.200179
-0.00477843
0.00349291
0.139285
-0.379946
0.162748
-0.239515
0.177202
-0.15018
0.18601
-0.0968156
0.191445
-0.0633428
0.194897
-0.0411465
0.19717
-0.0257157
0.19873
-0.0144183
0.199853
-0.00590153
0.00270768
0.133161
-0.41232
0.156289
-0.262643
0.171455
-0.165346
0.181157
-0.106517
0.18749
-0.0696762
0.191823
-0.0454798
0.19497
-0.0288619
0.197404
-0.0168532
0.19941
-0.00790757
0.00101848
0.125674
-0.44096
0.148616
-0.285585
0.164749
-0.181479
0.175548
-0.117316
0.18294
-0.0770684
0.188288
-0.0508271
0.192426
-0.0329999
0.195849
-0.0202766
0.198853
-0.010911
-0.00169139
0.116542
-0.465544
0.139141
-0.308184
0.156584
-0.198922
0.16889
-0.129621
0.177653
-0.0858316
0.184233
-0.0574077
0.189524
-0.0382904
0.194063
-0.0248158
0.198181
-0.0150291
-0.00553718
0.363341
-0.413726
-0.415158
0.335313
-0.280157
0.322538
-0.186147
0.31669
-0.123773
0.31367
-0.0828114
0.311852
-0.0555897
0.310635
-0.0370741
0.30981
-0.0239903
0.309283
-0.0145019
-0.00533115
0.37634
-0.354374
-0.435692
0.34572
-0.249537
0.330544
-0.170971
0.32239
-0.115619
0.317591
-0.0780128
0.314553
-0.0525515
0.312547
-0.035068
0.311231
-0.0226743
0.310419
-0.0136902
-0.00502528
0.389883
-0.297562
-0.446695
0.357154
-0.216809
0.338708
-0.152525
0.327976
-0.104887
0.321384
-0.0714213
0.317156
-0.048323
0.314381
-0.0322934
0.312588
-0.0208807
0.311498
-0.0126006
-0.00462061
0.399232
-0.244178
-0.452615
0.365963
-0.183541
0.34552
-0.132081
0.332861
-0.0922283
0.324793
-0.0633534
0.31953
-0.0430594
0.316068
-0.0288314
0.313838
-0.0186511
0.312491
-0.0112532
-0.00412424
0.405934
-0.194757
-0.455356
0.372881
-0.150488
0.351168
-0.110367
0.337044
-0.0781041
0.327772
-0.054082
0.321631
-0.036918
0.317571
-0.0247717
0.314955
-0.0160347
0.313376
-0.00967424
-0.00354441
0.410639
-0.149156
-0.45624
0.378162
-0.118011
0.355695
-0.0879004
0.340497
-0.0629062
0.330277
-0.0438626
0.323419
-0.03006
0.318857
-0.0202098
0.315914
-0.0130911
0.314138
-0.00789813
-0.00289211
0.413828
-0.10683
-0.456153
0.382043
-0.086226
0.359165
-0.0650227
0.343216
-0.0469565
0.332282
-0.0329286
0.324864
-0.022642
0.319902
-0.0152478
0.316694
-0.00988367
0.314757
-0.00596056
-0.00217968
0.415712
-0.0668584
-0.455684
0.384558
-0.0550723
0.361505
-0.0419701
0.345084
-0.0305351
0.333664
-0.021509
0.32585
-0.0148277
0.320601
-0.0099986
0.317201
-0.00648361
0.315144
-0.0039034
-0.00142249
0.413819
-0.0276512
-0.453026
0.383287
-0.0245403
0.360456
-0.0191395
0.343997
-0.0140758
0.332449
-0.00996158
0.324506
-0.00688478
0.319156
-0.00464804
0.315688
-0.00301563
0.313591
-0.00180631
-0.000651578
0.358816
-0.386467
0.334275
0.315136
0.30106
0.291099
0.284214
0.279566
0.27655
0.274744
0.445808
0.00892795
-0.445187
0.445712
0.0210803
0.444855
0.0328852
0.443228
0.0440846
0.440611
0.0548399
0.437314
0.0642825
0.43241
0.0740956
0.427812
0.0804501
0.418309
0.0926041
0.0888562
0.428099
0.00818794
-0.427359
0.429088
0.0200905
0.430232
0.0317418
0.431547
0.0427698
0.432778
0.0536088
0.434177
0.0628832
0.435138
0.0731342
0.436374
0.0792143
0.437064
0.0919141
0.0902286
0.413404
0.00723731
-0.412453
0.41507
0.0184247
0.417394
0.0294173
0.42036
0.0398039
0.423868
0.0501008
0.427867
0.0588842
0.432367
0.0686349
0.436857
0.0747241
0.442718
0.0860524
0.0862525
0.401909
0.00619486
-0.400867
0.404006
0.0163284
0.407126
0.0262967
0.411208
0.0357219
0.416269
0.0450405
0.422082
0.0530705
0.428946
0.0617711
0.436033
0.0676369
0.444957
0.0771287
0.0785942
0.392912
0.0050873
-0.391805
0.39531
0.013931
0.39898
0.0226264
0.403841
0.0308608
0.409944
0.0389372
0.41703
0.0459853
0.425418
0.0533825
0.434357
0.0586983
0.445142
0.0663437
0.0683802
0.386021
0.0039281
-0.384861
0.388633
0.0113184
0.392684
0.0185754
0.398087
0.0254578
0.404883
0.0321417
0.412839
0.0380295
0.4222
0.0440211
0.432383
0.0485148
0.444311
0.0544158
0.056452
0.380915
0.00272066
-0.379707
0.383691
0.00854149
0.388017
0.0142501
0.393807
0.0196672
0.401071
0.0248784
0.409614
0.0294866
0.419586
0.0340486
0.430567
0.0375335
0.443164
0.0418191
0.0434626
0.37698
0.00144263
-0.375702
0.379927
0.00559421
0.38451
0.00966749
0.390638
0.0135388
0.398279
0.0172372
0.407267
0.0204987
0.417653
0.0236622
0.429137
0.0260499
0.442091
0.0288654
0.0298697
0.368992
0.000141033
-0.367691
0.372186
0.00240113
0.377172
0.0046814
0.38386
0.00685036
0.392176
0.00892162
0.401914
0.0107607
0.413054
0.0125215
0.425266
0.0138387
0.438754
0.0153769
0.0155979
0.295517
-0.295376
0.297918
0.302599
0.30945
0.318371
0.329132
0.341653
0.355492
0.370869
0.0802592
0.123804
-0.112898
-0.0911651
0.0701896
0.126056
-0.115987
0.0605791
0.128916
-0.119305
0.0510782
0.132356
-0.122855
0.0415018
0.136173
-0.126596
0.0317763
0.140188
-0.130463
0.0219306
0.14379
-0.133945
0.0122738
0.143857
-0.1342
0.00399023
0.12811
-0.119827
0.0674647
-0.0634745
0.0766789
0.132939
-0.0858136
0.0673256
0.135409
0.0579745
0.138267
0.0486582
0.141672
0.0393299
0.145501
0.0299417
0.149577
0.0205189
0.153213
0.0113662
0.153009
0.00362359
0.135853
0.0710883
0.0690653
0.140686
-0.0768128
0.060933
0.143542
0.0525833
0.146617
0.0441271
0.150128
0.0355931
0.154035
0.0269743
0.158196
0.0183236
0.161864
0.00997334
0.16136
0.00304662
0.14278
0.0741349
0.0602855
0.147389
-0.0669879
0.0532677
0.15056
0.0459973
0.153887
0.0385593
0.157566
0.030992
0.161602
0.0233152
0.165872
0.0156154
0.169564
0.00825895
0.168716
0.00234315
0.148695
0.0764781
0.0511363
0.153236
-0.0569835
0.0450972
0.156599
0.0388621
0.160122
0.0324638
0.163964
0.025924
0.168142
0.0192739
0.172523
0.0126301
0.176207
0.00638932
0.174957
0.001599
0.153486
0.0780771
0.0416623
0.158212
-0.0466383
0.0365875
0.161673
0.0313775
0.165332
0.0260314
0.16931
0.0205589
0.173615
0.0150032
0.178078
0.00949455
0.181716
0.00443748
0.180014
0.000829147
0.157094
0.0789062
0.0318992
0.16225
-0.0359372
0.027817
0.165756
0.0236448
0.169504
0.0193689
0.173586
0.0149951
0.177989
0.0105766
0.182497
0.00627937
0.186013
0.00251129
0.183782
1.84754e-05
0.159587
0.0789247
0.0218736
0.165273
-0.0248963
0.0188327
0.168797
0.015731
0.172606
0.0125562
0.176761
0.00931203
0.181233
0.00606321
0.185745
0.00300619
0.18907
0.000445195
0.186343
-0.000624958
0.160657
0.0782997
0.0116224
0.167214
-0.0135638
0.00967244
0.170747
0.00768147
0.174597
0.0056512
0.178791
0.00359908
0.183285
0.00156245
0.187782
-0.000301604
0.190934
-0.00136742
0.187409
-0.00125765
0.160547
0.0770421
0.00131047
-0.00215481
0.000479428
-0.000360048
-0.00121913
-0.0020727
-0.00281713
-0.00326185
-0.00309812
-0.00186167
0.106885
0.0218723
-0.118096
-0.0106612
0.0953347
0.0224476
-0.0108972
0.0834495
0.0230348
-0.0111495
0.071216
0.0236556
-0.0114221
0.058613
0.024321
-0.011718
0.0456195
0.0250307
-0.0120373
0.0322533
0.0257166
-0.0123503
0.0187869
0.025917
-0.0124507
0.00661595
0.0235614
-0.0113905
0.0131103
-0.00649439
0.106058
0.0330443
-0.11723
0.0945595
0.0339456
0.0827384
0.0348559
0.0705805
0.0358135
0.058064
0.0368375
0.0451679
0.0379268
0.0319107
0.0389738
0.0185661
0.0392617
0.0065231
0.0356044
0.0196334
0.104893
0.0441543
-0.116003
0.0934745
0.0453638
0.0817478
0.0465826
0.0696984
0.0478629
0.0573045
0.0492314
0.0445446
0.0506867
0.0314381
0.0520803
0.0182613
0.0524385
0.00639506
0.0474706
0.0260285
0.103304
0.0551725
-0.114322
0.0920012
0.0566662
0.0804087
0.0581752
0.068511
0.0597606
0.0562856
0.0614568
0.0437111
0.0632612
0.0308081
0.0649833
0.0178566
0.06539
0.00622921
0.059098
0.0322577
0.101176
0.0660561
-0.112059
0.0900402
0.0678018
0.0786388
0.0695766
0.0669534
0.071446
0.0549589
0.0734512
0.0426329
0.0755872
0.0299982
0.077618
0.017341
0.0780471
0.00602325
0.0704157
0.038281
0.0983319
0.0767391
-0.109015
0.087436
0.0786978
0.0762994
0.0807132
0.064902
0.0828434
0.0532175
0.0851357
0.0412228
0.087582
0.028942
0.0898988
0.0166664
0.0903228
0.00574309
0.081339
0.0440241
0.0947699
0.0870915
-0.105122
0.0842588
0.0892089
0.0735249
0.0914471
0.0625284
0.0938399
0.0512387
0.0964254
0.0396376
0.0991831
0.0277613
0.101775
0.0159162
0.102168
0.00543673
0.0918185
0.0494608
0.0897465
0.0969745
-0.0996295
0.0797532
0.0992021
0.0695742
0.101626
0.0591586
0.104255
0.0484621
0.107122
0.0374547
0.110191
0.0261705
0.113059
0.0149246
0.113414
0.00503251
0.101711
0.0544933
0.0852598
0.105846
-0.0941312
0.076102
0.10836
0.0665064
0.111222
0.0565485
0.114213
0.0462703
0.1174
0.0356853
0.120775
0.0248515
0.123893
0.0140965
0.124169
0.00470629
0.111101
0.0591996
0.0763188
-0.0833712
0.0686923
0.0606087
0.0519673
0.042771
0.0330834
0.0230321
0.0130009
0.00427487
0.201114
0.0146455
-0.0177694
0.203313
0.0231343
-0.0253334
0.203276
0.0282671
-0.0282301
0.204091
0.0303112
-0.0311267
0.203409
0.036564
-0.0358817
0.201021
0.044888
-0.0424997
0.195429
0.0564412
-0.0508495
0.184673
0.0718801
-0.0611242
0.160897
0.0961452
-0.0723688
0.128557
-0.0857561
0.200933
0.0117025
0.203002
0.0210654
0.202912
0.028357
0.203643
0.0295804
0.20285
0.0373568
0.200307
0.0474308
0.194527
0.062221
0.183478
0.0829289
0.159638
0.119986
0.170965
0.200623
0.00906954
0.202405
0.0192828
0.202173
0.0285892
0.202686
0.0290676
0.201655
0.0383873
0.198839
0.0502468
0.192778
0.0682828
0.181345
0.0943617
0.157548
0.143783
0.21251
0.200174
0.00688515
0.201523
0.0179336
0.201069
0.0290431
0.20123
0.028907
0.199837
0.0397808
0.19663
0.0534536
0.190185
0.0747272
0.178277
0.10627
0.154654
0.167406
0.252842
0.199583
0.00529171
0.200366
0.0171509
0.199615
0.0297945
0.199286
0.0292357
0.197408
0.0416586
0.193693
0.0571688
0.186758
0.0816626
0.174283
0.118745
0.150994
0.190695
0.291777
0.198839
0.00444237
0.19894
0.0170505
0.197826
0.0309077
0.196867
0.0301948
0.194388
0.0441381
0.190048
0.0615087
0.182506
0.0892047
0.169365
0.131886
0.146596
0.213464
0.329358
0.19793
0.00450217
0.197254
0.0177268
0.195724
0.0324377
0.193987
0.031931
0.190797
0.0473289
0.185716
0.0665897
0.177451
0.0974695
0.163527
0.14581
0.141508
0.235482
0.365744
0.196846
0.00564582
0.195325
0.0192477
0.193329
0.0344341
0.190664
0.0345956
0.18666
0.0513329
0.180718
0.0725315
0.171585
0.106603
0.15674
0.160655
0.135433
0.256788
0.401547
0.195581
0.00805482
0.193179
0.0216494
0.190661
0.0369526
0.186908
0.0383486
0.182005
0.0562358
0.175111
0.0794255
0.165088
0.116626
0.149788
0.175955
0.129551
0.277025
0.436967
0.194229
0.0118156
0.190842
0.0250362
0.187758
0.0400366
0.182661
0.0434461
0.176677
0.0622196
0.168386
0.0877167
0.156577
0.128434
0.139314
0.193219
0.118162
0.298177
0.471758
0.302767
0.0110587
0.304799
0.0230044
0.30815
0.0366854
0.309636
0.0419601
0.311931
0.0599245
0.314796
0.0848514
0.319647
0.123584
0.329714
0.183152
0.355567
0.272324
0.414866
0.412459
0.303554
0.00951506
0.305904
0.0206546
0.309594
0.0329951
0.312048
0.0395057
0.315648
0.0563247
0.320595
0.0799049
0.328604
0.115574
0.343129
0.168627
0.3726
0.242854
0.358374
0.429091
0.304261
0.00726418
0.307088
0.0178279
0.311043
0.0290398
0.314398
0.0361512
0.319146
0.0515766
0.325854
0.0731972
0.336364
0.105064
0.35383
0.151161
0.385431
0.211253
0.30273
0.441075
0.304946
0.00432888
0.30824
0.0145329
0.312454
0.0248262
0.31658
0.0320255
0.322337
0.0458196
0.330519
0.0650151
0.34298
0.092603
0.362535
0.131605
0.394868
0.17892
0.249783
0.447815
0.30564
0.000699439
0.309366
0.0108066
0.313791
0.0204013
0.318546
0.0272702
0.325153
0.0392124
0.334539
0.0556294
0.348469
0.0786731
0.369454
0.11062
0.401534
0.14684
0.200169
0.451148
0.306386
-0.00367621
0.310482
0.00671002
0.31502
0.0158636
0.320258
0.0220326
0.327555
0.0319156
0.337884
0.0452999
0.352886
0.0636714
0.374792
0.0887131
0.406156
0.115476
0.153946
0.45238
0.307214
-0.00887967
0.311601
0.00232238
0.316118
0.0113467
0.32168
0.0164706
0.329501
0.0240945
0.340539
0.034262
0.356297
0.0479139
0.37875
0.0662601
0.409279
0.0849465
0.110766
0.452459
0.308211
-0.0150805
0.312725
-0.00219169
0.317012
0.00706018
0.32273
0.0107524
0.330918
0.0159062
0.342457
0.0227228
0.358727
0.0316445
0.381462
0.0435249
0.411261
0.055147
0.0700945
0.451933
0.308072
-0.0211421
0.312071
-0.00619129
0.315975
0.00315666
0.321757
0.00497037
0.33017
0.00749329
0.342034
0.0108591
0.358633
0.0150451
0.381476
0.020682
0.410842
0.0257811
0.0322135
0.448723
0.280868
0.274677
0.277833
0.282804
0.290297
0.301156
0.316201
0.336883
0.362665
0.394878
0.420786
-0.0994921
0.423432
-0.0884588
0.426265
-0.0796461
0.4297
-0.070423
0.433265
-0.0605489
0.436638
-0.0500113
0.439623
-0.0389222
0.442105
-0.0273779
0.444
-0.0154592
-0.00334175
0.428639
-0.0990399
0.428061
-0.0878814
0.427656
-0.0792409
0.427367
-0.0701338
0.42703
-0.0602123
0.426724
-0.0497045
0.426551
-0.0387495
0.426579
-0.0274059
0.426849
-0.0157288
-0.00385183
0.435169
-0.0931337
0.430338
-0.0830497
0.425806
-0.0747092
0.421823
-0.0661508
0.418495
-0.0568842
0.415861
-0.0470707
0.413937
-0.0368258
0.412731
-0.0261994
0.412246
-0.0152443
-0.00405887
0.438289
-0.0836084
0.430303
-0.0750629
0.423142
-0.0675484
0.416877
-0.0598864
0.411605
-0.0516113
0.407357
-0.0428226
0.404149
-0.0336179
0.401992
-0.0240427
0.400894
-0.0141464
-0.00403181
0.439378
-0.0718383
0.429248
-0.0649336
0.420261
-0.0585611
0.412408
-0.0520329
0.405776
-0.04498
0.400408
-0.0374546
0.396317
-0.029527
0.393513
-0.0212385
0.392007
-0.0126407
-0.00382916
0.439247
-0.0587059
0.427723
-0.0534094
0.417518
-0.0483558
0.408606
-0.0431212
0.40106
-0.0374341
0.394925
-0.0313198
0.390223
-0.0248246
0.386969
-0.0179842
0.385179
-0.0108506
-0.00351198
0.438504
-0.044751
0.426111
-0.0410167
0.415124
-0.0373685
0.405526
-0.0335231
0.397379
-0.0292876
0.390734
-0.0246749
0.385622
-0.0197126
0.382067
-0.0144293
0.380092
-0.00887485
-0.00312734
0.437457
-0.0302746
0.424511
-0.028071
0.413028
-0.0258854
0.402977
-0.0234721
0.394419
-0.0207296
0.387413
-0.0176687
0.382002
-0.0143015
0.378224
-0.0106516
0.376115
-0.00676544
-0.00271415
0.433482
-0.0150337
0.419992
-0.0145818
0.407995
-0.0138885
0.397412
-0.0128884
0.388303
-0.0116211
0.38075
-0.0101155
0.374835
-0.00838613
0.370642
-0.00645854
0.368245
-0.00436907
-0.00215984
0.379844
0.365263
0.351374
0.338486
0.326865
0.316749
0.308363
0.301904
0.297535
0.00628807
0.0910566
-0.0973447
0.0113353
0.195383
-0.20043
0.0135089
0.230297
-0.232471
0.0140909
0.235915
-0.236497
0.0140957
0.233256
-0.23326
0.014016
0.22916
-0.229081
0.0140211
0.225267
-0.225272
0.0141573
0.221743
-0.221879
0.0143646
0.218068
-0.218275
0.212122
0.0142466
-0.212004
0.0078447
0.0832119
0.0163903
0.186837
0.0225163
0.224171
0.0269208
0.231511
0.0306607
0.229516
0.0343035
0.225518
0.0380988
0.221472
0.0421402
0.217702
0.0463547
0.213854
0.208577
0.0498997
0.00864844
0.0745635
0.0200479
0.175438
0.0297925
0.214427
0.0379101
0.223393
0.0452352
0.222191
0.0523848
0.218368
0.0596823
0.214174
0.0672563
0.210128
0.0750547
0.206055
0.201149
0.0824831
0.00868479
0.0658787
0.0220388
0.162084
0.0347893
0.201676
0.0461775
0.212005
0.0566929
0.211675
0.066906
0.208155
0.0771948
0.203885
0.0877401
0.199582
0.0985137
0.195282
0.190448
0.109214
0.00810906
0.0577696
0.0223853
0.147808
0.0372452
0.186816
0.0511798
0.19807
0.064239
0.198616
0.0768452
0.195549
0.0893773
0.191353
0.102067
0.186893
0.114957
0.182391
0.177492
0.127914
0.00717431
0.0505953
0.0214155
0.133566
0.0373362
0.170896
0.0528795
0.182527
0.0676571
0.183838
0.0818717
0.181334
0.0958331
0.177392
0.109782
0.172944
0.123838
0.168335
0.16324
0.13809
0.00614636
0.0444489
0.0196736
0.120039
0.0356965
0.154873
0.051896
0.166328
0.0675557
0.168179
0.0826509
0.166239
0.0973688
0.162674
0.111905
0.158407
0.126373
0.153867
0.148594
0.141019
0.00521368
0.0392353
0.0176954
0.107558
0.033134
0.139434
0.0491965
0.150265
0.0649915
0.152384
0.0803106
0.15092
0.0951994
0.147785
0.109765
0.143842
0.124131
0.139502
0.13436
0.138365
0.00449264
0.0347426
0.0159342
0.096116
0.0304996
0.124869
0.045986
0.134779
0.061466
0.136903
0.0766278
0.135758
0.0914108
0.133002
0.105847
0.129405
0.119982
0.125367
0.119958
0.134384
0.00399663
0.030746
0.0145843
0.0855283
0.0282636
0.111189
0.0429812
0.120061
0.0578306
0.122054
0.072429
0.12116
0.0865988
0.118832
0.100246
0.115758
0.113208
0.112405
0.10797
0.125197
0.00371777
0.0270282
0.013747
0.0754991
0.0267751
0.0981612
0.0408835
0.105953
0.0552383
0.107699
0.0694745
0.106923
0.0834174
0.104889
0.0969936
0.102181
0.110207
0.0991914
0.096536
0.121641
0.00357205
0.0234562
0.0132698
0.0658013
0.0258641
0.0855669
0.0395124
0.0923045
0.0534314
0.0937802
0.0672695
0.0930852
0.0808405
0.0913184
0.0940397
0.0889823
0.106833
0.0863982
0.0846739
0.118695
0.00348569
0.0199705
0.0129843
0.0563027
0.0252981
0.0732532
0.0386156
0.078987
0.0521839
0.080212
0.0656689
0.0796002
0.078891
0.0780963
0.0917451
0.0761282
0.104184
0.0739591
0.0727197
0.116138
0.00342716
0.0165433
0.0128059
0.046924
0.0249508
0.0611082
0.0380586
0.0658792
0.0513932
0.0668774
0.0646379
0.0663555
0.0776268
0.0651074
0.0902654
0.0634896
0.102511
0.0617136
0.0607753
0.114455
0.00338428
0.013159
0.0126901
0.0376181
0.0247386
0.0490598
0.0377233
0.0528945
0.0509157
0.053685
0.0640114
0.0532597
0.0768573
0.0522616
0.0893702
0.0509766
0.101514
0.0495696
0.0488628
0.113427
0.00335175
0.00980728
0.0126106
0.0283592
0.0246029
0.0370675
0.0375165
0.0399809
0.0506252
0.0405764
0.0636325
0.0402524
0.0763945
0.0394996
0.0888366
0.0385345
0.100928
0.0374787
0.0369772
0.112813
0.00332782
0.00647947
0.0125541
0.0191329
0.0245107
0.0251109
0.0373811
0.0271105
0.0504399
0.0275176
0.0633956
0.0272966
0.0761105
0.0267847
0.0885153
0.0261297
0.100582
0.0254124
0.0251049
0.112454
0.00331271
0.00316676
0.0125152
0.0099304
0.0244452
0.0131809
0.037285
0.0142707
0.0503101
0.0144925
0.0632327
0.014374
0.0759188
0.0140986
0.0883031
0.0137454
0.100359
0.013357
0.0132363
0.112227
0.00330664
-0.000139884
0.012491
0.000746049
0.0243964
0.00127548
0.0372074
0.00145976
0.0502017
0.00149818
0.0630942
0.00148146
0.0757542
0.00143863
0.0881187
0.00138086
0.100162
0.0013137
0.00137389
0.112024
0.00330996
0.0124802
0.0243581
0.0371342
0.0500903
0.0629444
0.0755684
0.0879018
0.0999206
0.111764
0.136902
0.257253
-0.272515
0.149323
0.115894
-0.128315
0.159068
0.0398376
-0.0495824
0.166485
0.00656033
-0.0139768
0.172569
-0.00675269
0.000667999
0.177941
-0.0110119
0.00564044
0.182845
-0.011265
0.00636039
0.187395
-0.00986807
0.00531808
0.191638
-0.00793055
0.00368827
-0.00530376
0.00144149
0.141509
0.234439
0.156433
0.10097
0.166163
0.0301073
0.172953
-0.00022952
0.178147
-0.0119469
0.182507
-0.0153717
0.186341
-0.0150986
0.189781
-0.0133084
0.192901
-0.01105
-0.00805117
0.144711
0.205866
0.161787
0.0838943
0.171964
0.0199303
0.178467
-0.00673266
0.183076
-0.0165554
0.186616
-0.0189115
0.189514
-0.0179973
0.191966
-0.0157604
0.194078
-0.0131619
-0.009792
0.147725
0.172597
0.166679
0.0649402
0.177215
0.0093943
0.183479
-0.0129975
0.187507
-0.0205826
0.190308
-0.0217132
0.192376
-0.0200653
0.193952
-0.017336
0.19517
-0.0143797
-0.0106377
0.150585
0.135439
0.170995
0.0445305
0.181831
-0.00144183
0.187868
-0.0190344
0.191404
-0.0241185
0.193567
-0.023876
0.194914
-0.021413
0.195729
-0.0181509
0.19617
-0.0148204
-0.0107044
0.153129
0.0951229
0.174693
0.0229661
0.185779
-0.0125272
0.191622
-0.0248773
0.194747
-0.0272442
0.196374
-0.0255031
0.197117
-0.0221553
0.197291
-0.0183248
0.197075
-0.0146052
-0.0101127
0.15524
0.0523372
0.177743
0.000462425
0.189016
-0.0237997
0.194712
-0.0305734
0.197516
-0.0300485
0.198716
-0.0267028
0.198971
-0.0224108
0.198628
-0.0179812
0.197882
-0.0138591
-0.00898716
0.156836
0.00772848
0.180076
-0.0227775
0.191503
-0.0352265
0.197114
-0.0361851
0.199693
-0.0326267
0.200578
-0.0275883
0.200469
-0.0223016
0.199734
-0.0172464
0.198585
-0.0127095
-0.00745545
0.157837
-0.0380843
0.181628
-0.046568
0.193212
-0.0468104
0.19881
-0.0417832
0.201263
-0.0350798
0.20195
-0.0282759
0.201601
-0.0219524
0.200604
-0.0162492
0.199181
-0.0112869
-0.00564836
0.158191
0.18235
0.194118
0.199783
0.202216
0.202825
0.202362
0.201233
0.199669
0.173862
0.025822
-0.199684
0.157994
0.0158686
0.150739
0.00725483
0.148436
0.00230271
0.148406
2.96894e-05
0.149215
-0.000808805
0.150166
-0.000951019
0.150973
-0.000806512
0.151524
-0.000551003
-0.00020864
0.236223
0.0884519
-0.298853
0.207538
0.0445531
0.196065
0.0187285
0.19246
0.00590776
0.192209
0.000280397
0.19318
-0.00177945
0.1944
-0.00217168
0.195455
-0.00186105
0.196197
-0.00129267
-0.000499807
0.241784
0.155106
-0.308439
0.211407
0.0749303
0.199788
0.0303481
0.196318
0.00937698
0.19621
0.000388248
0.197285
-0.00285403
0.198578
-0.00346504
0.199683
-0.00296583
0.200461
-0.00207006
-0.000806957
0.236961
0.218089
-0.299944
0.208922
0.102969
0.198725
0.0405456
0.196018
0.0120841
0.196291
0.000114636
0.197563
-0.0041257
0.198947
-0.004849
0.200093
-0.0041116
0.200888
-0.00286553
-0.00111997
0.231441
-0.285867
0.206094
0.197057
0.195165
0.195947
0.197462
0.198974
0.20018
0.201003
0.0188692
-0.000490526
-0.0183787
0.0220907
-0.00322146
0.028438
-0.00634728
0.0388511
-0.0104132
0.0545681
-0.015717
0.0760451
-0.021477
0.103548
-0.0275034
0.13398
-0.0304315
0.168931
-0.0349508
-0.0307535
0.0521811
-0.00239507
-0.0502765
0.0610753
-0.0121157
0.0774298
-0.0227018
0.10155
-0.0345335
0.132389
-0.0465557
0.167184
-0.0562721
0.203081
-0.0634007
0.236509
-0.0638591
0.269834
-0.0682756
-0.0597726
0.0775159
-0.00563941
-0.0742716
0.089694
-0.0242938
0.110317
-0.043325
0.13758
-0.0617966
0.168115
-0.0770906
0.198833
-0.0869897
0.228165
-0.0927331
0.256185
-0.0918794
0.284035
-0.096125
-0.0841763
0.0940782
-0.00975244
-0.0899651
0.107092
-0.0373077
0.127466
-0.0636992
0.152373
-0.0867034
0.178953
-0.10367
0.205721
-0.113758
0.231388
-0.1184
0.256599
-0.117091
0.279337
-0.118863
-0.104783
0.103577
-0.0990825
0.116169
0.134953
0.157463
0.181707
0.20604
0.228659
0.249933
0.265453
0.0994596
-0.0892356
0.0982555
-0.108479
0.0900148
-0.092089
0.101534
0.08008
-0.0953009
0.105236
0.0693654
-0.0985487
0.109263
0.0577932
-0.101886
0.113459
0.045417
-0.105354
0.11773
0.032365
-0.108652
0.121704
0.0189985
-0.109687
0.123054
0.00676466
-0.0992474
0.111481
-0.0539516
0.0607163
0.105498
-0.0790353
-0.115698
0.0948392
-0.0814302
0.083479
-0.0839408
0.0715125
-0.0865822
0.0590248
-0.0893986
0.0460547
-0.0923841
0.0326492
-0.0952469
0.0190935
-0.0961313
0.00678389
-0.0869378
-0.0471677
0.105504
-0.0679993
-0.11654
0.0942025
-0.0701289
0.0825787
-0.072317
0.0706009
-0.0746045
0.05823
-0.0770277
0.0454243
-0.0795784
0.0321881
-0.0820106
0.0187934
-0.0827366
0.00664181
-0.0747862
-0.0405259
0.106946
-0.0568263
-0.118119
0.0954974
-0.0586798
0.0837103
-0.06053
0.0715449
-0.062439
0.0589678
-0.0644506
0.0459566
-0.0665671
0.0325339
-0.068588
0.0189831
-0.0691857
0.006713
-0.0625161
-0.0338129
0.107536
-0.0455797
-0.118782
0.0959647
-0.0471088
0.084048
-0.0486133
0.0717696
-0.0501606
0.0591072
-0.0517883
0.0460381
-0.053498
0.0325777
-0.0551276
0.0189987
-0.0556068
0.0067065
-0.0502239
-0.0271064
0.107891
-0.0343223
-0.119148
0.0962887
-0.0355065
0.0843351
-0.0366597
0.0720167
-0.0378422
0.0593118
-0.0390834
0.0461979
-0.0403841
0.0326914
-0.041621
0.0190656
-0.041981
0.00672746
-0.0378857
-0.0203789
0.108018
-0.0230684
-0.119272
0.096408
-0.0238961
0.0844418
-0.0246934
0.0721076
-0.0255081
0.0593854
-0.0263612
0.0462545
-0.0272532
0.0327323
-0.0280989
0.0190916
-0.0283403
0.00673867
-0.0255328
-0.0136403
0.107988
-0.0118177
-0.119239
0.0963783
-0.0122861
0.0844133
-0.0127285
0.0720815
-0.0131762
0.0593625
-0.0136422
0.0462358
-0.0141265
0.032719
-0.014582
0.0190843
-0.0147056
0.0067374
-0.0131859
-0.00690287
0.107805
-0.000573955
-0.119049
0.0962037
-0.000684656
0.0842512
-0.00077596
0.0719353
-0.000860356
0.0592357
-0.000942582
0.0461317
-0.00102253
0.0326408
-0.00109109
0.0190351
-0.00109992
0.00671826
-0.000869063
-0.000184606
0.107441
-0.118676
0.0958589
0.0839334
0.071651
0.0589903
0.0459305
0.0324891
0.0189385
0.006679
0.0188127
-0.208677
-0.0221395
0.0149037
-0.214367
0.0109648
-0.21794
0.00707772
-0.221385
0.00325266
-0.225256
-0.00043566
-0.229572
-0.00371891
-0.233214
-0.00540619
-0.230784
-0.00412793
-0.201708
-0.101473
0.0503976
-0.201845
-0.0572295
0.0425832
-0.206552
0.0348159
-0.210173
0.027281
-0.21385
0.0199433
-0.217918
0.0127742
-0.222403
0.0060519
-0.226492
0.000513468
-0.225245
-0.00172606
-0.199469
-0.103199
0.0771766
-0.191233
-0.0877894
0.0660611
-0.195437
0.0552112
-0.199323