/*--------------------------------*- C++ -*----------------------------------*\
  =========                 |
  \\      /  F ield         | OpenFOAM: The Open Source CFD Toolbox
   \\    /   O peration     | Website:  https://openfoam.org
    \\  /    A nd           | Version:  13
     \\/     M anipulation  |
\*---------------------------------------------------------------------------*/
FoamFile
{
    format      ascii;
    class       volScalarField;
    location    "3.9";
    object      p;
}
// * * * * * * * * * * * * * * * * * * * * * * * * * * * * * * * * * * * * * //

dimensions      [0 2 -2 0 0 0 0];

internalField   nonuniform List<scalar> 
1800
(
-0.92059
-0.921308
-0.920421
-0.917041
-0.911422
-0.904056
-0.897234
-0.893637
-0.892286
-0.933154
-0.94624
-0.945115
-0.94288
-0.938923
-0.933258
-0.926099
-0.918426
-0.91237
-0.906719
-0.938372
-0.981285
-0.977203
-0.972722
-0.967406
-0.961427
-0.954835
-0.947734
-0.940829
-0.935064
-0.943147
-1.02387
-1.01664
-1.00917
-1.00159
-0.993822
-0.985494
-0.976163
-0.96582
-0.955548
-0.948137
-1.07939
-1.06909
-1.05895
-1.04876
-1.03779
-1.0249
-1.00921
-0.990594
-0.969953
-0.948791
-1.14997
-1.13686
-1.12367
-1.10959
-1.09243
-1.07059
-1.0437
-1.01262
-0.978822
-0.944051
-1.23466
-1.21896
-1.20168
-1.18086
-1.15312
-1.11757
-1.07566
-1.02994
-0.982836
-0.936623
-1.32787
-1.31
-1.2866
-1.25473
-1.21144
-1.15816
-1.09898
-1.03789
-0.977676
-0.920097
-1.42011
-1.40005
-1.36763
-1.32018
-1.25736
-1.18441
-1.10784
-1.03228
-0.960205
-0.892887
-1.49873
-1.4758
-1.43146
-1.36507
-1.28099
-1.18869
-1.09607
-1.00747
-0.924728
-0.848349
-0.978204
-0.985769
-0.995188
-1.00749
-1.02472
-1.04679
-1.07276
-1.10228
-1.13712
-1.17964
-0.981121
-0.986035
-0.992906
-1.00342
-1.01921
-1.0401
-1.06508
-1.09336
-1.12577
-1.1641
-1.00124
-1.00267
-1.00621
-1.01461
-1.02877
-1.04835
-1.07237
-1.09974
-1.13002
-1.16409
-1.01577
-1.01297
-1.01309
-1.01877
-1.03046
-1.04776
-1.06986
-1.09585
-1.12455
-1.15431
-1.01306
-1.00677
-1.00363
-1.00583
-1.01364
-1.02681
-1.04473
-1.06665
-1.09152
-1.11706
-0.993903
-0.986081
-0.980379
-0.978235
-0.979902
-0.985456
-0.994755
-1.00745
-1.02305
-1.03949
-0.967513
-0.960635
-0.95418
-0.948469
-0.943462
-0.939455
-0.936919
-0.936313
-0.938254
-0.943392
-0.941832
-0.937748
-0.932561
-0.925585
-0.916348
-0.905036
-0.892395
-0.879545
-0.868453
-0.864576
-0.921521
-0.920361
-0.917363
-0.910974
-0.900703
-0.88675
-0.87
-0.851898
-0.834948
-0.824571
-0.908095
-0.909063
-0.907382
-0.901807
-0.892295
-0.879131
-0.863086
-0.845293
-0.827642
-0.8119
-1.42159
-1.62485
-1.12418
-0.718075
-0.443181
-0.173884
-0.0440934
0.021324
0.0303595
0.0192405
-1.38861
-1.68339
-1.28344
-0.861646
-0.510022
-0.20352
-0.0541548
0.016885
0.0278298
0.018076
-1.37915
-1.77241
-1.46038
-1.0013
-0.576405
-0.235734
-0.0673056
0.00998262
0.024026
0.0162542
-1.36063
-1.85254
-1.64553
-1.12876
-0.640171
-0.268985
-0.0832035
0.000776325
0.0190542
0.013893
-1.30793
-1.89539
-1.77194
-1.23932
-0.699863
-0.302711
-0.101503
-0.0105369
0.0130196
0.0111187
-1.21282
-1.89108
-1.85089
-1.32783
-0.754615
-0.337176
-0.122066
-0.0237651
0.00602149
0.00803405
-1.07814
-1.84078
-1.88284
-1.39132
-0.80334
-0.372509
-0.14495
-0.0388062
-0.00187012
0.00471636
-0.928627
-1.75098
-1.8737
-1.42883
-0.84419
-0.408042
-0.170119
-0.0556634
-0.0106651
0.00122599
-0.798938
-1.63775
-1.83442
-1.44226
-0.875849
-0.442406
-0.197214
-0.0743992
-0.0204979
-0.00242029
-0.722113
-1.51881
-1.77845
-1.43901
-0.900238
-0.474967
-0.225662
-0.0949861
-0.0315784
-0.00627994
-0.612154
-1.42527
-1.7106
-1.38116
-0.884827
-0.493421
-0.254573
-0.120276
-0.0464828
-0.0114575
-0.683929
-1.29446
-1.51712
-1.22603
-0.826235
-0.502262
-0.28714
-0.151141
-0.0648716
-0.017564
-0.696159
-1.13216
-1.30332
-1.0865
-0.78081
-0.518677
-0.323399
-0.183138
-0.083312
-0.0229225
-0.696911
-0.986225
-1.12004
-0.971055
-0.745125
-0.541376
-0.366555
-0.219786
-0.104433
-0.0287848
-0.664148
-0.860749
-0.965558
-0.872272
-0.718877
-0.572093
-0.415367
-0.257075
-0.123939
-0.0329851
-0.620703
-0.755181
-0.836511
-0.788633
-0.700993
-0.603761
-0.459261
-0.290241
-0.141437
-0.0363744
-0.573315
-0.667723
-0.729569
-0.718094
-0.687952
-0.63256
-0.494868
-0.315172
-0.15371
-0.0382495
-0.527544
-0.598809
-0.648187
-0.66661
-0.677071
-0.643653
-0.50888
-0.326454
-0.160165
-0.0393474
-0.492776
-0.56335
-0.608536
-0.638091
-0.66709
-0.640003
-0.5062
-0.326967
-0.161865
-0.0401068
-0.467573
-0.556635
-0.615742
-0.64705
-0.662912
-0.630164
-0.497076
-0.324351
-0.162156
-0.0412489
-0.716498
-0.773254
-0.815932
-0.849686
-0.876826
-0.905459
-0.932238
-0.953611
-0.938307
-0.915581
-0.565752
-0.630819
-0.684615
-0.729716
-0.766721
-0.796213
-0.81533
-0.82429
-0.819907
-0.817372
-0.445944
-0.513547
-0.572116
-0.620964
-0.660674
-0.690855
-0.7118
-0.726159
-0.734659
-0.74317
-0.347882
-0.416046
-0.475867
-0.526649
-0.568492
-0.602836
-0.630021
-0.654054
-0.673844
-0.693658
-0.268217
-0.336014
-0.395481
-0.447763
-0.491546
-0.53004
-0.562033
-0.591494
-0.61677
-0.641251
-0.204204
-0.271084
-0.329972
-0.382829
-0.427822
-0.46805
-0.502173
-0.53312
-0.560058
-0.585242
-0.154015
-0.219763
-0.278136
-0.33052
-0.375685
-0.415541
-0.4497
-0.479887
-0.506565
-0.530991
-0.117198
-0.181885
-0.239753
-0.29105
-0.335577
-0.373902
-0.406897
-0.435042
-0.460053
-0.481809
-0.0952224
-0.159239
-0.216811
-0.267426
-0.311507
-0.348637
-0.380383
-0.406049
-0.428447
-0.445844
-0.0857781
-0.150193
-0.208038
-0.259029
-0.303279
-0.340604
-0.371989
-0.396643
-0.417058
-0.429747
0.649396
0.578642
0.497542
0.410582
0.316445
0.212786
0.0998283
-0.0158046
-0.112489
-0.158785
0.451918
0.375607
0.290398
0.196994
0.0935331
-0.0215365
-0.146926
-0.274272
-0.379539
-0.428611
0.235665
0.156691
0.0691317
-0.0281778
-0.137352
-0.259529
-0.392766
-0.52741
-0.637936
-0.687813
0.0287189
-0.0533893
-0.144785
-0.246889
-0.361487
-0.489476
-0.628633
-0.767615
-0.879929
-0.928372
-0.157285
-0.243634
-0.339896
-0.447254
-0.567148
-0.70008
-0.844005
-0.984612
-1.09321
-1.14098
-0.321897
-0.412468
-0.513048
-0.624568
-0.74831
-0.88464
-1.02873
-1.16658
-1.27093
-1.3167
-0.466587
-0.559832
-0.662567
-0.775822
-0.900612
-1.03633
-1.1774
-1.30908
-1.406
-1.44809
-0.593985
-0.686478
-0.788
-0.899586
-1.02177
-1.15301
-1.28665
-1.40752
-1.49348
-1.53069
-0.700434
-0.789608
-0.887277
-0.994169
-1.11012
-1.23254
-1.3538
-1.45924
-1.53179
-1.56365
-0.785291
-0.868951
-0.960249
-1.05936
-1.16532
-1.27451
-1.37878
-1.46535
-1.52349
-1.5504
1.93973
1.95602
1.97285
1.98903
2.00364
2.01594
2.02519
2.0313
2.03624
2.04118
1.8738
1.88688
1.89972
1.91122
1.92062
1.92719
1.93018
1.92981
1.92911
1.93067
1.78669
1.79556
1.80316
1.80858
1.81127
1.81051
1.80558
1.797
1.78911
1.78652
1.68044
1.68454
1.68586
1.68383
1.67825
1.66839
1.65356
1.63477
1.61792
1.61049
1.55496
1.55324
1.54732
1.53699
1.52227
1.50241
1.47673
1.44668
1.41982
1.40713
1.41422
1.40657
1.3925
1.37249
1.34705
1.31549
1.27728
1.23446
1.19649
1.17787
1.25829
1.24416
1.22191
1.19233
1.15608
1.11242
1.06097
1.00451
0.954737
0.930004
1.0962
1.07457
1.04203
1.00066
0.951768
0.894672
0.829098
0.758525
0.696874
0.666053
0.93286
0.903684
0.860457
0.806546
0.743888
0.671894
0.5906
0.504578
0.430431
0.393695
0.782495
0.735776
0.675296
0.605914
0.528579
0.441731
0.345231
0.244537
0.158846
0.116917
1.65416
1.64089
1.63069
1.62419
1.62423
1.62882
1.64912
1.68849
1.75682
1.86592
1.64821
1.63587
1.62662
1.61912
1.61912
1.62142
1.64016
1.67438
1.73365
1.826
1.64286
1.63091
1.62238
1.61361
1.61343
1.61285
1.6298
1.65712
1.70491
1.7743
1.63802
1.62604
1.61798
1.60769
1.60718
1.60309
1.61808
1.63649
1.67114
1.71023
1.63367
1.62132
1.61342
1.60141
1.60034
1.59217
1.605
1.61233
1.63299
1.63277
1.62977
1.61678
1.60868
1.59481
1.59287
1.58017
1.59047
1.58461
1.59065
1.54118
1.62633
1.61244
1.60377
1.58795
1.5847
1.56715
1.57435
1.55332
1.54426
1.43393
1.62336
1.60833
1.59868
1.58085
1.57583
1.55321
1.55646
1.51868
1.49357
1.31254
1.62087
1.60444
1.59343
1.57354
1.56626
1.53852
1.53666
1.48089
1.43679
1.17511
1.61891
1.60078
1.58809
1.56604
1.55613
1.52321
1.51604
1.44172
1.37701
1.03322
1.61704
1.59677
1.5809
1.55668
1.54193
1.50288
1.48554
1.39214
1.30578
0.897578
1.61641
1.59314
1.57274
1.54647
1.52512
1.48126
1.45068
1.34939
1.23488
0.878338
1.61764
1.59067
1.56445
1.53687
1.50793
1.46166
1.41723
1.31508
1.17731
0.871395
1.62131
1.58938
1.55626
1.52806
1.49089
1.44425
1.38598
1.28779
1.1303
0.869912
1.62809
1.58903
1.54829
1.52008
1.4733
1.42911
1.35704
1.26693
1.09387
0.870937
1.63864
1.5898
1.54063
1.51295
1.45603
1.41606
1.33083
1.25153
1.0672
0.871133
1.65279
1.58908
1.53205
1.50378
1.43847
1.404
1.30785
1.23983
1.04881
0.871123
1.67803
1.59265
1.52652
1.49701
1.42332
1.39328
1.28879
1.23187
1.03697
0.872097
1.69073
1.58506
1.51443
1.48518
1.41058
1.38587
1.27655
1.22829
1.0315
0.875301
1.76735
1.59806
1.51808
1.48256
1.40484
1.38278
1.27113
1.22852
1.02903
0.880208
0.637212
0.476882
0.285583
0.1019
-0.0623066
-0.208031
-0.338247
-0.454707
-0.557094
-0.644957
0.592656
0.466875
0.322657
0.177462
0.0427172
-0.0807858
-0.194521
-0.301188
-0.39996
-0.488996
0.581689
0.475158
0.359898
0.240924
0.125239
0.0146457
-0.0905693
-0.190241
-0.283276
-0.368669
0.597998
0.498798
0.395548
0.292059
0.190025
0.0901967
-0.00676802
-0.100017
-0.188732
-0.271558
0.618684
0.525175
0.429658
0.335856
0.2436
0.151979
0.0613598
-0.0275479
-0.112915
-0.193771
0.639413
0.551223
0.461648
0.374192
0.288257
0.20205
0.115766
0.0299694
-0.0527208
-0.131639
0.658726
0.575452
0.49065
0.407413
0.325144
0.242124
0.158537
0.0750627
-0.00568076
-0.0828164
0.675873
0.597001
0.516166
0.435607
0.354918
0.273117
0.190637
0.108521
0.0290248
-0.0467618
0.691025
0.615712
0.537946
0.458486
0.377382
0.294839
0.211908
0.12988
0.0504413
-0.0250689
0.703146
0.629407
0.552307
0.471793
0.388994
0.305157
0.221594
0.139404
0.060004
-0.0154828
-1.77155
-1.73103
-1.64436
-1.5354
-1.42504
-1.32456
-1.23816
-1.16694
-1.11119
-1.07136
-1.85132
-1.81597
-1.74335
-1.6495
-1.55141
-1.46027
-1.381
-1.31529
-1.26414
-1.22885
-1.8642
-1.83337
-1.77611
-1.70073
-1.61863
-1.53976
-1.4695
-1.41009
-1.36304
-1.3299
-1.82302
-1.79591
-1.75291
-1.69679
-1.633
-1.56896
-1.50991
-1.45859
-1.41695
-1.38669
-1.74733
-1.72357
-1.69206
-1.65287
-1.60697
-1.55853
-1.51166
-1.46902
-1.4325
-1.40313
-1.65803
-1.63774
-1.61454
-1.58778
-1.55643
-1.5219
-1.48672
-1.45282
-1.42231
-1.39664
-1.57197
-1.55555
-1.53824
-1.51955
-1.49835
-1.47478
-1.4499
-1.42511
-1.4015
-1.38032
-1.4988
-1.48649
-1.47366
-1.46003
-1.44508
-1.42859
-1.41086
-1.39191
-1.37401
-1.35708
-1.44169
-1.43316
-1.42402
-1.41401
-1.40319
-1.39154
-1.37915
-1.36633
-1.35278
-1.34745
-1.39948
-1.39409
-1.38788
-1.38069
-1.37286
-1.36467
-1.35608
-1.34784
-1.33641
-1.33623
-1.36955
-1.36634
-1.36236
-1.35738
-1.35198
-1.34666
-1.34172
-1.33728
-1.33053
-1.30807
-1.34905
-1.34711
-1.3443
-1.34073
-1.33701
-1.33361
-1.33063
-1.32777
-1.32277
-1.29695
-1.33588
-1.33393
-1.33144
-1.3286
-1.32582
-1.32347
-1.32183
-1.32054
-1.31772
-1.30776
-1.3266
-1.32437
-1.32254
-1.32166
-1.32185
-1.32328
-1.32605
-1.33017
-1.33579
-1.34539
-1.31297
-1.31134
-1.31163
-1.31479
-1.3207
-1.32921
-1.34026
-1.35388
-1.37034
-1.39163
-1.28467
-1.28521
-1.28897
-1.29711
-1.30932
-1.32526
-1.34472
-1.36752
-1.39349
-1.42324
-1.23437
-1.23809
-1.24565
-1.25799
-1.27482
-1.29571
-1.32015
-1.3475
-1.37643
-1.40421
-1.16194
-1.16918
-1.18031
-1.19598
-1.21639
-1.24137
-1.27025
-1.30231
-1.33786
-1.38055
-1.08014
-1.08967
-1.10307
-1.12159
-1.14312
-1.16952
-1.19958
-1.2322
-1.27086
-1.31806
-1.01036
-1.01911
-1.02959
-1.04164
-1.06013
-1.08315
-1.1103
-1.14209
-1.17929
-1.22648
-1.30624
-1.50627
-1.03206
-0.698438
-0.486117
-0.24547
-0.0957947
-0.022221
0.00585445
0.00796321
-1.38258
-1.59029
-1.01069
-0.596667
-0.402793
-0.20882
-0.088753
-0.0229711
0.00503268
0.00773398
-1.46544
-1.64572
-0.971884
-0.481119
-0.321903
-0.17361
-0.0792815
-0.019759
0.00691764
0.00858373
-1.5561
-1.6837
-0.922473
-0.372586
-0.251081
-0.142684
-0.0674129
-0.012687
0.0112215
0.0103615
-1.64434
-1.72151
-0.875806
-0.295014
-0.205047
-0.121059
-0.0551892
-0.00341896
0.0167519
0.0126536
-1.7131
-1.75437
-0.845564
-0.263368
-0.190815
-0.110333
-0.0447444
0.00585548
0.0221669
0.0149819
-1.74025
-1.76089
-0.843937
-0.282751
-0.212882
-0.109066
-0.0375215
0.0135996
0.0265819
0.0169882
-1.70096
-1.7278
-0.874386
-0.352851
-0.257118
-0.115406
-0.0339384
0.0192058
0.0296518
0.0184932
-1.6048
-1.6672
-0.927733
-0.456656
-0.314513
-0.12875
-0.0339269
0.0224502
0.0313004
0.0194138
-1.49755
-1.62198
-1.00622
-0.580445
-0.37741
-0.148526
-0.0373293
0.0231858
0.0315307
0.019683
-1.13689
-1.09755
-0.907213
-0.796513
-0.573743
-0.27693
-0.0889712
-0.00648884
0.0159943
0.0117251
-1.13067
-1.0859
-0.902114
-0.799292
-0.581129
-0.281198
-0.0907764
-0.00731799
0.0155588
0.0115892
-1.14239
-1.12743
-0.917499
-0.804484
-0.586597
-0.285196
-0.0936535
-0.00962326
0.0141944
0.0111083
-1.17742
-1.22541
-0.953305
-0.804745
-0.586093
-0.284372
-0.0966123
-0.0135178
0.0117933
0.010195
-1.23794
-1.38184
-1.00272
-0.763151
-0.54589
-0.272586
-0.098833
-0.0187123
0.0085497
0.00897975
-1.03135
-1.18127
-1.28205
-1.34675
-1.36272
-1.36724
-1.34615
-1.31564
-1.27805
-1.23509
-1.03217
-1.18446
-1.2837
-1.34659
-1.35735
-1.36119
-1.33881
-1.30396
-1.27281
-1.22593
-1.03486
-1.18884
-1.28719
-1.34821
-1.35679
-1.35999
-1.33699
-1.30537
-1.27938
-1.24178
-1.04124
-1.19732
-1.29615
-1.35502
-1.3653
-1.36513
-1.34467
-1.31992
-1.30019
-1.28514
-1.05219
-1.21091
-1.31104
-1.36809
-1.38153
-1.37686
-1.3609
-1.34021
-1.32683
-1.33187
1.46106
1.44945
1.43064
1.40781
1.38187
1.35171
1.31655
1.2782
1.24514
1.22926
1.57547
1.57662
1.57097
1.56055
1.54654
1.5284
1.50553
1.47934
1.4566
1.44618
1.68715
1.69415
1.6962
1.69463
1.69028
1.68264
1.67103
1.65622
1.64319
1.63775
1.78669
1.79852
1.80737
1.81372
1.81784
1.81914
1.81686
1.81136
1.80629
1.80528
1.87195
1.88747
1.90115
1.91309
1.9233
1.93119
1.93599
1.93778
1.93906
1.94173
1.93766
1.95562
1.97302
1.9895
2.0047
2.01798
2.02854
2.03618
2.04246
2.04818
1.98294
2.00252
2.02238
2.04182
2.06021
2.07689
2.09108
2.1024
2.1119
2.11964
2.00595
2.02615
2.04721
2.06818
2.0882
2.1066
2.12259
2.13571
2.14677
2.1555
2.00636
2.02627
2.04725
2.06818
2.08812
2.10636
2.12213
2.13499
2.14582
2.15442
1.98421
2.00283
2.02241
2.04175
2.05988
2.07609
2.0896
2.10011
2.10889
2.11621
-0.859204
-0.905335
-0.965896
-1.04151
-1.133
-1.23979
-1.35859
-1.47844
-1.57596
-1.62126
-0.599409
-0.651949
-0.717585
-0.797109
-0.891741
-1.0017
-1.12551
-1.25262
-1.35761
-1.40602
-0.307199
-0.365866
-0.436361
-0.51913
-0.615525
-0.726289
-0.849948
-0.977547
-1.0887
-1.13838
-0.00472199
-0.0678804
-0.141452
-0.225562
-0.321471
-0.430076
-0.550239
-0.674938
-0.782516
-0.834302
0.286
0.221397
0.148025
0.0659331
-0.026064
-0.129081
-0.242446
-0.359878
-0.460283
-0.510307
0.549017
0.487365
0.418537
0.342575
0.258283
0.164398
0.0613203
-0.0453508
-0.136245
-0.182137
0.780669
0.726089
0.665657
0.599257
0.525616
0.443404
0.352867
0.259006
0.179169
0.138786
0.988916
0.943097
0.892476
0.83686
0.77483
0.705028
0.627636
0.547097
0.478705
0.444324
1.18298
1.14508
1.10243
1.05597
1.00441
0.946285
0.881649
0.814255
0.757195
0.728869
1.3528
1.32264
1.28662
1.24841
1.20732
1.16162
1.11078
1.05747
1.01228
0.990163
1.76662
1.6764
1.65338
1.64304
1.63676
1.64123
1.64875
1.66858
1.65687
1.59381
1.74928
1.67561
1.65354
1.64461
1.63915
1.64516
1.65602
1.68161
1.68968
1.66978
1.73365
1.67384
1.65287
1.6452
1.64061
1.64783
1.66217
1.69494
1.72165
1.74334
1.71962
1.67127
1.65155
1.64491
1.64118
1.64931
1.66665
1.70483
1.74793
1.80313
1.70702
1.66804
1.6497
1.64385
1.64098
1.64971
1.6693
1.71164
1.76817
1.85058
1.69569
1.66428
1.64739
1.64206
1.64001
1.64902
1.67014
1.71533
1.78209
1.88485
1.68551
1.66008
1.64468
1.63961
1.63828
1.6472
1.66924
1.71588
1.78953
1.90605
1.67637
1.65556
1.64162
1.63654
1.63581
1.64427
1.66666
1.71336
1.79051
1.91462
1.66816
1.6508
1.63823
1.63292
1.63262
1.64023
1.66243
1.70791
1.7853
1.91062
1.66079
1.64589
1.63458
1.62879
1.62875
1.63509
1.65657
1.69963
1.77405
1.89424
1.93329
1.67881
1.64536
1.62968
1.62418
1.62368
1.61765
1.61654
1.54659
1.48874
1.85887
1.67288
1.64641
1.63273
1.6261
1.62499
1.61852
1.61797
1.54913
1.48503
1.83594
1.67793
1.65005
1.63575
1.62824
1.62731
1.62153
1.62241
1.56007
1.48411
1.80933
1.67768
1.65177
1.63845
1.63075
1.63081
1.62805
1.63229
1.58121
1.49484
1.78625
1.67693
1.65275
1.64084
1.63359
1.63548
1.63644
1.64723
1.61236
1.51859
1.23299
1.11833
0.965118
0.768569
0.531444
0.261667
-0.0281612
-0.320053
-0.594353
-0.833984
1.22755
1.11652
0.969074
0.77803
0.546644
0.28083
-0.00845488
-0.303482
-0.583731
-0.830027
1.23839
1.12402
0.974939
0.786227
0.559177
0.29623
0.00663653
-0.29165
-0.577024
-0.828769
1.27128
1.14337
0.983925
0.793661
0.569123
0.307766
0.0171513
-0.284434
-0.574422
-0.831136
1.32802
1.17739
0.998321
0.800348
0.574905
0.314341
0.0234526
-0.280603
-0.575165
-0.837472
)
;

boundaryField
{
    left
    {
        type            zeroGradient;
    }
    right
    {
        type            fixedValue;
        value           uniform 0;
    }
    down
    {
        type            zeroGradient;
    }
    up
    {
        type            zeroGradient;
    }
    cylinder
    {
        type            zeroGradient;
    }
    defaultFaces
    {
        type            empty;
    }
}


// ************************************************************************* //
