/*--------------------------------*- C++ -*----------------------------------*\
  =========                 |
  \\      /  F ield         | OpenFOAM: The Open Source CFD Toolbox
   \\    /   O peration     | Website:  https://openfoam.org
    \\  /    A nd           | Version:  13
     \\/     M anipulation  |
\*---------------------------------------------------------------------------*/
FoamFile
{
    format      ascii;
    class       surfaceScalarField;
    location    "3.9";
    object      phi;
}
// * * * * * * * * * * * * * * * * * * * * * * * * * * * * * * * * * * * * * //

dimensions      [0 3 -1 0 0 0 0];

internalField   nonuniform List<scalar> 
3485
(
-0.00164297
0.00404689
-0.00240391
-0.00411759
0.0080122
-0.00553758
-0.00550234
0.0090363
-0.00765155
-0.00423078
0.00759017
-0.00886173
0.0010399
0.00375469
-0.00902537
0.0114352
-0.00248025
-0.00791504
0.0279624
-0.0111551
-0.00537203
0.0512164
-0.0219538
-0.00130016
0.0817179
-0.0340101
0.00350853
-0.039678
0.00668908
0.114707
-0.000639355
0.00468624
-0.000791281
0.00816413
0.00117899
0.00706603
0.00683203
0.00193713
0.0175268
-0.00694012
0.0343086
-0.019262
0.0576251
-0.0344716
0.087421
-0.0517497
0.123493
-0.070082
-0.0832831
0.167098
0.000324513
0.00436173
0.00272414
0.0057645
0.00875758
0.00103259
0.0199959
-0.0093012
0.0375406
-0.0244848
0.0617381
-0.0434596
0.0919568
-0.0646903
0.126662
-0.086455
0.163972
-0.107392
-0.124639
0.205328
0.000967448
0.00339428
0.00570956
0.00102239
0.0160095
-0.00926735
0.0331003
-0.026392
0.0572964
-0.0486809
0.0875626
-0.0737258
0.121749
-0.0988767
0.157186
-0.121892
0.19113
-0.141336
-0.156487
0.222979
0.00181608
0.0015782
0.00932349
-0.00648502
0.0241946
-0.0241385
0.0468703
-0.0490676
0.0759886
-0.0777992
0.108679
-0.106417
0.141547
-0.131744
0.171642
-0.151987
0.197022
-0.166716
-0.176739
0.217274
0.0029636
-0.00138541
0.0136109
-0.0171323
0.032855
-0.0433825
0.0593839
-0.0755965
0.0897876
-0.108203
0.119992
-0.13662
0.146733
-0.158486
0.168277
-0.17353
0.184404
-0.182844
-0.188015
0.19568
0.00428002
-0.00566542
0.0179622
-0.0308145
0.0402598
-0.0656802
0.0676172
-0.102954
0.0952881
-0.135874
0.119519
-0.160851
0.138528
-0.177495
0.152324
-0.187326
0.161904
-0.192424
-0.194716
0.168605
0.00558003
-0.0112454
0.0214963
-0.0467308
0.0446309
-0.0888148
0.0696973
-0.12802
0.0921097
-0.158286
0.109592
-0.178334
0.121993
-0.189895
0.130309
-0.195643
0.135812
-0.197927
-0.198301
0.139397
0.0066235
-0.017869
0.0234578
-0.0635651
0.0451506
-0.110508
0.0659838
-0.148853
0.0826185
-0.174921
0.0943099
-0.190025
0.101848
-0.197433
0.106485
-0.200281
0.109288
-0.200729
-0.199948
0.110935
0.00722614
-0.0250951
0.0235239
-0.0798628
0.0421752
-0.129159
0.0581747
-0.164853
0.0695987
-0.186345
0.0767086
-0.197135
0.0806506
-0.201375
0.0825919
-0.202222
0.0833557
-0.201493
0.0833331
-0.199925
-0.00510808
0.00785343
-0.00274534
-0.0157243
0.0194139
-0.00879765
-0.0291627
0.0262395
-0.0128011
-0.0439862
0.0295921
-0.0147686
-0.0595193
0.0310639
-0.0155307
-0.0754664
0.0317338
-0.0157868
-0.0916787
0.0320864
-0.0158741
-0.108037
0.0322811
-0.0159229
-0.124425
0.0323899
-0.0160015
0.0327773
-0.140927
-0.0162761
-0.00308237
0.0109358
-0.0103204
0.0266519
-0.0203651
0.0362841
-0.0321225
0.0413495
-0.0447865
0.0437279
-0.0578728
0.0448201
-0.0711214
0.0453351
-0.0843698
0.0455295
-0.0974721
0.0454922
0.0456227
-0.110318
-0.000264197
0.0112
-0.0022659
0.0286536
-0.00661267
0.0406309
-0.012959
0.0476958
-0.0205575
0.0513265
-0.0287126
0.0529752
-0.0369687
0.0535911
-0.0450782
0.053639
-0.0528933
0.0533074
0.0527601
-0.0600307
0.00212948
0.00907052
0.00537403
0.025409
0.00755267
0.0384523
0.0078305
0.047418
0.0063932
0.0527638
0.00388054
0.0554878
0.000936969
0.0565347
-0.00196667
0.0565426
-0.00448899
0.0558297
0.0547206
-0.00644949
0.00331872
0.0057518
0.0101773
0.0185505
0.017964
0.0306655
0.0249627
0.0404193
0.0304853
0.0472412
0.0346286
0.0513446
0.0378848
0.0532785
0.040822
0.0536055
0.0439078
0.0527438
0.0507639
0.0478645
0.00316118
0.00259062
0.0108637
0.010848
0.0212316
0.0202976
0.032536
0.0291149
0.0435789
0.0361983
0.0537931
0.0411303
0.0631139
0.0439577
0.0717651
0.0449542
0.080065
0.0444439
0.0422818
0.088547
0.00216185
0.000428773
0.00824241
0.00476747
0.017491
0.0110489
0.0288598
0.0177462
0.0413251
0.0237329
0.0541172
0.0283383
0.0667853
0.0312896
0.0791512
0.0325884
0.0912425
0.0323525
0.0301093
0.103415
0.000835875
-0.000407102
0.0039181
0.00168525
0.00944655
0.00552047
0.0171984
0.00999431
0.0266939
0.0142374
0.0373938
0.0176384
0.0488455
0.0198378
0.060772
0.0206619
0.0731695
0.0199551
0.0169772
0.0863015
-0.000724815
0.000317712
-0.00121162
0.00217205
-0.000453991
0.00476285
0.00199621
0.0075441
0.0062203
0.0100133
0.0121138
0.0117449
0.0195154
0.0124362
0.0282903
0.0118871
0.0383624
0.00988287
0.00587019
0.0494695
-0.0020862
-0.00545173
-0.00834044
-0.00965807
-0.00867011
-0.00484021
0.00222398
0.0128109
0.0262023
0.0387616
-0.229685
0.251818
-0.16306
-0.207513
0.338112
-0.360285
-0.0857656
0.21238
-0.334127
0.0215964
-0.135687
0.0283253
0.0946939
-0.390517
0.31742
0.144361
-0.421658
0.37199
0.174671
-0.391006
0.360696
0.192032
-0.300088
0.282727
0.203682
-0.247245
0.235595
-0.1552
0.148475
-0.186356
0.327857
-0.166733
0.318489
-0.0508213
0.0964687
0.0529435
-0.239452
0.120918
-0.458491
0.166441
-0.467181
0.19208
-0.416644
0.20556
-0.313568
0.213069
-0.254754
-0.159242
-0.115694
0.38352
-0.100563
0.303358
-0.00208588
-0.00200879
0.0887206
-0.330259
0.149672
-0.519442
0.189196
-0.506705
0.209344
-0.436793
0.218747
-0.322971
0.222403
-0.25841
-0.160806
-0.036539
0.413609
-0.0243231
0.291142
0.049029
-0.0753609
0.126298
-0.407528
0.178678
-0.571822
0.211412
-0.539439
0.225898
-0.451279
0.231073
-0.328146
0.231154
-0.258492
-0.160185
0.0393151
0.422159
0.047183
0.283275
0.100608
-0.128785
0.162818
-0.469738
0.206032
-0.615036
0.231885
-0.565292
0.241143
-0.460537
0.242253
-0.329256
0.239027
-0.255265
-0.15767
0.103855
0.406851
0.108899
0.27823
0.147742
-0.167628
0.19655
-0.518547
0.230556
-0.649041
0.249841
-0.584578
0.254558
-0.465254
0.252095
-0.326793
0.245883
-0.249053
-0.153537
0.149892
0.360374
0.158564
0.269559
0.188009
-0.197072
0.225609
-0.556147
0.251161
-0.674593
0.264731
-0.598148
0.265769
-0.466292
0.26045
-0.321474
0.251666
-0.240269
-0.148072
0.172617
0.274059
0.194455
0.247721
0.220596
-0.223213
0.249074
-0.584625
0.267222
-0.69274
0.276231
-0.607158
0.274555
-0.464616
0.267206
-0.314125
0.256368
-0.229431
-0.141578
0.167864
0.155664
0.217206
0.198379
0.245925
-0.251932
0.266671
-0.605371
0.2786
-0.70467
0.284319
-0.612876
0.280882
-0.46118
0.272303
-0.305546
0.259977
-0.217105
-0.13439
0.148016
0.0464103
0.231577
0.114817
0.264487
-0.284842
0.277982
-0.618866
0.28604
-0.712728
0.289476
-0.616312
0.285002
-0.456706
0.275794
-0.296339
0.26251
-0.203821
-0.126851
0.404278
0.0252068
-0.383075
0.556114
-0.0370189
0.656353
-0.385081
0.666383
-0.628896
0.62677
-0.673114
0.570774
-0.560317
0.51247
-0.398401
0.462968
-0.246837
0.418758
-0.159611
-0.0999168
0.653129
0.00461687
-0.632539
0.735118
-0.119009
0.76305
-0.413013
0.714693
-0.580539
0.643488
-0.601909
0.57631
-0.493139
0.513808
-0.3359
0.462586
-0.195615
0.418212
-0.115237
-0.0724436
0.756742
-0.0305575
-0.721568
0.791757
-0.154023
0.760738
-0.381994
0.700976
-0.520777
0.643383
-0.544317
0.584781
-0.434536
0.521854
-0.272973
0.466613
-0.140373
0.418836
-0.0674605
-0.0433328
0.770453
-0.0627739
-0.738237
0.780439
-0.164009
0.751205
-0.35276
0.710532
-0.480105
0.654025
-0.48781
0.583612
-0.364123
0.511398
-0.200759
0.452379
-0.0813545
0.405936
-0.021017
-0.016368
0.756576
-0.0862299
-0.73312
0.762497
-0.16993
0.74043
-0.330693
0.697131
-0.436805
0.629417
-0.420097
0.551998
-0.286703
0.482037
-0.130799
0.428427
-0.0277437
0.388005
0.0194045
0.00674322
0.740493
-0.102162
-0.724561
0.744789
-0.174226
0.721707
-0.307612
0.666255
-0.381353
0.581487
-0.335328
0.494785
-0.200001
0.427494
-0.0635078
0.38334
0.0164102
0.35513
0.047614
0.0222639
0.721619
-0.109584
-0.714197
0.718225
-0.170831
0.675448
-0.264836
0.586789
-0.292694
0.47806
-0.226599
0.390719
-0.112661
0.338423
-0.0112109
0.313929
0.0409042
0.304967
0.0565759
0.0269348
0.674883
-0.0996074
-0.68486
0.643539
-0.139487
0.557017
-0.178314
0.429968
-0.165646
0.313626
-0.110257
0.244638
-0.0436723
0.220889
0.0125381
0.222665
0.0391278
0.23498
0.0442617
0.0209025
0.524607
-0.0586317
-0.565583
0.448091
-0.0629702
0.326724
-0.0569469
0.203519
-0.0424407
0.122632
-0.0293699
0.0908989
-0.0119392
0.0954244
0.00801263
0.116705
0.0178476
0.141587
0.0193789
0.00917014
0.188426
-0.247058
0.125456
0.0685093
0.0260686
-0.00330125
-0.0152404
-0.00722781
0.0106198
0.0299987
0.548471
0.0721574
-0.537295
0.56079
0.098616
0.575725
0.124462
0.591627
0.152703
0.607183
0.180124
0.619509
0.204947
0.611071
0.231417
0.578465
0.237934
0.48819
0.257373
0.219823
0.529233
0.0611117
-0.518187
0.54401
0.0838391
0.55991
0.108562
0.582045
0.130568
0.602452
0.159717
0.629668
0.177731
0.648229
0.212856
0.664087
0.222076
0.662409
0.25905
0.249693
0.515452
0.0513288
-0.505669
0.530413
0.0688785
0.545823
0.0931516
0.567315
0.109076
0.589115
0.137917
0.615846
0.151
0.644715
0.183987
0.67294
0.193851
0.705401
0.226589
0.233526
0.506014
0.0415228
-0.496208
0.519828
0.0550645
0.535839
0.0771405
0.555152
0.0897634
0.578392
0.114676
0.603148
0.126245
0.634876
0.152259
0.665345
0.163382
0.70424
0.187694
0.199529
0.498645
0.0312893
-0.488411
0.511287
0.0424217
0.527965
0.0604627
0.546203
0.071526
0.570004
0.0908745
0.594413
0.101836
0.625676
0.120995
0.656971
0.132088
0.69501
0.149655
0.16142
0.491382
0.021123
-0.481215
0.503463
0.03034
0.520112
0.0438141
0.538302
0.0533356
0.561821
0.0673561
0.586666
0.0769905
0.617049
0.0906127
0.648869
0.100269
0.685709
0.112814
0.122568
0.480774
0.0115648
-0.471216
0.492618
0.0184956
0.508781
0.0276512
0.527215
0.0349019
0.550288
0.0442832
0.575677
0.0516012
0.605652
0.0606375
0.638085
0.067836
0.674866
0.0760334
0.0832363
0.455868
0.00335265
-0.447656
0.46683
0.00753342
0.481757
0.0127246
0.499601
0.017058
0.521622
0.0222621
0.5467
0.0265236
0.575982
0.0313547
0.60841
0.0354082
0.645014
0.0394292
0.0433906
0.38419
-0.00131156
-0.379526
0.391527
0.000196297
0.402234
0.00201808
0.415755
0.00353624
0.4328
0.00521762
0.45275
0.00657326
0.476164
0.00794098
0.502593
0.00897891
0.532209
0.00981401
0.0100161
0.192767
-0.194078
0.192963
0.194981
0.198517
0.203735
0.210308
0.218249
0.227228
0.237042
0.0713482
0.147547
-0.135907
-0.0829881
0.0606568
0.149715
-0.139024
0.0507949
0.152318
-0.142456
0.041238
0.15579
-0.146234
0.0317419
0.159477
-0.149981
0.0224031
0.162247
-0.152908
0.0136549
0.161385
-0.152637
0.00632015
0.150945
-0.14361
0.001493
0.120572
-0.115745
0.0565297
-0.0550367
0.0672261
0.157965
-0.077644
0.0569647
0.159977
0.0470451
0.162238
0.0374792
0.165356
0.0281758
0.16878
0.0192528
0.17117
0.0111733
0.169465
0.00474114
0.157377
0.000879832
0.124433
0.0574096
0.0594845
0.167148
-0.068668
0.0500249
0.169436
0.040693
0.17157
0.0316746
0.174375
0.0230152
0.17744
0.014891
0.179294
0.00779693
0.176559
0.00257351
0.162601
8.48531e-06
0.126998
0.057418
0.0480867
0.175033
-0.0559712
0.0398695
0.177654
0.0316009
0.179838
0.0235349
0.182441
0.0158532
0.185121
0.00886658
0.186281
0.00313972
0.182286
-0.00043201
0.166172
-0.00109202
0.127658
0.056326
0.0345338
0.181811
-0.0413123
0.0275576
0.18463
0.0204887
0.186907
0.0135734
0.189356
0.00709591
0.191599
0.00148456
0.191892
-0.0024084
0.186179
-0.00372417
0.167488
-0.00235013
0.126284
0.0539759
0.019097
0.187498
-0.0247835
0.0133415
0.190385
0.00755587
0.192693
0.00196881
0.194943
-0.00304518
0.196613
-0.00684675
0.195694
-0.00862021
0.187952
-0.00752627
0.166394
-0.0036782
0.122436
0.0502977
0.00240819
0.192326
-0.00723671
-0.00226001
0.195053
-0.00681091
0.197244
-0.0110102
0.199142
-0.014396
0.199999
-0.0162246
0.197522
-0.0154961
0.187224
-0.0114816
0.16238
-0.00494831
0.115903
0.0453494
-0.0163152
0.196014
0.0126277
-0.019757
0.198495
-0.0229431
0.20043
-0.0255799
0.201779
-0.0270678
0.201486
-0.0264741
0.196929
-0.0227412
0.183491
-0.0154082
0.155047
-0.00606136
0.106556
0.039288
-0.0367219
0.198593
0.0341432
-0.0389291
0.200702
-0.0406756
0.202177
-0.0415486
0.202652
-0.0407761
0.200714
-0.0372688
0.193422
-0.0300066
0.176228
-0.0190065
0.144046
-0.00688656
0.0944363
0.0324015
-0.0592395
0.0579067
-0.0600301
-0.0600758
-0.0587985
-0.0552195
-0.0481429
-0.0367673
-0.0218798
-0.00730637
0.109918
0.0379874
-0.122145
-0.0257601
0.0974067
0.0390254
-0.0265143
0.084601
0.0401517
-0.027346
0.0714747
0.0413524
-0.0282261
0.0580101
0.0426091
-0.0291444
0.0442316
0.0437856
-0.0300071
0.0303242
0.0443478
-0.0304405
0.0169322
0.0427843
-0.0293922
0.00570439
0.0358551
-0.0246273
0.0181642
-0.0124598
0.108549
0.0501674
-0.120729
0.0961634
0.0514113
0.083496
0.0528191
0.0705162
0.0543323
0.0571984
0.0559268
0.0435653
0.0574187
0.0298111
0.0581021
0.0165936
0.0560018
0.00555875
0.0468899
0.0237229
0.106796
0.0621875
-0.118816
0.094508
0.0636992
0.0819643
0.0653628
0.0691382
0.0671584
0.0560069
0.0690581
0.0425887
0.0708369
0.0290747
0.071616
0.0161262
0.0689503
0.00536976
0.0576464
0.0290927
0.104463
0.0742016
-0.116478
0.0923302
0.0758324
0.0799354
0.0777576
0.0672568
0.079837
0.0542917
0.0820232
0.0410924
0.0840363
0.0278818
0.0848266
0.0153342
0.0814979
0.00503657
0.067944
0.0341293
0.101604
0.0859631
-0.113365
0.089697
0.0877393
0.0776183
0.0898363
0.0652965
0.0921589
0.0526812
0.0946384
0.0398047
0.0969128
0.0269107
0.0977206
0.0147128
0.0936958
0.0047934
0.0778634
0.0389227
0.0976339
0.0977663
-0.109437
0.0858363
0.0995368
0.0738822
0.10179
0.0617833
0.104258
0.0495294
0.106892
0.0371486
0.109294
0.0248695
0.11
0.0133953
0.10517
0.00424806
0.0870106
0.0431707
0.0934522
0.108914
-0.1046
0.0823058
0.110683
0.0709625
0.113134
0.0593286
0.115892
0.0474182
0.118803
0.0353509
0.121361
0.0234471
0.121903
0.0124623
0.116155
0.00387473
0.0955982
0.0470455
0.0859877
0.11988
-0.0969538
0.0752506
0.12142
0.0645628
0.123821
0.0537953
0.126659
0.0428369
0.129761
0.0317259
0.132472
0.0207839
0.132845
0.0108015
0.126137
0.00321298
0.103187
0.0502584
0.0810629
0.129117
-0.0903
0.071417
0.131066
0.0611975
0.134041
0.0506334
0.137223
0.0398924
0.140502
0.0291361
0.143228
0.0187332
0.143248
0.00947869
0.135392
0.00269754
0.109968
0.052956
0.0700069
-0.0767969
0.0620493
0.0536339
0.0446236
0.0351452
0.0254649
0.0160763
0.00785783
0.00208074
0.201671
0.00362511
-0.00730647
0.205498
0.0245472
-0.0283736
0.209653
0.0318687
-0.0360244
0.212241
0.0491377
-0.0517258
0.21403
0.062275
-0.0640638
0.213017
0.0774225
-0.076409
0.208516
0.102311
-0.0978107
0.197376
0.132955
-0.121815
0.1724
0.186661
-0.161685
0.24805
-0.197796
0.201334
0.000280802
0.204655
0.0212262
0.208787
0.0277371
0.210678
0.047246
0.212556
0.0603975
0.210692
0.0792867
0.206274
0.106729
0.194481
0.144747
0.169666
0.211476
0.296987
0.200964
-0.00269326
0.203668
0.0185224
0.207691
0.023714
0.208763
0.0461739
0.210679
0.0584813
0.207786
0.08218
0.20348
0.111035
0.190532
0.157695
0.166362
0.235646
0.344533
0.200537
-0.00524026
0.20254
0.016519
0.206342
0.0199123
0.206529
0.045987
0.208388
0.0566217
0.204324
0.0862441
0.200176
0.115184
0.185633
0.172237
0.162537
0.258742
0.390593
0.200032
-0.00728244
0.201276
0.0152755
0.204732
0.0164562
0.204002
0.0467165
0.205658
0.0549661
0.200346
0.0915558
0.196283
0.119248
0.179937
0.188583
0.158101
0.280578
0.435328
0.19943
-0.00872246
0.199877
0.0148282
0.202859
0.0134745
0.201202
0.0483736
0.20248
0.0536878
0.195861
0.0981747
0.191799
0.12331
0.173225
0.207156
0.15332
0.300483
0.479211
0.198716
-0.00944831
0.198352
0.0151914
0.200726
0.0111006
0.198153
0.0509465
0.19883
0.0530111
0.19096
0.106044
0.18651
0.12776
0.166067
0.227599
0.147532
0.319019
0.522143
0.197885
-0.00934309
0.196711
0.0163645
0.198346
0.00946633
0.194872
0.0544205
0.194718
0.0531651
0.185633
0.11513
0.180542
0.132851
0.157608
0.250532
0.141519
0.335108
0.566709
0.196946
-0.00829923
0.19496
0.0183502
0.195737
0.00868969
0.191367
0.0587899
0.190103
0.0544299
0.180013
0.125219
0.17386
0.139005
0.150407
0.273985
0.13472
0.350795
0.611128
0.195949
-0.00625846
0.193061
0.0212382
0.192982
0.00876847
0.187548
0.0642245
0.184933
0.0570444
0.17342
0.136732
0.165217
0.147208
0.139905
0.299297
0.128133
0.362567
0.662464
0.305127
-0.00937551
0.307375
0.0189905
0.317052
-0.000908084
0.318951
0.0623247
0.330419
0.0455764
0.330609
0.136542
0.349814
0.128004
0.354446
0.294665
0.405997
0.311016
0.593086
0.475376
0.305243
-0.0126082
0.308771
0.0154625
0.319433
-0.0115699
0.322892
0.0588654
0.335554
0.0329149
0.339626
0.13247
0.359988
0.107642
0.37439
0.280263
0.421782
0.263624
0.527004
0.487863
0.305248
-0.0158458
0.311201
0.00950904
0.321475
-0.0218432
0.327697
0.0526431
0.340191
0.0204207
0.349159
0.123501
0.368771
0.0880296
0.389624
0.25941
0.431283
0.221966
0.455717
0.50257
0.305609
-0.0194444
0.314724
0.000393421
0.32334
-0.0304586
0.333537
0.0424459
0.344082
0.0098757
0.357921
0.109663
0.375076
0.0708739
0.400797
0.233689
0.440667
0.182096
0.38182
0.514565
0.306883
-0.0243173
0.319157
-0.0118809
0.326121
-0.0374223
0.339952
0.0286153
0.349404
0.000422992
0.367437
0.09163
0.381676
0.0566356
0.412751
0.202613
0.446708
0.148139
0.31034
0.518188
0.30914
-0.0314471
0.324126
-0.0268669
0.32996
-0.043256
0.346901
0.0116743
0.355475
-0.00815118
0.37556
0.0715449
0.387375
0.0448208
0.422001
0.167987
0.451424
0.118716
0.242522
0.519242
0.312498
-0.0419352
0.328785
-0.0431534
0.334245
-0.0487165
0.352357
-0.00643739
0.357871
-0.0136655
0.378711
0.0507056
0.388459
0.0350722
0.426836
0.12961
0.45445
0.0911015
0.177899
0.519072
0.315708
-0.055633
0.328985
-0.0564304
0.331344
-0.0510751
0.344203
-0.0192965
0.343777
-0.01324
0.363466
0.0310165
0.372775
0.0257637
0.416151
0.0862344
0.445914
0.0613382
0.113344
0.510469
0.308552
-0.062175
0.303667
-0.0515451
0.291037
-0.0384451
0.287474
-0.0157337
0.280596
-0.00636152
0.297628
0.0139838
0.31046
0.0129321
0.358482
0.0382122
0.392256
0.0275641
0.0474169
0.458183
0.239835
0.18829
0.149845
0.134111
0.12775
0.141734
0.154666
0.192878
0.220442
0.267859
0.488402
-0.0960146
0.492787
-0.0820286
0.496148
-0.0720292
0.499272
-0.0590952
0.503696
-0.0457363
0.508335
-0.029423
0.5141
-0.0130015
0.520426
0.00630192
0.528516
0.0260525
0.049128
0.488667
-0.0968178
0.489122
-0.0824844
0.489136
-0.0720427
0.489205
-0.0591641
0.490627
-0.0471583
0.492755
-0.0315517
0.49677
-0.0170161
0.502135
0.000937425
0.509151
0.0190358
0.0400918
0.496112
-0.0903606
0.492536
-0.0789075
0.489216
-0.0687231
0.48674
-0.0566879
0.485227
-0.0456451
0.485708
-0.0320329
0.487345
-0.0186529
0.49129
-0.00300789
0.496635
0.0136906
0.0310578
0.503585
-0.0793812
0.495371
-0.0706929
0.488829
-0.0621809
0.484438
-0.0522972
0.480922
-0.0421295
0.479954
-0.0310642
0.480051
-0.0187498
0.483298
-0.00625517
0.487872
0.00911619
0.0227224
0.506049
-0.0672423
0.49598
-0.0606236
0.487574
-0.0537753
0.481506
-0.0462287
0.476945
-0.0375684
0.474779
-0.0288985
0.474357
-0.0183281
0.476621
-0.00851878
0.481135
0.00460221
0.0154461
0.506372
-0.0543716
0.495253
-0.0495051
0.485874
-0.0443962
0.478573
-0.0389274
0.473281
-0.0322764
0.47011
-0.0257281
0.469238
-0.0174559
0.470551
-0.00983175
0.474786
0.000367776
0.00901654
0.505296
-0.0405948
0.493073
-0.0372829
0.482595
-0.0339176
0.474047
-0.0303795
0.467695
-0.0259241
0.463395
-0.0214279
0.461605
-0.0156665
0.461989
-0.0102158
0.465439
-0.00308203
0.00324
0.494851
-0.0249768
0.480947
-0.0233791
0.468909
-0.0218794
0.458804
-0.020274
0.450938
-0.0180586
0.445148
-0.0156376
0.441909
-0.0124278
0.440916
-0.00922311
0.442989
-0.00515441
-0.00142724
0.44216
-0.00895316
0.427877
-0.00909627
0.415216
-0.00921899
0.404116
-0.00917344
0.394812
-0.00875502
0.387263
-0.00808796
0.381887
-0.00705256
0.378585
-0.00592034
0.3779
-0.00446963
-0.00305328
0.258906
0.249809
0.24059
0.231417
0.222662
0.214574
0.207521
0.201601
0.197132
0.00727208
0.0450882
-0.0523603
0.0171014
0.116659
-0.126488
0.0236335
0.163863
-0.170395
0.0259483
0.188977
-0.191292
0.0251101
0.199449
-0.19861
0.0224173
0.201838
-0.199145
0.0188124
0.199903
-0.196298
0.0149232
0.194706
-0.190817
0.0113322
0.185001
-0.18141
0.16732
0.00863286
-0.164621
0.00869525
0.0363929
0.0228678
0.102486
0.0347263
0.152005
0.0419038
0.1818
0.0449954
0.196357
0.0453868
0.201447
0.0442213
0.201069
0.0421563
0.196771
0.0393968
0.187761
0.171025
0.0356917
0.00926807
0.0271249
0.0271168
0.0846376
0.0446009
0.134521
0.0574855
0.168915
0.0653761
0.188467
0.0694642
0.197359
0.0710303
0.199503
0.0707987
0.197003
0.0687817
0.189778
0.175772
0.064035
0.00886798
0.0182569
0.0288687
0.0646369
0.051552
0.111837
0.0708133
0.149654
0.0845845
0.174695
0.0933741
0.188569
0.098462
0.194415
0.100799
0.194666
0.100403
0.190174
0.179863
0.0963119
0.00762001
0.0106369
0.0275335
0.0447235
0.0537224
0.0856485
0.0793125
0.124064
0.100131
0.153876
0.115118
0.173582
0.125022
0.184511
0.130921
0.188767
0.133314
0.18778
0.182298
0.130879
0.0058542
0.00478268
0.0233734
0.0272043
0.0499305
0.0590913
0.079936
0.094058
0.107956
0.125857
0.130767
0.150771
0.147482
0.167796
0.158624
0.177625
0.164903
0.181501
0.180783
0.166419
0.00399836
0.000784323
0.017629
0.0135736
0.0410689
0.0356515
0.0714863
0.0636406
0.104228
0.0931148
0.134928
0.120072
0.160721
0.142003
0.180452
0.157895
0.194244
0.167708
0.173549
0.201478
0.00239156
-0.00160724
0.0117947
0.00417049
0.0298331
0.0176131
0.0562288
0.0372449
0.0885604
0.0607832
0.123207
0.0854246
0.156621
0.108589
0.185896
0.12862
0.209717
0.143887
0.155063
0.228202
0.00118864
-0.00279588
0.00693312
-0.00157399
0.0191495
0.00539673
0.0389327
0.0174617
0.0659834
0.0337325
0.0985738
0.0528342
0.134106
0.0730572
0.169877
0.0928486
0.20246
0.111305
0.122794
0.234729
0.000394573
-0.00319045
0.00340021
-0.00457962
0.0106946
-0.00189769
0.0236673
0.00448898
0.043126
0.0142738
0.0689764
0.0269838
0.10016
0.0418735
0.135093
0.0579162
0.17145
0.0749476
0.0887275
0.205516
-5.27541e-05
-0.0031377
0.00120287
-0.00583525
0.00501087
-0.00570569
0.0125394
-0.00303955
0.0248031
0.00201008
0.0424703
0.00931665
0.06569
0.0186538
0.0939444
0.0296618
0.12676
0.0421316
0.05843
0.157058
-0.000171305
-0.00296639
0.000325876
-0.00633243
0.00222613
-0.00760595
0.00621408
-0.00702749
0.0129864
-0.00476222
0.0231637
-0.000860673
0.0372417
0.00457583
0.0552788
0.0116247
0.0768993
0.0205111
0.0332358
0.102093
0.000211521
-0.00317792
0.00114357
-0.00726448
0.00293451
-0.00939689
0.00572019
-0.00981317
0.009736
-0.00877803
0.0153421
-0.00646675
0.0228612
-0.00294333
0.0326119
0.00187403
0.0448603
0.00826273
0.0165488
0.0615473
0.0010602
-0.00423812
0.00342449
-0.00962877
0.00660281
-0.0125752
0.0103812
-0.0135915
0.0147636
-0.0131604
0.0199138
-0.0116169
0.0261176
-0.0091472
0.033807
-0.00581535
0.0436809
-0.00161118
0.00362677
0.0566029
0.00178
-0.00601812
0.0051421
-0.0129909
0.00916577
-0.0165989
0.013577
-0.0180027
0.0184346
-0.0180181
0.0239488
-0.0171311
0.0304008
-0.0155993
0.0381272
-0.0135417
0.0475072
-0.0109912
-0.00797669
0.0591107
0.00172376
-0.00774188
0.00434742
-0.0156145
0.00699417
-0.0192456
0.00961948
-0.020628
0.0124899
-0.0208885
0.0159254
-0.0205667
0.0202142
-0.0198881
0.0255998
-0.0189273
0.0322935
-0.0176849
-0.0162463
0.0405632
0.00057876
-0.00832064
0.00043555
-0.0154713
-0.000629771
-0.0181803
-0.002164
-0.0190938
-0.00369733
-0.0193551
-0.0049057
-0.0193583
-0.00561592
-0.0191778
-0.00577185
-0.0187714
-0.00542229
-0.0180345
-0.0170006
-0.00466807
-0.00159964
-0.00672101
-0.00603501
-0.011036
-0.0122111
-0.0120042
-0.0191511
-0.0121538
-0.0262246
-0.0122816
-0.0331178
-0.0124651
-0.0396881
-0.0126076
-0.0458649
-0.0125946
-0.0515632
-0.0123361
-0.0119995
-0.0565643
-0.00398247
-0.00273853
-0.0126715
-0.00234689
-0.0237151
-0.00096059
-0.0357656
-0.000103389
-0.0481169
6.97111e-05
-0.0605971
1.51223e-05
-0.0731182
-8.65237e-05
-0.0855622
-0.000150594
-0.0978217
-7.66055e-05
0.000104116
-0.109925
-0.00548388
-0.0166284
-0.0303901
-0.0452621
-0.0607231
-0.0764947
-0.0924554
-0.108529
-0.124607
-0.140779
0.210582
0.135424
-0.188948
0.204955
0.510026
-0.504399
0.165243
0.563844
-0.524133
0.155804
0.245001
-0.235562
0.170371
-0.0709116
0.0563448
0.180331
-0.176059
0.166098
0.185164
-0.148549
0.143716
0.190336
-0.0953359
0.0901633
0.196672
-0.0599531
0.053617
-0.0341853
0.0271309
0.16887
0.0686467
0.198265
0.480632
0.176005
0.586104
0.177718
0.243287
0.183072
-0.076265
0.179965
-0.172952
0.180287
-0.148871
0.186021
-0.10107
0.194765
-0.0686969
-0.0424523
0.137568
-0.00737398
0.1794
0.438799
0.174679
0.590826
0.180315
0.237651
0.171994
-0.0679441
0.160321
-0.161278
0.162423
-0.150973
0.173043
-0.11169
0.187208
-0.0828617
-0.0534567
0.117184
-0.0679549
0.147699
0.408284
0.155262
0.583264
0.158227
0.234686
0.139501
-0.0492176
0.12984
-0.151618
0.140794
-0.161927
0.158984
-0.129879
0.179239
-0.103117
-0.067346
0.0881205
-0.0969647
0.102357
0.394047
0.114336
0.571284
0.112041
0.236981
0.0969818
-0.0341586
0.102737
-0.157373
0.125743
-0.184933
0.15035
-0.154487
0.174645
-0.127411
-0.0829457
0.0377863
-0.0941878
0.0450078
0.386825
0.0531481
0.563144
0.0521614
0.237968
0.0627218
-0.044719
0.0891643
-0.183816
0.121078
-0.216847
0.148759
-0.182167
0.17423
-0.152883
-0.0987689
-0.0327697
-0.0660862
-0.0290283
0.383084
-0.0195672
0.553683
-0.00019381
0.218595
0.0479215
-0.0928342
0.0880871
-0.223981
0.124181
-0.25294
0.152254
-0.21024
0.176874
-0.177503
-0.113778
-0.116069
-0.00658119
-0.116171
0.383186
-0.0804035
0.517915
-0.0220207
0.160212
0.0479864
-0.162841
0.0946265
-0.270622
0.131929
-0.290243
0.158815
-0.237126
0.181411
-0.200099
-0.127378
-0.189454
0.0729475
-0.18351
0.377242
-0.107911
0.442317
-0.0206295
0.0729299
0.0567061
-0.240177
0.106852
-0.320767
0.143323
-0.326714
0.167799
-0.261602
0.187438
-0.219738
-0.139098
-0.230891
-0.213934
-0.105744
-0.00448916
0.0727536
0.123977
0.157959
0.179083
0.19494
0.0430898
0.0371273
-0.0802171
0.000145093
0.0429447
-0.0312575
0.0314026
-0.0472783
0.0160208
-0.0419952
-0.00528314
-0.0153173
-0.0266779
0.0107296
-0.0260469
0.0269399
-0.0162103
0.0354081
-0.00846817
-0.00338242
0.188861
0.117804
-0.269537
0.0695477
0.162258
-0.0190312
0.119981
-0.0496091
0.0465988
-0.0305072
-0.0243851
0.0140527
-0.0712378
0.055044
-0.0670382
0.0811919
-0.0423582
0.0961827
-0.023459
-0.00997714
0.3363
0.18839
-0.406886
0.183593
0.314964
0.0494771
0.254098
0.00136613
0.0947097
0.0245381
-0.0475571
0.0677517
-0.114451
0.104598
-0.103884
0.128401
-0.0661608
0.143176
-0.0382345
-0.0172857
0.421456
0.214777
-0.447843
0.290682
0.445739
0.142132
0.402647
0.0776782
0.159164
0.0923716
-0.0622504
0.125972
-0.148052
0.151538
-0.12945
0.167177
-0.0818005
0.177226
-0.0482832
-0.0231203
0.414875
-0.389046
0.356215
0.23473
0.158331
0.152426
0.170472
0.184739
0.193101
0.198435
0.0115849
-0.000131439
-0.0114534
0.0132445
-0.00165966
0.0163008
-0.00305633
0.0207704
-0.0044696
0.0272393
-0.00646888
0.034289
-0.00704964
0.044441
-0.010152
0.0544039
-0.00996299
0.0677891
-0.0133852
-0.0124279
0.0317813
-0.000818723
-0.031094
0.0365326
-0.00641098
0.0451979
-0.0117216
0.058683
-0.0179546
0.0776138
-0.0253997
0.100847
-0.030283
0.133922
-0.0432269
0.169725
-0.0457664
0.216869
-0.0605285
-0.0650966
0.0490358
-0.00237303
-0.0474815
0.0566179
-0.0139931
0.0703021
-0.0254057
0.0916498
-0.0393024
0.120589
-0.0543387
0.158894
-0.0685878
0.208336
-0.0926697
0.264048
-0.101478
0.335453
-0.131933
-0.136529
0.0632569
-0.00496071
-0.0606692
0.0731688
-0.023905
0.0909727
-0.0432097
0.117831
-0.0661606
0.153911
-0.0904188
0.202067
-0.116744
0.25666
-0.147262
0.323023
-0.167842
0.393962
-0.202872
-0.19041
0.0746091
-0.070937
0.0863958
0.107221
0.137372
0.177833
0.227508
0.281723
0.342083
0.373941
0.0852967
-0.0803648
0.0882144
-0.0931464
0.076499
-0.0815636
0.0903613
0.0672658
-0.0834631
0.0926964
0.0573603
-0.0854949
0.0954004
0.0467201
-0.0875567
0.0981969
0.0354814
-0.0893671
0.100606
0.0240177
-0.0898149
0.101279
0.0131091
-0.0858644
0.0967731
0.00425807
-0.0712399
0.080091
-0.0356931
0.0399512
0.094475
-0.0705753
-0.104265
0.0842585
-0.0713471
0.0733513
-0.0725559
0.0618307
-0.0739743
0.0498617
-0.0755877
0.0376226
-0.0771281
0.0254042
-0.0775965
0.0138878
-0.074348
0.00453984
-0.061892
-0.0311533
0.0966039
-0.0594153
-0.107764
0.0853395
-0.0600827
0.0738692
-0.0610856
0.0621921
-0.0622972
0.0502688
-0.0636645
0.0380878
-0.0649471
0.0258334
-0.0653421
0.014169
-0.0626836
0.0046271
-0.0523501
-0.0265262
0.102307
-0.0478848
-0.113837
0.0906268
-0.0484025
0.0787122
-0.049171
0.0664793
-0.0500643
0.0538733
-0.0510585
0.0409248
-0.0519985
0.0278701
-0.0522873
0.0154054
-0.0502189
0.00511494
-0.0420596
-0.0214113
0.104994
-0.0358484
-0.117031
0.0928345
-0.0362428
0.0804311
-0.0367676
0.0677571
-0.0373902
0.0547992
-0.0381007
0.0415944
-0.0387938
0.0283436
-0.0390365
0.0156911
-0.0375665
0.00521413
-0.0315826
-0.0161971
0.107946
-0.0236699
-0.120125
0.0955581
-0.0238548
0.0829225
-0.024132
0.0700046
-0.0244723
0.0567761
-0.0248721
0.0432508
-0.0252685
0.029611
-0.0253967
0.016503
-0.0244584
0.00554969
-0.0206294
-0.0106474
0.109561
-0.0113224
-0.121908
0.097019
-0.0113132
0.0842183
-0.0113314
0.0711282
-0.0113822
0.0577218
-0.0114656
0.0440128
-0.0115595
0.0301773
-0.0115612
0.0168535
-0.0111346
0.00568214
-0.00945801
-0.00496529
0.110645
0.00105556
-0.123023
0.0980271
0.00130442
0.0851338
0.00156198
0.071936
0.00181556
0.0584099
0.00206042
0.0445716
0.00227878
0.0305964
0.00241404
0.0171203
0.00234144
0.00579134
0.00187092
0.000826048
0.110997
0.0134289
-0.12337
0.0983705
0.0139307
0.0854589
0.0144735
0.0722346
0.0150399
0.0586737
0.0156213
0.0447914
0.0161611
0.0307617
0.0164438
0.0172213
0.0158818
0.00582824
0.013264
0.00665428
0.110687
-0.123019
0.0981038
0.0852314
0.0720452
0.058522
0.044676
0.0306793
0.0171688
0.00580552
0.0144639
-0.162356
-0.0167284
0.0098197
-0.176766
0.00417005
-0.185167
-0.00161925
-0.190509
-0.00690459
-0.19386
-0.010922
-0.194593
-0.0125971
-0.189617
-0.0107554
-0.172237
-0.0052883
-0.131955
-0.0576486
0.0382066
-0.158961
-0.041602
0.0318337
-0.170393
0.0242813
-0.177615
0.0164713
-0.182699
0.00891871
-0.186307
0.00219806
-0.187872
-0.00271919
-0.1847
-0.00463359
-0.170323
-0.00311143