/*--------------------------------*- C++ -*----------------------------------*\
  =========                 |
  \\      /  F ield         | OpenFOAM: The Open Source CFD Toolbox
   \\    /   O peration     | Website:  https://openfoam.org
    \\  /    A nd           | Version:  13
     \\/     M anipulation  |
\*---------------------------------------------------------------------------*/
FoamFile
{
    format      ascii;
    class       volVectorField;
    location    "3.9";
    object      U;
}
// * * * * * * * * * * * * * * * * * * * * * * * * * * * * * * * * * * * * * //

dimensions      [0 1 -1 0 0 0 0];

internalField   nonuniform List<vector> 
1800
(
(-0.0331959 0.0271071 1.3646e-20)
(-0.0789195 0.0477139 6.02438e-21)
(-0.103586 0.0538351 -7.9089e-21)
(-0.105437 0.0542577 2.54215e-20)
(-0.079839 0.0542785 9.70903e-20)
(-0.0222781 0.0564266 5.07172e-20)
(0.0699903 0.0622332 -2.5882e-20)
(0.1943 0.0720014 -3.85173e-21)
(0.360544 0.113255 1.00376e-19)
(0.44384 0.145035 1.0187e-19)
(-0.0457999 0.0346269 9.39936e-21)
(-0.0891522 0.0618853 -1.92388e-20)
(-0.089403 0.0665975 1.98841e-22)
(-0.047472 0.0584184 -4.25658e-20)
(0.0392533 0.0439952 1.77749e-20)
(0.172766 0.0270803 1.02418e-19)
(0.352458 0.0102612 -5.86562e-20)
(0.570362 -0.00815986 3.48381e-20)
(0.83573 -0.000343606 -1.52206e-19)
(0.985825 0.00278771 1.43924e-19)
(-0.0492753 0.0328682 3.3835e-21)
(-0.0763027 0.0566878 1.2477e-20)
(-0.0379006 0.0579791 -6.32472e-22)
(0.0633141 0.0451947 -8.21986e-21)
(0.22662 0.0255831 -9.98431e-20)
(0.447068 0.00421202 2.04666e-20)
(0.712842 -0.0150532 4.22013e-20)
(1.00566 -0.0307747 -1.78896e-20)
(1.31222 -0.0363405 8.43466e-23)
(1.5653 -0.0512929 -7.15193e-22)
(-0.0444271 0.025283 -6.76161e-21)
(-0.0376478 0.0361707 -2.1428e-20)
(0.0595856 0.0289154 -2.17076e-20)
(0.241557 0.0112927 2.03781e-20)
(0.498639 -0.00914587 1.71797e-20)
(0.810753 -0.0268821 7.82551e-21)
(1.14887 -0.0389228 -2.22876e-21)
(1.48231 -0.0442018 6.00595e-20)
(1.78677 -0.0448527 4.8307e-20)
(2.03355 -0.0456254 -1.90323e-20)
(-0.0306458 0.0154199 5.26812e-20)
(0.0325697 0.0112006 4.9457e-20)
(0.213025 -0.00331553 -3.37688e-20)
(0.494443 -0.020062 -4.16359e-20)
(0.846954 -0.0320066 -1.0105e-19)
(1.22715 -0.0360916 1.67225e-21)
(1.59055 -0.0329788 1.24791e-19)
(1.90386 -0.0254769 6.57362e-20)
(2.14811 -0.016817 2.61149e-21)
(2.32825 -0.0150722 -6.14126e-20)
(-0.00370177 0.00399564 -5.34008e-20)
(0.142941 -0.0125632 -8.83838e-21)
(0.428363 -0.0274053 1.7779e-19)
(0.81283 -0.0333535 -4.29283e-20)
(1.23574 -0.0280479 -1.13226e-19)
(1.63413 -0.0144428 2.24511e-19)
(1.96398 0.00219307 -2.48689e-19)
(2.20704 0.0171725 -3.50557e-19)
(2.36833 0.0274744 3.03427e-19)
(2.46188 0.0320732 1.10674e-21)
(0.0401997 -0.00719538 6.22759e-20)
(0.296349 -0.0282618 -1.30259e-19)
(0.695435 -0.0322394 -4.18433e-19)
(1.16136 -0.0175316 1.93628e-19)
(1.60613 0.00847698 4.32915e-19)
(1.96804 0.0363268 -1.72495e-21)
(2.22524 0.0593193 -9.69708e-19)
(2.3869 0.0745897 2.62184e-21)
(2.47631 0.0831805 1.21989e-18)
(2.5203 0.0828699 3.40187e-19)
(0.10243 -0.0147152 6.15635e-20)
(0.48636 -0.0274151 3.23491e-19)
(0.987925 -0.00868598 3.32821e-19)
(1.49378 0.031132 -1.13931e-19)
(1.91169 0.0737642 -4.12544e-19)
(2.20611 0.107849 -1.57914e-19)
(2.38681 0.129978 0)
(2.48364 0.141546 5.26812e-19)
(2.52775 0.145344 -7.65063e-21)
(2.54082 0.143066 -5.10308e-19)
(0.180694 -0.0144994 5.66611e-20)
(0.696769 -0.00278583 3.2066e-19)
(1.27183 0.0473095 5.91507e-19)
(1.77444 0.109862 -6.06793e-19)
(2.13682 0.161396 -5.3172e-19)
(2.35964 0.194827 2.24728e-19)
(2.47713 0.2122 -1.09033e-18)
(2.52818 0.218267 -8.2341e-19)
(2.54219 0.217593 1.0278e-18)
(2.53652 0.210898 8.97736e-19)
(0.269457 -0.00293639 -5.08261e-20)
(0.906306 0.0491281 2.50995e-19)
(1.51922 0.133634 1.61418e-19)
(1.98885 0.212489 -1.28475e-18)
(2.28741 0.26566 5.00667e-20)
(2.44726 0.293636 2.65428e-18)
(2.51698 0.303584 -1.55014e-18)
(2.53721 0.302825 -9.23206e-19)
(2.53342 0.296221 3.24702e-19)
(2.51714 0.28537 -7.45972e-19)
(-0.0102612 0.0687285 -5.73727e-20)
(-0.065257 0.178315 -5.87144e-20)
(-0.136823 0.242645 1.39476e-21)
(-0.214697 0.271871 5.15112e-21)
(-0.291273 0.282265 3.78773e-21)
(-0.364762 0.285011 1.97662e-19)
(-0.434402 0.285057 5.62079e-20)
(-0.499995 0.284102 -2.61694e-19)
(-0.564131 0.282937 -4.61589e-21)
(-0.631571 0.282477 1.13355e-20)
(-0.0184575 0.121965 -1.81203e-20)
(-0.0703881 0.292134 -3.12281e-20)
(-0.131954 0.388427 5.03351e-20)
(-0.197673 0.432091 3.82666e-20)
(-0.262259 0.44755 -9.2305e-22)
(-0.324069 0.450965 1.8723e-19)
(-0.382215 0.449663 -2.30568e-19)
(-0.436119 0.446033 -2.66037e-19)
(-0.487343 0.440826 3.14007e-19)
(-0.540066 0.435017 -9.17291e-20)
(-0.0277961 0.142462 -1.63439e-20)
(-0.073839 0.352393 -1.99996e-20)
(-0.118597 0.483102 -1.45194e-20)
(-0.163125 0.55011 -1.56547e-19)
(-0.20664 0.577631 -4.89629e-20)
(-0.24804 0.585404 5.13413e-19)
(-0.286318 0.58432 -1.3104e-19)
(-0.320549 0.578784 -3.24012e-19)
(-0.350741 0.570334 3.75835e-19)
(-0.379585 0.559861 2.2165e-19)
(-0.0323324 0.128236 -5.98641e-21)
(-0.072141 0.345728 -3.31823e-21)
(-0.10034 0.50548 -3.60936e-22)
(-0.122762 0.604083 5.84875e-21)
(-0.143014 0.654538 6.59109e-20)
(-0.161857 0.674583 -1.72025e-19)
(-0.178814 0.678128 -1.34409e-19)
(-0.192947 0.673017 1.56322e-19)
(-0.203928 0.662251 -4.86937e-21)
(-0.20794 0.647812 7.4054e-21)
(-0.0285048 0.0908172 0)
(-0.0613869 0.279773 -8.45891e-21)
(-0.0774508 0.448726 2.4783e-20)
(-0.0824118 0.576806 4.3528e-20)
(-0.0816133 0.660117 1.78473e-19)
(-0.0777242 0.706076 -1.25088e-19)
(-0.0716526 0.725526 4.64299e-20)
(-0.063278 0.727834 4.85407e-20)
(-0.0521832 0.718876 0)
(-0.0320543 0.7028 1.41757e-20)
(-0.0178531 0.0479644 -2.26072e-20)
(-0.0422456 0.182879 5.65175e-20)
(-0.052194 0.331416 4.37905e-20)
(-0.0492502 0.46689 -5.15903e-20)
(-0.0367961 0.574106 4.88783e-20)
(-0.017577 0.649094 5.64933e-20)
(0.00646935 0.694687 -1.8731e-19)
(0.0343113 0.716454 -3.26382e-20)
(0.0646187 0.719428 2.35005e-19)
(0.105037 0.706801 6.80002e-21)
(-0.00553411 0.0146276 6.48173e-21)
(-0.0210466 0.0919895 9.11046e-20)
(-0.0299547 0.199116 -5.13133e-20)
(-0.0288406 0.313521 -8.65459e-21)
(-0.0171393 0.418208 -2.33072e-20)
(0.00437386 0.503561 -2.90868e-20)
(0.0342964 0.566149 1.55589e-20)
(0.0712675 0.606676 -5.1315e-21)
(0.113529 0.627558 -3.14034e-20)
(0.163529 0.624666 -4.66312e-20)
(0.00274429 -0.00299494 1.59014e-20)
(-0.00806051 0.0312113 -3.7597e-20)
(-0.0208131 0.0945371 -5.86705e-20)
(-0.0284313 0.17213 1.9486e-20)
(-0.0268862 0.251174 1.11719e-20)
(-0.0145992 0.322308 1.71646e-19)
(0.00846434 0.380104 2.00543e-19)
(0.041736 0.422512 -8.5203e-20)
(0.0857829 0.449525 -4.34994e-20)
(0.134912 0.444965 1.47186e-20)
(0.00247623 -0.00540003 1.41635e-20)
(-0.0139724 0.0053023 -3.0674e-20)
(-0.0362194 0.0342748 7.19133e-20)
(-0.0560618 0.0741884 1.00734e-19)
(-0.0675726 0.118407 -9.8001e-20)
(-0.0675605 0.160811 2.25193e-19)
(-0.0544829 0.196832 -1.62641e-20)
(-0.0272276 0.223479 -4.16934e-19)
(0.0160756 0.237631 -7.88082e-20)
(0.0709607 0.224177 4.38968e-20)
(-0.0129293 0.008664 1.18219e-21)
(-0.0477806 0.0171781 -5.914e-21)
(-0.08171 0.0265474 -1.32082e-20)
(-0.10862 0.0390134 5.11529e-20)
(-0.122637 0.0548282 9.49461e-20)
(-0.119731 0.0723578 -1.37605e-19)
(-0.097345 0.0901658 -1.55732e-19)
(-0.0538316 0.107335 1.12297e-19)
(0.0120358 0.121703 -1.1984e-19)
(0.0939194 0.124115 -7.49938e-20)
(-0.970193 0.287721 -3.79812e-19)
(-1.2212 0.480944 -3.62878e-19)
(-0.667533 0.37644 -4.58027e-19)
(-0.135319 -0.115459 5.06856e-19)
(0.344619 -0.494874 -1.68925e-19)
(0.600207 -0.553849 -1.24448e-19)
(0.798626 -0.52471 -4.71249e-20)
(0.915881 -0.407405 5.01585e-21)
(0.978867 -0.338251 2.23038e-20)
(1.06265 -0.213436 3.87879e-21)
(-0.815622 0.402534 -2.11658e-20)
(-1.05303 0.449142 2.79158e-19)
(-0.511978 0.207792 -3.09731e-20)
(0.0503701 -0.267019 -5.46253e-19)
(0.507946 -0.594548 -8.11325e-19)
(0.743605 -0.621864 0)
(0.913227 -0.565593 -6.06967e-20)
(0.999197 -0.431018 2.28491e-21)
(1.04499 -0.353859 -1.08483e-22)
(1.09652 -0.223676 -1.24603e-20)
(-0.559764 0.494407 2.11894e-19)
(-0.736492 0.425173 -2.31092e-19)
(-0.250272 0.0569355 4.6431e-19)
(0.282056 -0.402475 9.932e-20)
(0.697945 -0.683443 5.48295e-20)
(0.90045 -0.680952 -5.68086e-20)
(1.03299 -0.59807 0)
(1.08326 -0.448177 0)
(1.11121 -0.363065 -2.61347e-20)
(1.13115 -0.229576 0)
(-0.264161 0.550655 -3.37196e-21)
(-0.358352 0.405123 2.75113e-19)
(0.0649303 -0.0635518 -6.76408e-20)
(0.548727 -0.518239 0)
(0.902975 -0.75935 5.58803e-19)
(1.06222 -0.728851 -1.03624e-19)
(1.15436 -0.620883 0)
(1.16586 -0.458197 9.38245e-20)
(1.17436 -0.366023 0)
(1.16432 -0.231285 1.56422e-20)
(0.00596926 0.572453 2.02997e-19)
(0.0199531 0.386216 1.14423e-19)
(0.395377 -0.150237 3.9871e-20)
(0.829057 -0.611275 0)
(1.11473 -0.820768 2.09643e-19)
(1.22149 -0.764797 2.19313e-19)
(1.27254 -0.633943 -3.64331e-20)
(1.24536 -0.460741 -5.03276e-21)
(1.23289 -0.362853 -2.01773e-20)
(1.19452 -0.229023 1.76549e-21)
(0.231094 0.566808 1.59535e-18)
(0.353577 0.374003 1.70404e-19)
(0.712836 -0.210677 -1.75641e-20)
(1.10799 -0.681746 4.28654e-19)
(1.32544 -0.866852 -3.29858e-19)
(1.37413 -0.788835 9.61968e-20)
(1.38351 -0.637875 2.2647e-19)
(1.32001 -0.45605 -1.92234e-19)
(1.28618 -0.35375 5.91075e-22)
(1.22098 -0.223018 -3.43352e-20)
(0.397257 0.524499 5.57534e-20)
(0.626557 0.361599 -1.36373e-19)
(1.00617 -0.252095 -3.91794e-20)
(1.37329 -0.731375 -1.01292e-20)
(1.52598 -0.897164 -1.86277e-19)
(1.51653 -0.801563 -5.72818e-20)
(1.48462 -0.633685 -8.6089e-20)
(1.38814 -0.44486 1.62194e-20)
(1.33393 -0.339073 2.72023e-20)
(1.24347 -0.213525 -1.39296e-22)
(0.47598 0.43157 -6.00032e-19)
(0.827027 0.341869 -2.83811e-19)
(1.27349 -0.2823 0)
(1.6191 -0.761151 8.91171e-20)
(1.70988 -0.911155 1.2328e-19)
(1.64575 -0.803535 -3.02648e-20)
(1.57436 -0.622506 -2.65213e-19)
(1.44848 -0.428253 8.09489e-20)
(1.37585 -0.319442 -1.43281e-21)
(1.26202 -0.200861 -1.68016e-20)
(0.424408 0.287407 5.63662e-19)
(0.963905 0.294692 8.18986e-19)
(1.523 -0.308161 -1.72639e-19)
(1.84227 -0.772332 -5.04963e-20)
(1.87314 -0.908967 2.80659e-20)
(1.76001 -0.795136 -1.99015e-19)
(1.65234 -0.605323 9.77879e-20)
(1.50043 -0.407492 -2.21598e-21)
(1.41164 -0.295806 5.61128e-21)
(1.27675 -0.185449 2.56982e-20)
(0.338943 0.0903342 -3.29835e-19)
(1.09232 0.204921 7.86908e-19)
(1.76842 -0.33242 1.67844e-19)
(2.03985 -0.770517 4.85772e-20)
(2.01326 -0.894313 -6.13898e-20)
(1.85841 -0.777843 -8.03658e-20)
(1.71884 -0.583093 -3.55991e-20)
(1.54406 -0.38387 0)
(1.44094 -0.269435 -4.53972e-20)
(1.28778 -0.167877 3.16866e-20)
(1.00017 0.0161116 -2.52266e-19)
(1.54991 0.0179851 -5.01241e-19)
(2.13237 -0.424699 4.96173e-19)
(2.28227 -0.771521 -1.60731e-20)
(2.17525 -0.863963 -1.72593e-20)
(1.96855 -0.744634 -7.96192e-20)
(1.7896 -0.546304 -9.95144e-20)
(1.58782 -0.348509 5.10596e-20)
(1.46803 -0.232046 -1.94881e-20)
(1.29736 -0.143627 -1.76122e-20)
(1.91961 0.0352702 -3.89407e-20)
(2.27445 -0.104031 -7.76152e-19)
(2.61759 -0.508821 -1.07847e-18)
(2.5118 -0.769452 1.3336e-19)
(2.25777 -0.80196 -2.7543e-19)
(1.99898 -0.653525 6.6878e-20)
(1.8014 -0.450503 1.65908e-19)
(1.58822 -0.269624 -2.84509e-20)
(1.46766 -0.167524 9.42932e-20)
(1.29377 -0.106175 9.60116e-21)
(2.30447 -0.0212816 6.29911e-20)
(2.59618 -0.181519 2.8799e-20)
(2.6632 -0.502708 3.22767e-21)
(2.43952 -0.678771 1.50192e-35)
(2.23239 -0.702499 -4.01439e-20)
(2.0251 -0.573847 -3.15751e-34)
(1.83692 -0.383268 3.1831e-20)
(1.60957 -0.21523 1.0385e-33)
(1.47543 -0.117816 -3.87202e-21)
(1.29041 -0.0736605 7.14021e-21)
(2.42734 -0.0573512 7.21575e-35)
(2.59156 -0.201222 3.59339e-19)
(2.57972 -0.453947 4.47182e-19)
(2.44864 -0.6234 0)
(2.28199 -0.651705 8.19981e-20)
(2.04491 -0.507707 -7.07212e-20)
(1.81576 -0.299526 -1.36726e-19)
(1.5667 -0.137624 2.63194e-33)
(1.42635 -0.0525991 -5.84056e-20)
(1.25479 -0.035463 -8.95853e-21)
(2.43231 -0.0939595 5.29505e-20)
(2.51618 -0.209997 -7.01228e-21)
(2.52648 -0.429033 0)
(2.42026 -0.576636 0)
(2.21509 -0.56883 0)
(1.94704 -0.406459 0)
(1.71487 -0.206229 7.61326e-21)
(1.48099 -0.0665899 2.95976e-33)
(1.35535 0.000572258 -5.41571e-21)
(1.20817 -0.00487621 -1.26715e-33)
(2.40857 -0.117773 6.59511e-20)
(2.45186 -0.216934 0)
(2.46922 -0.399226 0)
(2.34342 -0.515334 0)
(2.07842 -0.481269 0)
(1.76693 -0.311595 0)
(1.52376 -0.122412 -1.4588e-20)
(1.3167 -0.00398597 7.69193e-20)
(1.22292 0.0467809 -6.13534e-21)
(1.12443 0.0214605 -4.82326e-21)
(2.36842 -0.134251 0)
(2.38262 -0.217483 1.36259e-19)
(2.36533 -0.36315 1.64101e-19)
(2.12989 -0.433473 0)
(1.75127 -0.360319 2.0845e-20)
(1.40858 -0.194255 -3.4761e-20)
(1.19663 -0.0396963 -5.80042e-20)
(1.05775 0.0436221 -3.15558e-20)
(1.02272 0.0720528 2.59462e-20)
(0.994243 0.0345046 -1.52991e-20)
(2.24683 -0.135056 -6.53322e-21)
(2.20731 -0.201735 -5.61345e-21)
(2.05065 -0.289261 3.15478e-21)
(1.64388 -0.295769 -3.06285e-35)
(1.19044 -0.207014 1.06818e-21)
(0.881573 -0.0851032 -6.07618e-35)
(0.755212 0.0125575 -1.47592e-20)
(0.720004 0.0593516 -4.86768e-20)
(0.757112 0.0696173 -6.42032e-21)
(0.797938 0.0329152 1.30819e-20)
(1.80763 -0.114338 3.91239e-20)
(1.65367 -0.149321 -3.67497e-20)
(1.31713 -0.151475 -2.82714e-20)
(0.844676 -0.111158 0)
(0.489882 -0.0647878 -1.23382e-20)
(0.317514 -0.0213521 -1.1754e-20)
(0.29543 0.0203747 -2.48513e-20)
(0.345878 0.0404583 -1.83277e-21)
(0.4301 0.0422163 -1.04021e-20)
(0.507578 0.0196493 -1.15622e-20)
(0.712797 -0.0268887 0)
(0.520876 -0.0126883 0)
(0.311382 0.00155693 0)
(0.14405 -0.000985609 0)
(0.0246236 -0.00754596 0)
(-0.0483281 -0.00633218 0)
(-0.048441 0.00137124 -1.42139e-20)
(0.00293104 0.00556036 6.91093e-35)
(0.069779 0.00597824 -6.83443e-21)
(0.129614 0.00266685 -1.3457e-20)
(2.46221 0.260098 7.21694e-19)
(2.50025 0.198452 4.3282e-20)
(2.51692 0.136443 -6.77254e-20)
(2.53448 0.0913976 -2.15301e-19)
(2.53211 0.0375197 -3.57096e-20)
(2.49973 0.0141097 -5.33518e-20)
(2.45281 -0.0366601 -1.69198e-19)
(2.21831 -0.0301413 2.23447e-20)
(2.04448 -0.068608 0)
(1.36428 -0.0182858 5.87137e-20)
(2.38779 0.22074 2.35983e-19)
(2.40139 0.177384 -2.5898e-19)
(2.46591 0.121316 -6.0028e-20)
(2.44742 0.0874452 -1.0868e-19)
(2.52959 0.0380825 9.10972e-20)
(2.45939 0.0082134 1.53807e-19)
(2.56356 -0.029989 -1.80035e-19)
(2.39986 -0.0714869 1.46759e-20)
(2.47224 -0.0788456 -4.30472e-20)
(2.15032 -0.137289 5.20019e-20)
(2.33989 0.190065 -1.04698e-19)
(2.32536 0.145333 2.41045e-19)
(2.41651 0.110377 1.38569e-19)
(2.37384 0.0644974 -2.37696e-19)
(2.4753 0.0427483 -4.45525e-20)
(2.40791 -0.0115286 3.19567e-19)
(2.50959 -0.0137359 5.15135e-20)
(2.43214 -0.0827161 -4.88501e-20)
(2.49834 -0.0602973 -2.19706e-20)
(2.41946 -0.13909 -1.93676e-20)
(2.29319 0.157977 -2.8675e-19)
(2.28628 0.109025 -6.1024e-20)
(2.3617 0.0936985 4.51446e-20)
(2.34081 0.039487 -4.13604e-21)
(2.40872 0.0368862 -2.18326e-19)
(2.38509 -0.0238226 -6.68989e-20)
(2.43596 -0.0127604 1.75388e-19)
(2.42556 -0.0769462 -1.2354e-20)
(2.44958 -0.0562724 3.20041e-20)
(2.45713 -0.11671 1.0659e-20)
(2.24813 0.122295 3.28857e-20)
(2.26343 0.0776303 1.32732e-19)
(2.31156 0.0688992 -1.01897e-20)
(2.32081 0.0208129 1.45317e-19)
(2.35617 0.0198204 -5.77601e-20)
(2.36622 -0.029457 -1.97237e-19)
(2.38649 -0.0246395 2.95183e-20)
(2.40301 -0.0710818 -5.70163e-20)
(2.41013 -0.0647334 -1.76078e-20)
(2.43288 -0.104627 -2.4117e-20)
(2.20844 0.084035 -1.5909e-19)
(2.23725 0.0495913 -6.46063e-20)
(2.2698 0.0398595 -1.62518e-20)
(2.29414 0.0043908 9.76555e-20)
(2.31648 -0.00164263 2.63708e-19)
(2.33877 -0.0362966 -5.75648e-20)
(2.35162 -0.0404239 5.17468e-21)
(2.37331 -0.0723766 -7.96642e-20)
(2.37913 -0.0764797 -1.1752e-19)
(2.40073 -0.104637 -1.87827e-20)
(2.15904 0.0471625 -4.96607e-20)
(2.19169 0.0228336 -1.16394e-19)
(2.21862 0.0119631 -1.48165e-19)
(2.24782 -0.0124399 -2.57388e-19)
(2.26758 -0.0216981 8.17702e-20)
(2.29446 -0.0457826 6.76213e-20)
(2.30727 -0.0545431 -1.23588e-20)
(2.33306 -0.0780291 8.01483e-20)
(2.33925 -0.0868874 -7.27504e-20)
(2.36597 -0.109524 -4.79073e-20)
(2.04719 0.0137724 6.08217e-20)
(2.07955 -0.0023995 2.22073e-20)
(2.09939 -0.0115482 1.61455e-20)
(2.13223 -0.0278468 -3.43128e-20)
(2.146 -0.0361407 -3.26405e-20)
(2.18115 -0.0531394 -5.79433e-20)
(2.1879 -0.0613566 -4.73493e-20)
(2.22755 -0.0796879 1.06932e-19)
(2.22568 -0.0883143 -4.41795e-20)
(2.27283 -0.108397 3.36004e-21)
(1.72984 -0.0135742 -7.09032e-20)
(1.74923 -0.0217584 -1.54952e-20)
(1.75539 -0.0270517 1.25474e-19)
(1.77934 -0.0351958 -2.02355e-20)
(1.78029 -0.0401094 -3.58517e-20)
(1.81182 -0.0491241 7.42076e-20)
(1.80506 -0.0544444 -5.74649e-20)
(1.84731 -0.0652689 4.61943e-20)
(1.82884 -0.0719866 -2.27175e-20)
(1.88601 -0.0854877 -9.58523e-20)
(0.876686 -0.0109472 5.1333e-20)
(0.868425 -0.0103275 4.44115e-20)
(0.858953 -0.00975104 4.45126e-20)
(0.854183 -0.00952227 7.42978e-20)
(0.845276 -0.00960858 -3.78983e-20)
(0.84521 -0.0100326 -5.24994e-20)
(0.833687 -0.0109391 2.38675e-20)
(0.840659 -0.0127003 -2.28136e-21)
(0.817829 -0.013763 3.42093e-21)
(0.841481 -0.0203223 -5.16584e-21)
(1.54926 0.950477 -8.22487e-20)
(1.53355 0.996184 2.58545e-20)
(1.53707 1.0495 -6.18596e-19)
(1.5455 1.10999 2.27141e-19)
(1.55166 1.17357 1.16287e-18)
(1.54686 1.23209 -1.42073e-19)
(1.50913 1.263 -1.0317e-18)
(1.3887 1.21449 -1.42129e-21)
(1.09813 0.992378 -5.04672e-19)
(0.513051 0.474675 1.15833e-19)
(1.71116 0.921724 0)
(1.70016 0.965904 7.14745e-19)
(1.70007 1.01539 1.58518e-18)
(1.70805 1.0733 -9.78969e-19)
(1.71735 1.13526 -2.2877e-18)
(1.71558 1.19151 -1.48919e-19)
(1.6755 1.21819 -1.90818e-19)
(1.53976 1.16424 6.96086e-19)
(1.2114 0.941729 1.04159e-18)
(0.560097 0.442779 4.09664e-19)
(1.85989 0.884277 6.56986e-20)
(1.85769 0.927845 0)
(1.85906 0.974115 -6.4907e-20)
(1.86778 1.02727 9.97657e-19)
(1.87903 1.0841 5.37669e-20)
(1.87822 1.13449 -2.22646e-18)
(1.833 1.15412 1.40666e-18)
(1.67884 1.09391 8.2576e-19)
(1.31102 0.873613 -8.87604e-19)
(0.597615 0.401704 -2.60741e-19)
(1.99154 0.837277 -1.81017e-19)
(1.99867 0.878841 -1.33316e-19)
(2.00507 0.921442 2.72058e-19)
(2.01651 0.969085 -3.37588e-19)
(2.02946 1.01928 -1.55995e-18)
(2.02769 1.06195 -1.21248e-18)
(1.97437 1.07268 1.26848e-18)
(1.79816 1.00451 8.36068e-19)
(1.38858 0.788586 0)
(0.62104 0.351992 0)
(2.10657 0.776265 -8.87723e-19)
(2.12198 0.815036 -1.63165e-18)
(2.13474 0.853853 -6.26954e-19)
(2.1499 0.896048 -3.20859e-20)
(2.16404 0.93922 0)
(2.15933 0.972499 1.28307e-19)
(2.09367 0.972792 1.47461e-19)
(1.88971 0.898587 1.83267e-19)
(1.43731 0.689652 -2.61701e-19)
(0.627047 0.294757 -6.5339e-20)
(2.20811 0.705439 1.05797e-18)
(2.2296 0.73998 -3.92062e-20)
(2.24767 0.774154 -1.24144e-18)
(2.26586 0.810232 0)
(2.27954 0.84523 0)
(2.26783 0.868676 0)
(2.18359 0.858527 1.40505e-18)
(1.94659 0.77771 -1.53945e-18)
(1.45205 0.578158 -9.66124e-19)
(0.612802 0.232733 1.78407e-20)
(2.29617 0.624536 -1.36693e-18)
(2.32201 0.65434 -2.86929e-18)
(2.34356 0.683756 -4.97652e-21)
(2.36277 0.71361 5.81776e-19)
(2.37267 0.740311 -3.4467e-20)
(2.34854 0.753399 1.21683e-18)
(2.23915 0.73233 -6.72112e-19)
(1.96351 0.645571 -1.74543e-18)
(1.4277 0.459123 8.84185e-20)
(0.577207 0.170041 7.01548e-20)
(2.37249 0.539718 -1.05629e-18)
(2.3994 0.564504 1.45291e-20)
(2.42163 0.588387 3.97185e-19)
(2.43874 0.611218 -3.84437e-19)
(2.4403 0.62882 5.99276e-19)
(2.39711 0.630818 1.57547e-18)
(2.25443 0.598794 -1.26958e-19)
(1.93405 0.507941 -9.02281e-19)
(1.36038 0.339308 2.01167e-19)
(0.521016 0.111277 3.69082e-20)
(2.43439 0.451998 3.82502e-19)
(2.46074 0.472328 7.4017e-20)
(2.48091 0.490607 -3.90182e-19)
(2.49193 0.506156 -9.20246e-19)
(2.47896 0.514356 5.91382e-20)
(2.40807 0.50527 4.05466e-20)
(2.22265 0.463413 -1.08867e-18)
(1.85246 0.371631 4.71847e-19)
(1.24875 0.226116 1.34075e-19)
(0.447215 0.0608245 -4.21501e-20)
(2.48269 0.367146 7.00916e-19)
(2.50551 0.382605 -1.04411e-18)
(2.5201 0.394782 1.51969e-19)
(2.5194 0.402721 2.05326e-18)
(2.48354 0.401441 9.85189e-19)
(2.37431 0.381962 -2.12283e-18)
(2.13645 0.332531 -1.93382e-18)
(1.71448 0.244282 7.94388e-19)
(1.09495 0.127117 -4.10765e-20)
(0.360999 0.0221345 -1.08693e-19)
(0.550832 0.376808 -1.88702e-19)
(0.509763 0.389949 -1.71591e-19)
(0.463462 0.403904 8.21624e-20)
(0.41258 0.418817 -2.63506e-19)
(0.356822 0.434555 -2.5963e-20)
(0.295343 0.449757 2.2914e-19)
(0.227166 0.458807 4.27853e-20)
(0.152759 0.445617 -5.51727e-21)
(0.0793169 0.375526 1.55377e-20)
(0.0158442 0.1912 1.48645e-20)
(0.590937 0.484976 1.47195e-19)
(0.551023 0.50493 1.89394e-19)
(0.506734 0.526303 4.39249e-20)
(0.458298 0.549242 -5.91059e-20)
(0.405092 0.573496 -2.34607e-19)
(0.346007 0.597164 -1.05193e-20)
(0.279377 0.612677 7.33384e-20)
(0.203864 0.598344 3.48779e-20)
(0.123012 0.506813 -1.13226e-19)
(0.0385969 0.259462 -3.89897e-20)
(0.649182 0.585397 -1.32258e-19)
(0.610686 0.611237 -1.18897e-19)
(0.56894 0.638983 1.07111e-19)
(0.523706 0.669099 7.83132e-20)
(0.474079 0.701458 -7.61921e-20)
(0.418641 0.733702 -3.29125e-20)
(0.354687 0.756234 -1.06163e-19)
(0.278062 0.741625 -7.01889e-20)
(0.186548 0.630017 -6.54133e-20)
(0.071617 0.322989 9.49557e-22)
(0.725201 0.682017 4.97289e-20)
(0.688676 0.714366 -4.36282e-20)
(0.650397 0.748488 -8.53228e-20)
(0.609137 0.785066 -4.28325e-20)
(0.563553 0.8241 -6.81991e-20)
(0.512042 0.862887 -2.65748e-21)
(0.450872 0.890014 -2.68295e-19)
(0.372489 0.87295 5.13947e-20)
(0.267139 0.741077 -3.11901e-19)
(0.113327 0.379215 4.88881e-20)
(0.814411 0.76211 7.77719e-22)
(0.780544 0.799486 1.08325e-20)
(0.746984 0.839183 -4.81347e-20)
(0.711618 0.882242 -2.55802e-19)
(0.672315 0.928435 1.18828e-19)
(0.626674 0.974347 3.29946e-20)
(0.569342 1.00671 4.67178e-20)
(0.488555 0.988198 -1.70727e-19)
(0.365344 0.838263 3.79163e-19)
(0.163447 0.42749 2.7624e-19)
(0.920247 0.841318 -7.88791e-20)
(0.888077 0.883181 -1.70126e-19)
(0.857866 0.926193 2.6743e-20)
(0.826923 0.972808 9.76826e-20)
(0.79308 1.02337 3.5456e-19)
(0.753422 1.07376 2.6106e-19)
(0.700466 1.10849 6.33535e-19)
(0.617226 1.0858 2.61739e-19)
(0.474235 0.917609 1.47365e-19)
(0.218809 0.465134 2.03935e-19)
(1.03215 0.894154 -1.04212e-19)
(1.00616 0.940829 5.78557e-19)
(0.983837 0.988385 3.84578e-19)
(0.960593 1.03934 -4.9948e-19)
(0.933667 1.09423 -2.51615e-19)
(0.900016 1.14883 6.63578e-19)
(0.85052 1.18612 -1.04719e-19)
(0.762692 1.16036 -4.49929e-19)
(0.59547 0.977087 2.14249e-20)
(0.279041 0.491586 2.50488e-19)
(1.15116 0.948323 2.88772e-19)
(1.12542 0.995321 5.74501e-20)
(1.1079 1.04317 -7.53423e-19)
(1.09276 1.09589 1.64466e-19)
(1.0753 1.15314 5.80277e-19)
(1.05044 1.2093 -3.20727e-19)
(1.00611 1.24561 -1.0077e-19)
(0.913754 1.21361 -1.85534e-19)
(0.720594 1.01546 1.86931e-20)
(0.340259 0.505698 -2.94655e-19)
(1.27933 0.967395 1.80462e-20)
(1.26406 1.01821 -5.5034e-19)
(1.25386 1.06702 -4.67415e-21)
(1.24431 1.12078 4.74468e-19)
(1.23272 1.18036 -4.93966e-19)
(1.21382 1.23905 9.67799e-19)
(1.17234 1.27568 6.50221e-19)
(1.07258 1.23913 -9.5739e-19)
(0.849478 1.03014 -7.48164e-20)
(0.401326 0.507084 -3.22707e-19)
(1.38083 0.978684 -3.31891e-19)
(1.3772 1.03022 -3.1432e-19)
(1.3842 1.0806 2.93635e-19)
(1.3893 1.13492 7.79109e-19)
(1.38903 1.19372 2.79343e-19)
(1.37848 1.25057 -8.03911e-19)
(1.34018 1.2835 1.05271e-19)
(1.23167 1.24023 2.17377e-19)
(0.976301 1.02255 -2.90405e-19)
(0.459539 0.496576 -2.27675e-19)
(0.997614 0.00904068 5.56955e-22)
(1.01079 0.0380975 -1.64005e-20)
(1.02107 0.048682 -1.20155e-20)
(1.03072 0.0714005 0)
(1.02581 0.0893082 1.34492e-20)
(1.02323 0.108192 1.98053e-20)
(1.00067 0.140412 2.59221e-20)
(0.960713 0.178381 6.14258e-20)
(0.882116 0.242934 -9.87866e-20)
(0.729977 0.310788 -1.23191e-19)
(0.998933 0.00708152 3.36048e-20)
(1.00817 0.0359911 -5.27948e-20)
(1.02034 0.0458351 2.09256e-22)
(1.02844 0.0711115 -1.51017e-20)
(1.02541 0.0895987 6.93237e-21)
(1.02362 0.112886 -1.04182e-20)
(1.00167 0.149257 -6.06546e-20)
(0.968019 0.196611 0)
(0.891046 0.279444 2.06417e-19)
(0.762549 0.381247 -2.62383e-19)
(0.999708 0.00533761 -2.40218e-20)
(1.0068 0.0343122 1.45152e-20)
(1.01956 0.0426906 3.14338e-20)
(1.0279 0.071421 8.2109e-21)
(1.02527 0.0892971 -1.70944e-20)
(1.02677 0.118296 1.26297e-21)
(1.00369 0.157348 -4.39495e-20)
(0.980528 0.215241 -7.21102e-21)
(0.903439 0.314416 3.90962e-22)
(0.80995 0.448911 6.63054e-19)
(1.00005 0.00369141 -2.67366e-20)
(1.00641 0.0330266 2.01284e-21)
(1.01887 0.0392216 2.58052e-20)
(1.02886 0.0722859 1.7425e-20)
(1.0256 0.0883149 -8.69349e-21)
(1.03232 0.124461 -1.27913e-20)
(1.00687 0.164314 6.52051e-20)
(0.998011 0.234762 -2.49593e-21)
(0.918834 0.346722 -2.34043e-19)
(0.871877 0.512243 7.82442e-20)
(1.00013 0.00203718 1.83943e-20)
(1.00665 0.0320508 -2.64625e-20)
(1.01848 0.0354465 -2.08519e-20)
(1.03099 0.0735764 1.04019e-20)
(1.02679 0.0866667 0)
(1.03968 0.131277 0)
(1.01204 0.170052 5.66518e-20)
(1.0188 0.25503 1.26397e-21)
(0.93974 0.376285 -1.09602e-19)
(0.944048 0.569628 8.94344e-20)
(1.00013 0.000340823 5.13747e-21)
(1.00717 0.0312719 2.10474e-20)
(1.01867 0.0314042 -5.76922e-20)
(1.03392 0.0751207 -2.03906e-20)
(1.02922 0.0844115 -4.61829e-22)
(1.04844 0.138636 5.64352e-20)
(1.01937 0.174341 8.86329e-20)
(1.04341 0.276559 -4.89944e-23)
(0.962681 0.400857 1.80108e-19)
(1.03318 0.627088 -2.06281e-19)
(1.00022 -0.00140675 -1.96131e-20)
(1.00766 0.0305512 1.09672e-20)
(1.01975 0.0271388 -1.6131e-20)
(1.03731 0.0767145 -4.35969e-20)
(1.03338 0.0816827 1.51023e-21)
(1.05788 0.146234 -1.52811e-21)
(1.03028 0.177442 -4.12754e-21)
(1.0686 0.298565 -1.97781e-19)
(0.996501 0.421507 1.35008e-19)
(1.11671 0.668517 -5.05934e-19)
(1.00047 -0.00319374 -3.28671e-21)
(1.00793 0.0297378 -3.13233e-20)
(1.02189 0.0226907 3.27271e-20)
(1.04093 0.0781429 2.33965e-20)
(1.03951 0.078654 8.03641e-22)
(1.06776 0.153627 -6.67908e-20)
(1.04464 0.179656 -5.09793e-20)
(1.09644 0.321071 3.57149e-19)
(1.03032 0.439353 1.27056e-20)
(1.23043 0.727534 7.99137e-19)
(1.00088 -0.00498372 1.30799e-20)
(1.00802 0.0286897 1.41239e-20)
(1.02507 0.0181081 3.89187e-20)
(1.04487 0.0792744 -2.58034e-20)
(1.04752 0.0753707 -6.87316e-20)
(1.07776 0.160978 8.71753e-22)
(1.06334 0.179352 -7.14253e-20)
(1.12414 0.341831 4.68882e-19)
(1.08453 0.439913 -8.04004e-21)
(1.29837 0.744837 -1.10806e-18)
(1.00143 -0.00671195 3.08154e-22)
(1.00808 0.0272434 2.18548e-20)
(1.02893 0.0138651 1.28058e-20)
(1.04964 0.0798359 -5.19263e-20)
(1.05606 0.0736857 -6.8079e-20)
(1.08756 0.167605 -5.78308e-20)
(1.08247 0.186895 -1.32846e-19)
(1.14757 0.36568 -4.29014e-19)
(1.14039 0.468674 -2.32968e-19)
(1.43224 0.81602 -1.16961e-18)
(1.00241 -0.00960987 -9.57824e-22)
(1.00777 0.0252044 -4.69174e-21)
(1.03451 0.00558524 -1.51704e-20)
(1.05748 0.0793645 2.84093e-20)
(1.0666 0.0646241 5.20972e-20)
(1.10725 0.171897 -3.76862e-20)
(1.10492 0.171278 1.33503e-19)
(1.19234 0.376284 -3.96783e-19)
(1.20034 0.408402 -1.80069e-19)
(1.4471 0.806411 6.1249e-19)
(1.00422 -0.0138586 3.12621e-22)
(1.0059 0.0219926 8.06918e-21)
(1.04471 -0.00780083 -1.07435e-20)
(1.06494 0.0760239 5.24369e-20)
(1.08417 0.0487364 9.00258e-20)
(1.12501 0.169248 1.12617e-19)
(1.14576 0.146068 3.09152e-20)
(1.22009 0.362836 1.94005e-19)
(1.2985 0.357482 3.06891e-19)
(1.46545 0.707361 2.43364e-20)
(1.0052 -0.0178736 -1.23474e-21)
(1.00431 0.0165333 -3.6647e-21)
(1.06022 -0.0212658 3.80339e-21)
(1.06836 0.0704806 3.99542e-21)
(1.10927 0.0328517 2.76586e-34)
(1.13503 0.160651 -6.41252e-21)
(1.1953 0.121298 -4.56169e-34)
(1.23624 0.338303 1.6962e-20)
(1.37378 0.303125 -5.20122e-20)
(1.50051 0.617914 -5.3395e-20)
(1.00264 -0.022004 1.49335e-20)
(1.0083 0.00737523 -4.14671e-35)
(1.07614 -0.0333212 -4.33514e-21)
(1.07227 0.0606728 -2.22289e-20)
(1.13519 0.0185477 -4.5861e-20)
(1.14701 0.146962 -3.82185e-20)
(1.23516 0.0980267 -5.99344e-34)
(1.25802 0.3099 -7.5644e-20)
(1.41247 0.250468 -1.40016e-19)
(1.53885 0.526688 8.98857e-20)
(0.99481 -0.0268716 0)
(1.02288 -0.00641703 -5.22048e-36)
(1.08675 -0.0428012 0)
(1.08495 0.045196 0)
(1.15617 0.00566686 0)
(1.17021 0.126754 0)
(1.25733 0.0780747 -4.37178e-34)
(1.28988 0.274503 0)
(1.42981 0.204936 -1.84256e-20)
(1.56882 0.433038 5.31765e-20)
(0.982349 -0.0335886 2.29458e-21)
(1.04791 -0.0224332 -6.71279e-23)
(1.09141 -0.0496548 -5.43283e-21)
(1.10974 0.0273929 0)
(1.17171 -0.00455286 0)
(1.20109 0.102914 5.82569e-21)
(1.26908 0.0625099 4.28588e-20)
(1.323 0.232974 -1.22664e-20)
(1.44627 0.166298 -2.68928e-20)
(1.5868 0.344911 2.03641e-19)
(0.968779 -0.0468205 -8.18713e-20)
(1.07996 -0.0462779 2.58174e-21)
(1.08999 -0.0599538 -6.03086e-21)
(1.14228 0.000716257 -1.38939e-20)
(1.17137 -0.0164433 -2.84977e-20)
(1.22199 0.0749278 -1.37716e-20)
(1.26254 0.0485812 -3.66244e-20)
(1.34173 0.186261 -2.91803e-20)
(1.45342 0.131475 -5.24116e-20)
(1.60058 0.262069 6.53394e-20)
(0.959291 -0.0535254 -5.27974e-21)
(1.10577 -0.0577549 -1.74879e-20)
(1.06797 -0.0585868 -6.58904e-21)
(1.14731 -0.0157973 -4.80156e-21)
(1.10956 -0.0177757 -4.41099e-35)
(1.19333 0.0502283 6.25964e-21)
(1.18636 0.0375353 -7.95523e-34)
(1.31714 0.136049 -1.17175e-20)
(1.40384 0.0959552 1.67401e-20)
(1.59302 0.181756 2.42504e-20)
(0.954368 -0.094185 1.97406e-19)
(1.05931 -0.088873 -4.89944e-21)
(0.952514 -0.0734711 -7.06106e-21)
(0.995464 -0.0346481 1.25869e-20)
(0.886563 -0.0163221 1.61101e-20)
(0.997372 0.0264072 1.53875e-20)
(0.946105 0.0266529 1.53906e-20)
(1.14409 0.0797434 -8.4855e-21)
(1.19514 0.0588928 -1.80434e-20)
(1.44309 0.102737 1.31415e-19)
(0.825307 -0.0467473 7.94423e-21)
(0.727348 -0.0335082 -9.22349e-35)
(0.530928 -0.0184959 -8.15668e-21)
(0.476109 -0.00328885 0)
(0.396986 0.000187987 0)
(0.467161 0.00875247 6.21443e-21)
(0.451517 0.00532036 -4.45774e-36)
(0.597852 0.0171947 -1.12524e-20)
(0.652797 0.00951225 -2.45981e-20)
(0.83671 0.0183592 5.23855e-20)
(1.64933 0.836902 -1.84048e-19)
(1.74897 0.819228 -2.72572e-19)
(1.86331 0.787295 0)
(1.97047 0.745076 1.50534e-19)
(2.06878 0.689004 6.37206e-19)
(2.15793 0.626183 -1.10798e-19)
(2.23641 0.554724 1.61989e-18)
(2.30972 0.481444 -7.968e-20)
(2.36878 0.404226 -3.49307e-19)
(2.42508 0.331897 3.04565e-19)
(1.67444 0.688391 9.3582e-20)
(1.74753 0.673914 1.08275e-19)
(1.84351 0.642995 -1.33877e-20)
(1.92707 0.605164 2.08583e-19)
(2.01861 0.554643 -1.70288e-19)
(2.08661 0.504581 -3.94886e-19)
(2.16545 0.445823 -1.18167e-19)
(2.21876 0.392721 5.37051e-19)
(2.28845 0.331577 -2.02758e-20)