/*--------------------------------*- C++ -*----------------------------------*\
  =========                 |
  \\      /  F ield         | OpenFOAM: The Open Source CFD Toolbox
   \\    /   O peration     | Website:  https://openfoam.org
    \\  /    A nd           | Version:  13
     \\/     M anipulation  |
\*---------------------------------------------------------------------------*/
FoamFile
{
    format      ascii;
    class       volScalarField;
    location    "0.645";
    object      strainRateViscosityModel:nu;
}
// * * * * * * * * * * * * * * * * * * * * * * * * * * * * * * * * * * * * * //

dimensions      [0 2 -1 0 0 0 0];

internalField   nonuniform List<scalar> 
1800
(
9.40488
9.1976
9.01006
8.80094
8.57613
8.34412
8.11545
7.89817
7.62423
7.3793
9.58523
9.41878
9.2669
9.09732
8.91116
8.71142
8.50355
8.28866
8.02731
7.70211
9.70219
9.56269
9.42803
9.27096
9.08868
8.87898
8.6409
8.36902
8.03058
7.61063
9.77539
9.65614
9.53324
9.38287
9.20049
8.98171
8.7228
8.41596
8.02878
7.55457
9.82168
9.7183
9.60558
9.46166
9.2807
9.05695
8.78549
8.45888
8.04776
7.55615
9.85185
9.76081
9.6573
9.52059
9.34355
9.11896
8.84034
8.50016
8.07152
7.57021
9.87179
9.78991
9.69398
9.56396
9.39147
9.16769
8.8842
8.53252
8.08735
7.57568
9.88475
9.80924
9.71888
9.59395
9.42494
9.20146
8.91309
8.55005
8.08853
7.56355
9.8926
9.82107
9.73416
9.6122
9.44467
9.21963
8.92484
8.54923
8.07121
7.52871
9.89646
9.82686
9.74153
9.6207
9.45309
9.22573
8.92512
8.53953
8.05038
7.49285
1.79059
1.40535
1.21172
1.32192
1.7303
2.24981
2.49534
2.44923
2.35997
2.33622
3.71879
1.78301
1.49387
1.9814
2.6934
2.97135
2.81861
2.67389
2.68952
2.74244
4.69552
2.57186
2.43723
3.17533
3.5947
3.34731
3.0843
3.12056
3.25975
3.34006
5.26563
3.88307
3.81583
4.21247
4.18015
3.83086
3.72312
3.85629
3.95852
4.00758
6.05451
5.27575
5.11802
5.12088
4.91492
4.65406
4.57894
4.61301
4.61347
4.65333
6.95943
6.46005
6.22684
6.03808
5.78821
5.54557
5.38953
5.29386
5.22295
5.27561
7.77162
7.37775
7.11677
6.86019
6.58731
6.32052
6.08735
5.9012
5.77067
5.82431
8.40011
8.05531
7.79199
7.51571
7.22641
6.93114
6.64218
6.38641
6.19251
6.22959
8.84934
8.54537
8.29097
8.01026
7.70563
7.37941
7.03558
6.70114
6.41587
6.42195
9.16164
8.90153
8.66631
8.39664
8.09567
7.76571
7.40642
7.03565
6.70861
6.75255
2.19387
1.72967
1.33225
0.936689
0.618503
0.346051
0.174531
0.120514
0.132963
0.194316
2.52869
1.84944
1.40815
0.93313
0.593408
0.330248
0.161118
0.0828839
0.0745552
0.134608
2.9495
1.97893
1.48112
0.931542
0.55915
0.304192
0.147458
0.0631367
0.0379556
0.0596628
3.44197
2.14894
1.5527
0.935135
0.521141
0.271579
0.130334
0.0495454
0.031838
0.0177398
3.9841
2.38688
1.63014
0.94443
0.483154
0.235258
0.110614
0.0399464
0.0305001
0.0137782
4.52944
2.6979
1.72633
0.960829
0.448232
0.197052
0.089358
0.0333879
0.0288904
0.0144339
4.99773
3.05753
1.84814
0.983541
0.416853
0.158188
0.0673237
0.0285441
0.0249981
0.0271642
5.31346
3.44047
2.0152
1.02632
0.395831
0.12216
0.045169
0.0240297
0.0186178
0.0922499
5.34391
3.72382
2.16471
1.05824
0.373015
0.0885723
0.0283923
0.0159473
0.0537842
0.169299
5.2026
3.98999
2.40031
1.16198
0.390023
0.0720154
0.012451
0.0261007
0.123628
0.233054
4.94503
3.94344
2.45714
1.17552
0.364415
0.0509652
0.0176401
0.103575
0.1888
0.309992
5.33113
3.34867
2.14016
0.997315
0.355436
0.130437
0.111561
0.175919
0.27569
0.395056
4.90508
3.045
2.24598
1.20137
0.585856
0.287131
0.195029
0.24811
0.345201
0.463143
4.54619
3.63057
2.67953
1.63772
0.88919
0.489711
0.329678
0.336895
0.417139
0.521188
5.11372
4.74708
3.34193
2.163
1.23649
0.726066
0.488402
0.439494
0.488955
0.568746
6.25435
5.6694
4.0571
2.67371
1.59827
0.979698
0.66785
0.55677
0.564491
0.608804
7.2627
6.37375
4.71391
3.15492
1.95762
1.23997
0.85591
0.682701
0.642347
0.642926
8.00013
6.91209
5.26006
3.5894
2.30055
1.50099
1.04905
0.81475
0.723281
0.673906
8.51877
7.33077
5.69751
3.97041
2.62084
1.75455
1.23742
0.94311
0.800308
0.700016
8.93101
7.69121
6.04988
4.2833
2.9255
2.02546
1.45015
1.0926
0.895027
0.73394
6.51282
6.43966
6.43044
6.44876
6.48738
6.52999
6.58205
6.71062
6.89533
6.82641
0.260692
1.05717
2.00779
2.92287
3.70384
4.3165
4.73329
4.98287
5.22201
5.7282
3.85075
3.54383
3.28456
3.11129
3.10635
3.24999
3.47227
3.71348
4.16509
4.84508
6.6442
6.62725
6.53714
6.34468
6.04323
5.65775
5.24941
4.89578
4.73912
4.54905
7.69186
7.67655
7.63213
7.5413
7.39614
7.18986
6.92706
6.61945
6.28587
5.65619
8.44952
8.43312
8.39436
8.32772
8.22958
8.09673
7.92838
7.71684
7.42792
6.90781
8.93968
8.92394
8.89029
8.83679
8.76167
8.66291
8.53816
8.37893
8.15468
7.80863
9.27299
9.25981
9.23246
9.18985
9.13052
9.05245
8.95269
8.82482
8.65282
8.43091
9.50446
9.49417
9.47307
9.44024
9.39426
9.33319
9.25424
9.15287
9.02289
8.87535
9.6899
9.68285
9.66852
9.64604
9.61405
9.5707
9.51361
9.43975
9.34638
9.2441
7.24822
7.52629
7.83695
8.08765
8.34477
8.59959
8.84136
9.06157
9.25458
9.46026
7.58319
7.94809
8.24096
8.4811
8.70932
8.92479
9.12229
9.29899
9.45391
9.61806
7.49855
7.95739
8.32594
8.62048
8.87573
9.09772
9.28805
9.44951
9.58536
9.72226
7.44692
7.95762
8.37375
8.70198
8.97657
9.20595
9.39471
9.54806
9.67131
9.78824
7.45635
7.98066
8.4186
8.76488
9.05053
9.28355
9.46977
9.61591
9.72868
9.83022
7.48242
8.01168
8.46401
8.82146
9.11234
9.34474
9.52606
9.66446
9.76796
9.85764
7.50364
8.03786
8.50277
8.86862
9.16197
9.39189
9.56764
9.6989
9.79479
9.8757
7.51114
8.05246
8.52871
8.90209
9.19746
9.42521
9.5964
9.72213
9.81243
9.88729
7.49836
8.05045
8.53742
8.91898
9.21768
9.44503
9.61371
9.73606
9.82289
9.89404
7.48288
8.04359
8.53593
8.92344
9.22525
9.4533
9.62123
9.74217
9.82746
9.89693
2.55594
2.51276
2.53108
2.74231
2.92587
2.55184
1.69737
1.18144
1.52233
4.19161
2.96376
2.87548
2.71618
2.7146
3.10397
3.42998
2.82022
1.9057
2.12381
5.13351
3.4528
3.40911
3.25114
3.06504
3.26544
3.82388
3.80275
3.1599
3.28705
5.45449
3.94523
3.9343
3.90761
3.79822
3.89097
4.31828
4.58918
4.46688
4.65926
5.912
4.49846
4.47096
4.54612
4.61741
4.78094
5.11424
5.43826
5.61848
5.89567
6.63049
5.10184
5.0593
5.19873
5.39683
5.65739
5.98059
6.30858
6.59513
6.90041
7.40613
5.65408
5.61779
5.81847
6.09081
6.40788
6.74089
7.06846
7.37798
7.67854
8.08637
6.067
6.05238
6.3153
6.6424
6.99498
7.33974
7.6672
7.9741
8.25887
8.61102
6.26056
6.27942
6.63108
7.02591
7.42008
7.78434
8.11665
8.41663
8.6828
8.98796
6.60027
6.57006
6.95607
7.37948
7.78129
8.14306
8.46649
8.75041
8.993
9.25187
0.110263
0.155613
0.118698
0.0591674
0.0144903
0.386246
0.923566
1.4787
1.94728
2.43023
0.0765147
0.140681
0.114313
0.060133
0.0144755
0.376837
0.928415
1.54302
2.02785
2.69779
0.0546786
0.132386
0.112627
0.0634024
0.023183
0.377361
0.936852
1.59504
2.1003
3.00966
0.0417231
0.13062
0.114835
0.0713381
0.0412155
0.386809
0.945874
1.63423
2.20529
3.39726
0.0354218
0.134212
0.119462
0.0816484
0.0645238
0.398799
0.952075
1.67145
2.38393
3.86771
0.0346207
0.141793
0.124771
0.0915352
0.0888626
0.409428
0.958915
1.72972
2.65054
4.36475
0.0395088
0.153192
0.129386
0.0988368
0.109428
0.4158
0.971239
1.82556
2.98221
4.7953
0.0509464
0.169171
0.13295
0.103676
0.125639
0.426418
1.01299
1.98439
3.34873
5.07978
0.0709719
0.189838
0.135531
0.102332
0.129393
0.427384
1.05009
2.1353
3.62697
5.08283
0.10225
0.212144
0.138727
0.104449
0.145247
0.474459
1.18643
2.39333
3.8768
4.89138
0.159576
0.240061
0.144974
0.101861
0.134231
0.475227
1.24979
2.506
3.88599
4.6738
0.263073
0.270534
0.134397
0.0774692
0.0717988
0.379633
1.12015
2.30355
3.431
5.19307
0.42798
0.268854
0.103027
0.0156649
0.014812
0.334173
1.14398
2.34818
3.25532
4.93839
0.681091
0.254793
0.0226046
0.0806807
0.105784
0.531724
1.42721
2.62051
3.71291
4.69745
1.06471
0.0479004
0.259254
0.241109
0.320131
0.887647
1.93159
3.20416
4.70571
5.1766
1.51472
0.120352
0.535709
0.421528
0.602317
1.30677
2.47336
3.91627
5.59831
6.2231
2.19476
0.684403
0.853079
0.694566
0.948183
1.7385
2.99235
4.59328
6.30242
7.21637
3.79211
1.70596
1.27306
1.04159
1.32381
2.15161
3.46191
5.16521
6.85416
7.96881
6.86012
3.57592
1.96246
1.42562
1.68463
2.52609
3.87448
5.6314
7.29521
8.50725
9.04905
6.38378
2.84312
2.00528
2.12048
2.89956
4.22542
6.01943
7.68654
8.93808
6.62487
6.68783
6.51106
6.38924
6.34883
6.3226
6.30559
6.31735
6.36196
6.47626
5.529
5.01012
4.76625
4.52509
4.12686
3.54083
2.79885
1.93227
1.04478
0.284264
4.85016
4.23693
3.8273
3.61664
3.42976
3.31024
3.31515
3.45747
3.65527
3.87427
4.71176
4.88522
5.02781
5.33748
5.70185
6.05226
6.3339
6.52142
6.61658
6.64162
5.6874
6.28562
6.61219
6.9113
7.17237
7.38149
7.53183
7.62817
7.67672
7.69241
6.86581
7.38859
7.68445
7.90234
8.07661
8.21486
8.31782
8.38857
8.43056
8.4489
7.76514
8.12052
8.35199
8.51793
8.64798
8.751
8.82957
8.88583
8.92164
8.939
8.40456
8.63269
8.80888
8.94093
9.04401
9.12466
9.18596
9.23006
9.25855
9.2726
8.86615
9.01619
9.14761
9.25059
9.33082
9.39282
9.43944
9.47267
9.494
9.50442
9.24867
9.35044
9.44301
9.5163
9.57294
9.61588
9.64748
9.66956
9.68348
9.69012
9.50945
8.98532
8.23586
6.92822
5.59793
0.131166
3.36079
5.96035
7.21406
8.15184
9.4654
8.92153
8.1681
6.89055
5.54935
0.563763
2.62218
5.70598
6.9164
7.91393
9.36567
8.78279
8.02025
6.80958
5.36633
1.60347
1.41354
5.2066
6.30932
7.40327
9.18253
8.5451
7.77446
6.65508
5.18642
2.74001
0.723085
4.23835
5.42154
6.57145
8.86809
8.17355
7.40397
6.3769
5.02649
3.368
0.970946
2.63161
4.31693
5.39377
8.35049
7.62968
6.87337
5.91724
4.76508
3.44002
1.71922
1.30192
3.04929
3.98812
7.53601
6.89655
6.15549
5.22753
4.29964
3.26954
2.14307
1.17245
1.65628
2.55747
6.32534
6.03751
5.28128
4.23187
3.53348
2.91264
2.11841
1.43509
1.0685
1.23548
4.63166
5.23218
4.47428
2.99959
2.43718
2.27456
1.856
1.38469
1.12252
0.659101
2.67272
4.53944
4.02157
1.96679
1.39686
1.48841
1.40987
1.21152
1.06382
0.84498
1.27667
3.78868
3.66653
1.33742
0.816259
0.897579
0.970872
0.955979
0.971446
1.01958
0.613424
2.96921
3.0819
0.956775
0.575311
0.639672
0.758948
0.819509
0.843552
0.876587
0.35533
2.18882
2.28492
0.688245
0.492285
0.59466
0.72564
0.810033
0.847895
0.872728
0.265299
1.55012
1.48872
0.521081
0.533658
0.67316
0.786659
0.857724
0.881208
0.891529
0.239669
1.01906
0.845155
0.513037
0.668327
0.801978
0.903207
0.966737
0.982508
0.979476
0.242937
0.49398
0.49924
0.635051
0.816029
0.9535
1.0513
1.10905
1.11966
1.11153
0.177836
0.203981
0.50714
0.754944
0.973312
1.11911
1.20896
1.2561
1.27288
1.27344
0.0454756
0.251001
0.648568
0.921557
1.13504
1.2527
1.32889
1.39852
1.45481
1.47649
0.0601769
0.491876
0.821582
1.09567
1.22991
1.33863
1.4885
1.64649
1.73354
1.74916
0.692344
0.863746
1.04068
1.18485
1.32423
1.5968
1.90857
2.07827
2.08064
2.04794
0.362968
0.0802864
0.223242
0.549374
0.792544
0.888983
0.882576
0.830463
0.78069
0.758215
0.461859
0.201716
0.318311
0.520137
0.72206
0.808594
0.804071
0.758458
0.71548
0.706774
0.525296
0.371232
0.438894
0.512335
0.651852
0.728937
0.727283
0.687214
0.650303
0.654298
0.638104
0.586562
0.594045
0.554021
0.585976
0.642198
0.645385
0.613525
0.584327
0.600855
0.80487
0.801958
0.740326
0.636366
0.540874
0.555342
0.561535
0.538994
0.518112
0.546426
1.00819
0.997789
0.873513
0.735608
0.529726
0.473949
0.476206
0.463635
0.451773
0.490988
1.22619
1.16942
0.988455
0.823616
0.551479
0.40802
0.392183
0.388271
0.38568
0.434437
1.45104
1.32384
1.08747
0.886247
0.588012
0.367106
0.313665
0.313966
0.320073
0.376755
1.68395
1.46781
1.17436
0.921745
0.617675
0.352116
0.247123
0.242353
0.25564
0.31756
1.92599
1.60346
1.25459
0.935756
0.628218
0.350606
0.199934
0.176461
0.192242
0.257605
2.00905
0.747207
0.716604
0.963415
1.19447
1.27998
1.25366
1.17725
1.10766
1.0204
1.39441
0.482786
0.578187
0.872856
1.1066
1.19412
1.17253
1.10182
1.03549
0.9616
0.751659
0.287876
0.480415
0.796027
1.03255
1.1224
1.10492
1.03871
0.975953
0.913626
0.253513
0.170197
0.404866
0.724419
0.957729
1.04648
1.03154
0.96972
0.911011
0.861693
0.435914
0.0327335
0.266786
0.611782
0.862084
0.962655
0.956043
0.900296
0.846004
0.809858
9.35463
9.29004
9.14098
8.87308
8.43753
7.77886
6.87132
5.75928
4.58194
3.53704
9.19246
9.09564
8.88109
8.51163
7.94148
7.13643
6.1096
4.95506
3.84473
2.78678
9.02387
8.90025
8.6266
8.16102
7.46173
6.51611
5.37139
4.1686
3.08125
1.94238
8.8163
8.66218
8.32148
7.74789
6.90613
5.8142
4.55495
3.2948
2.22587
1.0901
8.58748
8.37937
7.92581
7.17742
6.11248
4.79206
3.35064
2.08519
0.994046
0.302035
1.06048
1.02471
1.0166
1.02014
0.915466
0.799853
1.29355
3.68292
3.85938
1.32317
0.949473
0.93407
0.926541
0.871117
0.719176
0.588842
0.911148
3.14126
3.1092
0.647539
0.986211
0.982688
0.965843
0.893062
0.747681
0.584833
0.698746
2.37159
2.34544
0.377512
1.05345
1.06531
1.06114
1.00133
0.890004
0.740973
0.656074
1.55616
1.63285
0.277314
1.18569
1.20977
1.21542
1.16772
1.07669
0.951701
0.789082
0.908791
0.917928
0.246211
1.35026
1.37016
1.37839
1.35317
1.28319
1.14994
0.928707
0.668944
0.35765
0.216641
1.55384
1.54978
1.51749
1.47513
1.42402
1.31727
1.07726
0.75261
0.272188
0.0663497
1.82086
1.81432
1.73181
1.57932
1.43978
1.34298
1.20751
0.899258
0.493216
0.0467591
2.10064
2.14764
2.14553
1.95165
1.60915
1.32103
1.18549
1.05451
0.85383
0.674468
2.30916
2.35607
2.48022
2.53113
2.2283
1.62855
1.18078
1.06561
1.30211
2.03495
8.15165
7.2137
5.95999
3.36029
0.131423
5.59647
6.92773
8.23567
8.98533
9.50955
7.91325
6.91529
5.70498
2.62158
0.563633
5.5455
6.8891
8.16752
8.92159
9.46571
7.40182
6.30743
5.20481
1.41544
1.59975
5.36183
6.80731
8.01937
8.78292
9.36625
6.5688
5.41865
4.23619
0.726253
2.73172
5.18169
6.65224
7.77348
8.54543
9.18356
5.38939
4.31243
2.63258
0.971037
3.35668
5.02053
6.37345
7.40304
8.1743
8.86985
3.97975
3.04139
1.31012
1.71328
3.42677
4.75619
5.91243
6.87248
7.63116
8.35347
2.54095
1.65333
1.18723
2.13296
3.25087
4.28295
5.21878
6.15458
6.89944
7.54134
1.21736
1.08764
1.45188
2.10734
2.88045
3.50302
4.21744
5.28198
6.04345
6.33605
0.671579
1.15305
1.40726
1.84245
2.23204
2.40026
2.98383
4.47922
5.24339
4.65565
0.885051
1.1026
1.24734
1.41288
1.46393
1.3691
1.94333
4.02622
4.5649
2.7168
2.08973
0.543231
1.06069
0.630813
0.663416
0.759156
0.632558
0.300088
0.062315
0.356597
1.62985
0.236881
0.869273
0.48072
0.569462
0.681749
0.593305
0.356668
0.266163
0.488656
1.33383
0.0581941
0.641071
0.342623
0.480803
0.602188
0.561808
0.459491
0.473361
0.591245
1.09749
0.0147809
0.392931
0.234345
0.395919
0.518342
0.561888
0.625953
0.732356
0.758334
0.847259
0.0897393
0.189224
0.160746
0.31783
0.441579
0.608235
0.804568
0.973853
0.977066
0.634997
0.154573
0.0527071
0.103685
0.245552
0.385666
0.693575
0.973647
1.19226
1.22364
0.462666
0.209867
0.0499444
0.0533969
0.181449
0.364213
0.786513
1.11623
1.38341
1.47885
0.330145
0.2113
0.106947
0.0106156
0.12261
0.372311
0.858891
1.23166
1.55407
1.73274
0.231339
0.19723
0.119696
0.0360754
0.063606
0.387866
0.900588
1.32558
1.7071
1.97315
0.160118
0.175466
0.123977
0.0541931
0.0271761
0.393885
0.918058
1.40619
1.84008
2.19658
9.33657
6.7703
2.66534
1.70038
1.20346
1.12225
0.966566
0.782793
0.79693
2.03325
8.21091
4.63639
2.21528
1.4185
1.07111
1.03724
0.892657
0.651968
0.528406
1.39867
6.12012
3.06388
1.78548
1.21128
0.966371
0.972736
0.833356
0.561993
0.329169
0.741002
4.13307
1.8758
1.49742
1.00488
0.86051
0.905352
0.776653
0.488213
0.228991
0.224884
2.83538
1.06121
1.2461
0.804435
0.757499
0.82745
0.686435
0.35651
0.0444353
0.398004
3.54772
4.58912
5.76319
6.87349
7.7804
8.43867
8.87385
9.14146
9.2903
9.35472
2.78091
3.84101
4.9523
6.10783
7.13582
7.94149
8.51185
8.88132
9.0958
9.19252
1.92838
3.07185
4.16212
5.36663
6.51356
7.46058
8.16059
8.62651
8.90027
9.02389
1.05538
2.20297
3.28153
4.54671
5.81
6.90392
7.74677
8.32101
8.66204
8.81627
0.300427
0.962436
2.06382
3.33741
4.7851
6.1089
7.17544
7.92486
8.379
8.58739
)
;

boundaryField
{
    left
    {
        type            calculated;
        value           nonuniform List<scalar> 
35
(
0.298804
0.568441
0.98836
1.62617
2.5242
3.69536
5.06607
6.47613
8.15852
9.4418
0.209608
0.129589
0.0778677
0.0473244
0.0318904
0.0270745
0.0321016
0.0510456
0.0911601
0.159719
4.9334
4.06154
3.23465
2.51284
1.91702
1.42693
1.03024
0.723444
0.494078
0.327221
9.61573
8.97908
7.92207
6.84781
5.85943
)
;
    }
    right
    {
        type            calculated;
        value           nonuniform List<scalar> 
35
(
1.01998
0.96152
0.914054
0.863148
0.812654
0.762677
0.712964
0.662058
0.610031
0.556839
0.502366
0.446365
0.388645
0.328631
0.266905
0.200833
0.137312
0.0578536
0.0156979
0.012393
0.0131866
0.0273715
0.10122
0.188016
0.256773
0.336874
0.42308
0.490587
0.546231
0.589618
0.624255
0.652602
0.678567
0.701303
0.732003
)
;
    }
    down
    {
        type            calculated;
        value           nonuniform List<scalar> 
40
(
9.4543
7.2663
2.89624
1.78948
1.24409
1.15067
0.992161
0.824383
0.898009
2.26046
3.83289
4.88241
6.0339
7.09282
7.94456
8.55498
8.95444
9.19923
9.33563
9.39486
9.39477
9.33535
9.19871
8.95358
8.55365
7.94263
7.0899
6.02872
4.87314
3.81882
2.23216
0.847303
0.760464
0.995314
1.22611
1.30946
1.28053
1.20156
1.13083
1.03931
)
;
    }
    up
    {
        type            calculated;
        value           nonuniform List<scalar> 
40
(
9.0341
7.80885
6.16774
4.39503
3.0336
2.12032
1.52289
1.14154
0.925561
0.745538
9.72927
9.72305
9.71045
9.69064
9.66234
9.62377
9.57263
9.50586
9.42076
9.32814
9.33504
9.42655
9.51039
9.57622
9.62664
9.66461
9.69238
9.71168
9.72379
9.72951
9.27073
7.09629
3.23913
2.15678
2.23959
3.01925
4.34764
6.14905
7.81369
9.04494
)
;
    }
    cylinder
    {
        type            calculated;
        value           nonuniform List<scalar> 
80
(
1.98743
4.55514
5.52848
5.77387
6.30281
7.08991
7.86165
8.47475
8.91246
9.21291
9.44581
9.61872
9.72982
9.7983
9.84096
9.86846
9.8865
9.89817
9.90522
9.90869
9.50041
9.65061
9.74903
9.81047
9.849
9.87389
9.89016
9.90054
9.90657
9.90913
5.31708
6.2306
6.20995
6.31424
6.83337
7.52609
8.17601
8.68595
9.05067
9.30251
0.994521
0.471691
0.264273
0.183263
0.159656
0.165628
0.0828759
0.042214
0.74909
2.42197
9.59444
9.55587
9.46743
9.30185
9.00976
8.51134
7.68623
6.36659
4.38743
2.23909
9.59434
9.55555
9.46682
9.30077
9.0079
8.50816
7.68049
6.35446
4.35811
2.19125
0.95273
0.442208
0.244292
0.170811
0.150276
0.165462
0.161504
0.0842539
0.0433579
0.7313
)
;
    }
    defaultFaces
    {
        type            empty;
    }
}


// ************************************************************************* //
