/*--------------------------------*- C++ -*----------------------------------*\
  =========                 |
  \\      /  F ield         | OpenFOAM: The Open Source CFD Toolbox
   \\    /   O peration     | Website:  https://openfoam.org
    \\  /    A nd           | Version:  13
     \\/     M anipulation  |
\*---------------------------------------------------------------------------*/
FoamFile
{
    format      ascii;
    class       volVectorField;
    location    "0.645";
    object      U;
}
// * * * * * * * * * * * * * * * * * * * * * * * * * * * * * * * * * * * * * //

dimensions      [0 1 -1 0 0 0 0];

internalField   nonuniform List<vector> 
1800
(
(0.0978012 -0.0883289 -4.48989e-20)
(0.286896 -0.241952 -3.41221e-20)
(0.473973 -0.379045 -4.8503e-19)
(0.657691 -0.500158 1.91472e-19)
(0.83661 -0.60717 7.43795e-20)
(1.00991 -0.701375 -3.90554e-20)
(1.17715 -0.783465 5.54932e-20)
(1.33793 -0.853674 1.97324e-19)
(1.49159 -0.912953 5.92212e-19)
(1.63352 -0.966887 8.10006e-19)
(0.119061 -0.0915029 -7.91157e-20)
(0.344291 -0.24771 -7.70615e-19)
(0.563283 -0.38475 3.78149e-21)
(0.775364 -0.504236 1.25767e-19)
(0.979504 -0.608921 -1.26268e-19)
(1.17521 -0.700694 7.65928e-20)
(1.36231 -0.780785 -2.80839e-19)
(1.54078 -0.850094 -5.02501e-20)
(1.7101 -0.910698 -6.93437e-19)
(1.86785 -0.967034 6.29723e-19)
(0.141651 -0.0923232 4.88228e-20)
(0.40368 -0.247732 2.09288e-19)
(0.653755 -0.382117 5.43327e-19)
(0.892178 -0.497905 -1.90265e-19)
(1.11866 -0.598385 -1.42998e-19)
(1.33321 -0.685811 7.56139e-20)
(1.53605 -0.761704 9.82636e-20)
(1.72743 -0.827294 1.94068e-19)
(1.9072 -0.884796 2.73597e-21)
(2.07421 -0.937862 1.50984e-19)
(0.163907 -0.089721 -4.57191e-20)
(0.461699 -0.23947 -2.04392e-19)
(0.741428 -0.367619 -1.8126e-19)
(1.00451 -0.476977 -1.423e-19)
(1.25162 -0.571022 1.81312e-19)
(1.48351 -0.652126 -5.70911e-20)
(1.70092 -0.721905 -4.31074e-21)
(1.90453 -0.78162 2.93178e-21)
(2.09455 -0.833362 -1.60448e-19)
(2.27025 -0.880351 -1.05951e-19)
(0.184658 -0.0833566 -1.1404e-19)
(0.515894 -0.221807 8.76364e-20)
(0.823292 -0.339431 1.79842e-19)
(1.10931 -0.439063 2.43307e-19)
(1.37561 -0.524071 -2.85024e-19)
(1.62371 -0.596777 -3.58076e-21)
(1.85494 -0.658766 4.24983e-19)
(2.07042 -0.711261 -1.85054e-19)
(2.27083 -0.756161 -1.23989e-19)
(2.45578 -0.796394 -5.35639e-20)
(0.20319 -0.0735001 1.73592e-19)
(0.564471 -0.1952 1.02985e-18)
(0.896791 -0.298075 1.43255e-19)
(1.20351 -0.384735 -5.03143e-19)
(1.48719 -0.458227 -1.75504e-19)
(1.75003 -0.520669 6.37694e-19)
(1.9939 -0.573524 -1.4538e-19)
(2.22036 -0.617899 -4.31594e-19)
(2.43047 -0.655443 -3.16647e-19)
(2.62419 -0.688741 2.6159e-19)
(0.218899 -0.0605914 1.1634e-19)
(0.605745 -0.160701 -7.47594e-19)
(0.959314 -0.24503 -1.08561e-18)
(1.28371 -0.315798 3.83788e-19)
(1.58223 -0.375564 4.49946e-19)
(1.85767 -0.426128 -9.02069e-22)
(2.11239 -0.468739 -6.39688e-19)
(2.34829 -0.504325 2.19315e-19)
(2.56683 -0.534212 -3.64466e-19)
(2.76827 -0.560568 -3.11206e-19)
(0.231236 -0.0451723 -3.42488e-19)
(0.6382 -0.119684 -6.92606e-19)
(1.00849 -0.182294 1.21221e-18)
(1.34677 -0.2347 5.98703e-19)
(1.65694 -0.278852 -2.69759e-19)
(1.94224 -0.316135 -2.11497e-19)
(2.20543 -0.347515 0)
(2.44874 -0.373689 1.16807e-19)
(2.67398 -0.395622 -2.95842e-19)
(2.88171 -0.414969 -7.74326e-20)
(0.239766 -0.0278754 -2.04466e-19)
(0.660652 -0.0737558 5.62386e-19)
(1.04249 -0.112198 1.7101e-19)
(1.39031 -0.144289 -5.12496e-19)
(1.70841 -0.171277 -7.84197e-19)
(2.00037 -0.194053 3.66199e-20)
(2.26924 -0.213245 1.67124e-19)
(2.51752 -0.229293 -5.46844e-19)
(2.74731 -0.242783 -2.89762e-19)
(2.95953 -0.254777 -5.63592e-19)
(0.24426 -0.00940242 4.5141e-19)
(0.672453 -0.024704 3.44151e-19)
(1.0603 -0.0373616 -9.38597e-20)
(1.41303 -0.0477884 -1.29798e-20)
(1.73514 -0.0564621 -3.87508e-19)
(2.03041 -0.0637229 -8.57325e-20)
(2.30206 -0.0698098 -2.90579e-19)
(2.55276 -0.07489 6.4656e-19)
(2.7848 -0.0791708 1.71003e-19)
(2.99945 -0.0830115 2.22329e-21)
(-0.00234513 -0.021793 -3.37106e-20)
(0.00861959 -0.0693445 -7.04869e-20)
(0.0249111 -0.120453 -7.31603e-21)
(0.0493388 -0.171121 -3.41052e-20)
(0.0776932 -0.216499 -1.27282e-20)
(0.106543 -0.254648 -3.9001e-19)
(0.135581 -0.288586 -1.94667e-20)
(0.166374 -0.321898 1.19945e-19)
(0.199204 -0.355406 1.0964e-20)
(0.233097 -0.387768 -3.58305e-20)
(0.000846264 -0.024696 -9.77518e-20)
(0.0149488 -0.0850797 -2.12075e-19)
(0.0393451 -0.160281 -5.46261e-20)
(0.0692742 -0.225175 -1.10521e-19)
(0.0995065 -0.275466 -9.67176e-20)
(0.130488 -0.317903 -2.80068e-19)
(0.164515 -0.358891 2.00689e-19)
(0.202178 -0.400282 1.68495e-19)
(0.241681 -0.44019 -2.56408e-19)
(0.281196 -0.476567 8.12324e-20)
(0.00549444 -0.0315023 -8.54125e-20)
(0.0287792 -0.107424 -8.65549e-19)
(0.0628491 -0.196067 -1.29228e-19)
(0.0974499 -0.268915 9.36276e-20)
(0.131828 -0.327159 6.78583e-20)
(0.169676 -0.380219 -4.50868e-19)
(0.212973 -0.43223 3.57436e-20)
(0.259166 -0.481709 3.66976e-19)
(0.305519 -0.526164 -3.86299e-19)
(0.351475 -0.565555 -2.58471e-19)
(0.0113685 -0.0409947 -1.77675e-21)
(0.0466248 -0.130881 1.89621e-19)
(0.0896358 -0.225312 1.6237e-21)
(0.133076 -0.307006 -1.08321e-20)
(0.177797 -0.377837 -3.01368e-20)
(0.227256 -0.44381 8.70316e-20)
(0.281109 -0.50556 7.3308e-20)
(0.335684 -0.560818 -1.362e-19)
(0.389753 -0.609293 9.20934e-21)
(0.443928 -0.651855 -1.04421e-20)
(0.0185096 -0.0507773 0)
(0.0672384 -0.152432 5.46324e-21)
(0.121936 -0.253628 -5.09598e-19)
(0.178694 -0.345463 5.14925e-20)
(0.237811 -0.428556 -1.049e-20)
(0.30052 -0.505056 6.13608e-21)
(0.365314 -0.57433 -2.55186e-20)
(0.429814 -0.635377 -7.77857e-21)
(0.493956 -0.688774 0)
(0.558153 -0.734777 -2.05862e-20)
(0.0273265 -0.0596536 3.18007e-20)
(0.0918954 -0.17286 -1.54117e-19)
(0.161765 -0.282522 -4.58547e-20)
(0.234628 -0.383884 -5.83995e-20)
(0.309736 -0.476741 4.96581e-20)
(0.386737 -0.561514 5.29618e-21)
(0.464241 -0.63767 9.01278e-20)
(0.540938 -0.704902 -2.17596e-20)
(0.616909 -0.763394 -6.96494e-19)
(0.69216 -0.81259 -1.01053e-20)
(0.0379757 -0.0676068 6.87518e-22)
(0.121238 -0.192181 5.58223e-20)
(0.209163 -0.310618 -7.85256e-20)
(0.299926 -0.420174 -1.67067e-20)
(0.392135 -0.520662 -7.29144e-20)
(0.484775 -0.612114 -9.66947e-21)
(0.576697 -0.694303 9.75176e-21)
(0.666936 -0.767114 -2.11866e-19)
(0.755519 -0.830227 3.83645e-19)
(0.84231 -0.882275 9.71715e-19)
(0.050362 -0.0746022 1.51436e-20)
(0.15513 -0.209612 -1.42309e-19)
(0.263462 -0.335965 -2.13834e-19)
(0.373669 -0.452109 8.90362e-20)
(0.4841 -0.55826 -6.43266e-20)
(0.593541 -0.654606 9.88718e-20)
(0.700938 -0.74126 1.97014e-19)
(0.805402 -0.818276 -1.09245e-19)
(0.907012 -0.885083 -3.06018e-19)
(1.00568 -0.939491 7.25463e-19)
(0.0642905 -0.0803605 -2.64776e-20)
(0.193286 -0.224027 -5.78137e-19)
(0.324297 -0.35656 5.2434e-19)
(0.455682 -0.477229 3.37516e-19)
(0.585736 -0.586742 -8.59237e-20)
(0.71322 -0.685653 3.08759e-19)
(0.837124 -0.774422 -1.59978e-19)
(0.956557 -0.853441 -7.73139e-19)
(1.07172 -0.922013 -4.03766e-19)
(1.18266 -0.977253 4.53741e-19)
(0.0795455 -0.0846665 -7.98265e-20)
(0.235846 -0.234418 -5.44354e-19)
(0.392392 -0.370525 -8.26514e-21)
(0.547541 -0.492794 6.88113e-20)
(0.699592 -0.602461 3.37779e-19)
(0.847389 -0.700428 -1.8541e-19)
(0.990008 -0.787433 -1.69516e-19)
(1.12652 -0.863815 1.89044e-19)
(1.2568 -0.928633 -3.51669e-19)
(1.38006 -0.980334 -5.84653e-19)
(0.403013 -0.531832 9.86078e-19)
(0.684946 -0.618232 -2.46984e-19)
(0.913799 -0.557464 -1.43734e-19)
(1.08757 -0.430862 2.70717e-19)
(1.23984 -0.279776 -2.31459e-19)
(1.3619 -0.138946 -2.99619e-19)
(1.45855 -0.0325329 -2.64765e-19)
(1.51467 0.0198265 -3.17958e-20)
(1.53507 0.0287488 1.67129e-20)
(1.55112 0.0198519 3.03069e-20)
(0.468963 -0.619704 9.66335e-19)
(0.74161 -0.693663 7.19943e-20)
(0.966393 -0.617495 1.09432e-20)
(1.12484 -0.480053 -2.17815e-19)
(1.2654 -0.320052 -7.22149e-19)
(1.38033 -0.171435 0)
(1.47784 -0.0567657 -2.45122e-19)
(1.55015 0.00607765 5.1831e-20)
(1.58692 0.0224782 4.4776e-21)
(1.61393 0.0165974 -8.88085e-21)
(0.55629 -0.705372 -9.98104e-19)
(0.81091 -0.766643 -7.10043e-20)
(1.02567 -0.675398 1.56435e-19)
(1.16626 -0.52709 -5.37783e-20)
(1.29117 -0.35911 -3.62566e-20)
(1.39653 -0.203731 6.45759e-20)
(1.48936 -0.0825958 0)
(1.56798 -0.0118209 0)
(1.61819 0.010064 -2.80746e-20)
(1.66731 0.010264 0)
(0.665754 -0.787133 -2.24806e-19)
(0.895712 -0.835222 4.03673e-19)
(1.09209 -0.73011 2.68306e-20)
(1.21257 -0.570992 0)
(1.31803 -0.396079 6.07926e-19)
(1.41151 -0.234835 -1.461e-19)
(1.49711 -0.108405 0)
(1.57402 -0.031026 1.33164e-19)
(1.62407 -0.00527453 0)
(1.6951 -0.000518701 1.98875e-21)
(0.795768 -0.863833 -1.48969e-19)
(0.997713 -0.897412 4.54126e-19)
(1.16631 -0.78047 -1.46707e-20)
(1.26393 -0.610936 0)
(1.34665 -0.430156 1.78756e-19)
(1.42559 -0.264083 2.74139e-19)
(1.50297 -0.133061 4.77934e-20)
(1.57393 -0.0497517 6.74008e-21)
(1.6216 -0.0209232 -2.39812e-20)
(1.69531 -0.011785 3.19005e-20)
(0.942255 -0.934715 -1.33035e-18)
(1.11653 -0.951859 -9.41036e-19)
(1.24894 -0.825207 4.76975e-21)
(1.32012 -0.646193 5.74159e-19)
(1.37739 -0.460561 -3.02787e-19)
(1.43879 -0.290985 1.4769e-19)
(1.50719 -0.15598 2.3619e-19)
(1.57098 -0.0674926 -1.88152e-19)
(1.61711 -0.0366207 -1.85952e-21)
(1.69194 -0.0224391 2.97658e-20)
(1.1001 -0.999404 -2.60218e-19)
(1.25004 -0.998374 2.86307e-19)
(1.34024 -0.863201 3.96516e-21)
(1.38086 -0.676068 -1.75824e-20)
(1.41037 -0.486509 -5.86427e-19)
(1.45111 -0.315009 5.42322e-20)
(1.50911 -0.176902 -9.40058e-20)
(1.56608 -0.0844809 -2.75225e-20)
(1.61264 -0.0511088 -2.08591e-21)
(1.68047 -0.0337836 -2.2556e-20)
(1.26431 -1.05679 -1.20097e-18)
(1.39475 -1.03756 2.09765e-19)
(1.4392 -0.893859 0)
(1.44517 -0.700129 3.44197e-20)
(1.44495 -0.507459 5.17236e-19)
(1.46221 -0.33563 -1.3929e-21)
(1.50772 -0.195854 -3.06091e-19)
(1.55897 -0.100543 5.45615e-20)
(1.60767 -0.0641553 -4.20827e-22)
(1.63762 -0.0414309 -1.29461e-20)
(1.43198 -1.10346 3.39106e-18)
(1.54804 -1.07033 2.46254e-19)
(1.54563 -0.917886 4.63744e-19)
(1.51332 -0.718796 -3.17656e-20)
(1.48121 -0.523553 -3.43198e-20)
(1.47205 -0.352676 -4.25689e-19)
(1.50094 -0.212905 8.77679e-20)
(1.55035 -0.114581 3.06315e-21)
(1.57242 -0.072459 -2.51228e-20)
(1.57731 -0.0437353 1.89563e-20)
(1.59922 -1.12815 -2.9983e-18)
(1.70185 -1.09555 1.27245e-18)
(1.65397 -0.937928 -2.32532e-19)
(1.58143 -0.735558 -7.87506e-19)
(1.51613 -0.538373 -6.54541e-19)
(1.47803 -0.369866 -2.55686e-19)
(1.48823 -0.23018 -6.43176e-20)
(1.5183 -0.128324 0)
(1.51108 -0.0735498 -4.8854e-20)
(1.5082 -0.0436627 1.07921e-19)
(1.88817 -1.17019 -6.71281e-18)
(1.92738 -1.1051 -1.69224e-18)
(1.80488 -0.932143 -5.86125e-20)
(1.6731 -0.727434 1.12062e-19)
(1.56265 -0.53356 1.61568e-19)
(1.48557 -0.37231 -1.05047e-19)
(1.45396 -0.236531 -3.97955e-20)
(1.43434 -0.129311 6.76979e-20)
(1.42276 -0.07115 -5.51307e-20)
(1.41183 -0.0428117 -4.94981e-20)
(2.28931 -1.13483 4.95674e-19)
(2.17884 -1.05665 -2.8604e-19)
(1.9428 -0.865233 5.02108e-19)
(1.73579 -0.664662 -8.63817e-20)
(1.56284 -0.480416 1.45809e-20)
(1.42743 -0.332911 -6.35284e-20)
(1.34626 -0.214636 9.81457e-20)
(1.31561 -0.119325 -3.28801e-20)
(1.29885 -0.0656303 1.97508e-19)
(1.28344 -0.0399431 8.82297e-20)
(2.61059 -1.04357 2.27091e-18)
(2.35199 -0.948738 3.25866e-19)
(2.0084 -0.759407 -1.17928e-19)
(1.73278 -0.572843 1.59753e-36)
(1.50601 -0.410419 -2.54815e-20)
(1.33993 -0.286048 1.50939e-33)
(1.23683 -0.187852 -1.88298e-20)
(1.18865 -0.107687 -1.61266e-33)
(1.16674 -0.0591817 6.79867e-21)
(1.14711 -0.0361576 -1.57668e-20)
(2.78705 -0.893954 3.88755e-33)
(2.3695 -0.7956 2.96659e-18)
(1.97373 -0.63043 1.81875e-18)
(1.65366 -0.469321 0)
(1.40697 -0.334703 8.35522e-19)
(1.23034 -0.233207 4.33126e-19)
(1.11541 -0.154847 1.67518e-19)
(1.05484 -0.091975 -2.80922e-33)
(1.02749 -0.0511877 -6.04587e-20)
(1.00452 -0.0314059 1.06695e-20)
(2.76367 -0.705882 3.84289e-18)
(2.24594 -0.629864 -1.46825e-19)
(1.84662 -0.490986 0)
(1.51565 -0.361662 0)
(1.27155 -0.255585 0)
(1.0977 -0.178123 0)
(0.981734 -0.119877 -1.2593e-20)
(0.914888 -0.0736183 -4.11402e-33)
(0.883057 -0.0417913 7.52605e-21)
(0.857404 -0.025904 9.89467e-34)
(2.55118 -0.517031 3.26591e-18)
(2.02007 -0.462908 0)
(1.6386 -0.353629 0)
(1.32682 -0.256728 0)
(1.10109 -0.179645 0)
(0.941958 -0.125348 0)
(0.834022 -0.0854391 3.29141e-20)
(0.767762 -0.0541275 -8.74576e-20)
(0.733882 -0.0314084 8.38451e-21)
(0.706858 -0.0198742 3.61617e-20)
(2.19012 -0.342709 0)
(1.70264 -0.30351 1.09842e-18)
(1.36131 -0.227602 1.09055e-18)
(1.09134 -0.161988 0)
(0.89847 -0.112313 6.67623e-19)
(0.764142 -0.0785905 4.06148e-19)
(0.671923 -0.0542884 2.51815e-19)
(0.612509 -0.0354415 8.1411e-20)
(0.579982 -0.0209373 -2.06962e-20)
(0.553616 -0.01373 -5.07766e-21)
(1.70286 -0.191136 -6.73867e-19)
(1.30019 -0.165593 -2.74156e-19)
(1.02506 -0.121753 1.75635e-19)
(0.815099 -0.0844384 -2.11333e-34)
(0.667736 -0.0580728 -7.70237e-20)
(0.566248 -0.0409811 3.7164e-33)
(0.495793 -0.0287882 4.89414e-20)
(0.448578 -0.0194306 9.85407e-20)
(0.421142 -0.0115726 9.75992e-21)
(0.398136 -0.00803491 -3.34875e-21)
(1.10088 -0.0758211 3.40802e-18)
(0.823161 -0.0626782 -1.86522e-19)
(0.640588 -0.0442921 -5.88803e-19)
(0.506154 -0.0289893 0)
(0.413832 -0.0195657 -6.4007e-19)
(0.35069 -0.0141007 -4.32404e-19)
(0.306249 -0.0102532 -2.0306e-19)
(0.275461 -0.00736346 -1.4006e-19)
(0.256685 -0.00445564 1.62625e-19)
(0.240396 -0.00340702 -2.45193e-20)
(0.397352 -0.00331879 0)
(0.287867 0.00159403 0)
(0.220893 0.00409426 0)
(0.173553 0.0062466 0)
(0.142375 0.00585361 0)
(0.121207 0.00471011 0)
(0.105907 0.00366237 5.62291e-20)
(0.0948292 0.00253198 -2.17093e-34)
(0.0876578 0.00204476 1.23244e-20)
(0.0810571 0.000839468 1.14409e-20)
(3.3671 -0.0863113 5.39207e-19)
(3.32642 -0.265085 -8.41896e-20)
(3.24735 -0.430655 8.52089e-19)
(3.13238 -0.582156 -6.04764e-19)
(2.98634 -0.718122 6.66388e-19)
(2.81523 -0.836378 2.75213e-19)
(2.6266 -0.934053 -1.92761e-18)
(2.4295 -1.00784 -7.74317e-20)
(2.22467 -1.05367 0)
(1.98485 -1.06654 4.26199e-19)
(3.86191 -0.0750589 7.07366e-18)
(3.79859 -0.234212 1.95636e-18)
(3.70428 -0.387309 -4.86727e-18)
(3.58426 -0.531989 -4.49076e-19)
(3.44238 -0.665891 3.55881e-18)
(3.28185 -0.787316 1.92338e-18)
(3.1065 -0.895061 -5.16846e-18)
(2.92203 -0.987693 -1.9521e-18)
(2.72758 -1.06337 2.20307e-18)
(2.49236 -1.1205 8.52156e-19)
(3.83308 -0.0533001 -1.2625e-19)
(3.82024 -0.171565 4.40364e-18)
(3.78547 -0.29976 -1.08828e-18)
(3.72434 -0.430918 -3.44613e-18)
(3.63618 -0.558729 -6.80019e-18)
(3.52372 -0.678799 1.02787e-17)
(3.39117 -0.788787 4.18061e-18)
(3.2435 -0.887977 -3.91176e-18)
(3.08161 -0.978705 -2.90272e-18)
(2.88723 -1.06298 -3.42495e-18)
(3.62866 -0.0472851 -4.83943e-18)
(3.61961 -0.144931 -4.35349e-18)
(3.59964 -0.24374 5.47224e-18)
(3.56736 -0.343093 1.91193e-18)
(3.52241 -0.442376 -8.97151e-18)
(3.46417 -0.540805 4.9222e-19)
(3.39184 -0.637042 3.88646e-18)
(3.30513 -0.730426 -1.05399e-18)
(3.205 -0.823057 1.27685e-18)
(3.08307 -0.914763 2.81763e-19)
(3.34405 -0.0365777 -9.16001e-19)
(3.339 -0.111655 3.00412e-18)
(3.3271 -0.188676 1.6196e-18)
(3.30744 -0.267171 -1.89426e-18)
(3.27986 -0.34607 -2.00139e-18)
(3.24466 -0.424136 -2.43408e-18)
(3.20204 -0.500333 3.7968e-19)
(3.15177 -0.574491 1.39009e-19)
(3.0955 -0.647754 -2.13979e-18)
(3.03288 -0.721298 -2.03446e-18)
(2.96257 -0.026554 -1.82251e-18)
(2.95981 -0.0798885 -5.87235e-20)
(2.9533 -0.134599 -1.63754e-18)
(2.9424 -0.190903 3.12131e-19)
(2.92675 -0.24855 5.36786e-18)
(2.90629 -0.30693 -3.66756e-19)
(2.88092 -0.365115 4.43401e-20)
(2.85023 -0.422059 -2.60862e-18)
(2.81644 -0.476881 -3.49572e-18)
(2.78601 -0.529861 3.72792e-19)
(2.48713 -0.0175104 -2.89315e-20)
(2.48578 -0.0519345 -8.14318e-19)
(2.48259 -0.0872481 -2.61487e-18)
(2.47708 -0.123771 -3.43104e-18)
(2.4688 -0.161534 2.49657e-18)
(2.45745 -0.200267 1.50226e-18)
(2.44261 -0.239353 -1.38508e-18)
(2.4237 -0.277791 1.6245e-18)
(2.40275 -0.314482 -4.2972e-19)
(2.38953 -0.34954 -9.63779e-19)
(1.91464 -0.00968816 7.72463e-19)
(1.91408 -0.0282975 -8.31805e-19)
(1.91278 -0.0474396 -3.27694e-20)
(1.91031 -0.067359 -3.4724e-20)
(1.90624 -0.0881301 -7.27412e-20)
(1.90013 -0.109614 -2.33196e-18)
(1.89151 -0.131404 -6.78679e-19)
(1.87978 -0.152782 2.62612e-18)
(1.86664 -0.172974 -6.03507e-19)
(1.86191 -0.192206 -1.35114e-18)
(1.23988 -0.00373754 -1.64283e-18)
(1.23967 -0.0106956 -8.48916e-19)
(1.23923 -0.0179012 2.33921e-18)
(1.23823 -0.0254786 -8.8978e-19)
(1.23625 -0.0334753 -6.74127e-19)
(1.2329 -0.0418316 1.35204e-18)
(1.22775 -0.0503499 -1.2959e-18)
(1.22038 -0.0586654 1.28699e-18)
(1.21202 -0.0663423 -1.21032e-18)
(1.21007 -0.0735079 -4.24827e-18)
(0.454916 -0.00025797 6.63084e-19)
(0.454827 -0.000700527 7.03057e-19)
(0.454692 -0.00115912 7.48185e-19)
(0.454325 -0.00164005 1.35398e-18)
(0.453496 -0.00214018 -6.71989e-19)
(0.451983 -0.00263719 -1.29962e-18)
(0.449567 -0.00309911 6.14717e-19)
(0.445992 -0.00359293 2.48371e-20)
(0.441736 -0.00439222 -4.9653e-20)
(0.44035 -0.00504562 1.1057e-19)
(1.65354 0.997239 -2.85759e-19)
(1.51226 0.941832 1.79981e-20)
(1.35878 0.880725 -2.28546e-19)
(1.19767 0.808423 1.76354e-19)
(1.02957 0.723968 -1.92021e-19)
(0.854822 0.627071 -1.01112e-19)
(0.673758 0.516939 2.31989e-19)
(0.487036 0.392146 -3.04933e-19)
(0.295892 0.250643 3.09878e-19)
(0.10143 0.0916441 2.38728e-19)
(1.88637 0.992166 0)
(1.72967 0.93472 6.39208e-19)
(1.56083 0.872755 3.32358e-19)
(1.38228 0.801843 1.62802e-19)
(1.19453 0.719872 4.3133e-19)
(0.997532 0.625895 -8.68561e-20)
(0.79136 0.5186 -7.8545e-20)
(0.576347 0.39599 8.87832e-20)
(0.353318 0.255175 -1.04518e-18)
(0.122699 0.0943555 -1.66372e-20)
(2.09103 0.95902 1.56804e-19)
(1.92522 0.905055 0)
(1.74613 0.846453 -1.0074e-19)
(1.55493 0.779544 -3.83435e-19)
(1.3517 0.702079 5.37085e-20)
(1.13609 0.612788 3.97139e-19)
(0.907784 0.510088 -6.06894e-19)
(0.66659 0.391638 -2.00879e-19)
(0.412596 0.254045 7.83592e-19)
(0.145251 0.0947353 -1.75945e-19)
(2.28484 0.898343 1.88023e-19)
(2.11044 0.850552 1.20022e-20)
(1.92129 0.797855 2.45064e-20)
(1.71811 0.736997 3.60976e-20)
(1.50058 0.665854 -2.92651e-20)
(1.26793 0.583131 2.73265e-19)
(1.01926 0.487168 -2.06879e-19)
(0.753675 0.375531 -8.55579e-19)
(0.470271 0.244678 0)
(0.167388 0.0916967 0)
(2.46796 0.811811 -1.07075e-18)
(2.28435 0.770831 -6.09096e-19)
(2.08493 0.725058 -1.20662e-19)
(1.87003 0.67152 -6.65726e-20)
(1.6389 0.608294 0)
(1.39031 0.534137 2.40753e-19)
(1.12275 0.447434 2.6778e-19)
(0.834556 0.345836 2.86244e-19)
(0.52384 0.225953 -4.23749e-19)
(0.187908 0.0848982 -8.12354e-20)
(2.634 0.702089 7.66344e-19)
(2.44156 0.668061 -1.39173e-19)
(2.23244 0.629677 -2.21562e-19)
(2.00665 0.584305 0)
(1.76301 0.530279 0)
(1.49988 0.466488 0)
(1.21523 0.391464 -3.89807e-20)
(0.906686 0.30309 3.70275e-19)
(0.571499 0.198348 3.79144e-19)
(0.206083 0.0746244 -3.08568e-19)
(2.7758 0.572353 -1.19352e-18)
(2.5755 0.545259 -1.48132e-18)
(2.35787 0.514529 -3.03264e-22)
(2.1226 0.477946 -1.87663e-19)
(1.86818 0.434182 -9.28803e-20)
(1.59258 0.382318 -1.78842e-19)
(1.29333 0.321125 4.59094e-19)
(0.96749 0.248837 2.14862e-19)
(0.611584 0.162967 5.40028e-19)
(0.221315 0.0613403 2.02854e-19)
(2.88707 0.425747 -1.15706e-18)
(2.68027 0.405632 8.47056e-20)
(2.45576 0.38282 1.64525e-19)
(2.21297 0.355611 1.68181e-20)
(1.95004 0.323051 -3.14405e-19)
(1.66465 0.284469 -1.74212e-19)
(1.35398 0.238938 -6.21212e-19)
(1.01464 0.18514 1.1853e-19)
(0.642605 0.121237 5.14761e-20)
(0.233066 0.0456127 -6.26896e-21)
(2.9628 0.265187 1.0136e-19)
(2.75121 0.252354 3.97006e-19)
(2.52189 0.237904 -3.30293e-19)
(2.27394 0.22074 3.63018e-19)
(2.00524 0.200297 3.72549e-19)
(1.71322 0.176177 4.91898e-19)
(1.39481 0.147809 -6.35741e-19)
(1.04633 0.11439 -3.24416e-19)
(0.663412 0.0748098 -4.58505e-20)
(0.240916 0.0280952 -3.26995e-19)
(3.00053 0.0935775 5.81811e-19)
(2.78613 0.088786 -1.86157e-19)
(2.55425 0.0834444 4.79564e-19)
(2.30367 0.0771505 -3.1067e-19)
(2.03208 0.0697282 2.66478e-19)
(1.73679 0.0610622 6.05413e-19)
(1.41457 0.0509787 3.78886e-19)
(1.06162 0.0392348 3.09344e-19)
(0.673397 0.0255066 2.65862e-19)
(0.244654 0.00950724 5.43615e-19)
(0.239524 0.451965 -4.69018e-19)
(0.20393 0.41825 -1.87299e-19)
(0.168375 0.381179 1.39085e-19)
(0.134859 0.343531 -4.19377e-19)
(0.105135 0.307418 -1.19506e-19)
(0.0782378 0.270166 6.92644e-19)
(0.0518603 0.22376 3.35852e-19)
(0.025948 0.158925 -1.55949e-19)
(0.00705532 0.0796786 1.14409e-19)
(-0.0011268 0.0224426 -6.07077e-20)
(0.28862 0.54423 4.11186e-19)
(0.248718 0.50744 4.58033e-19)
(0.208172 0.465397 -1.17894e-20)
(0.16785 0.418385 -1.32555e-19)
(0.131136 0.37028 -3.12747e-19)
(0.100607 0.322698 8.28013e-20)
(0.0734739 0.269382 2.2483e-19)
(0.0458865 0.196933 1.65241e-19)
(0.0183346 0.101871 -5.9061e-19)
(0.00278629 0.0288662 -1.23565e-19)
(0.359669 0.633042 -6.00612e-19)
(0.313802 0.592901 -4.81236e-19)
(0.268001 0.547069 2.57379e-19)
(0.221355 0.493769 1.38018e-19)
(0.17581 0.434023 -5.96403e-21)
(0.136274 0.371831 -1.39889e-19)
(0.102121 0.305581 -2.93084e-20)
(0.0684354 0.224873 -5.55309e-19)
(0.033665 0.126001 -2.6943e-19)
(0.00763483 0.037786 -3.90719e-20)
(0.45424 0.71779 5.03102e-19)
(0.400079 0.673604 1.64732e-19)
(0.346382 0.622602 -1.49287e-19)
(0.292239 0.563568 6.33034e-20)
(0.237753 0.495483 -5.39418e-22)
(0.186588 0.420821 1.35187e-21)
(0.140104 0.340619 -1.32116e-19)
(0.0954593 0.250224 3.78712e-19)
(0.0514315 0.147715 -4.19371e-19)
(0.0135776 0.0476995 -6.51632e-20)
(0.572022 0.797774 -2.82152e-19)
(0.507873 0.749689 -8.89053e-20)
(0.44359 0.692854 -1.43342e-20)
(0.378976 0.627146 -7.00757e-20)
(0.313724 0.551901 5.84449e-20)
(0.249663 0.468015 5.2567e-20)
(0.188379 0.376677 -2.78727e-20)
(0.129323 0.276625 -2.82274e-19)
(0.0725239 0.167622 2.18407e-19)
(0.0209155 0.0568321 8.72948e-20)
(0.709419 0.870875 6.43434e-19)
(0.63437 0.819501 3.20976e-19)
(0.558133 0.757347 2.03398e-19)
(0.480857 0.685296 4.82048e-20)
(0.402413 0.603472 1.54797e-19)
(0.323869 0.512318 7.82704e-20)
(0.246465 0.412485 1.43172e-19)
(0.170863 0.303889 5.7925e-20)
(0.0980509 0.186786 -1.6015e-20)
(0.0299951 0.0650258 -1.33758e-20)
(0.862014 0.934809 -1.19757e-19)
(0.775536 0.88062 -8.25374e-19)
(0.686698 0.814005 -7.65785e-20)
(0.595721 0.736773 -5.16157e-20)
(0.502559 0.649583 -1.94764e-20)
(0.408122 0.552678 1.51371e-19)
(0.313476 0.446286 -4.38268e-20)
(0.219708 0.330397 6.50206e-20)
(0.128291 0.205071 -1.44614e-19)
(0.0409029 0.0724915 -1.24584e-21)
(1.02671 0.985987 -8.84929e-19)
(0.928458 0.929596 5.94269e-20)
(0.826648 0.859669 -2.33616e-19)
(0.721456 0.778854 -7.26128e-20)
(0.612763 0.68798 -2.4217e-20)
(0.501453 0.587047 -7.51666e-20)
(0.388524 0.475878 5.62987e-20)
(0.275161 0.354186 6.03155e-20)
(0.162981 0.221553 -9.82171e-21)
(0.0535436 0.0791198 -1.03807e-19)
(1.20388 1.0179 1.23829e-19)
(1.09349 0.960913 5.23288e-19)
(0.978244 0.889695 1.55431e-21)
(0.858216 0.807534 -2.9717e-20)
(0.73314 0.715284 1.5097e-19)
(0.603888 0.612537 -3.47409e-19)
(0.471401 0.498743 -2.44424e-19)
(0.336829 0.373204 3.56137e-19)
(0.201771 0.235005 1.44195e-19)
(0.0677022 0.0845325 -3.62374e-20)
(1.40057 1.01544 7.39898e-19)
(1.27805 0.962324 3.23793e-19)
(1.14782 0.895349 5.58994e-20)
(1.01087 0.816391 -1.95073e-19)
(0.867267 0.726514 -1.64495e-20)
(0.717899 0.625331 4.65651e-19)
(0.563583 0.512 -2.6825e-19)
(0.40534 0.385474 -1.84492e-19)
(0.244705 0.244319 3.35808e-19)
(0.0831142 0.0884411 -6.0537e-21)
(0.97632 0.0982108 8.71586e-21)
(1.14389 0.141918 -6.1435e-22)
(1.21347 0.190236 -2.31582e-20)
(1.32544 0.171107 0)
(1.37588 0.155876 1.28361e-21)
(1.27795 0.234711 -5.06455e-20)
(1.12873 0.385744 -5.45199e-20)
(0.949003 0.543468 -1.42773e-20)
(0.711484 0.64827 -3.02238e-19)
(0.416477 0.595456 4.30072e-19)
(0.981268 0.0791667 1.94387e-19)
(1.13606 0.114332 -3.00606e-20)
(1.20949 0.159963 1.90733e-21)
(1.31647 0.152716 1.20743e-20)
(1.37815 0.158014 3.62851e-21)
(1.29763 0.269159 -3.33172e-21)
(1.15871 0.435819 1.87346e-20)
(0.993694 0.606471 0)
(0.761444 0.727286 7.91644e-19)
(0.479387 0.686639 -5.64441e-19)
(0.98568 0.0603986 -1.12995e-19)
(1.13268 0.0877973 6.90683e-21)
(1.20861 0.130554 7.75105e-20)
(1.31353 0.133071 1.91776e-20)
(1.38102 0.159295 -2.29043e-20)
(1.31757 0.301417 -3.50364e-20)
(1.1919 0.484355 -5.23353e-21)
(1.04391 0.667892 4.44457e-20)
(0.823108 0.803731 -1.23335e-21)
(0.564503 0.774413 -3.77044e-19)
(0.989388 0.041412 -8.10809e-20)
(1.13328 0.061841 1.55011e-20)
(1.21136 0.101823 7.53687e-20)
(1.31678 0.113205 3.02664e-20)
(1.38681 0.160072 -2.35497e-20)
(1.33785 0.331502 -2.6024e-20)
(1.22863 0.530669 6.73689e-20)
(1.10015 0.726613 2.68266e-20)
(0.899952 0.875351 -5.43578e-19)
(0.673744 0.856819 -1.7806e-19)
(0.992408 0.0219085 3.72219e-20)
(1.13718 0.0359686 -4.72709e-20)
(1.21739 0.0736636 -6.76374e-20)
(1.32484 0.0937051 2.19541e-20)
(1.39441 0.161373 0)
(1.35813 0.359896 0)
(1.26892 0.574132 7.30023e-20)
(1.16353 0.781257 -2.82208e-20)
(0.99474 0.939664 -1.17885e-19)
(0.805148 0.932213 -5.73914e-20)
(0.994824 0.00174213 3.52556e-21)
(1.14356 0.0097741 5.77398e-20)
(1.22583 0.0459891 -2.07276e-19)
(1.33595 0.0751446 -7.59813e-20)
(1.40252 0.163994 -4.92016e-21)
(1.3783 0.386779 1.20506e-19)
(1.31295 0.6139 1.50057e-19)
(1.2356 0.830109 -1.80429e-20)
(1.10788 0.994869 -4.30098e-20)
(0.953783 0.999947 2.51641e-21)
(0.995993 -0.0194089 1.17528e-21)
(1.15166 -0.0170792 2.90504e-20)
(1.2357 0.0188193 -6.53337e-20)
(1.34871 0.0580755 -1.52369e-19)
(1.41021 0.168168 1.19197e-20)
(1.3986 0.411841 7.44623e-21)
(1.36131 0.64887 -5.9393e-20)
(1.31745 0.871512 -1.10539e-19)
(1.23735 1.04067 -2.97209e-20)
(1.11388 1.06016 -9.80356e-19)
(0.994616 -0.0414644 1.47974e-20)
(1.16085 -0.0448664 -1.41358e-19)
(1.24621 -0.00768102 1.31849e-19)
(1.36195 0.04327 1.00923e-19)
(1.41631 0.174368 5.05513e-21)
(1.41898 0.434648 -1.29659e-19)
(1.41388 0.678015 -7.90383e-22)
(1.40844 0.904525 -1.26727e-19)
(1.37937 1.07795 1.11081e-20)
(1.27986 1.11228 2.88362e-18)
(0.990152 -0.0637112 -8.67256e-20)
(1.17097 -0.0736998 7.92876e-20)
(1.25685 -0.0333597 1.89437e-19)
(1.37499 0.0308416 -1.13301e-19)
(1.42133 0.182356 -2.20856e-19)
(1.44097 0.454922 9.25868e-21)
(1.47194 0.7012 1.67136e-19)
(1.50857 0.929843 -5.68259e-19)
(1.53087 1.10796 -2.6838e-20)
(1.44833 1.15328 -6.4744e-18)
(0.983444 -0.0865755 4.11972e-21)
(1.18228 -0.103547 1.3961e-19)
(1.26737 -0.0580275 6.07636e-20)
(1.38655 0.023066 -2.73198e-19)
(1.42302 0.196153 -2.40189e-19)
(1.46215 0.476257 -7.03391e-20)
(1.53118 0.722197 7.67405e-20)
(1.61165 0.950804 -2.12185e-19)
(1.68375 1.13035 -1.08715e-18)
(1.6156 1.17227 -7.95179e-18)
(0.973913 -0.117654 -1.44995e-20)
(1.19604 -0.143174 -3.21335e-20)
(1.27695 -0.0914868 -7.56837e-20)
(1.39745 0.00833263 1.37377e-19)
(1.42579 0.195013 1.9904e-19)
(1.49207 0.471899 -5.90729e-20)
(1.61195 0.711662 -1.41048e-19)
(1.75383 0.939962 -1.2042e-18)
(1.90279 1.13236 -1.59973e-18)
(1.89932 1.20861 3.28647e-18)
(0.961876 -0.156229 -4.0638e-19)
(1.21392 -0.192628 1.59254e-20)
(1.28073 -0.137654 -5.70709e-20)
(1.39807 -0.0133835 3.27777e-19)
(1.40551 0.173135 3.42667e-19)
(1.49401 0.427458 -7.13873e-21)
(1.66827 0.647441 -6.80037e-20)
(1.88075 0.865572 -2.9409e-19)
(2.13955 1.07121 2.75188e-19)
(2.2845 1.16074 -3.23359e-19)
(0.949371 -0.196561 -2.78783e-20)
(1.23875 -0.242485 -5.47786e-20)
(1.27941 -0.181961 3.05552e-20)
(1.39333 -0.0322362 2.70639e-20)
(1.38003 0.161781 1.72928e-33)
(1.47099 0.370595 2.54129e-21)
(1.68089 0.561043 -2.04764e-33)
(1.94921 0.759365 1.85429e-19)
(2.30198 0.956283 -9.31169e-19)
(2.58733 1.05838 -6.29309e-19)
(0.937039 -0.243108 1.41264e-18)
(1.26998 -0.282416 -7.74134e-34)
(1.24964 -0.227907 -4.01131e-20)
(1.27205 -0.0358846 -2.2781e-19)
(1.26421 0.14407 -4.47872e-19)
(1.39003 0.301955 -8.88542e-19)
(1.61954 0.459783 -5.0739e-33)
(1.92945 0.630913 -1.73835e-18)
(2.3259 0.802004 -3.17715e-18)
(2.75377 0.902539 1.67533e-18)
(0.927288 -0.300537 0)
(1.3158 -0.32713 -1.62203e-33)
(1.11285 -0.206715 0)
(1.10823 -0.0291771 0)
(1.12038 0.114884 0)
(1.259 0.232569 0)
(1.48991 0.355242 -8.085e-33)
(1.81518 0.491432 0)
(2.21356 0.634214 -3.39779e-19)
(2.73504 0.711979 1.25762e-18)
(0.916466 -0.360791 1.16114e-19)
(1.2518 -0.326241 -4.68949e-19)
(0.960097 -0.173861 -5.49208e-20)
(0.934687 -0.0255923 0)
(0.957071 0.0826342 0)
(1.09041 0.165305 6.05784e-20)
(1.30655 0.253779 1.17897e-18)
(1.61607 0.354606 -1.95063e-19)
(1.99677 0.466164 -4.95302e-19)
(2.53249 0.520459 4.6729e-18)
(0.883458 -0.405315 -1.52016e-17)
(1.09212 -0.279916 1.08754e-18)
(0.792721 -0.130366 -7.27077e-20)
(0.747486 -0.0209416 -7.63694e-20)
(0.773482 0.0525474 -5.1143e-19)
(0.889787 0.104428 -7.7244e-19)
(1.07648 0.161191 -1.04894e-18)
(1.34611 0.22897 -1.38336e-18)
(1.68765 0.306098 -1.6061e-18)
(2.17995 0.344438 3.61323e-18)
(0.808995 -0.394518 -4.13642e-19)
(0.8865 -0.207585 -1.21642e-18)
(0.605576 -0.0827924 -1.25714e-19)
(0.549965 -0.015241 -8.41272e-20)
(0.572241 0.0276381 -9.83961e-34)
(0.661773 0.0544961 9.39282e-20)
(0.805559 0.0845335 -1.48634e-32)
(1.01625 0.122914 -1.93433e-19)
(1.29249 0.167299 2.9892e-19)
(1.6993 0.192068 7.05746e-19)
(0.664248 -0.288845 3.4255e-17)
(0.618264 -0.108094 -3.14028e-18)
(0.393386 -0.0350933 -2.4082e-19)
(0.339522 -0.00735306 -1.5666e-19)
(0.353958 0.00927286 3.93442e-19)
(0.410575 0.0183426 7.8379e-19)
(0.50126 0.0291686 7.95011e-19)
(0.636749 0.0448749 4.59826e-19)
(0.820759 0.0634532 -1.90357e-19)
(1.10156 0.0762249 3.56927e-18)
(0.336835 -0.0768246 5.58806e-19)
(0.261853 -0.00230512 -6.76607e-33)
(0.144386 0.0190745 -3.05033e-19)
(0.120441 0.00335032 0)
(0.123677 -0.0023415 0)
(0.141893 -0.00540894 9.65257e-20)
(0.172397 -0.00624338 9.33328e-35)
(0.220301 -0.0041742 -1.23575e-19)
(0.28813 -0.00161861 -2.82583e-19)
(0.399008 0.00331845 1.00154e-18)
(2.00203 1.09638 -1.78971e-18)
(2.23905 1.07843 -2.30493e-18)
(2.44206 1.02909 0)
(2.63707 0.95249 -7.58134e-19)
(2.82358 0.852501 -1.78294e-18)
(2.99276 0.732386 -2.24949e-18)
(3.13709 0.59504 -4.76065e-19)
(3.25054 0.442697 1.26928e-18)
(3.32824 0.276964 -3.54791e-18)
(3.36764 0.0986985 1.35669e-18)
(2.49864 1.14193 2.67675e-19)
(2.73054 1.08189 1.39726e-18)
(2.92385 1.00418 1.43896e-19)
(3.10672 0.909786 6.75745e-19)
(3.28059 0.800651 -1.10397e-18)
(3.43996 0.67832 -5.00034e-18)
(3.58096 0.544009 2.46788e-18)
(3.70047 0.399319 1.27033e-17)
(3.79428 0.246324 1.04064e-19)