/*--------------------------------*- C++ -*----------------------------------*\
  =========                 |
  \\      /  F ield         | OpenFOAM: The Open Source CFD Toolbox
   \\    /   O peration     | Website:  https://openfoam.org
    \\  /    A nd           | Version:  13
     \\/     M anipulation  |
\*---------------------------------------------------------------------------*/
FoamFile
{
    format      ascii;
    class       volScalarField;
    location    "0.015";
    object      p;
}
// * * * * * * * * * * * * * * * * * * * * * * * * * * * * * * * * * * * * * //

dimensions      [0 2 -2 0 0 0 0];

internalField   nonuniform List<scalar> 
1800
(
45.1367
47.7923
50.3381
51.6239
51.4876
50.2252
48.5996
47.4173
46.5332
44.9249
53.3016
55.8847
58.38
59.6675
59.6049
58.4476
56.8868
55.5619
54.4022
53.0127
63.1372
65.5296
67.8668
69.1446
69.1926
68.1998
66.7254
65.2607
63.8393
62.5865
74.5377
76.6441
78.7359
79.9382
80.0551
79.1886
77.802
76.1836
74.4317
73.1134
87.2069
88.9612
90.7306
91.7953
91.9423
91.218
90.0416
88.4093
86.3139
84.8123
100.823
102.188
103.597
104.498
104.688
104.196
103.426
102.019
99.6586
97.8876
114.974
115.949
116.991
117.716
117.961
117.815
117.684
116.737
114.249
112.234
129.214
129.834
130.518
131.025
131.248
131.463
132.141
131.772
129.348
127.482
143.276
143.597
143.93
144.163
144.132
144.493
145.479
145.762
143.409
143.129
157.283
157.397
157.509
157.585
157.516
157.727
158.247
158.567
157.452
157.91
-0.757307
-0.493497
1.48412
4.58391
7.57253
9.89741
11.634
12.9167
13.7549
14.0005
2.68064
1.94203
2.88384
5.34689
8.30095
10.9069
12.9342
14.4363
15.4367
15.8028
6.54086
5.81055
6.04133
7.50977
9.84412
12.3422
14.5085
16.1793
17.3276
17.8324
10.0668
10.0595
10.3339
11.0534
12.5053
14.4791
16.5041
18.2201
19.4796
20.1411
13.485
14.3179
15.0844
15.5361
16.2259
17.4661
19.0752
20.6645
21.9711
22.7964
17.1911
18.7031
20.0278
20.5469
20.7637
21.2923
22.3322
23.6417
24.9325
25.9378
21.4523
23.4349
25.2121
25.9347
25.9366
25.9091
26.3525
27.2869
28.4913
29.6719
26.4053
28.6808
30.7863
31.7238
31.6731
31.2399
31.1387
31.6572
32.7666
34.1901
32.0697
34.5375
36.877
38.0336
38.0168
37.3152
36.7019
36.7878
37.736
39.3551
38.3852
40.9894
43.5343
44.8716
44.9097
43.945
42.7554
42.2411
42.9371
44.5116
13.1157
11.7442
11.0603
10.3503
9.26261
7.88663
6.30768
4.59177
2.78883
0.938322
14.807
13.1847
12.1048
11.0797
9.76399
8.22515
6.52969
4.72949
2.86313
0.960887
16.6185
14.7231
13.2238
11.8639
10.3082
8.59668
6.77618
4.88407
2.94725
0.986591
18.5726
16.3654
14.4252
12.7041
10.8949
9.00004
7.04591
5.05455
3.04064
1.01527
20.7022
18.1089
15.7161
13.6022
11.5235
9.43391
7.33752
5.23986
3.14266
1.04669
23.0734
19.9568
17.1004
14.5606
12.1932
9.89677
7.6495
5.43885
3.25262
1.08064
25.7901
21.9338
18.5787
15.5836
12.9036
10.3869
7.98017
5.65021
3.36976
1.11686
28.9587
24.0854
20.1513
16.6741
13.6538
10.9025
8.32768
5.87253
3.49323
1.15511
32.6887
26.437
21.8164
17.8349
14.4447
11.4419
8.6901
6.10427
3.62209
1.19633
37.1891
29.027
23.5609
19.0482
15.2706
12.0019
9.06508
6.34369
3.75519
1.23775
43.0442
32.7622
25.7149
20.3921
16.1362
12.5602
9.42373
6.56587
3.87738
1.27831
47.2484
35.2607
27.3941
21.526
16.8665
13.0194
9.70704
6.73367
3.96549
1.30506
50.2514
37.2277
28.7888
22.4662
17.4697
13.3989
9.94098
6.87186
4.03805
1.32733
52.1136
38.7265
29.8309
23.1662
17.9249
13.6874
10.1185
6.97626
4.09294
1.34466
52.9383
39.6683
30.4642
23.6123
18.2218
13.8767
10.2343
7.0435
4.12847
1.35686
54.179
40.8835
31.118
23.9988
18.4523
14.0143
10.3143
7.08818
4.15252
1.36653
57.3541
43.4029
32.5549
24.7688
18.8779
14.255
10.4516
7.16499
4.19256
1.37813
61.1417
46.481
34.5581
25.9731
19.6043
14.6943
10.7163
7.31964
4.27257
1.39699
63.0566
48.2242
35.8186
26.8368
20.1755
15.0635
10.9495
7.46047
4.34744
1.41544
63.4468
48.8429
36.3623
27.2929
20.5091
15.2916
11.0987
7.55243
4.39826
1.4314
159.308
145.91
130.526
115.66
101.99
89.6042
78.4852
68.4105
58.5133
47.5025
159.765
146.822
133.078
119.448
106.511
94.5694
83.7167
73.8775
64.43
54.5602
159.956
147.161
134.124
121.296
109.124
97.8387
87.4966
78.0218
69.1297
60.6373
160.173
147.374
134.687
122.362
110.662
99.7548
89.6973
80.4703
72.0647
64.6677
160.691
148.515
136.417
124.519
113.005
102.062
91.8162
82.3682
74.0004
67.1563
161.189
149.747
138.406
127.218
116.246
105.568
95.2733
85.5415
76.9309
70.1184
161.489
150.465
139.622
129.048
118.806
108.925
99.3921
90.2572
82.0058
75.4031
161.656
150.847
140.238
129.939
120.047
110.635
101.74
93.408
86.0229
80.1894
161.705
150.945
140.378
130.113
120.256
110.901
102.12
93.9883
86.8327
81.2015
161.678
150.858
140.219
129.869
119.914
110.462
101.598
93.389
86.0394
79.9434
289.642
287.882
286.844
285.507
283.73
282.337
282.104
283.33
285.848
288.499
280.937
279.369
278.039
276.549
274.832
273.54
273.375
274.596
277.058
279.631
270.724
269.276
267.671
266.032
264.395
263.266
263.207
264.412
266.708
269.084
259.605
258.078
256.123
254.306
252.743
251.732
251.735
252.856
254.898
256.98
247.371
245.644
243.312
241.451
240.084
239.207
239.231
240.206
241.916
243.638
233.817
231.801
229.166
227.501
226.527
225.873
225.932
226.734
228.075
229.398
219.043
216.764
213.967
212.739
212.39
212.075
212.183
212.801
213.765
214.689
203.406
201.244
198.491
197.841
198.29
198.337
198.423
198.82
199.416
199.976
187.376
186.698
184.057
184.085
184.871
185.086
184.935
185.062
185.303
185.555
172.321
172.423
171.02
171.083
171.432
171.51
171.328
171.297
171.312
171.35
324.722
324.977
325.818
327.099
328.836
331.167
334.174
337.296
339.275
339.506
322.727
323.095
324.09
325.585
327.607
330.213
333.172
335.636
336.565
335.804
320.449
320.946
322.077
323.728
325.878
328.362
330.68
332.131
332.353
331.634
317.839
318.479
319.707
321.39
323.384
325.327
326.748
327.444
327.722
327.746
314.826
315.616
316.877
318.418
319.982
321.178
321.826
322.253
323.029
323.896
311.272
312.225
313.455
314.703
315.685
316.157
316.325
316.817
318.148
319.689
307.069
308.182
309.31
310.169
310.541
310.446
310.392
311.083
312.86
314.862
302.032
303.366
304.383
304.814
304.629
304.118
304.004
304.903
307
309.287
296.316
297.823
298.66
298.641
297.927
297.135
297.047
298.16
300.483
302.954
290.596
292.036
292.602
291.958
290.642
289.567
289.525
290.814
293.339
295.941
333.637
333.229
332.781
331.543
330.2
328.963
327.979
327.372
326.806
325.55
333.248
332.914
332.465
331.194
329.772
328.395
327.194
326.268
325.286
323.729
332.934
332.633
332.168
330.843
329.324
327.791
326.353
325.085
323.656
321.758
332.69
332.386
331.89
330.492
328.858
327.15
325.457
323.815
321.91
319.613
332.515
332.177
331.633
330.143
328.376
326.475
324.506
322.45
320.049
317.258
332.409
332.004
331.396
329.796
327.878
325.765
323.495
320.987
318.07
314.621
332.373
331.867
331.179
329.451
327.365
325.02
322.42
319.424
315.945
311.595
332.412
331.765
330.979
329.108
326.837
324.24
321.277
317.76
313.623
308.07
332.529
331.696
330.795
328.766
326.294
323.423
320.062
315.994
311.078
303.943
332.721
331.663
330.624
328.424
325.736
322.572
318.791
314.14
308.275
299.027
333.058
331.689
330.48
328.102
325.174
321.667
317.37
311.855
304.319
292.854
333.666
331.856
330.445
327.882
324.719
320.894
316.149
310.045
301.67
288.55
334.508
332.139
330.507
327.743
324.358
320.258
315.137
308.545
299.594
285.52
335.649
332.531
330.665
327.687
324.102
319.779
314.374
307.413
298.002
283.654
337.163
333.016
330.91
327.712
323.951
319.464
313.873
306.701
296.978
282.84
339.159
333.606
331.244
327.801
323.868
319.229
313.447
305.996
295.718
281.653
342.355
334.277
331.817
327.912
323.691
318.807
312.655
304.535
293.183
278.544
349.877
335.061
332.164
327.742
323.254
318.064
311.424
302.502
290.071
274.752
366.706
336.713
332.234
327.435
322.86
317.477
310.535
301.209
288.286
272.805
392.613
339.589
332.911
327.375
322.655
317.147
310.071
300.651
287.649
272.402
287.035
275.571
265.128
254.541
242.957
230.15
216.103
200.93
185.278
171.57
279.996
269.788
259.915
249.688
238.489
226.238
213.015
199.109
185.12
172.007
274.062
265.303
256.084
246.306
235.692
224.165
211.774
198.743
185.515
172.587
270.221
262.606
253.955
244.489
234.203
223.089
211.205
198.719
185.897
173.011
267.93
260.906
252.36
242.72
232.275
221.138
209.441
197.381
185.154
172.906
265.18
258.205
249.445
239.53
229.032
218.151
206.991
195.645
184.189
172.686
260.053
253.253
244.825
235.499
225.77
215.706
205.302
194.598
183.663
172.591
255.26
249.22
241.662
233.162
224.1
214.532
204.501
194.088
183.398
172.547
254.231
248.415
241.091
232.797
223.857
214.354
204.363
193.989
183.343
172.543
255.49
249.221
241.7
233.326
224.303
214.701
204.613
194.152
183.434
172.573
148.216
148.818
149.407
149.562
148.965
148.422
148.265
148.735
148.687
147.83
111.465
113.196
114.797
115.208
113.563
111.607
110.874
111.678
111.672
109.135
77.5278
80.2891
82.8417
83.6346
81.5907
78.516
77.2116
78.1445
78.5186
75.4128
47.9461
51.5414
54.9039
56.1082
54.2331
50.6933
48.9576
49.8434
50.7096
48.2898
23.6295
27.8285
31.7691
33.3956
31.9297
28.519
26.5148
27.2184
28.5328
27.3447
4.90822
9.45241
13.7532
15.6915
14.7283
11.7586
9.67746
10.0581
11.584
11.665
-8.38302
-3.7323
0.684948
2.78444
2.23539
-0.177217
-2.18377
-2.24769
-0.996675
-0.0950772
-16.6879
-12.1537
-7.84706
-5.76061
-6.05407
-7.92266
-9.65309
-10.0963
-9.60638
-8.79833
-20.7046
-16.4838
-12.4633
-10.5055
-10.6347
-11.9739
-13.104
-13.4016
-13.5424
-13.6304
-21.5235
-17.7543
-14.1421
-12.3468
-12.3049
-13.0578
-13.2953
-12.6258
-12.264
-13.1616
-20.5932
-17.3996
-14.3688
-12.9398
-12.9157
-13.3603
-13.1559
-11.88
-9.95873
-8.31995
-18.5678
-16.0246
-13.6591
-12.6256
-12.5835
-12.6306
-12.0339
-10.6562
-8.7331
-6.75702
-15.8566
-14.0726
-12.404
-11.6891
-11.4554
-10.9685
-9.85222
-8.21612
-6.30078
-4.57804
-12.927
-12.0197
-11.0498
-10.4594
-9.7992
-8.68395
-7.1333
-5.37099
-3.60135
-2.21304
-10.2109
-10.199
-9.73023
-8.90896
-7.57551
-5.8356
-3.96806
-2.19067
-0.609041
0.449272
-8.20323
-8.74108
-8.24129
-6.77208
-4.70598
-2.54216
-0.591088
1.06756
2.40758
3.15709
-6.9734
-7.21633
-6.02948
-3.77648
-1.24522
0.986497
2.79455
4.23765
5.31899
5.80193
-5.64699
-4.95412
-2.86766
-0.13163
2.41235
4.42082
5.97149
7.16877
8.00235
8.27106
-4.39652
-2.8819
-0.0294842
2.95954
5.40994
7.24138
8.62504
9.66398
10.3361
10.478
-3.0021
-1.60105
1.08693
4.25024
6.92726
8.90941
10.3822
11.4739
12.1693
12.3202
-9.68494
-1.38449
3.27389
5.71054
6.59405
6.44368
5.59175
4.2743
2.66462
0.907237
-6.39757
0.281834
4.02597
6.0176
6.70226
6.45036
5.55303
4.22664
2.6317
0.897784
-3.17523
1.82323
4.66983
6.32894
6.82027
6.46493
5.52145
4.18465
2.60085
0.887041
-0.394553
3.21776
5.33354
6.67515
6.97519
6.51284
5.51714
4.16257
2.58159
0.879841
2.09022
4.49383
6.01983
7.05976
7.1716
6.59823
5.5431
4.16227
2.57511
0.876717
4.34974
5.63102
6.73867
7.48697
7.41076
6.72122
5.59904
4.18338
2.58117
0.87759
6.3844
6.74827
7.49986
7.95981
7.69337
6.88157
5.68447
4.22544
2.59951
0.882367
8.21413
7.89751
8.30815
8.4808
8.01981
7.07889
5.79878
4.28792
2.62982
0.890947
9.89565
9.10818
9.16757
9.05192
8.39022
7.31265
5.94129
4.37024
2.67174
0.903215
11.5023
10.3888
10.0831
9.67467
8.80457
7.58215
6.11122
4.47176
2.72488
0.91905
-6.33701
0.430293
2.36682
4.39442
5.56527
5.71609
5.1035
3.96916
2.49897
0.865206
-7.16599
-0.286354
2.32203
4.47014
5.65535
5.79214
5.15967
4.00668
2.52034
0.872408
-8.82606
-1.08777
2.35416
4.63126
5.78737
5.88864
5.22754
4.05137
2.54533
0.879514
-10.291
-1.70412
2.60358
4.97367
6.038
6.06462
5.34931
4.13107
2.59035
0.890699
-10.173
-2.03801
2.87331
5.38857
6.37512
6.31388
5.52459
4.24511
2.65405
0.906532
147.045
106.189
69.4758
39.2628
16.5843
1.17366
-8.08103
-12.5077
-12.8433
-9.35713
146.975
107.374
71.7311
42.7891
21.2336
6.58555
-2.43436
-7.30704
-8.34264
-4.74738
147.43
108.506
74.2582
46.5643
25.9589
11.8061
2.71547
-2.87216
-5.03215
-2.80108
147.296
108.893
75.0215
48.2253
28.3122
14.3939
4.95118
-1.61234
-5.50862
-6.44657
146.439
107.702
74.2857
48.0481
28.5965
14.6965
4.5933
-3.15358
-8.39648
-11.3588
346.274
347.865
349.734
350.963
351.118
350.609
350.564
351.941
354.949
358.141
344.932
346.873
348.757
350.102
350.668
350.584
350.58
351.575
353.925
356.471
342.966
344.665
346.553
348.168
349.269
349.74
349.95
350.641
352.301
354.092
340.797
342.173
343.926
345.674
347.218
348.332
348.99
349.573
350.541
351.457
338.3
339.356
340.928
342.696
344.559
346.306
347.654
348.489
348.966
348.984
335.716
336.47
337.806
339.457
341.403
343.572
345.661
347.163
347.69
347.16
333.143
333.635
334.715
336.151
337.951
340.181
342.728
345.021
346.254
346.038
330.691
330.97
331.804
332.994
334.534
336.532
339.079
341.845
343.984
344.714
328.454
328.607
329.281
330.316
331.693
333.518
335.974
338.996
341.909
343.466
326.536
326.7
327.401
328.493
329.965
331.953
334.651
337.852
340.571
341.998
187.774
186.821
186.634
186.915
186.532
185.743
184.932
184.924
185.395
185.93
226.613
223.949
223.799
224.406
223.462
221.269
219.412
219.662
221.157
222.831
260.497
257.279
257.483
258.244
256.739
253.448
251.195
251.838
254.297
257.014
287.873
285.327
286.025
286.737
284.818
281.081
279.01
280.073
283.353
286.913
309.096
307.779
308.926
309.466
307.294
303.702
302.056
303.552
307.42
311.59
325.06
325.009
326.38
326.613
324.382
321.246
320.119
321.941
326.178
330.698
337.091
337.865
338.981
338.791
336.653
334.091
333.396
335.392
339.755
344.386
346.047
346.741
347.12
346.573
344.73
342.731
342.312
344.309
348.569
353.088
351.123
350.939
350.71
350.33
349.11
347.661
347.425
349.306
353.289
357.498
350.921
349.946
350.236
350.839
350.528
349.684
349.633
351.362
354.942
358.705
345.313
336.553
336.351
333.751
332.464
332.079
332.875
335.255
339.852
347.939
342.917
336.367
335.891
333.719
332.421
331.969
332.583
334.572
338.26
344.795
341.034
336.128
335.575
333.659
332.372
331.845
332.278
333.951
336.786
341.719
339.46
335.836
335.242
333.532
332.269
331.669
331.927
333.299
335.441
339.064
338.143
335.496
334.893
333.345
332.108
331.438
331.528
332.614
334.233
336.679
337.04
335.121
334.535
333.112
331.894
331.151
331.076
331.884
333.107
334.487
336.111
334.728
334.174
332.841
331.631
330.81
330.569
331.102
331.983
332.486
335.327
334.331
333.814
332.542
331.324
330.418
330.006
330.264
330.81
330.654
334.664
333.943
333.459
332.221
330.98
329.977
329.386
329.365
329.56
328.937
334.106
333.574
333.113
331.887
330.604
329.491
328.711
328.403
328.227
327.262
406.37
341.078
339.139
334.554
333.466
333.244
334.244
336.157
337.914
344.268
384.685
339.391
338.583
334.457
333.334
333.131
334.156
336.196
338.631
345.117
366.3
337.848
338.337
334.356
333.198
332.976
333.983
336.156
339.439
346.829
355.264
337.05
337.874
334.169
332.966
332.695
333.626
335.898
340.073
348.366
348.994
336.721
337.07
333.887
332.643
332.317
333.195
335.63
340.444
348.332
346.916
350.238
349.714
345.049
335.524
319.837
296.9
266.471
229.621
188.715
342.336
345.76
344.542
339.436
330.149
315.222
293.402
264.232
228.452
188.77
340.462
342.498
340.146
334.322
324.962
310.526
289.649
261.721
227.312
188.303
344.179
343.035
338.922
332.112
322.395
308.19
287.999
260.954
226.936
188.409
349.134
345.949
340.47
332.471
322.093
307.905
288.172
261.685
228.107
189.232
)
;

boundaryField
{
    left
    {
        type            zeroGradient;
    }
    right
    {
        type            fixedValue;
        value           uniform 0;
    }
    down
    {
        type            zeroGradient;
    }
    up
    {
        type            zeroGradient;
    }
    cylinder
    {
        type            zeroGradient;
    }
    defaultFaces
    {
        type            empty;
    }
}


// ************************************************************************* //
