/*--------------------------------*- C++ -*----------------------------------*\
  =========                 |
  \\      /  F ield         | OpenFOAM: The Open Source CFD Toolbox
   \\    /   O peration     | Website:  https://openfoam.org
    \\  /    A nd           | Version:  13
     \\/     M anipulation  |
\*---------------------------------------------------------------------------*/
FoamFile
{
    format      ascii;
    class       volScalarField;
    location    "0.015";
    object      strainRateViscosityModel:nu;
}
// * * * * * * * * * * * * * * * * * * * * * * * * * * * * * * * * * * * * * //

dimensions      [0 2 -1 0 0 0 0];

internalField   nonuniform List<scalar> 
1800
(
9.82296
9.68059
9.43357
8.95692
8.13754
7.02328
5.87782
5.04893
4.6156
4.33309
9.85834
9.74094
9.53446
9.12689
8.39892
7.34344
6.21666
5.25677
4.61545
4.14588
9.88292
9.78325
9.60537
9.24923
8.58678
7.54463
6.35987
5.25758
4.42338
3.7762
9.8998
9.81308
9.65745
9.34566
8.74928
7.71464
6.47356
5.31088
4.3173
3.54066
9.91127
9.8341
9.6963
9.4245
8.89339
7.85751
6.55324
5.49467
4.38136
3.37085
9.91887
9.84856
9.72467
9.48654
9.01383
7.9675
6.60733
5.85524
4.74983
3.32582
9.9237
9.85801
9.74423
9.53173
9.10546
8.03753
6.64897
6.43185
5.51419
3.42196
9.92661
9.86375
9.75672
9.56123
9.16702
8.04273
6.63462
7.28093
6.79719
3.70034
9.92826
9.86685
9.76389
9.5761
9.19863
7.94219
6.37112
8.47968
8.32594
3.37287
9.92905
9.86825
9.7673
9.58131
9.2094
7.81045
5.81811
9.35656
8.94278
0.282122
3.08599
2.869
3.69301
4.58384
5.10032
5.30557
5.29085
5.13638
4.82904
4.48503
5.26363
4.43558
4.39857
4.83367
5.24376
5.43678
5.42311
5.26421
4.94815
4.59894
6.93108
6.10359
5.52728
5.30894
5.38329
5.47674
5.45049
5.30054
4.99508
4.66331
8.0639
7.36943
6.6737
6.02638
5.65033
5.50474
5.40772
5.25936
4.98116
4.69072
8.76952
8.21199
7.56097
6.76667
6.04523
5.58704
5.34414
5.17293
4.9278
4.69673
9.19369
8.75417
8.18534
7.38859
6.48829
5.74255
5.29817
5.06213
4.8472
4.69351
9.449
9.10414
8.61771
7.86943
6.90436
5.94732
5.27512
4.93585
4.72879
4.63966
9.60624
9.33398
8.91995
8.23242
7.25751
6.15632
5.27001
4.80639
4.59507
4.61186
9.70668
9.48903
9.13667
8.51158
7.55335
6.36141
5.2738
4.65637
4.43478
4.44207
9.77415
9.59825
9.30006
8.74096
7.82241
6.60339
5.37828
4.54442
4.33845
4.5393
2.68156
0.618094
0.159216
0.0552697
0.0256658
0.0158457
0.0123676
0.0110639
0.0105739
0.0101154
2.80513
0.699492
0.190044
0.0618057
0.027451
0.0164006
0.0125779
0.0111672
0.0106398
0.0101306
2.91946
0.788464
0.227466
0.0696097
0.0295119
0.0170153
0.0127963
0.0112663
0.0106989
0.0101437
3.03407
0.887443
0.271409
0.0791047
0.0319036
0.017695
0.0130198
0.0113575
0.0107482
0.0101539
3.16123
1.00865
0.320918
0.0908351
0.0346951
0.018447
0.013246
0.0114379
0.010785
0.0101606
3.29407
1.17423
0.375433
0.105398
0.0379812
0.0192821
0.0134741
0.0115053
0.0108076
0.0101632
3.42383
1.38204
0.432257
0.122602
0.0418462
0.0202149
0.0137049
0.0115586
0.0108149
0.0101618
3.53092
1.66015
0.517121
0.144159
0.0465547
0.0212767
0.0139414
0.0115977
0.0108069
0.0101564
3.55691
1.88034
0.578058
0.148862
0.0476882
0.0216834
0.0140534
0.0116038
0.0107825
0.0101473
3.49097
2.29454
0.851401
0.210901
0.0585161
0.0235917
0.0143883
0.0116382
0.0107593
0.0101382
3.69638
2.414
0.947403
0.245935
0.0668269
0.0253702
0.014693
0.011641
0.0107133
0.0101245
3.80398
2.02864
0.711944
0.195613
0.0595746
0.0242005
0.0143816
0.0114849
0.0106058
0.0100989
3.61817
1.88101
0.662108
0.191145
0.0599393
0.0243582
0.0143112
0.0113665
0.0105002
0.010073
3.20334
1.6461
0.575374
0.176505
0.0577804
0.0239082
0.0140919
0.0112147
0.0103915
0.0100489
2.6395
1.36178
0.4637
0.152152
0.0524892
0.0225096
0.0135978
0.0109896
0.0102688
0.0100238
2.25191
1.18429
0.354985
0.121977
0.0461505
0.0232777
0.0161691
0.0138379
0.0130477
0.0134806
3.99266
2.85981
1.75555
1.22988
0.943376
0.789935
0.705269
0.657529
0.631484
0.631042
6.4932
5.51674
4.7362
4.17628
3.78456
3.51415
3.33352
3.2169
3.14836
3.11559
7.83775
6.91247
6.13964
5.52865
5.08702
4.78232
4.5797
4.44976
4.37339
4.33435
8.72519
7.93217
7.21158
6.53575
6.00323
5.61514
5.34897
5.17571
5.07347
5.01919
1.02779
0.870051
1.57078
2.34795
2.93215
3.31585
3.49766
3.56665
3.78579
4.03753
1.16478
1.51418
2.15499
2.8777
3.41849
3.74236
3.89322
3.95993
4.04357
4.05655
1.68265
1.98974
2.47545
2.94686
3.2973
3.51478
3.64244
3.7217
3.78893
3.84724
3.72548
3.71301
3.67805
3.62092
3.55706
3.50555
3.48499
3.49212
3.48475
3.44925
5.45802
5.36144
5.1617
4.86319
4.49158
4.09862
3.74626
3.49244
3.26721
2.92784
6.59466
6.55044
6.45175
6.28047
6.01713
5.65031
5.18002
4.63521
4.01613
3.12506
7.65495
7.62327
7.55782
7.45373
7.30345
7.09728
6.82204
6.44968
5.94954
5.1402
8.53846
8.51351
8.46314
8.38641
8.2822
8.14892
7.98315
7.77282
7.49341
7.08914
9.12439
9.10909
9.07813
9.0304
8.96434
8.87816
8.76928
8.6332
8.46209
8.2533
9.5051
9.49709
9.48103
9.45598
9.42051
9.37268
9.31001
9.22918
9.12757
9.01734
4.3209
4.60539
5.03393
5.86523
7.01861
8.13856
8.96113
9.43842
9.68515
9.82693
4.11824
4.59805
5.24059
6.20779
7.34151
8.40126
9.13093
9.53849
9.74449
9.86134
3.74225
4.40028
5.23732
6.34967
7.54198
8.58822
9.25257
9.60864
9.78607
9.88525
3.49726
4.28037
5.28142
6.46072
7.70986
8.74959
9.34819
9.66009
9.81533
9.90164
3.30748
4.32822
5.4606
6.53864
7.85115
8.89288
9.42643
9.69844
9.83591
9.91274
3.24105
4.6881
5.82572
6.59312
7.9604
9.01314
9.4881
9.72644
9.85003
9.92005
3.31229
5.456
6.41671
6.63793
8.03067
9.10493
9.53302
9.7457
9.85918
9.92463
3.53959
6.73945
7.27768
6.63162
8.03765
9.16703
9.56225
9.75789
9.86463
9.92731
3.21381
8.27108
8.46623
6.37557
7.94045
9.19921
9.57683
9.76467
9.86741
9.92869
0.356835
8.91543
9.34569
5.82499
7.811
9.20979
9.5816
9.76757
9.86845
9.9292
4.50313
4.84812
5.15777
5.31658
5.33671
5.13783
4.6283
3.74443
2.93572
3.19975
4.61276
4.96278
5.28089
5.44336
5.46124
5.27345
4.8714
4.45323
4.51867
5.38215
4.67399
5.00624
5.31336
5.46628
5.49602
5.40792
5.34438
5.58144
6.17741
7.02212
4.69997
4.99061
5.27015
5.4209
5.52083
5.67187
6.05833
6.71818
7.42372
8.12585
4.70602
4.93695
5.18298
5.35589
5.60078
6.06379
6.79291
7.59393
8.2493
8.80932
4.70176
4.85594
5.07137
5.30798
5.7537
6.50352
7.40906
8.20916
8.7796
9.21914
4.64613
4.73458
4.94189
5.28148
5.95497
6.91609
7.88495
8.63495
9.12166
9.46565
4.61069
4.59576
4.80727
5.27043
6.15957
7.26548
8.24377
8.93237
9.34621
9.61745
4.43113
4.42437
4.64554
5.26426
6.358
7.55716
8.51927
9.14551
9.49764
9.71442
4.52622
4.31874
4.52037
5.35868
6.59414
7.82215
8.74579
9.30627
9.60438
9.77961
0.142045
0.104814
0.0139309
0.0100719
0.0115692
0.0194153
0.0471223
0.148176
0.60548
2.68931
0.134061
0.107027
0.0135412
0.0102251
0.0119986
0.020758
0.0524418
0.176285
0.682696
2.8089
0.127983
0.110475
0.013468
0.0105472
0.0127242
0.02276
0.0595667
0.211801
0.768678
2.92112
0.12359
0.115126
0.0136611
0.0110928
0.0137978
0.0255221
0.0690124
0.254928
0.866492
3.03562
0.120752
0.121011
0.0141078
0.0119005
0.0152597
0.0291346
0.0813697
0.30478
0.988699
3.16367
0.119279
0.128163
0.0148203
0.0129869
0.0171274
0.0336765
0.0972248
0.360703
1.15726
3.29674
0.118766
0.136451
0.0158205
0.0143421
0.0193865
0.0391706
0.116328
0.419624
1.36916
3.42317
0.118802
0.145921
0.0171317
0.0159291
0.0220224
0.0458671
0.140487
0.506831
1.65065
3.52213
0.119367
0.155568
0.0190952
0.0177713
0.0243694
0.0493464
0.147574
0.567568
1.87221
3.5399
0.122673
0.159612
0.0214059
0.0194009
0.0275392
0.0613539
0.209393
0.839669
2.2862
3.44922
0.127132
0.163641
0.0221756
0.021384
0.0311739
0.0717862
0.24637
0.937748
2.40524
3.67211
0.138879
0.1884
0.0223448
0.0231876
0.0320114
0.0669638
0.201043
0.709591
2.01717
3.80215
0.151122
0.225121
0.0233786
0.0244093
0.0331781
0.068178
0.197248
0.659387
1.86542
3.62629
0.182833
0.270761
0.0243488
0.0239021
0.0319446
0.0649099
0.181645
0.572044
1.62923
3.21478
0.271146
0.328884
0.0259902
0.0218588
0.0284665
0.0573267
0.155651
0.460727
1.34712
2.65288
0.590591
0.374175
0.0133861
0.0119671
0.0187418
0.0420614
0.118218
0.346464
1.1628
2.24267
1.14674
0.242227
0.298008
0.478559
0.671396
0.874281
1.17832
1.70513
2.80344
3.93429
2.55588
1.99692
2.90848
3.24103
3.47885
3.76303
4.15766
4.72064
5.49533
6.47461
6.43217
4.81992
4.55249
4.67661
4.82242
5.10232
5.53537
6.14546
6.91326
7.83817
8.99073
7.37459
5.68688
5.57585
5.69358
6.03818
6.55915
7.2341
7.95034
8.7368
4.01543
3.7468
3.52935
3.46352
3.28875
2.90661
2.33125
1.58403
0.908896
1.01206
4.06133
4.04653
3.96312
3.89158
3.75409
3.45038
2.93102
2.2226
1.56242
1.18041
3.85855
3.79653
3.73642
3.65327
3.53092
3.32697
2.99478
2.53567
2.04257
1.70373
3.45758
3.48424
3.50093
3.49166
3.5098
3.56021
3.62611
3.6855
3.72084
3.72914
2.92582
3.2498
3.48324
3.73133
4.07825
4.46845
4.84217
5.14614
5.35263
5.45532
3.07409
3.95897
4.59379
5.1464
5.6264
6.0018
6.27252
6.44904
6.55036
6.59495
5.08004
5.90541
6.42164
6.8058
7.0888
7.29956
7.45263
7.55814
7.62396
7.65528
7.06684
7.47796
7.76301
7.97798
8.14655
8.28128
8.38623
8.4633
8.51372
8.53855
8.24904
8.45938
8.63167
8.76908
8.87887
8.96547
9.0316
9.07915
9.10977
9.12463
9.02358
9.13296
9.23379
9.31415
9.37639
9.42373
9.45862
9.48299
9.4983
9.50551
9.97314
9.94116
9.86777
9.62548
8.8533
3.40006
3.35278
8.61275
9.53669
9.82355
9.97183
9.9387
9.8625
9.61829
8.81259
4.40721
3.56041
8.4699
9.44106
9.79707
9.9687
9.93274
9.85194
9.59962
8.77823
5.32643
3.97557
8.08343
9.26399
9.71612
9.96311
9.92258
9.83331
9.57014
8.75314
6.09687
4.42342
7.58142
8.97701
9.56279
9.95413
9.90675
9.80601
9.52718
8.73481
6.64002
4.94496
7.01294
8.55764
9.29462
9.9401
9.88296
9.76643
9.46672
8.70113
7.00265
5.41026
6.46324
7.9792
8.85923
9.91829
9.8474
9.70936
9.38039
8.63083
7.20814
5.79308
6.01415
7.22482
8.16223
9.88419
9.79391
9.62584
9.25424
8.4976
7.26167
6.07515
5.78331
6.39112
7.09344
9.83083
9.71308
9.5027
9.06747
8.26816
7.12858
6.14924
5.72642
5.77623
5.77318
9.74807
9.59237
9.32532
8.80869
7.94154
6.84264
6.00718
5.71763
5.64735
5.10584
9.61979
9.41329
9.07757
8.47368
7.5571
6.51409
5.81018
5.68146
5.84237
5.94699
9.41618
9.14474
8.72892
8.04332
7.11315
6.19933
5.64911
5.51776
5.55204
5.62526
9.08183
8.73305
8.23201
7.48045
6.59654
5.86411
5.49357
5.40064
5.38531
5.44127
8.51984
8.09568
7.52619
6.77828
6.05775
5.57893
5.35197
5.26832
5.17801
5.13598
7.57878
7.11408
6.55121
5.97242
5.57723
5.37924
5.26968
5.17399
5.0071
4.87817
6.09596
5.69695
5.35345
5.21464
5.23966
5.26761
5.21692
5.09683
4.8606
4.64592
4.04303
4.00431
4.2395
4.69565
5.04258
5.18784
5.15793
5.01667
4.73897
4.4642
1.84699
2.64349
3.54074
4.39174
4.87635
5.07141
5.05928
4.92134
4.63605
4.3336
0.503989
1.97083
3.19112
4.18208
4.73248
4.96554
4.98564
4.86813
4.59418
4.28464
1.45467
2.08346
3.27426
4.29488
4.84732
5.07454
5.08595
4.95932
4.67561
4.35154
3.45313
0.314617
0.0104226
0.0325417
0.0844595
0.122539
0.141176
0.14714
0.146832
0.141581
3.35391
0.269389
0.0363732
0.0218292
0.0172338
0.0140755
0.0121059
0.0110509
0.0105665
0.0102407
3.24828
0.245223
0.048671
0.0240108
0.0174054
0.0133953
0.0113393
0.0104524
0.0101358
0.0100124
2.99526
0.249535
0.0625379
0.0266329
0.0180803
0.0135468
0.0113985
0.0104931
0.0101663
0.0100189
2.75797
0.281733
0.0711648
0.0291637
0.0187205
0.0137
0.0114671
0.0105432
0.0102048
0.0100276
2.56854
0.331497
0.0792577
0.0323667
0.0195168
0.0139128
0.011561
0.0106057
0.0102517
0.0100386
2.4587
0.399021
0.0876514
0.0361438
0.0204509
0.0141849
0.0116796
0.0106801
0.0103065
0.0100516
2.4308
0.456425
0.0990822
0.0403184
0.0215225
0.0145158
0.011822
0.0107654
0.0103681
0.0100664
2.4689
0.499275
0.114494
0.0447782
0.0227362
0.0149037
0.0119861
0.0108596
0.0104349
0.0100824
2.55996
0.549968
0.1343
0.0496807
0.0241078
0.0153472
0.0121692
0.0109602
0.0105045
0.010099
7.06385
4.14917
3.6729
3.7465
4.00767
4.26527
4.46546
4.60519
4.69146
4.73315
6.79801
3.911
3.42078
3.55517
3.77989
3.98648
4.14789
4.26209
4.33344
4.36803
5.75056
3.24791
2.83543
3.00807
3.20363
3.36841
3.49622
3.58681
3.64378
3.67072
3.92136
2.01015
2.0713
2.39929
2.61174
2.76229
2.87439
2.95362
3.00396
3.0307
4.20511
0.94647
0.578985
0.931104
1.18742
1.3648
1.48791
1.56962
1.61708
1.63554
9.98502
9.98222
9.97577
9.96284
9.93813
9.89154
9.80447
9.64178
9.34218
8.88851
9.98085
9.97636
9.96709
9.94845
9.91317
9.84841
9.7343
9.54129
9.22225
8.69985
9.97184
9.96673
9.9529
9.92518
9.87274
9.77782
9.61569
9.35403
8.93979
8.13575
9.9554
9.94582
9.92379
9.87912
9.79509
9.64658
9.4002
9.00822
8.39496
7.06968
9.92758
9.90426
9.85808
9.76543
9.59962
9.32174
8.87356
8.14472
6.96319
5.02015
5.95053
5.84702
5.68147
5.79964
6.49419
7.54132
8.4669
9.07732
9.41652
9.62495
5.62533
5.5554
5.51861
5.64328
6.18579
7.10007
8.03737
8.72992
9.1502
9.4248
5.44588
5.39313
5.40798
5.49746
5.86104
6.58973
7.47731
8.23528
8.7419
9.09582
5.14752
5.19262
5.2834
5.36615
5.58842
6.0613
6.78043
7.53272
8.10871
8.54119
4.897
5.02845
5.19626
5.29303
5.40111
5.59411
5.98351
6.56174
7.13055
7.60744
4.67069
4.88663
5.12354
5.24591
5.29809
5.26924
5.2387
5.37024
5.71356
6.12487
4.49181
4.76671
5.04445
5.18804
5.22104
5.07878
4.73169
4.26708
4.01922
4.05496
4.36041
4.66225
4.94716
5.08709
5.10243
4.91169
4.43093
3.5778
2.66643
1.84316
4.30908
4.61825
4.89244
5.01246
4.99602
4.76794
4.22223
3.23211
1.99689
0.50777
4.37354
4.69816
4.98365
5.11434
5.10854
4.88794
4.34136
3.32076
2.12874
1.55534
9.82389
9.53641
8.61314
3.36211
3.39078
8.85325
9.62499
9.86777
9.9412
9.97319
9.79637
9.44007
8.46779
3.59744
4.39345
8.80734
9.6173
9.86246
9.93881
9.97194
9.71528
9.26269
8.08378
4.00658
5.29734
8.76977
9.59775
9.85175
9.93288
9.96887
9.56116
8.97542
7.58576
4.44295
6.06916
8.74262
9.56764
9.83301
9.92275
9.96335
9.29209
8.55626
7.02171
4.95604
6.61537
8.72356
9.52423
9.8056
9.90696
9.95446
8.856
7.97961
6.47502
5.41267
6.98014
8.68954
9.4633
9.76591
9.88325
9.94058
8.15914
7.22794
6.025
5.78728
7.18638
8.61861
9.37637
9.70872
9.84784
9.91901
7.09244
6.39631
5.78786
6.0632
7.23986
8.48424
9.24949
9.6251
9.7946
9.88534
5.77814
5.78412
5.72823
6.1361
7.10696
8.25404
9.06203
9.50198
9.71423
9.83271
5.12474
5.6604
5.72315
5.99714
6.82275
7.92658
8.80266
9.32474
9.59432
9.75118
1.01595
0.147129
0.111082
0.0762959
0.111262
0.0833889
0.033422
0.0106221
0.311448
3.43834
0.624062
0.252399
0.0670848
0.0142846
0.0168621
0.0205633
0.0253594
0.0404231
0.268721
3.3466
0.422621
0.217273
0.0570896
0.0140696
0.0160156
0.0206113
0.0276767
0.0539202
0.25068
3.24572
0.328247
0.17268
0.0438805
0.0126862
0.0149226
0.0203412
0.0298608
0.0685268
0.261248
3.00412
0.27191
0.142651
0.03382
0.0115749
0.0137856
0.0197314
0.0315381
0.0768343
0.288878
2.77454
0.232413
0.124483
0.0266694
0.0108209
0.012852
0.0191406
0.0334092
0.0829227
0.337359
2.58925
0.203573
0.113774
0.0216967
0.0103615
0.0121483
0.0186442
0.0355132
0.0890287
0.405803
2.48241
0.181926
0.107741
0.0183286
0.0101256
0.0116769
0.0183328
0.0377347
0.0977205
0.458
2.45317
0.16528
0.104779
0.016121
0.0100364
0.0114267
0.0182977
0.0401698
0.109894
0.495807
2.4869
0.152272
0.103973
0.0147363
0.0100246
0.0113885
0.018628
0.0431662
0.126425
0.54208
2.57277
9.29937
7.65972
5.23138
4.95985
4.47437
4.12965
3.81706
3.72459
4.19238
7.08657
8.01826
5.76395
4.66121
4.49348
4.15568
3.87874
3.61252
3.4581
3.92667
6.79571
5.57276
4.18894
3.82095
3.72445
3.49554
3.27922
3.05188
2.86133
3.24844
5.72745
3.10724
3.10697
3.07332
3.01087
2.86334
2.67452
2.43744
2.09373
1.99936
3.87923
1.62192
0.91657
1.45774
1.37165
1.38656
1.21169
0.94734
0.58134
0.923616
4.17097
8.89308
9.34495
9.6432
9.80517
9.89184
9.93824
9.96288
9.97577
9.98221
9.985
8.69476
9.2203
9.54038
9.73388
9.84821
9.91307
9.9484
9.96706
9.97635
9.98081
8.12244
8.93398
9.351
9.61403
9.77697
9.87234
9.92501
9.95281
9.96666
9.97184
7.04999
8.38514
9.00295
9.39707
9.6448
9.7942
9.87871
9.92359
9.94574
9.95534
5.02464
6.9568
8.13923
8.86936
9.31874
9.59777
9.7645
9.85765
9.90411
9.92728
)
;

boundaryField
{
    left
    {
        type            calculated;
        value           nonuniform List<scalar> 
35
(
1.84635
1.83281
1.84627
1.9313
2.16444
2.85348
4.25382
6.13952
8.09067
9.43075
1.8644
1.84535
1.83598
1.83513
1.84148
1.85282
1.86481
1.87227
1.86914
1.85936
4.05006
3.2208
2.74462
2.47917
2.30307
2.17172
2.07156
1.9951
1.93723
1.89446
9.60687
8.95477
7.87644
6.64316
5.25549
)
;
    }
    right
    {
        type            calculated;
        value           nonuniform List<scalar> 
35
(
4.73325
4.36702
3.66792
3.02657
1.62824
0.139239
0.0101925
0.0100052
0.0100078
0.0100114
0.0100158
0.010021
0.0100269
0.0100332
0.0100398
0.0100463
0.0100523
0.0100575
0.0100615
0.0100642
0.0100653
0.0100647
0.0100626
0.010059
0.0100557
0.0100497
0.0100394
0.0100292
0.0100196
0.0100089
0.013872
0.638227
3.122
4.33687
5.01891
)
;
    }
    down
    {
        type            calculated;
        value           nonuniform List<scalar> 
40
(
9.42605
8.01229
5.34036
5.03853
4.51186
4.14075
3.80024
3.69953
4.14254
7.09248
8.92402
9.37504
9.66807
9.82077
9.90061
9.943
9.96551
9.97737
9.98337
9.98636
9.98639
9.98337
9.97736
9.96547
9.94286
9.90022
9.81986
9.66613
9.37103
8.91677
7.06204
4.09053
3.64333
3.72546
4.01158
4.29153
4.50679
4.65593
4.74744
4.79189
)
;
    }
    up
    {
        type            calculated;
        value           nonuniform List<scalar> 
40
(
8.89405
8.14463
7.4469
6.76944
6.22483
5.82257
5.54438
5.36245
5.25506
5.19775
9.57554
9.56889
9.5556
9.53486
9.50533
9.46522
9.41214
9.34264
9.25371
9.15867
9.16613
9.26001
9.34795
9.41677
9.46927
9.50879
9.53766
9.55768
9.57016
9.57597
9.22845
7.9023
5.96315
5.79692
5.90967
6.26496
6.79748
7.47365
8.16645
8.90721
)
;
    }
    cylinder
    {
        type            calculated;
        value           nonuniform List<scalar> 
80
(
3.6411
5.60922
7.14892
8.21589
8.88024
9.27507
9.50936
9.65174
9.74176
9.80172
9.84503
9.87644
9.89818
9.913
9.92297
9.92951
9.9336
9.93604
9.93739
9.93805
9.84886
9.87932
9.9004
9.91475
9.92437
9.93063
9.93449
9.9367
9.9378
9.93819
3.76298
5.73137
7.24215
8.27887
8.92019
9.30027
9.52568
9.66266
9.74927
9.80701
9.65872
9.47084
9.1574
8.62001
7.7022
6.24195
4.21516
1.98972
0.385534
2.52791
9.97762
9.97658
9.97391
9.96912
9.96132
9.94904
9.92976
9.89931
9.85122
9.77606
9.97757
9.97647
9.97375
9.96889
9.961
9.94856
9.92902
9.89812
9.84925
9.77278
9.65321
9.46154
9.1421
8.59624
7.66943
6.20726
4.19742
1.9929
0.387846
2.37504
)
;
    }
    defaultFaces
    {
        type            empty;
    }
}


// ************************************************************************* //
