/*--------------------------------*- C++ -*----------------------------------*\
  =========                 |
  \\      /  F ield         | OpenFOAM: The Open Source CFD Toolbox
   \\    /   O peration     | Website:  https://openfoam.org
    \\  /    A nd           | Version:  13
     \\/     M anipulation  |
\*---------------------------------------------------------------------------*/
FoamFile
{
    format      ascii;
    class       volScalarField;
    location    "4.51";
    object      p;
}
// * * * * * * * * * * * * * * * * * * * * * * * * * * * * * * * * * * * * * //

dimensions      [0 2 -2 0 0 0 0];

internalField   nonuniform List<scalar>
440
(
-0.949383819366
-0.932879313772
-0.936895239446
-0.866547364508
-0.955562802558
-1.013037514
-1.00158843118
-0.975203026738
-0.930331111718
-0.896625860912
-1.12335534353
-1.09742787249
-1.06134650195
-1.01783498715
-0.973230928189
-1.24599875125
-1.20048588322
-1.12667545569
-1.04145789298
-0.958220821164
-1.33732568015
-1.27870389548
-1.15059190809
-1.02088024596
-0.903867420338
-0.964250392226
-0.977542807608
-1.00002329599
-1.02997971678
-1.06292450068
-0.962269017684
-0.965877190161
-0.976601237517
-0.995557484898
-1.01954439801
-0.971807504401
-0.967584053666
-0.966471486197
-0.969418099524
-0.976364110482
-0.960552041735
-0.950934933177
-0.940826024426
-0.925141418214
-0.926655807966
-0.929829799369
-0.917279224792
-0.897049498975
-0.850782379724
-0.865504685577
-1.29125335133
-1.02799130397
-0.562562451002
-0.118503957011
0.0315848287397
-1.30623474945
-1.19735598905
-0.603144495659
-0.141640290135
0.0290129067964
-1.25516458456
-1.33470791714
-0.639113159782
-0.167611547337
0.0163990829079
-1.10679671391
-1.41844023869
-0.677825597585
-0.194536976628
-0.00117347336845
-0.966986930139
-1.44545466936
-0.714556588193
-0.224010321175
-0.0178010614797
-0.74856555629
-1.35264847641
-0.691862344434
-0.244548075396
-0.040819761993
-0.648220520793
-1.06941516291
-0.641468241626
-0.268343821807
-0.0650925939597
-0.590554989918
-0.843197702685
-0.649162974046
-0.334310477089
-0.0887594717324
-0.516493370291
-0.680566247497
-0.630028309793
-0.365144204231
-0.103577360544
-0.43362017304
-0.55488914998
-0.617071846071
-0.398595840502
-0.112977772019
-0.70897733331
-0.807495515545
-0.955554826469
-1.10776629883
-1.15919850669
-0.510804957573
-0.623282381516
-0.691072817327
-0.735282096373
-0.730076745814
-0.372023966305
-0.47062941913
-0.526471134469
-0.565144274047
-0.593659410091
-0.293820434054
-0.382458429489
-0.446637313196
-0.48488980877
-0.515856078507
-0.258286410627
-0.347324050095
-0.41396386253
-0.448230638555
-0.465131409753
0.566393802213
0.422832431857
0.237964857364
0.0381762947583
-0.163532933365
0.173289754768
0.0247866012437
-0.149671973747
-0.345711650628
-0.562622936324
-0.194601242173
-0.338922749107
-0.521077396991
-0.723893544375
-0.932095430781
-0.536955451646
-0.681462422646
-0.859238710618
-1.05023820097
-1.20662564503
-0.755670146482
-0.89847164112
-1.06317445816
-1.23479171911
-1.33469478151
1.50095017175
1.53008149028
1.55609133292
1.56877111044
1.56573385887
1.31455996203
1.33402017245
1.34797217915
1.34678515564
1.32502705966
1.11416532235
1.10259898833
1.06756046893
1.01174152348
0.932772027486
0.889054084099
0.861981448617
0.800436942507
0.711433155796
0.600698011444
0.718707279098
0.616104860056
0.486281683962
0.345378688422
0.178856836033
1.23204288539
1.24152234587
1.24890022152
1.34772644791
1.39032599983
1.22301005012
1.2337340848
1.22972096651
1.33693883375
1.29774045404
1.21490573216
1.2227920497
1.21006901025
1.31466380225
1.17260057428
1.20779584146
1.21066709765
1.1900947262
1.27207959014
0.999535992306
1.2017691721
1.19870625524
1.17096003102
1.24364902789
0.815082505055
1.19683778805
1.17785261293
1.14519572795
1.13787572447
0.608207889444
1.19219824251
1.15215177118
1.14402805798
1.0398567378
0.799522498247
1.20004596022
1.13811423256
1.13730137536
1.00173432571
0.888489035571
1.19654592513
1.11490764227
1.13807775762
0.941217667879
0.941435874066
1.23172769644
1.11284052154
1.13559122243
0.903751988863
0.970209290375
0.540156186168
0.251889171204
-0.0687266900847
-0.36480890265
-0.546647943285
0.392831626263
0.195539088289
-0.0183083794641
-0.214005549847
-0.383837900652
0.357203584155
0.188437976631
0.0308375594679
-0.110007688474
-0.256397969777
0.408671179926
0.230256525835
0.0812900074415
-0.0497042425253
-0.178477859181
0.440009841457
0.258210332798
0.110360005069
-0.0188929132607
-0.143385214193
-1.7955615038
-1.66235853922
-1.50786982652
-1.37811788879
-1.29988368333
-1.87400275272
-1.81090652705
-1.69040805808
-1.58448927556
-1.51532971828
-1.80743103342
-1.76569721771
-1.69679290872
-1.63484067912
-1.58685297494
-1.68031463297
-1.6470910353
-1.62003782223
-1.59202965034
-1.56044157835
-1.58810798403
-1.57512902703
-1.57082255596
-1.55962503616
-1.52162058049
-1.51618852028
-1.51509975632
-1.52328825148
-1.52787374448
-1.4726510718
-1.42070436598
-1.41761738067
-1.41683439778
-1.42044465699
-1.38690898768
-1.37020941406
-1.37355858993
-1.380102865
-1.39031064031
-1.39254450381
-1.22256705288
-1.23618652363
-1.25992373379
-1.29084836858
-1.31637926173
-1.06481910184
-1.07880169256
-1.10293490348
-1.13351465759
-1.16288201848
-1.27394678942
-0.659080884301
-0.348942728868
-0.111677118732
-0.0143369763391
-1.24004013646
-0.603543823531
-0.30261434476
-0.0951105880812
-0.00654265340206
-1.22086166082
-0.635127955738
-0.311960357157
-0.0783472808291
0.00539168007426
-1.22913884491
-0.720980266778
-0.384573812502
-0.0785267641364
0.0153318398451
-1.24417794095
-0.848195292323
-0.486634648481
-0.0928173359785
0.0251495868534
-1.04141744325
-0.778846804458
-0.453297535054
-0.142153076032
-0.0182983238663
-1.2316502127
-0.714379603145
-0.391343107281
-0.132842784142
-0.0164892472738
-1.25086503932
-1.47126650894
-1.55780498956
-1.4957223349
-1.328154461
-1.27062919
-1.4821963739
-1.56144312136
-1.50859104473
-1.43742988074
1.17076995784
1.14943386758
1.11274347593
1.06181005631
0.993734501283
1.35415988553
1.37368697096
1.38078849397
1.37340184596
1.35129288997
1.5067448245
1.53761746668
1.56349952765
1.57864892818
1.58004360576
1.59242991472
1.62871274222
1.66739515901
1.69881385129
1.71350060773
1.58812771133
1.62055148037
1.6551220279
1.68219038576
1.69381582736
-0.866751335309
-0.963715308863
-1.11469926578
-1.29508349222
-1.50631648458
-0.291935416856
-0.416412646226
-0.582433729807
-0.781330580981
-1.02986753003
0.223219107907
0.0927575632687
-0.0613595029244
-0.241402232293
-0.464068132941
0.641826008977
0.54225006811
0.420359306882
0.272699773342
0.0965484389817
0.974081572938
0.903836093987
0.813476614166
0.705466987626
0.579214638097
1.28794699434
1.27135383051
1.28710579816
1.31138908748
1.3153762882
1.27395518756
1.26660152219
1.28485237814
1.32888725211
1.37248909339
1.26243119811
1.26167829904
1.28187661868
1.34874964435
1.44397240141
1.25159426226
1.25586720378
1.27499148032
1.35639701875
1.4528454379
1.24138364028
1.24985937495
1.26299604191
1.35791441451
1.44100747782
1.34024212005
1.27958304022
1.27560860207
1.2413950762
1.18272311494
1.29768950672
1.26854168178
1.27366172806
1.2614615375
1.20198244584
0.860146972364
0.647613247537
0.27960477841
-0.251156124563
-0.837830039504
0.940001929378
0.678152331225
0.295096988077
-0.231961726947
-0.829962260411
)
;

boundaryField
{
    left
    {
        type            zeroGradient;
    }
    right
    {
        type            fixedValue;
        value           uniform 0;
    }
    down
    {
        type            zeroGradient;
    }
    up
    {
        type            zeroGradient;
    }
    cylinder
    {
        type            zeroGradient;
    }
    defaultFaces
    {
        type            empty;
    }
}


// ************************************************************************* //
