/*--------------------------------*- C++ -*----------------------------------*\
  =========                 |
  \\      /  F ield         | OpenFOAM: The Open Source CFD Toolbox
   \\    /   O peration     | Website:  https://openfoam.org
    \\  /    A nd           | Version:  13
     \\/     M anipulation  |
\*---------------------------------------------------------------------------*/
FoamFile
{
    format      ascii;
    class       surfaceScalarField;
    location    "21.3";
    object      phi;
}
// * * * * * * * * * * * * * * * * * * * * * * * * * * * * * * * * * * * * * //

dimensions      [0 3 -1 0 0 0 0];

internalField   nonuniform List<scalar> 
823
(
-0.004993
0.018141
-0.013148
0.010744
0.00752289
-0.0232599
0.0719823
-0.0435061
-0.0177321
0.171152
-0.108564
0.00939463
-0.152022
0.00885229
0.314322
0.00701547
0.0111255
0.0600302
-0.0454918
0.159237
-0.142713
0.2776
-0.226928
-0.300751
0.426329
0.0259166
-0.0147911
0.117637
-0.137212
0.230753
-0.255828
0.335387
-0.331562
-0.371842
0.406478
0.0478261
-0.0626172
0.145474
-0.23486
0.225661
-0.336015
0.271117
-0.377018
-0.388378
0.287652
0.0594496
-0.122067
0.127951
-0.303362
0.164757
-0.372821
0.178388
-0.390649
0.186336
-0.396326
-0.0446782
0.0344976
0.0101806
-0.113441
0.068851
-8.85035e-05
-0.178248
0.0715025
-0.00669493
-0.230319
0.0719411
-0.0198706
0.0770406
-0.269904
-0.0374556
0.00429109
0.0302065
-0.00702123
0.0801633
-0.0358439
0.100325
-0.0670962
0.103193
0.100105
-0.0901608
0.0204148
0.00979172
0.053554
0.0470241
0.0798987
0.0739805
0.0979232
0.0851689
0.0865097
0.111519
0.00745811
0.00233361
0.0325303
0.021952
0.0663211
0.0401896
0.106071
0.0454194
0.0504182
0.142162
-0.0108144
-0.0121223
0.0103352
0.0651492
0.12442
0.130043
0.985722
-1.38567
0.547498
-1.09457
0.677117
0.578117
-1.6964
1.66578
0.549242
0.154311
-0.125436
0.305058
-0.252767
0.147203
0.748358
0.389088
-1.33646
0.480138
-1.78745
0.543985
0.0904632
0.338235
0.329902
0.529975
0.469036
-1.47559
0.463173
-1.78159
0.519072
0.0345637
0.35224
0.454834
0.217303
0.573849
-1.59461
0.501707
-1.70944
0.493818
0.0424524
0.350507
0.499298
-0.157576
0.557511
-1.65282
0.441217
-1.59315
0.401258
0.082412
0.289829
1.42198
-0.381596
-1.19796
1.30548
-1.53632
0.767888
-1.05556
0.58642
0.26388
0.129645
1.48197
-0.475193
-1.38837
1.02709
-1.08144
0.449271
-0.477739
0.558488
0.154663
-0.107971
1.35324
-0.486478
-1.34196
0.9424
-0.670596
0.582041
-0.11738
0.764454
-0.0277504
-0.204334
1.16312
-0.341577
-1.30802
0.730183
-0.237662
0.618104
-0.00530114
0.717197
-0.126843
-0.121456
0.525033
-0.86661
0.287371
0.28207
0.155228
1.09915
0.146585
-1.05939
1.17183
0.21497
1.2775
0.300808
1.31343
0.390399
0.429787
1.00543
0.0939985
-0.95284
1.07854
0.141854
1.16958
0.209766
1.28236
0.277627
0.323773
0.952841
0.0495678
-0.908411
1.01256
0.0821373
1.09658
0.125746
1.21314
0.161065
0.194956
0.924301
0.0109619
-0.885696
0.981488
0.0249503
1.06637
0.0408684
1.17578
0.0516518
0.0627178
0.686422
-0.67546
0.711372
0.75224
0.803892
0.13742
0.297647
-0.243607
-0.19146
0.0919586
0.302383
-0.256921
0.0518274
0.312461
-0.27233
0.0179871
0.303094
-0.269253
0.193961
-0.175974
0.103595
0.333548
-0.139497
0.0670994
0.338878
0.0345445
0.345016
0.00864355
0.328995
0.202604
0.0682604
0.369034
-0.103747
0.0364764
0.370662
0.00931644
0.372176
-0.00564679
0.343958
0.196957
-0.00676084
0.385622
-0.00982654
-0.0245807
0.388482
-0.0336969
0.381292
-0.0264994
0.336761
0.170458
-0.0880946
0.0773904
-0.0902617
-0.0817902
-0.0483912
0.200586
0.104434
-0.254182
-0.0508384
0.146396
0.108283
-0.0540926
0.0908646
0.112728
-0.0571963
0.0369463
0.112111
-0.0581929
0.0784783
-0.041532
0.193883
0.148195
-0.237643
0.147079
0.155086
0.0952787
0.164528
0.0404826
0.166907
0.118961
0.136862
0.192344
-0.181011
0.0962665
0.195681
0.0571619
0.203633
0.0206005
0.203469
0.139561
0.151375
0.224181
-0.183211
0.113008
0.234048
0.0696382
0.247003
0.0271047
0.246002
0.166666
0.0807583
-0.100185
0.0578858
0.0325587
0.00930741
0.407697
0.0428328
-0.0545506
0.427562
0.0308057
-0.0506699
0.409636
0.205583
-0.187658
0.398064
0.193069
-0.181496
0.474679
-0.330797
0.406285
0.032527
0.42044
0.0166514
0.398743
0.22728
0.387179
0.204632
0.624215
0.400501
0.0280057
0.413696
0.00345668
0.375463
0.265512
0.373051
0.207045
0.816255
0.398234
0.0257515
0.395194
0.00649687
0.363328
0.297377
0.35438
0.215994
0.987423
0.389486
0.0322455
0.379833
0.0161497
0.335747
0.341463
0.324526
0.227215
1.21176
0.624772
0.0114937
0.630359
0.0105632
0.683024
0.288798
0.786442
0.123797
1.0171
0.981106
0.635664
-0.0201502
0.611361
0.0348664
0.715717
0.184442
0.788346
0.0511682
0.774174
1.03127
0.628713
-0.0448433
0.631457
0.0321233
0.751632
0.0642667
0.800403
0.00239643
0.55549
1.01909
0.61594
-0.0567633
0.666667
-0.0186027
0.745329
-0.014396
0.743991
0.00373429
0.291734
1.00775
0.547257
0.528654
0.514258
0.517993
0.809727
1.02163
-0.231987
1.01044
-0.128299
1.01992
-0.113231
1.01596
-0.00586919
0.0339588
0.980463
-0.181178
0.956247
-0.104083
0.930594
-0.0875783
0.935069
-0.0103442
0.0161874
0.946353
-0.108444
0.917559
-0.0752883
0.889505
-0.0595245
0.896882
-0.0177218
0.00465923
0.94251
-0.043206
0.903561
-0.0363397
0.875253
-0.0312166
0.874613
-0.0170814
-0.00642354
0.766521
0.730181
0.698964
0.681883
0.0471243
0.162853
-0.209978
0.0694285
0.341597
-0.363901
0.0690259
0.392416
-0.392014
0.0599888
0.391811
-0.382774
0.358426
0.0481037
-0.346541
0.0710969
0.0917566
0.137764
0.27493
0.167894
0.362287
0.171651
0.388054
0.373139
0.156938
0.0625387
0.0292179
0.170332
0.167136
0.252791
0.279828
0.301043
0.339803
0.375703
0.298478
0.0318015
-0.00258362
0.133612
0.065326
0.249794
0.163645
0.35652
0.233077
0.306467
0.425756
0.00850738
-0.011091
0.0645708
0.00926259
0.162779
0.0654374
0.274198
0.121658
0.192869
0.387796
-0.000622302
-0.0104687
0.0153123
-0.00667198
0.064286
0.0164637
0.13554
0.0504041
0.1072
0.221208
-0.00288552
-0.00758318
-0.00275834
-0.00679915
0.00401055
0.00969486
0.0208388
0.0335758
0.0708176
0.0572215
0.012662
-0.0202452
0.0299318
-0.024069
0.0411279
-0.00150123
0.0419382
0.0327655
0.0676626
0.0450932
0.0199202
-0.0401654
0.0372998
-0.0414486
0.0488858
-0.0130872
0.0632926
0.0183587
0.0485124
0.0824427
-0.0299848
-0.0715219
-0.0913039
-0.0928159
-0.081759
0.0782309
1.26083
-1.11785
0.169788
-0.00140015
-0.0901573
0.392909
-0.379556
0.156435
0.322639
0.118916
-0.0486462
0.0149073
0.0310336
-0.119172
1.43722
0.0376683
-0.158241
0.462502
-0.80439
0.40302
0.178398
0.0779538
-0.232744
1.71506
-0.0428032
-0.348181
0.488133
-1.33533
0.479002
0.187529
0.14718
0.0503092
1.7472
0.137145
-0.435017
0.446642
-1.64482
0.508898
0.125273
0.201417
0.279767
0.521867
0.542823
0.542661
-0.117967
0.614842
-0.496874
-0.0696959
-0.0482716
0.056322
-0.126018
0.117624
-0.0613021
-0.0596831
0.554954
-1.05797
0.416525
0.446942
0.336994
0.0868297
-0.0117468
-0.0750829
0.137098
-0.0502682
0.224062
-0.0869637
0.356291
-0.13223
-0.140583
0.199043
-0.162686
0.305712
0.517226
0.810752
0.142153
-0.141953
0.172268
-0.172469
0.108285
-0.147955
0.181823
0.0696339
-0.155904
0.194555
0.0282556
-0.156619
0.197997
-0.11108
0.139336
0.182853
-0.102069
-0.222737
0.138344
-0.103446
0.0882732
-0.105833
0.0366377
-0.104983
-0.0744423
0.190894
-0.0525047
-0.240458
0.1399
-0.0524526
0.0873585
-0.0532913
0.0356716
-0.0532963
-0.0387707
0.202757
-0.000598332
-0.254663
0.15014
0.000164438
0.0958832
0.000965156
0.0405574
0.00202951
0.00178672
0.206068
-0.257505
0.15214
0.0959087
0.0397453
0.0439563
-0.326279
-0.0642181
0.018172
-0.35699
-0.00479023
-0.369052
-0.0149764
-0.353715
-0.224954
0.125344
-0.294576
-0.157047
0.0827795
-0.314425
0.0407296
-0.327002
0.00873689
-0.321722
-0.216217
0.144113
-0.254081
-0.184608
0.101297
-0.271609
0.0592858
-0.28499
0.0211602
-0.283596
-0.195057
0.162433
-0.218451
-0.198063
0.119362
-0.228538
0.0731213
-0.238749
0.0289773
-0.239452
-0.16608
0.159109
-0.205292
0.112394
0.0681995
0.0267443
0.392678
0.0945285
-0.0912272
0.391788
0.100175
-0.0992844
0.357413
0.159057
-0.124682
0.301479
0.0532028
0.00273086
-0.210347
0.339357
0.400183
0.0903248
0.40711
0.0932483
0.396183
0.169983
0.349938
0.0994482
-0.0831453
0.405054
0.0812508
0.416809
0.0814925
0.41073
0.176063
0.374568
0.13561
0.0509643
0.408692
0.0685389
0.423076
0.0671085
0.419194
0.179945
0.393177
0.161627
0.189478
0.409968
0.426406
0.418693
0.398824
0.416555
0.0934957
0.331137
0.0854187
0.243657
0.0874796
0.251178
-0.00752123
-0.186047
0.437226
0.512319
0.498454
0.461252
0.456461
0.609771
0.351591
0.0856352
0.274623
0.0769677
0.183762
0.0908607
0.10684
0.0769223
0.0317568
0.490114
0.369019
0.275272
0.195147
)
;

boundaryField
{
    left
    {
        type            calculated;
        value           nonuniform List<scalar> 
17
(
-0.60402
-0.60402
-0.60402
-0.60402
-0.60402
-0.39598
-0.39598
-0.39598
-0.39598
-0.39598
-0.39598
-0.39598
-0.39598
-0.39598
-0.39598
-0.510051
-0.510051
)
;
    }
    right
    {
        type            calculated;
        value           nonuniform List<scalar> 
17
(
0.177307
0.308345
0.276698
0.339973
0.409776
0.454662
0.491311
0.496951
0.510808
0.505067
0.495551
0.461936
0.746605
0.796104
0.860817
0.634318
0.0337715
)
;
    }
    down
    {
        type            calculated;
        value           uniform 0;
    }
    up
    {
        type            calculated;
        value           uniform 0;
    }
    cylinder
    {
        type            calculated;
        value           uniform 0;
    }
    defaultFaces
    {
        type            empty;
    }
}


// ************************************************************************* //
