# Forces      
# CofR        : (0.000000e+00 0.000000e+00 0.000000e+00)
# Time        forces(pressure viscous)	moments(pressure viscous)
2.3           	((7.665797e+00 3.993013e+00 8.770426e-19) (1.127114e+00 3.780317e-01 1.880852e-18)) ((3.264280e-19 -7.474131e-19 4.502124e-07) (4.425384e-18 -7.119778e-20 -8.535646e-02))
2.305         	((7.661880e+00 3.994202e+00 8.720413e-19) (1.127101e+00 3.784253e-01 1.876814e-18)) ((3.244037e-19 -7.432911e-19 4.505954e-07) (4.425404e-18 -6.667745e-20 -8.501857e-02))
2.31          	((7.649195e+00 4.000510e+00 8.609327e-19) (1.127072e+00 3.788252e-01 1.872700e-18)) ((3.197572e-19 -7.339007e-19 4.553993e-07) (4.425477e-18 -6.210951e-20 -8.468040e-02))
2.315         	((7.644925e+00 4.002645e+00 8.555894e-19) (1.127038e+00 3.792263e-01 1.868647e-18)) ((3.175676e-19 -7.294249e-19 4.555278e-07) (4.425605e-18 -5.759590e-20 -8.434196e-02))
2.32          	((7.639231e+00 4.000930e+00 8.487526e-19) (1.126996e+00 3.796240e-01 1.864590e-18)) ((3.144852e-19 -7.238335e-19 4.561375e-07) (4.425769e-18 -5.305953e-20 -8.400325e-02))
2.325         	((7.640853e+00 3.995457e+00 8.476264e-19) (1.126956e+00 3.800139e-01 1.860591e-18)) ((3.139874e-19 -7.230382e-19 4.528979e-07) (4.425949e-18 -4.859439e-20 -8.366429e-02))
2.33          	((7.635931e+00 3.990455e+00 8.408761e-19) (1.126910e+00 3.803965e-01 1.856559e-18)) ((3.107928e-19 -7.176010e-19 4.528242e-07) (4.426146e-18 -4.408119e-20 -8.332508e-02))
2.335         	((7.639891e+00 3.984266e+00 8.409994e-19) (1.126868e+00 3.807706e-01 1.852590e-18)) ((3.108356e-19 -7.178536e-19 4.480674e-07) (4.426346e-18 -3.966162e-20 -8.298561e-02))
2.34          	((7.643975e+00 3.977655e+00 8.405721e-19) (1.126831e+00 3.811358e-01 1.848573e-18)) ((3.104508e-19 -7.178787e-19 4.424654e-07) (4.426510e-18 -3.521838e-20 -8.264591e-02))
2.345         	((7.651207e+00 3.965792e+00 8.385344e-19) (1.126803e+00 3.814858e-01 1.844513e-18)) ((3.089355e-19 -7.166839e-19 4.324442e-07) (4.426614e-18 -3.075508e-20 -8.230598e-02))
2.35          	((7.645430e+00 3.975632e+00 8.435877e-19) (1.126766e+00 3.818470e-01 1.840333e-18)) ((3.126394e-19 -7.203829e-19 4.423943e-07) (4.426832e-18 -2.617922e-20 -8.196584e-02))
2.355         	((7.642241e+00 3.978998e+00 8.464152e-19) (1.126726e+00 3.822117e-01 1.836328e-18)) ((3.147797e-19 -7.224890e-19 4.472629e-07) (4.427134e-18 -2.174507e-20 -8.162549e-02))
2.36          	((7.644989e+00 3.971652e+00 8.457375e-19) (1.126688e+00 3.825669e-01 1.832429e-18)) ((3.143992e-19 -7.220832e-19 4.427904e-07) (4.427435e-18 -1.739556e-20 -8.128495e-02))
2.365         	((7.646797e+00 3.966907e+00 8.450785e-19) (1.126652e+00 3.829155e-01 1.828414e-18)) ((3.140538e-19 -7.219363e-19 4.390215e-07) (4.427723e-18 -1.295501e-20 -8.094421e-02))
2.37          	((7.648928e+00 3.960156e+00 8.448929e-19) (1.126619e+00 3.832554e-01 1.824471e-18)) ((3.139029e-19 -7.219640e-19 4.360798e-07) (4.427992e-18 -8.584568e-21 -8.060329e-02))
2.375         	((7.651112e+00 3.954232e+00 8.447296e-19) (1.126588e+00 3.835874e-01 1.820481e-18)) ((3.138863e-19 -7.219428e-19 4.329484e-07) (4.428262e-18 -4.180448e-21 -8.026220e-02))
2.38          	((7.653215e+00 3.948465e+00 8.446110e-19) (1.126559e+00 3.839121e-01 1.816469e-18)) ((3.139052e-19 -7.219460e-19 4.299597e-07) (4.428527e-18 2.329986e-22 -7.992094e-02))
2.385         	((7.655291e+00 3.942778e+00 8.445206e-19) (1.126532e+00 3.842295e-01 1.812439e-18)) ((3.139453e-19 -7.219664e-19 4.270669e-07) (4.428787e-18 4.653956e-21 -7.957953e-02))
2.39          	((7.657349e+00 3.937129e+00 8.444480e-19) (1.126507e+00 3.845399e-01 1.808390e-18)) ((3.139992e-19 -7.219975e-19 4.242484e-07) (4.429044e-18 9.081103e-21 -7.923797e-02))
2.395         	((7.659380e+00 3.931550e+00 8.443665e-19) (1.126484e+00 3.848434e-01 1.804325e-18)) ((3.140514e-19 -7.220169e-19 4.215042e-07) (4.429296e-18 1.351336e-20 -7.889630e-02))
2.4           	((7.661390e+00 3.925985e+00 8.443072e-19) (1.126463e+00 3.851402e-01 1.800244e-18)) ((3.141185e-19 -7.220515e-19 4.188225e-07) (4.429546e-18 1.794983e-20 -7.855450e-02))
