/*--------------------------------*- C++ -*----------------------------------*\
  =========                 |
  \\      /  F ield         | OpenFOAM: The Open Source CFD Toolbox
   \\    /   O peration     | Website:  https://openfoam.org
    \\  /    A nd           | Version:  13
     \\/     M anipulation  |
\*---------------------------------------------------------------------------*/
FoamFile
{
    format      ascii;
    class       surfaceScalarField;
    location    "0.025";
    object      phi;
}
// * * * * * * * * * * * * * * * * * * * * * * * * * * * * * * * * * * * * * //

dimensions      [0 3 -1 0 0 0 0];

internalField   nonuniform List<scalar> 
3485
(
0.00791198
-0.116283
0.108371
0.0177514
-0.145719
0.135879
0.0274324
-0.143776
0.134095
0.0368193
-0.139369
0.129982
0.0459352
-0.135176
0.12606
0.0548102
-0.131346
0.122471
0.063474
-0.127844
0.11918
0.0719572
-0.124631
0.116148
0.080277
-0.121661
0.113342
-0.118748
0.110578
0.0884472
0.00734952
-0.123633
0.0164628
-0.154832
0.0254234
-0.152737
0.034116
-0.148061
0.0425642
-0.143624
0.0507943
-0.139576
0.0588297
-0.135879
0.0666907
-0.132492
0.0743955
-0.129366
-0.126399
0.0820462
0.00673423
-0.130367
0.0150526
-0.163151
0.023224
-0.160908
0.0311573
-0.155995
0.0388776
-0.151345
0.0464113
-0.14711
0.0537812
-0.143249
0.0610074
-0.139718
0.0681071
-0.136466
-0.133419
0.0751268
0.00605828
-0.136425
0.0135043
-0.170596
0.0208068
-0.168211
0.0279006
-0.163089
0.0348116
-0.158256
0.0415647
-0.153863
0.0481814
-0.149866
0.0546812
-0.146218
0.061082
-0.142867
-0.139769
0.067432
0.00531856
-0.141744
0.0118129
-0.177091
0.0181648
-0.174563
0.0243377
-0.169261
0.0303574
-0.164275
0.0362467
-0.159752
0.042025
-0.155644
0.0477099
-0.151903
0.0533184
-0.148475
-0.145338
0.0588873
0.0045155
-0.146259
0.00998199
-0.182557
0.0153028
-0.179884
0.0204753
-0.174434
0.025524
-0.169324
0.0304686
-0.164696
0.0353259
-0.160502
0.0401109
-0.156688
0.0448394
-0.153204
-0.150036
0.0495371
0.00365254
-0.149912
0.00802302
-0.186928
0.012238
-0.184099
0.0163373
-0.178533
0.0203423
-0.173329
0.024269
-0.168623
0.0281307
-0.164363
0.0319397
-0.160497
0.0357095
-0.156973
-0.153782
0.0394558
0.00273653
-0.152648
0.00595248
-0.190144
0.00899714
-0.187143
0.0119609
-0.181497
0.0148607
-0.176229
0.0177075
-0.17147
0.0205108
-0.167167
0.0232792
-0.163265
0.0260232
-0.159717
-0.156508
0.0287494
0.00181285
-0.154461
0.00378863
-0.192119
0.00559971
-0.188954
0.00738492
-0.183282
0.00913727
-0.177981
0.0108604
-0.173193
0.0125593
-0.168866
0.014239
-0.164945
0.015906
-0.161385
-0.158162
0.0175596
0.00082261
-0.155284
0.00140102
-0.192698
0.00205144
-0.189605
0.00265907
-0.18389
0.00324877
-0.178571
0.00382621
-0.17377
0.0043943
-0.169434
0.00495534
-0.165506
0.00551184
-0.161941
0.00605922
-0.158709
0.0110206
-0.0191221
0.00810154
0.0248938
-0.0239855
0.0101123
0.0385943
-0.0236968
0.00999637
0.0518636
-0.0229789
0.00970961
0.0647153
-0.022291
0.00943925
0.077181
-0.0216612
0.00919559
0.0892896
-0.0210839
0.00897525
0.101067
-0.0205519
0.00877449
0.112535
-0.020058
0.00858993
-0.0196383
0.123753
0.00842068
0.0109262
-0.0300483
0.0246745
-0.0377338
0.0382528
-0.0372752
0.0514081
-0.0361342
0.064155
-0.035038
0.0765258
-0.034032
0.0885498
-0.033108
0.100253
-0.0322555
0.111659
-0.0314636
-0.0308036
0.122824
0.0107944
-0.0408427
0.0243673
-0.0513067
0.0377736
-0.0506814
0.0507669
-0.0491275
0.0633637
-0.0476347
0.0755968
-0.046265
0.0874963
-0.0450075
0.099089
-0.0438483
0.110399
-0.0427734
-0.0418858
0.121481
0.0106167
-0.0514594
0.0239561
-0.0646462
0.0371318
-0.0638571
0.0499065
-0.0619023
0.0622983
-0.0600265
0.0743409
-0.0583076
0.0860652
-0.0567319
0.097499
-0.0552821
0.108668
-0.0539423
-0.0528419
0.119624
0.0103856
-0.061845
0.0234254
-0.0776859
0.0363031
-0.0767348
0.0487926
-0.0743918
0.0609138
-0.0721477
0.0727011
-0.0700949
0.0841865
-0.0682172
0.0953985
-0.066494
0.106365
-0.064909
-0.0636111
0.117134
0.0100974
-0.0719423
0.0227637
-0.0903522
0.0352682
-0.0892393
0.0473971
-0.0865208
0.0591718
-0.0839223
0.0706268
-0.0815499
0.0817945
-0.0793849
0.0927043
-0.0774039
0.103387
-0.0755917
-0.074108
0.113884
0.00975068
-0.081693
0.0219669
-0.102568
0.0340196
-0.101292
0.0457078
-0.098209
0.0570531
-0.0952676
0.0680892
-0.092586
0.0788477
-0.0901434
0.0893581
-0.0879143
0.0996528
-0.0858864
-0.0842188
0.109764
0.00934919
-0.0910422
0.0210438
-0.114263
0.0325707
-0.112819
0.0437419
-0.10938
0.0545768
-0.106103
0.0651056
-0.103115
0.0753568
-0.100395
0.085357
-0.0979144
0.0951372
-0.0956666
-0.0937939
0.104712
0.0089034
-0.0999456
0.0200199
-0.12538
0.0309649
-0.123764
0.0415626
-0.119978
0.0518283
-0.116368
0.0617848
-0.113071
0.0714508
-0.110061
0.0808408
-0.107305
0.0899707
-0.104796
-0.102621
0.0987978
0.00842557
0.0189254
0.0292568
0.0392609
0.0489528
0.0583522
0.0674718
0.0763153
0.0848605
0.0928177
0.165613
-0.110609
0.068749
0.185848
-0.0790781
0.0588426
0.195642
-0.0590912
0.0492971
0.200162
-0.0447283
0.0402084
0.201889
-0.0335856
0.0318589
0.202054
-0.0245956
0.0244301
0.2013
-0.0171801
0.017934
0.199972
-0.0109244
0.0122525
0.198257
-0.0054803
0.00719576
-0.000364146
0.00238189
0.16431
-0.152095
0.184728
-0.0994954
0.194816
-0.0691798
0.1996
-0.0495118
0.201538
-0.0355239
0.201876
-0.0249332
0.20127
-0.0165742
0.200077
-0.0097317
0.198491
-0.00389448
0.00152554
0.162094
-0.192708
0.182649
-0.120051
0.193113
-0.0796438
0.198275
-0.0546739
0.200549
-0.0377976
0.201186
-0.0255705
0.200858
-0.0162461
0.199932
-0.00880559
0.198609
-0.00257099
0.00315323
0.158906
-0.23199
0.179598
-0.140743
0.190532
-0.0905781
0.196192
-0.0603333
0.198925
-0.0405314
0.199989
-0.0266342
0.200067
-0.016324
0.199537
-0.008276
0.198608
-0.00164129
0.00438586
0.154651
-0.269507
0.175557
-0.161649
0.187075
-0.102096
0.193355
-0.0666133
0.196674
-0.0438508
0.19829
-0.02825
0.1989
-0.0169342
0.198895
-0.00827051
0.198488
-0.00123475
0.00509202
0.149167
-0.30479
0.170509
-0.18299
0.182747
-0.114334
0.189777
-0.0736428
0.193807
-0.0478811
0.196098
-0.0305412
0.197364
-0.0181999
0.198007
-0.00891358
0.19825
-0.00147779
0.00514282
0.142367
-0.337394
0.164427
-0.20505
0.177555
-0.127462
0.185471
-0.0815587
0.190338
-0.052748
0.193426
-0.0336286
0.195467
-0.0202407
0.196879
-0.0103257
0.197894
-0.00249305
0.0044128
0.134995
-0.367676
0.15735
-0.227405
0.171512
-0.141625
0.180457
-0.0905038
0.186286
-0.0585768
0.190287
-0.03763
0.193219
-0.0231719
0.195515
-0.0126225
0.197421
-0.00439857
0.00278077
0.127093
-0.395971
0.149398
-0.249711
0.164667
-0.156894
0.174766
-0.100602
0.181674
-0.0654853
0.186702
-0.0426572
0.190633
-0.0271034
0.193925
-0.0159143
0.196833
-0.00730705
0.000130706
0.117855
-0.421009
0.140873
-0.272729
0.157228
-0.173249
0.168506
-0.11188
0.176566
-0.0735454
0.182706
-0.0487974
0.187732
-0.0321293
0.192118
-0.0203006
0.196135
-0.0113232
-0.0036471
0.343916
-0.372821
-0.392104
0.322342
-0.251154
0.314179
-0.165087
0.31074
-0.108441
0.308921
-0.0717259
0.307727
-0.0476034
0.306867
-0.0312697
0.306265
-0.0196986
0.3059
-0.0109584
-0.00351814
0.359583
-0.320709
-0.411695
0.334288
-0.225858
0.322197
-0.152995
0.315965
-0.102209
0.312357
-0.0681179
0.310052
-0.0452991
0.308513
-0.0297305
0.307508
-0.0186936
0.30693
-0.0103796
-0.00332482
0.372385
-0.269658
-0.423436
0.344538
-0.198012
0.329404
-0.137862
0.320813
-0.093618
0.315604
-0.0629085
0.312267
-0.041963
0.310083
-0.027546
0.308691
-0.0173017
0.307906
-0.00959419
-0.00306846
0.381961
-0.221621
-0.429998
0.352957
-0.169007
0.33567
-0.120576
0.325176
-0.0831234
0.318582
-0.056315
0.314318
-0.0376988
0.31154
-0.0247677
0.309787
-0.0155493
0.308808
-0.00861507
-0.00275238
0.388989
-0.177315
-0.433295
0.359717
-0.139735
0.340965
-0.101823
0.32898
-0.0711389
0.321228
-0.048563
0.316157
-0.0326274
0.312851
-0.0214613
0.310774
-0.0134726
0.309619
-0.00746052
-0.00238178
0.394021
-0.136695
-0.434641
0.365002
-0.110716
0.345296
-0.0821173
0.332181
-0.0580239
0.323492
-0.0398737
0.317744
-0.0268797
0.313986
-0.0177034
0.311629
-0.0111152
0.310322
-0.00615324
-0.00196343
0.397511
-0.099278
-0.434928
0.368986
-0.0821907
0.348694
-0.0618253
0.334753
-0.0440827
0.325337
-0.0304581
0.319049
-0.0205912
0.314923
-0.0135778
0.312335
-0.00852708
0.310901
-0.00471962
-0.00150538
0.399815
-0.0643554
-0.434737
0.371822
-0.0541981
0.351194
-0.0411971
0.336682
-0.0295706
0.326738
-0.0205139
0.320045
-0.0138987
0.315641
-0.00917358
0.312876
-0.00576259
0.311346
-0.00318894
-0.00101669
0.401119
-0.0311134
-0.434361
0.373573
-0.0266524
0.352779
-0.0204026
0.337915
-0.0147072
0.327631
-0.0102295
0.320673
-0.00694085
0.316084
-0.00458426
0.313201
-0.00288031
0.311606
-0.00159326
-0.000507377
0.393086
-0.424199
0.366434
0.346031
0.331324
0.321094
0.314153
0.309569
0.306689
0.305096
0.42103
0.00624569
-0.421217
0.420314
0.0182751
0.41904
0.0300234
0.417159
0.0413368
0.414611
0.0520852
0.411331
0.0621673
0.40725
0.0715134
0.402372
0.0800048
0.396065
0.0883534
0.0924079
0.404188
0.00607153
-0.404014
0.40467
0.0177931
0.405427
0.0292663
0.406414
0.0403506
0.407568
0.050931
0.408815
0.0609196
0.410062
0.0702671
0.411215
0.0788514
0.412085
0.0874833
0.0927982
0.390781
0.00564839
-0.390358
0.391988
0.016586
0.393951
0.0273032
0.396629
0.0376732
0.399966
0.0475938
0.403897
0.0569888
0.408343
0.0658209
0.413184
0.0740104
0.41854
0.0821272
0.0879025
0.380185
0.00506095
-0.379598
0.381884
0.014887
0.384671
0.0245167
0.388507
0.0338366
0.393345
0.0427561
0.399124
0.0512103
0.405776
0.0591687
0.413203
0.066583
0.421527
0.0738031
0.0794315
0.371864
0.00436046
-0.371163
0.373903
0.0128478
0.377257
0.021162
0.381891
0.0292029
0.387756
0.0368912
0.394795
0.0441717
0.402947
0.0510162
0.412134
0.057396
0.422422
0.0635154
0.0685579
0.365426
0.00358094
-0.364646
0.367703
0.0105705
0.371453
0.0174114
0.376639
0.0240177
0.383209
0.0303213
0.391106
0.0362746
0.40027
0.0418516
0.410631
0.0470353
0.422204
0.0519426
0.0561205
0.36059
0.00274511
-0.359755
0.363037
0.00812411
0.367066
0.0133819
0.372636
0.0184478
0.379692
0.0232658
0.38817
0.027796
0.398007
0.0320151
0.409129
0.0359131
0.421516
0.0395553
0.0427086
0.35716
0.00186799
-0.356283
0.359729
0.00555526
0.363958
0.00915283
0.369798
0.0126077
0.377186
0.0158775
0.38605
0.0189316
0.396315
0.021751
0.4079
0.0243279
0.420759
0.0266957
0.0287306
0.354862
0.000951022
-0.353945
0.357533
0.00288393
0.361921
0.00476501
0.367967
0.00656211
0.375595
0.00824954
0.384717
0.00980884
0.39524
0.0112281
0.407066
0.012502
0.420123
0.0136394
0.0144924
0.340068
-0.339117
0.342952
0.347717
0.354279
0.362529
0.372338
0.383566
0.396068
0.409707
0.0807266
0.118825
-0.109936
-0.0896157
0.0721339
0.121301
-0.112709
0.0634924
0.124324
-0.115682
0.0547483
0.127567
-0.118823
0.0458438
0.131091
-0.122187
0.0367288
0.134939
-0.125824
0.0273612
0.139152
-0.129785
0.0177114
0.143685
-0.134035
0.00791122
0.146467
-0.136667
0.119253
-0.111342
0.0750663
0.12649
-0.0827309
0.0671469
0.129221
0.0591073
0.132363
0.0509408
0.135734
0.04262
0.139412
0.034113
0.143446
0.0253858
0.147879
0.016412
0.152659
0.00731745
0.155562
0.126571
0.0683147
0.133494
-0.0753189
0.0611425
0.136393
0.0538519
0.139654
0.0464243
0.143161
0.0388409
0.146995
0.0310798
0.151207
0.023115
0.155844
0.0149267
0.160847
0.00664013
0.163848
0.133211
0.0609731
0.139784
-0.0672637
0.0545574
0.142809
0.0480431
0.146168
0.0414072
0.149797
0.0346323
0.15377
0.0276987
0.158141
0.020584
0.162959
0.0132723
0.168159
0.00588675
0.171234
0.139098
0.0530251
0.145307
-0.0585479
0.0474133
0.14842
0.0417273
0.151854
0.0359428
0.155582
0.0300426
0.159671
0.0240085
0.164175
0.0178206
0.169147
0.0114663
0.174513
0.00506634
0.177634
0.144164
0.0444384
0.149982
-0.0491133
0.0397034
0.153155
0.0349152
0.156642
0.030051
0.160446
0.025095
0.164627
0.0200311
0.169239
0.0148418
0.174336
0.0095199
0.179835
0.00418605
0.182968
0.14835
0.0352401
0.153726
-0.0389841
0.0314589
0.156937
0.0276408
0.16046
0.0237664
0.16432
0.0198222
0.168571
0.0157939
0.173267
0.0116669
0.178463
0.00744148
0.184061
0.00325459
0.187155
0.151605
0.0255107
0.156465
-0.0282492
0.0227528
0.159694
0.0199708
0.163243
0.0171497
0.167141
0.0142789
0.171442
0.0113462
0.1762
0.00833556
0.181474
0.0052427
0.187153
0.00226131
0.190136
0.153866
0.0153718
0.158138
-0.0170449
0.0136924
0.161374
0.0119995
0.164936
0.010284
0.168857
0.00853977
0.173186
0.00676086
0.177978
0.00493978
0.183295
0.00303075
0.189063
0.00117684
0.19199
0.155043
0.00497809
-0.00554932
0.00441083
0.00384016
0.00326324
0.00267872
0.00208621
0.00149103
0.000948838
0.000240904
0.113302
0.0198181
-0.124485
-0.00863527
0.101798
0.0203091
-0.00880443
0.0899925
0.0207926
-0.00898757
0.0778599
0.02132
-0.00918738
0.0653729
0.0218945
-0.00940741
0.0525018
0.0225226
-0.00965156
0.0392137
0.0232125
-0.00992434
0.0254783
0.023961
-0.0102257
0.0114529
0.0244512
-0.0104258
0.0200295
-0.00857652
0.112338
0.0309446
-0.123465
0.100903
0.0317439
0.0891791
0.0325169
0.077138
0.0333611
0.064753
0.0342794
0.0519943
0.0352813
0.0388279
0.0363789
0.0252233
0.0375656
0.0113361
0.0383384
0.0313656
0.110963
0.0419843
-0.122003
0.0996333
0.0430734
0.0880283
0.0441219
0.0761205
0.0452689
0.0638823
0.0465176
0.0512832
0.0478805
0.0382887
0.0493734
0.0248675
0.0509868
0.0111732
0.0520327
0.0425387
0.109089
0.0528944
-0.119999
0.0979116
0.0542503
0.0864759
0.0555577
0.074754
0.0569908
0.0627176
0.058554
0.0503353
0.0602628
0.0375718
0.0621369
0.0243952
0.0641634
0.010957
0.0654709
0.0534958
0.106613
0.0636152
-0.117334
0.0956524
0.0652106
0.0844512
0.0667589
0.0729815
0.0684604
0.0612141
0.0703214
0.0491166
0.0723603
0.0366531
0.0746004
0.0237914
0.0770251
0.010681
0.0785814
0.0641768
0.103431
0.074065
-0.113881
0.0927718
0.0758703
0.0818883
0.0776423
0.0707528
0.079596
0.0593347
0.0817395
0.0476008
0.0840941
0.0355151
0.0866861
0.0230456
0.0894945
0.0103405
0.0912865
0.0745172
0.0994602
0.0841405
-0.109536
0.0892085
0.086122
0.0787459
0.0881049
0.0680418
0.0903001
0.0570644
0.092717
0.0457804
0.0953781
0.0341545
0.098312
0.0221571
0.101492
0.00993569
0.103508
0.0844529
0.0946502
0.0936975
-0.104207
0.0849495
0.0958227
0.0750343
0.0980202
0.0648714
0.100463
0.0544305
0.103158
0.0436814
0.106127
0.0325932
0.1094
0.0211409
0.112944
0.00947385
0.115175
0.0939268
0.0890723
0.102462
-0.0978366
0.0801267
0.104768
0.0708959
0.107251
0.061371
0.109988
0.0515395
0.112989
0.0413853
0.116281
0.0308885
0.119897
0.020033
0.1238
0.00897099
0.126237
0.102898
0.0829444
-0.0904187
0.075004
0.0665727
0.0577376
0.0485402
0.0389976
0.0291102
0.0188745
0.00844442
0.199425
0.0157772
-0.0172125
0.202058
0.0166979
-0.0193305
0.202496
0.0211243
-0.0215629
0.202862
0.0246767
-0.0250418
0.202485
0.0302376
-0.0298612
0.200643
0.0378643
-0.0360223
0.19609
0.047975
-0.0434216
0.186369
0.0615322
-0.0518111
0.166208
0.081044
-0.0608835
0.112252
-0.0705286
0.199343
0.0144242
0.201841
0.0142002
0.202195
0.0207701
0.202462
0.0244089
0.201954
0.0307456
0.199932
0.0398865
0.195138
0.0527696
0.185133
0.0715372
0.164791
0.101385
0.153579
0.199153
0.0132607
0.201333
0.0120203
0.201484
0.0206191
0.201538
0.0243556
0.200776
0.0315068
0.198452
0.0422109
0.193299
0.0579222
0.182922
0.0819143
0.162426
0.121881
0.194002
0.198854
0.0123961
0.200537
0.0103375
0.200375
0.0207815
0.200098
0.0246324
0.198961
0.0326437
0.19621
0.0449619
0.190578
0.0635545
0.179724
0.0927678
0.159049
0.142557
0.233052
0.198441
0.0119451
0.199454
0.00932408
0.19888
0.0213553
0.198159
0.0253537
0.196523
0.0342795
0.19322
0.0482655
0.18698
0.069794
0.175526
0.104222
0.154552
0.163531
0.270271
0.197903
0.0120317
0.198086
0.00914143
0.19702
0.0224214
0.195739
0.0266341
0.193481
0.0365382
0.189497
0.0522495
0.182516
0.0767749
0.17031
0.116427
0.148739
0.185102
0.305129
0.197229
0.012792
0.196436
0.00993526
0.194817
0.02404
0.19286
0.0285912
0.189853
0.0395447
0.18506
0.0570433
0.177195
0.0846394
0.164067
0.129556
0.141789
0.20738
0.337382
0.196404
0.0143775
0.194509
0.0118304
0.192302
0.0262473
0.189543
0.0313502
0.185664
0.0434233
0.179931
0.0627763
0.171036
0.0935348
0.15686
0.143732
0.134428
0.229812
0.367603
0.195411
0.0169568
0.192316
0.0149247
0.18951
0.0290535
0.185811
0.0350494
0.180944
0.0482907
0.174162
0.0695581
0.164155
0.103542
0.148993
0.158893
0.126944
0.251861
0.396711
0.19429
0.0206566
0.189843
0.0193713
0.186488
0.0324089
0.181706
0.0398317
0.175761
0.054235
0.167855
0.0774646
0.156664
0.114733
0.140305
0.175252
0.117389
0.274776
0.423681
0.303183
0.0194841
0.302969
0.0195853
0.305288
0.0300897
0.30663
0.0384891
0.308106
0.0527599
0.310069
0.0755007
0.313496
0.111306
0.321375
0.167373
0.342942
0.25321
0.374203
0.392419
0.30356
0.0179339
0.304075
0.0190708
0.306484
0.0276803
0.308662
0.0363116
0.311342
0.0500801
0.315182
0.0716608
0.32155
0.104938
0.333718
0.155206
0.359483
0.227444
0.32198
0.411707
0.303877
0.0160675
0.305092
0.0178554
0.307709
0.0250636
0.310617
0.0334033
0.314406
0.0462908
0.319914
0.0661533
0.32871
0.0961417
0.344005
0.13991
0.372207
0.199242
0.270873
0.423314
0.304186
0.0138918
0.305986
0.0160551
0.308892
0.0221581
0.312447
0.029848
0.317228
0.0415096
0.324179
0.0592027
0.334937
0.0853833
0.352454
0.122394
0.381731
0.169965
0.22274
0.429864
0.304489
0.0114133
0.30677
0.0137741
0.309983
0.0189447
0.314103
0.0257281
0.319742
0.0358703
0.327902
0.0510431
0.340198
0.0730872
0.359221
0.103371
0.388699
0.140488
0.178297
0.433142
0.304784
0.00863936
0.307449
0.0111089
0.310946
0.0154478
0.315544
0.0211307
0.321899
0.029515
0.331036
0.0419055
0.344499
0.0596242
0.364496
0.083374
0.393679
0.111305
0.137511
0.434465
0.305074
0.00557584
0.308029
0.00815389
0.311753
0.0117233
0.316734
0.0161496
0.32366
0.0225896
0.333555
0.0320101
0.347871
0.0453087
0.368464
0.0627811
0.397131
0.082638
0.0999129
0.434729
0.305363
0.00222287
0.308511
0.00500612
0.312382
0.00785209
0.317649
0.0108826
0.324999
0.0152402
0.335445
0.0215636
0.35035
0.0304041
0.371283
0.041848
0.399408
0.0545126
0.0648036
0.434517
0.305633
-0.00140034
0.308861
0.00177809
0.312775
0.00393809
0.31823
0.00542779
0.325859
0.00761124
0.336664
0.010759
0.351936
0.0151321
0.373043
0.0207411
0.400727
0.0268286
0.0314382
0.434092
0.30061
0.302388
0.306326
0.311754
0.319365
0.330124
0.345256
0.365997
0.392826
0.424264
0.398778
-0.0959748
0.402802
-0.0867552
0.40698
-0.0794966
0.410818
-0.0711013
0.41407
-0.0618003
0.41668
-0.0517234
0.418664
-0.0409677
0.42006
-0.029645
0.420906
-0.0178909
-0.00585996
0.411403
-0.0956716
0.410868
-0.0862198
0.409879
-0.0785072
0.408686
-0.069909
0.407454
-0.0605685
0.406306
-0.0505749
0.405333
-0.0399944
0.4046
-0.0289122
0.404151
-0.0174422
-0.00572299
0.417689
-0.0900464
0.41269
-0.0812208
0.407891
-0.0737081
0.403508
-0.0655261
0.399644
-0.0567044
0.396374
-0.0473055
0.393763
-0.0373836
0.391865
-0.0270136
0.39072
-0.0162975
-0.00536069
0.420779
-0.0809613
0.412754
-0.0731952
0.405377
-0.0663317
0.398783
-0.058932
0.39306
-0.0509812
0.388279
-0.0425241
0.384499
-0.0336037
0.381769
-0.0242843
0.380128
-0.0146559
-0.00483083
0.421795
-0.069615
0.41171
-0.0631098
0.402573
-0.0571946
0.394472
-0.0508317
0.387484
-0.0439928
0.381672
-0.0367118
0.377092
-0.029024
0.373792
-0.0209844
0.371808
-0.0126719
-0.00418567
0.421677
-0.0568272
0.410237
-0.0516702
0.399923
-0.0468799
0.390804
-0.0417134
0.382953
-0.0361412
0.376431
-0.0301898
0.371296
-0.023889
0.367597
-0.0172857
0.365372
-0.0104473
-0.00345927
0.421057
-0.0431553
0.408759
-0.039372
0.397678
-0.0357996
0.387884
-0.0319189
0.379448
-0.0277049
0.372437
-0.0231792
0.366914
-0.0183665
0.362934
-0.0133056
0.360539
-0.00805184
-0.00267503
0.420339
-0.0289769
0.407541
-0.0265742
0.395996
-0.0242543
0.38577
-0.0216933
0.376946
-0.0188806
0.369601
-0.015834
0.363807
-0.0125725
0.359626
-0.00912527
0.357108
-0.0055336
-0.00184948
0.419639
-0.014524
0.406639
-0.0135741
0.394856
-0.0124711
0.384373
-0.0112106
0.375295
-0.00980259
0.367718
-0.00825669
0.361729
-0.00658317
0.357402
-0.0047986
0.354795
-0.00292698
-0.000999019
0.40974
0.396166
0.383695
0.372484
0.362682
0.354425
0.347842
0.343043
0.340116
0.00208858
0.18299
-0.185078
0.00357523
0.228088
-0.229574
0.0051085
0.224957
-0.22649
0.00663768
0.219108
-0.220637
0.0082191
0.213949
-0.215531
0.00988096
0.209609
-0.211271
0.0116482
0.20601
-0.207777
0.0135465
0.20308
-0.204978
0.0156021
0.200756
-0.202812
0.198986
0.017807
-0.201191
0.00433887
0.178651
0.00926137
0.223165
0.0138855
0.220332
0.0185634
0.21443
0.0233778
0.209135
0.0283895
0.204597
0.0336611
0.200739
0.039258
0.197483
0.0452524
0.194762
0.19253
0.0517087
0.00642721
0.172224
0.0140192
0.215573
0.0214479
0.212904
0.0289065
0.206971
0.036508
0.201534
0.0443459
0.19676
0.0525097
0.192575
0.0610897
0.188903
0.0701811
0.18567
0.18281
0.0799008
0.00806734
0.164156
0.0178315
0.205809
0.0274855
0.20325
0.0371207
0.197336
0.0468532
0.191801
0.056783
0.18683
0.067003
0.182355
0.0776025
0.178303
0.0886683
0.174605
0.171149
0.10033
0.00925089
0.154906
0.0206124
0.194447
0.031883
0.191979
0.0430575
0.186162
0.0542379
0.180621
0.0655146
0.175553
0.0769674
0.170902
0.0886684
0.166602
0.100679
0.162594
0.158715
0.113113
0.0100269
0.144879
0.0224561
0.182018
0.0347879
0.179647
0.0469355
0.174014
0.0589782
0.168578
0.0709891
0.163542
0.0830298
0.158861
0.0951519
0.15448
0.107392
0.150354
0.146265
0.119842
0.0104805
0.134398
0.0235502
0.168948
0.0365017
0.166696
0.0491854
0.16133
0.0616568
0.156106
0.0739721
0.151227
0.0861767
0.146657
0.0983062
0.142351
0.110382
0.138278
0.134172
0.122476
0.0107084
0.12369
0.0241114
0.155545
0.0373714
0.153436
0.050293
0.148409
0.0629122
0.143487
0.0752711
0.138868
0.0874035
0.134524
0.0993343
0.13042
0.111079
0.126534
0.122574
0.122677
0.0107984
0.112891
0.024341
0.142003
0.0377168
0.14006
0.050699
0.135426
0.0633084
0.130878
0.0755763
0.1266
0.0875281
0.122573
0.099183
0.118765
0.11055
0.115167
0.11138
0.121743
0.0108226
0.102069
0.0244081
0.128417
0.0378079
0.12666
0.0507764
0.122458
0.0633251
0.118329
0.0754804
0.114445
0.0872668
0.110786
0.0987065
0.107326
0.109817
0.104056
0.100701
0.120496
0.0108305
0.0912384
0.0244282
0.11482
0.0378242
0.113264
0.0507592
0.109523
0.0632333
0.105855
0.0752597
0.102418
0.0868442
0.0992017
0.0979824
0.0961874
0.10866
0.0933789
0.0909365
0.118424
0.0108566
0.0803817
0.02449
0.101186
0.0379183
0.099836
0.0508793
0.0965619
0.0633737
0.0933607
0.0754188
0.0903732
0.0870288
0.0875917
0.0982147
0.0850016
0.108993
0.0826009
0.0806182
0.119311
0.010911
0.0694707
0.0246173
0.08748
0.0381252
0.0863282
0.0511745
0.0835125
0.063772
0.0807632
0.0759434
0.0782018
0.0877141
0.0758209
0.0991093
0.0736064
0.110159
0.0715507
0.0698815
0.120896
0.0109785
0.0584922
0.0247748
0.0736837
0.0383804
0.0727226
0.0515359
0.070357
0.0642517
0.0680474
0.0765573
0.0658962
0.0884819
0.0638963
0.100054
0.0620347
0.111304
0.0603007
0.0589035
0.122282
0.0110429
0.0474493
0.0249246
0.0598019
0.0386214
0.0590259
0.0518728
0.0571056
0.0646904
0.0552298
0.0771052
0.0534814
0.089147
0.0518545
0.100844
0.0503379
0.112224
0.0489202
0.047784
0.123344
0.011093
0.0363563
0.0250432
0.0458518
0.0388118
0.0452572
0.0521368
0.0437806
0.0650303
0.0423364
0.077523
0.0409886
0.0896448
0.0397328
0.101422
0.0385602
0.112882
0.0374605
0.0365846
0.124082
0.0111229
0.0252334
0.0251182
0.0318565
0.0389337
0.0314417
0.052306
0.0304082
0.0652471
0.0293953
0.0777878
0.0284479
0.0899572
0.0275634
0.101781
0.0267359
0.113284
0.0259575
0.0253442
0.124525
0.011132
0.0141014
0.0251449
0.0178436
0.0389793
0.0176073
0.0523712
0.0170164
0.0653325
0.016434
0.0778939
0.0158865
0.0900842
0.0153731
0.101929
0.0148911
0.113451
0.0144358
0.0140861
0.124709
0.0111195
0.00298192
0.02512
0.00384308
0.0389435
0.0037838
0.0523263
0.00363358
0.0652806
0.00347966
0.0778371
0.00333
0.0900245
0.00318575
0.101868
0.00304738
0.11339
0.00291413
0.00282809
0.124648
0.0110835
0.0250388
0.038819
0.0521622
0.0650811
0.0776067
0.0897677
0.10159
0.113094
0.124342
0.135338
0.235112
-0.252025
0.149468
0.104089
-0.118219
0.159223
0.0354507
-0.0452057
0.166306
0.00525051
-0.0123331
0.172032
-0.00667969
0.000953884
0.177096
-0.0102923
0.00522841
0.181729
-0.0103374
0.00570436
0.186042
-0.0089067
0.00459336
0.190067
-0.00693635
0.00291085
-0.00473916
0.00100525
0.141349
0.213074
0.156459
0.0889794
0.166085
0.0258245
0.172595
-0.00125953
0.1775
-0.0115845
0.181585
-0.0143779
0.185166
-0.0139178
0.188387
-0.0121279
0.191308
-0.0098576
-0.00737275
0.146051
0.187919
0.162707
0.0723233
0.172308
0.0162242
0.178292
-0.00724384
0.182468
-0.0157608
0.185678
-0.0175872
0.188309
-0.0165486
0.190544
-0.0143632
0.192467
-0.0117809
-0.00901001
0.150876
0.159324
0.16846
0.0547398
0.177918
0.006766
0.183421
-0.0127466
0.186927
-0.0192669
0.189356
-0.020016
0.191143
-0.018336
0.192503
-0.0157232
0.19354
-0.0128175
-0.00976083
0.155693
0.126975
0.173503
0.0369289
0.182817
-0.00254715
0.187913
-0.0178434
0.190845
-0.0221982
0.192598
-0.0217693
0.193654
-0.0193922
0.194255
-0.0163237
0.194521
-0.0130837
-0.00974026
0.159533
0.0915243
0.17773
0.0187317
0.186971
-0.0117884
0.191744
-0.0226159
0.194198
-0.0246525
0.195387
-0.0229579
0.195829
-0.0198344
0.19579
-0.0162847
0.195406
-0.0127
-0.00906795
0.1624
0.0536495
0.181114
1.767e-05
0.190356
-0.0210307
0.194885
-0.0271444
0.196966
-0.0267339
0.197705
-0.0236972
0.197655
-0.0197839
0.1971
-0.01573
0.196191
-0.0117906
-0.00786759
0.164417
0.0139415
0.183643
-0.0192088
0.192937
-0.0303243
0.197313
-0.0315206
0.199131
-0.0285521
0.199541
-0.0241068
0.199122
-0.0193653
0.198179
-0.0147867
0.196872
-0.0104832
-0.00626623
0.165637
-0.0270478
0.185286
-0.0388579
0.19469
-0.0397284
0.199011
-0.0358414
0.20068
-0.0302212
0.200883
-0.0243094
0.200223
-0.0187057
0.19902
-0.0135838
0.197445
-0.00890768
-0.00439369
0.166044
0.186028
0.195597
0.199964
0.201602
0.201722
0.200951
0.199619
0.197907
0.226409
0.0505472
-0.276957
0.201079
0.0253307
0.190473
0.0106056
0.187066
0.00340695
0.186757
0.000309075
0.187544
-0.000787484
0.188551
-0.00100612
0.1894
-0.000849138
0.189948
-0.000548011
-0.000190662
0.235947
0.105505
-0.290905
0.20979
0.0514879
0.199123
0.0212727
0.195808
0.00672153
0.195609
0.000507958
0.19649
-0.00166807
0.197567
-0.0020838
0.198466
-0.001748
0.199045
-0.00112639
-0.000392003
0.23267
0.158597
-0.285762
0.207946
0.0762124
0.198284
0.0309347
0.195516
0.00948952
0.19558
0.000443853
0.196578
-0.0026661
0.197706
-0.00321181
0.198625
-0.00266656
0.19921
-0.00171155
-0.000594767
0.227309
0.208295
-0.277008
0.204971
0.0985507
0.196865
0.0390399
0.194917
0.0114379
0.195369
-8.41551e-06
0.19654
-0.00383631
0.19774
-0.00441251
0.198687
-0.00361283
0.199281
-0.00230571
-0.000799259
0.220889
-0.264619
0.20122
0.195055
0.19416
0.195105
0.196497
0.197789
0.19877
0.199375
0.0471526
-0.0032481
-0.0439045
0.057983
-0.0108305
0.0760625
-0.0180794
0.100199
-0.0241368
0.128467
-0.0282677
0.15876
-0.0302935
0.189472
-0.0307112
0.219654
-0.0301823
0.249187
-0.0295335
-0.0277691
0.089195
-0.00740499
-0.0850381
0.101061
-0.0226967
0.119058
-0.0360766
0.141018
-0.0460968
0.164961
-0.0522102
0.189674
-0.0550068
0.214638
-0.0556747
0.239695
-0.0552395
0.265153
-0.054992
-0.0535204
0.100549
-0.0111325
-0.0968211
0.11085
-0.0329982
0.126301
-0.0515276
0.145277
-0.0650726
0.166485
-0.073418
0.18909
-0.0776124
0.21257
-0.0791542
0.23659
-0.0792598
0.261256
-0.0796573
-0.078027
0.102782
-0.0145267
-0.0993878
0.112287
-0.0425032
0.126685
-0.0659259
0.144586
-0.0829729
0.164808
-0.09364
0.186474
-0.0992793
0.208951
-0.10163
0.23184
-0.102149
0.254862
-0.10268
-0.100172
0.103287
-0.100006
0.112492
0.126467
0.143824
0.163297
0.183859
0.204705
0.225232
0.244296
0.106447
-0.0905637
0.0997891
-0.115673
0.096587
-0.0932037
0.103064
0.0859942
-0.0959508
0.106544
0.0747866
-0.0989172
0.110125
0.0630307
-0.102103
0.113859
0.0507614
-0.105519
0.117788
0.0379905
-0.109183
0.121954
0.0247209
-0.113055
0.126325
0.0111307
-0.115571
0.129161
-0.0944084
0.105539
0.10833
-0.0802755
-0.118618
0.0977422
-0.0826162
0.0867277
-0.0849363
0.0752742
-0.0874638
0.0633709
-0.0901995
0.0510051
-0.0931528
0.0381611
-0.0963387
0.0248269
-0.0997211
0.0111749
-0.101919
-0.0832335
0.110129
-0.0695249
-0.120879
0.0991125
-0.0716002
0.0877692
-0.073593
0.0760639
-0.0757584
0.0639645
-0.0781001
0.0514413
-0.0806296
0.0384654
-0.0833627
0.0250144
-0.0862701
0.0112548
-0.0881592
-0.0719787
0.111644
-0.0585522
-0.122617
0.100383
-0.0603384
0.0888122
-0.0620225
0.0769027
-0.0638489
0.0646225
-0.0658198
0.0519391
-0.0679462
0.0388193
-0.0702429
0.0252358
-0.0726867
0.0113511
-0.0742744
-0.0606276
0.1128
-0.0474498
-0.123902
0.10139
-0.0489282
0.0896716
-0.0503043
0.0776186
-0.051796
0.0652014
-0.0534025
0.0523881
-0.0551329
0.0391448
-0.0569997
0.0254427
-0.0589846
0.0114423
-0.060274
-0.0491853
0.113611
-0.0362697
-0.124791
0.102111
-0.037428
0.0903002
-0.0384939
0.0781533
-0.0396491
0.0656419
-0.0408911
0.0527353
-0.0422264
0.0394
-0.0436644
0.0256067
-0.0451912
0.0115151
-0.0461824
-0.0376702
0.114104
-0.02505
-0.125324
0.102555
-0.0258789
0.0906927
-0.0266316
0.0784912
-0.0274477
0.0659234
-0.0283232
0.0529593
-0.0292623
0.0395658
-0.0302709
0.0257137
-0.0313391
0.0115627
-0.0320314
-0.0261074
0.114312
-0.0138146
-0.125547
0.102742
-0.0143092
0.0908582
-0.0147478
0.0786336
-0.0152232
0.0660417
-0.0157314
0.0530531
-0.0162737
0.039635
-0.0168528
0.0257582
-0.0174623
0.0115822
-0.0178554
-0.0145253
0.114251
-0.0025841
-0.125481
0.102683
-0.00274146
0.0908023
-0.00286706
0.078582
-0.00300282
0.0659955
-0.00314485
0.0530137
-0.00329188
0.0396039
-0.00344309
0.0257369
-0.00359528
0.0115719
-0.00369034
-0.00295341
0.113921
-0.12514
0.102375
0.0905204
0.0783302
0.0657779
0.0528345
0.039467
0.0256461
0.0115299
0.0158483
-0.198742
-0.0182974
0.0136208
-0.200584
0.0115378
-0.202895
0.00956433
-0.205804
0.00767767
-0.209384
0.00585825
-0.213711
0.00409502
-0.218874
0.00239872
-0.224794
0.00052501
-0.2277
-0.184553
0.0456354
-0.191937
-0.0524406
0.0393835
-0.194332
0.0335596
-0.197071
0.0280611
-0.200306
0.0228114
-0.204135
0.0177379
-0.208638
0.0127619
-0.213898
0.00779679
-0.219828
0.00321877
-0.223122
-0.181335
0.0704737
-0.181902
-0.0805087
0.0611222
-0.184981
0.0523394
-0.188288
0.0439893
-0.191955
0.0359681
-0.196114
0.0281786
-0.200848
0.0205231
-0.206242
0.012937
-0.212242
0.00563908
-0.215825
-0.175696
0.0885858
-0.170129