# Selection   : all
# Cells       : 440
# Volume      : 7.374263e+01
# Time        	max(p)
7.215         	2.475530e+00
7.26          	2.481858e+00
7.31          	2.497288e+00
