/*--------------------------------*- C++ -*----------------------------------*\
  =========                 |
  \\      /  F ield         | OpenFOAM: The Open Source CFD Toolbox
   \\    /   O peration     | Website:  https://openfoam.org
    \\  /    A nd           | Version:  13
     \\/     M anipulation  |
\*---------------------------------------------------------------------------*/
FoamFile
{
    format      ascii;
    class       volScalarField;
    location    "2.75";
    object      p;
}
// * * * * * * * * * * * * * * * * * * * * * * * * * * * * * * * * * * * * * //

dimensions      [0 2 -2 0 0 0 0];

internalField   nonuniform List<scalar> 
1800
(
-1.43407
-1.43172
-1.42575
-1.41528
-1.40185
-1.38882
-1.38005
-1.38089
-1.39195
-1.44671
-1.46016
-1.45679
-1.45107
-1.44233
-1.43159
-1.42055
-1.41169
-1.4082
-1.41029
-1.43872
-1.50377
-1.49771
-1.49073
-1.48228
-1.47275
-1.46272
-1.45296
-1.44432
-1.43878
-1.4401
-1.56016
-1.55099
-1.54161
-1.53167
-1.52063
-1.50778
-1.49261
-1.47538
-1.45681
-1.43849
-1.63104
-1.61889
-1.60675
-1.59382
-1.57807
-1.55769
-1.53199
-1.50157
-1.46801
-1.43367
-1.717
-1.70211
-1.68634
-1.66768
-1.64246
-1.60901
-1.56806
-1.52186
-1.4729
-1.42369
-1.81426
-1.79714
-1.77591
-1.74729
-1.70726
-1.65609
-1.59723
-1.53477
-1.47194
-1.41139
-1.91498
-1.89569
-1.86616
-1.82262
-1.76307
-1.69139
-1.61387
-1.53561
-1.45971
-1.38796
-2.00759
-1.98557
-1.94448
-1.88198
-1.80023
-1.70774
-1.61279
-1.52055
-1.43352
-1.35278
-2.07869
-2.05275
-1.99759
-1.91383
-1.80987
-1.6983
-1.58815
-1.48387
-1.38707
-1.29803
-1.15511
-1.15992
-1.16652
-1.1779
-1.19588
-1.2198
-1.24806
-1.27893
-1.31117
-1.34458
-1.29659
-1.2994
-1.30413
-1.31588
-1.33598
-1.36342
-1.39645
-1.43301
-1.47112
-1.50985
-1.42429
-1.4246
-1.42691
-1.43882
-1.46042
-1.49038
-1.52686
-1.56771
-1.61032
-1.65262
-1.51445
-1.51083
-1.51138
-1.52233
-1.54379
-1.57429
-1.61175
-1.65402
-1.69852
-1.74089
-1.55662
-1.54901
-1.54658
-1.55451
-1.57296
-1.60071
-1.63586
-1.67636
-1.71976
-1.76161
-1.55563
-1.54531
-1.53937
-1.54175
-1.55308
-1.57305
-1.60056
-1.63402
-1.67153
-1.70863
-1.52784
-1.51724
-1.50863
-1.5043
-1.50539
-1.51297
-1.52742
-1.54831
-1.57478
-1.60383
-1.49103
-1.4825
-1.47317
-1.46365
-1.45513
-1.44983
-1.44978
-1.45623
-1.46996
-1.4912
-1.45662
-1.4511
-1.44261
-1.43045
-1.41582
-1.40163
-1.39131
-1.38796
-1.39438
-1.41263
-1.43289
-1.42989
-1.42277
-1.41033
-1.39422
-1.37765
-1.36474
-1.36027
-1.36708
-1.38781
-1.49258
-1.00967
-0.333795
-0.0314173
0.0524301
0.0799639
0.0678715
0.0485446
0.0284299
0.0100217
-1.66509
-1.17506
-0.417913
-0.0641359
0.0424191
0.0759197
0.0656566
0.0471575
0.0275443
0.00964192
-1.81868
-1.34155
-0.510546
-0.10453
0.0268879
0.06834
0.0616471
0.0448587
0.0262346
0.00912145
-1.92516
-1.48181
-0.607843
-0.150539
0.00653083
0.0573783
0.0558077
0.0416036
0.0244873
0.00845676
-1.96616
-1.58972
-0.701645
-0.200339
-0.0175967
0.0434666
0.0481986
0.0373794
0.0222972
0.00764825
-1.94003
-1.66112
-0.787318
-0.252787
-0.0445723
0.0272483
0.0390338
0.03224
0.0196756
0.00670226
-1.85223
-1.69753
-0.862628
-0.307231
-0.0740198
0.00926621
0.028617
0.0263115
0.0166613
0.0056355
-1.73192
-1.70303
-0.926878
-0.362187
-0.105776
-0.0102311
0.0171669
0.019727
0.0133082
0.00447681
-1.61972
-1.68323
-0.979688
-0.415865
-0.139278
-0.0310901
0.00474363
0.0125328
0.00963591
0.00325246
-1.51541
-1.64637
-1.0229
-0.467414
-0.173507
-0.0528938
-0.00852569
0.00475177
0.0056293
0.00196641
-1.40118
-1.54482
-0.998985
-0.489126
-0.201918
-0.0767959
-0.0249849
-0.00553139
0.000177005
0.000245223
-1.2699
-1.32634
-0.912151
-0.48858
-0.229301
-0.104576
-0.0451363
-0.018318
-0.00647329
-0.00186725
-1.16049
-1.15113
-0.843594
-0.493304
-0.256326
-0.130227
-0.0638097
-0.0301803
-0.0126217
-0.00375751
-1.06451
-1.01676
-0.78501
-0.499531
-0.285875
-0.159193
-0.0850474
-0.0433828
-0.0192822
-0.00577186
-0.972985
-0.91674
-0.743979
-0.514447
-0.319631
-0.186794
-0.103052
-0.0541722
-0.0247291
-0.00729993
-0.889663
-0.841655
-0.715193
-0.533298
-0.355307
-0.216727
-0.122453
-0.0652762
-0.0299826
-0.00864106
-0.815995
-0.783278
-0.69818
-0.558398
-0.391509
-0.243284
-0.137948
-0.0734882
-0.033691
-0.00939475
-0.754405
-0.742661
-0.6903
-0.580686
-0.420125
-0.263813
-0.149399
-0.0794122
-0.0361823
-0.00975006
-0.714643
-0.723724
-0.687794
-0.589964
-0.428882
-0.272935
-0.155347
-0.0825006
-0.0373923
-0.00978535
-0.692865
-0.724247
-0.692426
-0.591611
-0.429464
-0.274922
-0.157847
-0.084289
-0.0384091
-0.0101352
-1.14419
-1.20972
-1.25819
-1.29879
-1.3287
-1.36379
-1.39587
-1.44436
-1.47079
-1.51567
-0.968714
-1.04116
-1.0978
-1.14922
-1.18951
-1.22939
-1.26035
-1.29113
-1.31502
-1.3466
-0.829732
-0.902113
-0.962723
-1.01591
-1.05922
-1.09624
-1.12599
-1.15211
-1.17552
-1.2008
-0.715873
-0.786128
-0.847588
-0.899735
-0.943649
-0.979748
-1.01008
-1.03659
-1.06081
-1.08534
-0.62274
-0.690545
-0.75058
-0.801463
-0.84482
-0.880932
-0.911519
-0.938212
-0.961598
-0.983651
-0.547089
-0.612548
-0.670301
-0.719761
-0.761802
-0.797116
-0.826684
-0.851796
-0.873038
-0.891646
-0.486926
-0.550189
-0.605683
-0.653273
-0.693412
-0.72678
-0.754235
-0.776696
-0.795272
-0.810689
-0.441699
-0.503127
-0.556731
-0.602189
-0.640148
-0.670848
-0.695644
-0.714843
-0.730377
-0.74206
-0.414627
-0.474889
-0.527184
-0.571215
-0.607749
-0.636439
-0.659081
-0.675204
-0.68787
-0.695338
-0.40255
-0.463125
-0.515775
-0.560203
-0.596635
-0.625296
-0.647229
-0.662239
-0.672736
-0.675757
0.34449
0.269657
0.183996
0.0922982
-0.00676605
-0.115685
-0.234332
-0.356022
-0.458284
-0.508099
0.133352
0.0525416
-0.0375224
-0.136042
-0.244954
-0.365966
-0.497915
-0.632368
-0.744216
-0.797345
-0.0979528
-0.181743
-0.274508
-0.377424
-0.492699
-0.621637
-0.762431
-0.905364
-1.02375
-1.0781
-0.321107
-0.408565
-0.505706
-0.614067
-0.735547
-0.871103
-1.01866
-1.16753
-1.28943
-1.34253
-0.522416
-0.61484
-0.717742
-0.832373
-0.960404
-1.10256
-1.25542
-1.40934
-1.5279
-1.58077
-0.703138
-0.800543
-0.90867
-1.02852
-1.16152
-1.30899
-1.46517
-1.61617
-1.73184
-1.78314
-0.862258
-0.963582
-1.07545
-1.19871
-1.33455
-1.48279
-1.63795
-1.78436
-1.89381
-1.94159
-1.0039
-1.10601
-1.21807
-1.34118
-1.47612
-1.62169
-1.77136
-1.90877
-2.00791
-2.05071
-1.12502
-1.22474
-1.33404
-1.45384
-1.58425
-1.72297
-1.86219
-1.98547
-2.07118
-2.10816
-1.2237
-1.31884
-1.42288
-1.53626
-1.65827
-1.78547
-1.90912
-2.01392
-2.08445
-2.11552
1.73161
1.74567
1.76014
1.77386
1.78595
1.79574
1.80253
1.80637
1.80949
1.81336
1.6565
1.66727
1.67766
1.6866
1.69338
1.69729
1.69765
1.69481
1.69211
1.69252
1.56042
1.56693
1.57205
1.57487
1.57488
1.57139
1.56371
1.55253
1.54247
1.53869
1.44509
1.4468
1.44563
1.441
1.43271
1.42007
1.40242
1.3809
1.36174
1.35307
1.31023
1.30613
1.29772
1.28478
1.26734
1.24464
1.21606
1.18315
1.15382
1.13973
1.15976
1.14974
1.13318
1.11053
1.08231
1.04782
1.00657
0.960694
0.920047
0.899846
0.993655
0.977145
0.95237
0.920086
0.880949
0.834212
0.779508
0.719722
0.666975
0.640425
0.82121
0.797197
0.762011
0.717728
0.665693
0.605222
0.536041
0.461721
0.396665
0.363719
0.647288
0.615614
0.569528
0.512406
0.446249
0.370463
0.285071
0.194726
0.116601
0.0773543
0.487262
0.437355
0.373248
0.299958
0.218495
0.127234
0.0259663
-0.0797941
-0.170168
-0.215072
1.47759
1.45985
1.45125
1.44829
1.44666
1.45331
1.47405
1.51123
1.57287
1.6691
1.47077
1.45412
1.44596
1.44194
1.43972
1.44354
1.46141
1.49246
1.54339
1.62159
1.46453
1.4484
1.44051
1.43516
1.43219
1.43265
1.44738
1.47058
1.50831
1.5623
1.45882
1.44273
1.43494
1.42799
1.42406
1.42061
1.43204
1.44541
1.46816
1.49051
1.45362
1.43717
1.42924
1.42044
1.41534
1.40742
1.41541
1.41669
1.42361
1.40509
1.44893
1.43173
1.42343
1.41256
1.406
1.39315
1.3974
1.38438
1.37491
1.3052
1.44474
1.42646
1.41749
1.40439
1.39602
1.37788
1.37788
1.34845
1.32218
1.18925
1.44107
1.42136
1.41143
1.39596
1.38537
1.36169
1.35668
1.30915
1.26517
1.05865
1.43795
1.41645
1.40526
1.38731
1.37409
1.34473
1.33358
1.26664
1.20207
0.911568
1.43542
1.41175
1.399
1.37842
1.36237
1.32723
1.30961
1.22271
1.13562
0.759618
1.43286
1.40638
1.39097
1.36733
1.3462
1.30431
1.27609
1.16891
1.0595
0.616043
1.43165
1.40104
1.38201
1.3551
1.32746
1.2803
1.239
1.123
0.986177
0.595996
1.4324
1.3967
1.3732
1.3436
1.30866
1.25848
1.20384
1.0867
0.927283
0.588744
1.43565
1.3934
1.36454
1.33284
1.2902
1.23923
1.1713
1.05832
0.87941
0.587385
1.44198
1.39112
1.35597
1.32275
1.27181
1.22295
1.14154
1.03682
0.842114
0.589287
1.45209
1.38991
1.34759
1.31347
1.25435
1.20971
1.11532
1.02088
0.814926
0.591051
1.4656
1.38798
1.33767
1.30233
1.23423
1.19848
1.09321
1.00856
0.79658
0.593284
1.49062
1.39063
1.33147
1.29337
1.21871
1.18955
1.07568
0.999838
0.785075
0.596582
1.50277
1.38289
1.31852
1.28083
1.20578
1.18349
1.06414
0.995533
0.780104
0.601576
1.57904
1.3959
1.32219
1.27698
1.20052
1.181
1.05843
0.995111
0.777936
0.606825
0.331532
0.159535
-0.0452042
-0.243132
-0.420727
-0.580149
-0.722498
-0.851704
-0.965193
-1.06416
0.285073
0.149504
-0.00537835
-0.162027
-0.307665
-0.442446
-0.565875
-0.683126
-0.788972
-0.886841
0.274823
0.160009
0.0356848
-0.0927551
-0.217703
-0.337288
-0.450379
-0.55805
-0.657038
-0.748889
0.293681
0.186995
0.0755609
-0.0360031
-0.146027
-0.253111
-0.356846
-0.455956
-0.54971
-0.636577
0.317196
0.216809
0.113939
0.0130806
-0.0861153
-0.183804
-0.280255
-0.373609
-0.463175
-0.546198
0.340868
0.24625
0.150007
0.0562432
-0.0358081
-0.127255
-0.218486
-0.307779
-0.39371
-0.473634
0.36327
0.273746
0.182665
0.0936098
0.005859
-0.0817839
-0.169506
-0.255732
-0.338656
-0.416107
0.383473
0.298308
0.211307
0.12519
0.0394845
-0.046473
-0.132436
-0.216759
-0.297539
-0.37283
0.401002
0.319369
0.235478
0.150574
0.0647247
-0.0216914
-0.107679
-0.191575
-0.271752
-0.346497
0.414351
0.334593
0.251705
0.165886
0.0783899
-0.00932558
-0.095876
-0.179886
-0.2599
-0.334527
-1.26043
-1.22724
-1.15652
-1.0666
-0.97453
-0.890139
-0.817353
-0.757383
-0.710628
-0.677553
-1.31872
-1.28927
-1.23041
-1.1541
-1.07358
-0.998279
-0.932614
-0.878256
-0.836205
-0.807602
-1.31927
-1.29293
-1.24675
-1.1867
-1.12097
-1.05749
-1.00086
-0.953161
-0.915839
-0.890244
-1.27409
-1.25027
-1.21555
-1.17187
-1.1226
-1.07316
-1.02771
-0.988536
-0.95735
-0.93553
-1.20108
-1.1797
-1.15389
-1.12385
-1.08979
-1.05433
-1.02037
-0.989802
-0.964173
-0.944104
-1.11899
-1.10055
-1.08104
-1.06038
-1.03774
-1.01388
-0.990335
-0.968292
-0.949228
-0.934171
-1.04255
-1.02772
-1.01281
-0.997832
-0.982309
-0.966433
-0.950842
-0.936319
-0.923509
-0.912504
-0.979586
-0.968832
-0.957793
-0.946402
-0.934678
-0.922878
-0.911626
-0.901025
-0.893239
-0.88808
-0.931633
-0.924891
-0.917376
-0.90879
-0.899342
-0.88962
-0.880554
-0.873501
-0.868067
-0.874533
-0.895685
-0.892241
-0.887602
-0.881063
-0.873004
-0.86443
-0.856721
-0.852541
-0.850266
-0.867279
-0.871072
-0.869511
-0.865977
-0.859886
-0.852173
-0.843743
-0.836294
-0.832073
-0.830663
-0.82478
-0.861989
-0.860457
-0.856972
-0.851025
-0.843395
-0.835168
-0.82785
-0.822953
-0.820839
-0.814321
-0.866186
-0.864129
-0.861289
-0.857576
-0.853294
-0.849124
-0.845921
-0.844423
-0.844747
-0.845915
-0.871515
-0.870123
-0.869252
-0.869244
-0.87037
-0.873017
-0.877537
-0.88405
-0.892123
-0.900684
-0.871282
-0.871899
-0.873312
-0.8763
-0.881171
-0.888031
-0.896741
-0.90706
-0.919526
-0.925329
-0.867068
-0.870163
-0.874362
-0.880069
-0.888119
-0.898645
-0.911271
-0.925187
-0.939873
-0.957809
-0.865127
-0.870577
-0.876992
-0.884671
-0.894749
-0.907257
-0.921611
-0.937027
-0.954274
-0.977669
-0.883149
-0.889868
-0.897541
-0.9065
-0.918252
-0.932822
-0.949192
-0.966633
-0.986371
-1.01168
-0.935601
-0.942617
-0.950812
-0.960936
-0.974633
-0.991662
-1.01087
-1.03132
-1.05366
-1.07963
-1.02814
-1.03442
-1.04219
-1.05303
-1.06878
-1.08898
-1.11229
-1.13737
-1.16394
-1.19258
-0.892355
-0.967235
-0.608071
-0.375899
-0.189602
-0.0406034
0.0229086
0.0336729
0.0245111
0.00947837
-0.974501
-0.991146
-0.531122
-0.279592
-0.132559
-0.0207981
0.0274478
0.0342545
0.0243871
0.00939557
-1.06656
-0.984662
-0.441919
-0.188346
-0.082821
-0.0025715
0.033106
0.0359177
0.0248349
0.00949502
-1.14222
-0.951567
-0.359659
-0.112252
-0.0418226
0.0147643
0.0398304
0.0383318
0.0256282
0.00969328
-1.19305
-0.906305
-0.296531
-0.056425
-0.0110324
0.0312585
0.0469519
0.0410624
0.0265637
0.00992616
-1.20518
-0.856355
-0.253284
-0.021755
0.0131071
0.0469719
0.053855
0.043746
0.0274823
0.010145
-1.19177
-0.802123
-0.226405
-0.00226532
0.0328985
0.0604878
0.0597579
0.0460459
0.0282516
0.0103115
-1.18818
-0.771955
-0.214166
0.00615695
0.0469575
0.0707343
0.0642359
0.0477639
0.0287834
0.0103993
-1.2335
-0.794099
-0.227192
0.00434713
0.0548373
0.0773886
0.0671187
0.0487941
0.0290181
0.0103896
-1.33815
-0.875051
-0.267784
-0.00818011
0.056609
0.0804542
0.0683442
0.0490724
0.0289119
0.0102677
-0.733992
-0.72231
-0.642424
-0.52502
-0.274081
-0.071503
0.0174484
0.0352923
0.0266149
0.0104426
-0.727643
-0.713683
-0.641159
-0.530861
-0.278637
-0.0727189
0.0177189
0.0354045
0.0265209
0.0103565
-0.740378
-0.742513
-0.648935
-0.530936
-0.282346
-0.0731833
0.0177158
0.0349986
0.026117
0.0101813
-0.774222
-0.808169
-0.655276
-0.515573
-0.273618
-0.0691686
0.018122
0.0342977
0.0255192
0.00993293
-0.828176
-0.904777
-0.646525
-0.453124
-0.238942
-0.0582819
0.019504
0.033749
0.024993
0.0097098
-0.644947
-0.769261
-0.853848
-0.907182
-0.920984
-0.922843
-0.9088
-0.878966
-0.849899
-0.81041
-0.645625
-0.771862
-0.855041
-0.907272
-0.915745
-0.918909
-0.901774
-0.869123
-0.845721
-0.802835
-0.647769
-0.775369
-0.857594
-0.908446
-0.913632
-0.918105
-0.895828
-0.869665
-0.848598
-0.816478
-0.652949
-0.782237
-0.864536
-0.913311
-0.918884
-0.920009
-0.89673
-0.878114
-0.860123
-0.854927
-0.661899
-0.793284
-0.876131
-0.922693
-0.930029
-0.924372
-0.904188
-0.88588
-0.870759
-0.890213
1.42193
1.41434
1.40062
1.38349
1.36375
1.34046
1.31305
1.28327
1.25842
1.24731
1.51468
1.51785
1.51516
1.50843
1.49872
1.48555
1.46848
1.44885
1.43248
1.42571
1.6035
1.61149
1.61524
1.61596
1.61439
1.61008
1.60249
1.59239
1.58397
1.58131
1.68073
1.69277
1.70232
1.7098
1.71545
1.71875
1.71904
1.7167
1.71476
1.71577
1.74507
1.7602
1.77383
1.78605
1.79682
1.80561
1.81177
1.81539
1.81855
1.82251
1.79218
1.80928
1.82601
1.842
1.8569
1.87013
1.88099
1.8893
1.89639
1.90273
1.82121
1.83951
1.85817
1.87649
1.89389
1.90975
1.92337
1.93445
1.94392
1.95172
1.83026
1.84885
1.86828
1.88762
1.90607
1.92301
1.93773
1.94986
1.96022
1.96857
1.8186
1.83662
1.85563
1.87455
1.89248
1.90878
1.92274
1.93403
1.94365
1.95154
1.78579
1.80232
1.81969
1.83674
1.85256
1.86647
1.87778
1.88631
1.89352
1.8999
-0.501394
-0.540425
-0.591834
-0.656109
-0.733848
-0.82428
-0.924253
-1.024
-1.10396
-1.14066
-0.285819
-0.330501
-0.38634
-0.454022
-0.534538
-0.627886
-0.732628
-0.838746
-0.925002
-0.963912
-0.0431512
-0.0929779
-0.152829
-0.223099
-0.304952
-0.398901
-0.503368
-0.610045
-0.70146
-0.741087
0.207679
0.154395
0.0923118
0.0213257
-0.0596821
-0.151388
-0.252539
-0.35662
-0.44498
-0.485853
0.448548
0.394611
0.333251
0.264523
0.18737
0.10091
0.00595536
-0.0916784
-0.173791
-0.213028
0.666362
0.615523
0.558593
0.495626
0.425561
0.34737
0.261597
0.173422
0.0995702
0.0638458
0.858351
0.81403
0.764718
0.710331
0.649744
0.581868
0.507097
0.430059
0.365732
0.334619
1.03133
0.994772
0.954104
0.909166
0.858714
0.801636
0.738265
0.672715
0.61818
0.592047
1.19326
1.16343
1.1296
1.09252
1.05103
1.00394
0.951464
0.897096
0.852135
0.830961
1.3349
1.3114
1.28304
1.25283
1.22013
1.18353
1.14274
1.10026
1.06525
1.0491
1.59556
1.50159
1.48399
1.47724
1.47686
1.49452
1.51517
1.54648
1.55612
1.52169
1.57782
1.50029
1.48369
1.47816
1.4775
1.49506
1.51785
1.55325
1.57793
1.57948
1.56181
1.49795
1.48235
1.47798
1.47724
1.49447
1.51936
1.55974
1.59938
1.63554
1.54737
1.49478
1.48019
1.47683
1.4761
1.4928
1.51936
1.56344
1.61558
1.67908
1.53433
1.49093
1.47736
1.47483
1.47415
1.49016
1.51772
1.56438
1.62659
1.71192
1.52253
1.48653
1.47396
1.47204
1.47142
1.48653
1.51442
1.56256
1.63213
1.73344
1.51181
1.4817
1.47009
1.46852
1.46791
1.48191
1.50948
1.55789
1.63193
1.74366
1.50206
1.47653
1.46583
1.46433
1.46365
1.47628
1.50296
1.55038
1.62589
1.7425
1.49316
1.47112
1.46123
1.45953
1.45866
1.46965
1.49488
1.54009
1.61408
1.72968
1.48503
1.46553
1.45635
1.45416
1.45298
1.462
1.48523
1.52706
1.59642
1.70516
1.76334
1.5058
1.47602
1.4646
1.46778
1.48292
1.4927
1.5058
1.46421
1.42625
1.68888
1.49972
1.47691
1.46718
1.46906
1.48387
1.4934
1.5071
1.46674
1.42354
1.66589
1.5044
1.48062
1.47009
1.47072
1.48572
1.49603
1.51127
1.47692
1.42534
1.639
1.50378
1.48247
1.47287
1.47278
1.48845
1.50119
1.51973
1.49538
1.43742
1.61558
1.50259
1.48352
1.47531
1.47498
1.4917
1.50764
1.53157
1.52128
1.459
1.22289
1.13128
1.00718
0.84682
0.652329
0.429955
0.189945
-0.0525723
-0.280922
-0.480292
1.21776
1.12918
1.0101
0.854366
0.664623
0.445552
0.206056
-0.0389649
-0.272168
-0.477012
1.22858
1.13613
1.01503
0.860892
0.674566
0.457839
0.218206
-0.0293484
-0.266674
-0.475948
1.25988
1.15439
1.02331
0.867153
0.682515
0.466958
0.226556
-0.023548
-0.264555
-0.477873
1.31178
1.18586
1.03696
0.873281
0.687212
0.472038
0.231438
-0.0205579
-0.265246
-0.483137
)
;

boundaryField
{
    left
    {
        type            zeroGradient;
    }
    right
    {
        type            fixedValue;
        value           uniform 0;
    }
    down
    {
        type            zeroGradient;
    }
    up
    {
        type            zeroGradient;
    }
    cylinder
    {
        type            zeroGradient;
    }
    defaultFaces
    {
        type            empty;
    }
}


// ************************************************************************* //
