/*--------------------------------*- C++ -*----------------------------------*\
  =========                 |
  \\      /  F ield         | OpenFOAM: The Open Source CFD Toolbox
   \\    /   O peration     | Website:  https://openfoam.org
    \\  /    A nd           | Version:  13
     \\/     M anipulation  |
\*---------------------------------------------------------------------------*/
FoamFile
{
    format      ascii;
    class       surfaceScalarField;
    location    "2.75";
    object      phi;
}
// * * * * * * * * * * * * * * * * * * * * * * * * * * * * * * * * * * * * * //

dimensions      [0 3 -1 0 0 0 0];

internalField   nonuniform List<scalar> 
3485
(
-0.00155459
0.00388988
-0.00233529
-0.00281948
0.00746329
-0.0061984
-0.00156023
0.00764283
-0.00890209
0.00385551
0.00450159
-0.00991733
0.0146858
-0.0020911
-0.00873922
0.0318511
-0.0121023
-0.005063
0.0559544
-0.0253456
0.00124224
0.0874407
-0.0412566
0.00977035
0.126177
-0.0596058
0.020869
-0.0701834
0.028291
0.16807
-0.000718604
0.00460848
-9.3753e-05
0.00683844
0.00408694
0.00346214
0.013596
-0.00500748
0.029714
-0.0182091
0.0530435
-0.0354317
0.0831887
-0.0554908
0.118892
-0.0769597
0.157698
-0.098412
-0.115742
0.203256
0.000444489
0.00416399
0.00393807
0.00334486
0.0125418
-0.00514162
0.0278727
-0.0203383
0.0506028
-0.0409392
0.0801229
-0.0649519
0.114607
-0.0899754
0.151387
-0.113739
0.187647
-0.134672
-0.151837
0.223742
0.00144763
0.00271636
0.00791289
-0.0031204
0.0212715
-0.0185002
0.0424087
-0.0414755
0.0705757
-0.0691062
0.103409
-0.0977854
0.137687
-0.124254
0.170311
-0.146363
0.1989
-0.163261
-0.175022
0.222085
0.00256249
0.000153872
0.0121679
-0.0127259
0.0301347
-0.036467
0.0558466
-0.0671874
0.0865292
-0.0997888
0.118303
-0.129559
0.147627
-0.153578
0.172221
-0.170957
0.191198
-0.182237
-0.189149
0.205325
0.00381032
-0.00365645
0.0165598
-0.0254754
0.0381722
-0.0580793
0.0658666
-0.0948819
0.0951622
-0.129084
0.121969
-0.156366
0.143884
-0.175493
0.160314
-0.187387
0.172028
-0.193951
-0.196994
0.179873
0.00514307
-0.00879953
0.0204988
-0.0408311
0.0438655
-0.081446
0.0704276
-0.121444
0.0953076
-0.153964
0.115587
-0.176645
0.130554
-0.19046
0.140961
-0.197794
0.148005
-0.200996
-0.201938
0.15295
0.00631564
-0.0151152
0.023184
-0.0576994
0.0460417
-0.104304
0.0690904
-0.144493
0.0883757
-0.17325
0.102565
-0.190835
0.112147
-0.200042
0.118314
-0.20396
0.122258
-0.20494
-0.204353
0.124673
0.00713858
-0.0222538
0.0241353
-0.0746962
0.0446163
-0.124785
0.0630907
-0.162967
0.0770076
-0.187167
0.0862597
-0.200087
0.0919018
-0.205684
0.0951846
-0.207243
0.0970447
-0.2068
-0.205358
0.098049
0.00748512
-0.0297389
0.0233056
-0.0905167
0.0403487
-0.141828
0.0541443
-0.176763
0.0634108
-0.196433
0.0687611
-0.205437
0.0714106
-0.208333
0.0724361
-0.208268
0.0725307
-0.206895
0.0719646
-0.204792
-0.00409137
0.0231293
-0.019038
-0.0135329
0.0461749
-0.0367334
-0.0258443
0.0551417
-0.0428303
-0.0394259
0.0569198
-0.0433382
-0.0534396
0.0556405
-0.0416268
-0.0674959
0.0531896
-0.0391333
-0.0813913
0.0502093
-0.0363139
-0.0949735
0.046858
-0.0332758
-0.108094
0.0431693
-0.0300493
0.0394331
-0.120651
-0.026876
-0.00146093
0.0245903
-0.00691588
0.0516299
-0.0154408
0.0636666
-0.0257145
0.0671935
-0.0367089
0.0666349
-0.0478258
0.0643065
-0.0587346
0.0611182
-0.0692121
0.0573356
-0.0790504
0.0530075
0.0483713
-0.0879886
0.00157405
0.0230162
0.00147681
0.0517271
-0.00163194
0.0667754
-0.00701648
0.072578
-0.013603
0.0732214
-0.0205697
0.0712731
-0.0274074
0.0679559
-0.0337927
0.0637208
-0.0394843
0.0586991
0.0529325
-0.0440455
0.00417414
0.0188421
0.00962202
0.0462792
0.0130432
0.0633542
0.0138967
0.0717245
0.0129099
0.0742082
0.0110029
0.0731802
0.00885596
0.0701028
0.00689493
0.0656819
0.00544372
0.0601503
0.0534555
0.00492069
0.00552755
0.0133145
0.0152609
0.0365459
0.0248101
0.0538049
0.0323344
0.0642002
0.0377071
0.0688356
0.0415427
0.0693446
0.0445494
0.0670961
0.0472589
0.0629724
0.0499831
0.0574261
0.0503524
0.0530863
0.00536482
0.00794971
0.016707
0.0252036
0.0301042
0.0404077
0.0430264
0.0512781
0.0544034
0.0574586
0.0641402
0.0596078
0.0725814
0.058655
0.0801385
0.0554152
0.0870879
0.0504768
0.0439052
0.0935351
0.00408783
0.00386188
0.0141521
0.0151394
0.0277805
0.0267794
0.0427745
0.0362841
0.0576755
0.0425576
0.0717702
0.0455131
0.0848494
0.0455757
0.096939
0.0433256
0.108077
0.0393392
0.0336523
0.11833
0.0023227
0.00153918
0.00914975
0.00831231
0.0197172
0.0162119
0.0328152
0.0231862
0.0472879
0.0280848
0.0622822
0.0305187
0.0772633
0.0305946
0.0919272
0.0286618
0.106164
0.0251022
0.0191391
0.120677
0.000413476
0.00112571
0.00316665
0.00555914
0.00885877
0.0105198
0.0173885
0.0146564
0.0283178
0.0171555
0.0412289
0.0176076
0.0558698
0.0159537
0.0721709
0.0123606
0.090401
0.00687206
-0.00138555
0.110926
-0.00120958
-0.00184884
-0.000231173
0.00450788
0.0129242
0.0254688
0.0426648
0.0647958
0.0925368
0.119442
-0.156471
0.123064
-0.087244
-0.0804267
-0.267193
0.191149
0.0232719
-0.376584
0.272885
0.0965163
-0.339869
0.266624
0.145404
-0.283053
0.234165
0.175934
-0.207702
0.177172
0.194349
-0.155052
0.136637
0.204412
-0.106473
0.0964111
0.210031
-0.0828415
0.0772224
-0.0534085
0.0515328
-0.108864
0.14394
-0.0439918
-0.332066
0.0438299
-0.464405
0.111193
-0.407231
0.154735
-0.326595
0.18155
-0.234517
0.197671
-0.171172
0.206505
-0.115307
0.211429
-0.0877656
-0.0550023
-0.051429
0.151324
0.0029165
-0.386411
0.0723071
-0.533796
0.129884
-0.464808
0.166619
-0.363331
0.188663
-0.256561
0.201727
-0.184236
0.208915
-0.122496
0.212967
-0.0918173
-0.0563246
0.00807457
0.14817
0.0470796
-0.425416
0.103007
-0.589724
0.149454
-0.511255
0.179309
-0.393186
0.196577
-0.27383
0.206333
-0.193992
0.211617
-0.12778
0.214645
-0.0948448
-0.0573819
0.061024
0.140232
0.0913301
-0.455723
0.132656
-0.631049
0.16769
-0.546289
0.19094
-0.416436
0.204153
-0.287043
0.210992
-0.200831
0.214444
-0.131233
0.216414
-0.096814
-0.0582055
0.107471
0.126296
0.131758
-0.48001
0.15979
-0.65908
0.183853
-0.570352
0.200588
-0.433171
0.210439
-0.296893
0.215093
-0.205485
0.217115
-0.133254
0.21817
-0.0978691
-0.05888
0.143858
0.100768
0.165626
-0.501778
0.182364
-0.675819
0.197429
-0.585417
0.208135
-0.443877
0.215041
-0.3038
0.218176
-0.20862
0.219319
-0.134398
0.219767
-0.0983164
-0.0595596
0.171135
0.0503099
0.191763
-0.522405
0.199807
-0.683863
0.207914
-0.593524
0.213728
-0.449691
0.218051
-0.308123
0.220074
-0.210643
0.220829
-0.135152
0.221046
-0.0985338
-0.0604585
0.192233
-0.0309971
0.210296
-0.540469
0.211885
-0.685453
0.215093
-0.596731
0.217539
-0.452136
0.219781
-0.310365
0.220902
-0.211764
0.221569
-0.13582
0.221892
-0.0988568
-0.0618136
0.211573
-0.123128
0.221426
-0.550322
0.218765
-0.682792
0.219484
-0.597451
0.219963
-0.452615
0.220642
-0.311045
0.220945
-0.212067
0.221627
-0.136502
0.222277
-0.0995069
-0.0638366
0.63453
-0.235937
-0.521721
0.637538
-0.553329
0.581876
-0.62713
0.514593
-0.530168
0.454915
-0.392936
0.411579
-0.267709
0.38193
-0.182418
0.363392
-0.117965
0.350694
-0.0868088
-0.0568921
0.738799
-0.272666
-0.70207
0.678291
-0.492821
0.591722
-0.540561
0.517385
-0.455831
0.460002
-0.335553
0.417965
-0.225671
0.387399
-0.151852
0.367125
-0.0976907
0.35286
-0.0725441
-0.0488957
0.739873
-0.267954
-0.744586
0.67304
-0.425988
0.603597
-0.471119
0.541585
-0.393819
0.48386
-0.277828
0.435673
-0.177484
0.398745
-0.114924
0.373757
-0.0727026
0.356267
-0.0550542
-0.0392597
0.72417
-0.253137
-0.738987
0.671369
-0.373187
0.607201
-0.40695
0.541737
-0.328355
0.480926
-0.217017
0.432545
-0.129104
0.397114
-0.0794924
0.37345
-0.0490385
0.356465
-0.0380692
-0.0294046
0.708501
-0.2364
-0.725238
0.664752
-0.329438
0.607329
-0.349527
0.545375
-0.266402
0.484718
-0.15636
0.434521
-0.0789062
0.397482
-0.0424537
0.373068
-0.0246238
0.355844
-0.0208453
-0.0193538
0.6952
-0.219488
-0.712111
0.655455
-0.289693
0.59485
-0.288922
0.527883
-0.199434
0.467263
-0.0957394
0.420347
-0.0319901
0.38721
-0.00931741
0.365896
-0.00330999
0.350868
-0.00581722
-0.0101908
0.674788
-0.197041
-0.697236
0.624702
-0.239607
0.551192
-0.215413
0.478798
-0.12704
0.423096
-0.0400373
0.385761
0.00534452
0.361783
0.0146614
0.347188
0.0112844
0.336758
0.00461307
-0.00312397
0.614338
-0.152939
-0.658439
0.537017
-0.162286
0.445762
-0.124158
0.374872
-0.0561499
0.334947
-0.00011215
0.316928
0.0233629
0.308728
0.0228614
0.304654
0.0153586
0.301138
0.00812919
0.000678961
0.445555
-0.0744675
-0.524027
0.342999
-0.0597299
0.253541
-0.0346993
0.205968
-0.00857744
0.196107
0.00974898
0.203315
0.0161554
0.212478
0.0136983
0.21898
0.00885604
0.222168
0.00494163
0.00109634
0.131572
-0.20604
0.0718424
0.0371431
0.0285656
0.0383146
0.05447
0.0681682
0.0770243
0.0819659
0.559669
0.0603772
-0.548081
0.571079
0.0866388
0.58671
0.109042
0.602454
0.137205
0.620815
0.161513
0.638451
0.187689
0.646774
0.213762
0.642251
0.228264
0.591366
0.254141
0.237716
0.538373
0.0489511
-0.526947
0.551172
0.0738401
0.567645
0.0925691
0.587354
0.117496
0.609525
0.139342
0.635749
0.161464
0.661277
0.188234
0.685376
0.204166
0.704853
0.234665
0.240498
0.522686
0.0393761
-0.513111
0.536062
0.0604644
0.551411
0.0772206
0.570999
0.0979073
0.593073
0.117268
0.618516
0.136021
0.648436
0.158314
0.678197
0.174405
0.715152
0.19771
0.211064
0.511467
0.0305395
-0.50263
0.524754
0.0471773
0.539508
0.0624666
0.558349
0.0790661
0.579845
0.0957712
0.6044
0.111466
0.633652
0.129062
0.66457
0.143487
0.701707
0.160572
0.173785
0.503125
0.021714
-0.494299
0.515732
0.0345701
0.530403
0.0477954
0.548645
0.0608239
0.569755
0.074662
0.594
0.0872214
0.622083
0.100978
0.652869
0.112702
0.68786
0.125581
0.136406
0.495626
0.0130263
-0.486939
0.507451
0.0227457
0.522006
0.0332397
0.539715
0.043115
0.56057
0.0538073
0.58448
0.0633112
0.611836
0.0736229
0.642089
0.0824479
0.675742
0.0919288
0.100037
0.4852
0.00498911
-0.477163
0.496199
0.0117465
0.510266
0.019173
0.527396
0.0259843
0.54785
0.0333538
0.571348
0.0398128
0.598264
0.0467071
0.628114
0.0525975
0.661373
0.05867
0.0641744
0.460146
-0.00136615
-0.453791
0.469389
0.0025044
0.481788
0.00677338
0.497286
0.0104862
0.516117
0.0145234
0.538071
0.0178584
0.563408
0.0213699
0.591827
0.0241793
0.62362
0.0268765
0.0293554
0.386215
-0.00350118
-0.38408
0.390816
-0.00209574
0.398286
-0.000696642
0.408328
0.000443787
0.421175
0.00167687
0.436525
0.00250763
0.454589
0.00330576
0.475114
0.00365455
0.498048
0.00394249
0.00337642
0.189925
-0.193426
0.187829
0.187132
0.187576
0.189253
0.191761
0.195066
0.198721
0.202663
0.0739296
0.15007
-0.138158
-0.0858412
0.0629914
0.152255
-0.141317
0.0529085
0.154889
-0.144806
0.0431357
0.158436
-0.148663
0.0334091
0.162241
-0.152515
0.023805
0.165198
-0.155594
0.0147312
0.164615
-0.155541
0.00699813
0.154471
-0.146738
0.00175264
0.124037
-0.118791
0.0586582
-0.0569055
0.0701764
0.16072
-0.0808269
0.0596773
0.162754
0.0495229
0.165044
0.0397194
0.168239
0.0301551
0.171806
0.0209184
0.174435
0.012443
0.173091
0.0055358
0.161378
0.00117608
0.128397
0.0598342
0.0632457
0.170183
-0.0727088
0.0534708
0.172529
0.043808
0.174707
0.034453
0.177594
0.025437
0.180822
0.0169155
0.182957
0.00934007
0.180666
0.00353619
0.167182
0.000357346
0.131576
0.0601916
0.0520448
0.17824
-0.0601019
0.0435962
0.180978
0.0350536
0.183249
0.0266774
0.185971
0.01863
0.188869
0.0111776
0.190409
0.00492204
0.186922
0.0006036
0.1715
-0.000729303
0.132908
0.0594623
0.0392968
0.185322
-0.046378
0.0319921
0.188282
0.0245634
0.190678
0.0172531
0.193281
0.0103305
0.195792
0.00415934
0.19658
-0.000554256
0.191635
-0.00262098
0.173567
-0.00199033
0.132278
0.057472
0.0241945
0.191162
-0.0300345
0.0182064
0.19427
0.012103
0.196781
0.0061075
0.199276
0.000565397
0.201334
-0.00388819
0.201034
-0.00642578
0.194173
-0.00630213
0.173443
-0.00330771
0.129283
0.0541642
0.00841593
0.196231
-0.0134847
0.0034367
0.19925
-0.00149135
0.201709
-0.00615857
0.203944
-0.0101441
0.205319
-0.0127749
0.203665
-0.01307
0.194468
-0.0101843
0.170558
-0.00459496
0.123694
0.0495693
-0.00940839
0.200215
0.00542427
-0.0131875
0.203029
-0.0167923
0.205314
-0.0199746
0.207126
-0.0222043
0.207549
-0.0226107
0.204071
-0.0201265
0.191984
-0.0141142
0.164546
-0.00577542
0.115355
0.0437939
-0.0285954
0.20314
0.0256697
-0.0312162
0.205649
-0.0334897
0.207588
-0.0350688
0.208705
-0.0352645
0.207745
-0.0330442
0.201851
-0.0273234
0.186263
-0.0178421
0.155064
-0.00672557
0.104239
0.0370683
-0.0499586
0.0483075
-0.051204
-0.0518848
-0.0515133
-0.0492057
-0.043788
-0.0342879
-0.0210515
-0.00732942
0.107221
0.0403372
-0.1192
-0.0283587
0.0949768
0.0414482
-0.0292038
0.0824534
0.0426479
-0.0301245
0.0696254
0.0439325
-0.0311046
0.0564758
0.0452832
-0.0321335
0.04303
0.0465562
-0.0331104
0.029473
0.0471869
-0.0336299
0.0164382
0.0455762
-0.0325414
0.00553029
0.0382722
-0.0273643
0.0194644
-0.0139341
0.106591
0.0523444
-0.118598
0.0943921
0.0536471
0.0819263
0.0551137
0.0691633
0.0566956
0.0560781
0.0583684
0.0426939
0.0599403
0.0292026
0.0606783
0.0162493
0.0585295
0.00544242
0.0490791
0.0249068
0.105519
0.0642637
-0.117438
0.0933512
0.0658148
0.0809408
0.0675241
0.0682612
0.0693752
0.0552895
0.0713401
0.0420424
0.0731874
0.0287069
0.0740138
0.0159307
0.0713057
0.0053107
0.059699
0.0302175
0.103774
0.0762251
-0.115736
0.0917038
0.0778853
0.0793829
0.0798449
0.0667896
0.0819685
0.053921
0.0842088
0.0408269
0.0862814
0.0277232
0.0871176
0.0152689
0.08376
0.00502989
0.069938
0.0352474
0.101439
0.0879793
-0.113193
0.08955
0.0897742
0.0774976
0.0918974
0.0652094
0.0942567
0.0526339
0.0967843
0.0398001
0.0991153
0.0269434
0.0999742
0.0147628
0.0959406
0.00482738
0.0798735
0.0400748
0.0979261
0.099809
-0.109756
0.0861086
0.101592
0.0741393
0.103867
0.0620302
0.106366
0.0497698
0.109045
0.0373807
0.111504
0.0250798
0.112275
0.0135545
0.107466
0.00432248
0.0891055
0.0443973
0.0941205
0.111003
-0.105314
0.0829363
0.112776
0.0715567
0.115246
0.0598834
0.118039
0.0479275
0.121001
0.0358035
0.123628
0.0238206
0.124258
0.0127201
0.118566
0.00398531
0.0978402
0.0483826
0.0870216
0.122063
-0.0980826
0.0762023
0.123595
0.0654396
0.126009
0.0546006
0.128878
0.043566
0.132035
0.0323625
0.134832
0.021296
0.135325
0.0111433
0.128719
0.00335283
0.105631
0.0517354
0.0824876
0.131334
-0.0917585
0.0727835
0.133299
0.0624768
0.136316
0.0518037
0.139551
0.0409359
0.142903
0.0300284
0.145739
0.0194335
0.14592
0.00993342
0.138219
0.00287882
0.112685
0.0546142
0.0716249
-0.0784487
0.0636074
0.0551167
0.0460046
0.036393
0.0265378
0.0169161
0.00839746
0.00229128
0.201621
0.00750912
-0.0111406
0.205393
0.0269285
-0.0306998
0.208681
0.0343311
-0.0376197
0.211659
0.0534779
-0.0564561
0.213285
0.067488
-0.0691141
0.212251
0.0935613
-0.0925267
0.206904
0.125337
-0.11999
0.194445
0.153661
-0.141202
0.168727
0.206962
-0.181244
0.267502
-0.217974
0.201272
0.00422653
0.204715
0.0234854
0.207787
0.031259
0.210269
0.0509961
0.211902
0.0658551
0.210252
0.0952111
0.205138
0.130451
0.192389
0.166409
0.166925
0.232426
0.315828
0.20086
0.00135587
0.203856
0.0204896
0.206706
0.0284097
0.20853
0.0491716
0.210131
0.064254
0.207534
0.097808
0.202644
0.135341
0.189165
0.179888
0.164399
0.257192
0.362789
0.200374
-0.00102842
0.202823
0.0180405
0.205412
0.0258205
0.206434
0.0481499
0.207958
0.0627304
0.204173
0.101593
0.199507
0.140007
0.184665
0.19473
0.161202
0.280655
0.408255
0.199801
-0.00283997
0.201633
0.0162092
0.203889
0.0235638
0.203985
0.0480546
0.20535
0.0613652
0.200241
0.106702
0.195726
0.144523
0.179271
0.211185
0.157276
0.30265
0.452339
0.199132
-0.00398217
0.200306
0.0150352
0.202121
0.0217483
0.201241
0.0489355
0.202286
0.0603197
0.195745
0.113243
0.191289
0.148979
0.172774
0.2297
0.152916
0.322508
0.495499
0.198362
-0.00435403
0.198866
0.0145308
0.200097
0.0205176
0.198255
0.0507769
0.198731
0.0598443
0.190765
0.121209
0.185974
0.153769
0.16577
0.249904
0.147466
0.340812
0.537651
0.197493
-0.00385701
0.19733
0.0146934
0.19781
0.0200376
0.195036
0.0535514
0.194688
0.0601923
0.185283
0.130614
0.179914
0.159138
0.157388
0.27243
0.141805
0.356395
0.581373
0.196535
-0.00240213
0.195708
0.0155203
0.195268
0.0204775
0.191589
0.0572305
0.190119
0.0616625
0.179477
0.141257
0.173133
0.165481
0.150281
0.295282
0.135044
0.371631
0.624659
0.195532
5.53326e-05
0.193964
0.0170884
0.192549
0.0218927
0.187827
0.0619525
0.184949
0.0645402
0.172706
0.153499
0.16452
0.173668
0.139961
0.319841
0.12908
0.382512
0.67529
0.30448
-0.00241436
0.309429
0.0121391
0.316877
0.0144448
0.319763
0.0590668
0.332646
0.0516569
0.333339
0.152806
0.35414
0.152867
0.360872
0.313109
0.413648
0.329736
0.603998
0.48494
0.304784
-0.00518803
0.311218
0.00570524
0.319094
0.00656888
0.323828
0.0543322
0.338194
0.0372909
0.341579
0.149421
0.364022
0.130424
0.381284
0.295847
0.429899
0.281122
0.536342
0.497554
0.305351
-0.00852912
0.31349
-0.00243359
0.321264
-0.00120514
0.329134
0.0464626
0.342787
0.0236373
0.349871
0.142338
0.372143
0.108151
0.396284
0.271706
0.439964
0.237442
0.462663
0.513643
0.306411
-0.0129302
0.315981
-0.0120031
0.324043
-0.00926701
0.335512
0.0349932
0.346389
0.0127605
0.357494
0.131233
0.377872
0.0877736
0.40751
0.242068
0.450639
0.194313
0.386394
0.526909
0.30804
-0.0189604
0.318692
-0.0226549
0.327988
-0.0185628
0.342733
0.0202479
0.350514
0.00497977
0.366299
0.115447
0.384117
0.0699563
0.419684
0.2065
0.45724
0.156757
0.31372
0.529914
0.310203
-0.0271532
0.321999
-0.034451
0.3332
-0.0297633
0.349714
0.00373347
0.354677
1.65165e-05
0.374714
0.0954103
0.389961
0.0547098
0.428339
0.168122
0.460749
0.124346
0.245327
0.529142
0.313159
-0.0383017
0.326229
-0.0475208
0.338336
-0.0418711
0.353701
-0.0116309
0.355636
-0.00191878
0.379664
0.0713819
0.392815
0.0415592
0.432692
0.128246
0.461962
0.0950758
0.179905
0.527384
0.316302
-0.0525931
0.327457
-0.0586766
0.334868
-0.0492814
0.343241
-0.0200038
0.343114
-0.00179215
0.369814
0.0446815
0.38233
0.0290438
0.424901
0.0856744
0.455407
0.0645699
0.114201
0.521111
0.309807
-0.0603897
0.303817
-0.0526865
0.292569
-0.0380338
0.286682
-0.0141169
0.286001
-0.00111125
0.311876
0.0188065
0.326913
0.0140067
0.373938
0.03865
0.40938
0.0291273
0.0471559
0.476426
0.24162
0.188934
0.1509
0.136783
0.135672
0.154479
0.168485
0.207135
0.236263
0.283418
0.498491
-0.0993916
0.503194
-0.0855305
0.506855
-0.0763691
0.510099
-0.0633463
0.514982
-0.0512613
0.519425
-0.0344771
0.525763
-0.0198231
0.531533
-0.000345198
0.540093
0.0171099
0.040319
0.498584
-0.100422
0.499649
-0.0865953
0.499833
-0.0765535
0.500178
-0.0636908
0.501602
-0.052685
0.503543
-0.0364188
0.507638
-0.0239182
0.511925
-0.00463152
0.519271
0.00976342
0.0326435
0.507476
-0.0942547
0.504078
-0.0831968
0.500524
-0.0730002
0.497883
-0.0610494
0.495756
-0.0505583
0.495849
-0.0365117
0.496858
-0.0249272
0.500291
-0.00806428
0.505103
0.00495107
0.0246353
0.515612
-0.082958
0.506753
-0.0743376
0.499524
-0.0657717
0.494427
-0.055952
0.490153
-0.0462846
0.48867
-0.0350283
0.488044
-0.0243016
0.490928
-0.0109474
0.494714
0.0011649
0.016719
0.516938
-0.0699819
0.505932
-0.0633315
0.496799
-0.0566389
0.49004
-0.0491928
0.484928
-0.0411725
0.482389
-0.0324901
0.481401
-0.0233135
0.483519
-0.0130649
0.487087
-0.00240307
0.00950652
0.515503
-0.0563428
0.503762
-0.05159
0.493949
-0.0468264
0.486327
-0.0415707
0.480739
-0.0355841
0.477426
-0.0291776
0.47611
-0.0219968
0.477338
-0.0142932
0.480666
-0.00573135
0.00323409
0.513447
-0.0424055
0.501199
-0.0393427
0.490729
-0.0363561
0.482239
-0.0330805
0.475792
-0.0291375
0.471455
-0.0248406
0.469239
-0.0197803
0.469373
-0.0144273
0.471932
-0.00829034
-0.00199663
0.505719
-0.0270137
0.49198
-0.0256035
0.479974
-0.0243502
0.469804
-0.0229103
0.461619
-0.0209527
0.455423
-0.0186447
0.451401
-0.0157586
0.449626
-0.012652
0.45037
-0.00903378
-0.00541822
0.4597
-0.0102878
0.444599
-0.0105024
0.43096
-0.0107119
0.418764
-0.0107144
0.408173
-0.010361
0.399237
-0.00970911
0.392231
-0.00875231
0.387219
-0.00764016
0.384511
-0.00632581
-0.00498763
0.273131
0.262628
0.251916
0.241202
0.230841
0.221132
0.212379
0.204739
0.198414
0.0066736
0.0398776
-0.0465512
0.0160513
0.104924
-0.114302
0.022543
0.149392
-0.155883
0.0250474
0.174094
-0.176599
0.0244455
0.185089
-0.184487
0.0219556
0.188187
-0.185697
0.0185105
0.186865
-0.18342
0.0147502
0.182118
-0.178358
0.0112494
0.172744
-0.169243
0.155523
0.00855862
-0.152832
0.0079637
0.0319139
0.0214032
0.0914849
0.0330188
0.137776
0.0402915
0.166822
0.0435791
0.181801
0.0441283
0.187638
0.0430371
0.187957
0.0409566
0.184199
0.0380879
0.175613
0.159434
0.034177
0.00846393
0.02345
0.0252775
0.0746713
0.042268
0.120786
0.0551419
0.153948
0.0632112
0.173732
0.0674529
0.183396
0.0690481
0.186361
0.0686911
0.184556
0.0664026
0.177901
0.164507
0.0613293
0.00805794
0.0153921
0.0267322
0.055997
0.0485931
0.0989247
0.0677192
0.134822
0.0817291
0.159722
0.0908124
0.174313
0.0960808
0.181093
0.0984281
0.182208
0.0978639
0.178465
0.168925
0.0934463
0.00685738
0.00853468
0.0252153
0.0376391
0.050116
0.0740239
0.0752658
0.109672
0.0963423
0.138646
0.111845
0.15881
0.122173
0.170765
0.128242
0.17614
0.130536
0.176171
0.171634
0.127827
0.0051835
0.00335118
0.0210636
0.021759
0.0458197
0.0492678
0.0747539
0.0807376
0.102735
0.110664
0.126271
0.135274
0.143975
0.15306
0.155986
0.16413
0.162798
0.169359
0.169875
0.164557
0.00345464
-0.000103459
0.0155419
0.00967175
0.0368445
0.0279653
0.0653588
0.0522232
0.0971543
0.0788688
0.128084
0.104344
0.155035
0.126109
0.176324
0.142841
0.191642
0.154041
0.161573
0.199944
0.00199043
-0.00209389
0.0100791
0.00158306
0.0259578
0.0120866
0.0498589
0.0283222
0.0801202
0.0486075
0.11375
0.0707141
0.14746
0.0923993
0.178239
0.112062
0.204221
0.128059
0.139848
0.225946
0.000850982
-0.00294487
0.00538425
-0.0029502
0.0155426
0.00192828
0.0326537
0.011211
0.0569323
0.0243289
0.0872888
0.0403576
0.121656
0.0580317
0.157627
0.0760915
0.19163
0.0940554
0.10494
0.226538
-0.00017442
-0.00277045
0.00133398
-0.0044586
0.00641255
-0.00315029
0.0166575
0.000966084
0.0332038
0.00778255
0.0563663
0.0171952
0.085636
0.028762
0.119913
0.041814
0.157452
0.056517
0.0682812
0.194111
-0.000927939
-0.00184251
-0.00143974
-0.0039468
0.000137895
-0.00472793
0.00516631
-0.00406233
0.0147157
-0.00176681
0.0296366
0.00227423
0.0503957
0.00800295
0.076875
0.0153347
0.108951
0.024441
0.0374009
0.139831
-0.000615097
-0.00122742
-0.000890514
-0.00367138
0.000162762
-0.00578121
0.00324781
-0.00714738
0.00898238
-0.00750138
0.0179553
-0.00669865
0.0306535
-0.00469527
0.0474362
-0.00144802
0.0683634
0.00351386
0.0122497
0.0935146
0.000375125
-0.00160254
0.00176201
-0.00505826
0.00432251
-0.0083417
0.00816467
-0.0109895
0.0133925
-0.0127292
0.0201594
-0.0134656
0.0286732
-0.0132091
0.0391787
-0.0119536
0.0521551
-0.00946248
-0.00473673
0.0691415
0.000811448
-0.00241399
0.00264503
-0.00689185
0.00522444
-0.0109211
0.00844708
-0.0142122
0.0123154
-0.0165975
0.0169187
-0.0180689
0.022404
-0.0186943
0.0289599
-0.0185095
0.0368857
-0.0173882
-0.01544
0.0475889
8.4461e-05
-0.00249845
3.7597e-05
-0.00684498
-0.000250614
-0.0106329
-0.000717179
-0.0137456
-0.00120757
-0.0161071
-0.00151177
-0.0177647
-0.00139659
-0.0188095
-0.000598755
-0.0193074
0.0013364
-0.0193234
-0.0188521
0.00474858
-0.00147379
-0.00102466
-0.00482001
-0.00349877
-0.00927788
-0.00617503
-0.0142821
-0.00874137
-0.0193727
-0.0110165
-0.0241467
-0.0129907
-0.0282477
-0.0147085
-0.0313641
-0.016191
-0.0332678
-0.0174196
-0.0186907
-0.0334293
-0.00341552
0.00239086
-0.0104912
0.00357692
-0.0193361
0.00266986
-0.0288978
0.000820362
-0.0385126
-0.00140168
-0.0478156
-0.00368771
-0.0565792
-0.00594498
-0.0646204
-0.00814974
-0.0717576
-0.0102825
-0.0125213
-0.077927
-0.00508145
0.00747231
-0.0151141
0.0136096
-0.0272372
0.0147929
-0.0400268
0.0136099
-0.052937
0.0115086
-0.0657189
0.00909416
-0.0782332
0.00656933
-0.0903813
0.00399841
-0.102081
0.00141728
-0.00121318
-0.113389
-0.0059246
0.0133969
-0.0175456
0.0252306
-0.0314922
0.0287396
-0.0461873
0.028305
-0.0610184
0.0263397
-0.0757757
0.0238515
-0.0903687
0.0211623
-0.104725
0.018355
-0.118765
0.0154574
0.0125535
-0.132532
-0.00564107
-0.0171438
-0.0312346
-0.0462677
-0.0615549
-0.0768368
-0.0919884
-0.106909
-0.121501
-0.135824
0.212696
0.0628253
-0.13569
0.229121
0.397857
-0.414282
0.233886
0.371724
-0.376488
0.244004
0.097901
-0.108019
0.236472
-0.0508128
0.058345
0.216486
-0.0524955
0.0724813
0.202656
-0.0306306
0.0444611
0.19875
-0.018276
0.0221814
0.201672
-0.0177665
0.0148452
-0.0167673
0.0110913
0.174561
-0.0182206
0.221444
0.350973
0.245413
0.347755
0.257723
0.0855911
0.239463
-0.0325534
0.215072
-0.0281042
0.202294
-0.0178523
0.200038
-0.0160199
0.203576
-0.0213045
-0.0219366
0.13382
-0.0828989
0.195028
0.289765
0.235148
0.307635
0.245127
0.0756118
0.221985
-0.00941156
0.202112
-0.00823115
0.196366
-0.0121063
0.198515
-0.0181684
0.203735
-0.026525
-0.0269228
0.0839035
-0.119213
0.151432
0.222236
0.200378
0.258689
0.20596
0.0700298
0.189663
0.00688633
0.184224
-0.00279283
0.189388
-0.0172698
0.196682
-0.0254632
0.203606
-0.0334486
-0.0317492
0.0263966
-0.140862
0.0892015
0.159431
0.138506
0.209385
0.150559
0.0579768
0.156417
0.00102755
0.169953
-0.0163283
0.18492
-0.0322367
0.195917
-0.0364605
0.203814
-0.0413451
-0.0362573
-0.0484445
-0.125846
0.0079074
0.10308
0.0659089
0.151383
0.104256
0.0196297
0.136211
-0.0309271
0.163508
-0.0436258
0.183814
-0.052543
0.196386
-0.0490315
0.204442
-0.0494015
-0.0402922
-0.125221
-0.0785523
-0.0676795
0.045538
0.0192143
0.0644895
0.0830215
-0.0441775
0.130133
-0.0780385
0.163127
-0.0766204
0.184952
-0.0743678
0.197632
-0.0617112
0.205355
-0.0571244
-0.043794
-0.1737
-0.0182412
-0.102393
-0.0257691
0.00610442
-0.0440081
0.0795104
-0.117583
0.131352
-0.12988
0.165446
-0.110714
0.187005
-0.095927
0.199198
-0.0739039
0.206414
-0.0643406
-0.046789
-0.18976
0.0389864
-0.107744
-0.107785
0.00774124
-0.159493
0.0821673
-0.19201
0.134701
-0.182414
0.16844
-0.144453
0.189268
-0.116755
0.200852
-0.0854884
0.20755
-0.0710379
-0.0493446
-0.184081
-0.100717
0.0126747
0.0872895
0.139041
0.171759
0.191641
0.202564
0.208748
0.0482692
0.0371184
-0.0853876
0.0103216
0.0379476
-0.0180177
0.0283392
-0.0224253
0.00440762
-0.00246178
-0.0199635
0.0208397
-0.0233015
0.0348545
-0.0140148
0.0407844
-0.00592986
0.0431176
-0.00233328
-0.00102883
0.194394
0.115606
-0.272882
0.0879439
0.144398
0.0183068
0.0979763
0.0119396
0.0107748
0.0426782
-0.050702
0.0777465
-0.0583699
0.0993157
-0.0355839
0.109275
-0.0158895
0.113926
-0.00698435
-0.0033384
0.340796
0.175513
-0.400704
0.20865
0.276544
0.106534
0.200092
0.0845366
0.0327725
0.105962
-0.0721277
0.131717
-0.0841247
0.148875
-0.0527418
0.157707
-0.0247218
0.162691
-0.0119684
-0.00627237
0.419605
0.183497
-0.427589
0.315858
0.380292
0.212247
0.303703
0.175669
0.0693498
0.177773
-0.0742317
0.182536
-0.0888875
0.186009
-0.0562143
0.188596
-0.0273095
0.191507
-0.0148789
-0.0089825
0.400834
-0.353028
0.366844
0.294059
0.255389
0.239502
0.223096
0.211343
0.206215
0.206181
0.0105
-0.000163145
-0.0103369
0.0120922
-0.0015922
0.0149883
-0.00289609
0.0193923
-0.00440397
0.0257237
-0.0063314
0.0333011
-0.0075774
0.0435746
-0.0102735
0.0554342
-0.0118596
0.0699541
-0.0145199
-0.0154335
0.0289901
-0.000900578
-0.0282527
0.0335434
-0.00614553
0.0418017
-0.0111544
0.0549675
-0.0175697
0.0734569
-0.0248209
0.0970335
-0.0311539
0.130432
-0.043672
0.167989
-0.049417
0.216721
-0.0632511
-0.0715946
0.0449509
-0.00247082
-0.0433807
0.0522073
-0.013402
0.0652856
-0.0242326
0.0860418
-0.038326
0.114213
-0.0529918
0.152405
-0.0693466
0.201749
-0.0930154
0.257853
-0.105521
0.33009
-0.135489
-0.142208
0.0582595
-0.00501017
-0.0557202
0.0677478
-0.0228902
0.0848268
-0.0413117
0.110823
-0.0643222
0.146118
-0.0882865
0.193345
-0.116574
0.247296
-0.146966
0.312388
-0.170613
0.380647
-0.203748
-0.18915
0.0690135
-0.065465
0.0803003
0.100318
0.129442
0.168982
0.216965
0.269943
0.325276
0.348067
0.0810965
-0.0726757
0.0805206
-0.0889414
0.0725324
-0.0737489
0.082313
0.0636536
-0.0754582
0.084337
0.0541981
-0.0772854
0.0867409
0.0440757
-0.0791025
0.0892249
0.0334055
-0.080595
0.0912652
0.022551
-0.0806757
0.0915302
0.012264
-0.0765739
0.0868609
0.00396142
-0.0628476
0.0711502
-0.0309908
0.0349523
0.0895312
-0.063274
-0.0989329
0.0797626
-0.0639803
0.0693634
-0.065059
0.0583922
-0.0663142
0.0470033
-0.0677136
0.0353787
-0.0689704
0.0238136
-0.0691107
0.0129662
-0.0657264
0.00421248
-0.0540939
-0.0267784
0.0910059
-0.052698
-0.101582
0.0803245
-0.0532989
0.0694462
-0.0541808
0.0583767
-0.0552447
0.0470888
-0.0564257
0.0355835
-0.0574651
0.0240498
-0.057577
0.0131281
-0.0548048
0.00425879
-0.0452246
-0.0225196
0.0960865
-0.0418622
-0.106922
0.0850927
-0.0423051
0.0738698
-0.0429579
0.0623399
-0.0437147
0.0504531
-0.0445389
0.0382461
-0.0452581
0.0259617
-0.0452926
0.0142842
-0.0431272
0.00471204
-0.0356525
-0.0178075
0.0986669
-0.0305717
-0.109957
0.0872346
-0.0308728
0.0755549
-0.0312782
0.0636022
-0.031762
0.051368
-0.0323047
0.0388999
-0.0327901
0.0264133
-0.032806
0.0145474
-0.0312613
0.00479787
-0.0259029
-0.0130097
0.10176
-0.0191078
-0.113224
0.0900723
-0.0191848
0.0781323
-0.0193381
0.065909
-0.0195386
0.0533806
-0.0197764
0.0405733
-0.0199827
0.0276834
-0.0199161
0.0153531
-0.018931
0.0051259
-0.0156758
-0.00788376
0.103869
-0.00740118
-0.115576
0.0919596
-0.00727544
0.079793
-0.00717147
0.0673409
-0.00708651
0.0545808
-0.00701634
0.0415354
-0.0069373
0.0283926
-0.00677332
0.0157874
-0.0063258
0.00528831
-0.00517662
-0.00259546
0.105596
0.00443493
-0.117433
0.0935233
0.00479767
0.081182
0.0051698
0.0685454
0.00555014
0.0555927
0.00593635
0.0423468
0.00630854
0.0289926
0.00658094
0.0161617
0.00650512
0.00543681
0.00554823
0.00284135
0.106708
0.0163673
-0.118641
0.0945316
0.0169745
0.0820809
0.0176205
0.0693298
0.0183012
0.0562569
0.0190092
0.0428826
0.0196828
0.0293877
0.0200758
0.0164032
0.0194897
0.00552792
0.0164235
0.00836927
0.1072
-0.119191
0.0949708
0.0824668
0.0696634
0.0565391
0.0431116
0.0295574
0.0165057
0.00556485
0.0131086
-0.150787
-0.0151536
0.00876743
-0.164902
0.00341953
-0.17301
-0.00207608
-0.177925
-0.00705622
-0.180717
-0.0107503
-0.180793
-0.0121341
-0.175215
-0.010147
-0.15787
-0.0048675
-0.119582
-0.0514187
0.0355002
-0.147908
-0.038379
0.0296638
-0.159066
0.0225828
-0.165929
0.0151906
-0.170532
0.00804021
-0.173566
0.00172875