# Selection   : all
# Cells       : 440
# Volume      : 7.374263e+01
# Time        	minMag(U)
2.3           	6.693502e-03
2.35          	1.188900e-02
2.4           	1.683641e-02
