/*--------------------------------*- C++ -*----------------------------------*\
  =========                 |
  \\      /  F ield         | OpenFOAM: The Open Source CFD Toolbox
   \\    /   O peration     | Website:  https://openfoam.org
    \\  /    A nd           | Version:  13
     \\/     M anipulation  |
\*---------------------------------------------------------------------------*/
FoamFile
{
    format      ascii;
    class       volVectorField;
    location    "0.11";
    object      U;
}
// * * * * * * * * * * * * * * * * * * * * * * * * * * * * * * * * * * * * * //

dimensions      [0 1 -1 0 0 0 0];

internalField   nonuniform List<vector> 
440
(
(0.218227 -0.176651 -1.81369e-19)
(0.613121 -0.436729 1.07182e-18)
(0.984498 -0.641308 4.10099e-19)
(1.32794 -0.796372 1.26918e-18)
(1.63317 -0.918371 -2.60579e-19)
(0.304855 -0.177654 -5.43288e-19)
(0.819151 -0.428694 -1.0176e-18)
(1.28012 -0.61902 1.16689e-19)
(1.6922 -0.761995 -1.21497e-18)
(2.05417 -0.875771 -1.02245e-18)
(0.384862 -0.152393 -6.97439e-19)
(1.0047 -0.362996 1.58883e-18)
(1.53986 -0.5184 -1.93055e-18)
(2.00492 -0.632726 1.39451e-18)
(2.40624 -0.721693 1.42102e-18)
(0.445877 -0.102745 5.62216e-19)
(1.14615 -0.243078 -1.29901e-18)
(1.73755 -0.344814 -7.52196e-19)
(2.24311 -0.418245 1.96174e-18)
(2.67467 -0.474533 2.50269e-18)
(0.47928 -0.0361596 6.8699e-19)
(1.2237 -0.0847582 1.69369e-19)
(1.846 -0.119376 2.53038e-18)
(2.37416 -0.143895 -1.06344e-18)
(2.8231 -0.162553 -4.84756e-19)
(-0.00230341 -0.0552214 2.60565e-19)
(0.0455451 -0.154781 -2.16228e-19)
(0.100212 -0.237792 9.96003e-19)
(0.16459 -0.310366 -1.78828e-19)
(0.231821 -0.373488 -1.70646e-18)
(0.0138402 -0.0859352 -3.05742e-19)
(0.0884138 -0.233211 -6.63615e-19)
(0.172544 -0.36026 9.70282e-20)
(0.266193 -0.463833 5.76607e-20)
(0.362012 -0.54604 -3.53232e-20)
(0.0438042 -0.114915 6.50811e-20)
(0.165969 -0.305843 6.58134e-19)
(0.29663 -0.473082 1.03337e-19)
(0.433252 -0.607744 1.31316e-18)
(0.568288 -0.70847 -2.32311e-20)
(0.0868917 -0.141247 6.68419e-20)
(0.276878 -0.369109 -4.85715e-20)
(0.470182 -0.565999 2.4033e-19)
(0.662275 -0.723721 -1.94257e-18)
(0.845177 -0.837503 9.4085e-19)
(0.142189 -0.161767 -2.33231e-19)
(0.420272 -0.413343 -4.36237e-19)
(0.69177 -0.622835 -7.48735e-19)
(0.950759 -0.7851 9.27295e-19)
(1.18613 -0.896899 3.37904e-18)
(0.580052 -0.615186 -4.27868e-18)
(0.94969 -0.488898 9.95865e-19)
(1.20586 -0.204975 3.14784e-19)
(1.27387 -0.0819944 -6.97356e-19)
(1.30599 -0.0221928 -1.36725e-19)
(0.778048 -0.764138 5.05828e-18)
(1.02568 -0.589295 -3.13984e-19)
(1.24542 -0.24573 -2.06252e-19)
(1.29761 -0.0960145 3.09225e-19)
(1.31834 -0.0256869 2.46422e-19)
(1.0333 -0.895749 1.55246e-18)
(1.15628 -0.671686 3.71213e-18)
(1.28419 -0.283988 1.16594e-19)
(1.32317 -0.107492 3.61345e-19)
(1.33212 -0.0283563 -9.98895e-20)
(1.3299 -1.00375 1.29411e-18)
(1.33094 -0.731757 -4.10227e-19)
(1.33762 -0.31635 -6.26067e-19)
(1.34882 -0.11523 -1.94959e-19)
(1.34672 -0.0300206 7.34494e-21)
(1.63126 -1.06041 -5.70907e-20)
(1.52238 -0.773747 -1.39459e-18)
(1.40364 -0.345954 0)
(1.37212 -0.122248 2.63281e-19)
(1.3612 -0.0308342 5.94016e-20)
(2.15651 -1.12158 -1.64062e-18)
(1.79047 -0.76635 -4.89439e-19)
(1.52367 -0.344611 5.81002e-21)
(1.41321 -0.118702 -2.47784e-20)
(1.3801 -0.0290942 -1.34144e-19)
(2.63125 -0.892618 -1.60335e-18)
(1.90077 -0.571884 2.47476e-18)
(1.53118 -0.246504 1.29676e-20)
(1.38481 -0.0858735 2.58902e-19)
(1.33423 -0.0200338 0)
(2.48068 -0.524081 -6.94265e-18)
(1.6115 -0.319609 -1.50584e-19)
(1.21445 -0.133464 2.0691e-18)
(1.07206 -0.0495434 -2.98083e-19)
(1.02775 -0.0119501 -9.67995e-21)
(1.76154 -0.220762 6.84919e-18)
(1.08524 -0.128685 1.47519e-18)
(0.778818 -0.0545149 2.47993e-19)
(0.673157 -0.0213322 3.11691e-33)
(0.641274 -0.00490359 -1.86027e-19)
(0.682178 -8.75972e-05 1.5883e-18)
(0.393408 0.0232916 7.59395e-19)
(0.277335 0.0183619 -4.13116e-19)
(0.238003 0.00689599 1.39306e-19)
(0.223504 0.00260297 -4.03701e-20)
(3.5821 -0.168311 1.25702e-17)
(3.41751 -0.503112 -1.04425e-17)
(3.1371 -0.787374 7.10116e-18)
(2.78101 -0.996931 2.32362e-18)
(2.33345 -1.10338 -4.1713e-19)
(3.78428 -0.103717 1.03945e-17)
(3.71717 -0.324529 -6.63822e-19)
(3.57744 -0.55187 -4.26905e-18)
(3.37796 -0.785758 2.6885e-18)
(3.09985 -1.0197 -6.61657e-19)
(3.11464 -0.0605727 3.65455e-18)
(3.09846 -0.181817 -2.51903e-18)
(3.05947 -0.30994 5.01346e-18)
(2.99892 -0.445266 -1.5276e-19)
(2.92465 -0.594165 -4.79361e-18)
(2.19063 -0.027621 2.78853e-18)
(2.18357 -0.0834658 8.43e-18)
(2.16426 -0.144246 -6.53196e-19)
(2.13355 -0.207715 -6.60502e-18)
(2.11236 -0.270077 1.94564e-18)
(0.879345 -0.0018401 5.21259e-18)
(0.876379 -0.00524379 -1.16361e-19)
(0.867193 -0.00958611 -4.28492e-20)
(0.850194 -0.016301 -2.00749e-18)
(0.840643 -0.0230033 -3.59676e-18)
(1.65268 0.939775 2.26891e-18)
(1.34804 0.816623 -7.78251e-20)
(1.00328 0.658636 -3.7316e-20)
(0.627863 0.449502 -1.95726e-19)
(0.225251 0.182319 -1.3444e-19)
(2.07018 0.892333 -1.21788e-18)
(1.71046 0.77768 -1.20069e-18)
(1.2982 0.632574 7.31928e-19)
(0.833992 0.438728 -4.84428e-19)
(0.312136 0.182091 -4.16852e-21)
(2.41842 0.735682 -5.90879e-19)
(2.01953 0.64526 5.25255e-19)
(1.5549 0.528707 2.43647e-18)
(1.01748 0.37017 8.0834e-19)
(0.391317 0.155276 5.25995e-19)
(2.68199 0.486578 1.38579e-20)
(2.25236 0.428204 -2.71885e-19)
(1.74742 0.352274 -6.46529e-19)
(1.15475 0.247624 2.0568e-18)
(0.45032 0.104141 -3.26761e-19)
(2.82554 0.173773 -1.17132e-18)
(2.37735 0.152585 -1.60636e-18)
(1.84946 0.125314 -7.28825e-19)
(1.22675 0.0878221 7.96133e-19)
(0.480873 0.036686 -3.25693e-19)
(0.234631 0.422143 -2.13554e-18)
(0.165801 0.358308 -1.73821e-18)
(0.0998065 0.28067 2.71107e-19)
(0.0437365 0.185109 1.08893e-20)
(-0.00188561 0.0676177 4.73635e-20)
(0.369458 0.595937 -7.8642e-19)
(0.272892 0.511317 -5.95272e-19)
(0.177987 0.399671 2.59317e-21)
(0.092223 0.258881 -2.24642e-20)
(0.0167605 0.0959648 2.1321e-20)
(0.58187 0.753338 2.12351e-18)
(0.446384 0.649546 -1.26522e-19)
(0.308061 0.50667 -1.10647e-19)
(0.174446 0.327875 -2.21684e-19)
(0.0483007 0.123588 1.71805e-19)
(0.862293 0.874538 -1.28063e-18)
(0.679438 0.758144 1.94749e-18)
(0.485494 0.593867 2.76086e-19)
(0.28845 0.388164 1.03869e-19)
(0.0925076 0.149083 -1.16602e-19)
(1.20357 0.925132 -4.44163e-19)
(0.969114 0.811812 -4.59687e-19)
(0.708657 0.645085 3.59908e-19)
(0.433402 0.429189 3.59975e-19)
(0.148491 0.168564 1.90007e-21)
(0.828674 0.147401 -6.61211e-19)
(1.37833 0.149985 8.44025e-20)
(1.18389 0.213648 3.33842e-20)
(0.979255 0.48156 -5.0748e-19)
(0.585745 0.649525 -1.00214e-19)
(0.821481 0.0938303 2.3303e-19)
(1.38335 0.142451 3.53998e-19)
(1.21767 0.242441 -1.00127e-20)
(1.03873 0.581016 -8.02022e-20)
(0.779289 0.802471 7.92297e-19)
(0.815651 0.0417185 -1.87593e-19)
(1.40044 0.130454 -2.68396e-20)
(1.24818 0.269657 -9.10479e-20)
(1.15393 0.664281 -4.31727e-19)
(1.03528 0.934027 2.31375e-19)
(0.811392 -0.0100204 -3.64617e-20)
(1.42623 0.114754 -6.27014e-19)
(1.29033 0.293767 9.74168e-20)
(1.3172 0.723759 9.93999e-19)
(1.33317 1.03875 9.36422e-19)
(0.809221 -0.0581051 1.38512e-19)
(1.45997 0.0971329 6.61796e-20)
(1.34329 0.319473 -4.09589e-20)
(1.49985 0.765213 -1.52035e-19)
(1.63418 1.09111 -2.85876e-18)
(0.815455 -0.131904 5.32901e-19)
(1.50376 0.0665052 3.54683e-19)
(1.4484 0.307658 -1.17438e-20)
(1.75247 0.749287 2.82513e-18)
(2.14888 1.14067 -5.52177e-18)
(0.826588 -0.251181 -4.09326e-20)
(1.51341 0.00713953 -3.95937e-19)
(1.49591 0.225884 1.77206e-20)
(1.86275 0.562418 -2.75675e-18)
(2.59461 0.899726 1.63167e-18)
(0.775228 -0.402866 4.93597e-18)
(1.25196 -0.0650315 5.00727e-35)
(1.2252 0.121392 -2.16507e-18)
(1.5953 0.313131 2.80498e-18)
(2.46197 0.52803 5.03602e-18)
(0.629483 -0.28458 1.60507e-19)
(0.785432 -0.0630989 4.18109e-19)
(0.774835 0.0466948 2.81398e-19)
(1.07796 0.125235 6.38502e-19)
(1.75851 0.220209 -8.61975e-18)
(0.320564 -0.0430758 -4.26383e-18)
(0.311984 0.00026523 2.35143e-19)
(0.280472 -0.00763018 1.00748e-18)
(0.394151 -0.0236801 -8.0458e-19)
(0.685474 -5.3186e-05 -1.45687e-18)
(2.34739 1.12001 4.66804e-18)
(2.78659 1.01192 3.45973e-18)
(3.14055 0.802961 -5.68293e-18)
(3.41888 0.519302 -1.46095e-17)
(3.58245 0.185659 1.57639e-17)
(3.07915 1.01774 4.99136e-18)
(3.35456 0.794571 2.565e-17)
(3.55747 0.56031 7.24523e-18)
(3.70142 0.331594 -3.08476e-17)
(3.77793 0.110942 -5.17388e-18)
(2.90756 0.591564 -7.24693e-18)
(2.98688 0.447912 -3.3863e-18)
(3.05248 0.312111 -6.31522e-18)
(3.09522 0.181812 -6.89139e-18)
(3.11385 0.0585091 6.52274e-18)
(2.10584 0.266377 5.39474e-18)
(2.12966 0.206221 -4.06341e-19)
(2.16214 0.143384 4.86742e-18)
(2.18281 0.082335 6.28762e-18)
(2.19051 0.0260877 -5.88694e-18)
(0.841969 0.0222186 -5.71587e-19)
(0.851516 0.0157414 3.51411e-18)
(0.868364 0.00917471 2.44093e-18)
(0.877321 0.00481336 -5.16762e-18)
(0.879724 0.00137071 -3.842e-20)
(0.282059 0.0207643 5.52222e-19)
(0.656937 0.0404806 -7.43706e-19)
(0.973476 0.0440825 -8.18202e-19)
(0.944657 0.0274456 -1.51781e-18)
(0.698138 0.016395 -6.63712e-19)
(0.245687 0.0554793 7.45857e-19)
(0.591506 0.107116 1.4415e-18)
(0.864993 0.125195 -6.9716e-19)
(0.940268 0.0970384 1.96015e-18)
(0.72446 0.0532609 -2.70093e-18)
(0.185704 0.0742862 4.96158e-19)
(0.476577 0.145968 -1.39966e-18)
(0.708037 0.184851 -9.13798e-19)
(0.857537 0.175433 -1.81057e-18)
(0.741867 0.101222 -2.86394e-18)
(0.123397 0.0775275 -7.73329e-19)
(0.344926 0.160574 -1.37692e-18)
(0.534787 0.215092 4.38795e-18)
(0.677759 0.233315 -3.65372e-19)
(0.713316 0.179979 2.2318e-18)
(0.0754295 0.0725137 -6.28768e-19)
(0.230851 0.160615 1.55507e-18)
(0.372368 0.224812 5.73467e-19)
(0.48228 0.25716 -1.27895e-18)
(0.560237 0.257475 -1.78208e-19)
(0.0454377 0.0642332 6.01006e-20)
(0.150466 0.149685 -1.16092e-18)
(0.248168 0.211507 -8.23858e-19)
(0.324868 0.231232 -2.1846e-19)
(0.372021 0.220758 -5.24829e-20)
(0.0261728 0.0561917 3.12091e-19)
(0.0959053 0.133215 4.43737e-19)
(0.161555 0.176818 -3.11437e-19)
(0.214319 0.182883 2.70188e-19)
(0.256195 0.171058 1.81771e-19)
(0.0124357 0.0472505 2.20081e-19)
(0.0600421 0.100374 1.90952e-18)
(0.104981 0.102335 -1.42743e-18)
(0.145595 0.0866608 -2.92998e-18)
(0.18444 0.0645345 4.7158e-19)
(0.00800404 0.0348017 -2.66377e-19)
(0.0443089 0.027949 -1.77904e-18)
(0.0798598 -0.000117861 3.20834e-18)
(0.120487 -0.0325223 1.38581e-18)
(0.162238 -0.0664086 -2.89046e-19)
(0.00266936 -0.0172537 1.386e-19)
(0.0372228 -0.0690309 -3.73822e-19)
(0.0763526 -0.116211 8.71185e-20)
(0.124096 -0.16483 1.06394e-19)
(0.173869 -0.211523 -6.58617e-20)
(0.36112 0.0603832 -1.0212e-19)
(0.6391 -0.0395562 -1.14946e-18)
(0.730547 -0.0237772 2.64805e-19)
(0.77812 -0.00992917 3.64019e-19)
(0.801295 -0.00317616 2.88276e-20)
(0.329255 -0.055244 -6.43607e-20)
(0.777278 -0.111555 1.23779e-18)
(0.916484 -0.0396817 9.71471e-19)
(0.982772 -0.0158539 9.46954e-20)
(1.01712 -0.00479004 -8.21665e-20)
(0.339673 -0.170769 -8.40742e-19)
(0.850132 -0.190331 2.56263e-18)
(1.05686 -0.0698361 -2.1228e-19)
(1.15865 -0.0287387 -4.44103e-19)
(1.20707 -0.00822534 1.40509e-19)
(0.378367 -0.31027 1.0997e-18)
(0.886449 -0.285418 -1.70788e-18)
(1.12129 -0.115544 -5.39056e-19)
(1.23264 -0.0487122 -4.81371e-20)
(1.28358 -0.0134521 -1.61981e-20)
(0.451389 -0.459765 5.03785e-19)
(0.913515 -0.385449 -4.61738e-19)
(1.16369 -0.161286 4.50019e-19)
(1.25365 -0.0660114 1.83657e-19)
(1.29555 -0.0180228 -3.00008e-20)
(0.1835 -0.0446964 9.49382e-19)
(0.150039 -0.00374402 0)
(0.169505 0.00264431 1.248e-19)
(0.177958 0.00165577 6.63221e-20)
(0.180857 0.000542835 -1.06937e-19)
(0.409931 0.0686291 0)
(0.423666 -0.00149769 0)
(0.487248 -0.00885543 1.62065e-19)
(0.513655 -0.00332297 1.54496e-19)
(0.52385 -0.00110693 1.47362e-21)
(0.162744 -0.000821257 -3.68507e-19)
(0.186462 -0.00178911 3.10802e-18)
(0.213259 -0.00500572 -6.87448e-19)
(0.229824 -0.0149594 -3.114e-18)
(0.245581 -0.0167336 -7.91696e-19)
(0.432174 0.00444464 6.09965e-19)
(0.484709 0.0197071 4.11618e-18)
(0.536638 0.0466806 -6.73282e-18)
(0.568055 0.0804827 2.20335e-18)
(0.599211 0.162625 3.79587e-18)
(0.37195 -0.218307 -3.89769e-19)
(0.324057 -0.229112 -6.61315e-20)
(0.248621 -0.211584 -2.26262e-19)
(0.151208 -0.151231 3.53029e-19)
(0.0460394 -0.0649585 1.17364e-19)
(0.26085 -0.158457 4.55166e-19)
(0.216423 -0.17131 1.54768e-18)
(0.16314 -0.169217 3.66399e-19)
(0.0975065 -0.132708 2.43612e-19)
(0.0265636 -0.0571871 -2.31525e-22)
(0.195493 -0.0406896 -3.49654e-19)
(0.152496 -0.0632475 -9.49939e-20)
(0.108629 -0.0813871 1.73876e-18)
(0.0627591 -0.0869843 3.5352e-19)
(0.0125872 -0.0459734 -3.12197e-19)
(0.173974 0.0994704 -7.20621e-19)
(0.128471 0.0661328 -7.58051e-19)
(0.0840941 0.0330231 1.32899e-18)
(0.0466964 0.00316746 1.65449e-18)
(0.0122417 -0.0227205 2.23302e-19)
(0.178798 0.252959 9.93392e-20)
(0.126006 0.206783 -1.36598e-19)
(0.07531 0.15665 2.3864e-19)
(0.0330724 0.103728 5.25995e-19)
(-0.00472509 0.0380273 5.71997e-20)
(0.698134 -0.0163509 1.53167e-18)
(0.944661 -0.0274247 -1.80068e-18)
(0.973286 -0.0442114 2.27e-18)
(0.656949 -0.0405447 3.64877e-19)
(0.282094 -0.0207731 5.36776e-19)
(0.724447 -0.053158 1.77262e-18)
(0.940121 -0.0970566 7.94559e-18)
(0.864794 -0.125303 1.0336e-18)
(0.591562 -0.10716 1.34954e-18)
(0.245786 -0.0555015 -4.78569e-19)
(0.741771 -0.100994 -1.22843e-18)
(0.856947 -0.175285 -2.29458e-18)
(0.707962 -0.184916 2.92383e-18)
(0.476655 -0.146045 -1.08219e-19)
(0.185835 -0.0743269 3.39513e-19)
(0.712809 -0.179825 3.52002e-20)
(0.6771 -0.233265 -7.66574e-18)
(0.53481 -0.215382 -5.978e-18)
(0.345069 -0.160887 1.08865e-18)
(0.123584 -0.077634 5.08585e-19)
(0.558338 -0.25626 4.77003e-19)
(0.481411 -0.256676 5.32767e-19)
(0.372446 -0.225391 -8.84125e-19)
(0.231133 -0.161385 -8.81042e-19)
(0.0757696 -0.072769 -5.10339e-21)
(0.716666 0.366166 1.11928e-18)
(0.950364 0.110136 -1.44886e-19)
(0.730675 0.0299026 2.58463e-19)
(0.660502 0.0408591 -6.89137e-19)
(0.382277 -0.0559507 -9.85797e-20)
(0.806223 0.388795 -1.54804e-19)
(1.19092 0.130831 -6.35198e-19)
(0.927101 0.0571283 6.45299e-19)
(0.811629 0.110416 1.529e-18)
(0.359897 0.0665162 9.12566e-20)
(0.84145 0.336118 -1.82207e-18)
(1.39129 0.137243 -5.10591e-20)
(1.06476 0.0958615 1.36618e-19)
(0.893956 0.189047 1.21032e-18)
(0.37388 0.188481 -1.17782e-18)
(0.84292 0.264598 1.33123e-18)
(1.4056 0.146334 6.13485e-20)
(1.11871 0.141389 -1.47102e-19)
(0.930242 0.283249 9.84878e-21)
(0.40774 0.333058 -4.24429e-19)
(0.83658 0.203221 1.96711e-19)
(1.38667 0.151673 -9.54081e-20)
(1.14953 0.180433 -9.24001e-20)
(0.952831 0.381258 1.35327e-19)
(0.468467 0.488032 1.42672e-18)
(0.273572 0.0480749 0)
(0.252912 -0.00805316 5.96137e-19)
(0.169041 -0.0158446 1.25236e-19)
(0.154981 0.00368245 -2.26132e-19)
(0.185132 0.0435918 -1.80663e-18)
(0.567225 0.262742 -1.01236e-17)
(0.644981 0.0695789 -2.27212e-18)
(0.483807 0.015081 6.73946e-19)
(0.435745 0.00322244 -6.55731e-19)
(0.415593 -0.0664427 -6.56809e-19)
(0.245762 0.0166879 1.11033e-21)
(0.229926 0.0150406 1.92552e-18)
(0.21334 0.00505011 5.23811e-19)
(0.186513 0.00179922 3.23062e-19)
(0.162759 0.000825145 0)
(0.599856 -0.162396 -1.35621e-19)
(0.568513 -0.0802323 2.56231e-18)
(0.53673 -0.0464708 -1.38347e-19)
(0.484766 -0.0196547 -2.70484e-19)
(0.432197 -0.00442237 7.60635e-19)
)
;

boundaryField
{
    left
    {
        type            fixedValue;
        value           uniform (1 0 0);
    }
    right
    {
        type            zeroGradient;
    }
    down
    {
        type            noSlip;
    }
    up
    {
        type            noSlip;
    }
    cylinder
    {
        type            noSlip;
    }
    defaultFaces
    {
        type            empty;
    }
}


// ************************************************************************* //
