/*--------------------------------*- C++ -*----------------------------------*\
  =========                 |
  \\      /  F ield         | OpenFOAM: The Open Source CFD Toolbox
   \\    /   O peration     | Website:  https://openfoam.org
    \\  /    A nd           | Version:  13
     \\/     M anipulation  |
\*---------------------------------------------------------------------------*/
FoamFile
{
    format      ascii;
    class       surfaceScalarField;
    location    "58.6";
    object      phi;
}
// * * * * * * * * * * * * * * * * * * * * * * * * * * * * * * * * * * * * * //

dimensions      [0 3 -1 0 0 0 0];

internalField   nonuniform List<scalar> 
823
(
-0.00442738
0.0184824
-0.0140551
0.00335118
0.0123704
-0.020149
0.0458374
-0.0332093
-0.00927686
0.126665
-0.0892933
0.00846576
-0.115402
-0.0121547
0.254222
0.00786231
0.0106201
0.0549559
-0.0347232
0.141694
-0.119947
0.251425
-0.199024
-0.267735
0.403758
0.0224978
-0.0118777
0.106027
-0.118252
0.216121
-0.230042
0.323726
-0.306629
-0.352402
0.408392
0.0423977
-0.0542753
0.137322
-0.213176
0.222576
-0.315296
0.276627
-0.36068
-0.375419
0.299645
0.0555432
-0.109819
0.127121
-0.284754
0.169079
-0.357254
0.185652
-0.377253
0.19285
-0.382618
0.0102819
-0.0389484
0.0286665
0.0286624
-0.0738452
0.0554647
0.0481858
-0.0786613
0.059138
0.0694005
-0.0668192
0.0456045
-0.0398162
0.0918743
0.0173424
0.0248428
-0.0637912
0.0555728
-0.104575
0.0829339
-0.106022
0.107833
-0.0917187
-0.0627507
0.130768
0.0210494
-0.0848406
0.0377494
-0.121275
0.0505366
-0.11881
0.060358
-0.10154
-0.0697473
0.0673546
-0.0364698
-0.0483708
-0.0970688
-0.0606763
-0.158433
-0.0574453
-0.213077
-0.0468965
-0.0151379
-0.267686
-0.0624258
-0.143251
-0.209973
-0.248404
-0.275697
0.0998086
1.60734
-1.61528
0.26126
0.783251
-0.944702
0.473641
-1.6509
1.43852
0.527284
-1.29702
1.24338
-0.45848
0.452225
0.354498
1.38361
0.409373
0.728376
0.505617
-1.74715
0.544685
-1.33609
-0.461905
0.395982
1.05499
0.525616
0.598742
0.545701
-1.76723
0.517603
-1.30799
-0.461569
0.237605
0.549695
0.617961
0.218386
0.594639
-1.74391
0.525483
-1.23883
-0.426548
0.165571
0.108428
0.631656
-0.247699
0.559949
-1.6722
0.501265
-1.18015
-0.393402
0.999023
0.179524
-1.07012
1.4034
-0.652077
1.15857
-1.42737
0.837832
-0.859414
-0.268906
1.38827
0.150333
-1.35908
1.50535
-0.769158
1.0847
-1.00672
0.690644
-0.465356
-0.186224
1.44333
0.0393518
-1.33235
1.32519
-0.651016
0.952435
-0.633967
0.729403
-0.242324
-0.126654
1.38844
-0.0710281
-1.27806
1.11667
-0.379241
0.725486
-0.242786
0.578176
-0.0950141
-0.062153
0.813025
-0.884053
0.433784
0.190998
0.0959837
1.07329
0.139118
-1.01956
1.14097
0.23197
1.24625
0.303107
1.24794
0.402066
0.432047
0.990491
0.0708538
-0.922227
1.05247
0.16999
1.15942
0.19616
1.25036
0.311127
0.323323
0.944068
0.0317647
-0.904979
1.00356
0.110495
1.08675
0.112971
1.20375
0.194132
0.194722
0.897848
0.00816971
-0.874253
0.967613
0.04073
1.0383
0.0422873
1.15875
0.0736791
0.0754097
0.651947
-0.643777
0.692677
0.734964
0.808643
0.122972
0.293718
-0.24506
-0.17163
0.0807816
0.300167
-0.257977
0.0433193
0.310579
-0.273116
0.0132283
0.300903
-0.270812
0.192359
-0.179131
0.0909452
0.329765
-0.126992
0.0565876
0.334525
0.0267025
0.340464
0.00381695
0.323789
0.196176
0.0512241
0.358859
-0.0803181
0.0232718
0.362477
0.000128186
0.363607
-0.0091545
0.333071
0.187022
-0.0203419
0.375587
0.00361363
-0.0350037
0.377139
-0.0404202
0.369024
-0.0291989
0.32185
0.157823
-0.096756
0.0897251
-0.0968701
-0.0851004
-0.0480044
0.20426
0.0950497
-0.257845
-0.0414646
0.149603
0.0989288
-0.0442722
0.0933532
0.103215
-0.0469648
0.0381863
0.102756
-0.0475892
0.0723796
-0.0341933
0.198759
0.140279
-0.243988
0.151178
0.14651
0.0984711
0.155921
0.042068
0.159159
0.114448
0.150225
0.1861
-0.196047
0.106791
0.189944
0.064505
0.198208
0.0243211
0.199343
0.138769
0.156659
0.220757
-0.191316
0.116137
0.230466
0.0710999
0.243245
0.0274071
0.243036
0.166176
0.0981135
-0.122416
0.0706028
0.0407316
0.0129552
0.404558
0.0574222
-0.0660005
0.427368
-0.00614989
-0.01666
0.41387
0.182084
-0.168586
0.395528
0.164193
-0.145851
0.402594
-0.264911
0.40323
0.0501722
0.422072
-0.0249928
0.401793
0.202363
0.383136
0.182851
0.541742
0.398638
0.0475135
0.416484
-0.0428384
0.3791
0.239747
0.367865
0.194086
0.71356
0.398103
0.0453905
0.401643
-0.0463793
0.364765
0.276626
0.345751
0.213099
0.867995
0.392704
0.048666
0.388209
-0.0418841
0.334176
0.330659
0.316516
0.23076
1.06209
0.634599
0.0180878
0.643167
-0.050452
0.671649
0.302176
0.773859
0.12855
0.861065
0.974888
0.651656
-0.0295479
0.626966
-0.0257618
0.695074
0.234068
0.780182
0.0434417
0.67816
0.963087
0.64722
-0.0727478
0.623839
-0.00238006
0.702844
0.155063
0.765229
-0.0189434
0.471952
0.971438
0.610598
-0.0793252
0.622704
-0.0144865
0.738855
0.038912
0.748306
-0.0283946
0.229642
0.990615
0.524695
0.510209
0.549121
0.520726
0.750369
0.99029
-0.187031
0.984739
-0.121441
0.978374
-0.0739532
0.991695
-0.00970765
0.0618597
0.916949
-0.140894
0.902897
-0.107389
0.884795
-0.0558508
0.906062
-0.0309748
0.0456951
0.924106
-0.0935618
0.896908
-0.0801916
0.883767
-0.0427094
0.885194
-0.0324015
0.0259102
0.934062
-0.0370081
0.888742
-0.034872
0.86757
-0.0215376
0.853756
-0.0185871
0.00541335
0.71336
0.678488
0.656951
0.638364
0.0513292
0.184744
-0.236073
0.072714
0.379348
-0.400732
0.0706174
0.429529
-0.427433
0.0612652
0.427061
-0.417709
0.392178
0.0486513
-0.379564
0.0818852
0.102858
0.150243
0.310989
0.179224
0.400549
0.183729
0.422556
0.403963
0.171944
0.074603
0.0282553
0.191382
0.19421
0.271267
0.320664
0.30934
0.384483
0.413622
0.29968
0.0396093
-0.011354
0.160053
0.0737665
0.286754
0.193963
0.394108
0.277129
0.359439
0.448291
0.0113008
-0.0226548
0.0846366
0.000430674
0.204257
0.0743424
0.338554
0.142832
0.25395
0.444043
0.00299262
-0.0256474
0.0356015
-0.0321782
0.113387
-0.00344349
0.221419
0.0348013
0.141414
0.333954
0.0066171
-0.0322645
0.0242137
-0.0497748
0.0599546
-0.0391845
0.107891
-0.013135
0.0559556
0.193349
0.0020263
-0.0342908
0.00608754
-0.053836
0.0143795
-0.0474764
0.0264172
-0.0251727
0.0150069
0.0673659
-0.00391591
-0.0303749
-0.00588458
-0.0518673
-0.00285418
-0.0505068
0.00424516
-0.0322721
-8.00204e-05
0.0193321
-0.00170838
0.00188895
0.0105201
0.0238525
0.0411148
0.310521
1.09465
-1.07122
0.0503082
0.858257
-0.598044
0.0907707
-0.105628
0.0651656
0.349729
-0.748125
0.489167
-0.137793
0.0964783
0.276572
1.01143
-0.00518597
1.14002
0.0981544
-0.208968
0.35645
-1.00642
-0.217031
-0.0205479
1.09934
-0.105178
1.22465
0.2054
-0.519547
0.334854
-1.13588
-0.329457
-0.285877
1.40455
-0.184282
1.12305
0.323142
-1.02697
0.378366
-1.1911
-0.417469
-0.169612
0.00873583
0.420286
0.472563
-0.158783
0.64366
-0.484877
-0.264881
0.106098
-0.108689
-0.156192
0.163381
-0.27207
-0.0709351
0.762173
-1.18973
0.270227
0.1792
0.396298
0.0937782
-0.0105411
-0.0832371
0.148666
-0.0548875
0.227895
-0.0792291
0.362341
-0.134446
-0.122536
0.21687
-0.17876
0.333926
0.554378
0.868222
0.149128
-0.155299
0.186766
-0.180595
0.114379
-0.162119
0.196867
0.0746397
-0.17107
0.210809
0.0309618
-0.172257
0.215935
-0.122806
0.153768
0.19317
-0.11423
-0.234238
0.14668
-0.115629
0.0937023
-0.118092
0.038992
-0.117547
-0.0838144
0.190992
-0.0626692
-0.242553
0.138566
-0.0632026
0.0858874
-0.065414
0.0350463
-0.0667054
-0.0487681
0.205988
-0.0103171
-0.25834
0.152961
-0.0101753
0.0979182
-0.0103717
0.0415174
-0.0103047
-0.00725073
0.211122
-0.262903
0.156674
0.0993378
0.041444
0.0530188
-0.356973
-0.0756093
0.0229024
-0.387592
-0.00326264
-0.401268
-0.0158093
-0.388186
-0.251882
0.136633
-0.321839
-0.171767
0.0920191
-0.342978
0.0465726
-0.355821
0.0107641
-0.352377
-0.241118
0.162154
-0.277745
-0.206248
0.11392
-0.294744
0.0669324
-0.308834
0.0244471
-0.309892
-0.216671
0.177816
-0.237732
-0.217829
0.131188
-0.248116
0.0817141
-0.25936
0.0332527
-0.26143
-0.183418
0.174945
-0.225911
0.123696
0.0751458
0.0296499
0.391048
0.0970574
-0.0921254
0.394639
0.0791061
-0.0826974
0.361516
0.144662
-0.111539
0.314006
0.0222353
0.0252754
-0.266935
0.400346
0.398249
0.0947883
0.409133
0.0682216
0.39832
0.155475
0.356713
0.0638425
-0.144461
0.403074
0.0876944
0.418309
0.052986
0.412027
0.161757
0.37888
0.0969897
-0.00813438
0.406618
0.0770563
0.423542
0.0360616
0.42177
0.163529
0.395452
0.123307
0.128978
0.407035
0.426437
0.421381
0.398837
0.416999
0.0930524
0.339135
0.0778637
0.258439
0.080696
0.276662
-0.0182228
-0.216486
0.493148
0.510978
0.506144
0.475301
0.482354
0.666214
0.395281
0.0978665
0.308627
0.0866544
0.207252
0.101375
0.120981
0.0862712
0.0377437
0.538169
0.406995
0.302121
0.216625
)
;

boundaryField
{
    left
    {
        type            calculated;
        value           nonuniform List<scalar> 
17
(
-0.60402
-0.60402
-0.60402
-0.60402
-0.60402
-0.39598
-0.39598
-0.39598
-0.39598
-0.39598
-0.39598
-0.39598
-0.39598
-0.39598
-0.39598
-0.510051
-0.510051
)
;
    }
    right
    {
        type            calculated;
        value           nonuniform List<scalar> 
17
(
0.234316
0.421841
0.391043
0.435688
0.44728
0.466377
0.507319
0.533539
0.54811
0.517267
0.490463
0.46812
0.713337
0.607961
0.669834
0.513674
0.0338307
)
;
    }
    down
    {
        type            calculated;
        value           uniform 0;
    }
    up
    {
        type            calculated;
        value           uniform 0;
    }
    cylinder
    {
        type            calculated;
        value           uniform 0;
    }
    defaultFaces
    {
        type            empty;
    }
}


// ************************************************************************* //
