/*--------------------------------*- C++ -*----------------------------------*\
  =========                 |
  \\      /  F ield         | OpenFOAM: The Open Source CFD Toolbox
   \\    /   O peration     | Website:  https://openfoam.org
    \\  /    A nd           | Version:  13
     \\/     M anipulation  |
\*---------------------------------------------------------------------------*/
FoamFile
{
    format      ascii;
    class       volScalarField;
    location    "0.435";
    object      strainRateViscosityModel:nu;
}
// * * * * * * * * * * * * * * * * * * * * * * * * * * * * * * * * * * * * * //

dimensions      [0 2 -1 0 0 0 0];

internalField   nonuniform List<scalar> 
440
(
9.41959
8.96967
8.54438
8.04232
7.58631
9.68997
9.35816
8.98172
8.47999
7.87559
9.80075
9.53084
9.15876
8.58508
7.84827
9.84963
9.61818
9.25862
8.64757
7.86608
9.86917
9.65608
9.30593
8.68096
7.9088
1.29683
1.7889
2.04891
2.29947
2.36336
3.37734
3.30303
3.32053
3.43068
3.50154
5.89062
5.27209
4.93094
4.73313
4.76339
7.7697
6.99348
6.42103
5.90682
5.82992
8.8208
8.15126
7.55198
6.91859
6.87247
1.85076
0.839194
0.384373
0.10071
0.0357227
2.62264
0.918121
0.33421
0.0586742
0.0111501
3.51927
1.167
0.28694
0.0374599
0.0104234
4.09553
1.45635
0.273015
0.0278062
0.010357
4.60626
1.77373
0.331303
0.0151984
0.0178314
4.23234
1.75248
0.271531
0.0289047
0.180574
3.70827
1.81437
0.578789
0.322829
0.457329
4.91709
3.20767
1.21791
0.57715
0.606626
7.00964
4.29124
1.90393
0.925906
0.772467
8.27287
5.07935
2.49448
1.34215
0.961635
2.84859
3.68314
4.62063
5.50692
6.15069
3.68371
3.69628
3.77151
3.85122
3.36704
8.22666
8.08669
7.7994
7.38529
6.3457
9.05295
8.99242
8.8591
8.62158
8.16026
9.60671
9.56995
9.48702
9.33804
9.11879
7.50374
8.0125
8.55932
9.01085
9.46429
7.79407
8.45154
8.98702
9.37785
9.70867
7.77896
8.55898
9.15937
9.54076
9.80945
7.81626
8.62754
9.25738
9.62275
9.85359
7.89135
8.67367
9.30536
9.65744
9.87034
2.51268
2.45395
2.2545
2.10077
2.02685
3.47491
3.42607
3.46394
3.68017
4.22395
4.64197
4.66354
5.04992
5.59551
6.44234
5.69
5.83048
6.49922
7.18776
8.03965
6.75599
6.84358
7.58099
8.24291
8.93553
0.180798
0.0505351
0.248006
0.827086
2.00603
0.143365
0.0666459
0.199609
0.859736
2.65664
0.120233
0.0783899
0.163283
1.07932
3.4507
0.111135
0.0801975
0.171039
1.40042
3.95479
0.125005
0.0947108
0.272056
1.75043
4.37477
0.18939
0.131811
0.26993
1.87836
4.1091
0.321518
0.151035
0.238512
1.77838
3.85609
0.644758
0.305825
0.785789
3.02973
4.90416
2.26605
0.847581
1.51842
4.16079
6.9608
5.05242
2.56194
2.4375
5.04139
8.27896
5.95033
5.26874
4.40406
3.51139
2.7803
3.52014
3.98899
3.96944
3.87552
3.76345
6.32031
7.35232
7.77927
8.06796
8.21868
8.1215
8.60012
8.84957
8.98869
9.05208
9.11687
9.33777
9.48739
9.5705
9.60696
9.31068
7.91651
1.39851
3.62976
7.73642
9.0816
7.44038
3.20566
1.64047
6.78861
8.39828
6.57718
4.20809
1.0034
4.14723
6.81502
5.09415
3.45484
1.70041
1.03851
4.50312
3.14489
2.03854
1.37768
0.459917
2.59649
1.61862
1.00234
0.796556
0.926237
1.45456
0.778637
0.578893
0.61191
0.684877
0.800129
0.403613
0.586811
0.755406
0.828882
0.305436
0.501206
0.879085
1.04372
1.10531
0.158396
0.93117
1.27553
1.51076
1.56479
0.190684
0.359989
0.6987
0.77128
0.750562
0.395219
0.494961
0.565194
0.623583
0.624027
0.610141
0.63792
0.447345
0.469164
0.484659
0.958083
0.781893
0.395898
0.317781
0.34661
1.32345
0.830623
0.395557
0.182778
0.183925
1.10543
0.857981
1.11653
1.11545
1.04379
0.283809
0.471399
0.857051
0.920954
0.880061
9.19094
8.83835
7.75831
5.72959
3.55916
8.58697
7.72247
5.85104
3.49101
0.865859
0.96608
0.86063
1.02836
1.62015
2.65772
0.816746
0.771265
0.707352
0.82554
1.52357
1.05983
1.01107
0.848136
0.553845
0.736862
1.37452
1.33721
1.13975
0.790681
0.223722
1.83543
1.78888
1.53841
1.22335
0.592295
7.73595
3.62666
1.39983
7.91474
9.31082
6.78475
1.64016
3.20244
7.43727
9.08223
4.13334
1.01087
4.19403
6.57253
8.39982
1.03595
1.70623
3.43312
5.08486
6.82145
0.476969
1.37712
2.01456
3.12669
4.52592
1.30371
0.564818
0.554829
0.457281
0.177659
0.666742
0.314252
0.466808
0.522943
0.489901
0.383639
0.192768
0.372352
0.620512
0.804879
0.278575
0.067562
0.330701
0.760531
1.21356
0.229678
0.0338903
0.295932
0.82586
1.56695
5.47897
2.46882
1.04853
0.97386
1.1426
2.88298
1.10095
0.733325
0.562911
0.250212
3.56843
5.7354
7.7595
8.83888
9.19109
0.841936
3.47098
5.8443
7.7211
8.58682
)
;

boundaryField
{
    left
    {
        type            calculated;
        value           nonuniform List<scalar> 
17
(
0.430779
1.09352
2.17221
3.91014
6.57963
0.289766
0.181378
0.137236
0.14019
0.201452
2.9562
2.053
1.31341
0.792886
0.48156
6.97809
4.5789
)
;
    }
    right
    {
        type            calculated;
        value           nonuniform List<scalar> 
17
(
1.04414
0.881379
0.7521
0.625795
0.485459
0.344217
0.177066
0.031293
0.0105997
0.0102183
0.0103503
0.0241155
0.225848
0.515184
0.646024
0.789185
0.953164
)
;
    }
    down
    {
        type            calculated;
        value           nonuniform List<scalar> 
20
(
5.99305
3.00505
1.15769
1.05659
1.85275
4.27018
6.38334
8.13097
9.01553
9.30907
9.3089
9.01489
8.1295
6.37921
4.26353
1.83124
0.932762
1.18325
1.17314
1.09284
)
;
    }
    up
    {
        type            calculated;
        value           nonuniform List<scalar> 
20
(
8.5486
5.40693
2.72315
1.48639
1.02563
9.69562
9.66614
9.59856
9.47419
9.29337
9.2963
9.47641
9.60015
9.66725
9.69603
5.70071
3.16561
2.67723
5.39682
8.56521
)
;
    }
    cylinder
    {
        type            calculated;
        value           nonuniform List<scalar> 
40
(
1.35845
3.58103
6.11718
7.96067
8.95726
9.50518
9.74578
9.84079
9.88145
9.89746
9.54757
9.76287
9.84856
9.88496
9.89849
2.26274
4.49975
6.68878
8.23274
9.07008
3.04362
1.84794
1.08519
0.434876
0.601273
9.5189
9.33168
8.74194
7.26912
4.98556
9.51873
9.33095
8.73991
7.26092
4.9569
2.965
1.73101
1.07126
0.668015
0.105217
)
;
    }
    defaultFaces
    {
        type            empty;
    }
}


// ************************************************************************* //
