/*--------------------------------*- C++ -*----------------------------------*\
  =========                 |
  \\      /  F ield         | OpenFOAM: The Open Source CFD Toolbox
   \\    /   O peration     | Website:  https://openfoam.org
    \\  /    A nd           | Version:  13
     \\/     M anipulation  |
\*---------------------------------------------------------------------------*/
FoamFile
{
    format      ascii;
    class       volScalarField;
    location    "0.15";
    object      p;
}
// * * * * * * * * * * * * * * * * * * * * * * * * * * * * * * * * * * * * * //

dimensions      [0 2 -2 0 0 0 0];

internalField   nonuniform List<scalar> 
1800
(
-0.932239
-0.87888
-0.785074
-0.680738
-0.584221
-0.499862
-0.426812
-0.362994
-0.306625
-0.260108
-1.10374
-1.04489
-0.939244
-0.821753
-0.713007
-0.617632
-0.534814
-0.462607
-0.399987
-0.348634
-1.26536
-1.20083
-1.0834
-0.953164
-0.832672
-0.72665
-0.634222
-0.553358
-0.482792
-0.423161
-1.41197
-1.34178
-1.21302
-1.07095
-0.939811
-0.824271
-0.72337
-0.634952
-0.557637
-0.49174
-1.53814
-1.46239
-1.32296
-1.17022
-1.0296
-0.905585
-0.797088
-0.701847
-0.618386
-0.546519
-1.63869
-1.55765
-1.40856
-1.24661
-1.09797
-0.966817
-0.851924
-0.75094
-0.662275
-0.585355
-1.70879
-1.6229
-1.4654
-1.29598
-1.14097
-1.00413
-0.884144
-0.778575
-0.685738
-0.604729
-1.74431
-1.65416
-1.4898
-1.3149
-1.15529
-1.01437
-0.890708
-0.781829
-0.685944
-0.601876
-1.74205
-1.64831
-1.47909
-1.30077
-1.13841
-0.995042
-0.869167
-0.75831
-0.660566
-0.57452
-1.70005
-1.60372
-1.43182
-1.2519
-1.0887
-0.944591
-0.817957
-0.706404
-0.607924
-0.520957
0.348779
0.369568
0.387118
0.400451
0.408808
0.412854
0.413609
0.41192
0.408415
0.403664
0.309558
0.331396
0.351436
0.367927
0.379452
0.386401
0.389773
0.390445
0.389075
0.386369
0.24401
0.267464
0.291338
0.312645
0.328992
0.340346
0.347678
0.351915
0.353764
0.354162
0.153584
0.179184
0.208178
0.235863
0.25855
0.275679
0.28818
0.29705
0.303069
0.307487
0.0402711
0.0685087
0.103842
0.139336
0.169718
0.193826
0.212543
0.226951
0.237918
0.247083
-0.0933109
-0.0619729
-0.0191719
0.0254126
0.0646623
0.09678
0.122592
0.143274
0.159791
0.174233
-0.243868
-0.208993
-0.157699
-0.102909
-0.0538028
-0.0128089
0.0208356
0.0483934
0.070936
0.0910355
-0.407467
-0.368634
-0.307936
-0.242001
-0.182228
-0.13165
-0.0895676
-0.0546399
-0.025662
0.000383888
-0.579689
-0.536455
-0.465502
-0.387567
-0.31638
-0.255542
-0.204432
-0.161651
-0.125742
-0.0935398
-0.756032
-0.707926
-0.625851
-0.534986
-0.451417
-0.379219
-0.317809
-0.26568
-0.221097
-0.182148
0.358131
0.27819
0.225282
0.182726
0.147634
0.117436
0.0898212
0.0635586
0.0379315
0.0125935
0.353905
0.278333
0.226452
0.183955
0.148568
0.118044
0.0901885
0.0637637
0.0380297
0.0126151
0.343047
0.276222
0.226611
0.184846
0.149476
0.118732
0.0906594
0.0640595
0.0381875
0.0126568
0.324814
0.271925
0.225806
0.185398
0.150344
0.119489
0.0912257
0.0644402
0.0384016
0.0127179
0.298247
0.265441
0.224097
0.185609
0.151154
0.120303
0.0918781
0.0648993
0.0386682
0.0127978
0.262447
0.256582
0.221522
0.18548
0.151889
0.121158
0.0926066
0.0654298
0.0389837
0.0128958
0.217042
0.244897
0.218061
0.185002
0.152527
0.122039
0.0934002
0.0660242
0.0393439
0.0130115
0.162305
0.229384
0.213577
0.18415
0.153051
0.12293
0.0942475
0.0666744
0.0397445
0.013144
0.0983203
0.2089
0.207552
0.182766
0.153398
0.123804
0.0951359
0.0673731
0.040182
0.0132934
0.0296962
0.184939
0.200326
0.180979
0.153619
0.124676
0.0960684
0.0681193
0.0406555
0.0134635
-0.00269101
0.167141
0.193785
0.178146
0.152554
0.12443
0.0961372
0.0682599
0.0407933
0.0135725
-0.0125632
0.144396
0.178391
0.16893
0.147262
0.121409
0.0943987
0.067261
0.0402845
0.0134336
-0.00628722
0.131139
0.166501
0.160849
0.142206
0.118362
0.0925857
0.0662005
0.0397338
0.0132763
0.00419046
0.121279
0.155982
0.153255
0.137235
0.115266
0.0907034
0.0650855
0.0391469
0.0131038
0.0173748
0.114558
0.147026
0.146303
0.132476
0.112207
0.0888058
0.0639468
0.0385401
0.0129213
0.0303442
0.109721
0.139344
0.139998
0.128009
0.109264
0.0869458
0.0628165
0.0379298
0.0127335
0.0409902
0.105812
0.132666
0.134328
0.123897
0.106501
0.0851722
0.0617252
0.0373319
0.0125449
0.0479893
0.101959
0.126673
0.129231
0.120165
0.103962
0.0835219
0.0606974
0.0367582
0.0123592
0.0506216
0.0971212
0.120622
0.12426
0.116542
0.101479
0.0818849
0.0596604
0.0361543
0.0121456
0.0479941
0.0941438
0.117369
0.121668
0.114662
0.100187
0.081033
0.0591223
0.0358462
0.0120414
-0.374559
-0.426797
-0.457385
-0.467251
-0.458165
-0.432579
-0.392985
-0.342104
-0.283473
-0.220555
-0.216239
-0.268617
-0.303488
-0.32175
-0.3245
-0.314199
-0.291815
-0.262287
-0.225338
-0.188125
-0.0947155
-0.145375
-0.18185
-0.204728
-0.214667
-0.21399
-0.202698
-0.186007
-0.161326
-0.136739
-0.000820237
-0.0504174
-0.087752
-0.113325
-0.127681
-0.132784
-0.128587
-0.119591
-0.103605
-0.087731
0.0707561
0.0222527
-0.0154617
-0.0427358
-0.0600651
-0.0690067
-0.0698281
-0.066027
-0.0562743
-0.0462271
0.125264
0.077484
0.0394631
0.0109779
-0.00845422
-0.0200462
-0.024378
-0.0240703
-0.0185446
-0.0123795
0.16579
0.118357
0.079964
0.0504857
0.0294654
0.0159601
0.0091813
0.00712122
0.00976073
0.0132439
0.194477
0.146925
0.10793
0.0774539
0.0550731
0.0400606
0.031539
0.0279578
0.0288245
0.0306845
0.211701
0.163722
0.123666
0.0918211
0.0679129
0.0514096
0.0414767
0.0369839
0.0371976
0.0396096
0.222702
0.171447
0.128178
0.0928631
0.0652905
0.0452
0.0318112
0.0248757
0.0232363
0.0268273
1.08818
1.04032
0.985868
0.927848
0.864589
0.793428
0.712205
0.621309
0.531585
0.471047
0.891523
0.837718
0.778593
0.713734
0.641038
0.558436
0.46411
0.358754
0.25498
0.185037
0.677574
0.620279
0.557243
0.486499
0.406083
0.314116
0.208721
0.0906361
-0.0258588
-0.104343
0.472516
0.410354
0.341192
0.262984
0.173985
0.0722375
-0.0443291
-0.175039
-0.303916
-0.390249
0.280921
0.212732
0.136567
0.05043
-0.0474088
-0.159066
-0.286772
-0.429951
-0.570721
-0.664016
0.101958
0.0280311
-0.0546722
-0.148127
-0.254113
-0.374891
-0.512835
-0.667584
-0.819112
-0.917833
-0.0629553
-0.141638
-0.229873
-0.329565
-0.442503
-0.571027
-0.717647
-0.882569
-1.04448
-1.14455
-0.210514
-0.2929
-0.385572
-0.490302
-0.608856
-0.743526
-0.896897
-1.06882
-1.24268
-1.33812
-0.337207
-0.42238
-0.518445
-0.626986
-0.749821
-0.889223
-1.04685
-1.22831
-1.39981
-1.49707
-0.440834
-0.527744
-0.625918
-0.73681
-0.862527
-1.00554
-1.16759
-1.34746
-1.52058
-1.61802
2.29734
2.31498
2.33664
2.36011
2.38321
2.40503
2.42499
2.44245
2.45761
2.46933
2.24417
2.25998
2.27932
2.30014
2.32031
2.33893
2.35534
2.36895
2.38035
2.38933
2.17064
2.18379
2.19971
2.21657
2.23239
2.24623
2.25734
2.26519
2.27099
2.27596
2.07751
2.08722
2.09868
2.11036
2.1205
2.12808
2.13226
2.13253
2.13101
2.13095
1.96588
1.97146
1.97751
1.98292
1.98617
1.98617
1.98191
1.97298
1.96239
1.95642
1.83713
1.83801
1.83788
1.83609
1.83139
1.82261
1.80861
1.78904
1.76794
1.75468
1.69314
1.68913
1.68235
1.67262
1.65903
1.64038
1.6154
1.58388
1.55097
1.52936
1.53734
1.52815
1.51409
1.49551
1.47205
1.44246
1.40536
1.3607
1.31488
1.28417
1.37687
1.36239
1.33986
1.31088
1.27597
1.23397
1.18331
1.12417
1.06435
1.0239
1.22203
1.19567
1.16006
1.11826
1.07063
1.0153
0.950335
0.876013
0.801664
0.751233
2.3568
1.81037
2.2669
2.06193
2.03848
2.03766
2.0457
2.06988
2.12877
2.23201
2.34966
1.80312
2.26098
2.05457
2.03029
2.02794
2.03345
2.05388
2.10518
2.19585
2.34336
1.79536
2.25591
2.0465
2.02127
2.01709
2.01928
2.03482
2.07492
2.14754
2.3378
1.78716
2.25172
2.0377
2.01148
2.00511
2.00323
2.01259
2.03797
2.08692
2.33293
1.77865
2.2484
2.02815
2.00095
1.99208
1.98536
1.98706
1.99412
2.01419
2.3287
1.76996
2.24591
2.01781
1.98975
1.97802
1.96569
1.95805
1.94335
1.92944
2.32505
1.76128
2.24421
2.00662
1.97797
1.96298
1.94424
1.92552
1.88714
1.83102
2.32196
1.75278
2.24319
1.99452
1.9657
1.94702
1.92101
1.8896
1.82658
1.71858
2.3194
1.74469
2.24271
1.98145
1.95309
1.93018
1.89609
1.85041
1.76123
1.59032
2.31731
1.73729
2.24262
1.96742
1.94027
1.91257
1.8699
1.80941
1.6941
1.45741
2.31539
1.7296
2.23849
1.95562
1.92446
1.88965
1.83483
1.75514
1.61118
1.31505
2.3164
1.72285
2.23065
1.94788
1.90806
1.86563
1.79938
1.70377
1.53916
1.24258
2.31898
1.71802
2.22372
1.94056
1.89321
1.84363
1.76757
1.65962
1.48116
1.19446
2.32359
1.71508
2.21788
1.93392
1.88008
1.82406
1.73981
1.62239
1.43544
1.16148
2.33075
1.71395
2.21327
1.92819
1.86881
1.80721
1.71637
1.59184
1.40058
1.13873
2.3411
1.71457
2.2099
1.92351
1.85952
1.79327
1.6973
1.56763
1.37504
1.1236
2.35537
1.71683
2.20764
1.92
1.85228
1.78235
1.68258
1.5494
1.35731
1.11443
2.37531
1.72055
2.20626
1.91767
1.84716
1.77449
1.67214
1.53678
1.34613
1.11032
2.39486
1.72531
2.20493
1.91663
1.84429
1.76984
1.66608
1.5298
1.34116
1.11217
2.44613
1.73306
2.20694
1.91488
1.84302
1.76725
1.66271
1.52582
1.33853
1.11254
1.05942
0.890445
0.699163
0.516478
0.347495
0.189346
0.0423721
-0.0904338
-0.205712
-0.300784
0.981246
0.851226
0.702696
0.554592
0.414527
0.281764
0.156738
0.0421809
-0.059403
-0.146279
0.941419
0.83535
0.714693
0.588856
0.467281
0.351528
0.241909
0.140311
0.0489977
-0.0298909
0.920748
0.828186
0.725671
0.616948
0.509938
0.407174
0.30913
0.217379
0.134021
0.0608718
0.912378
0.828519
0.738089
0.641524
0.544879
0.451208
0.361357
0.276668
0.198956
0.129868
0.911042
0.833026
0.750569
0.662388
0.573129
0.485965
0.401956
0.322309
0.248659
0.182554
0.913597
0.839623
0.762503
0.679982
0.595803
0.51313
0.433134
0.356943
0.286068
0.221952
0.91845
0.847224
0.773621
0.694691
0.613717
0.533877
0.45638
0.382299
0.313084
0.250128
0.927623
0.858235
0.786423
0.708981
0.629253
0.550421
0.47367
0.400037
0.330929
0.267754
0.940271
0.87499
0.804801
0.727701
0.648106
0.569013
0.491523
0.416768
0.34618
0.281111
-2.94092
-2.80687
-2.58054
-2.35688
-2.16486
-2.00604
-1.8764
-1.77191
-1.68972
-1.62824
-3.01136
-2.8843
-2.66152
-2.43783
-2.2442
-2.08373
-1.95287
-1.8474
-1.76455
-1.70374
-2.96537
-2.84671
-2.6316
-2.41013
-2.21658
-2.05558
-1.924
-1.81754
-1.73314
-1.66986
-2.81607
-2.70637
-2.50297
-2.28753
-2.09675
-1.93704
-1.80581
-1.69888
-1.61306
-1.5466
-2.58541
-2.48513
-2.29675
-2.09169
-1.90743
-1.75187
-1.62312
-1.51721
-1.43101
-1.36293
-2.29981
-2.20926
-2.03856
-1.8483
-1.67496
-1.52733
-1.40419
-1.30192
-1.21748
-1.15038
-1.98565
-1.90489
-1.75366
-1.5821
-1.42399
-1.28834
-1.17445
-1.07917
-0.999535
-0.936517
-1.66527
-1.59401
-1.46289
-1.31254
-1.17287
-1.05241
-0.950777
-0.865341
-0.793489
-0.737053
-1.35492
-1.29259
-1.18111
-1.05288
-0.933334
-0.830085
-0.742893
-0.66952
-0.607659
-0.561258
-1.06432
-1.0101
-0.916819
-0.809955
-0.710365
-0.624442
-0.551817
-0.490312
-0.436926
-0.395159
-0.798585
-0.751546
-0.674645
-0.587651
-0.507258
-0.438764
-0.381985
-0.335452
-0.297002
-0.26353
-0.559449
-0.5186
-0.455832
-0.386188
-0.322608
-0.269191
-0.225564
-0.190341
-0.162006
-0.136159
-0.347161
-0.311511
-0.260603
-0.205568
-0.156111
-0.115212
-0.0822882
-0.0560219
-0.0352461
-0.0162069
-0.161966
-0.130639
-0.0896061
-0.0468023
-0.00925479
0.021038
0.0448144
0.0632838
0.0774575
0.0902165
-0.00426946
0.0235074
0.0564608
0.0891991
0.116863
0.138311
0.154397
0.166225
0.174694
0.181931
0.125509
0.150456
0.177014
0.201744
0.221481
0.235806
0.245652
0.252026
0.255731
0.258303
0.22702
0.249824
0.27159
0.290282
0.304002
0.312894
0.317941
0.320076
0.320021
0.318874
0.300048
0.321377
0.339889
0.354457
0.364048
0.369195
0.370913
0.37008
0.367362
0.363549
0.344548
0.365056
0.381807
0.394128
0.401466
0.404565
0.404455
0.401983
0.397781
0.392454
0.360661
0.381002
0.397442
0.409364
0.416304
0.419046
0.418623
0.41587
0.411407
0.40577
-0.0333616
0.126586
0.154709
0.151491
0.137386
0.116927
0.0930769
0.0674552
0.0407892
0.0136154
0.056717
0.161756
0.16882
0.157259
0.138786
0.116552
0.0921475
0.0665363
0.0401596
0.0134033
0.132656
0.189371
0.179635
0.161164
0.139846
0.116226
0.0913463
0.0657381
0.0396107
0.013217
0.193942
0.211068
0.188847
0.165029
0.140881
0.116
0.0906837
0.0650618
0.039141
0.0130563
0.243481
0.228477
0.196942
0.168524
0.141876
0.115879
0.0901606
0.0645062
0.0387492
0.0129204
0.282501
0.242763
0.204066
0.171684
0.14285
0.115867
0.089776
0.0640691
0.0384336
0.0128087
0.312128
0.254485
0.210276
0.174529
0.143814
0.115966
0.0895278
0.0637482
0.0381925
0.0127207
0.333631
0.263856
0.215548
0.177061
0.144772
0.116176
0.0894129
0.0635404
0.038024
0.0126557
0.348102
0.270948
0.219825
0.179274
0.14573
0.116495
0.089427
0.0634423
0.0379259
0.0126132
0.356163
0.275733
0.223075
0.181164
0.146685
0.116917
0.0895651
0.0634498
0.0378959
0.0125927
-0.226686
0.0143321
0.100033
0.125966
0.126309
0.11299
0.0922437
0.0677584
0.0413048
0.0138837
-0.188161
0.0298113
0.106547
0.128737
0.12761
0.113355
0.0922948
0.067706
0.0412375
0.0138516
-0.160661
0.0483578
0.116081
0.133171
0.129523
0.114042
0.0924519
0.0676653
0.0411496
0.0138034
-0.128757
0.0705053
0.127696
0.138767
0.131803
0.115069
0.0927986
0.067729
0.0411218
0.0137785
-0.089063
0.0981331
0.142018
0.145841
0.135181
0.116421
0.0933101
0.0678809
0.0411419
0.0137713
-1.55994
-1.63691
-1.6226
-1.53014
-1.3809
-1.20337
-1.01448
-0.841979
-0.678247
-0.536111
-1.56154
-1.63898
-1.62027
-1.52084
-1.3638
-1.17728
-0.978056
-0.793684
-0.617729
-0.471734
-1.56646
-1.64314
-1.61896
-1.51104
-1.34416
-1.14671
-0.940428
-0.751725
-0.583976
-0.454044
-1.57752
-1.65361
-1.62377
-1.50678
-1.33021
-1.12438
-0.915496
-0.725278
-0.56108
-0.429829
-1.59547
-1.6716
-1.63666
-1.51151
-1.32663
-1.11436
-0.902602
-0.707954
-0.538474
-0.390395
1.70174
1.68125
1.65262
1.61913
1.58132
1.53738
1.48535
1.42523
1.36499
1.3239
1.83883
1.832
1.81841
1.79983
1.77688
1.74845
1.71311
1.67077
1.62778
1.59913
1.96788
1.96677
1.9624
1.95526
1.94483
1.92991
1.90924
1.88257
1.85479
1.83697
2.08155
2.08579
2.08898
2.0909
2.09044
2.08643
2.0778
2.06415
2.04914
2.04026
2.17537
2.18416
2.19361
2.20295
2.21068
2.21569
2.21702
2.21421
2.20981
2.20805
2.24835
2.26104
2.2757
2.29107
2.30538
2.3176
2.3269
2.33279
2.3368
2.34057
2.30039
2.316
2.33462
2.35455
2.37383
2.39149
2.40682
2.41924
2.42955
2.4378
2.33137
2.34893
2.37021
2.39322
2.41585
2.43717
2.45655
2.47338
2.48796
2.49929
2.34113
2.35968
2.38234
2.40695
2.43132
2.45455
2.47604
2.49516
2.51196
2.52491
2.32967
2.34828
2.37107
2.39583
2.42035
2.44373
2.46541
2.48472
2.5017
2.51477
-1.43956
-1.50409
-1.58693
-1.69082
-1.81896
-1.97504
-2.1637
-2.38591
-2.61473
-2.75287
-1.14919
-1.21697
-1.3017
-1.40588
-1.53264
-1.68542
-1.86844
-2.08238
-2.32015
-2.45834
-0.778352
-0.850743
-0.938932
-1.04477
-1.17103
-1.32113
-1.49915
-1.70714
-1.92187
-2.07537
-0.360661
-0.439792
-0.532255
-0.639697
-0.764721
-0.910548
-1.08106
-1.2768
-1.47643
-1.62406
0.0588165
-0.0248152
-0.1188
-0.224746
-0.345219
-0.483304
-0.642554
-0.823173
-1.00631
-1.14152
0.444543
0.362827
0.272994
0.173591
0.0621837
-0.0640728
-0.208391
-0.370814
-0.534459
-0.654259
0.783404
0.709557
0.629169
0.540903
0.442454
0.331292
0.204654
0.0626576
-0.079624
-0.182753
1.08204
1.0183
0.94939
0.874191
0.790241
0.695228
0.586913
0.465622
0.344719
0.258287
1.35305
1.29815
1.23799
1.17364
1.10261
1.02245
0.931277
0.829525
0.72885
0.658275
1.58072
1.53476
1.48155
1.42655
1.36818
1.30346
1.23014
1.14834
1.06774
1.01229
2.47968
1.85462
2.35849
2.07834
2.07301
2.07334
2.07002
2.06641
2.02284
1.90231
2.46258
1.85165
2.34879
2.08312
2.07261
2.07405
2.07367
2.07846
2.05419
1.99533
2.44667
1.84861
2.33863
2.08619
2.07187
2.07405
2.07718
2.08945
2.08439
2.08071
2.43195
1.84538
2.32829
2.08763
2.07061
2.07321
2.07911
2.09771
2.11008
2.1472
2.41831
1.84185
2.31802
2.08751
2.06867
2.07143
2.0795
2.10296
2.13138
2.1975
2.4057
1.83794
2.30803
2.08598
2.06591
2.06863
2.07829
2.10508
2.14734
2.23366
2.39406
1.83356
2.29849
2.08318
2.06227
2.06475
2.07543
2.10404
2.15667
2.2576
2.38338
1.82864
2.28952
2.07926
2.05771
2.05974
2.07081
2.09996
2.15956
2.2693
2.37361
1.82315
2.28122
2.07434
2.05221
2.05356
2.06436
2.0929
2.15592
2.2684
2.36477
1.81705
2.27366
2.06853
2.04579
2.0462
2.056
2.08287
2.14568
2.25616
2.62709
1.87983
2.37213
2.08237
2.0743
2.06689
2.04883
2.01961
1.91693
1.73564
2.57355
1.87314
2.36976
2.08295
2.07397
2.06766
2.05044
2.0227
1.92296
1.73816
2.54783
1.86858
2.37033
2.08169
2.07392
2.06876
2.05335
2.02855
1.93578
1.74416
2.52199
1.86357
2.36821
2.07957
2.07373
2.0701
2.05756
2.03741
1.9558
1.76583
2.4988
1.85848
2.36512
2.07674
2.07338
2.07158
2.06279
2.04907
1.98248
1.80241
1.4295
1.29273
1.08058
0.783742
0.418236
0.00480749
-0.41888
-0.808556
-1.1366
-1.39062
1.41408
1.27244
1.06582
0.781502
0.433212
0.0347487
-0.384756
-0.781317
-1.12151
-1.38611
1.43208
1.27813
1.06532
0.786605
0.450014
0.0612898
-0.357341
-0.762492
-1.11377
-1.38686
1.4798
1.30388
1.07588
0.797283
0.466268
0.0817463
-0.338315
-0.751757
-1.11296
-1.39368
1.55666
1.3501
1.09668
0.809839
0.478308
0.094935
-0.326207
-0.745847
-1.11649
-1.40613
)
;

boundaryField
{
    left
    {
        type            zeroGradient;
    }
    right
    {
        type            fixedValue;
        value           uniform 0;
    }
    down
    {
        type            zeroGradient;
    }
    up
    {
        type            zeroGradient;
    }
    cylinder
    {
        type            zeroGradient;
    }
    defaultFaces
    {
        type            empty;
    }
}


// ************************************************************************* //
