/*--------------------------------*- C++ -*----------------------------------*\
  =========                 |
  \\      /  F ield         | OpenFOAM: The Open Source CFD Toolbox
   \\    /   O peration     | Website:  https://openfoam.org
    \\  /    A nd           | Version:  13
     \\/     M anipulation  |
\*---------------------------------------------------------------------------*/
FoamFile
{
    format      ascii;
    class       volVectorField;
    object      U;
}
// * * * * * * * * * * * * * * * * * * * * * * * * * * * * * * * * * * * * * //

dimensions      [0 1 -1 0 0 0 0];

internalField   nonuniform List<vector>
440
(
(-0.363383861454 0.303927450716 2.94203073701e-15)
(0.139729450308 0.00264104218913 -1.31427583056e-16)
(0.812551840204 -0.34157432666 -6.61098628864e-17)
(1.58794121377 -0.683785246893 -9.91125770516e-17)
(2.37815377056 -1.06826479719 -7.69935341811e-18)
(-0.31977796955 0.196631675657 1.28373161264e-16)
(0.438343078865 -0.145790700247 4.52075252991e-17)
(1.32621733624 -0.489866076564 -8.89040037019e-17)
(2.27900915505 -0.813544293019 7.98139093765e-17)
(3.21034358565 -1.15613989044 9.00432984141e-17)
(-0.260850210819 0.109026036437 6.91088984395e-18)
(0.727235392319 -0.206570139244 4.34884148109e-17)
(1.78982829321 -0.499758603059 -6.53157172222e-18)
(2.86368420679 -0.757531850595 -4.97262924167e-17)
(3.87230065795 -1.018213131 -1.84914565879e-17)
(-0.205861061393 0.0482398441747 -8.59131498603e-18)
(0.962324072826 -0.170113208717 -2.15884900588e-18)
(2.16069530638 -0.36587940363 5.10774665872e-17)
(3.32208423462 -0.526338752763 -2.98315178255e-17)
(4.35722819907 -0.681312069697 -3.52483607231e-17)
(-0.170205631772 0.00891114293308 -1.91216338592e-17)
(1.09855024792 -0.062768300203 -5.77877667641e-18)
(2.37569414185 -0.129236270791 -3.59651458997e-17)
(3.5813888701 -0.180073550435 2.33128932318e-17)
(4.61068227979 -0.228316704857 1.13865323726e-17)
(-0.0549898434412 0.130855134689 4.05123040857e-18)
(-0.092179536272 0.0429547793941 -4.33773129181e-18)
(-0.137459053845 -0.129418124664 1.59248187273e-17)
(-0.154772168494 -0.335346874034 -5.10058603254e-18)
(-0.131673967711 -0.53538140503 -5.51853627774e-17)
(-0.114806160658 0.252548846183 1.76003401647e-18)
(-0.125219842947 0.149244255902 4.30646332458e-18)
(-0.103870956542 -0.0508663368865 5.47033534233e-18)
(-0.0363889095244 -0.307672570365 3.96341855034e-18)
(0.0849861724992 -0.576832552286 -6.07149745429e-18)
(-0.196151369384 0.345303115157 -2.95843405457e-17)
(-0.157614687672 0.205723381963 -1.02381472577e-17)
(-0.0404599893458 -0.0474859782091 -1.55653094222e-17)
(0.143427434883 -0.359247270315 4.04701372087e-17)
(0.396303367492 -0.692204735118 -1.44121220966e-18)
(-0.281059171759 0.388948221747 -7.17315055843e-18)
(-0.15572787132 0.196360095085 8.89308474798e-18)
(0.0924741598099 -0.108942661967 -2.43039948658e-17)
(0.427589925816 -0.465151436605 -2.57900174705e-17)
(0.833889216804 -0.837333581086 2.91333422382e-18)
(-0.35506642521 0.377580852271 1.17317357667e-17)
(-0.0908059626253 0.130697908125 7.44212026601e-18)
(0.336239350316 -0.206529203098 -5.82694655914e-19)
(0.855677423646 -0.567482228102 9.44675292257e-18)
(1.45279068403 -0.946657824336 3.60869108201e-17)
(0.351322427244 -1.5524460514 -9.99205590957e-17)
(1.34543890712 -1.61806358864 6.16940582429e-17)
(2.49510241706 -0.613599499027 1.63726782988e-17)
(3.28611543331 0.017633830973 -1.25899157048e-17)
(3.58666186152 0.0708048128403 4.08331550591e-18)
(0.926888324277 -1.82062816162 1.58716276707e-16)
(1.54549018028 -1.95847331711 -2.33703617863e-17)
(2.53157418392 -0.878094659196 1.82002958128e-17)
(3.47144412511 -0.188637143396 4.30613707178e-17)
(4.17740012781 -0.0162217738649 -7.59055422341e-18)
(1.62051563027 -2.05669562152 8.98331611772e-17)
(1.96870057634 -2.22022745452 1.91135113989e-16)
(2.54182736465 -1.14490571315 -1.46082066746e-17)
(3.46640376544 -0.425363616464 3.63045516363e-17)
(4.33877157871 -0.163268008017 8.08039401626e-18)
(2.37865294546 -2.2538699741 -8.03505140361e-17)
(2.57168857677 -2.38670596116 -4.21385433166e-17)
(2.63844301525 -1.37617649728 -1.87189780229e-17)
(3.33998733318 -0.63303922009 -3.29813948009e-17)
(3.97728672269 -0.289806758114 1.15410691602e-17)
(3.14437110407 -2.3223645842 6.40726386471e-18)
(3.25265076373 -2.46661779185 -1.67213332551e-16)
(2.837389387 -1.550734241 0)
(3.11746506454 -0.86631800572 1.52613304734e-17)
(3.21975613442 -0.354343362319 -1.64865996464e-18)
(4.50962944378 -2.76046528723 1.95049356056e-17)
(4.05154088589 -2.48207387052 4.78351176974e-17)
(3.18515389737 -1.47332890797 -4.54460568952e-18)
(2.42356652955 -0.787942907368 2.2859273002e-17)
(2.18582396148 -0.343167674517 5.92897239618e-18)
(6.07328110126 -2.30306617582 1.53618742035e-17)
(4.17483221552 -1.79392906849 -2.62678013246e-17)
(2.66216178312 -0.997066681583 -4.7552029593e-18)
(1.60783535209 -0.542915867711 -7.90437386325e-18)
(1.29065811184 -0.23908034552 0)
(5.17398652577 -1.34369058918 1.77957124665e-17)
(2.67661412819 -0.9036442998 5.2570985191e-18)
(1.32030956264 -0.473688780489 -7.3658890819e-18)
(0.480615713107 -0.284572500189 1.52276155484e-18)
(0.0855315811393 -0.146467215158 -1.17806256141e-18)
(2.95223420999 -0.628082125031 -3.58316318147e-17)
(1.02722847758 -0.371306678056 3.77813917141e-17)
(0.0422080011124 -0.174282288616 -1.28076152848e-17)
(-0.4907126757 -0.105622870266 -1.72361813567e-31)
(-0.792397586831 -0.0610700474095 1.8551257911e-17)
(0.489711068858 0.00357621161357 -1.85071915877e-18)
(-0.227605756772 0.0938828164898 7.50272339788e-19)
(-0.517549620276 0.0882090807833 -1.2085278695e-17)
(-0.653747250557 0.0591345806706 5.10621572731e-19)
(-0.756523355273 0.0261475472287 -1.98119415693e-19)
(6.93284272708 -0.294631951159 -6.04454672947e-17)
(6.60400289707 -0.921910733825 3.35988463867e-17)
(6.0422940892 -1.45160866085 -1.72443323728e-17)
(5.32145658419 -1.79583939644 -1.48520960677e-17)
(4.34127812798 -1.86979846737 3.93217830875e-18)
(8.31627496951 -0.215171759569 -3.92712955848e-17)
(8.21500720707 -0.707199565922 2.40225593063e-18)
(7.97577381799 -1.23804864674 1.79931026334e-17)
(7.60447368221 -1.82839843448 -1.23942439099e-17)
(6.97023155691 -2.43387236824 3.09402909611e-18)
(6.33878039754 -0.139235802043 -3.07677009512e-17)
(6.34851271928 -0.420366540641 2.37096477443e-17)
(6.34899731115 -0.722591117269 -4.76575238734e-17)
(6.33264766732 -1.05609540551 3.81360748571e-18)
(6.26421285577 -1.42680777062 4.90446257877e-17)
(4.16682982214 -0.0771073848691 -2.17229261257e-17)
(4.14885083213 -0.23897197488 -6.74469092929e-17)
(4.10118452049 -0.418142856741 5.63908579554e-18)
(4.03420266663 -0.602259476788 7.47353869554e-17)
(3.96731370412 -0.7472289119 -1.78042697263e-17)
(1.1567993737 -0.00525839047361 -2.89755385255e-17)
(1.13627566222 -0.0155575972962 1.03692832055e-18)
(1.08759231217 -0.0290872164286 -9.47578157779e-19)
(1.01038632243 -0.0462342535098 1.71696468555e-17)
(0.933632516295 -0.0508595676985 2.94636206313e-17)
(2.45217123411 1.16032910313 -1.71647432e-17)
(1.66166202513 0.763568623319 -4.56235911737e-18)
(0.878536581352 0.405722880609 1.94824458167e-17)
(0.187894599097 0.0404591678833 -9.28988982888e-18)
(-0.337738344095 -0.293620021229 7.70016267534e-18)
(3.26995711772 1.22133999757 1.77168596123e-17)
(2.34372214563 0.871045895333 2.67754808322e-17)
(1.38843360032 0.537248539564 3.87011011759e-18)
(0.48568994327 0.178196553214 1.47236857291e-17)
(-0.294163571735 -0.192757763803 1.0065485895e-17)
(3.91661163212 1.06996231354 9.47835990723e-18)
(2.91343036751 0.80137170753 -1.02097894375e-17)
(1.84028814947 0.534665812848 -1.35493626226e-17)
(0.766979779309 0.229205854827 -3.71992087759e-18)
(-0.238904400219 -0.111982980856 -1.74890890283e-17)
(4.38485261137 0.721928945487 6.34074783486e-18)
(3.35222677337 0.559226780349 3.52767142128e-18)
(2.19265148316 0.38967245189 2.52514069953e-17)
(0.988045671835 0.183776816738 -1.67401415062e-17)
(-0.191517872279 -0.0572745292769 1.01408409581e-17)
(4.62097716759 0.261285324507 2.20762908671e-17)
(3.59165735029 0.206492056596 2.85946260175e-17)
(2.38660702767 0.146533653976 1.1230255377e-17)
(1.10742332204 0.071280112404 -1.56598873202e-17)
(-0.165296881256 -0.0212406109424 9.99444813365e-18)
(-0.121619342197 0.777158955642 -6.80364542237e-17)
(-0.154052475438 0.571636886196 -4.77963134553e-17)
(-0.145277820034 0.339568238578 4.91653515168e-18)
(-0.106700875233 0.105173926672 -1.54775769481e-18)
(-0.0560719975801 -0.0721009345117 -2.13807651319e-18)
(0.109406606644 0.827426078468 -3.79954385444e-17)
(-0.0150729814451 0.541488013657 -1.24055612337e-17)
(-0.0868356242407 0.24078769213 -6.88461662807e-18)
(-0.113396629341 -0.0300097509479 2.69123122597e-18)
(-0.101852863922 -0.208909357027 -3.05602908124e-18)
(0.4453809888 0.913341751718 1.90108802375e-17)
(0.190840217242 0.557549289118 -3.09183354755e-17)
(0.00107060161304 0.199758774259 -1.50990517588e-18)
(-0.126823202667 -0.112345556607 5.67898884759e-18)
(-0.176392592273 -0.313242796842 -1.56616001868e-18)
(0.898969960078 1.01076152388 -2.203147138e-17)
(0.491178758174 0.617459655743 2.69406872045e-17)
(0.14835471744 0.224913172849 4.03250823965e-17)
(-0.11500478781 -0.123454879427 -9.60984132594e-18)
(-0.258239280977 -0.365050436374 1.02654447043e-17)
(1.52203988677 1.07058219493 1.44171551407e-17)
(0.924610210961 0.677092222674 1.54124786656e-17)
(0.397309156895 0.292127298897 4.0669190997e-19)
(-0.046297524025 -0.0747445372791 -2.24064888981e-18)
(-0.330831024735 -0.360859872175 2.77836370296e-20)
(2.33450453395 0.489060361955 2.53832073431e-17)
(3.05228839743 0.300399731278 3.82940477547e-18)
(2.72386101358 0.497415966578 -3.8822458654e-18)
(1.56953890012 1.50239871246 1.2106955522e-16)
(0.387478764071 1.74029504092 -3.70541875496e-18)
(2.38861726028 0.19736552678 -1.56752821247e-17)
(3.12857868971 0.198414173538 -5.09914559054e-17)
(2.8238323592 0.680610041609 -3.47363833448e-17)
(1.64470056596 1.88038522607 -4.55149939618e-17)
(0.921086790114 2.04098933424 4.05242263853e-17)
(2.44052280032 -0.104983327953 -1.53650265721e-17)
(3.18495286567 0.113875808215 2.63413568841e-18)
(2.76678534305 0.871460707284 1.80991982282e-17)
(1.93565680478 2.20611699024 -3.45380085134e-17)
(1.6083365382 2.28601705394 7.02738129699e-17)
(2.47009799354 -0.407675036256 8.22419060219e-19)
(3.15468093287 0.0490301671591 5.83752979173e-17)
(2.66867424076 1.07492739343 2.75614883153e-17)
(2.44992301464 2.41559332138 1.40554172965e-16)
(2.3775168491 2.46583813194 -2.3076784074e-17)
(2.46696059311 -0.69433022242 2.14826530647e-18)
(2.94752472247 0.049442990647 -4.03171770196e-18)
(2.65355821328 1.27866021875 -1.67675254117e-17)
(3.07378238734 2.51187914286 -1.09831671895e-16)
(3.15481353491 2.49812845488 5.88687982925e-17)
(2.37440521873 -0.999463180816 -5.12769594213e-18)
(2.59410469576 -0.0516412378892 -2.52889142626e-17)
(2.83501563961 1.25165593109 2.68760077351e-17)
(3.79375149859 2.48614901933 -1.83639688009e-16)
(4.49779211969 2.87569797749 7.98686368392e-17)
(2.14095575762 -1.26475847631 1.13851332532e-18)
(2.05624993125 -0.17611757115 5.2878411825e-19)
(2.48530131952 0.863496186603 -4.71034873985e-18)
(3.94563376411 1.81081978418 3.277518806e-17)
(5.9176632323 2.34500761466 -1.31281410653e-17)
(1.73593581708 -1.47643139706 -9.99147242686e-19)
(1.09560575926 -0.406674208851 1.60444281066e-33)
(1.28347990508 0.383474150135 -4.04720278913e-18)
(2.57772122557 0.90900392547 -5.00923297863e-18)
(5.08886935342 1.36837980015 -3.57526990168e-17)
(1.13049813218 -0.786051654363 -2.0586205196e-18)
(-0.179321390481 -0.260903074068 2.12174624393e-18)
(-0.0644100583673 0.119890124551 -1.28980583775e-17)
(0.97149091878 0.369236667195 -1.43836111808e-17)
(2.92441207711 0.627973670933 5.17810488758e-17)
(0.410396433914 -0.0939951761376 -2.91440648908e-18)
(-0.470952306325 0.0694481262987 1.31384617678e-18)
(-0.544476901915 -0.0542503618006 -8.42024864548e-18)
(-0.238207235795 -0.0961718401517 -1.00121061206e-18)
(0.493026618398 -0.00503070082374 1.00927995628e-17)
(4.40451434498 1.95785758551 -2.38009446316e-17)
(5.36013213188 1.86015077414 -2.00587681132e-17)
(6.07016976056 1.51244761307 3.555946275e-17)
(6.62465193051 0.981175746193 6.37527752021e-17)
(6.94278979981 0.353596980548 -6.21507037441e-17)
(6.89271493682 2.43901016029 -1.04785698042e-17)
(7.52231576309 1.86222921124 -1.16149685235e-16)
(7.90355651616 1.27174490503 -3.34852699869e-17)
(8.1571862076 0.737721730405 1.17192887377e-16)
(8.29245985999 0.250692249007 1.73233987162e-17)
(6.20070661574 1.43149515576 5.15052710721e-17)
(6.29313468967 1.06810887351 3.22687644489e-17)
(6.32777868019 0.733674387704 4.64621067266e-17)
(6.33962194397 0.424419067329 5.70068891031e-17)
(6.33684041265 0.137039286922 -5.41870249428e-17)
(3.93791606487 0.73793830693 -5.77708325113e-17)
(4.01573757024 0.598195682148 3.50972594705e-18)
(4.08959397229 0.418095020228 -4.19033572479e-17)
(4.14269850736 0.239295798787 -5.02025176393e-17)
(4.16502992876 0.0769613159652 4.56270554166e-17)
(0.934030345486 0.0480200208487 4.06063568045e-18)
(1.01155724473 0.0441978235654 -2.81147382618e-17)
(1.08860072601 0.0279439382872 -1.7327740935e-17)
(1.1373281297 0.0144974113358 3.03989397006e-17)
(1.15729253773 0.00413093785971 2.47059260996e-19)
(-1.6842008378 -0.117018509841 -1.10191104234e-17)
(-2.43228161995 -0.165483601014 9.56049257016e-18)
(-2.46178003121 -0.179229661999 -2.07560321339e-18)
(-2.88275532646 -0.18117386446 1.01395036111e-17)
(-2.89053267042 -0.0739336809079 -2.43820302011e-18)
(-1.60771172421 -0.350987768347 -2.16011099163e-17)
(-2.3148394935 -0.472400018297 -6.13500593075e-18)
(-2.41378652721 -0.464730099013 1.15034596955e-17)
(-2.3970015141 -0.41714850121 -3.54413389082e-18)
(-2.52442034753 -0.247564777474 1.23448354842e-18)
(-1.43156186944 -0.529165440828 -1.89956002868e-17)
(-2.06893073166 -0.706893410855 -1.1100078844e-17)
(-2.23077769311 -0.672661499739 5.91902694776e-18)
(-2.02894034537 -0.556004895035 3.35188851678e-18)
(-2.11731469626 -0.477495700162 4.23893525513e-17)
(-1.17280893041 -0.624530836543 1.54269147932e-17)
(-1.71966895636 -0.837502880234 1.17398140897e-17)
(-1.90770814189 -0.822106264105 -2.11365430045e-17)
(-1.825842044 -0.67802383812 1.46989141296e-18)
(-1.60542308679 -0.576728829138 6.00806413294e-19)
(-0.885651922151 -0.641078897511 2.62943334355e-17)
(-1.33035106653 -0.867194336722 -9.09127383433e-18)
(-1.54286150767 -0.895273530712 1.77691148934e-17)
(-1.59725626148 -0.81447162967 2.06281355105e-17)
(-1.45755411313 -0.624415512991 1.65427138649e-18)
(-0.610607115276 -0.59565573258 1.55608762659e-17)
(-0.94972604288 -0.805701990901 4.21255674213e-18)
(-1.16237770638 -0.870822468593 1.73412609894e-17)
(-1.3014058463 -0.885597145088 -1.36833146686e-17)
(-1.3616843949 -0.822137549034 5.08537882884e-18)
(-0.373896540441 -0.48907309044 -7.9185979099e-18)
(-0.62221421202 -0.638491218241 -3.35025598734e-18)
(-0.816699978553 -0.730042464016 -7.93686746764e-19)
(-0.984011649175 -0.793815671195 -1.19377334664e-17)
(-1.08084779096 -0.771342196708 -5.65192716562e-18)
(-0.193029803235 -0.3211996633 -5.24255058732e-18)
(-0.374675297535 -0.412330831199 1.50239346202e-17)
(-0.539357635583 -0.576340195818 -2.64734742457e-17)
(-0.69660749766 -0.688619675351 -6.50614840878e-17)
(-0.789598487608 -0.714904810181 2.38520086991e-17)
(-0.0734344178 -0.100233255236 -1.42779926394e-18)
(-0.204995348775 -0.250826377472 -9.44428381731e-18)
(-0.328677994862 -0.433059181298 3.08275562903e-17)
(-0.444319111145 -0.563721832502 5.02763291075e-17)
(-0.51120788226 -0.641591826131 -9.19039327319e-18)
(-0.0103629847725 0.0568787502304 6.83610382543e-19)
(-0.111072519982 -0.0999309201035 -2.04540262347e-18)
(-0.198912320879 -0.270721364918 1.10779230427e-18)
(-0.272240688471 -0.432120936238 5.90710703538e-19)
(-0.308375675279 -0.566247067967 -1.61322512107e-17)
(-1.15025727192 -0.3230935798 7.36506006885e-18)
(0.0515061588474 -0.222435609619 2.95826711194e-17)
(0.226132666611 -0.00725483557372 -1.35735389855e-17)
(0.140498581533 0.0755370736453 -2.41489644435e-17)
(-0.0258026900531 0.0360792196417 -2.01860701487e-18)
(-1.0682950841 -0.533068951969 1.02413767865e-17)
(0.646555340991 -0.391197375695 1.1493054601e-17)
(1.0179655437 -0.0017999921249 -3.11051025159e-17)
(1.00687768552 0.114030496445 -5.44161131331e-18)
(0.8740683997 0.0564379874171 6.27243617651e-18)
(-0.750540890027 -0.738703937829 -9.51416794502e-18)
(1.0046653644 -0.633322519331 7.03246741869e-18)
(1.67413064233 -0.0527453740265 1.12694547965e-17)
(1.80158884378 0.137233782042 2.40114106317e-19)
(1.7086032526 0.0744513461273 -9.1736367221e-18)
(-0.414996548631 -1.00273316505 3.14752406021e-17)
(1.17574398785 -0.93886665597 -8.41877669963e-17)
(2.09414808152 -0.176436790821 1.32839850477e-18)
(2.35100335621 0.146538753032 2.48473270238e-18)
(2.28732256892 0.0885472446861 -2.90515406147e-18)
(-0.0778819677915 -1.26898828158 1.13598141722e-17)
(1.26630625158 -1.26910727662 6.18926277182e-18)
(2.36314013282 -0.370268312926 4.69434835257e-18)
(2.85873935662 0.127495553929 -1.08269244848e-17)
(2.87921956751 0.0949837301212 -8.22482422446e-18)
(-0.683526938316 -0.160017865647 -1.10496871346e-17)
(-0.491606647818 -0.00915167700144 0)
(-0.429059727521 0.00547790611675 -6.8721376663e-18)
(-0.470268911992 -0.00329071593748 -5.47627048994e-19)
(-0.528139348888 -0.00466804585059 7.86830990519e-18)
(-1.05392434834 0.0232785382191 0)
(-0.441682887487 -0.033643227188 0)
(-0.22797974796 -0.00163654249532 1.18909611313e-17)
(-0.299833042924 0.0338975646161 -2.52394614977e-18)
(-0.4348752049 0.0153425795229 -1.49875585428e-18)
(-1.09049452125 -0.00230553904666 1.36873888607e-17)
(-1.19043366197 -0.012541985797 -7.43116918866e-17)
(-1.20479305535 -0.0545259437463 3.66295449147e-18)
(-1.10428495662 -0.137579492743 4.69444472314e-17)
(-0.963380954967 -0.214025457374 1.40073659893e-17)
(-1.75217492821 -0.0131680231584 -1.50348554805e-17)
(-1.94747050859 -0.0834699985921 -5.32423899774e-17)
(-1.87995431476 -0.225983220614 -7.02356586809e-19)
(-1.59207578377 -0.408419252043 8.63067282777e-18)
(-1.16477830776 -0.441697120896 -1.05400989169e-18)
(-1.36082114779 0.834240321825 -5.01004171673e-18)
(-1.30523299586 0.897432718919 1.23392653737e-17)
(-1.16209301924 0.873065017137 6.04329463762e-19)
(-0.950596676622 0.803118475382 3.6178062066e-18)
(-0.607253080151 0.599681053871 -5.47725161304e-18)
(-1.06513442124 0.827571629038 1.20163440842e-17)
(-0.979979264354 0.846802478417 4.24446072208e-17)
(-0.813817303036 0.763936995779 1.35762160821e-17)
(-0.619392535386 0.641727003662 -5.83207251976e-18)
(-0.371755480725 0.488885829147 -2.93133458385e-18)
(-0.73739537864 0.826370669556 -2.30164799728e-17)
(-0.665084948773 0.799869554328 1.51960395075e-18)
(-0.522672421407 0.676520914351 3.33607732756e-17)
(-0.362312721128 0.471786868582 6.32375591925e-18)
(-0.191839012394 0.327677668769 3.5602484108e-18)
(-0.449376392181 0.798261933151 -3.76680596562e-17)
(-0.401125049179 0.72372397151 -2.59859959812e-17)
(-0.304127449067 0.588742356692 1.54963103609e-17)
(-0.186261411916 0.397595329556 1.20108891853e-17)
(-0.0581259755101 0.152280384694 1.00380487148e-18)
(-0.279847417729 0.767599966459 -4.66682788174e-18)
(-0.260168376246 0.635690417809 -7.19544531269e-18)
(-0.202362848999 0.46737006297 1.7892233632e-18)
(-0.129062207832 0.273106253617 3.41739041153e-18)
(-0.0521176335903 0.0683988428643 2.87472406014e-19)
(-2.88447856758 0.0734843426711 -4.05015096914e-17)
(-2.87802834162 0.183309861213 6.97541793466e-18)
(-2.45981745455 0.182140318319 -9.41734962889e-18)
(-2.43221420172 0.16713496992 -8.45199548917e-18)
(-1.6849103024 0.135691743599 -1.06797551809e-17)
(-2.51864324202 0.246502767775 -5.06723850233e-17)
(-2.3921464485 0.416378013858 -3.63116321401e-17)
(-2.4113164791 0.465145877453 -5.05939701291e-18)
(-2.31581665512 0.473630314775 -1.65539928662e-17)
(-1.60793161816 0.368102817532 1.09955519487e-17)
(-2.11281493901 0.476505445518 8.99954314782e-17)
(-2.02656992825 0.555105923139 1.36984098477e-17)
(-2.22867813167 0.671883281792 -1.3855177951e-17)
(-2.07084824487 0.707733571049 -8.22873929378e-18)
(-1.4303005706 0.543364479063 -1.42688194579e-19)
(-1.60264147204 0.576168359853 -2.04641380846e-17)
(-1.82464836603 0.677391296844 4.21685987417e-17)
(-1.90650255948 0.821142126951 2.80487700408e-18)
(-1.72210096767 0.838047832907 7.66397967969e-18)
(-1.1706906473 0.635522521165 -1.66919361439e-17)
(-1.46269553156 0.629068750992 -2.53957397637e-18)
(-1.59908151412 0.817005993457 -1.54040224201e-17)
(-1.54334713302 0.89432273924 7.54511810453e-18)
(-1.33313990726 0.867147340775 5.19540944808e-18)
(-0.88312747144 0.648975941535 -8.04870168587e-22)
(1.46531382163 1.06006845478 7.64322824121e-19)
(0.396472641114 0.35045582755 -1.8861220332e-18)
(0.053436544914 0.000830025237235 -2.55067547245e-17)
(0.137653417205 0.179896809378 7.03834100201e-18)
(-1.07123099299 0.351560033628 4.08155934586e-18)
(1.8808146321 1.28662444121 5.46300252149e-19)
(1.39055123177 0.433689820579 5.79395665898e-18)
(0.889836617971 0.0378974106323 -2.25903615442e-17)
(0.827063595059 0.303163667341 -1.61602343723e-18)
(-0.938132016557 0.590871876821 -1.12709619199e-17)
(2.11399624088 1.1757465193 1.44806835653e-17)
(2.1572097342 0.463115937871 2.39258319127e-18)
(1.58554973672 0.100232181788 7.54575126792e-18)
(1.26056405271 0.521847346287 7.57789991934e-18)
(-0.590271090662 0.823472688792 -2.49450910004e-17)
(2.23901163266 0.995103054268 -2.30146642785e-17)
(2.52383180531 0.481242300769 -5.50666146459e-18)
(2.0894629088 0.200772245578 -2.83998956868e-18)
(1.46051033577 0.816946241447 -5.04642656065e-17)
(-0.26526479083 1.11653546288 -3.93748198469e-18)
(2.29294522378 0.762650159986 -5.08987016731e-18)
(2.92061676262 0.416686009823 1.78278915785e-17)
(2.47937944803 0.333655029082 -1.17361935538e-17)
(1.54707584853 1.14558329139 -2.1314996888e-17)
(0.0217715521632 1.417608849 7.13249770336e-17)
(0.367805791709 0.11607288384 0)
(-0.359186767798 -0.067346697359 1.99450955818e-18)
(-0.479435767322 -0.0563736787396 -7.03722271069e-18)
(-0.482458198626 0.0112566952817 -3.08469692299e-18)
(-0.684736231797 0.157122164004 2.10782089544e-17)
(0.9667863086 0.625361602852 -9.22682086215e-18)
(-0.108557350125 0.195229522331 -2.56276825549e-17)
(-0.373697412197 0.0268269856603 2.10288226312e-17)
(-0.407464922488 0.0255693313289 3.06645564501e-17)
(-1.03351650021 -0.0211980547687 2.3935063825e-17)
(-0.965072080562 0.213393987697 5.52251663799e-18)
(-1.1040401362 0.137418818807 -4.21287259249e-17)
(-1.20574315176 0.0538927837384 -1.82728727332e-17)
(-1.191648397 0.0120773024743 -4.06614674491e-18)
(-1.09115958784 0.00197023872938 0)
(-1.15901503401 0.439270858993 -4.33914164283e-17)
(-1.58625134085 0.409388002163 -9.35626315431e-17)
(-1.87747934736 0.225775472548 7.60743635612e-17)
(-1.94598060123 0.0828197984978 2.40535163132e-17)
(-1.7530446944 0.0125073657767 -2.46539702021e-17)
)
;

boundaryField
{
    left
    {
        type            fixedValue;
        value           uniform (1 0 0);
    }

    right
    {
        type            zeroGradient;
    }

    down
    {
        type            noSlip;
    }

    up
    {
        type            noSlip;
    }

    cylinder
    {
        type            noSlip;
    }

    defaultFaces
    {
        type            empty;
    }
}

// ************************************************************************* //
