/*--------------------------------*- C++ -*----------------------------------*\
  =========                 |
  \\      /  F ield         | OpenFOAM: The Open Source CFD Toolbox
   \\    /   O peration     | Website:  https://openfoam.org
    \\  /    A nd           | Version:  13
     \\/     M anipulation  |
\*---------------------------------------------------------------------------*/
FoamFile
{
    format      ascii;
    class       surfaceScalarField;
    location    "0.27";
    object      phi;
}
// * * * * * * * * * * * * * * * * * * * * * * * * * * * * * * * * * * * * * //

dimensions      [0 3 -1 0 0 0 0];

internalField   nonuniform List<scalar> 
3485
(
0.00303712
-0.0236036
0.0205665
0.0104854
-0.0789787
0.0715304
0.0201003
-0.118349
0.108734
0.0302959
-0.13823
0.128035
0.0403436
-0.145004
0.134957
0.0500206
-0.145146
0.135469
0.0592878
-0.142569
0.133302
0.0681233
-0.139105
0.13027
0.076473
-0.135389
0.127039
-0.131406
0.123406
0.0844722
0.00328856
-0.0268922
0.0108412
-0.0865313
0.0202234
-0.127731
0.0299276
-0.147934
0.0393778
-0.154455
0.0484901
-0.154258
0.0573452
-0.151424
0.0660609
-0.147821
0.0748098
-0.144138
-0.140526
0.0839305
0.00351433
-0.0304065
0.0110816
-0.0940987
0.0200832
-0.136732
0.0290972
-0.156948
0.037681
-0.163038
0.0458362
-0.162413
0.0536698
-0.159258
0.0612712
-0.155422
0.0686902
-0.151557
-0.147775
0.0759391
0.00372873
-0.0341352
0.0112452
-0.101615
0.0197872
-0.145274
0.0280632
-0.165224
0.0357956
-0.170771
0.0430987
-0.169717
0.0501368
-0.166296
0.0570233
-0.162309
0.0638312
-0.158364
-0.154654
0.0707104
0.00387949
-0.0380147
0.0111985
-0.108934
0.0191027
-0.153178
0.0264579
-0.17258
0.0331492
-0.177462
0.0393838
-0.175951
0.0453612
-0.172273
0.051202
-0.168149
0.0569782
-0.164141
-0.16043
0.0627541
0.00396814
-0.0419829
0.0109517
-0.115918
0.0180814
-0.160308
0.0244174
-0.178916
0.030012
-0.183057
0.0351586
-0.181098
0.040085
-0.1772
0.0449136
-0.172978
0.0497051
-0.168932
-0.165242
0.0545163
0.00395842
-0.0459413
0.0104308
-0.12239
0.0166188
-0.166496
0.0218031
-0.1841
0.0261959
-0.187449
0.0301595
-0.185061
0.0339372
-0.180978
0.0376484
-0.176689
0.0413477
-0.172632
-0.168955
0.0450611
0.00384152
-0.0497828
0.00963273
-0.128181
0.0147373
-0.171601
0.0186779
-0.18804
0.0218131
-0.190585
0.0245531
-0.187801
0.0271433
-0.183568
0.0296926
-0.179239
0.032245
-0.175184
-0.171516
0.0348063
0.00360296
-0.0533858
0.00854316
-0.133121
0.0124349
-0.175492
0.0150588
-0.190664
0.0168919
-0.192418
0.0183745
-0.189284
0.0197446
-0.184938
0.0210984
-0.180592
0.0224697
-0.176555
-0.172892
0.0238453
0.00324815
-0.0566339
0.00719014
-0.137063
0.00977668
-0.178079
0.0110415
-0.191929
0.0115506
-0.192927
0.0117624
-0.189496
0.0118957
-0.185071
0.0120345
-0.180731
0.012214
-0.176735
0.0124227
-0.173101
0.00122067
-0.00313192
0.00191125
0.00703858
-0.0122658
0.00644785
0.0167324
-0.0195446
0.0098508
0.0287005
-0.0236919
0.0117238
0.0416533
-0.0254308
0.0124781
0.0548358
-0.0257898
0.0126073
0.0678825
-0.0254919
0.0124452
0.0806444
-0.0249325
0.0121707
0.0930781
-0.0243005
0.0118667
-0.0238344
0.105331
0.0115818
0.00128222
-0.00441414
0.00717008
-0.0181536
0.0168912
-0.0292657
0.0288376
-0.0356384
0.0417324
-0.0383256
0.0548361
-0.0388935
0.0677947
-0.0384505
0.0804667
-0.0376046
0.0928148
-0.0366486
-0.0360046
0.104985
0.00137014
-0.00578428
0.00736118
-0.0241447
0.0171259
-0.0390304
0.0290465
-0.047559
0.0418638
-0.0511429
0.0548594
-0.0518891
0.0676959
-0.051287
0.0802419
-0.0501506
0.0924678
-0.0488745
-0.0480543
0.104517
0.00149057
-0.00727486
0.00762412
-0.0302782
0.0174502
-0.0488564
0.029338
-0.0594468
0.0420531
-0.063858
0.0549067
-0.0647427
0.0675834
-0.0639637
0.0799652
-0.0625324
0.0920322
-0.0609415
-0.059944
0.103922
0.00164857
-0.00892342
0.00796708
-0.0365967
0.0178707
-0.05876
0.0297135
-0.0712896
0.0422962
-0.0764407
0.0549696
-0.0774162
0.0674473
-0.0764413
0.0796283
-0.0747134
0.0915032
-0.0728165
-0.0716349
0.103194
0.00184641
-0.0107698
0.00838938
-0.0431397
0.0183783
-0.068749
0.0301538
-0.0830651
0.042564
-0.0888509
0.0550122
-0.0898644
0.0672496
-0.0886786
0.0791967
-0.0866605
0.0908535
-0.0844733
-0.0830847
0.102303
0.00208127
-0.0128511
0.00887545
-0.0499339
0.0189393
-0.0788128
0.030605
-0.0947308
0.0427837
-0.10103
0.0549454
-0.102026
0.0668893
-0.100623
0.0785637
-0.0983348
0.0899743
-0.0958839
-0.0942277
0.101117
0.00233698
-0.0151881
0.00937598
-0.0569729
0.0194665
-0.0889033
0.030943
-0.106207
0.0427953
-0.112882
0.0545726
-0.113804
0.0661294
-0.112179
0.0774446
-0.10965
0.0885215
-0.106961
-0.104896
0.0991896
0.00257944
-0.0177675
0.00980193
-0.0641954
0.0198126
-0.098914
0.0309619
-0.117357
0.0423302
-0.12425
0.0535515
-0.125025
0.0645355
-0.123163
0.0752872
-0.120402
0.0857916
-0.117465
-0.114726
0.0956219
0.00279897
0.010134
0.0199537
0.0306317
0.0413381
0.0517824
0.0619209
0.0717888
0.0813627
0.0900429
0.155861
-0.143496
0.0929658
0.181662
-0.102894
0.0770929
0.194627
-0.0766483
0.0636832
0.200882
-0.0577947
0.0515394
0.203616
-0.0434712
0.0407375
0.204384
-0.0321731
0.0314043
0.204006
-0.0231
0.0234786
0.202922
-0.0156402
0.0167235
0.201398
-0.00970038
0.0112253
-0.00259962
0.00453568
0.15486
-0.193371
0.180698
-0.128732
0.193907
-0.0898575
0.200407
-0.0642942
0.203338
-0.0464019
0.204266
-0.0331018
0.204024
-0.0228576
0.203065
-0.0146812
0.201659
-0.00829492
-0.000786742
0.153118
-0.241971
0.178868
-0.154482
0.192352
-0.103342
0.199188
-0.0711302
0.202428
-0.0496419
0.203638
-0.0343125
0.20366
-0.0228792
0.202956
-0.0139776
0.201803
-0.00714181
0.000767792
0.150588
-0.288637
0.176155
-0.180049
0.189957
-0.117143
0.197226
-0.0783998
0.20089
-0.0533051
0.202504
-0.035927
0.202916
-0.0232911
0.202597
-0.0136587
0.201828
-0.00637259
0.00192972
0.147242
-0.332685
0.172551
-0.205358
0.186725
-0.131317
0.194528
-0.0862033
0.19873
-0.0575068
0.200869
-0.0380662
0.201796
-0.0242178
0.201989
-0.0138514
0.201733
-0.00611659
0.00256648
0.14305
-0.373432
0.168037
-0.230346
0.18266
-0.145939
0.191103
-0.094646
0.195959
-0.0623635
0.198743
-0.0408497
0.200306
-0.0257808
0.201134
-0.0146797
0.201517
-0.0065001
0.00254801
0.137931
-0.410245
0.162562
-0.254976
0.177755
-0.161133
0.186957
-0.103848
0.192589
-0.0679955
0.196136
-0.0443958
0.198454
-0.0280989
0.200037
-0.0162634
0.201183
-0.0076456
0.00174763
0.131798
-0.442854
0.155981
-0.27916
0.171949
-0.1771
0.182082
-0.113982
0.188627
-0.0745405
0.193059
-0.0488274
0.196249
-0.0312892
0.198704
-0.018719
0.20073
-0.00967131
4.27616e-05
0.124508
-0.47174
0.1481
-0.302752
0.165054
-0.194054
0.17638
-0.125308
0.184038
-0.0821982
0.189506
-0.0542951
0.193695
-0.0354788
0.19714
-0.0221632
0.200161
-0.0126922
-0.00268476
0.117126
-0.498823
0.140028
-0.325654
0.157725
-0.211751
0.170138
-0.137721
0.17894
-0.0909999
0.185529
-0.0608846
0.190818
-0.0407672
0.195354
-0.0266996
0.199477
-0.016815
-0.00654805
0.370762
-0.441552
-0.428033
0.341218
-0.29611
0.326585
-0.197118
0.319863
-0.130999
0.316403
-0.08754
0.314314
-0.0587954
0.312911
-0.0393645
0.311952
-0.0257409
0.311316
-0.0161784
-0.00628693
0.383356
-0.376544
-0.448363
0.351382
-0.264136
0.334757
-0.180492
0.325776
-0.122019
0.320486
-0.0822497
0.317115
-0.0554239
0.314872
-0.0371222
0.313384
-0.0242531
0.312432
-0.015226
-0.00591063
0.397906
-0.314748
-0.459702
0.363249
-0.229479
0.343242
-0.160485
0.331553
-0.11033
0.324386
-0.0750835
0.319776
-0.0508135
0.316733
-0.0340795
0.314742
-0.0222617
0.313486
-0.0139695
-0.00542073
0.407638
-0.257117
-0.465269
0.372177
-0.194017
0.350254
-0.138563
0.336596
-0.0966725
0.327892
-0.0663788
0.322203
-0.0451247
0.318441
-0.030318
0.31599
-0.0198105
0.314452
-0.0124313
-0.0048239
0.414664
-0.204005
-0.467776
0.379251
-0.158605
0.356067
-0.115379
0.340909
-0.0815144
0.33095
-0.0564194
0.324345
-0.0385202
0.319958
-0.0259307
0.317101
-0.016953
0.31531
-0.010641
-0.00413
0.419595
-0.155132
-0.468468
0.384702
-0.123712
0.360726
-0.0914027
0.344463
-0.0652512
0.333516
-0.0454728
0.326163
-0.0311673
0.321253
-0.0210203
0.318051
-0.0137513
0.316044
-0.00863378
-0.00335138
0.422929
-0.109829
-0.468232
0.388724
-0.0895067
0.364285
-0.0669638
0.347241
-0.0482078
0.335554
-0.0337851
0.32762
-0.0232331
0.322294
-0.0156952
0.318817
-0.0102735
0.316633
-0.00644987
-0.00250239
0.424747
-0.0669001
-0.467676
0.391185
-0.0559447
0.366549
-0.0423279
0.349034
-0.0306925
0.336858
-0.0216099
0.328526
-0.0149009
0.322911
-0.0100801
0.319238
-0.00660066
0.316927
-0.00413867
-0.00160185
0.420092
-0.0236148
-0.463377
0.387265
-0.0231179
0.363106
-0.0181695
0.345782
-0.0133682
0.333642
-0.00946951
0.32529
-0.00654892
0.319647
-0.0044371
0.315955
-0.00290905
0.313634
-0.00181763
-0.000696928
0.334269
-0.357884
0.311151
0.292982
0.279614
0.270144
0.263595
0.259158
0.256249
0.254432
0.45957
0.0110039
-0.458151
0.460163
0.0232519
0.459898
0.0350711
0.458745
0.046214
0.45634
0.0569219
0.453399
0.0656947
0.447662
0.0764477
0.44367
0.0799308
0.432474
0.0951265
0.0889129
0.440994
0.00979726
-0.439787
0.442371
0.0218754
0.443809
0.0336325
0.445339
0.0446841
0.446569
0.0556916
0.448066
0.0641984
0.448552
0.0759615
0.449596
0.0788871
0.450593
0.0941288
0.0911432
0.425443
0.00842429
-0.42407
0.427497
0.0198216
0.430153
0.0309764
0.4334
0.0414368
0.437116
0.0519756
0.441228
0.0600871
0.445934
0.0712553
0.450088
0.0747336
0.456025
0.0881915
0.0874663
0.413402
0.00701077
-0.411989
0.415841
0.0173832
0.419266
0.0275515
0.423601
0.0371016
0.428903
0.046674
0.434741
0.0542484
0.441927
0.0640697
0.448617
0.0680437
0.457627
0.0791808
0.0798242
0.403982
0.00556788
-0.402539
0.406696
0.0146688
0.410653
0.0235948
0.415751
0.0320036
0.422095
0.0403297
0.429211
0.0471328
0.437931
0.0553499
0.446606
0.0593683
0.457557
0.0682304
0.0696046
0.396827
0.00408835
-0.395347
0.39974
0.0117551
0.404064
0.0192709
0.409697
0.0263704
0.416724
0.0333034
0.424746
0.0391108
0.434405
0.0456903
0.444427
0.049346
0.456525
0.0561334
0.0576614
0.391578
0.00255488
-0.390044
0.394655
0.00867797
0.399253
0.0146732
0.405276
0.0203471
0.412759
0.0258208
0.421394
0.0304759
0.431608
0.0354755
0.442496
0.0384585
0.455249
0.0433806
0.0446782
0.387228
0.000862061
-0.385535
0.390541
0.00536509
0.395467
0.00974647
0.401908
0.0139061
0.409834
0.0178956
0.41899
0.0213194
0.429594
0.0248711
0.441035
0.0270182
0.454129
0.0302861
0.0311317
0.373435
-0.0007487
-0.371825
0.377173
0.0016278
0.382809
0.00411004
0.39024
0.00647518
0.399356
0.00877923
0.409855
0.0108211
0.421801
0.012925
0.434566
0.0142531
0.448684
0.0161679
0.0164389
0.266286
-0.267034
0.267914
0.272024
0.278499
0.287278
0.298099
0.311024
0.325277
0.341445
0.0779687
0.125815
-0.114354
-0.089429
0.0674729
0.128103
-0.117607
0.057664
0.130953
-0.121144
0.0481418
0.134526
-0.125003
0.0386032
0.138502
-0.128964
0.0289338
0.142465
-0.132796
0.0192605
0.144939
-0.135265
0.0101683
0.140841
-0.131748
0.00303424
0.117991
-0.110857
0.0576885
-0.0546543
0.0773304
0.135898
-0.0874137
0.0670932
0.13834
0.0569992
0.141047
0.0471403
0.144385
0.0374204
0.148222
0.0277634
0.152122
0.0182809
0.154421
0.0095229
0.149599
0.00277919
0.124734
0.0604677
0.0708707
0.144526
-0.079499
0.0618099
0.147401
0.0526089
0.150248
0.043422
0.153572
0.0342741
0.15737
0.0251756
0.161221
0.0162974
0.1633
0.00823199
0.157664
0.00223929
0.130727
0.062707
0.0607345
0.151698
-0.0679061
0.0532105
0.154925
0.0454037
0.158055
0.0374128
0.161562
0.029309
0.165474
0.0211796
0.16935
0.0132831
0.171196
0.00629055
0.164657
0.00143543
0.135582
0.0641424
0.0497259
0.157635
-0.0556635
0.0435614
0.161089
0.0371023
0.164514
0.0303835
0.168281
0.0234735
0.172384
0.0164994
0.176324
0.00979318
0.177902
0.00409807
0.170352
0.000540273
0.13914
0.0646827
0.0391524
0.162597
-0.0441138
0.0340595
0.166182
0.0287336
0.16984
0.0231765
0.173838
0.0174408
0.17812
0.0116684
0.182097
0.00621834
0.183352
0.00189413
0.174676
-0.000300377
0.141335
0.0643823
0.0289776
0.166682
-0.0330624
0.0248285
0.170331
0.0205215
0.174147
0.0160479
0.178312
0.0114498
0.182718
0.00687615
0.18667
0.00273802
0.18749
-0.000328885
0.177743
-0.00101132
0.142017
0.063371
0.0188446
0.16982
-0.0219833
0.0156735
0.173502
0.0123926
0.177428
0.0090011
0.181703
0.00554567
0.186173
0.00218191
0.190034
-0.000699553
0.190372
-0.00211801
0.179161
-0.00167296
0.141572
0.061698
0.00859968
0.171939
-0.0107184
0.00646431
0.175638
0.00426255
0.179629
0.00200454
0.183961
-0.000263251
0.188441
-0.00235371
0.192125
-0.00378996
0.191808
-0.00393932
0.179311
-0.00226876
0.139901
0.0594293
-0.00157797
0.000416523
-0.00267499
-0.00377698
-0.00488661
-0.00594149
-0.00674386
-0.0068648
-0.00563321
-0.00279533
0.106005
0.0230735
-0.117351
-0.0117274
0.0943139
0.0236836
-0.0119923
0.0822769
0.0243113
-0.0122743
0.0698763
0.0249771
-0.0125764
0.057096
0.0256847
-0.0129045
0.0439307
0.0264168
-0.0132515
0.030469
0.0270032
-0.0135415
0.017218
0.0266644
-0.0134133
0.00583667
0.0231493
-0.0117679
0.0121883
-0.00635161
0.105127
0.0343843
-0.116438
0.0934872
0.0353235
0.0815143
0.0362841
0.0691906
0.0373008
0.0564994
0.0383759
0.0434355
0.0394807
0.0300897
0.040349
0.016972
0.0397821
0.00573494
0.0343863
0.0179232
0.103861
0.0456394
-0.115116
0.0923049
0.0468792
0.0804316
0.0481575
0.0682225
0.0495099
0.055661
0.0509373
0.0427426
0.0523992
0.0295613
0.0535302
0.0166314
0.052712
0.00559235
0.0454254
0.0235156
0.102128
0.0568103
-0.113299
0.0906935
0.0583141
0.078961
0.0598899
0.0669122
0.0615588
0.0545294
0.0633201
0.0418091
0.0651194
0.0288508
0.0664885
0.0161752
0.0653875
0.00540043
0.0562002
0.028916
0.099816
0.0678644
-0.11087
0.0885523
0.0695778
0.0770212
0.071421
0.0651984
0.0733816
0.0530618
0.0754567
0.0406066
0.0775746
0.0279393
0.0791559
0.0155933
0.0777335
0.0051722
0.0666213
0.0340882
0.09674
0.0787413
-0.107617
0.0857164
0.0806013
0.0744569
0.0826805
0.0629348
0.0849037
0.0511259
0.0872656
0.0390248
0.0896757
0.0267435
0.0914372
0.0148253
0.0896517
0.0048544
0.0765922
0.0389426
0.0929433
0.0892717
-0.103474
0.082352
0.0911926
0.0715394
0.0934931
0.0604482
0.0959949
0.0490483
0.0986655
0.0373462
0.101378
0.0254788
0.103305
0.0140177
0.101113
0.00452891
0.086081
0.0434715
0.0869754
0.0992829
-0.0969865
0.0769697
0.101198
0.0668166
0.103646
0.0564381
0.106373
0.0457679
0.109336
0.0347863
0.112359
0.0236269
0.114464
0.0128739
0.111866
0.00406943
0.0948855
0.047541
0.0836234
0.108152
-0.0924924
0.0744796
0.110342
0.0647751
0.113351
0.0546185
0.11653
0.0441182
0.119836
0.0333507
0.123127
0.0224933
0.125322
0.0121419
0.122217
0.00378604
0.103241
0.051327
0.0727461
-0.0789487
0.0654812
0.0576879
0.0492145
0.040087
0.0304178
0.0204738
0.0109426
0.00332726
0.201562
0.0133979
-0.0169703
0.204147
0.0255991
-0.0281843
0.204426
0.0315008
-0.0317792
0.205339
0.0334228
-0.034336
0.204802
0.039509
-0.0389724
0.202487
0.0481124
-0.0457967
0.196898
0.0602224
-0.0546334
0.186185
0.076495
-0.0657824
0.16209
0.102257
-0.0781618
0.13841
-0.0936709
0.201332
0.0100552
0.203781
0.0231504
0.204004
0.0312784
0.204848
0.032578
0.204212
0.0401455
0.201746
0.0505781
0.195972
0.0659968
0.184946
0.087521
0.160722
0.12648
0.182694
0.200978
0.00706701
0.203137
0.020991
0.203207
0.0312088
0.203849
0.0319365
0.202978
0.0410162
0.200237
0.0533193
0.194176
0.072057
0.182731
0.0989666
0.158312
0.150899
0.225891
0.200494
0.00456282
0.20222
0.0192649
0.202047
0.0313817
0.202351
0.0316332
0.201113
0.0422539
0.19797
0.0564621
0.19151
0.0785173
0.179534
0.110942
0.154935
0.175497
0.267527
0.199874
0.00267883
0.201034
0.0181049
0.200538
0.0318779
0.200367
0.0318033
0.198632
0.0439892
0.194961
0.0601331
0.187969
0.0855091
0.175356
0.123555
0.150931
0.199923
0.307587
0.19911
0.00155877
0.199586
0.0176289
0.198695
0.0327687
0.197914
0.0325842
0.195555
0.0463485
0.191227
0.0644608
0.18355
0.0931861
0.170183
0.136922
0.146498
0.223608
0.346469
0.198194
0.00135486
0.197885
0.0179375
0.196538
0.0341154
0.195007
0.0341153
0.191904
0.0494521
0.186789
0.069576
0.178289
0.101686
0.163963
0.151248
0.141559
0.246013
0.384554
0.197117
0.00222773
0.195945
0.0191094
0.194089
0.0359718
0.191665
0.0365385
0.187706
0.0534117
0.181673
0.0756091
0.172252
0.111106
0.156743
0.166757
0.135588
0.267167
0.423156
0.195881
0.00433647
0.193793
0.0211974
0.19137
0.0383953
0.187908
0.04
0.182988
0.0583322
0.175923
0.0826739
0.16558
0.121449
0.149538
0.182799
0.130068
0.286637
0.460732
0.194608
0.00771804
0.191459
0.0243466
0.188437
0.0414173
0.183713
0.0447237
0.177831
0.0642143
0.169607
0.0908983
0.157667
0.133389
0.139917
0.200549
0.119681
0.306873
0.501464
0.303245
0.00648373
0.305728
0.0218635
0.309517
0.0376281
0.311346
0.0428949
0.313871
0.0616893
0.316787
0.0879822
0.321609
0.128566
0.331563
0.190595
0.357567
0.280869
0.442189
0.416842
0.304026
0.00446773
0.306868
0.0190213
0.311055
0.0334415
0.31382
0.0401295
0.317659
0.0578505
0.32278
0.0828609
0.331002
0.120345
0.345813
0.175784
0.376029
0.250653
0.382693
0.435526
0.30478
0.00169764
0.308158
0.0156439
0.312608
0.0289916
0.31626
0.0364773
0.321243
0.0528677
0.3282
0.0759039
0.33911
0.109435
0.357092
0.157801
0.389934
0.217811
0.323283
0.449343
0.305554
-0.0018459
0.309456
0.011742
0.314144
0.0243032
0.318547
0.0320741
0.324552
0.0468627
0.333062
0.0673941
0.346057
0.0964403
0.366347
0.137511
0.400066
0.184092
0.266211
0.457138
0.306386
-0.00622189
0.310773
0.00735489
0.315627
0.0194496
0.320629
0.0270724
0.327503
0.0399887
0.337284
0.0576125
0.351848
0.081877
0.373775
0.115584
0.407182
0.150684
0.212529
0.460865
0.307345
-0.0115568
0.312147
0.00255345
0.31703
0.0145657
0.322459
0.0216432
0.330035
0.0324132
0.340818
0.0468294
0.356527
0.0661675
0.379527
0.0925843
0.412086
0.118125
0.162486
0.462129
0.308482
-0.018029
0.313605
-0.00256948
0.318325
0.0098457
0.323996
0.0159728
0.332103
0.0243057
0.343636
0.035297
0.360154
0.0496492
0.383784
0.0689547
0.415377
0.0865324
0.115759
0.462104
0.30985
-0.025869
0.315128
-0.00784711
0.319387
0.00558636
0.325091
0.0102688
0.333572
0.0158243
0.345631
0.0232385
0.362703
0.0325768
0.386657
0.0450007
0.417408
0.0557813
0.0718577
0.46131
0.308987
-0.0328453
0.313296
-0.0121564
0.316923
0.00195942
0.322615
0.00457611
0.33132
0.00711997
0.343722
0.0108367
0.361174
0.0151247
0.385253
0.0209219
0.415583
0.025451
0.0319159
0.455525
0.269165
0.257009
0.258968
0.263544
0.270664
0.281501
0.296625
0.317547
0.342998
0.374914
0.431171
-0.103757
0.435637
-0.0918798
0.438127
-0.0819894
0.440762
-0.0705409
0.443931
-0.0588325
0.447357
-0.04754
0.450724
-0.036429
0.453744
-0.0250039
0.456308
-0.0132825
-0.00142593
0.436288
-0.10452
0.436359
-0.0919512
0.435443
-0.0810733
0.435204
-0.0703021
0.435629
-0.0592571
0.436303
-0.0482139
0.437018
-0.0371443
0.437843
-0.0258283
0.438776
-0.0142159
-0.00243737
0.443122
-0.0982984
0.438378
-0.087207
0.433964
-0.0766599
0.43022
-0.0665581
0.427423
-0.0564599
0.425427
-0.0462177
0.424115
-0.0358324
0.423477
-0.0251903
0.423481
-0.0142201
-0.00302648
0.446797
-0.0879573
0.438359
-0.0787688
0.43116
-0.0694605
0.425081
-0.0604793
0.420233
-0.051612
0.416551
-0.0425358
0.41391
-0.0331913
0.412261
-0.0235416
0.41161
-0.0135683
-0.00340579
0.44824
-0.0753327
0.437499
-0.0680275
0.428384
-0.060346
0.4207
-0.0527952
0.414411
-0.0453229
0.409483
-0.0376083
0.405853
-0.0295613
0.403489
-0.0211773
0.402394
-0.0124728
-0.00355139
0.44825
-0.0614542
0.436124
-0.0559011
0.425727
-0.0499494
0.416937
-0.0440045
0.409671
-0.0380578
0.403902
-0.0318393
0.399599
-0.025258
0.396743
-0.018321
0.395329
-0.0110593
-0.00356934
0.447515
-0.0468659
0.43456
-0.0429456
0.423352
-0.0387418
0.413845
-0.0344976
0.405947
-0.03016
0.399628
-0.0255201
0.394878
-0.0205074
0.391693
-0.0151365
0.390084
-0.0094504
-0.00352963
0.446217
-0.0317726
0.432675
-0.029404
0.420931
-0.0269978
0.410936
-0.024502
0.402588
-0.021812
0.395864
-0.0187969
0.390774
-0.0154174
0.387336
-0.0116985
0.385579
-0.00769296
-0.00348562
0.439173
-0.0154215
0.424747
-0.014978
0.41218
-0.0144302
0.401327
-0.0136487
0.39209
-0.0125758
0.384476
-0.0111828
0.378552
-0.00949346
0.374415
-0.00756114
0.372158
-0.00543549
-0.00315273
0.359493
0.344515
0.330085
0.316436
0.30386
0.292677
0.283184
0.275623
0.270187
0.00837784
0.0700481
-0.078426
0.0166178
0.172075
-0.180315
0.0202169
0.222758
-0.226357
0.0203065
0.239519
-0.239608
0.0187239
0.241316
-0.239733
0.0165822
0.238441
-0.236299
0.0143259
0.234659
-0.232403
0.012109
0.230533
-0.228316
0.0100823
0.2245
-0.222473
0.211576
0.00854359
-0.210038
0.0100168
0.0600313
0.0223928
0.159699
0.0306507
0.2145
0.0350496
0.23512
0.0374219
0.238943
0.0391218
0.236741
0.0407368
0.233044
0.0423172
0.228952
0.0434012
0.223416
0.212286
0.0426919
0.0106356
0.0493957
0.0261449
0.14419
0.0387088
0.201937
0.0474655
0.226363
0.0539307
0.232478
0.05956
0.231112
0.0651192
0.227485
0.070718
0.223354
0.0756455
0.218488
0.210436
0.0774951
0.0101959
0.0391999
0.0273405
0.127045
0.043235
0.186042
0.055909
0.213689
0.0662581
0.222129
0.0756132
0.221757
0.084852
0.218246
0.0942696
0.213936
0.103432
0.209325
0.20363
0.110238
0.00891934
0.0302805
0.0260211
0.109943
0.0438083
0.168255
0.0594715
0.198026
0.0731211
0.208479
0.0857213
0.209157
0.0981019
0.205865
0.110694
0.201344
0.123464
0.196555
0.191526
0.135569
0.00715512
0.0231254
0.0227876
0.0943108
0.0408845
0.150158
0.0582547
0.180656
0.0742515
0.192483
0.0893119
0.194096
0.104042
0.191136
0.118863
0.186522
0.133968
0.181451
0.175962
0.149531
0.00530436
0.017821
0.0186617
0.0809534
0.0358037
0.133016
0.0536079
0.162851
0.0708629
0.175228
0.0874624
0.177497
0.103681
0.174917
0.119809
0.170394
0.136011
0.165248
0.159212
0.152762
0.0036784
0.0141426
0.0146296
0.0700022
0.0301153
0.11753
0.0473466
0.14562
0.0647869
0.157787
0.0818817
0.160402
0.0985615
0.158238
0.114916
0.154039
0.131088
0.149076
0.143138
0.147162
0.00248989
0.0116527
0.0114548
0.0610373
0.0252413
0.103744
0.0414653
0.129396
0.0584894
0.140763
0.0754984
0.143393
0.0921983
0.141538
0.108559
0.137678
0.124699
0.132937
0.126623
0.141214
0.00174131
0.00991142
0.00930529
0.0534734
0.0216537
0.0913954
0.0367201
0.11433
0.0528622
0.124621
0.0691019
0.127153
0.0849322
0.125707
0.100096
0.122515
0.114337
0.118695
0.11354
0.12742
0.00136504
0.00854639
0.00811853
0.0467199
0.0194934
0.0800205
0.0336464
0.100177
0.0490212
0.109246
0.0646521
0.111522
0.080047
0.110313
0.0950117
0.10755
0.109486
0.104221
0.101099
0.121927
0.00123212
0.00731427
0.00758063
0.0403714
0.0183724
0.0692287
0.0318891
0.08666
0.0466582
0.0944772
0.0617531
0.0964274
0.0766863
0.0953794
0.0912384
0.0929977
0.105337
0.0901224
0.0881523
0.118283
0.00118249
0.00613178
0.00730213
0.0342517
0.0177007
0.0588301
0.0307147
0.0736461
0.0449267
0.0802651
0.0594471
0.081907
0.0738055
0.0810209
0.0877842
0.0790191
0.101296
0.0766108
0.0752295
0.114219
0.00115583
0.00497596
0.00712436
0.0282832
0.0172437
0.0487108
0.0298751
0.0610147
0.043639
0.0665012
0.0576806
0.0678654
0.0715524
0.0671492
0.0850466
0.0655249
0.0980757
0.0635817
0.0625634
0.110742
0.00114238
0.00383358
0.0070129
0.0224127
0.0169469
0.0387768
0.0293189
0.0486427
0.0427749
0.0530452
0.0564882
0.054152
0.0700332
0.0536042
0.0832165
0.0523415
0.0959622
0.050836
0.0500928
0.108433
0.00113612
0.00269746
0.00694412
0.0166046
0.0167603
0.0289607
0.028968
0.0364349
0.0422309
0.0397824
0.0557426
0.0406403
0.0690954
0.0402515
0.0821096
0.0393273
0.0947211
0.0382245
0.0377162
0.107098
0.00113491
0.00156255
0.00690508
0.0108345
0.0166488
0.019217
0.0287568
0.0243268
0.0419049
0.0266344
0.0553008
0.0272443
0.0685491
0.0270032
0.0814797
0.0263967
0.0940354
0.0256688
0.0253744
0.106377
0.00114016
0.000422392
0.00689303
0.0050816
0.0165957
0.00951429
0.0286446
0.0122779
0.0417248
0.0135542
0.055054
0.0139152
0.0682448
0.0138124
0.0811334
0.0135082
0.0936666
0.0131356
0.0130424
0.105999
0.00115379
-0.000731397
0.00690851
-0.000673117
0.0165933
-0.000170465
0.0286059
0.00026533
0.041641
0.000519042
0.0549243
0.000631911
0.0680747
0.000661923
0.0809332
0.0006497
0.0934493
0.000619435
0.000719982
0.105772
0.00117985
0.00695458
0.0166349
0.028624
0.0416211
0.0548603
0.0679674
0.0807878
0.093274
0.105576
0.138315
0.277058
-0.293446
0.150352
0.119612
-0.131649
0.159817
0.0409812
-0.0504459
0.167139
0.00566658
-0.0129889
0.173297
-0.00817006
0.00201276
0.178787
-0.0122938
0.00680389
0.183829
-0.0123003
0.00725783
0.188515
-0.0106844
0.00599901
0.192893
-0.00866265
0.00428433
-0.00570368
0.00175388
0.141
0.254342
0.15634
0.104272
0.166416
0.0309048
0.173476
-0.00139333
0.178853
-0.0135474
0.183374
-0.0168149
0.187351
-0.0162772
0.190922
-0.0142555
0.194169
-0.0119094
-0.00852992
0.143735
0.224826
0.161667
0.0863397
0.172282
0.0202899
0.17906
-0.00817143
0.183851
-0.0183384
0.187538
-0.0205015
0.190567
-0.0193064
0.193136
-0.0168243
0.195361
-0.0141352
-0.0103399
0.14648
0.189087
0.166452
0.0663684
0.177548
0.00919329
0.184111
-0.0147344
0.188331
-0.0225585
0.191277
-0.0234468
0.193466
-0.0214954
0.195146
-0.0185048
0.196466
-0.0154552
-0.0112461
0.149193
0.148327
0.170697
0.0448641
0.182172
-0.00228164
0.188541
-0.0211034
0.192275
-0.0262927
0.194578
-0.0257495
0.196038
-0.0229553
0.196947
-0.0194139
0.197479
-0.0159877
-0.0113656
0.151574
0.103851
0.174335
0.0221027
0.186125
-0.0140712
0.192331
-0.02731
0.195661
-0.0296223
0.197424
-0.0275129
0.19827
-0.0238013
0.198529
-0.0196722
0.198396
-0.0158549
-0.0108198
0.153522
0.0567062
0.177312
-0.00168764
0.189369
-0.0261282
0.195456
-0.0333968
0.198468
-0.0326348
0.199801
-0.0288455
0.200153
-0.0241528
0.199885
-0.0194041
0.199212
-0.0151825
-0.00973401
0.154972
0.00773255
0.179572
-0.0262869
0.191868
-0.0384251
0.19789
-0.0394184
0.20068
-0.0354247
0.201695
-0.0298603
0.201674
-0.0241325
0.201007
-0.0187368
0.199924
-0.0140993
-0.00823687
0.155868
-0.0423633
0.181073
-0.0514923
0.193592
-0.0509446
0.199615
-0.045441
0.202281
-0.038091
0.203095
-0.0306736
0.202828
-0.0238655
0.201891
-0.0177996
0.200527
-0.012736
-0.00645965
0.156178
0.181779
0.194518
0.200616
0.203262
0.203993
0.203606
0.20253
0.201019
0.139257
0.0104715
-0.149728
0.130822
0.00843505
0.126471
0.00435031
0.12535
0.00112168
0.12586
-0.000510437
0.126896
-0.00103608
0.127928
-0.00103153
0.128757
-0.000829246
0.129329
-0.000571729
-0.000223748
0.233904
0.0780373
-0.30147
0.203565
0.0387735
0.191768
0.0161478
0.188392
0.00449709
0.188447
-0.000564964
0.189685
-0.00227417
0.191112
-0.00245845
0.19232
-0.00203749
0.193191
-0.00144223
-0.000580805
0.246366
0.15693
-0.325258
0.212667
0.0724725
0.199893
0.0289212
0.196296
0.00809393
0.19637
-0.00063827
0.19768
-0.00358439
0.19919
-0.00396808
0.20047
-0.00331792
0.2014
-0.00237224
-0.000966077
0.241718
0.229488
-0.314276
0.210764
0.103427
0.199312
0.0403731
0.196405
0.0110011
0.196816
-0.00105009
0.198311
-0.00507875
0.199903
-0.00556037
0.201223
-0.00463758
0.202171
-0.00332065
-0.00135776
0.235881
-0.299839
0.207658
0.197585
0.195598
0.19656
0.198285
0.199983
0.201344
0.202308
0.0151894
0.000130734
-0.0153202
0.0169087
-0.00171923
0.0204053
-0.00349659
0.0259763
-0.00557109
0.0345933
-0.00861693
0.0469749
-0.0123816
0.0659973
-0.0190225
0.0885267
-0.0225294
0.119716
-0.0311896
-0.0300117
0.0428692
-0.000299511
-0.0424389
0.0486701
-0.00752021
0.0602568
-0.0150833
0.0786579
-0.0239722
0.104785
-0.0347437
0.138485
-0.0460817
0.179143
-0.0596804
0.220713
-0.0640998
0.26504
-0.075516
-0.0664419
0.066318
-0.00182699
-0.0647905
0.0757956
-0.0169978
0.0938053
-0.033093
0.12084
-0.0510065
0.155803
-0.0697075
0.195748
-0.0860262
0.235523
-0.0994559
0.270963
-0.0995396
0.301903
-0.106456
-0.0897971
0.0845188
-0.00460048
-0.0817453
0.0965888
-0.0290677
0.118197
-0.0547015
0.148245
-0.0810542
0.183219
-0.104681
0.218351
-0.121158
0.248307
-0.129412
0.274526
-0.125759
0.29586
-0.12779
-0.108213
0.0975918
-0.0936487
0.111216
0.13401
0.163194
0.194081
0.222454
0.245804
0.267207
0.280631
0.0948144
-0.0895167
0.0978247
-0.103122
0.0858549
-0.0919403
0.1009
0.0765105
-0.095261
0.104605
0.0663055
-0.0986936
0.108899
0.0551047
-0.102136
0.113337
0.0429667
-0.105531
0.117669
0.0301084
-0.10815
0.121008
0.0171607
-0.106612
0.119559
0.0058715
-0.0915966
0.102886
-0.0468772
0.0527487
0.105126
-0.0792608
-0.115382
0.0944822
-0.0812968
0.0829768
-0.0837555
0.0707146
-0.0864314
0.0578713
-0.0892929
0.0445712
-0.0922306
0.0309598
-0.0945386
0.0175544
-0.0932062
0.00600148
-0.0800437
-0.0408758
0.103486
-0.0679604
-0.114786
0.0920659
-0.069877
0.0803876
-0.0720771
0.0683978
-0.0744416
0.0560279
-0.076923
0.0432261
-0.0794288
0.0300549
-0.0813673
0.0170148
-0.0801661
0.00576874
-0.0687976
-0.035107
0.105613
-0.0565718
-0.117002
0.0940716
-0.0583353
0.0822025
-0.060208
0.0699393
-0.0621784
0.0572423
-0.0642261
0.0441051
-0.0662916
0.0306284
-0.0678906
0.0173356
-0.0668734
0.00589599
-0.057358
-0.029211
0.106318
-0.0451539
-0.117736
0.0946281
-0.0466453
0.0825924
-0.0481724
0.0701855
-0.0497715
0.0573865
-0.051427
0.044187
-0.0530921
0.0306737
-0.0543773
0.0173514
-0.0535511
0.00588129
-0.0458879
-0.0233297
0.106771
-0.0337613
-0.118164
0.0950566
-0.0349304
0.0829837
-0.0360995
0.0705312
-0.037319
0.0576797
-0.0385756
0.0444218
-0.0398343
0.0308452
-0.0408007
0.0174568
-0.0401627
0.00592808
-0.0343591
-0.0174017
0.107007
-0.0223809
-0.118387
0.0952758
-0.023199
0.0831787
-0.0240024
0.0706972
-0.0248376
0.0578153
-0.0256937
0.0445276
-0.0265466
0.0309215
-0.0271946
0.0175035
-0.0267446
0.00594966
-0.0228053
-0.011452
0.107066
-0.0110041
-0.118442
0.0953246
-0.011458
0.0832183
-0.011896
0.0707288
-0.0123481
0.0578404
-0.0128053
0.0445479
-0.013254
0.0309381
-0.0135849
0.0175171
-0.0133236
0.00595732
-0.0112456
-0.00549469
0.106925
0.000347499
-0.118277
0.095188
0.00027923
0.0830894
0.000202671
0.0706113
0.000129992
0.0577371
6.89433e-05
0.0444631
1.99617e-05
0.0308743
3.89671e-06
0.0174782
7.2509e-05
0.00594327
0.000289383
0.000448578
0.106558
-0.117938
0.0948452
0.0827736
0.0703271
0.0574916
0.0442601
0.0307224
0.0173816
0.00590304
0.0223934
-0.207318
-0.0251127
0.0173946
-0.217474
0.0116779
-0.222599
0.00585792
-0.226583
0.000174865
-0.230616
-0.00505302
-0.234505
-0.00892137
-0.23574
-0.00974103
-0.225538
-0.00600041
-0.184056
-0.0844264
0.052714
-0.201791
-0.0582409
0.0444253
-0.209186
0.0354459
-0.21362
0.0264743
-0.217611
0.0177007
-0.221843
0.0093098
-0.226114
0.00188718
-0.228317
-0.00297509
-0.220675
-0.00329402
-0.183737
-0.0877204
0.0785041