/*--------------------------------*- C++ -*----------------------------------*\
  =========                 |
  \\      /  F ield         | OpenFOAM: The Open Source CFD Toolbox
   \\    /   O peration     | Website:  https://openfoam.org
    \\  /    A nd           | Version:  13
     \\/     M anipulation  |
\*---------------------------------------------------------------------------*/
FoamFile
{
    format      ascii;
    class       surfaceScalarField;
    location    "8.1";
    object      phi;
}
// * * * * * * * * * * * * * * * * * * * * * * * * * * * * * * * * * * * * * //

dimensions      [0 3 -1 0 0 0 0];

internalField   nonuniform List<scalar> 
823
(
0.00263681
0.0134849
-0.0161217
0.0292572
0.00280728
-0.0294277
0.0982653
-0.0445995
-0.0244086
0.201733
-0.113476
0.0100079
-0.147469
0.00495013
0.344253
0.00637786
0.00710699
0.060245
-0.0510599
0.162556
-0.14691
0.279133
-0.230053
-0.302568
0.434231
0.0259083
-0.0188013
0.119712
-0.144863
0.237185
-0.264384
0.34777
-0.340638
-0.383289
0.428492
0.0493826
-0.068184
0.149837
-0.245318
0.232413
-0.346959
0.279606
-0.387831
-0.398493
0.29481
0.0615845
-0.129768
0.13159
-0.315323
0.169056
-0.384426
0.183123
-0.401898
0.193206
-0.408575
-0.020244
0.0663278
-0.0460838
-0.0558266
0.093452
-0.0578694
-0.0930427
0.0912135
-0.0539974
-0.12833
0.0816169
-0.0463293
0.0681215
-0.161508
-0.0349441
0.002518
0.0638098
-0.00672841
0.102698
-0.0217561
0.106241
-0.0377922
0.0976529
0.0830014
-0.0526721
0.0196014
0.0442084
0.039095
0.0832048
0.0539402
0.091396
0.0671747
0.0844184
0.071771
0.0784051
0.0223498
0.0218586
0.0567915
0.0487631
0.0915015
0.056686
0.12833
0.0475902
0.0441717
0.155929
0.00573693
0.0250724
0.0573498
0.114948
0.16407
-0.21551
-0.256403
0.310406
0.110547
-1.40461
1.07855
0.266803
0.0590361
-0.215293
0.171128
1.04168
-0.946
0.132753
-0.242406
-0.128187
-0.180888
0.095927
-1.62872
0.222507
-0.0675434
0.177102
1.08708
-0.0416984
0.178567
-0.28105
0.293981
-1.74413
0.260369
-0.0339313
0.245536
1.10191
-0.24465
0.406954
-0.532074
0.410531
-1.74771
0.236519
0.140081
0.332248
1.00618
-0.480447
0.421026
-0.789031
0.281761
-1.60845
0.159363
0.262478
0.500173
0.665374
-0.678257
1.30171
-0.859816
-1.23092
0.840022
-1.14676
0.607466
0.495034
1.1572
0.115638
-0.764887
1.33816
-0.738766
-1.45921
0.825784
-0.634378
0.894347
0.42647
1.3384
-0.328414
-0.702658
1.21482
-0.553691
-1.3999
0.84965
-0.269207
1.08858
0.187542
1.27274
-0.512574
-0.501223
1.04725
-0.285586
-1.31536
0.866567
-0.0885234
1.09091
-0.0368045
0.926228
-0.347889
-0.204146
0.577642
-0.863228
0.489118
0.452314
0.104424
1.1308
0.1624
-1.09999
1.21884
0.206768
1.31574
0.331595
1.35808
0.391882
0.471413
1.03979
0.102487
-0.979878
1.11833
0.128225
1.22033
0.229595
1.33544
0.276772
0.347642
0.992592
0.049805
-0.93991
1.04606
0.0747543
1.14219
0.133467
1.25784
0.161125
0.205583
0.939759
0.0115912
-0.901545
0.989915
0.0245983
1.07693
0.0464562
1.18247
0.0555808
0.0726977
0.663895
-0.652304
0.688493
0.734949
0.79053
0.141015
0.30741
-0.250987
-0.197438
0.0939304
0.312219
-0.265134
0.0526593
0.322905
-0.281634
0.0182595
0.314158
-0.279759
0.202856
-0.184597
0.101704
0.343846
-0.138139
0.0656103
0.348313
0.0336877
0.354828
0.00827915
0.339567
0.211135
0.072749
0.380642
-0.109545
0.0393482
0.381713
0.0109097
0.383266
-0.00507828
0.355555
0.206057
-0.00914818
0.396462
-0.00667184
-0.0260811
0.398646
-0.0344194
0.391605
-0.026985
0.34812
0.179072
-0.0860276
0.0739142
-0.0892795
-0.0821005
-0.0493034
0.19477
0.112253
-0.247939
-0.0590841
0.141264
0.116811
-0.0633047
0.0872382
0.12171
-0.0676848
0.0352501
0.121521
-0.0695333
0.0862852
-0.0510351
0.194935
0.155395
-0.238077
0.148614
0.163133
0.096525
0.173799
0.040996
0.17705
0.127281
0.134467
0.200262
-0.179335
0.0939031
0.203697
0.0556045
0.212098
0.019939
0.212716
0.14722
0.155688
0.231861
-0.187287
0.116319
0.243066
0.0715846
0.256832
0.0279863
0.256314
0.175206
0.0797048
-0.0988308
0.0576363
0.0328343
0.00939003
0.40546
0.0754579
-0.0849385
0.422174
0.038869
-0.0555827
0.40873
0.200456
-0.187013
0.395212
0.222467
-0.208948
0.513767
-0.366494
0.402668
0.0687699
0.41589
0.0256469
0.400125
0.216221
0.385235
0.237357
0.660924
0.396542
0.0682073
0.410587
0.0116025
0.380049
0.246758
0.373772
0.243634
0.855362
0.3936
0.0705866
0.397171
0.00803142
0.371665
0.272265
0.352223
0.263076
1.0203
0.386246
0.0803206
0.3884
0.00587715
0.342454
0.318211
0.322784
0.282746
1.24425
0.624687
0.0596543
0.656884
-0.02632
0.705118
0.269977
0.798154
0.18971
1.02596
1.01644
0.640173
0.023502
0.659622
-0.0457693
0.742781
0.186818
0.768786
0.163705
0.78018
1.01457
0.648134
-0.0206111
0.663456
-0.0610921
0.729164
0.12111
0.760059
0.13281
0.514255
1.02598
0.640653
-0.0572436
0.635792
-0.0562315
0.70315
0.0537522
0.781758
0.0542028
0.234305
1.06171
0.546777
0.490545
0.544298
0.5985
0.832806
1.0544
-0.235393
1.04171
-0.125447
1.05304
-0.120879
1.04708
-0.00071427
0.0210068
0.969453
-0.19028
0.956437
-0.112431
0.942033
-0.106475
0.955271
-0.0139523
-0.00360059
0.963364
-0.12766
0.947073
-0.0961399
0.919251
-0.0786525
0.933945
-0.0286464
-0.00956553
0.992016
-0.0579692
0.945546
-0.0496697
0.906983
-0.0400891
0.900813
-0.0224761
-0.0102978
0.774836
0.725167
0.685078
0.662602
0.048479
0.135549
-0.184028
0.0743378
0.307301
-0.33316
0.0757097
0.363726
-0.365098
0.0652466
0.368744
-0.35828
0.33743
0.0532994
-0.325483
0.0690775
0.0664712
0.143361
0.233018
0.180221
0.326866
0.185299
0.363666
0.361106
0.161623
0.0557189
0.0107523
0.169894
0.118843
0.267647
0.229113
0.339046
0.292266
0.349515
0.350638
0.0253306
-0.0145783
0.120069
0.024105
0.243363
0.105819
0.365341
0.170287
0.236154
0.478702
0.00403457
-0.0186129
0.0470553
-0.0189157
0.141408
0.0114662
0.260484
0.0512117
0.0910694
0.405569
-0.00723375
-0.0113791
-0.00252769
-0.0236217
0.0345919
-0.0256533
0.103089
-0.0172856
0.00354811
0.190611
-0.00483403
-0.00654511
-0.00613006
-0.0223257
0.00345855
-0.0352419
0.0279429
-0.04177
-0.03981
0.0713011
-0.00356629
-0.00297883
-0.00658043
-0.0193116
-0.0103109
-0.0315115
-0.0144906
-0.0375903
-0.0401804
-0.0141203
-0.0168519
0.013873
-0.0446195
0.0084561
-0.0785885
0.00245756
-0.11425
-0.00192843
-0.00793306
-0.146498
-0.0322108
-0.0816241
-0.133164
-0.181422
-0.224299
0.437965
0.330229
-0.577583
0.546624
0.293712
-0.402371
0.480202
0.261607
-0.195185
0.315895
0.246046
-0.0817388
0.0713343
0.00745701
0.359555
0.0419753
0.554189
0.0990777
0.508553
0.307243
0.315674
0.438925
0.164436
0.144456
-0.116601
0.479869
-0.236335
0.477366
0.309745
0.285469
0.630823
0.241576
-0.0318691
-0.23123
0.393361
-0.661565
0.417164
0.285942
0.243087
0.8049
0.274772
-0.145123
0.271861
0.34251
0.20141
0.179539
0.451909
-0.631449
-0.036786
0.216325
-0.0350112
-0.00177482
0.0514061
-0.0864172
-0.0646842
0.913041
-1.03871
0.726995
0.530035
0.361879
0.084118
-0.0155383
-0.0685797
0.135697
-0.0515794
0.249437
-0.11374
0.423444
-0.174007
-0.208005
0.189514
-0.151753
0.299558
0.536456
0.841151
0.139147
-0.130257
0.160446
-0.169337
0.105866
-0.13487
0.168152
0.0679739
-0.141047
0.178939
0.0274814
-0.13995
0.180442
-0.0968025
0.124284
0.176601
-0.0912035
-0.215654
0.133167
-0.0914364
0.0845094
-0.0923893
0.0347528
-0.0901931
-0.0620498
0.185835
-0.0424403
-0.234598
0.135642
-0.0412432
0.0841734
-0.0409209
0.0341133
-0.040133
-0.0279364
0.198554
0.00865484
-0.249649
0.146834
0.010477
0.0935877
0.0123249
0.039369
0.0140857
0.0114326
0.203238
-0.253667
0.15041
0.0950501
0.0396026
0.035329
-0.305145
-0.055667
0.0123148
-0.335266
-0.00882826
-0.343955
-0.0164627
-0.325526
-0.20049
0.11645
-0.275793
-0.145803
0.0747326
-0.293549
0.035265
-0.304487
0.00625003
-0.296511
-0.19424
0.133329
-0.237926
-0.171196
0.0940425
-0.254263
0.054698
-0.265142
0.0190068
-0.260819
-0.175234
0.153773
-0.204738
-0.186961
0.112255
-0.212745
0.0678621
-0.22075
0.026341
-0.219298
-0.148893
0.149868
-0.19416
0.105275
0.0634647
0.0246086
0.385978
0.112047
-0.102045
0.386427
0.0957993
-0.0962486
0.353693
0.161795
-0.129062
0.296829
0.0792031
-0.0223391
-0.176219
0.303712
0.39459
0.113437
0.400301
0.0900878
0.39123
0.170867
0.344286
0.126147
-0.047588
0.401307
0.108109
0.410843
0.0805525
0.40555
0.17616
0.369558
0.162139
0.0873716
0.40678
0.0973091
0.418258
0.0690744
0.414047
0.180371
0.388036
0.18815
0.225759
0.40835
0.421842
0.4152
0.394402
0.413436
0.0966147
0.328356
0.0850802
0.236668
0.0916881
0.231842
0.0048259
-0.166898
0.39874
0.50462
0.493452
0.456078
0.438565
0.575379
0.319506
0.0792337
0.248654
0.070853
0.165445
0.0832082
0.0958946
0.0695507
0.0273149
0.460453
0.344345
0.256357
0.180105
)
;

boundaryField
{
    left
    {
        type            calculated;
        value           nonuniform List<scalar> 
17
(
-0.60402
-0.60402
-0.60402
-0.60402
-0.60402
-0.39598
-0.39598
-0.39598
-0.39598
-0.39598
-0.39598
-0.39598
-0.39598
-0.39598
-0.39598
-0.510051
-0.510051
)
;
    }
    right
    {
        type            calculated;
        value           nonuniform List<scalar> 
17
(
0.11609
0.304652
0.237104
0.222573
0.208328
0.209891
0.233776
0.280781
0.351553
0.448488
0.568045
0.697983
1.24383
1.27617
1.0713
0.629152
-0.0997221
)
;
    }
    down
    {
        type            calculated;
        value           uniform 0;
    }
    up
    {
        type            calculated;
        value           uniform 0;
    }
    cylinder
    {
        type            calculated;
        value           uniform 0;
    }
    defaultFaces
    {
        type            empty;
    }
}


// ************************************************************************* //
