/*--------------------------------*- C++ -*----------------------------------*\
  =========                 |
  \\      /  F ield         | OpenFOAM: The Open Source CFD Toolbox
   \\    /   O peration     | Website:  https://openfoam.org
    \\  /    A nd           | Version:  13
     \\/     M anipulation  |
\*---------------------------------------------------------------------------*/
FoamFile
{
    format      ascii;
    class       surfaceScalarField;
    location    "0.765";
    object      phi;
}
// * * * * * * * * * * * * * * * * * * * * * * * * * * * * * * * * * * * * * //

dimensions      [0 3 -1 0 0 0 0];

internalField   nonuniform List<scalar> 
823
(
0.011378
-0.0505541
0.0391761
0.0387592
-0.133435
0.106054
0.0788328
-0.205877
0.165804
0.130172
-0.26887
0.217531
-0.323259
0.259416
0.194015
0.0107032
-0.0612573
0.0361435
-0.158876
0.0726485
-0.242382
0.117973
-0.314194
-0.3756
0.170314
0.00837707
-0.0696343
0.0282852
-0.178784
0.0567257
-0.270823
0.0918104
-0.349278
-0.41605
0.13226
0.00529926
-0.0749336
0.0179956
-0.19148
0.0362295
-0.289057
0.0588838
-0.371933
-0.442414
0.0852481
0.00196196
-0.0768956
0.00663001
-0.196148
0.0132896
-0.295717
0.0215219
-0.380165
0.0310621
-0.451955
0.00662992
-0.0107602
0.00413018
0.0221529
-0.0309264
0.0154034
0.0453463
-0.048523
0.0253296
0.0744863
-0.0639656
0.0348257
-0.0770583
0.108133
0.0434114
0.00574447
-0.0165048
0.0214518
-0.0466338
0.0466454
-0.0737167
0.0796728
-0.096993
-0.116113
0.118727
0.00638993
-0.0228947
0.0236438
-0.0638877
0.0512072
-0.10128
0.0878716
-0.133657
-0.160128
0.131887
0.00753562
-0.0304303
0.0270847
-0.0834368
0.0573094
-0.131505
0.0970091
-0.173357
-0.207902
0.144784
0.00874574
0.031363
0.0656621
0.109836
0.161349
0.322481
-0.958048
0.7437
0.474553
-0.82328
0.671209
0.574556
-0.35555
0.255547
0.616373
-0.0670421
0.0252256
0.00418796
-0.00877527
0.330242
-1.16956
0.470956
-0.963995
0.576297
-0.46089
0.639489
-0.130234
-0.0179623
0.336401
-1.37408
0.460785
-1.08838
0.563337
-0.563442
0.637151
-0.204048
-0.0530936
0.337339
-1.56663
0.447798
-1.19884
0.540582
-0.656226
0.61515
-0.278616
-0.0926853
0.327682
-1.73297
0.428004
-1.29916
0.508661
-0.736883
0.573612
-0.343567
-0.125289
1.19775
-1.59041
-1.3403
1.00776
-1.10917
0.887938
-0.617064
0.832837
-0.288466
-0.103232
1.32975
-1.13306
-1.78709
0.981843
-0.761264
0.773301
-0.408522
0.68107
-0.196235
-0.0728142
1.18941
-0.607661
-1.71481
0.816221
-0.388075
0.610271
-0.202571
0.513864
-0.0998274
-0.0387039
0.822357
-0.18529
-1.24473
0.54533
-0.111048
0.396311
-0.0535528
0.323537
-0.0270538
-0.0113787
0.306715
-0.492005
0.195667
0.142114
0.115061
1.56259
0.0462497
-1.57778
1.52169
0.126155
1.46266
0.191286
1.39633
0.23664
0.250046
1.67586
0.0356511
-1.66526
1.69932
0.102695
1.73081
0.159796
1.76528
0.20217
0.228231
1.38797
0.0184773
-1.37079
1.43705
0.0536079
1.51387
0.0829774
1.61015
0.105892
0.123569
0.977699
0.00531447
-0.964536
1.01588
0.0154233
1.07582
0.0230447
1.15388
0.0278276
0.0327217
0.392987
-0.387673
0.408411
0.431455
0.459283
0.12877
0.327627
-0.26467
-0.191727
0.0781583
0.273215
-0.222603
0.0385245
0.209793
-0.170159
0.0113402
0.136443
-0.109259
0.0519528
-0.0406126
0.115952
0.378906
-0.167231
0.0714981
0.317668
0.035619
0.245672
0.0105614
0.1615
0.0625141
0.0888493
0.418274
-0.128218
0.054811
0.351707
0.0272879
0.273195
0.00806505
0.180723
0.0705792
0.0552407
0.443533
-0.0804996
0.0337631
0.373184
0.0166551
0.290303
0.00486431
0.192514
0.0754435
0.0174805
-0.0259021
0.0104997
0.00508592
0.00145207
0.0726593
0.0873536
-0.107301
-0.0527112
0.0429027
0.0737299
-0.0439732
0.0197426
0.056957
-0.0337969
0.00513978
0.0368211
-0.0222183
0.0133004
-0.00816064
0.0760156
0.125933
-0.114595
0.0437149
0.106031
0.0196393
0.0810325
0.00508892
0.0513715
0.0183894
0.0843732
0.168579
-0.12702
0.0490715
0.141332
0.0227243
0.10738
0.00617051
0.0679253
0.0245599
0.0940414
0.214691
-0.140153
0.0557603
0.179613
0.0265208
0.136619
0.00742655
0.0870196
0.0319865
0.107394
-0.157373
0.0644047
0.0308652
0.0086261
0.513415
0.17618
-0.293615
0.563226
0.160328
-0.210139
0.497272
0.313586
-0.247632
0.335099
0.803019
-0.640846
1.04163
-0.813832
0.514126
0.0580335
0.561354
0.1131
0.488009
0.386931
0.33144
0.959588
1.25848
0.514469
-0.0604562
0.548119
0.0794507
0.4673
0.467749
0.328059
1.09883
1.45952
0.510875
-0.175352
0.526349
0.0639773
0.441988
0.552109
0.323788
1.21703
1.64315
0.499231
-0.278604
0.494534
0.0686747
0.412562
0.634081
0.311952
1.31764
1.79773
0.763571
-0.438155
0.843503
-0.0112568
0.956257
0.521327
1.16944
1.10446
1.6196
1.34757
0.706479
-0.540613
0.780791
-0.0855693
0.954252
0.347867
1.29764
0.761072
1.14348
1.77375
0.602217
-0.53881
0.632792
-0.116144
0.803421
0.177238
1.17248
0.392009
0.61204
1.70393
0.448463
-0.383253
0.405337
-0.0730178
0.535996
0.0465787
0.816001
0.112004
0.186912
1.24113
0.220768
0.14775
0.194328
0.306333
0.493245
1.40259
-0.246751
1.46574
-0.230381
1.523
-0.185469
1.56316
-0.12066
-0.0405267
1.75265
-0.225651
1.71973
-0.197462
1.69061
-0.156349
1.67083
-0.100881
-0.0349538
1.60147
-0.123192
1.50876
-0.104755
1.43456
-0.0821493
1.38705
-0.0533727
-0.0186953
1.15107
-0.0331336
1.0743
-0.027989
1.0153
-0.0231439
0.977572
-0.0156452
-0.00566021
0.460111
0.432122
0.408978
0.393333
0.00250155
0.0430087
-0.0455102
0.00732835
0.101056
-0.105883
0.016096
0.148402
-0.15717
0.0165794
0.151917
-0.1524
0.114034
0.0148149
-0.112269
0.00682881
0.0361799
0.020179
0.0877061
0.04096
0.127621
0.0482576
0.144619
0.116387
0.0459041
0.00880987
0.02737
0.0270783
0.0694376
0.0521536
0.102546
0.0730959
0.123677
0.114041
0.0754423
0.00780176
0.0195682
0.0255149
0.0517245
0.0497509
0.0783102
0.0774345
0.0959933
0.0992478
0.0922278
0.00509903
0.0144692
0.0179736
0.0388498
0.0367677
0.059516
0.0600115
0.0727495
0.0767475
0.0825118
0.00342362
0.0110456
0.01258
0.0296935
0.027444
0.0446521
0.04706
0.0531334
0.0561525
0.067655
0.00222213
0.00882344
0.00893102
0.0229846
0.0222714
0.0313117
0.041026
0.0343788
0.0347643
0.0624142
0.0016764
0.00714705
0.0101412
0.0145197
0.026208
0.0152448
0.0467718
0.0138149
0.0115061
0.0700299
0.00375905
0.00338798
0.0175698
0.000708957
0.0369165
-0.0041019
0.0599469
-0.00921568
-0.0144131
0.085866
0.00751806
0.0236304
0.044858
0.0704679
0.0994661
0.153864
0.0197179
-0.105927
0.243484
-0.130447
0.0408274
0.264847
-0.0380932
0.01673
0.269658
0.00424857
-0.00905974
-0.00106946
-0.00494525
0.214879
-0.132747
0.325433
-0.241001
0.35159
-0.0642508
0.353863
0.0019762
-0.00346695
0.260243
-0.32296
0.391614
-0.372373
0.433874
-0.106511
0.43481
0.00104028
-0.00119101
0.293515
-0.530609
0.439016
-0.517874
0.503026
-0.17052
0.508859
-0.00479236
0.00436185
0.312558
0.465892
0.550919
0.571352
0.0706811
0.0386658
-0.109347
0.07867
-0.00798887
0.0830062
-0.00433621
0.0803407
0.00266545
0.00123102
0.194136
-0.261398
0.226974
0.239368
0.232974
0.0207329
-0.0043317
-0.0164012
0.0342837
-0.0135508
0.0567631
-0.0224794
0.0856235
-0.0288604
-0.0237234
0.0539259
-0.0434427
0.0862791
0.139242
0.202609
0.0478265
-0.0551526
0.0763568
-0.0690307
0.0275557
-0.0521728
0.0724437
0.0123373
-0.0443825
0.0596009
0.00331815
-0.0300421
0.0390613
-0.0112609
0.0145791
0.045374
-0.0322742
-0.0682525
0.0249501
-0.0317489
0.00981706
-0.0292495
0.00218865
-0.0224137
-0.00907229
0.0560482
-0.00669323
-0.0816293
0.0331133
-0.00881403
0.014269
-0.0104051
0.00258539
-0.0107301
-0.00648688
0.0701225
0.0215582
-0.0983739
0.0448421
0.0164664
0.0233696
0.0110675
0.00692175
0.00571776
0.000434873
0.0744624
-0.105615
0.0469556
0.0242263
0.00772579
0.016586
-0.114032
-0.0148233
0.0160951
-0.151909
0.00730701
-0.148382
0.00248926
-0.101065
-0.043021
0.0482732
-0.116377
-0.0459286
0.0409338
-0.14457
0.0201649
-0.127613
0.0068216
-0.087722
-0.0361994
0.0731268
-0.113971
-0.0755329
0.0521257
-0.123569
0.0270665
-0.102554
0.00880677
-0.0694623
-0.0273926
0.0773415
-0.0989732
-0.0923389
0.0496231
-0.0958504
0.0254347
-0.0783656
0.00777608
-0.0518037
-0.0196165
0.0599512
-0.0825676
0.0365445
0.0177798
0.0050374
0.341904
0.583375
-0.529299
0.280508
0.22511
-0.163715
0.247316
0.0551987
-0.0220071
0.165273
0.113338
-0.0312944
-0.00100647
0.0972488
0.407717
0.571638
0.37131
0.261517
0.335507
0.0910015
0.233523
0.215322
0.164264
0.459697
0.507921
0.451306
0.269908
0.409157
0.13315
0.283758
0.340722
0.366393
0.49487
0.40903
0.514297
0.250481
0.461465
0.185982
0.317935
0.484252
0.585954
0.511395
0.551737
0.490087
0.333493
0.158668
0.351383
0.0847753
0.0738924
0.0799439
0.00483138
0.072424
0.00751992
-0.0369747
0.109399
0.332135
0.242313
0.225137
0.201363
0.261636
0.0856731
0.0237256
0.056795
0.0288781
0.0342948
0.0225002
0.0207364
0.0135584
0.00433519
0.202794
0.139334
0.086301
0.0539308
)
;

boundaryField
{
    left
    {
        type            calculated;
        value           nonuniform List<scalar> 
17
(
-0.60402
-0.60402
-0.60402
-0.60402
-0.60402
-0.39598
-0.39598
-0.39598
-0.39598
-0.39598
-0.39598
-0.39598
-0.39598
-0.39598
-0.39598
-0.510051
-0.510051
)
;
    }
    right
    {
        type            calculated;
        value           nonuniform List<scalar> 
17
(
0.0791097
0.229259
0.275673
0.35626
0.432534
0.503306
0.566939
0.62096
0.661639
0.672282
0.654742
0.606216
0.81078
0.650652
0.479753
0.296212
0.103682
)
;
    }
    down
    {
        type            calculated;
        value           uniform 0;
    }
    up
    {
        type            calculated;
        value           uniform 0;
    }
    cylinder
    {
        type            calculated;
        value           uniform 0;
    }
    defaultFaces
    {
        type            empty;
    }
}


// ************************************************************************* //
