/*--------------------------------*- C++ -*----------------------------------*\
  =========                 |
  \\      /  F ield         | OpenFOAM: The Open Source CFD Toolbox
   \\    /   O peration     | Website:  https://openfoam.org
    \\  /    A nd           | Version:  13
     \\/     M anipulation  |
\*---------------------------------------------------------------------------*/
FoamFile
{
    format      ascii;
    class       volVectorField;
    location    "34.2";
    object      U;
}
// * * * * * * * * * * * * * * * * * * * * * * * * * * * * * * * * * * * * * //

dimensions      [0 1 -1 0 0 0 0];

internalField   nonuniform List<vector> 
440
(
(-0.101201 0.0753199 -5.97998e-20)
(-0.128858 0.0943649 -4.33272e-20)
(0.000410607 0.0490591 1.01428e-19)
(0.368187 0.0675156 -9.24159e-21)
(0.360972 0.166784 2.92349e-20)
(-0.0858301 0.049459 3.40213e-20)
(0.0497428 0.0217812 -9.91796e-20)
(0.519937 -0.0295476 -9.54635e-20)
(1.05253 -0.0560657 5.35672e-20)
(1.55398 -0.0798636 9.52928e-21)
(-0.0202536 0.00783152 4.98051e-20)
(0.478923 -0.0370055 6.66541e-19)
(1.22813 -0.0291318 -3.97459e-19)
(1.81566 -0.00802206 -1.30598e-18)
(2.29885 0.014844 5.59161e-19)
(0.187421 -0.0422965 -1.65374e-19)
(1.14483 0.00227936 -5.02104e-19)
(1.90336 0.066942 1.61076e-18)
(2.32176 0.108453 1.77332e-18)
(2.41275 0.116859 -4.97629e-19)
(0.534244 -0.0062628 -2.77795e-19)
(1.67205 0.173275 -5.85035e-19)
(2.21031 0.251544 1.78229e-18)
(2.35296 0.264438 1.93572e-18)
(2.43485 0.244821 6.633e-19)
(0.0412784 -0.238713 -3.59522e-20)
(0.109081 -0.392747 5.70199e-21)
(0.149095 -0.385351 -1.24899e-19)
(0.205774 -0.285505 5.22852e-20)
(0.245128 -0.0888465 5.41158e-19)
(0.0969153 -0.318987 -7.7721e-20)
(0.155001 -0.453429 -2.99194e-19)
(0.162325 -0.477959 -7.96076e-20)
(0.185424 -0.453293 -3.75145e-20)
(0.161482 -0.333546 6.55895e-21)
(0.11994 -0.302093 5.33291e-19)
(0.106401 -0.396193 2.41526e-19)
(0.0411254 -0.395224 2.89761e-19)
(-0.04099 -0.408613 -8.54123e-19)
(-0.137771 -0.354938 1.80292e-20)
(0.103286 -0.210943 6.07009e-20)
(0.0333542 -0.295653 -3.90511e-20)
(-0.0743343 -0.287782 1.96994e-19)
(-0.176336 -0.273809 -6.44677e-19)
(-0.288695 -0.204995 2.73259e-19)
(-0.027613 -0.0252292 -2.80835e-20)
(-0.163507 -0.0677076 -4.30596e-20)
(-0.256063 -0.081438 -2.19742e-19)
(-0.247757 -0.0759963 4.00947e-19)
(-0.256638 -0.0190907 9.9985e-19)
(0.922165 1.32121 1.06911e-18)
(0.646157 0.280818 -2.44473e-18)
(1.62193 -1.31253 -1.20434e-19)
(1.09251 -0.696618 -1.02895e-18)
(1.33574 -0.127566 -4.53964e-20)
(0.679283 1.07284 -1.68784e-18)
(0.836542 0.230679 3.81152e-19)
(1.94454 -1.30045 1.67741e-19)
(1.41909 -0.697761 1.41441e-18)
(1.37946 -0.136259 1.76409e-19)
(-0.265066 0.739134 -1.37335e-18)
(1.37641 0.0231036 -1.09153e-18)
(1.83185 -1.36959 -8.51472e-20)
(1.41239 -0.685804 9.30508e-19)
(1.35901 -0.100472 -1.28621e-21)
(-0.930788 0.518749 6.44344e-19)
(1.88551 -0.213703 5.89916e-20)
(2.07236 -1.22354 6.84096e-19)
(1.27639 -0.645226 -3.82216e-19)
(1.24522 -0.0933348 -1.05295e-21)
(-0.60883 0.164391 -1.54539e-19)
(2.15164 -0.512214 1.37245e-19)
(2.19609 -1.1541 0)
(1.22842 -0.563788 1.73418e-19)
(1.11163 -0.0735178 -2.3328e-20)
(1.06281 0.062062 -2.35026e-19)
(2.56196 -0.593998 -1.29347e-19)
(2.13606 -0.951905 -2.40227e-20)
(1.24015 -0.493679 8.35006e-20)
(1.11787 -0.0644205 4.21256e-20)
(1.89879 0.0770388 -1.91884e-20)
(2.78442 -0.720231 9.52891e-19)
(1.92936 -0.732311 -1.77569e-20)
(0.795283 -0.203537 1.28998e-21)
(1.01027 -0.0102718 0)
(2.2015 -0.0492159 -1.79674e-19)
(2.40369 -0.526005 -7.2798e-21)
(1.6933 -0.333166 1.13394e-19)
(1.04827 -0.149184 1.34941e-20)
(1.15007 -0.117281 1.01782e-20)
(2.2442 -0.0562021 1.08904e-19)
(2.12838 -0.448267 2.20616e-19)
(1.1402 -0.226281 -2.02597e-20)
(1.04208 -0.0279133 -1.91837e-34)
(0.910766 -0.0549711 1.37933e-20)
(1.53411 -0.127187 1.03857e-19)
(0.793963 -0.00232387 8.48044e-20)
(0.388352 0.0370115 9.23652e-21)
(0.314496 -0.0779831 -7.04668e-21)
(0.0670526 -0.0373302 -1.05142e-20)
(2.36099 0.246362 -8.36709e-19)
(2.51627 0.0696591 -1.00445e-18)
(2.41436 0.0551826 7.66115e-19)
(2.5323 -0.0653576 3.2803e-20)
(2.05798 -0.0257618 -4.01612e-20)
(2.14967 0.113215 5.81197e-20)
(2.31097 0.0990998 -3.70114e-20)
(2.29719 -0.0561913 -1.13956e-19)
(2.34652 -0.031208 -2.14374e-19)
(2.34571 -0.256017 -2.2624e-21)
(2.07796 0.0383026 6.66757e-20)
(2.13504 0.0583643 9.22798e-20)
(2.18184 -0.0732206 -1.07831e-19)
(2.18954 -0.0300073 3.57481e-20)
(2.2384 -0.170798 1.33098e-20)
(1.97382 0.0155967 1.03544e-19)
(2.03943 0.0216364 1.29852e-19)
(2.05697 -0.0492608 -1.60919e-20)
(2.10907 -0.0274335 -4.48489e-20)
(2.12039 -0.107645 2.39834e-20)
(1.47773 -0.0149906 1.61219e-19)
(1.4786 -0.0193508 -1.05542e-20)
(1.49035 -0.0207212 1.76293e-20)
(1.48922 -0.0334801 -2.50195e-20)
(1.48123 -0.0255922 -2.96916e-21)
(1.52285 0.844904 1.05763e-18)
(1.48688 0.939764 -3.32174e-19)
(1.48852 1.06315 -1.25354e-18)
(1.41454 1.09781 6.81254e-19)
(0.86419 0.775327 -1.64137e-19)
(1.80302 0.79054 -5.41006e-19)
(1.77404 0.86673 -2.86606e-18)
(1.77871 0.971257 -1.1051e-18)
(1.68449 0.975775 -3.82485e-19)
(1.0174 0.665706 -6.09404e-19)
(2.08671 0.683039 7.2819e-19)
(2.06946 0.74591 1.83963e-19)
(2.04524 0.823097 -2.16603e-18)
(1.90077 0.803345 -5.86994e-19)
(1.10436 0.514993 4.24811e-19)
(2.25301 0.554523 2.20286e-18)
(2.23847 0.602309 1.59553e-18)
(2.22527 0.648916 -1.81789e-18)
(1.99771 0.601617 -1.35504e-18)
(1.0718 0.334185 -2.41069e-19)
(2.39833 0.406711 1.03607e-18)
(2.39568 0.427462 -7.43524e-19)
(2.28965 0.442456 5.31674e-19)
(1.94071 0.382234 4.13299e-19)
(0.886549 0.142888 -3.44551e-19)
(0.579646 0.417722 -7.09405e-19)
(0.488749 0.451851 -5.71912e-19)
(0.369605 0.486183 7.3277e-20)
(0.229762 0.48633 -2.2845e-20)
(0.0556824 0.34183 6.66922e-20)
(0.682523 0.585001 5.09789e-20)
(0.616146 0.637964 -3.25247e-19)
(0.524153 0.700471 1.69627e-19)
(0.395508 0.757146 -7.84881e-20)
(0.169127 0.579258 1.12578e-19)
(0.768757 0.794783 1.76753e-19)
(0.695787 0.87535 4.12315e-19)
(0.637083 0.969921 6.9176e-20)
(0.550384 1.01178 -2.75528e-19)
(0.300287 0.747542 2.24205e-19)
(1.03249 0.874217 2.06684e-19)
(0.983016 0.957037 -6.28329e-19)
(0.931022 1.05496 -1.78398e-18)
(0.846193 1.11738 7.21108e-19)
(0.497149 0.825212 -1.6668e-19)
(1.12166 0.923257 -1.12637e-19)
(1.14615 1.03972 -1.86676e-19)
(1.16293 1.1499 -3.32382e-19)
(1.10501 1.17442 -3.76841e-19)
(0.67638 0.837325 -6.08061e-21)
(1.00609 0.0416878 -7.94041e-20)
(1.00595 0.0107116 -2.83398e-20)
(1.04941 0.131786 -1.5124e-21)
(0.942365 0.110137 -1.63198e-19)
(0.901888 0.247853 2.87599e-19)
(0.992656 0.0394628 4.84352e-20)
(1.02768 0.0028413 1.0865e-19)
(1.02957 0.146962 1.04518e-19)
(0.971672 0.131334 1.79187e-20)
(0.938258 0.334472 1.64551e-20)
(1.00058 0.0375703 6.35019e-20)
(1.01537 -0.00597726 -4.35196e-21)
(1.06694 0.16677 -3.04651e-21)
(0.924065 0.133927 1.35218e-19)
(1.13377 0.468013 -4.26665e-19)
(0.998483 0.0357621 -3.07434e-22)
(1.03705 -0.0169223 -1.62775e-19)
(1.04654 0.194739 -5.58757e-20)
(1.01037 0.127333 -3.32161e-19)
(1.15121 0.525814 8.26903e-20)
(1.00509 0.0256711 -9.64559e-21)
(1.03345 -0.0106237 4.58719e-20)
(1.07622 0.196455 2.61396e-20)
(0.9953 0.156829 4.51843e-19)
(1.37137 0.659413 -4.2324e-19)
(0.981284 0.0227893 -1.55638e-21)
(1.09485 -0.0290536 9.37049e-20)
(1.02 0.231149 -5.40248e-20)
(1.27007 0.0687399 9.20773e-19)
(1.31983 0.694075 -3.49176e-19)
(0.940308 -0.0101621 -1.42521e-21)
(1.17508 -0.0108592 -6.88288e-20)
(0.904305 0.15217 4.70564e-21)
(1.38419 0.0515086 -3.06303e-19)
(1.215 0.521678 -3.50007e-20)
(0.99152 -0.0311102 3.65347e-21)
(1.09499 0.0127109 1.2187e-35)
(1.0051 0.122728 1.98533e-21)
(1.30508 0.00249302 1.01671e-19)
(1.3345 0.374468 1.54635e-19)
(1.07261 -0.0632505 3.88085e-21)
(0.896076 0.00974951 -2.97999e-20)
(1.26436 0.0336548 1.93473e-20)
(1.14012 -0.0279937 2.35791e-20)
(1.44257 0.245986 -2.33857e-19)
(0.959633 -0.021727 -3.97944e-20)
(0.748828 -0.0194807 -2.50634e-21)
(1.02676 -0.0105915 2.16924e-20)
(0.69824 -0.00596027 -1.92597e-20)
(1.08065 0.0823298 -5.24318e-20)
(1.74803 0.643541 2.83473e-19)
(1.85224 0.641965 7.14278e-19)
(2.09502 0.533706 -1.00979e-18)
(2.17508 0.477267 2.23339e-20)
(2.37161 0.309123 4.2777e-19)
(1.66482 0.421898 5.97866e-20)
(1.71626 0.403176 9.12478e-19)
(1.9281 0.356226 1.01194e-19)
(1.95479 0.273941 -8.38648e-19)
(2.16117 0.226451 -2.66763e-19)
(1.66482 0.284063 -2.16879e-19)
(1.75886 0.249079 -1.41985e-19)
(1.87401 0.221646 1.64966e-19)
(1.93651 0.152745 -2.61532e-19)
(2.0328 0.140838 2.39273e-19)
(1.67192 0.184435 3.5811e-19)
(1.75 0.1547 -2.07405e-21)
(1.82601 0.131024 2.03281e-19)
(1.87305 0.0876059 1.65193e-19)
(1.94426 0.0729743 -1.65688e-19)
(1.28012 0.0513874 -4.57757e-20)
(1.36142 0.0320745 2.2876e-19)
(1.39553 0.0189066 9.42113e-20)
(1.44075 0.00189685 -1.97986e-19)
(1.45054 -0.00516672 3.54981e-22)
(1.37395 -0.0280162 8.43197e-20)
(2.45529 -0.00685943 -6.1815e-19)
(2.67205 -0.000615741 1.65863e-18)
(2.63499 0.0482644 7.79084e-19)
(2.37976 0.0522184 -5.28534e-19)
(0.942784 0.114746 2.03326e-19)
(2.25363 0.152155 -6.97528e-19)
(2.65493 0.166765 -1.00047e-18)
(2.65268 0.172123 1.38584e-18)
(2.4552 0.168398 -1.03673e-18)
(0.366223 0.126753 -4.63952e-21)
(1.69418 0.256188 8.7591e-19)
(2.41792 0.314289 1.36544e-19)
(2.68421 0.333947 1.56894e-18)
(2.62245 0.293322 8.81197e-19)
(0.0237096 0.0222012 2.56357e-19)
(0.845927 0.221697 3.09534e-19)
(1.73858 0.358172 -1.0662e-18)
(2.27254 0.427615 1.1288e-19)
(2.67008 0.469136 1.07733e-18)
(-0.0850167 -0.0698958 2.03554e-19)
(0.201735 0.067114 -2.37748e-19)
(0.88309 0.267328 -1.87513e-19)
(1.45381 0.415547 3.08542e-19)
(2.0888 0.586696 1.98285e-19)
(-0.0870387 -0.105369 6.3707e-20)
(-0.0421443 -0.0732662 1.07091e-19)
(0.291776 0.0495809 7.34506e-20)
(0.606823 0.228755 -3.87291e-19)
(1.37859 0.505146 8.09355e-21)
(-0.0771719 -0.137221 -5.24187e-20)
(-0.0979777 -0.174893 -2.42721e-20)
(0.0277359 -0.106536 7.93702e-20)
(0.1729 0.0827361 -7.05963e-20)
(0.638758 0.404621 -8.49225e-21)
(-0.0594169 -0.136357 -6.28498e-20)
(-0.0906879 -0.174697 9.9359e-21)
(-0.0455534 -0.0961254 -1.59678e-20)
(0.00431282 0.0692538 -1.84597e-19)
(0.166288 0.32144 3.42902e-19)
(-0.0324521 -0.114102 -2.69767e-20)
(-0.0444022 -0.169568 -9.77326e-20)
(-0.00790536 -0.0944058 1.61354e-19)
(0.0533879 0.0763682 3.05178e-19)
(0.136855 0.324666 3.08564e-21)
(-0.00406422 -0.143424 1.61157e-20)
(0.026954 -0.263909 -4.34248e-20)
(0.0739748 -0.229061 1.21897e-20)
(0.143391 -0.079683 3.22346e-21)
(0.23741 0.164821 5.56084e-20)
(1.55441 0.719815 -1.31499e-21)
(0.170538 0.303065 -2.39282e-19)
(0.215163 -0.132368 -1.8126e-19)
(0.939888 -0.211969 -3.18209e-19)
(0.931798 -0.0113875 -3.38501e-21)
(1.39675 0.82625 1.43412e-19)
(-0.868196 0.483764 1.5951e-18)
(0.212983 -0.294629 1.11614e-18)
(0.968437 -0.325611 -1.95504e-20)
(1.10376 0.00134013 4.47185e-20)
(0.845581 1.01979 -5.04639e-19)
(-1.95779 0.464699 3.84989e-18)
(0.505619 -0.83098 2.13043e-19)
(0.777062 -0.466517 1.4892e-19)
(1.18963 -0.0114298 3.21941e-20)
(0.418287 1.19918 7.85992e-19)
(-1.22452 0.427704 -4.79451e-18)
(0.601697 -1.09005 -9.904e-19)
(0.694079 -0.560952 1.95624e-20)
(1.23132 -0.0556972 -2.08285e-21)
(0.386156 1.36594 1.97813e-19)
(0.176549 0.389105 2.1498e-20)
(1.12223 -1.24207 2.09704e-19)
(0.88897 -0.678423 -1.02358e-19)
(1.31322 -0.11269 1.54824e-21)
(-0.267385 0.0644285 -2.88962e-20)
(-0.436566 -0.188938 0)
(-0.268339 -0.10514 -1.09062e-19)
(0.162683 -0.0744652 5.29425e-20)
(0.417297 -0.0233453 -2.80143e-20)
(1.75379 0.63392 0)
(0.80935 0.249706 0)
(0.428815 -0.085828 3.42353e-19)
(0.760414 -0.150744 1.76327e-19)
(0.764587 -0.0391989 2.74098e-20)
(0.748913 0.00719416 -1.29805e-19)
(0.827762 0.00356567 3.61245e-19)
(0.901143 0.0436708 -2.83547e-20)
(0.830164 0.0284686 3.9899e-19)
(1.12496 0.214171 2.19114e-19)
(1.70248 0.0457348 1.26118e-19)
(1.92364 0.0975348 5.58397e-19)
(1.96187 0.206376 -9.93594e-19)
(2.33373 0.284229 4.44597e-19)
(2.2976 0.513458 7.21654e-19)
(0.972686 -0.528778 2.59475e-20)
(0.965446 -0.62796 -2.1602e-19)
(0.96457 -0.735635 -1.8394e-19)
(0.899379 -0.813672 1.1052e-19)
(0.555558 -0.649028 1.50736e-19)
(0.86876 -0.436543 1.08499e-19)
(0.813041 -0.507481 1.42749e-19)
(0.737748 -0.58448 -1.13088e-19)
(0.623177 -0.653247 1.57922e-19)
(0.347945 -0.527569 4.1645e-20)
(0.686885 -0.298398 -1.13208e-19)
(0.598129 -0.344621 -6.3032e-20)
(0.497948 -0.402455 1.6558e-22)
(0.379773 -0.45328 -5.08484e-20)
(0.177872 -0.364131 -1.45482e-19)
(0.575413 -0.0671344 -4.39294e-19)
(0.489554 -0.0882277 -3.50872e-19)
(0.378647 -0.118765 2.86025e-19)
(0.249685 -0.155205 1.41571e-19)
(0.0777175 -0.143783 1.28408e-20)
(0.543345 0.143129 -1.35806e-19)
(0.456954 0.140503 -1.5573e-19)
(0.337979 0.133526 -3.77182e-20)
(0.197076 0.130307 5.60295e-20)
(0.0341689 0.0946842 1.45489e-20)
(2.21471 -0.0215161 1.00313e-18)
(2.43858 -0.0956882 3.71026e-19)
(2.53512 -0.188178 -9.3151e-19)
(2.42577 -0.215716 -1.98269e-18)
(1.50963 -0.216306 1.52453e-19)
(2.12772 -0.13037 1.62901e-18)
(2.255 -0.246653 2.12526e-18)
(2.29352 -0.376154 1.77339e-19)
(2.22809 -0.438953 3.09611e-19)
(1.46161 -0.41229 -2.07971e-19)
(1.8628 -0.302886 -4.11099e-18)
(1.91677 -0.426159 4.63471e-19)
(1.96178 -0.560433 1.31156e-18)
(1.92218 -0.645807 -5.21187e-19)
(1.27415 -0.57 8.29281e-19)
(1.60632 -0.435536 1.00982e-18)
(1.63194 -0.54276 -2.6585e-18)
(1.63543 -0.672153 -3.06251e-18)
(1.5798 -0.77083 9.60611e-19)
(1.03495 -0.653731 6.31927e-19)
(1.31074 -0.504871 2.2875e-19)
(1.26509 -0.606052 2.9399e-19)
(1.25624 -0.736911 -4.72872e-19)
(1.20706 -0.834387 -5.74456e-19)
(0.776731 -0.679281 -5.50946e-21)
(1.06233 0.0502606 6.90957e-21)
(0.948933 0.0485085 1.65551e-21)
(1.12628 0.0756626 1.02773e-20)
(0.842128 -0.0105116 -2.68977e-19)
(1.16461 -0.233922 -2.22022e-20)
(1.07183 0.0518937 -2.29261e-21)
(0.942182 0.0431603 2.25033e-20)
(1.12576 0.0941843 6.28247e-21)
(0.913152 0.0308078 2.36632e-19)
(1.04573 -0.120199 6.47189e-21)
(1.06884 0.0474792 -5.43557e-20)
(0.944705 0.0354721 -7.83994e-23)
(1.10857 0.0988976 -5.11948e-21)
(0.90985 0.0473753 1.29458e-19)
(0.999002 -0.0585903 -2.77292e-19)
(1.04934 0.0454049 6.41508e-20)
(0.96756 0.0274985 2.63946e-21)
(1.0748 0.106575 1.96975e-20)
(0.941056 0.0728925 -6.61478e-20)
(0.890407 0.0492054 5.81818e-20)
(1.02201 0.0421496 1.5809e-20)
(0.996801 0.0218529 -2.29822e-20)
(1.04482 0.115805 3.14528e-20)
(0.95811 0.094597 3.28717e-20)
(0.858135 0.149314 -1.37617e-20)
(0.887915 0.0335919 0)
(0.722137 0.0274798 8.32544e-21)
(0.616867 0.0208476 7.30133e-21)
(0.373852 -0.0099537 5.68251e-20)
(0.736484 -0.0586416 -1.83025e-19)
(1.03063 0.0719593 -6.22593e-20)
(0.958238 0.0674132 1.01468e-21)
(1.03719 0.0769429 -6.98344e-20)
(0.834827 -0.0120308 -1.59042e-19)
(1.09407 -0.21564 -1.93534e-19)
(1.02712 -0.0688305 -4.23358e-20)
(1.11965 -0.0380932 6.13075e-19)
(1.22871 0.0364016 3.63804e-19)
(1.09259 0.0609593 2.82363e-20)
(0.853209 0.0332994 0)
(1.38667 -0.332888 4.1391e-19)
(1.5123 -0.292624 1.75375e-18)
(1.70897 -0.168267 -1.9004e-18)
(1.80559 -0.0196402 -6.08679e-19)
(1.7511 0.0397497 4.58655e-19)
)
;

boundaryField
{
    left
    {
        type            fixedValue;
        value           uniform (1 0 0);
    }
    right
    {
        type            zeroGradient;
    }
    down
    {
        type            noSlip;
    }
    up
    {
        type            noSlip;
    }
    cylinder
    {
        type            noSlip;
    }
    defaultFaces
    {
        type            empty;
    }
}


// ************************************************************************* //
