/*--------------------------------*- C++ -*----------------------------------*\
  =========                 |
  \\      /  F ield         | OpenFOAM: The Open Source CFD Toolbox
   \\    /   O peration     | Website:  https://openfoam.org
    \\  /    A nd           | Version:  13
     \\/     M anipulation  |
\*---------------------------------------------------------------------------*/
FoamFile
{
    format      ascii;
    class       volVectorField;
    location    "5.64";
    object      U;
}
// * * * * * * * * * * * * * * * * * * * * * * * * * * * * * * * * * * * * * //

dimensions      [0 1 -1 0 0 0 0];

internalField   nonuniform List<vector> 
440
(
(-0.0910587 0.0657726 -7.44605e-20)
(-0.123038 0.115598 -3.08187e-20)
(-0.0492297 0.104081 5.32196e-20)
(0.307797 0.15907 3.22019e-19)
(0.134192 0.357849 1.04984e-20)
(-0.0898162 0.0488358 2.68269e-20)
(-0.00289891 0.0351906 -9.335e-20)
(0.380458 -0.00649946 -8.30801e-20)
(0.90656 -0.0200131 4.85565e-20)
(1.23035 0.00470745 5.17888e-22)
(-0.0446225 0.0192872 4.8595e-20)
(0.352267 -0.0119367 5.55707e-19)
(1.04651 0.00783848 -2.88702e-19)
(1.61301 0.0490577 -9.38042e-19)
(2.17034 0.0779575 3.18743e-19)
(0.134114 -0.031475 -1.61283e-19)
(0.990834 0.0131406 -4.33375e-19)
(1.76795 0.100418 1.37284e-18)
(2.26629 0.158584 1.52538e-18)
(2.42526 0.197226 -4.27586e-19)
(0.45196 -0.00948551 -2.68761e-19)
(1.57406 0.188626 -5.39811e-19)
(2.18186 0.298133 1.6311e-18)
(2.36436 0.337868 1.81396e-18)
(2.44262 0.323221 6.20692e-19)
(0.0236636 -0.350889 -1.74189e-19)
(-0.0373592 -0.487395 1.06266e-19)
(-0.118987 -0.453319 -1.89884e-19)
(-0.197578 -0.382012 5.24693e-20)
(-0.254835 -0.299456 4.05291e-19)
(0.0320116 -0.223077 -2.18567e-20)
(-0.0624111 -0.293612 -4.3175e-20)
(-0.172441 -0.262343 -8.23051e-20)
(-0.268198 -0.204777 -6.61702e-20)
(-0.333312 -0.132744 1.09184e-19)
(0.00204624 -0.0533672 1.66394e-19)
(-0.0892021 -0.0466891 6.91537e-21)
(-0.173414 -0.0440776 9.6484e-20)
(-0.240652 -0.0426673 2.06065e-20)
(-0.289029 -0.0150105 1.69785e-21)
(-0.00768862 0.000402055 2.6188e-21)
(-0.0688648 0.0440409 1.11858e-20)
(-0.122397 0.0771734 1.2556e-20)
(-0.165435 0.0804519 -2.38241e-19)
(-0.205173 0.0935557 7.68427e-20)
(-0.0495873 0.038192 -4.40696e-21)
(-0.141432 0.0867598 -1.57431e-20)
(-0.222646 0.144095 -9.20742e-20)
(-0.218814 0.197739 8.32308e-20)
(-0.237305 0.278635 3.81368e-21)
(-0.355403 0.151378 1.79876e-18)
(-0.594909 0.820241 2.78771e-21)
(0.0870285 0.279391 3.056e-19)
(0.884714 -0.520763 -3.22909e-19)
(1.13086 -0.471422 2.06958e-21)
(-0.483364 0.222739 -1.33902e-18)
(-0.67057 0.712948 5.17718e-20)
(0.508479 0.0178368 8.72821e-20)
(1.23652 -0.659048 2.20748e-19)
(1.33171 -0.512454 2.67889e-20)
(-0.417759 0.16824 -7.38315e-19)
(-0.250096 0.52852 -6.88685e-19)
(1.0222 -0.220658 -4.13672e-20)
(1.7247 -0.734165 -5.52201e-20)
(1.55703 -0.52223 2.26429e-20)
(-0.378631 0.173522 1.7329e-19)
(0.339168 0.371465 1.331e-19)
(1.47266 -0.40011 6.37172e-20)
(2.11144 -0.770301 7.3582e-20)
(1.77673 -0.498081 1.63004e-19)
(-0.29285 -0.0287518 -1.04375e-19)
(0.963007 0.0883192 5.26217e-19)
(1.79735 -0.572737 0)
(2.22367 -0.812085 -1.47724e-19)
(1.84345 -0.468189 3.88359e-20)
(1.19073 0.0291438 -2.25632e-19)
(1.7826 -0.0913747 -1.58785e-19)
(2.17717 -0.642513 -7.93601e-21)
(2.28393 -0.786662 -4.31794e-20)
(1.81018 -0.419267 -7.76549e-20)
(1.94405 0.0425832 -6.21519e-21)
(2.50349 -0.162073 6.14794e-19)
(2.55153 -0.657462 -3.96887e-21)
(2.223 -0.687381 2.69087e-19)
(1.56656 -0.30924 0)
(2.11241 0.0122432 -1.48331e-19)
(2.59643 -0.262039 -5.14447e-21)
(2.36276 -0.540129 4.06771e-19)
(1.79105 -0.42926 -8.47101e-20)
(1.22616 -0.177285 -7.38003e-21)
(2.22218 -0.0698947 8.05048e-20)
(2.37602 -0.241461 2.0564e-19)
(1.94449 -0.422795 6.23096e-21)
(1.24832 -0.285967 -1.42723e-34)
(0.686653 -0.0782888 5.79496e-20)
(1.58953 -0.0297463 8.8725e-20)
(1.37845 -0.127076 6.99065e-20)
(0.534445 -0.0380187 -1.16301e-19)
(0.0667595 0.0427761 6.66284e-21)
(-0.0791686 0.0191275 1.17862e-20)
(2.37027 0.324694 -7.64858e-19)
(2.54907 0.137211 -9.39956e-19)
(2.42324 0.168609 5.40293e-19)
(2.54378 0.0134802 8.73255e-20)
(1.90408 0.15461 -2.37517e-20)
(2.08552 0.217194 7.41165e-20)
(2.31293 0.141481 -3.62385e-20)
(2.23559 0.0618593 -1.23733e-19)
(2.38001 0.0132009 -2.0245e-19)
(2.28597 -0.122852 -4.75981e-21)
(2.00302 0.100241 7.98579e-20)
(2.10944 0.119624 6.96868e-20)
(2.15438 -0.0117292 -6.63838e-20)
(2.18019 0.0278197 2.72138e-20)
(2.26338 -0.0949988 -2.50622e-20)
(2.04694 0.0343003 1.15781e-19)
(2.09696 0.0598071 1.80612e-19)
(2.19 -0.0306434 -2.04511e-20)
(2.18942 -0.00688494 -1.06621e-19)
(2.28531 -0.0808799 3.51514e-20)
(1.5956 -0.0217667 1.90695e-19)
(1.61952 -0.0166481 -1.19202e-20)
(1.63411 -0.0336651 1.84668e-20)
(1.62816 -0.0228079 -4.65096e-20)
(1.64843 -0.0443808 -3.72564e-20)
(1.564 0.857265 1.06418e-18)
(1.52775 0.958038 -3.35222e-19)
(1.52803 1.08651 -1.29381e-18)
(1.45732 1.12855 7.10897e-19)
(0.89349 0.804636 -1.69565e-19)
(1.84419 0.817043 -5.49889e-19)
(1.8184 0.897938 -2.91425e-18)
(1.82477 1.00568 -1.12838e-18)
(1.72948 1.00886 -3.94079e-19)
(1.04498 0.687677 -6.28429e-19)
(2.13145 0.719152 7.094e-19)
(2.11477 0.783993 1.88104e-19)
(2.092 0.864777 -2.19531e-18)
(1.9428 0.84128 -5.87872e-19)
(1.11936 0.529878 4.2036e-19)
(2.28258 0.613714 2.15669e-18)
(2.28026 0.661904 1.57348e-18)
(2.26362 0.700146 -1.80211e-18)
(2.0142 0.641019 -1.31967e-18)
(1.05646 0.336945 -2.27462e-19)
(2.42835 0.46926 1.01861e-18)
(2.41796 0.486019 -7.29641e-19)
(2.30117 0.495809 5.23376e-19)
(1.91715 0.413321 3.87255e-19)
(0.824481 0.13241 -3.09968e-19)
(0.583346 0.429024 -7.31583e-19)
(0.489028 0.463938 -5.74797e-19)
(0.366598 0.498098 6.95408e-20)
(0.227001 0.497028 -1.70462e-20)
(0.0544629 0.349961 7.052e-20)
(0.701177 0.594005 4.38289e-20)
(0.638615 0.651276 -3.47721e-19)
(0.545479 0.716138 1.74339e-19)
(0.411077 0.775727 -8.02652e-20)
(0.175364 0.595266 1.1546e-19)
(0.766981 0.810202 1.69562e-19)
(0.697713 0.895482 4.21684e-19)
(0.645537 0.995022 7.6478e-20)
(0.56185 1.03808 -2.86856e-19)
(0.307131 0.769179 2.37036e-19)
(1.05901 0.872866 2.08573e-19)
(1.00552 0.960302 -6.50342e-19)
(0.953074 1.06576 -1.85786e-18)
(0.870374 1.13971 7.56284e-19)
(0.512207 0.849548 -1.66885e-19)
(1.15522 0.939728 -1.1795e-19)
(1.17586 1.05874 -1.94445e-19)
(1.19201 1.17363 -3.43689e-19)
(1.13578 1.20316 -3.97632e-19)
(0.696867 0.864939 -6.44088e-21)
(0.987129 0.0474138 -8.89454e-20)
(1.02053 0.0089911 -3.07978e-20)
(1.03312 0.135208 -1.76462e-21)
(0.937951 0.105052 -2.05622e-19)
(0.913934 0.252203 3.08846e-19)
(0.973561 0.0444517 5.53058e-20)
(1.04434 0.00266002 1.13903e-19)
(1.01416 0.152871 1.13961e-19)
(0.971319 0.121594 2.28342e-20)
(0.936319 0.326505 2.36431e-20)
(0.981182 0.0427042 7.43264e-20)
(1.03204 -0.00602563 -4.39572e-21)
(1.05165 0.171972 -3.2964e-21)
(0.91967 0.127904 1.45714e-19)
(1.14154 0.469828 -4.33406e-19)
(0.979337 0.0408521 -3.00891e-22)
(1.05043 -0.0165739 -1.66511e-19)
(1.03269 0.204855 -6.12979e-20)
(1.00612 0.115972 -3.7915e-19)
(1.20595 0.517476 7.85688e-20)
(0.98494 0.0326031 -1.19807e-20)
(1.04623 -0.0109175 4.72851e-20)
(1.0641 0.201372 2.89182e-20)
(1.01808 0.133904 4.84614e-19)
(1.40576 0.653681 -4.41248e-19)
(0.966798 0.0315131 -4.87417e-21)
(1.10017 -0.0310812 9.43182e-20)
(1.01545 0.234446 -6.20684e-20)
(1.26089 0.0593282 9.86104e-19)
(1.34927 0.702041 -3.59292e-19)
(0.948152 -0.000317203 -1.38435e-21)
(1.15426 -0.0132891 -8.30096e-20)
(0.923985 0.159046 5.46774e-21)
(1.40929 0.0169451 -3.88653e-19)
(1.38347 0.487254 -1.78694e-20)
(0.97959 -0.0160704 2.8051e-21)
(1.10529 0.00688825 1.38825e-35)
(1.02957 0.104829 -7.62781e-21)
(1.38581 -0.0574293 1.11883e-19)
(1.32529 0.361119 1.55439e-19)
(1.04249 -0.0522653 3.93781e-21)
(0.966099 -0.0031064 -2.64165e-20)
(1.22574 0.00768338 2.20496e-20)
(1.15382 -0.0384227 2.66338e-20)
(1.23916 0.27798 -2.23583e-19)
(0.950841 -0.0226086 -3.89661e-20)
(0.786179 -0.0228427 -2.07485e-21)
(0.971959 -0.0083413 2.63541e-20)
(0.673682 -0.00915233 -1.39259e-20)
(0.984444 0.0977926 -4.91222e-20)
(1.77885 0.638422 2.86128e-19)
(1.89407 0.656755 6.9255e-19)
(2.12088 0.553942 -9.90406e-19)
(2.19576 0.527887 1.64453e-20)
(2.38601 0.355017 4.27745e-19)
(1.75688 0.451634 7.80971e-20)
(1.76844 0.456358 9.52744e-19)
(1.94992 0.414988 1.01715e-19)
(1.93091 0.361601 -8.35399e-19)
(2.14374 0.27601 -2.66556e-19)
(1.61991 0.374123 -2.11255e-19)
(1.65452 0.326684 -1.39052e-19)
(1.79209 0.319319 2.24458e-19)
(1.82633 0.220611 -2.71165e-19)
(1.97051 0.217178 2.53029e-19)
(1.5587 0.258738 3.55525e-19)
(1.65093 0.197284 2.03398e-21)
(1.77508 0.192635 2.13356e-19)
(1.86623 0.112971 1.83873e-19)
(1.96145 0.123429 -1.86298e-19)
(1.30931 0.0581668 -4.78742e-20)
(1.39384 0.0341452 2.36767e-19)
(1.48562 0.0211272 1.0194e-19)
(1.52792 -0.000903988 -2.1984e-19)
(1.57903 -0.00442613 2.53831e-22)
(1.32299 -0.0350269 7.11203e-20)
(2.40958 -0.0377201 -5.26783e-19)
(2.63464 -0.0327018 1.39801e-18)
(2.61112 0.0145138 6.23816e-19)
(2.44402 0.0380391 -4.32576e-19)
(0.84202 0.0998479 1.32729e-19)
(2.18354 0.10216 -5.2534e-19)
(2.64146 0.104784 -7.21516e-19)
(2.67618 0.115105 9.08522e-19)
(2.42043 0.106409 -6.14857e-19)
(0.258686 0.09051 -2.97644e-20)
(1.51809 0.175131 5.64085e-19)
(2.31256 0.203415 8.42759e-20)
(2.68788 0.19995 6.2643e-19)
(2.82276 0.188174 2.81369e-19)
(-0.0420836 -0.0205852 2.37059e-19)
(0.589711 0.107782 2.41336e-19)
(1.48344 0.19487 -5.40194e-19)
(2.02463 0.233957 3.20302e-20)
(2.61774 0.261831 1.18602e-19)
(-0.11249 -0.0883604 1.71434e-19)
(0.0249178 -0.0362724 -1.98342e-19)
(0.570446 0.0702226 -2.86277e-20)
(1.07977 0.115711 4.75849e-20)
(1.62211 0.219409 -2.32449e-20)
(-0.0886341 -0.0951472 -1.99207e-21)
(-0.133608 -0.142201 1.26164e-19)
(0.0268493 -0.137473 8.22268e-20)
(0.246084 -0.102622 -2.84304e-20)
(0.757228 0.0140984 6.29259e-21)
(-0.0594078 -0.0962217 -1.64306e-20)
(-0.110153 -0.224247 -9.82825e-20)
(-0.0808222 -0.282356 -3.60168e-20)
(-0.00280117 -0.27732 4.50525e-21)
(0.191645 -0.165065 1.11797e-20)
(-0.0545552 -0.16585 -1.23e-20)
(-0.0673773 -0.381834 1.96295e-19)
(-0.034122 -0.459076 -4.43073e-20)
(0.0268035 -0.445557 1.67954e-19)
(0.0828994 -0.368199 -9.73498e-20)
(-0.0470811 -0.30864 -3.90417e-23)
(-0.0367257 -0.577348 7.07712e-20)
(-0.00810006 -0.625383 -3.75314e-19)
(0.0297228 -0.56976 -5.23172e-19)
(0.0615642 -0.480435 8.7332e-20)
(-0.015805 -0.394709 -5.77979e-21)
(-0.0372975 -0.607461 3.50282e-20)
(-0.0684263 -0.58547 -1.63447e-20)
(-0.0991794 -0.496815 -4.49138e-20)
(-0.119353 -0.397477 9.40006e-20)
(1.61198 0.551505 -7.93368e-20)
(1.29377 0.346722 6.17449e-19)
(0.681978 0.119033 -7.87237e-20)
(0.207934 -0.0391718 -6.58089e-21)
(0.624486 -0.0991586 -1.78901e-21)
(1.3487 0.491396 2.10969e-20)
(1.11543 0.456922 6.86309e-20)
(0.371564 0.241708 2.81007e-20)
(-0.0883965 -0.0466373 -7.91286e-21)
(0.528043 -0.17641 1.5863e-20)
(1.05349 0.298389 3.39998e-20)
(0.934057 0.545095 6.48019e-19)
(-0.0278761 0.365899 5.97215e-20)
(-0.10527 -0.103524 -6.41679e-19)
(0.550274 -0.273864 -1.22772e-20)
(0.580827 0.147347 7.54449e-21)
(0.563721 0.695247 -1.88485e-18)
(-0.333631 0.463502 -2.33144e-19)
(0.158978 -0.231886 3.13501e-21)
(0.66726 -0.359497 -1.1311e-20)
(0.00609365 0.152156 -1.60676e-19)
(-0.0398606 0.824821 -5.50848e-20)
(-0.264299 0.452919 2.28758e-19)
(0.537217 -0.378038 -4.14935e-20)
(0.88505 -0.422774 -2.53217e-20)
(0.44223 0.161394 -5.44826e-20)
(-0.261789 -0.0857989 0)
(-0.160865 -0.107884 -4.79153e-20)
(0.0189802 -0.0534226 4.53127e-20)
(0.286201 -0.0215232 1.18279e-20)
(2.07369 0.533679 0)
(1.42275 0.308836 0)
(0.844766 0.0205925 3.69928e-19)
(0.540789 -0.0723975 1.606e-20)
(0.764276 -0.0647516 -1.05539e-20)
(0.795284 0.00244771 -1.45334e-19)
(0.871811 -0.00294209 3.1363e-19)
(1.02971 0.00274699 -2.08402e-20)
(1.1022 0.00986985 3.2426e-19)
(1.45537 0.096795 2.1415e-19)
(1.78237 0.0281599 1.39143e-19)
(1.95564 0.082529 3.85698e-19)
(2.09985 0.0749152 -2.90159e-19)
(2.6908 0.20193 2.68993e-20)
(2.40013 0.179304 1.54416e-19)
(0.964784 -0.522327 2.30012e-20)
(0.958134 -0.620325 -2.09377e-19)
(0.956093 -0.727499 -1.7916e-19)
(0.888422 -0.804981 1.0769e-19)
(0.5474 -0.64018 1.46831e-19)
(0.86088 -0.430984 1.12337e-19)
(0.804561 -0.500133 1.60515e-19)
(0.728501 -0.574786 -1.03919e-19)
(0.615275 -0.643705 1.54461e-19)
(0.343593 -0.520605 4.20231e-20)
(0.682028 -0.292663 -1.24441e-19)
(0.593178 -0.33832 -6.12854e-20)
(0.493488 -0.395867 2.26186e-20)
(0.376002 -0.44589 -4.52141e-20)
(0.175382 -0.358122 -1.4255e-19)
(0.576452 -0.0591043 -4.53925e-19)
(0.491064 -0.0789226 -3.65421e-19)
(0.380064 -0.108632 2.97721e-19)
(0.25045 -0.14564 1.55449e-19)
(0.0770194 -0.137198 1.38847e-20)
(0.546474 0.149264 -1.44118e-19)
(0.460248 0.148261 -1.63627e-19)
(0.340697 0.144359 -4.21543e-20)
(0.198389 0.14676 5.62604e-20)
(0.0340204 0.108889 1.53062e-20)
(2.17753 -0.0357282 9.22925e-19)
(2.4418 -0.106853 3.15632e-19)
(2.52898 -0.198328 -8.33874e-19)
(2.39851 -0.224196 -1.80693e-18)
(1.4767 -0.215854 1.40608e-19)
(2.14619 -0.13026 1.56334e-18)
(2.23993 -0.24649 2.05625e-18)
(2.26352 -0.375486 1.71796e-19)
(2.19735 -0.438012 2.98536e-19)
(1.43583 -0.405391 -1.97954e-19)
(1.8417 -0.301756 -4.04479e-18)
(1.90712 -0.425105 4.48941e-19)
(1.95661 -0.558138 1.26719e-18)
(1.90708 -0.641087 -5.00521e-19)
(1.25703 -0.561863 7.98263e-19)
(1.60548 -0.434482 9.81821e-19)
(1.62075 -0.537356 -2.59567e-18)
(1.61073 -0.662466 -3.00062e-18)
(1.55341 -0.759762 9.38527e-19)
(1.01745 -0.64294 6.13895e-19)
(1.29689 -0.501737 2.26167e-19)
(1.25013 -0.603189 2.85056e-19)
(1.24585 -0.733787 -4.59469e-19)
(1.19763 -0.828355 -5.57415e-19)
(0.767902 -0.67019 -5.3407e-21)
(1.01579 0.0457395 7.28352e-21)
(0.98152 0.0482663 -1.65114e-21)
(1.11955 0.0866399 5.74527e-21)
(0.836648 -0.013985 -2.57331e-19)
(1.1629 -0.231932 -1.98304e-20)
(1.03441 0.0499751 -2.45237e-21)
(0.953864 0.0394291 3.70979e-20)
(1.122 0.106133 -7.71296e-22)
(0.914406 0.0264872 2.17023e-19)
(1.03786 -0.119377 9.50606e-22)
(1.0412 0.0487772 -5.92229e-20)
(0.945904 0.03062 2.15752e-22)
(1.10077 0.106258 -6.04077e-21)
(0.912201 0.0475067 1.04468e-19)
(0.996234 -0.0568622 -2.5815e-19)
(1.02854 0.0496771 7.11362e-20)
(0.96908 0.0228485 2.54098e-21)
(1.06088 0.111489 2.1999e-20)
(0.943603 0.0708458 -4.49071e-20)
(0.88993 0.0515239 7.15288e-20)
(1.00372 0.0474898 1.75937e-20)
(1.00452 0.0196179 -2.32587e-20)
(1.029 0.117999 3.46608e-20)
(0.955656 0.0924692 4.61504e-20)
(0.860576 0.148912 -2.68108e-20)
(0.873716 0.0333184 0)
(0.756259 0.0298727 9.62324e-21)
(0.585229 0.0199331 6.01885e-21)
(0.38925 -0.0135546 5.23243e-20)
(0.732999 -0.056373 -1.7337e-19)
(0.984533 0.066038 -6.21663e-20)
(1.01272 0.0709636 -8.22372e-21)
(1.00819 0.0829888 -6.18169e-20)
(0.842467 -0.0170102 -1.44463e-19)
(1.06985 -0.214606 -1.8142e-19)
(1.02786 -0.0658721 -3.96451e-20)
(1.12137 -0.0352385 5.94852e-19)
(1.22769 0.0391664 3.55661e-19)
(1.09716 0.0614092 3.24397e-20)
(0.850964 0.0336466 0)
(1.38054 -0.332546 3.98752e-19)
(1.50732 -0.293922 1.70546e-18)
(1.70328 -0.167174 -1.8704e-18)
(1.81404 -0.0227007 -5.8131e-19)
(1.72809 0.0355712 4.32652e-19)
)
;

boundaryField
{
    left
    {
        type            fixedValue;
        value           uniform (1 0 0);
    }
    right
    {
        type            zeroGradient;
    }
    down
    {
        type            noSlip;
    }
    up
    {
        type            noSlip;
    }
    cylinder
    {
        type            noSlip;
    }
    defaultFaces
    {
        type            empty;
    }
}


// ************************************************************************* //
