/*--------------------------------*- C++ -*----------------------------------*\
  =========                 |
  \\      /  F ield         | OpenFOAM: The Open Source CFD Toolbox
   \\    /   O peration     | Website:  https://openfoam.org
    \\  /    A nd           | Version:  13
     \\/     M anipulation  |
\*---------------------------------------------------------------------------*/
FoamFile
{
    format      ascii;
    class       volVectorField;
    location    "65.4";
    object      U;
}
// * * * * * * * * * * * * * * * * * * * * * * * * * * * * * * * * * * * * * //

dimensions      [0 1 -1 0 0 0 0];

internalField   nonuniform List<vector> 
440
(
(-0.251583 0.214873 3.99344e-21)
(-0.267586 0.238302 -3.22242e-19)
(-0.0539391 0.0850389 -5.62045e-20)
(0.343216 0.0483119 5.29119e-20)
(0.373443 0.0796838 -2.84982e-21)
(-0.0719968 0.0561944 1.6615e-20)
(0.0567335 0.0869435 4.48266e-20)
(0.507304 0.0341375 5.88106e-20)
(1.0204 0.00976102 -3.87524e-20)
(1.49062 -0.00895007 -4.53881e-20)
(-0.0267147 0.012955 4.21439e-20)
(0.426045 -0.0238489 5.50896e-19)
(1.15095 -0.0122665 -2.80708e-19)
(1.74064 0.0105199 -9.00968e-19)
(2.26108 0.0287144 4.76634e-19)
(0.173496 -0.0398404 -1.58829e-19)
(1.08708 0.00576978 -4.68821e-19)
(1.85639 0.0814011 1.44762e-18)
(2.30526 0.131483 1.65666e-18)
(2.42318 0.153277 -4.41415e-19)
(0.503699 -0.00833371 -2.77289e-19)
(1.63717 0.17877 -5.76766e-19)
(2.19778 0.267722 1.75775e-18)
(2.34753 0.288196 1.8964e-18)
(2.40818 0.265635 6.46526e-19)
(0.0327027 -0.297582 -9.30217e-20)
(0.120882 -0.622615 -1.81556e-19)
(0.172797 -0.723062 2.3164e-19)
(0.180322 -0.669775 2.49015e-21)
(0.125738 -0.546327 1.45572e-19)
(0.116077 -0.380693 1.37747e-19)
(0.288224 -0.72606 5.28307e-19)
(0.314631 -0.747537 -7.76472e-21)
(0.258642 -0.581917 -1.50837e-20)
(0.130993 -0.340915 3.60237e-20)
(0.279162 -0.536367 3.43795e-19)
(0.474327 -0.852744 1.18932e-19)
(0.43136 -0.785802 3.00782e-20)
(0.322162 -0.567846 -2.58062e-19)
(0.174986 -0.30263 -5.33067e-21)
(0.401187 -0.64794 3.4808e-19)
(0.351309 -0.885899 -5.09949e-19)
(0.134148 -0.79429 6.05706e-19)
(-0.0626095 -0.663746 6.79955e-19)
(-0.196671 -0.487837 1.24712e-19)
(-0.0731112 -0.139844 2.50234e-19)
(-0.387174 -0.406985 4.65286e-19)
(-0.574117 -0.573264 6.90099e-19)
(-0.652365 -0.579103 -9.03398e-20)
(-0.707049 -0.485339 8.53638e-19)
(0.0865164 -0.000722376 3.07036e-18)
(-0.58786 1.26474 -3.93781e-19)
(0.974583 0.194204 3.95635e-19)
(1.12489 -1.07363 1.03328e-18)
(1.20682 -0.631532 -9.67109e-20)
(-0.118279 0.283923 -2.34129e-18)
(-1.19597 1.10254 1.887e-19)
(1.34395 -0.151605 1.96067e-19)
(1.40115 -1.07614 -8.21242e-19)
(1.2873 -0.642763 1.43604e-19)
(0.426693 0.186297 -1.1826e-18)
(-0.61138 0.884162 -1.98581e-18)
(1.59263 -0.441693 -1.16861e-19)
(1.58312 -1.05925 -5.61346e-19)
(1.33957 -0.614417 1.85225e-20)
(-0.0499902 0.293532 2.30983e-19)
(-0.299574 0.82047 4.1597e-19)
(1.94624 -0.628656 -2.19028e-19)
(1.77605 -1.02722 2.30322e-19)
(1.38344 -0.579813 9.13318e-20)
(-0.461661 -0.141319 -3.57498e-19)
(0.199611 0.52415 2.55287e-18)
(2.26235 -0.743069 0)
(1.97971 -0.945565 -2.5605e-19)
(1.41555 -0.515239 2.1204e-20)
(1.30617 -0.159705 -1.84319e-19)
(1.39378 0.0743245 -4.91056e-19)
(2.50686 -0.86153 -6.63784e-21)
(2.10779 -0.846804 1.21527e-20)
(1.45196 -0.433662 -6.6762e-20)
(1.92489 0.0688698 1.36998e-20)
(2.21771 0.124421 6.96653e-19)
(2.62515 -0.806344 -5.95413e-22)
(1.89876 -0.670577 1.97976e-19)
(1.21759 -0.26203 0)
(1.87996 -0.0296968 -7.97485e-20)
(2.56893 -0.183604 -1.33645e-20)
(2.35631 -0.642727 7.51493e-19)
(1.60189 -0.401355 -5.95682e-20)
(1.11987 -0.163948 -3.00286e-20)
(1.97539 0.000270457 1.32402e-20)
(2.40151 -0.132571 8.96075e-20)
(1.905 -0.444058 1.67101e-20)
(1.1313 -0.243349 -3.47327e-34)
(0.721536 -0.0615403 4.57479e-20)
(1.49397 -0.0390699 9.52126e-20)
(1.36511 -0.152213 7.04089e-20)
(0.56848 -0.0232864 -1.45261e-19)
(0.121091 0.00175104 2.5834e-21)
(-0.071626 -0.0133001 1.16998e-20)
(2.33744 0.264001 -7.99211e-19)
(2.48715 0.0939204 -1.02623e-18)
(2.41762 0.0804174 7.70807e-19)
(2.518 -0.0347144 2.98024e-20)
(2.003 -0.00275181 -7.87581e-20)
(2.14051 0.125923 6.73773e-20)
(2.26767 0.133684 -3.87967e-20)
(2.25743 -0.0561067 -1.24764e-19)
(2.32615 -0.00739982 -2.29864e-19)
(2.28518 -0.264597 -4.32294e-21)
(2.08951 0.0332386 7.36494e-20)
(2.09464 0.115561 8.86211e-20)
(2.2022 -0.0781129 -1.08662e-19)
(2.13756 0.00692802 3.62972e-20)
(2.26561 -0.167041 2.85209e-20)
(2.00668 -0.00486763 1.11388e-19)
(2.00247 0.060621 1.45691e-19)
(2.12403 -0.0596173 -1.80519e-20)
(2.0641 0.000312391 -6.41459e-20)
(2.20451 -0.101355 2.5625e-20)
(1.42913 -0.0126472 1.7626e-19)
(1.47365 -0.00629969 -1.14782e-20)
(1.46545 -0.0230103 1.80795e-20)
(1.48549 -0.0162096 -3.28437e-20)
(1.48706 -0.0330881 -1.50268e-20)
(1.54559 0.85386 1.00368e-18)
(1.50836 0.947532 -2.94777e-19)
(1.50506 1.06833 -1.21303e-18)
(1.43467 1.10857 6.80921e-19)
(0.88449 0.79715 -1.73135e-19)
(1.8052 0.79642 -5.31865e-19)
(1.78333 0.879148 -2.8132e-18)
(1.79205 0.986261 -1.09232e-18)
(1.70333 0.991348 -3.9145e-19)
(1.03657 0.683026 -6.2411e-19)
(2.09432 0.696706 7.11717e-19)
(2.07743 0.75949 1.84423e-19)
(2.05847 0.838076 -2.17071e-18)
(1.91926 0.819146 -5.89218e-19)
(1.11603 0.52577 4.25782e-19)
(2.23658 0.573837 2.18678e-18)
(2.24038 0.624098 1.58493e-18)
(2.23248 0.668168 -1.81511e-18)
(2.00359 0.617602 -1.34932e-18)
(1.06896 0.338103 -2.38485e-19)
(2.39627 0.426699 1.03203e-18)
(2.38956 0.446761 -7.4405e-19)
(2.28816 0.461251 5.3221e-19)
(1.93251 0.39502 4.09162e-19)
(0.864536 0.139435 -3.3694e-19)
(0.579447 0.3842 -7.24171e-19)
(0.490918 0.41549 -5.99126e-19)
(0.371498 0.447322 8.09122e-20)
(0.230461 0.454652 -2.99933e-20)
(0.0560417 0.328498 6.53742e-20)
(0.670589 0.56311 5.63466e-20)
(0.606352 0.620326 -3.23593e-19)
(0.517079 0.687452 1.6964e-19)
(0.389196 0.742436 -7.83309e-20)
(0.165559 0.567728 1.12482e-19)
(0.76916 0.757321 2.04239e-19)
(0.694557 0.83425 4.0119e-19)
(0.634236 0.931002 5.20933e-20)
(0.54823 0.984217 -2.6895e-19)
(0.29913 0.736604 2.17179e-19)
(1.03691 0.853667 2.07621e-19)
(0.98666 0.940686 -5.98701e-19)
(0.932096 1.03944 -1.75531e-18)
(0.845557 1.10506 7.18617e-19)
(0.498038 0.825452 -1.77033e-19)
(1.15364 0.88927 -1.34838e-19)
(1.16448 1.00848 -2.09033e-19)
(1.17591 1.12601 -3.14393e-19)
(1.11766 1.1652 -3.68132e-19)
(0.687143 0.847343 -6.0976e-21)
(1.01016 0.052078 -8.33681e-20)
(0.988244 0.00858449 -3.13032e-20)
(1.05089 0.110531 -1.3656e-21)
(0.944338 0.115302 -2.29857e-19)
(0.888559 0.227111 2.91173e-19)
(0.997207 0.0515193 5.15106e-20)
(1.00333 0.00189956 1.15384e-19)
(1.04136 0.11989 9.8619e-20)
(0.968903 0.145404 2.55593e-20)
(0.92254 0.303154 2.40958e-20)
(1.00149 0.0509924 6.84666e-20)
(0.992479 -0.00692702 -4.50959e-21)
(1.08606 0.136312 -4.64477e-21)
(0.912769 0.15306 1.54344e-19)
(1.11871 0.439563 -4.0454e-19)
(0.994521 0.0507444 -3.96435e-22)
(1.01759 -0.0188784 -1.71388e-19)
(1.08032 0.159555 -5.66595e-20)
(0.980431 0.164234 -3.70791e-19)
(1.17062 0.476767 8.76723e-20)
(0.992481 0.0418394 -1.12691e-20)
(1.02865 -0.0169805 5.21534e-20)
(1.11764 0.166601 2.84157e-20)
(0.963074 0.185523 4.4428e-19)
(1.39281 0.607287 -3.99908e-19)
(0.954429 0.0406406 -3.38453e-21)
(1.1114 -0.0451627 1.04491e-19)
(1.09241 0.201716 -7.67611e-20)
(1.16275 0.138065 8.12465e-19)
(1.3378 0.614063 -3.87527e-19)
(0.899316 0.00617485 -1.59748e-21)
(1.21823 -0.0442464 -8.64752e-20)
(0.981632 0.15348 4.44367e-21)
(1.26185 0.115057 -2.84415e-19)
(1.4131 0.390231 2.68785e-20)
(0.972745 -0.0146765 -2.63186e-21)
(1.15297 -0.0412812 1.19959e-35)
(0.994025 0.15296 -2.76873e-20)
(1.263 0.0292317 8.6115e-20)
(1.4096 0.284219 1.47127e-19)
(1.11065 -0.0633186 4.05559e-21)
(0.913939 -0.0288567 -2.74514e-20)
(1.14164 0.0855446 1.73342e-20)
(1.21926 -0.0053773 3.09518e-20)
(1.36636 0.17084 -2.08449e-19)
(0.998352 -0.0249332 -4.32216e-20)
(0.69797 -0.01543 -5.25212e-21)
(0.972129 0.00277244 1.79809e-20)
(0.835178 -0.0159545 -1.27117e-20)
(1.01431 0.0565213 -4.64449e-20)
(1.73964 0.665839 3.05726e-19)
(1.8568 0.643576 7.17962e-19)
(2.08178 0.552515 -1.00356e-18)
(2.15857 0.490955 3.24868e-20)
(2.3433 0.324408 4.3327e-19)
(1.67859 0.494352 3.75722e-20)
(1.76877 0.417287 9.32474e-19)
(1.90173 0.420267 8.91185e-20)
(1.97967 0.290618 -8.57928e-19)
(2.11165 0.270194 -2.74524e-19)
(1.62628 0.376947 -1.91623e-19)
(1.72797 0.270117 -1.39243e-19)
(1.80967 0.308605 2.30774e-19)
(1.92679 0.153432 -2.83905e-19)
(1.98027 0.211731 2.58076e-19)
(1.61709 0.218238 3.02367e-19)
(1.68076 0.143344 -2.09628e-21)
(1.77532 0.171331 2.16494e-19)
(1.85503 0.0671564 1.90879e-19)
(1.91092 0.116805 -1.84474e-19)
(1.23583 0.0522055 -3.54818e-20)
(1.27068 0.0333492 2.09723e-19)
(1.35728 0.0285623 1.03174e-19)
(1.36923 0.00707596 -2.18735e-19)
(1.43739 0.00713114 3.25197e-22)
(1.3994 -0.0386971 7.34414e-20)
(2.5147 -0.023274 -5.93458e-19)
(2.73801 -0.0165701 1.59035e-18)
(2.72106 0.0345888 7.34874e-19)
(2.479 0.0469486 -4.94401e-19)
(0.916669 0.102971 1.51783e-19)
(2.29971 0.123799 -6.19113e-19)
(2.73825 0.130914 -8.75135e-19)
(2.7395 0.14391 1.17204e-18)
(2.55171 0.140038 -8.44863e-19)
(0.288179 0.101315 -2.92192e-20)
(1.66502 0.208446 7.13279e-19)
(2.46071 0.258813 1.17335e-19)
(2.80259 0.267308 1.15716e-18)
(2.79104 0.248294 6.52777e-19)
(-0.0445573 -0.017428 2.64773e-19)
(0.716529 0.150175 2.90536e-19)
(1.66708 0.266474 -8.18358e-19)
(2.24997 0.338243 7.27516e-20)
(2.80319 0.372289 6.00445e-19)
(-0.126436 -0.10021 2.06109e-19)
(0.0698311 -0.00575706 -2.41703e-19)
(0.741731 0.154676 -8.57198e-20)
(1.29169 0.248226 1.42819e-19)
(2.00298 0.428673 5.8402e-20)
(-0.0964388 -0.10614 2.4683e-20)
(-0.134139 -0.122355 1.70744e-19)
(0.133227 -0.0842671 8.51218e-20)
(0.336212 -0.0396525 -5.10072e-20)
(1.13539 0.192607 7.45501e-21)
(-0.0650888 -0.102336 -1.51208e-20)
(-0.141083 -0.226784 -1.26499e-19)
(-0.0845574 -0.277128 -2.55765e-20)
(-0.0102546 -0.259054 -1.97857e-20)
(0.361614 -0.0112887 4.52942e-21)
(-0.0489846 -0.122527 7.77014e-22)
(-0.0987941 -0.307253 3.61424e-19)
(-0.0875443 -0.378934 -2.1638e-19)
(-0.0346223 -0.362364 -4.56293e-19)
(0.0647108 -0.20792 9.91058e-20)
(-0.0336582 -0.177572 -2.02146e-20)
(-0.0463508 -0.422195 -1.17381e-19)
(-0.0190624 -0.53544 2.52782e-19)
(0.0424976 -0.544968 -6.3228e-20)
(0.083296 -0.476481 -4.66782e-21)
(-0.0105785 -0.242364 8.17426e-21)
(0.0136808 -0.534202 -2.10942e-20)
(0.052217 -0.661292 2.86772e-21)
(0.0892681 -0.662663 -7.64124e-21)
(0.0948897 -0.586978 1.05495e-19)
(1.64316 0.749188 -9.89698e-20)
(1.31892 0.485337 -2.2335e-19)
(-0.530765 0.182968 3.28886e-20)
(0.0359713 -0.41139 8.838e-19)
(0.906271 -0.240666 8.72194e-21)
(1.43678 0.742618 3.66888e-20)
(0.904763 0.738587 1.48824e-18)
(-0.688351 0.218882 6.61494e-19)
(0.16143 -0.692586 2.88743e-20)
(0.930381 -0.368553 3.7763e-21)
(1.43824 0.643774 2.32601e-20)
(1.11868 0.996144 3.09497e-18)
(-0.22959 0.259024 4.10147e-20)
(0.512172 -0.834132 -1.25029e-18)
(0.993638 -0.454278 -1.00009e-20)
(1.14788 0.238496 4.36121e-19)
(1.4381 1.1609 -4.50719e-18)
(0.257893 0.346476 3.6933e-19)
(0.727108 -0.957327 1.79204e-20)
(1.0991 -0.524854 -9.0123e-20)
(0.544043 0.0922598 2.46081e-20)
(0.743253 1.33955 -2.36767e-19)
(0.571587 0.364318 -2.06049e-19)
(0.836207 -1.05039 -8.12073e-20)
(1.14779 -0.587607 -2.1983e-19)
(-0.238252 0.12591 -5.72847e-20)
(-0.4672 -0.189121 0)
(-0.733432 -0.124386 -5.2374e-20)
(-0.0390091 -0.117813 1.18705e-20)
(0.479005 -0.035549 -7.16021e-21)
(1.80594 0.709617 0)
(1.28141 0.383958 0)
(-0.126903 0.00722344 1.38016e-19)
(0.18232 -0.245928 -3.29994e-19)
(0.839969 -0.139854 -2.42484e-20)
(0.795445 0.0065475 -1.39651e-19)
(0.864064 -0.00396733 2.77958e-19)
(1.05487 0.0436256 -4.32658e-20)
(0.916372 0.00345657 4.05246e-19)
(1.39292 0.199587 2.62055e-19)
(1.78857 0.0427791 1.34102e-19)
(2.01883 0.0863766 4.401e-19)
(2.13469 0.151698 -7.9941e-19)
(2.563 0.264624 2.44085e-19)
(2.54284 0.354581 4.65035e-19)
(0.990121 -0.54327 4.84331e-20)
(0.979784 -0.643636 -2.24677e-19)
(0.979445 -0.753088 -2.12615e-19)
(0.915292 -0.831577 1.25434e-19)
(0.564867 -0.661444 1.50088e-19)
(0.886769 -0.454987 1.04402e-19)
(0.831626 -0.527092 1.19224e-19)
(0.755483 -0.604376 -1.25503e-19)
(0.63814 -0.672822 1.53242e-19)
(0.355445 -0.539556 3.38617e-20)
(0.689472 -0.320717 -1.13874e-19)
(0.596832 -0.366628 -6.06533e-20)
(0.496243 -0.425408 -3.0174e-20)
(0.382174 -0.477865 -6.0542e-20)
(0.181571 -0.380281 -1.42052e-19)
(0.580707 -0.0877294 -4.41361e-19)
(0.496918 -0.110296 -3.54143e-19)
(0.38874 -0.145043 2.90951e-19)
(0.260336 -0.186558 1.46494e-19)
(0.0836055 -0.165635 1.33819e-20)
(0.543703 0.118895 -1.40559e-19)
(0.458529 0.117219 -1.60454e-19)
(0.341155 0.112209 -3.84984e-20)
(0.201577 0.11039 5.95103e-20)
(0.0362422 0.0810468 1.53502e-20)
(2.28695 -0.0275272 1.00751e-18)
(2.50958 -0.105009 3.70304e-19)
(2.60766 -0.201042 -9.3786e-19)
(2.49033 -0.226448 -2.01342e-18)
(1.54633 -0.22807 1.47064e-19)
(2.1942 -0.134537 1.67389e-18)
(2.32117 -0.252697 2.17405e-18)
(2.35066 -0.384969 1.7977e-19)
(2.28574 -0.449528 3.10283e-19)
(1.50212 -0.426575 -2.07367e-19)
(1.92686 -0.310378 -4.25453e-18)
(1.97362 -0.435955 4.90923e-19)
(2.01413 -0.572463 1.34711e-18)
(1.97288 -0.659709 -5.47503e-19)
(1.30844 -0.587281 8.68439e-19)
(1.65172 -0.444871 1.04588e-18)
(1.67173 -0.552547 -2.74014e-18)
(1.67316 -0.68327 -3.17841e-18)
(1.61782 -0.785193 1.00437e-18)
(1.0604 -0.6703 6.47169e-19)
(1.35337 -0.515465 2.40884e-19)
(1.30365 -0.617736 2.94163e-19)
(1.29028 -0.749867 -4.88847e-19)
(1.23682 -0.849337 -5.94581e-19)
(0.793184 -0.692921 -5.7598e-21)
(1.05967 0.0540633 6.99696e-21)
(0.93574 0.0435629 3.87191e-22)
(1.13935 0.068393 6.1593e-21)
(0.829627 -0.0138167 -2.58267e-19)
(1.2097 -0.251994 -1.97847e-20)
(1.06934 0.0574143 -2.36151e-21)
(0.930349 0.0378233 2.95808e-20)
(1.1336 0.0860942 -1.9577e-21)
(0.905094 0.0257296 2.05291e-19)
(1.06273 -0.136121 1.6652e-21)
(1.06699 0.0549333 -5.63802e-20)
(0.932967 0.0295333 1.46586e-22)
(1.11721 0.0881922 -5.37063e-21)
(0.896539 0.0442608 9.47736e-20)
(1.01562 -0.0793311 -2.67227e-19)
(1.04854 0.0540168 6.71869e-20)
(0.957785 0.022112 2.69162e-21)
(1.07772 0.0936271 1.98421e-20)
(0.936472 0.0704733 -2.93342e-20)
(0.891753 0.0324792 6.40276e-20)
(1.02394 0.0519307 1.65426e-20)
(0.983269 0.017079 -2.49436e-20)
(1.04778 0.0997568 3.01192e-20)
(0.954389 0.0967672 5.49494e-20)
(0.852715 0.125181 -1.32226e-20)
(0.886549 0.033493 0)
(0.717242 0.0270476 8.25549e-21)
(0.632555 0.0210468 6.34214e-21)
(0.379903 -0.0110665 5.55027e-20)
(0.762231 -0.0643559 -1.77558e-19)
(1.02859 0.0736394 -6.22927e-20)
(0.946134 0.0636898 -1.40008e-21)
(1.05322 0.0711962 -6.30969e-20)
(0.840298 -0.0119788 -1.51643e-19)
(1.12474 -0.229311 -1.84331e-19)
(1.07378 -0.0679147 -4.06344e-20)
(1.1654 -0.0377041 6.10327e-19)
(1.27951 0.0380232 3.68519e-19)
(1.14111 0.0650777 2.83373e-20)
(0.892008 0.0356518 0)
(1.4351 -0.339997 4.05062e-19)
(1.56494 -0.29909 1.77321e-18)
(1.76892 -0.173672 -1.95441e-18)
(1.86746 -0.0211161 -6.25725e-19)
(1.81951 0.0396913 4.61408e-19)
)
;

boundaryField
{
    left
    {
        type            fixedValue;
        value           uniform (1 0 0);
    }
    right
    {
        type            zeroGradient;
    }
    down
    {
        type            noSlip;
    }
    up
    {
        type            noSlip;
    }
    cylinder
    {
        type            noSlip;
    }
    defaultFaces
    {
        type            empty;
    }
}


// ************************************************************************* //
