/*--------------------------------*- C++ -*----------------------------------*\
  =========                 |
  \\      /  F ield         | OpenFOAM: The Open Source CFD Toolbox
   \\    /   O peration     | Website:  https://openfoam.org
    \\  /    A nd           | Version:  13
     \\/     M anipulation  |
\*---------------------------------------------------------------------------*/
FoamFile
{
    format      ascii;
    class       volScalarField;
    location    "0.98";
    object      strainRateViscosityModel:nu;
}
// * * * * * * * * * * * * * * * * * * * * * * * * * * * * * * * * * * * * * //

dimensions      [0 2 -1 0 0 0 0];

internalField   nonuniform List<scalar> 
440
(
9.41953
8.96974
8.54456
8.04242
7.5862
9.68995
9.35817
8.98179
8.48006
7.87558
9.80074
9.53084
9.15877
8.5851
7.84826
9.84962
9.61817
9.25861
8.64755
7.86607
9.86917
9.65606
9.30591
8.68093
7.90878
1.30897
1.79042
2.04945
2.29939
2.36351
3.38731
3.30184
3.31525
3.42298
3.49368
5.89265
5.27127
4.92711
4.72648
4.75602
7.7695
6.99347
6.42023
5.90434
5.82657
8.82061
8.15139
7.55214
6.91816
6.87139
1.85046
0.845355
0.42454
0.169034
0.189748
2.61411
0.905441
0.368082
0.141263
0.0803073
3.51043
1.14474
0.299748
0.111185
0.0210601
4.09029
1.43255
0.274511
0.0569293
0.108686
4.60331
1.74971
0.319117
0.0114683
0.196253
4.22896
1.7389
0.311957
0.0836072
0.294547
3.71216
1.82529
0.636655
0.305126
0.409874
4.92028
3.20804
1.24426
0.559903
0.515105
7.0095
4.28762
1.91835
0.899984
0.630728
8.27286
5.07567
2.49609
1.30375
0.805519
2.84816
3.68246
4.61953
5.50533
6.14852
3.68377
3.69672
3.77237
3.85239
3.36796
8.22647
8.08652
7.7993
7.38546
6.34652
9.0529
8.99236
8.85902
8.62148
8.16013
9.60671
9.56995
9.48702
9.33805
9.1188
7.50319
8.01245
8.55947
9.01088
9.46415
7.79401
8.45169
8.98717
9.37788
9.70863
7.77901
8.55907
9.15944
9.54077
9.80944
7.81628
8.62756
9.25739
9.62275
9.85359
7.89134
8.67365
9.30535
9.65743
9.87034
2.53584
2.47681
2.27679
2.12229
2.05131
3.48113
3.43327
3.47418
3.69467
4.24902
4.63519
4.65865
5.04955
5.59976
6.4528
5.68267
5.82496
6.49698
7.18776
8.04128
6.75279
6.84135
7.5802
8.24263
8.93532
0.214393
0.0633129
0.286533
0.876912
2.02985
0.188664
0.0790689
0.23256
0.893833
2.66127
0.170733
0.080527
0.17333
1.08211
3.43903
0.158716
0.0600965
0.155149
1.38393
3.93996
0.158922
0.0643708
0.245516
1.73192
4.36291
0.205742
0.101994
0.274577
1.86808
4.09961
0.339221
0.119631
0.282896
1.81784
3.86237
0.669655
0.235622
0.772432
3.0379
4.90873
2.27587
0.813013
1.50818
4.16248
6.96074
5.05807
2.53611
2.4179
5.03728
8.27917
5.94662
5.26572
4.4021
3.51026
2.77973
3.52262
3.9914
3.97117
3.87646
3.76368
6.3211
7.35231
7.77898
8.06765
8.21844
8.12118
8.59991
8.84942
8.98861
9.05202
9.11695
9.33782
9.48741
9.57051
9.60696
9.3109
7.9169
1.39868
3.63026
7.73685
9.08189
7.44086
3.20604
1.64078
6.7891
8.39875
6.57778
4.20857
1.00362
4.14772
6.81575
5.09481
3.45532
1.70083
1.03869
4.50396
3.14527
2.03877
1.37807
0.460194
2.59753
1.61861
1.00261
0.797435
0.927023
1.45669
0.779362
0.580578
0.614078
0.686683
0.800889
0.406952
0.592538
0.761343
0.834591
0.304834
0.509914
0.886962
1.05295
1.11431
0.163676
0.935614
1.28179
1.51827
1.57287
0.190691
0.36349
0.712556
0.78075
0.73485
0.396556
0.50278
0.581373
0.640243
0.627944
0.616171
0.650262
0.467235
0.496996
0.517634
0.96826
0.799086
0.420493
0.358457
0.405765
1.3318
0.848263
0.426704
0.242698
0.292137
1.10601
0.859945
1.12672
1.11159
0.996311
0.283363
0.472982
0.868719
0.923577
0.846262
9.1912
8.8387
7.75889
5.73036
3.55988
8.58734
7.72297
5.85165
3.49146
0.865806
0.964455
0.858037
1.02666
1.62022
2.65828
0.812768
0.766698
0.703269
0.824349
1.52691
1.05929
1.01052
0.847247
0.552725
0.74548
1.38539
1.3484
1.15046
0.798565
0.229195
1.85882
1.81213
1.5598
1.24149
0.598727
7.73639
3.62721
1.39996
7.91514
9.31104
6.7853
1.64061
3.20266
7.43777
9.08253
4.13444
1.01085
4.1944
6.5732
8.40033
1.03691
1.70527
3.43376
5.08574
6.82226
0.475939
1.37616
2.01483
3.12779
4.52682
1.31279
0.540577
0.551311
0.451929
0.175606
0.679356
0.289122
0.469468
0.518818
0.485036
0.402344
0.149651
0.382754
0.62115
0.803695
0.293339
0.0657275
0.342695
0.775062
1.22455
0.248389
0.0465769
0.320495
0.862571
1.59113
5.48154
2.46099
1.03486
0.957966
1.14176
2.88815
1.08744
0.724557
0.553599
0.252479
3.56818
5.73584
7.76006
8.83923
9.19135
0.843819
3.47233
5.8451
7.7216
8.58719
)
;

boundaryField
{
    left
    {
        type            calculated;
        value           nonuniform List<scalar> 
17
(
0.461905
1.12786
2.18783
3.90984
6.58067
0.306038
0.189891
0.139195
0.144796
0.215621
2.95974
2.06306
1.34252
0.825901
0.503251
6.97892
4.57986
)
;
    }
    right
    {
        type            calculated;
        value           nonuniform List<scalar> 
17
(
0.99661
0.847718
0.737006
0.630916
0.520138
0.405159
0.285215
0.174759
0.0642993
0.0183633
0.130926
0.251577
0.359251
0.462273
0.546888
0.642838
0.797684
)
;
    }
    down
    {
        type            calculated;
        value           nonuniform List<scalar> 
20
(
5.99539
3.00045
1.14443
1.04049
1.85322
4.2703
6.38394
8.13151
9.01585
9.3093
9.30913
9.0152
8.13002
6.37991
4.26423
1.83188
0.934448
1.19326
1.16854
1.04304
)
;
    }
    up
    {
        type            calculated;
        value           nonuniform List<scalar> 
20
(
8.54865
5.40373
2.72545
1.4546
0.873055
9.69562
9.66615
9.59857
9.47421
9.2934
9.29641
9.47647
9.60018
9.66726
9.69603
5.70592
3.14787
2.65803
5.39312
8.5656
)
;
    }
    cylinder
    {
        type            calculated;
        value           nonuniform List<scalar> 
40
(
1.37618
3.59241
6.11886
7.9602
8.95699
9.5051
9.74576
9.84079
9.88145
9.89745
9.54741
9.76282
9.84855
9.88495
9.89848
2.29002
4.52697
6.69979
8.23429
9.0698
3.04369
1.85066
1.09535
0.448084
0.605611
9.51907
9.33192
8.74238
7.26987
4.98631
9.5189
9.33118
8.74031
7.26161
4.95775
2.96619
1.73397
1.07386
0.666559
0.102728
)
;
    }
    defaultFaces
    {
        type            empty;
    }
}


// ************************************************************************* //
