/*--------------------------------*- C++ -*----------------------------------*\
  =========                 |
  \\      /  F ield         | OpenFOAM: The Open Source CFD Toolbox
   \\    /   O peration     | Website:  https://openfoam.org
    \\  /    A nd           | Version:  13
     \\/     M anipulation  |
\*---------------------------------------------------------------------------*/
FoamFile
{
    format      ascii;
    class       surfaceScalarField;
    location    "0.18";
    object      phi;
}
// * * * * * * * * * * * * * * * * * * * * * * * * * * * * * * * * * * * * * //

dimensions      [0 3 -1 0 0 0 0];

internalField   nonuniform List<scalar> 
3485
(
0.00360709
-0.0369881
0.033381
0.0116796
-0.101529
0.0934561
0.0213988
-0.134011
0.124292
0.0313401
-0.14426
0.134319
0.0410388
-0.144658
0.134959
0.0503984
-0.141772
0.132413
0.0593994
-0.138119
0.129118
0.0679997
-0.134457
0.125857
0.076103
-0.130877
0.122773
-0.127108
0.119448
0.0837626
0.00369551
-0.0406836
0.011541
-0.109374
0.0207461
-0.143216
0.0300455
-0.153559
0.0390994
-0.153712
0.0478931
-0.150566
0.0564787
-0.146704
0.0649191
-0.142897
0.0733313
-0.139289
-0.135819
0.0820428
0.0037601
-0.0444437
0.0113037
-0.116918
0.0198836
-0.151796
0.0283986
-0.162074
0.0366162
-0.161929
0.0445654
-0.158515
0.0523034
-0.154443
0.0598725
-0.150467
0.0673044
-0.146721
-0.143135
0.0746201
0.00380473
-0.0482484
0.0109802
-0.124093
0.0188601
-0.159676
0.0265301
-0.169744
0.0338765
-0.169276
0.0409818
-0.16562
0.0479213
-0.161382
0.0547398
-0.157285
0.0614725
-0.153454
-0.149902
0.0682395
0.00379894
-0.0520473
0.0105007
-0.130795
0.0175637
-0.166739
0.024273
-0.176454
0.0306292
-0.175632
0.0367597
-0.171751
0.0427505
-0.167373
0.048647
-0.163182
0.0544861
-0.159293
-0.155745
0.0603285
0.0037316
-0.0557789
0.00984721
-0.13691
0.0159867
-0.172879
0.0216444
-0.182111
0.0269318
-0.180919
0.0320164
-0.176836
0.0369919
-0.172348
0.0419014
-0.168091
0.0467738
-0.164165
-0.160623
0.0516526
0.00358489
-0.0593638
0.00899103
-0.142317
0.0141001
-0.177988
0.0186161
-0.186627
0.0227555
-0.185059
0.0267182
-0.180798
0.0306009
-0.176231
0.0344435
-0.171934
0.0382699
-0.167991
-0.164453
0.0420996
0.00334767
-0.0627115
0.00792563
-0.146895
0.0119076
-0.18197
0.0152045
-0.189924
0.0181348
-0.187989
0.0209179
-0.183581
0.0236478
-0.178961
0.0263585
-0.174644
0.0290669
-0.1707
-0.16716
0.0317735
0.00301362
-0.0657251
0.00665409
-0.150535
0.0094162
-0.184732
0.0114421
-0.19195
0.0131227
-0.189669
0.0146848
-0.185143
0.0162182
-0.180494
0.0177498
-0.176176
0.0192911
-0.172241
-0.168697
0.0208288
0.00258361
-0.0683087
0.0051776
-0.153129
0.00666086
-0.186215
0.00740209
-0.192691
0.00780712
-0.190075
0.00812898
-0.185465
0.00843816
-0.180804
0.00875401
-0.176492
0.00909045
-0.172577
0.00942873
-0.169036
0.00265269
-0.00564058
0.00298789
0.0111761
-0.0166819
0.00815848
0.0230442
-0.0227414
0.0108733
0.0361478
-0.0249199
0.0118163
0.0494368
-0.025213
0.011924
0.062508
-0.0247956
0.0117244
0.0752398
-0.0241708
0.011439
0.0876129
-0.0235181
0.011145
0.0996381
-0.02289
0.0108649
-0.0224457
0.11147
0.0106139
0.00269076
-0.00833134
0.0112188
-0.0252099
0.0230422
-0.0345648
0.0360698
-0.0379475
0.0492699
-0.038413
0.0622505
-0.0377762
0.0748959
-0.0368163
0.0871894
-0.0358116
0.0991446
-0.0348452
-0.0342145
0.110913
0.00274784
-0.0110792
0.0112889
-0.0337509
0.0230552
-0.0463312
0.0359807
-0.0508731
0.0490591
-0.0514914
0.0619142
-0.0506313
0.0744382
-0.0493404
0.0866178
-0.0479911
0.0984709
-0.0466982
-0.0458877
0.110144
0.00282674
-0.0139059
0.0113881
-0.0423123
0.0230796
-0.0580227
0.0358692
-0.0636627
0.048785
-0.0644072
0.0614723
-0.0633185
0.0738333
-0.0617014
0.0858591
-0.0600169
0.0975729
-0.058412
-0.0574269
0.109112
0.00292874
-0.0168347
0.0115142
-0.0508977
0.0231061
-0.0696146
0.0357176
-0.0762742
0.048422
-0.0771117
0.0608918
-0.0757883
0.073042
-0.0738515
0.0848688
-0.0718437
0.0964013
-0.0699445
-0.0687853
0.10776
0.00305183
-0.0198865
0.0116575
-0.0595033
0.0231153
-0.0810724
0.035497
-0.0886559
0.0479331
-0.0895478
0.0601292
-0.0879845
0.0720158
-0.0857381
0.0835947
-0.0834227
0.0948994
-0.0812492
-0.0799047
0.106019
0.0031893
-0.0230758
0.0117983
-0.0681123
0.0230746
-0.0923487
0.035164
-0.100745
0.0472659
-0.10165
0.059126
-0.0998446
0.0706932
-0.0973053
0.0819765
-0.0947059
0.0930086
-0.0922813
-0.090711
0.103815
0.00332815
-0.0264039
0.0119039
-0.0766881
0.0229333
-0.103378
0.0346522
-0.112464
0.0463412
-0.113339
0.0577926
-0.111296
0.0689776
-0.10849
0.0799145
-0.105643
0.0906267
-0.102993
-0.101088
0.101004
0.00344655
-0.0298505
0.0119223
-0.0851638
0.0226085
-0.114064
0.0338465
-0.123702
0.0450069
-0.124499
0.0559336
-0.122223
0.066624
-0.119181
0.0771069
-0.116126
0.0873806
-0.113267
-0.110779
0.0970714
0.00353048
0.0118227
0.0220505
0.0326667
0.0431269
0.0533169
0.063254
0.0729851
0.0824914
0.0911608
0.158293
-0.132485
0.0856627
0.182674
-0.0961156
0.071734
0.194771
-0.0714427
0.0593457
0.200527
-0.053817
0.0480612
0.202965
-0.0404191
0.0379813
0.203553
-0.0298038
0.0292152
0.203061
-0.0212151
0.0217076
0.201902
-0.0141089
0.015268
0.200311
-0.0082109
0.00980125
-0.00174625
0.0037139
0.157254
-0.178827
0.181688
-0.120549
0.194028
-0.0837827
0.200029
-0.0598176
0.202667
-0.0430568
0.203419
-0.030556
0.203067
-0.020863
0.202036
-0.0130782
0.200569
-0.00674402
9.61204e-05
0.155479
-0.224161
0.179824
-0.144895
0.192441
-0.0964001
0.198783
-0.0661593
0.201736
-0.0460095
0.202775
-0.0315955
0.202692
-0.0207796
0.201921
-0.0123071
0.20071
-0.00553352
0.00167843
0.15293
-0.267979
0.177066
-0.169031
0.190007
-0.109341
0.196791
-0.0729424
0.200175
-0.0493935
0.201625
-0.0330455
0.201937
-0.021092
0.201555
-0.0119249
0.200732
-0.00471098
0.00286675
0.149569
-0.309788
0.173408
-0.19287
0.186729
-0.122663
0.194057
-0.0802703
0.19799
-0.0533267
0.199973
-0.0350283
0.200806
-0.021925
0.20094
-0.0120591
0.200635
-0.00440582
0.00352884
0.145317
-0.349086
0.168837
-0.21639
0.182614
-0.136439
0.190593
-0.0882496
0.195194
-0.0579274
0.19783
-0.0376645
0.199306
-0.0234009
0.20008
-0.0128335
0.200419
-0.0047445
0.00353495
0.139957
-0.385228
0.163317
-0.239751
0.177663
-0.150785
0.18641
-0.0969961
0.191797
-0.0633153
0.195206
-0.0410728
0.197443
-0.0256385
0.198978
-0.0143685
0.200084
-0.00584966
0.00275871
0.13359
-0.417814
0.156751
-0.262912
0.171849
-0.165883
0.181512
-0.106659
0.187815
-0.0696179
0.192114
-0.0453721
0.195229
-0.0287537
0.197641
-0.0167799
0.199631
-0.0078395
0.00107799
0.125876
-0.446619
0.148792
-0.285828
0.164976
-0.182068
0.175824
-0.117507
0.183225
-0.077019
0.188556
-0.0507027
0.19267
-0.0328682
0.196073
-0.0201825
0.199062
-0.0108283
-0.00162472
0.117512
-0.47297
0.140273
-0.308589
0.157493
-0.199287
0.16953
-0.129545
0.178109
-0.0855972
0.18457
-0.0571641
0.189787
-0.0380849
0.194285
-0.0246805
0.198379
-0.014923
-0.00546194
0.362135
-0.419779
-0.415326
0.334875
-0.281328
0.322407
-0.18682
0.316812
-0.123951
0.313915
-0.0826996
0.312133
-0.0553825
0.310918
-0.0368701
0.310084
-0.0238459
0.309547
-0.0143862
-0.0052527
0.375574
-0.359556
-0.435797
0.345914
-0.251669
0.330716
-0.171622
0.322592
-0.115827
0.317827
-0.0779341
0.3148
-0.0523555
0.312791
-0.0348616
0.311467
-0.0225218
0.31065
-0.0135689
-0.00494736
0.389444
-0.3015
-0.4475
0.357061
-0.219285
0.338715
-0.153276
0.328053
-0.105165
0.321521
-0.071402
0.317327
-0.0481609
0.314569
-0.0321037
0.31278
-0.0207325
0.311693
-0.0124819
-0.00454749
0.399132
-0.247024
-0.453608
0.365837
-0.185991
0.345488
-0.132927
0.332881
-0.0925582
0.324866
-0.0633866
0.319643
-0.0429379
0.316206
-0.0286674
0.313989
-0.0185156
0.312652
-0.011144
-0.00405852
0.406131
-0.196652
-0.456504
0.37281
-0.152669
0.351131
-0.111248
0.337033
-0.0784599
0.327799
-0.0541534
0.321698
-0.0368359
0.317667
-0.0246371
0.315071
-0.015919
0.313507
-0.00958087
-0.00348863
0.411079
-0.150257
-0.457474
0.3782
-0.11979
0.355683
-0.0887309
0.340477
-0.063254
0.330277
-0.0439536
0.323451
-0.03001
0.318921
-0.0201065
0.316
-0.0129983
0.314243
-0.00782332
-0.00284812
0.414461
-0.107294
-0.457424
0.382209
-0.0875379
0.359197
-0.0657189
0.3432
-0.0472573
0.332266
-0.0330195
0.324872
-0.0226158
0.319941
-0.0151755
0.316758
-0.00981525
0.314841
-0.00590646
-0.00214898
0.416534
-0.0668746
-0.456953
0.384907
-0.055911
0.361645
-0.0424571
0.345131
-0.0307435
0.333685
-0.0215737
0.325882
-0.014813
0.320659
-0.00995171
0.317282
-0.00643848
0.315246
-0.00387039
-0.00140537
0.41494
-0.026991
-0.454824
0.383985
-0.0249559
0.360889
-0.0193609
0.344283
-0.0141374
0.332668
-0.00995927
0.324708
-0.00685287
0.319365
-0.00460892
0.31591
-0.00298361
0.313828
-0.00178836
-0.000644459
0.356195
-0.383186
0.331239
0.311878
0.29774
0.287781
0.280928
0.276319
0.273336
0.271547
0.448559
0.00871485
-0.447845
0.448509
0.020879
0.447663
0.0326191
0.445959
0.0438036
0.443276
0.0543358
0.439761
0.0638442
0.434477
0.0735227
0.42986
0.0792369
0.419111
0.0927925
0.0875479
0.430417
0.00805615
-0.429758
0.431295
0.0200005
0.432309
0.0316048
0.43341
0.0427033
0.434446
0.0532993
0.435539
0.0627516
0.436117
0.0729443
0.437137
0.0782175
0.437899
0.0920304
0.0896493
0.415499
0.00715683
-0.414599
0.417105
0.0183941
0.419363
0.0293469
0.422233
0.039833
0.425639
0.0498937
0.429523
0.0588677
0.433921
0.0685457
0.438132
0.0740065
0.443879
0.0862837
0.0860281
0.403857
0.00615826
-0.402859
0.405904
0.0163474
0.408963
0.0262875
0.412987
0.0358095
0.417941
0.044939
0.423666
0.0531433
0.430439
0.0617726
0.437222
0.067223
0.446095
0.0774114
0.0785151
0.394742
0.005085
-0.393668
0.397104
0.0139852
0.40072
0.022671
0.40554
0.0309894
0.411546
0.0389334
0.418568
0.0461212
0.42689
0.0534512
0.435611
0.0585018
0.446388
0.066634
0.0683993
0.387781
0.00395198
-0.386648
0.390365
0.0114011
0.394367
0.0186688
0.399735
0.0256212
0.406446
0.0322229
0.414354
0.0382134
0.423659
0.0441458
0.433687
0.0484741
0.445618
0.0547026
0.0565439
0.382666
0.00276439
-0.381478
0.385416
0.00865109
0.389694
0.014391
0.395443
0.0198719
0.402624
0.0250416
0.411115
0.0297229
0.421028
0.0342329
0.431889
0.0376128
0.444498
0.0420936
0.0436175
0.378924
0.00148372
-0.377644
0.381845
0.00573004
0.386373
0.00986333
0.39244
0.0138044
0.399981
0.0175007
0.408877
0.0208272
0.419153
0.0239571
0.430495
0.0262708
0.443411
0.0291768
0.0300758
0.371023
9.28355e-05
-0.369632
0.374341
0.00241234
0.379426
0.00477785
0.386194
0.00703641
0.394528
0.00916721
0.404256
0.0110985
0.415313
0.0129
0.427373
0.014211
0.440705
0.0158451
0.0159571
0.28978
-0.289687
0.292192
0.29697
0.304007
0.313174
0.324272
0.337172
0.351383
0.367228
0.0795232
0.124494
-0.113242
-0.0907747
0.0692613
0.126838
-0.116577
0.0595592
0.129746
-0.120044
0.050057
0.133211
-0.123709
0.0405145
0.137062
-0.127519
0.0308238
0.141133
-0.131442
0.0210204
0.144623
-0.13482
0.0115042
0.143562
-0.134046
0.00359757
0.124946
-0.117039
0.0635265
-0.059929
0.0766884
0.133929
-0.0861233
0.0671181
0.136409
0.0575937
0.13927
0.0481444
0.14266
0.0387074
0.146499
0.0292286
0.150611
0.019754
0.154098
0.0106784
0.152638
0.00326547
0.132359
0.066792
0.0689117
0.141811
-0.0767946
0.0606722
0.144648
0.0522413
0.147701
0.0436969
0.151205
0.0350563
0.155139
0.0263229
0.159345
0.017589
0.162832
0.00929619
0.16093
0.00269332
0.138961
0.0694853
0.059374
0.148433
-0.065996
0.0524391
0.151583
0.0452379
0.154902
0.0378254
0.158617
0.0302376
0.162727
0.0225078
0.167075
0.0147694
0.17057
0.00751258
0.168187
0.00196408
0.14451
0.0714494
0.0499063
0.154126
-0.0555991
0.0440039
0.157486
0.0378731
0.161033
0.0315371
0.164953
0.0250198
0.169244
0.0183603
0.173734
0.0117165
0.177214
0.00560657
0.174297
0.00120686
0.14891
0.0726563
0.0406605
0.159019
-0.0455537
0.0356466
0.162499
0.0304769
0.166203
0.0251543
0.170276
0.0196873
0.174711
0.014114
0.179307
0.00860786
0.18272
0.00369829
0.179207
0.000436404
0.152172
0.0730927
0.031264
0.163061
-0.0353051
0.0271648
0.166599
0.0229686
0.170399
0.0186685
0.174576
0.0142664
0.179114
0.0098053
0.183769
0.00546065
0.187065
0.00180694
0.182861
-0.000290602
0.154269
0.0728021
0.021519
0.166123
-0.0245818
0.0184301
0.169688
0.0152749
0.173554
0.0120469
0.177804
0.00874405
0.182416
0.00541831
0.187094
0.00228954
0.190193
-0.000241099
0.185391
-0.000908729
0.154937
0.0718933
0.0114578
0.168116
-0.0134503
0.00945712
0.171688
0.00741173
0.1756
0.00532667
0.179889
0.00320352
0.18454
0.00107445
0.189223
-0.000830856
0.192099
-0.00185327
0.186414
-0.00151535
0.154599
0.070378
0.00132806
-0.00224783
0.00043892
-0.000453203
-0.0013679
-0.00229363
-0.00314482
-0.00373754
-0.00353903
-0.00206928
0.107213
0.0221378
-0.118511
-0.0108396
0.0955475
0.0227412
-0.0110755
0.0835366
0.0233407
-0.0113298
0.0711705
0.0239706
-0.0116045
0.058432
0.0246427
-0.0119042
0.0453016
0.0253594
-0.0122289
0.031808
0.0260353
-0.0125417
0.018302
0.0260935
-0.0125875
0.00633101
0.0233133
-0.0113423
0.0126428
-0.00631175
0.106328
0.0333982
-0.117588
0.0947182
0.034351
0.082776
0.0352829
0.0704908
0.0362558
0.0578448
0.0372886
0.044818
0.0383862
0.0314397
0.0394136
0.0180629
0.0394703
0.00623026
0.035146
0.018873
0.10506
0.0445976
-0.116259
0.0935398
0.0458709
0.0817027
0.04712
0.0695373
0.0484213
0.0570249
0.049801
0.0441453
0.0512658
0.0309292
0.0526297
0.017732
0.0526675
0.00608899
0.046789
0.024962
0.10332
0.0556972
-0.11442
0.091934
0.0572569
0.0802491
0.0588049
0.0682529
0.0604175
0.0559262
0.0621277
0.0432485
0.0639435
0.0302536
0.0656247
0.0173025
0.0656185
0.0059132
0.0581783
0.0308752
0.101008
0.0666496
-0.11196
0.0898122
0.0684525
0.0783403
0.0702767
0.066577
0.0721808
0.0545008
0.074204
0.0420906
0.0763537
0.0293837
0.0783316
0.0167507
0.0782515
0.00569718
0.0692318
0.0365724
0.0980185
0.0774007
-0.10877
0.0870792
0.0793917
0.0758917
0.0814643
0.0644362
0.0836362
0.0526875
0.0859527
0.0406225
0.0884187
0.0282816
0.0906725
0.0160439
0.0904892
0.005402
0.0798737
0.0419744
0.0942343
0.0878468
-0.10468
0.0836856
0.0899405
0.0729134
0.0922364
0.0618795
0.0946702
0.050552
0.0972803
0.0389105
0.10006
0.0270056
0.102577
0.0152324
0.102262
0.00506932
0.0900368
0.0470437
0.0891351
0.097805
-0.0990932
0.0791376
0.099938
0.0689557
0.102418
0.0585243
0.105102
0.0477954
0.108009
0.036743
0.111113
0.0254231
0.113897
0.0142444
0.113441
0.00466775
0.0996135
0.0517114
0.0847191
0.10677
-0.093684
0.0755632
0.109094
0.0659452
0.112036
0.0559366
0.11511
0.0455963
0.118349
0.0349477
0.121761
0.0240707
0.124774
0.0133884
0.124123
0.00432935
0.108673
0.0560408
0.0751619
-0.0816343
0.0676792
0.0596719
0.051073
0.0419035
0.0322226
0.0221771
0.0122547
0.00388815
0.2012
0.0146446
-0.0178551
0.203555
0.0236657
-0.0260209
0.203583
0.0286982
-0.0287255
0.204427
0.0306687
-0.0315134
0.203937
0.0367364
-0.0362464
0.201696
0.0451685
-0.0429267
0.196343
0.0567805
-0.0514282
0.185633
0.0724529
-0.0617428
0.16221
0.0967368
-0.0733138
0.130771
-0.0870722
0.201007
0.0116276
0.203237
0.0214354
0.203209
0.0287266
0.203975
0.029903
0.203372
0.0373388
0.200971
0.0475696
0.195414
0.0623378
0.184417
0.08345
0.160928
0.120225
0.174111
0.200685
0.00893274
0.202632
0.0194882
0.202454
0.0289041
0.203011
0.0293461
0.202164
0.0381864
0.199479
0.0502538
0.193612
0.068205
0.18224
0.0948218
0.158735
0.14373
0.216587
0.200229
0.00669365
0.201744
0.0179734
0.20133
0.0293175
0.201547
0.0291295
0.200322
0.039411
0.197231
0.0533453
0.190937
0.074499
0.179089
0.10667
0.155453
0.167366
0.257621
0.199632
0.00505108
0.200578
0.0170274
0.199852
0.0300443
0.199593
0.0293875
0.197862
0.0411423
0.194238
0.0569692
0.187388
0.0813494
0.174951
0.119107
0.151003
0.191314
0.296664
0.198886
0.00415478
0.199143
0.0167705
0.198036
0.0311516
0.197164
0.0302599
0.1948
0.0435056
0.190518
0.0612513
0.182969
0.0888988
0.169828
0.132248
0.146001
0.21514
0.333895
0.19798
0.00416487
0.197448
0.0173025
0.195903
0.0326958
0.194271
0.0318927
0.191157
0.0466192
0.186088
0.0663201
0.177688
0.097299
0.163696
0.146239
0.140807
0.238029
0.370022
0.196902
0.00525252
0.195506
0.018699
0.193477
0.0347247
0.190929
0.0344404
0.186958
0.0505903
0.180974
0.0723041
0.17161
0.106663
0.156573
0.161276
0.134861
0.259742
0.405789
0.195648
0.00759428
0.19334
0.0210067
0.19078
0.0372849
0.187154
0.038067
0.182231
0.0555127
0.175223
0.0793122
0.164896
0.11699
0.149247
0.176925
0.129184
0.279805
0.441289
0.194328
0.0112561
0.190972
0.0243624
0.187868
0.0403891
0.182948
0.042987
0.177061
0.0613997
0.168909
0.0874646
0.157134
0.128765
0.139843
0.194216
0.118176
0.301472
0.477831
0.30293
0.0103367
0.30491
0.0223815
0.30841
0.03689
0.3098
0.0415967
0.312031
0.059169
0.314708
0.0847875
0.319173
0.1243
0.328546
0.184843
0.35377
0.276248
0.418929
0.412673
0.303708
0.00863882
0.306015
0.020075
0.309839
0.0330655
0.312244
0.0391921
0.315712
0.0557012
0.3205
0.0799987
0.328282
0.116518
0.342429
0.170695
0.372321
0.246355
0.361266
0.429984
0.304413
0.00623591
0.307217
0.0172715
0.311268
0.0290143
0.314587
0.0358731
0.319182
0.0511063
0.325761
0.0734196
0.336143
0.106137
0.353545
0.153293
0.385681
0.214219
0.304718
0.442229
0.305103
0.0031428
0.308388
0.0139863
0.312669
0.0247334
0.316761
0.0317818
0.322377
0.0454904
0.33048
0.0653159
0.342906
0.0937115
0.36262
0.133579
0.395429
0.18141
0.250942
0.449205
0.305817
-0.000664184
0.309536
0.0102673
0.314004
0.0202661
0.318723
0.0270627
0.325218
0.0389948
0.334578
0.0559559
0.348564
0.0797261
0.36984
0.112302
0.402369
0.148882
0.200641
0.45267
0.30659
-0.00524389
0.310676
0.00618079
0.315238
0.0157042
0.320434
0.0218669
0.32765
0.0317786
0.338008
0.0455985
0.35315
0.0645835
0.375413
0.0900391
0.407235
0.11706
0.153911
0.453964
0.307476
-0.0107093
0.311827
0.00182923
0.316344
0.0111873
0.321859
0.0163517
0.329632
0.0240062
0.340745
0.0344851
0.356715
0.0486137
0.379548
0.0672063
0.41056
0.0860484
0.110397
0.454073
0.308545
-0.0172441
0.313009
-0.00263452
0.317259
0.00693667
0.32293
0.0106807
0.3311
0.0158369
0.34275
0.0228349
0.359283
0.0320807
0.382409
0.0440805
0.412685
0.0557716
0.0695188
0.453564
0.308479
-0.0237126
0.312557
-0.00671331
0.316389
0.00310509
0.322096
0.00497394
0.330507
0.00742595
0.3425
0.0108414
0.359391
0.0151899
0.382636
0.0208352
0.412393
0.0260146
0.0316688
0.450243
0.278298
0.271584
0.274689
0.279663
0.287089
0.297931
0.313121
0.333956
0.35997
0.391639
0.424589
-0.102691
0.427367
-0.0889019
0.429399
-0.0788263
0.432293
-0.0688899
0.435696
-0.0590022
0.439091
-0.0489485
0.442162
-0.0383761
0.44471
-0.0271297
0.446607
-0.0153477
-0.00348607
0.429638
-0.102345
0.42934
-0.0886032
0.428809
-0.0782955
0.428767
-0.0688476
0.428876
-0.0591119
0.428904
-0.0489761
0.428887
-0.0383589
0.428968
-0.0272113
0.42928
-0.01566
-0.00396372
0.435928
-0.0960442
0.431283
-0.0839576
0.42705
-0.074063
0.423347
-0.0651444
0.420303
-0.0560673
0.417869
-0.0465425
0.416059
-0.0365483
0.414921
-0.0260734
0.414457
-0.0151966
-0.0041058
0.439138
-0.0859771
0.43112
-0.0759397
0.424227
-0.0671701
0.418256
-0.0591732
0.413251
-0.0510618
0.409201
-0.0424926
0.406106
-0.0334538
0.404
-0.0239676
0.402912
-0.0141079
-0.00405269
0.440391
-0.0736983
0.430148
-0.0656967
0.421366
-0.0583882
0.413775
-0.0515813
0.407358
-0.0446453
0.402138
-0.0372723
0.398133
-0.0294487
0.395373
-0.0212083
0.393888
-0.0126228
-0.00383287
0.440393
-0.0601272
0.428731
-0.0540344
0.418658
-0.0483157
0.409957
-0.0428801
0.402588
-0.0372765
0.396577
-0.0312606
0.39195
-0.0248222
0.38874
-0.0179986
0.386973
-0.0108552
-0.003508
0.439749
-0.0458034
0.427215
-0.0415
0.416318
-0.0374191
0.406898
-0.0334596
0.398907
-0.0292851
0.392371
-0.0247248
0.387328
-0.0197789
0.383814
-0.0144848
0.381861
-0.00890262
-0.00312489
0.43876
-0.0309994
0.425692
-0.0284319
0.41431
-0.0260371
0.404447
-0.0235971
0.396053
-0.0208913
0.389165
-0.017837
0.383835
-0.0144486
0.380112
-0.0107615
0.378037
-0.00682757
-0.00273173
0.434627
-0.0153831
0.421021
-0.0148261
0.409117
-0.0141329
0.398699
-0.0131787
0.389734
-0.0119267
0.382294
-0.0103973
0.376478
-0.00863187
0.372383
-0.00666692
0.370091
-0.00453512
-0.00227313
0.376256
0.36143
0.347297
0.334118
0.322192
0.311794
0.303162
0.296496
0.29196
0.00702959
0.0827787
-0.0898083
0.0130094
0.188272
-0.194252
0.0154297
0.229699
-0.232119
0.0158125
0.23858
-0.238963
0.0154432
0.236717
-0.236348
0.0149736
0.232661
-0.232191
0.0145682
0.228744
-0.228339
0.0141973
0.225239
-0.224868
0.0137124
0.221377
-0.220892
0.213874
0.0127758
-0.212937
0.0085295
0.0742492
0.0180222
0.178779
0.0244937
0.223227
0.0287955
0.234278
0.0323169
0.233196
0.0357997
0.229178
0.0394981
0.225046
0.0433948
0.221343
0.0471077
0.217664
0.211849
0.0491328
0.00913749
0.0651117
0.021278
0.166639
0.0313342
0.213171
0.0393928
0.22622
0.0466217
0.225967
0.0538146
0.221985
0.0613175
0.217543
0.0691998
0.21346
0.0771782
0.209686
0.205334
0.0836924
0.00887595
0.0562358
0.0225709
0.152944
0.0353997
0.200342
0.0466731
0.214946
0.0571557
0.215484
0.0675591
0.211582
0.0782699
0.206832
0.0894466
0.202284
0.101039
0.198093
0.194025
0.112349
0.00796474
0.048271
0.0220965
0.138812
0.0367037
0.185735
0.0503856
0.201264
0.063411
0.202459
0.0762924
0.1987
0.0893813
0.193743
0.102869
0.188796
0.116841
0.184121
0.179517
0.131349
0.00672834
0.0415427
0.0204017
0.125139
0.0357909
0.170346
0.0509566
0.186099
0.0656642
0.187751
0.0801567
0.184208
0.0946836
0.179216
0.109411
0.174068
0.124454
0.169078
0.163867
0.140105
0.00548846
0.0360542
0.0181996
0.112428
0.0335881
0.154957
0.0493916
0.170295
0.0649537
0.172189
0.0802459
0.168916
0.0953855
0.164076
0.110483
0.158971
0.125602
0.153959
0.148458
0.14101
0.0044603
0.0315939
0.0160838
0.100804
0.030995
0.140046
0.0467929
0.154497
0.0625272
0.156455
0.0779482
0.153495
0.0930501
0.148975
0.107882
0.144139
0.122524
0.139317
0.134005
0.136978
0.00373958
0.0278544
0.0144227
0.090121
0.028699
0.12577
0.044158
0.139038
0.0596927
0.14092
0.0749226
0.138265
0.0897703
0.134127
0.104269
0.12964
0.118496
0.12509
0.119563
0.132938
0.00328616
0.0245682
0.0132511
0.0801561
0.0268833
0.112138
0.0418103
0.124111
0.0568431
0.125888
0.0714994
0.123608
0.085594
0.120032
0.0990273
0.116206
0.111614
0.112503
0.108043
0.123134
0.00305075
0.0215175
0.0125618
0.070645
0.0257189
0.0989807
0.0402229
0.109607
0.0549013
0.111209
0.0692866
0.109223
0.08324
0.106079
0.0967635
0.102683
0.109908
0.0993583
0.0965406
0.121411
0.00293351
0.0185839
0.0121664
0.0614121
0.0249865
0.0861606
0.0391549
0.0954389
0.0535256
0.0968385
0.0676378
0.0951108
0.0813439
0.0923728
0.094614
0.0894128
0.107473
0.0864997
0.0846014
0.119412
0.0028512
0.0157327
0.0118802
0.0523831
0.0244289
0.0736119
0.0382952
0.0815727
0.0523524
0.0827812
0.0661457
0.0813176
0.079523
0.0789954
0.0924465
0.0764893
0.104923
0.0740231
0.072616
0.116909
0.0027821
0.0129506
0.0116543
0.0435109
0.023996
0.0612702
0.0376283
0.0679403
0.0514423
0.0689673
0.0649932
0.0677666
0.0781335
0.0658552
0.0908262
0.0637966
0.103076
0.0617734
0.0606917
0.115
0.00272515
0.0102255
0.0114803
0.0347557
0.0236764
0.0490741
0.0371493
0.0544675
0.0508026
0.055314
0.0642015
0.0543677
0.0772045
0.0528522
0.0897793
0.0512217
0.101933
0.0496194
0.0487981
0.113827
0.0026804
0.00754509
0.0113499
0.0260862
0.0234462
0.0369779
0.0368145
0.0410991
0.0503671
0.0417614
0.0636758
0.041059
0.0766039
0.0399241
0.0891232
0.0387025
0.101242
0.0375003
0.0369123
0.113128
0.00264845
0.00489664
0.011257
0.0174776
0.0232846
0.0249503
0.0365837
0.0278
0.0500721
0.028273
0.063326
0.0278051
0.076212
0.0270381
0.0887041
0.0262103
0.100811
0.0253936
0.0250261
0.112697
0.00262968
0.00226695
0.011197
0.00891027
0.0231754
0.0129719
0.0364246
0.0145508
0.0498673
0.0148303
0.063083
0.0145895
0.0759407
0.0141803
0.0884161
0.013735
0.100517
0.0132925
0.0131376
0.112406
0.00262409
-0.000357137
0.0111653
0.000369042
0.0231052
0.00103196
0.0363116
0.00134446
0.0497128
0.00142914
0.0628923
0.00140998
0.0757215
0.00135112
0.0881773
0.00127913
0.100268
0.00120202
0.00125499
0.11215
0.00263075
0.0111583
0.0230635
0.0362243
0.0495774
0.0627118
0.0755019
0.087926
0.0999929
0.111862
0.137631
0.257655
-0.273876
0.149989
0.113613
-0.125971
0.15948
0.0390298
-0.0485215
0.166747
0.0056088
-0.0128759
0.172795
-0.00760254
0.00155449
0.178159
-0.0116082
0.00624455
0.18307
-0.0116497
0.00673908
0.18763
-0.010101
0.00554049
0.191881
-0.00805552
0.00380473
-0.00534021
0.00147273
0.141736
0.235331
0.1565
0.0988494
0.166238
0.0292919
0.173094
-0.00124725
0.178327
-0.0128355
0.182713
-0.0159948
0.186563
-0.0154991
0.190017
-0.0135552
0.193146
-0.0111848
-0.00809273
0.145109
0.20713
0.162085
0.081874
0.172196
0.0191808
0.178705
-0.00775672
0.183311
-0.0174408
0.186852
-0.0195356
0.189754
-0.0184012
0.192212
-0.0160134
0.194329
-0.0133019
-0.00983646
0.14827
0.17386
0.167071
0.0630734
0.177547
0.00870483
0.183773
-0.0139831
0.187781
-0.0214481
0.190569
-0.022324
0.192631
-0.0204631
0.194206
-0.0175887
0.195425
-0.0145205
-0.010683
0.151424
0.136263
0.171473
0.043024
0.182237
-0.00205958
0.188218
-0.0199642
0.191714
-0.0249439
0.193851
-0.0244602
0.195183
-0.021796
0.195992
-0.0183972
0.19643
-0.0149582
-0.0107485
0.153922
0.0954691
0.175215
0.0217315
0.186238
-0.0130824
0.192018
-0.0257446
0.195089
-0.0280144
0.196678
-0.0260499
0.197398
-0.0225159
0.197561
-0.0185595
0.197339
-0.0147365
-0.0101539
0.155908
0.052258
0.178261
-0.000621439
0.189513
-0.0243341
0.195145
-0.031377
0.197883
-0.0307525
0.199037
-0.0272038
0.199264
-0.0227426
0.198904
-0.0181996
0.198148
-0.0139807
-0.00902375
0.157392
0.00727178
0.180563
-0.0237924
0.192028
-0.0357997
0.197576
-0.0369243
0.20008
-0.0332568
0.200913
-0.0280368
0.20077
-0.0225994
0.200015
-0.0174446
0.198853
-0.0128189
-0.00748618
0.158315
-0.0388928
0.182088
-0.0475655
0.193757
-0.0474689
0.199292
-0.0424589
0.201666
-0.0356306
0.202296
-0.028667
0.201909
-0.0222119
0.200888
-0.0164238
0.199451
-0.0113816
-0.00567195
0.158632
0.1828
0.194677
0.200279
0.20263
0.203178
0.202674
0.201518
0.199938
0.167622
0.0224379
-0.19006
0.152569
0.0150524
0.145619
0.00695048
0.143533
0.00208546
0.143666
-0.000133042
0.144584
-0.000917091
0.145599
-0.00101564
0.14644
-0.000840925
0.147011
-0.00057059
-0.000215159
0.23683
0.0901837
-0.304576
0.207335
0.044548
0.195772
0.0185126
0.192305
0.00555328
0.192216
-4.4456e-05
0.193319
-0.0020197
0.194631
-0.00232838
0.195744
-0.00195361
0.196518
-0.00134476
-0.000516581
0.240715
0.157105
-0.307637
0.21099
0.0742728
0.199502
0.0300008
0.196217
0.00883821
0.196287
-0.000114368
0.197489
-0.00322213
0.198871
-0.00370967
0.200029
-0.0031125
0.200836
-0.00215086
-0.000831591
0.235447
0.218734
-0.297076
0.208392
0.101328
0.19834
0.0400523
0.195839
0.0113396
0.196281
-0.000556284
0.197677
-0.00461767
0.19914
-0.00517292
0.200333
-0.00430615
0.201153
-0.00297048
-0.00115029
0.229646
-0.284787
0.205003
0.196533
0.194997
0.195995
0.197622
0.199188
0.200423
0.201257
0.0174153
-0.000247803
-0.0171675
0.0200816
-0.00266633
0.0254334
-0.00535185
0.03424
-0.00880653
0.0477813
-0.0135414
0.0669627
-0.0191814
0.0928094
-0.0258467
0.122337
-0.029528
0.158137
-0.0357995
-0.0319227
0.0486893
-0.00164338
-0.0472937
0.0566325
-0.0106096
0.071773
-0.0204924
0.0948791
-0.0319126
0.125781
-0.0444436
0.162539
-0.0559388
0.202113
-0.0654208
0.239418
-0.0668335
0.275394
-0.0717752
-0.0611047
0.0736694
-0.00437618
-0.0709366
0.0853175
-0.0222577
0.106005
-0.0411802
0.134727
-0.060634
0.168373
-0.0780902
0.20262
-0.090186
0.233674
-0.0964738
0.260629
-0.0937888
0.285808
-0.0969546
-0.0829329
0.091281
-0.0082115
-0.0874457
0.104595
-0.0355713
0.126437
-0.0630229
0.153925
-0.0881214
0.182805
-0.106971
0.209844
-0.117225
0.233519
-0.120149
0.256208
-0.116477
0.277388
-0.118135
-0.10262
0.102392
-0.097828
0.115954
0.136623
0.16085
0.185229
0.208109
0.22897
0.24947
0.264273
0.0980229
-0.0900509
0.0984156
-0.106388
0.0887881
-0.0926521
0.101887
0.0789988
-0.0959315
0.105721
0.0683863
-0.0992655
0.109878
0.0568997
-0.102653
0.11414
0.0445872
-0.106143
0.118456
0.0315782
-0.109357
0.122366
0.0183135
-0.10965
0.122914
0.00639753
-0.0972395
0.109156
-0.0513537
0.0577512
0.105187
-0.0796291
-0.115608
0.0944851
-0.0819505
0.0830745
-0.0845209
0.0710365
-0.0872274
0.0584723
-0.0900891
0.0454299
-0.0931009
0.0319682
-0.0958954
0.0184524
-0.096134
0.00642812
-0.0852152
-0.0449256
0.105294
-0.0684526
-0.11647
0.0939558
-0.0706125
0.0823045
-0.0728696
0.070283
-0.0752059
0.057843
-0.0776492
0.0449493
-0.0802071
0.0316271
-0.0825733
0.0182341
-0.0827409
0.00632327
-0.0733044
-0.0386023
0.106733
-0.0571551
-0.11803
0.0952142
-0.0590941
0.0833533
-0.0610087
0.0711127
-0.0629652
0.0584623
-0.0649988
0.0453804
-0.0671253
0.0319001
-0.069093
0.0183816
-0.0692225
0.00637894
-0.0613017
-0.0322233
0.1075
-0.0458308
-0.118824
0.095862
-0.0474564
0.0838688
-0.0490155
0.0715051
-0.0506015
0.0587509
-0.0522445
0.0455845
-0.0539589
0.0320343
-0.0555429
0.0184541
-0.0556423
0.00639589
-0.0492435
-0.0258274
0.107979
-0.0344971
-0.119312
0.0962948
-0.0357726
0.0842472
-0.0369679
0.0718247
-0.0381791
0.0590101
-0.0394299
0.0457834
-0.0407322
0.0321731
-0.0419326
0.0185304
-0.0419995
0.0064154
-0.0371285
-0.019412
0.108244
-0.0231534
-0.119588
0.0965304
-0.024059
0.0844511
-0.0248886
0.0719963
-0.0257243
0.0591498
-0.0265834
0.0458926
-0.0274749
0.0322528
-0.0282928
0.0185815
-0.0283282
0.00644106
-0.024988
-0.012971
0.108308
-0.0118075
-0.119654
0.0965814
-0.0123324
0.0844909
-0.0127981
0.0720271
-0.0132605
0.0591736
-0.0137299
0.0459112
-0.0142125
0.0322682
-0.0146499
0.0185947
-0.0146547
0.00644968
-0.012843
-0.00652129
0.108149
-0.000492736
-0.119464
0.0964326
-0.000616229
0.0843542
-0.000719805
0.0719048
-0.00081101
0.0590682
-0.000893323
0.0458254
-0.000969765
0.032205
-0.00102941
0.0185564
-0.00100615
0.00643535
-0.000721971
-8.5944e-05
0.10778
-0.119112
0.0960882
0.0840386
0.0716231
0.0588255
0.0456268
0.0320557
0.018462
0.00639769
0.020046
-0.209633
-0.0233498
0.0156719
-0.216518
0.0111611
-0.220358
0.00672683
-0.223904
0.00238864
-0.227853
-0.00178218
-0.232177
-0.00535554
-0.235389
-0.0068353
-0.230639
-0.00483284
-0.196254
-0.0946412
0.0516068
-0.203106
-0.0581343
0.0434982
-0.208409
0.0352466
-0.212106
0.0271965
-0.215854
0.0193642
-0.220021
0.0117632
-0.224576
0.00473548
-0.228362
-0.000804806
-0.225099
-0.00230869
-0.19475
-0.0969498
0.078298
-0.192647
-0.0887572
0.0668903
-0.197002
0.0556285
-0.200844
0.0447207
-0.204947
0.0341395
-0.20944
0.023857
-0.214294