/*--------------------------------*- C++ -*----------------------------------*\
  =========                 |
  \\      /  F ield         | OpenFOAM: The Open Source CFD Toolbox
   \\    /   O peration     | Website:  https://openfoam.org
    \\  /    A nd           | Version:  13
     \\/     M anipulation  |
\*---------------------------------------------------------------------------*/
FoamFile
{
    format      ascii;
    class       volVectorField;
    location    "0.18";
    object      U;
}
// * * * * * * * * * * * * * * * * * * * * * * * * * * * * * * * * * * * * * //

dimensions      [0 1 -1 0 0 0 0];

internalField   nonuniform List<vector> 
1800
(
(0.325489 -0.296916 1.25653e-19)
(0.927702 -0.795593 5.6366e-20)
(1.25702 -1.02403 -6.65883e-19)
(1.38378 -1.07413 5.56254e-19)
(1.41953 -1.04485 1.19221e-18)
(1.42327 -0.990309 4.8628e-19)
(1.41735 -0.93207 -2.4652e-19)
(1.4087 -0.876805 -6.26673e-19)
(1.39993 -0.823355 -3.28105e-19)
(1.3734 -0.776991 -2.66736e-19)
(0.383896 -0.298499 1.70144e-20)
(1.06603 -0.781513 -8.02169e-19)
(1.42567 -0.996902 6.68068e-21)
(1.5553 -1.04103 -4.32771e-19)
(1.58411 -1.00998 9.77722e-20)
(1.57885 -0.9554 1.13378e-18)
(1.56445 -0.897356 -8.10408e-19)
(1.5486 -0.841629 4.08641e-19)
(1.53329 -0.788207 6.73419e-19)
(1.51052 -0.746485 -3.44061e-19)
(0.445209 -0.293093 4.57254e-20)
(1.20455 -0.74872 2.30872e-19)
(1.59083 -0.94603 5.34387e-19)
(1.72128 -0.983537 -3.24802e-19)
(1.74233 -0.95202 -1.42274e-18)
(1.7278 -0.89957 3.07971e-19)
(1.70465 -0.844544 5.34769e-19)
(1.68086 -0.792261 -5.78421e-20)
(1.65834 -0.743028 -4.49155e-21)
(1.62955 -0.703219 -2.55403e-20)
(0.508443 -0.280002 -5.18577e-20)
(1.34017 -0.69686 -2.53687e-19)
(1.74855 -0.871632 -3.68107e-19)
(1.87773 -0.901999 5.50165e-20)
(1.89064 -0.870934 3.79713e-19)
(1.86722 -0.821798 2.97489e-20)
(1.83593 -0.77075 -2.18797e-20)
(1.80489 -0.722301 4.93494e-19)
(1.77573 -0.676767 4.11629e-19)
(1.74311 -0.640994 -1.42524e-19)
(0.572379 -0.258739 1.38362e-19)
(1.46958 -0.626426 3.15275e-19)
(1.89467 -0.77527 -6.71731e-20)
(2.02041 -0.798662 -7.50301e-20)
(2.02489 -0.769429 -1.12956e-18)
(1.99309 -0.725289 9.40754e-21)
(1.95442 -0.67991 8.57377e-19)
(1.91689 -0.637005 2.8208e-19)
(1.88197 -0.597031 1.43882e-20)
(1.84579 -0.565608 -1.8694e-19)
(0.635424 -0.228875 -6.47968e-20)
(1.5892 -0.538153 7.23915e-19)
(2.02513 -0.658683 1.33495e-18)
(2.14539 -0.675631 -8.67707e-19)
(2.14145 -0.649528 -8.20136e-19)
(2.10205 -0.611728 1.34171e-18)
(2.0569 -0.573202 -9.44545e-19)
(2.01375 -0.536871 -1.06114e-18)
(1.97386 -0.503213 7.51264e-19)
(1.93458 -0.477024 -1.96009e-20)
(0.695743 -0.190287 2.71361e-19)
(1.69548 -0.433503 -1.18495e-18)
(2.13623 -0.524472 -3.61379e-18)
(2.24927 -0.535955 1.39906e-18)
(2.23725 -0.514344 2.07539e-18)
(2.1913 -0.484167 -5.82157e-21)
(2.14085 -0.453608 -2.5813e-18)
(2.09317 -0.424837 9.32077e-21)
(2.04934 -0.398333 2.30938e-18)
(2.00758 -0.377955 6.03251e-19)
(0.751274 -0.143194 -1.13779e-19)
(1.78501 -0.314501 7.10253e-19)
(2.22466 -0.375749 2.77526e-18)
(2.32915 -0.383055 -4.26204e-20)
(2.30974 -0.36721 -1.33675e-18)
(2.25851 -0.345717 -4.09852e-19)
(2.20404 -0.323981 0)
(2.15301 -0.303515 9.0754e-19)
(2.1063 -0.284772 -5.6453e-21)
(2.06274 -0.270762 -7.45205e-19)
(0.799848 -0.088227 -1.28539e-20)
(1.85466 -0.183801 1.70844e-18)
(2.28776 -0.216237 2.38745e-18)
(2.38286 -0.220822 -2.02328e-18)
(2.35711 -0.211837 -1.38704e-18)
(2.30204 -0.199826 4.11737e-19)
(2.24494 -0.187525 -1.70601e-18)
(2.19179 -0.175879 -1.19683e-18)
(2.14332 -0.165286 1.38117e-18)
(2.09872 -0.15796 1.17026e-18)
(0.839343 -0.0264452 2.29636e-19)
(1.90197 -0.0447357 1.09932e-18)
(2.32367 -0.0501106 4.37132e-19)
(2.40904 -0.0533215 -2.88921e-18)
(2.37827 -0.0520781 1.56518e-20)
(2.32093 -0.0500056 3.92167e-18)
(2.26257 -0.0474751 -2.08644e-18)
(2.20851 -0.0449609 -1.12572e-18)
(2.15936 -0.0427112 3.87993e-19)
(2.11455 -0.0421736 -8.61532e-19)
(0.00368615 -0.0538907 1.25614e-19)
(0.0418696 -0.154023 1.29938e-19)
(0.105537 -0.206578 -1.96583e-21)
(0.17398 -0.223489 -6.1011e-21)
(0.240235 -0.223399 -1.45284e-21)
(0.301508 -0.217105 -2.46815e-20)
(0.357226 -0.209181 1.23826e-20)
(0.407716 -0.201229 -2.79811e-20)
(0.453423 -0.193701 1.8568e-21)
(0.49504 -0.187766 -4.84342e-21)
(0.0118572 -0.0866273 7.68688e-20)
(0.0667917 -0.256205 1.2774e-19)
(0.139295 -0.344913 -1.21098e-19)
(0.210151 -0.371649 -4.25909e-20)
(0.275891 -0.368658 -5.93749e-20)
(0.335676 -0.354909 -5.71378e-20)
(0.389688 -0.338486 1.57956e-20)
(0.438518 -0.322211 -2.2442e-20)
(0.482605 -0.306887 8.1751e-21)
(0.523305 -0.295524 -8.32125e-21)
(0.0252865 -0.118794 2.20487e-21)
(0.108163 -0.354854 2.93851e-19)
(0.195456 -0.477664 8.23207e-20)
(0.270408 -0.513431 2.64579e-19)
(0.335325 -0.507448 4.1247e-20)
(0.392641 -0.486459 -2.13205e-19)
(0.443804 -0.461862 -2.88399e-20)
(0.48985 -0.437618 6.42936e-20)
(0.531215 -0.414896 -2.28943e-20)
(0.570431 -0.398326 1.00873e-22)
(0.044047 -0.15 -1.05216e-19)
(0.16558 -0.4481 -6.48875e-20)
(0.273151 -0.602003 2.78896e-20)
(0.353658 -0.645654 -1.1472e-19)
(0.417365 -0.63657 5.52945e-20)
(0.471215 -0.608666 1.52465e-19)
(0.51841 -0.576371 3.89364e-20)
(0.560583 -0.544667 -4.63134e-21)
(0.598192 -0.51512 1.78545e-20)
(0.635354 -0.493632 -1.96379e-21)
(0.0682278 -0.179844 0)
(0.238439 -0.534091 8.10593e-20)
(0.371126 -0.715163 4.31879e-19)
(0.45834 -0.765228 -2.82053e-19)
(0.520355 -0.752932 -5.06021e-19)
(0.569744 -0.718564 1.60639e-19)
(0.611901 -0.679213 -2.00503e-20)
(0.649179 -0.640728 -8.43823e-20)
(0.682097 -0.605095 0)
(0.716624 -0.579031 -7.08475e-21)
(0.0979199 -0.207883 2.07684e-22)
(0.325886 -0.610984 2.73929e-19)
(0.487697 -0.814482 1.274e-19)
(0.582383 -0.869225 2.04241e-19)
(0.642124 -0.853634 -1.62817e-19)
(0.686086 -0.813401 -2.4468e-19)
(0.722218 -0.767802 4.15181e-19)
(0.753686 -0.723378 4.63572e-20)
(0.781111 -0.682544 -2.3512e-19)
(0.812382 -0.652259 -5.7268e-21)
(0.133179 -0.233576 2.68876e-20)
(0.426772 -0.676943 3.24645e-19)
(0.620719 -0.897459 5.90611e-20)
(0.723196 -0.954973 1.92526e-20)
(0.779986 -0.936082 2.8178e-19)
(0.817615 -0.890743 -3.42516e-19)
(0.846864 -0.839877 -3.36795e-19)
(0.871753 -0.790511 -2.77794e-19)
(0.893066 -0.745451 2.01415e-19)
(0.920361 -0.711204 2.15873e-19)
(0.173955 -0.256241 -1.17993e-19)
(0.539572 -0.730146 -1.19735e-19)
(0.767552 -0.961825 1.9377e-19)
(0.877664 -1.02018 -1.50207e-19)
(0.930751 -0.99815 2.96483e-19)
(0.961256 -0.948693 6.85009e-19)
(0.982961 -0.893778 4.60841e-19)
(1.00071 -0.840705 -3.54744e-19)
(1.01556 -0.792475 -1.66572e-19)
(1.03775 -0.75428 2.39879e-19)
(0.219975 -0.275012 -2.85815e-19)
(0.662263 -0.768792 -8.8974e-19)
(0.924931 -1.00556 9.80016e-19)
(1.04197 -1.06294 8.20613e-19)
(1.09047 -1.03815 -6.86928e-19)
(1.11313 -0.985862 7.29617e-19)
(1.12677 -0.928487 1.11631e-19)
(1.137 -0.873427 -8.41665e-19)
(1.14532 -0.823253 -2.04186e-19)
(1.15982 -0.780914 2.7467e-19)
(0.270685 -0.288878 -9.57862e-21)
(0.792396 -0.79111 -7.75612e-19)
(1.08914 -1.0268 -4.74135e-19)
(1.21177 -1.08143 7.55666e-19)
(1.25443 -1.0543 5.8419e-19)
(1.26811 -1.00049 -6.59065e-19)
(1.27261 -0.94229 -5.33801e-19)
(1.27428 -0.886994 3.13986e-19)
(1.27535 -0.835608 -3.21069e-19)
(1.27578 -0.789435 -1.98219e-19)
(0.637075 -0.152658 9.44302e-22)
(0.811011 -0.117831 -4.54789e-21)
(0.890007 -0.0921769 1.30866e-20)
(0.936746 -0.0721568 2.51492e-21)
(0.963981 -0.0558942 -9.00079e-22)
(0.980084 -0.0424616 2.45939e-21)
(0.98991 -0.0313001 5.17741e-22)
(0.995979 -0.0219033 -3.40785e-21)
(0.999563 -0.0140172 3.96627e-21)
(1.00179 -0.0053034 3.27785e-21)
(0.654495 -0.219069 7.09657e-20)
(0.821105 -0.153855 -9.77273e-21)
(0.897494 -0.111556 3.92511e-21)
(0.942432 -0.0828991 3.3066e-21)
(0.968501 -0.0621119 7.64067e-21)
(0.983756 -0.0461637 0)
(0.992929 -0.0335388 5.82237e-22)
(0.998508 -0.0232472 3.24374e-21)
(1.00176 -0.0147874 5.45359e-22)
(1.00372 -0.00557758 -3.17624e-21)
(0.682788 -0.28346 -3.70703e-20)
(0.83572 -0.189088 -1.59306e-20)
(0.90751 -0.130697 4.67696e-21)
(0.949423 -0.09355 -8.75606e-21)
(0.973723 -0.0682525 -4.15807e-21)
(0.987834 -0.0497893 6.48634e-21)
(0.996197 -0.0357053 0)
(1.0012 -0.0245299 0)
(1.00407 -0.0155118 3.53358e-22)
(1.00575 -0.00583294 0)
(0.721743 -0.344664 -2.72642e-20)
(0.854794 -0.22298 2.48208e-20)
(0.91997 -0.149366 8.35406e-21)
(0.957707 -0.104002 0)
(0.979644 -0.0742564 -1.18432e-21)
(0.992313 -0.0533025 1.75024e-21)
(0.999705 -0.0377772 0)
(1.00404 -0.0257375 -3.02417e-21)
(1.00648 -0.016182 0)
(1.00785 -0.00606638 -3.30233e-22)
(0.771051 -0.401584 -2.27638e-20)
(0.878279 -0.255046 5.13693e-20)
(0.93476 -0.167344 -4.92145e-21)
(0.967259 -0.114152 0)
(0.986256 -0.0800671 -3.36323e-21)
(0.997181 -0.0566687 -4.50202e-21)
(1.00344 -0.0397321 6.72861e-21)
(1.00702 -0.0268556 1.41182e-21)
(1.00898 -0.0167893 -8.37309e-22)
(1.01002 -0.00627458 3.1592e-21)
(0.830176 -0.453112 -5.66889e-19)
(0.906137 -0.284958 -1.02664e-19)
(0.951759 -0.184456 2.21881e-21)
(0.978044 -0.123906 7.5351e-21)
(0.993545 -0.0856334 6.36827e-21)
(1.00243 -0.0598548 -9.00994e-22)
(1.00739 -0.041548 -8.68974e-21)
(1.01012 -0.0278693 3.37557e-21)
(1.01156 -0.0173245 -2.82088e-22)
(1.01224 -0.00645403 2.29506e-21)
(0.898043 -0.497911 -1.18206e-20)
(0.938156 -0.312431 4.44831e-20)
(0.970827 -0.200589 5.12861e-21)
(0.99001 -0.133197 -1.45459e-22)
(1.00149 -0.0909144 -5.66455e-21)
(1.00803 -0.0628329 5.63384e-21)
(1.01154 -0.0432047 1.89369e-21)
(1.01333 -0.0287647 -5.25386e-21)
(1.01419 -0.0177788 -7.33821e-22)
(1.0145 -0.00660105 -2.26495e-21)
(0.972733 -0.534796 2.32965e-19)
(0.97327 -0.336888 5.69049e-20)
(0.991498 -0.215464 0)
(1.00299 -0.141889 -3.60168e-21)
(1.01003 -0.0958489 3.96477e-21)
(1.01397 -0.0655713 1.9897e-21)
(1.01587 -0.0446836 1.75045e-21)
(1.01664 -0.0295294 -4.496e-22)
(1.01687 -0.0181444 5.19712e-23)
(1.01678 -0.00671288 6.4668e-22)
(1.05271 -0.564662 -3.34677e-19)
(1.00961 -0.359412 -1.60985e-19)
(1.01235 -0.229614 2.82974e-20)
(1.01622 -0.15011 1.99937e-21)
(1.01881 -0.10043 -2.00504e-21)
(1.02008 -0.068041 9.1004e-22)
(1.0203 -0.0459606 -2.05248e-21)
(1.01999 -0.0301479 6.60493e-22)
(1.01957 -0.0184126 -4.01734e-21)
(1.01907 -0.00678973 -4.94646e-21)
(1.13948 -0.587423 2.25128e-19)
(1.04862 -0.381046 -1.58208e-19)
(1.03261 -0.245108 -2.11879e-20)
(1.02865 -0.159199 -1.23128e-20)
(1.0271 -0.105321 -3.87941e-21)
(1.02595 -0.0705101 -1.67742e-21)
(1.02464 -0.0471195 -2.44703e-21)
(1.02332 -0.030632 0)
(1.02225 -0.0185768 2.36864e-21)
(1.02135 -0.00681574 6.61903e-22)
(1.27911 -0.571505 3.4446e-19)
(1.13539 -0.377384 1.02487e-19)
(1.08083 -0.245515 -5.70109e-20)
(1.05632 -0.16037 2.03129e-21)
(1.04361 -0.106092 3.02737e-21)
(1.03628 -0.0707745 1.60821e-21)
(1.03145 -0.047055 5.80736e-21)
(1.02807 -0.0304272 1.92664e-21)
(1.02583 -0.0183627 -2.49202e-21)
(1.02426 -0.00671663 1.14049e-21)
(1.33012 -0.481562 -3.99647e-21)
(1.17473 -0.330991 1.04586e-19)
(1.11197 -0.223357 7.90888e-20)
(1.07889 -0.149725 -8.77812e-21)
(1.05908 -0.100386 3.17022e-20)
(1.04681 -0.0673425 1.91744e-20)
(1.03875 -0.0448351 1.39162e-20)
(1.03333 -0.0289799 -1.16947e-21)
(1.0299 -0.0174735 4.82049e-21)
(1.0276 -0.00637958 4.11657e-21)
(1.38037 -0.412088 -1.06673e-19)
(1.22004 -0.29374 -8.58987e-21)
(1.14416 -0.20286 2.67873e-21)
(1.10098 -0.13809 -5.18946e-37)
(1.07403 -0.0933468 2.64679e-21)
(1.05695 -0.0628353 -5.43292e-35)
(1.04577 -0.04186 -4.61359e-21)
(1.03837 -0.0270372 -2.90516e-34)
(1.03376 -0.0162855 1.20793e-21)
(1.03074 -0.00593907 -3.53801e-21)
(1.41236 -0.341284 -1.68419e-34)
(1.25429 -0.252326 -2.48506e-20)
(1.17079 -0.178512 -2.81882e-20)
(1.12019 -0.123474 0)
(1.08743 -0.0842255 -1.45007e-20)
(1.06619 -0.0569393 -9.38415e-21)
(1.05222 -0.0379861 -3.72808e-21)
(1.04302 -0.0245333 -4.24127e-34)
(1.03732 -0.0147702 -7.3385e-22)
(1.03362 -0.00538353 3.47372e-21)
(1.43261 -0.275962 -5.78829e-20)
(1.28057 -0.210798 3.25406e-21)
(1.19259 -0.15224 0)
(1.1365 -0.106757 0)
(1.09909 -0.0734273 0)
(1.07436 -0.0498529 0)
(1.05797 -0.0333165 -1.06918e-21)
(1.04717 -0.0215241 -4.77112e-34)
(1.0405 -0.0129569 1.15341e-21)
(1.03618 -0.00472145 4.26181e-34)
(1.44496 -0.215729 -1.55033e-20)
(1.30017 -0.169544 0)
(1.20989 -0.124642 0)
(1.14988 -0.0884362 0)
(1.10887 -0.0612732 0)
(1.0813 -0.0417679 0)
(1.06289 -0.0279638 1.96523e-21)
(1.05074 -0.018075 3.38879e-21)
(1.04324 -0.010881 1.12708e-21)
(1.03838 -0.00396445 3.92885e-21)
(1.45209 -0.160177 0)
(1.31424 -0.128965 -7.71861e-21)
(1.22306 -0.0962195 -1.1927e-20)
(1.16037 -0.0689347 0)
(1.11667 -0.0480574 -7.45044e-21)
(1.0869 -0.0328743 -5.10465e-21)
(1.06688 -0.0220466 -1.46068e-21)
(1.05364 -0.014258 -2.08957e-21)
(1.04546 -0.00858316 3.43291e-21)
(1.04017 -0.00312652 2.88945e-21)
(1.45551 -0.108304 4.44552e-21)
(1.32336 -0.0890807 4.19864e-21)
(1.23212 -0.0672384 -1.70185e-21)
(1.16776 -0.048536 4.3537e-36)
(1.12223 -0.0339982 -8.91011e-22)
(1.0909 -0.0233207 -4.23836e-35)
(1.06971 -0.0156599 1.80423e-21)
(1.05567 -0.0101305 5.97244e-21)
(1.04699 -0.00609279 9.9892e-22)
(1.04136 -0.00221385 -3.21913e-21)
(1.44746 -0.0597186 -1.98388e-20)
(1.31975 -0.0520934 7.60421e-21)
(1.22977 -0.0400553 8.86751e-21)
(1.16528 -0.029172 0)
(1.1192 -0.0205326 5.2512e-21)
(1.08728 -0.01412 3.6314e-21)
(1.06563 -0.00949282 4.14686e-21)
(1.05125 -0.00614288 1.53905e-21)
(1.04237 -0.00369185 -7.39634e-22)
(1.03661 -0.00133868 3.48193e-21)
(1.23721 -0.00852675 0)
(1.1369 -0.00959058 0)
(1.06238 -0.00779047 0)
(1.00768 -0.00576001 0)
(0.968223 -0.00407811 0)
(0.940755 -0.002816 0)
(0.922059 -0.00189757 1.69066e-21)
(0.90963 -0.00123066 -8.30319e-36)
(0.901946 -0.000727441 1.04452e-21)
(0.896999 -0.000254802 3.1175e-21)
(2.0366 -0.0386209 8.00583e-19)
(2.02363 -0.13802 5.41108e-20)
(1.99376 -0.234733 -1.09007e-19)
(1.94762 -0.326707 -3.16907e-19)
(1.88676 -0.412238 -9.94034e-20)
(1.812 -0.489685 -1.54049e-19)
(1.72825 -0.555745 -3.90838e-19)
(1.62776 -0.617732 1.15901e-19)
(1.54241 -0.644155 0)
(1.39993 -0.717025 4.34464e-20)
(1.95366 -0.0285973 2.27387e-19)
(1.94347 -0.103462 -2.99824e-19)
(1.92079 -0.17697 -2.72559e-20)
(1.8858 -0.247777 -1.26378e-19)
(1.84055 -0.314439 4.33164e-20)
(1.78293 -0.377044 1.27305e-19)
(1.72281 -0.428555 -3.39752e-20)
(1.64215 -0.48814 6.54097e-20)
(1.5846 -0.501153 -8.49754e-20)
(1.47865 -0.578533 2.49721e-20)
(1.8849 -0.0218702 -1.05577e-19)
(1.87702 -0.0810733 2.18149e-19)
(1.85918 -0.139078 1.65163e-19)
(1.83134 -0.19515 -2.24772e-19)
(1.79568 -0.248056 4.69933e-20)
(1.74958 -0.298972 1.79921e-19)
(1.70257 -0.340034 -2.40122e-20)
(1.63881 -0.39213 3.51468e-20)
(1.5903 -0.402677 4.47598e-20)
(1.5126 -0.471026 5.98234e-20)
(1.83142 -0.017827 -2.28624e-19)
(1.82496 -0.0635423 -3.40131e-21)
(1.8102 -0.108532 -4.0149e-20)
(1.78717 -0.152378 -3.89286e-20)
(1.75764 -0.193985 -5.98813e-20)
(1.71984 -0.234735 -8.59448e-20)
(1.68055 -0.267709 1.05924e-19)
(1.62992 -0.310463 1.56455e-20)
(1.58726 -0.320628 -6.86835e-22)
(1.52898 -0.376023 9.38923e-21)
(1.78959 -0.0141264 3.80761e-20)
(1.78415 -0.0491443 8.24712e-20)
(1.77154 -0.0836408 -3.57637e-20)
(1.75192 -0.117387 1.77628e-19)
(1.72657 -0.149552 -1.16403e-20)
(1.69476 -0.18131 -1.44251e-19)
(1.66061 -0.207399 2.15165e-20)
(1.6194 -0.240822 -7.18124e-20)
(1.58125 -0.250575 6.96885e-20)
(1.53545 -0.293367 4.76922e-20)
(1.75766 -0.0114521 -1.20859e-19)
(1.75295 -0.0374509 -5.41628e-20)
(1.74183 -0.0631043 9.26922e-21)
(1.72458 -0.0883015 7.70925e-20)
(1.70206 -0.112476 1.12707e-19)
(1.67437 -0.13647 -4.06282e-20)
(1.64373 -0.156626 3.3161e-21)
(1.60878 -0.181887 1.21448e-20)
(1.57399 -0.1908 3.31255e-20)
(1.53606 -0.222753 -3.64022e-20)
(1.73417 -0.00934583 -4.00101e-20)
(1.73002 -0.0275863 -8.55917e-20)
(1.71995 -0.0456093 -8.64793e-20)
(1.70432 -0.0633962 -1.46985e-19)
(1.68372 -0.0806084 1.94904e-20)
(1.65875 -0.0978195 1.88704e-20)
(1.63045 -0.112642 2.04754e-20)
(1.59947 -0.130943 1.07391e-20)
(1.56708 -0.138477 -3.32978e-20)
(1.53396 -0.161542 -4.21046e-21)
(1.71685 -0.00757115 4.45179e-20)
(1.71332 -0.0188796 2.13046e-20)
(1.70422 -0.0300202 1.17494e-20)
(1.6899 -0.041069 -2.21585e-20)
(1.67077 -0.0519032 -1.8773e-20)
(1.64768 -0.0629227 -5.20438e-21)
(1.62094 -0.0726821 -1.35148e-20)
(1.59235 -0.0848932 2.96998e-21)
(1.56145 -0.0904842 -3.55275e-21)
(1.53099 -0.106609 2.27602e-20)
(1.68049 -0.00768873 -4.66908e-20)
(1.67826 -0.0120187 -7.09716e-21)
(1.67163 -0.0162531 7.54433e-20)
(1.66055 -0.0205295 -1.07112e-20)
(1.64511 -0.0248652 -1.39923e-20)
(1.62609 -0.0296582 1.81577e-20)
(1.60305 -0.0339791 -5.7803e-21)
(1.5785 -0.0405714 -2.62955e-21)
(1.54976 -0.0431694 6.59461e-21)
(1.52355 -0.0537827 3.25902e-20)
(1.31365 -0.00393362 4.09154e-20)
(1.3092 -0.00265712 3.16277e-20)
(1.3053 -0.00145466 2.92089e-20)
(1.30205 -0.000389014 4.27904e-20)
(1.29898 0.000457539 -1.57987e-20)
(1.29628 0.000992739 -2.13333e-20)
(1.29196 0.00130724 4.28713e-21)
(1.28957 0.000550535 2.54167e-21)
(1.27943 0.00146072 -4.07079e-21)
(1.28189 -0.00322364 4.25173e-21)
(1.35998 0.7251 -5.07267e-20)
(1.35358 0.773274 2.56758e-20)
(1.35931 0.826263 -3.99506e-19)
(1.36745 0.884924 2.23885e-19)
(1.37585 0.947963 7.51753e-19)
(1.38328 1.01466 -1.4234e-19)
(1.38182 1.08023 -8.06269e-19)
(1.33591 1.11342 -4.21407e-20)
(1.13748 0.999989 -5.08506e-19)
(0.567396 0.524483 9.02522e-20)
(1.50195 0.704638 0)
(1.50352 0.749931 5.09449e-19)
(1.50979 0.799936 1.12868e-18)
(1.51982 0.856493 -6.67259e-19)
(1.53277 0.918275 -1.61471e-18)
(1.54651 0.984293 -1.39635e-19)
(1.55141 1.04938 -1.79603e-19)
(1.50608 1.08223 6.7301e-19)
(1.2854 0.969842 1.12154e-18)
(0.640218 0.505462 4.69448e-19)
(1.62394 0.678744 6.36635e-20)
(1.63524 0.720818 0)
(1.64806 0.767164 -6.69074e-20)
(1.66438 0.8193 6.87051e-19)
(1.68405 0.876706 5.27547e-20)
(1.70499 0.938731 -1.7643e-18)
(1.71642 1.00016 1.16045e-18)
(1.67124 1.03035 8.05094e-19)
(1.42755 0.919844 -1.02462e-18)
(0.708582 0.47532 -2.95955e-19)
(1.72915 0.634663 -1.05774e-19)
(1.74913 0.673487 -8.63953e-20)
(1.77069 0.716174 2.10518e-19)
(1.79549 0.763773 -2.64691e-19)
(1.82349 0.816253 -1.29107e-18)
(1.85269 0.873201 -1.00494e-18)
(1.87111 0.92951 1.15853e-18)
(1.82577 0.955835 8.30879e-19)
(1.55855 0.848802 0)
(0.768848 0.433474 0)
(1.82362 0.57064 -7.56726e-19)
(1.85082 0.606151 -1.28171e-18)
(1.88038 0.644972 -5.16861e-19)
(1.9133 0.687811 -3.51112e-20)
(1.94948 0.734891 0)
(1.98682 0.785942 1.46293e-19)
(2.01181 0.836072 1.73496e-19)
(1.96538 0.857999 2.23598e-19)
(1.6741 0.756934 -3.42857e-19)
(0.818332 0.380828 -8.76061e-20)
(1.90909 0.490442 8.92067e-19)
(1.9419 0.521982 -4.66176e-20)
(1.97785 0.556165 -1.06337e-18)
(2.01756 0.593506 0)
(2.06082 0.634354 0)
(2.10524 0.678513 0)
(2.13554 0.721403 1.49475e-18)
(2.08658 0.738638 -1.94076e-18)
(1.77102 0.646671 -1.50372e-18)
(0.855293 0.319455 7.2548e-20)
(1.98328 0.398045 -1.20936e-18)
(2.02034 0.424595 -2.53095e-18)
(2.06126 0.453051 -4.40841e-21)
(2.10635 0.483895 5.1339e-19)
(2.15534 0.517522 -4.31355e-20)
(2.20543 0.553751 1.22484e-18)
(2.23943 0.588377 -7.34133e-19)
(2.18615 0.600626 -2.49832e-18)
(1.8467 0.521671 1.70064e-19)
(0.878433 0.252338 1.34099e-19)
(2.04297 0.296315 -9.88597e-19)
(2.08331 0.316858 1.89206e-20)
(2.12799 0.33855 3.86394e-19)
(2.17718 0.361975 -3.7423e-19)
(2.23059 0.387497 5.82516e-19)
(2.28487 0.414899 1.73865e-18)
(2.32073 0.440994 -2.39236e-19)
(2.26207 0.447499 -1.48423e-18)
(1.89794 0.385385 4.22281e-19)
(0.887947 0.182645 8.36425e-20)
(2.08561 0.187552 3.69003e-19)
(2.12837 0.201341 9.2105e-20)
(2.17578 0.215471 -4.1796e-19)
(2.22787 0.230681 -9.47425e-19)
(2.28436 0.247375 1.03839e-19)
(2.34134 0.265274 1.11452e-19)
(2.37744 0.281123 -1.72865e-18)
(2.31094 0.285697 8.57156e-19)
(1.92374 0.243914 3.20174e-19)
(0.884394 0.111018 -2.31525e-19)
(2.10984 0.0738586 7.4256e-19)
(2.15408 0.0802429 -1.12825e-18)
(2.20296 0.0864208 1.93806e-19)
(2.25669 0.0930622 2.39009e-18)
(2.31485 0.100236 1.27962e-18)
(2.37289 0.108168 -2.98937e-18)
(2.40719 0.115319 -3.38954e-18)
(2.33133 0.118515 1.98983e-18)
(1.92532 0.0990265 -7.82801e-21)
(0.867953 0.0406179 -6.3401e-22)
(0.524636 0.185896 -2.00897e-19)
(0.491174 0.192327 -1.81975e-19)
(0.44907 0.199345 1.13211e-19)
(0.400996 0.206918 -3.79163e-19)
(0.348366 0.215088 -5.38853e-20)
(0.290561 0.223895 3.20456e-19)
(0.226303 0.232627 9.64206e-20)
(0.154877 0.23611 -6.69431e-20)
(0.0808721 0.213847 -1.43882e-20)
(0.0140955 0.11819 2.99197e-20)
(0.550365 0.28511 1.62788e-19)
(0.517748 0.298253 2.40279e-19)
(0.476991 0.312738 3.49149e-20)
(0.430479 0.328358 -1.09439e-19)
(0.379539 0.345144 -3.5753e-19)
(0.32358 0.363211 2.59495e-20)
(0.261186 0.381343 2.28113e-19)
(0.190706 0.390442 -7.3629e-21)
(0.113563 0.354867 -3.44344e-20)
(0.0321128 0.19483 -9.76677e-21)
(0.593058 0.380152 -1.80761e-19)
(0.561959 0.399754 -1.99841e-19)
(0.523546 0.421321 1.73012e-19)
(0.479697 0.44457 1.64033e-19)
(0.431606 0.469542 -6.22098e-20)
(0.378732 0.496419 -1.45646e-19)
(0.319425 0.523488 -8.52224e-20)
(0.250419 0.537855 4.38739e-20)
(0.167766 0.489277 -2.8549e-20)
(0.0616489 0.267459 6.6752e-21)
(0.6516 0.468825 1.02615e-19)
(0.622674 0.494535 2.02737e-21)
(0.587554 0.522632 -1.39876e-19)
(0.547427 0.55291 1.06526e-19)
(0.503303 0.585459 -9.8513e-20)
(0.454716 0.620503 4.41394e-20)
(0.399687 0.655841 -1.00616e-19)
(0.332648 0.675005 -6.39601e-20)
(0.242078 0.61405 -2.0923e-19)
(0.101832 0.334383 5.14773e-20)
(0.724513 0.549056 -3.39508e-20)
(0.698378 0.580435 -1.42544e-20)
(0.667442 0.614358 -4.26112e-20)
(0.632039 0.650897 -1.37213e-19)
(0.592947 0.690234 5.90147e-20)
(0.549781 0.732613 -1.06765e-19)
(0.500142 0.775349 1.75491e-19)
(0.435585 0.798658 1.24562e-20)
(0.334849 0.726164 2.79592e-19)
(0.151701 0.394008 2.19568e-19)
(0.809969 0.618921 8.32832e-21)
(0.787143 0.655342 -4.90729e-20)
(0.761141 0.694176 1.78259e-19)
(0.731351 0.736022 8.79379e-20)
(0.698274 0.781207 1.72879e-19)
(0.661591 0.829953 7.3795e-20)
(0.618361 0.879081 3.56649e-19)
(0.556757 0.905761 1.8196e-19)
(0.444069 0.822575 1.70481e-19)
(0.210096 0.444516 1.91163e-19)
(0.905704 0.67684 -9.35557e-20)
(0.886897 0.717631 2.50399e-19)
(0.866752 0.760364 1.35972e-19)
(0.843557 0.806388 -1.23482e-19)
(0.817457 0.85627 -7.12919e-20)
(0.788192 0.910206 4.2461e-19)
(0.752196 0.964549 -9.65107e-20)
(0.693794 0.993758 -2.81642e-19)
(0.56731 0.900937 -4.13544e-20)
(0.275388 0.484472 2.21393e-19)
(1.00689 0.721234 1.50678e-19)
(0.992121 0.764983 5.3561e-20)
(0.97853 0.810232 -5.12037e-19)
(0.96311 0.859311 3.34872e-20)
(0.945379 0.912878 2.88322e-19)
(0.92494 0.970925 -2.3552e-19)
(0.897395 1.02929 -4.63556e-20)
(0.842704 1.06011 -1.2942e-19)
(0.700932 0.958893 1.5083e-20)
(0.345423 0.512653 -2.74991e-19)
(1.11901 0.746837 2.35403e-20)
(1.11052 0.793488 -3.46114e-19)
(1.10424 0.840203 -2.57247e-21)
(1.09628 0.891173 2.71403e-19)
(1.08619 0.947485 -2.6239e-19)
(1.07392 1.00881 5.57911e-19)
(1.05429 1.07043 4.2289e-19)
(1.0025 1.10259 -7.31822e-19)
(0.843169 0.995156 -5.91975e-20)
(0.418832 0.528803 -3.11228e-19)
(1.20434 0.759009 -1.84587e-19)
(1.20727 0.807532 -1.886e-19)
(1.21628 0.855732 2.24097e-19)
(1.22246 0.907762 4.58205e-19)
(1.22495 0.964994 1.94757e-19)
(1.22433 1.02734 -4.71522e-19)
(1.21487 1.08993 1.82171e-20)
(1.16688 1.12176 1.63317e-19)
(0.989075 1.00935 -2.70629e-19)
(0.493162 0.532678 -2.29738e-19)
(0.71188 0.0237074 1.87987e-20)
(1.19949 0.0362973 -2.17154e-20)
(0.913009 0.0412438 -3.866e-21)
(1.00874 0.0446999 0)
(0.987392 0.0521715 2.16326e-20)
(0.967969 0.0626413 2.5335e-20)
(0.942765 0.0765759 3.20684e-20)
(0.89548 0.0945566 6.48124e-20)
(0.830339 0.11937 -9.45855e-20)
(0.658509 0.152491 -1.05224e-19)
(0.711539 0.021505 3.95868e-20)
(1.19978 0.036523 -7.46539e-20)
(0.913717 0.0438088 -1.47727e-21)
(1.01055 0.0464307 -9.77214e-21)
(0.99004 0.055695 1.03255e-20)
(0.971694 0.0685517 -1.33205e-20)
(0.947693 0.0867355 -8.09779e-20)
(0.9027 0.112051 0)
(0.839317 0.154114 2.06356e-19)
(0.678759 0.214842 -2.47923e-19)
(0.711 0.0193232 -6.14895e-20)
(1.2002 0.0366046 2.00327e-20)
(0.9143 0.0461423 3.00423e-20)
(1.01275 0.0479685 1.77856e-20)
(0.993062 0.059049 -2.47885e-20)
(0.976077 0.074317 -7.63256e-23)
(0.953725 0.0967446 -5.78081e-20)
(0.912531 0.12942 -5.12979e-21)
(0.852073 0.188155 2.93051e-22)
(0.711511 0.27532 6.24362e-19)
(0.710258 0.0172989 -6.5028e-21)
(1.20072 0.0365425 5.51363e-21)
(0.914769 0.0481884 2.74178e-20)
(1.01533 0.0493008 1.35908e-20)
(0.996465 0.062213 -1.29303e-20)
(0.981122 0.079893 -1.55657e-20)
(0.960907 0.106518 8.67365e-20)
(0.92486 0.146522 -1.5432e-21)
(0.8688 0.221169 -2.56317e-19)
(0.756087 0.332705 6.58666e-20)
(0.709299 0.0155158 6.89354e-21)
(1.20126 0.0363194 -4.25828e-20)
(0.915148 0.0498885 -2.16955e-20)
(1.01831 0.0504222 5.12781e-21)
(1.00025 0.0651681 0)
(0.986829 0.0852394 0)
(0.969293 0.11599 7.40873e-20)
(0.939578 0.163227 2.93651e-22)
(0.889697 0.252996 -1.25535e-19)
(0.811593 0.385787 9.09396e-20)
(0.708108 0.014059 -2.41864e-21)
(1.20175 0.0359064 3.69634e-20)
(0.915465 0.0511824 -4.26662e-20)
(1.02172 0.051337 -3.55665e-20)
(1.00442 0.0678961 -8.58183e-22)
(0.993197 0.0903218 6.29687e-20)
(0.978927 0.125118 1.15738e-19)
(0.956599 0.17938 -7.90125e-22)
(0.914946 0.283218 2.09163e-19)
(0.877002 0.433965 -1.96936e-19)
(0.706663 0.0130269 -2.58873e-20)
(1.20208 0.0352602 1.86183e-20)
(0.915761 0.0520093 -3.75584e-21)
(1.02557 0.0520615 -5.64217e-20)
(1.00895 0.0703767 2.23064e-21)
(1.00023 0.0951115 -1.11501e-21)
(0.989841 0.133871 -6.92643e-21)
(0.975778 0.194867 -2.02304e-19)
(0.944858 0.310585 1.5781e-19)
(0.950643 0.476648 -4.58013e-19)
(0.704933 0.0125153 1.30093e-20)
(1.20215 0.0343108 -5.74296e-20)
(0.916093 0.05231 1.48638e-20)
(1.02988 0.0526242 4.69099e-20)
(1.01382 0.0725784 9.97907e-22)
(1.00793 0.0995687 -7.30949e-20)
(1.00206 0.142168 -6.349e-20)
(0.996883 0.20971 3.63988e-19)
(0.979899 0.334718 1.07197e-20)
(1.03068 0.516583 7.38703e-19)
(0.702882 0.0126592 -5.74523e-21)
(1.20191 0.0329823 2.574e-20)
(0.916538 0.0520097 -2.65803e-21)
(1.03465 0.0530479 -4.91216e-20)
(1.01898 0.0744363 -8.26319e-20)
(1.01623 0.103555 1.60427e-21)
(1.01548 0.149511 -8.73901e-20)
(1.01983 0.222247 4.72775e-19)
(1.02185 0.349973 -6.92397e-21)
(1.11448 0.541442 -1.0094e-18)
(0.700552 0.0136406 8.06735e-21)
(1.20194 0.0314773 3.8724e-20)
(0.917026 0.051054 1.3566e-20)
(1.0398 0.0533484 -1.09832e-19)
(1.02403 0.0760652 -7.65861e-20)
(1.02399 0.107715 -6.15895e-20)
(1.02711 0.158204 -1.56598e-19)
(1.03768 0.239108 -4.43801e-19)
(1.05674 0.375556 -2.56166e-19)
(1.19105 0.592244 -1.11957e-18)
(0.700776 0.0139024 -2.2634e-20)
(1.204 0.0292536 -7.9361e-21)
(0.91888 0.0483831 -1.08638e-20)
(1.04563 0.0527939 -6.96915e-23)
(1.03281 0.0753489 5.3229e-20)
(1.03824 0.107657 -4.24307e-20)
(1.05047 0.15823 1.40855e-19)
(1.0763 0.236893 -4.41158e-19)
(1.12112 0.359555 -1.8383e-19)
(1.24869 0.569153 6.02756e-19)
(0.701287 0.0119266 1.8564e-20)
(1.20777 0.0265337 1.40861e-20)
(0.923076 0.0436138 5.37186e-21)
(1.05078 0.050436 4.02449e-20)
(1.04282 0.0717178 8.16522e-20)
(1.05345 0.102916 1.2324e-19)
(1.07388 0.15047 2.95557e-20)
(1.11253 0.222287 2.33444e-19)
(1.1716 0.326814 3.01718e-19)
(1.3195 0.491715 -1.27687e-20)
(0.70154 0.00934439 -2.26986e-20)
(1.21165 0.0233682 -5.15011e-21)
(0.927474 0.0387057 -1.10454e-20)
(1.05604 0.046854 2.12225e-20)
(1.05241 0.066676 2.23201e-34)
(1.06775 0.0957857 -8.55086e-21)
(1.09514 0.139033 -5.54872e-34)
(1.1436 0.202358 1.97341e-20)
(1.21137 0.287684 -5.41004e-20)
(1.37005 0.418317 -4.56544e-20)
(0.701844 0.0059388 3.87929e-20)
(1.2154 0.0195654 -5.4163e-35)
(0.931777 0.0335185 1.0771e-20)
(1.06118 0.0422225 -1.62439e-20)
(1.06124 0.0602993 -3.20401e-20)
(1.0807 0.0866119 -4.07787e-20)
(1.11386 0.124767 -6.90221e-34)
(1.16945 0.179121 -1.00764e-19)
(1.24309 0.24701 -1.36447e-19)
(1.40322 0.348205 8.48883e-20)
(0.702266 0.00169298 0)
(1.21915 0.0151889 4.86047e-36)
(0.93591 0.028065 0)
(1.06601 0.0367185 0)
(1.06913 0.052736 0)
(1.09204 0.0757049 0)
(1.12985 0.108268 -4.13118e-34)
(1.19038 0.153508 0)
(1.26799 0.206192 -2.07835e-20)
(1.42316 0.282643 5.17383e-20)
(0.702851 -0.00340812 2.44825e-20)
(1.22306 0.0103282 -3.64312e-21)
(0.939837 0.0224331 1.0071e-20)
(1.07036 0.0305241 0)
(1.07592 0.0441732 0)
(1.10161 0.0633917 7.2542e-21)
(1.14305 0.0900768 2.86955e-20)
(1.20685 0.126312 -1.46318e-20)
(1.28697 0.166004 -3.08673e-20)
(1.43443 0.221649 1.94466e-19)
(0.703675 -0.00992683 -4.89113e-20)
(1.22731 0.00503697 5.12587e-21)
(0.943531 0.0167693 9.67514e-21)
(1.07409 0.0238289 -5.0507e-21)
(1.0815 0.0348114 -1.07024e-20)
(1.10933 0.0499826 -8.49153e-21)
(1.15346 0.070648 -2.14096e-20)
(1.21932 0.0981465 -4.09404e-20)
(1.30083 0.126762 -5.47897e-20)
(1.44033 0.165106 8.34332e-20)
(0.704808 -0.0158112 -3.39992e-20)
(1.23218 -0.000539148 -1.68967e-20)
(0.946879 0.0113411 9.02435e-21)
(1.07695 0.0168153 -1.53922e-20)
(1.08565 0.0248396 7.93891e-35)
(1.115 0.0357504 7.82595e-21)
(1.16103 0.0503164 -9.96658e-34)
(1.22811 0.0693538 -1.48031e-20)
(1.31022 0.0882918 1.94347e-20)
(1.44303 0.111843 2.60491e-20)
(0.704428 -0.0303828 1.79949e-19)
(1.23135 -0.00629711 -1.12134e-20)
(0.944747 0.00532646 8.89866e-21)
(1.07372 0.0104053 2.44916e-21)
(1.0832 0.0150682 3.37301e-21)
(1.11355 0.02182 1.41411e-20)
(1.16079 0.0306094 7.95508e-21)
(1.22856 0.0419449 -5.53012e-21)
(1.31063 0.0527324 -2.25798e-20)
(1.43918 0.0648373 1.37523e-19)
(0.65403 -0.0220118 2.85618e-20)
(1.08544 -0.00914512 -7.71518e-35)
(0.812599 0.00305958 8.17741e-21)
(0.934997 0.00144743 0)
(0.940555 0.00315752 0)
(0.968002 0.00462032 8.0618e-21)
(1.01072 0.00645319 -9.51473e-36)
(1.07126 0.00892962 -1.46983e-20)
(1.14478 0.0110463 -2.85154e-20)
(1.2532 0.0128931 5.71197e-20)
(1.43224 0.615892 -1.75292e-19)
(1.51879 0.61368 -2.78655e-19)
(1.61305 0.597499 0)
(1.70119 0.558814 9.57134e-20)
(1.78216 0.499835 4.6433e-19)
(1.85648 0.426461 -1.40087e-19)
(1.92157 0.3434 1.37745e-18)
(1.97403 0.253525 -5.63193e-20)
(2.01152 0.158712 -3.48588e-19)
(2.03254 0.061132 3.08425e-19)
(1.47139 0.508475 6.57275e-20)
(1.53557 0.503335 1.10935e-19)
(1.61434 0.479345 -3.70661e-21)
(1.69114 0.43809 1.61621e-19)
(1.759 0.385871 -1.44613e-19)
(1.81818 0.326453 -3.70317e-19)
(1.86819 0.261676 -8.23806e-20)
(1.90759 0.192688 5.19898e-19)
(1.93542 0.120563 -1.91666e-20)
(1.95094 0.0464254 -4.34911e-19)
(1.5022 0.406013 9.8415e-20)