/*--------------------------------*- C++ -*----------------------------------*\
  =========                 |
  \\      /  F ield         | OpenFOAM: The Open Source CFD Toolbox
   \\    /   O peration     | Website:  https://openfoam.org
    \\  /    A nd           | Version:  13
     \\/     M anipulation  |
\*---------------------------------------------------------------------------*/
FoamFile
{
    format      ascii;
    class       volVectorField;
    location    "0.2675";
    object      U;
}
// * * * * * * * * * * * * * * * * * * * * * * * * * * * * * * * * * * * * * //

dimensions      [0 1 -1 0 0 0 0];

internalField   nonuniform List<vector> 
1800
(
(0.205895 -0.189322 1.31085e-19)
(0.721736 -0.617349 5.96396e-20)
(1.11135 -0.901379 -5.09746e-19)
(1.32579 -1.02739 5.16513e-19)
(1.41964 -1.04893 1.22273e-18)
(1.45101 -1.01874 5.20411e-19)
(1.45533 -0.968715 -2.68627e-19)
(1.44911 -0.914108 -6.8129e-19)
(1.43974 -0.858112 -3.57862e-19)
(1.41047 -0.810206 -2.92022e-19)
(0.251399 -0.197038 3.65948e-20)
(0.843368 -0.615179 -5.45799e-19)
(1.27359 -0.883375 5.39182e-21)
(1.50014 -0.997702 -4.3005e-19)
(1.5915 -1.01296 1.06074e-19)
(1.61523 -0.980296 1.20146e-18)
(1.61131 -0.9296 -8.68148e-19)
(1.59814 -0.874612 4.40162e-19)
(1.58286 -0.819604 7.238e-19)
(1.55958 -0.77676 -3.70397e-19)
(0.301724 -0.20027 2.705e-20)
(0.969165 -0.597996 1.59722e-19)
(1.43545 -0.843757 4.04037e-19)
(1.66993 -0.94398 -2.98825e-19)
(1.75608 -0.953269 -1.44989e-18)
(1.7705 -0.919998 3.24149e-19)
(1.75692 -0.871539 5.71449e-19)
(1.73468 -0.820349 -6.49882e-20)
(1.71098 -0.770408 -4.81129e-21)
(1.67981 -0.730253 -2.8899e-20)
(0.356299 -0.197866 -3.23641e-20)
(1.09658 -0.564437 -1.78934e-19)
(1.59324 -0.781796 -3.03942e-19)
(1.83154 -0.865956 6.05947e-20)
(1.9107 -0.869427 3.82445e-19)
(1.91573 -0.836315 3.23194e-20)
(1.89336 -0.790634 -2.32491e-20)
(1.8635 -0.742938 5.25747e-19)
(1.83308 -0.696621 4.3755e-19)
(1.79858 -0.660581 -1.49476e-19)
(0.414249 -0.188924 1.24044e-19)
(1.22257 -0.514266 2.40806e-19)
(1.74262 -0.698745 -7.2124e-20)
(1.98005 -0.766221 -8.24857e-20)
(2.05014 -0.765152 -1.14542e-18)
(2.04539 -0.734157 9.93674e-21)
(2.01458 -0.693414 9.03635e-19)
(1.97766 -0.651563 3.02296e-19)
(1.94118 -0.611564 1.72091e-20)
(1.90281 -0.580309 -1.96513e-19)
(0.474115 -0.172391 -7.04557e-20)
(1.34339 -0.446998 4.81353e-19)
(1.87913 -0.595277 1.15261e-18)
(2.1113 -0.646136 -8.18866e-19)
(2.17094 -0.641804 -8.32529e-19)
(2.15669 -0.614266 1.39382e-18)
(2.11834 -0.579505 -9.95794e-19)
(2.07536 -0.544209 -1.11454e-18)
(2.03377 -0.510765 7.95094e-19)
(1.99235 -0.485027 -2.38399e-20)
(0.534143 -0.147629 1.84462e-19)
(1.45528 -0.363336 -8.79141e-19)
(1.99863 -0.473738 -3.11222e-18)
(2.22154 -0.50912 1.34259e-18)
(2.26984 -0.50336 2.10791e-18)
(2.24676 -0.480952 -6.06301e-21)
(2.20205 -0.453551 -2.70706e-18)
(2.15424 -0.425983 6.13999e-21)
(2.10873 -0.400107 2.42847e-18)
(2.06492 -0.380456 6.35875e-19)
(0.592095 -0.11426 -6.14243e-20)
(1.55412 -0.26441 5.80524e-19)
(2.09711 -0.336653 2.41175e-18)
(2.30751 -0.358348 -5.32674e-20)
(2.34425 -0.353013 -1.35898e-18)
(2.3134 -0.337088 -4.2327e-19)
(2.26367 -0.31798 0)
(2.21228 -0.298831 9.50889e-19)
(2.16396 -0.281013 -8.43078e-22)
(2.11853 -0.267971 -7.78491e-19)
(0.645545 -0.0724532 -5.23391e-21)
(1.63612 -0.152337 1.342e-18)
(2.17136 -0.187532 2.12293e-18)
(2.36689 -0.197869 -1.96787e-18)
(2.39255 -0.19482 -1.40264e-18)
(2.35534 -0.186541 4.27281e-19)
(2.30209 -0.176446 -1.78784e-18)
(2.24849 -0.166211 -1.24308e-18)
(2.19857 -0.156763 1.45014e-18)
(2.15232 -0.150536 1.23149e-18)
(0.692019 -0.0228974 1.73982e-19)
(1.69797 -0.0298712 8.85464e-19)
(2.21889 -0.0302015 3.94288e-19)
(2.39814 -0.0317422 -2.83633e-18)
(2.41371 -0.0326536 2.2384e-20)
(2.37176 -0.0328507 4.06879e-18)
(2.31651 -0.0321929 -2.16986e-18)
(2.26203 -0.0311166 -1.18767e-18)
(2.21169 -0.0301151 4.02244e-19)
(2.16555 -0.0306346 -9.01896e-19)
(0.000908818 -0.0319733 1.12595e-19)
(0.0230231 -0.117218 1.00146e-19)
(0.0738103 -0.182072 -1.90684e-21)
(0.135541 -0.21703 -7.05955e-21)
(0.199993 -0.229789 -2.04198e-21)
(0.262489 -0.230166 -4.95613e-20)
(0.320776 -0.224865 8.39369e-21)
(0.374205 -0.217472 -1.31824e-20)
(0.422807 -0.209655 2.36923e-21)
(0.467258 -0.203252 -6.08003e-21)
(0.00535028 -0.0476925 5.59991e-20)
(0.0415081 -0.188494 1.04832e-19)
(0.103328 -0.297016 -1.15143e-19)
(0.17086 -0.354755 -4.70551e-20)
(0.237127 -0.374228 -6.59283e-20)
(0.299292 -0.37231 -8.38437e-20)
(0.356303 -0.360664 3.8634e-20)
(0.408126 -0.345555 -6.1789e-21)
(0.454983 -0.329931 -7.10702e-21)
(0.498459 -0.317984 -5.42152e-21)
(0.0124443 -0.0637162 -1.63258e-20)
(0.07174 -0.258123 2.37132e-19)
(0.151813 -0.408023 7.69584e-20)
(0.228963 -0.486961 2.76866e-19)
(0.298253 -0.512369 4.92535e-20)
(0.359871 -0.507923 -2.88852e-19)
(0.414765 -0.490007 -1.92981e-20)
(0.463924 -0.467409 9.46288e-20)
(0.507894 -0.444321 -4.63252e-20)
(0.549838 -0.427015 -1.00233e-20)
(0.022436 -0.0800534 -1.06796e-19)
(0.11379 -0.325079 -4.7602e-20)
(0.218902 -0.51297 2.91804e-20)
(0.309117 -0.610815 -1.21944e-19)
(0.382418 -0.641059 5.30269e-20)
(0.443161 -0.633787 1.846e-19)
(0.495058 -0.60974 5.67501e-20)
(0.540505 -0.580003 -1.92282e-20)
(0.580507 -0.54995 1.9121e-20)
(0.620366 -0.527522 -2.49475e-21)
(0.0356613 -0.0967198 0)
(0.167708 -0.388337 8.24736e-20)
(0.304019 -0.60976 3.36287e-19)
(0.410211 -0.723541 -2.75063e-19)
(0.488205 -0.757235 -5.4996e-19)
(0.547611 -0.746807 1.92601e-19)
(0.595613 -0.716865 -2.97305e-20)
(0.636345 -0.680481 -9.06458e-20)
(0.671406 -0.644122 0)
(0.708635 -0.61684 -8.40123e-21)
(0.0525511 -0.11369 1.99516e-20)
(0.233494 -0.446825 1.89239e-19)
(0.406311 -0.696309 7.9446e-20)
(0.530683 -0.82246 2.18702e-19)
(0.613653 -0.858002 -1.74133e-19)
(0.67111 -0.84411 -2.81328e-19)
(0.714319 -0.808644 4.9265e-19)
(0.749423 -0.766281 4.94428e-20)
(0.778738 -0.724422 -2.96981e-19)
(0.812755 -0.692527 -6.6168e-21)
(0.0736106 -0.130831 1.60133e-20)
(0.311023 -0.499353 1.84308e-19)
(0.524563 -0.770544 9.6833e-20)
(0.668449 -0.905068 2.24874e-20)
(0.756202 -0.940772 2.99139e-19)
(0.810933 -0.923239 -3.83941e-19)
(0.848479 -0.88284 -3.85557e-19)
(0.877157 -0.835413 -3.30175e-19)
(0.900142 -0.789011 2.40747e-19)
(0.930114 -0.752622 2.62459e-19)
(0.0993252 -0.147793 -1.20426e-19)
(0.399833 -0.54452 -4.06643e-20)
(0.656954 -0.830391 2.44799e-19)
(0.820668 -0.969094 -1.60374e-19)
(0.912492 -1.00339 3.12211e-19)
(0.96357 -0.982337 7.54588e-19)
(0.994649 -0.937996 5.28195e-19)
(1.01624 -0.886884 -4.06044e-19)
(1.03253 -0.83717 -1.94442e-19)
(1.05673 -0.796322 2.78851e-19)
(0.129948 -0.163863 -2.48495e-19)
(0.498813 -0.580586 -6.12625e-19)
(0.800726 -0.873661 7.71072e-19)
(0.983376 -1.01231 7.56248e-19)
(1.07786 -1.04378 -7.10036e-19)
(1.12403 -1.01957 7.92439e-19)
(1.14768 -0.972614 1.21637e-19)
(1.16145 -0.919631 -9.56712e-19)
(1.17065 -0.868015 -2.32913e-19)
(1.1853 -0.822892 3.10364e-19)
(0.165455 -0.178024 2.26748e-20)
(0.606477 -0.605482 -5.59323e-19)
(0.952871 -0.897972 -4.3991e-19)
(1.1525 -1.03233 7.35375e-19)
(1.24754 -1.0595 5.90007e-19)
(1.28691 -1.03232 -7.09373e-19)
(1.30141 -0.983689 -5.88641e-19)
(1.30574 -0.92999 3.50094e-19)
(1.30647 -0.876765 -3.59634e-19)
(1.3047 -0.828215 -2.2156e-19)
(0.626462 -0.164999 1.53828e-20)
(0.804472 -0.126026 -3.0118e-20)
(0.889085 -0.0986103 1.05127e-20)
(0.93818 -0.077184 5.62783e-21)
(0.966924 -0.0598147 -2.46763e-21)
(0.983925 -0.0455425 6.98694e-22)
(0.994329 -0.0337744 -1.12376e-21)
(1.00083 -0.023928 -3.21165e-21)
(1.00471 -0.0159924 5.05967e-21)
(1.00728 -0.00644222 3.06391e-21)
(0.644071 -0.236174 8.2399e-20)
(0.815596 -0.163928 -3.92434e-23)
(0.897072 -0.119144 4.03568e-21)
(0.944259 -0.0885923 -1.94389e-22)
(0.971738 -0.0664297 -2.71753e-22)
(0.987813 -0.0494901 0)
(0.9975 -0.0361719 -1.19723e-21)
(1.00345 -0.0253813 3.33878e-21)
(1.00697 -0.0168589 5.0539e-22)
(1.00923 -0.00677104 -3.21705e-21)
(0.67239 -0.304985 -4.76357e-20)
(0.831646 -0.200995 -2.57418e-20)
(0.907715 -0.139416 9.30297e-21)
(0.951725 -0.0998895 -8.63868e-21)
(0.977299 -0.0729498 -3.95957e-21)
(0.992132 -0.0533458 6.20266e-21)
(1.00093 -0.0384834 0)
(1.00625 -0.0267615 0)
(1.00934 -0.0176676 -4.78503e-22)
(1.01126 -0.00707378 0)
(0.7114 -0.370091 -2.8877e-20)
(0.852455 -0.236687 4.57387e-20)
(0.920941 -0.159181 8.08007e-21)
(0.960564 -0.110959 0)
(0.983604 -0.0793088 6.81324e-21)
(0.996876 -0.0570695 -4.2717e-23)
(1.00462 -0.0406842 0)
(1.0092 -0.0280528 -5.00883e-22)
(1.01181 -0.0184086 0)
(1.01337 -0.0073466 4.58453e-24)
(0.761023 -0.430175 -2.76749e-20)
(0.877829 -0.270542 7.26215e-20)
(0.936652 -0.178207 -4.55479e-21)
(0.970752 -0.121689 0)
(0.990642 -0.085444 -4.28986e-22)
(1.00203 -0.0606226 -5.37692e-22)
(1.00855 -0.0427496 6.27163e-21)
(1.01229 -0.0292392 1.26117e-21)
(1.01438 -0.0190721 -1.27482e-21)
(1.01554 -0.00758556 2.90293e-21)
(0.820897 -0.483849 -6.04248e-19)
(0.907509 -0.30219 -1.36441e-19)
(0.95472 -0.196322 1.93499e-21)
(0.982249 -0.131982 1.63531e-20)
(0.998401 -0.0912997 1.32442e-21)
(1.00759 -0.063969 1.12373e-21)
(1.0127 -0.0446555 -3.78372e-21)
(1.01552 -0.0303049 -1.01488e-21)
(1.01703 -0.0196477 -2.49202e-22)
(1.01776 -0.00778666 1.4784e-21)
(0.890056 -0.529551 -9.72324e-21)
(0.940862 -0.331047 5.50954e-20)
(0.974884 -0.213343 4.1082e-21)
(0.994976 -0.141749 -4.23301e-22)
(1.00685 -0.0968275 -1.19792e-20)
(1.01353 -0.0670772 5.37406e-21)
(1.01707 -0.0463799 1.14751e-24)
(1.01886 -0.0312343 -4.76652e-21)
(1.01973 -0.0201257 -8.73494e-23)
(1.02002 -0.00794601 -2.0593e-21)
(0.967412 -0.56668 2.54875e-19)
(0.976576 -0.356621 6.51672e-20)
(0.996339 -0.229003 0)
(1.00862 -0.150833 -2.30065e-21)
(1.01586 -0.101947 9.25494e-21)
(1.01979 -0.0699061 1.64228e-21)
(1.02161 -0.0478999 -4.19909e-21)
(1.0223 -0.0320135 1.20046e-21)
(1.02248 -0.0204975 1.84641e-23)
(1.0223 -0.00806083 2.93799e-22)
(1.05392 -0.597358 -3.73864e-19)
(1.01481 -0.380654 -1.75736e-19)
(1.01812 -0.244386 3.59727e-20)
(1.02245 -0.159663 1.10328e-21)
(1.02506 -0.106792 -2.04895e-21)
(1.02619 -0.0724811 -4.61212e-21)
(1.02625 -0.049211 7.16741e-23)
(1.02578 -0.0326327 5.95837e-22)
(1.02524 -0.0207553 -3.6229e-21)
(1.02459 -0.00813079 -4.04505e-21)
(1.15073 -0.620076 2.57797e-19)
(1.06107 -0.401865 -1.72385e-19)
(1.04206 -0.260315 -2.61575e-20)
(1.03667 -0.169263 -2.23378e-20)
(1.03425 -0.112018 -1.06575e-20)
(1.03255 -0.0751358 -5.05681e-21)
(1.03087 -0.0504556 -3.46386e-21)
(1.02926 -0.0331404 0)
(1.028 -0.0209122 1.33503e-21)
(1.02687 -0.00814556 1.13378e-21)
(1.29921 -0.604124 4.08413e-19)
(1.15435 -0.400675 1.15824e-19)
(1.09461 -0.261631 -7.45964e-20)
(1.06686 -0.170808 3.84489e-21)
(1.05209 -0.112919 5.07429e-21)
(1.04361 -0.0754184 -8.33198e-22)
(1.03809 -0.0503605 3.73208e-21)
(1.03423 -0.0328877 2.78526e-21)
(1.03169 -0.0206403 -2.65673e-21)
(1.0298 -0.00801953 7.37451e-22)
(1.35112 -0.501958 -6.39039e-21)
(1.19099 -0.34571 1.17359e-19)
(1.12419 -0.234243 8.92559e-20)
(1.08942 -0.157565 -1.03538e-20)
(1.068 -0.105928 3.90714e-20)
(1.05455 -0.0713007 2.4485e-20)
(1.0457 -0.0477466 1.7246e-20)
(1.03969 -0.0312006 -1.57682e-21)
(1.03584 -0.0195799 6.01864e-21)
(1.03311 -0.00759711 3.90897e-21)
(1.40522 -0.42998 -1.21357e-19)
(1.23984 -0.307892 -9.45311e-21)
(1.15841 -0.212863 3.77365e-21)
(1.11271 -0.145121 -1.58704e-37)
(1.08371 -0.0982886 1.92726e-21)
(1.06518 -0.0663657 -6.8196e-35)
(1.05302 -0.0444695 -3.89816e-21)
(1.0449 -0.0290413 -2.55527e-34)
(1.03978 -0.0182097 1.04942e-21)
(1.03623 -0.00705984 -3.08497e-21)
(1.43884 -0.354626 -1.85867e-34)
(1.27529 -0.263151 -2.97394e-20)
(1.18605 -0.186274 -3.14921e-20)
(1.13269 -0.129145 0)
(1.09768 -0.08833 -1.71413e-20)
(1.07482 -0.059922 -1.14624e-20)
(1.05973 -0.0402202 -5.60581e-21)
(1.04969 -0.0262699 -3.55789e-34)
(1.04341 -0.0164689 -1.48295e-21)
(1.03907 -0.00638381 2.99892e-21)
(1.46017 -0.285946 -6.96755e-20)
(1.30247 -0.219131 3.72653e-21)
(1.20866 -0.158159 0)
(1.14958 -0.111143 0)
(1.10979 -0.0766624 0)
(1.0833 -0.0522402 0)
(1.06568 -0.0351318 -8.67376e-22)
(1.05396 -0.0229573 -3.99651e-34)
(1.04663 -0.0143945 9.80137e-22)
(1.0416 -0.00558047 3.65246e-34)
(1.47319 -0.222706 -2.30488e-20)
(1.32268 -0.175384 0)
(1.22655 -0.128748 0)
(1.16337 -0.0915245 0)
(1.11987 -0.0636038 0)
(1.09046 -0.0435229 0)
(1.07075 -0.0293269 1.56209e-21)
(1.0576 -0.0191762 4.17307e-21)
(1.04939 -0.0120274 9.47689e-22)
(1.04374 -0.00466377 3.58134e-21)
(1.4807 -0.164404 0)
(1.33709 -0.132409 -9.16885e-21)
(1.24005 -0.0985602 -1.3385e-20)
(1.17407 -0.0707311 0)
(1.12784 -0.049465 -8.49156e-21)
(1.09619 -0.033973 -5.94337e-21)
(1.07482 -0.0229342 -2.50304e-21)
(1.06054 -0.015006 -2.52066e-21)
(1.05161 -0.0094138 3.77201e-21)
(1.04546 -0.00365072 2.26106e-21)
(1.48377 -0.110019 6.25186e-21)
(1.34566 -0.0902432 5.16985e-21)
(1.24863 -0.0678019 -2.51064e-21)
(1.18101 -0.0489924 3.79152e-36)
(1.13301 -0.034425 -3.48211e-22)
(1.09983 -0.0237103 -4.86229e-35)
(1.07732 -0.0160287 1.37932e-21)
(1.06223 -0.0104913 4.81324e-21)
(1.05279 -0.0065747 8.24329e-22)
(1.04628 -0.00254259 -2.67647e-21)
(1.46637 -0.056536 -2.95482e-20)
(1.33215 -0.0506796 8.7804e-21)
(1.23731 -0.0391213 1.01223e-20)
(1.17047 -0.028604 0)
(1.12267 -0.0202196 5.99113e-21)
(1.08943 -0.0139683 4.19052e-21)
(1.06679 -0.00945595 4.12051e-21)
(1.0516 -0.00619179 1.8173e-21)
(1.0421 -0.00387508 -1.29558e-21)
(1.03556 -0.00149264 3.00397e-21)
(1.16127 -0.00509702 0)
(1.06938 -0.00785858 0)
(0.999032 -0.00673757 0)
(0.947616 -0.00507637 0)
(0.910296 -0.00362386 0)
(0.884176 -0.00251899 0)
(0.866316 -0.00171105 1.25123e-21)
(0.854314 -0.00112487 -6.42464e-36)
(0.846786 -0.000687594 8.50378e-22)
(0.841655 -0.000252375 2.55389e-21)
(2.08397 -0.0291853 8.3632e-19)
(2.07347 -0.132316 5.69919e-20)
(2.04566 -0.233084 -1.17831e-19)
(2.0008 -0.329502 -3.30219e-19)
(1.94102 -0.419393 -1.08194e-19)
(1.86493 -0.502828 -1.65016e-19)
(1.78304 -0.570918 -4.08956e-19)
(1.675 -0.642448 1.25099e-19)
(1.59459 -0.667343 0)
(1.44336 -0.745333 4.26806e-20)
(1.99954 -0.021649 2.26731e-19)
(1.99116 -0.0990293 -3.15955e-19)
(1.97016 -0.175266 -1.86924e-20)
(1.93526 -0.249471 -1.30869e-19)
(1.89161 -0.318336 3.45623e-20)
(1.83068 -0.387703 1.26463e-19)
(1.77399 -0.436739 -1.29778e-20)
(1.68563 -0.509095 7.78011e-20)
(1.63001 -0.518371 -9.82067e-20)
(1.52162 -0.601752 2.50662e-20)
(1.92814 -0.0162749 -1.09808e-19)
(1.92174 -0.0775951 2.16852e-19)
(1.90552 -0.137723 1.76035e-19)
(1.87754 -0.196708 -2.27188e-19)
(1.84369 -0.250576 6.86139e-20)
(1.79453 -0.307836 1.58703e-19)
(1.7503 -0.344603 -4.03461e-20)
(1.68151 -0.408616 5.19747e-20)
(1.63318 -0.414866 5.80973e-20)
(1.55374 -0.487952 7.67667e-20)
(1.87297 -0.0143613 -2.17152e-19)
(1.86784 -0.0615331 1.57683e-20)
(1.85443 -0.107873 -6.60344e-20)
(1.83126 -0.153924 -4.94745e-20)
(1.80306 -0.195872 -2.63659e-20)
(1.763 -0.241887 -9.381e-20)
(1.72512 -0.270886 9.73191e-20)
(1.67134 -0.32349 2.11054e-20)
(1.62775 -0.329892 -6.21043e-21)
(1.56775 -0.389357 9.38409e-21)
(1.82988 -0.0119786 4.44838e-20)
(1.82564 -0.0480163 6.99814e-20)
(1.81413 -0.0834052 -4.63405e-20)
(1.79453 -0.118744 1.98584e-19)
(1.76995 -0.151001 -1.57513e-21)
(1.73664 -0.186669 -1.42363e-19)
(1.70289 -0.209665 2.13588e-20)
(1.65957 -0.250496 -7.83327e-20)
(1.62025 -0.257224 8.77779e-20)
(1.57266 -0.303148 6.2233e-20)
(1.79711 -0.0108022 -1.1524e-19)
(1.79357 -0.0373544 -5.60235e-20)
(1.78337 -0.0634406 1.93777e-20)
(1.76628 -0.089586 7.88704e-20)
(1.74413 -0.113655 8.56444e-20)
(1.71545 -0.140241 -4.08796e-20)
(1.68461 -0.158122 3.28728e-21)
(1.64804 -0.188546 2.86625e-20)
(1.61206 -0.195158 6.06516e-20)
(1.57206 -0.22944 -4.35706e-20)
(1.77302 -0.0100809 -4.14281e-20)
(1.77007 -0.0284607 -8.38541e-20)
(1.76087 -0.0464937 -7.34308e-20)
(1.74554 -0.0646347 -1.30731e-19)
(1.72508 -0.0815315 3.99641e-21)
(1.69944 -0.100234 9.81619e-21)
(1.67061 -0.113378 3.1006e-20)
(1.63817 -0.135017 3.08747e-22)
(1.60468 -0.140847 -3.32054e-20)
(1.56913 -0.165516 1.5701e-21)
(1.75283 -0.00933781 4.12111e-20)
(1.75086 -0.0203898 2.62768e-20)
(1.74295 -0.0311895 1.21155e-20)
(1.72942 -0.0420367 -2.22333e-20)
(1.71073 -0.0522457 -1.85175e-20)
(1.68754 -0.0638326 1.04607e-20)
(1.66045 -0.0722387 -9.08733e-21)
(1.63064 -0.0864991 -1.62354e-20)
(1.5989 -0.0907332 2.05261e-21)
(1.56587 -0.10822 3.38922e-20)
(1.69091 -0.0122084 -3.94193e-20)
(1.68998 -0.0157188 -2.95667e-21)
(1.68526 -0.0189158 6.24877e-20)
(1.67657 -0.0221219 -5.29962e-21)
(1.6636 -0.0249924 -9.70026e-21)
(1.64714 -0.0290462 8.893e-21)
(1.6263 -0.0313141 3.77031e-21)
(1.60379 -0.0381534 -1.2713e-20)
(1.57608 -0.0390875 1.83139e-20)
(1.55148 -0.0494271 6.70803e-20)
(1.21147 -0.00678122 3.67113e-20)
(1.20428 -0.00486045 2.68746e-20)
(1.19884 -0.00293939 2.38927e-20)
(1.19539 -0.00113285 3.27089e-20)
(1.19328 0.000544472 -1.08051e-20)
(1.19315 0.00184282 -1.05908e-20)
(1.1918 0.00329599 -8.59268e-22)
(1.1948 0.00293838 2.32781e-21)
(1.18833 0.00500173 -3.78333e-21)
(1.19806 0.00111741 4.16401e-21)
(1.3676 0.740346 -5.28204e-20)
(1.3572 0.78807 2.50859e-20)
(1.3626 0.841989 -4.31788e-19)
(1.37252 0.902418 2.19516e-19)
(1.38239 0.967103 8.14234e-19)
(1.38861 1.03367 -1.39731e-19)
(1.378 1.09184 -8.28474e-19)
(1.30699 1.09992 -4.10496e-20)
(1.07459 0.949574 -4.71379e-19)
(0.518029 0.477262 1.17145e-19)
(1.52111 0.712886 0)
(1.51798 0.760028 5.29538e-19)
(1.52148 0.81147 1.18666e-18)
(1.53067 0.870056 -7.10631e-19)
(1.54334 0.934054 -1.71051e-18)
(1.55471 1.00064 -1.40066e-19)
(1.54841 1.05887 -1.79784e-19)
(1.47318 1.06687 6.64177e-19)
(1.21217 0.918356 1.01056e-18)
(0.58241 0.458054 4.31927e-19)
(1.6547 0.685686 6.43097e-20)
(1.66274 0.730833 0)
(1.67165 0.778771 -6.70623e-20)
(1.68475 0.832652 7.24309e-19)
(1.70192 0.892036 5.30697e-20)
(1.71843 0.954603 -1.82357e-18)
(1.71561 1.00932 1.18158e-18)
(1.63495 1.01502 7.87519e-19)
(1.34426 0.869717 -9.18536e-19)
(0.642577 0.429363 -2.90028e-19)
(1.76673 0.646737 -1.1171e-19)
(1.78493 0.688086 -9.11024e-20)
(1.80291 0.731737 2.17951e-19)
(1.82397 0.780421 -2.73877e-19)
(1.84848 0.834325 -1.32814e-18)
(1.87164 0.891462 -1.03113e-18)
(1.8726 0.940843 1.16523e-18)
(1.78571 0.942821 7.93351e-19)
(1.46453 0.802238 0)
(0.694225 0.390067 0)
(1.863 0.588833 -7.71753e-19)
(1.88957 0.625768 -1.32982e-18)
(1.91673 0.664925 -5.33451e-19)
(1.94676 0.708395 -3.49133e-20)
(1.9797 0.756519 0)
(2.01015 0.807458 1.46007e-19)
(2.01464 0.850439 1.73285e-19)
(1.9203 0.848115 2.22015e-19)
(1.56782 0.715086 -3.38254e-19)
(0.733857 0.340599 -8.55804e-20)
(1.9484 0.511904 9.21545e-19)
(1.98137 0.544269 -4.51415e-20)
(2.01617 0.578708 -1.10068e-18)
(2.0542 0.616689 0)
(2.0949 0.658523 0)
(2.13188 0.70251 0)
(2.13858 0.738242 1.49108e-18)
(2.03475 0.731606 -1.86068e-18)
(1.65042 0.610258 -1.31745e-18)
(0.759577 0.283484 1.4893e-20)
(2.02321 0.419845 -1.2487e-18)
(2.06086 0.447169 -2.62359e-18)
(2.10152 0.476171 -4.58897e-21)
(2.14591 0.507914 5.37183e-19)
(2.19289 0.542664 -4.26068e-20)
(2.2348 0.578765 1.25828e-18)
(2.2415 0.607101 -7.3748e-19)
(2.12657 0.596517 -2.34831e-18)
(1.70911 0.491173 1.73873e-19)
(0.771438 0.221959 1.31575e-19)
(2.08473 0.316729 -1.01797e-18)
(2.12588 0.33815 1.7882e-20)
(2.17091 0.360705 3.99554e-19)
(2.22005 0.385283 -3.89742e-19)
(2.27163 0.412104 6.107e-19)
(2.31659 0.439763 1.78638e-18)
(2.32142 0.458962 -2.33986e-19)
(2.19203 0.448588 -1.36722e-18)
(1.74276 0.364795 3.59235e-19)
(0.770063 0.157821 6.79086e-20)
(2.12989 0.205572 3.854e-19)
(2.17372 0.220365 8.86214e-20)
(2.2219 0.235596 -4.29549e-19)
(2.27434 0.252186 -9.93364e-19)
(2.32889 0.270195 9.99406e-20)
(2.37492 0.288446 1.05287e-19)
(2.37508 0.300859 -1.70686e-18)
(2.22904 0.292373 7.839e-19)
(1.7523 0.232709 2.66425e-19)
(0.755734 0.0941038 -2.0259e-19)
(2.15741 0.088874 7.71418e-19)
(2.20285 0.0959978 -1.17551e-18)
(2.25273 0.103478 1.92665e-19)
(2.30692 0.111597 2.49214e-18)
(2.36268 0.120493 1.32029e-18)
(2.40763 0.129635 -3.06701e-18)
(2.40076 0.135884 -3.34676e-18)
(2.23823 0.131252 1.81548e-18)
(1.73721 0.099713 -6.89265e-22)
(0.729328 0.0331824 2.4925e-20)
(0.520725 0.197067 -1.92475e-19)
(0.485978 0.203836 -1.73156e-19)
(0.443394 0.211215 1.0345e-19)
(0.395157 0.219182 -3.43279e-19)
(0.342206 0.227758 -4.67514e-20)
(0.283935 0.236819 2.87902e-19)
(0.219163 0.244893 8.12408e-20)
(0.147596 0.2449 -5.12244e-20)
(0.0752359 0.215618 -7.76673e-21)
(0.0131585 0.115637 2.48321e-20)
(0.547488 0.297033 1.55671e-19)
(0.513543 0.310475 2.23946e-19)
(0.472299 0.325367 3.50487e-20)
(0.425646 0.341494 -9.68669e-20)
(0.374415 0.358794 -3.2228e-19)
(0.317975 0.377061 1.85629e-20)
(0.254867 0.393762 1.89656e-19)
(0.183624 0.396684 7.39641e-22)
(0.107215 0.349879 -4.70687e-20)
(0.030364 0.186315 -1.45846e-20)
(0.591327 0.392767 -1.69276e-19)
(0.558817 0.412657 -1.81202e-19)
(0.519893 0.434688 1.56706e-19)
(0.47594 0.458552 1.44345e-19)
(0.427599 0.484138 -6.23509e-20)
(0.374209 0.511152 -1.20887e-19)
(0.31384 0.536011 -8.5533e-20)
(0.243015 0.541537 2.23064e-20)
(0.159623 0.477622 -3.34862e-20)
(0.0582307 0.253107 5.48608e-21)
(0.651198 0.482098 9.26018e-20)
(0.620721 0.508115 -5.11521e-21)
(0.585027 0.536737 -1.27386e-19)
(0.544817 0.567722 7.94636e-20)
(0.500475 0.600962 -9.06499e-20)
(0.451297 0.636061 3.50195e-20)
(0.394699 0.668411 -1.25238e-19)
(0.324391 0.67613 -4.3765e-20)
(0.231109 0.595844 -2.16893e-19)
(0.0958882 0.314297 4.98347e-20)
(0.725621 0.563061 -2.89383e-20)
(0.697735 0.59477 -1.04906e-20)
(0.666125 0.629288 -4.24727e-20)
(0.630672 0.666613 -1.52134e-19)
(0.591415 0.7067 6.69028e-20)
(0.547563 0.749037 -8.13592e-20)
(0.495709 0.788015 1.50158e-19)
(0.426034 0.79737 -1.36562e-20)
(0.319955 0.701747 2.83232e-19)
(0.142275 0.368407 2.18057e-19)
(0.812562 0.633974 -2.55655e-22)
(0.787677 0.67066 -6.19536e-20)
(0.760807 0.710042 1.55221e-19)
(0.730936 0.752645 8.74594e-20)
(0.69772 0.798568 1.95997e-19)
(0.660235 0.847135 1.00708e-19)
(0.61404 0.891711 3.89471e-19)
(0.545111 0.901981 1.87853e-19)
(0.423803 0.792138 1.68593e-19)
(0.196083 0.413645 1.91327e-19)
(0.910016 0.692535 -9.29376e-20)
(0.88915 0.733552 2.74308e-19)
(0.86828 0.776907 1.62224e-19)
(0.845202 0.823713 -1.7177e-19)
(0.819035 0.874322 -9.57203e-20)
(0.788708 0.927957 4.50415e-19)
(0.748654 0.977051 -9.56012e-20)
(0.680098 0.987673 -2.93658e-19)
(0.540877 0.865124 -4.74643e-20)
(0.255999 0.448918 2.12389e-19)
(1.01003 0.739471 1.56406e-19)
(0.99247 0.783146 5.27042e-20)
(0.978058 0.828747 -5.30684e-19)
(0.963183 0.878479 5.18761e-20)
(0.946037 0.932668 3.26144e-19)
(0.924949 0.990122 -2.43092e-19)
(0.892728 1.04225 -5.31343e-20)
(0.825119 1.05202 -1.32106e-19)
(0.666338 0.918057 1.42577e-20)
(0.31943 0.472785 -2.79881e-19)
(1.12684 0.761744 2.23473e-20)
(1.11651 0.808565 -3.57425e-19)
(1.10937 0.855845 -2.78452e-21)
(1.10124 0.907579 2.95243e-19)
(1.09084 0.964841 -2.92858e-19)
(1.07688 1.02606 6.10747e-19)
(1.05072 1.0815 4.47451e-19)
(0.982083 1.0915 -7.37158e-19)
(0.800329 0.949743 -5.07333e-20)
(0.385751 0.485429 -3.00787e-19)
(1.20776 0.777649 -2.02059e-19)
(1.2094 0.825644 -2.04295e-19)
(1.21952 0.874417 2.29727e-19)
(1.22756 0.92729 5.02136e-19)
(1.23101 0.985127 2.04648e-19)
(1.22889 1.04666 -5.15372e-19)
(1.21149 1.1019 2.98064e-20)
(1.14258 1.10961 1.63179e-19)
(0.936713 0.961085 -2.44118e-19)
(0.452269 0.486964 -2.18768e-19)
(0.756896 0.0223083 1.22618e-20)
(1.17905 0.0390448 -1.9278e-20)
(0.919963 0.0452171 -8.4681e-21)
(1.01982 0.0484878 0)
(0.992624 0.0558985 1.92909e-20)
(0.971472 0.066578 2.41109e-20)
(0.94669 0.0810764 3.08894e-20)
(0.897921 0.100016 6.29191e-20)
(0.832914 0.126375 -9.22725e-20)
(0.662625 0.162093 -1.04043e-19)
(0.756477 0.0197376 3.73695e-20)
(1.1791 0.0389018 -6.48666e-20)
(0.920505 0.0474574 -7.62291e-22)
(1.02157 0.0501412 -1.19503e-20)
(0.995259 0.0594819 9.78227e-21)
(0.975326 0.0725836 -1.23525e-20)
(0.951811 0.0915443 -7.71292e-20)
(0.905617 0.117527 0)
(0.842355 0.162055 2.00453e-19)
(0.684076 0.22575 -2.45828e-19)
(0.755852 0.0172538 -4.81683e-20)
(1.17934 0.0386276 1.7972e-20)
(0.920942 0.0494598 3.21905e-20)
(1.02374 0.0515794 1.5011e-20)
(0.998252 0.0628691 -2.36254e-20)
(0.979873 0.0784229 5.00559e-22)
(0.958007 0.101818 -5.50219e-20)
(0.916084 0.134952 -4.94507e-21)
(0.855505 0.197165 2.69336e-22)
(0.718302 0.287284 6.13739e-19)
(0.755017 0.0149654 -1.40515e-20)
(1.17972 0.0382246 3.53907e-21)
(0.921284 0.0511746 2.72912e-20)
(1.02635 0.0527952 1.55742e-20)
(1.00161 0.0660403 -1.13246e-20)
(0.985111 0.084053 -1.41664e-20)
(0.965353 0.111806 8.24146e-20)
(0.929225 0.152161 -1.45996e-21)
(0.872518 0.231372 -2.47714e-19)
(0.764644 0.345478 6.53937e-20)
(0.753964 0.0129346 1.12484e-20)
(1.18015 0.0376753 -3.63526e-20)
(0.921552 0.0525487 -2.11823e-20)
(1.02941 0.053785 7.32273e-21)
(1.00535 0.0689779 0)
(0.991035 0.0894355 0)
(0.973927 0.121441 7.04582e-20)
(0.944908 0.169008 2.53243e-22)
(0.893607 0.264097 -1.19241e-19)
(0.822241 0.39948 8.95456e-20)
(0.752686 0.0112299 3.4906e-22)
(1.18057 0.0369526 3.04185e-20)
(0.921775 0.053528 -4.71324e-20)
(1.03293 0.0545516 -3.15712e-20)
(1.00945 0.0716651 -6.66395e-23)
(0.997641 0.0945376 5.82138e-20)
(0.983803 0.130688 1.1012e-19)
(0.962921 0.185345 -7.55869e-22)
(0.919138 0.294471 1.97497e-19)
(0.890004 0.449262 -1.96934e-19)
(0.751173 0.00993782 -2.36426e-20)
(1.18088 0.0360174 1.59933e-20)
(0.921992 0.0540587 -8.20657e-21)
(1.03691 0.0551049 -5.41715e-20)
(1.01392 0.0740838 4.00299e-22)
(1.00493 0.0993302 -1.12733e-21)
(0.995029 0.139513 -6.58013e-21)
(0.98298 0.201105 -1.95291e-19)
(0.949639 0.321267 1.48888e-19)
(0.965796 0.493424 -4.60743e-19)
(0.749406 0.00914322 7.14461e-21)
(1.18097 0.0348034 -4.68374e-20)
(0.922257 0.0540886 2.00499e-20)
(1.04137 0.0554608 3.99961e-20)
(1.01872 0.0762068 2.68327e-22)
(1.01291 0.103772 -6.81299e-20)
(1.00764 0.147798 -6.05747e-20)
(1.00479 0.216358 3.51779e-19)
(0.985591 0.344809 1.12335e-20)
(1.04792 0.537547 7.42178e-19)
(0.747361 0.00893809 6.40495e-22)
(1.18085 0.0332397 2.0761e-20)
(0.922645 0.0535446 1.22644e-20)
(1.04629 0.0556333 -4.20196e-20)
(1.02381 0.077994 -7.14757e-20)
(1.0215 0.107764 1.47165e-21)
(1.02156 0.155082 -8.33637e-20)
(1.02835 0.22923 4.57116e-19)
(1.02977 0.358484 -7.20526e-21)
(1.13085 0.562079 -1.01077e-18)
(0.74504 0.00954975 5.26042e-21)
(1.18126 0.0315673 3.10212e-20)
(0.923047 0.0524029 1.14763e-20)
(1.05171 0.0556783 -9.10038e-20)
(1.02888 0.0796229 -6.77042e-20)
(1.02969 0.112043 -5.79309e-20)
(1.03397 0.164045 -1.49411e-19)
(1.0471 0.247076 -4.27133e-19)
(1.06812 0.384131 -2.46815e-19)
(1.21677 0.619144 -1.10054e-18)
(0.743967 0.00947294 -1.47923e-20)
(1.18391 0.0289841 -6.44168e-21)
(0.924624 0.0495103 -1.02619e-20)
(1.05787 0.0546773 9.29489e-21)
(1.0378 0.0786873 5.06216e-20)
(1.04424 0.111841 -4.01156e-20)
(1.05768 0.163921 1.33882e-19)
(1.08517 0.244849 -4.21734e-19)
(1.13475 0.364644 -1.78122e-19)
(1.24739 0.604067 5.83232e-19)
(0.744329 0.00708502 1.12518e-20)
(1.18786 0.0256057 1.23282e-20)
(0.928935 0.0443031 -1.72658e-22)
(1.06336 0.0518078 4.28224e-20)
(1.04825 0.0745782 7.91576e-20)
(1.0599 0.106641 1.17208e-19)
(1.08163 0.155474 2.81561e-20)
(1.12252 0.228969 2.21149e-19)
(1.18628 0.33272 2.86032e-19)
(1.3201 0.518543 -5.10761e-21)
(0.744487 0.0041038 -1.49733e-20)
(1.19211 0.0217787 -3.76253e-21)
(0.933598 0.0389297 -4.57143e-21)
(1.06897 0.0478058 1.55036e-20)
(1.05829 0.0690724 2.19202e-34)
(1.07461 0.0990706 -8.0762e-21)
(1.10327 0.143425 -5.35906e-34)
(1.15474 0.208295 1.88217e-20)
(1.2248 0.292725 -5.34047e-20)
(1.37827 0.442764 -4.67007e-20)
(0.744717 0.000265315 3.06594e-20)
(1.19639 0.0172582 -4.08292e-35)
(0.938267 0.0332542 4.26721e-21)
(1.07445 0.0427794 -1.67623e-20)
(1.06756 0.0622222 -3.15904e-20)
(1.08793 0.0894183 -3.9226e-20)
(1.12235 0.128483 -6.63658e-34)
(1.18151 0.184353 -9.51007e-20)
(1.25553 0.250978 -1.32635e-19)
(1.41689 0.368766 8.56705e-20)
(0.745092 -0.0046313 0)
(1.20083 0.0121037 9.88686e-36)
(0.94288 0.0273172 0)
(1.07963 0.0369085 0)
(1.07587 0.0541889 0)
(1.0996 0.078003 0)
(1.13868 0.111275 -3.96519e-34)
(1.20304 0.157984 0)
(1.28012 0.209017 -2.02617e-20)
(1.43974 0.299042 5.20029e-20)
(0.745692 -0.0106051 1.65542e-20)
(1.20573 0.00642169 -2.3777e-21)
(0.947429 0.0212551 3.57365e-21)
(1.08435 0.0303933 0)
(1.08305 0.0451731 0)
(1.10946 0.0651682 6.82741e-21)
(1.15219 0.0923792 2.7654e-20)
(1.21984 0.129927 -1.40224e-20)
(1.2992 0.167815 -2.99556e-20)
(1.45227 0.233921 1.96786e-19)
(0.746604 -0.0184098 -5.67641e-20)
(1.21131 0.00011225 4.21123e-21)
(0.951904 0.0152217 3.20931e-21)
(1.08844 0.023443 -5.35853e-21)
(1.08897 0.0353832 -1.07855e-20)
(1.11739 0.0512374 -8.64698e-21)
(1.16286 0.072261 -2.07611e-20)
(1.23245 0.100803 -3.91794e-20)
(1.3133 0.127738 -5.32905e-20)
(1.4586 0.173435 7.84999e-20)
(0.747797 -0.0244683 -2.36238e-20)
(1.21775 -0.00593481 -1.42991e-20)
(0.956024 0.00999618 2.73822e-21)
(1.09141 0.0162818 -1.17136e-20)
(1.09315 0.0249946 4.91271e-35)
(1.12302 0.0364777 7.36008e-21)
(1.17041 0.0512298 -9.54507e-34)
(1.24111 0.0709373 -1.42016e-20)
(1.32267 0.0885548 1.87338e-20)
(1.46141 0.116161 2.58181e-20)
(0.746438 -0.0438857 1.74022e-19)
(1.21267 -0.0142525 -1.01458e-20)
(0.94919 0.00314328 2.58866e-21)
(1.08288 0.00997217 2.82181e-21)
(1.08534 0.0147934 3.24077e-21)
(1.11622 0.0220243 1.37318e-20)
(1.16489 0.0308415 7.76024e-21)
(1.23628 0.0425164 -5.24605e-21)
(1.31767 0.0523328 -2.15734e-20)
(1.45366 0.0661608 1.37636e-19)
(0.682835 -0.0291701 2.07859e-20)
(1.01739 -0.0136373 -7.17577e-35)
(0.766761 0.00244975 1.78668e-21)
(0.890825 0.000919099 0)
(0.8872 0.00301023 0)
(0.91444 0.00452472 7.59311e-21)
(0.9571 0.00625453 -9.10966e-36)
(1.01843 0.00880253 -1.41023e-20)
(1.08959 0.0105532 -2.73756e-20)
(1.19876 0.012677 5.62023e-20)
(1.44992 0.627266 -1.70606e-19)
(1.54436 0.613737 -2.76059e-19)
(1.64411 0.595136 0)
(1.73547 0.563464 1.00783e-19)
(1.81718 0.513129 4.88135e-19)
(1.89156 0.444609 -1.30956e-19)
(1.95791 0.362358 1.43775e-18)
(2.01274 0.271158 -6.50079e-20)
(2.05323 0.173993 -3.46595e-19)
(2.07715 0.0742331 3.17538e-19)
(1.49251 0.512189 6.72561e-20)
(1.55978 0.501668 1.09265e-19)
(1.63795 0.480537 -5.29682e-21)
(1.71569 0.445944 1.69649e-19)
(1.78594 0.398875 -1.48144e-19)
(1.84793 0.341559 -3.69089e-19)
(1.90147 0.276507 -9.43519e-20)
(1.94475 0.206038 5.1443e-19)
(1.97612 0.132036 -2.01756e-20)