/*--------------------------------*- C++ -*----------------------------------*\
  =========                 |
  \\      /  F ield         | OpenFOAM: The Open Source CFD Toolbox
   \\    /   O peration     | Website:  https://openfoam.org
    \\  /    A nd           | Version:  13
     \\/     M anipulation  |
\*---------------------------------------------------------------------------*/
FoamFile
{
    format      ascii;
    class       volVectorField;
    location    "2.28";
    object      U;
}
// * * * * * * * * * * * * * * * * * * * * * * * * * * * * * * * * * * * * * //

dimensions      [0 1 -1 0 0 0 0];

internalField   nonuniform List<vector> 
440
(
(-0.116152 0.0922601 -1.04879e-19)
(-0.127878 0.158822 1.00602e-19)
(0.152349 0.138143 -1.21203e-20)
(0.614029 0.073702 3.2608e-19)
(1.15825 -0.0573642 -1.28773e-21)
(-0.107032 0.0593574 4.14363e-20)
(0.137501 0.00779493 -1.58546e-19)
(0.775022 -0.070483 -1.03266e-19)
(1.42371 -0.134549 5.82667e-20)
(1.98156 -0.190535 -9.82038e-21)
(-0.00440354 -0.00212916 6.83013e-20)
(0.697199 -0.0744357 9.01732e-19)
(1.53287 -0.0974086 -5.4685e-19)
(2.09911 -0.0939783 -1.79991e-18)
(2.42869 -0.0976614 7.84159e-19)
(0.253903 -0.0535986 -1.89367e-19)
(1.36081 -0.0177672 -6.2877e-19)
(2.0927 0.0226675 2.14883e-18)
(2.4144 0.0448875 2.32313e-18)
(2.48354 0.0414976 -6.60919e-19)
(0.639353 -0.00243452 -3.39082e-19)
(1.83688 0.161116 -7.21239e-19)
(2.35009 0.22303 2.20328e-18)
(2.49803 0.22829 2.36262e-18)
(2.55385 0.212733 7.9379e-19)
(-0.0432068 0.279161 1.75987e-19)
(-0.16132 0.350136 8.22272e-20)
(-0.250518 0.283781 -2.60872e-19)
(-0.312013 0.200109 1.56652e-20)
(-0.33455 0.129032 -1.80377e-19)
(-0.102095 0.413384 -3.1122e-20)
(-0.219252 0.545464 -3.0435e-19)
(-0.281802 0.45063 8.31077e-20)
(-0.302948 0.323349 8.08187e-20)
(-0.278385 0.208617 -1.3982e-19)
(-0.151679 0.43621 -3.30458e-19)
(-0.234896 0.671012 2.14781e-19)
(-0.219871 0.592636 -1.3981e-19)
(-0.165223 0.408769 -5.30624e-19)
(-0.0673286 0.217182 -8.44959e-23)
(-0.144298 0.295606 -2.46135e-20)
(-0.217951 0.585364 1.429e-21)
(-0.165077 0.612328 7.20176e-20)
(-0.0681369 0.477057 3.99617e-19)
(0.182989 0.227316 -4.15578e-20)
(-0.114606 0.150045 -6.03517e-20)
(-0.200236 0.352587 -8.00577e-20)
(-0.112356 0.415539 -1.23739e-20)
(0.0530335 0.344685 -8.3956e-20)
(0.543623 0.14886 -7.99215e-20)
(-0.261426 -0.222718 -7.146e-19)
(0.337644 -0.369035 1.09031e-19)
(0.711157 -0.225474 4.40645e-21)
(0.911774 -0.144399 -1.05762e-20)
(1.01876 -0.0663461 -4.54353e-21)
(0.0633514 -0.337298 1.53796e-18)
(0.44153 -0.509435 -1.15786e-19)
(0.765724 -0.307707 1.85552e-20)
(0.940722 -0.184175 2.07857e-20)
(1.0299 -0.0806319 1.09646e-20)
(0.651029 -0.458225 6.66832e-19)
(0.72605 -0.594155 7.87755e-19)
(0.883909 -0.371384 -1.99426e-20)
(0.99164 -0.21608 4.28515e-20)
(1.04654 -0.0918955 -3.55137e-21)
(1.24496 -0.56154 -3.96115e-19)
(1.13524 -0.622825 -2.98347e-19)
(1.07364 -0.397717 -4.1389e-20)
(1.07153 -0.231734 -5.01217e-20)
(1.07056 -0.0976807 1.44766e-20)
(1.64507 -0.639874 -1.6395e-19)
(1.4804 -0.622119 -7.42734e-19)
(1.27743 -0.386947 0)
(1.16997 -0.224525 6.04594e-20)
(1.10155 -0.0953336 9.49066e-21)
(2.21945 -0.630074 -4.17558e-19)
(1.81566 -0.58592 2.29381e-19)
(1.47579 -0.350574 -8.52261e-21)
(1.27633 -0.190135 5.33814e-20)
(1.13912 -0.0803793 -3.86784e-20)
(2.20127 -0.559271 5.04205e-20)
(1.63112 -0.412954 3.87164e-20)
(1.31219 -0.201369 -7.56837e-21)
(1.19613 -0.105391 -6.56001e-20)
(1.11152 -0.0486103 0)
(2.18388 -0.38207 -4.57459e-19)
(1.74068 -0.293165 1.6e-20)
(1.4018 -0.157108 -8.68967e-20)
(1.24142 -0.0870662 2.45694e-20)
(1.12393 -0.0387168 -1.10905e-20)
(2.03257 -0.282548 4.56613e-20)
(1.56569 -0.171527 8.3089e-20)
(1.27284 -0.0396047 -2.12387e-20)
(1.14731 -0.00719039 -1.91746e-34)
(1.05736 -0.00629356 7.9941e-21)
(1.2316 -0.068107 1.24682e-19)
(0.792638 -0.018491 -1.28998e-22)
(0.683622 0.00501725 -2.76099e-21)
(0.687431 0.00426711 -4.76571e-21)
(0.67937 0.000671382 1.41135e-21)
(2.40724 0.206708 -9.93289e-19)
(2.59285 0.0187534 -1.19414e-18)
(2.396 -0.0377679 9.13307e-19)
(2.63541 -0.219465 8.41308e-21)
(2.12346 -0.150806 -3.57628e-20)
(2.21061 0.10924 6.8514e-20)
(2.38622 0.0263943 -4.06997e-20)
(2.30369 -0.0651734 -1.33166e-19)
(2.42074 -0.184333 -1.78859e-19)
(2.32595 -0.266852 -6.14044e-21)
(2.17292 0.0490274 7.96426e-20)
(2.23384 0.0210106 9.88436e-20)
(2.25818 -0.0790323 -1.30633e-19)
(2.26763 -0.130752 4.63533e-20)
(2.28069 -0.222404 2.39049e-20)
(2.10342 0.000398063 1.22569e-19)
(2.10867 -0.0133763 1.39341e-19)
(2.1811 -0.0775391 -2.00088e-20)
(2.14408 -0.10557 -2.94902e-20)
(2.20604 -0.162411 2.86949e-20)
(1.5994 -0.0253805 1.81073e-19)
(1.56498 -0.0223644 -1.34314e-20)
(1.59503 -0.0426899 2.51661e-20)
(1.51089 -0.0371339 -2.28632e-20)
(1.54927 -0.0643917 1.43238e-20)
(1.62002 0.935142 1.21154e-18)
(1.57783 1.02582 -3.57257e-19)
(1.58178 1.14989 -1.37762e-18)
(1.51613 1.18261 7.75101e-19)
(0.939785 0.853768 -1.89743e-19)
(1.91285 0.842966 -6.05687e-19)
(1.89161 0.92656 -3.25937e-18)
(1.89396 1.03789 -1.26935e-18)
(1.80857 1.04475 -4.33684e-19)
(1.10706 0.730957 -7.12177e-19)
(2.17393 0.73051 8.8558e-19)
(2.16476 0.795891 2.04568e-19)
(2.16438 0.878949 -2.5303e-18)
(2.03076 0.857127 -6.94641e-19)
(1.19527 0.563322 4.88293e-19)
(2.36852 0.578806 2.5978e-18)
(2.36536 0.624273 1.8743e-18)
(2.34976 0.677981 -2.11917e-18)
(2.1355 0.632858 -1.6405e-18)
(1.16445 0.363905 -2.87676e-19)
(2.47342 0.397885 1.24747e-18)
(2.49074 0.428063 -8.73565e-19)
(2.42724 0.448007 6.40656e-19)
(2.08542 0.389094 5.01531e-19)
(0.981785 0.158763 -4.35223e-19)
(0.553023 0.489589 -4.67761e-19)
(0.46679 0.52811 -3.44809e-19)
(0.353656 0.571429 3.45297e-20)
(0.222751 0.59455 8.57149e-21)
(0.0571233 0.438735 9.96738e-20)
(0.66912 0.681021 1.99462e-19)
(0.6035 0.748103 -2.04636e-19)
(0.517677 0.82241 1.9151e-19)
(0.396439 0.867215 -9.03532e-20)
(0.174267 0.64793 1.25311e-19)
(0.818626 0.833403 8.03348e-20)
(0.744132 0.911503 5.29101e-19)
(0.683456 1.01224 1.23648e-19)
(0.597772 1.07391 -3.31803e-19)
(0.328367 0.804431 2.78521e-19)
(1.08671 0.955476 3.24845e-19)
(1.03683 1.04806 -8.81649e-19)
(0.981478 1.14667 -2.20363e-18)
(0.89406 1.19888 8.70843e-19)
(0.529198 0.891259 -1.79291e-19)
(1.22995 0.950485 -1.49356e-19)
(1.24628 1.07628 -2.2817e-19)
(1.25973 1.19933 -3.73537e-19)
(1.20225 1.24358 -4.36787e-19)
(0.740164 0.911729 -7.07684e-21)
(0.915809 0.0273128 -1.09698e-19)
(1.08055 0.0601053 -3.96506e-20)
(0.991788 0.137887 -2.28583e-21)
(0.951884 0.170971 -3.66988e-19)
(0.859457 0.299027 2.79319e-19)
(0.915639 0.0217893 7.50033e-20)
(1.08228 0.0616442 1.36908e-19)
(0.997384 0.144903 1.31396e-19)
(0.975519 0.205942 5.26753e-20)
(0.931533 0.376602 -3.91266e-20)
(0.918055 0.0173881 1.02725e-19)
(1.07738 0.0601397 -4.86684e-21)
(1.02776 0.158785 -4.97191e-21)
(0.948759 0.213995 1.7887e-19)
(1.15721 0.51504 -4.81001e-19)
(0.918649 0.0132462 -1.61048e-21)
(1.0813 0.0583101 -1.7539e-19)
(1.03066 0.171564 -6.86412e-20)
(1.02504 0.221417 -4.4309e-19)
(1.20121 0.540232 1.26286e-19)
(0.918095 0.00946396 -2.25886e-20)
(1.08136 0.0594913 4.64925e-20)
(1.06359 0.176109 3.33578e-20)
(1.00841 0.242121 4.87021e-19)
(1.47093 0.692665 -4.56188e-19)
(0.903083 0.0055591 -1.8087e-20)
(1.11092 0.0470614 8.92316e-20)
(1.05107 0.194538 -9.3892e-20)
(1.16499 0.176487 8.689e-19)
(1.40953 0.642981 -4.44173e-19)
(0.901887 -0.0109112 -2.25431e-21)
(1.11993 0.038135 -8.26334e-20)
(1.0626 0.148016 5.00748e-21)
(1.2631 0.144661 -2.78057e-19)
(1.4444 0.447991 1.63346e-20)
(0.906844 -0.0170771 -7.61945e-21)
(1.11233 0.0264658 1.28992e-35)
(1.11542 0.10837 -4.57772e-20)
(1.29458 0.085758 8.95567e-20)
(1.44379 0.328 1.63441e-19)
(0.915844 -0.041501 5.25559e-21)
(1.07931 -0.00742705 -2.31423e-20)
(1.15561 0.0430802 1.90579e-20)
(1.24032 0.0562454 3.50476e-20)
(1.47589 0.20633 -2.47414e-19)
(0.867501 -0.023513 -3.51512e-20)
(0.892712 -0.020696 -2.56207e-21)
(0.890141 0.00585763 2.87002e-20)
(0.927579 0.00891674 -1.54796e-20)
(1.18243 0.0604442 -5.64329e-20)
(1.8481 0.773707 3.72951e-19)
(1.94378 0.691789 8.95851e-19)
(2.19454 0.615957 -1.23132e-18)
(2.25208 0.490372 8.42795e-20)
(2.45831 0.325804 4.89012e-19)
(1.74397 0.531564 1.46126e-20)
(1.81561 0.428783 9.79314e-19)
(1.98709 0.425229 9.07211e-20)
(2.04352 0.281208 -9.83351e-19)
(2.22819 0.232742 -3.11426e-19)
(1.69937 0.355195 -2.08038e-19)
(1.80875 0.273877 -1.55888e-19)
(1.91478 0.278711 2.01744e-19)
(2.01948 0.171488 -3.17936e-19)
(2.11174 0.161916 2.81282e-19)
(1.70015 0.207564 3.50501e-19)
(1.79609 0.153896 -4.22096e-21)
(1.87252 0.14995 2.38264e-19)
(1.97035 0.0821727 2.06728e-19)
(2.01925 0.0722634 -1.96064e-19)
(1.39632 0.0460332 -4.23137e-20)
(1.46 0.0260475 2.41082e-19)
(1.51267 0.0186299 1.13488e-19)
(1.55717 -0.00246387 -2.34567e-19)
(1.57006 -0.00586559 5.04306e-22)
(1.07452 -0.0205768 5.21834e-20)
(2.05719 -0.0514822 -3.64529e-19)
(2.29471 -0.040537 1.00219e-18)
(2.27585 -0.00142138 4.34115e-19)
(2.14878 0.0306354 -3.01138e-19)
(0.652353 0.0869965 8.62707e-20)
(1.83606 0.0703782 -3.66585e-19)
(2.30395 0.069157 -4.72011e-19)
(2.39367 0.0808275 5.32929e-19)
(2.12272 0.0675028 -2.86437e-19)
(0.182027 0.0647675 -2.51891e-20)
(1.18665 0.120584 3.85325e-19)
(1.93921 0.133315 5.28609e-20)
(2.32801 0.114335 1.88493e-19)
(2.57956 0.11825 3.25811e-20)
(-0.0489352 -0.0252952 1.87254e-19)
(0.388392 0.0600734 1.88752e-19)
(1.13596 0.114287 -3.68369e-19)
(1.62603 0.134077 1.03759e-20)
(2.19663 0.145635 -2.04428e-19)
(-0.0795083 -0.0509869 1.1013e-19)
(-0.0208567 -0.0380751 -1.63283e-19)
(0.355647 0.00590351 -4.57202e-20)
(0.790409 -0.000657082 -3.88732e-20)
(1.1091 0.00251105 -9.67204e-20)
(-0.0456609 -0.0512565 -8.73477e-20)
(-0.105655 -0.165351 1.09356e-19)
(-0.0274857 -0.227898 3.77189e-20)
(0.107681 -0.248172 1.68154e-21)
(0.383315 -0.233113 -1.84602e-20)
(-0.0702906 -0.148887 7.73735e-21)
(-0.130052 -0.342869 2.69255e-20)
(-0.115385 -0.384976 3.10764e-20)
(-0.0606403 -0.334735 6.45095e-20)
(0.0557899 -0.247159 2.7885e-20)
(-0.0779531 -0.165902 -6.81086e-21)
(-0.182015 -0.261943 -3.0556e-19)
(-0.234281 -0.218292 2.62503e-19)
(-0.256425 -0.158713 5.71542e-19)
(-0.24102 -0.121113 -4.6509e-20)
(-0.0308253 -0.0280686 1.87479e-20)
(-0.151754 -0.0734381 9.31863e-20)
(-0.244091 -0.0865904 -2.03604e-19)
(-0.303039 -0.078959 -1.38367e-19)
(-0.325431 -0.0705455 -1.96808e-20)
(-0.0133294 0.12599 -6.40809e-21)
(-0.119653 0.144335 2.29994e-20)
(-0.213501 0.110743 -1.10726e-20)
(-0.284042 0.0735065 3.78616e-20)
(-0.316308 0.0399388 3.948e-20)
(1.44829 0.25651 -3.17847e-20)
(1.31104 0.100071 8.96289e-19)
(1.03901 0.0825621 -5.10694e-20)
(0.966146 0.0615747 1.21017e-20)
(1.01372 0.0180172 -4.99532e-22)
(0.783393 0.178171 9.1806e-20)
(0.63682 0.16332 -4.67613e-19)
(0.747831 0.0899827 -1.45896e-19)
(0.887993 0.0202788 -2.09307e-21)
(1.00636 -0.00567514 -6.90496e-21)
(-0.00557711 0.0896098 2.69172e-19)
(0.32151 0.0810501 -8.97565e-19)
(0.668032 0.0169383 1.35993e-20)
(0.877218 -0.0112548 1.52443e-20)
(1.00373 -0.0144145 4.7074e-21)
(-0.288127 -0.0109691 7.54807e-21)
(0.303587 -0.0569587 4.02191e-19)
(0.671268 -0.0654973 3.77027e-20)
(0.882059 -0.0630418 -3.28918e-22)
(1.00627 -0.0355936 1.0419e-21)
(-0.318216 -0.112272 3.11382e-20)
(0.321172 -0.209672 1.89002e-19)
(0.689118 -0.142957 -1.59146e-20)
(0.895283 -0.101728 2.73619e-21)
(1.01135 -0.0501638 1.64489e-22)
(0.642993 0.09715 -4.86287e-20)
(0.310645 -0.074746 0)
(0.380782 -0.0840391 -2.68323e-20)
(0.512623 -0.0524364 4.6803e-20)
(0.588486 -0.0165067 -2.88562e-21)
(1.91406 0.385698 0)
(1.80061 0.175174 0)
(1.46343 0.015288 2.84514e-19)
(1.16509 -0.00472288 2.78311e-20)
(1.03946 -0.00113108 4.05858e-21)
(0.679547 -2.50864e-05 -1.15362e-19)
(0.739597 -0.00757578 1.4657e-19)
(0.936111 -0.0110272 -2.30219e-20)
(1.05668 -0.00938399 2.32331e-19)
(1.40681 0.030498 1.60518e-19)
(1.55532 0.0180244 1.08706e-19)
(1.68697 0.0669197 1.62658e-19)
(1.91277 -0.00824736 1.60586e-20)
(2.50611 0.146288 -1.5648e-19)
(2.10748 0.000933269 -8.2678e-20)
(0.845713 -0.405212 -3.74783e-20)
(0.820096 -0.485098 -1.27871e-19)
(0.803876 -0.575048 -7.62281e-20)
(0.730439 -0.638171 4.60262e-20)
(0.435023 -0.496292 1.0762e-19)
(0.737955 -0.314535 1.17768e-19)
(0.684662 -0.372572 2.61177e-19)
(0.610529 -0.434178 -1.55009e-20)
(0.494823 -0.482252 1.11299e-19)
(0.259917 -0.378261 4.70622e-20)
(0.58933 -0.178503 -1.45042e-19)
(0.501569 -0.2104 -3.88018e-20)
(0.400799 -0.252901 1.2811e-19)
(0.288883 -0.291409 -5.00847e-21)
(0.121921 -0.231797 -9.00179e-20)
(0.510912 0.0539971 -3.91602e-19)
(0.430029 0.0453577 -3.35924e-19)
(0.325038 0.0246715 2.689e-19)
(0.202632 -0.0102002 1.84328e-19)
(0.0487476 -0.032494 1.36715e-20)
(0.501194 0.247222 -1.7361e-19)
(0.420404 0.25963 -1.69804e-19)
(0.310763 0.273046 -8.80048e-20)
(0.179152 0.283175 2.09603e-21)
(0.0230678 0.208251 9.51042e-21)
(1.90712 -0.0359476 6.6046e-19)
(2.16136 -0.0984636 2.15573e-19)
(2.21583 -0.176437 -6.00952e-19)
(2.06062 -0.20501 -1.25072e-18)
(1.22452 -0.173037 1.05914e-19)
(1.88203 -0.106033 1.13985e-18)
(1.95723 -0.209287 1.52435e-18)
(1.9678 -0.324471 1.29181e-19)
(1.88196 -0.383111 2.28498e-19)
(1.19403 -0.329542 -1.50343e-19)
(1.61414 -0.253962 -2.93596e-18)
(1.66529 -0.364739 3.13194e-19)
(1.69651 -0.480164 9.27711e-19)
(1.62713 -0.550609 -3.412e-19)
(1.04575 -0.459868 5.44218e-19)
(1.39556 -0.36488 6.83793e-19)
(1.40779 -0.454234 -1.82133e-18)
(1.39208 -0.562576 -2.05894e-18)
(1.31855 -0.642663 6.215e-19)
(0.842246 -0.524211 4.45378e-19)
(1.13872 -0.408598 1.23323e-19)
(1.09167 -0.494358 2.11367e-19)
(1.06683 -0.603095 -3.06122e-19)
(0.999944 -0.679412 -3.72611e-19)
(0.624867 -0.535847 -3.41013e-21)
(0.930487 0.0453943 5.89953e-21)
(1.05875 0.0703636 -4.81115e-21)
(1.01894 0.0506774 -1.83997e-20)
(0.786226 0.0108264 -1.46611e-19)
(1.05246 -0.15326 -7.15233e-21)
(0.930678 0.0461316 -2.7349e-21)
(1.05759 0.0692363 5.27857e-20)
(1.03182 0.0829105 -7.22975e-20)
(0.840821 0.0412882 5.19088e-20)
(0.916685 -0.0503123 -2.11949e-20)
(0.929305 0.0411778 -5.95625e-20)
(1.0543 0.0658929 5.18238e-22)
(1.03592 0.0970708 -2.47814e-20)
(0.843358 0.0769196 -3.41063e-20)
(0.887526 0.00228317 -1.1405e-19)
(0.923817 0.0375341 8.12052e-20)
(1.06469 0.0607147 4.01728e-21)
(1.01118 0.116735 3.82616e-20)
(0.899783 0.103171 7.06838e-20)
(0.8047 0.11119 1.18417e-19)
(0.918593 0.032519 2.00046e-20)
(1.07502 0.0603226 -3.43254e-20)
(0.993945 0.126085 4.76422e-20)
(0.936154 0.143697 9.90974e-20)
(0.794775 0.196278 -1.29245e-19)
(0.847451 0.0331574 0)
(0.770157 0.0288657 1.0354e-20)
(0.571 0.0159217 -8.39931e-22)
(0.529991 -0.0101327 3.72393e-20)
(0.657409 -0.037839 -1.13912e-19)
(0.92444 0.0651624 -5.81386e-20)
(1.04819 0.0789627 -1.89818e-20)
(0.915293 0.0384384 -1.46829e-20)
(0.891778 0.004738 -7.88287e-20)
(0.936531 -0.150323 -1.16659e-19)
(0.924134 -0.0415542 -2.32812e-20)
(0.996166 -0.00929287 4.21497e-19)
(1.06471 0.0507012 2.61445e-19)
(0.919968 0.0557098 3.19857e-20)
(0.707774 0.0267775 0)
(1.20784 -0.278581 2.47253e-19)
(1.31977 -0.247534 1.22323e-18)
(1.49601 -0.134467 -1.36028e-18)
(1.57752 -0.0121887 -4.15913e-19)
(1.48473 0.0288638 3.11237e-19)
)
;

boundaryField
{
    left
    {
        type            fixedValue;
        value           uniform (1 0 0);
    }
    right
    {
        type            zeroGradient;
    }
    down
    {
        type            noSlip;
    }
    up
    {
        type            noSlip;
    }
    cylinder
    {
        type            noSlip;
    }
    defaultFaces
    {
        type            empty;
    }
}


// ************************************************************************* //
