/*--------------------------------*- C++ -*----------------------------------*\
  =========                 |
  \\      /  F ield         | OpenFOAM: The Open Source CFD Toolbox
   \\    /   O peration     | Website:  https://openfoam.org
    \\  /    A nd           | Version:  13
     \\/     M anipulation  |
\*---------------------------------------------------------------------------*/
FoamFile
{
    format      ascii;
    class       volScalarField;
    location    "0.76";
    object      strainRateViscosityModel:nu;
}
// * * * * * * * * * * * * * * * * * * * * * * * * * * * * * * * * * * * * * //

dimensions      [0 2 -1 0 0 0 0];

internalField   nonuniform List<scalar> 
1800
(
9.40488
9.1976
9.01007
8.80096
8.57616
8.34415
8.11547
7.89817
7.62421
7.37924
9.58523
9.41878
9.2669
9.09733
8.91117
8.71143
8.50357
8.28867
8.0273
7.70208
9.70219
9.56269
9.42803
9.27096
9.08868
8.87899
8.64091
8.36903
8.03058
7.61061
9.77539
9.65614
9.53324
9.38287
9.20049
8.98172
8.72281
8.41596
8.02877
7.55456
9.82168
9.7183
9.60558
9.46167
9.28071
9.05696
8.78549
8.45888
8.04775
7.55614
9.85185
9.76081
9.6573
9.52059
9.34355
9.11896
8.84034
8.50016
8.07152
7.5702
9.87179
9.78991
9.69398
9.56396
9.39147
9.16769
8.8842
8.53252
8.08735
7.57567
9.88475
9.80924
9.71888
9.59394
9.42494
9.20146
8.91309
8.55005
8.08853
7.56355
9.8926
9.82107
9.73416
9.6122
9.44467
9.21963
8.92483
8.54922
8.07121
7.52871
9.89646
9.82686
9.74153
9.6207
9.45309
9.22573
8.92512
8.53953
8.05038
7.49285
1.79852
1.40527
1.20981
1.32038
1.7304
2.25128
2.49638
2.44904
2.3593
2.33559
3.72748
1.78144
1.49182
1.98124
2.69524
2.97227
2.81747
2.67211
2.68815
2.74144
4.70102
2.5702
2.4358
3.17641
3.59621
3.34642
3.0821
3.1188
3.25867
3.3392
5.26841
3.88196
3.81517
4.2133
4.18051
3.82962
3.72155
3.85527
3.95774
4.00675
6.05556
5.27528
5.1178
5.12124
4.91493
4.65343
4.57821
4.61237
4.61273
4.65249
6.95977
6.45991
6.22679
6.03823
5.78826
5.5454
5.38923
5.29342
5.22233
5.27494
7.77171
7.37772
7.11678
6.86029
6.5874
6.32054
6.08726
5.90096
5.77028
5.82386
8.40013
8.05531
7.79201
7.51578
7.2265
6.93121
6.64219
6.38632
6.19229
6.22931
8.84935
8.54538
8.291
8.01031
7.7057
7.37948
7.03563
6.70112
6.41575
6.42176
9.16164
8.90154
8.66632
8.39667
8.09571
7.76576
7.40645
7.03565
6.70854
6.75242
2.19347
1.72928
1.33195
0.937212
0.619878
0.349646
0.183594
0.134602
0.149559
0.225999
2.52786
1.84849
1.40713
0.932716
0.593904
0.33385
0.172069
0.0979322
0.0960385
0.167077
2.94847
1.97766
1.47959
0.930269
0.558418
0.306819
0.159476
0.0808483
0.0552677
0.109485
3.4409
2.14762
1.55095
0.93331
0.519249
0.272288
0.142364
0.0678119
0.049381
0.0482373
3.98313
2.38565
1.62841
0.942396
0.480557
0.233722
0.121615
0.05486
0.0526746
0.0228809
4.52864
2.69679
1.72471
0.958795
0.445435
0.193737
0.0981446
0.0438817
0.0457475
0.0333225
4.99708
3.05653
1.84665
0.981569
0.414116
0.15406
0.0732674
0.0353256
0.0303285
0.0829473
5.3129
3.43954
2.0138
1.02439
0.393132
0.117921
0.0484517
0.0263113
0.030907
0.150252
5.3434
3.72296
2.16342
1.05631
0.370115
0.0848183
0.0297694
0.0178478
0.0867655
0.215434
5.20213
3.98909
2.39899
1.16006
0.386716
0.0682309
0.0107512
0.0465264
0.136855
0.272958
4.94451
3.94261
2.45597
1.17386
0.361423
0.0520353
0.0253016
0.10693
0.199206
0.338805
5.33054
3.34786
2.13988
0.998301
0.358394
0.137654
0.116912
0.174901
0.275598
0.411902
4.90483
3.0457
2.24794
1.20504
0.590192
0.293384
0.201544
0.24529
0.340509
0.468693
4.54668
3.63195
2.68151
1.64055
0.892196
0.495057
0.336963
0.333212
0.408203
0.516424
5.11417
4.74769
3.34272
2.16422
1.23785
0.729441
0.494537
0.435709
0.477477
0.555052
6.25444
5.66952
4.0571
2.67385
1.59849
0.981442
0.672158
0.552453
0.551214
0.58773
7.26269
6.37371
4.71369
3.15462
1.95731
1.24049
0.858045
0.677484
0.627864
0.616116
8.00011
6.91204
5.25984
3.58902
2.30009
1.50074
1.04925
0.808378
0.707953
0.642902
8.51876
7.33073
5.69734
3.97011
2.62046
1.7539
1.23628
0.936061
0.784965
0.666394
8.931
7.69119
6.04975
4.28309
2.92521
2.02434
1.44757
1.08455
0.880116
0.699146
6.51282
6.43966
6.43043
6.44874
6.48734
6.52993
6.58197
6.71051
6.89519
6.82624
0.260665
1.0571
2.00769
2.92273
3.70365
4.31627
4.73301
4.98252
5.22159
5.72775
3.8508
3.5439
3.28467
3.11143
3.10649
3.2501
3.47231
3.71345
4.16498
4.84482
6.64417
6.62722
6.53713
6.34469
6.04329
5.65788
5.24963
4.89609
4.73949
4.54941
7.69184
7.67654
7.63212
7.54129
7.39613
7.18986
6.92709
6.61952
6.286
5.65643
8.44951
8.43312
8.39435
8.32772
8.22957
8.09672
7.92837
7.71684
7.42792
6.90784
8.93967
8.92394
8.89028
8.83679
8.76166
8.6629
8.53816
8.37892
8.15467
7.80862
9.27298
9.25981
9.23246
9.18985
9.13052
9.05245
8.95269
8.82481
8.65281
8.43091
9.50446
9.49417
9.47307
9.44024
9.39426
9.33319
9.25424
9.15286
9.02288
8.87534
9.6899
9.68285
9.66852
9.64604
9.61405
9.5707
9.51361
9.43975
9.34638
9.2441
7.24807
7.5262
7.83693
8.08766
8.3448
8.59961
8.84138
9.06158
9.25458
9.46025
7.58312
7.94806
8.24096
8.48111
8.70934
8.92481
9.1223
9.299
9.45391
9.61805
7.4985
7.95737
8.32595
8.6205
8.87575
9.09773
9.28805
9.44952
9.58536
9.72225
7.44689
7.95761
8.37376
8.70199
8.97658
9.20596
9.39471
9.54806
9.67131
9.78824
7.45633
7.98066
8.4186
8.76489
9.05054
9.28356
9.46977
9.61591
9.72868
9.83022
7.48241
8.01168
8.46402
8.82147
9.11234
9.34475
9.52606
9.66446
9.76796
9.85764
7.50364
8.03786
8.50277
8.86862
9.16197
9.39189
9.56763
9.6989
9.79479
9.8757
7.51114
8.05246
8.52871
8.90209
9.19746
9.42521
9.5964
9.72212
9.81243
9.88729
7.49836
8.05045
8.53742
8.91898
9.21768
9.44503
9.61371
9.73606
9.82289
9.89404
7.48288
8.04358
8.53592
8.92344
9.22525
9.4533
9.62123
9.74216
9.82746
9.89693
2.55832
2.51484
2.53272
2.74425
2.92958
2.55678
1.70064
1.18264
1.52356
4.19829
2.96528
2.87699
2.71726
2.71503
3.10466
3.43252
2.82374
1.90831
2.12624
5.13659
3.45286
3.4094
3.25153
3.06506
3.2651
3.82399
3.80413
3.16241
3.29003
5.45636
3.94414
3.93335
3.90695
3.79774
3.89055
4.31801
4.58951
4.46829
4.66138
5.91362
4.49709
4.46962
4.545
4.61663
4.78049
5.11403
5.43839
5.61916
5.89677
6.63151
5.10068
5.05816
5.19779
5.39619
5.65706
5.98048
6.30867
6.59545
6.90089
7.40661
5.65324
5.61701
5.81788
6.09046
6.40773
6.74088
7.06855
7.37814
7.67873
8.08654
6.06644
6.05189
6.31499
6.64226
6.99496
7.33979
7.66728
7.97419
8.25895
8.61106
6.26017
6.27912
6.63093
7.02587
7.42011
7.7844
8.11672
8.41668
8.68283
8.98797
6.6
6.56985
6.95598
7.37947
7.78133
8.14311
8.46653
8.75044
8.99301
9.25186
0.112308
0.155393
0.122015
0.0626678
0.0154479
0.392821
0.929811
1.48323
1.95049
2.43274
0.0787745
0.140746
0.117726
0.0646069
0.0151434
0.38469
0.933935
1.54636
2.02971
2.69901
0.0569857
0.132359
0.115897
0.0678246
0.0238872
0.384735
0.940486
1.59666
2.10058
3.00946
0.0438943
0.130109
0.117733
0.0753119
0.0419454
0.392738
0.947137
1.63414
2.2043
3.39616
0.0374136
0.133027
0.12183
0.0850388
0.0650771
0.402742
0.950964
1.67003
2.38231
3.86637
0.0365613
0.140126
0.12652
0.0942976
0.089011
0.411175
0.955771
1.72756
2.64884
4.36352
0.0415298
0.15148
0.130514
0.100916
0.108992
0.415474
0.966644
1.82323
2.9807
4.79425
0.0530277
0.167694
0.133454
0.105044
0.124547
0.424495
1.0076
1.98219
3.34742
5.07888
0.072899
0.188617
0.135441
0.102905
0.127787
0.424657
1.04452
2.13334
3.62584
5.08201
0.103811
0.211099
0.138039
0.104091
0.143147
0.471508
1.18098
2.39152
3.87565
4.89062
0.160671
0.239415
0.143628
0.101227
0.131845
0.473911
1.24537
2.50442
3.88491
4.67303
0.263857
0.270566
0.133306
0.0762956
0.0700516
0.383061
1.11889
2.30262
3.42982
5.19223
0.42875
0.269525
0.100498
0.0145926
0.0149782
0.342699
1.14813
2.35044
3.25592
4.938
0.681988
0.254237
0.0226811
0.0808669
0.102338
0.53738
1.4312
2.62384
3.71489
4.69817
1.06547
0.0475878
0.262658
0.23686
0.316082
0.890456
1.93351
3.20618
4.7069
5.17741
1.51469
0.122107
0.537536
0.417504
0.597809
1.30795
2.47403
3.91708
5.5987
6.22332
2.195
0.683632
0.855083
0.690387
0.943753
1.73846
2.99234
4.59351
6.30246
7.21636
3.7922
1.70629
1.27418
1.03793
1.31957
2.15063
3.46143
5.16517
6.85411
7.96878
6.86014
3.57575
1.96304
1.42246
1.68072
2.52445
3.87364
5.63123
7.29516
8.50724
9.04906
6.3837
2.84296
2.00265
2.11704
2.8973
4.22414
6.01917
7.68652
8.93809
6.62456
6.68758
6.51086
6.38908
6.34872
6.32254
6.30555
6.31733
6.36195
6.47625
5.52829
5.00944
4.76567
4.52461
4.12647
3.54053
2.79863
1.93213
1.04469
0.284231
4.84977
4.23678
3.8273
3.61676
3.42997
3.3105
3.31539
3.45766
3.65539
3.87434
4.71231
4.8858
5.02831
5.33786
5.70207
6.05235
6.33392
6.5214
6.61654
6.64159
5.68784
6.28587
6.61231
6.91135
7.17237
7.38147
7.53181
7.62814
7.6767
7.6924
6.86587
7.38861
7.68443
7.90232
8.07659
8.21484
8.3178
8.38856
8.43055
8.44889
7.76511
8.12049
8.35197
8.51791
8.64796
8.75099
8.82956
8.88582
8.92164
8.93899
8.40454
8.63268
8.80887
8.94093
9.04401
9.12465
9.18596
9.23006
9.25854
9.2726
8.86615
9.01619
9.14761
9.25059
9.33082
9.39283
9.43944
9.47267
9.494
9.50442
9.24868
9.35045
9.44301
9.5163
9.57294
9.61588
9.64748
9.66956
9.68348
9.69012
9.50946
8.98534
8.23588
6.92825
5.59797
0.131167
3.36083
5.96038
7.21408
8.15186
9.46541
8.92156
8.16812
6.89058
5.54939
0.563769
2.62222
5.70601
6.91643
7.91396
9.36568
8.78282
8.02027
6.80961
5.36636
1.60348
1.41357
5.20663
6.30934
7.40331
9.18255
8.54513
7.77449
6.65512
5.18645
2.74004
0.723097
4.23838
5.42157
6.57148
8.86811
8.17359
7.40401
6.37694
5.02652
3.36803
0.970957
2.63163
4.31695
5.39381
8.35052
7.62972
6.87342
5.91729
4.76511
3.44004
1.71925
1.30194
3.0493
3.98815
7.53604
6.8966
6.15555
5.22757
4.29966
3.26955
2.1431
1.17251
1.65628
2.55745
6.32538
6.03757
5.28134
4.2319
3.53346
2.91262
2.11844
1.43519
1.06857
1.23542
4.6317
5.23225
4.47435
2.9996
2.43712
2.27448
1.85602
1.38483
1.12268
0.659152
2.67279
4.53955
4.02164
1.96673
1.39678
1.48836
1.40992
1.21171
1.06402
0.845178
1.27674
3.78895
3.66664
1.33725
0.816184
0.897627
0.971055
0.956238
0.971698
1.0198
0.613478
2.96975
3.08216
0.95654
0.575301
0.63991
0.759338
0.819919
0.843928
0.876918
0.355367
2.18951
2.28534
0.68817
0.492537
0.59519
0.726263
0.81064
0.848445
0.873221
0.265313
1.55065
1.48911
0.521445
0.53439
0.674
0.787514
0.858555
0.881987
0.892246
0.239653
1.01896
0.845448
0.514056
0.66944
0.803066
0.904287
0.9678
0.983522
0.98043
0.242884
0.493248
0.499864
0.636248
0.817295
0.954789
1.05257
1.11026
1.1208
1.11263
0.177175
0.204032
0.508057
0.756043
0.974632
1.12042
1.21013
1.25717
1.27397
1.27458
0.0452622
0.251753
0.649267
0.92264
1.136
1.25342
1.32953
1.39935
1.45589
1.47768
0.0609291
0.492399
0.822236
1.096
1.2298
1.3386
1.48906
1.64762
1.73478
1.7503
0.69599
0.865103
1.04059
1.18375
1.32343
1.59717
1.90993
2.07958
2.08136
2.04835
0.363036
0.0804555
0.223735
0.550436
0.794184
0.890864
0.885849
0.836052
0.7852
0.753774
0.462046
0.202208
0.319017
0.521186
0.723517
0.810217
0.807405
0.764964
0.721061
0.703986
0.525664
0.372058
0.439846
0.513431
0.653124
0.7303
0.730694
0.694707
0.657107
0.653585
0.638744
0.58766
0.595253
0.555269
0.587094
0.643321
0.648932
0.62202
0.592389
0.602638
0.805795
0.803256
0.741739
0.637823
0.541924
0.556287
0.565279
0.548466
0.527464
0.551156
1.00932
0.999186
0.875056
0.737271
0.530838
0.474838
0.480236
0.473999
0.462414
0.499112
1.22741
1.17079
0.990018
0.825426
0.552771
0.409056
0.396622
0.399406
0.397565
0.446417
1.45218
1.32504
1.08889
0.888099
0.589543
0.368568
0.318727
0.325715
0.333234
0.392918
1.68479
1.46863
1.17541
0.92345
0.619409
0.354263
0.253134
0.254668
0.269913
0.33846
1.92625
1.60371
1.25504
0.937028
0.629971
0.353545
0.20736
0.189326
0.208242
0.282774
2.00913
0.747447
0.717485
0.965058
1.19718
1.28332
1.25721
1.17877
1.10777
1.01223
1.39444
0.482942
0.579004
0.874412
1.10909
1.19718
1.17602
1.10417
1.0362
0.953569
0.751622
0.287976
0.481151
0.797475
1.03485
1.12519
1.10837
1.04176
0.977378
0.906038
0.25341
0.170322
0.405566
0.725776
0.959825
1.04899
1.03493
0.973578
0.913327
0.854822
0.435855
0.0327102
0.267256
0.612933
0.863911
0.964811
0.959335
0.904993
0.849425
0.804071
9.35465
9.29006
9.141
8.8731
8.43756
7.7789
6.87136
5.75932
4.582
3.5371
9.19248
9.09566
8.88111
8.51166
7.94152
7.13648
6.10965
4.95511
3.84478
2.78683
9.02389
8.90027
8.62662
8.16105
7.46177
6.51616
5.37144
4.16865
3.08129
1.94239
8.81632
8.66221
8.32151
7.74793
6.90618
5.81426
4.55499
3.29482
2.22585
1.09
8.5875
8.37939
7.92584
7.17746
6.11253
4.7921
3.35065
2.08514
0.99394
0.302017
1.06027
1.02447
1.01629
1.01981
0.915208
0.799673
1.29341
3.68331
3.85974
1.32298
0.949221
0.933787
0.926196
0.870759
0.718837
0.588537
0.910833
3.14184
3.10987
0.647393
0.985979
0.982448
0.965575
0.892787
0.747342
0.584379
0.698254
2.37253
2.34663
0.377421
1.05337
1.06526
1.0611
1.00127
0.889821
0.740578
0.655571
1.55744
1.63457
0.277255
1.18596
1.2101
1.21579
1.16808
1.07693
0.951789
0.789129
0.909989
0.919563
0.24615
1.35106
1.37098
1.37926
1.35414
1.28427
1.151
0.929642
0.669874
0.358254
0.216757
1.55538
1.55132
1.51894
1.47657
1.42571
1.31935
1.07925
0.75399
0.272471
0.0664075
1.82328
1.81686
1.73429
1.58138
1.44144
1.34478
1.20987
0.90142
0.494242
0.046781
2.10352
2.15075
2.14912
1.95524
1.61177
1.3225
1.18677
1.05654
0.856155
0.67567
2.3119
2.35872
2.48323
2.53525
2.23294
1.63178
1.18214
1.06637
1.30406
2.04095
8.15167
7.21373
5.96002
3.36033
0.131423
5.5965
6.92776
8.23569
8.98535
9.50956
7.91327
6.91532
5.70501
2.62161
0.563639
5.54554
6.88913
8.16754
8.92161
9.46572
7.40185
6.30746
5.20484
1.41546
1.59976
5.36186
6.80734
8.0194
8.78294
9.36627
6.56883
5.41867
4.23622
0.726269
2.73173
5.18172
6.65227
7.77352
8.54546
9.18358
5.38942
4.31247
2.63264
0.971033
3.35669
5.02056
6.37349
7.40308
8.17433
8.86987
3.9798
3.04145
1.31016
1.71324
3.42678
4.75623
5.91248
6.87254
7.63121
8.3535
2.54106
1.65345
1.18718
2.13289
3.25089
4.283
5.21884
6.15465
6.8995
7.54137
1.21755
1.08764
1.45175
2.10727
2.88048
3.50307
4.2175
5.28208
6.04355
6.33607
0.671601
1.15292
1.4071
1.84236
2.23203
2.40025
2.98384
4.47938
5.24355
4.65557
0.884874
1.10244
1.24711
1.41269
1.4638
1.36899
1.94329
4.02649
4.56513
2.71662
2.08997
0.543266
1.06111
0.629495
0.661351
0.758628
0.632589
0.300235
0.0620453
0.35651
1.63017
0.236777
0.869925
0.479274
0.56734
0.6814
0.593634
0.356815
0.265913
0.48851
1.33419
0.0582913
0.641777
0.340983
0.478721
0.602083
0.562394
0.459541
0.473249
0.591081
1.09797
0.0147187
0.393778
0.23246
0.393973
0.518493
0.562591
0.62605
0.732656
0.75831
0.84793
0.0893283
0.189607
0.159004
0.316176
0.441988
0.608939
0.805052
0.97471
0.977418
0.635739
0.154104
0.0531832
0.101928
0.244304
0.386227
0.694455
0.974881
1.19383
1.2246
0.463509
0.209458
0.0493151
0.0535764
0.180633
0.364963
0.78808
1.11849
1.3858
1.48057
0.331186
0.210557
0.107384
0.0107645
0.122455
0.373574
0.861696
1.23504
1.5573
1.73528
0.232693
0.196298
0.12171
0.0354416
0.0643556
0.390372
0.904911
1.32995
1.71093
1.97625
0.161835
0.174822
0.126808
0.0564244
0.0286427
0.39794
0.923706
1.41103
1.84398
2.19971
9.33657
6.77032
2.66508
1.69964
1.20216
1.12091
0.965097
0.781885
0.7965
2.03316
8.21092
4.63642
2.21512
1.41766
1.06957
1.03598
0.891437
0.651194
0.528047
1.39866
6.12014
3.06392
1.7854
1.21034
0.96466
0.971604
0.832391
0.561396
0.328872
0.741033
4.13315
1.87586
1.49749
1.00386
0.858628
0.904371
0.775976
0.487802
0.228743
0.225094
2.83554
1.06122
1.24632
0.803243
0.755518
0.82672
0.68614
0.35642
0.0444325
0.398102
3.54771
4.58914
5.76323
6.87353
7.78044
8.4387
8.87388
9.14148
9.29032
9.35474
2.78093
3.84105
4.95235
6.10788
7.13587
7.94153
8.51188
8.88134
9.09582
9.19254
1.92841
3.0719
4.16218
5.36669
6.51361
7.46062
8.16063
8.62654
8.9003
9.02391
1.05559
2.2031
3.28161
4.54676
5.81004
6.90396
7.74681
8.32104
8.66206
8.8163
0.300501
0.962652
2.06394
3.33748
4.78514
6.10894
7.17548
7.92489
8.37902
8.58741
)
;

boundaryField
{
    left
    {
        type            calculated;
        value           nonuniform List<scalar> 
35
(
0.298125
0.567124
0.987386
1.62614
2.52443
3.69552
5.06613
6.4761
8.15851
9.4418
0.212479
0.132484
0.08022
0.0486789
0.0323618
0.0272597
0.0325554
0.0518824
0.0919053
0.159894
4.93339
4.0616
3.23477
2.51295
1.91713
1.42717
1.03076
0.724461
0.495802
0.329634
9.61573
8.97908
7.92205
6.84778
5.8594
)
;
    }
    right
    {
        type            calculated;
        value           nonuniform List<scalar> 
35
(
1.01178
0.953378
0.906242
0.855949
0.806422
0.757733
0.709641
0.660798
0.611292
0.561114
0.51015
0.458171
0.404841
0.349788
0.292519
0.23301
0.170145
0.107158
0.0422468
0.0182725
0.0300122
0.0861975
0.165311
0.237872
0.299332
0.36787
0.44142
0.496927
0.541514
0.575328
0.602187
0.624718
0.646693
0.667201
0.697154
)
;
    }
    down
    {
        type            calculated;
        value           nonuniform List<scalar> 
40
(
9.45431
7.26632
2.896
1.7888
1.24288
1.14931
0.990608
0.823438
0.897591
2.26038
3.83288
4.88244
6.03394
7.09287
7.9446
8.55502
8.95447
9.19925
9.33564
9.39487
9.39478
9.33536
9.19873
8.9536
8.55368
7.94266
7.08994
6.02875
4.87319
3.81888
2.23225
0.847544
0.761365
0.996993
1.22889
1.3129
1.28412
1.20285
1.13083
1.03118
)
;
    }
    up
    {
        type            calculated;
        value           nonuniform List<scalar> 
40
(
9.0341
7.80882
6.16762
4.39486
3.03341
2.1192
1.52017
1.13365
0.911625
0.710995
9.72927
9.72305
9.71045
9.69064
9.66234
9.62377
9.57263
9.50586
9.42076
9.32814
9.33505
9.42656
9.51039
9.57623
9.62665
9.66461
9.69238
9.71169
9.72379
9.72952
9.27074
7.09623
3.23898
2.15439
2.23631
3.01687
4.34633
6.14881
7.81368
9.04495
)
;
    }
    cylinder
    {
        type            calculated;
        value           nonuniform List<scalar> 
80
(
1.99858
4.56764
5.53624
5.77797
6.30439
7.09041
7.86177
8.47477
8.91246
9.21291
9.44581
9.61871
9.72981
9.7983
9.84096
9.86846
9.8865
9.89817
9.90522
9.90869
9.5004
9.65061
9.74902
9.81046
9.849
9.87389
9.89016
9.90054
9.90657
9.90913
5.32521
6.23334
6.21108
6.31547
6.83426
7.52652
8.17616
8.68598
9.05066
9.3025
0.994349
0.47159
0.264219
0.183227
0.159583
0.16559
0.0828543
0.0422635
0.749955
2.4298
9.59445
9.55588
9.46744
9.30187
9.00979
8.51137
7.68626
6.36658
4.38728
2.23886
9.59435
9.55556
9.46683
9.30078
9.00792
8.50819
7.68052
6.3545
4.35815
2.19131
0.952795
0.442261
0.244332
0.170833
0.150276
0.165475
0.161046
0.0840145
0.0433582
0.735844
)
;
    }
    defaultFaces
    {
        type            empty;
    }
}


// ************************************************************************* //
