/*--------------------------------*- C++ -*----------------------------------*\
  =========                 |
  \\      /  F ield         | OpenFOAM: The Open Source CFD Toolbox
   \\    /   O peration     | Website:  https://openfoam.org
    \\  /    A nd           | Version:  13
     \\/     M anipulation  |
\*---------------------------------------------------------------------------*/
FoamFile
{
    format      ascii;
    class       volVectorField;
    location    "0.76";
    object      U;
}
// * * * * * * * * * * * * * * * * * * * * * * * * * * * * * * * * * * * * * //

dimensions      [0 1 -1 0 0 0 0];

internalField   nonuniform List<vector> 
1800
(
(0.0978006 -0.0883284 -4.48878e-20)
(0.286895 -0.241951 -3.41148e-20)
(0.473973 -0.379045 -4.85013e-19)
(0.657692 -0.500159 1.91468e-19)
(0.836612 -0.607172 7.43936e-20)
(1.00992 -0.701379 -3.90522e-20)
(1.17716 -0.783472 5.54972e-20)
(1.33794 -0.853685 1.97443e-19)
(1.4916 -0.912969 5.92275e-19)
(1.63353 -0.966908 8.10064e-19)
(0.119061 -0.0915025 -7.9111e-20)
(0.344291 -0.247709 -7.7061e-19)
(0.563282 -0.38475 3.78144e-21)
(0.775364 -0.504236 1.25745e-19)
(0.979505 -0.608922 -1.26253e-19)
(1.17522 -0.700697 7.65719e-20)
(1.36231 -0.78079 -2.8077e-19)
(1.54078 -0.850101 -5.0289e-20)
(1.71011 -0.910708 -6.9354e-19)
(1.86786 -0.967049 6.29789e-19)
(0.14165 -0.0923228 4.88225e-20)
(0.403679 -0.247731 2.09287e-19)
(0.653755 -0.382117 5.43308e-19)
(0.892178 -0.497905 -1.90256e-19)
(1.11866 -0.598385 -1.42991e-19)
(1.33321 -0.685813 7.56054e-20)
(1.53605 -0.761707 9.82421e-20)
(1.72743 -0.827299 1.94056e-19)
(1.90721 -0.884804 2.73639e-21)
(2.07421 -0.937872 1.5098e-19)
(0.163906 -0.0897207 -4.57189e-20)
(0.461698 -0.23947 -2.0439e-19)
(0.741427 -0.367618 -1.81258e-19)
(1.00451 -0.476977 -1.42293e-19)
(1.25162 -0.571022 1.81304e-19)
(1.48351 -0.652127 -5.70886e-20)
(1.70093 -0.721906 -4.31014e-21)
(1.90453 -0.781623 2.9128e-21)
(2.09455 -0.833366 -1.60475e-19)
(2.27025 -0.880358 -1.05931e-19)
(0.184657 -0.0833564 -1.14035e-19)
(0.515893 -0.221807 8.76383e-20)
(0.823292 -0.33943 1.79836e-19)
(1.10931 -0.439063 2.43299e-19)
(1.37561 -0.524071 -2.85013e-19)
(1.62371 -0.596778 -3.5807e-21)
(1.85494 -0.658767 4.24958e-19)
(2.07043 -0.711263 -1.85055e-19)
(2.27083 -0.756165 -1.23985e-19)
(2.45578 -0.796398 -5.35492e-20)
(0.20319 -0.0735 1.73588e-19)
(0.56447 -0.1952 1.02983e-18)
(0.896791 -0.298074 1.43257e-19)
(1.20351 -0.384735 -5.03131e-19)
(1.48719 -0.458227 -1.75497e-19)
(1.75003 -0.520669 6.37671e-19)
(1.9939 -0.573525 -1.45368e-19)
(2.22036 -0.6179 -4.31565e-19)
(2.43047 -0.655445 -3.16664e-19)
(2.6242 -0.688744 2.61587e-19)
(0.218898 -0.0605912 1.16339e-19)
(0.605745 -0.160701 -7.47584e-19)
(0.959313 -0.24503 -1.08559e-18)
(1.2837 -0.315798 3.83779e-19)
(1.58223 -0.375564 4.49932e-19)
(1.85767 -0.426128 -9.02025e-22)
(2.11239 -0.46874 -6.39658e-19)
(2.34829 -0.504326 2.19311e-19)
(2.56683 -0.534213 -3.64505e-19)
(2.76827 -0.560571 -3.11216e-19)
(0.231235 -0.0451722 -3.42482e-19)
(0.638199 -0.119684 -6.92594e-19)
(1.00849 -0.182294 1.21219e-18)
(1.34677 -0.2347 5.98693e-19)
(1.65693 -0.278852 -2.69752e-19)
(1.94224 -0.316136 -2.11493e-19)
(2.20543 -0.347515 0)
(2.44874 -0.373689 1.16799e-19)
(2.67398 -0.395623 -2.95838e-19)
(2.88171 -0.41497 -7.74243e-20)
(0.239766 -0.0278754 -2.04463e-19)
(0.660651 -0.0737557 5.62378e-19)
(1.04249 -0.112198 1.71006e-19)
(1.39031 -0.144289 -5.12487e-19)
(1.7084 -0.171277 -7.84184e-19)
(2.00037 -0.194053 3.66186e-20)
(2.26924 -0.213245 1.67126e-19)
(2.51752 -0.229294 -5.46832e-19)
(2.74731 -0.242784 -2.89765e-19)
(2.95953 -0.254778 -5.63589e-19)
(0.244259 -0.00940241 4.51403e-19)
(0.672452 -0.024704 3.44145e-19)
(1.0603 -0.0373616 -9.38586e-20)
(1.41303 -0.0477885 -1.29783e-20)
(1.73514 -0.0564622 -3.87502e-19)
(2.03041 -0.0637232 -8.57331e-20)
(2.30205 -0.0698102 -2.90574e-19)
(2.55275 -0.0748904 6.46552e-19)
(2.7848 -0.0791713 1.71001e-19)
(2.99945 -0.0830122 2.22125e-21)
(-0.00234292 -0.0217804 -3.47019e-20)
(0.00859147 -0.0693548 -7.01034e-20)
(0.0248756 -0.120551 -7.3272e-21)
(0.0493097 -0.171287 -3.40013e-20)
(0.0776629 -0.216686 -1.2735e-20)
(0.1065 -0.254826 -3.90061e-19)
(0.135523 -0.288756 -1.95269e-20)
(0.16631 -0.322072 1.19945e-19)
(0.199139 -0.355596 1.09478e-20)
(0.233031 -0.387972 -3.57512e-20)
(0.000849657 -0.0246786 -9.77577e-20)
(0.0149386 -0.0850653 -2.13021e-19)
(0.0393453 -0.160374 -5.36612e-20)
(0.0692708 -0.225319 -1.10365e-19)
(0.0994822 -0.27561 -9.63473e-20)
(0.130441 -0.318039 -2.79592e-19)
(0.164457 -0.359035 2.00397e-19)
(0.202119 -0.400447 1.68699e-19)
(0.241623 -0.440375 -2.56777e-19)
(0.281132 -0.476765 8.13586e-20)
(0.00549635 -0.0314853 -8.54134e-20)
(0.0287759 -0.107413 -8.67795e-19)
(0.0628614 -0.196133 -1.29833e-19)
(0.0974517 -0.269008 9.29922e-20)
(0.131807 -0.327252 6.77472e-20)
(0.169639 -0.380321 -4.49076e-19)
(0.212935 -0.432356 3.55303e-20)
(0.259129 -0.481861 3.67023e-19)
(0.305477 -0.52633 -3.8657e-19)
(0.351424 -0.565731 -2.58611e-19)
(0.0113686 -0.0409798 -1.7713e-21)
(0.0466248 -0.130876 1.89978e-19)
(0.0896457 -0.225348 1.60883e-21)
(0.133078 -0.307058 -1.07411e-20)
(0.177786 -0.377897 -3.00467e-20)
(0.227239 -0.443888 8.6212e-20)
(0.281094 -0.505664 7.28814e-20)
(0.335665 -0.560941 -1.36071e-19)
(0.389726 -0.609428 9.20911e-21)
(0.443894 -0.652 -1.04424e-20)
(0.0185092 -0.0507681 0)
(0.0672393 -0.152429 5.49218e-21)
(0.121942 -0.253645 -5.10671e-19)
(0.178697 -0.345491 5.16524e-20)
(0.237808 -0.428594 -9.88705e-21)
(0.300516 -0.505111 5.43059e-21)
(0.36531 -0.574405 -2.53157e-20)
(0.429806 -0.635469 -7.76562e-21)
(0.493944 -0.688879 0)
(0.558137 -0.734893 -2.0583e-20)
(0.0273256 -0.0596484 3.18521e-20)
(0.0918957 -0.172857 -1.54407e-19)
(0.161768 -0.282528 -4.60656e-20)
(0.234631 -0.383898 -5.83255e-20)
(0.309738 -0.476764 4.9606e-20)
(0.386739 -0.56155 5.74564e-21)
(0.464244 -0.637721 8.92925e-20)
(0.540939 -0.704968 -2.17571e-20)
(0.61691 -0.763473 -6.96144e-19)
(0.69216 -0.812682 -1.01019e-20)
(0.0379747 -0.0676038 6.80537e-22)
(0.121237 -0.192179 5.56248e-20)
(0.209164 -0.310619 -7.84199e-20)
(0.299928 -0.420181 -1.66917e-20)
(0.392138 -0.520676 -7.29134e-20)
(0.48478 -0.612137 -9.4251e-21)
(0.576703 -0.694337 1.00271e-20)
(0.666944 -0.76716 -2.11505e-19)
(0.755528 -0.830286 3.83454e-19)
(0.842321 -0.882345 9.71463e-19)
(0.0503611 -0.0746005 1.51191e-20)
(0.155129 -0.20961 -1.42252e-19)
(0.263462 -0.335965 -2.13724e-19)
(0.373671 -0.452112 8.89943e-20)
(0.484104 -0.558268 -6.43149e-20)
(0.593546 -0.654621 9.86662e-20)
(0.700946 -0.741282 1.96713e-19)
(0.805411 -0.818308 -1.09042e-19)
(0.907024 -0.885125 -3.05913e-19)
(1.0057 -0.939544 7.25299e-19)
(0.0642898 -0.0803594 -2.65018e-20)
(0.193286 -0.224026 -5.78121e-19)
(0.324297 -0.35656 5.24301e-19)
(0.455684 -0.477231 3.37482e-19)
(0.585739 -0.586747 -8.59159e-20)
(0.713226 -0.685662 3.08645e-19)
(0.837131 -0.774437 -1.59952e-19)
(0.956567 -0.853463 -7.72788e-19)
(1.07173 -0.922044 -4.03689e-19)
(1.18268 -0.977291 4.53641e-19)
(0.0795449 -0.0846658 -7.98195e-20)
(0.235845 -0.234417 -5.44365e-19)
(0.392392 -0.370524 -8.30081e-21)
(0.547542 -0.492795 6.88482e-20)
(0.699595 -0.602464 3.37748e-19)
(0.847393 -0.700434 -1.85388e-19)
(0.990014 -0.787443 -1.6946e-19)
(1.12653 -0.86383 1.88986e-19)
(1.25681 -0.928655 -3.51624e-19)
(1.38007 -0.980363 -5.84562e-19)
(0.402934 -0.532092 9.83246e-19)
(0.684861 -0.618615 -2.41367e-19)
(0.913767 -0.557982 -1.42264e-19)
(1.08772 -0.431541 2.6812e-19)
(1.24033 -0.280466 -2.30188e-19)
(1.3629 -0.139775 -2.99663e-19)
(1.46115 -0.0343447 -2.66496e-19)
(1.51925 0.0199108 -3.19058e-20)
(1.54068 0.033013 -1.22309e-20)
(1.55719 0.0243499 2.99419e-20)
(0.468871 -0.619954 9.64649e-19)
(0.741488 -0.694047 7.10978e-20)
(0.966285 -0.61804 1.09687e-20)
(1.12486 -0.480806 -2.15185e-19)
(1.26571 -0.320873 -7.13241e-19)
(1.38129 -0.17254 0)
(1.48089 -0.0592903 -2.48062e-19)
(1.55637 0.00560229 5.18962e-20)
(1.59461 0.0264964 4.53141e-21)
(1.62443 0.0206161 1.13097e-20)
(0.556206 -0.705603 -9.98133e-19)
(0.810776 -0.767015 -7.10489e-20)
(1.02552 -0.675948 1.56193e-19)
(1.16617 -0.527897 -5.3968e-20)
(1.29127 -0.360063 -3.64821e-20)
(1.39734 -0.205182 6.42443e-20)
(1.49262 -0.0860912 0)
(1.57626 -0.0136336 0)
(1.63217 0.0143168 -1.10635e-20)
(1.6827 0.0143936 0)
(0.665693 -0.787339 -2.24998e-19)
(0.89559 -0.835572 4.04715e-19)
(1.09193 -0.730646 2.68261e-20)
(1.21241 -0.571822 0)
(1.31793 -0.397141 6.04317e-19)
(1.41211 -0.236659 -1.41939e-19)
(1.50008 -0.113211 0)
(1.58465 -0.0346266 1.34046e-19)
(1.64345 -0.00377777 0)
(1.72832 0.00337836 -2.65205e-20)
(0.795736 -0.864013 -1.4886e-19)
(0.997616 -0.897734 4.55412e-19)
(1.16615 -0.780977 -1.4652e-20)
(1.26375 -0.611754 0)
(1.34639 -0.431283 1.79164e-19)
(1.42603 -0.266233 2.67463e-19)
(1.50523 -0.139462 4.73713e-20)
(1.58671 -0.0557415 6.6428e-21)
(1.64103 -0.0229497 -2.24487e-20)
(1.74598 -0.0127038 3.41624e-20)
(0.942248 -0.934869 -1.33241e-18)
(1.11646 -0.952149 -9.42982e-19)
(1.24881 -0.825675 4.75622e-21)
(1.31995 -0.646974 5.75964e-19)
(1.37704 -0.461704 -3.05508e-19)
(1.4392 -0.29335 1.46352e-19)
(1.50877 -0.164079 2.30654e-19)
(1.58407 -0.0759682 -1.87508e-19)
(1.63654 -0.0422153 -1.92745e-21)
(1.7363 -0.0293205 1.13845e-20)
(1.10011 -0.999534 -2.60815e-19)
(1.25 -0.998633 2.86852e-19)
(1.34013 -0.863628 3.92323e-21)
(1.38071 -0.676799 -1.76374e-20)
(1.40998 -0.487637 -5.91368e-19)
(1.45161 -0.317465 5.39894e-20)
(1.51041 -0.186546 -9.40581e-20)
(1.57762 -0.0951084 -2.66277e-20)
(1.63326 -0.0590921 9.86123e-22)
(1.69847 -0.0422408 -2.32511e-20)
(1.26433 -1.0569 -1.20054e-18)
(1.39473 -1.03779 2.10124e-19)
(1.43911 -0.894244 0)
(1.44505 -0.700801 3.45021e-20)
(1.44453 -0.508571 5.21242e-19)
(1.46294 -0.338095 -1.65109e-21)
(1.50906 -0.206883 -3.15699e-19)
(1.56938 -0.111854 6.63294e-20)
(1.61719 -0.0741743 -1.2655e-21)
(1.64183 -0.0484408 -3.92798e-20)
(1.43201 -1.10355 3.39095e-18)
(1.54804 -1.07053 2.45882e-19)
(1.54556 -0.91823 4.64601e-19)
(1.51323 -0.719404 -3.18043e-20)
(1.48077 -0.524674 -3.44326e-20)
(1.47308 -0.355166 -4.2855e-19)
(1.50249 -0.224593 9.42112e-20)
(1.55669 -0.127672 3.07401e-21)
(1.5658 -0.0797514 -2.44931e-20)
(1.57497 -0.0504043 4.79502e-20)
(1.59925 -1.12822 -2.99809e-18)
(1.70186 -1.09572 1.27206e-18)
(1.65392 -0.938232 -2.33218e-19)
(1.58136 -0.736098 -7.89113e-19)
(1.51567 -0.539515 -6.54833e-19)
(1.47931 -0.372477 -2.53238e-19)
(1.49087 -0.242362 -6.97207e-20)
(1.50775 -0.138583 0)
(1.502 -0.0808679 -6.54051e-20)
(1.50113 -0.050921 1.35716e-19)
(1.8882 -1.17026 -6.71099e-18)
(1.9274 -1.10526 -1.69166e-18)
(1.80483 -0.932423 -5.82588e-20)
(1.67304 -0.727908 1.11808e-19)
(1.56219 -0.534648 1.59334e-19)
(1.48692 -0.373786 -1.01318e-19)
(1.44552 -0.244652 -4.04776e-20)
(1.42243 -0.138233 7.32498e-20)
(1.41055 -0.0791651 -6.08529e-20)
(1.40084 -0.0502676 -6.22863e-20)
(2.28934 -1.1349 4.95864e-19)
(2.17884 -1.05679 -2.90214e-19)
(1.94268 -0.865454 4.93063e-19)
(1.73553 -0.66499 -8.41973e-20)
(1.56178 -0.481205 -2.4869e-21)
(1.42569 -0.334169 -7.19561e-20)
(1.34032 -0.220148 9.47156e-20)
(1.30449 -0.127243 -3.31084e-20)
(1.28623 -0.0737294 2.11043e-19)
(1.26967 -0.0473594 9.50517e-20)
(2.61059 -1.04363 2.27079e-18)
(2.35192 -0.94882 3.25758e-19)
(2.00816 -0.759552 -1.17697e-19)
(1.7323 -0.573068 1.65255e-36)
(1.5049 -0.411021 -2.5561e-20)
(1.33844 -0.287111 1.50347e-33)
(1.23285 -0.191855 -2.0461e-20)
(1.17919 -0.114182 -1.67634e-33)
(1.15455 -0.0666025 6.8791e-21)
(1.13214 -0.0430015 -1.31897e-20)
(2.78702 -0.893989 3.88614e-33)
(2.36938 -0.79566 2.96662e-18)
(1.97349 -0.630537 1.81743e-18)
(1.65327 -0.469483 0)
(1.4062 -0.335082 8.31494e-19)
(1.22923 -0.233921 4.27883e-19)
(1.11286 -0.157519 1.70902e-19)
(1.04756 -0.0968404 -2.95455e-33)
(1.0167 -0.0574686 -5.70882e-20)
(0.989576 -0.0373642 7.95813e-21)
(2.76363 -0.705906 3.84257e-18)
(2.24586 -0.629901 -1.46805e-19)
(1.84646 -0.491049 0)
(1.51542 -0.361742 0)
(1.27108 -0.255786 0)
(1.09696 -0.178597 0)
(0.980151 -0.121628 -1.27808e-20)
(0.909617 -0.0770038 -4.24349e-33)
(0.874117 -0.0466545 7.76096e-21)
(0.84348 -0.0307404 6.61688e-34)
(2.55116 -0.517043 3.2656e-18)
(2.02003 -0.462923 0)
(1.63852 -0.353656 0)
(1.32669 -0.256755 0)
(1.10083 -0.17974 0)
(0.941486 -0.12564 0)
(0.833055 -0.0864979 3.30381e-20)
(0.764152 -0.056279 -9.36579e-20)
(0.726987 -0.034799 8.65718e-21)
(0.694723 -0.0234791 3.03847e-20)
(2.19011 -0.342714 0)
(1.70262 -0.303516 1.09813e-18)
(1.36126 -0.227612 1.09023e-18)
(1.09128 -0.161993 0)
(0.898334 -0.112352 6.66439e-19)
(0.763864 -0.0787601 4.03766e-19)
(0.671343 -0.0548692 2.5118e-19)
(0.610159 -0.0366544 8.49393e-20)
(0.575064 -0.0229878 -3.20949e-20)
(0.543815 -0.0161246 -3.48621e-21)
(1.70285 -0.191137 -6.7387e-19)
(1.30018 -0.165595 -2.74168e-19)
(1.02504 -0.121758 1.75648e-19)
(0.815066 -0.0844364 -2.11227e-34)
(0.667673 -0.0580853 -7.70887e-20)
(0.566093 -0.0410686 3.7069e-33)
(0.495444 -0.0290555 4.87811e-20)
(0.447142 -0.0199968 9.88906e-20)
(0.417975 -0.0125682 1.00169e-20)
(0.39101 -0.00937305 -1.9314e-21)
(1.10088 -0.0758219 3.40803e-18)
(0.823156 -0.062679 -1.86571e-19)
(0.640575 -0.044294 -5.88931e-19)
(0.506139 -0.028987 0)
(0.413809 -0.019568 -6.40108e-19)
(0.350615 -0.0141359 -4.32383e-19)
(0.306061 -0.0103395 -2.04345e-19)
(0.274708 -0.00754505 -1.43593e-19)
(0.254992 -0.00476499 1.76388e-19)
(0.236115 -0.00393871 -3.06169e-20)
(0.397351 -0.00331883 0)
(0.287865 0.00159432 0)
(0.22089 0.00409439 0)
(0.173549 0.00624799 0)
(0.142371 0.00585802 0)
(0.121182 0.00471723 0)
(0.105836 0.00369135 5.59833e-20)
(0.0945922 0.00259806 -2.17691e-34)
(0.0871641 0.00222363 1.256e-20)
(0.0796711 0.000958746 1.12845e-20)
(3.3671 -0.0863121 5.39216e-19)
(3.32642 -0.265087 -8.41875e-20)
(3.24735 -0.430658 8.52079e-19)
(3.13238 -0.58216 -6.04765e-19)
(2.98634 -0.718128 6.66385e-19)
(2.81524 -0.836386 2.75219e-19)
(2.6266 -0.934064 -1.92753e-18)
(2.42951 -1.00785 -7.7454e-20)
(2.22468 -1.05369 0)
(1.98486 -1.06657 4.26085e-19)
(3.86191 -0.0750604 7.07364e-18)
(3.79859 -0.234215 1.95629e-18)
(3.70428 -0.387314 -4.86729e-18)
(3.58426 -0.531995 -4.49132e-19)
(3.44238 -0.665899 3.55889e-18)
(3.28186 -0.787327 1.9235e-18)
(3.1065 -0.895076 -5.16869e-18)
(2.92205 -0.987714 -1.95217e-18)
(2.7276 -1.0634 2.20314e-18)
(2.49237 -1.12054 8.52192e-19)
(3.83307 -0.0533017 -1.26259e-19)
(3.82024 -0.171568 4.40356e-18)
(3.78546 -0.299764 -1.08816e-18)
(3.72434 -0.430922 -3.44616e-18)
(3.63618 -0.558735 -6.79988e-18)
(3.52371 -0.678807 1.02786e-17)
(3.39117 -0.788799 4.18055e-18)
(3.2435 -0.887993 -3.91178e-18)
(3.08161 -0.978727 -2.90274e-18)
(2.88723 -1.06301 -3.42503e-18)
(3.62866 -0.0472866 -4.83934e-18)
(3.61961 -0.144933 -4.35338e-18)
(3.59963 -0.243742 5.47206e-18)
(3.56735 -0.343097 1.91184e-18)
(3.5224 -0.442381 -8.97114e-18)
(3.46416 -0.540812 4.92138e-19)
(3.39182 -0.637051 3.88634e-18)
(3.30511 -0.730437 -1.05391e-18)
(3.20498 -0.823072 1.27678e-18)
(3.08305 -0.914781 2.81775e-19)
(3.34405 -0.0365789 -9.15978e-19)
(3.339 -0.111657 3.00405e-18)
(3.3271 -0.188677 1.61955e-18)
(3.30744 -0.267173 -1.8942e-18)
(3.27986 -0.346071 -2.00133e-18)
(3.24465 -0.424139 -2.43398e-18)
(3.20203 -0.500337 3.79659e-19)
(3.15175 -0.574498 1.39013e-19)
(3.09548 -0.647764 -2.13965e-18)
(3.03286 -0.72131 -2.03432e-18)
(2.96257 -0.026555 -1.82246e-18)
(2.95981 -0.0798894 -5.87282e-20)
(2.9533 -0.134599 -1.63749e-18)
(2.9424 -0.190904 3.12138e-19)
(2.92675 -0.248551 5.36774e-18)
(2.90629 -0.30693 -3.66751e-19)
(2.88092 -0.365116 4.43386e-20)
(2.85023 -0.422061 -2.60855e-18)
(2.81643 -0.476885 -3.49559e-18)
(2.786 -0.529867 3.72827e-19)
(2.48713 -0.0175111 -2.89325e-20)
(2.48578 -0.0519351 -8.143e-19)
(2.48259 -0.0872486 -2.6148e-18)
(2.47707 -0.123772 -3.43096e-18)
(2.4688 -0.161534 2.4965e-18)
(2.45744 -0.200268 1.50223e-18)
(2.44261 -0.239354 -1.38505e-18)
(2.4237 -0.277792 1.62447e-18)
(2.40274 -0.314484 -4.29709e-19)
(2.38953 -0.349542 -9.63762e-19)
(1.91464 -0.00968862 7.7244e-19)
(1.91408 -0.0282978 -8.31778e-19)
(1.91278 -0.0474399 -3.27674e-20)
(1.91031 -0.0673592 -3.47251e-20)
(1.90624 -0.0881303 -7.27412e-20)
(1.90013 -0.109615 -2.3319e-18)
(1.89151 -0.131405 -6.78668e-19)
(1.87978 -0.152783 2.62608e-18)
(1.86664 -0.172975 -6.03502e-19)
(1.86191 -0.192207 -1.35113e-18)
(1.23989 -0.00373774 -1.64278e-18)
(1.23967 -0.0106958 -8.48891e-19)
(1.23923 -0.0179013 2.33914e-18)
(1.23823 -0.0254786 -8.89756e-19)
(1.23625 -0.0334753 -6.74109e-19)
(1.2329 -0.0418316 1.352e-18)
(1.22775 -0.05035 -1.29587e-18)
(1.22038 -0.0586655 1.28697e-18)
(1.21202 -0.0663426 -1.21031e-18)
(1.21007 -0.0735083 -4.24826e-18)
(0.454916 -0.000257988 6.63064e-19)
(0.454827 -0.00070054 7.03037e-19)
(0.454692 -0.00115912 7.48164e-19)
(0.454325 -0.00164005 1.35394e-18)
(0.453496 -0.00214017 -6.71972e-19)
(0.451984 -0.00263718 -1.29959e-18)
(0.449567 -0.00309909 6.14705e-19)
(0.445993 -0.00359291 2.48373e-20)
(0.441737 -0.00439221 -4.96532e-20)
(0.44035 -0.00504563 1.1057e-19)
(1.65356 0.997278 -2.85812e-19)
(1.51227 0.941862 1.79931e-20)
(1.35879 0.880748 -2.28708e-19)
(1.19767 0.808439 1.76313e-19)
(1.02957 0.723979 -1.91886e-19)
(0.854824 0.627077 -1.01088e-19)
(0.673759 0.516941 2.31976e-19)
(0.487035 0.392146 -3.0489e-19)
(0.295891 0.250643 3.09879e-19)
(0.101429 0.0916434 2.38701e-19)
(1.88639 0.992193 0)
(1.72968 0.934741 6.39352e-19)
(1.56083 0.872769 3.32571e-19)
(1.38228 0.801853 1.62689e-19)
(1.19453 0.719878 4.31168e-19)
(0.997533 0.625898 -8.68437e-20)
(0.79136 0.518601 -7.85317e-20)
(0.576346 0.395989 8.87493e-20)
(0.353317 0.255174 -1.04515e-18)
(0.122698 0.0943548 -1.66549e-20)
(2.09104 0.959039 1.56801e-19)
(1.92523 0.905069 0)
(1.74614 0.846462 -1.00732e-19)
(1.55494 0.779549 -3.8334e-19)
(1.3517 0.702082 5.3704e-20)
(1.13609 0.612789 3.97085e-19)
(0.907783 0.510088 -6.06853e-19)
(0.666589 0.391638 -2.00883e-19)
(0.412595 0.254044 7.83579e-19)
(0.14525 0.0947348 -1.75927e-19)
(2.28484 0.898354 1.87962e-19)
(2.11044 0.85056 1.19795e-20)
(1.9213 0.797861 2.45218e-20)
(1.71811 0.737 3.60843e-20)
(1.50058 0.665855 -2.92887e-20)
(1.26792 0.583131 2.73241e-19)
(1.01926 0.487168 -2.06871e-19)
(0.753674 0.37553 -8.55546e-19)
(0.47027 0.244677 0)
(0.167388 0.0916962 0)
(2.46796 0.811819 -1.07081e-18)
(2.28435 0.770836 -6.09208e-19)
(2.08493 0.725061 -1.20681e-19)
(1.87003 0.671522 -6.65699e-20)
(1.6389 0.608294 0)
(1.39031 0.534136 2.40743e-19)
(1.12275 0.447434 2.67768e-19)
(0.834554 0.345835 2.86231e-19)
(0.523839 0.225953 -4.2373e-19)
(0.187907 0.0848978 -8.1232e-20)
(2.634 0.702093 7.66412e-19)
(2.44156 0.668063 -1.3917e-19)
(2.23244 0.629679 -2.21587e-19)
(2.00664 0.584305 0)
(1.76301 0.530278 0)
(1.49988 0.466487 0)
(1.21522 0.391463 -3.8979e-20)
(0.906684 0.303089 3.70272e-19)
(0.571498 0.198348 3.79146e-19)
(0.206082 0.0746241 -3.08561e-19)
(2.7758 0.572355 -1.19356e-18)
(2.5755 0.54526 -1.48138e-18)
(2.35786 0.514529 -3.03343e-22)
(2.1226 0.477946 -1.87652e-19)
(1.86818 0.434181 -9.28781e-20)
(1.59258 0.382318 -1.78832e-19)
(1.29333 0.321124 4.59082e-19)
(0.967488 0.248836 2.14862e-19)
(0.611583 0.162966 5.40016e-19)
(0.221314 0.0613401 2.02849e-19)
(2.88707 0.425748 -1.15707e-18)
(2.68027 0.405633 8.47042e-20)
(2.45576 0.38282 1.64526e-19)
(2.21297 0.355611 1.68149e-20)
(1.95004 0.323051 -3.14396e-19)
(1.66465 0.284468 -1.74203e-19)
(1.35398 0.238937 -6.21199e-19)
(1.01464 0.18514 1.18529e-19)
(0.642604 0.121237 5.14739e-20)
(0.233065 0.0456126 -6.26915e-21)
(2.9628 0.265187 1.01364e-19)
(2.75121 0.252354 3.97001e-19)
(2.52189 0.237904 -3.3029e-19)
(2.27394 0.22074 3.63008e-19)
(2.00523 0.200297 3.72543e-19)
(1.71322 0.176176 4.9189e-19)
(1.39481 0.147809 -6.35732e-19)
(1.04633 0.114389 -3.24411e-19)
(0.663411 0.0748096 -4.58504e-20)
(0.240916 0.0280951 -3.2699e-19)
(3.00052 0.0935772 5.81809e-19)
(2.78612 0.0887856 -1.86159e-19)
(2.55425 0.083444 4.79558e-19)
(2.30366 0.0771501 -3.10661e-19)
(2.03208 0.0697279 2.66476e-19)
(1.73679 0.0610618 6.05401e-19)
(1.41457 0.0509784 3.7888e-19)
(1.06161 0.0392346 3.09338e-19)
(0.673396 0.0255065 2.65858e-19)
(0.244653 0.00950722 5.43608e-19)
(0.239614 0.452187 -4.69205e-19)
(0.204009 0.418462 -1.8772e-19)
(0.168438 0.381373 1.39186e-19)
(0.134904 0.343702 -4.19183e-19)
(0.105168 0.307572 -1.19401e-19)
(0.0782707 0.270319 6.92812e-19)
(0.0518957 0.223915 3.35803e-19)
(0.0259755 0.159053 -1.5536e-19)
(0.00706268 0.0797286 1.14769e-19)
(-0.00112303 0.0224559 -6.0752e-20)
(0.288653 0.544474 4.11407e-19)
(0.248749 0.507676 4.58387e-19)
(0.208201 0.465623 -1.1629e-20)
(0.167871 0.418588 -1.32765e-19)
(0.131145 0.370454 -3.1344e-19)
(0.100612 0.322849 8.28354e-20)
(0.0734849 0.269518 2.25218e-19)
(0.0459042 0.197051 1.65517e-19)
(0.0183495 0.101949 -5.91186e-19)
(0.00279308 0.0288912 -1.23646e-19)
(0.359655 0.633285 -6.0087e-19)
(0.313791 0.593133 -4.81449e-19)
(0.267996 0.54729 2.57691e-19)
(0.221355 0.493975 1.38292e-19)
(0.17581 0.434202 -6.13317e-21)
(0.136271 0.371979 -1.40131e-19)
(0.10212 0.305698 -2.95497e-20)
(0.0684403 0.224964 -5.55065e-19)
(0.0336773 0.126069 -2.69378e-19)
(0.00764214 0.0378138 -3.90601e-20)
(0.454207 0.718018 5.03299e-19)
(0.400051 0.673817 1.64733e-19)
(0.34636 0.622799 -1.49413e-19)
(0.292225 0.563746 6.32186e-20)
(0.237746 0.495638 -5.79209e-22)
(0.186584 0.420948 1.29721e-21)
(0.140103 0.340716 -1.32397e-19)
(0.0954611 0.250294 3.78322e-19)
(0.051439 0.147764 -4.19231e-19)
(0.013584 0.0477209 -6.5072e-20)
(0.571997 0.797973 -2.82159e-19)
(0.507851 0.749873 -8.88835e-20)
(0.443572 0.693018 -1.43544e-20)
(0.378964 0.627289 -7.03757e-20)
(0.313717 0.552021 5.8599e-20)
(0.249661 0.468111 5.28299e-20)
(0.188379 0.376748 -2.79721e-20)
(0.129325 0.276675 -2.8209e-19)
(0.0725291 0.167654 2.18324e-19)
(0.0209206 0.0568454 8.7259e-20)
(0.70941 0.87104 6.43275e-19)
(0.634363 0.819649 3.20721e-19)
(0.558127 0.757475 2.02936e-19)
(0.480854 0.685403 4.82194e-20)
(0.402412 0.603559 1.55158e-19)
(0.32387 0.512385 7.85663e-20)
(0.246467 0.412533 1.43452e-19)
(0.170866 0.303921 5.79421e-20)
(0.0980546 0.186805 -1.59062e-20)
(0.0299984 0.0650328 -1.33091e-20)
(0.862019 0.934939 -1.19775e-19)
(0.775541 0.880734 -8.24657e-19)
(0.686703 0.814101 -7.59244e-20)
(0.595725 0.73685 -5.24644e-20)
(0.502562 0.649642 -1.97703e-20)
(0.408125 0.552721 1.51571e-19)
(0.313479 0.446316 -4.38112e-20)
(0.21971 0.330415 6.49682e-20)
(0.128294 0.205081 -1.44612e-19)
(0.0409046 0.0724945 -1.26505e-21)
(1.02673 0.986086 -8.8465e-19)
(0.92847 0.929681 5.94298e-20)
(0.826658 0.859738 -2.34003e-19)
(0.721464 0.778907 -7.24035e-20)
(0.612769 0.68802 -2.39262e-20)
(0.501458 0.587074 -7.51865e-20)
(0.388527 0.475896 5.62648e-20)
(0.275163 0.354196 6.03001e-20)
(0.162982 0.221558 -9.82113e-21)
(0.0535442 0.0791208 -1.03774e-19)
(1.2039 1.01797 1.2382e-19)
(1.0935 0.960974 5.23048e-19)
(0.978256 0.889743 1.55183e-21)
(0.858225 0.807569 -2.95435e-20)
(0.733147 0.715309 1.50827e-19)
(0.603892 0.612554 -3.47241e-19)
(0.471404 0.498753 -2.4436e-19)
(0.336831 0.373209 3.56104e-19)
(0.201772 0.235007 1.44176e-19)
(0.0677021 0.0845325 -3.62107e-20)
(1.40059 1.0155 7.39682e-19)
(1.27806 0.962367 3.23685e-19)
(1.14783 0.895381 5.59298e-20)
(1.01087 0.816415 -1.94883e-19)
(0.867272 0.72653 -1.64318e-20)
(0.717902 0.625341 4.65547e-19)
(0.563584 0.512006 -2.682e-19)
(0.405341 0.385476 -1.84474e-19)
(0.244705 0.24432 3.35786e-19)
(0.0831138 0.0884407 -6.03847e-21)
(0.977152 0.0987404 8.62113e-21)
(1.14197 0.142293 -1.61556e-21)
(1.21373 0.190485 -2.37556e-20)
(1.32656 0.170519 0)
(1.37876 0.155449 1.45239e-23)
(1.27965 0.234126 -5.60211e-20)
(1.12988 0.385578 -5.42236e-20)
(0.94965 0.543585 -1.09844e-20)
(0.711818 0.648513 -3.06347e-19)
(0.416623 0.595708 4.23491e-19)
(0.982603 0.0799256 1.97798e-19)
(1.13378 0.114609 -3.13871e-20)
(1.21034 0.160042 1.89145e-21)
(1.31735 0.151364 1.1266e-20)
(1.38231 0.15764 3.37743e-21)
(1.29946 0.268827 -2.15036e-21)
(1.15979 0.435829 1.12127e-20)
(0.994192 0.606717 0)
(0.76165 0.727601 8.01928e-19)
(0.479442 0.686924 -5.68619e-19)
(0.98772 0.0613931 -1.13837e-19)
(1.13025 0.0879485 6.5846e-21)
(1.21001 0.130459 7.80392e-20)
(1.3142 0.130884 1.91805e-20)
(1.38558 0.158943 -2.32583e-20)
(1.31932 0.301494 -3.48585e-20)
(1.19279 0.48459 -1.23953e-20)
(1.04422 0.668269 4.47038e-20)
(0.823177 0.804107 -1.26709e-21)
(0.564483 0.774717 -3.66437e-19)
(0.992254 0.0425632 -8.08892e-20)
(1.13099 0.0618917 1.53854e-20)
(1.21318 0.101549 7.55698e-20)
(1.3174 0.110271 3.12057e-20)
(1.39135 0.159816 -2.38829e-20)
(1.3394 0.332067 -2.75872e-20)
(1.22927 0.531142 7.73416e-20)
(1.10027 0.727101 2.69329e-20)
(0.899915 0.875765 -5.48292e-19)
(0.673692 0.857122 -1.77705e-19)
(0.995941 0.0230417 3.6444e-20)
(1.1352 0.0359768 -4.60638e-20)
(1.21941 0.0731943 -6.77358e-20)
(1.32558 0.0902252 2.27722e-20)
(1.3986 0.161231 0)
(1.35941 0.360946 0)
(1.26932 0.57482 7.88182e-20)
(1.16352 0.781822 -2.82838e-20)
(0.994648 0.940088 -1.18243e-19)
(0.805099 0.932495 -5.7405e-20)
(0.998475 0.002664 3.34214e-21)
(1.14191 0.00978589 5.80629e-20)
(1.22777 0.0452991 -2.0778e-19)
(1.33683 0.0712883 -7.71816e-20)
(1.40614 0.164019 -4.79582e-21)
(1.37926 0.388276 1.2768e-19)
(1.31315 0.614758 1.54567e-19)
(1.23549 0.830708 -1.8054e-20)
(1.10778 0.995276 -4.40907e-20)
(0.953755 1.0002 3.02762e-21)
(0.999073 -0.0187227 2.05353e-21)
(1.15023 -0.0170435 3.01274e-20)
(1.2373 0.0178802 -6.56193e-20)
(1.34964 0.0539621 -1.56094e-19)
(1.41308 0.168423 1.1731e-20)
(1.39924 0.413721 7.34782e-21)
(1.36136 0.649834 -5.97666e-20)
(1.31731 0.872108 -1.07459e-19)
(1.23727 1.04105 -3.07531e-20)
(1.11388 1.06037 -9.79708e-19)
(0.996788 -0.0408572 1.49679e-20)
(1.15959 -0.0448025 -1.45085e-19)
(1.24729 -0.00888783 1.32826e-19)
(1.36279 0.0389844 1.02841e-19)
(1.41827 0.174905 5.00412e-21)
(1.41932 0.436811 -1.34706e-19)
(1.41385 0.679012 6.97911e-22)
(1.40831 0.905089 -1.33481e-19)
(1.37931 1.07828 1.11012e-20)
(1.27987 1.11246 2.8832e-18)
(0.991553 -0.0631094 -8.83148e-20)
(1.16994 -0.0736107 8.10341e-20)
(1.2574 -0.0348259 1.91141e-19)
(1.37559 0.0264724 -1.15221e-19)
(1.42228 0.183223 -2.28681e-19)
(1.44108 0.457246 9.25953e-21)
(1.47188 0.70216 1.70091e-19)
(1.50846 0.930359 -5.76182e-19)
(1.53084 1.10825 -2.68489e-20)
(1.44836 1.15343 -6.47491e-18)
(0.984314 -0.0859749 4.10073e-21)
(1.18157 -0.103451 1.4248e-19)
(1.26751 -0.0597362 6.16397e-20)
(1.38691 0.0188242 -2.78048e-19)
(1.42293 0.197429 -2.46637e-19)
(1.46209 0.478602 -7.34316e-20)
(1.53111 0.723067 8.22293e-20)
(1.61157 0.951265 -2.04603e-19)
(1.68374 1.1306 -1.08616e-18)
(1.61564 1.17239 -7.95129e-18)
(0.974329 -0.117052 -1.44955e-20)
(1.19584 -0.143061 -3.29646e-20)
(1.27685 -0.0933646 -7.72511e-20)
(1.39747 0.00453358 1.4364e-19)
(1.42437 0.196583 2.03503e-19)
(1.49176 0.474082 -6.14029e-20)
(1.61188 0.712445 -1.41892e-19)
(1.75377 0.940396 -1.20026e-18)
(1.9028 1.13258 -1.59899e-18)
(1.89936 1.20872 3.28586e-18)
(0.962005 -0.155722 -4.04689e-19)
(1.21439 -0.192495 1.8282e-20)
(1.28081 -0.139367 -5.84751e-20)
(1.39769 -0.0169608 3.38728e-19)
(1.40223 0.174556 3.45766e-19)
(1.49316 0.429092 4.56135e-21)
(1.66801 0.648056 -6.54091e-20)
(1.88064 0.865958 -2.83994e-19)
(2.13955 1.07142 2.79257e-19)
(2.28454 1.16085 -3.23497e-19)
(0.949368 -0.196216 -2.78985e-20)
(1.23967 -0.24234 -5.49701e-20)
(1.2799 -0.183896 3.08128e-20)
(1.39272 -0.0352447 2.69828e-20)
(1.37534 0.163519 1.71957e-33)
(1.46947 0.371706 2.55745e-21)
(1.68023 0.561469 -2.03503e-33)
(1.94892 0.759642 1.85171e-19)
(2.30188 0.956429 -9.30923e-19)
(2.58733 1.05847 -6.29261e-19)
(0.936993 -0.242961 1.4106e-18)
(1.27117 -0.282333 -7.75695e-34)
(1.24935 -0.229127 -4.04705e-20)
(1.26985 -0.0369303 -2.28514e-19)
(1.26167 0.144922 -4.45793e-19)
(1.38898 0.302736 -8.82763e-19)
(1.61888 0.460136 -5.06162e-33)
(1.92909 0.63113 -1.73771e-18)
(2.32572 0.802115 -3.17757e-18)
(2.75371 0.902602 1.67514e-18)
(0.927286 -0.30054 0)
(1.3166 -0.327213 -1.61767e-33)
(1.11258 -0.207142 0)
(1.10679 -0.0297712 0)
(1.11876 0.115157 0)
(1.25838 0.233011 0)
(1.48946 0.355478 -8.06024e-33)
(1.81492 0.491585 0)
(2.21341 0.634293 -3.39714e-19)
(2.73496 0.712023 1.25747e-18)
(0.916488 -0.360819 1.16133e-19)
(1.25159 -0.326191 -4.68626e-19)
(0.960005 -0.17419 -5.50435e-20)
(0.933631 -0.0259219 0)
(0.955976 0.0827429 0)
(1.08998 0.165562 6.03919e-20)
(1.30624 0.253929 1.17647e-18)
(1.61591 0.354695 -1.95056e-19)
(1.99668 0.466205 -4.95299e-19)
(2.53244 0.520482 4.67306e-18)
(0.883468 -0.405317 -1.52015e-17)
(1.09208 -0.27996 1.08722e-18)
(0.792654 -0.130553 -7.27422e-20)
(0.746798 -0.0210919 -7.42656e-20)
(0.772735 0.0525645 -5.12746e-19)
(0.889476 0.104574 -7.72829e-19)
(1.07626 0.161288 -1.04802e-18)
(1.34602 0.22902 -1.38229e-18)
(1.6876 0.306117 -1.60529e-18)
(2.17993 0.344446 3.61253e-18)
(0.809003 -0.394518 -4.13675e-19)
(0.886462 -0.20759 -1.21647e-18)
(0.605555 -0.0828773 -1.25641e-19)
(0.549543 -0.0153004 -8.42231e-20)
(0.571759 0.0276235 -9.89612e-34)
(0.661548 0.0545653 9.37e-20)
(0.805416 0.0845897 -1.4852e-32)
(1.0162 0.12294 -1.93435e-19)
(1.29247 0.167308 2.98951e-19)
(1.69929 0.192071 7.0577e-19)
(0.664253 -0.288844 3.42549e-17)
(0.618255 -0.108101 -3.14011e-18)
(0.393381 -0.0351216 -2.40693e-19)
(0.339306 -0.00736322 -1.58303e-19)
(0.35369 0.00925497 3.94096e-19)
(0.410434 0.0183637 7.84257e-19)
(0.501177 0.0291916 7.95308e-19)
(0.636724 0.0448844 4.59862e-19)
(0.820753 0.063456 -1.9043e-19)
(1.10156 0.0762254 3.5694e-18)
(0.336837 -0.0768237 5.58823e-19)
(0.26185 -0.00230477 -6.76604e-33)
(0.144383 0.0190786 -3.04909e-19)
(0.120382 0.00336925 0)
(0.123596 -0.00235131 0)
(0.141839 -0.00541611 9.63772e-20)
(0.172366 -0.00624694 9.35476e-35)
(0.220294 -0.00417663 -1.23571e-19)
(0.28813 -0.00161923 -2.82616e-19)
(0.39901 0.00331828 1.00159e-18)
(2.00206 1.09643 -1.78983e-18)
(2.23907 1.07847 -2.30493e-18)
(2.44208 1.02911 0)
(2.63707 0.952509 -7.58049e-19)
(2.82358 0.852514 -1.78274e-18)
(2.99276 0.732394 -2.24948e-18)
(3.13709 0.595044 -4.75943e-19)
(3.25054 0.4427 1.26927e-18)
(3.32824 0.276965 -3.54789e-18)
(3.36764 0.0986984 1.35668e-18)
(2.49867 1.14199 2.67716e-19)
(2.73056 1.08193 1.39735e-18)
(2.92387 1.00421 1.43919e-19)
(3.10674 0.909811 6.75708e-19)
(3.2806 0.800668 -1.10397e-18)
(3.43997 0.678331 -5.00043e-18)
(3.58096 0.544017 2.46803e-18)
(3.70047 0.399324 1.27034e-17)