# Selection   : all
# Cells       : 440
# Volume      : 7.374263e+01
# Time        	max(p)
9.925         	3.907190e+00
9.97          	2.132325e+00
