# Selection   : all
# Cells       : 440
# Volume      : 7.374263e+01
# Time        	minMag(U)
0             	0.000000e+00
0.05          	7.175060e-02
0.1           	5.053494e-02
0.15          	3.411727e-02
0.2           	2.162807e-02
0.25          	1.381348e-02
0.3           	1.382053e-02
0.35          	1.875882e-02
0.4           	1.332067e-02
0.45          	1.431329e-02
0.5           	1.866212e-02
0.55          	1.340015e-02
0.6           	1.411739e-02
0.65          	1.599252e-02
0.7           	1.485982e-02
0.75          	4.027624e-02
0.8           	1.158015e-02
0.85          	2.769275e-02
0.9           	4.124416e-02
0.95          	1.594305e-02
1             	2.430699e-02
1.05          	3.526463e-02
1.1           	1.470404e-02
1.15          	3.455090e-03
1.2           	1.915834e-02
1.25          	1.396658e-02
1.3           	4.475013e-02
1.35          	5.513902e-02
1.4           	5.744825e-02
1.45          	5.176557e-02
1.5           	4.582774e-02
1.55          	3.980547e-02
1.6           	3.477108e-02
1.65          	3.214254e-02
1.7           	3.297715e-02
1.75          	3.713069e-02
1.8           	4.342414e-02
1.85          	5.086709e-02
1.9           	5.568988e-02
1.95          	4.655685e-02
2             	2.534106e-02
2.05          	2.453910e-02
2.1           	2.166817e-02
2.15          	1.436050e-02
2.2           	7.774013e-03
2.25          	3.628290e-03
2.3           	6.693942e-03
2.35          	1.188870e-02
2.4           	1.683534e-02
2.45          	2.141142e-02
2.5           	2.311876e-02
2.55          	2.467720e-02
2.6           	2.714775e-02
2.65          	2.995238e-02
2.7           	3.258906e-02
2.75          	3.482088e-02
2.8           	3.486830e-02
2.85          	3.320786e-02
2.9           	3.163182e-02
2.95          	3.013151e-02
3             	2.863215e-02
3.05          	2.719429e-02
3.1           	2.579589e-02
3.15          	2.445717e-02
3.2           	2.317629e-02
3.25          	2.194158e-02
3.3           	2.075677e-02
3.35          	1.961883e-02
3.4           	1.862310e-02
3.45          	1.771798e-02
3.5           	1.683852e-02
3.55          	1.599848e-02
3.6           	1.520908e-02
3.65          	1.442824e-02
3.7           	1.355317e-02
3.75          	1.294805e-02
3.8           	1.240409e-02
3.85          	1.197652e-02
3.9           	1.170541e-02
3.95          	1.145485e-02
4             	1.129018e-02
4.05          	1.123261e-02
4.1           	1.133829e-02
4.15          	1.147988e-02
4.2           	1.170841e-02
4.25          	1.198572e-02
4.3           	1.236207e-02
4.35          	1.287344e-02
4.4           	1.342435e-02
4.45          	1.407658e-02
4.5           	1.483643e-02
4.55          	1.467188e-02
4.6           	1.658182e-02
4.65          	1.755322e-02
4.7           	1.859508e-02
4.75          	1.968183e-02
4.8           	2.071454e-02
4.85          	2.206958e-02
4.9           	1.691725e-02
4.95          	1.913675e-02
5             	2.698512e-02
5.05          	2.805920e-02
5.1           	2.853570e-02
5.15          	2.849285e-02
5.2           	1.860387e-02
5.25          	1.723116e-02
5.3           	1.550173e-02
5.35          	1.214298e-02
5.4           	1.547682e-02
5.45          	2.071592e-02
5.5           	1.766195e-02
5.55          	1.436430e-02
5.6           	1.165196e-02
5.65          	1.009522e-02
5.7           	8.871335e-03
5.75          	8.116312e-03
5.8           	8.622436e-03
5.85          	9.728165e-03
5.9           	7.451634e-03
5.95          	6.574443e-03
6             	1.209294e-02
6.05          	1.210764e-02
6.1           	1.166098e-02
6.15          	1.089951e-02
6.2           	1.087683e-02
6.25          	1.275618e-02
6.3           	1.764238e-02
6.35          	2.592882e-02
6.4           	2.492984e-02
6.45          	2.352660e-02
6.5           	2.200439e-02
6.55          	2.039934e-02
6.6           	1.867237e-02
6.65          	1.692740e-02
6.7           	1.518956e-02
6.75          	1.344173e-02
6.8           	1.171360e-02
6.85          	1.001728e-02
6.9           	8.331729e-03
6.95          	6.703021e-03
7             	5.083007e-03
7.05          	3.601063e-03
7.1           	2.352881e-03
7.15          	2.375360e-03
7.2           	2.844595e-03
7.25          	3.252950e-03
7.3           	3.660898e-03
7.35          	4.114863e-03
7.4           	4.573113e-03
7.45          	5.019124e-03
7.5           	5.383458e-03
7.55          	5.630905e-03
7.6           	5.836834e-03
7.65          	6.075758e-03
7.7           	6.509979e-03
7.75          	6.596180e-03
7.8           	6.296408e-03
7.85          	6.031091e-03
7.9           	5.860126e-03
7.95          	5.458543e-03
8             	5.077998e-03
8.05          	4.684437e-03
8.1           	4.275890e-03
8.15          	3.960044e-03
8.2           	3.797339e-03
8.25          	3.830373e-03
8.3           	4.146187e-03
8.35          	4.744396e-03
8.4           	5.543610e-03
8.45          	6.470027e-03
8.5           	7.507670e-03
8.55          	8.626412e-03
8.6           	9.819055e-03
8.65          	1.099269e-02
8.7           	1.240489e-02
8.75          	1.387870e-02
8.8           	1.181238e-02
8.85          	9.297615e-03
8.9           	6.868573e-03
8.95          	4.564334e-03
9             	2.422844e-03
9.05          	4.674953e-04
9.1           	1.424221e-03
9.15          	3.296481e-03
9.2           	4.846503e-03
9.25          	5.940492e-03
9.3           	7.044429e-03
9.35          	8.147732e-03
9.4           	9.112271e-03
9.45          	1.000825e-02
9.5           	1.088161e-02
9.55          	1.159577e-02
9.6           	1.194379e-02
9.65          	1.273849e-02
9.7           	1.308968e-02
9.75          	1.191205e-02
9.8           	1.331449e-02
9.85          	1.318477e-02
9.9           	7.865214e-03
9.95          	8.095774e-03
10            	9.565125e-03
10.05         	1.151322e-02
10.1          	1.057371e-02
10.15         	9.728637e-03
10.2          	8.759676e-03
10.25         	7.816517e-03
10.3          	6.792956e-03
10.35         	5.909190e-03
10.4          	5.334385e-03
10.45         	5.192233e-03
10.5          	5.546235e-03
10.55         	6.338954e-03
10.6          	7.477615e-03
10.65         	8.901277e-03
10.7          	1.021951e-02
10.75         	1.165761e-02
10.8          	1.315994e-02
10.85         	1.486976e-02
10.9          	1.678142e-02
10.95         	1.875303e-02
11            	2.070815e-02
11.05         	2.250784e-02
11.1          	1.855058e-02
11.15         	1.448597e-02
11.2          	1.371274e-02
11.25         	1.693846e-02
11.3          	2.262245e-02
11.35         	2.952227e-02
11.4          	3.539514e-02
11.45         	3.720369e-02
11.5          	3.886506e-02
11.55         	3.832465e-02
11.6          	3.722061e-02
11.65         	3.580280e-02
11.7          	3.410594e-02
11.75         	3.212919e-02
11.8          	2.983731e-02
11.85         	2.721911e-02
11.9          	2.416336e-02
11.95         	2.079942e-02
12            	1.705334e-02
12.05         	1.272382e-02
12.1          	7.451436e-03
12.15         	2.309783e-03
12.2          	5.647578e-03
12.25         	1.297452e-02
12.3          	1.854127e-02
12.35         	2.299525e-02
12.4          	2.016465e-02
12.45         	1.707076e-02
12.5          	1.462053e-02
12.55         	1.320506e-02
12.6          	1.475265e-02
12.65         	1.763628e-02
12.7          	2.091061e-02
12.75         	1.499569e-02
12.8          	2.816311e-02
12.85         	2.417765e-02
12.9          	1.388157e-02
12.95         	2.102570e-02
13            	1.088483e-02
13.05         	1.333763e-02
13.1          	2.296322e-02
13.15         	2.139113e-02
13.2          	1.943980e-02
13.25         	1.654161e-02
13.3          	1.790748e-02
13.35         	1.981907e-02
13.4          	2.173381e-02
13.45         	2.404253e-02
13.5          	2.743590e-02
13.55         	2.529960e-02
13.6          	2.343560e-02
13.65         	2.177892e-02
13.7          	2.044205e-02
13.75         	1.940673e-02
13.8          	1.822674e-02
13.85         	1.731876e-02
13.9          	1.647857e-02
13.95         	1.565129e-02
14            	1.445764e-02
14.05         	1.262832e-02
14.1          	1.054026e-02
14.15         	8.466679e-03
14.2          	6.559486e-03
14.25         	4.956327e-03
14.3          	4.120693e-03
14.35         	4.419508e-03
14.4          	5.486898e-03
14.45         	7.207855e-03
14.5          	9.029877e-03
14.55         	9.159442e-03
14.6          	7.432759e-03
14.65         	5.667304e-03
14.7          	3.923434e-03
14.75         	2.078984e-03
14.8          	8.737039e-04
14.85         	2.614224e-03
14.9          	4.935108e-03
14.95         	7.489463e-03
15            	1.017249e-02
15.05         	1.279077e-02
15.1          	1.516965e-02
15.15         	1.739560e-02
15.2          	1.952137e-02
15.25         	2.148713e-02
15.3          	2.297454e-02
15.35         	2.382753e-02
15.4          	1.603371e-02
15.45         	7.870414e-03
15.5          	2.835419e-03
15.55         	1.116189e-02
15.6          	2.070098e-02
15.65         	9.957957e-03
15.7          	2.714911e-02
15.75         	2.754382e-02
15.8          	6.422835e-03
15.85         	2.227085e-02
15.9          	2.510046e-02
15.95         	2.880224e-02
16            	1.375059e-02
16.05         	2.939484e-02
16.1          	2.759388e-02
16.15         	2.566085e-02
16.2          	2.366643e-02
16.25         	1.858513e-02
16.3          	1.924441e-02
16.35         	1.691934e-02
16.4          	1.442447e-02
16.45         	1.219414e-02
16.5          	9.984018e-03
16.55         	8.149502e-03
16.6          	7.055578e-03
16.65         	6.927702e-03
16.7          	7.734063e-03
16.75         	9.411205e-03
16.8          	1.158833e-02
16.85         	1.401667e-02
16.9          	1.666667e-02
16.95         	1.951751e-02
17            	2.250311e-02
17.05         	2.531703e-02
17.1          	2.827683e-02
17.15         	3.140589e-02
17.2          	3.449537e-02
17.25         	3.754627e-02
17.3          	3.848879e-02
17.35         	3.281989e-02
17.4          	2.952589e-02
17.45         	2.890136e-02
17.5          	3.087389e-02
17.55         	2.356033e-02
17.6          	2.896767e-02
17.65         	2.596940e-02
17.7          	2.330725e-02
17.75         	2.080420e-02
17.8          	1.821198e-02
17.85         	1.593004e-02
17.9          	1.338330e-02
17.95         	1.066511e-02
18            	7.921946e-03
18.05         	5.080382e-03
18.1          	2.104943e-03
18.15         	1.501297e-03
18.2          	5.127485e-03
18.25         	9.478066e-03
18.3          	1.473465e-02
18.35         	2.018805e-02
18.4          	2.673355e-02
18.45         	2.350875e-02
18.5          	2.024657e-02
18.55         	1.741315e-02
18.6          	1.535447e-02
18.65         	1.440967e-02
18.7          	1.308044e-02
18.75         	1.362063e-02
18.8          	1.830959e-02
18.85         	2.202144e-02
18.9          	1.635430e-02
18.95         	3.003756e-02
19            	3.549932e-02
19.05         	2.220741e-02
19.1          	1.037005e-02
19.15         	1.590622e-02
19.2          	2.141430e-02
19.25         	1.346069e-02
19.3          	1.052230e-02
19.35         	9.857640e-03
19.4          	1.008858e-02
19.45         	1.096024e-02
19.5          	1.198275e-02
19.55         	1.333538e-02
19.6          	1.402590e-02
19.65         	1.547422e-02
19.7          	1.679492e-02
19.75         	1.786318e-02
19.8          	1.891694e-02
19.85         	2.029868e-02
19.9          	2.212576e-02
19.95         	2.216497e-02
20            	2.176594e-02
20.05         	2.089180e-02
20.1          	1.952909e-02
20.15         	1.801538e-02
20.2          	1.643362e-02
20.25         	1.490028e-02
20.3          	1.308280e-02
20.35         	1.117661e-02
20.4          	8.693339e-03
20.45         	5.242404e-03
20.5          	2.127846e-03
20.55         	8.732726e-04
20.6          	3.793128e-03
20.65         	5.274513e-03
20.7          	6.418819e-03
20.75         	7.679797e-03
20.8          	8.991788e-03
20.85         	1.033979e-02
20.9          	1.155176e-02
20.95         	1.282100e-02
21            	1.272387e-02
21.05         	7.531379e-03
21.1          	5.101461e-03
21.15         	8.868898e-03
21.2          	1.319865e-02
21.25         	7.660549e-03
21.3          	1.811843e-03
21.35         	5.027727e-03
21.4          	1.294225e-02
21.45         	1.870750e-02
21.5          	2.133287e-02
21.55         	2.173304e-02
21.6          	7.130903e-03
21.65         	1.645399e-02
21.7          	2.331690e-02
21.75         	2.387738e-02
21.8          	1.824033e-02
21.85         	2.221385e-02
21.9          	1.464427e-02
21.95         	1.958455e-02
22            	2.191523e-02
22.05         	2.130798e-02
22.1          	2.064491e-02
22.15         	2.078223e-02
22.2          	2.117574e-02
22.25         	2.149778e-02
22.3          	2.177391e-02
22.35         	1.882688e-02
22.4          	1.067211e-02
22.45         	2.153060e-02
22.5          	1.908283e-02
22.55         	1.649933e-02
22.6          	1.399240e-02
22.65         	1.168946e-02
22.7          	9.673359e-03
22.75         	8.450757e-03
22.8          	8.357257e-03
22.85         	9.386174e-03
22.9          	1.120643e-02
22.95         	1.358996e-02
23            	1.632359e-02
23.05         	1.944307e-02
23.1          	2.231815e-02
23.15         	2.512452e-02
23.2          	2.653948e-02
23.25         	2.819143e-02
23.3          	3.239422e-02
23.35         	3.566839e-02
23.4          	3.407870e-02
23.45         	3.202282e-02
23.5          	3.009222e-02
23.55         	2.823752e-02
23.6          	2.597257e-02
23.65         	2.283190e-02
23.7          	2.047559e-02
23.75         	1.874973e-02
23.8          	1.698465e-02
23.85         	1.504331e-02
23.9          	1.293056e-02
23.95         	1.071708e-02
24            	8.495615e-03
24.05         	6.205479e-03
24.1          	3.719026e-03
24.15         	1.376094e-03
24.2          	2.877038e-03
24.25         	6.606128e-03
24.3          	1.110026e-02
24.35         	1.600678e-02
24.4          	2.157335e-02
24.45         	2.469688e-02
24.5          	2.801605e-02
24.55         	2.632271e-02
24.6          	2.455352e-02
24.65         	2.365768e-02
24.7          	2.259788e-02
24.75         	1.092925e-02
24.8          	2.811063e-02
24.85         	2.629066e-02
24.9          	1.579880e-02
24.95         	3.992397e-02
25            	2.936908e-02
25.05         	1.733874e-02
25.1          	1.333493e-02
25.15         	2.339255e-02
25.2          	2.709919e-02
25.25         	2.194023e-02
25.3          	1.657360e-02
25.35         	1.576424e-02
25.4          	1.535460e-02
25.45         	1.557569e-02
25.5          	1.610163e-02
25.55         	1.739232e-02
25.6          	1.828456e-02
25.65         	1.707946e-02
25.7          	1.602502e-02
25.75         	1.521799e-02
25.8          	1.472480e-02
25.85         	1.447634e-02
25.9          	1.436553e-02
25.95         	1.430526e-02
26            	1.416231e-02
26.05         	1.367302e-02
26.1          	1.256479e-02
26.15         	1.129234e-02
26.2          	1.005790e-02
26.25         	8.872367e-03
26.3          	7.701625e-03
26.35         	6.648359e-03
26.4          	5.497136e-03
26.45         	4.680035e-03
26.5          	4.550558e-03
26.55         	4.481844e-03
26.6          	1.885556e-03
26.65         	7.640419e-04
26.7          	3.420161e-03
26.75         	6.162539e-03
26.8          	8.866985e-03
26.85         	1.173569e-02
26.9          	1.432676e-02
26.95         	1.551199e-02
27            	1.673346e-02
27.05         	1.793955e-02
27.1          	1.913644e-02
27.15         	2.027282e-02
27.2          	1.814531e-02
27.25         	1.396017e-02
27.3          	8.392342e-03
27.35         	2.690979e-03
27.4          	3.606054e-03
27.45         	1.011638e-02
27.5          	1.768181e-02
27.55         	2.061370e-02
27.6          	2.806279e-02
27.65         	2.854202e-02
27.7          	1.703871e-02
27.75         	8.140094e-03
27.8          	2.150992e-02
27.85         	9.960534e-03
27.9          	8.191248e-03
27.95         	2.137204e-02
28            	2.820845e-02
28.05         	2.715774e-02
28.1          	2.627746e-02
28.15         	2.554541e-02
28.2          	2.489648e-02
28.25         	2.490501e-02
28.3          	3.924308e-03
28.35         	1.864022e-02
28.4          	1.536680e-02
28.45         	1.394271e-02
28.5          	1.407753e-02
28.55         	1.178424e-02
28.6          	9.823107e-03
28.65         	8.248819e-03
28.7          	7.543078e-03
28.75         	7.854691e-03
28.8          	9.264758e-03
28.85         	1.128875e-02
28.9          	1.386799e-02
28.95         	1.666887e-02
29            	1.970526e-02
29.05         	2.290192e-02
29.1          	1.023983e-02
29.15         	1.164834e-02
29.2          	2.201190e-02
29.25         	3.129733e-02
29.3          	3.747537e-02
29.35         	3.731076e-02
29.4          	3.592714e-02
29.45         	3.434906e-02
29.5          	3.210055e-02
29.55         	2.981667e-02
29.6          	2.494523e-02
29.65         	2.068607e-02
29.7          	2.164160e-02
29.75         	1.901220e-02
29.8          	1.676348e-02
29.85         	1.440332e-02
29.9          	1.181627e-02
29.95         	9.164453e-03
30            	6.516684e-03
30.05         	3.794328e-03
30.1          	1.058918e-03
30.15         	2.733817e-03
30.2          	6.401396e-03
30.25         	1.079193e-02
30.3          	1.599367e-02
30.35         	2.140446e-02
30.4          	2.647999e-02
30.45         	2.355902e-02
30.5          	2.070320e-02
30.55         	1.822468e-02
30.6          	1.691577e-02
30.65         	1.634287e-02
30.7          	1.596671e-02
30.75         	1.287910e-02
30.8          	2.221691e-02
30.85         	2.597587e-02
30.9          	1.802791e-02
30.95         	3.448446e-02
31            	3.155188e-02
31.05         	2.215892e-02
31.1          	1.436732e-02
31.15         	1.832363e-02
31.2          	2.447502e-02
31.25         	1.644253e-02
31.3          	1.366451e-02
31.35         	1.236785e-02
31.4          	1.168779e-02
31.45         	1.159062e-02
31.5          	1.191021e-02
31.55         	1.246126e-02
31.6          	1.341059e-02
31.65         	1.452004e-02
31.7          	1.591813e-02
31.75         	1.782088e-02
31.8          	2.014896e-02
31.85         	1.982252e-02
31.9          	1.965934e-02
31.95         	1.929350e-02
32            	1.887476e-02
32.05         	1.803339e-02
32.1          	1.671937e-02
32.15         	1.523420e-02
32.2          	1.372137e-02
32.25         	1.221026e-02
32.3          	1.054448e-02
32.35         	8.777413e-03
32.4          	6.977188e-03
32.45         	4.558908e-03
32.5          	1.527087e-03
32.55         	1.422831e-03
32.6          	4.394966e-03
32.65         	6.795194e-03
32.7          	8.134827e-03
32.75         	9.478815e-03
32.8          	1.080181e-02
32.85         	1.212192e-02
32.9          	1.328865e-02
32.95         	1.449260e-02
33            	1.383323e-02
33.05         	9.558858e-03
33.1          	8.194841e-03
33.15         	1.210793e-02
33.2          	1.337172e-02
33.25         	7.927169e-03
33.3          	1.951781e-03
33.35         	5.023497e-03
33.4          	1.270965e-02
33.45         	1.170806e-02
33.5          	2.274159e-02
33.55         	2.320718e-02
33.6          	9.666028e-03
33.65         	1.534127e-02
33.7          	2.464576e-02
33.75         	2.510344e-02
33.8          	2.128592e-02
33.85         	1.737791e-02
33.9          	1.437842e-02
33.95         	2.344022e-02
34            	2.261970e-02
34.05         	2.200480e-02
34.1          	2.133837e-02
34.15         	2.143374e-02
34.2          	2.171499e-02
34.25         	2.193069e-02
34.3          	2.210609e-02
34.35         	1.178194e-02
34.4          	1.569009e-02
34.45         	1.967920e-02
34.5          	1.713093e-02
34.55         	1.456579e-02
34.6          	1.224634e-02
34.65         	1.014855e-02
34.7          	8.559979e-03
34.75         	8.111523e-03
34.8          	8.800837e-03
34.85         	1.046295e-02
34.9          	1.272712e-02
34.95         	1.535238e-02
35            	1.831583e-02
35.05         	2.166802e-02
35.1          	2.459566e-02
35.15         	2.469780e-02
35.2          	2.642471e-02
35.25         	3.082901e-02
35.3          	3.615134e-02
35.35         	3.505937e-02
35.4          	3.315830e-02
35.45         	3.107578e-02
35.5          	2.912365e-02
35.55         	2.714716e-02
35.6          	2.435085e-02
35.65         	2.151892e-02
35.7          	1.919457e-02
35.75         	1.739202e-02
35.8          	1.543715e-02
35.85         	1.334067e-02
35.9          	1.099705e-02
35.95         	8.652966e-03
36            	6.280189e-03
36.05         	3.817373e-03
36.1          	1.277251e-03
36.15         	2.573202e-03
36.2          	6.079697e-03
36.25         	1.047641e-02
36.3          	1.528790e-02
36.35         	2.087663e-02
36.4          	2.513783e-02
36.45         	2.705011e-02
36.5          	2.476885e-02
36.55         	2.273993e-02
36.6          	2.142217e-02
36.65         	8.960825e-03
36.7          	2.116556e-02
36.75         	2.422369e-02
36.8          	2.802295e-02
36.85         	1.339815e-02
36.9          	3.091722e-02
36.95         	3.373450e-02
37            	2.108754e-02
37.05         	1.284347e-02
37.1          	1.994963e-02
37.15         	2.705745e-02
37.2          	2.165854e-02
37.25         	1.512459e-02
37.3          	1.354677e-02
37.35         	1.292278e-02
37.4          	1.268271e-02
37.45         	1.310973e-02
37.5          	1.384938e-02
37.55         	1.487909e-02
37.6          	2.920145e-03
37.65         	1.813235e-02
37.7          	1.705848e-02
37.75         	1.634160e-02
37.8          	1.592387e-02
37.85         	1.572738e-02
37.9          	1.566168e-02
37.95         	1.553729e-02
38            	1.519759e-02
38.05         	1.416488e-02
38.1          	1.289196e-02
38.15         	1.160137e-02
38.2          	1.031597e-02
38.25         	9.135298e-03
38.3          	7.888409e-03
38.35         	6.492263e-03
38.4          	5.288182e-03
38.45         	4.595205e-03
38.5          	3.907804e-03
38.55         	1.242431e-03
38.6          	1.509055e-03
38.65         	4.291682e-03
38.7          	7.114990e-03
38.75         	9.934371e-03
38.8          	1.212332e-02
38.85         	1.345290e-02
38.9          	1.467420e-02
38.95         	1.582113e-02
39            	1.704908e-02
39.05         	1.817972e-02
39.1          	1.481863e-02
39.15         	1.185738e-02
39.2          	1.402986e-02
39.25         	8.378768e-03
39.3          	2.570366e-03
39.35         	3.778114e-03
39.4          	1.053463e-02
39.45         	1.794839e-02
39.5          	1.356463e-02
39.55         	2.653504e-02
39.6          	2.704949e-02
39.65         	1.138148e-02
39.7          	1.405297e-02
39.75         	2.822185e-02
39.8          	1.684850e-02
39.85         	6.037785e-03
39.9          	1.192808e-02
39.95         	2.627015e-02
40            	2.580732e-02
40.05         	2.499483e-02
40.1          	2.430087e-02
40.15         	2.366603e-02
40.2          	2.377125e-02
40.25         	2.395161e-02
40.3          	6.530639e-03
40.35         	1.752063e-02
40.4          	4.239798e-03
40.45         	1.671914e-02
40.5          	1.429394e-02
40.55         	1.201267e-02
40.6          	9.978317e-03
40.65         	8.371360e-03
40.7          	7.738778e-03
40.75         	8.227356e-03
40.8          	9.748054e-03
40.85         	1.193242e-02
40.9          	1.455828e-02
40.95         	1.747301e-02
41            	2.062906e-02
41.05         	2.370230e-02
41.1          	2.708640e-02
41.15         	3.021057e-02
41.2          	3.323106e-02
41.25         	3.632247e-02
41.3          	3.699789e-02
41.35         	3.560777e-02
41.4          	3.410025e-02
41.45         	3.193708e-02
41.5          	2.981739e-02
41.55         	2.744869e-02
41.6          	2.465151e-02
41.65         	2.179471e-02
41.7          	1.926466e-02
41.75         	1.706740e-02
41.8          	1.483935e-02
41.85         	1.243395e-02
41.9          	9.848689e-03
41.95         	7.267594e-03
42            	4.651863e-03
42.05         	1.871691e-03
42.1          	1.638692e-03
42.15         	4.964326e-03
42.2          	8.986628e-03
42.25         	1.400380e-02
42.3          	1.906765e-02
42.35         	2.537609e-02
42.4          	2.526633e-02
42.45         	2.256370e-02
42.5          	2.005869e-02
42.55         	1.796399e-02
42.6          	1.746639e-02
42.65         	1.649072e-02
42.7          	1.282131e-02
42.75         	2.189312e-02
42.8          	2.569256e-02
42.85         	1.484168e-02
42.9          	3.378031e-02
42.95         	3.820775e-02
43            	2.445703e-02
43.05         	1.364433e-02
43.1          	1.860522e-02
43.15         	2.517045e-02
43.2          	1.807096e-02
43.25         	1.337320e-02
43.3          	1.214443e-02
43.35         	1.152787e-02
43.4          	1.150727e-02
43.45         	1.187998e-02
43.5          	1.253627e-02
43.55         	1.334233e-02
43.6          	1.459302e-02
43.65         	1.611178e-02
43.7          	1.820211e-02
43.75         	1.917287e-02
43.8          	1.874611e-02
43.85         	1.858759e-02
43.9          	1.840873e-02
43.95         	1.807946e-02
44            	1.740500e-02
44.05         	1.621314e-02
44.1          	1.479561e-02
44.15         	1.335917e-02
44.2          	1.192305e-02
44.25         	1.046045e-02
44.3          	8.817379e-03
44.35         	7.166891e-03
44.4          	5.652539e-03
44.45         	3.152977e-03
44.5          	3.051453e-04
44.55         	2.618667e-03
44.6          	5.532424e-03
44.65         	7.914891e-03
44.7          	9.262479e-03
44.75         	1.057748e-02
44.8          	1.192301e-02
44.85         	1.317981e-02
44.9          	1.434598e-02
44.95         	1.547892e-02
45            	1.233146e-02
45.05         	8.348234e-03
45.1          	8.986871e-03
45.15         	1.325337e-02
45.2          	9.757509e-03
45.25         	4.182441e-03
45.3          	2.153732e-03
45.35         	9.399641e-03
45.4          	1.670802e-02
45.45         	1.639911e-02
45.5          	2.381676e-02
45.55         	2.441109e-02
45.6          	1.454956e-03
45.65         	2.436511e-02
45.7          	2.577471e-02
45.75         	2.558871e-02
45.8          	1.505095e-02
45.85         	1.267023e-02
45.9          	1.841382e-02
45.95         	2.369428e-02
46            	2.295975e-02
46.05         	2.230285e-02
46.1          	2.189709e-02
46.15         	2.213926e-02
46.2          	2.233653e-02
46.25         	2.251742e-02
46.3          	1.424131e-02
46.35         	7.793019e-03
46.4          	2.025443e-02
46.45         	1.768122e-02
46.5          	1.512466e-02
46.55         	1.274762e-02
46.6          	1.056372e-02
46.65         	8.823869e-03
46.7          	8.033016e-03
46.75         	8.455374e-03
46.8          	9.908884e-03
46.85         	1.207269e-02
46.9          	1.465681e-02
46.95         	1.755832e-02
47            	2.086692e-02
47.05         	2.401056e-02
47.1          	2.372332e-02
47.15         	2.398471e-02
47.2          	2.734923e-02
47.25         	3.310493e-02
47.3          	3.560000e-02
47.35         	3.398403e-02
47.4          	3.193747e-02
47.45         	2.989258e-02
47.5          	2.771802e-02
47.55         	2.553750e-02
47.6          	2.242991e-02
47.65         	1.988971e-02
47.7          	1.784255e-02
47.75         	1.587688e-02
47.8          	1.373414e-02
47.85         	1.138909e-02
47.9          	8.967636e-03
47.95         	6.535370e-03
48            	4.029455e-03
48.05         	1.386074e-03
48.1          	2.276864e-03
48.15         	5.702881e-03
48.2          	9.921836e-03
48.25         	1.483869e-02
48.3          	2.012009e-02
48.35         	2.526638e-02
48.4          	2.646518e-02
48.45         	2.401962e-02
48.5          	2.184279e-02
48.55         	2.025382e-02
48.6          	1.227093e-02
48.65         	1.942302e-02
48.7          	1.552909e-02
48.75         	2.589420e-02
48.8          	1.769106e-02
48.85         	2.418622e-02
48.9          	3.806932e-02
48.95         	2.510559e-02
49            	1.415155e-02
49.05         	1.657782e-02
49.1          	2.768318e-02
49.15         	2.246396e-02
49.2          	1.561760e-02
49.25         	1.318834e-02
49.3          	1.245151e-02
49.35         	1.216430e-02
49.4          	1.241497e-02
49.45         	1.309262e-02
49.5          	1.392959e-02
49.55         	1.539711e-02
49.6          	1.504883e-02
49.65         	1.816367e-02
49.7          	1.731256e-02
49.75         	1.678836e-02
49.8          	1.652220e-02
49.85         	1.643088e-02
49.9          	1.628749e-02
49.95         	1.600533e-02
50            	1.511357e-02
50.05         	1.384065e-02
50.1          	1.251056e-02
50.15         	1.117783e-02
50.2          	9.921772e-03
50.25         	8.630109e-03
50.3          	7.157276e-03
50.35         	5.783275e-03
50.4          	4.803183e-03
50.45         	3.698305e-03
50.5          	9.826602e-04
50.55         	1.818431e-03
50.6          	4.647756e-03
50.65         	7.472983e-03
50.7          	1.032623e-02
50.75         	1.162444e-02
50.8          	1.297285e-02
50.85         	1.420901e-02
50.9          	1.532594e-02
50.95         	1.655499e-02
51            	1.699746e-02
51.05         	1.238109e-02
51.1          	1.019476e-02
51.15         	1.315301e-02
51.2          	8.957690e-03
51.25         	3.054776e-03
51.3          	3.270892e-03
51.35         	1.006315e-02
51.4          	1.750100e-02
51.45         	1.195625e-02
51.5          	2.572383e-02
51.55         	2.627455e-02
51.6          	9.210686e-03
51.65         	1.635122e-02
51.7          	2.749124e-02
51.75         	2.211406e-02
51.8          	1.123398e-02
51.85         	1.019220e-02
51.9          	2.245739e-02
51.95         	2.520986e-02
52            	2.441869e-02
52.05         	2.375878e-02
52.1          	2.316747e-02
52.15         	2.329667e-02
52.2          	2.349249e-02
52.25         	1.616725e-02
52.3          	8.430005e-03
52.35         	4.518805e-04
52.4          	1.794095e-02
52.45         	1.545540e-02
52.5          	1.305785e-02
52.55         	1.088967e-02
52.6          	9.027674e-03
52.65         	7.938426e-03
52.7          	8.004596e-03
52.75         	9.204723e-03
52.8          	1.115832e-02
52.85         	1.366839e-02
52.9          	1.649429e-02
52.95         	1.959675e-02
53            	2.276586e-02
53.05         	2.219116e-02
53.1          	2.442718e-02
53.15         	2.931523e-02
53.2          	3.527341e-02
53.25         	3.682539e-02
53.3          	3.552225e-02
53.35         	3.399722e-02