/*--------------------------------*- C++ -*----------------------------------*\
  =========                 |
  \\      /  F ield         | OpenFOAM: The Open Source CFD Toolbox
   \\    /   O peration     | Website:  https://openfoam.org
    \\  /    A nd           | Version:  13
     \\/     M anipulation  |
\*---------------------------------------------------------------------------*/
FoamFile
{
    format      ascii;
    class       surfaceScalarField;
    location    "7.5";
    object      phi;
}
// * * * * * * * * * * * * * * * * * * * * * * * * * * * * * * * * * * * * * //

dimensions      [0 3 -1 0 0 0 0];

internalField   nonuniform List<scalar> 
823
(
0.00530491
0.0127108
-0.0180157
0.0317609
0.00298521
-0.0294412
0.0962834
-0.0406646
-0.0238579
0.194021
-0.106204
0.00846623
-0.134225
0.00103159
0.327214
0.00663149
0.00607933
0.0570773
-0.0474605
0.154719
-0.138307
0.267398
-0.218882
-0.290239
0.423412
0.0241381
-0.0180588
0.114141
-0.137464
0.230392
-0.254558
0.343017
-0.331507
-0.377533
0.430311
0.0473304
-0.0653892
0.147922
-0.238056
0.234145
-0.34078
0.286441
-0.383803
-0.394553
0.303461
0.0609203
-0.12631
0.13326
-0.310395
0.172857
-0.380377
0.186914
-0.397859
0.196894
-0.404533
-0.0229115
0.025069
-0.00215745
-0.0598211
0.0243418
0.0125677
-0.0986817
0.0187453
0.0201153
-0.135153
0.0123455
0.0241254
0.00146611
-0.166698
0.0300793
-0.0147043
0.0397733
-0.0430439
0.0526814
-0.0748771
0.0505785
-0.106225
0.0436935
0.0302024
-0.134961
-0.00328929
0.0430626
-0.015908
0.0653
-0.0314201
0.0660907
-0.0461487
0.0584221
0.0447963
-0.0607426
0.0154931
0.0275694
0.0329486
0.0478446
0.0487943
0.050245
0.06659
0.0406264
0.0370766
0.0743096
0.00955371
0.0279571
0.0543441
0.103437
0.141545
0.00521048
-0.796815
0.624907
0.316416
-0.695598
0.384392
0.135917
1.27454
-1.09404
0.155764
0.80132
-0.821167
-0.421862
0.218943
-0.0741882
-0.857588
0.211548
-0.981334
0.193831
1.29225
0.254822
0.740328
-0.630312
-0.130961
-0.78737
0.0760706
-1.18837
0.266305
1.10202
0.400862
0.605771
-0.814535
0.0143797
-0.72744
-0.0372555
-1.13673
0.252022
0.812741
0.587277
0.270516
-0.935831
0.255171
-0.841066
-0.00300234
-0.878557
0.231464
0.578275
0.724717
-0.222737
-1.00733
1.20979
-0.860341
-1.19051
0.73042
-0.399187
0.814752
0.493943
1.33082
-0.738803
-0.970469
1.23962
-0.666612
-1.43335
0.99421
-0.153781
1.24823
0.239919
1.41581
-0.906374
-0.799687
1.15905
-0.438699
-1.38697
1.06187
-0.056597
1.36664
-0.0648539
1.22711
-0.766843
-0.51187
1.07219
-0.210641
-1.30025
1.06936
-0.0537627
1.19964
-0.195132
0.839493
-0.406699
-0.181106
0.67185
-0.882491
0.618087
0.422956
0.0162565
1.12225
0.162982
-1.08834
1.20625
0.219457
1.30654
0.330022
1.32385
0.406106
0.460547
1.03742
0.103893
-0.978334
1.11471
0.142165
1.2117
0.233039
1.32775
0.290053
0.354953
0.982214
0.0542404
-0.932561
1.03711
0.087267
1.13039
0.139757
1.24776
0.172688
0.215747
0.915711
0.0163533
-0.877824
0.970628
0.0323503
1.05809
0.0522895
1.16691
0.063868
0.0824109
0.651573
-0.635219
0.683923
0.736212
0.80008
0.142598
0.303744
-0.247394
-0.198948
0.0950213
0.308469
-0.260892
0.053287
0.318917
-0.277183
0.018512
0.310586
-0.275811
0.201162
-0.18265
0.102988
0.340331
-0.139574
0.0667043
0.344752
0.0343312
0.35129
0.00840421
0.336513
0.209566
0.0727153
0.377166
-0.10955
0.0389743
0.378493
0.0103218
0.379943
-0.0054769
0.352312
0.204089
-0.0102044
0.393187
-0.00581753
-0.0270581
0.395347
-0.0352872
0.388172
-0.0276452
0.34467
0.176444
-0.089691
0.0783455
-0.0922033
-0.0844087
-0.0501345
0.196154
0.107291
-0.248973
-0.0544712
0.142759
0.111666
-0.0582711
0.0884515
0.116447
-0.0621397
0.0358482
0.1164
-0.0637968
0.0829358
-0.0470876
0.193928
0.150703
-0.23734
0.147681
0.157913
0.0958682
0.16826
0.0406776
0.171591
0.123613
0.136941
0.195252
-0.18149
0.09605
0.198804
0.0572012
0.207109
0.0207995
0.207992
0.144413
0.155099
0.22685
-0.186698
0.115968
0.237935
0.071401
0.251676
0.0279064
0.251487
0.172319
0.0831183
-0.103662
0.0601617
0.0346545
0.0103305
0.404981
0.0781494
-0.0871506
0.422438
0.0249892
-0.0424466
0.410571
0.187945
-0.176077
0.393233
0.216226
-0.198888
0.485681
-0.341421
0.402309
0.0718196
0.417095
0.010204
0.401688
0.203352
0.382049
0.235864
0.63039
0.396584
0.0712152
0.412267
-0.00547905
0.381415
0.234204
0.368824
0.248455
0.817724
0.394011
0.0731836
0.399689
-0.0111564
0.370131
0.263761
0.343121
0.275465
0.974147
0.387678
0.0814854
0.390217
-0.0136953
0.339937
0.314041
0.319051
0.296351
1.18954
0.627795
0.057711
0.659031
-0.0449312
0.695368
0.277704
0.771239
0.220479
0.953349
1.00743
0.645146
0.016585
0.660234
-0.0600187
0.721396
0.216542
0.755228
0.186647
0.684755
1.02382
0.652116
-0.0315103
0.654408
-0.062311
0.708089
0.162861
0.776688
0.118048
0.418668
1.04277
0.636381
-0.0638711
0.623529
-0.0494584
0.713588
0.0728019
0.804087
0.027549
0.183552
1.0392
0.540149
0.490691
0.563493
0.591042
0.774593
1.04381
-0.235327
1.03369
-0.129461
1.0439
-0.119753
1.03894
-0.000866647
0.0289527
0.977793
-0.189298
0.965378
-0.117047
0.945162
-0.0995373
0.957584
-0.0132879
0.00820281
0.97529
-0.121813
0.951225
-0.0929826
0.917478
-0.0657898
0.928095
-0.0239052
0.00373628
0.96723
-0.049839
0.916755
-0.0425077
0.880294
-0.0293282
0.872761
-0.016372
-0.00132698
0.724754
0.682247
0.652918
0.636546
0.0517239
0.142009
-0.193733
0.0781025
0.322203
-0.348582
0.0790837
0.379459
-0.38044
0.0681778
0.384344
-0.373438
0.352741
0.0557762
-0.34034
0.0745343
0.0674749
0.152183
0.244555
0.189579
0.342063
0.194227
0.379696
0.377194
0.169774
0.0596511
0.00782381
0.181082
0.123124
0.282809
0.240335
0.356421
0.306083
0.366581
0.367034
0.0264564
-0.0186325
0.12773
0.0218502
0.257683
0.110383
0.385924
0.177842
0.248892
0.503613
0.00307474
-0.0217073
0.0481188
-0.0231939
0.14873
0.00977091
0.27575
0.050823
0.094293
0.430349
-0.00923779
-0.0124695
-0.0052427
-0.027189
0.0353285
-0.0308003
0.10967
-0.023518
-0.00194198
0.205905
-0.00325821
-0.00921128
0.000506993
-0.0309542
0.0173763
-0.0476695
0.0498058
-0.0559475
-0.0550298
0.102894
0.00570885
-0.0149201
0.0191961
-0.0444414
0.0347537
-0.0632271
0.0498972
-0.071091
-0.0720032
0.0668706
-2.70106e-05
-0.0148931
-0.00215554
-0.0423129
-0.0100301
-0.0553526
-0.0220544
-0.0590667
-0.0598185
-0.0342391
-0.0170506
-0.0467957
-0.082033
-0.116974
-0.146714
0.488476
0.357805
-0.640377
0.516913
0.476276
-0.504713
0.39071
0.338716
-0.212513
0.210368
0.272725
-0.092383
0.026427
0.0220715
0.469186
-0.00848672
0.537773
0.407689
0.38253
0.493958
0.177712
0.477543
0.0620385
0.310906
-0.252522
0.489067
0.229528
0.31721
0.665815
0.137175
0.657578
0.0436271
0.144734
-0.431495
0.42577
-0.0515078
0.225896
0.865689
0.106906
0.776569
-0.052667
0.0466981
0.379582
0.151234
0.106636
0.156321
0.506805
-0.663125
-0.0823681
0.238689
-0.0660824
-0.0162856
0.0214517
-0.0875341
-0.0608265
0.961567
-1.09514
0.695542
0.466744
0.286827
0.088302
-0.0159441
-0.0723579
0.142905
-0.0546027
0.262578
-0.119674
0.443119
-0.180541
-0.220006
0.199191
-0.159359
0.314363
0.561724
0.884796
0.141873
-0.136071
0.166561
-0.172364
0.108411
-0.14111
0.174572
0.0700078
-0.147766
0.18617
0.0285005
-0.146932
0.188439
-0.101804
0.130304
0.180313
-0.096509
-0.219875
0.136045
-0.0968413
0.0863067
-0.0980284
0.0355127
-0.0961377
-0.0662911
0.185583
-0.047111
-0.234981
0.135011
-0.0462687
0.0836202
-0.046638
0.0338897
-0.0464072
-0.0324014
0.199362
0.0040072
-0.25048
0.147638
0.00545571
0.0942465
0.00675327
0.0397203
0.00811903
0.00731885
0.203648
-0.254112
0.150833
0.0954465
0.0397687
0.0374609
-0.318648
-0.0591525
0.013245
-0.349222
-0.00898847
-0.358206
-0.0173645
-0.340206
-0.211098
0.122366
-0.287722
-0.153292
0.0786562
-0.305512
0.0371926
-0.316743
0.00669611
-0.30971
-0.204401
0.13946
-0.247907
-0.179275
0.0984923
-0.264544
0.0576335
-0.275884
0.0202367
-0.272313
-0.184165
0.161625
-0.213285
-0.196247
0.118289
-0.221209
0.0718636
-0.229459
0.0282115
-0.228661
-0.155953
0.155796
-0.20252
0.10916
0.0658706
0.025649
0.385284
0.111237
-0.100542
0.388455
0.0854791
-0.0886503
0.355886
0.158281
-0.125712
0.301709
0.067618
-0.0134409
-0.201101
0.330447
0.393547
0.11367
0.401171
0.0778551
0.393774
0.165678
0.347304
0.114088
-0.0736728
0.400374
0.109275
0.410816
0.0674133
0.407305
0.169189
0.371517
0.149876
0.0628626
0.406219
0.0990358
0.417625
0.0560073
0.415608
0.171207
0.389101
0.176384
0.201483
0.407865
0.421425
0.416555
0.394051
0.414654
0.0953972
0.33243
0.0822242
0.242542
0.0898875
0.242666
-0.000123578
-0.179774
0.422439
0.504906
0.49848
0.462656
0.449091
0.599764
0.338169
0.0842698
0.263316
0.0748539
0.175647
0.0876684
0.101751
0.0738962
0.029393
0.481515
0.360122
0.268515
0.189119
)
;

boundaryField
{
    left
    {
        type            calculated;
        value           nonuniform List<scalar> 
17
(
-0.60402
-0.60402
-0.60402
-0.60402
-0.60402
-0.39598
-0.39598
-0.39598
-0.39598
-0.39598
-0.39598
-0.39598
-0.39598
-0.39598
-0.39598
-0.510051
-0.510051
)
;
    }
    right
    {
        type            calculated;
        value           nonuniform List<scalar> 
17
(
0.0822781
0.248072
0.161869
0.142101
0.155586
0.2032
0.272913
0.358683
0.463272
0.585085
0.708573
0.796212
1.29396
1.24502
0.939292
0.508729
-0.16485
)
;
    }
    down
    {
        type            calculated;
        value           uniform 0;
    }
    up
    {
        type            calculated;
        value           uniform 0;
    }
    cylinder
    {
        type            calculated;
        value           uniform 0;
    }
    defaultFaces
    {
        type            empty;
    }
}


// ************************************************************************* //
