/*--------------------------------*- C++ -*----------------------------------*\
  =========                 |
  \\      /  F ield         | OpenFOAM: The Open Source CFD Toolbox
   \\    /   O peration     | Website:  https://openfoam.org
    \\  /    A nd           | Version:  13
     \\/     M anipulation  |
\*---------------------------------------------------------------------------*/
FoamFile
{
    format      ascii;
    class       volScalarField;
    location    "0.685";
    object      p;
}
// * * * * * * * * * * * * * * * * * * * * * * * * * * * * * * * * * * * * * //

dimensions      [0 2 -2 0 0 0 0];

internalField   nonuniform List<scalar> 
1800
(
5.74641
7.85351
10.0063
11.4347
12.2691
12.6797
12.8106
12.6531
11.4068
7.31457
9.59596
12.0717
14.5766
16.2606
17.3172
17.9799
18.4345
18.6736
17.9491
15.2712
15.9883
18.613
21.2857
23.149
24.4092
25.2909
25.9417
26.325
25.8538
24.0227
24.9834
27.5528
30.2013
32.1157
33.481
34.4901
35.2525
35.7045
35.2983
33.6136
36.042
38.4029
40.8551
42.6667
43.9911
44.9873
45.7418
46.1911
45.8409
44.2853
48.7189
50.7715
52.9151
54.5214
55.7124
56.6146
57.2969
57.7075
57.4263
56.0669
62.6674
64.3401
66.0959
67.4278
68.4299
69.1995
69.7909
70.1679
69.9928
68.9041
77.5932
78.8347
80.1458
81.1551
81.9311
82.5449
83.039
83.3939
83.3605
82.6241
93.2113
93.991
94.8225
95.4774
96.0002
96.4377
96.8205
97.1439
97.2541
96.9196
109.24
109.545
109.877
110.151
110.389
110.61
110.827
111.041
111.202
111.229
-0.605713
-0.858411
-0.635587
-0.220834
0.251839
0.719793
1.07947
1.29043
1.4355
1.58221
-0.47961
-0.995307
-1.10512
-0.899091
-0.475097
-0.0510602
0.241659
0.484181
0.764337
1.03789
0.521145
-0.446608
-1.27923
-1.44511
-1.11814
-0.8124
-0.598941
-0.293702
0.113627
0.499529
0.91443
-0.227238
-1.4257
-1.76436
-1.5442
-1.39079
-1.26597
-0.960941
-0.504021
0.00382532
0.483243
-0.484993
-1.42574
-1.71708
-1.66007
-1.67104
-1.63488
-1.37338
-0.882307
-0.18819
-0.220416
-0.737525
-1.13831
-1.26801
-1.28883
-1.35449
-1.34728
-1.1392
-0.614947
0.317339
-0.555854
-0.518223
-0.341934
-0.196075
-0.111692
-0.0915207
-0.0535278
0.115888
0.693313
1.92321
-0.0726121
0.51365
1.23451
1.73884
2.06826
2.28128
2.43046
2.64678
3.37709
5.03911
1.37445
2.48238
3.73076
4.65218
5.3221
5.81432
6.15419
6.49317
7.47978
9.76708
3.61618
5.25905
7.0772
8.4531
9.47579
10.2359
10.7582
11.2111
12.272
14.435
2.30031
2.4395
2.33255
2.0876
1.58423
1.18161
0.858432
0.58425
0.350529
0.133151
1.95153
2.41654
2.22883
2.00469
1.50119
1.10249
0.808086
0.567565
0.353283
0.139235
1.47408
2.38738
2.12794
1.91303
1.42628
1.03602
0.762749
0.549389
0.352668
0.14382
0.849395
2.30497
2.02805
1.80728
1.35129
0.977268
0.723719
0.532854
0.346516
0.145414
0.155206
2.12905
1.91752
1.68516
1.27041
0.92208
0.689574
0.518085
0.340185
0.146251
-0.417639
1.85009
1.77904
1.54514
1.18013
0.86788
0.658893
0.50457
0.338541
0.14729
-0.567263
1.50162
1.5994
1.38477
1.07835
0.812858
0.630897
0.492349
0.340975
0.148393
0.161231
1.1723
1.3696
1.19517
0.961448
0.754864
0.604538
0.482153
0.340087
0.146546
2.41758
1.03593
1.06892
0.95179
0.820904
0.691098
0.5787
0.471782
0.330994
0.137399
6.65249
1.40486
0.711552
0.634309
0.64918
0.620176
0.552611
0.456159
0.314823
0.123958
9.97861
2.5753
0.687969
0.392524
0.472381
0.541315
0.517064
0.427867
0.287864
0.104318
11.7637
2.57114
0.265716
0.0579216
0.357009
0.506667
0.481257
0.383402
0.247735
0.075957
12.8619
2.77698
0.395186
0.152508
0.469279
0.567629
0.481612
0.351847
0.209119
0.0463963
14.1829
4.36434
1.27988
0.72668
0.789048
0.716081
0.523088
0.337624
0.176411
0.0177513
16.3597
7.10843
2.70054
1.59114
1.24078
0.933638
0.606694
0.34514
0.153915
-0.00689336
19.2499
9.87396
4.33387
2.55716
1.77126
1.20097
0.723846
0.374475
0.144563
-0.0247192
21.7541
11.9356
5.85161
3.51734
2.33761
1.49779
0.863383
0.422581
0.149235
-0.0337663
23.0332
13.1186
7.04867
4.41739
2.91133
1.81004
1.01693
0.48574
0.167486
-0.0330272
22.9731
13.4976
7.90933
5.26461
3.50067
2.14552
1.19083
0.56784
0.202943
-0.0207652
22.4202
13.7226
8.68068
6.12565
4.12695
2.52427
1.40724
0.686274
0.274646
0.00864131
111.785
97.8396
84.0748
71.0695
59.1301
48.3498
38.7684
30.0916
20.0803
4.97529
112.765
99.4772
85.9764
72.9699
60.9267
50.0458
40.5126
32.2544
23.5893
11.4761
113.297
100.212
87.3314
75.005
63.4662
52.8742
43.4443
35.2555
27.4691
18.335
114.509
102.769
90.8102
78.9794
67.6227
57.0274
47.3943
38.7939
31.0871
23.824
115.086
104.075
93.1546
82.4634
72.1164
62.192
52.7296
43.8191
36.0009
29.822
115.436
104.709
94.2021
84.0402
74.3196
65.0902
56.3308
48.0894
41.0478
36.0308
115.667
105.108
94.7968
84.8646
75.4218
66.5413
58.2325
50.5649
44.2109
40.0914
115.768
105.246
94.9799
85.1084
75.7542
67.0083
58.9045
51.5111
45.3943
41.4346
115.718
105.032
94.6054
84.5863
75.1071
66.2745
58.1444
50.7749
44.5511
40.0982
115.594
104.647
93.9595
83.682
73.9565
64.9062
56.6115
49.1167
42.6077
37.4128
234.122
229.759
228.191
227.749
227.658
227.91
228.644
230.025
232.176
234.315
225.559
222.54
221.491
221.452
221.677
222.162
223.093
224.701
227.172
229.648
216.046
213.871
213.098
213.223
213.654
214.357
215.482
217.252
219.866
222.464
205.739
203.712
203.008
203.204
203.748
204.577
205.801
207.609
210.178
212.697
194.416
192.507
191.852
192.04
192.572
193.383
194.56
196.254
198.609
200.899
182.049
180.325
179.731
179.873
180.326
181.037
182.073
183.55
185.58
187.545
168.703
167.241
166.747
166.85
167.206
167.779
168.618
169.811
171.438
173.009
154.569
153.453
153.098
153.176
153.431
153.844
154.451
155.313
156.484
157.612
139.961
139.247
139.04
139.089
139.234
139.469
139.819
140.321
141.003
141.659
125.436
125.092
124.952
124.905
124.892
124.914
124.981
125.1
125.278
125.453
246.551
246.79
247.042
247.26
247.558
248.058
248.61
248.946
248.952
248.439
246.626
246.957
247.36
247.665
247.866
248.201
248.625
248.54
247.724
246.704
246.637
247.033
247.478
247.789
247.872
248.003
248.285
247.924
246.536
245.281
246.516
247.018
247.448
247.68
247.613
247.498
247.534
247.111
245.816
244.658
246.025
246.679
247.068
247.174
246.996
246.718
246.542
246.182
245.373
244.583
244.817
245.66
245.996
245.96
245.729
245.445
245.249
245.077
244.837
244.551
242.471
243.568
243.906
243.79
243.58
243.415
243.381
243.512
243.819
244.059
238.587
240.073
240.542
240.476
240.392
240.443
240.68
241.175
241.988
242.727
233.114
235.168
235.877
235.944
236.069
236.415
237.003
237.908
239.213
240.425
227.759
229.624
230.369
230.536
230.843
231.46
232.401
233.753
235.6
237.308
246.94
246.72
246.681
246.489
246.421
246.303
245.927
245.671
245.57
245.716
246.899
246.719
246.677
246.492
246.42
246.312
245.936
245.654
245.379
245.738
246.872
246.715
246.668
246.487
246.412
246.313
245.937
245.6
245.143
245.822
246.853
246.708
246.655
246.475
246.398
246.309
245.926
245.509
244.925
246.008
246.841
246.698
246.639
246.456
246.378
246.295
245.9
245.401
244.792
246.246
246.835
246.686
246.621
246.432
246.353
246.269
245.864
245.308
244.766
246.354
246.833
246.672
246.601
246.405
246.324
246.232
245.828
245.257
244.812
246.021
246.836
246.654
246.579
246.376
246.289
246.19
245.811
245.261
244.833
244.784
246.845
246.632
246.554
246.344
246.253
246.158
245.843
245.336
244.655
242.008
246.862
246.608
246.526
246.309
246.221
246.155
245.945
245.461
243.976
237.292
246.9
246.582
246.485
246.253
246.157
246.085
245.873
245.132
242.442
233.742
247.016
246.562
246.447
246.202
246.102
246.124
246.071
245.333
242.177
231.799
247.257
246.568
246.41
246.125
246.024
246.086
246.064
245.238
241.885
230.535
247.708
246.623
246.38
246.041
245.887
245.819
245.616
244.535
240.481
229.316
248.546
246.689
246.404
245.949
245.675
245.311
244.744
243.228
238.01
227.46
250.382
246.756
246.511
245.878
245.383
244.649
243.656
241.568
235.374
224.914
254.262
247.067
246.665
245.819
245.029
243.935
242.559
239.956
233.31
222.584
262.567
248.205
246.94
245.776
244.655
243.245
241.557
238.666
232.072
221.328
280.127
250.941
247.591
245.81
244.302
242.593
240.648
237.735
231.629
221.358
306.098
254.987
249.096
246.023
244.011
241.972
239.764
236.919
231.358
221.885
236.417
221.067
210.445
201.13
190.969
179.665
167.27
153.898
139.852
125.722
230.028
217.734
208.582
199.86
189.923
178.685
166.338
153.087
139.364
125.89
223.495
214.13
205.951
197.424
187.709
176.869
165.116
152.615
139.598
126.42
218.381
210.873
202.881
194.031
184.188
173.423
161.931
149.988
137.925
126.091
212.983
206.589
198.596
189.502
179.833
169.695
159.145
148.277
137.222
126.129
207.385
202.089
194.829
186.359
177.36
167.905
157.985
147.662
137.042
126.255
203.591
199.15
192.561
184.664
176.131
167.044
157.424
147.349
136.938
126.328
202.309
198.051
191.705
184.092
175.779
166.843
157.323
147.32
136.961
126.392
203.635
198.92
192.47
184.885
176.553
167.537
157.9
147.754
137.239
126.507
206.309
200.874
194.137
186.426
177.931
168.699
158.816
148.412
137.636
126.643
112.187
112.357
112.441
112.293
111.786
111.425
111.24
111.525
111.517
111.268
89.6121
90.0754
90.2941
89.8605
88.4285
87.3421
86.7212
87.3828
87.4204
86.8339
68.7689
69.3966
69.658
68.9912
67.0518
65.3401
64.3198
64.8686
65.173
64.6178
50.6511
51.2575
51.4472
50.6241
48.645
46.4789
45.1489
45.1843
45.9227
45.6893
36.0057
36.4142
36.4645
35.5831
33.7913
31.4753
29.8315
29.2663
30.0738
30.2615
24.9534
25.0569
24.9348
24.0117
22.4341
20.4047
18.6139
17.6722
17.9273
18.4273
17.0668
16.9165
16.7017
15.7107
14.2963
12.7929
11.3054
10.2404
9.9007
10.2672
11.5797
11.4028
11.3544
10.355
9.03611
8.03422
7.14256
6.29966
5.71123
5.62747
7.90562
7.81739
8.11344
7.24563
6.07962
5.4891
5.16022
4.77556
4.29163
3.91195
6.03687
5.83193
6.21744
5.47965
4.6103
4.33422
4.3582
4.34882
4.19625
3.80031
5.26988
5.03306
5.11547
4.42116
3.88891
3.83269
3.98243
4.12514
4.24626
4.30295
4.84291
4.73381
4.45647
3.79012
3.50419
3.5914
3.79453
3.9621
4.08186
4.16813
4.46453
4.41979
3.98805
3.43743
3.31731
3.48004
3.7047
3.88341
4.0014
4.06176
4.01025
3.95535
3.54928
3.19781
3.20763
3.41077
3.6236
3.78088
3.87946
3.92079
3.46254
3.36934
3.09611
2.97624
3.09293
3.30966
3.49974
3.63735
3.71863
3.74237
2.81167
2.71748
2.658
2.74821
2.94484
3.14923
3.31503
3.43448
3.50141
3.51483
2.08858
2.10515
2.24
2.47456
2.71019
2.90869
3.06394
3.17765
3.24393
3.25939
1.41567
1.53374
1.78506
2.07806
2.33399
2.54833
2.72417
2.86281
2.95032
2.97842
0.739232
0.874165
1.14906
1.47801
1.78778
2.05939
2.29679
2.48165
2.58652
2.62419
0.0668919
-0.017843
0.217441
0.629114
1.04957
1.43175
1.75601
1.97124
2.07459
2.13783
3.65736
3.70067
3.57001
3.2439
2.59323
1.90511
1.31453
0.843035
0.455426
0.0945874
3.73001
3.67451
3.51949
3.22787
2.55379
1.84917
1.26245
0.805223
0.432763
0.0929728
3.75644
3.56846
3.40775
3.17375
2.50979
1.79643
1.21315
0.769739
0.412484
0.0931358
3.71735
3.39212
3.25498
3.07133
2.45256
1.74519
1.16665
0.736723
0.394715
0.0945874
3.60951
3.18388
3.0867
2.91796
2.3702
1.69092
1.12226
0.706177
0.379553
0.0973522
3.44608
2.98608
2.92609
2.73394
2.25638
1.62972
1.0798
0.67852
0.367232
0.101431
3.2526
2.81875
2.78241
2.55123
2.11394
1.55791
1.0387
0.65417
0.357969
0.106697
3.04541
2.68179
2.65625
2.39406
1.95809
1.47284
0.997687
0.633222
0.351843
0.112897
2.82297
2.57064
2.54323
2.26955
1.81018
1.37579
0.955021
0.615322
0.348769
0.119654
2.57818
2.48807
2.43703
2.17154
1.68491
1.27487
0.908655
0.599535
0.348513
0.126551
5.41861
3.97236
3.274
2.89459
2.41348
1.89222
1.39269
0.938715
0.540087
0.131524
4.61479
3.75171
3.31016
2.95573
2.45406
1.90097
1.3801
0.919988
0.51899
0.120516
3.94485
3.65969
3.37091
3.02518
2.49338
1.90879
1.36874
0.903243
0.502759
0.111268
3.625
3.66013
3.45635
3.10551
2.5346
1.91638
1.35779
0.887596
0.488688
0.104056
3.61027
3.7033
3.55813
3.19795
2.58054
1.92419
1.34592
0.87138
0.475018
0.0987323
112.017
88.9502
67.8988
50.1267
36.1117
25.7912
18.621
13.7455
10.5635
8.74931
111.797
88.3879
67.1925
49.3924
35.3094
24.7869
17.3173
12.2119
9.06906
7.5689
111.611
87.9076
66.5543
48.6518
34.3983
23.6142
15.8969
10.677
7.53237
6.07436
111.4
87.3339
65.7139
47.587
33.0736
22.0202
14.1254
8.89243
5.80694
4.4313
111.146
86.6058
64.5846
46.1139
31.2735
19.9524
11.9566
6.92017
4.43702
3.62118
243.768
243.806
243.925
244.097
244.31
244.319
243.814
243.112
243.216
242.992
243.98
244.052
244.166
244.355
244.625
244.8
244.582
243.932
243.675
243.568
244.176
244.225
244.338
244.534
244.82
245.082
245.056
244.549
244.12
244.07
244.419
244.451
244.549
244.723
244.981
245.27
245.377
245.107
244.72
244.653
244.693
244.711
244.793
244.942
245.157
245.423
245.627
245.629
245.464
245.373
244.985
244.998
245.067
245.19
245.363
245.594
245.865
246.107
246.214
246.202
245.259
245.277
245.36
245.495
245.671
245.902
246.203
246.565
246.869
246.992
245.544
245.562
245.659
245.851
246.106
246.406
246.767
247.18
247.546
247.727
245.926
245.955
246.032
246.254
246.626
247.079
247.585
248.105
248.45
248.412
246.319
246.429
246.53
246.72
247.12
247.69
248.292
248.843
249.196
248.991
136.5
136.241
136.218
136.481
136.263
135.865
135.324
135.152
135.224
135.388
160.951
160.354
160.376
161.013
160.361
159.238
157.774
157.318
157.524
157.982
183.196
182.63
182.917
183.44
182.389
180.644
178.675
177.986
178.235
178.858
202.163
201.917
202.635
202.645
201.287
199.09
197.083
196.239
196.417
197.019
217.634
217.808
218.593
218.005
216.337
213.992
212.171
211.269
211.308
211.713
229.514
229.996
230.226
229.266
227.459
225.402
223.792
222.846
222.713
222.814
237.714
238.05
237.687
236.614
235.121
233.593
232.142
231.126
230.901
230.749
242.369
242.249
241.64
240.806
239.927
238.91
237.556
236.53
236.472
236.294
244.093
243.675
243.182
242.823
242.526
241.94
240.75
239.855
240.141
240.056
244.233
243.807
243.654
243.675
243.747
243.504
242.63
241.869
242.254
242.065
254.846
246.873
247.501
246.286
246.037
245.53
244.997
244.634
244.503
244.541
252.013
246.81
247.315
246.264
246.09
245.593
245.013
244.667
244.58
244.513
250.091
246.817
247.092
246.26
246.146
245.661
245.056
244.761
244.749
244.545
248.903
246.845
246.88
246.279
246.203
245.735
245.137
244.914
244.979
244.651
248.218
246.848
246.742
246.318
246.259
245.818
245.265
245.106
245.22
244.821
247.769
246.806
246.704
246.367
246.312
245.911
245.433
245.294
245.427
245.028
247.454
246.751
246.703
246.411
246.358
246.014
245.608
245.448
245.582
245.238
247.238
246.723
246.695
246.445
246.39
246.118
245.755
245.557
245.68
245.431
247.095
246.717
246.686
246.469
246.405
246.209
245.852
245.625
245.718
245.589
247.002
246.718
246.683
246.482
246.415
246.272
245.904
245.66
245.685
245.684
317.35
253.757
249.91
246.972
246.142
245.571
245.252
244.931
244.237
242.72
295.618
251.368
248.788
246.74
246.059
245.542
245.208
244.901
244.45
243.522
277.177
249.212
248.192
246.566
246.019
245.523
245.158
244.844
244.532
244.194
265.774
247.867
247.868
246.436
246.001
245.512
245.1
244.761
244.523
244.523
259.003
247.137
247.645
246.328
245.998
245.504
245.031
244.659
244.477
244.555
239.299
237.45
234.235
229.327
222.124
211.77
197.719
179.914
158.838
135.756
240.482
238.946
235.772
230.635
223.133
212.576
198.456
180.622
159.401
135.978
241.995
240.498
237.316
232.063
224.312
213.492
199.2
181.262
159.882
136.164
243.657
242.251
239.123
233.849
225.914
214.821
200.267
182.104
160.456
136.374
244.446
243.609
241.106
236.035
227.992
216.626
201.742
183.233
161.183
136.627
)
;

boundaryField
{
    left
    {
        type            zeroGradient;
    }
    right
    {
        type            fixedValue;
        value           uniform 0;
    }
    down
    {
        type            zeroGradient;
    }
    up
    {
        type            zeroGradient;
    }
    cylinder
    {
        type            zeroGradient;
    }
    defaultFaces
    {
        type            empty;
    }
}


// ************************************************************************* //
