/*--------------------------------*- C++ -*----------------------------------*\
  =========                 |
  \\      /  F ield         | OpenFOAM: The Open Source CFD Toolbox
   \\    /   O peration     | Website:  https://openfoam.org
    \\  /    A nd           | Version:  13
     \\/     M anipulation  |
\*---------------------------------------------------------------------------*/
FoamFile
{
    format      ascii;
    class       volScalarField;
    location    "34.6";
    object      p;
}
// * * * * * * * * * * * * * * * * * * * * * * * * * * * * * * * * * * * * * //

dimensions      [0 2 -2 0 0 0 0];

internalField   nonuniform List<scalar> 
440
(
-0.50749
-0.494524
-0.530542
-0.463858
-0.525976
-0.534461
-0.522733
-0.510562
-0.490034
-0.477068
-0.646389
-0.616838
-0.583634
-0.541905
-0.493842
-0.771721
-0.725939
-0.647334
-0.552588
-0.45663
-0.865128
-0.802868
-0.664142
-0.518536
-0.383662
-1.10814
-1.08678
-1.05986
-1.03574
-1.02301
-1.10905
-1.10191
-1.10288
-1.11535
-1.15134
-1.01424
-1.04666
-1.12566
-1.24045
-1.38225
-0.633742
-0.67241
-0.757014
-0.866454
-0.926972
-0.31078
-0.328412
-0.331899
-0.281012
-0.20986
-0.97639
-1.84343
-1.53567
0.240189
-0.00193735
-0.825807
-1.63358
-1.58942
0.142869
-0.0347449
-0.648434
-1.36856
-1.48442
0.0634366
-0.049265
-0.423847
-1.09846
-1.24892
0.00540862
-0.0453696
-0.171093
-0.964105
-1.0473
-0.0399443
-0.0448337
0.118712
-0.871252
-0.79858
-0.0601978
-0.0428959
0.0309658
-0.652952
-0.508854
-0.051351
-0.033251
0.0540773
-0.423421
-0.360041
-0.0796294
-0.027258
0.135564
-0.286438
-0.290057
-0.0837873
-0.0441121
0.181352
-0.115506
-0.266967
-0.111377
-0.0449055
-0.149284
-0.277379
-0.403969
-0.552785
-0.606669
0.0802017
-0.0448919
-0.10452
-0.138196
-0.117258
0.225206
0.129353
0.0694658
0.0337149
0.0136606
0.319298
0.231323
0.161305
0.125434
0.101504
0.363425
0.274384
0.20153
0.166476
0.145981
1.05964
0.921076
0.745454
0.548255
0.327349
0.681538
0.529982
0.342106
0.129359
-0.106765
0.30237
0.145794
-0.0497034
-0.274256
-0.48293
-0.0165908
-0.179164
-0.375728
-0.587908
-0.74862
-0.242162
-0.398574
-0.578387
-0.765119
-0.868994
2.18471
2.21745
2.2492
2.26802
2.26934
2.01063
2.03327
2.05193
2.05465
2.03677
1.79671
1.79008
1.76238
1.71286
1.63852
1.54854
1.51751
1.45333
1.35936
1.23665
1.30558
1.21429
1.09211
0.946857
0.769677
1.92282
1.91707
1.90039
1.96264
2.0604
1.91417
1.90626
1.88483
1.94401
1.98296
1.90655
1.89234
1.86632
1.91291
1.88334
1.90018
1.87607
1.84558
1.86883
1.7302
1.89509
1.8587
1.82314
1.82339
1.56727
1.89174
1.83182
1.79375
1.7263
1.38215
1.89258
1.80224
1.78336
1.6075
1.41706
1.89724
1.79025
1.77811
1.55234
1.41451
1.894
1.75993
1.77625
1.50019
1.41084
1.93242
1.7547
1.77625
1.47101
1.42401
1.0325
0.764858
0.449084
0.191619
-0.00526384
0.9706
0.779408
0.561827
0.377714
0.205825
0.979981
0.814934
0.647845
0.490232
0.34615
1.0191
0.863915
0.713805
0.567671
0.439608
1.052
0.901253
0.756804
0.613604
0.486485
-1.84591
-1.65397
-1.44542
-1.27048
-1.16311
-1.93931
-1.84448
-1.66756
-1.50506
-1.38918
-1.86745
-1.80727
-1.67332
-1.53383
-1.40776
-1.70972
-1.6574
-1.58134
-1.4864
-1.38325
-1.5411
-1.51298
-1.47457
-1.42219
-1.35108
-1.44062
-1.43082
-1.40034
-1.42671
-1.35897
-1.39632
-1.39403
-1.38538
-1.43052
-1.38181
-1.31676
-1.31738
-1.31799
-1.34199
-1.32825
-1.21433
-1.20623
-1.19533
-1.18636
-1.18269
-1.13957
-1.12141
-1.09549
-1.06828
-1.04949
-0.984469
-1.16433
-0.190862
0.402605
0.0675042
-0.996603
-1.26986
-0.0736321
0.371743
0.050927
-0.943136
-1.43913
-0.248814
0.365076
0.0416767
-0.882028
-1.68036
-0.822664
0.371261
0.0455845
-0.958105
-1.86208
-1.29779
0.325628
0.0300457
-0.615497
-1.21409
-0.294625
0.409795
0.0852282
-0.938747
-1.14738
-0.158171
0.431877
0.0837992
-1.1021
-1.29826
-1.30551
-1.19378
-0.965788
-1.12413
-1.32364
-1.31847
-1.24623
-1.15716
1.73612
1.70395
1.65243
1.58262
1.49072
1.94739
1.96388
1.96305
1.94287
1.90394
2.12931
2.16005
2.18175
2.18988
2.18294
2.23889
2.27796
2.3191
2.35207
2.36628
2.2577
2.29616
2.33919
2.37545
2.39243
-0.655517
-0.782388
-0.980805
-1.2153
-1.50486
0.00725377
-0.148432
-0.354555
-0.603757
-0.931286
0.618642
0.45967
0.267703
0.0397666
-0.253333
1.11099
0.985149
0.832982
0.648356
0.420308
1.50363
1.41543
1.30042
1.16193
0.997095
1.98099
1.94165
1.92285
1.9197
1.91462
1.96635
1.93991
1.92394
1.94155
1.99047
1.95404
1.93683
1.92505
1.96498
2.07697
1.9427
1.93233
1.9207
1.97444
2.09577
1.93229
1.92612
1.91225
1.97379
2.09671
2.03551
1.94551
1.90713
1.83685
1.77397
1.99074
1.9372
1.9034
1.86107
1.78643
1.37655
1.12264
0.688793
0.0631738
-0.614671
1.46716
1.16078
0.706379
0.0847681
-0.608248
)
;

boundaryField
{
    left
    {
        type            zeroGradient;
    }
    right
    {
        type            fixedValue;
        value           uniform 0;
    }
    down
    {
        type            zeroGradient;
    }
    up
    {
        type            zeroGradient;
    }
    cylinder
    {
        type            zeroGradient;
    }
    defaultFaces
    {
        type            empty;
    }
}


// ************************************************************************* //
