/*--------------------------------*- C++ -*----------------------------------*\
  =========                 |
  \\      /  F ield         | OpenFOAM: The Open Source CFD Toolbox
   \\    /   O peration     | Website:  https://openfoam.org
    \\  /    A nd           | Version:  13
     \\/     M anipulation  |
\*---------------------------------------------------------------------------*/
FoamFile
{
    format      ascii;
    class       surfaceScalarField;
    location    "73";
    object      phi;
}
// * * * * * * * * * * * * * * * * * * * * * * * * * * * * * * * * * * * * * //

dimensions      [0 3 -1 0 0 0 0];

internalField   nonuniform List<scalar> 
823
(
0.00606647
0.0114824
-0.0175488
0.037166
-0.00930219
-0.0217973
0.106145
-0.0679108
-0.00106779
0.205761
-0.138727
0.0391104
-0.199859
0.0739668
0.331654
0.00978726
0.00169509
0.0678211
-0.067336
0.169571
-0.169661
0.28526
-0.254416
-0.326054
0.411455
0.0271092
-0.0254141
0.119632
-0.159859
0.229385
-0.279414
0.326346
-0.351376
-0.38587
0.386161
0.0494149
-0.074829
0.144548
-0.254993
0.219334
-0.354199
0.25926
-0.391302
-0.399765
0.273156
0.0598383
-0.134667
0.125947
-0.321101
0.160157
-0.388409
0.173026
-0.404172
0.182358
-0.409097
-0.0284231
0.0441585
-0.0157353
-0.0761384
0.0522178
-0.00450258
-0.135933
0.0566034
0.00319141
-0.199608
0.0601279
0.00354725
0.0510888
-0.258012
0.00731433
-0.00625304
0.0504115
-0.0241821
0.0701469
-0.0441289
0.0765502
-0.0607793
0.0767783
0.0630432
-0.0727337
0.0158539
0.0345576
0.033183
0.0528179
0.0558389
0.0538943
0.0875642
0.045053
0.0267638
0.123844
0.0121663
0.0223913
0.0292435
0.0357407
0.0528617
0.0302761
0.0881155
0.00979916
-0.018848
0.133727
0.0048425
0.0187859
0.0479942
0.0969037
0.152022
0.132793
-0.985314
0.594509
0.444341
-0.557805
0.246258
0.277168
1.85867
-1.69149
0.413868
-0.066355
-0.0703455
-0.889893
0.84986
0.355669
-1.41372
0.455465
-0.657601
0.301297
2.01283
0.486321
-0.251378
-0.931587
0.424519
-1.71439
0.439564
-0.672646
0.435867
2.01653
0.552398
-0.367909
-0.96961
0.151913
-1.73258
0.212694
-0.733427
0.522936
1.70629
0.619381
-0.464354
-1.00336
0.00723393
-1.58779
-0.0276326
-0.69856
0.474082
1.20457
0.683396
-0.673668
-1.03302
0.981917
-1.30937
-1.26034
0.47726
-0.193904
0.918341
0.763494
1.24285
-0.998176
-0.932813
0.955906
-0.868478
-1.3968
0.701733
0.0602699
1.16805
0.297178
1.25016
-1.08029
-0.756095
0.977591
-0.507061
-1.33901
0.955396
0.0824656
1.34677
-0.0942012
1.10323
-0.836745
-0.479074
0.96755
-0.226656
-1.24796
1.04512
0.00490058
1.16658
-0.215667
0.722588
-0.392753
-0.157354
0.595047
-0.821702
0.599947
0.384281
-0.00847205
1.12776
0.148564
-1.09396
1.1966
0.204312
1.28915
0.293615
1.33532
0.36528
0.406636
1.03777
0.0931275
-0.982338
1.10809
0.133992
1.19386
0.207847
1.29902
0.260122
0.308859
0.971282
0.0458207
-0.923975
1.02414
0.0811326
1.11054
0.121444
1.21601
0.154654
0.185864
0.893762
0.0111747
-0.859116
0.947713
0.0271807
1.02751
0.0416508
1.12897
0.05319
0.066879
0.632802
-0.621627
0.659983
0.701633
0.754823
0.145497
0.310739
-0.252922
-0.203314
0.0967565
0.314719
-0.265978
0.0541693
0.325221
-0.282633
0.0186886
0.317947
-0.282466
0.207713
-0.189025
0.106691
0.347554
-0.143506
0.0693257
0.352084
0.0354911
0.359055
0.00858306
0.344855
0.216296
0.0694211
0.382974
-0.104841
0.0371792
0.384326
0.00944407
0.38679
-0.00609074
0.36039
0.210206
-0.00771821
0.398027
-0.00733532
-0.0250345
0.401642
-0.0342062
0.395962
-0.0271233
0.353307
0.183082
-0.0856435
0.0745742
-0.0881733
-0.0806206
-0.0484149
0.200624
0.106873
-0.253408
-0.0540894
0.146728
0.111579
-0.0576831
0.0912073
0.116859
-0.0613384
0.0370825
0.117343
-0.0632185
0.0839335
-0.046851
0.19168
0.15054
-0.235347
0.145789
0.157471
0.0946028
0.168045
0.0401183
0.171828
0.124052
0.147307
0.196389
-0.193156
0.104261
0.200516
0.0629808
0.209325
0.0237321
0.211076
0.147784
0.157369
0.229037
-0.190017
0.117589
0.240295
0.0723506
0.254564
0.0282382
0.255189
0.176022
0.0940326
-0.117918
0.0683495
0.04028
0.0130025
0.407512
0.0629472
-0.0744797
0.418746
0.0587862
-0.0700201
0.412543
0.163799
-0.157597
0.392492
0.235952
-0.215901
0.476371
-0.337286
0.404635
0.0542917
0.412409
0.051012
0.402881
0.173328
0.378032
0.260801
0.619056
0.397281
0.0529902
0.406903
0.0413905
0.382944
0.197286
0.368947
0.274799
0.794847
0.392277
0.0566924
0.394386
0.0392818
0.373504
0.218168
0.340535
0.307767
0.945366
0.383506
0.0691663
0.384736
0.0380516
0.341947
0.260957
0.316139
0.333575
1.14359
0.614661
0.0585254
0.655766
-0.00305278
0.698743
0.21798
0.753177
0.279141
0.857688
1.03908
0.624334
0.0382121
0.677314
-0.0560327
0.740439
0.154855
0.748986
0.270593
0.570434
1.03624
0.642371
-0.000138905
0.682067
-0.0957287
0.719254
0.117669
0.786726
0.203121
0.327618
1.02954
0.652376
-0.0484943
0.632835
-0.0761883
0.691735
0.0587688
0.817803
0.0770534
0.139606
1.00581
0.555526
0.479338
0.538107
0.61516
0.754766
1.06807
-0.232308
1.05322
-0.128655
1.0574
-0.10902
1.05218
-0.00211198
0.0327877
0.981395
-0.177463
0.969935
-0.117195
0.947977
-0.0870627
0.96283
-0.0169644
0.0132798
0.964245
-0.112166
0.938181
-0.0911304
0.907561
-0.0564427
0.916762
-0.0261656
0.00606669
0.940073
-0.0464244
0.890243
-0.0413006
0.859801
-0.026001
0.851154
-0.0175184
-0.00189476
0.708342
0.667041
0.64104
0.623522
0.0506402
0.142793
-0.193434
0.0758712
0.322204
-0.347435
0.0761409
0.378784
-0.379054
0.0657081
0.383032
-0.372599
0.351978
0.0526749
-0.338944
0.0737541
0.0690393
0.149177
0.246781
0.184725
0.343236
0.188846
0.378911
0.372871
0.167952
0.0598824
0.00915689
0.178998
0.127665
0.277533
0.244702
0.344493
0.31195
0.368661
0.348704
0.0269942
-0.0178373
0.128833
0.0258266
0.256618
0.116917
0.384526
0.184041
0.26551
0.487677
0.00378646
-0.0216238
0.0519076
-0.0222945
0.155215
0.0136091
0.284981
0.0542752
0.113143
0.437349
-0.00529238
-0.0163314
0.00493019
-0.0325171
0.0514072
-0.0328679
0.130119
-0.0244371
0.014247
0.229015
-0.00692384
-0.00940755
-0.0113227
-0.0281183
-0.000944257
-0.0432463
0.0255488
-0.0509302
-0.0405663
0.0803621
-0.00419722
-0.00521033
-0.00613708
-0.0261784
-0.0031574
-0.046226
0.00456858
-0.0586562
-0.0612697
0.025272
-0.00457599
-0.00063434
-0.0075782
-0.0231762
-0.012391
-0.0414131
-0.0213142
-0.049733
-0.0525503
-0.0300336
-0.0163697
-0.0440485
-0.0822702
-0.128456
-0.173692
0.398422
0.770816
-0.940223
0.374643
0.52101
-0.497231
0.114168
0.716859
-0.456383
0.0501847
-0.0829433
0.146926
-0.61106
0.480625
0.437795
0.413383
0.485384
0.47342
0.220533
0.98171
0.117638
0.0199516
-0.692506
0.400426
0.0382291
0.50815
0.365696
0.252374
1.23749
0.181014
0.0913121
-0.758316
0.285605
-0.277409
0.52945
0.121851
0.28805
1.47889
0.263881
0.115482
-0.808367
0.143408
0.511517
0.298908
0.344044
-0.0320619
0.652917
-0.620855
-0.16592
0.133858
-0.185614
0.0196939
-0.0331502
-0.152463
-0.211524
0.816266
-1.10357
0.452894
0.0162041
0.0106671
0.0855708
-0.0137775
-0.0717933
0.141185
-0.055614
0.251946
-0.110761
0.412739
-0.160793
-0.208115
0.197174
-0.158277
0.309513
0.547455
0.874339
0.138768
-0.135362
0.165704
-0.16911
0.105884
-0.140543
0.173427
0.068459
-0.147351
0.184775
0.0279335
-0.146318
0.186843
-0.10106
0.128993
0.179939
-0.0966444
-0.218657
0.136301
-0.0969039
0.0866185
-0.0976685
0.0356265
-0.0953255
-0.065433
0.1829
-0.0472577
-0.232286
0.132356
-0.04636
0.0814649
-0.0467777
0.0328298
-0.0466904
-0.0326033
0.199065
0.00351171
-0.249835
0.147588
0.00511707
0.0942353
0.00657519
0.0396704
0.00787459
0.00706709
0.202457
-0.253035
0.149891
0.0951278
0.0397839
0.0387823
-0.317806
-0.0599206
0.0138667
-0.347683
-0.00821027
-0.356977
-0.0168578
-0.338787
-0.210292
0.122347
-0.287418
-0.152735
0.0797864
-0.305123
0.0381321
-0.315323
0.00725444
-0.307909
-0.203037
0.14077
-0.247461
-0.180727
0.098666
-0.263018
0.0575513
-0.274208
0.0202443
-0.270602
-0.182793
0.16058
-0.212447
-0.195594
0.117859
-0.220298
0.0719839
-0.228333
0.028414
-0.227033
-0.154379
0.156003
-0.202747
0.109133
0.0655752
0.0253857
0.388455
0.107558
-0.100034
0.386211
0.101345
-0.0991008
0.353768
0.151318
-0.118875
0.298433
0.0704629
-0.0151283
-0.205506
0.334829
0.396979
0.106559
0.400943
0.0973804
0.39372
0.158541
0.344349
0.119835
-0.0798146
0.402612
0.0999268
0.411184
0.0888082
0.408896
0.160829
0.369648
0.159083
0.0575467
0.407742
0.0881647
0.416869
0.0796812
0.419377
0.158321
0.388519
0.189941
0.196232
0.409665
0.419326
0.42005
0.394089
0.41335
0.0967007
0.328316
0.0850347
0.242361
0.0859548
0.240769
0.00159208
-0.181536
0.422305
0.506718
0.492652
0.459732
0.446195
0.599488
0.337917
0.084388
0.262744
0.0751727
0.174821
0.087923
0.101158
0.0736634
0.0293646
0.48113
0.360709
0.267905
0.188833
)
;

boundaryField
{
    left
    {
        type            calculated;
        value           nonuniform List<scalar> 
17
(
-0.60402
-0.60402
-0.60402
-0.60402
-0.60402
-0.39598
-0.39598
-0.39598
-0.39598
-0.39598
-0.39598
-0.39598
-0.39598
-0.39598
-0.39598
-0.510051
-0.510051
)
;
    }
    right
    {
        type            calculated;
        value           nonuniform List<scalar> 
17
(
0.178374
0.279768
0.180619
0.199084
0.246824
0.313931
0.385537
0.453901
0.528014
0.590422
0.653128
0.713058
1.14264
1.07344
0.826211
0.400868
-0.165826
)
;
    }
    down
    {
        type            calculated;
        value           uniform 0;
    }
    up
    {
        type            calculated;
        value           uniform 0;
    }
    cylinder
    {
        type            calculated;
        value           uniform 0;
    }
    defaultFaces
    {
        type            empty;
    }
}


// ************************************************************************* //
