/*--------------------------------*- C++ -*----------------------------------*\
  =========                 |
  \\      /  F ield         | OpenFOAM: The Open Source CFD Toolbox
   \\    /   O peration     | Website:  https://openfoam.org
    \\  /    A nd           | Version:  13
     \\/     M anipulation  |
\*---------------------------------------------------------------------------*/
FoamFile
{
    format      ascii;
    class       volVectorField;
    location    "73";
    object      U;
}
// * * * * * * * * * * * * * * * * * * * * * * * * * * * * * * * * * * * * * //

dimensions      [0 1 -1 0 0 0 0];

internalField   nonuniform List<vector> 
440
(
(-0.0718242 0.0628263 -6.55507e-20)
(-0.0354573 0.083767 2.87902e-20)
(0.195032 0.0426211 2.87681e-20)
(0.628456 -0.000888059 9.86326e-20)
(0.930417 -0.0578686 1.38654e-21)
(-0.0499037 0.0279272 4.48736e-20)
(0.199998 -0.0445603 -1.41355e-19)
(0.78072 -0.11973 -1.29924e-19)
(1.36861 -0.174782 3.31297e-20)
(1.92234 -0.221908 -1.9558e-20)
(0.0357181 -0.0191323 5.01201e-20)
(0.697885 -0.0969492 9.67069e-19)
(1.52199 -0.110069 -7.34828e-19)
(2.1029 -0.099952 -2.31907e-18)
(2.52748 -0.100001 1.07164e-18)
(0.284106 -0.0638358 -1.80823e-19)
(1.39422 -0.0262567 -7.31842e-19)
(2.15068 0.0203117 2.36267e-18)
(2.5126 0.0427315 2.70942e-18)
(2.52782 0.043621 -7.4116e-19)
(0.669097 -0.00470708 -3.44084e-19)
(1.89467 0.16855 -7.728e-19)
(2.40521 0.228867 2.41245e-18)
(2.51373 0.230509 2.51381e-18)
(2.59996 0.206507 8.47346e-19)
(-0.0397609 0.181552 2.43045e-19)
(-0.154404 0.154752 4.23273e-20)
(-0.292983 0.14112 -3.42794e-19)
(-0.444558 0.144509 4.22968e-20)
(-0.555085 0.0954901 4.14656e-20)
(-0.0757655 0.319067 -1.12716e-19)
(-0.138053 0.414565 -6.81637e-19)
(-0.199785 0.446068 1.01074e-19)
(-0.2566 0.445669 1.21047e-19)
(-0.2627 0.354879 -2.72984e-19)
(-0.0873312 0.27163 -2.58183e-19)
(-0.091024 0.411466 4.32831e-19)
(-0.0631807 0.455306 -7.24528e-20)
(-0.00048732 0.466018 -1.43978e-18)
(0.0647191 0.415164 1.96199e-20)
(-0.0778443 0.155676 -2.09626e-20)
(-0.0938314 0.269372 2.03277e-20)
(-0.0508337 0.283322 2.76639e-20)
(0.0571163 0.240091 2.0014e-19)
(0.189513 0.136547 -2.31552e-20)
(-0.0762579 0.0946224 -6.32078e-21)
(-0.0994615 0.161094 -2.05727e-20)
(-0.0240871 0.14335 -3.5916e-20)
(0.161367 0.0714805 2.52673e-20)
(0.383578 0.000618894 7.80908e-20)
(-0.738024 -0.520067 -1.75867e-18)
(1.47547 -0.300469 -1.14408e-18)
(0.442266 1.23571 7.27135e-19)
(0.931662 0.00521123 -7.6178e-19)
(1.14694 -0.612122 1.88731e-20)
(0.494804 -0.883509 2.48136e-18)
(1.59332 -0.446562 3.55186e-20)
(0.282732 1.33811 -8.70791e-20)
(1.16659 -0.129106 7.74335e-19)
(1.33374 -0.636098 -1.12517e-19)
(1.80283 -1.14228 5.40129e-19)
(1.04363 -0.51528 1.12494e-18)
(0.739635 1.31753 1.03628e-19)
(1.38964 -0.221504 -5.45966e-19)
(1.49125 -0.660451 5.05169e-20)
(1.99456 -1.1715 7.17489e-20)
(-0.279977 -0.452365 -6.48974e-21)
(0.971954 1.26499 1.01058e-18)
(1.63555 -0.269665 5.81773e-19)
(1.64969 -0.661299 -1.92998e-19)
(1.92994 -1.04508 -3.75864e-19)
(-0.896842 -0.440414 1.11822e-18)
(0.427413 1.0292 0)
(1.97598 -0.358366 -7.20848e-20)
(1.80094 -0.652888 -8.83592e-20)
(2.48503 -0.815271 -6.83787e-19)
(0.945202 -0.339137 6.5487e-20)
(0.593818 0.420989 4.2168e-20)
(2.34622 -0.585992 -2.46716e-20)
(1.89159 -0.64056 1.77178e-19)
(2.26762 -0.775149 8.07467e-20)
(1.00432 0.0529513 -2.77407e-19)
(1.26427 0.42769 1.93023e-20)
(2.47001 -0.627977 5.97139e-19)
(1.77704 -0.523985 0)
(2.2024 -0.347925 -5.36776e-19)
(1.14209 0.0416138 1.87545e-20)
(1.97928 -0.018089 4.05737e-19)
(2.34789 -0.668244 -3.61887e-19)
(1.36817 -0.418761 1.78167e-20)
(1.87805 -0.275067 -3.50307e-20)
(1.4071 0.0431644 6.96245e-20)
(2.04293 -0.11664 2.4583e-20)
(1.71225 -0.403217 1.19724e-33)
(0.664322 -0.186194 1.53871e-20)
(1.03169 -0.015467 5.87047e-20)
(1.00646 -0.0336068 2.86401e-20)
(0.979828 -0.135521 -3.77499e-20)
(0.239364 -0.0575569 9.51885e-20)
(-0.273674 -0.00180634 -1.90762e-20)
(2.40711 0.218452 -1.08942e-18)
(2.69504 -0.0214588 -1.407e-18)
(2.39724 -0.015356 1.24137e-18)
(2.78897 -0.273581 -1.50056e-20)
(2.08584 -0.136043 -7.21556e-20)
(2.13546 0.164219 3.79208e-20)
(2.48249 -0.0378258 -4.58173e-20)
(2.2544 -0.0227633 -1.48903e-19)
(2.48968 -0.244565 -2.61919e-19)
(2.31876 -0.270357 -5.06633e-21)
(2.10035 0.0618658 6.65388e-20)
(2.21619 -0.00628673 1.29938e-19)
(2.19284 -0.073777 -1.89376e-19)
(2.23892 -0.130471 5.83093e-20)
(2.23166 -0.227511 7.78451e-20)
(2.01868 0.0167082 1.1085e-19)
(1.96921 -0.0224582 9.59301e-20)
(2.09397 -0.0541249 -1.58229e-20)
(2.01465 -0.0964955 4.08405e-20)
(2.12696 -0.125367 9.94974e-21)
(1.45222 -0.0185143 1.52353e-19)
(1.36903 -0.0141263 -1.22554e-20)
(1.46449 -0.0352333 2.4889e-20)
(1.33211 -0.0227115 -1.61716e-21)
(1.4481 -0.0547554 5.04482e-20)
(1.62879 0.852895 1.17911e-18)
(1.57093 0.951543 -3.65668e-19)
(1.56564 1.08586 -1.41138e-18)
(1.49996 1.1391 7.78389e-19)
(0.927702 0.831929 -1.86772e-19)
(1.91036 0.812186 -6.11929e-19)
(1.8758 0.890893 -3.15933e-18)
(1.8821 1.00182 -1.21794e-18)
(1.80059 1.02119 -4.43668e-19)
(1.11081 0.730936 -7.20323e-19)
(2.21564 0.690311 8.26512e-19)
(2.19662 0.760919 2.14238e-19)
(2.17446 0.853283 -2.41056e-18)
(2.04756 0.843394 -6.92447e-19)
(1.22588 0.57229 5.33297e-19)
(2.39243 0.565065 2.52079e-18)
(2.37365 0.612752 1.8458e-18)
(2.37614 0.670502 -2.14577e-18)
(2.17424 0.632906 -1.63968e-18)
(1.21032 0.378649 -3.15228e-19)
(2.51983 0.390583 1.28918e-18)
(2.55243 0.418335 -9.24e-19)
(2.46664 0.445717 6.4958e-19)
(2.14117 0.395881 5.4546e-19)
(1.03285 0.169281 -4.76809e-19)
(0.574813 0.470562 -6.36456e-19)
(0.485657 0.506057 -4.88952e-19)
(0.367443 0.541967 5.65127e-20)
(0.229332 0.552581 -6.84988e-21)
(0.0574873 0.404642 9.08109e-20)
(0.677487 0.649346 1.30386e-19)
(0.614113 0.711456 -2.87119e-19)
(0.527865 0.781718 1.92059e-19)
(0.403205 0.834793 -8.9382e-20)
(0.176348 0.634702 1.26119e-19)
(0.791538 0.828353 1.52904e-19)
(0.716488 0.908459 4.82605e-19)
(0.659583 1.00874 1.00826e-19)
(0.576722 1.06004 -3.16992e-19)
(0.31753 0.791088 2.65163e-19)
(1.06974 0.918851 2.48259e-19)
(1.02452 1.00523 -7.28962e-19)
(0.972769 1.10432 -2.00443e-18)
(0.889535 1.1717 8.12429e-19)
(0.526781 0.877911 -1.79055e-19)
(1.14724 0.945057 -1.20986e-19)
(1.17976 1.07266 -2.01103e-19)
(1.20921 1.19501 -3.76136e-19)
(1.16108 1.22841 -4.3166e-19)
(0.717618 0.891509 -6.95338e-21)
(1.02398 0.0507709 -1.04885e-19)
(0.983159 0.0466441 -3.85317e-20)
(1.03482 0.115942 -1.42676e-21)
(0.948485 0.155528 -3.2994e-19)
(0.889162 0.289546 3.24509e-19)
(1.01544 0.0477102 6.67216e-20)
(0.992276 0.0470086 1.34656e-19)
(1.02647 0.120665 1.38456e-19)
(0.985201 0.185996 4.54878e-20)
(0.936091 0.368058 -1.80931e-20)
(1.02277 0.0464056 9.11443e-20)
(0.970728 0.0419503 -4.98468e-21)
(1.07868 0.137379 -7.41169e-21)
(0.938193 0.186226 1.63994e-19)
(1.15362 0.509522 -5.1295e-19)
(1.01758 0.0468184 -4.10054e-22)
(0.98184 0.0345168 -1.85329e-19)
(1.08685 0.148062 -7.27126e-20)
(1.02662 0.197396 -4.12855e-19)
(1.16247 0.550475 1.0287e-19)
(1.01274 0.0420362 -1.64276e-20)
(0.981509 0.0328649 5.08067e-20)
(1.1462 0.15046 3.47249e-20)
(0.983058 0.226435 4.77847e-19)
(1.443 0.683191 -4.85702e-19)
(0.973614 0.0464756 -1.41314e-20)
(1.03887 0.00766585 1.0746e-19)
(1.1519 0.176619 -9.38829e-20)
(1.20844 0.15509 8.74245e-19)
(1.30851 0.700974 -3.99256e-19)
(0.910284 0.0239073 -1.51514e-21)
(1.12566 -0.0123736 -1.08095e-19)
(1.14914 0.100176 4.85404e-21)
(1.30018 0.185166 -2.54945e-19)
(1.24432 0.428097 -1.68373e-20)
(0.952341 0.0273286 -5.96283e-21)
(1.13732 -0.0544932 1.48564e-35)
(1.15682 0.0887447 -6.10081e-20)
(1.21095 0.160085 7.67611e-20)
(1.45878 0.261622 1.76189e-19)
(1.07631 -0.0280796 4.0963e-21)
(1.04381 -0.0691995 -2.46661e-20)
(1.089 0.0584893 1.71358e-20)
(1.18286 0.0924215 3.2545e-20)
(1.5802 0.13791 -2.65502e-19)
(0.999421 -0.0252114 -4.31417e-20)
(0.796844 -0.0227001 -2.42512e-21)
(0.825776 0.015519 2.58633e-20)
(0.938493 0.00173548 -1.04057e-20)
(1.13925 0.0323707 -6.07602e-20)
(1.89891 0.652499 3.33523e-19)
(1.94579 0.665108 8.25847e-19)
(2.25722 0.53833 -1.18446e-18)
(2.25602 0.489629 4.63457e-20)
(2.53133 0.285074 5.03122e-19)
(1.80265 0.429751 7.18063e-20)
(1.77353 0.431357 1.043e-18)
(2.08999 0.352281 1.0518e-19)
(1.97855 0.324616 -9.68878e-19)
(2.34168 0.166289 -3.15859e-19)
(1.72128 0.293813 -2.28296e-19)
(1.80218 0.25352 -1.52778e-19)
(1.93322 0.227665 2.31294e-19)
(1.96643 0.175067 -3.03575e-19)
(2.11404 0.1131 2.71898e-19)
(1.66213 0.161101 3.35553e-19)
(1.77154 0.132723 -4.08821e-21)
(1.77471 0.118461 2.17182e-19)
(1.902 0.0830157 1.84e-19)
(1.88595 0.0493108 -1.79042e-19)
(1.27626 0.0390292 -3.80363e-20)
(1.32269 0.0249761 2.17797e-19)
(1.3317 0.0185301 1.00147e-19)
(1.39808 0.00184397 -2.15516e-19)
(1.37233 -0.00219733 4.66389e-22)
(1.13385 -0.0244864 4.97034e-20)
(2.16182 -0.0484724 -4.06139e-19)
(2.39831 -0.0365031 1.15315e-18)
(2.39193 0.00605455 5.21077e-19)
(2.22755 0.0328854 -3.4713e-19)
(0.69043 0.088827 8.60961e-20)
(1.9362 0.0781912 -4.22285e-19)
(2.41246 0.0817362 -5.64349e-19)
(2.4623 0.0940647 6.97917e-19)
(2.21969 0.0845848 -4.4191e-19)
(0.187318 0.0679613 -3.18877e-20)
(1.29164 0.137055 4.39966e-19)
(2.06698 0.162969 6.73636e-20)
(2.47394 0.158291 4.4497e-19)
(2.62388 0.157927 2.34593e-19)
(-0.0619275 -0.0358546 1.95839e-19)
(0.440592 0.0626001 1.92842e-19)
(1.26752 0.139868 -4.13046e-19)
(1.78836 0.182581 2.35235e-20)
(2.41506 0.216919 6.38284e-20)
(-0.113962 -0.0927374 1.29374e-19)
(-0.0336253 -0.0677913 -1.49992e-19)
(0.432052 0.016477 -2.09949e-20)
(0.901739 0.0492526 5.94837e-21)
(1.39491 0.139118 -3.79354e-20)
(-0.0881467 -0.0939314 1.37836e-20)
(-0.158683 -0.142826 8.32776e-20)
(-0.0507246 -0.15444 5.60163e-20)
(0.126981 -0.135458 -5.69e-20)
(0.568997 -0.0536813 5.86773e-21)
(-0.0487859 -0.06483 -5.11221e-21)
(-0.132845 -0.149746 -3.82386e-20)
(-0.157517 -0.214219 -2.08964e-20)
(-0.127978 -0.240651 -5.30586e-21)
(0.0276287 -0.169681 9.97273e-22)
(-0.0202544 -0.0340789 8.51997e-21)
(-0.0791053 -0.140007 1.38313e-19)
(-0.119161 -0.251213 -1.14058e-19)
(-0.13811 -0.330301 -3.52958e-19)
(-0.117446 -0.340958 1.01542e-19)
(-0.0120618 -0.0250297 -1.75759e-20)
(-0.0581121 -0.159586 -1.09506e-19)
(-0.0928651 -0.287069 3.12745e-19)
(-0.129001 -0.358638 3.14399e-19)
(-0.150805 -0.378347 -7.83259e-20)
(-0.0132676 0.024955 6.92521e-21)
(-0.0893418 -0.0938615 -2.14007e-20)
(-0.177049 -0.172334 4.76758e-21)
(-0.276525 -0.179847 5.12158e-20)
(-0.373415 -0.172339 6.39086e-20)
(1.41748 0.602843 -2.27832e-20)
(1.59989 0.333783 7.46616e-19)
(0.877535 0.385062 1.17198e-19)
(-0.225748 -0.0799947 6.47437e-20)
(0.455639 -0.362693 -4.2121e-20)
(1.06574 0.433622 4.28349e-20)
(1.71663 0.341926 -2.75144e-19)
(1.12204 0.564502 6.44893e-19)
(0.0842162 -0.0190869 1.84563e-21)
(0.50263 -0.429974 2.02309e-19)
(0.49638 0.163346 1.9113e-19)
(1.68574 0.327823 -5.21781e-19)
(1.06783 0.770425 -4.57993e-20)
(0.284079 0.0495376 -2.13965e-20)
(0.623551 -0.48873 -3.15049e-20)
(-0.231721 -0.122141 2.43336e-19)
(1.66994 0.190479 6.54509e-19)
(0.963259 0.924158 -5.41333e-19)
(0.523574 0.0791178 1.29112e-21)
(0.793297 -0.532812 -1.0097e-19)
(-0.869274 -0.274836 1.48069e-19)
(1.57561 -0.0233385 2.23724e-19)
(0.79384 1.10957 6.43576e-19)
(0.73068 0.0968239 -2.22894e-20)
(0.974301 -0.567327 -1.2342e-19)
(0.125953 0.18451 -5.27725e-20)
(-0.273768 -0.159363 0)
(-0.330604 -0.0879229 1.33605e-20)
(-0.454473 -0.0634796 -4.30972e-21)
(0.348722 -0.0474134 9.29872e-21)
(1.82174 0.55323 0)
(1.30197 0.315964 0)
(0.540272 0.11958 -7.63459e-20)
(-0.492735 -0.121814 -8.56781e-20)
(0.547755 -0.22333 1.26255e-19)
(0.706541 0.00164932 -1.13143e-19)
(0.731284 -0.00732841 9.5129e-20)
(1.00053 0.00475798 -4.60874e-20)
(0.932396 0.00190089 3.23311e-19)
(1.42136 0.0937397 2.27724e-19)
(1.60735 0.0259257 1.06002e-19)
(1.75787 0.0657187 1.85471e-19)
(1.94655 0.0428049 -3.35671e-19)
(2.50534 0.190376 6.0903e-22)
(2.26161 0.124587 1.6301e-19)
(0.884963 -0.462109 -1.34705e-20)
(0.87029 -0.548676 -1.45237e-19)
(0.861549 -0.642919 -1.15254e-19)
(0.789739 -0.706954 7.00717e-20)
(0.474334 -0.547876 1.14817e-19)
(0.791299 -0.368825 1.27893e-19)
(0.735859 -0.43103 2.59623e-19)
(0.660283 -0.497318 -3.66835e-20)
(0.544253 -0.551626 1.18797e-19)
(0.291426 -0.432468 4.18752e-20)
(0.633786 -0.229387 -1.65274e-19)
(0.542778 -0.265332 -4.31169e-20)
(0.440677 -0.311454 1.21032e-19)
(0.324722 -0.352616 -1.28563e-20)
(0.141826 -0.277827 -1.0082e-19)
(0.541202 0.00376068 -4.42805e-19)
(0.45594 -0.00959213 -3.67427e-19)
(0.347397 -0.0329888 2.87117e-19)
(0.221398 -0.0649607 1.86759e-19)
(0.0588803 -0.0690613 1.40941e-20)
(0.51926 0.20949 -1.83247e-19)
(0.43361 0.215131 -1.80525e-19)
(0.318463 0.219888 -8.16023e-20)
(0.183438 0.22615 1.65412e-20)
(0.0263612 0.169712 1.18457e-20)
(1.98326 -0.0397746 7.50224e-19)
(2.23578 -0.105153 2.70491e-19)
(2.31159 -0.187601 -7.0227e-19)
(2.15827 -0.214197 -1.41844e-18)
(1.28511 -0.184196 1.062e-19)
(1.9598 -0.120786 1.26326e-18)
(2.05213 -0.227966 1.65511e-18)
(2.06343 -0.345737 1.35199e-19)
(1.97977 -0.403852 2.32073e-19)
(1.25713 -0.349487 -1.53e-19)
(1.68348 -0.279585 -3.28861e-18)
(1.73802 -0.392554 3.93143e-19)
(1.77902 -0.51233 1.02174e-18)
(1.71433 -0.583324 -3.96567e-19)
(1.10313 -0.488165 6.15411e-19)
(1.4696 -0.396689 7.83009e-19)
(1.48549 -0.490422 -2.04343e-18)
(1.46994 -0.603128 -2.37787e-18)
(1.39791 -0.68601 7.29081e-19)
(0.893344 -0.558811 4.77378e-19)
(1.19144 -0.453857 1.64404e-19)
(1.14111 -0.542798 2.17674e-19)
(1.1261 -0.658788 -3.54712e-19)
(1.06716 -0.738767 -4.28051e-19)
(0.669383 -0.580022 -4.03592e-21)
(1.07169 0.0574364 7.89702e-21)
(0.914535 0.057607 -6.36559e-21)
(1.12149 0.0775711 -8.48621e-21)
(0.79007 0.0138432 -1.7621e-19)
(1.09445 -0.204077 -5.95421e-21)
(1.08109 0.0609675 -2.63048e-21)
(0.91365 0.0560663 5.74016e-20)
(1.11675 0.094724 -5.63687e-20)
(0.879458 0.0601894 8.51142e-20)
(0.973885 -0.0870622 -2.69185e-20)
(1.07923 0.0582391 -6.47404e-20)
(0.918154 0.0530864 6.0639e-22)
(1.10423 0.0951933 -2.24387e-20)
(0.877763 0.0852857 -6.46279e-21)
(0.952321 -0.0289357 -1.4586e-19)
(1.05998 0.0566285 7.9408e-20)
(0.947921 0.0498029 3.66138e-21)
(1.06514 0.100881 3.61878e-20)
(0.922413 0.111176 5.13768e-20)
(0.857123 0.0856171 1.23444e-19)
(1.03604 0.05295 2.01052e-20)
(0.976929 0.0498751 -3.25014e-20)
(1.03394 0.10436 4.8583e-20)
(0.950893 0.140624 9.2077e-20)
(0.834823 0.183158 -1.32625e-19)
(0.890935 0.0339268 0)
(0.701156 0.0281671 1.04816e-20)
(0.604392 0.0232807 2.47656e-21)
(0.333922 -0.00566216 4.1163e-20)
(0.649499 -0.0529675 -1.03141e-19)
(1.0387 0.0762451 -6.63479e-20)
(0.925241 0.0728468 -2.1488e-20)
(1.02518 0.0782005 -2.46646e-20)
(0.794498 0.00721063 -9.03454e-20)
(1.00658 -0.186532 -1.09261e-19)
(0.902641 -0.0619215 -2.49194e-20)
(0.983755 -0.0308815 4.38276e-19)
(1.07031 0.0366088 2.78208e-19)
(0.944488 0.0525627 2.2412e-20)
(0.732742 0.0272344 0)
(1.26956 -0.305186 2.46066e-19)
(1.37989 -0.269468 1.30354e-18)
(1.55015 -0.153628 -1.49488e-18)
(1.63725 -0.0214326 -4.66506e-19)
(1.54365 0.0258246 3.41354e-19)
)
;

boundaryField
{
    left
    {
        type            fixedValue;
        value           uniform (1 0 0);
    }
    right
    {
        type            zeroGradient;
    }
    down
    {
        type            noSlip;
    }
    up
    {
        type            noSlip;
    }
    cylinder
    {
        type            noSlip;
    }
    defaultFaces
    {
        type            empty;
    }
}


// ************************************************************************* //
