/*--------------------------------*- C++ -*----------------------------------*\
  =========                 |
  \\      /  F ield         | OpenFOAM: The Open Source CFD Toolbox
   \\    /   O peration     | Website:  https://openfoam.org
    \\  /    A nd           | Version:  13
     \\/     M anipulation  |
\*---------------------------------------------------------------------------*/
FoamFile
{
    format      ascii;
    class       surfaceScalarField;
    location    "9.415";
    object      phi;
}
// * * * * * * * * * * * * * * * * * * * * * * * * * * * * * * * * * * * * * //

dimensions      [0 3 -1 0 0 0 0];

internalField   nonuniform List<scalar> 
823
(
-0.00244614
0.0173129
-0.0148668
0.0163342
0.00934484
-0.0281252
0.0804267
-0.0371994
-0.0268931
0.182991
-0.103297
0.000732309
-0.136545
-0.00770697
0.327244
0.00574623
0.0115667
0.0571671
-0.042076
0.156959
-0.136991
0.274596
-0.220934
-0.29498
0.43303
0.0250382
-0.0134716
0.11706
-0.134097
0.233722
-0.253653
0.344175
-0.331388
-0.37513
0.424325
0.0476738
-0.0611453
0.147901
-0.234325
0.231794
-0.337546
0.280489
-0.380083
-0.391494
0.296853
0.0605594
-0.121705
0.131591
-0.305356
0.17015
-0.376105
0.18417
-0.394103
0.192381
-0.399706
-0.0151413
0.0346015
-0.0194602
-0.0448372
0.0712197
-0.0415238
-0.0762891
0.0796073
-0.0481553
-0.10284
0.0776896
-0.0511384
0.0756152
-0.122131
-0.0563247
0.00205519
0.0325463
-0.00455233
0.0778272
-0.0209474
0.0960023
-0.040672
0.0974142
0.0921146
-0.0571713
0.0138668
0.0186796
0.0348383
0.0568557
0.0509571
0.0798835
0.0607987
0.0875726
0.0840758
0.0688374
0.00937355
0.00930601
0.0328899
0.0333393
0.0611394
0.0516341
0.0926495
0.0560625
0.05681
0.119915
-0.00556074
-0.000346644
0.0243944
0.0811892
0.130292
0.152735
0.750991
-1.02586
0.619876
-1.12476
0.657623
0.554654
-1.78398
1.8492
0.412668
0.0618417
0.0801452
0.384736
-0.320122
0.172868
0.520952
0.495361
-1.44726
0.44111
-1.72973
0.357195
0.145757
0.43286
0.265615
0.324175
0.418743
-1.60039
0.300869
-1.61185
0.30288
0.143746
0.438021
0.344166
0.0999243
0.429868
-1.68609
0.286574
-1.46856
0.298445
0.131874
0.403809
0.364636
-0.134419
0.439968
-1.76142
0.271172
-1.29976
0.239112
0.163935
0.258069
1.34581
-0.272104
-1.20813
1.26241
-1.67802
0.759599
-0.796947
0.543469
0.380066
0.0291615
1.54117
-0.389706
-1.42357
1.11303
-1.24987
0.607647
-0.291568
0.701094
0.28662
-0.187497
1.38245
-0.412457
-1.3597
0.872432
-0.739855
0.630958
-0.0500942
0.907069
0.0105086
-0.265811
1.21076
-0.30656
-1.31666
0.743113
-0.272204
0.688212
0.00480665
0.825357
-0.126637
-0.154772
0.578234
-0.884793
0.30603
0.310836
0.1842
1.10728
0.150666
-1.06556
1.18648
0.21765
1.29964
0.311172
1.32775
0.404916
0.446866
1.01282
0.0917138
-0.953871
1.08745
0.143023
1.18947
0.209156
1.30642
0.28796
0.329717
0.95849
0.0461768
-0.912953
1.01819
0.0833201
1.10426
0.123087
1.22568
0.16654
0.195697
0.934584
0.00980647
-0.898214
0.992632
0.0252724
1.07462
0.0410953
1.18659
0.0545714
0.0656282
0.698226
-0.68842
0.723499
0.764594
0.819165
0.13736
0.299832
-0.246775
-0.190417
0.0920947
0.306001
-0.260735
0.0517219
0.316891
-0.276518
0.0177828
0.307792
-0.273853
0.197303
-0.17952
0.100859
0.336449
-0.137477
0.0646963
0.342164
0.0327575
0.34883
0.00758759
0.332962
0.204891
0.0687173
0.371724
-0.103992
0.0364493
0.374432
0.00898414
0.376295
-0.00589943
0.347846
0.198991
-0.0107509
0.38839
-0.0059154
-0.0276945
0.391375
-0.035851
0.384451
-0.0276457
0.339641
0.171346
-0.0895441
0.0782287
-0.0922718
-0.0839254
-0.0496409
0.196741
0.106372
-0.25018
-0.052932
0.142906
0.110422
-0.0565867
0.0883599
0.114946
-0.0604
0.0357585
0.114351
-0.0617498
0.0801136
-0.0443551
0.195193
0.150248
-0.23907
0.148259
0.157356
0.0961225
0.167082
0.0408418
0.169632
0.120955
0.137639
0.194501
-0.181892
0.0969477
0.198047
0.0576851
0.206345
0.0208823
0.206435
0.141838
0.153953
0.227091
-0.186542
0.114974
0.237026
0.0710178
0.250301
0.0277757
0.249677
0.169613
0.0840096
-0.103694
0.0603005
0.0340834
0.00990686
0.406153
0.0601085
-0.0702822
0.424432
0.0349066
-0.0531858
0.407865
0.206546
-0.189979
0.395919
0.201852
-0.189906
0.482358
-0.336619
0.404133
0.0519547
0.416744
0.0222961
0.397363
0.225926
0.386042
0.213173
0.629331
0.39826
0.0496745
0.409882
0.0106735
0.375824
0.259985
0.372356
0.216641
0.819794
0.39562
0.0500339
0.393797
0.012497
0.365609
0.288173
0.357022
0.225228
0.990274
0.387519
0.0584943
0.381584
0.0184325
0.340114
0.329642
0.324778
0.240564
1.21136
0.622526
0.0399891
0.641244
-0.000285381
0.694833
0.276053
0.803865
0.131532
1.03212
0.983102
0.636215
0.00779463
0.637525
-0.00159502
0.736838
0.176739
0.81095
0.05742
0.815369
1.0277
0.638309
-0.0264937
0.652689
-0.0159758
0.752225
0.077204
0.787735
0.0219091
0.589076
1.01403
0.632399
-0.0548719
0.656235
-0.0398122
0.725284
0.00815485
0.733868
0.0133254
0.302011
1.02093
0.549149
0.509336
0.517491
0.530817
0.832827
1.0224
-0.229718
1.01396
-0.12903
1.02208
-0.112116
1.02005
-0.00388329
0.032713
0.977086
-0.179101
0.951217
-0.103162
0.927261
-0.0881601
0.935008
-0.0116295
0.0138501
0.943912
-0.108985
0.917537
-0.0767864
0.892226
-0.0628497
0.90139
-0.0207929
0.00228699
0.956931
-0.0449824
0.918895
-0.0387508
0.889608
-0.0335626
0.888272
-0.0194568
-0.00765489
0.787845
0.749094
0.715531
0.696075
0.0479888
0.153445
-0.201434
0.0723036
0.328964
-0.353279
0.073072
0.38193
-0.382698
0.0637584
0.383552
-0.374239
0.351176
0.0521717
-0.33959
0.0704979
0.0829469
0.140828
0.258634
0.174445
0.348312
0.178929
0.379069
0.369953
0.160151
0.0601741
0.0227729
0.171464
0.147344
0.261909
0.257867
0.322482
0.318497
0.365157
0.327279
0.0296796
-0.00690676
0.128929
0.0480945
0.249345
0.137451
0.364869
0.202972
0.272635
0.457392
0.00701098
-0.0139177
0.0579404
-0.00283489
0.15561
0.039781
0.271478
0.0871045
0.141303
0.402809
-0.00176675
-0.012151
0.0119543
-0.0165559
0.0569967
-0.00526137
0.127365
0.0167362
0.0557293
0.212939
0.00086475
-0.0130157
0.00569645
-0.0213876
0.0198921
-0.019457
0.0465895
-0.0099613
0.00959381
0.092725
0.00720941
-0.0202251
0.0131437
-0.0273219
0.0160634
-0.0223766
0.0182205
-0.0121184
0.00249805
0.0253163
-0.0137992
-0.00642597
-0.0410131
-0.000107977
-0.0715332
0.00814343
-0.10227
0.0186182
0.0321765
-0.131948
-0.0258862
-0.067518
-0.10753
-0.14005
-0.164198
0.249445
0.89047
-0.926976
0.312132
0.195201
-0.257888
0.526852
-0.453659
0.238939
0.523058
0.00384711
-5.30968e-05
0.0818354
-0.0215166
0.149464
0.833731
0.160934
0.183731
0.502118
-0.794844
0.551441
-0.0454756
0.144052
-0.161782
1.02083
-0.0331354
0.055084
0.480818
-1.3088
0.536562
-0.10122
0.206132
-0.288861
1.17774
0.0213993
-0.255176
0.461399
-1.7488
0.491709
-0.13153
0.264619
-0.0123129
0.390134
0.490536
0.439151
0.0224515
0.553864
-0.576315
-0.0784194
0.100871
0.0618864
-0.140306
0.137303
-0.0754167
-0.0479455
0.683141
-1.05625
0.526124
0.624758
0.549288
0.0878462
-0.0144735
-0.0733727
0.13917
-0.0513234
0.241641
-0.102471
0.397808
-0.156167
-0.178508
0.197091
-0.159393
0.305919
0.530727
0.831952
0.141333
-0.138218
0.168477
-0.171592
0.107521
-0.143746
0.177557
0.0689963
-0.151112
0.189636
0.0279153
-0.151368
0.192449
-0.106935
0.13485
0.180114
-0.0985462
-0.219785
0.136029
-0.0996609
0.0866391
-0.101721
0.0358816
-0.100611
-0.071053
0.189859
-0.0494798
-0.238926
0.139268
-0.0490694
0.0869743
-0.0494276
0.0354723
-0.0491088
-0.0355806
0.200654
0.0019969
-0.252131
0.14843
0.00315496
0.094701
0.00430114
0.039978
0.00561422
0.00439734
0.205624
-0.256559
0.152192
0.0960933
0.0399577
0.0404272
-0.319058
-0.0609586
0.015893
-0.349705
-0.00632103
-0.360484
-0.0155048
-0.344095
-0.216938
0.121689
-0.287987
-0.15276
0.0791568
-0.307172
0.0381905
-0.319518
0.00755723
-0.313462
-0.209381
0.140077
-0.248523
-0.179541
0.0988328
-0.265928
0.0578233
-0.278508
0.0205013
-0.27614
-0.18888
0.159123
-0.213805
-0.193842
0.116508
-0.223314
0.0709158
-0.232915
0.0278393
-0.233064
-0.161041
0.155841
-0.201169
0.110084
0.0668051
0.0261906
0.38939
0.103255
-0.0966646
0.388496
0.0990023
-0.0981092
0.354829
0.159926
-0.126258
0.298763
0.0595734
-0.00350704
-0.198301
0.325472
0.39749
0.101744
0.403419
0.0930731
0.392516
0.170829
0.346516
0.105573
-0.0715708
0.403239
0.094485
0.413862
0.0824502
0.407109
0.177582
0.370694
0.141988
0.060197
0.407451
0.0830135
0.421076
0.0688258
0.416343
0.182314
0.389467
0.168864
0.197534
0.408711
0.424351
0.416686
0.395644
0.415091
0.0949603
0.329995
0.0850953
0.240718
0.0892778
0.24478
-0.00406202
-0.178636
0.423415
0.508347
0.495333
0.458352
0.450783
0.59762
0.340406
0.0830091
0.265797
0.0746093
0.17776
0.0880374
0.103581
0.0741783
0.0302086
0.479461
0.360228
0.268724
0.190143
)
;

boundaryField
{
    left
    {
        type            calculated;
        value           nonuniform List<scalar> 
17
(
-0.60402
-0.60402
-0.60402
-0.60402
-0.60402
-0.39598
-0.39598
-0.39598
-0.39598
-0.39598
-0.39598
-0.39598
-0.39598
-0.39598
-0.39598
-0.510051
-0.510051
)
;
    }
    right
    {
        type            calculated;
        value           nonuniform List<scalar> 
17
(
0.185249
0.479826
0.462739
0.489225
0.474482
0.433221
0.383649
0.348053
0.309071
0.297719
0.332657
0.384853
0.772376
0.917752
0.985382
0.714319
0.029428
)
;
    }
    down
    {
        type            calculated;
        value           uniform 0;
    }
    up
    {
        type            calculated;
        value           uniform 0;
    }
    cylinder
    {
        type            calculated;
        value           uniform 0;
    }
    defaultFaces
    {
        type            empty;
    }
}


// ************************************************************************* //
