/*--------------------------------*- C++ -*----------------------------------*\
  =========                 |
  \\      /  F ield         | OpenFOAM: The Open Source CFD Toolbox
   \\    /   O peration     | Website:  https://openfoam.org
    \\  /    A nd           | Version:  13
     \\/     M anipulation  |
\*---------------------------------------------------------------------------*/
FoamFile
{
    format      ascii;
    class       surfaceScalarField;
    location    "0.735";
    object      phi;
}
// * * * * * * * * * * * * * * * * * * * * * * * * * * * * * * * * * * * * * //

dimensions      [0 3 -1 0 0 0 0];

internalField   nonuniform List<scalar> 
823
(
0.0113779
-0.0505541
0.0391762
0.038759
-0.133435
0.106054
0.0788327
-0.205877
0.165804
0.130172
-0.26887
0.21753
-0.323259
0.259415
0.194016
0.0107032
-0.0612573
0.0361434
-0.158876
0.0726484
-0.242382
0.117973
-0.314194
-0.3756
0.170314
0.00837705
-0.0696344
0.0282851
-0.178784
0.0567257
-0.270823
0.0918105
-0.349279
-0.41605
0.13226
0.00529927
-0.0749336
0.0179956
-0.19148
0.0362296
-0.289057
0.0588839
-0.371933
-0.442414
0.0852482
0.00196196
-0.0768956
0.00663002
-0.196148
0.0132897
-0.295717
0.0215219
-0.380165
0.0310622
-0.451955
0.00663402
-0.010758
0.00412388
0.02216
-0.0309217
0.0153956
0.0453558
-0.0485164
0.0253206
0.0744976
-0.0639578
0.034816
-0.0770494
0.108146
0.0434009
0.00574622
-0.0165043
0.0214566
-0.0466322
0.0466536
-0.0737134
0.0796842
-0.0969883
-0.116107
0.118742
0.00639044
-0.0228948
0.0236457
-0.0638875
0.0512113
-0.101279
0.0878782
-0.133655
-0.160125
0.131896
0.00753571
-0.0304305
0.0270852
-0.083437
0.0573107
-0.131504
0.0970118
-0.173356
-0.207901
0.144788
0.0087457
0.031363
0.0656623
0.109837
0.161351
0.322492
-0.957908
0.743562
0.474517
-0.823022
0.670998
0.574294
-0.355045
0.255268
0.615768
-0.066882
0.0254082
0.00397943
-0.00852334
0.33028
-1.16945
0.470989
-0.963732
0.576089
-0.460145
0.638251
-0.129044
-0.0173845
0.336442
-1.37399
0.460872
-1.08816
0.563346
-0.562619
0.635264
-0.200962
-0.0505831
0.337368
-1.56657
0.447903
-1.1987
0.540619
-0.655335
0.614643
-0.274986
-0.0897234
0.327698
-1.73292
0.428063
-1.29906
0.508679
-0.735951
0.574143
-0.34045
-0.122876
1.19774
-1.59036
-1.3403
1.00778
-1.1091
0.888648
-0.616815
0.834611
-0.286413
-0.10098
1.32978
-1.13304
-1.7871
0.98192
-0.761245
0.773514
-0.408409
0.68226
-0.195158
-0.0713936
1.18943
-0.607656
-1.71481
0.816254
-0.388072
0.610383
-0.202538
0.514637
-0.0994122
-0.0380194
0.822362
-0.185289
-1.24473
0.545337
-0.111046
0.396338
-0.0535397
0.323907
-0.0269806
-0.011209
0.306716
-0.492004
0.195669
0.14213
0.115149
1.56259
0.0462499
-1.57778
1.52169
0.126156
1.46266
0.191287
1.39633
0.236641
0.250048
1.67586
0.0356512
-1.66526
1.69932
0.102695
1.73081
0.159796
1.76528
0.20217
0.228233
1.38797
0.0184773
-1.37079
1.43705
0.0536079
1.51387
0.0829774
1.61015
0.105893
0.123569
0.977699
0.00531448
-0.964536
1.01588
0.0154232
1.07582
0.0230447
1.15388
0.0278276
0.0327217
0.392987
-0.387673
0.40841
0.431455
0.459283
0.128771
0.327626
-0.264669
-0.191728
0.0781583
0.273214
-0.222602
0.0385244
0.209793
-0.170159
0.0113401
0.136443
-0.109259
0.051953
-0.0406128
0.115952
0.378906
-0.167231
0.0714978
0.317668
0.0356188
0.245672
0.0105613
0.161501
0.0625142
0.0888493
0.418274
-0.128218
0.0548109
0.351707
0.0272878
0.273195
0.00806501
0.180723
0.0705792
0.0552408
0.443533
-0.0804997
0.0337631
0.373184
0.0166551
0.290303
0.0048643
0.192514
0.0754435
0.0174805
-0.0259021
0.0104998
0.00508592
0.00145207
0.0726478
0.0873458
-0.107285
-0.0527081
0.0428952
0.073723
-0.0439703
0.0197387
0.0569511
-0.0337946
0.00513858
0.0368168
-0.0222167
0.0132985
-0.00815986
0.0760171
0.125925
-0.114596
0.0437163
0.106024
0.0196403
0.0810271
0.00508927
0.0513678
0.0183878
0.0843814
0.168574
-0.12703
0.049077
0.141328
0.0227272
0.107377
0.00617143
0.0679236
0.0245593
0.0940481
0.214688
-0.140162
0.0557644
0.179612
0.026523
0.136618
0.00742723
0.0870193
0.0319865
0.107397
-0.157377
0.0644062
0.0308659
0.00862633
0.513341
0.175821
-0.293183
0.562912
0.160823
-0.210393
0.49708
0.313488
-0.247656
0.335021
0.803095
-0.641036
1.04154
-0.813808
0.51388
0.0579206
0.560851
0.113852
0.487791
0.386548
0.331399
0.959487
1.25835
0.514117
-0.0602167
0.547601
0.0803682
0.467139
0.467011
0.328075
1.09855
1.45939
0.5105
-0.174737
0.526018
0.0648501
0.441961
0.551068
0.323829
1.21668
1.64306
0.499078
-0.277835
0.494562
0.0693659
0.412628
0.633003
0.311991
1.31732
1.79767
0.76395
-0.437765
0.84412
-0.0108034
0.956327
0.520795
1.16944
1.10421
1.61954
1.34757
0.706862
-0.540607
0.781405
-0.0853458
0.954442
0.347758
1.29768
0.760968
1.14347
1.77375
0.602236
-0.538823
0.63293
-0.11604
0.803484
0.177205
1.1725
0.391952
0.612037
1.70393
0.448458
-0.383261
0.405413
-0.0729947
0.536037
0.0465803
0.816003
0.111986
0.186913
1.24113
0.22076
0.147765
0.194345
0.306331
0.493244
1.40259
-0.246753
1.46574
-0.230383
1.523
-0.18547
1.56316
-0.120661
-0.0405269
1.75265
-0.225653
1.71974
-0.197463
1.69061
-0.156349
1.67083
-0.100881
-0.0349537
1.60147
-0.123192
1.50876
-0.104755
1.43456
-0.0821488
1.38705
-0.0533724
-0.0186951
1.15107
-0.0331333
1.0743
-0.0279887
1.0153
-0.0231437
0.977571
-0.0156451
-0.00566015
0.46011
0.432122
0.408978
0.393333
0.00250154
0.0430085
-0.0455101
0.00732832
0.101056
-0.105883
0.016096
0.148402
-0.15717
0.0165793
0.151917
-0.1524
0.114034
0.0148149
-0.112269
0.00682879
0.0361798
0.020179
0.0877059
0.0409599
0.127621
0.0482575
0.144619
0.116387
0.0459039
0.00880983
0.0273699
0.0270782
0.0694375
0.0521535
0.102546
0.0730956
0.123677
0.114041
0.075442
0.00780174
0.0195682
0.0255149
0.0517243
0.0497508
0.07831
0.0774343
0.0959933
0.0992478
0.0922272
0.00509905
0.0144691
0.0179737
0.0388497
0.0367677
0.059516
0.0600111
0.0727499
0.076748
0.0825109
0.00342372
0.0110454
0.0125802
0.0296931
0.0274438
0.0446524
0.047059
0.0531347
0.056154
0.067653
0.00222235
0.00882304
0.00893062
0.0229849
0.0222692
0.0313138
0.041022
0.0343818
0.0347676
0.0624084
0.00167524
0.0071478
0.0101361
0.014524
0.0261992
0.0152506
0.0467599
0.0138211
0.0115126
0.0700148
0.00375397
0.00339382
0.0175612
0.000716648
0.0369053
-0.00409349
0.059933
-0.00920676
-0.0144037
0.0858492
0.00751758
0.0236298
0.0448569
0.0704661
0.0994632
0.153843
0.0197572
-0.105947
0.243439
-0.130394
0.0407982
0.264787
-0.0380501
0.0167018
0.26967
0.00407374
-0.00895662
-0.00122865
-0.00485214
0.214845
-0.132679
0.325372
-0.240922
0.351509
-0.0641875
0.35386
0.00172342
-0.00369276
0.2602
-0.322865
0.39154
-0.372261
0.433764
-0.106412
0.43476
0.000727641
-0.00146733
0.293474
-0.530489
0.438932
-0.51772
0.502877
-0.170356
0.508725
-0.00512064
0.00406051
0.312536
0.465814
0.550726
0.571013
0.0706759
0.0386706
-0.109346
0.0786583
-0.0079824
0.082986
-0.00432772
0.080349
0.00263704
0.00120736
0.194119
-0.261396
0.226935
0.239309
0.232989
0.0207329
-0.00433169
-0.0164012
0.0342836
-0.0135508
0.056763
-0.0224793
0.0856233
-0.0288603
-0.0237232
0.0539258
-0.0434425
0.0862789
0.139242
0.202608
0.0478279
-0.0551509
0.0763556
-0.0690327
0.0275564
-0.0521711
0.0724426
0.0123373
-0.0443813
0.0596004
0.00331809
-0.0300419
0.0390611
-0.011261
0.0145791
0.0453798
-0.0322709
-0.0682598
0.0249542
-0.0317455
0.00981919
-0.0292463
0.0021891
-0.0224118
-0.00907187
0.0560531
-0.00668927
-0.0816348
0.0331176
-0.00881015
0.0142724
-0.010401
0.00258667
-0.0107261
-0.00648519
0.070117
0.02156
-0.0983662
0.0448388
0.0164681
0.0233683
0.0110695
0.00692186
0.00572038
0.000436666
0.0744467
-0.105595
0.0469445
0.0242196
0.00772322
0.0165859
-0.114032
-0.0148233
0.0160951
-0.151909
0.007307
-0.148382
0.00248926
-0.101065
-0.0430208
0.0482732
-0.116376
-0.0459286
0.0409337
-0.14457
0.0201649
-0.127613
0.00682158
-0.0877218
-0.0361992
0.0731269
-0.11397
-0.0755329
0.0521256
-0.123568
0.0270665
-0.102554
0.00880675
-0.069462
-0.0273925
0.0773416
-0.0989726
-0.0923394
0.049623
-0.0958498
0.0254346
-0.0783653
0.00777605
-0.0518035
-0.0196164
0.0599518
-0.0825687
0.0365446
0.0177797
0.00503737
0.341907
0.583373
-0.529301
0.28051
0.225112
-0.163715
0.247372
0.0550352
-0.0218975
0.165289
0.11347
-0.031387
-0.000978539
0.0972348
0.407738
0.571614
0.371326
0.261525
0.335561
0.0908004
0.233539
0.215492
0.164301
0.459747
0.507847
0.451334
0.269938
0.409194
0.13294
0.283763
0.340923
0.366429
0.495038
0.408789
0.514394
0.250582
0.461461
0.185873
0.31791
0.484474
0.585973
0.511586
0.551775
0.489992
0.333429
0.158667
0.351384
0.0847719
0.0738955
0.0799775
0.00479434
0.0724272
0.00755027
-0.0369718
0.109399
0.332134
0.242315
0.225212
0.201375
0.261638
0.0856731
0.023726
0.0567949
0.0288782
0.0342947
0.0225002
0.0207363
0.0135584
0.00433518
0.202795
0.139334
0.0863008
0.0539306
)
;

boundaryField
{
    left
    {
        type            calculated;
        value           nonuniform List<scalar> 
17
(
-0.60402
-0.60402
-0.60402
-0.60402
-0.60402
-0.39598
-0.39598
-0.39598
-0.39598
-0.39598
-0.39598
-0.39598
-0.39598
-0.39598
-0.39598
-0.510051
-0.510051
)
;
    }
    right
    {
        type            calculated;
        value           nonuniform List<scalar> 
17
(
0.0791416
0.229344
0.275751
0.356324
0.432534
0.503197
0.56655
0.620312
0.659615
0.668462
0.653784
0.607296
0.812715
0.652673
0.481263
0.297096
0.10394
)
;
    }
    down
    {
        type            calculated;
        value           uniform 0;
    }
    up
    {
        type            calculated;
        value           uniform 0;
    }
    cylinder
    {
        type            calculated;
        value           uniform 0;
    }
    defaultFaces
    {
        type            empty;
    }
}


// ************************************************************************* //
