# Selection   : all
# Cells       : 440
# Volume      : 7.374263e+01
# Time        	min(p)
2.8           	-1.823710e+00
2.85          	-1.808865e+00
2.9           	-1.796169e+00
