/*--------------------------------*- C++ -*----------------------------------*\
  =========                 |
  \\      /  F ield         | OpenFOAM: The Open Source CFD Toolbox
   \\    /   O peration     | Website:  https://openfoam.org
    \\  /    A nd           | Version:  13
     \\/     M anipulation  |
\*---------------------------------------------------------------------------*/
FoamFile
{
    format      ascii;
    class       volScalarField;
    location    "0.685";
    object      p;
}
// * * * * * * * * * * * * * * * * * * * * * * * * * * * * * * * * * * * * * //

dimensions      [0 2 -2 0 0 0 0];

internalField   nonuniform List<scalar> 
440
(
7.82745
10.5838
12.9464
13.1284
10.1528
20.7184
24.1017
27.0971
27.7977
25.9099
41.2553
44.2866
46.9896
47.7823
46.6214
67.3882
69.486
71.3994
72.056
71.3686
96.6645
97.4815
98.2785
98.6786
98.645
-0.449328
-0.548831
-0.0768636
0.484096
0.826668
-1.68172
-2.34691
-2.08589
-1.38969
-0.751857
-2.02754
-2.90918
-2.83115
-2.07643
-0.958956
-0.683483
-0.816128
-0.41125
0.552375
2.41693
3.0828
4.39421
5.82339
7.25471
9.50428
2.08733
2.26899
1.34092
0.68231
0.235131
1.05902
2.08052
1.22072
0.623657
0.225009
-0.093327
1.66966
1.08843
0.578163
0.217086
-0.402921
1.06609
0.879183
0.540835
0.209025
1.50479
0.477421
0.594745
0.48915
0.196463
4.37582
0.249053
0.335346
0.424886
0.162972
6.71996
0.710655
0.435963
0.418776
0.0987521
9.98392
2.44936
1.08378
0.547635
0.0646513
13.8731
4.75069
2.13267
0.823183
0.0703349
16.6092
7.11275
3.45407
1.30538
0.168893
100.689
75.8405
53.3249
33.15
12.3472
102.384
78.943
57.5379
39.0579
23.484
104.285
82.7026
62.4756
45.2353
32.8886
105.168
85.0218
66.5036
51.1845
40.6581
105.087
84.7443
66.3295
51.252
40.8976
219.869
216.388
216.094
218.209
220.942
202.689
200.222
200.481
203.222
206.514
180.541
178.768
179.132
181.554
184.432
154.742
153.399
153.604
155.198
157.094
126.862
126.148
126.087
126.547
127.14
235.587
236.018
236.659
237.087
236.834
236.155
236.793
237.351
237.331
236.379
234.941
235.917
236.333
236.061
235.074
230.054
231.653
232.216
232.351
232.26
221.57
223.432
224.443
225.651
227.006
235.722
234.725
234.896
234.131
234.273
235.69
234.709
234.842
234.085
234.797
235.678
234.669
234.78
234.197
235.313
235.68
234.604
234.772
234.451
234.9
235.684
234.519
234.842
234.649
232.212
235.697
234.375
234.892
234.425
228.725
235.89
234.235
234.78
233.931
226.355
236.793
234.005
234.15
232.246
223.334
240.836
233.984
232.97
229.787
219.661
249.807
234.71
231.749
227.242
216.91
217.761
196.235
175.027
151.734
126.447
207.366
191.37
172.325
150.422
126.652
198.878
186.198
168.615
148.088
126.334
191.744
180.784
165.1
146.262
125.92
191.527
180.765
165.355
146.661
126.151
96.3951
95.5182
95.0705
94.3036
94.147
57.3136
55.3667
53.6613
51.7396
50.9736
29.4832
27.1399
24.3772
22.0781
20.7536
15.0313
12.6147
10.1492
8.12893
7.1584
9.20189
7.31415
5.92719
4.9517
4.36455
5.97207
4.86995
4.28999
4.20115
4.28938
4.06446
3.6048
3.5324
3.68789
3.84145
2.75702
2.74287
2.9763
3.27967
3.43807
1.65593
1.96037
2.41183
2.76259
2.9074
0.610005
1.00686
1.57963
1.98174
2.156
3.61092
3.17881
2.06661
0.961405
0.276338
3.66467
3.0076
1.97435
0.905226
0.265124
3.46593
2.74611
1.84538
0.85331
0.256327
3.14591
2.50279
1.6828
0.801436
0.249273
2.73002
2.35614
1.50058
0.743913
0.242773
4.47864
3.16237
1.98021
1.00492
0.310861
3.7418
3.25669
2.06905
0.997809
0.290529
94.9026
54.1437
27.5061
14.4825
9.4624
93.6814
51.1343
22.9828
9.46704
5.25667
232.142
232.223
232.173
231.656
230.578
232.73
232.903
233.132
233.171
232.795
233.293
233.465
233.852
234.25
234.42
233.893
234.044
234.448
235.051
235.471
234.638
234.875
235.379
235.994
236.254
141.979
141.787
140.959
140.448
139.537
185.213
184.404
182.426
180.659
178.682
215.513
214.142
211.793
208.979
206.604
229.149
228.142
226.091
223.593
221.148
231.997
231.383
230.411
229.028
227.129
238.817
234.442
234.534
233.51
232.896
237.114
234.484
234.623
233.678
232.914
236.348
234.573
234.727
233.902
233.244
235.978
234.655
234.83
234.103
233.623
235.8
234.709
234.896
234.185
233.939
252.258
235.782
234.89
233.446
231.98
243.164
234.688
234.472
233.389
232.699
226.935
221.861
208.753
182.036
141.228
231.132
226.889
213.307
185.06
142.452
)
;

boundaryField
{
    left
    {
        type            zeroGradient;
    }
    right
    {
        type            fixedValue;
        value           uniform 0;
    }
    down
    {
        type            zeroGradient;
    }
    up
    {
        type            zeroGradient;
    }
    cylinder
    {
        type            zeroGradient;
    }
    defaultFaces
    {
        type            empty;
    }
}


// ************************************************************************* //
