/*--------------------------------*- C++ -*----------------------------------*\
  =========                 |
  \\      /  F ield         | OpenFOAM: The Open Source CFD Toolbox
   \\    /   O peration     | Website:  https://openfoam.org
    \\  /    A nd           | Version:  13
     \\/     M anipulation  |
\*---------------------------------------------------------------------------*/
FoamFile
{
    format      ascii;
    class       surfaceScalarField;
    location    "0.685";
    object      phi;
}
// * * * * * * * * * * * * * * * * * * * * * * * * * * * * * * * * * * * * * //

dimensions      [0 3 -1 0 0 0 0];

internalField   nonuniform List<scalar> 
823
(
0.0113778
-0.0505543
0.0391765
0.0387588
-0.133436
0.106055
0.0788325
-0.205877
0.165804
0.130172
-0.268869
0.21753
-0.323258
0.259413
0.194017
0.0107031
-0.0612574
0.0361432
-0.158876
0.0726483
-0.242383
0.117973
-0.314194
-0.3756
0.170314
0.00837703
-0.0696344
0.0282851
-0.178784
0.0567257
-0.270823
0.0918106
-0.349279
-0.41605
0.132261
0.00529927
-0.0749337
0.0179956
-0.19148
0.0362297
-0.289057
0.0588841
-0.371933
-0.442415
0.0852486
0.00196197
-0.0768957
0.00663005
-0.196148
0.0132897
-0.295717
0.021522
-0.380165
0.0310623
-0.451955
0.00664183
-0.0107537
0.00411172
0.0221736
-0.0309126
0.0153807
0.0453735
-0.0485035
0.0253035
0.0745185
-0.0639424
0.0347975
-0.077032
0.10817
0.0433809
0.00574965
-0.0165035
0.021466
-0.046629
0.0466695
-0.073707
0.0797062
-0.096979
-0.116096
0.11877
0.00639149
-0.022895
0.0236495
-0.063887
0.0512193
-0.101277
0.0878912
-0.133651
-0.160118
0.131914
0.00753588
-0.0304309
0.0270861
-0.0834372
0.0573133
-0.131504
0.0970169
-0.173354
-0.207897
0.144796
0.00874563
0.031363
0.0656628
0.109838
0.161354
0.322507
-0.957636
0.743298
0.474427
-0.82251
0.670591
0.573742
-0.354146
0.254831
0.614699
-0.0670303
0.0260734
0.00321393
-0.00781436
0.330352
-1.16922
0.471037
-0.963195
0.575615
-0.458724
0.635682
-0.127097
-0.0165921
0.336523
-1.37383
0.461046
-1.08772
0.563218
-0.560896
0.631615
-0.195494
-0.0463947
0.337426
-1.56646
0.44812
-1.19841
0.540663
-0.653439
0.613235
-0.268067
-0.0842773
0.327728
-1.73283
0.428191
-1.29888
0.508749
-0.733996
0.575196
-0.334514
-0.118483
1.19774
-1.59027
-1.34029
1.00784
-1.10898
0.890046
-0.616204
0.838022
-0.282491
-0.0968886
1.32983
-1.133
-1.7871
0.982073
-0.761218
0.773996
-0.408127
0.684569
-0.193064
-0.06879
1.18946
-0.607644
-1.71482
0.816315
-0.388071
0.610634
-0.202446
0.516167
-0.0985973
-0.036762
0.822373
-0.185287
-1.24473
0.545348
-0.111046
0.396409
-0.0535075
0.324646
-0.0268339
-0.0108946
0.306717
-0.492004
0.195672
0.142165
0.115331
1.56259
0.0462503
-1.57778
1.52169
0.126157
1.46266
0.191288
1.39633
0.236644
0.250053
1.67586
0.0356515
-1.66526
1.69932
0.102696
1.73081
0.159797
1.76529
0.202172
0.228236
1.38797
0.0184774
-1.37079
1.43706
0.0536078
1.51388
0.0829772
1.61016
0.105893
0.12357
0.977699
0.0053145
-0.964536
1.01588
0.0154232
1.07582
0.0230446
1.15388
0.0278276
0.0327219
0.392987
-0.387673
0.40841
0.431455
0.459282
0.128771
0.327625
-0.264666
-0.19173
0.0781585
0.273214
-0.222601
0.0385243
0.209793
-0.170159
0.0113401
0.136444
-0.109259
0.0519533
-0.0406132
0.115952
0.378905
-0.167232
0.0714974
0.317668
0.0356184
0.245672
0.0105611
0.161501
0.0625144
0.0888493
0.418274
-0.128218
0.0548108
0.351707
0.0272877
0.273195
0.00806494
0.180724
0.0705793
0.0552409
0.443533
-0.0805001
0.0337631
0.373184
0.016655
0.290303
0.00486429
0.192514
0.0754436
0.0174806
-0.0259023
0.0104998
0.00508593
0.00145207
0.0726249
0.0873298
-0.107253
-0.0527012
0.0428803
0.0737089
-0.0439641
0.0197308
0.0569391
-0.0337896
0.00513621
0.0368079
-0.0222133
0.0132944
-0.00815815
0.0760204
0.125908
-0.114599
0.0437194
0.10601
0.0196425
0.081016
0.00509005
0.0513603
0.0183845
0.0843981
0.168563
-0.127053
0.0490882
0.14132
0.0227331
0.107371
0.00617332
0.0679201
0.0245579
0.0940617
0.214683
-0.140182
0.0557729
0.179608
0.0265273
0.136617
0.00742861
0.0870188
0.0319865
0.107402
-0.157386
0.0644094
0.0308674
0.00862679
0.513166
0.175131
-0.292317
0.562238
0.161784
-0.210856
0.496683
0.313309
-0.247754
0.334862
0.803243
-0.641422
1.04136
-0.813754
0.513387
0.0577231
0.559838
0.115334
0.487351
0.385796
0.331317
0.959278
1.25808
0.513422
-0.0597191
0.546582
0.0821736
0.466818
0.465559
0.328108
1.09799
1.45914
0.509772
-0.173512
0.525379
0.0665664
0.441908
0.549031
0.323914
1.21598
1.64287
0.498769
-0.276301
0.494604
0.0707315
0.412761
0.630875
0.312069
1.31667
1.79755
0.764656
-0.436937
0.845279
-0.00989075
0.956464
0.519689
1.16944
1.1037
1.61943
1.34756
0.707644
-0.540561
0.782649
-0.084895
0.95483
0.347508
1.29777
0.760758
1.14344
1.77376
0.602297
-0.538838
0.633231
-0.115829
0.803612
0.177126
1.17253
0.391836
0.612032
1.70394
0.448457
-0.383274
0.405575
-0.0729472
0.53612
0.0465807
0.816008
0.111949
0.186913
1.24113
0.220746
0.147799
0.194379
0.306328
0.493241
1.40259
-0.246759
1.46574
-0.230386
1.52299
-0.185472
1.56316
-0.120662
-0.0405272
1.75266
-0.225657
1.71974
-0.197465
1.69062
-0.156349
1.67084
-0.10088
-0.0349533
1.60147
-0.123191
1.50876
-0.104754
1.43456
-0.0821479
1.38705
-0.0533717
-0.0186948
1.15107
-0.0331326
1.0743
-0.0279881
1.0153
-0.0231432
0.977571
-0.0156448
-0.00566001
0.460109
0.432121
0.408977
0.393333
0.00250152
0.0430083
-0.0455098
0.00732828
0.101056
-0.105882
0.0160959
0.148401
-0.157169
0.0165793
0.151916
-0.152399
0.114033
0.0148148
-0.112269
0.00682874
0.0361795
0.0201788
0.0877054
0.0409597
0.127621
0.0482572
0.144618
0.116386
0.0459037
0.00880977
0.0273698
0.0270781
0.0694371
0.0521531
0.102545
0.0730951
0.123676
0.11404
0.0754414
0.0078017
0.0195681
0.0255148
0.051724
0.0497506
0.0783096
0.0774337
0.0959932
0.0992478
0.0922261
0.00509909
0.014469
0.0179738
0.0388493
0.0367677
0.0595158
0.0600104
0.0727504
0.0767489
0.0825093
0.00342392
0.0110451
0.0125807
0.0296925
0.0274436
0.0446529
0.0470573
0.0531367
0.0561566
0.0676495
0.00222282
0.00882223
0.00893013
0.0229852
0.0222656
0.0313174
0.0410151
0.0343871
0.0347731
0.0623986
0.00167318
0.00714905
0.0101268
0.0145315
0.0261832
0.015261
0.0467378
0.0138323
0.0115243
0.0699866
0.00374426
0.00340477
0.0175447
0.000731016
0.0368834
-0.00407779
0.0599057
-0.00919016
-0.0143862
0.085816
0.00751635
0.023628
0.0448537
0.0704609
0.0994555
0.153806
0.0198239
-0.105981
0.243359
-0.130297
0.0407442
0.264691
-0.0379941
0.016662
0.269739
0.00368097
-0.008729
-0.00157255
-0.00465601
0.214784
-0.132561
0.325262
-0.240776
0.351379
-0.0641108
0.353917
0.00114351
-0.00419294
0.26012
-0.322695
0.3914
-0.372056
0.433577
-0.106287
0.434746
-2.53137e-05
-0.00209783
0.29339
-0.530269
0.438764
-0.517431
0.502605
-0.170128
0.50856
-0.00598031
0.00332795
0.312485
0.465645
0.550348
0.570442
0.0706671
0.0386786
-0.109346
0.0786378
-0.00797069
0.0829532
-0.00431536
0.0803772
0.00257595
0.00115869
0.194091
-0.261393
0.226864
0.23921
0.233056
0.0207327
-0.00433166
-0.0164011
0.0342835
-0.0135507
0.0567627
-0.0224792
0.0856228
-0.0288601
-0.0237229
0.0539255
-0.0434423
0.0862784
0.139241
0.202607
0.0478308
-0.0551473
0.0763533
-0.0690368
0.0275578
-0.0521674
0.0724405
0.0123374
-0.0443789
0.0595992
0.00331799
-0.0300414
0.0390609
-0.011261
0.014579
0.0453916
-0.0322641
-0.0682748
0.0249628
-0.0317386
0.00982366
-0.0292397
0.00219005
-0.0224078
-0.00907097
0.0560627
-0.00668116
-0.0816457
0.0331263
-0.00880222
0.0142792
-0.0103926
0.00258928
-0.0107179
-0.00648168
0.0701051
0.0215634
-0.0983497
0.0448316
0.0164714
0.0233654
0.0110736
0.00692195
0.0057256
0.00044026
0.0744142
-0.105552
0.0469216
0.0242057
0.00771795
0.0165859
-0.114031
-0.0148232
0.016095
-0.151908
0.00730698
-0.148381
0.00248925
-0.101065
-0.0430206
0.048273
-0.116376
-0.0459284
0.0409336
-0.144569
0.0201648
-0.127612
0.00682155
-0.0877213
-0.036199
0.073127
-0.11397
-0.0755329
0.0521255
-0.123567
0.0270664
-0.102553
0.0088067
-0.0694616
-0.0273923
0.0773418
-0.0989713
-0.0923403
0.0496229
-0.0958485
0.0254344
-0.0783646
0.00777597
-0.0518032
-0.0196163
0.059953
-0.0825711
0.036545
0.0177796
0.00503731
0.341917
0.583363
-0.529301
0.28053
0.225088
-0.163701
0.247487
0.0547358
-0.0216936
0.165322
0.113738
-0.0315728
-0.000920081
0.0972051
0.40779
0.571552
0.371382
0.261496
0.335674
0.090444
0.233571
0.215841
0.164376
0.459856
0.507676
0.451413
0.26994
0.409271
0.132586
0.283772
0.34134
0.366503
0.495397
0.408259
0.514613
0.250723
0.461447
0.185753
0.317855
0.484932
0.586009
0.511921
0.551789
0.489787
0.333297
0.158667
0.351384
0.0847689
0.0738979
0.0800445
0.00472439
0.0724342
0.00761029
-0.0369655
0.1094
0.332135
0.242332
0.225363
0.2014
0.26164
0.0856729
0.0237268
0.0567946
0.0288783
0.0342945
0.0225
0.0207362
0.0135583
0.00433515
0.202795
0.139333
0.0863005
0.0539304
)
;

boundaryField
{
    left
    {
        type            calculated;
        value           nonuniform List<scalar> 
17
(
-0.60402
-0.60402
-0.60402
-0.60402
-0.60402
-0.39598
-0.39598
-0.39598
-0.39598
-0.39598
-0.39598
-0.39598
-0.39598
-0.39598
-0.39598
-0.510051
-0.510051
)
;
    }
    right
    {
        type            calculated;
        value           nonuniform List<scalar> 
17
(
0.0792185
0.229559
0.275967
0.356537
0.43265
0.503134
0.565955
0.619299
0.655488
0.661418
0.651118
0.609401
0.816428
0.65647
0.484139
0.298779
0.104436
)
;
    }
    down
    {
        type            calculated;
        value           uniform 0;
    }
    up
    {
        type            calculated;
        value           uniform 0;
    }
    cylinder
    {
        type            calculated;
        value           uniform 0;
    }
    defaultFaces
    {
        type            empty;
    }
}


// ************************************************************************* //
