/*--------------------------------*- C++ -*----------------------------------*\
  =========                 |
  \\      /  F ield         | OpenFOAM: The Open Source CFD Toolbox
   \\    /   O peration     | Website:  https://openfoam.org
    \\  /    A nd           | Version:  13
     \\/     M anipulation  |
\*---------------------------------------------------------------------------*/
FoamFile
{
    format      ascii;
    class       surfaceScalarField;
    location    "36.6";
    object      phi;
}
// * * * * * * * * * * * * * * * * * * * * * * * * * * * * * * * * * * * * * //

dimensions      [0 3 -1 0 0 0 0];

internalField   nonuniform List<scalar> 
823
(
0.0145384
0.00949478
-0.0240332
0.0463506
-0.00126299
-0.0305492
0.106709
-0.0511231
-0.00923543
0.192399
-0.118212
0.0325226
-0.169151
0.0619149
0.299635
0.0104597
-0.000964966
0.0655473
-0.0563505
0.161475
-0.147051
0.271199
-0.227936
-0.301632
0.403679
0.0215253
-0.0224903
0.107159
-0.141985
0.217075
-0.256967
0.320479
-0.33134
-0.372678
0.391526
0.0448019
-0.0672922
0.140424
-0.237607
0.222321
-0.338863
0.271075
-0.380094
-0.389664
0.288061
0.057454
-0.124746
0.126798
-0.306951
0.164571
-0.376637
0.177892
-0.393415
0.186448
-0.39822
0.000974348
-0.019939
0.0189647
-0.00338798
-0.0562073
0.0605696
-0.0235846
-0.0600263
0.0802229
-0.0561655
-0.0480846
0.0806655
-0.0396491
-0.091438
0.0749216
-0.00832483
-0.0116142
-0.0316803
-0.0328519
-0.0657588
-0.0259478
-0.0994016
-0.0144417
-0.0150456
-0.124005
-0.015656
0.0040418
-0.0487242
0.000216278
-0.0809478
0.00627581
-0.100128
0.00473825
-0.00929673
-0.105877
-0.0209192
0.024961
-0.0522836
0.0315807
-0.0700598
0.024052
-0.0691266
0.00380504
-0.0232461
-0.0551772
0.000927791
0.00195924
0.0167758
0.0531034
0.0917722
0.143932
-0.690033
0.454664
0.3669
0.888725
-1.11169
0.336574
1.47374
-1.44342
0.454411
-1.02324
0.905401
-1.02547
1.00802
0.254172
-1.06821
0.617239
0.525658
0.501968
1.58901
0.535942
-1.05721
-1.03602
0.253143
-1.42723
0.530518
0.248284
0.509095
1.61043
0.589238
-1.13735
-1.05189
0.100051
-1.58246
0.18778
0.160555
0.47175
1.32646
0.633723
-1.29933
-1.05907
-0.0085339
-1.48215
0.00818501
0.143836
0.580124
0.754523
0.676024
-1.39523
-1.05118
0.757001
-1.05115
-1.18801
0.537831
0.363006
1.22951
0.0628475
1.20881
-1.37453
-0.884104
0.943927
-0.646282
-1.34879
0.994286
0.312647
1.41684
-0.359707
1.21407
-1.17176
-0.643903
1.041
-0.354983
-1.3323
1.23366
0.119989
1.37489
-0.500933
1.00952
-0.806395
-0.383957
1.07754
-0.162875
-1.26965
1.23936
-0.0418319
1.09476
-0.356334
0.627566
-0.339196
-0.116062
0.695748
-0.858623
0.653916
0.297582
-0.0416145
1.10175
0.144054
-1.05935
1.16778
0.222023
1.26921
0.290103
1.28315
0.389735
0.39478
1.02399
0.0879072
-0.967843
1.09181
0.154198
1.17144
0.210479
1.27876
0.282409
0.324749
0.959237
0.0462688
-0.917598
1.01794
0.0954964
1.09832
0.130097
1.21178
0.168952
0.204229
0.890683
0.0124506
-0.856865
0.952184
0.0339955
1.03555
0.0467285
1.14243
0.0620696
0.0770122
0.638817
-0.626366
0.672812
0.719541
0.781611
0.134473
0.303907
-0.251628
-0.186751
0.0890622
0.309713
-0.264303
0.0487886
0.320515
-0.280241
0.0158595
0.312894
-0.279964
0.203861
-0.188002
0.099769
0.340799
-0.136661
0.0636727
0.345809
0.0313595
0.352828
0.00614424
0.338109
0.210005
0.0606567
0.37276
-0.0926176
0.0303817
0.376084
0.00477056
0.378439
-0.0078893
0.350769
0.202116
-0.0137991
0.388894
-0.00233473
-0.0299952
0.39228
-0.0375181
0.385962
-0.0285511
0.341802
0.173565
-0.09186
0.0825342
-0.0929948
-0.0836695
-0.0488187
0.201957
0.10086
-0.25469
-0.0481265
0.147968
0.10536
-0.0513718
0.0921838
0.110363
-0.0545791
0.0376059
0.110724
-0.056146
0.0793034
-0.0416974
0.194643
0.145279
-0.239062
0.148129
0.151874
0.0963878
0.162104
0.0410084
0.166103
0.120312
0.151394
0.191011
-0.197126
0.10776
0.195508
0.0653339
0.204531
0.0248682
0.206569
0.14518
0.155516
0.225041
-0.189546
0.115671
0.235353
0.0710121
0.249189
0.0275221
0.250059
0.172702
0.105206
-0.131794
0.0762571
0.0452049
0.0152995
0.406095
0.0678191
-0.0779342
0.419252
0.0390843
-0.0522413
0.41487
0.152244
-0.147863
0.391056
0.221134
-0.19732
0.437079
-0.300713
0.403206
0.0605929
0.413405
0.0288855
0.404957
0.160691
0.376061
0.250031
0.574078
0.396416
0.0601569
0.408735
0.0165665
0.384899
0.184527
0.36455
0.270379
0.741502
0.392517
0.0636199
0.397267
0.0118161
0.372192
0.209602
0.336496
0.306076
0.888452
0.384987
0.0746126
0.387661
0.00914167
0.340742
0.256521
0.31183
0.334987
1.06849
0.619772
0.0588615
0.662249
-0.0333359
0.690911
0.227859
0.74227
0.283628
0.803534
1.00722
0.633586
0.0292956
0.681266
-0.0810159
0.714464
0.194661
0.755632
0.242461
0.51845
1.04072
0.649673
-0.0163568
0.66907
-0.100413
0.699884
0.163846
0.79353
0.148815
0.289801
1.02218
0.646805
-0.0591409
0.614947
-0.068555
0.703195
0.075598
0.809062
0.0429487
0.129816
0.969047
0.54488
0.476324
0.551922
0.594871
0.724687
1.03091
-0.210432
1.02446
-0.13022
1.02219
-0.0903436
1.02563
-0.0057777
0.048817
0.980968
-0.150685
0.967694
-0.116947
0.938371
-0.0610204
0.955224
-0.0226307
0.0361985
0.959502
-0.0880075
0.926752
-0.0841959
0.900108
-0.0343765
0.905132
-0.0276551
0.0237321
0.915023
-0.0339833
0.867293
-0.0364661
0.848983
-0.016067
0.838769
-0.0174404
0.00563626
0.690704
0.654237
0.63817
0.62073
0.0533604
0.155311
-0.208671
0.0781753
0.34401
-0.368825
0.0775469
0.400064
-0.399436
0.067212
0.402901
-0.392567
0.371455
0.0534888
-0.357731
0.0799224
0.0753882
0.156579
0.267353
0.191059
0.365584
0.19477
0.39919
0.390275
0.17595
0.0660525
0.00933566
0.19093
0.142476
0.289539
0.266975
0.351409
0.33732
0.391018
0.350666
0.0304535
-0.0211179
0.141825
0.0311038
0.275187
0.133614
0.40682
0.205687
0.296637
0.501202
0.00465051
-0.0257684
0.0592818
-0.0235275
0.171274
0.0216219
0.31053
0.0664304
0.143687
0.46348
-0.00539382
-0.0203746
0.00846869
-0.03739
0.0637336
-0.0336429
0.153387
-0.0232235
0.0311966
0.265878
-0.00832995
-0.0120446
-0.0129241
-0.0327958
0.000286657
-0.0468537
0.029535
-0.0524719
-0.033217
0.0939487
-0.00268123
-0.00936339
-0.000279561
-0.0351975
0.0101679
-0.0573012
0.0268
-0.069104
-0.0696938
0.0632768
0.00519264
-0.014556
0.0208104
-0.0508152
0.0406389
-0.0771297
0.0594231
-0.0878883
-0.0889361
0.0786654
0.00440865
0.014163
0.0172563
0.0100335
-0.00398098
0.410779
0.897453
-1.04236
0.333541
0.643336
-0.566098
0.0310271
0.770723
-0.468209
0.0682779
-0.332723
0.295472
-0.748742
0.571268
0.45202
0.539382
0.339232
0.756125
0.0642915
1.04566
0.137748
-0.40618
-0.864069
0.479895
0.122764
0.27269
0.96333
0.0609456
1.25741
0.204149
-0.549383
-0.941796
0.431596
-0.230166
0.270702
1.12422
0.120563
1.40755
0.293779
-0.7226
-0.98324
0.220516
0.233047
0.197179
0.379979
-0.0806937
0.700322
-0.619629
-0.222392
0.141698
-0.237047
0.0146552
-0.0219096
-0.215138
-0.247261
0.827903
-1.16994
0.403504
-0.0500497
0.0302847
0.0901305
-0.0132299
-0.0769006
0.148815
-0.0586848
0.257604
-0.108788
0.41688
-0.159277
-0.202748
0.208137
-0.167878
0.325402
0.567279
0.909205
0.142029
-0.143175
0.174142
-0.172996
0.108582
-0.148949
0.182396
0.0705114
-0.15659
0.194661
0.0289866
-0.156255
0.19778
-0.108784
0.137771
0.185128
-0.103855
-0.224448
0.140563
-0.104383
0.0895202
-0.105547
0.0369806
-0.103715
-0.0718036
0.183797
-0.0535758
-0.234076
0.132599
-0.0531856
0.081506
-0.0544541
0.0328623
-0.0550714
-0.0389414
0.200984
-0.00262847
-0.251932
0.149305
-0.0015066
0.0955387
-0.000687538
0.0403922
7.51223e-05
0.0014508
0.204463
-0.255218
0.151584
0.0963175
0.0402466
0.0430882
-0.335282
-0.0655372
0.0159396
-0.365418
-0.00753102
-0.375965
-0.0173748
-0.358981
-0.226046
0.129483
-0.302959
-0.161806
0.0854791
-0.321414
0.0414701
-0.331956
0.00837128
-0.325882
-0.217675
0.149911
-0.260715
-0.192155
0.104929
-0.276432
0.0614602
-0.288487
0.0219426
-0.286364
-0.195732
0.169687
-0.223471
-0.206931
0.125061
-0.231806
0.0770969
-0.240523
0.0309157
-0.240183
-0.164816
0.164722
-0.214051
0.115312
0.0694491
0.0270455
0.38803
0.107489
-0.0995397
0.388055
0.0909347
-0.0909591
0.355717
0.144145
-0.111807
0.304358
0.0521448
-0.000786318
-0.236887
0.368249
0.396322
0.107147
0.402418
0.084839
0.395423
0.151139
0.347979
0.0995888
-0.113356
0.401845
0.101282
0.412301
0.0743831
0.410149
0.153291
0.371841
0.137898
0.024408
0.406851
0.0904106
0.417594
0.0636397
0.421038
0.149847
0.389511
0.169424
0.161987
0.408456
0.419854
0.421839
0.393943
0.413911
0.0961401
0.332653
0.0812577
0.250356
0.0822975
0.255479
-0.00512285
-0.198561
0.454039
0.506651
0.49695
0.467441
0.461531
0.63122
0.363125
0.0909143
0.282533
0.0805923
0.188661
0.0938717
0.109373
0.0792883
0.0324721
0.508083
0.381744
0.283461
0.200944
)
;

boundaryField
{
    left
    {
        type            calculated;
        value           nonuniform List<scalar> 
17
(
-0.60402
-0.60402
-0.60402
-0.60402
-0.60402
-0.39598
-0.39598
-0.39598
-0.39598
-0.39598
-0.39598
-0.39598
-0.39598
-0.39598
-0.39598
-0.510051
-0.510051
)
;
    }
    right
    {
        type            calculated;
        value           nonuniform List<scalar> 
17
(
0.225351
0.354292
0.245751
0.253076
0.281875
0.335224
0.404762
0.471856
0.54649
0.605109
0.640909
0.668127
1.04174
0.973874
0.749571
0.35967
-0.157676
)
;
    }
    down
    {
        type            calculated;
        value           uniform 0;
    }
    up
    {
        type            calculated;
        value           uniform 0;
    }
    cylinder
    {
        type            calculated;
        value           uniform 0;
    }
    defaultFaces
    {
        type            empty;
    }
}


// ************************************************************************* //
