/*--------------------------------*- C++ -*----------------------------------*\
  =========                 |
  \\      /  F ield         | OpenFOAM: The Open Source CFD Toolbox
   \\    /   O peration     | Website:  https://openfoam.org
    \\  /    A nd           | Version:  13
     \\/     M anipulation  |
\*---------------------------------------------------------------------------*/
FoamFile
{
    format      ascii;
    class       volScalarField;
    location    "3.235";
    object      p;
}
// * * * * * * * * * * * * * * * * * * * * * * * * * * * * * * * * * * * * * //

dimensions      [0 2 -2 0 0 0 0];

internalField   nonuniform List<scalar> 
440
(
-1.28825
-1.26271
-1.2557
-1.23299
-1.3453
-1.32285
-1.29698
-1.27138
-1.24894
-1.24876
-1.44146
-1.40665
-1.36828
-1.32544
-1.28396
-1.58002
-1.52949
-1.44312
-1.34126
-1.23858
-1.68099
-1.61455
-1.46397
-1.30851
-1.16846
-1.06062
-1.06463
-1.0823
-1.11169
-1.13804
-1.24089
-1.24036
-1.25827
-1.29405
-1.33279
-1.34786
-1.34549
-1.35535
-1.3851
-1.42738
-1.36308
-1.35149
-1.3452
-1.35459
-1.38559
-1.31045
-1.29042
-1.27012
-1.25945
-1.30571
-1.17923
-0.489601
-0.118186
0.0190387
0.0300592
-1.33366
-0.622736
-0.142807
0.0118592
0.0306065
-1.40717
-0.710256
-0.17566
-0.00107988
0.0277055
-1.39299
-0.763654
-0.215205
-0.0210102
0.0201554
-1.40782
-0.806984
-0.25789
-0.0457757
0.0093527
-1.23792
-0.764322
-0.280169
-0.0753149
-0.00638137
-0.931936
-0.636211
-0.286034
-0.10289
-0.0230864
-0.805158
-0.584942
-0.316005
-0.123021
-0.0251008
-0.668409
-0.534313
-0.350216
-0.161235
-0.0393022
-0.555225
-0.492393
-0.369599
-0.178015
-0.0413472
-0.933316
-1.04621
-1.23528
-1.40986
-1.55721
-0.684823
-0.81653
-0.916905
-0.983907
-1.01445
-0.517567
-0.635508
-0.708023
-0.765841
-0.804158
-0.413891
-0.521003
-0.594229
-0.643963
-0.674642
-0.366329
-0.471879
-0.543308
-0.583132
-0.592904
0.459572
0.304032
0.10653
-0.115673
-0.361076
0.0331497
-0.133302
-0.336486
-0.568078
-0.833396
-0.378561
-0.549633
-0.76555
-1.00619
-1.25167
-0.750828
-0.923557
-1.13654
-1.36587
-1.54994
-0.998705
-1.16885
-1.36439
-1.56909
-1.68375
1.58785
1.61305
1.63586
1.645
1.63789
1.38981
1.40381
1.4093
1.39703
1.36295
1.1722
1.15777
1.11845
1.05441
0.963527
0.919817
0.88061
0.804128
0.695496
0.555999
0.697927
0.589177
0.44684
0.280649
0.0815501
1.4283
1.3674
1.38952
1.43003
1.49818
1.41741
1.35588
1.37011
1.40389
1.40163
1.40747
1.34181
1.34866
1.365
1.27663
1.3984
1.32634
1.32408
1.31696
1.10472
1.3904
1.30968
1.29876
1.26043
0.91967
1.38237
1.28581
1.26613
1.16721
0.718789
1.37515
1.25575
1.24478
1.08198
0.799879
1.37879
1.24159
1.22872
1.02598
0.796813
1.37463
1.21917
1.21713
0.97869
0.788309
1.40749
1.21513
1.20928
0.950998
0.784625
0.432524
0.125855
-0.220468
-0.54173
-0.739692
0.327116
0.119406
-0.114797
-0.336726
-0.524436
0.319482
0.147432
-0.0371696
-0.211693
-0.382502
0.351006
0.189956
0.0243362
-0.132044
-0.286566
0.374576
0.218067
0.0604975
-0.0903369
-0.239719
-1.28986
-1.18072
-1.04382
-0.934659
-0.870399
-1.36186
-1.30657
-1.20528
-1.12554
-1.08169
-1.29947
-1.25676
-1.20128
-1.16067
-1.14058
-1.17248
-1.1401
-1.10641
-1.08332
-1.07116
-1.07649
-1.05856
-1.04105
-1.026
-1.03761
-1.01471
-1.00586
-0.995062
-0.985742
-0.96888
-1.00407
-1.0017
-1.00285
-1.00967
-1.01386
-0.967016
-0.973739
-0.988035
-1.00792
-1.0221
-0.90793
-0.918466
-0.938238
-0.960796
-0.975422
-0.943161
-0.950342
-0.967989
-0.990591
-1.0073
-0.998754
-0.357577
-0.16129
-0.0331391
0.0075155
-0.974183
-0.289004
-0.14776
-0.0171086
0.0157358
-0.951222
-0.263527
-0.117257
0.00366441
0.0199365
-0.963293
-0.280621
-0.107304
0.0155514
0.024139
-1.03781
-0.352985
-0.105948
0.0208218
0.0276195
-0.74434
-0.491497
-0.265202
-0.0613766
0.00527381
-0.922888
-0.449012
-0.224984
-0.0459201
0.0126286
-0.83251
-1.06674
-1.13015
-1.10115
-0.946254
-0.84881
-1.06781
-1.13746
-1.08295
-1.07355
1.35815
1.34369
1.31496
1.27332
1.21854
1.51905
1.53924
1.54852
1.54508
1.52887
1.64854
1.67947
1.70642
1.72365
1.72788
1.71184
1.7467
1.78426
1.8155
1.83053
1.69222
1.72405
1.75853
1.78604
1.79746
-0.477345
-0.561097
-0.692514
-0.855174
-1.03159
0.0440898
-0.0659906
-0.213422
-0.390579
-0.603378
0.50989
0.394558
0.25796
0.0982151
-0.0933935
0.881063
0.794352
0.689208
0.562494
0.413176
1.17676
1.11877
1.04334
0.953071
0.849002
1.49227
1.40309
1.43366
1.43987
1.47599
1.4771
1.39918
1.43012
1.45022
1.51978
1.46408
1.39369
1.42576
1.46187
1.57293
1.45156
1.38662
1.41713
1.46138
1.57492
1.43962
1.37795
1.40467
1.45126
1.55279
1.5466
1.41173
1.42394
1.37944
1.35301
1.50273
1.40015
1.42159
1.39669
1.37276
1.06745
0.883379
0.556799
0.0769914
-0.453539
1.14252
0.912483
0.572715
0.0961408
-0.445576
)
;

boundaryField
{
    left
    {
        type            zeroGradient;
    }
    right
    {
        type            fixedValue;
        value           uniform 0;
    }
    down
    {
        type            zeroGradient;
    }
    up
    {
        type            zeroGradient;
    }
    cylinder
    {
        type            zeroGradient;
    }
    defaultFaces
    {
        type            empty;
    }
}


// ************************************************************************* //
