/*--------------------------------*- C++ -*----------------------------------*\
  =========                 |
  \\      /  F ield         | OpenFOAM: The Open Source CFD Toolbox
   \\    /   O peration     | Website:  https://openfoam.org
    \\  /    A nd           | Version:  13
     \\/     M anipulation  |
\*---------------------------------------------------------------------------*/
FoamFile
{
    format      ascii;
    class       volScalarField;
    location    "0.475";
    object      p;
}
// * * * * * * * * * * * * * * * * * * * * * * * * * * * * * * * * * * * * * //

dimensions      [0 2 -2 0 0 0 0];

internalField   nonuniform List<scalar> 
1800
(
5.75391
7.86105
10.0139
11.4424
12.2769
12.6876
12.819
12.6621
11.4167
7.32562
9.60498
12.0807
14.5857
16.2698
17.3265
17.9894
18.4444
18.6839
17.96
15.2831
15.9985
18.6233
21.2961
23.1594
24.4198
25.3017
25.9527
26.3363
25.8655
24.0351
24.9946
27.564
30.2125
32.1271
33.4925
34.5017
35.2643
35.7164
35.3106
33.6263
36.0539
38.4148
40.8671
42.6788
44.0032
44.9995
45.7542
46.2036
45.8536
44.2984
48.7313
50.7839
52.9276
54.534
55.725
56.6273
57.3097
57.7204
57.4393
56.0801
62.6802
64.3531
66.1088
67.4408
68.4429
69.2126
69.8041
70.1811
70.0061
68.9175
77.6064
78.848
80.1592
81.1685
81.9445
82.5584
83.0525
83.4074
83.3741
82.6377
93.225
94.0047
94.8362
95.4912
96.014
96.4515
96.8343
97.1577
97.2679
96.9335
109.254
109.559
109.891
110.165
110.403
110.624
110.841
111.055
111.216
111.243
-0.581747
-0.833176
-0.611583
-0.198103
0.272625
0.73856
1.09776
1.30923
1.45398
1.59962
-0.478782
-0.990286
-1.0958
-0.887447
-0.463591
-0.038944
0.25576
0.49881
0.777546
1.04976
0.504941
-0.456968
-1.27978
-1.44197
-1.11544
-0.807161
-0.589846
-0.283529
0.122829
0.508126
0.892961
-0.243649
-1.43195
-1.76799
-1.5482
-1.39066
-1.26061
-0.953334
-0.496156
0.0118265
0.463699
-0.500776
-1.43439
-1.7239
-1.66607
-1.67256
-1.63124
-1.36696
-0.874662
-0.179951
-0.23361
-0.748501
-1.14544
-1.27374
-1.29326
-1.3555
-1.34438
-1.13344
-0.607236
0.326052
-0.562254
-0.523601
-0.34553
-0.198692
-0.113257
-0.091008
-0.0503674
0.121697
0.701349
1.93247
-0.0735181
0.513137
1.23474
1.73964
2.0697
2.28387
2.43474
2.65314
3.38542
5.04867
1.37745
2.48552
3.73419
4.6559
5.32617
5.81899
6.15985
6.50022
7.48833
9.77679
3.6218
5.26473
7.08299
8.45901
9.48186
10.2423
10.7651
11.2189
12.2811
14.4453
2.31466
2.45315
2.34824
2.10755
1.61079
1.20483
0.867028
0.599765
0.37158
0.139744
1.96174
2.42665
2.24027
2.01951
1.52397
1.1261
0.820621
0.581372
0.365871
0.138396
1.4822
2.3959
2.13656
1.92317
1.44367
1.05653
0.77877
0.562356
0.356361
0.133732
0.8576
2.31395
2.03607
1.81468
1.36379
0.9925
0.740687
0.544598
0.347243
0.129332
0.1648
2.13969
1.92688
1.69225
1.28016
0.932274
0.705167
0.528389
0.340069
0.126483
-0.406319
1.86265
1.79073
1.55385
1.1897
0.874995
0.672425
0.514318
0.335141
0.125589
-0.554469
1.51585
1.61354
1.39619
1.08985
0.819454
0.643149
0.502601
0.332577
0.126734
0.174974
1.18783
1.38586
1.20972
0.976205
0.763271
0.617524
0.493427
0.332714
0.129578
2.43169
1.05233
1.08689
0.969494
0.839263
0.702566
0.594841
0.487111
0.334593
0.133344
6.66692
1.42204
0.731036
0.654775
0.669513
0.633915
0.573744
0.482325
0.332571
0.130309
9.9973
2.59664
0.711371
0.416164
0.491885
0.552384
0.546845
0.468404
0.31843
0.118314
11.7835
2.59037
0.281861
0.0683336
0.359309
0.508941
0.516184
0.431274
0.286729
0.0997768
12.8776
2.78808
0.399616
0.14976
0.462163
0.564884
0.51262
0.398902
0.2545
0.0773843
14.1937
4.3695
1.28024
0.722026
0.784719
0.714989
0.547883
0.379199
0.222858
0.0536215
16.37
7.11592
2.70714
1.59487
1.24613
0.938836
0.623922
0.377924
0.196938
0.030888
19.2632
9.88734
4.34871
2.57023
1.7863
1.21427
0.736155
0.397369
0.18076
0.0122464
21.7696
11.9522
5.87066
3.53598
2.35936
1.51785
0.872646
0.436003
0.176824
0.000198958
23.0491
13.1358
7.06846
4.43818
2.9366
1.83379
1.02366
0.490776
0.185949
-0.00357703
22.9888
13.5145
7.92866
5.28577
3.52704
2.16989
1.1942
0.565122
0.211843
0.00283195
22.4359
13.7392
8.69954
6.14627
4.1524
2.54688
1.40542
0.675099
0.270945
0.0243996
111.799
97.8535
84.0887
71.0834
59.1441
48.3639
38.7825
30.1059
20.0945
4.98884
112.779
99.4913
85.9903
72.9839
60.9409
50.0603
40.5276
32.2701
23.6054
11.4917
113.311
100.226
87.345
75.0185
63.4796
52.8877
43.458
35.2697
27.4838
18.3497
114.523
102.783
90.8238
78.9926
67.6354
57.0397
47.4062
38.8056
31.0987
23.8355
115.1
104.089
93.1686
82.4775
72.1303
62.2056
52.7428
43.8316
36.0126
29.833
115.45
104.723
94.2162
84.0544
74.3339
65.1045
56.3453
48.1039
41.0621
36.0447
115.681
105.122
94.811
84.8788
75.4361
66.5557
58.247
50.5796
44.2259
40.1066
115.782
105.261
94.9941
85.1226
75.7686
67.0227
58.919
51.5258
45.4092
41.4498
115.732
105.046
94.6197
84.6006
75.1214
66.2889
58.159
50.7896
44.5659
40.1133
115.608
104.661
93.9737
83.6963
73.9709
64.9208
56.6261
49.1315
42.6226
37.4279
234.141
229.78
228.214
227.774
227.683
227.935
228.67
230.051
232.203
234.342
225.577
222.56
221.512
221.474
221.7
222.185
223.116
224.724
227.195
229.672
216.063
213.889
213.117
213.243
213.674
214.378
215.503
217.273
219.887
222.485
205.756
203.729
203.026
203.222
203.767
204.596
205.82
207.628
210.198
212.717
194.432
192.523
191.869
192.057
192.589
193.401
194.578
196.272
198.627
200.917
182.065
180.341
179.747
179.889
180.342
181.054
182.089
183.567
185.597
187.562
168.719
167.256
166.763
166.866
167.222
167.794
168.634
169.827
171.454
173.025
154.584
153.468
153.113
153.191
153.447
153.859
154.466
155.328
156.499
157.627
139.975
139.261
139.054
139.104
139.249
139.484
139.834
140.336
141.018
141.674
125.45
125.106
124.966
124.919
124.906
124.929
124.995
125.115
125.292
125.468
246.541
246.777
247.026
247.243
247.542
248.04
248.588
248.923
248.933
248.425
246.627
246.957
247.357
247.66
247.86
248.193
248.613
248.529
247.721
246.707
246.65
247.045
247.488
247.799
247.881
248.012
248.292
247.931
246.546
245.292
246.537
247.039
247.468
247.7
247.634
247.522
247.559
247.137
245.84
244.679
246.048
246.703
247.094
247.202
247.026
246.752
246.579
246.22
245.409
244.616
244.841
245.685
246.024
245.992
245.764
245.483
245.29
245.12
244.879
244.591
242.494
243.592
243.933
243.822
243.615
243.453
243.421
243.553
243.861
244.1
238.609
240.097
240.569
240.506
240.425
240.478
240.717
241.213
242.026
242.765
233.135
235.191
235.903
235.972
236.1
236.447
237.036
237.941
239.246
240.458
227.78
229.647
230.394
230.563
230.871
231.488
232.431
233.782
235.63
237.338
246.968
246.739
246.706
246.503
246.423
246.283
245.911
245.659
245.563
245.709
246.929
246.738
246.701
246.505
246.421
246.289
245.926
245.651
245.383
245.742
246.902
246.734
246.693
246.5
246.413
246.293
245.936
245.609
245.159
245.837
246.884
246.726
246.68
246.488
246.4
246.294
245.936
245.528
244.95
246.03
246.871
246.716
246.665
246.47
246.383
246.287
245.919
245.426
244.819
246.27
246.864
246.704
246.647
246.448
246.361
246.268
245.888
245.335
244.792
246.376
246.862
246.691
246.628
246.424
246.335
246.236
245.854
245.281
244.835
246.04
246.865
246.675
246.607
246.396
246.305
246.199
245.835
245.279
244.852
244.8
246.874
246.655
246.584
246.366
246.274
246.172
245.862
245.348
244.67
242.023
246.89
246.633
246.557
246.334
246.245
246.172
245.96
245.469
243.989
237.306
246.927
246.609
246.518
246.283
246.186
246.105
245.879
245.13
242.447
233.749
247.043
246.592
246.484
246.24
246.136
246.154
246.087
245.337
242.183
231.804
247.288
246.601
246.453
246.169
246.059
246.124
246.096
245.258
241.901
230.545
247.746
246.658
246.429
246.09
245.918
245.854
245.651
244.564
240.506
229.334
248.589
246.728
246.451
245.995
245.705
245.338
244.767
243.25
238.033
227.48
250.417
246.796
246.554
245.919
245.415
244.671
243.668
241.579
235.388
224.928
254.295
247.104
246.703
245.856
245.064
243.956
242.564
239.959
233.317
222.594
262.6
248.242
246.974
245.808
244.693
243.268
241.56
238.666
232.075
221.336
280.161
250.977
247.621
245.838
244.342
242.617
240.651
237.734
231.632
221.366
306.132
255.023
249.124
246.046
244.052
241.998
239.769
236.919
231.361
221.893
236.432
221.081
210.458
201.144
190.983
179.679
167.284
153.912
139.867
125.737
230.04
217.744
208.593
199.873
189.936
178.698
166.352
153.102
139.378
125.904
223.508
214.143
205.965
197.438
187.724
176.884
165.131
152.63
139.612
126.434
218.399
210.891
202.899
194.049
184.205
173.44
161.946
150.002
137.939
126.105
213.002
206.607
198.613
189.518
179.848
169.71
159.159
148.291
137.236
126.143
207.399
202.102
194.842
186.371
177.373
167.918
157.999
147.676
137.056
126.269
203.601
199.161
192.572
184.676
176.143
167.058
157.437
147.363
136.952
126.342
202.319
198.062
191.716
184.104
175.792
166.856
157.337
147.334
136.975
126.406
203.645
198.931
192.482
184.898
176.566
167.551
157.913
147.767
137.253
126.521
206.319
200.885
194.149
186.439
177.943
168.712
158.83
148.426
137.65
126.657
112.197
112.367
112.451
112.302
111.795
111.434
111.25
111.534
111.527
111.278
89.6232
90.0864
90.305
89.8714
88.4395
87.3531
86.7323
87.3939
87.4315
86.8451
68.7815
69.4091
69.6704
69.0036
67.0643
65.3527
64.3325
64.8812
65.1856
64.6305
50.6651
51.2714
51.461
50.6378
48.6588
46.4929
45.1629
45.1983
45.9367
45.7034
36.021
36.4293
36.4795
35.5981
33.8064
31.4905
29.8468
29.2816
30.0892
30.2769
24.9697
25.073
24.9508
24.0277
22.4502
20.421
18.6302
17.6887
17.9438
18.4438
17.0839
16.9334
16.7185
15.7276
14.3133
12.8101
11.3226
10.2576
9.91796
10.2845
11.5975
11.4204
11.3717
10.3725
9.05384
8.05203
7.16023
6.31722
5.72885
5.64523
7.92395
7.83551
8.13133
7.26371
6.09798
5.50741
5.17818
4.7932
4.30925
3.92978
6.05587
5.85072
6.2359
5.4984
4.62927
4.35291
4.37634
4.36652
4.21382
3.81807
5.28992
5.05286
5.13479
4.44072
3.9084
3.85159
4.00062
4.14287
4.2638
4.3205
4.86434
4.755
4.47715
3.81074
3.52427
3.6106
3.81294
3.98008
4.09969
4.18595
4.48745
4.4425
4.0104
3.45935
3.33823
3.49982
3.72365
3.90196
4.01979
4.08015
4.03474
3.97973
3.5734
3.22112
3.22973
3.43162
3.64367
3.80054
3.89893
3.94025
3.48913
3.39588
3.12182
3.00074
3.1162
3.33194
3.52138
3.65857
3.73967
3.7634
2.84114
2.74626
2.68502
2.77347
2.969
3.17276
3.33815
3.45732
3.52409
3.53747
2.12013
2.13515
2.26784
2.50075
2.73546
2.93341
3.08836
3.20179
3.26776
3.28306
1.4475
1.5646
1.81428
2.10582
2.36065
2.57425
2.74938
2.88726
2.97423
3.00218
0.773193
0.908948
1.18253
1.50902
1.81645
2.08603
2.32158
2.50528
2.60992
2.64767
0.1022
0.0191403
0.252379
0.660639
1.07774
1.45661
1.77849
1.99314
2.09685
2.15986
3.67557
3.7183
3.58747
3.26119
2.61352
1.92989
1.34088
0.868533
0.467532
0.118273
3.74843
3.6927
3.53721
3.24523
2.57409
1.87319
1.28764
0.83107
0.44839
0.118721
3.77532
3.58763
3.42611
3.19142
2.53002
1.81931
1.2366
0.795694
0.431634
0.120326
3.7371
3.4127
3.27438
3.08963
2.4727
1.76657
1.18779
0.7625
0.417214
0.122495
3.63055
3.20596
3.10749
2.93733
2.39038
1.7106
1.14058
0.731467
0.405014
0.12513
3.46852
3.00939
2.94843
2.75494
2.27697
1.64777
1.09495
0.702964
0.395002
0.128115
3.27608
2.84268
2.806
2.57424
2.13563
1.57479
1.0506
0.67735
0.387086
0.131234
3.06905
2.70529
2.68024
2.41884
1.98174
1.48952
1.0067
0.65473
0.381048
0.134145
2.84527
2.59217
2.5661
2.2949
1.83621
1.3937
0.96199
0.634848
0.376682
0.136606
2.59718
2.50603
2.45697
2.19534
1.71242
1.2954
0.915317
0.617089
0.373695
0.138313
5.43648
3.99075
3.29357
2.91431
2.43569
1.91902
1.41828
0.95653
0.532782
0.13981
4.63275
3.76995
3.32921
2.97492
2.47596
1.92785
1.40694
0.939858
0.516579
0.131982
3.96295
3.67774
3.38947
3.04384
2.5149
1.9355
1.39625
0.925101
0.504146
0.126019
3.64315
3.67795
3.47435
3.12363
2.55569
1.94268
1.3855
0.911168
0.493669
0.121982
3.62839
3.7208
3.57561
3.21552
2.60116
1.94983
1.37331
0.896308
0.483665
0.119749
112.027
88.9614
67.9115
50.1408
36.1269
25.8073
18.6377
13.7625
10.5807
8.76672
111.806
88.3991
67.2052
49.4065
35.3247
24.803
17.334
12.229
9.08637
7.58639
111.62
87.9188
66.567
48.6659
34.4135
23.6303
15.9136
10.6942
7.54987
6.09213
111.41
87.3451
65.7267
47.6011
33.0889
22.0363
14.1422
8.90986
5.8248
4.44938
111.155
86.617
64.5974
46.128
31.2888
19.9688
11.9738
6.93791
4.45499
3.6392
243.767
243.804
243.924
244.095
244.308
244.318
243.814
243.113
243.215
242.991
243.98
244.051
244.165
244.354
244.624
244.8
244.582
243.932
243.674
243.566
244.176
244.224
244.337
244.533
244.818
245.08
245.054
244.547
244.118
244.067
244.418
244.451
244.548
244.722
244.978
245.267
245.372
245.103
244.716
244.647
244.691
244.708
244.79
244.938
245.152
245.416
245.619
245.622
245.456
245.365
244.98
244.992
245.061
245.183
245.355
245.585
245.855
246.096
246.201
246.189
245.249
245.268
245.35
245.484
245.66
245.89
246.19
246.549
246.851
246.972
245.531
245.549
245.646
245.837
246.09
246.39
246.749
247.159
247.521
247.7
245.908
245.938
246.016
246.239
246.608
247.057
247.56
248.076
248.416
248.379
246.301
246.41
246.511
246.703
247.102
247.668
248.265
248.812
249.161
248.956
136.508
136.249
136.226
136.489
136.271
135.873
135.332
135.16
135.232
135.396
160.957
160.361
160.382
161.02
160.367
159.244
157.781
157.324
157.53
157.988
183.201
182.634
182.922
183.444
182.394
180.649
178.68
177.992
178.24
178.863
202.166
201.92
202.639
202.649
201.291
199.094
197.086
196.242
196.42
197.022
217.636
217.811
218.595
218.007
216.339
213.995
212.174
211.271
211.31
211.715
229.516
229.997
230.227
229.267
227.46
225.403
223.794
222.847
222.714
222.815
237.714
238.05
237.687
236.613
235.122
233.594
232.143
231.126
230.901
230.749
242.369
242.248
241.638
240.805
239.927
238.909
237.556
236.53
236.471
236.293
244.092
243.673
243.179
242.821
242.525
241.939
240.75
239.855
240.14
240.054
244.231
243.805
243.652
243.673
243.745
243.503
242.63
241.869
242.254
242.064
254.857
246.89
247.515
246.303
246.054
245.547
245.004
244.637
244.505
244.542
252.024
246.827
247.328
246.284
246.106
245.61
245.021
244.671
244.583
244.514
250.102
246.833
247.106
246.282
246.162
245.677
245.065
244.766
244.752
244.546
248.918
246.862
246.896
246.302
246.219
245.75
245.146
244.921
244.98
244.651
248.234
246.864
246.76
246.342
246.275
245.831
245.275
245.111
245.219
244.82
247.785
246.821
246.724
246.391
246.327
245.923
245.442
245.295
245.422
245.023
247.471
246.767
246.722
246.432
246.37
246.024
245.614
245.444
245.572
245.228
247.257
246.739
246.715
246.462
246.398
246.125
245.753
245.547
245.666
245.417
247.117
246.734
246.709
246.483
246.41
246.21
245.842
245.61
245.702
245.573
247.027
246.736
246.708
246.495
246.419
246.262
245.888
245.645
245.67
245.67
317.361
253.773
249.923
246.981
246.158
245.591
245.262
244.936
244.24
242.721
295.629
251.384
248.802
246.751
246.076
245.562
245.217
244.906
244.452
243.522
277.188
249.228
248.206
246.578
246.035
245.543
245.167
244.848
244.534
244.195
265.785
247.883
247.882
246.45
246.017
245.53
245.109
244.765
244.524
244.523
259.013
247.153
247.659
246.343
246.015
245.522
245.039
244.662
244.478
244.556
239.299
237.45
234.234
229.327
222.126
211.772
197.723
179.919
158.844
135.764
240.482
238.946
235.771
230.636
223.134
212.578
198.46
180.627
159.407
135.986
241.995
240.497
237.316
232.064
224.313
213.494
199.203
181.267
159.888
136.172
243.657
242.251
239.123
233.849
225.915
214.823
200.27
182.108
160.462
136.381
244.445
243.608
241.106
236.036
227.994
216.628
201.745
183.238
161.19
136.635
)
;

boundaryField
{
    left
    {
        type            zeroGradient;
    }
    right
    {
        type            fixedValue;
        value           uniform 0;
    }
    down
    {
        type            zeroGradient;
    }
    up
    {
        type            zeroGradient;
    }
    cylinder
    {
        type            zeroGradient;
    }
    defaultFaces
    {
        type            empty;
    }
}


// ************************************************************************* //
