/*--------------------------------*- C++ -*----------------------------------*\
  =========                 |
  \\      /  F ield         | OpenFOAM: The Open Source CFD Toolbox
   \\    /   O peration     | Website:  https://openfoam.org
    \\  /    A nd           | Version:  13
     \\/     M anipulation  |
\*---------------------------------------------------------------------------*/
FoamFile
{
    format      ascii;
    class       surfaceScalarField;
    location    "0.475";
    object      phi;
}
// * * * * * * * * * * * * * * * * * * * * * * * * * * * * * * * * * * * * * //

dimensions      [0 3 -1 0 0 0 0];

internalField   nonuniform List<scalar> 
3485
(
0.00137164
-0.0112582
0.00988655
0.00505114
-0.0319071
0.0282276
0.0107643
-0.051383
0.0456699
0.0183129
-0.0696767
0.0621281
0.0275462
-0.0868343
0.077601
0.03835
-0.1029
0.0920959
0.0506357
-0.117904
0.105618
0.0643603
-0.131867
0.118142
0.0796213
-0.144856
0.129595
-0.156888
0.139495
0.0970146
0.00150032
-0.0127585
0.0054458
-0.0358525
0.0114762
-0.0574135
0.0193238
-0.0775243
0.0287734
-0.0962839
0.0396478
-0.113774
0.0518027
-0.130059
0.0651304
-0.145195
0.0795394
-0.159265
-0.172193
0.0948437
0.00147416
-0.0142327
0.00532696
-0.0397053
0.0111745
-0.063261
0.018721
-0.0850707
0.0277257
-0.105289
0.0379892
-0.124038
0.0493457
-0.141415
0.0616557
-0.157505
0.0747871
-0.172397
-0.186034
0.0886285
0.00133885
-0.0155715
0.00485901
-0.0432255
0.0102109
-0.0686129
0.0171172
-0.091977
0.0253542
-0.113526
0.0347409
-0.133424
0.0451313
-0.151806
0.0564054
-0.168779
0.0684566
-0.184448
-0.198789
0.0812115
0.00116693
-0.0167384
0.004256
-0.0463146
0.0089732
-0.0733301
0.0150819
-0.0980857
0.022392
-0.120836
0.030753
-0.141785
0.0400471
-0.1611
0.0501817
-0.178914
0.0610792
-0.195345
-0.210401
0.0726917
0.000980027
-0.0177185
0.00358798
-0.0489225
0.00758671
-0.0773288
0.0127841
-0.103283
0.0190264
-0.127078
0.0261932
-0.148952
0.0341923
-0.169099
0.0429547
-0.187676
0.0524252
-0.204816
-0.220549
0.0625728
0.000780736
-0.0184992
0.00286505
-0.0510068
0.0060691
-0.0805329
0.0102431
-0.107457
0.0152669
-0.132102
0.0210473
-0.154732
0.0275151
-0.175567
0.0346217
-0.194782
0.0423328
-0.212527
-0.228851
0.0506349
0.000569716
-0.0190689
0.00209352
-0.0525306
0.00443801
-0.0828773
0.00749292
-0.110512
0.0111691
-0.135778
0.0153974
-0.158961
0.0201283
-0.180298
0.0253305
-0.199985
0.0309879
-0.218184
-0.234968
0.0371048
0.000352522
-0.0194214
0.00129582
-0.0534739
0.00274515
-0.0843267
0.00462856
-0.112395
0.00688682
-0.138036
0.00947358
-0.161547
0.0123559
-0.18318
0.0155151
-0.203144
0.0189459
-0.221615
-0.238685
0.0226629
0.000137811
-0.0195592
0.000502519
-0.0538386
0.00105708
-0.0848812
0.00176973
-0.113108
0.00261399
-0.138881
0.00356877
-0.162502
0.00461857
-0.18423
0.00575388
-0.204279
0.00697125
-0.222832
0.00827576
-0.239989
0.000497305
-0.00187344
0.00137613
0.00211177
-0.00625491
0.00464044
0.00545537
-0.0113904
0.00804679
0.0101432
-0.0161455
0.0114577
0.0155734
-0.0201356
0.0147054
0.0214811
-0.0235351
0.0176273
0.0279567
-0.026717
0.0202414
0.0351455
-0.0299075
0.0227187
0.0430337
-0.0330621
0.0251739
-0.0360315
0.0514898
0.0275754
0.000428187
-0.00230163
0.00211628
-0.00794301
0.00544916
-0.0147233
0.00983859
-0.020535
0.0149268
-0.0252238
0.0208168
-0.0294251
0.0276784
-0.0335785
0.0354619
-0.0376911
0.0439597
-0.0415599
-0.0450796
0.0530078
0.0006822
-0.00298383
0.00271445
-0.00997526
0.00578745
-0.0177963
0.0097852
-0.0245327
0.0148536
-0.0302922
0.0211615
-0.035733
0.0286412
-0.0410582
0.0370169
-0.0460668
0.046071
-0.050614
-0.0547198
0.0557112
0.000867188
-0.00385101
0.00305852
-0.0121666
0.00608512
-0.0208229
0.010218
-0.0286656
0.0157255
-0.0357997
0.0225909
-0.0425985
0.0305747
-0.049042
0.0394412
-0.0549332
0.0490937
-0.0602665
-0.0650758
0.0594498
0.00092175
-0.00477277
0.00319907
-0.0144439
0.00652288
-0.0241467
0.0111275
-0.0332702
0.0171514
-0.0418237
0.024471
-0.0499181
0.0328957
-0.0574667
0.0423267
-0.0643643
0.0527
-0.0706399
-0.076259
0.0638832
0.000943041
-0.00571581
0.00337198
-0.0168729
0.00709333
-0.027868
0.0121798
-0.0383567
0.018642
-0.0482859
0.0263696
-0.0576456
0.0352656
-0.0663626
0.0452818
-0.0743805
0.0563393
-0.0816974
-0.0881999
0.0682802
0.000979526
-0.00669533
0.00358364
-0.019477
0.00764204
-0.0319264
0.0131095
-0.0438242
0.0199304
-0.0551067
0.0280187
-0.065734
0.0373124
-0.0756563
0.0477649
-0.0848331
0.0593031
-0.0932356
-0.100679
0.071782
0.00101779
-0.00771312
0.00376749
-0.0222267
0.00807124
-0.0362302
0.0138207
-0.0495737
0.0209216
-0.0622076
0.029285
-0.0740974
0.0388415
-0.0852128
0.0495343
-0.0955258
0.0613046
-0.105006
-0.113426
0.0740523
0.00105451
-0.00876763
0.00393655
-0.0251087
0.00846095
-0.0407546
0.0144824
-0.0555951
0.0218749
-0.0696
0.030528
-0.0827505
0.0403466
-0.0950314
0.0512419
-0.106421
0.0631331
-0.116897
-0.126308
0.076015
0.00111892
0.00423778
0.0091531
0.0156861
0.0236871
0.0330324
0.0436191
0.0553403
0.0680384
0.0812251
0.114398
-0.413794
0.350886
0.168169
-0.470693
0.416923
0.210172
-0.420377
0.378373
0.24374
-0.324724
0.291156
0.270002
-0.21238
0.186118
0.289639
-0.107304
0.0876672
0.301433
-0.0280383
0.016244
0.305835
0.00666618
-0.0110685
0.306457
0.0110642
-0.0116857
0.00824811
-0.00696742
0.116031
-0.476818
0.16982
-0.524482
0.211854
-0.462411
0.245203
-0.358072
0.271548
-0.238726
0.291592
-0.127348
0.304966
-0.0414121
0.311879
-0.000246791
0.31516
0.00778283
0.00790096
0.117865
-0.538971
0.170706
-0.577324
0.212401
-0.504105
0.245222
-0.390893
0.27146
-0.264963
0.291564
-0.147452
0.30514
-0.0549883
0.312641
-0.00774733
0.317147
0.00327641
0.00641514
0.120247
-0.599768
0.171101
-0.628178
0.21197
-0.544975
0.243982
-0.422904
0.269932
-0.290914
0.290042
-0.167562
0.303529
-0.068475
0.31136
-0.0155779
0.316298
-0.00166178
0.00452606
0.123132
-0.659017
0.171215
-0.676261
0.21069
-0.58445
0.241634
-0.453848
0.267083
-0.316364
0.287227
-0.187706
0.300853
-0.0821003
0.309386
-0.0241116
0.315118
-0.00739352
0.00191259
0.125972
-0.716709
0.171089
-0.721377
0.208655
-0.622016
0.238308
-0.483501
0.263005
-0.34106
0.283189
-0.20789
0.297306
-0.0962176
0.306942
-0.0337478
0.313808
-0.0142586
-0.00179444
0.127895
-0.772822
0.170546
-0.764028
0.205929
-0.657399
0.234132
-0.511704
0.257812
-0.364741
0.277962
-0.22804
0.292951
-0.111207
0.304069
-0.0448656
0.312384
-0.0225738
-0.00695148
0.127963
-0.826733
0.169108
-0.805173
0.202385
-0.690677
0.229096
-0.538415
0.251558
-0.387202
0.271534
-0.248017
0.287762
-0.127435
0.300741
-0.0578446
0.310689
-0.0325211
-0.0137524
0.125872
-0.87659
0.166368
-0.845669
0.197978
-0.722286
0.223308
-0.563745
0.244388
-0.408282
0.263933
-0.267562
0.281625
-0.145126
0.29673
-0.07295
0.306478
-0.0422694
-0.0202524
0.122178
-0.917544
0.161526
-0.885017
0.191834
-0.752594
0.216067
-0.587978
0.235838
-0.428053
0.254849
-0.286573
0.274228
-0.164504
0.28896
-0.0876826
0.295823
-0.0491317
-0.0258013
0.583915
-0.920005
-0.581453
0.561178
-0.86228
0.523994
-0.71541
0.487887
-0.55187
0.460197
-0.400364
0.446184
-0.27256
0.443769
-0.16209
0.440476
-0.0843894
0.435406
-0.0440611
-0.0240715
0.682843
-0.871412
-0.731435
0.619735
-0.799172
0.554109
-0.649784
0.497027
-0.494789
0.452945
-0.356282
0.424144
-0.243759
0.410323
-0.14827
0.403736
-0.0778023
0.399141
-0.0394654
-0.0216655
0.754039
-0.77503
-0.850422
0.655289
-0.700423
0.563857
-0.558352
0.488295
-0.419227
0.4312
-0.299187
0.392862
-0.205421
0.373012
-0.128419
0.364263
-0.0690528
0.359147
-0.0343494
-0.0189153
0.779087
-0.641601
-0.912515
0.653953
-0.57529
0.546658
-0.451056
0.461709
-0.334278
0.399266
-0.236744
0.356865
-0.16302
0.332862
-0.104416
0.321871
-0.0580618
0.316362
-0.0288408
-0.0158932
0.753055
-0.492391
-0.902266
0.617704
-0.439938
0.506429
-0.339781
0.420537
-0.248385
0.358313
-0.17452
0.315723
-0.120431
0.290114
-0.078807
0.277538
-0.0454854
0.271516
-0.0228189
-0.012659
0.685145
-0.345814
-0.831722
0.552778
-0.307571
0.446591
-0.233594
0.366254
-0.168047
0.308772
-0.117038
0.269286
-0.0809448
0.244473
-0.0539937
0.231345
-0.0323575
0.225024
-0.0164983
-0.00931542
0.58264
-0.213851
-0.714603
0.46293
-0.187861
0.369394
-0.140058
0.300086
-0.0987398
0.251187
-0.0681394
0.217537
-0.0472944
0.195674
-0.0321307
0.183305
-0.0199885
0.177144
-0.0103378
-0.00605207
0.44877
-0.10552
-0.557101
0.351199
-0.090291
0.277097
-0.0659552
0.223598
-0.045241
0.186425
-0.0309663
0.160789
-0.0216578
0.143653
-0.0149949
0.133369
-0.00970454
0.128041
-0.00500959
-0.00314971
0.286596
-0.0302197
-0.361896
0.220919
-0.0246146
0.172508
-0.0175436
0.138738
-0.0114711
0.115552
-0.00778011
0.0994239
-0.00553003
0.0883568
-0.0039278
0.0813595
-0.00270729
0.0776981
-0.00134815
-0.000998768
0.101317
-0.131536
0.076702
0.0591583
0.0476873
0.0399072
0.0343772
0.0304494
0.0277421
0.0263939
0.738824
0.0102233
-0.740771
0.733077
0.0284094
0.723437
0.0467446
0.710163
0.0639094
0.693568
0.0791676
0.674072
0.0921877
0.652265
0.103018
0.628701
0.112192
0.604253
0.119293
0.119814
0.845551
0.0133996
-0.848727
0.837322
0.0366378
0.827287
0.0567794
0.816591
0.0746053
0.805247
0.0905125
0.79289
0.104545
0.779273
0.116635
0.764573
0.126892
0.749103
0.134762
0.137481
0.844988
0.0114269
-0.843015
0.848889
0.0327372
0.853027
0.0526412
0.856479
0.0711532
0.85884
0.0881511
0.859927
0.103459
0.8596
0.116961
0.857969
0.128524
0.855298
0.137434
0.142357
0.800216
0.00930584
-0.798095
0.805824
0.0271286
0.814423
0.0440423
0.825644
0.0599326
0.839012
0.0747829
0.853865
0.0886054
0.869439
0.101387
0.885078
0.112885
0.899968
0.122544
0.12981
0.737868
0.00703993
-0.735602
0.744157
0.0208395
0.754127
0.0340725
0.767508
0.0465514
0.784089
0.0582015
0.80367
0.0690248
0.826002
0.0790548
0.850642
0.0882454
0.876571
0.0966149
0.104115
0.653922
0.00485489
-0.651737
0.660204
0.0145568
0.67038
0.0238969
0.684223
0.032708
0.701528
0.0408967
0.722116
0.0484369
0.745813
0.0553583
0.77234
0.0617184
0.801232
0.0677226
0.0736247
0.549112
0.0029167
-0.547174
0.554813
0.00885634
0.564139
0.0145709
0.576907
0.0199403
0.592916
0.024887
0.61197
0.029383
0.633874
0.0334546
0.658412
0.037181
0.685386
0.0407476
0.0444082
0.422792
0.00137604
-0.421252
0.427413
0.00423615
0.435008
0.00697573
0.445422
0.00952591
0.45847
0.0118388
0.473958
0.0138957
0.491698
0.0157139
0.511529
0.0173499
0.533349
0.0189276
0.0206569
0.273828
0.000366754
-0.272819
0.276915
0.00114949
0.281999
0.00189176
0.288955
0.0025694
0.297629
0.00316444
0.307856
0.00366911
0.319482
0.00408802
0.332395
0.00443667
0.346562
0.00476044
0.00532333
0.100484
-0.100117
0.101633
0.103525
0.106094
0.109259
0.112928
0.117016
0.121453
0.126213
0.0779454
0.15949
-0.142473
-0.0949629
0.0630378
0.147449
-0.132542
0.0496256
0.134398
-0.120986
0.0376083
0.120327
-0.108309
0.0270296
0.105167
-0.0945886
0.0179797
0.0888926
-0.0798427
0.0105738
0.07146
-0.0640541
0.00496367
0.0528096
-0.0471995
0.0013481
0.0328748
-0.0292593
0.0116393
-0.0102912
0.0779512
0.174424
-0.0928851
0.0638785
0.161522
0.0508447
0.147432
0.0389413
0.13223
0.028278
0.115831
0.0190013
0.0981693
0.01129
0.0791712
0.00535974
0.0587399
0.00147724
0.0367573
0.0131166
0.0731874
0.187922
-0.0866854
0.0603755
0.174334
0.0483539
0.159453
0.0372508
0.143333
0.0272043
0.125877
0.0183798
0.106994
0.0109768
0.0865743
0.00523536
0.0644813
0.00144961
0.0405431
0.0145662
0.0667769
0.200349
-0.0792043
0.0550371
0.186074
0.0440519
0.170439
0.0339232
0.153462
0.0247672
0.135033
0.0167273
0.115034
0.00998171
0.0933198
0.00475143
0.0697116
0.00130962
0.0439849
0.0158758
0.0593168
0.211655
-0.0706224
0.0487183
0.196672
0.0388692
0.180288
0.0298422
0.162489
0.0217248
0.14315
0.0146297
0.122129
0.00870233
0.0992472
0.0041264
0.0742876
0.00113094
0.0469804
0.0170067
0.0506011
0.22152
-0.0604664
0.0414131
0.205861
0.0329288
0.188772
0.0251979
0.17022
0.018284
0.150064
0.0122722
0.128141
0.00727494
0.104244
0.00343649
0.078126
0.00093726
0.0494796
0.017944
0.0404592
0.229564
-0.0485031
0.033014
0.213306
0.0261772
0.195609
0.0199777
0.176419
0.0144575
0.155585
0.00967748
0.132921
0.0057204
0.108202
0.00269372
0.0811527
0.000731819
0.0514415
0.0186758
0.0290553
0.235442
-0.0349334
0.0236519
0.218709
0.0187151
0.200546
0.0142553
0.180879
0.0102962
0.159544
0.00687749
0.136339
0.00405554
0.111023
0.00190423
0.083304
0.000515265
0.0528304
0.0191911
0.0169178
0.238927
-0.0204026
0.013742
0.221885
0.0108549
0.203433
0.00825476
0.183479
0.00595139
0.161847
0.00396639
0.138324
0.0023321
0.112658
0.00109061
0.0845455
0.000293224
0.0536278
0.0194843
0.00482761
-0.00589027
0.00388017
0.00303377
0.00228316
0.00162796
0.00107185
0.000621512
0.000285772
7.49538e-05
0.0435948
0.0413154
-0.0524786
-0.0324316
0.0352314
0.0382697
-0.0299063
0.0275757
0.0348756
-0.0272199
0.0208508
0.0312697
-0.0245448
0.0150557
0.027711
-0.0219158
0.00994976
0.024157
-0.0190511
0.00542139
0.0200225
-0.0154942
0.00196315
0.0144195
-0.0109612
0.000383436
0.00737373
-0.00579401
0.0020817
-0.00169826
0.0437644
0.0504876
-0.0529366
0.0351116
0.0469225
0.0270711
0.0429161
0.019926
0.0384148
0.0139892
0.0336478
0.00926413
0.028882
0.00550607
0.0237806
0.00256985
0.0173557
0.000618932
0.00932465
0.00270063
0.0450043
0.060054
-0.0545707
0.0360701
0.0558567
0.0278195
0.0511666
0.0203715
0.0458629
0.0140521
0.0399671
0.00912404
0.0338101
0.00553078
0.0273739
0.00289736
0.0199891
0.00080977
0.0114122
0.0035104
0.0474581
0.0702533
-0.0576573
0.0380091
0.0653057
0.0294247
0.059751
0.0217434
0.0535442
0.0150923
0.0466182
0.00973107
0.0391714
0.00578079
0.0313242
0.00296867
0.0228012
0.000877643
0.0135033
0.00438805
0.0509225
0.0811927
-0.0618619
0.0408055
0.0754227
0.0316745
0.0688821
0.0235918
0.0616269
0.0165816
0.0536284
0.0107718
0.0449812
0.00629809
0.0357978
0.0030702
0.0260291
0.000883185
0.0156903
0.00527123
0.0546048
0.092802
-0.0662142
0.0438713
0.0861561
0.034177
0.0785765
0.0255967
0.0702071
0.0181529
0.0610722
0.0119023
0.0512318
0.00694053
0.0407596
0.00328478
0.0296849
0.000910568
0.0180645
0.0061818
0.0576407
0.104895
-0.0697332
0.0464706
0.0973263
0.0363574
0.0886896
0.0273617
0.0792028
0.0195196
0.0689143
0.0128817
0.0578697
0.00752779
0.0461135
0.00352914
0.0336835
0.000960843
0.0206328
0.00714264
0.0596819
0.117231
-0.072018
0.0482959
0.108712
0.0379456
0.0990398
0.0286767
0.0884718
0.0205408
0.0770502
0.0136069
0.0648036
0.00796626
0.0517542
0.00372402
0.0379258
0.00100596
0.0233509
0.0081486
0.0614839
0.129692
-0.0739452
0.0499793
0.120217
0.0394242
0.109595
0.0298901
0.0980058
0.0214634
0.0854769
0.014241
0.072026
0.00833718
0.057658
0.00388575
0.0423772
0.00104221
0.0261944
0.00919081
0.0663315
-0.0791121
0.0540065
0.0426157
0.0323121
0.0232004
0.0153837
0.0089876
0.00416529
0.00110042
0.214419
0.0598965
-0.0763258
0.23662
0.0901627
-0.112364
0.260353
0.123735
-0.147468
0.273974
0.114339
-0.12796
0.273667
0.111422
-0.111115
0.251676
0.180186
-0.158196
0.218015
0.293904
-0.260243
0.17437
0.411884
-0.368239
0.118195
0.493652
-0.437477
0.46072
-0.395004
0.213759
0.0441272
0.234777
0.0691453
0.257624
0.100888
0.271732
0.100231
0.272904
0.110249
0.252062
0.201028
0.218377
0.327589
0.1743
0.455961
0.118003
0.549949
0.525787
0.213321
0.0287959
0.233534
0.0489325
0.255556
0.0788657
0.269918
0.0858691
0.2713
0.108867
0.251042
0.221287
0.217379
0.361253
0.173198
0.500142
0.117929
0.605218
0.589146
0.213052
0.0137341
0.232893
0.0290909
0.254176
0.0575831
0.268472
0.0715725
0.269004
0.108336
0.248688
0.241603
0.215123
0.394817
0.171408
0.543858
0.118528
0.658097
0.650016
0.212973
-0.00124949
0.232777
0.00928757
0.253335
0.0370244
0.266983
0.0579247
0.265888
0.109431
0.245024
0.262466
0.211759
0.428083
0.169317
0.5863
0.119921
0.707493
0.708075
0.213127
-0.0163864
0.233059
-0.0106451
0.252818
0.0172654
0.265124
0.0456186
0.261807
0.112749
0.240119
0.284154
0.207509
0.460693
0.167189
0.626619
0.121656
0.753027
0.763517
0.213451
-0.0318476
0.233579
-0.0307734
0.252398
-0.00155337
0.262701
0.035316
0.256699
0.11875
0.234136
0.306717
0.202632
0.492197
0.16502
0.664232
0.122858
0.795189
0.816641
0.213738
-0.0475962
0.23416
-0.0511946
0.251843
-0.019237
0.25949
0.0276698
0.250444
0.127796
0.227161
0.33
0.19718
0.522177
0.162396
0.699015
0.122517
0.835068
0.86714
0.213776
-0.0633819
0.234679
-0.0720983
0.250967
-0.035525
0.255503
0.0231339
0.243256
0.140043
0.219534
0.353723
0.191281
0.55043
0.158909
0.731388
0.120245
0.873733
0.91344
0.213744
-0.079136
0.234999
-0.0933533
0.249707
-0.0502333
0.250355
0.0224861
0.234576
0.155822
0.210618
0.37768
0.184031
0.577017
0.153695
0.761725
0.116546
0.910881
0.950874
0.332001
-0.109127
0.370875
-0.132228
0.407032
-0.0863903
0.425206
0.00431278
0.440074
0.140953
0.467713
0.350041
0.506671
0.538059
0.549595
0.7188
0.58133
0.879147
0.94574
0.586464
0.333418
-0.140534
0.373217
-0.172027
0.408749
-0.121922
0.424635
-0.0115731
0.43808
0.127509
0.476763
0.311357
0.534566
0.480256
0.604541
0.648825
0.675374
0.808314
0.888171
0.732943
0.335868
-0.174392
0.374933
-0.211092
0.409179
-0.156169
0.422138
-0.0245318
0.431226
0.118421
0.4755
0.267083
0.547173
0.408583
0.639093
0.556906
0.742367
0.70504
0.784132
0.846406
0.339801
-0.212183
0.373033
-0.244324
0.386331
-0.169466
0.385174
-0.0233746
0.401473
0.102122
0.45416
0.214395
0.534884
0.327859
0.640919
0.450871
0.767274
0.578685
0.646851
0.904555
0.34788
-0.258053
0.356146
-0.25259
0.33907
-0.15239
0.337019
-0.0213233
0.360221
0.0789191
0.414859
0.159758
0.497785
0.244933
0.60819
0.340466
0.743906
0.442969
0.495747
0.89501
0.340974
-0.297017
0.321496
-0.233111
0.288959
-0.119854
0.285771
-0.0181357
0.310078
0.0546121
0.361674
0.108162
0.440101
0.166507
0.545946
0.23462
0.678863
0.310051
0.347925
0.826686
0.314305
-0.309311
0.271724
-0.19053
0.234345
-0.0824743
0.229775
-0.0135663
0.251874
0.0325134
0.296587
0.0634481
0.364838
0.0982557
0.458434
0.141025
0.578846
0.189639
0.215078
0.711693
0.273795
-0.281096
0.212979
-0.129714
0.174786
-0.044281
0.169472
-0.00825318
0.186828
0.0151574
0.221269
0.0290076
0.274315
0.0452093
0.348739
0.0666014
0.447069
0.0913086
0.10613
0.556017
0.214644
-0.19373
0.140513
-0.0555829
0.109602
-0.0133701
0.104429
-0.00308015
0.115703
0.00388294
0.137466
0.00724461
0.171172
0.0115036
0.219993
0.0177802
0.286343
0.0249589
0.030406
0.362067
0.10828
0.0526974
0.0393273
0.0362472
0.0401301
0.0473747
0.0588783
0.0766585
0.101617
0.132023
0.608629
-0.117128
0.632301
-0.116557
0.655125
-0.109509
0.676281
-0.100361
0.695229
-0.08957
0.711369
-0.0766063
0.724264
-0.0613983
0.733592
-0.0442615
0.739078
-0.0258884
-0.00758348
0.750285
-0.134471
0.765196
-0.131468
0.779406
-0.123719
0.792636
-0.11359
0.804704
-0.101638
0.815843
-0.0877453
0.826401
-0.0719563
0.836392
-0.0542529
0.844842
-0.0343389
-0.0114678
0.851035
-0.1391
0.853485
-0.133918
0.855005
-0.125239
0.855386
-0.113971
0.854539
-0.100791
0.852638
-0.0858442
0.849909
-0.069228
0.84675
-0.0510932
0.843954
-0.0315435
-0.0105291
0.892606
-0.127151
0.878582
-0.119894
0.863893
-0.11055
0.849319
-0.0993972
0.835466
-0.0869374
0.823032
-0.0734105
0.812644
-0.0588394
0.804761
-0.0432107
0.799748
-0.0265304
-0.00887584
0.870364
-0.102505
0.845587
-0.0951165
0.821969
-0.0869325
0.800505
-0.0779327
0.781663
-0.068096
0.76572
-0.0574669
0.752893
-0.0460132
0.743405
-0.0337228
0.737525
-0.0206503
-0.00695229
0.797024
-0.0728435
0.76895
-0.0670423
0.743131
-0.0611141
0.720042
-0.0548434
0.699974
-0.048028
0.683113
-0.0406062
0.669642
-0.0325422
0.659769
-0.02385
0.653726
-0.0146071
-0.00496265
0.682992
-0.0441423
0.656503
-0.0405534
0.632402
-0.0370126
0.610878
-0.0333193
0.592144
-0.0292941
0.576394
-0.0248566
0.563827
-0.019975
0.554646
-0.0146684
0.549043
-0.00900454
-0.00309394
0.532509
-0.0206339
0.510906
-0.0189504
0.491272
-0.0173788
0.473701
-0.0157479
0.458348
-0.0139413
0.445395
-0.0119037
0.435035
-0.00961533
0.427457
-0.00709011
0.422823
-0.00437094
-0.00152244
0.346784
-0.00535142
0.332643
-0.0048087
0.319748
-0.00448443
0.308134
-0.00413314
0.297906
-0.00371323
0.289212
-0.00321049
0.282217
-0.0026197
0.277074
-0.00194714
0.273912
-0.00120926
-0.000429081
0.126672
0.121863
0.117379
0.113246
0.109533
0.106322
0.103702
0.101755
0.100546
0.00018505
0.0116086
-0.0117937
0.000623714
0.030445
-0.0308837
0.00123712
0.0462396
-0.046853
0.00197725
0.059465
-0.0602051
0.00277651
0.0700186
-0.0708179
0.00376939
0.0798859
-0.0808787
0.00396332
0.0772641
-0.0774581
0.00408469
0.0700396
-0.0701609
0.00394481
0.0610771
-0.0609372
0.0499539
0.00350706
-0.0495161
0.000533376
0.0110752
0.0018038
0.0291746
0.00358495
0.0444585
0.00574104
0.0573089
0.00807252
0.0676872
0.0110392
0.0769192
0.0116755
0.0766278
0.0120804
0.0696347
0.0117732
0.0613843
0.0510762
0.0106508
0.000835465
0.0102398
0.00283172
0.0271783
0.0056389
0.0416513
0.00904123
0.0539066
0.012739
0.0639894
0.0172468
0.0724113
0.0187895
0.0750852
0.0195711
0.0688531
0.0193849
0.0615706
0.0524327
0.0180284
0.00105593
0.00918384
0.00359686
0.0246374
0.00719335
0.0380548
0.0115554
0.0495445
0.016356
0.0591888
0.021747
0.0670204
0.0250719
0.0717603
0.0263542
0.0675708
0.0266024
0.0613223
0.0535645
0.0254706
0.0011514
0.00803244
0.00397915
0.0218096
0.00804142
0.0339925
0.0129965
0.0445895
0.0185511
0.0536343
0.0245568
0.0610146
0.0299513
0.0663658
0.0320891
0.065433
0.0330105
0.060401
0.0540893
0.0324857
0.00111144
0.00692101
0.00396583
0.0189553
0.00818529
0.0297731
0.0133898
0.039385
0.0193175
0.0477066
0.0257713
0.0545608
0.0324151
0.059722
0.0363115
0.0615365
0.0381233
0.0585892
0.0537052
0.0385073
0.000926215
0.00599479
0.00357287
0.0163086
0.00771044
0.0256355
0.0128814
0.034214
0.0187863
0.0418017
0.0253377
0.0480093
0.0323204
0.0527394
0.0382742
0.0555827
0.041586
0.0552774
0.0521812
0.04311
0.000567886
0.00542691
0.00278668
0.0140898
0.0066575
0.0217647
0.0116213
0.0292502
0.0172043
0.0362187
0.0234473
0.0417663
0.0302858
0.045901
0.0371834
0.0486851
0.0425598
0.0499009
0.0489229
0.0458181
0.000103984
0.00532293
0.00176888
0.0124249
0.00517607
0.0183575
0.00981534
0.024611
0.0149576
0.0310765
0.0206218
0.0361021
0.0269038
0.039619
0.0335869
0.042002
0.040084
0.0434038
0.0437954
0.0452115
-0.000175209
0.00549814
0.00108751
0.0111622
0.00385676
0.0155882
0.00788756
0.0205802
0.0125024
0.0264616
0.0175727
0.0310318
0.0231778
0.0340139
0.0292491
0.0359308
0.0356347
0.0370181
0.03737
0.0420602
-2.04441e-05
0.00551858
0.00114115
0.0100006
0.00327902
0.0134504
0.00641472
0.0174445
0.0102967
0.0225797
0.0148376
0.0264908
0.0199562
0.0288952
0.0254872
0.0303998
0.0312234
0.0312819
0.0316976
0.0368958
0.00037832
0.00514026
0.00153307
0.00884586
0.00318215
0.0118013
0.00549291
0.0151337
0.00871123
0.0193614
0.0128947
0.0223074
0.0177441
0.0240458
0.0230089
0.0251351
0.0284978
0.025793
0.0260637
0.0341317
0.000624724
0.00451553
0.00170784
0.00776274
0.00302827
0.0104809
0.00484657
0.0133154
0.00783353
0.0163744
0.0119188
0.0182221
0.0166666
0.0192979
0.021837
0.0199647
0.0272974
0.0203326
0.0204146
0.0329464
0.000676886
0.00383865
0.00164271
0.00679691
0.00282089
0.00930268
0.00469827
0.011438
0.00796612
0.0131065
0.0121914
0.0139968
0.0170035
0.0144858
0.0222403
0.0147279
0.0278051
0.0147678
0.0146075
0.0336121
0.000662895
0.00317575
0.00155168
0.00590811
0.00298775
0.00786662
0.00556819
0.00885758
0.0093548
0.00931991
0.0138728
0.00947881
0.0189124
0.00944622
0.024374
0.00926633
0.0301894
0.00895242
0.00851002
0.0362869
0.000592848
0.00258289
0.00170897
0.00479199
0.00404783
0.00552775
0.00750168
0.00540372
0.0117528
0.00506875
0.0165992
0.00463248
0.0219389
0.00410647
0.0277126
0.00349262
0.0338688
0.00279623
0.00203003
0.0403488
0.000521229
0.00206166
0.00247496
0.00283824
0.00573907
0.00226363
0.00973562
0.00140717
0.0143253
0.000479024
0.0194616
-0.000503781
0.0251137
-0.00154561
0.0312388
-0.00263255
0.0377767
-0.00374167
-0.00486077
0.0446675
0.000866938
0.00119471
0.00361058
9.45884e-05
0.00717291
-0.00129871
0.011359
-0.00277894
0.0161543
-0.00431627
0.0215685
-0.00591796
0.0275608
-0.00753792
0.0340418
-0.00911356
0.0409288
-0.0106287
-0.0121124
0.0481805
0.00150466
-0.000309959
0.00413752
-0.00253828
0.00756132
-0.0047225
0.011776
-0.00699363
0.0167885
-0.00932877
0.0225226
-0.0116521
0.0288137
-0.013829
0.035541
-0.0158408
0.0426773
-0.017765
-0.0196571
0.050222
0.00106617
0.00316832
0.0064926
0.0109567
0.0163333
0.0223086
0.0287209
0.0355988
0.0430077
0.050926
0.0513711
0.0838022
-0.0982775
0.0772021
-0.0072788
-0.0185522
0.0997706
-0.0509046
0.0283361
0.113384
-0.0468079
0.0331944
0.121306
-0.0266265
0.018705
0.124901
-0.00789454
0.00429873
0.126024
0.00304025
-0.00416291
0.126567
0.00578938
-0.00633263
0.127413
0.00477483
-0.00562006
0.0018975
-0.00345934
0.0585484
0.0593854
0.0915405
-0.040271
0.11866
-0.0780242
0.134607
-0.062755
0.143292
-0.0353108
0.146915
-0.0115177
0.147762
0.00219322
0.148021
0.00553042
0.148686
0.00411006
0.000577532
0.066542
0.0257899
0.104894
-0.0786234
0.135847
-0.108977
0.15542
-0.0823282
0.165375
-0.0452661
0.169058
-0.0152
0.16951
0.00174063
0.169313
0.00572769
0.169606
0.0038167
-0.00033202
0.0754068
-0.0160048
0.117711
-0.120928
0.151552
-0.142818
0.174886
-0.105662
0.186891
-0.0572706
0.190892
-0.0192008
0.190971
0.00166093
0.190249
0.00644966
0.19006
0.0040061
-0.000717286
0.084453
-0.064171
0.129526
-0.166001
0.165525
-0.178816
0.192163
-0.132301
0.207071
-0.0721782
0.211985
-0.0241145
0.211868
0.0017774
0.210641
0.00767655
0.209924
0.00472373
-0.000518273
0.0929136
-0.116736
0.14001
-0.213098
0.177679
-0.216485
0.206863
-0.161484
0.225051
-0.090367
0.231792
-0.0308548
0.231868
0.00170083
0.230271
0.00927428
0.229057
0.00593709
0.000266123
0.10013
-0.172199
0.148894
-0.261861
0.187923
-0.255515
0.21891
-0.192471
0.240129
-0.111586
0.249662
-0.0403871
0.250589
0.000773424
0.248893
0.0109708
0.247301
0.0075288
0.00157602
0.105757
-0.229775
0.156056
-0.31216
0.196208
-0.295667
0.228421
-0.224684
0.251979
-0.135145
0.264846
-0.0532539
0.267558
-0.0019379
0.266208
0.0123202
0.264457
0.00927983
0.00328248
0.109773
-0.289326
0.161531
-0.363918
0.202572
-0.336708
0.235585
-0.257697
0.26066
-0.16022
0.27669
-0.0692839
0.28218
-0.00742868
0.281857
0.0126434
0.280294
0.0108435
0.00518905
0.112486
0.16549
0.207155
0.240614
0.266513
0.284896
0.293711
0.295286
0.294444
0.0131985
0.00607889
-0.0192773
0.0109792
0.00221926
0.0114891
-0.000509897
0.0129003
-0.00141123
0.013604
-0.000703728
0.0137222
-0.000118202
0.0135152
0.000207078
0.0132295
0.000285651
0.0129882
0.00024138
0.000227698
0.0372426
0.0232196
-0.0543833
0.0314651
0.00799672
0.0339465
-0.00299126
0.0379703
-0.00543512
0.040116
-0.00284943
0.0405084
-0.000510555
0.0399186
0.000796941
0.0390934
0.0011108
0.0383553
0.00097954
0.000749297
0.0579535
0.0481077
-0.0828416
0.0508347
0.0151155
0.0557965
-0.00795304
0.0623243
-0.0119629
0.0659519
-0.00647701
0.0666947
-0.00125333
0.0657793
0.00171232
0.0644535
0.00243664
0.0632581
0.00217493
0.00149886
0.0738881
0.0754236
-0.101204
0.0680147
0.0209889
0.0763148
-0.0162531
0.0855816
-0.0212297
0.0908487
-0.0117441
0.0920795
-0.00248415
0.0909285
0.00286338
0.0891622
0.00420295
0.0875865
0.0037506
0.00242213
0.081379
-0.104233
0.0838156
0.0958984
0.107863
0.114824
0.116639
0.115339
0.11321
0.11134
0.00273354
-0.000172917
-0.00256063
0.00326439
-0.000530846
0.00417658
-0.000912188
0.00548758
-0.001311
0.00718392
-0.00169634
0.00922841
-0.00204449
0.0115849
-0.00235652
0.0141732
-0.00258824
0.0168582
-0.00268501
-0.00241918
0.00778707
-0.000645669
-0.00731432
0.0092339
-0.00197767
0.0117132
-0.00339144
0.0152694
-0.00486724
0.0198835
-0.00631043
0.0254813
-0.00764231
0.0319634
-0.00883865
0.0391546
-0.0097794
0.0467655
-0.010296
-0.010037
0.0124775
-0.00138369
-0.0117395
0.0147271
-0.00422727
0.0185598
-0.00722416
0.0240236
-0.010331
0.0310779
-0.0133648
0.0395845
-0.0161489
0.0493262
-0.0185803
0.060049
-0.0205023
0.0714124
-0.0216593
-0.0214663
0.0168067
-0.0023476
-0.0158428
0.0197308
-0.00715139
0.0246739
-0.0121672
0.0316501
-0.0173072
0.0405484
-0.0222631
0.0511042
-0.0267047
0.062935
-0.030411
0.075691
-0.0332583
0.0888563
-0.0348246
-0.0338141
0.0207921
-0.0196326
0.0242915
0.0301528
0.0383162
0.0485387
0.0603413
0.0730404
0.0856002
0.095987
0.031465
-0.0312955
0.037104
-0.0372735
0.0256017
-0.0308925
0.0367558
0.0199404
-0.0300598
0.0357211
0.014691
-0.0286641
0.0339135
0.0100677
-0.0264564
0.0310797
0.00620922
-0.0227718
0.0266303
0.00311717
-0.0176456
0.0207376
0.00101999
-0.0136205
0.0157176
-8.51023e-05
-0.0101589
0.011264
-0.00563822
0.00555312
0.0294923
-0.0254286
-0.0353592
0.0237731
-0.0251733
0.0182799
-0.0245666
0.0131902
-0.0235743
0.00875627
-0.0220225
0.00536026
-0.0193758
0.00302638
-0.0153117
0.00140119
-0.0119953
0.000300851
-0.00905855
-0.00533736
0.0294692
-0.0194373
-0.0354605
0.0236622
-0.0193662
0.0181419
-0.0190463
0.013025
-0.0184575
0.00851423
-0.0175117
0.00505991
-0.0159215
0.00301545
-0.0132672
0.00165215
-0.010632
0.000586491
-0.00799288
-0.00475087
0.0313788
-0.0131731
-0.037643
0.0253493
-0.0133367
0.0196377
-0.0133347
0.0143307
-0.0131504
0.00956699
-0.012748
0.00567078
-0.0120252
0.00321137
-0.0108078
0.00177017
-0.00919075
0.000731593
-0.0069543
-0.00401927
0.0349483
-0.00652111
-0.0416003
0.0285783
-0.00696668
0.0225621
-0.00731852
0.0169662
-0.00755451
0.0118816
-0.00766334
0.0074921
-0.00763577
0.0041461
-0.00746179
0.00199949
-0.00704414
0.000800602
-0.0057554
-0.00321866
0.0392199
0.000576895
-0.0463179
0.0324471
-0.000193907
0.0260717
-0.000943122
0.0201677
-0.00165044
0.0147954
-0.0022911
0.0100182
-0.00285854
0.00591969
-0.00336326
0.00267283
-0.00379726
0.000720162
-0.00380272
-0.00249849
0.0430037
0.00807802
-0.0505048
0.0358428
0.00696699
0.029076
0.00582372
0.0228022
0.00462328
0.017122
0.00338914
0.0120742
0.00218931
0.00764175
0.00106915
0.00383356
1.09456e-05
0.00097441
-0.000943564
-0.00152408
0.045241
0.0158619
-0.0530249
0.0378323
0.0143757
0.0307971
0.012859
0.024173
0.0112473
0.0181028
0.00945937
0.0127691
0.00752302
0.00824807
0.00559019
0.0045176
0.00374143
0.00161979
0.00195425
9.57191e-05
0.0453862
0.0239407
-0.053465
0.0377897
0.0219722
0.0306785
0.0199702
0.0239674
0.0179584
0.0176283
0.0157984
0.0118567
0.0132946
0.00702402
0.0104229
0.00340841
0.00735705
0.00114385
0.00421882
0.00123957
0.0443534
-0.0528443
0.0364192
0.0291696
0.0225832
0.0164658