# Selection   : all
# Cells       : 440
# Volume      : 7.374263e+01
# Time        	minMag(U)
6.915         	9.508529e-03
6.96          	7.760463e-03
7.01          	5.811931e-03
