/*--------------------------------*- C++ -*----------------------------------*\
  =========                 |
  \\      /  F ield         | OpenFOAM: The Open Source CFD Toolbox
   \\    /   O peration     | Website:  https://openfoam.org
    \\  /    A nd           | Version:  13
     \\/     M anipulation  |
\*---------------------------------------------------------------------------*/
FoamFile
{
    format      ascii;
    class       volVectorField;
    location    "3.885";
    object      U;
}
// * * * * * * * * * * * * * * * * * * * * * * * * * * * * * * * * * * * * * //

dimensions      [0 1 -1 0 0 0 0];

internalField   nonuniform List<vector> 
440
(
(-0.0612874 0.0343382 -7.90036e-20)
(-0.100501 0.0839204 6.31396e-20)
(-0.0225947 0.108354 1.23713e-19)
(0.429331 0.130479 3.02843e-19)
(0.201136 0.412631 2.18527e-21)
(-0.0885102 0.0422859 3.00752e-20)
(0.0223234 0.00786454 -1.42126e-19)
(0.461621 -0.0272139 -1.25637e-19)
(1.03511 -0.0510467 6.82679e-20)
(1.3793 -0.00795994 2.19439e-20)
(-0.039984 0.014245 5.16141e-20)
(0.439142 -0.0243238 7.02366e-19)
(1.21795 -0.00174159 -3.77568e-19)
(1.79099 0.0442688 -1.14493e-18)
(2.3944 0.0671882 3.3874e-19)
(0.17345 -0.0413331 -1.73262e-19)
(1.16728 0.0162231 -5.10535e-19)
(1.96033 0.0969944 1.57475e-18)
(2.44837 0.138518 1.65979e-18)
(2.52484 0.165505 -4.59132e-19)
(0.546839 -0.00427428 -2.80487e-19)
(1.74659 0.197246 -5.88156e-19)
(2.31205 0.278477 1.76152e-18)
(2.42674 0.295961 1.8449e-18)
(2.51139 0.262394 6.11248e-19)
(-0.0403423 0.23546 5.69788e-20)
(-0.172759 0.38885 1.36883e-19)
(-0.294728 0.415276 -3.43526e-19)
(-0.394055 0.418042 6.49211e-20)
(-0.466029 0.418064 5.34536e-19)
(-0.0770769 0.348939 -1.58781e-20)
(-0.17967 0.599456 -1.66336e-19)
(-0.261765 0.625792 1.88374e-20)
(-0.328464 0.595738 2.21859e-20)
(-0.370194 0.561634 -4.93751e-20)
(-0.0992051 0.300488 -7.25325e-20)
(-0.175412 0.657415 4.55805e-20)
(-0.20799 0.783905 -1.28631e-20)
(-0.217089 0.786803 -4.11279e-19)
(-0.200354 0.734161 6.97275e-21)
(-0.0659782 0.138947 -2.00286e-20)
(-0.131776 0.445827 3.25721e-20)
(-0.143108 0.647089 5.50266e-20)
(-0.119562 0.74378 1.51778e-19)
(-0.0815632 0.782371 -4.22856e-20)
(-0.0367642 0.0393259 -6.51426e-20)
(-0.112893 0.196303 -8.40329e-20)
(-0.149664 0.368565 -1.39992e-19)
(-0.0686814 0.465942 -3.94322e-20)
(-0.0621434 0.679294 -5.15918e-19)
(-0.718755 0.397669 -7.29579e-19)
(-0.000884151 -0.0906463 1.22142e-18)
(0.457163 -0.445954 1.26225e-19)
(0.688024 -0.444825 -1.08441e-19)
(0.943241 -0.248614 1.66043e-21)
(-0.490479 0.344428 3.22137e-19)
(0.518255 -0.267648 -2.15372e-19)
(0.841831 -0.524605 1.2221e-19)
(0.990648 -0.495423 2.01164e-19)
(1.06058 -0.272954 3.37102e-20)
(-0.0353678 0.236473 -6.0069e-20)
(1.00441 -0.418741 1.10741e-18)
(1.19424 -0.587043 -9.92043e-20)
(1.28409 -0.511598 1.77562e-19)
(1.20011 -0.273215 -1.19852e-21)
(0.406554 0.173704 2.42543e-19)
(1.43805 -0.5283 -1.76944e-19)
(1.47065 -0.632519 -6.08184e-21)
(1.47595 -0.510293 -1.45941e-19)
(1.30767 -0.258262 8.91338e-20)
(0.826263 -0.00899715 -1.46914e-19)
(1.82027 -0.606091 -1.14181e-19)
(1.73927 -0.637149 0)
(1.60449 -0.486913 7.62096e-20)
(1.36491 -0.234145 3.02482e-20)
(1.82615 -0.0892469 -3.65949e-19)
(2.30489 -0.565724 2.2367e-20)
(2.04854 -0.574966 -2.28958e-20)
(1.7211 -0.419906 9.22444e-20)
(1.3853 -0.197528 -7.48219e-20)
(2.42683 -0.187938 6.55956e-21)
(2.46308 -0.599183 6.95661e-19)
(2.01604 -0.483576 -1.66604e-20)
(1.55992 -0.250113 -1.40423e-19)
(1.22906 -0.105568 0)
(2.41707 -0.171412 -3.19471e-19)
(2.23288 -0.410548 4.33519e-21)
(1.86207 -0.298353 -3.21777e-20)
(1.59117 -0.136609 7.23975e-20)
(1.25941 -0.0608158 -4.06411e-20)
(2.30553 -0.151452 9.44738e-20)
(1.95377 -0.356244 1.95507e-19)
(1.4231 -0.237625 -2.34412e-20)
(1.1492 -0.0288399 -5.42583e-34)
(0.971677 0.0178012 3.78767e-20)
(1.52724 -0.0832169 1.36375e-19)
(0.880186 -0.0509288 5.32237e-20)
(0.399966 0.0105922 -1.45799e-20)
(0.323141 0.0233932 -1.46434e-20)
(0.378976 0.00789225 5.77045e-21)
(2.40715 0.282295 -7.15788e-19)
(2.65515 0.0585246 -9.27843e-19)
(2.47233 0.164708 4.89951e-19)
(2.77533 -0.0455471 1.23254e-19)
(1.98094 0.218467 3.94751e-21)
(2.12384 0.206511 7.84789e-20)
(2.50559 0.0110881 -3.49225e-20)
(2.2677 0.0744835 -1.27101e-19)
(2.58504 -0.0922779 -1.99514e-19)
(2.38001 -0.102621 -5.93213e-21)
(2.124 0.10281 7.80403e-20)
(2.28494 0.0146951 7.71364e-20)
(2.23581 -0.00050078 -9.3365e-20)
(2.33041 -0.0558724 3.56335e-20)
(2.33894 -0.109274 -1.10898e-20)
(2.07119 0.0366349 1.11152e-19)
(2.11599 -0.00392346 1.56363e-19)
(2.16169 -0.0161045 -1.81207e-20)
(2.19194 -0.0434307 -7.01688e-20)
(2.23524 -0.071773 3.20404e-20)
(1.53836 -0.00680781 1.79256e-19)
(1.51275 -0.0140139 -1.07708e-20)
(1.5623 -0.0152804 1.73465e-20)
(1.53369 -0.0226961 -3.12838e-20)
(1.57167 -0.025591 -8.871e-21)
(1.55305 0.811038 1.11511e-18)
(1.50385 0.907201 -3.69144e-19)
(1.49862 1.03657 -1.32632e-18)
(1.42404 1.08165 7.02622e-19)
(0.863663 0.7657 -1.58845e-19)
(1.83242 0.791189 -5.65383e-19)
(1.79792 0.863637 -2.92765e-18)
(1.80085 0.963243 -1.11312e-18)
(1.70333 0.971449 -3.888e-19)
(1.0325 0.673979 -6.27483e-19)
(2.15554 0.64825 7.20643e-19)
(2.12474 0.718518 1.91368e-19)
(2.08476 0.809341 -2.16455e-18)
(1.94716 0.800259 -6.08497e-19)
(1.14539 0.529226 4.54404e-19)
(2.31138 0.553622 2.11815e-18)
(2.29649 0.605956 1.56657e-18)
(2.29063 0.654032 -1.83226e-18)
(2.06474 0.612339 -1.37631e-18)
(1.12628 0.353649 -2.55882e-19)
(2.48349 0.40298 1.02284e-18)
(2.47936 0.423865 -7.56055e-19)
(2.35912 0.453323 5.35937e-19)
(2.02625 0.400651 4.26681e-19)
(0.938233 0.157056 -3.55752e-19)
(0.572129 0.48943 -6.00694e-19)
(0.482318 0.521053 -4.58016e-19)
(0.365455 0.550352 5.10465e-20)
(0.227901 0.548434 -4.69958e-21)
(0.0571117 0.389111 8.07486e-20)
(0.662125 0.650267 1.06059e-19)
(0.597641 0.705359 -2.69223e-19)
(0.511287 0.77031 1.75705e-19)
(0.390245 0.821821 -8.22625e-20)
(0.171116 0.617626 1.16479e-19)
(0.767942 0.852483 1.21573e-19)
(0.693273 0.928885 4.48447e-19)
(0.636151 1.01788 1.14191e-19)
(0.551062 1.04441 -2.97659e-19)
(0.300803 0.756375 2.49893e-19)
(1.03081 0.908874 2.15749e-19)
(0.984514 0.983214 -6.88578e-19)
(0.936516 1.07595 -1.85421e-18)
(0.855956 1.13653 7.34372e-19)
(0.502137 0.832084 -1.55461e-19)
(1.08623 0.964767 -8.49579e-20)
(1.12455 1.07906 -1.58346e-19)
(1.15108 1.18287 -3.68318e-19)
(1.0953 1.18917 -4.0432e-19)
(0.668004 0.83183 -6.29079e-21)
(0.970323 0.0326501 -9.14254e-20)
(1.03072 0.0341034 -2.69338e-20)
(1.03751 0.126707 -2.05075e-21)
(0.96237 0.151525 -2.0122e-19)
(0.892719 0.320667 2.95705e-19)
(0.965914 0.0272653 5.9353e-20)
(1.04338 0.0342937 1.0424e-19)
(1.02 0.130754 1.24415e-19)
(1.00702 0.185863 3.03318e-20)
(0.928797 0.397436 -2.12402e-20)
(0.973728 0.0241939 7.87869e-20)
(1.02539 0.027682 -4.172e-21)
(1.06931 0.152049 -2.17541e-21)
(0.950926 0.175983 1.22674e-19)
(1.1521 0.553391 -5.05313e-19)
(0.972887 0.0211958 -8.25709e-22)
(1.03604 0.0222086 -1.4598e-19)
(1.05921 0.165237 -6.06326e-20)
(1.05222 0.183136 -3.14431e-19)
(1.13177 0.611468 8.36714e-20)
(0.975721 0.0159307 -1.47559e-20)
(1.02743 0.0228427 3.89206e-20)
(1.10571 0.169241 2.7016e-20)
(1.00996 0.21405 4.15686e-19)
(1.38671 0.736076 -4.903e-19)
(0.960404 0.0159263 -1.06441e-20)
(1.05798 0.00375592 9.01113e-20)
(1.09585 0.196008 -6.2356e-20)
(1.22931 0.121099 8.9175e-19)
(1.26851 0.8113 -3.18672e-19)
(0.952601 -0.00345593 -1.66203e-21)
(1.09273 -0.00376423 -8.17192e-20)
(1.06882 0.123661 3.89959e-21)
(1.30627 0.144403 -2.52635e-19)
(1.18832 0.573018 -9.049e-20)
(0.969553 -0.0116616 1.47412e-21)
(1.08232 -0.0115064 1.20024e-35)
(1.09704 0.0926282 -1.72359e-20)
(1.25739 0.117454 9.17603e-20)
(1.36674 0.394551 1.76496e-19)
(1.00304 -0.0439476 4.27326e-21)
(1.01207 -0.0262264 -2.34128e-20)
(1.14219 0.0319967 1.61943e-20)
(1.14952 0.0706182 2.16688e-20)
(1.58268 0.236667 -2.78587e-19)
(0.927537 -0.0223348 -3.83899e-20)
(0.832162 -0.0243655 -1.98542e-21)
(0.877715 0.00176893 2.25253e-20)
(0.831624 0.00765684 -1.99287e-20)
(1.22728 0.060568 -6.44008e-20)
(1.80653 0.592712 2.60898e-19)
(1.88213 0.646572 7.24022e-19)
(2.1754 0.474965 -1.02356e-18)
(2.21644 0.485347 -4.31358e-20)
(2.46549 0.270894 4.55665e-19)
(1.77041 0.342497 1.042e-19)
(1.75191 0.416279 9.53489e-19)
(2.05669 0.273475 1.39274e-19)
(1.96435 0.328844 -9.14857e-19)
(2.32308 0.135187 -2.5838e-19)
(1.76606 0.243007 -2.35173e-19)
(1.83373 0.257785 -1.50384e-19)
(1.99406 0.177144 1.19402e-19)
(1.99435 0.193457 -2.86268e-19)
(2.17574 0.0913728 2.5981e-19)
(1.76413 0.133912 3.92469e-19)
(1.85869 0.129856 -5.70052e-21)
(1.90276 0.0841151 2.19348e-19)
(1.96992 0.0875731 1.96261e-19)
(2.01732 0.0378304 -1.89254e-19)
(1.37372 0.0337065 -4.85928e-20)
(1.44938 0.0251621 2.48571e-19)
(1.44886 0.0123479 1.11313e-19)
(1.50307 0.00725532 -2.22131e-19)
(1.48441 -0.00403859 -1.69404e-23)
(1.15427 -0.0196206 6.7417e-20)
(2.15383 -0.0377419 -4.34736e-19)
(2.38262 -0.0300188 1.17049e-18)
(2.35923 0.00997299 5.15566e-19)
(2.20319 0.0336827 -3.67293e-19)
(0.740376 0.0985262 1.26899e-19)
(1.93579 0.0969079 -4.41743e-19)
(2.38127 0.100536 -6.02633e-19)
(2.43541 0.105063 7.46423e-19)
(2.17827 0.0954033 -4.96521e-19)
(0.254942 0.087917 -1.68674e-20)
(1.32608 0.163537 4.73858e-19)
(2.05164 0.184104 6.40119e-20)
(2.41156 0.178135 4.57008e-19)
(2.56611 0.161721 1.72215e-19)
(-0.0100639 -0.00613885 1.88682e-19)
(0.524679 0.101486 1.9002e-19)
(1.29793 0.176068 -4.1826e-19)
(1.78549 0.202421 2.41197e-20)
(2.31859 0.230784 7.52281e-20)
(-0.0839312 -0.0687872 1.32136e-19)
(0.0417368 -0.0307746 -1.46215e-19)
(0.481974 0.0541481 -2.92565e-20)
(0.952147 0.0982842 5.39499e-20)
(1.3645 0.163611 -5.6005e-21)
(-0.0735106 -0.0809197 1.25595e-20)
(-0.0909715 -0.111548 6.76521e-20)
(0.0385359 -0.0869294 5.18487e-20)
(0.25853 -0.026738 -9.73008e-20)
(0.622545 0.0514966 4.41908e-21)
(-0.0559964 -0.0971979 -2.33308e-20)
(-0.0851759 -0.174531 -1.55731e-20)
(-0.0582699 -0.18374 1.15509e-20)
(0.0131562 -0.142486 3.92419e-21)
(0.166692 -0.0585424 1.27079e-20)
(-0.0537286 -0.146675 -3.61631e-20)
(-0.0861143 -0.235895 -2.52376e-19)
(-0.0868977 -0.2345 1.87714e-19)
(-0.0708789 -0.19326 6.07088e-19)
(-0.029892 -0.134459 -9.13303e-20)
(-0.0411942 -0.108738 2.61541e-20)
(-0.125007 -0.131046 2.18043e-19)
(-0.200399 -0.0984694 -6.59373e-19)
(-0.261868 -0.0487973 -4.49854e-19)
(-0.288447 0.00755239 8.28415e-20)
(-0.0225193 0.0472637 -1.11403e-20)
(-0.139812 0.113481 4.5498e-20)
(-0.255617 0.147023 -1.78388e-20)
(-0.35732 0.176752 -1.18739e-20)
(-0.427922 0.210835 1.12348e-19)
(1.35588 0.467094 -2.56222e-20)
(1.01104 0.178911 7.72393e-19)
(0.943005 -0.0393824 -9.41137e-20)
(0.878294 -0.0494563 -1.27267e-19)
(0.979909 -0.005981 1.75555e-21)
(1.07522 0.356245 9.29189e-20)
(0.514974 0.189907 -1.07634e-19)
(0.455316 0.008327 -2.06313e-19)
(0.527993 -0.0649994 -1.53099e-20)
(0.856056 -0.0374753 -2.42601e-20)
(0.413841 0.306364 1.13419e-19)
(-0.204412 0.243714 1.12067e-19)
(0.184669 -0.0635921 4.83794e-20)
(0.39831 -0.160187 9.41831e-20)
(0.823032 -0.0902521 -5.28944e-22)
(-0.252644 0.367737 9.2266e-20)
(-0.523021 0.207907 -1.35259e-18)
(0.159092 -0.187598 -1.00871e-19)
(0.40825 -0.25345 5.81568e-21)
(0.837192 -0.147825 2.13311e-20)
(-0.643537 0.399174 6.62786e-20)
(-0.410534 0.0887407 -1.54244e-19)
(0.22612 -0.333868 1.10946e-19)
(0.492646 -0.356958 -2.88794e-20)
(0.873464 -0.202932 3.36051e-20)
(0.623173 0.126822 -7.68019e-20)
(0.0127737 -0.0437327 0)
(0.149394 -0.0724913 -3.83788e-20)
(0.288346 -0.0474322 1.83723e-20)
(0.438842 -0.0231289 4.54182e-21)
(1.89476 0.383364 0)
(1.21434 0.210923 0)
(1.13847 -0.00403025 3.44218e-19)
(1.16471 -0.0481202 5.38365e-20)
(1.101 -0.0197199 -4.31535e-21)
(0.707534 0.000685434 -1.28217e-19)
(0.773189 -0.00173518 3.14745e-19)
(0.891144 -0.00918763 -1.22378e-20)
(1.04683 0.0120804 2.51224e-19)
(1.28683 0.0633817 1.58679e-19)
(1.60362 0.022327 1.22975e-19)
(1.72962 0.0757839 3.50024e-19)
(1.89305 0.0517025 -1.5348e-19)
(2.44773 0.167891 1.0315e-20)
(2.1115 0.144676 1.14827e-19)
(0.872684 -0.451217 -2.09334e-20)
(0.858378 -0.538478 -1.60922e-19)
(0.848313 -0.634028 -1.06865e-19)
(0.779844 -0.70093 6.48484e-20)
(0.475442 -0.551205 1.25874e-19)
(0.774199 -0.35214 1.15091e-19)
(0.720774 -0.414889 2.26434e-19)
(0.65079 -0.485031 -4.46105e-20)
(0.542538 -0.546586 1.36557e-19)
(0.29579 -0.438838 5.36833e-20)
(0.629655 -0.213461 -1.30395e-19)
(0.5474 -0.251393 -5.12276e-20)
(0.448446 -0.298166 1.05831e-19)
(0.328907 -0.338865 -1.47941e-20)
(0.143558 -0.274717 -1.16297e-19)
(0.538666 0.0128496 -4.0354e-19)
(0.454134 -0.00131956 -3.34673e-19)
(0.344053 -0.0222337 2.70026e-19)
(0.215973 -0.050144 1.65016e-19)
(0.0564546 -0.06164 1.30336e-20)
(0.50198 0.220182 -1.50184e-19)
(0.414441 0.223953 -1.52322e-19)
(0.299478 0.229582 -6.28038e-20)
(0.168914 0.234475 1.74087e-20)
(0.0225167 0.166418 9.74278e-21)
(1.96469 -0.0362536 7.70748e-19)
(2.22378 -0.0994615 2.50647e-19)
(2.29455 -0.179934 -6.7912e-19)
(2.15204 -0.207465 -1.43276e-18)
(1.30087 -0.182622 1.24752e-19)
(1.9462 -0.116453 1.29057e-18)
(2.03073 -0.223583 1.7191e-18)
(2.04984 -0.341394 1.46497e-19)
(1.97041 -0.399631 2.60674e-19)
(1.26564 -0.351068 -1.72292e-19)
(1.66519 -0.271397 -3.3123e-18)
(1.72843 -0.384494 3.42569e-19)
(1.76943 -0.504414 1.04439e-18)
(1.70784 -0.577983 -3.83799e-19)
(1.1105 -0.490093 6.18213e-19)
(1.46007 -0.387563 7.7956e-19)
(1.47196 -0.481626 -2.09619e-18)
(1.45527 -0.595151 -2.37136e-18)
(1.38646 -0.679823 7.20922e-19)
(0.895596 -0.560472 5.06991e-19)
(1.17554 -0.439429 1.60664e-19)
(1.12855 -0.529398 2.44801e-19)
(1.11691 -0.647159 -3.64812e-19)
(1.06279 -0.731729 -4.3862e-19)
(0.674214 -0.582417 -4.04614e-21)
(0.994047 0.0396328 6.38289e-21)
(1.0079 0.0706565 -1.29686e-21)
(1.09482 0.0804612 -1.64212e-21)
(0.811796 -0.00391858 -2.19663e-19)
(1.0567 -0.181494 -1.58095e-20)
(1.0014 0.0417122 -2.48344e-21)
(0.986137 0.063272 3.75027e-20)
(1.11767 0.104704 -2.46421e-20)
(0.887367 0.0414363 1.73206e-19)
(0.954897 -0.0684373 -3.72638e-21)
(1.00449 0.0385686 -5.5475e-20)
(0.973327 0.0542966 -9.48378e-23)
(1.112 0.107298 -1.24179e-20)
(0.90145 0.0736027 8.03676e-20)
(0.915593 -0.0104076 -2.00306e-19)
(0.99468 0.0385185 7.08336e-20)
(0.989681 0.0440959 3.53681e-21)
(1.07866 0.11297 2.72815e-20)
(0.93751 0.105459 -2.60704e-20)
(0.845055 0.100073 8.313e-20)
(0.979453 0.0354966 1.73139e-20)
(1.01725 0.0405123 -2.57321e-20)
(1.04207 0.114076 3.8892e-20)
(0.969284 0.139568 4.9759e-20)
(0.828008 0.202773 -1.04081e-19)
(0.880027 0.0332975 0)
(0.754147 0.0304411 1.09407e-20)
(0.550177 0.0192549 3.9505e-21)
(0.421655 -0.00975447 4.53261e-20)
(0.672249 -0.0424353 -1.48384e-19)
(0.978269 0.0623899 -6.07389e-20)
(1.02583 0.0871936 -9.69718e-21)
(0.956725 0.0714572 -4.67359e-20)
(0.839704 -0.013683 -1.26383e-19)
(0.998025 -0.168703 -1.57378e-19)
(0.914083 -0.0610439 -3.27892e-20)
(0.99546 -0.0297752 5.07705e-19)
(1.07732 0.0365385 3.02044e-19)
(0.952202 0.0511444 3.26943e-20)
(0.737587 0.0269869 0)
(1.25996 -0.29384 3.1797e-19)
(1.37123 -0.262024 1.42463e-18)
(1.53752 -0.14733 -1.54975e-18)
(1.63195 -0.0195275 -4.76915e-19)
(1.52954 0.0277866 3.65734e-19)
)
;

boundaryField
{
    left
    {
        type            fixedValue;
        value           uniform (1 0 0);
    }
    right
    {
        type            zeroGradient;
    }
    down
    {
        type            noSlip;
    }
    up
    {
        type            noSlip;
    }
    cylinder
    {
        type            noSlip;
    }
    defaultFaces
    {
        type            empty;
    }
}


// ************************************************************************* //
