/*--------------------------------*- C++ -*----------------------------------*\
  =========                 |
  \\      /  F ield         | OpenFOAM: The Open Source CFD Toolbox
   \\    /   O peration     | Website:  https://openfoam.org
    \\  /    A nd           | Version:  13
     \\/     M anipulation  |
\*---------------------------------------------------------------------------*/
FoamFile
{
    format      ascii;
    class       volScalarField;
    location    "6.04";
    object      p;
}
// * * * * * * * * * * * * * * * * * * * * * * * * * * * * * * * * * * * * * //

dimensions      [0 2 -2 0 0 0 0];

internalField   nonuniform List<scalar> 
440
(
-0.582607
-0.564762
-0.593207
-0.559817
-0.69381
-0.600102
-0.583511
-0.569442
-0.55356
-0.56138
-0.690151
-0.662366
-0.632815
-0.601195
-0.566819
-0.80649
-0.760137
-0.690294
-0.607058
-0.521977
-0.901562
-0.841181
-0.710769
-0.574019
-0.448175
-0.867739
-0.870985
-0.887956
-0.917825
-0.9488
-0.694026
-0.699878
-0.715234
-0.736399
-0.752333
-0.57276
-0.576239
-0.58448
-0.593715
-0.595919
-0.545171
-0.546053
-0.548487
-0.548799
-0.543523
-0.514048
-0.515254
-0.516833
-0.501098
-0.515302
-1.03319
-0.930172
-0.739686
-0.606489
-0.0393996
-0.816715
-0.848009
-0.776095
-0.680188
-0.0410821
-0.598834
-0.732222
-0.802752
-0.694258
-0.0530388
-0.432815
-0.607655
-0.82341
-0.682101
-0.0720456
-0.416851
-0.488628
-0.831261
-0.655832
-0.0911668
-0.232448
-0.367308
-0.785611
-0.578029
-0.10933
-0.124338
-0.301061
-0.535303
-0.417691
-0.127749
-0.144095
-0.136931
-0.300938
-0.290169
-0.136652
-0.0683447
-0.00923356
-0.184163
-0.247264
-0.132627
-0.00346922
0.0856923
-0.0143651
-0.207301
-0.144022
-0.231218
-0.359969
-0.543987
-0.72874
-0.838346
0.000374745
-0.127534
-0.209493
-0.25067
-0.253796
0.158593
0.0448762
-0.0297403
-0.0864616
-0.12555
0.25267
0.143058
0.0571196
-0.00501102
-0.046489
0.294878
0.185331
0.0993868
0.0411705
0.010413
1.06922
0.928688
0.749651
0.54685
0.318208
0.666905
0.514315
0.325209
0.109619
-0.13466
0.269504
0.114481
-0.0820019
-0.308396
-0.521348
-0.0717729
-0.229573
-0.42217
-0.631655
-0.789899
-0.298351
-0.450923
-0.626481
-0.809335
-0.907475
2.22107
2.25381
2.28404
2.30039
2.29914
2.0358
2.05932
2.07931
2.08283
2.06502
1.8139
1.80616
1.77721
1.72624
1.64896
1.56889
1.53626
1.46941
1.3717
1.24432
1.32478
1.23044
1.10429
0.953835
0.769546
1.95459
1.94543
1.93578
1.9964
2.094
1.94483
1.93346
1.918
1.97407
2.0075
1.93608
1.91841
1.89721
1.94006
1.90125
1.92867
1.90067
1.87407
1.89397
1.74463
1.92259
1.88206
1.84959
1.83993
1.57455
1.91824
1.85336
1.8175
1.73862
1.37434
1.91766
1.82186
1.80658
1.61669
1.42931
1.92381
1.80543
1.8018
1.53397
1.39761
1.92006
1.78045
1.79673
1.47985
1.36231
1.95676
1.77406
1.79402
1.45685
1.36763
1.03673
0.744613
0.408748
0.126105
-0.0680296
0.946573
0.734774
0.505352
0.310016
0.140519
0.927506
0.760642
0.592586
0.439722
0.287388
0.970474
0.821789
0.67122
0.523322
0.380721
1.01596
0.867733
0.718381
0.567037
0.425536
-1.48097
-1.32555
-1.15035
-1.00679
-0.922446
-1.53897
-1.47113
-1.33865
-1.22944
-1.16366
-1.44739
-1.39758
-1.31889
-1.25298
-1.21065
-1.27921
-1.23556
-1.18932
-1.15276
-1.12909
-1.13519
-1.11076
-1.08098
-1.06211
-1.07992
-1.05778
-1.04362
-1.01293
-1.0114
-0.995929
-1.05227
-1.03562
-1.01411
-1.00563
-1.00992
-1.07488
-1.06068
-1.04599
-1.04045
-1.05176
-1.08252
-1.07536
-1.07544
-1.0884
-1.11118
-1.01672
-1.01634
-1.02814
-1.05434
-1.0901
-1.08992
-0.797911
-0.369884
-0.257453
0.00213604
-1.10099
-0.756892
-0.375757
-0.265125
-0.00834363
-1.06165
-0.774088
-0.435227
-0.301792
-0.0319076
-1.09379
-0.853753
-0.551854
-0.368465
-0.0464095
-1.11223
-0.927887
-0.665568
-0.486625
-0.0451479
-0.592638
-0.920467
-0.489262
-0.284704
-0.000648765
-0.965196
-0.881492
-0.403225
-0.241617
0.00513883
-0.873823
-1.13461
-1.17516
-1.1388
-0.90874
-0.894565
-1.1364
-1.18816
-1.12564
-1.11465
1.83589
1.80729
1.75959
1.69378
1.60703
2.03047
2.04825
2.04916
2.03148
1.99589
2.19721
2.22912
2.25229
2.26224
2.25733
2.29474
2.3347
2.37676
2.41072
2.42578
2.29998
2.33891
2.38234
2.41909
2.43643
-0.434143
-0.545477
-0.721346
-0.933084
-1.18783
0.209271
0.063566
-0.130901
-0.365119
-0.668855
0.787376
0.634598
0.452365
0.23737
-0.0376668
1.25042
1.13264
0.988566
0.812621
0.596268
1.61917
1.53511
1.42604
1.29537
1.14032
2.01833
1.97555
1.96645
1.97162
1.98725
2.00287
1.97207
1.96618
1.99067
2.05378
1.98943
1.96756
1.96584
2.0101
2.13055
1.97686
1.96209
1.95999
2.01581
2.14203
1.9652
1.95524
1.94972
2.01156
2.13498
2.0728
1.98238
1.9533
1.89505
1.85965
2.02884
1.97266
1.94927
1.91659
1.86915
1.49632
1.26285
0.854999
0.25873
-0.40147
1.58463
1.29773
0.872352
0.280178
-0.392368
)
;

boundaryField
{
    left
    {
        type            zeroGradient;
    }
    right
    {
        type            fixedValue;
        value           uniform 0;
    }
    down
    {
        type            zeroGradient;
    }
    up
    {
        type            zeroGradient;
    }
    cylinder
    {
        type            zeroGradient;
    }
    defaultFaces
    {
        type            empty;
    }
}


// ************************************************************************* //
