# Selection   : all
# Cells       : 1800
# Volume      : 7.372328e+01
# Time        	minMag(U)
0.45          	6.429390e-03
0.475         	4.093976e-03
0.5           	3.230044e-03
