# Selection   : all
# Cells       : 440
# Volume      : 7.374263e+01
# Time        	minMag(U)
1.6           	3.477092e-02
1.65          	3.214250e-02
1.7           	3.297722e-02
