/*--------------------------------*- C++ -*----------------------------------*\
  =========                 |
  \\      /  F ield         | OpenFOAM: The Open Source CFD Toolbox
   \\    /   O peration     | Website:  https://openfoam.org
    \\  /    A nd           | Version:  13
     \\/     M anipulation  |
\*---------------------------------------------------------------------------*/
FoamFile
{
    format      ascii;
    class       surfaceScalarField;
    location    "73.8";
    object      phi;
}
// * * * * * * * * * * * * * * * * * * * * * * * * * * * * * * * * * * * * * //

dimensions      [0 3 -1 0 0 0 0];

internalField   nonuniform List<scalar> 
823
(
0.00100399
0.0157586
-0.0167626
0.0290193
0.00030319
-0.0283185
0.10371
-0.05794
-0.0167506
0.214496
-0.130199
0.0194121
-0.189722
0.0381902
0.366029
0.00901541
0.00674324
0.0710015
-0.0616829
0.180839
-0.167777
0.306632
-0.255992
-0.330184
0.447093
0.0292396
-0.0224964
0.128563
-0.161007
0.245061
-0.284275
0.34734
-0.358271
-0.3947
0.411856
0.0529346
-0.075431
0.152943
-0.261015
0.229623
-0.360955
0.26965
-0.398297
-0.407847
0.282796
0.0628261
-0.138257
0.129021
-0.32721
0.161968
-0.393902
0.173734
-0.410063
0.181789
-0.415901
-0.000503582
0.0988163
-0.0983127
-0.0190853
0.15616
-0.137579
-0.0333673
0.162181
-0.147899
-0.0368828
0.146217
-0.142701
0.120101
-0.0313605
-0.125623
0.0401574
0.0586588
0.0816508
0.114667
0.11557
0.128262
0.145355
0.116432
0.0986088
0.166846
0.0279212
0.0307376
0.0693983
0.0731899
0.107697
0.089963
0.138696
0.0854328
0.0765608
0.160744
0.0127205
0.0180171
0.0419521
0.0439582
0.0790068
0.0529083
0.120637
0.0438029
0.0349348
0.162263
0.0012545
0.0168942
0.0530519
0.116267
0.189392
0.166329
-0.660308
0.462618
0.367586
-1.74997
1.54871
0.478341
0.883864
-0.994619
0.391904
0.885926
-0.79949
-0.252563
0.246545
0.21079
-0.704251
0.258054
-1.79723
0.486156
0.655762
0.410184
0.961898
-0.2914
0.104206
-0.647713
0.142572
-1.8356
0.371277
0.427057
0.409553
0.923622
-0.394708
0.359688
-0.845138
0.305209
-1.78112
0.336001
0.396264
0.484522
0.775101
-0.521728
0.516587
-1.17233
0.474689
-1.73922
0.405936
0.465017
0.599613
0.581424
-0.62913
1.35026
-1.20628
-1.31632
0.95749
-1.34645
0.774881
0.647626
1.13947
0.216834
-0.664648
1.17043
-0.907119
-1.46959
0.52086
-0.696877
0.66404
0.504446
1.15349
-0.272618
-0.629108
1.12522
-0.656951
-1.37539
0.663763
-0.235418
0.918214
0.249995
1.1506
-0.505
-0.46816
0.93427
-0.326156
-1.26507
0.752202
-0.0533499
1.00682
-0.00461855
0.834335
-0.33252
-0.182209
0.480453
-0.80661
0.427103
0.422485
0.089965
1.14724
0.147103
-1.11255
1.23776
0.192267
1.3349
0.314717
1.406
0.376001
0.455707
1.02986
0.0849813
-0.967742
1.10964
0.112495
1.21531
0.209042
1.33634
0.254976
0.322451
0.979005
0.035418
-0.929441
1.0282
0.0632977
1.12208
0.115167
1.23457
0.142485
0.18163
0.921307
0.00483024
-0.890719
0.966256
0.0183481
1.04475
0.0366766
1.1423
0.0449365
0.05886
0.647788
-0.642958
0.666137
0.702813
0.74775
0.146893
0.309517
-0.251709
-0.204701
0.0984868
0.314142
-0.265736
0.0561258
0.324913
-0.282552
0.0200185
0.317312
-0.281205
0.206245
-0.186227
0.106713
0.346313
-0.143509
0.069476
0.351378
0.0360792
0.35831
0.00949973
0.343892
0.215745
0.0793463
0.385438
-0.118471
0.0447857
0.385939
0.0147837
0.388312
-0.003616
0.362291
0.212129
-0.000919411
0.401162
-0.0148045
-0.0198497
0.404869
-0.0304074
0.398869
-0.0252709
0.357155
0.186858
-0.0783191
0.0635793
-0.0835127
-0.0785456
-0.0486011
0.197778
0.112117
-0.25099
-0.0589054
0.143879
0.116684
-0.0627846
0.0890576
0.121582
-0.0667605
0.0361026
0.121385
-0.0684304
0.0861015
-0.0499989
0.19392
0.154426
-0.236229
0.148272
0.162332
0.0964739
0.17338
0.0409854
0.176874
0.127087
0.135918
0.200196
-0.181688
0.0946474
0.203602
0.0560843
0.211944
0.0201977
0.21276
0.147285
0.156727
0.231783
-0.188313
0.117276
0.243053
0.0723664
0.256854
0.0284649
0.256662
0.175749
0.0834015
-0.103327
0.0607186
0.0350202
0.0104773
0.408895
0.0527319
-0.065647
0.421058
0.0693412
-0.0815047
0.408636
0.192479
-0.180056
0.395198
0.236397
-0.222959
0.515906
-0.371698
0.406447
0.0422644
0.413983
0.0618056
0.399154
0.207308
0.381401
0.25415
0.661077
0.399119
0.0391247
0.407329
0.053596
0.377397
0.237239
0.37365
0.257897
0.853039
0.39389
0.041214
0.39143
0.0560567
0.370987
0.257682
0.347813
0.281071
1.01254
0.383566
0.0536279
0.38124
0.0583823
0.340923
0.297999
0.324319
0.297674
1.23353
0.612858
0.0447908
0.641255
0.0299852
0.703408
0.235846
0.784036
0.217047
0.993628
1.02394
0.618595
0.0302165
0.648717
-0.000137315
0.761495
0.123068
0.775254
0.203288
0.767103
1.00178
0.629802
0.00443469
0.679523
-0.0498582
0.759316
0.043275
0.778668
0.183936
0.514747
1.03102
0.648379
-0.0399237
0.664754
-0.0662332
0.693407
0.0146215
0.786738
0.0906055
0.235128
1.06636
0.564097
0.497864
0.512485
0.603091
0.838219
1.05854
-0.239307
1.04729
-0.132253
1.05895
-0.130128
1.0551
-0.010959
0.00612959
0.952677
-0.190205
0.943969
-0.123546
0.928027
-0.114185
0.946336
-0.0292686
-0.0152758
0.969203
-0.128384
0.949341
-0.103684
0.917662
-0.0825053
0.928384
-0.0399914
-0.0163328
0.996592
-0.0586193
0.945657
-0.0527491
0.905187
-0.0420357
0.89303
-0.027834
-0.0140221
0.779599
0.72685
0.684814
0.65698
0.0469118
0.136332
-0.183244
0.0717141
0.305851
-0.330653
0.0727262
0.361114
-0.362126
0.0628186
0.36534
-0.355433
0.334569
0.0502877
-0.322038
0.0672805
0.0690516
0.138679
0.234452
0.173648
0.326145
0.178221
0.360768
0.35487
0.15792
0.0554708
0.0135808
0.165955
0.123968
0.259873
0.232227
0.325724
0.294917
0.348044
0.33255
0.0258765
-0.0122956
0.119692
0.0301526
0.239204
0.112715
0.357961
0.17616
0.247078
0.458927
0.00504517
-0.0173408
0.0506054
-0.0154077
0.146277
0.0170432
0.265936
0.0565011
0.103359
0.409655
-0.00353152
-0.0138093
0.00685962
-0.0257988
0.0486324
-0.0247296
0.118479
-0.0133451
0.0169679
0.20487
-0.00114591
-0.0126634
0.00137874
-0.0283235
0.0142559
-0.0376068
0.0400942
-0.0391834
-0.0283078
0.0853699
-0.00437213
-0.00829125
-0.0101182
-0.0225774
-0.016923
-0.030802
-0.0236127
-0.0324937
-0.0311276
-0.0207929
-0.0311227
0.0228315
-0.0832442
0.0295441
-0.151443
0.0373968
-0.226824
0.0428876
0.0377451
-0.295697
-0.0754812
-0.183516
-0.294018
-0.393832
-0.481709
0.34157
0.827304
-0.964005
0.442345
0.0873825
-0.188157
0.235171
0.575274
-0.3681
0.0991372
0.17706
-0.041027
-0.340148
0.301233
0.352637
0.560038
0.515094
-0.0750747
0.355185
0.735183
0.195552
0.336693
-0.329067
0.222076
0.317168
0.547194
-0.400192
0.437202
0.845175
0.270592
0.503303
-0.29963
0.020052
0.00141917
0.59805
-0.97819
0.48925
0.953975
0.330546
0.662006
-0.26901
-0.0176723
0.552851
0.512207
0.374724
-0.0257211
0.617948
-0.592227
-0.0703036
0.0445825
-0.0777348
0.00743122
0.00589918
-0.083634
-0.145625
0.688817
-1.03487
0.545243
0.184574
0.059913
0.081443
-0.0136215
-0.0678215
0.132908
-0.0514646
0.239933
-0.107025
0.392294
-0.152361
-0.199933
0.186606
-0.14994
0.293062
0.518586
0.825152
0.13625
-0.129475
0.159268
-0.166042
0.103492
-0.134305
0.167062
0.0663655
-0.140674
0.177801
0.0267808
-0.139583
0.179167
-0.0965313
0.123312
0.175168
-0.0910895
-0.213554
0.132345
-0.0914815
0.0840886
-0.0924175
0.0345599
-0.0900541
-0.0619714
0.184351
-0.0425221
-0.232918
0.134312
-0.0414428
0.0831158
-0.0412214
0.0336061
-0.0405443
-0.0283653
0.198715
0.00840222
-0.249639
0.14703
0.0102423
0.0936494
0.0121588
0.0393029
0.0138022
0.0109376
0.200834
-0.251337
0.148291
0.0936896
0.0390613
0.0362471
-0.302602
-0.055683
0.0129847
-0.33217
-0.0079202
-0.341221
-0.0157191
-0.322854
-0.198963
0.115382
-0.273607
-0.144377
0.0747026
-0.291491
0.0355151
-0.302034
0.00654613
-0.293885
-0.192417
0.132883
-0.236011
-0.170479
0.0932941
-0.251902
0.0541517
-0.262892
0.0188555
-0.258589
-0.173561
0.151234
-0.202888
-0.184357
0.110502
-0.211171
0.0669222
-0.219312
0.0259928
-0.21766
-0.147569
0.148368
-0.191988
0.104259
0.0627486
0.0242564
0.390082
0.103972
-0.0980745
0.385985
0.111646
-0.107548
0.352782
0.161393
-0.12819
0.293311
0.0837509
-0.02428
-0.175367
0.302636
0.398541
0.10141
0.401297
0.10889
0.392367
0.170323
0.342209
0.133909
-0.0467124
0.404041
0.0933488
0.411844
0.101087
0.408045
0.174122
0.368807
0.173147
0.0891766
0.408821
0.0805074
0.41814
0.0917674
0.416665
0.175597
0.388455
0.201358
0.227992
0.41084
0.421103
0.416644
0.395043
0.413658
0.0963933
0.324666
0.0889917
0.234442
0.0902239
0.228633
0.00580938
-0.166268
0.3949
0.50837
0.489813
0.451847
0.433377
0.569745
0.316773
0.0781278
0.246496
0.0702762
0.163755
0.0827416
0.0948405
0.0689143
0.0270189
0.455884
0.341803
0.254066
0.178604
)
;

boundaryField
{
    left
    {
        type            calculated;
        value           nonuniform List<scalar> 
17
(
-0.60402
-0.60402
-0.60402
-0.60402
-0.60402
-0.39598
-0.39598
-0.39598
-0.39598
-0.39598
-0.39598
-0.39598
-0.39598
-0.39598
-0.39598
-0.510051
-0.510051
)
;
    }
    right
    {
        type            calculated;
        value           nonuniform List<scalar> 
17
(
0.151524
0.215521
0.138053
0.184471
0.241155
0.299926
0.352259
0.397923
0.44902
0.512862
0.611542
0.707015
1.17499
1.11795
0.989649
0.548384
-0.092244
)
;
    }
    down
    {
        type            calculated;
        value           uniform 0;
    }
    up
    {
        type            calculated;
        value           uniform 0;
    }
    cylinder
    {
        type            calculated;
        value           uniform 0;
    }
    defaultFaces
    {
        type            empty;
    }
}


// ************************************************************************* //
