# Selection   : all
# Cells       : 440
# Volume      : 7.374263e+01
# Time        	min(p)
1.5           	-1.891720e+00
1.55          	-1.894291e+00
1.6           	-1.892260e+00
