/*--------------------------------*- C++ -*----------------------------------*\
  =========                 |
  \\      /  F ield         | OpenFOAM: The Open Source CFD Toolbox
   \\    /   O peration     | Website:  https://openfoam.org
    \\  /    A nd           | Version:  13
     \\/     M anipulation  |
\*---------------------------------------------------------------------------*/
FoamFile
{
    format      ascii;
    class       volScalarField;
    location    "0.41";
    object      p;
}
// * * * * * * * * * * * * * * * * * * * * * * * * * * * * * * * * * * * * * //

dimensions      [0 2 -2 0 0 0 0];

internalField   nonuniform List<scalar> 
440
(
7.86626
10.6228
12.986
13.1695
10.1968
20.7611
24.1445
27.1402
27.8415
25.9551
41.2995
44.3309
47.0341
47.827
46.6667
67.4334
69.5313
71.4448
72.1015
71.4142
96.7108
97.5278
98.3248
98.7249
98.6913
-0.380789
-0.480829
-0.0107209
0.546576
0.886251
-1.6514
-2.31169
-2.04564
-1.34773
-0.710449
-2.01463
-2.89203
-2.80565
-2.04407
-0.923764
-0.662517
-0.793097
-0.382288
0.588066
2.45668
3.11467
4.42675
5.85825
7.29336
9.54675
2.14141
2.32594
1.41919
0.740193
0.246678
1.09983
2.1183
1.29756
0.681637
0.233052
-0.0549965
1.69496
1.15689
0.630496
0.22237
-0.355114
1.09223
0.94295
0.58526
0.216738
1.56233
0.511246
0.653907
0.537116
0.215149
4.43983
0.287124
0.368178
0.492628
0.214804
6.77065
0.733452
0.452986
0.496558
0.170202
10.0312
2.47976
1.10968
0.614704
0.125871
13.9252
4.8003
2.17563
0.873665
0.120518
16.6633
7.16986
3.49973
1.32323
0.19878
100.735
75.8866
53.3714
33.1974
12.396
102.431
78.9885
57.583
39.1026
23.5293
104.332
82.7488
62.521
45.2798
32.933
105.215
85.0688
66.5513
51.233
40.7076
105.134
84.7913
66.377
51.3005
40.9475
219.919
216.444
216.155
218.274
221.008
202.736
200.273
200.534
203.276
206.568
180.589
178.817
179.182
181.604
184.483
154.79
153.447
153.653
155.246
157.143
126.909
126.195
126.135
126.595
127.187
235.575
236.001
236.633
237.051
236.791
236.184
236.817
237.37
237.345
236.389
235.011
235.987
236.406
236.135
235.145
230.129
231.733
232.304
232.446
232.354
221.632
223.501
224.52
225.734
227.09
235.83
234.749
234.93
234.102
234.272
235.802
234.735
234.88
234.071
234.827
235.792
234.7
234.832
234.203
235.376
235.795
234.643
234.837
234.467
234.971
235.8
234.567
234.913
234.669
232.273
235.809
234.442
234.97
234.451
228.763
235.977
234.317
234.86
233.983
226.404
236.853
234.079
234.216
232.285
223.381
240.87
234.067
233.027
229.803
219.695
249.834
234.787
231.816
227.252
216.938
217.804
196.278
175.073
151.78
126.494
207.415
191.419
172.373
150.47
126.699
198.928
186.247
168.663
148.135
126.381
191.785
180.827
165.144
146.308
125.967
191.566
180.808
165.4
146.707
126.197
96.4383
95.5614
95.1137
94.3468
94.1902
57.3627
55.4157
53.7103
51.7887
51.0229
29.5369
27.1935
24.431
22.1323
20.8081
15.0877
12.6713
10.2062
8.18644
7.21614
9.25937
7.37199
5.9855
5.01033
4.42327
6.03034
4.9283
4.34838
4.25954
4.34787
4.12494
3.66451
3.59114
3.746
3.89939
2.82541
2.80861
3.03951
3.34125
3.49916
1.72997
2.03201
2.47964
2.82884
2.97343
0.686745
1.0826
1.65163
2.05082
2.22385
3.66962
3.23815
2.12575
1.02827
0.309161
3.72244
3.06805
2.03388
0.974283
0.297777
3.52687
2.8104
1.90595
0.922369
0.286881
3.21126
2.57243
1.74647
0.868244
0.276471
2.79448
2.42571
1.57132
0.806966
0.264428
4.53715
3.22339
2.03677
1.05881
0.332964
3.80118
3.31614
2.12833
1.05998
0.320453
94.9459
54.1932
27.5602
14.539
9.51983
93.7247
51.1839
23.0371
9.52416
5.31494
232.161
232.242
232.193
231.68
230.604
232.752
232.925
233.156
233.196
232.823
233.312
233.483
233.868
234.265
234.435
233.897
234.047
234.448
235.045
235.459
234.624
234.859
235.358
235.962
236.215
142.016
141.824
140.996
140.485
139.574
185.244
184.435
182.457
180.69
178.713
215.538
214.168
211.819
209.005
206.63
229.17
228.162
226.113
223.616
221.171
232.017
231.402
230.431
229.051
227.152
238.853
234.485
234.599
233.525
232.918
237.16
234.523
234.688
233.697
232.94
236.411
234.61
234.79
233.919
233.266
236.056
234.688
234.889
234.106
233.631
235.895
234.736
234.941
234.165
233.932
252.283
235.818
234.957
233.462
232.005
243.192
234.731
234.536
233.403
232.72
226.958
221.883
208.778
182.066
141.265
231.153
226.912
213.332
185.09
142.488
)
;

boundaryField
{
    left
    {
        type            zeroGradient;
    }
    right
    {
        type            fixedValue;
        value           uniform 0;
    }
    down
    {
        type            zeroGradient;
    }
    up
    {
        type            zeroGradient;
    }
    cylinder
    {
        type            zeroGradient;
    }
    defaultFaces
    {
        type            empty;
    }
}


// ************************************************************************* //
