/*--------------------------------*- C++ -*----------------------------------*\
  =========                 |
  \\      /  F ield         | OpenFOAM: The Open Source CFD Toolbox
   \\    /   O peration     | Website:  https://openfoam.org
    \\  /    A nd           | Version:  13
     \\/     M anipulation  |
\*---------------------------------------------------------------------------*/
FoamFile
{
    format      ascii;
    class       volVectorField;
    location    "0.41";
    object      U;
}
// * * * * * * * * * * * * * * * * * * * * * * * * * * * * * * * * * * * * * //

dimensions      [0 1 -1 0 0 0 0];

internalField   nonuniform List<vector> 
440
(
(0.218266 -0.176701 -1.81082e-19)
(0.613084 -0.436666 1.07901e-18)
(0.984289 -0.640904 4.23576e-19)
(1.32752 -0.795365 1.24181e-18)
(1.63254 -0.916691 -2.60021e-19)
(0.304898 -0.177687 -5.44548e-19)
(0.819141 -0.428706 -1.01963e-18)
(1.27997 -0.618904 1.14486e-19)
(1.6919 -0.761632 -1.21523e-18)
(2.05373 -0.875089 -1.02099e-18)
(0.384884 -0.152408 -6.98099e-19)
(1.00469 -0.363018 1.58984e-18)
(1.53977 -0.518388 -1.93478e-18)
(2.00472 -0.632632 1.37891e-18)
(2.40595 -0.721468 1.43022e-18)
(0.445873 -0.102747 5.62406e-19)
(1.14611 -0.243086 -1.29955e-18)
(1.73745 -0.344814 -7.50798e-19)
(2.24295 -0.418221 1.9667e-18)
(2.67447 -0.47446 2.50013e-18)
(0.479262 -0.0361587 6.86926e-19)
(1.22365 -0.084755 1.69144e-19)
(1.84592 -0.119364 2.53138e-18)
(2.37405 -0.143865 -1.06204e-18)
(2.82298 -0.162494 -4.83742e-19)
(-0.000854891 -0.0515022 2.81007e-19)
(0.0502605 -0.143966 -3.83988e-19)
(0.106173 -0.22192 1.10336e-18)
(0.171702 -0.291743 -1.75722e-19)
(0.239854 -0.353321 -1.5917e-18)
(0.0137024 -0.084235 -2.6165e-19)
(0.0893876 -0.227607 -4.20328e-19)
(0.174247 -0.349797 1.11763e-19)
(0.268582 -0.449608 6.02805e-20)
(0.364896 -0.529632 -3.72085e-20)
(0.0433248 -0.114243 6.99079e-20)
(0.165476 -0.303077 5.2083e-19)
(0.296202 -0.467182 9.43994e-20)
(0.432926 -0.598521 1.46425e-18)
(0.568005 -0.696981 -2.50234e-20)
(0.0866168 -0.141001 6.68356e-20)
(0.276373 -0.367805 -3.39654e-20)
(0.469493 -0.562932 2.17015e-19)
(0.661406 -0.718361 -2.04121e-18)
(0.84411 -0.830216 9.5841e-19)
(0.142129 -0.16173 -2.36078e-19)
(0.420085 -0.412854 -4.43042e-19)
(0.691396 -0.621453 -7.71516e-19)
(0.950129 -0.782346 9.54815e-19)
(1.18518 -0.892723 3.45916e-18)
(0.592855 -0.590928 -4.1131e-18)
(0.960789 -0.515168 1.09945e-18)
(1.28746 -0.210457 3.65981e-19)
(1.46249 -0.0476831 -6.28683e-19)
(1.5276 -0.00910336 -9.4297e-20)
(0.785953 -0.742259 4.85759e-18)
(1.04399 -0.620776 -3.25034e-19)
(1.31671 -0.279185 -1.4005e-19)
(1.49014 -0.0810378 4.1172e-19)
(1.54343 -0.0209566 1.65042e-19)
(1.03677 -0.877048 1.53437e-18)
(1.17917 -0.70642 4.07439e-18)
(1.3455 -0.344304 6.58477e-20)
(1.49849 -0.110483 4.53458e-19)
(1.54507 -0.0308985 -5.22443e-20)
(1.33061 -0.988007 1.22942e-18)
(1.35923 -0.768574 -4.18263e-19)
(1.39234 -0.399772 -7.82129e-19)
(1.49346 -0.13539 -3.03135e-19)
(1.54667 -0.0397044 1.8005e-20)
(1.62984 -1.04704 1.20959e-22)
(1.55452 -0.809617 -1.68235e-18)
(1.45075 -0.447446 0)
(1.47563 -0.172747 2.55313e-19)
(1.53629 -0.0508715 3.03802e-20)
(2.15618 -1.11484 -1.57747e-18)
(1.83279 -0.800586 -4.96452e-19)
(1.56118 -0.446222 -1.06931e-20)
(1.44468 -0.178539 4.06718e-20)
(1.41669 -0.0496487 -1.42691e-19)
(2.63299 -0.889461 -1.61271e-18)
(1.90126 -0.591001 2.96819e-18)
(1.43873 -0.312604 5.29191e-21)
(1.18994 -0.134301 2.08891e-19)
(1.141 -0.0395459 0)
(2.47887 -0.522627 -6.92915e-18)
(1.60626 -0.338711 -1.495e-19)
(1.14994 -0.175267 2.01266e-18)
(0.909823 -0.0810623 -3.0558e-19)
(0.848367 -0.0243596 -6.13261e-20)
(1.76242 -0.219952 6.83677e-18)
(1.08902 -0.135759 1.25856e-18)
(0.751568 -0.0668703 2.24255e-19)
(0.579666 -0.0331954 2.84401e-33)
(0.52344 -0.0112485 -8.83596e-20)
(0.683153 0.000152323 1.55319e-18)
(0.395343 0.0235042 7.14639e-19)
(0.267479 0.0239398 -5.17466e-19)
(0.207879 0.0134319 2.09376e-19)
(0.182889 0.0044077 -5.90587e-20)
(3.5819 -0.168157 1.25614e-17)
(3.41719 -0.502924 -1.04432e-17)
(3.13668 -0.786966 7.10856e-18)
(2.78058 -0.996036 2.32034e-18)
(2.33308 -1.10169 -4.14551e-19)
(3.78458 -0.103586 1.0395e-17)
(3.71753 -0.324457 -6.63928e-19)
(3.57781 -0.551816 -4.2702e-18)
(3.37838 -0.78574 2.69037e-18)
(3.10042 -1.01973 -6.62794e-19)
(3.11485 -0.0605656 3.65442e-18)
(3.09868 -0.181688 -2.5187e-18)
(3.05964 -0.309669 5.01267e-18)
(2.99896 -0.444846 -1.52852e-19)
(2.92445 -0.593585 -4.79051e-18)
(2.19087 -0.0276238 2.78874e-18)
(2.18385 -0.0833769 8.43017e-18)
(2.16463 -0.144019 -6.53256e-19)
(2.13407 -0.207297 -6.60807e-18)
(2.11306 -0.269449 1.94591e-18)
(0.879439 -0.00184251 5.21221e-18)
(0.876488 -0.00523985 -1.16435e-19)
(0.867366 -0.00956976 -4.25858e-20)
(0.850499 -0.0162574 -2.00925e-18)
(0.841145 -0.0229115 -3.60502e-18)
(1.65307 0.939952 2.2726e-18)
(1.34827 0.816654 -7.77376e-20)
(1.00338 0.658645 -3.4406e-20)
(0.627885 0.449496 -1.96349e-19)
(0.225242 0.18231 -1.34237e-19)
(2.07047 0.892472 -1.21798e-18)
(1.71066 0.777727 -1.20075e-18)
(1.29832 0.632598 7.3243e-19)
(0.834054 0.438739 -4.84247e-19)
(0.312152 0.182096 -4.12196e-21)
(2.41859 0.735839 -5.89806e-19)
(2.01967 0.645356 5.25255e-19)
(1.55501 0.528769 2.43692e-18)
(1.01755 0.370205 8.08363e-19)
(0.391345 0.155289 5.26117e-19)
(2.68203 0.486715 1.48752e-20)
(2.2524 0.428295 -2.71781e-19)
(1.74745 0.352329 -6.46755e-19)
(1.15478 0.24765 2.05648e-18)
(0.450331 0.104147 -3.26844e-19)
(2.82549 0.17387 -1.17067e-18)
(2.3773 0.152648 -1.60652e-18)
(1.84942 0.125349 -7.28716e-19)
(1.22673 0.0878357 7.96299e-19)
(0.480863 0.0366874 -3.25837e-19)
(0.240411 0.416257 -2.13731e-18)
(0.170407 0.352786 -1.81332e-18)
(0.103084 0.276443 3.14233e-19)
(0.045584 0.183198 -4.43683e-20)
(-0.00168729 0.0673613 3.38891e-20)
(0.371003 0.593567 -8.04004e-19)
(0.274088 0.50929 -6.64881e-19)
(0.178753 0.398785 9.02029e-21)
(0.0925407 0.259101 -2.43825e-20)
(0.0167893 0.0963401 2.51239e-20)
(0.581743 0.752877 2.18005e-18)
(0.446252 0.64916 -1.55275e-19)
(0.307947 0.506804 -1.44461e-19)
(0.17437 0.328312 -2.14852e-19)
(0.0483465 0.123873 1.67977e-19)
(0.862069 0.874476 -1.29755e-18)
(0.679188 0.758044 1.98218e-18)
(0.485294 0.593942 3.11963e-19)
(0.288333 0.388308 1.01283e-19)
(0.092516 0.149157 -1.18236e-19)
(1.20364 0.924952 -4.41894e-19)
(0.969103 0.811666 -4.58459e-19)
(0.708605 0.645023 3.61301e-19)
(0.433344 0.429163 3.59996e-19)
(0.148469 0.168546 1.89787e-21)
(0.926479 0.161557 -3.86464e-19)
(1.48178 0.13798 5.27585e-20)
(1.30876 0.197295 2.06237e-20)
(1.00825 0.501439 -4.78535e-19)
(0.597386 0.644594 2.98656e-20)
(0.927565 0.085864 1.56906e-19)
(1.48597 0.116406 2.78419e-19)
(1.33364 0.243074 2.22729e-19)
(1.05832 0.615074 -7.47526e-20)
(0.784418 0.801744 7.64071e-19)
(0.927447 0.0121993 4.62228e-20)
(1.49972 0.0944332 -1.99459e-20)
(1.33739 0.289011 -5.67084e-20)
(1.16643 0.709755 -4.59347e-19)
(1.03741 0.935721 1.35892e-19)
(0.927695 -0.0586103 -2.05479e-20)
(1.51066 0.0750509 -6.46159e-19)
(1.35048 0.334709 1.00754e-19)
(1.32861 0.775227 1.22624e-18)
(1.3349 1.04043 9.42406e-19)
(0.92717 -0.128512 -2.64761e-20)
(1.50944 0.0633429 1.80036e-19)
(1.37849 0.380955 -6.72736e-20)
(1.51206 0.816908 -3.9917e-19)
(1.63579 1.09098 -2.74386e-18)
(0.919688 -0.223328 2.2105e-19)
(1.48917 0.0299426 4.47544e-19)
(1.46349 0.38157 -2.2935e-20)
(1.76864 0.797105 3.03256e-18)
(2.15264 1.14266 -5.52182e-18)
(0.879805 -0.341426 -2.52452e-20)
(1.36106 -0.0260181 -6.30382e-19)
(1.41601 0.275603 7.6993e-21)
(1.84619 0.592872 -3.05833e-18)
(2.5949 0.900365 1.66796e-18)
(0.784817 -0.411929 5.47993e-18)
(1.09126 -0.0870722 6.84265e-35)
(1.13933 0.148026 -2.1523e-18)
(1.57791 0.338488 2.65707e-18)
(2.45706 0.529415 5.03229e-18)
(0.633552 -0.291489 1.49931e-19)
(0.717626 -0.0711298 5.26605e-19)
(0.734897 0.0518767 2.51181e-19)
(1.07592 0.13467 6.23869e-19)
(1.75837 0.220471 -8.64191e-18)
(0.322297 -0.0432197 -4.30516e-18)
(0.294571 0.00533978 2.81477e-19)
(0.265993 -0.0130864 1.10654e-18)
(0.393618 -0.024011 -7.71714e-19)
(0.686135 -0.000425688 -1.46547e-18)
(2.34849 1.12098 4.68817e-18)
(2.78723 1.01246 3.47079e-18)
(3.14085 0.803333 -5.68974e-18)
(3.41899 0.519577 -1.46148e-17)
(3.58241 0.185869 1.5763e-17)
(3.07905 1.0188 5.00836e-18)
(3.35421 0.795205 2.56401e-17)
(3.55708 0.560661 7.2433e-18)
(3.70119 0.33182 -3.08316e-17)
(3.77799 0.111134 -5.17353e-18)
(2.90586 0.59196 -7.22991e-18)
(2.98604 0.448092 -3.38078e-18)
(3.05221 0.312124 -6.29904e-18)
(3.09526 0.181741 -6.88933e-18)
(3.11402 0.0584398 6.52273e-18)
(2.10625 0.265938 5.41379e-18)
(2.1301 0.205787 -4.04739e-19)
(2.16252 0.14307 4.87082e-18)
(2.18312 0.0821517 6.28901e-18)
(2.19077 0.0260052 -5.88773e-18)
(0.842499 0.0220685 -5.7445e-19)
(0.851906 0.0156612 3.52047e-18)
(0.868618 0.00913546 2.44296e-18)
(0.877485 0.00479456 -5.1692e-18)
(0.879836 0.0013623 -3.84272e-20)
(0.281952 0.0207582 5.52077e-19)
(0.656715 0.0404694 -7.43521e-19)
(0.973196 0.0440701 -8.18534e-19)
(0.944369 0.0274336 -1.51799e-18)
(0.69789 0.0163869 -6.63719e-19)
(0.245594 0.055464 7.45652e-19)
(0.591304 0.107082 1.44152e-18)
(0.86473 0.125151 -6.97255e-19)
(0.939998 0.0970056 1.96072e-18)
(0.724214 0.0532442 -2.70086e-18)
(0.185631 0.07427 4.9618e-19)
(0.476417 0.145905 -1.39901e-18)
(0.707809 0.184773 -9.13877e-19)
(0.857356 0.175424 -1.81024e-18)
(0.741599 0.101236 -2.86213e-18)
(0.12331 0.0774792 -7.72672e-19)
(0.344779 0.160364 -1.37661e-18)
(0.534559 0.21489 4.39879e-18)
(0.67775 0.233324 -3.66661e-19)
(0.713085 0.180036 2.25464e-18)
(0.0752741 0.0723702 -6.23002e-19)
(0.230718 0.160107 1.56414e-18)
(0.372285 0.22453 6.12033e-19)
(0.482823 0.257771 -1.29562e-18)
(0.561318 0.258457 -1.74961e-19)
(0.0451425 0.0637744 8.42665e-20)
(0.149945 0.14875 -1.22206e-18)
(0.247731 0.212125 -9.45146e-19)
(0.325428 0.234075 -8.76354e-20)
(0.371202 0.223812 -5.00828e-20)
(0.0264478 0.0556802 3.12012e-19)
(0.0950703 0.134244 5.95493e-19)
(0.160892 0.184769 -2.07885e-19)
(0.213773 0.19541 2.59231e-19)
(0.253617 0.185346 1.71278e-19)
(0.013307 0.0488257 2.49714e-19)
(0.0585753 0.111448 1.29997e-18)
(0.103647 0.121327 -1.23479e-18)
(0.142582 0.107572 -2.78367e-18)
(0.178722 0.0861596 4.08401e-19)
(0.00610985 0.0393876 -2.36774e-19)
(0.0423484 0.0493168 -1.80452e-18)
(0.0795848 0.0223605 3.21463e-18)
(0.119537 -0.00935977 1.31646e-18)
(0.160932 -0.0431017 -2.69751e-19)
(0.0100209 0.00278751 2.098e-19)
(0.042043 -0.0492149 -4.51775e-19)
(0.0820555 -0.095399 8.96672e-20)
(0.130665 -0.143357 1.05633e-19)
(0.181278 -0.18955 4.94601e-21)
(0.338566 0.0718669 -7.59372e-20)
(0.613667 -0.0420673 -1.22302e-18)
(0.702098 -0.0134836 2.54019e-19)
(0.717059 0.00395973 3.90463e-19)
(0.709372 0.00209308 1.42957e-20)
(0.302714 -0.0342872 -1.00289e-19)
(0.749768 -0.114598 1.45455e-18)
(0.885464 -0.0233797 9.17747e-19)
(0.91618 0.00567099 7.6333e-20)
(0.914536 0.00360085 -3.79792e-20)
(0.319021 -0.149365 -8.02532e-19)
(0.833363 -0.197657 3.1173e-18)
(1.04595 -0.0429955 -1.81938e-19)
(1.1021 0.00563472 -3.62481e-19)
(1.10662 0.00477979 7.70341e-20)
(0.374887 -0.28776 1.10242e-18)
(0.881562 -0.296767 -2.68571e-18)
(1.16632 -0.084058 -5.26277e-19)
(1.26501 0.000306301 -3.28997e-20)
(1.27915 0.0048184 -4.69431e-21)
(0.462172 -0.435916 5.05852e-19)
(0.916508 -0.403671 -5.58218e-19)
(1.24232 -0.143268 4.68822e-19)
(1.39175 -0.0167633 1.22558e-19)
(1.43055 0.00109906 -3.37449e-20)
(0.182959 -0.044972 9.54721e-19)
(0.14501 -0.00524998 0)
(0.16234 0.00108312 1.16843e-19)
(0.162496 -0.000125217 1.29957e-21)
(0.158344 -0.000497962 -7.5304e-20)
(0.39974 0.0700092 0)
(0.408674 -0.000465732 0)
(0.465763 -0.00416966 5.54153e-20)
(0.469018 0.00242306 -9.74422e-21)
(0.458781 0.000909224 3.66516e-20)
(0.162676 -0.000821227 -3.68435e-19)
(0.186392 -0.00179218 3.10749e-18)
(0.213201 -0.00502143 -6.86327e-19)
(0.229799 -0.0149902 -3.11683e-18)
(0.245695 -0.0170114 -7.96996e-19)
(0.432006 0.00444101 6.09885e-19)
(0.484533 0.0196944 4.11544e-18)
(0.536428 0.0466929 -6.73021e-18)
(0.567605 0.0806065 2.20931e-18)
(0.598304 0.162208 3.79691e-18)
(0.370655 -0.220422 -3.32985e-19)
(0.324271 -0.231426 -9.23364e-20)
(0.248348 -0.21256 -3.27239e-19)
(0.150756 -0.15072 3.87083e-19)
(0.0458588 -0.0645813 1.14144e-19)
(0.257583 -0.169134 4.21091e-19)
(0.215088 -0.181255 1.41281e-18)
(0.162382 -0.176691 2.61611e-19)
(0.0967259 -0.134926 2.35962e-19)
(0.0268689 -0.0571691 -1.84166e-20)
(0.193156 -0.0542816 -3.09871e-19)
(0.15158 -0.0768432 -1.04267e-19)
(0.108731 -0.0943912 1.63228e-18)
(0.062313 -0.0967124 2.87188e-19)
(0.0131841 -0.0478743 -3.11985e-19)
(0.178173 0.087078 -6.34824e-19)
(0.132264 0.0532703 -7.05781e-19)
(0.0874753 0.0196451 1.30614e-18)
(0.0492942 -0.010351 1.59744e-18)
(0.0112156 -0.0296137 1.98742e-19)
(0.187839 0.243817 1.23471e-19)
(0.133645 0.197566 -1.20201e-19)
(0.0814452 0.147835 2.48113e-19)
(0.0379239 0.0968169 6.18543e-19)
(-0.00236286 0.0355351 9.1228e-20)
(0.697887 -0.0163421 1.53142e-18)
(0.944375 -0.0274102 -1.80078e-18)
(0.973004 -0.0441955 2.26988e-18)
(0.656727 -0.0405317 3.64531e-19)
(0.281986 -0.0207669 5.36633e-19)
(0.724205 -0.0531357 1.77234e-18)
(0.939857 -0.0970192 7.94667e-18)
(0.864526 -0.125254 1.03362e-18)
(0.591356 -0.107122 1.34941e-18)
(0.245689 -0.0554851 -4.78465e-19)
(0.741523 -0.100984 -1.22178e-18)
(0.856749 -0.175254 -2.296e-18)
(0.707728 -0.184831 2.92428e-18)
(0.476483 -0.145973 -1.0833e-19)
(0.185753 -0.0743055 3.39544e-19)
(0.712573 -0.179846 1.90011e-20)
(0.677032 -0.233257 -7.68424e-18)
(0.534591 -0.215215 -5.99797e-18)
(0.344913 -0.1607 1.09151e-18)
(0.123492 -0.0775838 5.08036e-19)
(0.558864 -0.256863 4.6967e-19)
(0.481769 -0.257131 5.33168e-19)
(0.372346 -0.225231 -8.98656e-19)
(0.230972 -0.160982 -8.87934e-19)
(0.0756225 -0.0726303 -5.14316e-21)
(0.726886 0.372948 1.17418e-18)
(0.884076 0.126736 -1.92065e-19)
(0.680231 0.0189277 2.55584e-19)
(0.647171 0.0374787 -7.6333e-19)
(0.362759 -0.0614794 -1.01009e-19)
(0.826235 0.397655 -1.69491e-19)
(1.09569 0.155905 -5.4968e-19)
(0.871676 0.0375432 8.32149e-19)
(0.806392 0.101442 1.68348e-18)
(0.340847 0.0546617 1.04507e-19)
(0.889978 0.371928 -2.20609e-18)
(1.27912 0.169661 -3.70729e-20)
(1.04099 0.062355 2.43306e-19)
(0.908751 0.181377 1.65933e-18)
(0.364588 0.177149 -1.41085e-18)
(0.91753 0.314185 1.4336e-18)
(1.43409 0.170934 1.79929e-20)
(1.17285 0.101564 -1.99173e-19)
(0.962108 0.279951 -6.53059e-19)
(0.414275 0.323396 -5.70938e-19)
(0.924071 0.238959 1.61258e-19)
(1.488 0.155593 2.5788e-20)
(1.25783 0.148134 -5.61405e-20)
(0.987977 0.387376 -5.51757e-20)
(0.483669 0.480229 1.35481e-18)
(0.275522 0.0483724 0)
(0.244558 -0.0110886 6.46102e-19)
(0.158303 -0.0158747 1.27745e-19)
(0.151034 0.00546788 -1.14278e-19)
(0.184413 0.0440435 -1.8075e-18)
(0.572944 0.266255 -1.0196e-17)
(0.610769 0.0749604 -2.54882e-18)
(0.44745 0.0126415 4.99763e-19)
(0.425802 0.000965958 -6.65036e-19)
(0.407848 -0.0682568 -6.62196e-19)
(0.245837 0.0169705 -1.08021e-21)
(0.229897 0.0150776 1.92864e-18)
(0.213278 0.00506433 5.24294e-19)
(0.186442 0.00180196 3.23068e-19)
(0.162692 0.000825076 0)
(0.599244 -0.162083 -1.11551e-19)
(0.568186 -0.0802967 2.5484e-18)
(0.536539 -0.0464662 -1.36824e-19)
(0.484593 -0.0196412 -2.70277e-19)
(0.43203 -0.00441877 7.60419e-19)
)
;

boundaryField
{
    left
    {
        type            fixedValue;
        value           uniform (1 0 0);
    }
    right
    {
        type            zeroGradient;
    }
    down
    {
        type            noSlip;
    }
    up
    {
        type            noSlip;
    }
    cylinder
    {
        type            noSlip;
    }
    defaultFaces
    {
        type            empty;
    }
}


// ************************************************************************* //
