/*--------------------------------*- C++ -*----------------------------------*\
  =========                 |
  \\      /  F ield         | OpenFOAM: The Open Source CFD Toolbox
   \\    /   O peration     | Website:  https://openfoam.org
    \\  /    A nd           | Version:  13
     \\/     M anipulation  |
\*---------------------------------------------------------------------------*/
FoamFile
{
    format      ascii;
    class       volVectorField;
    location    "8.74";
    object      U;
}
// * * * * * * * * * * * * * * * * * * * * * * * * * * * * * * * * * * * * * //

dimensions      [0 1 -1 0 0 0 0];

internalField   nonuniform List<vector> 
440
(
(-0.0836538 0.0580155 -8.00198e-20)
(-0.0988582 0.0939591 4.5444e-20)
(0.0604329 0.0832971 8.3286e-20)
(0.533739 0.0755308 2.03425e-19)
(0.560952 0.179285 1.37191e-20)
(-0.0854928 0.0452608 4.01725e-20)
(0.0972581 -0.00262935 -1.43977e-19)
(0.643913 -0.0554638 -1.19884e-19)
(1.22319 -0.0923253 6.02994e-20)
(1.7699 -0.113903 6.37086e-21)
(-0.00874189 -0.000475731 5.4409e-20)
(0.5959 -0.0582048 8.48038e-19)
(1.42005 -0.0570093 -5.25438e-19)
(2.0278 -0.0321641 -1.6083e-18)
(2.50185 -0.0251033 6.72784e-19)
(0.231739 -0.0524892 -1.82828e-19)
(1.32011 -0.00423229 -6.24263e-19)
(2.10137 0.0551453 2.00864e-18)
(2.49638 0.0812313 2.2091e-18)
(2.54796 0.088979 -6.11463e-19)
(0.62402 -0.00269785 -3.21661e-19)
(1.84909 0.181937 -6.94566e-19)
(2.37594 0.248515 2.1252e-18)
(2.49794 0.256243 2.23779e-18)
(2.58056 0.230266 7.49516e-19)
(-0.0319283 0.454079 1.99882e-19)
(-0.124123 0.67731 2.46508e-19)
(-0.210119 0.679032 -7.15947e-19)
(-0.272782 0.634522 1.42723e-19)
(-0.308073 0.58079 1.32658e-18)
(-0.0681293 0.429117 -2.01691e-20)
(-0.0972666 0.754446 -1.85429e-19)
(-0.103696 0.797203 7.90335e-21)
(-0.0933869 0.737833 6.05804e-21)
(-0.0630919 0.648989 -1.05572e-20)
(-0.078272 0.259404 2.90776e-20)
(-0.106786 0.609074 -1.171e-19)
(-0.0854659 0.735378 4.88416e-20)
(-0.0357454 0.730143 -1.2671e-19)
(0.0384031 0.655855 5.86812e-21)
(-0.0473726 0.0948802 -4.08926e-20)
(-0.0943068 0.330885 8.4664e-20)
(-0.0787616 0.477148 8.27557e-21)
(-0.018938 0.52503 -9.80472e-20)
(0.0594305 0.524666 2.93251e-21)
(-0.0521764 0.0470612 -4.84119e-20)
(-0.124227 0.151021 -6.82431e-20)
(-0.126682 0.240872 -1.36397e-19)
(-0.00319857 0.275486 3.12419e-20)
(0.0926132 0.36408 -2.78919e-19)
(-0.46703 0.312303 -2.02557e-18)
(0.418437 -1.02645 1.89831e-18)
(0.924283 -0.803181 -1.40443e-19)
(0.79207 0.50744 -4.65012e-19)
(0.692588 0.297598 -2.14083e-20)
(-0.0568968 0.201977 -8.74213e-19)
(1.76289 -1.15505 -3.60936e-19)
(1.04021 -0.756448 9.09989e-20)
(0.495384 0.589595 2.66234e-19)
(0.744388 0.273485 1.20007e-19)
(0.199961 -0.0171205 -9.78111e-19)
(2.16436 -1.31929 1.27933e-18)
(1.34453 -0.628335 -8.62284e-20)
(0.425794 0.631502 4.90367e-19)
(0.903319 0.217065 -8.13878e-21)
(0.566111 -0.151538 2.37807e-19)
(2.13895 -1.36402 -2.72735e-19)
(1.08936 -0.509009 1.2075e-19)
(0.379128 0.643744 1.58676e-20)
(1.11654 0.135968 3.73337e-19)
(1.01897 -0.345552 -1.46574e-19)
(2.31604 -1.28235 4.00482e-19)
(0.368959 -0.308171 0)
(0.0746793 0.66365 -7.00894e-19)
(1.35916 0.00262992 1.53155e-19)
(1.86681 -0.322787 -5.59208e-19)
(2.48786 -1.07865 1.23994e-19)
(0.860271 -0.177479 -1.11039e-20)
(0.726953 0.40131 -4.35511e-19)
(1.7155 -0.198372 -1.39182e-19)
(2.4732 -0.478354 3.87002e-20)
(2.29173 -0.879407 9.67565e-19)
(0.567767 0.17811 -1.27499e-20)
(1.51778 0.299752 2.34656e-19)
(1.94707 -0.279297 0)
(2.33021 -0.386197 -4.79313e-19)
(1.98193 -0.399097 1.61791e-20)
(0.635199 0.124049 1.05681e-19)
(1.98591 -0.0798393 -5.86505e-20)
(1.82003 -0.319457 9.22432e-20)
(2.2001 -0.308393 5.73777e-20)
(1.43523 -0.237781 1.31203e-19)
(1.05943 0.0955998 -2.31931e-20)
(1.83709 -0.201309 3.18966e-34)
(1.16755 -0.23352 -1.60352e-20)
(1.21499 -0.0793189 1.55535e-19)
(0.52379 0.0351731 -2.10732e-20)
(0.794411 -0.0496111 -4.90899e-20)
(0.571051 -0.088537 4.1644e-20)
(-0.0520873 0.00049957 -3.63186e-20)
(2.46575 0.247761 -9.23526e-19)
(2.64822 0.00132201 -1.18422e-18)
(2.52031 0.0580356 8.83887e-19)
(2.7703 -0.171398 7.27366e-20)
(2.19734 0.0197256 -1.75032e-20)
(2.15728 0.176197 5.87882e-20)
(2.43654 -0.03439 -4.0795e-20)
(2.28368 0.0012665 -1.40839e-19)
(2.52815 -0.184364 -2.3044e-19)
(2.37216 -0.219732 -6.90168e-21)
(2.10904 0.0755888 7.11998e-20)
(2.23873 -0.0368402 1.05358e-19)
(2.21174 -0.0526243 -1.45326e-19)
(2.28613 -0.141059 4.90007e-20)
(2.28997 -0.188854 2.96742e-20)
(2.10431 0.00264905 1.12646e-19)
(2.12008 -0.0553832 1.20525e-19)
(2.16864 -0.0682556 -1.78837e-20)
(2.16791 -0.122093 -7.10963e-21)
(2.20198 -0.14363 2.57275e-20)
(1.565 -0.0261123 1.60972e-19)
(1.48743 -0.0272665 -1.25735e-20)
(1.53853 -0.0375078 2.6128e-20)
(1.43653 -0.036628 -1.15371e-20)
(1.4903 -0.0555673 3.46043e-20)
(1.58894 0.847842 1.18939e-18)
(1.55366 0.954166 -3.91277e-19)
(1.55942 1.09089 -1.42521e-18)
(1.48897 1.13734 7.6614e-19)
(0.910612 0.813101 -1.74984e-19)
(1.89028 0.821519 -6.03933e-19)
(1.85528 0.897079 -3.18183e-18)
(1.86281 1.00334 -1.22229e-18)
(1.77411 1.014 -4.23053e-19)
(1.08224 0.709514 -6.91286e-19)
(2.19613 0.677459 7.91848e-19)
(2.18205 0.751545 2.06008e-19)
(2.15791 0.844032 -2.37297e-18)
(2.02119 0.831635 -6.71428e-19)
(1.19666 0.554475 4.98251e-19)
(2.37242 0.569042 2.38894e-18)
(2.35576 0.617256 1.76416e-18)
(2.35245 0.670039 -2.03872e-18)
(2.14084 0.628239 -1.55479e-18)
(1.17871 0.368279 -2.88977e-19)
(2.52093 0.393593 1.1948e-18)
(2.53763 0.420143 -8.58127e-19)
(2.44225 0.449471 6.13221e-19)
(2.10569 0.397363 4.93551e-19)
(0.999948 0.165641 -4.23635e-19)
(0.568243 0.512987 -5.98645e-19)
(0.474005 0.553429 -4.29224e-19)
(0.356038 0.593324 4.00113e-20)
(0.222713 0.594153 8.76417e-21)
(0.0549013 0.42063 9.15907e-20)
(0.695447 0.666914 1.17769e-19)
(0.631319 0.725435 -2.80994e-19)
(0.541442 0.792517 1.86714e-19)
(0.414447 0.853167 -8.72846e-20)
(0.181875 0.648679 1.23166e-19)
(0.778644 0.877837 7.54691e-20)
(0.709017 0.965441 5.00767e-19)
(0.65789 1.06377 1.35425e-19)
(0.575761 1.09637 -3.26874e-19)
(0.316532 0.801953 2.77737e-19)
(1.07223 0.928218 2.61514e-19)
(1.02213 1.01115 -8.03038e-19)
(0.973356 1.11407 -2.07266e-18)
(0.893778 1.18358 8.18555e-19)
(0.52654 0.875459 -1.60673e-19)
(1.14341 0.991783 -1.02507e-19)
(1.1804 1.11134 -1.80506e-19)
(1.20446 1.22161 -3.96472e-19)
(1.15065 1.23779 -4.43227e-19)
(0.706006 0.880026 -6.94824e-21)
(1.01432 0.0547119 -9.66932e-20)
(0.99425 0.0381326 -3.43341e-20)
(1.03315 0.143456 -1.48354e-21)
(0.94014 0.147513 -2.46751e-19)
(0.907088 0.31002 3.03865e-19)
(1.00333 0.0528249 6.06924e-20)
(1.00805 0.0350225 1.25638e-19)
(1.01687 0.154465 1.30218e-19)
(0.986216 0.169336 3.46671e-20)
(0.944602 0.392917 -1.98785e-20)
(1.00836 0.0519869 8.1998e-20)
(0.992875 0.0282206 -4.85886e-21)
(1.06044 0.172649 -5.17001e-21)
(0.944568 0.167821 1.51892e-19)
(1.16361 0.538586 -4.95962e-19)
(1.00204 0.0521451 -2.8988e-22)
(1.0112 0.0192045 -1.797e-19)
(1.05133 0.192237 -6.45822e-20)
(1.05088 0.156909 -3.83859e-19)
(1.18455 0.597604 9.43009e-20)
(0.998525 0.045475 -1.32899e-20)
(1.01124 0.0218162 5.06607e-20)
(1.10409 0.187114 3.02241e-20)
(1.03698 0.190429 4.81661e-19)
(1.40384 0.726618 -4.82001e-19)
(0.957307 0.048895 -7.20036e-21)
(1.08231 -0.00514135 1.09688e-19)
(1.08572 0.21614 -6.43054e-20)
(1.30366 0.0967023 1.03964e-18)
(1.34589 0.791557 -3.62378e-19)
(0.896422 0.0192682 -1.52687e-21)
(1.17882 -0.00846613 -9.88073e-20)
(1.01537 0.127572 5.62865e-21)
(1.44662 0.0881609 -3.38866e-19)
(1.2758 0.586578 -8.397e-20)
(0.941495 0.0126484 1.05568e-21)
(1.14999 -0.0192649 1.54473e-35)
(1.09167 0.0770786 -2.05708e-20)
(1.34132 0.0628089 9.7334e-20)
(1.30381 0.428553 1.887e-19)
(1.06089 -0.0348225 4.3158e-21)
(1.01714 -0.0414575 -3.14868e-20)
(1.18556 0.0252219 2.09821e-20)
(1.08968 0.0514665 1.97963e-20)
(1.5035 0.294114 -2.90241e-19)
(0.988831 -0.0233567 -4.06693e-20)
(0.791651 -0.0231593 -3.09774e-21)
(0.904888 0.00686632 2.48809e-20)
(0.76499 0.00700578 -2.16521e-20)
(1.22809 0.0747042 -6.63144e-20)
(1.82737 0.603211 2.98014e-19)
(1.93784 0.659634 7.56131e-19)
(2.1878 0.494692 -1.09429e-18)
(2.27494 0.495223 1.27156e-20)
(2.46841 0.261973 4.75867e-19)
(1.75182 0.360785 9.39287e-20)
(1.77485 0.440396 1.02659e-18)
(2.00508 0.290871 1.21635e-19)
(1.99196 0.336322 -9.03042e-19)
(2.24703 0.124751 -2.86485e-19)
(1.69571 0.271863 -2.50085e-19)
(1.7816 0.282973 -1.53708e-19)
(1.92809 0.185399 2.00637e-19)
(1.96402 0.191717 -2.82267e-19)
(2.1156 0.070083 2.60617e-19)
(1.72855 0.166529 4.33032e-19)
(1.85843 0.14532 -1.0232e-21)
(1.90737 0.0859299 2.20673e-19)
(2.00221 0.0742843 1.80616e-19)
(2.0329 0.0123614 -1.78388e-19)
(1.42095 0.0297012 -5.55687e-20)
(1.51594 0.0140977 2.63669e-19)
(1.51055 -0.00124793 1.0695e-19)
(1.56601 -0.0105745 -2.11758e-19)
(1.51447 -0.0184506 4.88027e-22)
(1.08786 -0.0164056 6.1219e-20)
(2.0716 -0.0438786 -3.97921e-19)
(2.30708 -0.0353343 1.0964e-18)
(2.28208 0.00331148 4.82877e-19)
(2.14012 0.0299346 -3.44299e-19)
(0.68289 0.094246 1.14186e-19)
(1.84986 0.0855648 -4.04678e-19)
(2.30574 0.0879821 -5.48618e-19)
(2.3758 0.0928487 6.70471e-19)
(2.10628 0.0829774 -4.34613e-19)
(0.225825 0.0793486 -1.36196e-20)
(1.23617 0.147119 4.31686e-19)
(1.96319 0.163526 5.60664e-20)
(2.33521 0.155485 3.71356e-19)
(2.52712 0.143898 1.28715e-19)
(-0.0173538 -0.0109503 1.70175e-19)
(0.45754 0.0824384 1.71564e-19)
(1.20397 0.149703 -3.81073e-19)
(1.68521 0.173342 2.1555e-20)
(2.2271 0.200592 4.57961e-20)
(-0.0801908 -0.0651631 1.09786e-19)
(0.0152458 -0.0376862 -1.28237e-19)
(0.411812 0.0344832 -4.63422e-20)
(0.869623 0.0674182 4.00747e-20)
(1.235 0.114978 -1.70782e-20)
(-0.0622098 -0.0628643 1.12284e-20)
(-0.0997583 -0.0863028 5.3158e-20)
(-0.00856617 -0.0735195 6.7461e-20)
(0.188301 -0.0386139 -1.2026e-19)
(0.490874 0.00622422 9.42488e-23)
(-0.0306515 -0.0433916 -5.59502e-21)
(-0.0781413 -0.0991551 -5.42953e-21)
(-0.0907882 -0.140443 1.97787e-21)
(-0.0611186 -0.151886 1.96863e-20)
(0.0458477 -0.123057 1.57097e-20)
(-0.0227167 -0.044397 -9.21127e-21)
(-0.0733223 -0.103437 -1.31375e-19)
(-0.116902 -0.13985 1.19116e-19)
(-0.15672 -0.145103 2.54676e-19)
(-0.163194 -0.125468 -3.0767e-20)
(-0.0139043 0.0363823 1.03202e-20)
(-0.120539 0.0500822 8.81986e-20)
(-0.228935 0.0812766 -3.02999e-19)
(-0.333099 0.123176 -4.54181e-19)
(-0.411918 0.147034 3.00965e-20)
(-0.0132396 0.270602 -1.39532e-20)
(-0.16501 0.393498 5.97127e-20)
(-0.315225 0.415504 -3.35365e-20)
(-0.436699 0.410323 6.9014e-20)
(-0.520549 0.389821 5.3396e-19)
(1.399 0.438468 -2.74634e-20)
(1.19045 0.135185 1.28563e-18)
(1.63388 0.046609 -7.5856e-20)
(1.35999 0.0883507 3.26078e-21)
(0.847072 0.0274039 7.22241e-21)
(0.903 0.287731 1.20545e-19)
(0.664723 0.0276063 -6.47382e-19)
(1.58235 0.0282147 -3.20854e-19)
(1.45547 0.188541 7.77805e-21)
(0.864455 0.0877437 -4.35931e-20)
(-0.00363985 0.201681 -1.89386e-19)
(-0.0682935 -0.118154 -7.74329e-20)
(1.40554 -0.109237 -1.15265e-20)
(1.38602 0.277147 -2.72856e-19)
(0.816841 0.165025 1.8006e-20)
(-0.686389 0.255256 8.94932e-19)
(-0.579307 -0.424723 -3.74848e-18)
(1.2394 -0.334383 1.53863e-19)
(1.22143 0.359727 -8.87462e-21)
(0.749941 0.228525 2.42212e-20)
(-0.844266 0.274731 4.98496e-19)
(-0.583796 -0.810478 -4.65623e-19)
(1.07952 -0.605963 -1.43739e-19)
(1.01377 0.452116 3.45384e-20)
(0.702983 0.277502 3.54674e-20)
(0.627984 0.155037 -8.34026e-20)
(-0.0917867 -0.0443873 0)
(-0.010654 -0.102427 -1.56539e-20)
(0.0339408 -0.0658592 4.92981e-20)
(0.29877 -0.0326201 -1.4122e-20)
(1.86933 0.393827 0)
(1.32398 0.228521 0)
(1.33892 0.0685221 4.81014e-19)
(0.989448 -0.0233003 8.46692e-20)
(0.741447 -0.0482759 -8.32809e-21)
(0.682741 -0.000121051 -1.20989e-19)
(0.743267 -0.00210254 2.81579e-19)
(0.872998 -0.015295 -1.66131e-20)
(1.0365 0.0119441 2.61363e-19)
(1.27942 0.0501908 1.69937e-19)
(1.55594 0.0189886 1.15675e-19)
(1.66624 0.0700927 3.08989e-19)
(1.85803 0.0334363 -1.2265e-19)
(2.42173 0.155201 -8.14847e-21)
(2.05849 0.104137 1.13479e-19)
(0.871259 -0.445455 -3.93063e-20)
(0.854189 -0.529065 -1.45001e-19)
(0.838536 -0.619597 -8.96893e-20)
(0.764513 -0.682528 5.62472e-20)
(0.461915 -0.533137 1.1945e-19)
(0.765297 -0.34528 1.26762e-19)
(0.708967 -0.406235 2.65682e-19)
(0.636366 -0.473498 -2.99844e-20)
(0.526756 -0.530424 1.30296e-19)
(0.284831 -0.422227 5.32326e-20)
(0.630979 -0.202506 -1.55434e-19)
(0.545117 -0.238116 -4.90602e-20)
(0.443474 -0.282475 1.41177e-19)
(0.32277 -0.322544 -6.17379e-21)
(0.13866 -0.26129 -1.11344e-19)
(0.536141 0.0299645 -4.32853e-19)
(0.449076 0.0195026 -3.57884e-19)
(0.337841 0.00169285 2.81338e-19)
(0.21117 -0.025986 1.75568e-19)
(0.0528238 -0.0453141 1.34148e-20)
(0.521304 0.234865 -1.67049e-19)
(0.435815 0.240397 -1.69989e-19)
(0.318992 0.245308 -7.40202e-20)
(0.180764 0.255056 1.83632e-20)
(0.0244988 0.190525 1.12435e-20)
(1.89427 -0.041617 7.29096e-19)
(2.16119 -0.103252 2.41142e-19)
(2.22711 -0.180773 -6.49691e-19)
(2.07672 -0.207338 -1.32466e-18)
(1.23619 -0.172461 1.13903e-19)
(1.88309 -0.118549 1.22035e-18)
(1.9658 -0.223644 1.62538e-18)
(1.98841 -0.339036 1.3635e-19)
(1.90549 -0.39315 2.40255e-19)
(1.20858 -0.333412 -1.57808e-19)
(1.60585 -0.271776 -3.16023e-18)
(1.67788 -0.384009 3.46683e-19)
(1.72258 -0.500695 9.91029e-19)
(1.65672 -0.567937 -3.6449e-19)
(1.06612 -0.469906 5.76669e-19)
(1.41448 -0.387519 7.47293e-19)
(1.43235 -0.480804 -1.98832e-18)
(1.41906 -0.591388 -2.26345e-18)
(1.34913 -0.669384 6.82305e-19)
(0.864968 -0.541788 4.7356e-19)
(1.14397 -0.439844 1.4964e-19)
(1.10548 -0.528624 2.28731e-19)
(1.0961 -0.641853 -3.4005e-19)
(1.03861 -0.71942 -4.09781e-19)
(0.654417 -0.5656 -3.76763e-21)
(1.05919 0.057988 7.81471e-21)
(0.923648 0.0581245 -3.95779e-21)
(1.10372 0.0855636 -9.76638e-22)
(0.802137 0.0173123 -2.11574e-19)
(1.04857 -0.181458 -1.1508e-20)
(1.07338 0.0624485 -2.53839e-21)
(0.918473 0.0553698 4.37528e-20)
(1.10297 0.103562 -3.85188e-20)
(0.882691 0.0642012 1.38522e-19)
(0.956699 -0.0678475 -1.4605e-20)
(1.07334 0.0603218 -6.22546e-20)
(0.925588 0.0520883 2.70991e-22)
(1.09036 0.107152 -1.9851e-20)
(0.884057 0.0873277 5.40577e-20)
(0.930192 -0.00596267 -1.81454e-19)
(1.05377 0.059089 7.47842e-20)
(0.956367 0.0475901 3.36728e-21)
(1.05941 0.116373 3.32557e-20)
(0.91799 0.111385 -5.6414e-21)
(0.853107 0.101595 9.94158e-20)
(1.02763 0.0559449 1.87927e-20)
(0.987961 0.0449288 -2.89608e-20)
(1.02993 0.12617 4.59786e-20)
(0.947126 0.136154 6.24089e-20)
(0.836303 0.204278 -1.03204e-19)
(0.883664 0.0338363 0)
(0.712246 0.0290381 1.01994e-20)
(0.586381 0.0237971 4.46416e-21)
(0.327034 -0.00575399 3.89748e-20)
(0.618787 -0.048535 -1.25018e-19)
(1.02237 0.0758303 -6.56391e-20)
(0.94119 0.0738993 -1.65384e-20)
(1.00439 0.0853504 -3.89525e-20)
(0.794089 0.00905713 -1.16078e-19)
(0.975786 -0.169634 -1.35278e-19)
(0.849869 -0.0624222 -2.97858e-20)
(0.932604 -0.0296964 4.66948e-19)
(1.01334 0.0347177 2.81284e-19)
(0.898761 0.0475116 2.98849e-20)
(0.699525 0.0247876 0)
(1.20879 -0.296168 2.82621e-19)
(1.31502 -0.262381 1.32572e-18)
(1.47492 -0.147765 -1.45981e-18)
(1.56798 -0.022859 -4.47406e-19)
(1.46428 0.0230047 3.43141e-19)
)
;

boundaryField
{
    left
    {
        type            fixedValue;
        value           uniform (1 0 0);
    }
    right
    {
        type            zeroGradient;
    }
    down
    {
        type            noSlip;
    }
    up
    {
        type            noSlip;
    }
    cylinder
    {
        type            noSlip;
    }
    defaultFaces
    {
        type            empty;
    }
}


// ************************************************************************* //
