/*--------------------------------*- C++ -*----------------------------------*\
  =========                 |
  \\      /  F ield         | OpenFOAM: The Open Source CFD Toolbox
   \\    /   O peration     | Website:  https://openfoam.org
    \\  /    A nd           | Version:  13
     \\/     M anipulation  |
\*---------------------------------------------------------------------------*/
FoamFile
{
    format      ascii;
    class       surfaceScalarField;
    location    "0.275";
    object      phi;
}
// * * * * * * * * * * * * * * * * * * * * * * * * * * * * * * * * * * * * * //

dimensions      [0 3 -1 0 0 0 0];

internalField   nonuniform List<scalar> 
3485
(
0.00301649
-0.0230503
0.0200338
0.0104395
-0.0778871
0.0704642
0.0200521
-0.117436
0.107823
0.0302644
-0.137763
0.12755
0.0403347
-0.144909
0.134839
0.0500325
-0.145266
0.135569
0.0593172
-0.142786
0.133501
0.0681684
-0.139353
0.130502
0.0765349
-0.135639
0.127272
-0.131648
0.123626
0.0845567
0.0032751
-0.0263254
0.01082
-0.085432
0.0202169
-0.126833
0.029948
-0.147494
0.039424
-0.154385
0.0485555
-0.154398
0.0574244
-0.151655
0.0661517
-0.14808
0.0749131
-0.1444
-0.140784
0.0840485
0.0035082
-0.0298336
0.0110848
-0.0930086
0.0201166
-0.135865
0.0291657
-0.156543
0.0377762
-0.162996
0.0459464
-0.162568
0.0537862
-0.159495
0.0613884
-0.155682
0.0688048
-0.151817
-0.148027
0.0760482
0.00373016
-0.0335638
0.0112724
-0.100551
0.0198589
-0.144451
0.0281775
-0.164862
0.0359387
-0.170757
0.0432564
-0.169886
0.0503005
-0.166539
0.0571894
-0.162571
0.0639994
-0.158627
-0.15491
0.0708824
0.00388779
-0.0374516
0.0112465
-0.10791
0.0192056
-0.15241
0.0266066
-0.172263
0.0333242
-0.177474
0.0395682
-0.17613
0.0455446
-0.172515
0.0513799
-0.168407
0.057149
-0.164396
-0.160678
0.0629172
0.00398336
-0.0414349
0.0110189
-0.114945
0.018212
-0.159603
0.0245963
-0.178647
0.0302162
-0.183094
0.0353702
-0.181284
0.0402944
-0.177439
0.0451172
-0.173229
0.0499022
-0.169181
-0.165484
0.0547074
0.00397948
-0.0454144
0.0105128
-0.121478
0.0167685
-0.165859
0.0220004
-0.183879
0.0264151
-0.187509
0.0303823
-0.185251
0.0341543
-0.181211
0.0378567
-0.176932
0.0415466
-0.172871
-0.169188
0.0452511
0.00386745
-0.0492819
0.00972601
-0.127337
0.0149002
-0.171033
0.0188867
-0.187865
0.0220409
-0.190663
0.0247822
-0.187992
0.0273651
-0.183794
0.0299045
-0.179471
0.0324468
-0.175413
-0.17174
0.0349986
0.00363243
-0.0529143
0.00864342
-0.132348
0.0126041
-0.174994
0.0152707
-0.190532
0.0171194
-0.192512
0.0186009
-0.189474
0.0199626
-0.185156
0.021306
-0.180814
0.0226668
-0.176774
-0.173105
0.0240322
0.00328073
-0.056195
0.00729496
-0.136362
0.00994823
-0.177647
0.011251
-0.191834
0.0117724
-0.193033
0.0119813
-0.189683
0.0121056
-0.18528
0.0122339
-0.180943
0.0124024
-0.176942
0.0126
-0.173303
0.00116067
-0.00302535
0.00186468
0.00684688
-0.0120459
0.00635968
0.0164148
-0.0193499
0.00978196
0.0283021
-0.0235865
0.0116991
0.0412196
-0.0254098
0.0124924
0.0543979
-0.0258243
0.012646
0.0674575
-0.0255554
0.0124958
0.0802401
-0.025008
0.0122254
0.0926978
-0.0243792
0.0119216
-0.0239133
0.104976
0.0116353
0.00122329
-0.00424863
0.00698265
-0.0178053
0.0165819
-0.0289491
0.0284512
-0.0354558
0.0413132
-0.0382718
0.0544138
-0.038925
0.0673856
-0.0385272
0.0800779
-0.0377003
0.092449
-0.0367503
-0.0361075
0.104643
0.00131255
-0.00556119
0.00717943
-0.0236721
0.016828
-0.0385977
0.0286765
-0.0473043
0.0414643
-0.0510596
0.0544587
-0.0519194
0.0673087
-0.0513772
0.0798745
-0.0502661
0.0921222
-0.048998
-0.0481795
0.104194
0.00143476
-0.00699595
0.00745001
-0.0296874
0.0171677
-0.0483153
0.0289901
-0.0591267
0.0416804
-0.0637499
0.0545352
-0.0647742
0.0672261
-0.0640681
0.0796273
-0.0626673
0.0917149
-0.0610856
-0.06009
0.103625
0.00159516
-0.00859111
0.00780316
-0.0358954
0.0176084
-0.0581205
0.0293946
-0.070913
0.0419585
-0.0763138
0.0546364
-0.0774521
0.0671296
-0.0765613
0.0793301
-0.0748678
0.091225
-0.0729805
-0.0718003
0.102935
0.00179628
-0.0103874
0.0082388
-0.0423379
0.018142
-0.0680237
0.0298716
-0.0826426
0.0422701
-0.0887123
0.0547267
-0.0899087
0.0669813
-0.088816
0.0789486
-0.086835
0.0906253
-0.0846573
-0.0832687
0.102094
0.00203548
-0.0124229
0.00874164
-0.0490441
0.0187347
-0.0780167
0.0303667
-0.0942747
0.0425413
-0.100887
0.054715
-0.102082
0.0666773
-0.100778
0.078372
-0.0985297
0.0898024
-0.0960876
-0.0944288
0.100962
0.00229632
-0.0147192
0.00926138
-0.0560091
0.0192972
-0.0880526
0.0307525
-0.10573
0.0426074
-0.112742
0.0543986
-0.113874
0.0659728
-0.112352
0.0773054
-0.109862
0.0883983
-0.107181
-0.105109
0.0990782
0.00254426
-0.0172634
0.00970749
-0.0631723
0.0196797
-0.0980248
0.0308194
-0.11687
0.0421956
-0.124118
0.0534308
-0.125109
0.0644285
-0.12335
0.0751914
-0.120625
0.0857039
-0.117693
-0.114943
0.0955384
0.0027704
0.0100622
0.0198607
0.0305416
0.0412623
0.0517222
0.0618733
0.0717499
0.081329
0.0900122
0.155731
-0.144121
0.0933652
0.181606
-0.103256
0.0773818
0.194617
-0.0769309
0.0639196
0.2009
-0.0580126
0.0517299
0.203649
-0.0436386
0.0408888
0.204428
-0.0323031
0.0315245
0.204056
-0.0232036
0.0235761
0.202976
-0.015724
0.0168032
0.201455
-0.00978393
0.0113051
-0.002649
0.0045832
0.154732
-0.194209
0.180643
-0.129167
0.193899
-0.0901869
0.200426
-0.0645394
0.203372
-0.0465854
0.204311
-0.0332415
0.204074
-0.0229672
0.203119
-0.0147689
0.201717
-0.00838189
-0.000837855
0.152989
-0.243004
0.178813
-0.154991
0.192345
-0.103718
0.199208
-0.0714026
0.202464
-0.0498411
0.203684
-0.0344615
0.203711
-0.0229945
0.203011
-0.014069
0.201861
-0.00723197
0.000715059
0.150457
-0.289836
0.176103
-0.180636
0.189952
-0.117567
0.197248
-0.0786992
0.200927
-0.0535196
0.20255
-0.036085
0.202968
-0.0234119
0.202652
-0.0137534
0.201886
-0.00646569
0.00187547
0.147109
-0.33401
0.1725
-0.206028
0.186722
-0.131789
0.194552
-0.0865292
0.198769
-0.0577362
0.200916
-0.0382328
0.201848
-0.0243436
0.202044
-0.0139493
0.201791
-0.00621238
0.00251078
0.142914
-0.37483
0.167988
-0.231102
0.182659
-0.146461
0.191128
-0.0949982
0.195999
-0.0626072
0.198791
-0.0410243
0.200359
-0.0259114
0.20119
-0.0147804
0.201576
-0.00659831
0.00249093
0.137798
-0.411665
0.162512
-0.255816
0.177756
-0.161706
0.186985
-0.104227
0.192631
-0.068253
0.196185
-0.0445781
0.198507
-0.0282338
0.200093
-0.0163667
0.201241
-0.00774596
0.00168921
0.131671
-0.444258
0.155927
-0.280072
0.171948
-0.177727
0.18211
-0.114389
0.188669
-0.0748122
0.193108
-0.0490171
0.196303
-0.0314282
0.198761
-0.0188246
0.200788
-0.00977354
-1.69609e-05
0.124411
-0.473131
0.148054
-0.303715
0.165054
-0.194727
0.176408
-0.125743
0.184081
-0.0824844
0.189556
-0.0544924
0.19375
-0.0356218
0.197196
-0.022271
0.200219
-0.0127961
-0.00274577
0.117086
-0.500204
0.140016
-0.326645
0.157737
-0.212448
0.170171
-0.138177
0.178984
-0.091298
0.18558
-0.0610886
0.190872
-0.0409139
0.195411
-0.0268092
0.199535
-0.0169202
-0.00661037
0.371268
-0.442705
-0.428767
0.341567
-0.296944
0.326815
-0.197697
0.32003
-0.131391
0.316537
-0.0878059
0.314431
-0.0589816
0.313017
-0.0395004
0.312051
-0.0258435
0.311409
-0.0162779
-0.00634619
0.383801
-0.377438
-0.449068
0.351679
-0.264822
0.334975
-0.180992
0.325948
-0.122364
0.320629
-0.0824869
0.317238
-0.0555912
0.314983
-0.037245
0.313486
-0.0243466
0.312526
-0.0153178
-0.00596574
0.398381
-0.315442
-0.460377
0.363593
-0.230034
0.34349
-0.16089
0.331743
-0.110617
0.324541
-0.0752851
0.319907
-0.0509575
0.316849
-0.0341865
0.314846
-0.0223439
0.31358
-0.0140517
-0.0054706
0.40811
-0.257642
-0.465911
0.37253
-0.194454
0.350516
-0.138876
0.336798
-0.0968989
0.328055
-0.0665416
0.32234
-0.0452426
0.31856
-0.0304067
0.316096
-0.0198796
0.314547
-0.0125021
-0.00486749
0.415136
-0.204384
-0.468393
0.379609
-0.158927
0.356339
-0.115606
0.34112
-0.0816805
0.33112
-0.0565413
0.324487
-0.03861
0.32008
-0.0259995
0.317208
-0.0170077
0.315405
-0.0106989
-0.00416638
0.420066
-0.155382
-0.469068
0.385062
-0.123923
0.361003
-0.0915471
0.34468
-0.0653571
0.333691
-0.0455526
0.326309
-0.0312276
0.321377
-0.0210678
0.31816
-0.0137903
0.316138
-0.00867765
-0.00337975
0.423397
-0.109958
-0.468821
0.389084
-0.0896105
0.364564
-0.0670271
0.347461
-0.0482544
0.335731
-0.0338224
0.327767
-0.0232632
0.32242
-0.0157208
0.318925
-0.0102962
0.316727
-0.00647869
-0.00252207
0.425198
-0.0668953
-0.468261
0.391527
-0.0559395
0.366814
-0.0423135
0.349242
-0.0306828
0.337026
-0.0216065
0.328665
-0.0149016
0.323028
-0.0100842
0.319339
-0.00660723
0.317013
-0.00415211
-0.00161248
0.420348
-0.0234388
-0.463804
0.387415
-0.0230066
0.363198
-0.0180967
0.345836
-0.0133207
0.333668
-0.00943906
0.325296
-0.00652963
0.319638
-0.00442573
0.315934
-0.00290347
0.3136
-0.00181822
-0.000699484
0.33307
-0.356509
0.310064
0.291967
0.278646
0.269207
0.262678
0.258252
0.255349
0.25353
0.460136
0.0111495
-0.458685
0.460767
0.0234007
0.460539
0.0352267
0.459425
0.0463648
0.45704
0.0570932
0.454143
0.0658139
0.448392
0.0766334
0.444427
0.080013
0.433228
0.0952476
0.0890177
0.441537
0.00990691
-0.440294
0.442946
0.0219915
0.444413
0.0337602
0.445974
0.0448033
0.447219
0.0558478
0.448746
0.0642871
0.449238
0.0761412
0.450283
0.0789679
0.451295
0.0942359
0.0912452
0.425954
0.00850384
-0.424551
0.428036
0.0199089
0.430718
0.0310781
0.433991
0.0415304
0.43773
0.0521096
0.441858
0.0601588
0.446586
0.0714133
0.450744
0.0748098
0.456691
0.0882885
0.0875599
0.413892
0.0070637
-0.412452
0.416356
0.0174451
0.419805
0.0276287
0.424161
0.0371747
0.429487
0.0467829
0.435335
0.0543108
0.442546
0.064202
0.449242
0.0681147
0.458258
0.0792718
0.0799076
0.404456
0.00559725
-0.402989
0.407193
0.0147081
0.411172
0.0236492
0.416288
0.0320589
0.422657
0.0404143
0.42978
0.0471876
0.438524
0.055458
0.447206
0.0594328
0.458165
0.068313
0.0696794
0.39729
0.00409581
-0.395789
0.400225
0.0117733
0.40457
0.0193039
0.410221
0.0264086
0.417269
0.0333655
0.4253
0.039157
0.434982
0.0457762
0.445011
0.0494034
0.457117
0.0562072
0.0577287
0.392033
0.00254056
-0.390478
0.395131
0.00867523
0.39975
0.0146848
0.405792
0.0203672
0.413296
0.0258612
0.421942
0.0305113
0.432176
0.0355416
0.443071
0.0385082
0.455832
0.0434464
0.0447397
0.387636
0.000822978
-0.385919
0.390974
0.00533758
0.395927
0.00973153
0.402393
0.0139012
0.410346
0.0179083
0.419522
0.021335
0.430151
0.0249129
0.441604
0.0270553
0.454711
0.0303389
0.0311898
0.373487
-0.000796536
-0.371868
0.377243
0.00158127
0.382908
0.00406691
0.390375
0.00643461
0.399536
0.00874648
0.41008
0.0107909
0.422083
0.0129108
0.434896
0.0142416
0.449068
0.0161675
0.0164535
0.265116
-0.265912
0.266697
0.270764
0.277198
0.285945
0.296736
0.309647
0.323888
0.340056
0.0778556
0.125878
-0.114422
-0.0893108
0.0673623
0.12816
-0.117667
0.0575595
0.131006
-0.121203
0.0480438
0.134584
-0.125068
0.0385103
0.138567
-0.129033
0.0288455
0.142522
-0.132857
0.019182
0.144941
-0.135277
0.0101124
0.140711
-0.131642
0.00301257
0.117718
-0.110618
0.0574911
-0.0544786
0.077309
0.13598
-0.0874109
0.0670523
0.138417
0.0569417
0.141117
0.0470719
0.144454
0.0373461
0.148292
0.0276877
0.15218
0.0182115
0.154417
0.00947332
0.14945
0.00276038
0.124431
0.0602515
0.0709604
0.144642
-0.0796224
0.0618599
0.147517
0.0526209
0.150355
0.0434035
0.153671
0.0342337
0.157462
0.025122
0.161292
0.016242
0.163297
0.00819055
0.157501
0.00222366
0.130398
0.0624752
0.0608448
0.151849
-0.0680523
0.0532813
0.155081
0.045435
0.158202
0.037409
0.161697
0.0292765
0.165595
0.0211274
0.169441
0.013225
0.1712
0.00624544
0.164481
0.00141747
0.135226
0.0638926
0.0497688
0.15781
-0.0557296
0.0435801
0.16127
0.0370949
0.164687
0.0303496
0.168442
0.023415
0.172529
0.016423
0.176433
0.00971345
0.177909
0.00403802
0.170156
0.000515232
0.138749
0.0644079
0.0391068
0.162781
-0.0440775
0.0340045
0.166372
0.0286662
0.170025
0.0230931
0.174015
0.0173408
0.178282
0.0115573
0.182216
0.00611056
0.183356
0.00180879
0.174458
-0.000328739
0.140886
0.0640791
0.028867
0.166868
-0.0329549
0.0247149
0.170524
0.0204018
0.174338
0.0159186
0.178499
0.01131
0.18289
0.00673179
0.186794
0.00260616
0.187482
-0.000408843
0.177473
-0.00104103
0.141519
0.0630381
0.0186979
0.17001
-0.0218396
0.0155236
0.173698
0.0122374
0.177625
0.00883846
0.181898
0.00537713
0.186352
0.00201573
0.190156
-0.000840072
0.190337
-0.00221514
0.178848
-0.00170829
0.141012
0.0613298
0.00843489
0.172138
-0.0105631
0.00629158
0.175841
0.00408214
0.179834
0.00181622
0.184164
-0.000456913
0.188625
-0.00254097
0.19224
-0.00395057
0.191747
-0.00404426
0.178942
-0.00230456
0.139272
0.0590253
-0.00176917
0.000604725
-0.00287007
-0.00397859
-0.00509538
-0.00615343
-0.00694691
-0.00703442
-0.00574021
-0.00283023
0.105956
0.0231235
-0.117305
-0.0117748
0.0942635
0.0237339
-0.0120414
0.0822258
0.0243628
-0.0123251
0.0698242
0.0250303
-0.0126287
0.0570427
0.0257397
-0.0129582
0.0438766
0.0264724
-0.0133063
0.0304174
0.0270541
-0.0135949
0.0171784
0.026698
-0.013459
0.00582004
0.0231555
-0.0117971
0.0121819
-0.00636187
0.105079
0.0344369
-0.116392
0.0934373
0.0353752
0.0814634
0.0363368
0.0691384
0.0373553
0.0564457
0.0384323
0.0433809
0.0395372
0.0300378
0.0403972
0.0169323
0.0398036
0.0057183
0.0343695
0.0179002
0.103813
0.045695
-0.115071
0.0922553
0.0469328
0.0803804
0.0482116
0.0681697
0.049566
0.0556065
0.0509956
0.042687
0.0524567
0.0295085
0.0535757
0.0165912
0.0527209
0.00557559
0.0453851
0.0234758
0.102082
0.05687
-0.113257
0.0906439
0.0583704
0.0789092
0.0599463
0.0668581
0.0616171
0.0544732
0.0633805
0.0417516
0.0651783
0.0287961
0.0665311
0.0161336
0.0653834
0.00538306
0.0561356
0.0288589
0.099769
0.0679298
-0.110829
0.0885017
0.0696377
0.0769678
0.0714802
0.0651425
0.0734424
0.0530035
0.0755195
0.040547
0.0776349
0.0278827
0.0791955
0.0155503
0.0777158
0.00515416
0.0665317
0.034013
0.0966852
0.0788132
-0.107569
0.0856575
0.0806654
0.0743948
0.0827429
0.0628699
0.0849672
0.0510589
0.0873305
0.0389574
0.0897364
0.0266807
0.0914722
0.0147784
0.0896182
0.00483492
0.0764751
0.0388479
0.0928922
0.0893463
-0.103425
0.0822996
0.0912581
0.0714855
0.093557
0.0603918
0.0960609
0.0489885
0.0987338
0.0372837
0.101441
0.0254188
0.103337
0.0139722
0.101065
0.0045103
0.0859371
0.0433582
0.0868705
0.099361
-0.0968852
0.0768643
0.101264
0.0667133
0.103708
0.0563387
0.106435
0.0456733
0.109399
0.0346977
0.112417
0.023549
0.114486
0.0128181
0.111796
0.0040469
0.0947082
0.0474051
0.0835708
0.108226
-0.0924355
0.0744268
0.110408
0.0647181
0.113417
0.0545553
0.116598
0.0440491
0.119905
0.0332786
0.123187
0.0224255
0.125339
0.012092
0.122129
0.00376612
0.103034
0.0511713
0.072655
-0.0788517
0.0653963
0.05761
0.04914
0.0400124
0.0303429
0.0204043
0.0108917
0.0033073
0.201577
0.0133233
-0.0169107
0.204178
0.0256795
-0.02828
0.204471
0.0316433
-0.0319367
0.205385
0.0335725
-0.0344864
0.204847
0.0396557
-0.0391174
0.202529
0.048266
-0.0459486
0.196929
0.0604013
-0.0548008
0.186219
0.0767057
-0.0659959
0.162096
0.10254
-0.0784169
0.13881
-0.0940182
0.201346
0.00996727
0.203809
0.0232165
0.204046
0.0314059
0.204892
0.0327262
0.204255
0.0402932
0.201788
0.050733
0.196003
0.0661862
0.184978
0.0877303
0.160721
0.126797
0.183138
0.20099
0.00696717
0.203163
0.0210433
0.203247
0.0313216
0.203891
0.0320829
0.20302
0.0411642
0.200277
0.0534753
0.194208
0.0722555
0.182762
0.0991768
0.1583
0.151259
0.226368
0.200505
0.00445225
0.202244
0.0193039
0.202085
0.0314804
0.202391
0.0317772
0.201154
0.0424017
0.19801
0.0566191
0.191542
0.0787232
0.179563
0.111156
0.154931
0.17589
0.268042
0.199884
0.00255834
0.201057
0.0181307
0.200574
0.0319634
0.200407
0.0319445
0.198672
0.0441362
0.195
0.0602911
0.188002
0.0857209
0.175382
0.123776
0.150951
0.200321
0.308165
0.199119
0.00142878
0.199608
0.017642
0.19873
0.0328418
0.197953
0.0327216
0.195594
0.0464943
0.191265
0.0646201
0.183583
0.093403
0.170205
0.137154
0.146536
0.22399
0.347133
0.198203
0.00121529
0.197907
0.0179383
0.196571
0.0341773
0.195045
0.0342477
0.191943
0.0495965
0.186826
0.0697369
0.178324
0.101906
0.163978
0.1515
0.141605
0.246364
0.385312
0.197127
0.00207789
0.195967
0.0190985
0.19412
0.0360242
0.191704
0.0366639
0.187746
0.0535546
0.181711
0.075772
0.172289
0.111327
0.156753
0.167037
0.135631
0.267485
0.424058
0.195893
0.00417474
0.193816
0.0211759
0.1914
0.0384402
0.187948
0.0401156
0.183028
0.0584741
0.175961
0.0828395
0.165618
0.121669
0.149554
0.183101
0.130111
0.286928
0.461734
0.194623
0.00754161
0.191483
0.0243157
0.188466
0.0414575
0.183755
0.0448267
0.177873
0.0643554
0.169645
0.091068
0.157699
0.133616
0.139924
0.200876
0.119772
0.30708
0.502654
0.303261
0.00629035
0.305767
0.0218104
0.309572
0.0376521
0.311428
0.0429706
0.313968
0.0618158
0.316896
0.0881401
0.321736
0.128775
0.331724
0.190888
0.357793
0.281011
0.443452
0.416995
0.304042
0.00425805
0.30691
0.0189432
0.311116
0.0334462
0.313904
0.0401821
0.317761
0.0579588
0.322899
0.0830024
0.331141
0.120533
0.345991
0.176038
0.376208
0.250794
0.383897
0.435763
0.304798
0.00146994
0.308204
0.0155377
0.312675
0.0289751
0.316348
0.0365092
0.32135
0.0529564
0.328326
0.076027
0.339261
0.109598
0.357273
0.158026
0.390132
0.217935
0.324343
0.449687
0.305575
-0.00209513
0.309509
0.0116043
0.314219
0.0242652
0.31864
0.0320874
0.324665
0.0469315
0.333195
0.0674975
0.346218
0.0965746
0.366534
0.13771
0.400286
0.184183
0.267088
0.457541
0.306414
-0.00649918
0.310836
0.00718273
0.31571
0.0193913
0.320728
0.0270696
0.327621
0.0400379
0.337423
0.0576955
0.352015
0.0819828
0.373972
0.115753
0.407413
0.150741
0.213213
0.461288
0.307382
-0.0118711
0.312222
0.00234296
0.317122
0.0144907
0.322564
0.0216277
0.330158
0.032444
0.340962
0.0468918
0.356699
0.0662455
0.379734
0.0927185
0.412321
0.118155
0.162981
0.462553
0.308532
-0.0183929
0.313698
-0.00282274
0.318428
0.00976019
0.324107
0.0159494
0.332231
0.0243193
0.343784
0.0353391
0.360329
0.0497007
0.383998
0.0690493
0.41561
0.0865422
0.116071
0.46252
0.309914
-0.0262963
0.315237
-0.0081462
0.319497
0.0054999
0.325201
0.0102452
0.333699
0.0158221
0.345777
0.0232606
0.362875
0.0326023
0.386872
0.0450528
0.417638
0.0557765
0.072
0.461709
0.308999
-0.0332854
0.313314
-0.0124608
0.316929
0.00188446
0.322621
0.00455384
0.33134
0.00710279
0.343762
0.0108385
0.361242
0.0151224
0.385364
0.0209308
0.415719
0.0254218
0.0319387
0.45578
0.268725
0.256264
0.258148
0.262702
0.269805
0.280643
0.295766
0.316697
0.342118
0.374057
0.431418
-0.103734
0.435989
-0.0919819
0.43854
-0.0821738
0.441187
-0.0706987
0.444351
-0.0588944
0.447777
-0.0475036
0.451154
-0.0363316
0.454196
-0.0248814
0.456788
-0.0131551
-0.00129247
0.436599
-0.10457
0.436714
-0.0920972
0.435791
-0.0812508
0.435532
-0.0704397
0.435956
-0.0593181
0.436654
-0.0482014
0.437408
-0.0370855
0.438275
-0.0257485
0.439246
-0.014126
-0.00234088
0.443485
-0.0983686
0.438746
-0.0873583
0.434322
-0.0768262
0.430565
-0.0666836
0.427771
-0.056524
0.425794
-0.0462244
0.424509
-0.0358005
0.4239
-0.0251393
0.423933
-0.0141593
-0.00295811
0.447198
-0.088026
0.438744
-0.0789047
0.431525
-0.0696066
0.425429
-0.060588
0.420578
-0.0516732
0.41691
-0.0425558
0.414292
-0.0331826
0.41267
-0.023517
0.412045
-0.0135346
-0.00336479
0.448655
-0.0753925
0.437891
-0.0681411
0.428753
-0.0604687
0.421054
-0.0528884
0.414762
-0.0453815
0.409845
-0.0376389
0.406234
-0.0295718
0.403893
-0.0211754
0.402821
-0.0124626
-0.00353323
0.448665
-0.0615051
0.436517
-0.055993
0.426098
-0.0500495
0.417294
-0.0440839
0.410026
-0.0381142
0.404266
-0.0318784
0.399979
-0.0252847
0.397142
-0.018339
0.39575
-0.0110701
-0.00357234
0.447924
-0.0469088
0.434948
-0.0430173
0.423719
-0.0388201
0.414199
-0.0345642
0.406299
-0.0302146
0.399988
-0.0255669
0.395252
-0.0205485
0.392085
-0.0151726
0.390496
-0.00948121
-0.00355361
0.446605
-0.0318051
0.433039
-0.0294516
0.42127
-0.0270506
0.411258
-0.0245524
0.402905
-0.0218613
0.396185
-0.0188476
0.391106
-0.015469
0.387683
-0.0117494
0.385943
-0.00774134
-0.00352947
0.439392
-0.0154171
0.424922
-0.0149812
0.412311
-0.01444
0.401425
-0.0136658
0.392166
-0.0126021
0.384536
-0.0112177
0.378601
-0.0095343
0.374457
-0.00760529
0.372197
-0.00548156
-0.0031998
0.35864
0.343659
0.329219
0.315553
0.302951
0.291733
0.282199
0.274594
0.269112
0.00842516
0.0696016
-0.0780268
0.0167598
0.171402
-0.179737
0.0204165
0.222382
-0.226039
0.0204993
0.239467
-0.23955
0.018863
0.241443
-0.239807
0.0166426
0.238635
-0.236415
0.0142991
0.234862
-0.232518
0.0120001
0.2307
-0.228401
0.00991564
0.224552
-0.222468
0.211389
0.0083696
-0.209843
0.0100734
0.0595283
0.0225782
0.158897
0.0309259
0.214034
0.0353347
0.235058
0.0376496
0.239128
0.0392522
0.237033
0.04075
0.233364
0.0422034
0.229246
0.0431617
0.223594
0.212189
0.0423619
0.0106996
0.0488287
0.0263744
0.143222
0.0390734
0.201335
0.0478741
0.226258
0.0542982
0.232704
0.059832
0.231499
0.0652655
0.22793
0.0707148
0.223797
0.0754583
0.218851
0.21056
0.0770874
0.0102625
0.0385662
0.0275942
0.125891
0.0436686
0.185261
0.0564331
0.213493
0.0667771
0.22236
0.0760611
0.222215
0.0851916
0.2188
0.0944736
0.214515
0.103454
0.209871
0.204042
0.109971
0.00897995
0.0295862
0.0262616
0.108609
0.0442512
0.167271
0.0600481
0.197696
0.0737404
0.208668
0.0863132
0.209642
0.0986255
0.206488
0.111125
0.202015
0.12377
0.197226
0.192159
0.135653
0.00719968
0.0223866
0.022971
0.0928377
0.0412539
0.148988
0.0587772
0.180173
0.0748591
0.192586
0.0899437
0.194557
0.104659
0.191772
0.119448
0.187226
0.134505
0.182169
0.176676
0.149988
0.00532406
0.0170625
0.0187534
0.0794083
0.0360265
0.131715
0.0539698
0.16223
0.0713337
0.175222
0.0880048
0.177886
0.104269
0.175508
0.120431
0.171064
0.136664
0.165936
0.159885
0.153455
0.00366708
0.0133954
0.0146138
0.0684616
0.0301531
0.116176
0.0474799
0.144903
0.0650253
0.157676
0.0822164
0.160695
0.0989814
0.158743
0.115415
0.154631
0.131664
0.149687
0.143725
0.147824
0.00244891
0.0109465
0.0113421
0.0595685
0.0251066
0.102412
0.0413722
0.128637
0.0584792
0.14057
0.0755893
0.143585
0.0923953
0.141937
0.108863
0.138163
0.125113
0.133437
0.127087
0.141751
0.00167954
0.00926697
0.00912452
0.0521235
0.0213934
0.0901426
0.0364529
0.113578
0.0526481
0.124374
0.0689765
0.127257
0.0849116
0.126002
0.100185
0.12289
0.114535
0.119087
0.113897
0.127725
0.00129042
0.00797655
0.00789994
0.045514
0.01916
0.0788825
0.0332699
0.0994678
0.0486674
0.108977
0.0643637
0.11156
0.0798443
0.110521
0.0949002
0.107834
0.109463
0.104524
0.101391
0.121969
0.00115364
0.00682291
0.00734975
0.0393179
0.0180105
0.0682218
0.0314632
0.0860151
0.0462336
0.0942064
0.0613742
0.0964197
0.0763762
0.0955194
0.0910055
0.0932047
0.10518
0.0903497
0.0883818
0.11819
0.00110586
0.00571705
0.00707278
0.033351
0.0173346
0.0579599
0.0302734
0.0730763
0.044472
0.0800079
0.0590218
0.0818698
0.0734332
0.081108
0.0874744
0.0791635
0.10105
0.0767745
0.0754007
0.114031
0.00108243
0.00463462
0.0069009
0.0275325
0.0168821
0.0479787
0.0294319
0.0605265
0.0431714
0.0662683
0.0572288
0.0678125
0.0711385
0.0671983
0.0846801
0.0656219
0.0977581
0.0636965
0.062687
0.110472
0.00107236
0.00356226
0.00679632
0.0218085
0.0165929
0.0381821
0.0288798
0.0482396
0.0423042
0.052844
0.0560232
0.0540935
0.0695945
0.053627
0.0828131
0.0524033
0.0955959
0.0509136
0.0501789
0.108104
0.00106906
0.0024932
0.00673384
0.0161437
0.0164139
0.028502
0.0285352
0.0361183
0.0417622
0.039617
0.0552734
0.0405823
0.0686453
0.0402552
0.0816873
0.0393612
0.094329
0.0382719
0.0377711
0.106737
0.00107011
0.00142309
0.00669982
0.010514
0.016309
0.0188929
0.0283304
0.0240969
0.0414406
0.0265067
0.0548328
0.0271901
0.0680963
0.0269917
0.0810507
0.0264068
0.0936334
0.0256892
0.025401
0.106004
0.00107702
0.000346067
0.00669166
0.00489939
0.0162614
0.00932311
0.0282241
0.0121342
0.041266
0.0134649
0.05459
0.0138661
0.0677943
0.0137874
0.080705
0.013496
0.0932639
0.0131303
0.0130417
0.105623
0.00109186
-0.000745791
0.00671032
-0.000719076
0.0162639
-0.000230465
0.0281915
0.000206562
0.0411887
0.000467737
0.0544665
0.000588199
0.0676299
0.000624109
0.0805098
0.000616115
0.093051
0.000589158
0.000692622
0.1054
0.00111889
0.00675949
0.016311
0.0282167
0.0411768
0.054411
0.0675309
0.0803724
0.0928831
0.105211
0.13833
0.278297
-0.294658
0.15037
0.120006
-0.132047
0.159834
0.0411013
-0.0505654
0.16716
0.00567253
-0.0129978
0.173323
-0.00820161
0.00203866
0.178819
-0.012332
0.00683535
0.183869
-0.0123365
0.00728683
0.188561
-0.0107165
0.00602423
0.192947
-0.00869662
0.00431115
-0.00572455
0.00177005
0.140928
0.255559
0.156322
0.104611
0.166423
0.0310011
0.173495
-0.00139951
0.17888
-0.013587
0.183409
-0.0168605
0.187393
-0.0163203
0.19097
-0.014294
0.194223
-0.01195
-0.00855502
0.143625
0.225965
0.161636
0.0866003
0.172284
0.0203532
0.179078
-0.00819347
0.183879
-0.0183883
0.187573
-0.0205551
0.19061
-0.0193565
0.193184
-0.0168688
0.195416
-0.0141819
-0.0103688
0.146356
0.190081
0.166412
0.0665443
0.177546
0.00921925
0.184128
-0.0147754
0.18836
-0.02262
0.191313
-0.0235089
0.193509
-0.0215524
0.195196
-0.0185551
0.196521
-0.0155076
-0.0112784
0.14906
0.149125
0.170651
0.0449532
0.182166
-0.00229614
0.188557
-0.0211659
0.192304
-0.0263673
0.194616
-0.0258207
0.196083
-0.0230193
0.196997
-0.0194697
0.197535
-0.0160454
-0.0114011
0.151442
0.104419
0.174285
0.0221107
0.186117
-0.0141281
0.192347
-0.0273959
0.195691
-0.029711
0.197463
-0.0275936
0.198316
-0.0238722
0.19858
-0.0197332
0.198452
-0.0159176
-0.0108581
0.153392
0.0570304
0.177259
-0.00175553
0.18936
-0.0262289
0.195471
-0.0335076
0.198499
-0.0327385
0.199841
-0.028936
0.200199
-0.0242306
0.199936
-0.0194702
0.199269
-0.01525
-0.00977497
0.154844
0.00781006
0.179516
-0.0264285
0.191858
-0.0385704
0.197905
-0.0395551
0.200711
-0.0355439
0.201736
-0.0299607
0.201722
-0.024217
0.201059
-0.0188076
0.199981
-0.0141711
-0.0082802
0.155738
-0.0425279
0.181017
-0.0517074
0.193582
-0.0511351
0.199631
-0.0456044
0.202313
-0.0382262
0.203137
-0.0307839
0.202876
-0.0239565
0.201943
-0.017875
0.200584
-0.012812
-0.00650516
0.156048
0.181723
0.194507
0.200633
0.203295
0.204036
0.203655
0.202584
0.201077
0.137793
0.0098989
-0.147692
0.129726
0.0080666
0.125523
0.00420354
0.124455
0.00106729
0.124987
-0.000532031
0.126031
-0.00104326
0.127063
-0.00103278
0.127892
-0.00082878
0.128464
-0.000571822
-0.000224227
0.233651
0.0772275
-0.30098
0.203315
0.0384035
0.191515
0.0160031
0.188148
0.00443433
0.188212
-0.000595918
0.189458
-0.00228924
0.190891
-0.002466
0.192104
-0.00204209
0.19298
-0.0014475
-0.000584375
0.246711
0.156839
-0.326323
0.212755
0.07236
0.199904
0.0288536
0.196289
0.00804935
0.196363
-0.000669539
0.197679
-0.00360549
0.199196
-0.00398275
0.200483
-0.00332919
0.20142
-0.00238446
-0.000973699
0.24212
0.230142
-0.315423
0.210904
0.103576
0.199365
0.0403917
0.196433
0.0109817
0.196843
-0.00107911
0.198342
-0.00510507
0.199942
-0.00558216
0.201268
-0.00465581
0.202224
-0.00334016
-0.00136963
0.23629
-0.300806
0.207819
0.197646
0.19563
0.196589
0.19832
0.200024
0.201393
0.202364
0.0151125
0.000142556
-0.015255
0.0167981
-0.00168563
0.0202236
-0.00342553
0.0256627
-0.00543909
0.0340697
-0.00840701
0.0461358
-0.0120661
0.0648126
-0.0186768
0.086963
-0.0221505
0.117841
-0.0308783
-0.0298502
0.0426573
-0.000252417
-0.0422624
0.0483721
-0.0074004
0.0597995
-0.0148529
0.0779664
-0.0236059
0.103816
-0.0342564
0.137264
-0.0455148
0.177842
-0.0592543
0.219484
-0.0637922
0.264159
-0.0755534
-0.0666715
0.0660347
-0.00173281
-0.0645543
0.0754111
-0.0167768
0.093268
-0.0327098
0.120152
-0.0504903
0.155067
-0.0691713
0.19518
-0.085628
0.235365
-0.0994388
0.271336
-0.0997631
0.30275
-0.106968
-0.0902441
0.0842364
-0.00446005
-0.0815091
0.0962284
-0.0287688
0.117769
-0.0542501
0.147856
-0.0805779
0.183074
-0.104389
0.218654
-0.121208
0.249071
-0.129856
0.275627
-0.126319
0.297059
-0.128399
-0.108608
0.0973659
-0.0934563
0.110959
0.133796
0.16319
0.194454
0.223234
0.246833
0.268338
0.28169
0.0946907
-0.0894855
0.0977943
-0.102999
0.0857421
-0.0919001
0.100849
0.0764168
-0.095219
0.104544
0.0662292
-0.0986527
0.10884
0.0550393
-0.102095
0.113285
0.0429065
-0.105483
0.117615
0.0300534
-0.108071
0.120924
0.0171187
-0.106456
0.119391
0.00585353
-0.09136
0.102625
-0.0467147
0.0525682
0.105134
-0.0792384
-0.115381
0.0944924
-0.0812588
0.0829817
-0.0837083
0.0707083
-0.0863793
0.0578517
-0.0892387
0.04454
-0.092171
0.0309229
-0.0944538
0.0175231
-0.0930562
0.00598779
-0.0798247
-0.0407269
0.103389
-0.067932
-0.114695
0.0919652
-0.069835
0.0802862
-0.0720293
0.0682998
-0.074393
0.0559365
-0.0768754
0.0431433
-0.0793777
0.0299838
-0.0812943
0.0169638
-0.0800362
0.00574732
-0.0686083
-0.0349796
0.105566
-0.0565404
-0.116958
0.0940246
-0.0582934
0.0821565
-0.0601612
0.0698936
-0.0621301
0.0571954
-0.0641772
0.0440563
-0.0662386
0.0305805
-0.0678185
0.017298
-0.0667537
0.00587995
-0.0571902
-0.0290996
0.106265
-0.0451179
-0.117688
0.0945728
-0.046601
0.0825357
-0.0481241
0.0701276
-0.049722
0.0573277
-0.0513773
0.0441282
-0.0530391
0.0306186
-0.0543089
0.0173095
-0.0534446
0.00586328
-0.045744
-0.0232363
0.10672
-0.033722
-0.118116
0.0950033
-0.0348846
0.0829297
-0.0360505
0.0704767
-0.037269
0.0576245
-0.0385251
0.0443665
-0.0397811
0.0307931
-0.0407355
0.0174171
-0.0400686
0.0059115
-0.0342384
-0.0173249
0.106955
-0.0223397
-0.118337
0.0952225
-0.0231525
0.083125
-0.023953
0.0706431
-0.0247871
0.0577605
-0.0256425
0.0444725
-0.0264931
0.0308695
-0.0271325
0.0174637
-0.0266628
0.00593292
-0.0227076
-0.0113919
0.107013
-0.0109611
-0.118392
0.0952717
-0.0114108
0.083165
-0.0118463
0.070675
-0.0122971
0.0577859
-0.0127534
0.0444931
-0.0132003
0.0308865
-0.013526
0.0174776
-0.0132538
0.00594071
-0.0111707
-0.00545123
0.106874
0.000393187
-0.118228
0.0951359
0.000327173
0.0830368
0.000252791
0.070558
0.000181687
0.0576827
0.000121876
0.0444077
7.46411e-05
0.0308239
5.78407e-05
0.0174393
0.000130763
0.00592677
0.000341834
0.000475541
0.106508
-0.11789
0.0947943
0.082722
0.070275
0.0574386
0.044207
0.0306699
0.0173416
0.00588632
0.0224684
-0.207152
-0.0251596
0.0174513
-0.217451
0.0116897
-0.222639
0.00581433
-0.226643
7.66743e-05
-0.230677
-0.00519079
-0.234539
-0.00906434
-0.235676
-0.0098513
-0.225252
-0.00603976
-0.183548
-0.0840665
0.0527265
-0.20167
-0.0582088
0.0444376
-0.209162
0.0354346
-0.213636
0.0264303
-0.217639
0.0176221
-0.221869
0.00920263
-0.22612
0.00176958
-0.228243
-0.00305628
-0.220426
-0.00332793
-0.183277
-0.0873945
0.0784712
-0.192204
-0.0879375
0.0670644