/*--------------------------------*- C++ -*----------------------------------*\
  =========                 |
  \\      /  F ield         | OpenFOAM: The Open Source CFD Toolbox
   \\    /   O peration     | Website:  https://openfoam.org
    \\  /    A nd           | Version:  13
     \\/     M anipulation  |
\*---------------------------------------------------------------------------*/
FoamFile
{
    format      ascii;
    class       surfaceScalarField;
    location    "0.7";
    object      phi;
}
// * * * * * * * * * * * * * * * * * * * * * * * * * * * * * * * * * * * * * //

dimensions      [0 3 -1 0 0 0 0];

internalField   nonuniform List<scalar> 
823
(
0.0113779
-0.0505542
0.0391764
0.0387589
-0.133435
0.106054
0.0788325
-0.205877
0.165804
0.130172
-0.268869
0.21753
-0.323258
0.259414
0.194016
0.0107031
-0.0612573
0.0361433
-0.158876
0.0726483
-0.242383
0.117973
-0.314194
-0.3756
0.170314
0.00837704
-0.0696344
0.0282851
-0.178784
0.0567257
-0.270823
0.0918106
-0.349279
-0.41605
0.132261
0.00529927
-0.0749337
0.0179956
-0.19148
0.0362296
-0.289057
0.058884
-0.371933
-0.442415
0.0852485
0.00196197
-0.0768956
0.00663004
-0.196148
0.0132897
-0.295717
0.021522
-0.380165
0.0310623
-0.451955
0.00663936
-0.0107551
0.00411561
0.0221693
-0.0309155
0.0153855
0.0453679
-0.0485076
0.025309
0.0745119
-0.0639473
0.0348034
-0.0770376
0.108162
0.0433873
0.00574855
-0.0165038
0.021463
-0.04663
0.0466644
-0.073709
0.0796992
-0.096982
-0.116099
0.118761
0.00639115
-0.0228949
0.0236483
-0.0638872
0.0512167
-0.101277
0.087887
-0.133652
-0.16012
0.131908
0.00753582
-0.0304308
0.0270858
-0.0834371
0.0573125
-0.131504
0.0970153
-0.173355
-0.207898
0.144794
0.00874565
0.031363
0.0656626
0.109838
0.161353
0.322504
-0.957723
0.743382
0.474458
-0.822676
0.670721
0.573924
-0.354423
0.254958
0.615029
-0.0669232
0.0258183
0.00350069
-0.0080671
0.330329
-1.16929
0.471024
-0.963371
0.575776
-0.459175
0.636526
-0.127674
-0.0168085
0.336497
-1.37388
0.46099
-1.08786
0.563278
-0.561464
0.632776
-0.197172
-0.0476459
0.337407
-1.56649
0.448049
-1.1985
0.540654
-0.654068
0.613741
-0.27026
-0.0859774
0.327719
-1.73286
0.428148
-1.29893
0.508722
-0.734642
0.574861
-0.336399
-0.119853
1.19774
-1.5903
-1.3403
1.00782
-1.10901
0.889596
-0.616418
0.836932
-0.283735
-0.0981604
1.32981
-1.13302
-1.7871
0.982024
-0.761225
0.773832
-0.408226
0.683831
-0.193734
-0.0696034
1.18945
-0.607648
-1.71482
0.816296
-0.388071
0.610549
-0.202479
0.515674
-0.098859
-0.0371552
0.82237
-0.185288
-1.24473
0.545345
-0.111046
0.396384
-0.0535187
0.324406
-0.0268813
-0.0109934
0.306717
-0.492004
0.195671
0.142153
0.115271
1.56259
0.0462501
-1.57778
1.52169
0.126156
1.46266
0.191288
1.39633
0.236643
0.250051
1.67586
0.0356514
-1.66526
1.69932
0.102695
1.73081
0.159797
1.76528
0.202172
0.228235
1.38797
0.0184774
-1.37079
1.43706
0.0536078
1.51387
0.0829773
1.61015
0.105893
0.12357
0.977699
0.0053145
-0.964536
1.01588
0.0154232
1.07582
0.0230446
1.15388
0.0278276
0.0327219
0.392987
-0.387673
0.40841
0.431455
0.459283
0.128771
0.327625
-0.264667
-0.191729
0.0781584
0.273214
-0.222601
0.0385243
0.209793
-0.170159
0.0113401
0.136443
-0.109259
0.0519532
-0.0406131
0.115952
0.378905
-0.167232
0.0714975
0.317668
0.0356185
0.245672
0.0105612
0.161501
0.0625143
0.0888492
0.418274
-0.128218
0.0548108
0.351707
0.0272877
0.273195
0.00806496
0.180724
0.0705793
0.0552408
0.443533
-0.0805
0.0337631
0.373184
0.016655
0.290303
0.00486429
0.192514
0.0754436
0.0174806
-0.0259022
0.0104998
0.00508593
0.00145207
0.0726323
0.0873351
-0.107264
-0.0527035
0.0428851
0.0737135
-0.0439662
0.0197334
0.0569431
-0.0337913
0.00513698
0.0368108
-0.0222145
0.0132957
-0.00815873
0.0760193
0.125914
-0.114598
0.0437184
0.106014
0.0196417
0.0810197
0.00508979
0.0513628
0.0183856
0.0843926
0.168567
-0.127046
0.0490845
0.141322
0.0227312
0.107373
0.00617271
0.0679213
0.0245583
0.0940572
0.214684
-0.140175
0.0557702
0.179609
0.0265259
0.136617
0.00742816
0.087019
0.0319865
0.1074
-0.157383
0.0644083
0.0308669
0.00862664
0.513227
0.175351
-0.292598
0.562462
0.161476
-0.210712
0.496813
0.313365
-0.247716
0.334914
0.803196
-0.641297
1.04142
-0.813773
0.513547
0.0577832
0.560167
0.114857
0.487494
0.386038
0.331344
0.959347
1.25817
0.513646
-0.059883
0.54691
0.0815923
0.466922
0.466026
0.328097
1.09817
1.45922
0.510005
-0.173909
0.525584
0.066014
0.441925
0.549685
0.323886
1.21621
1.64293
0.49887
-0.276799
0.494592
0.0702912
0.412717
0.63156
0.312044
1.31688
1.79759
0.764434
-0.437212
0.844913
-0.0101874
0.95642
0.520053
1.16944
1.10386
1.61947
1.34756
0.707389
-0.540581
0.782243
-0.0850416
0.954703
0.347593
1.29774
0.760826
1.14345
1.77376
0.602274
-0.538834
0.63313
-0.115898
0.80357
0.177153
1.17252
0.391874
0.612034
1.70394
0.448456
-0.38327
0.405521
-0.0729628
0.536093
0.0465809
0.816006
0.111961
0.186913
1.24113
0.22075
0.147787
0.194368
0.306329
0.493242
1.40259
-0.246757
1.46574
-0.230385
1.523
-0.185471
1.56316
-0.120662
-0.0405271
1.75266
-0.225655
1.71974
-0.197464
1.69062
-0.156349
1.67084
-0.10088
-0.0349534
1.60147
-0.123191
1.50876
-0.104754
1.43456
-0.0821482
1.38705
-0.0533719
-0.0186949
1.15107
-0.0331328
1.0743
-0.0279883
1.0153
-0.0231434
0.977571
-0.0156449
-0.00566005
0.460109
0.432121
0.408978
0.393333
0.00250153
0.0430084
-0.0455099
0.00732829
0.101056
-0.105882
0.0160959
0.148402
-0.157169
0.0165793
0.151916
-0.152399
0.114033
0.0148148
-0.112269
0.00682876
0.0361796
0.0201789
0.0877056
0.0409598
0.127621
0.0482573
0.144619
0.116387
0.0459038
0.00880979
0.0273698
0.0270781
0.0694372
0.0521532
0.102546
0.0730953
0.123676
0.11404
0.0754416
0.00780171
0.0195681
0.0255148
0.0517241
0.0497507
0.0783098
0.0774339
0.0959932
0.0992478
0.0922264
0.00509908
0.014469
0.0179738
0.0388494
0.0367677
0.0595159
0.0600106
0.0727503
0.0767486
0.0825098
0.00342386
0.0110452
0.0125806
0.0296927
0.0274436
0.0446528
0.0470578
0.0531361
0.0561558
0.0676506
0.00222266
0.0088225
0.00893026
0.0229851
0.0222667
0.0313163
0.0410172
0.0343855
0.0347714
0.0624016
0.00167382
0.00714868
0.0101297
0.0145292
0.0261882
0.0152578
0.0467448
0.0138288
0.0115207
0.0699955
0.00374735
0.00340132
0.01755
0.000726486
0.0368904
-0.00408274
0.0599145
-0.00919539
-0.0143917
0.0858267
0.00751678
0.0236287
0.0448549
0.0704628
0.0994582
0.153817
0.0198038
-0.105971
0.243384
-0.130328
0.0407612
0.264719
-0.038009
0.0166733
0.26971
0.00381547
-0.00880658
-0.00145872
-0.00472026
0.214802
-0.132597
0.325296
-0.240821
0.351417
-0.0641301
0.35389
0.0013434
-0.00402625
0.260145
-0.322747
0.391444
-0.37212
0.433635
-0.10632
0.434738
0.000240166
-0.00188648
0.293417
-0.530338
0.438819
-0.517522
0.502689
-0.17019
0.508602
-0.00567299
0.00357892
0.312502
0.465701
0.550469
0.570614
0.0706698
0.0386762
-0.109346
0.0786441
-0.00797431
0.0829631
-0.00431899
0.0803663
0.00259671
0.00117439
0.194099
-0.261394
0.226886
0.23924
0.233029
0.0207328
-0.00433167
-0.0164011
0.0342835
-0.0135507
0.0567628
-0.0224793
0.085623
-0.0288602
-0.023723
0.0539256
-0.0434424
0.0862786
0.139241
0.202607
0.0478299
-0.0551485
0.0763541
-0.0690355
0.0275573
-0.0521686
0.0724412
0.0123374
-0.0443797
0.0595996
0.00331802
-0.0300416
0.039061
-0.011261
0.014579
0.0453877
-0.0322663
-0.0682699
0.02496
-0.0317409
0.0098222
-0.0292419
0.00218974
-0.0224091
-0.00907127
0.0560596
-0.0066838
-0.0816422
0.0331235
-0.0088048
0.014277
-0.0103954
0.00258843
-0.0107206
-0.00648283
0.0701091
0.0215623
-0.0983552
0.0448341
0.0164703
0.0233664
0.0110723
0.00692194
0.00572393
0.000439106
0.0744249
-0.105566
0.0469291
0.0242102
0.00771968
0.0165859
-0.114031
-0.0148232
0.0160951
-0.151909
0.00730699
-0.148381
0.00248925
-0.101065
-0.0430206
0.0482731
-0.116376
-0.0459284
0.0409337
-0.144569
0.0201648
-0.127612
0.00682156
-0.0877215
-0.0361991
0.0731269
-0.11397
-0.0755329
0.0521255
-0.123568
0.0270664
-0.102553
0.00880672
-0.0694618
-0.0273924
0.0773417
-0.0989717
-0.09234
0.0496229
-0.095849
0.0254345
-0.0783648
0.00777599
-0.0518033
-0.0196164
0.0599526
-0.0825703
0.0365449
0.0177796
0.00503733
0.341913
0.583367
-0.529301
0.280521
0.2251
-0.163707
0.247449
0.0548292
-0.0217576
0.165311
0.11365
-0.0315126
-0.000939377
0.097215
0.407772
0.571575
0.371361
0.261511
0.335636
0.0905533
0.23356
0.215727
0.164351
0.459819
0.507735
0.451384
0.269947
0.409245
0.132692
0.283769
0.341203
0.366479
0.495277
0.408437
0.514539
0.250685
0.461452
0.185779
0.317873
0.484781
0.585997
0.511819
0.551793
0.489856
0.333341
0.158667
0.351384
0.0847693
0.0738977
0.0800228
0.00474651
0.0724319
0.00759093
-0.0369676
0.109399
0.332134
0.242325
0.225314
0.201392
0.261639
0.085673
0.0237265
0.0567947
0.0288783
0.0342946
0.0225001
0.0207363
0.0135583
0.00433516
0.202795
0.139333
0.0863006
0.0539305
)
;

boundaryField
{
    left
    {
        type            calculated;
        value           nonuniform List<scalar> 
17
(
-0.60402
-0.60402
-0.60402
-0.60402
-0.60402
-0.39598
-0.39598
-0.39598
-0.39598
-0.39598
-0.39598
-0.39598
-0.39598
-0.39598
-0.39598
-0.510051
-0.510051
)
;
    }
    right
    {
        type            calculated;
        value           nonuniform List<scalar> 
17
(
0.0791919
0.229484
0.275889
0.356457
0.432598
0.503137
0.566126
0.619595
0.656836
0.663614
0.652073
0.608737
0.815239
0.655274
0.483225
0.298244
0.104278
)
;
    }
    down
    {
        type            calculated;
        value           uniform 0;
    }
    up
    {
        type            calculated;
        value           uniform 0;
    }
    cylinder
    {
        type            calculated;
        value           uniform 0;
    }
    defaultFaces
    {
        type            empty;
    }
}


// ************************************************************************* //
