# Selection   : all
# Cells       : 1800
# Volume      : 7.372328e+01
# Time        	max(p)
0.75          	1.196698e+00
0.775         	1.799721e+00
0.8           	1.852414e+00
