/*--------------------------------*- C++ -*----------------------------------*\
  =========                 |
  \\      /  F ield         | OpenFOAM: The Open Source CFD Toolbox
   \\    /   O peration     | Website:  https://openfoam.org
    \\  /    A nd           | Version:  13
     \\/     M anipulation  |
\*---------------------------------------------------------------------------*/
FoamFile
{
    format      ascii;
    class       volScalarField;
    location    "10.7";
    object      p;
}
// * * * * * * * * * * * * * * * * * * * * * * * * * * * * * * * * * * * * * //

dimensions      [0 2 -2 0 0 0 0];

internalField   nonuniform List<scalar> 
440
(
-0.626132
-0.60713
-0.63062
-0.574044
-0.656252
-0.65898
-0.644087
-0.62696
-0.60313
-0.590574
-0.764328
-0.73513
-0.702433
-0.66298
-0.619193
-0.887638
-0.842215
-0.766871
-0.6764
-0.585068
-0.982229
-0.921799
-0.787689
-0.647029
-0.516868
-1.28372
-1.271
-1.25817
-1.25066
-1.25128
-1.17486
-1.18492
-1.21572
-1.26345
-1.32913
-0.899014
-0.909854
-0.940318
-0.991368
-1.0354
-0.697576
-0.69769
-0.699346
-0.692582
-0.670405
-0.52271
-0.523869
-0.513854
-0.464436
-0.422017
-1.01334
-1.50237
-1.03643
0.0870916
0.06116
-0.955123
-1.40253
-1.25833
0.0713351
0.0460793
-0.800699
-1.25585
-1.27571
0.0377212
0.0374332
-0.57698
-1.11143
-1.17532
-0.0023734
0.0299875
-0.460463
-1.11666
-1.05288
-0.0572818
0.0237498
-0.212086
-1.03544
-0.852967
-0.133239
-0.026961
-0.174226
-0.792406
-0.594576
-0.169998
-0.0490808
-0.128747
-0.550124
-0.403098
-0.172488
-0.0443175
-0.0168012
-0.401986
-0.356917
-0.164384
-0.0523568
0.0300202
-0.222759
-0.332709
-0.199311
-0.058678
-0.289585
-0.4146
-0.549973
-0.703044
-0.766303
-0.0571266
-0.186524
-0.251323
-0.293999
-0.280341
0.0916515
-0.00974077
-0.070863
-0.113749
-0.138912
0.185358
0.093198
0.0214642
-0.0191825
-0.0457565
0.228925
0.136999
0.0618676
0.0233659
0.000485621
0.935689
0.797645
0.622326
0.42552
0.205831
0.552852
0.401499
0.215025
0.00406071
-0.230321
0.172291
0.0169217
-0.176832
-0.399883
-0.605708
-0.150751
-0.310873
-0.504135
-0.712712
-0.870048
-0.374413
-0.528166
-0.704427
-0.887197
-0.987939
2.06191
2.0939
2.12445
2.14201
2.14242
1.88714
1.90965
1.9281
1.93066
1.91289
1.67215
1.66448
1.63575
1.58548
1.51062
1.42433
1.39322
1.32909
1.23535
1.11355
1.1839
1.09108
0.967985
0.822716
0.646005
1.80623
1.7989
1.78078
1.84602
1.93991
1.79773
1.78809
1.7647
1.82774
1.86128
1.79029
1.77443
1.74565
1.79762
1.76113
1.78417
1.75825
1.72453
1.75483
1.60688
1.77932
1.74078
1.70186
1.7092
1.44205
1.77624
1.71482
1.67235
1.61063
1.25217
1.77611
1.68391
1.66265
1.4968
1.29344
1.78338
1.66846
1.65554
1.43768
1.28626
1.77879
1.64315
1.65144
1.38605
1.27782
1.81717
1.63589
1.65054
1.3579
1.28666
0.907047
0.637666
0.319739
0.0569968
-0.141106
0.836978
0.649316
0.433085
0.246124
0.0702374
0.848556
0.686901
0.520722
0.362709
0.213926
0.889491
0.73611
0.586132
0.439238
0.307206
0.923101
0.773016
0.628261
0.48343
0.35375
-1.8786
-1.70019
-1.50363
-1.33964
-1.24035
-1.96568
-1.88025
-1.71832
-1.57395
-1.47414
-1.8922
-1.83497
-1.72019
-1.60538
-1.50699
-1.73719
-1.68729
-1.62188
-1.54678
-1.46829
-1.58162
-1.55559
-1.51999
-1.47801
-1.43275
-1.50384
-1.49761
-1.46814
-1.49058
-1.43618
-1.44726
-1.43956
-1.41713
-1.42835
-1.39089
-1.44234
-1.43164
-1.42113
-1.41875
-1.42959
-1.41645
-1.41295
-1.41914
-1.44189
-1.48325
-1.34134
-1.32762
-1.31306
-1.30511
-1.30733
-1.21248
-1.10561
-0.24158
0.228311
0.112254
-1.25234
-1.24054
-0.3024
0.108438
0.0917458
-1.27966
-1.35679
-0.174975
0.0371842
0.081176
-1.26385
-1.43616
-0.223754
0.0327956
0.0816338
-1.10081
-1.5079
-0.638965
0.0709685
0.0803278
-0.659324
-1.13002
-0.314607
0.376723
0.13982
-1.04987
-1.08019
-0.203782
0.359826
0.134863
-1.18286
-1.4038
-1.41769
-1.32405
-1.06334
-1.20496
-1.42049
-1.43666
-1.3665
-1.30052
1.62343
1.59254
1.54266
1.47462
1.38495
1.83183
1.84835
1.84783
1.8284
1.79077
2.01033
2.04092
2.06293
2.0717
2.06558
2.11807
2.15676
2.19747
2.23008
2.24417
2.135
2.17302
2.21566
2.25175
2.26868
-0.73714
-0.858397
-1.04788
-1.27413
-1.54975
-0.0781456
-0.229651
-0.430951
-0.674178
-0.991762
0.524229
0.367416
0.17951
-0.0426105
-0.327464
1.00938
0.886678
0.737859
0.556885
0.334114
1.39653
1.30916
1.19575
1.0601
0.899395
1.86412
1.82371
1.80532
1.80366
1.79891
1.84948
1.82193
1.80614
1.82508
1.87273
1.83721
1.81879
1.80687
1.848
1.95796
1.82592
1.81424
1.80214
1.85729
1.97611
1.81558
1.80791
1.79319
1.8568
1.97635
1.91871
1.82779
1.78998
1.72231
1.65894
1.87392
1.8194
1.78618
1.74638
1.67163
1.27018
1.0206
0.592874
-0.024927
-0.699166
1.36043
1.05793
0.610837
-0.00329954
-0.691684
)
;

boundaryField
{
    left
    {
        type            zeroGradient;
    }
    right
    {
        type            fixedValue;
        value           uniform 0;
    }
    down
    {
        type            zeroGradient;
    }
    up
    {
        type            zeroGradient;
    }
    cylinder
    {
        type            zeroGradient;
    }
    defaultFaces
    {
        type            empty;
    }
}


// ************************************************************************* //
