/*--------------------------------*- C++ -*----------------------------------*\
  =========                 |
  \\      /  F ield         | OpenFOAM: The Open Source CFD Toolbox
   \\    /   O peration     | Website:  https://openfoam.org
    \\  /    A nd           | Version:  13
     \\/     M anipulation  |
\*---------------------------------------------------------------------------*/
FoamFile
{
    format      ascii;
    class       volScalarField;
    location    "0.335";
    object      strainRateViscosityModel:nu;
}
// * * * * * * * * * * * * * * * * * * * * * * * * * * * * * * * * * * * * * //

dimensions      [0 2 -1 0 0 0 0];

internalField   nonuniform List<scalar> 
440
(
9.4196
8.96965
8.54433
8.04232
7.5863
9.68998
9.35816
8.98172
8.48001
7.87564
9.80076
9.53085
9.15877
8.5851
7.84832
9.84963
9.61819
9.25864
8.6476
7.86612
9.86918
9.65609
9.30595
8.68099
7.90883
1.29048
1.78457
2.04392
2.29426
2.35809
3.372
3.30194
3.3203
3.4309
3.50185
5.88898
5.27235
4.93227
4.73518
4.76556
7.76954
6.99361
6.42158
5.90789
5.83117
8.82081
8.15123
7.55201
6.91885
6.87286
1.84551
0.829307
0.346943
0.0606622
0.0145955
2.62348
0.921226
0.300462
0.0386426
0.0103632
3.52197
1.17893
0.267912
0.0304222
0.0103257
4.09717
1.47245
0.268647
0.0251188
0.0103402
4.60677
1.79052
0.339513
0.0201422
0.0102846
4.23565
1.7672
0.266597
0.0182872
0.0913466
3.7064
1.7969
0.528275
0.306976
0.461452
4.9156
3.20236
1.20382
0.616844
0.652804
7.01008
4.29021
1.89278
0.9622
0.844311
8.27287
5.07979
2.4968
1.39242
1.05115
2.84885
3.68352
4.62125
5.50782
6.15188
3.68378
3.69607
3.77096
3.85037
3.366
8.22683
8.08687
7.79956
7.38533
6.34527
9.05299
8.99247
8.85918
8.62169
8.16041
9.60671
9.56995
9.48701
9.33802
9.11875
7.50419
8.01257
8.55921
9.01082
9.46437
7.79417
8.45146
8.98692
9.37782
9.7087
7.77896
8.55892
9.15933
9.54076
9.80946
7.81625
8.62754
9.25738
9.62276
9.8536
7.89136
8.67369
9.30537
9.65745
9.87035
2.49634
2.43771
2.23852
2.08523
2.00794
3.47142
3.42183
3.45739
3.67034
4.20585
4.64682
4.66706
5.05022
5.59251
6.4349
5.69494
5.83408
6.5005
7.18751
8.03835
6.75829
6.84511
7.58145
8.24301
8.93558
0.157575
0.0459189
0.223012
0.793988
1.98963
0.119774
0.0617968
0.184254
0.840772
2.6547
0.0982086
0.0785528
0.163167
1.07918
3.4586
0.0898112
0.0909855
0.183361
1.40997
3.96462
0.105547
0.11141
0.287403
1.76101
4.38314
0.177056
0.148473
0.276076
1.88722
4.1169
0.313115
0.167138
0.211803
1.74688
3.85143
0.627137
0.356714
0.794552
3.02072
4.90039
2.2561
0.888731
1.52914
4.15876
6.96096
5.0486
2.59193
2.45429
5.04424
8.27884
5.95343
5.27124
4.40569
3.51233
2.78074
3.51811
3.98702
3.96801
3.87473
3.7633
6.31953
7.35229
7.77949
8.0682
8.21887
8.12176
8.60031
8.8497
8.98877
9.05212
9.11681
9.33773
9.48737
9.57049
9.60695
9.31047
7.91614
1.39838
3.62927
7.73603
9.08133
7.43994
3.20539
1.64012
6.78813
8.39783
6.5766
4.20766
1.00332
4.14648
6.81431
5.0934
3.45417
1.70071
1.03801
4.50247
3.14399
2.03792
1.37783
0.460547
2.59643
1.61839
1.00272
0.79792
0.927614
1.45366
0.778836
0.580607
0.614481
0.687423
0.796101
0.403285
0.587621
0.756074
0.829697
0.302077
0.498271
0.874731
1.03916
1.10076
0.156259
0.925917
1.26853
1.50306
1.55694
0.192034
0.360697
0.694901
0.77701
0.774945
0.397714
0.492784
0.556638
0.619796
0.633511
0.610337
0.632279
0.432368
0.453857
0.474535
0.952502
0.77092
0.375907
0.285294
0.319734
1.31482
0.815664
0.368343
0.135007
0.098946
1.10649
0.864478
1.12066
1.13654
1.09087
0.282221
0.475972
0.857598
0.934667
0.916996
9.19071
8.83803
7.75779
5.72909
3.55901
8.58664
7.72201
5.85038
3.49009
0.864626
0.967948
0.863286
1.03006
1.62025
2.65729
0.820475
0.775334
0.710842
0.826384
1.5203
1.05974
1.01088
0.848196
0.554175
0.729188
1.36475
1.32711
1.13013
0.783413
0.219177
1.8168
1.77033
1.5213
1.20885
0.586197
7.73556
3.62616
1.39971
7.91438
9.31062
6.78426
1.63977
3.20221
7.43682
9.08196
4.13238
1.01087
4.19366
6.57192
8.39937
1.03515
1.70702
3.43252
5.08406
6.82074
0.477806
1.37799
2.01435
3.12577
4.52523
1.29386
0.589925
0.561779
0.458322
0.179265
0.653664
0.340849
0.467718
0.524121
0.493624
0.368681
0.216299
0.363397
0.618048
0.804324
0.268555
0.0520177
0.318488
0.747068
1.20276
0.21247
0.0303743
0.268001
0.796823
1.54718
5.47627
2.48325
1.06594
0.983408
1.14432
2.87668
1.12067
0.746249
0.56778
0.248583
3.56861
5.73504
7.75899
8.83856
9.19086
0.840241
3.46989
5.8436
7.72064
8.58649
)
;

boundaryField
{
    left
    {
        type            calculated;
        value           nonuniform List<scalar> 
17
(
0.409233
1.06327
2.15676
3.90786
6.57899
0.280929
0.183108
0.145248
0.145403
0.196758
2.95246
2.04166
1.2884
0.773252
0.467336
6.97734
4.57767
)
;
    }
    right
    {
        type            calculated;
        value           nonuniform List<scalar> 
17
(
1.09125
0.917955
0.775635
0.633835
0.473445
0.31519
0.0929439
0.0131748
0.0101533
0.0101028
0.0101004
0.0111001
0.118057
0.515847
0.692723
0.862125
1.04291
)
;
    }
    down
    {
        type            calculated;
        value           nonuniform List<scalar> 
20
(
5.99057
3.01628
1.17467
1.06645
1.85316
4.26988
6.38279
8.13048
9.01524
9.30886
9.30869
9.0146
8.12901
6.37859
4.26301
1.83124
0.939019
1.18789
1.19525
1.14154
)
;
    }
    up
    {
        type            calculated;
        value           nonuniform List<scalar> 
20
(
8.5485
5.40689
2.72373
1.53192
1.11518
9.69562
9.66614
9.59855
9.47417
9.29332
9.2962
9.47636
9.60013
9.66724
9.69603
5.69725
3.18904
2.69382
5.3994
8.56496
)
;
    }
    cylinder
    {
        type            calculated;
        value           nonuniform List<scalar> 
40
(
1.35037
3.57469
6.11538
7.96054
8.95729
9.50519
9.74579
9.8408
9.88146
9.89746
9.54767
9.7629
9.84857
9.88497
9.89849
2.24146
4.48007
6.68101
8.23151
9.0702
3.04362
1.84512
1.07609
0.424641
0.596276
9.51875
9.33147
8.74155
7.26848
4.98501
9.51858
9.33073
8.73952
7.26026
4.9563
2.96515
1.73044
1.06713
0.663081
0.104163
)
;
    }
    defaultFaces
    {
        type            empty;
    }
}


// ************************************************************************* //
