/*--------------------------------*- C++ -*----------------------------------*\
  =========                 |
  \\      /  F ield         | OpenFOAM: The Open Source CFD Toolbox
   \\    /   O peration     | Website:  https://openfoam.org
    \\  /    A nd           | Version:  13
     \\/     M anipulation  |
\*---------------------------------------------------------------------------*/
FoamFile
{
    format      ascii;
    class       volVectorField;
    location    "71.3";
    object      U;
}
// * * * * * * * * * * * * * * * * * * * * * * * * * * * * * * * * * * * * * //

dimensions      [0 1 -1 0 0 0 0];

internalField   nonuniform List<vector> 
440
(
(-0.251855 0.213206 -1.25876e-20)
(-0.268361 0.235956 -3.08767e-19)
(-0.0594874 0.081296 -2.73109e-20)
(0.334464 0.0459303 1.02728e-20)
(0.357781 0.0819446 -4.27615e-21)
(-0.0703969 0.0542601 1.55172e-20)
(0.0596473 0.082126 4.38224e-20)
(0.51235 0.028206 5.47787e-20)
(1.02422 0.00454676 -3.2547e-20)
(1.4945 -0.0125592 -4.12756e-20)
(-0.0292707 0.0139806 4.35066e-20)
(0.424833 -0.0233188 5.60502e-19)
(1.15027 -0.0117058 -2.88034e-19)
(1.73965 0.0111973 -9.26727e-19)
(2.25638 0.0297731 4.7885e-19)
(0.173438 -0.0398183 -1.58274e-19)
(1.08845 0.00569286 -4.6806e-19)
(1.85746 0.0802928 1.45143e-18)
(2.30451 0.129714 1.65707e-18)
(2.42229 0.150092 -4.43151e-19)
(0.503315 -0.00814913 -2.7662e-19)
(1.63533 0.178445 -5.75109e-19)
(2.19425 0.267111 1.75259e-18)
(2.34369 0.287289 1.89409e-18)
(2.40405 0.265433 6.46398e-19)
(0.0290674 -0.284667 -1.01249e-19)
(0.109971 -0.596148 -2.12397e-19)
(0.160227 -0.693647 3.16373e-19)
(0.168819 -0.641061 -1.62952e-20)
(0.114488 -0.514013 -6.24836e-20)
(0.111392 -0.363108 1.43037e-19)
(0.28649 -0.701831 5.48452e-19)
(0.321414 -0.727298 -4.71924e-22)
(0.275785 -0.566802 -8.70851e-21)
(0.153768 -0.320911 2.58306e-20)
(0.278646 -0.530604 3.13088e-19)
(0.48484 -0.848856 1.3457e-19)
(0.453843 -0.78789 5.04931e-21)
(0.35284 -0.57181 -2.74943e-19)
(0.201909 -0.296888 -6.55146e-21)
(0.410642 -0.657432 3.72387e-19)
(0.374039 -0.898742 -5.54364e-19)
(0.167598 -0.810293 6.65039e-19)
(-0.0284138 -0.676384 8.92576e-19)
(-0.170909 -0.488592 9.22272e-20)
(-0.06714 -0.150416 2.41128e-19)
(-0.37946 -0.429427 4.66457e-19)
(-0.574558 -0.601089 7.12552e-19)
(-0.6667 -0.605882 -1.00797e-19)
(-0.734331 -0.502345 8.77388e-19)
(0.0879703 0.114649 3.28121e-18)
(-0.949168 1.20001 -2.90797e-19)
(1.08786 0.0413454 7.18026e-19)
(1.0821 -1.08091 8.67875e-19)
(1.21522 -0.615988 -8.33648e-20)
(-0.0350273 0.41811 -1.9777e-18)
(-1.1841 1.05166 1.62083e-19)
(1.41193 -0.302331 2.15259e-19)
(1.36782 -1.07939 -5.1801e-19)
(1.2811 -0.62884 1.18327e-19)
(0.506669 0.278395 -1.07921e-18)
(-0.447574 0.855952 -1.85676e-18)
(1.65166 -0.549798 -1.21576e-19)
(1.55384 -1.0571 -3.56952e-19)
(1.32088 -0.597554 1.57281e-20)
(-0.0132468 0.363368 1.79909e-19)
(-0.16877 0.801907 4.29808e-19)
(1.99365 -0.712844 -9.8497e-20)
(1.73243 -1.02377 1.3132e-19)
(1.35442 -0.562757 8.26287e-20)
(-0.53406 -0.0998125 -3.7728e-19)
(0.377928 0.496553 2.52359e-18)
(2.3156 -0.79886 0)
(1.9271 -0.936864 -2.10817e-19)
(1.37484 -0.4982 1.97037e-20)
(1.23864 -0.144055 -1.83093e-19)
(1.50033 0.0450355 -4.98186e-19)
(2.53981 -0.884361 -7.71434e-21)
(2.06822 -0.824898 3.24233e-20)
(1.41311 -0.417557 -6.69753e-20)
(1.90563 0.101573 1.10754e-20)
(2.26277 0.0755978 7.18862e-19)
(2.61687 -0.823961 -1.47649e-21)
(1.84884 -0.640836 1.5804e-19)
(1.18609 -0.243239 0)
(1.89649 -0.0215735 -1.06302e-19)
(2.58984 -0.21663 -1.38837e-20)
(2.30322 -0.63153 7.35411e-19)
(1.57054 -0.376329 -4.88006e-20)
(1.11995 -0.155344 -3.44582e-20)
(1.98634 0.00620475 1.8716e-20)
(2.40468 -0.155535 9.0933e-20)
(1.86155 -0.441694 1.36752e-20)
(1.11035 -0.224948 -3.7999e-34)
(0.734919 -0.0553071 4.46729e-20)
(1.51154 -0.0436702 1.17859e-19)
(1.3326 -0.148378 7.68076e-20)
(0.543598 -0.0106288 -1.33604e-19)
(0.135462 -0.000253028 -1.59258e-21)
(-0.0495681 -0.0160584 1.21578e-20)
(2.33341 0.263119 -8.00986e-19)
(2.4845 0.0916394 -1.01951e-18)
(2.41484 0.0803689 7.64511e-19)
(2.5118 -0.035581 2.8999e-20)
(2.0082 0.000853986 -7.74287e-20)
(2.14037 0.125189 6.7135e-20)
(2.25778 0.131856 -3.8596e-20)
(2.25973 -0.0572316 -1.24593e-19)
(2.31582 -0.0076118 -2.26181e-19)
(2.29054 -0.267068 -4.57119e-21)
(2.09054 0.0324807 7.33586e-20)
(2.09599 0.114426 8.90422e-20)
(2.20134 -0.081142 -1.09688e-19)
(2.13892 0.00613812 3.69399e-20)
(2.26058 -0.172859 3.2335e-20)
(2.00687 -0.0049336 1.10862e-19)
(2.01005 0.059999 1.44118e-19)
(2.12252 -0.0615316 -1.80096e-20)
(2.0702 -7.72629e-05 -6.42595e-20)
(2.20212 -0.104765 2.63713e-20)
(1.43039 -0.0123984 1.7504e-19)
(1.47745 -0.00785031 -1.15145e-20)
(1.46421 -0.022719 1.81929e-20)
(1.48939 -0.0178973 -3.20389e-20)
(1.48277 -0.0328369 -1.26402e-20)
(1.54299 0.854626 1.00391e-18)
(1.50595 0.94801 -2.96062e-19)
(1.50328 1.06869 -1.2125e-18)
(1.43292 1.1083 6.79837e-19)
(0.883094 0.795998 -1.72487e-19)
(1.80374 0.795913 -5.31219e-19)
(1.78138 0.878234 -2.81367e-18)
(1.78992 0.98531 -1.09235e-18)
(1.701 0.990237 -3.90081e-19)
(1.03454 0.681463 -6.22303e-19)
(2.09231 0.696549 7.11368e-19)
(2.07542 0.758952 1.83917e-19)
(2.05637 0.837161 -2.16758e-18)
(1.91674 0.818067 -5.88027e-19)
(1.1139 0.524511 4.24163e-19)
(2.23392 0.573382 2.18652e-18)
(2.23733 0.623341 1.5836e-18)
(2.22926 0.667407 -1.81139e-18)
(2.00044 0.616663 -1.34658e-18)
(1.06682 0.337256 -2.37523e-19)
(2.39473 0.425041 1.03056e-18)
(2.38779 0.445384 -7.42173e-19)
(2.28617 0.459737 5.31735e-19)
(1.9302 0.393857 4.07966e-19)
(0.863519 0.139113 -3.35978e-19)
(0.579708 0.384529 -7.24048e-19)
(0.491069 0.415897 -5.98976e-19)
(0.371599 0.447873 8.08399e-20)
(0.230523 0.455154 -2.99357e-20)
(0.0560512 0.328602 6.52268e-20)
(0.670436 0.563506 5.56848e-20)
(0.606039 0.620558 -3.23151e-19)
(0.51667 0.687498 1.69306e-19)
(0.388861 0.74233 -7.82021e-20)
(0.165453 0.567468 1.12305e-19)
(0.769271 0.758182 2.03551e-19)
(0.694529 0.835052 4.00701e-19)
(0.634047 0.931498 5.26035e-20)
(0.547893 0.984095 -2.6873e-19)
(0.298882 0.736044 2.17057e-19)
(1.03765 0.853968 2.0657e-19)
(0.987133 0.940686 -5.96971e-19)
(0.932293 1.03913 -1.75263e-18)
(0.845428 1.1045 7.17421e-19)
(0.497777 0.824844 -1.76604e-19)
(1.15208 0.890584 -1.34088e-19)
(1.16381 1.00962 -2.08235e-19)
(1.17547 1.12674 -3.13763e-19)
(1.11714 1.16538 -3.67298e-19)
(0.686714 0.846949 -6.08419e-21)
(1.00961 0.0516355 -8.28392e-20)
(0.989261 0.00792254 -3.12374e-20)
(1.05116 0.111578 -1.37244e-21)
(0.944409 0.114228 -2.23332e-19)
(0.889371 0.227166 2.90098e-19)
(0.996524 0.0510468 5.11469e-20)
(1.00483 0.001009 1.15331e-19)
(1.0412 0.121357 9.82156e-20)
(0.968847 0.143758 2.48113e-20)
(0.923096 0.303902 2.39608e-20)
(1.00092 0.0504561 6.7818e-20)
(0.994219 -0.0079772 -4.48835e-21)
(1.0853 0.137957 -4.47662e-21)
(0.912926 0.15127 1.52968e-19)
(1.11971 0.440562 -4.04436e-19)
(0.994149 0.0500697 -3.93559e-22)
(1.01953 -0.019891 -1.709e-19)
(1.07838 0.161745 -5.63967e-20)
(0.981922 0.161313 -3.67311e-19)
(1.17121 0.477931 8.73585e-20)
(0.992631 0.0410065 -1.10629e-20)
(1.03017 -0.0177427 5.19358e-20)
(1.11521 0.16839 2.82063e-20)
(0.965055 0.183017 4.41285e-19)
(1.38911 0.609411 -3.99453e-19)
(0.955321 0.0395004 -2.99613e-21)
(1.11282 -0.0455637 1.0354e-19)
(1.08666 0.204081 -7.55055e-20)
(1.16676 0.134742 8.16018e-19)
(1.33929 0.615913 -3.85821e-19)
(0.901508 0.00483339 -1.5894e-21)
(1.21825 -0.0427122 -8.50593e-20)
(0.972521 0.154825 4.44527e-21)
(1.2711 0.108939 -2.87361e-19)
(1.40798 0.395077 2.53432e-20)
(0.974738 -0.0166793 -2.65812e-21)
(1.15002 -0.0376879 1.20047e-35)
(0.99224 0.152183 -2.54769e-20)
(1.26638 0.0244321 8.66228e-20)
(1.399 0.292122 1.46019e-19)
(1.11027 -0.0644331 4.03947e-21)
(0.908709 -0.0257102 -2.77265e-20)
(1.15081 0.0837012 1.73803e-20)
(1.21313 -0.00810881 3.06631e-20)
(1.36487 0.175847 -2.07575e-19)
(0.996701 -0.0247684 -4.3106e-20)
(0.69708 -0.0153666 -5.28085e-21)
(0.979307 0.00172516 1.80188e-20)
(0.825536 -0.0158473 -1.30099e-20)
(1.01731 0.0580297 -4.62713e-20)
(1.73968 0.666854 3.04182e-19)
(1.8563 0.643056 7.17763e-19)
(2.08024 0.553234 -1.0026e-18)
(2.1566 0.489684 3.44989e-20)
(2.34142 0.324103 4.31191e-19)
(1.67492 0.495103 3.63055e-20)
(1.76319 0.417768 9.28491e-19)
(1.89597 0.42117 8.87081e-20)
(1.97683 0.290119 -8.56231e-19)
(2.10403 0.270446 -2.73513e-19)
(1.62423 0.374485 -1.90613e-19)
(1.72489 0.269907 -1.39103e-19)
(1.81063 0.306502 2.27825e-19)
(1.92686 0.153432 -2.82886e-19)
(1.98202 0.210359 2.56913e-19)
(1.62136 0.216148 3.03825e-19)
(1.6841 0.143733 -2.21338e-21)
(1.7823 0.170021 2.15807e-19)
(1.85717 0.0680549 1.89272e-19)
(1.91846 0.115778 -1.83136e-19)
(1.2375 0.0522405 -3.59035e-20)
(1.27514 0.0338988 2.10546e-19)
(1.36028 0.0283912 1.02459e-19)
(1.37241 0.0074374 -2.16939e-19)
(1.44054 0.00618921 3.46193e-22)
(1.40252 -0.0383847 7.4519e-20)
(2.5175 -0.0216889 -5.98538e-19)
(2.74036 -0.0153251 1.60276e-18)
(2.72168 0.0361547 7.41551e-19)
(2.47591 0.0473112 -4.99416e-19)
(0.922583 0.103763 1.56009e-19)
(2.30374 0.126296 -6.27219e-19)
(2.73917 0.134154 -8.88129e-19)
(2.73987 0.146466 1.19359e-18)
(2.55403 0.143247 -8.64164e-19)
(0.294123 0.103133 -2.77951e-20)
(1.67405 0.212502 7.2787e-19)
(2.46569 0.263635 1.19504e-19)
(2.80093 0.273526 1.1961e-18)
(2.78224 0.252421 6.74406e-19)
(-0.0411945 -0.0151496 2.66102e-19)
(0.729901 0.1557 2.93819e-19)
(1.68017 0.274388 -8.38317e-19)
(2.26242 0.346528 7.57075e-20)
(2.80362 0.381368 6.38341e-19)
(-0.125098 -0.0990712 2.06477e-19)
(0.0782439 -0.00165154 -2.44531e-19)
(0.755338 0.162151 -9.21372e-20)
(1.31101 0.261122 1.50577e-19)
(2.02515 0.444071 6.64458e-20)
(-0.0963433 -0.106904 2.26791e-20)
(-0.129923 -0.122359 1.71321e-19)
(0.146369 -0.079898 8.04409e-20)
(0.352989 -0.0298749 -4.76693e-20)
(1.16772 0.209782 6.99546e-21)
(-0.0670118 -0.107206 -1.38633e-20)
(-0.140344 -0.233284 -1.28727e-19)
(-0.0765988 -0.278562 -2.64645e-20)
(0.000272898 -0.252232 -1.4069e-20)
(0.391269 0.0128252 9.48792e-21)
(-0.0524464 -0.13567 -1.23742e-22)
(-0.0998887 -0.322313 3.30663e-19)
(-0.0841567 -0.386333 -1.79241e-19)
(-0.0272854 -0.360711 -3.58518e-19)
(0.0813968 -0.193429 7.07103e-20)
(-0.0371352 -0.191403 -1.52105e-20)
(-0.0534638 -0.430392 -7.83938e-20)
(-0.0280071 -0.532935 1.1639e-19)
(0.0329243 -0.533851 -2.21345e-19)
(0.0776826 -0.45722 3.34073e-20)
(-0.013034 -0.243635 7.64751e-21)
(0.00230941 -0.522808 -1.91047e-20)
(0.0342902 -0.641851 3.09896e-21)
(0.0669063 -0.639428 -1.8082e-20)
(0.0694361 -0.559217 6.06863e-20)
(1.64541 0.749938 -1.0354e-19)
(1.23968 0.495759 -2.95517e-19)
(-0.575103 0.157969 1.88213e-20)
(0.0681194 -0.440691 9.17656e-19)
(0.924817 -0.227604 1.02358e-20)
(1.44316 0.764485 3.97567e-20)
(0.902774 0.753853 1.5697e-18)
(-0.654865 0.179929 5.32912e-19)
(0.169146 -0.721099 2.85245e-20)
(0.947635 -0.352537 -2.2546e-21)
(1.46091 0.631268 -1.13238e-19)
(1.21848 0.997485 2.99422e-18)
(-0.150629 0.235286 5.47761e-20)
(0.521337 -0.855425 -1.0891e-18)
(1.00934 -0.439002 -6.24669e-21)
(1.14877 0.231212 2.73412e-19)
(1.33138 1.17397 -4.05247e-18)
(0.325865 0.326449 4.08604e-19)
(0.751004 -0.968219 1.7114e-20)
(1.11853 -0.508587 -9.5606e-20)
(0.504439 0.145642 -1.42789e-19)
(0.3066 1.32345 -1.43925e-19)
(0.683498 0.292695 -5.88169e-20)
(0.831799 -1.05556 -7.48068e-20)
(1.1695 -0.570908 -2.17563e-19)
(-0.251258 0.123707 -5.696e-20)
(-0.476639 -0.190023 0)
(-0.744837 -0.127545 -5.95593e-20)
(-0.0083079 -0.118174 6.34307e-21)
(0.495008 -0.0338267 -1.00892e-20)
(1.80732 0.708326 0)
(1.26176 0.386537 0)
(-0.163466 -0.000485596 1.62208e-19)
(0.229267 -0.259768 -3.57325e-19)
(0.862186 -0.132004 -2.64855e-20)
(0.792968 0.00670066 -1.39499e-19)
(0.86538 -0.00328538 2.89661e-19)
(1.04396 0.0445922 -4.20793e-20)
(0.911109 0.00470341 4.06208e-19)
(1.37366 0.204078 2.59883e-19)
(1.78481 0.0432826 1.3416e-19)
(2.01846 0.0874508 4.54352e-19)
(2.12865 0.157679 -8.19135e-19)
(2.54818 0.267087 2.61731e-19)
(2.53608 0.369255 4.85818e-19)
(0.991019 -0.543742 4.83908e-20)
(0.980635 -0.644219 -2.2577e-19)
(0.980284 -0.753833 -2.13055e-19)
(0.916229 -0.832499 1.25671e-19)
(0.565638 -0.662437 1.50735e-19)
(0.887424 -0.455368 1.04198e-19)
(0.832302 -0.527597 1.18127e-19)
(0.756179 -0.60502 -1.26293e-19)
(0.638855 -0.67363 1.54123e-19)
(0.356003 -0.540489 3.41805e-20)
(0.690202 -0.320863 -1.12986e-19)
(0.597628 -0.366877 -6.10837e-20)
(0.497011 -0.425764 -3.15255e-20)
(0.382804 -0.478365 -6.09428e-20)
(0.181916 -0.380894 -1.42898e-19)
(0.581096 -0.088021 -4.40974e-19)
(0.497199 -0.11066 -3.53574e-19)
(0.388895 -0.145403 2.90642e-19)
(0.260424 -0.186824 1.45451e-19)
(0.0836681 -0.165943 1.33312e-20)
(0.544342 0.118981 -1.39743e-19)
(0.459135 0.117222 -1.59998e-19)
(0.34164 0.112032 -3.7876e-20)
(0.201845 0.110001 5.99912e-20)
(0.036326 0.0806836 1.53617e-20)
(2.28982 -0.0265703 1.01195e-18)
(2.5107 -0.104364 3.72429e-19)
(2.60854 -0.200376 -9.421e-19)
(2.49248 -0.226011 -2.02313e-18)
(1.54877 -0.22815 1.48148e-19)
(2.19305 -0.134699 1.67948e-18)
(2.32136 -0.252839 2.18109e-18)
(2.35238 -0.38525 1.8046e-19)
(2.28774 -0.449658 3.11708e-19)
(1.50398 -0.427136 -2.08438e-19)
(1.92849 -0.310337 -4.26164e-18)
(1.97541 -0.43602 4.90688e-19)
(2.01536 -0.572625 1.35096e-18)
(1.97445 -0.660134 -5.48813e-19)
(1.30996 -0.587971 8.70933e-19)
(1.65166 -0.445179 1.04857e-18)
(1.67174 -0.553083 -2.74861e-18)
(1.67406 -0.68414 -3.18623e-18)
(1.61931 -0.786139 1.00668e-18)
(1.06172 -0.671298 6.49449e-19)
(1.35407 -0.515787 2.411e-19)
(1.30502 -0.618284 2.95583e-19)
(1.29174 -0.750479 -4.90076e-19)
(1.23825 -0.850118 -5.96219e-19)
(0.794324 -0.693914 -5.77424e-21)
(1.05951 0.0538266 6.97554e-21)
(0.936822 0.0435085 5.73005e-22)
(1.13908 0.068622 6.67353e-21)
(0.830867 -0.0140789 -2.604e-19)
(1.20958 -0.251785 -2.01617e-20)
(1.0692 0.0570958 -2.35278e-21)
(0.931263 0.0376994 2.8708e-20)
(1.13354 0.0863743 -4.5566e-22)
(0.905915 0.0253988 2.09321e-19)
(1.06343 -0.136033 2.48309e-21)
(1.06682 0.0545302 -5.61151e-20)
(0.933848 0.02932 1.26808e-22)
(1.11707 0.0886694 -5.0128e-21)
(0.897405 0.0436945 9.86959e-20)
(1.01604 -0.0790997 -2.7002e-19)
(1.04832 0.0535721 6.67924e-20)
(0.95849 0.0217891 2.67163e-21)
(1.07781 0.0942221 1.94921e-20)
(0.936979 0.0698262 -3.288e-20)
(0.892429 0.0325604 6.25082e-20)
(1.02357 0.0514658 1.64387e-20)
(0.984075 0.0166067 -2.46712e-20)
(1.04794 0.100599 2.98253e-20)
(0.954682 0.0957629 5.28874e-20)
(0.853473 0.125533 -1.15627e-20)
(0.886498 0.0334924 0)
(0.717798 0.0270507 8.21709e-21)
(0.632304 0.0210009 6.47329e-21)
(0.380337 -0.0111224 5.58256e-20)
(0.762815 -0.0643021 -1.79362e-19)
(1.02841 0.0735145 -6.22128e-20)
(0.947184 0.0636864 -9.23721e-22)
(1.05296 0.0713697 -6.41591e-20)
(0.840783 -0.012231 -1.53268e-19)
(1.12526 -0.229354 -1.86304e-19)
(1.07436 -0.0678852 -4.10283e-20)
(1.16603 -0.0376955 6.13477e-19)
(1.28029 0.0380363 3.69809e-19)
(1.14154 0.0651268 2.85847e-20)
(0.892785 0.0356782 0)
(1.43502 -0.340016 4.08236e-19)
(1.56514 -0.299148 1.77986e-18)
(1.76937 -0.173652 -1.95901e-18)
(1.86734 -0.0209792 -6.27715e-19)
(1.82149 0.0400929 4.63433e-19)
)
;

boundaryField
{
    left
    {
        type            fixedValue;
        value           uniform (1 0 0);
    }
    right
    {
        type            zeroGradient;
    }
    down
    {
        type            noSlip;
    }
    up
    {
        type            noSlip;
    }
    cylinder
    {
        type            noSlip;
    }
    defaultFaces
    {
        type            empty;
    }
}


// ************************************************************************* //
