# Selection   : all
# Cells       : 440
# Volume      : 7.374263e+01
# Time        	min(p)
9.72          	-1.782320e+00
9.765         	-1.779688e+00
9.815         	-1.787277e+00
