/*--------------------------------*- C++ -*----------------------------------*\
  =========                 |
  \\      /  F ield         | OpenFOAM: The Open Source CFD Toolbox
   \\    /   O peration     | Website:  https://openfoam.org
    \\  /    A nd           | Version:  13
     \\/     M anipulation  |
\*---------------------------------------------------------------------------*/
FoamFile
{
    format      ascii;
    class       volScalarField;
    location    "0.4825";
    object      p;
}
// * * * * * * * * * * * * * * * * * * * * * * * * * * * * * * * * * * * * * //

dimensions      [0 2 -2 0 0 0 0];

internalField   nonuniform List<scalar> 
1800
(
-1.12742
-1.11997
-1.07882
-1.00109
-0.904762
-0.807835
-0.718854
-0.639628
-0.569448
-0.51195
-1.32345
-1.31494
-1.26721
-1.17849
-1.06989
-0.961394
-0.862158
-0.774308
-0.698138
-0.635536
-1.51006
-1.50006
-1.44502
-1.34494
-1.22417
-1.10432
-0.99485
-0.897815
-0.813005
-0.740946
-1.68236
-1.67035
-1.60759
-1.49643
-1.36453
-1.23481
-1.11673
-1.01207
-0.92038
-0.841873
-1.83437
-1.81976
-1.74868
-1.62659
-1.48434
-1.3457
-1.21984
-1.10823
-1.0102
-0.925257
-1.96134
-1.94359
-1.86401
-1.7317
-1.58047
-1.43451
-1.30246
-1.18538
-1.08234
-0.992449
-2.05821
-2.03678
-1.94865
-1.80699
-1.64823
-1.49652
-1.35973
-1.2385
-1.13166
-1.03796
-2.12108
-2.09557
-1.99926
-1.84948
-1.68492
-1.52922
-1.38926
-1.26528
-1.1559
-1.05955
-2.14663
-2.11678
-2.01298
-1.85652
-1.68804
-1.53012
-1.38858
-1.26328
-1.15263
-1.05481
-2.13273
-2.09858
-1.98818
-1.8268
-1.65637
-1.49798
-1.3564
-1.23111
-1.12034
-1.02211
0.317895
0.324731
0.335641
0.349268
0.361806
0.370913
0.376105
0.37782
0.376732
0.3734
0.269198
0.275864
0.287528
0.30311
0.31848
0.330739
0.339028
0.343633
0.345201
0.344444
0.192725
0.199204
0.212041
0.230629
0.25033
0.267391
0.280387
0.28938
0.294978
0.298151
0.0898017
0.0962796
0.110716
0.133338
0.158805
0.182217
0.201408
0.216152
0.227015
0.235339
-0.0374238
-0.0310616
-0.014472
0.0132283
0.0458124
0.076981
0.103689
0.125367
0.142552
0.157069
-0.186773
-0.180018
-0.160884
-0.127136
-0.0862158
-0.0460742
-0.0107461
0.0188269
0.0431711
0.0646903
-0.354351
-0.34775
-0.325474
-0.284725
-0.234404
-0.184325
-0.139553
-0.101404
-0.0693204
-0.0403273
-0.536555
-0.530058
-0.504169
-0.455693
-0.395293
-0.334761
-0.280178
-0.233224
-0.193213
-0.156833
-0.729068
-0.722473
-0.692329
-0.635281
-0.564095
-0.492634
-0.427977
-0.372125
-0.324119
-0.280849
-0.927513
-0.920575
-0.88531
-0.818376
-0.734993
-0.651169
-0.574931
-0.508467
-0.450642
-0.399991
0.339116
0.270273
0.212682
0.168389
0.133203
0.104115
0.0785477
0.0550503
0.0326988
0.010878
0.32646
0.264224
0.210057
0.16689
0.132064
0.103178
0.0778001
0.0545022
0.0323557
0.0107475
0.305858
0.25426
0.205761
0.164708
0.130655
0.102144
0.0770357
0.0539673
0.0320282
0.0106224
0.276764
0.240456
0.199769
0.161806
0.128958
0.101004
0.0762454
0.0534387
0.0317124
0.0105018
0.23843
0.222934
0.192058
0.158145
0.126953
0.0997452
0.0754206
0.0529101
0.0314047
0.0103851
0.190068
0.201882
0.182616
0.153681
0.124616
0.0983578
0.0745539
0.0523755
0.0311016
0.0102719
0.131042
0.177649
0.171552
0.1484
0.12193
0.0968326
0.0736386
0.0518294
0.0308001
0.0101623
0.0600863
0.150096
0.159005
0.142337
0.118892
0.0951674
0.0726721
0.0512684
0.0304982
0.0100569
-0.0246178
0.117683
0.144404
0.135232
0.115369
0.0933038
0.0716287
0.0506798
0.0301907
0.00995669
-0.117789
0.081089
0.128094
0.127199
0.111339
0.0912029
0.0704821
0.0500471
0.0298678
0.00986165
-0.17138
0.0479665
0.108887
0.115773
0.104551
0.0870919
0.0679438
0.0485041
0.0290497
0.0096491
-0.186714
0.0143557
0.0820911
0.0978615
0.0932885
0.0800486
0.0635156
0.0457872
0.0275783
0.00918734
-0.18552
-0.00601851
0.0630804
0.0833259
0.0832326
0.0734141
0.0592302
0.0431238
0.0261202
0.00872551
-0.180993
-0.0235291
0.0455462
0.0696501
0.0735973
0.0669724
0.0550397
0.0405091
0.0246801
0.00826352
-0.172378
-0.0358006
0.0311199
0.0576257
0.0647707
0.0609292
0.0510604
0.0380091
0.0232933
0.00781402
-0.162957
-0.0449422
0.0189889
0.0470844
0.0568194
0.0553875
0.0473742
0.0356776
0.0219886
0.007386
-0.1548
-0.0519856
0.0088225
0.0379909
0.0498261
0.0504461
0.0440593
0.0335663
0.0207931
0.00698656
-0.149504
-0.0581583
0.000158239
0.0302651
0.0438577
0.0462021
0.0411959
0.0317308
0.0197382
0.00662936
-0.145369
-0.0635919
-0.007379
0.0236599
0.0387884
0.0425991
0.0387573
0.0301531
0.0187989
0.0062912
-0.15156
-0.0697839
-0.0130421
0.0193414
0.0356097
0.0403636
0.0372506
0.0291802
0.0182124
0.00608057
-0.856431
-0.888423
-0.896857
-0.882947
-0.848639
-0.796172
-0.729501
-0.649327
-0.562714
-0.468874
-0.678062
-0.709769
-0.722749
-0.718199
-0.696859
-0.661807
-0.614749
-0.558071
-0.497281
-0.433396
-0.54201
-0.573162
-0.588585
-0.589713
-0.576362
-0.552524
-0.517758
-0.476099
-0.430088
-0.380712
-0.437321
-0.467925
-0.484883
-0.489652
-0.481743
-0.465116
-0.43854
-0.406633
-0.370271
-0.331314
-0.357906
-0.387894
-0.405863
-0.412979
-0.408888
-0.397003
-0.376263
-0.351054
-0.321509
-0.289732
-0.297515
-0.32724
-0.346083
-0.354901
-0.353628
-0.345001
-0.328407
-0.307721
-0.282804
-0.255781
-0.252851
-0.282638
-0.302275
-0.312392
-0.313207
-0.306858
-0.293185
-0.27553
-0.253844
-0.230042
-0.220953
-0.251563
-0.272193
-0.28345
-0.285855
-0.281124
-0.26944
-0.253742
-0.234175
-0.212812
-0.204898
-0.235026
-0.256522
-0.269178
-0.273038
-0.269465
-0.258755
-0.243329
-0.22376
-0.200462
-0.193521
-0.226376
-0.25019
-0.265352
-0.272252
-0.271802
-0.264564
-0.25198
-0.234386
-0.211479
0.466225
0.413286
0.352141
0.28603
0.213191
0.131225
0.0398309
-0.0551614
-0.135015
-0.169069
0.272702
0.215505
0.150694
0.0785092
-0.00312082
-0.0960702
-0.199975
-0.30788
-0.398501
-0.436295
0.0643204
0.00252074
-0.0669305
-0.145008
-0.233856
-0.335276
-0.448759
-0.566796
-0.666878
-0.706941
-0.132514
-0.200842
-0.277487
-0.363666
-0.461379
-0.572417
-0.696063
-0.824086
-0.934273
-0.975034
-0.313244
-0.38909
-0.473873
-0.569001
-0.676491
-0.79815
-0.932887
-1.07081
-1.19084
-1.23061
-0.479401
-0.562159
-0.654524
-0.758122
-0.875023
-1.00697
-1.15294
-1.30123
-1.42566
-1.46552
-0.630374
-0.718696
-0.817418
-0.928311
-1.05344
-1.19442
-1.34963
-1.50929
-1.63095
-1.67284
-0.763053
-0.855676
-0.959478
-1.07627
-1.20806
-1.35626
-1.52052
-1.68226
-1.80459
-1.8466
-0.873569
-0.969573
-1.07729
-1.19854
-1.33543
-1.48928
-1.65767
-1.8214
-1.94173
-1.98264
-0.96042
-1.05841
-1.16844
-1.29253
-1.43263
-1.5898
-1.76022
-1.92414
-2.04011
-2.0782
1.63957
1.65368
1.66959
1.6855
1.7004
1.71367
1.72452
1.73248
1.7388
1.74402
1.5873
1.59939
1.61281
1.6259
1.63766
1.64746
1.65452
1.65856
1.66153
1.66495
1.51483
1.52409
1.53397
1.54298
1.55025
1.55507
1.55666
1.55506
1.55321
1.55409
1.42267
1.42841
1.4338
1.43762
1.43914
1.43759
1.43216
1.42332
1.41528
1.41295
1.31173
1.31339
1.31352
1.31121
1.3059
1.29675
1.28294
1.26543
1.24995
1.2438
1.18369
1.18093
1.17511
1.16576
1.15258
1.13463
1.11112
1.08361
1.05955
1.04918
1.04109
1.03367
1.02152
1.00454
0.982702
0.955025
0.920754
0.882123
0.848485
0.833545
0.890352
0.877489
0.857535
0.831293
0.79922
0.760281
0.713779
0.662708
0.618548
0.598894
0.737024
0.71868
0.690206
0.653611
0.610024
0.558363
0.498086
0.433136
0.3774
0.352751
0.593803
0.560839
0.517185
0.466809
0.40999
0.344727
0.270293
0.191367
0.124051
0.0946614
1.48241
1.39274
1.49978
1.38731
1.41616
1.42163
1.42798
1.45271
1.49585
1.58122
1.47664
1.38762
1.4948
1.38137
1.40961
1.41358
1.41765
1.43873
1.47533
1.54721
1.47131
1.38258
1.49009
1.37481
1.40266
1.40477
1.40583
1.4221
1.44948
1.50148
1.46643
1.37767
1.48563
1.36765
1.39537
1.39519
1.39251
1.40271
1.4183
1.44357
1.46199
1.37294
1.48143
1.35992
1.38776
1.38481
1.37767
1.38042
1.38177
1.3728
1.45853
1.36843
1.47743
1.35168
1.3799
1.3736
1.36128
1.35511
1.33983
1.28858
1.455
1.36418
1.47359
1.34299
1.37181
1.36152
1.34328
1.32665
1.29214
1.18986
1.45194
1.36026
1.46978
1.33397
1.36349
1.34851
1.32358
1.29495
1.23842
1.07877
1.44937
1.35676
1.46587
1.3248
1.35497
1.3346
1.30221
1.25977
1.17755
0.9524
1.44755
1.35382
1.46165
1.31568
1.34614
1.31985
1.27953
1.22263
1.11269
0.823772
1.44553
1.35053
1.45631
1.30693
1.33338
1.30102
1.25011
1.17546
1.03987
0.703805
1.44561
1.34676
1.45164
1.29882
1.31858
1.28082
1.21951
1.13039
0.978486
0.660881
1.44529
1.34374
1.44788
1.29125
1.30506
1.26208
1.19176
1.09172
0.929622
0.628903
1.44915
1.34198
1.44484
1.28451
1.2929
1.2451
1.16715
1.05917
0.890054
0.607378
1.4554
1.34158
1.44245
1.27875
1.28228
1.23024
1.1461
1.03242
0.859278
0.594799
1.46455
1.34255
1.44067
1.27402
1.27334
1.21769
1.12874
1.01114
0.83634
0.588096
1.47689
1.34453
1.43937
1.27027
1.2662
1.20759
1.11511
0.99492
0.820073
0.585544
1.49686
1.34865
1.43916
1.26751
1.26095
1.20006
1.1052
0.98344
0.809497
0.586448
1.5118
1.34828
1.4365
1.26544
1.2578
1.19517
1.09904
0.976547
0.803594
0.590464
1.56568
1.3583
1.43861
1.26293
1.25738
1.19259
1.09617
0.973172
0.801193
0.59306
0.439129
0.273448
0.0918047
-0.077387
-0.231676
-0.37487
-0.506946
-0.624473
-0.723478
-0.800999
0.380084
0.252654
0.113574
-0.0203963
-0.145514
-0.263327
-0.373431
-0.472807
-0.558483
-0.62773
0.355163
0.252229
0.142047
0.0308374
-0.0760128
-0.177214
-0.272227
-0.358782
-0.434089
-0.495855
0.352506
0.261885
0.168216
0.0723154
-0.0212003
-0.109841
-0.193259
-0.269944
-0.33741
-0.393638
0.359674
0.276758
0.193985
0.109313
0.0253642
-0.0549537
-0.130854
-0.201119
-0.263592
-0.316382
0.37117
0.293672
0.217889
0.140592
0.0630285
-0.0117298
-0.0824922
-0.148237
-0.207112
-0.257314
0.383604
0.310104
0.239006
0.166595
0.0933123
0.0222482
-0.0451594
-0.107977
-0.164567
-0.213272
0.395775
0.32485
0.256824
0.187401
0.116635
0.047722
-0.0177477
-0.0788738
-0.134086
-0.181776
0.410021
0.340824
0.273878
0.204924
0.134398
0.0655765
8.85031e-05
-0.0611467
-0.116702
-0.165048
0.423595
0.357934
0.291727
0.222195
0.151492
0.0824111
0.0162461
-0.0458769
-0.102442
-0.152012
-3.21384
-3.15571
-3.00166
-2.80323
-2.60841
-2.43719
-2.29245
-2.17249
-2.07606
-2.00337
-3.29467
-3.24703
-3.10887
-2.91763
-2.72264
-2.54856
-2.40069
-2.27789
-2.17951
-2.10697
-3.27503
-3.23831
-3.11785
-2.93571
-2.7408
-2.56312
-2.4113
-2.28501
-2.18345
-2.10776
-3.15987
-3.13349
-3.03068
-2.8585
-2.66375
-2.48168
-2.32484
-2.19419
-2.08864
-2.00775
-2.95828
-2.94101
-2.85419
-2.69282
-2.49956
-2.31383
-2.15211
-2.01702
-1.90752
-1.82164
-2.68261
-2.67258
-2.59914
-2.45001
-2.26198
-2.07624
-1.91237
-1.77478
-1.66281
-1.57506
-2.35053
-2.34506
-2.28262
-2.14803
-1.97144
-1.79259
-1.63242
-1.49696
-1.38557
-1.29921
-1.98561
-1.98136
-1.92782
-1.80988
-1.65122
-1.48725
-1.33812
-1.21074
-1.10506
-1.02376
-1.61347
-1.60867
-1.56291
-1.46302
-1.32726
-1.18505
-1.05422
-0.941503
-0.84721
-0.777994
-1.25646
-1.25118
-1.21231
-1.12998
-1.01829
-0.90042
-0.790842
-0.695182
-0.612155
-0.548756
-0.931673
-0.924874
-0.892466
-0.826249
-0.737659
-0.644632
-0.558702
-0.48484
-0.422076
-0.367905
-0.645692
-0.638339
-0.611484
-0.558819
-0.489781
-0.417977
-0.352071
-0.295657
-0.248407
-0.205424
-0.399744
-0.39234
-0.370015
-0.328178
-0.27468
-0.219785
-0.16983
-0.12719
-0.0917601
-0.0590904
-0.192494
-0.185198
-0.166527
-0.133467
-0.0926151
-0.0516775
-0.0151537
0.0155056
0.0405236
0.0632315
-0.0218715
-0.0147695
0.00103122
0.0270755
0.0577858
0.0874288
0.112953
0.133603
0.149775
0.16376
0.114194
0.121009
0.134695
0.155386
0.178316
0.19924
0.216206
0.228967
0.238047
0.244978
0.217129
0.223872
0.236044
0.252855
0.270122
0.284666
0.295326
0.302215
0.305944
0.307542
0.288113
0.294948
0.306117
0.320377
0.333899
0.344201
0.350643
0.353573
0.353656
0.35161
0.328093
0.335008
0.345657
0.358585
0.370138
0.378192
0.382377
0.383174
0.381272
0.377223
0.337794
0.344716
0.355284
0.368016
0.379264
0.386944
0.390745
0.391166
0.388899
0.38445
-0.0502563
0.116665
0.149668
0.147555
0.13226
0.110946
0.087321
0.0628118
0.0379017
0.0127309
0.0548064
0.15207
0.1642
0.153532
0.133428
0.110324
0.0861923
0.061746
0.0371749
0.0124811
0.1386
0.18046
0.175767
0.157406
0.134186
0.109681
0.0851361
0.0607602
0.0365046
0.0122492
0.201673
0.204169
0.18586
0.161097
0.134784
0.109055
0.084157
0.0598516
0.0358872
0.0120341
0.250102
0.224639
0.194545
0.164078
0.135173
0.108431
0.0832423
0.0590124
0.0353183
0.0118342
0.286885
0.24171
0.201573
0.16637
0.135366
0.107801
0.0823828
0.058236
0.034794
0.0116481
0.313667
0.255137
0.206982
0.168021
0.135363
0.107152
0.0815682
0.0575155
0.0343104
0.0114744
0.331682
0.264822
0.210804
0.169046
0.135155
0.106473
0.0807879
0.0568439
0.0338632
0.0113118
0.341713
0.270564
0.213035
0.169451
0.134734
0.10575
0.0800313
0.0562139
0.0334484
0.011159
0.344159
0.272385
0.213667
0.169236
0.134088
0.104968
0.0792881
0.0556185
0.0330617
0.0110148
-0.265055
-0.00801464
0.089607
0.120089
0.121375
0.10764
0.0871342
0.0636663
0.0388258
0.0131542
-0.241337
0.0144175
0.0987219
0.124146
0.122536
0.107921
0.0871148
0.0635523
0.0387014
0.0130977
-0.201276
0.0323484
0.107317
0.12807
0.124248
0.108477
0.0871724
0.0634377
0.0385599
0.0130298
-0.15967
0.0559396
0.119092
0.133611
0.126683
0.109387
0.0873839
0.0633848
0.0384461
0.0129715
-0.115574
0.0868206
0.135561
0.141603
0.13014
0.110618
0.0877322
0.0633875
0.0383579
0.0129233
-1.93844
-2.03926
-2.05021
-1.97457
-1.82053
-1.625
-1.38136
-1.15043
-0.911393
-0.690874
-1.93587
-2.0342
-2.03988
-1.95882
-1.80181
-1.60376
-1.35751
-1.1204
-0.887314
-0.665186
-1.93788
-2.03632
-2.03842
-1.95099
-1.78656
-1.57612
-1.32222
-1.06867
-0.832579
-0.623108
-1.94758
-2.04812
-2.04821
-1.95339
-1.77775
-1.54814
-1.2834
-1.01708
-0.78387
-0.586932
-1.96617
-2.06916
-2.06744
-1.96534
-1.77797
-1.5321
-1.25762
-0.985541
-0.746762
-0.537567
1.05743
1.03513
1.0046
0.969066
0.928878
0.882076
0.827322
0.76774
0.716586
0.692806
1.18745
1.18071
1.16605
1.14522
1.1193
1.08716
1.04786
1.004
0.966367
0.949399
1.31308
1.3116
1.30502
1.29409
1.27923
1.2595
1.23395
1.20431
1.1789
1.16806
1.42351
1.42696
1.42774
1.42557
1.42033
1.41115
1.39713
1.37937
1.36399
1.35819
1.51661
1.52396
1.53017
1.53456
1.53669
1.53574
1.53084
1.52256
1.51534
1.51382
1.58945
1.60006
1.61079
1.62055
1.62864
1.63432
1.63675
1.63604
1.63522
1.637
1.64136
1.65445
1.66858
1.68232
1.69482
1.70541
1.71326
1.71815
1.72205
1.72624
1.67227
1.687
1.70338
1.71975
1.73516
1.74896
1.76037
1.76892
1.77586
1.78159
1.68222
1.69768
1.71509
1.7327
1.74946
1.76477
1.77785
1.78811
1.79646
1.80286
1.67129
1.68654
1.70379
1.72122
1.7378
1.75292
1.7658
1.77586
1.78399
1.79021
-1.80638
-1.88145
-1.97707
-2.09429
-2.23572
-2.40374
-2.59723
-2.79975
-2.96635
-3.03296
-1.53226
-1.60994
-1.70524
-1.81981
-1.95728
-2.12018
-2.30823
-2.51375
-2.68872
-2.75915
-1.20324
-1.28193
-1.37661
-1.48857
-1.62143
-1.77813
-1.95892
-2.15315
-2.33768
-2.40798
-0.842806
-0.921519
-1.01491
-1.12358
-1.2506
-1.39897
-1.56941
-1.75452
-1.92888
-2.00356
-0.476618
-0.555144
-0.646104
-0.749738
-0.868889
-1.00675
-1.16481
-1.33638
-1.49357
-1.56582
-0.132671
-0.207994
-0.293198
-0.388428
-0.496531
-0.620798
-0.762862
-0.916473
-1.05486
-1.12065
0.1739
0.106868
0.0317776
-0.0514474
-0.145656
-0.25403
-0.378033
-0.511791
-0.630757
-0.688031
0.448859
0.392886
0.329884
0.259878
0.179975
0.0872467
-0.0193408
-0.134116
-0.234743
-0.283128
0.707177
0.660187
0.606048
0.545954
0.477216
0.397235
0.30542
0.207232
0.122693
0.0826019
0.933698
0.892253
0.842282
0.788654
0.729587
0.662506
0.586461
0.505862
0.437424
0.405477
1.57612
1.44335
1.54702
1.40561
1.45935
1.45709
1.45315
1.45241
1.4151
1.2526
1.56239
1.43888
1.54457
1.40694
1.45658
1.45746
1.45553
1.46293
1.44691
1.33851
1.54999
1.43409
1.54112
1.40779
1.4535
1.45704
1.45834
1.47273
1.47458
1.42423
1.53878
1.4291
1.53687
1.40802
1.45013
1.4557
1.45946
1.47932
1.49544
1.49002
1.52858
1.42398
1.53204
1.40749
1.44645
1.45341
1.45918
1.48325
1.51062
1.54153
1.51925
1.4188
1.52683
1.40614
1.44243
1.4502
1.45755
1.48455
1.52067
1.57879
1.51067
1.41359
1.52139
1.40395
1.43803
1.44611
1.45453
1.48324
1.52587
1.60294
1.50275
1.40836
1.51586
1.40093
1.43322
1.44119
1.45008
1.47937
1.5261
1.61482
1.49544
1.40313
1.51037
1.39713
1.42798
1.43545
1.44418
1.473
1.52117
1.61501
1.48867
1.39792
1.50498
1.39257
1.42229
1.42893
1.43682
1.46412
1.51111
1.60378
1.71093
1.45884
1.55298
1.40346
1.46166
1.45014
1.43406
1.40682
1.31658
1.10807
1.65478
1.4527
1.55107
1.40553
1.46054
1.45165
1.4355
1.41014
1.3234
1.11268
1.63338
1.45405
1.55183
1.40624
1.46062
1.45288
1.43839
1.41653
1.33719
1.12334
1.61053
1.4514
1.55057
1.40614
1.4607
1.4542
1.44242
1.42573
1.35589
1.14441
1.59168
1.44759
1.54884
1.40538
1.46067
1.45548
1.44693
1.43712
1.37968
1.16763
0.75224
0.596982
0.39181
0.122938
-0.195531
-0.536661
-0.876779
-1.20449
-1.50636
-1.75733
0.751824
0.597552
0.399574
0.140691
-0.168774
-0.507428
-0.852085
-1.18667
-1.49529
-1.75232
0.77162
0.612813
0.412302
0.16005
-0.141689
-0.48048
-0.83238
-1.17456
-1.48912
-1.75131
0.822445
0.645082
0.430328
0.178153
-0.119263
-0.458746
-0.817711
-1.16807
-1.48883
-1.75649
0.90128
0.695133
0.456034
0.194727
-0.104143
-0.444867
-0.808796
-1.16649
-1.49442
-1.76916
)
;

boundaryField
{
    left
    {
        type            zeroGradient;
    }
    right
    {
        type            fixedValue;
        value           uniform 0;
    }
    down
    {
        type            zeroGradient;
    }
    up
    {
        type            zeroGradient;
    }
    cylinder
    {
        type            zeroGradient;
    }
    defaultFaces
    {
        type            empty;
    }
}


// ************************************************************************* //
