/*--------------------------------*- C++ -*----------------------------------*\
  =========                 |
  \\      /  F ield         | OpenFOAM: The Open Source CFD Toolbox
   \\    /   O peration     | Website:  https://openfoam.org
    \\  /    A nd           | Version:  13
     \\/     M anipulation  |
\*---------------------------------------------------------------------------*/
FoamFile
{
    format      ascii;
    class       volScalarField;
    location    "0.08";
    object      strainRateViscosityModel:nu;
}
// * * * * * * * * * * * * * * * * * * * * * * * * * * * * * * * * * * * * * //

dimensions      [0 2 -1 0 0 0 0];

internalField   nonuniform List<scalar> 
1800
(
9.40735
9.19897
9.00854
8.79427
8.56205
8.32044
8.07976
7.84822
7.55801
7.29878
9.5849
9.41735
9.26335
9.09031
8.89932
8.69332
8.47779
8.25353
7.98121
7.64283
9.70101
9.56044
9.42414
9.2645
9.07864
8.86429
8.62038
8.34135
7.99411
7.56294
9.77407
9.65376
9.52943
9.37695
9.1917
8.96927
8.70596
8.39389
8.00039
7.5182
9.82043
9.71603
9.60199
9.45621
9.27283
9.04616
8.77142
8.44125
8.02602
7.52935
9.85072
9.75871
9.65395
9.51554
9.33638
9.1094
8.82835
8.48589
8.05496
7.551
9.87076
9.78795
9.69085
9.55923
9.38481
9.15896
8.87362
8.52061
8.07461
7.56218
9.8838
9.80739
9.71589
9.58942
9.41858
9.19321
8.90334
8.5396
8.07836
7.55406
9.89169
9.81928
9.73124
9.60776
9.43841
9.21156
8.91543
8.5395
8.06253
7.52167
9.89556
9.82507
9.73862
9.61626
9.44684
9.21768
8.91583
8.53017
8.04259
7.48745
2.05855
1.51433
1.47768
1.76372
2.08601
2.29289
2.394
2.45438
2.48851
2.49542
3.10851
2.29388
2.18868
2.41768
2.59387
2.65532
2.71764
2.80346
2.85866
2.87639
4.04858
3.34275
3.17963
3.22476
3.20032
3.14817
3.18419
3.27085
3.32191
3.34953
5.04453
4.50891
4.28864
4.15638
3.99074
3.85362
3.81917
3.84735
3.86857
3.91181
6.07542
5.64665
5.39054
5.15489
4.91049
4.69901
4.56561
4.50302
4.47641
4.53455
7.03659
6.65339
6.38134
6.10183
5.81856
5.5534
5.3347
5.18232
5.09432
5.15663
7.83551
7.47422
7.19898
6.90651
6.6063
6.30895
6.03151
5.80479
5.64936
5.7028
8.43926
8.10252
7.83262
7.53948
7.23033
6.91026
6.58917
6.3
6.07741
6.11021
8.86973
8.56724
8.30859
8.01787
7.6988
7.35327
6.98464
6.62163
6.30835
6.30845
9.17058
8.90999
8.67125
8.39435
8.08233
7.73735
7.35817
6.96333
6.61113
6.65091
2.27764
1.69566
1.18593
0.59656
0.198405
0.0572285
0.0238659
0.0146947
0.0119927
0.0103116
2.57884
1.82853
1.3055
0.655954
0.217806
0.0612484
0.0247463
0.0150768
0.0122477
0.0103673
2.95383
1.97234
1.42833
0.727319
0.24112
0.0662932
0.0257621
0.0154561
0.0124776
0.0104168
3.41222
2.15334
1.55279
0.809831
0.269071
0.072393
0.026916
0.0158184
0.0126698
0.0104563
3.92894
2.39465
1.68266
0.901057
0.302447
0.0795053
0.0282128
0.0161533
0.0128119
0.010483
4.44642
2.7026
1.8275
0.999581
0.342583
0.0876872
0.0296699
0.0164567
0.0128965
0.0104949
4.89017
3.058
1.99168
1.10039
0.387268
0.0963988
0.0312165
0.0167254
0.0129213
0.010491
5.19068
3.4402
2.1972
1.21693
0.442061
0.107726
0.0330185
0.0169854
0.0128911
0.0104718
5.21568
3.72775
2.37328
1.303
0.483094
0.117075
0.0342128
0.0171223
0.0128037
0.0104381
5.06299
3.99842
2.64896
1.47789
0.572714
0.145542
0.0386736
0.0176335
0.0127434
0.010404
4.84851
4.02239
2.77104
1.52927
0.583979
0.151641
0.040164
0.0176449
0.0125171
0.0103467
5.34202
3.60352
2.52908
1.27177
0.418856
0.101926
0.0318544
0.0159951
0.0118334
0.0102035
5.01455
3.28814
2.33004
1.00981
0.256895
0.048808
0.0174226
0.0120114
0.0107955
0.011278
4.59142
3.50239
2.29264
0.960585
0.260002
0.146179
0.157712
0.165962
0.168046
0.187105
5.0414
4.53282
2.92543
1.60382
0.865394
0.755128
0.763553
0.756183
0.743226
0.747966
6.19754
5.53343
3.7927
2.30446
1.39964
1.15424
1.10366
1.07388
1.05094
1.05019
7.22822
6.29545
4.56396
2.9615
1.95622
1.59426
1.46899
1.40412
1.36549
1.35378
7.97216
6.85792
5.17688
3.53389
2.4682
1.99157
1.77981
1.67358
1.61791
1.59343
8.4939
7.28478
5.65149
4.01145
2.911
2.3363
2.03908
1.88879
1.81489
1.77811
8.91159
7.65104
6.03854
4.423
3.33164
2.67374
2.28429
2.08158
1.98508
1.93273
6.50477
6.42878
6.41361
6.42457
6.45408
6.48621
6.52586
6.6402
6.81172
6.72811
0.231522
1.01324
1.96082
2.87461
3.65771
4.27303
4.69166
4.94026
5.18163
5.68001
3.93376
3.62685
3.35597
3.16834
3.15206
3.29223
3.51831
3.76728
4.22474
4.89404
6.63994
6.623
6.53442
6.34343
6.04234
5.6559
5.24737
4.89777
4.74868
4.57142
7.68472
7.66933
7.62468
7.53313
7.38632
7.17702
6.90936
6.59504
6.25274
5.61122
8.43402
8.41752
8.37864
8.31177
8.21322
8.07966
7.91005
7.69616
7.40291
6.87456
8.92335
8.90735
8.87324
8.81911
8.74321
8.64359
8.51793
8.35758
8.13147
7.78245
9.25926
9.24579
9.21791
9.17454
9.11423
9.035
8.93395
8.80465
8.63088
8.40694
9.49476
9.48422
9.46267
9.42917
9.3823
9.3201
9.23978
9.13678
9.00481
8.85512
9.68463
9.67744
9.66285
9.63997
9.60741
9.5633
9.5052
9.43002
9.3349
9.23066
7.19289
7.47606
7.79358
8.05208
8.31735
8.57988
8.82852
9.0542
9.251
9.4593
7.53902
7.90971
8.20774
8.45374
8.68776
8.90881
9.11122
9.29192
9.44972
9.61603
7.46209
7.92597
8.29881
8.59805
8.85802
9.08446
9.27868
9.44327
9.58141
9.72012
7.41929
7.933
8.3519
8.68352
8.96175
9.19473
9.38669
9.54264
9.66782
9.78631
7.43641
7.96193
8.40121
8.74965
9.038
9.27392
9.46284
9.6112
9.72566
9.82857
7.46853
7.99752
8.45006
8.8087
9.10157
9.33636
9.51999
9.66036
9.76535
9.85623
7.49412
8.02698
8.49121
8.85759
9.15246
9.38442
9.56223
9.69526
9.79249
9.87449
7.50462
8.04377
8.51868
8.89215
9.18877
9.41835
9.59145
9.71882
9.81037
9.88622
7.49344
8.04293
8.52815
8.90961
9.20944
9.43854
9.60906
9.73297
9.82099
9.89307
7.47823
8.03623
8.52678
8.91421
9.21717
9.44698
9.61673
9.7392
9.82564
9.89601
2.67118
2.66977
2.6354
2.57843
2.5129
2.36527
2.04445
1.71671
1.83409
2.88199
3.01944
3.00948
2.95555
2.86055
2.81638
2.8353
2.74716
2.56517
2.74646
3.80052
3.43929
3.41933
3.37966
3.30175
3.29388
3.42082
3.55138
3.6091
3.86064
4.67435
3.94312
3.90545
3.90433
3.90923
3.99743
4.21176
4.47039
4.7016
5.00314
5.60901
4.5169
4.465
4.52072
4.63127
4.82995
5.11443
5.43333
5.7444
6.06449
6.5513
5.1036
5.0504
5.17585
5.38112
5.66172
5.98786
6.32776
6.66058
6.97882
7.40557
5.6266
5.58526
5.78319
6.06097
6.3911
6.73636
7.07856
7.40786
7.71439
8.10238
6.01868
6.00006
6.26688
6.60255
6.96745
7.32509
7.66552
7.98407
8.27407
8.6238
6.202
6.21713
6.57559
6.98122
7.3877
7.76417
8.1075
8.41621
8.68737
8.99451
6.54016
6.50631
6.90029
7.33479
7.74837
8.12095
8.45376
8.74487
8.99204
9.25372
0.0746459
0.0794895
0.0135473
0.0107823
0.0171872
0.10128
0.462409
1.13615
1.74988
2.4082
0.0540756
0.0863656
0.0145907
0.0126716
0.0211047
0.116797
0.517796
1.25589
1.87823
2.68392
0.0404234
0.0950555
0.0165518
0.0163672
0.0280096
0.140572
0.591694
1.38244
2.01369
3.02199
0.0314138
0.105352
0.0195613
0.0221922
0.0384245
0.173575
0.682329
1.51214
2.18144
3.43721
0.0257158
0.117342
0.0237307
0.0302431
0.0525795
0.215898
0.785637
1.64704
2.40643
3.90991
0.0225479
0.131308
0.0291225
0.0404084
0.0704251
0.267597
0.898567
1.79634
2.69806
4.38594
0.0214267
0.147635
0.0358295
0.0523203
0.0908582
0.325248
1.01458
1.96477
3.03906
4.79236
0.0220421
0.166317
0.0440968
0.0656912
0.114875
0.393353
1.14682
2.17618
3.40896
5.05906
0.0247282
0.186464
0.0541627
0.0791324
0.136371
0.447107
1.24604
2.35669
3.68851
5.05374
0.0332878
0.204474
0.0663482
0.0936749
0.172634
0.549158
1.44078
2.64587
3.94581
4.85036
0.0591609
0.231318
0.0827524
0.111136
0.195039
0.58393
1.51159
2.78789
3.99774
4.65922
0.125594
0.275928
0.0957287
0.113444
0.155497
0.434601
1.26614
2.57601
3.64733
5.25271
0.259008
0.331769
0.107265
0.115781
0.113718
0.29717
1.01111
2.38289
3.40529
5.04574
0.501233
0.358196
0.0626411
0.0373985
0.0465539
0.150041
0.795399
2.20964
3.51951
4.69147
0.869028
0.295484
0.0623379
0.299735
0.533348
0.685759
1.36733
2.72899
4.43472
5.05098
1.39391
0.0981846
0.680756
0.943573
1.10219
1.32073
2.13296
3.61867
5.43189
6.14169
2.08983
0.602866
1.07153
1.32109
1.55524
1.90836
2.8395
4.43437
6.21488
7.17791
3.72586
1.63061
1.5863
1.78074
2.02343
2.48024
3.47594
5.09891
6.80494
7.94386
6.84496
3.52031
2.27217
2.16399
2.40801
2.96258
4.00862
5.62182
7.26163
8.48655
9.04722
6.39647
3.1981
2.68565
2.81981
3.43317
4.48409
6.06382
7.66328
8.92222
6.56843
6.63816
6.46853
6.35568
6.3227
6.30238
6.29033
6.30608
6.3534
6.46801
5.54184
5.03203
4.78209
4.5363
4.13116
3.53701
2.78678
1.91373
1.02169
0.262411
4.9189
4.29827
3.87456
3.64633
3.44561
3.32062
3.33173
3.49073
3.71003
3.94592
4.69019
4.84509
4.98238
5.29587
5.67137
6.0339
6.32441
6.51648
6.61291
6.63791
5.60577
6.22694
6.57002
6.88257
7.15328
7.3683
7.52193
7.61995
7.66931
7.68527
6.8203
7.35714
7.66037
7.8825
8.05902
8.19842
8.30199
8.37307
8.41519
8.4335
7.73826
8.09763
8.33134
8.49848
8.62937
8.73311
8.81233
8.86911
8.90527
8.92274
8.38268
8.61244
8.79007
8.92327
9.0274
9.109
9.17111
9.21583
9.24471
9.25893
8.84815
8.99975
9.13275
9.23705
9.31842
9.38137
9.42873
9.46251
9.48419
9.49476
9.2368
9.34006
9.43405
9.50845
9.56594
9.60953
9.64161
9.66403
9.67815
9.68487
9.57847
9.11097
8.41082
7.15018
5.84728
0.19714
3.33153
6.13758
7.38626
8.32821
9.54157
9.05536
8.34844
7.11551
5.76791
0.71473
2.57058
5.89455
7.09833
8.10435
9.45788
8.93395
8.21343
7.03922
5.58257
1.82095
1.39729
5.39651
6.51376
7.62057
9.30448
8.72527
7.98987
6.89437
5.42265
2.95748
0.770535
4.40946
5.65631
6.82485
9.04166
8.39611
7.65193
6.63826
5.28207
3.58891
1.05317
2.79318
4.58043
5.68939
8.60847
7.90094
7.16106
6.22085
5.04414
3.6806
1.84065
1.42347
3.32336
4.31502
7.92815
7.18826
6.47316
5.60966
4.61275
3.49893
2.32693
1.26553
1.89235
2.87848
6.95226
6.23064
5.56137
4.78275
3.94521
3.08763
2.29101
1.58864
1.2005
1.48134
5.74347
5.0904
4.48026
3.784
3.0917
2.45012
1.95334
1.55868
1.25029
0.742871
4.48555
3.94417
3.4014
2.77924
2.21995
1.77387
1.49477
1.36085
1.20219
0.894156
3.35075
2.96204
2.49362
1.93868
1.50603
1.23769
1.1216
1.11089
1.10931
1.1362
2.41761
2.19445
1.79966
1.31908
1.02489
0.935768
0.958526
0.998276
0.99188
1.00876
1.71108
1.60312
1.26744
0.888488
0.763526
0.83214
0.939405
1.01644
1.03024
1.04296
1.21773
1.13325
0.851371
0.649259
0.721533
0.883444
1.01115
1.08612
1.09514
1.09587
0.86312
0.725119
0.561866
0.626381
0.831093
1.01164
1.13536
1.20534
1.21492
1.20608
0.569463
0.385749
0.491557
0.747614
0.980107
1.155
1.26997
1.33742
1.35219
1.34286
0.239992
0.278271
0.604955
0.878873
1.11449
1.28174
1.39916
1.47459
1.50237
1.4991
0.0683153
0.403753
0.720776
1.00581
1.22767
1.40479
1.54438
1.641
1.68228
1.68462
0.236335
0.604595
0.87161
1.15085
1.38587
1.60772
1.77987
1.88289
1.9186
1.91744
0.889423
1.00322
1.11374
1.36492
1.66469
1.93321
2.09514
2.16859
2.19031
2.18724
0.386894
0.0313408
0.333908
0.625726
0.812642
0.918664
0.999022
1.05824
1.09419
1.11
0.53212
0.267591
0.366255
0.550833
0.699262
0.783224
0.848332
0.89666
0.925359
0.934053
0.635495
0.449864
0.421807
0.466495
0.566673
0.626962
0.674019
0.708249
0.727859
0.727492
0.792596
0.698003
0.541555
0.413595
0.418028
0.457733
0.495209
0.522047
0.536522
0.534306
0.986171
0.88745
0.645047
0.412415
0.275639
0.247709
0.252841
0.258636
0.260447
0.238043
1.19098
1.04135
0.731941
0.433032
0.193851
0.0996507
0.0658001
0.049863
0.0423176
0.0299504
1.39124
1.16699
0.807179
0.454819
0.164446
0.0562271
0.0249763
0.0150414
0.0119517
0.0103344
1.58977
1.29026
0.885905
0.479624
0.162449
0.0508832
0.0220318
0.0136611
0.0112349
0.010149
1.79871
1.42185
0.974053
0.510099
0.170291
0.0519878
0.0225028
0.0139792
0.0114711
0.0101979
2.02497
1.55977
1.0743
0.548488
0.182584
0.0541739
0.0231216
0.014325
0.0117292
0.0102538
2.12156
0.68585
0.693196
0.98633
1.27834
1.47471
1.60457
1.68807
1.73518
1.76714
1.5497
0.453643
0.598956
0.924556
1.19539
1.37723
1.50177
1.58394
1.6314
1.66094
0.890495
0.275871
0.544959
0.866123
1.11521
1.28135
1.39917
1.47897
1.52578
1.55302
0.360586
0.188703
0.500029
0.806619
1.02849
1.1733
1.27978
1.35419
1.39858
1.42256
0.505439
0.0485571
0.396081
0.702503
0.911896
1.04177
1.13924
1.20967
1.25251
1.27423
9.48818
9.43318
9.30549
9.07301
8.68683
8.08506
7.22474
6.12379
4.90888
3.80023
9.35263
9.2697
9.08389
8.75818
8.24348
7.49589
6.51269
5.36666
4.22055
3.09718
9.20164
9.09385
8.85233
8.43356
7.78951
6.89456
5.78018
4.56846
3.43497
2.21484
9.00182
8.86464
8.55745
8.03051
7.23989
6.1882
4.94615
3.66459
2.54233
1.3328
8.76799
8.57681
8.15565
7.45025
6.43002
5.14274
3.70944
2.38935
1.20572
0.357372
1.15097
1.12903
1.13255
1.13419
1.22994
1.48302
1.92625
2.51768
3.00605
3.37909
1.04183
1.03297
1.04648
1.00634
0.966584
1.02785
1.31893
1.83994
2.25816
2.44614
1.10212
1.10099
1.09835
1.0278
0.913325
0.813553
0.910107
1.31516
1.67446
1.73093
1.18619
1.19816
1.2014
1.13622
1.00998
0.832223
0.717681
0.897152
1.18573
1.219
1.32529
1.3458
1.3475
1.28795
1.1709
0.987292
0.761422
0.632033
0.733505
0.838227
1.48419
1.50234
1.49564
1.43753
1.33098
1.15929
0.912726
0.61748
0.398259
0.503193
1.66075
1.67091
1.64675
1.57303
1.45786
1.29301
1.05178
0.746158
0.363439
0.16871
1.87045
1.87883
1.84538
1.74554
1.59058
1.39653
1.16767
0.861522
0.510344
0.0683236
2.11786
2.13354
2.11782
2.02942
1.84514
1.57824
1.30017
1.02521
0.812929
0.557724
2.38021
2.39223
2.38437
2.33626
2.1987
1.91453
1.54561
1.25378
1.2458
1.56702
8.32801
7.3859
6.13721
3.33108
0.197403
5.84569
7.14966
8.41063
9.11099
9.57856
8.10366
7.09723
5.89345
2.57052
0.714149
5.76395
7.11397
8.34787
9.05542
9.54187
7.61904
6.5118
5.39446
1.39998
1.81627
5.57791
7.0368
8.21256
8.93409
9.45844
6.82202
5.65323
4.40722
0.774082
2.9484
5.41754
6.89131
7.98886
8.72562
9.30548
5.68496
4.57613
2.79498
1.05275
3.57753
5.27579
6.63462
7.65092
8.39687
9.04343
4.30828
3.31815
1.43143
1.83247
3.66807
5.03577
6.21646
7.16018
7.90247
8.61154
2.86847
1.89394
1.27279
2.3128
3.48275
4.60064
5.60365
6.47253
7.19126
7.93352
1.47467
1.21285
1.58975
2.27474
3.06533
3.9272
4.77368
5.56164
6.23688
6.96178
0.751703
1.26193
1.56047
1.9379
2.42354
3.06712
3.77147
4.48397
5.10389
5.75964
0.913637
1.21668
1.37105
1.48858
1.75023
2.19152
2.76439
3.4127
3.97034
4.50902
2.01502
0.52174
1.08427
0.949379
0.938958
0.842259
0.659716
0.371798
0.0374123
0.37893
1.54483
0.211353
0.818334
0.721791
0.789385
0.722859
0.582002
0.391109
0.296789
0.545905
1.2449
0.0176179
0.560098
0.520902
0.61668
0.578957
0.490875
0.431916
0.501068
0.672783
0.952325
0.100489
0.131033
0.241281
0.434065
0.416655
0.420947
0.545466
0.765283
0.86196
0.69721
0.135371
0.0159862
0.0262169
0.180883
0.250876
0.398258
0.650934
0.962528
1.0837
0.490286
0.122736
0.0311709
0.0181636
0.0461798
0.150985
0.395466
0.734137
1.11612
1.30928
0.337265
0.0979837
0.0209109
0.0145335
0.0240674
0.109669
0.391248
0.798403
1.23727
1.52368
0.228635
0.0812824
0.0162443
0.0112862
0.0189675
0.0951802
0.392016
0.862992
1.35532
1.73263
0.154723
0.0747235
0.0140903
0.0102151
0.0162952
0.0908998
0.402192
0.938257
1.48267
1.9468
0.106106
0.0751055
0.0133466
0.0101584
0.0156871
0.0929108
0.424744
1.02915
1.61714
2.16904
9.3357
6.75743
2.84068
2.09357
1.56903
1.32443
1.0199
0.743348
0.718334
2.13898
8.20906
4.60675
2.36841
1.82447
1.45348
1.23932
0.958786
0.645384
0.473642
1.54963
6.11013
3.01886
1.93471
1.61614
1.34211
1.158
0.900846
0.589119
0.290967
0.875652
4.10154
1.82223
1.61377
1.39512
1.22036
1.06843
0.841006
0.542306
0.206356
0.34043
2.77935
1.01154
1.32652
1.16296
1.07461
0.947731
0.737331
0.435472
0.062893
0.479137
3.80655
4.91383
6.12726
7.22717
8.0867
8.68788
9.07366
9.30586
9.43339
9.48824
3.08988
4.21672
5.36449
6.5115
7.49544
8.24344
8.75831
9.08404
9.26981
9.35267
2.19934
3.42537
4.5626
5.77607
6.89212
7.7883
8.43306
8.85219
9.09385
9.20165
1.31054
2.52532
3.65413
4.93892
6.18387
7.23749
8.0293
8.55695
8.86448
9.00179
0.361501
1.19054
2.37641
3.70002
5.13641
6.42623
7.44813
8.15465
8.57642
8.7679
)
;

boundaryField
{
    left
    {
        type            calculated;
        value           nonuniform List<scalar> 
35
(
0.32468
0.480036
0.835628
1.49136
2.45449
3.68496
5.05324
6.47121
8.15789
9.44143
0.340558
0.294309
0.26409
0.244299
0.231967
0.225588
0.224347
0.227823
0.237673
0.262098
4.92689
4.0386
3.21236
2.48572
1.86746
1.36711
0.985466
0.712121
0.529357
0.413195
9.61549
8.97964
7.9245
6.85161
5.86162
)
;
    }
    right
    {
        type            calculated;
        value           nonuniform List<scalar> 
35
(
1.76739
1.66068
1.552
1.42041
1.27058
1.10433
0.926287
0.717785
0.523357
0.229303
0.0276667
0.0101785
0.0100562
0.0100736
0.0100936
0.0101141
0.010134
0.0101518
0.010166
0.0101759
0.0101805
0.0101796
0.0101734
0.0101617
0.0101506
0.0101286
0.0100699
0.0118345
0.197006
0.763077
1.06253
1.36198
1.59771
1.77951
1.93179
)
;
    }
    down
    {
        type            calculated;
        value           nonuniform List<scalar> 
40
(
9.45352
7.25331
3.05142
2.17143
1.60345
1.35296
1.04128
0.772929
0.813906
2.35005
4.06996
5.18468
6.37704
7.42721
8.23329
8.78902
9.14193
9.35377
9.47044
9.52085
9.52078
9.47022
9.35336
9.14121
8.78779
8.23126
7.42402
6.37227
5.17769
4.06053
2.32876
0.778389
0.721265
1.00841
1.30722
1.50569
1.63569
1.71879
1.76527
1.79757
)
;
    }
    up
    {
        type            calculated;
        value           nonuniform List<scalar> 
40
(
9.01655
7.76949
6.15891
4.547
3.45376
2.76823
2.34828
2.12957
2.02733
1.97166
9.72494
9.71861
9.7058
9.68566
9.65689
9.61769
9.56569
9.49776
9.41106
9.31662
9.32482
9.41776
9.50292
9.56973
9.62088
9.6594
9.68756
9.70714
9.71941
9.72521
9.26934
7.10227
3.53808
2.803
2.92287
3.56614
4.62448
6.19794
7.79075
9.03051
)
;
    }
    cylinder
    {
        type            calculated;
        value           nonuniform List<scalar> 
80
(
2.36299
3.46954
4.31037
5.20634
6.18125
7.12124
7.91317
8.51073
8.93199
9.22165
9.4483
9.61849
9.72879
9.79715
9.83989
9.8675
9.88563
9.89737
9.90446
9.90794
9.49987
9.64893
9.74719
9.80881
9.84758
9.87269
9.88914
9.89964
9.90575
9.90836
3.38448
4.22308
4.94799
5.77783
6.66728
7.49977
8.18606
8.69793
9.05749
9.30482
3.4593
2.46583
1.70849
1.19357
0.848307
0.587313
0.299221
0.0582937
0.592607
1.81299
9.65251
9.62044
9.54681
9.40946
9.1687
8.76106
8.10289
7.13676
5.92174
4.63998
9.65241
9.62014
9.54623
9.40842
9.16685
8.75782
8.09723
7.12699
5.90618
4.62012
3.44041
2.45412
1.71038
1.21212
0.881943
0.641317
0.371185
0.165884
0.199803
0.945654
)
;
    }
    defaultFaces
    {
        type            empty;
    }
}


// ************************************************************************* //
