# Selection   : all
# Cells       : 440
# Volume      : 7.374263e+01
# Time        	maxMag(U)
1.1           	2.858302e+00
1.15          	2.837706e+00
1.2           	2.813552e+00
