/*--------------------------------*- C++ -*----------------------------------*\
  =========                 |
  \\      /  F ield         | OpenFOAM: The Open Source CFD Toolbox
   \\    /   O peration     | Website:  https://openfoam.org
    \\  /    A nd           | Version:  13
     \\/     M anipulation  |
\*---------------------------------------------------------------------------*/
FoamFile
{
    format      ascii;
    class       volScalarField;
    location    "0.22";
    object      p;
}
// * * * * * * * * * * * * * * * * * * * * * * * * * * * * * * * * * * * * * //

dimensions      [0 2 -2 0 0 0 0];

internalField   nonuniform List<scalar> 
1800
(
5.98764
8.09454
10.2468
11.6746
12.5081
12.9177
13.0475
12.8886
11.641
7.54894
9.83896
12.3145
14.8191
16.5026
17.5586
18.2206
18.6745
18.9126
18.1871
15.5092
16.2325
18.8571
21.5297
23.3927
24.6526
25.534
26.1843
26.5672
26.0954
24.2645
25.2287
27.7981
30.4465
32.3609
33.726
34.7349
35.4972
35.9489
35.5424
33.8579
36.2883
38.6492
41.1015
42.913
44.2374
45.2335
45.988
46.4371
46.0867
44.5314
48.966
51.0187
53.1624
54.7688
55.9598
56.862
57.5442
57.9547
57.6734
56.3142
62.9154
64.5883
66.3442
67.6762
68.6783
69.4479
70.0394
70.4163
70.2411
69.1524
77.8422
79.0839
80.3952
81.4046
82.1806
82.7944
83.2885
83.6433
83.6098
82.8733
93.4616
94.2415
95.0731
95.7281
96.2509
96.6884
97.0711
97.3944
97.5045
97.1699
109.492
109.797
110.129
110.403
110.641
110.862
111.079
111.292
111.453
111.48
-0.32403
-0.57468
-0.350535
0.0566262
0.523142
0.986878
1.33707
1.53769
1.67945
1.82652
-0.213904
-0.7299
-0.841866
-0.639488
-0.217341
0.195839
0.471197
0.704698
0.984993
1.2589
0.781275
-0.200884
-1.04947
-1.21216
-0.879221
-0.585312
-0.386749
-0.0866739
0.319716
0.703653
1.15254
-0.00547856
-1.2205
-1.54969
-1.32029
-1.1742
-1.05809
-0.755938
-0.301275
0.204281
0.702414
-0.277298
-1.22687
-1.5105
-1.44703
-1.45939
-1.42439
-1.16232
-0.672303
0.0202407
-0.00805467
-0.530325
-0.935085
-1.06141
-1.07758
-1.14
-1.1296
-0.919799
-0.396066
0.534849
-0.339827
-0.303596
-0.128904
0.0182506
0.105723
0.129264
0.170043
0.340772
0.918193
2.14733
0.151712
0.737866
1.45803
1.96261
2.2933
2.50793
2.65845
2.87565
3.60642
5.26831
1.60686
2.71479
3.96265
4.88375
5.55372
6.0461
6.38607
6.72516
7.71198
9.99929
3.85426
5.497
7.31463
8.68993
9.71197
10.4713
10.9927
11.4447
12.5049
14.6676
2.54091
2.68362
2.59792
2.37445
1.88637
1.45844
1.10412
0.793061
0.48327
0.16472
2.16757
2.63482
2.46658
2.26377
1.78698
1.38605
1.05961
0.765944
0.467821
0.159256
1.67337
2.58897
2.34363
2.14535
1.68889
1.31546
1.0177
0.74104
0.454001
0.154576
1.04469
2.50313
2.23344
2.02168
1.59201
1.24727
0.978397
0.718459
0.441848
0.150623
0.357037
2.33502
2.12591
1.89468
1.49653
1.18198
0.941603
0.698287
0.431393
0.147379
-0.204716
2.06984
2.00125
1.76354
1.40235
1.12004
0.907422
0.680647
0.422693
0.144851
-0.343445
1.73647
1.84184
1.62393
1.30845
1.06185
0.876245
0.665703
0.415817
0.143063
0.393196
1.42071
1.63433
1.46331
1.20973
1.00678
0.84863
0.653686
0.410855
0.142101
2.65399
1.29471
1.35499
1.25222
1.09266
0.951822
0.82486
0.644876
0.407924
0.142049
6.89184
1.67327
1.0192
0.965385
0.940884
0.892035
0.804482
0.639243
0.40702
0.143013
10.24
2.8855
1.05148
0.776802
0.788097
0.822397
0.779713
0.630397
0.404487
0.14461
12.0483
2.89005
0.594666
0.35463
0.571544
0.754362
0.768683
0.62937
0.404136
0.144991
13.1357
3.04169
0.61524
0.319158
0.593785
0.790156
0.778165
0.621959
0.395439
0.136826
14.4195
4.56478
1.42816
0.84342
0.904483
0.925728
0.801519
0.608081
0.381456
0.124352
16.5832
7.30464
2.87309
1.75869
1.41305
1.14124
0.849706
0.597952
0.363229
0.109566
19.4902
10.1128
4.5744
2.80422
2.01157
1.41085
0.92356
0.596617
0.346265
0.0960027
22.0116
12.2075
6.1407
3.82173
2.62884
1.71194
1.02351
0.609686
0.335204
0.0858944
23.2951
13.4009
7.35688
4.74985
3.22875
2.0217
1.14282
0.638348
0.333092
0.080817
23.234
13.7796
8.22087
5.60484
3.8226
2.34417
1.28534
0.687629
0.344141
0.0822096
22.6804
14.003
8.98943
6.45991
4.4368
2.69865
1.46684
0.77173
0.380197
0.0929834
112.036
98.0897
84.3244
71.319
59.3796
48.5992
39.0171
30.3389
20.3254
5.21911
113.016
99.7277
86.2263
73.2199
61.1777
50.2984
40.7674
32.512
23.8487
11.734
113.548
100.462
87.5801
75.253
63.7143
53.1232
43.6953
35.5102
27.7279
18.5948
114.76
103.019
91.0586
79.2258
67.8666
57.269
47.6343
39.0335
31.327
24.0639
115.337
104.326
93.405
82.7137
72.3659
62.4397
52.974
44.0589
36.2354
30.0521
115.686
104.959
94.4525
84.291
74.5709
65.3421
56.5831
48.3414
41.2983
36.2782
115.917
105.358
95.047
85.115
75.6727
66.7929
58.485
50.8188
44.4663
40.3482
116.018
105.496
95.23
85.3588
76.0049
67.2595
59.1563
51.764
45.6486
41.6912
115.967
105.281
94.8556
84.8366
75.3577
66.5255
58.396
51.0274
44.8047
40.3535
115.844
104.897
94.2097
83.9323
74.2071
65.1572
56.8631
49.3691
42.8613
37.6679
234.406
230.057
228.5
228.067
227.98
228.235
228.971
230.353
232.506
234.646
225.834
222.827
221.786
221.752
221.982
222.469
223.401
225.01
227.482
229.959
216.315
214.149
213.382
213.51
213.944
214.649
215.776
217.546
220.161
222.76
206.005
203.984
203.283
203.482
204.027
204.858
206.083
207.892
210.462
212.981
194.678
192.774
192.121
192.31
192.844
193.656
194.834
196.529
198.884
201.174
182.309
180.588
179.995
180.138
180.592
181.304
182.34
183.818
185.848
187.813
168.961
167.5
167.008
167.111
167.468
168.041
168.88
170.074
171.701
173.272
154.825
153.71
153.356
153.434
153.69
154.102
154.71
155.572
156.743
157.871
140.215
139.502
139.295
139.345
139.49
139.725
140.076
140.577
141.259
141.916
125.688
125.345
125.205
125.158
125.146
125.168
125.234
125.354
125.531
125.707
246.655
246.883
247.124
247.335
247.626
248.109
248.639
248.969
248.991
248.502
246.801
247.124
247.513
247.805
247.993
248.31
248.717
248.641
247.862
246.861
246.882
247.272
247.708
248.012
248.089
248.213
248.488
248.132
246.752
245.491
246.811
247.31
247.737
247.969
247.908
247.804
247.851
247.431
246.119
244.94
246.341
246.997
247.393
247.51
247.349
247.09
246.932
246.58
245.755
244.942
245.134
245.984
246.336
246.321
246.111
245.847
245.668
245.505
245.258
244.958
242.782
243.889
244.246
244.154
243.965
243.818
243.797
243.935
244.241
244.476
238.893
240.39
240.878
240.832
240.765
240.829
241.075
241.576
242.391
243.129
233.416
235.481
236.206
236.288
236.426
236.78
237.373
238.281
239.588
240.801
228.055
229.932
230.69
230.869
231.183
231.804
232.749
234.102
235.95
237.66
247.317
247.064
247.039
246.797
246.619
246.377
246.029
245.785
245.705
245.841
247.28
247.059
247.031
246.795
246.62
246.393
246.068
245.818
245.579
245.929
247.253
247.054
247.023
246.789
246.617
246.41
246.109
245.822
245.409
246.079
247.234
247.047
247.014
246.78
246.611
246.426
246.14
245.785
245.241
246.311
247.222
247.04
247.005
246.768
246.604
246.437
246.155
245.714
245.128
246.563
247.217
247.033
246.996
246.753
246.596
246.44
246.149
245.635
245.099
246.662
247.219
247.026
246.986
246.736
246.585
246.432
246.126
245.571
245.125
246.31
247.228
247.018
246.976
246.719
246.572
246.417
246.104
245.544
245.119
245.055
247.244
247.009
246.964
246.7
246.558
246.408
246.118
245.582
244.917
242.269
247.266
246.999
246.948
246.68
246.546
246.423
246.201
245.674
244.218
237.545
247.305
246.991
246.925
246.654
246.509
246.365
246.071
245.271
242.624
233.946
247.415
246.986
246.912
246.635
246.488
246.444
246.319
245.497
242.353
231.981
247.659
247.003
246.908
246.596
246.426
246.448
246.419
245.511
242.13
230.75
248.14
247.08
246.914
246.548
246.287
246.192
246.014
244.889
240.806
229.591
249.024
247.191
246.95
246.448
246.067
245.661
245.082
243.552
238.333
227.751
250.825
247.278
247.036
246.351
245.788
244.977
243.907
241.806
235.628
225.168
254.687
247.541
247.153
246.266
245.458
244.26
242.751
240.125
233.504
222.801
262.983
248.651
247.382
246.193
245.11
243.581
241.726
238.803
232.238
221.53
280.549
251.37
247.985
246.197
244.777
242.947
240.817
237.864
231.789
221.559
306.527
255.415
249.457
246.379
244.502
242.345
239.946
237.055
231.52
222.087
236.675
221.316
210.692
201.378
191.218
179.915
167.522
154.15
140.105
125.974
230.261
217.958
208.81
200.096
190.165
178.931
166.588
153.339
139.616
126.141
223.731
214.366
206.194
197.674
187.964
177.125
165.373
152.872
139.853
126.673
218.655
211.148
203.156
194.306
184.46
173.689
162.191
150.243
138.177
126.341
213.27
206.868
198.865
189.762
180.086
169.945
159.393
148.526
137.471
126.379
207.632
202.331
195.068
186.598
177.601
168.148
158.231
147.91
137.291
126.504
203.813
199.377
192.792
184.9
176.37
167.288
157.669
147.596
137.187
126.577
202.528
198.277
191.936
184.328
176.019
167.085
157.569
147.567
137.209
126.641
203.855
199.146
192.701
185.121
176.792
167.78
158.145
148.001
137.487
126.756
206.528
201.099
194.368
186.662
178.17
168.941
159.061
148.659
137.884
126.892
112.4
112.57
112.654
112.505
111.999
111.638
111.453
111.738
111.731
111.482
89.833
90.296
90.5144
90.0808
88.6492
87.563
86.9422
87.6037
87.6414
87.0552
68.9972
69.6244
69.8853
69.2185
67.2796
65.5683
64.5483
65.0969
65.4013
64.8466
50.8862
51.492
51.6811
50.8579
48.8792
46.7137
45.3841
45.4195
46.1579
45.9249
36.247
36.6546
36.7044
35.8228
34.0312
31.716
30.0728
29.5076
30.3151
30.5032
25.2001
25.3028
25.1801
24.2565
22.6789
20.6502
18.8604
17.919
18.1736
18.6738
17.3184
17.1672
16.9516
15.9601
14.5453
13.0426
11.5567
10.4923
10.1518
10.5175
11.8352
11.6571
11.6074
10.6074
9.28832
8.28741
7.39839
6.55705
5.96762
5.88208
8.1628
8.07329
8.367
7.49844
6.3331
5.74454
5.41909
5.03706
4.55265
4.17047
6.29046
6.08538
6.4684
5.73027
4.86278
4.5902
4.61815
4.61128
4.45882
4.0607
5.51673
5.27994
5.36122
4.66812
4.13953
4.08841
4.24284
4.38773
4.50873
4.5637
5.08491
4.97434
4.69517
4.03101
3.75043
3.84339
4.05087
4.21988
4.33913
4.42412
4.7062
4.65864
4.22278
3.67416
3.55933
3.7272
3.95485
4.13423
4.25168
4.31116
4.25309
4.19415
3.78473
3.43625
3.44949
3.65508
3.86854
4.02576
4.124
4.16489
3.70646
3.60927
3.33829
3.22257
3.34065
3.55608
3.74483
3.88172
3.96273
3.9865
3.06068
2.96608
2.91054
3.00343
3.19958
3.40205
3.56635
3.68496
3.75193
3.76603
2.35162
2.369
2.50285
2.73458
2.96867
3.1668
3.3222
3.43675
3.50463
3.52166
1.6964
1.81129
2.05475
2.34162
2.5957
2.81053
2.98856
3.13028
3.22033
3.24985
1.0337
1.16253
1.42686
1.74787
2.05434
2.32659
2.56712
2.75438
2.85938
2.89695
0.363956
0.276196
0.505508
0.908105
1.32212
1.70383
2.02826
2.23996
2.33935
2.40171
3.90627
3.9572
3.83361
3.49934
2.83702
2.14076
1.54279
1.03724
0.589695
0.198021
3.97632
3.92389
3.78301
3.4828
2.7941
2.08152
1.49483
1.00853
0.577356
0.198438
3.99912
3.81476
3.67002
3.42873
2.747
2.02452
1.44921
0.982051
0.566626
0.198022
3.95783
3.6426
3.51747
3.32703
2.68746
1.96828
1.40569
0.957538
0.557142
0.196292
3.85266
3.44476
3.35429
3.17659
2.60471
1.90914
1.36348
0.934443
0.548408
0.193371
3.69819
3.26072
3.20466
3.00105
2.49429
1.84441
1.32238
0.9127
0.540266
0.189591
3.51718
3.10595
3.07465
2.83377
2.36198
1.77242
1.28195
0.892197
0.532554
0.185383
3.3199
2.97506
2.95877
2.69415
2.2249
1.69334
1.24078
0.872416
0.525286
0.181432
3.09827
2.85872
2.84602
2.58001
2.09953
1.61139
1.19622
0.848929
0.514711
0.176692
2.8414
2.75836
2.72662
2.47774
1.98878
1.53286
1.1501
0.821493
0.499668
0.170811
5.66949
4.22453
3.53127
3.15461
2.66795
2.1247
1.57832
1.06754
0.601393
0.194742
4.86609
4.00563
3.56876
3.21509
2.70807
2.13752
1.57741
1.06354
0.598938
0.194037
4.19614
3.91571
3.63051
3.28345
2.74603
2.14788
1.57612
1.06063
0.597698
0.194443
3.87619
3.91789
3.71655
3.3624
2.78516
2.15662
1.57404
1.05826
0.597412
0.19551
3.86103
3.96276
3.81986
3.4537
2.82836
2.16391
1.56998
1.05513
0.597395
0.197312
112.231
89.1713
68.1272
50.3621
36.353
26.0376
18.8713
13.9981
10.8169
9.00242
112.01
88.6091
67.4211
49.6278
35.5507
25.0332
17.5676
12.465
9.32325
7.82272
111.824
88.1289
66.783
48.8872
34.6395
23.8605
16.1473
10.9305
7.78706
6.32845
111.614
87.5552
65.9428
47.8226
33.315
22.2665
14.3757
9.1457
6.0611
4.68522
111.359
86.8273
64.8137
46.3497
31.5152
20.1988
12.2064
7.17281
4.69218
3.87769
243.93
243.966
244.083
244.254
244.469
244.482
243.983
243.284
243.383
243.157
244.146
244.216
244.327
244.516
244.787
244.965
244.751
244.104
243.841
243.729
244.346
244.393
244.504
244.698
244.982
245.243
245.218
244.714
244.28
244.223
244.587
244.619
244.715
244.886
245.138
245.421
245.525
245.258
244.87
244.796
244.851
244.868
244.947
245.092
245.3
245.556
245.755
245.758
245.595
245.5
245.121
245.133
245.2
245.32
245.489
245.713
245.976
246.211
246.312
246.298
245.368
245.386
245.467
245.6
245.776
246.005
246.299
246.644
246.931
247.048
245.627
245.648
245.746
245.934
246.184
246.48
246.832
247.226
247.569
247.739
245.985
246.019
246.101
246.323
246.682
247.119
247.606
248.1
248.421
248.385
246.378
246.485
246.587
246.78
247.171
247.719
248.295
248.822
249.157
248.954
136.705
136.447
136.424
136.686
136.469
136.071
135.53
135.358
135.429
135.594
161.148
160.552
160.574
161.211
160.558
159.436
157.972
157.516
157.721
158.179
183.386
182.82
183.107
183.63
182.58
180.834
178.866
178.178
178.426
179.048
202.345
202.1
202.819
202.829
201.471
199.274
197.267
196.423
196.601
197.202
217.811
217.986
218.77
218.182
216.514
214.171
212.35
211.447
211.485
211.889
229.687
230.169
230.398
229.438
227.631
225.575
223.966
223.019
222.885
222.985
237.883
238.218
237.854
236.779
235.289
233.762
232.312
231.295
231.068
230.914
242.535
242.412
241.8
240.967
240.09
239.075
237.723
236.697
236.634
236.454
244.255
243.833
243.338
242.98
242.686
242.103
240.917
240.022
240.302
240.214
244.393
243.965
243.81
243.831
243.906
243.667
242.798
242.039
242.418
242.227
255.123
247.198
247.838
246.615
246.326
245.803
245.216
244.821
244.683
244.712
252.296
247.138
247.654
246.609
246.376
245.861
245.235
244.86
244.766
244.687
250.385
247.148
247.44
246.619
246.428
245.921
245.281
244.962
244.936
244.721
249.23
247.172
247.237
246.648
246.48
245.988
245.367
245.119
245.156
244.825
248.55
247.164
247.116
246.689
246.527
246.063
245.497
245.301
245.378
244.984
248.097
247.114
247.081
246.729
246.565
246.147
245.655
245.464
245.557
245.168
247.788
247.075
247.07
246.758
246.587
246.232
245.801
245.583
245.681
245.348
247.584
247.064
247.062
246.776
246.595
246.303
245.903
245.657
245.754
245.512
247.455
247.064
247.054
246.787
246.605
246.343
245.96
245.704
245.785
245.655
247.372
247.065
247.047
246.794
246.615
246.362
245.996
245.744
245.771
245.763
317.63
254.07
250.219
247.234
246.448
245.877
245.487
245.13
244.422
242.893
295.899
251.681
249.107
247.014
246.363
245.842
245.439
245.096
244.632
243.693
277.456
249.526
248.518
246.853
246.319
245.818
245.385
245.035
244.712
244.366
266.05
248.183
248.2
246.736
246.298
245.799
245.323
244.949
244.7
244.694
259.278
247.456
247.98
246.641
246.291
245.783
245.25
244.844
244.652
244.726
239.467
237.617
234.402
229.496
222.297
211.948
197.903
180.105
159.035
135.962
240.649
239.112
235.938
230.805
223.306
212.754
198.64
180.812
159.599
136.183
242.162
240.663
237.483
232.232
224.485
213.669
199.383
181.452
160.079
136.369
243.825
242.419
239.29
234.018
226.087
214.998
200.45
182.293
160.653
136.579
244.611
243.775
241.275
236.205
228.165
216.803
201.925
183.423
161.38
136.832
)
;

boundaryField
{
    left
    {
        type            zeroGradient;
    }
    right
    {
        type            fixedValue;
        value           uniform 0;
    }
    down
    {
        type            zeroGradient;
    }
    up
    {
        type            zeroGradient;
    }
    cylinder
    {
        type            zeroGradient;
    }
    defaultFaces
    {
        type            empty;
    }
}


// ************************************************************************* //
