/*--------------------------------*- C++ -*----------------------------------*\
  =========                 |
  \\      /  F ield         | OpenFOAM: The Open Source CFD Toolbox
   \\    /   O peration     | Website:  https://openfoam.org
    \\  /    A nd           | Version:  13
     \\/     M anipulation  |
\*---------------------------------------------------------------------------*/
FoamFile
{
    format      ascii;
    class       volScalarField;
    location    "6.71";
    object      p;
}
// * * * * * * * * * * * * * * * * * * * * * * * * * * * * * * * * * * * * * //

dimensions      [0 2 -2 0 0 0 0];

internalField   nonuniform List<scalar> 
440
(
-0.747733
-0.731981
-0.750994
-0.728849
-0.836317
-0.768075
-0.750072
-0.733141
-0.715912
-0.712525
-0.860164
-0.828793
-0.792725
-0.751589
-0.706984
-0.973601
-0.923949
-0.843443
-0.747374
-0.650259
-1.05583
-0.990921
-0.849979
-0.7041
-0.570838
-0.665462
-0.665838
-0.672673
-0.686282
-0.701385
-0.605632
-0.61091
-0.62277
-0.639185
-0.655774
-0.589271
-0.59682
-0.610799
-0.628567
-0.645563
-0.649035
-0.657577
-0.676853
-0.705715
-0.733754
-0.715334
-0.719562
-0.746458
-0.750024
-0.8077
-0.786517
-0.604272
-0.745155
-0.400847
-0.1788
-0.74586
-0.394985
-0.818892
-0.520863
-0.143962
-0.667751
-0.11277
-0.782865
-0.702027
-0.117735
-0.60007
0.161813
-0.652976
-0.815283
-0.110552
-0.586247
0.317108
-0.502295
-0.820755
-0.11417
-0.389575
0.398091
-0.343397
-0.724945
-0.124426
-0.126439
0.244142
-0.127596
-0.452638
-0.137277
-0.150376
0.308764
0.0871635
-0.203145
-0.132811
-0.0647787
0.392372
0.210262
-0.108541
-0.129025
-0.0165674
0.436063
0.3695
0.0137303
-0.127621
-0.342962
-0.461993
-0.648156
-0.822971
-0.955591
-0.0973841
-0.219214
-0.305238
-0.3474
-0.349151
0.0746683
-0.0349392
-0.102751
-0.153201
-0.181377
0.173719
0.0674036
-0.00770284
-0.0599863
-0.0867164
0.215696
0.109779
0.0336069
-0.0157932
-0.0332226
1.03831
0.89524
0.712523
0.505951
0.275532
0.616503
0.461526
0.271851
0.0552029
-0.192403
0.203404
0.0457749
-0.154274
-0.380385
-0.605251
-0.16007
-0.32167
-0.519217
-0.733614
-0.902781
-0.404503
-0.563266
-0.745948
-0.937167
-1.04414
2.21348
2.24478
2.27388
2.28947
2.28786
2.02059
2.04189
2.05833
2.05813
2.03711
1.79001
1.78174
1.75188
1.69964
1.62126
1.5326
1.50035
1.43424
1.33753
1.21104
1.2899
1.19228
1.06416
0.913014
0.728061
1.96764
1.95604
1.94712
2.0048
2.09529
1.95732
1.94385
1.92767
1.97838
2.00402
1.94797
1.92723
1.90562
1.93986
1.88898
1.93991
1.90803
1.88111
1.89099
1.72141
1.93307
1.88812
1.8552
1.83545
1.54586
1.92779
1.85635
1.82129
1.73344
1.34405
1.92592
1.82298
1.80344
1.629
1.40614
1.93306
1.80526
1.79114
1.56195
1.37809
1.92608
1.78216
1.78576
1.50741
1.325
1.96408
1.77259
1.78392
1.48315
1.30736
1.00023
0.693354
0.344429
0.040124
-0.163173
0.90303
0.681384
0.441771
0.229101
0.0514256
0.881769
0.704604
0.52479
0.359571
0.203308
0.910625
0.753042
0.594263
0.442423
0.29876
0.937442
0.786769
0.634637
0.484758
0.342137
-1.15104
-1.00912
-0.843684
-0.708854
-0.629863
-1.19032
-1.1292
-1.00642
-0.906879
-0.849038
-1.0906
-1.04267
-0.973765
-0.918493
-0.886051
-0.92138
-0.881002
-0.839983
-0.809057
-0.791168
-0.787136
-0.765846
-0.738795
-0.720379
-0.74296
-0.708365
-0.697544
-0.666602
-0.655847
-0.637514
-0.706701
-0.692995
-0.668478
-0.650916
-0.65199
-0.742416
-0.728879
-0.711973
-0.699693
-0.700537
-0.762787
-0.754265
-0.749196
-0.754393
-0.766532
-0.735875
-0.731278
-0.731765
-0.742978
-0.75631
-0.747554
-0.677602
-0.262368
-0.19706
-0.0167851
-0.730948
-0.642992
-0.263142
-0.214524
-0.03553
-0.701403
-0.664502
-0.320774
-0.263189
-0.0880101
-0.796353
-0.716051
-0.4469
-0.320538
-0.150303
-0.806619
-0.704672
-0.60237
-0.366047
-0.185679
-0.275503
-0.776674
-0.384999
-0.228194
-0.0145576
-0.643255
-0.767069
-0.306058
-0.188524
-0.00860093
-0.584841
-0.831059
-0.858242
-0.818315
-0.58957
-0.604335
-0.827771
-0.871805
-0.800283
-0.798751
1.9151
1.89007
1.84691
1.78657
1.70698
2.09092
2.11038
2.11328
2.09822
2.06627
2.23801
2.27069
2.29473
2.30602
2.30295
2.31824
2.35794
2.39951
2.43323
2.44855
2.30835
2.34624
2.38826
2.42368
2.44017
-0.180115
-0.285147
-0.451519
-0.652489
-0.889539
0.41924
0.280972
0.096033
-0.12661
-0.411746
0.954889
0.809881
0.637239
0.433549
0.175436
1.38265
1.27152
1.13527
0.968713
0.765818
1.72181
1.64313
1.54018
1.41679
1.27133
2.03398
1.99197
1.98816
2.00379
2.0343
2.01808
1.98766
1.98562
2.0176
2.08867
2.0041
1.9822
1.98311
2.03223
2.15504
1.991
1.97562
1.97511
2.03327
2.15925
1.97883
1.96736
1.96281
2.02431
2.1445
2.08927
2.00015
1.97848
1.93314
1.92065
2.04493
1.99011
1.97272
1.95211
1.92638
1.60683
1.39807
1.02239
0.466957
-0.149418
1.6893
1.42886
1.03675
0.486401
-0.140595
)
;

boundaryField
{
    left
    {
        type            zeroGradient;
    }
    right
    {
        type            fixedValue;
        value           uniform 0;
    }
    down
    {
        type            zeroGradient;
    }
    up
    {
        type            zeroGradient;
    }
    cylinder
    {
        type            zeroGradient;
    }
    defaultFaces
    {
        type            empty;
    }
}


// ************************************************************************* //
