/*--------------------------------*- C++ -*----------------------------------*\
  =========                 |
  \\      /  F ield         | OpenFOAM: The Open Source CFD Toolbox
   \\    /   O peration     | Website:  https://openfoam.org
    \\  /    A nd           | Version:  13
     \\/     M anipulation  |
\*---------------------------------------------------------------------------*/
FoamFile
{
    format      ascii;
    class       surfaceScalarField;
    location    "0.69";
    object      phi;
}
// * * * * * * * * * * * * * * * * * * * * * * * * * * * * * * * * * * * * * //

dimensions      [0 3 -1 0 0 0 0];

internalField   nonuniform List<scalar> 
823
(
0.0229287
-0.0308874
0.0079587
0.069635
-0.179006
0.1323
0.116842
-0.268247
0.22104
0.156354
-0.301835
0.262323
-0.305332
0.269888
0.191798
0.0326506
-0.063538
0.0844945
-0.23085
0.130053
-0.313805
0.167176
-0.338958
-0.340263
0.202108
0.0387358
-0.102274
0.0871228
-0.279237
0.122037
-0.348719
0.145927
-0.362848
-0.356531
0.162194
0.0407694
-0.143043
0.0808216
-0.319289
0.104949
-0.372847
0.119469
-0.377367
-0.368837
0.131774
0.035251
-0.178294
0.0601007
-0.344139
0.0687476
-0.381494
0.0710591
-0.379679
0.0708879
-0.368666
-0.00914197
0.00787208
0.00126989
0.000459854
-0.022156
0.0125541
0.0305015
-0.0519951
0.0219535
0.0729793
-0.0692043
0.0267265
-0.0805223
0.124648
0.0288537
-0.00568025
0.0135523
0.00922005
-0.0370563
0.0437854
-0.0865605
0.0895449
-0.114964
-0.133216
0.142239
0.000217299
0.013335
0.0235028
-0.0603418
0.0644726
-0.12753
0.114276
-0.164767
-0.185232
0.166292
0.00721265
0.00612238
0.0396354
-0.0927645
0.0858498
-0.173745
0.136868
-0.215786
-0.231564
0.1832
0.0140811
0.0536167
0.100912
0.147449
0.185773
0.327367
-0.420494
0.217775
0.384231
-0.20174
0.144876
0.402209
-0.112381
0.0944027
0.404521
-0.0602485
0.0579363
-0.0169143
0.0220758
0.316395
-0.594651
0.379469
-0.264814
0.400291
-0.133202
0.404495
-0.0644529
-0.0137282
0.299828
-0.728188
0.36943
-0.334415
0.394605
-0.158377
0.402628
-0.0724764
-0.0145695
0.282774
-0.827761
0.35407
-0.405711
0.384995
-0.189303
0.398867
-0.0863475
-0.0214715
0.270072
-0.91206
0.335366
-0.471006
0.372097
-0.226034
0.393245
-0.107496
-0.0363286
0.787672
-0.712659
-0.987073
0.688097
-0.37143
0.648116
-0.186053
0.632919
-0.0922988
-0.0317863
0.802094
-0.494095
-1.02066
0.701134
-0.27047
0.658427
-0.143347
0.639351
-0.0732227
-0.0254094
0.821472
-0.302529
-1.01304
0.720925
-0.169922
0.66995
-0.0923722
0.645277
-0.0485489
-0.0170528
0.824459
-0.11871
-1.00828
0.724157
-0.0696192
0.671649
-0.0398644
0.645094
-0.0219942
-0.00783798
0.693095
-0.811806
0.623476
0.583612
0.561618
0.956953
0.0473393
-0.933404
0.964915
0.123812
0.99215
0.134959
0.981801
0.212457
0.186525
0.886856
0.0269423
-0.866459
0.917363
0.0933049
0.94905
0.103273
0.993736
0.167771
0.159603
0.843973
0.0123402
-0.82937
0.878557
0.0587209
0.912267
0.0695622
0.966556
0.113482
0.113121
0.808914
-0.000346292
-0.796227
0.846649
0.0209852
0.886937
0.0292741
0.949293
0.051126
0.054136
0.656284
-0.656631
0.67727
0.706544
0.75767
0.130342
0.272101
-0.226191
-0.176251
0.0890378
0.281102
-0.239798
0.0513492
0.293336
-0.255648
0.0180885
0.290422
-0.257161
0.192774
-0.174686
0.121989
0.310642
-0.16053
0.0837792
0.319312
0.0473526
0.329763
0.016003
0.321772
0.208777
0.087951
0.339727
-0.117036
0.0571903
0.350072
0.0274273
0.359526
0.00434978
0.344849
0.213127
0.0365968
0.359421
-0.0562907
0.0159673
0.370702
-0.00186878
0.377362
-0.010055
0.353035
0.203072
-0.0205657
0.0113213
-0.0295427
-0.0336742
-0.024778
0.189985
0.0788752
-0.236999
-0.0318611
0.141034
0.0822009
-0.0332503
0.0895906
0.0864047
-0.0349611
0.0372383
0.0882178
-0.0358655
0.0642009
-0.0269626
0.183673
0.124947
-0.229744
0.136208
0.129666
0.0861076
0.136505
0.0356495
0.138676
0.0998504
0.156257
0.167306
-0.198616
0.113908
0.172015
0.0705542
0.179858
0.0278806
0.181349
0.127731
0.155783
0.202608
-0.191085
0.116229
0.211569
0.0725093
0.223578
0.0288992
0.224959
0.15663
0.110556
-0.134139
0.0823276
0.0502575
0.0180556
0.409234
0.0265088
-0.039763
0.411764
0.0706367
-0.0731672
0.402382
0.116264
-0.106882
0.356356
0.180088
-0.134061
0.336945
-0.217588
0.406532
0.0159569
0.407228
0.0699402
0.395018
0.128474
0.352377
0.222729
0.459578
0.401457
0.0104795
0.398337
0.0730601
0.381162
0.14565
0.343113
0.260778
0.604075
0.394205
0.0122541
0.385042
0.0822232
0.363962
0.166729
0.329593
0.295147
0.742582
0.385187
0.0230469
0.367938
0.099472
0.339618
0.195049
0.298034
0.336731
0.906478
0.612585
0.0144828
0.626584
0.0854728
0.652554
0.169079
0.702149
0.287136
0.725875
0.882751
0.616587
0.00191597
0.638053
0.0640069
0.673893
0.133239
0.738948
0.222081
0.539298
0.925525
0.620511
-0.014575
0.647885
0.0366334
0.690009
0.0911146
0.763843
0.148247
0.348032
0.95511
0.621622
-0.0321761
0.652456
0.00579886
0.698987
0.0445832
0.776542
0.0706927
0.164729
0.959844
0.571844
0.577643
0.622226
0.692919
0.857649
0.915562
-0.209062
0.917605
-0.162573
0.916024
-0.115456
0.921627
-0.0618932
-0.000456103
0.900633
-0.18417
0.879497
-0.141437
0.862445
-0.0984035
0.859369
-0.0588177
-0.00754569
0.901058
-0.130118
0.863589
-0.103968
0.838301
-0.0731151
0.825666
-0.0461826
-0.0112506
0.893767
-0.0640419
0.844295
-0.0544956
0.812399
-0.0412191
0.795049
-0.0288321
-0.0124292
0.793607
0.739111
0.697892
0.66906
0.049042
0.212048
-0.26109
0.0636787
0.413673
-0.428309
0.0564199
0.456033
-0.448775
0.0444822
0.450896
-0.438958
0.412676
0.0365308
-0.404725
0.0879295
0.124119
0.14759
0.354013
0.170245
0.433378
0.172659
0.448482
0.42782
0.157515
0.0921026
0.0320162
0.200061
0.246054
0.266874
0.366566
0.307005
0.408351
0.430199
0.304625
0.0598775
-0.0278613
0.17614
0.129792
0.278669
0.264037
0.358776
0.328244
0.366583
0.422392
0.0237564
-0.0516177
0.100903
0.0526454
0.195466
0.169474
0.280046
0.243663
0.281244
0.365386
-0.00103465
-0.050583
0.0335949
0.0180159
0.0974831
0.105586
0.174246
0.1669
0.207275
0.248215
-0.0116631
-0.0389199
0.00103053
0.00532224
0.0426797
0.0639367
0.103983
0.105596
0.138346
0.172912
-0.013784
-0.0251359
-0.00783046
-0.000631309
0.0228549
0.0332513
0.0714394
0.0570116
0.0774264
0.132359
-0.0127667
-0.0123692
-0.00752228
-0.00587569
0.0199086
0.00582039
0.0624149
0.0145053
0.0229059
0.116936
-0.0110993
-0.0044209
0.023353
0.0645848
0.116344
0.282187
0.483773
-0.517744
0.326789
0.0898344
-0.134437
0.356362
-0.0134475
-0.0161258
0.377746
-0.0310945
0.00971074
-0.0214
0.00586946
0.28664
0.370045
0.350381
0.0260933
0.374267
-0.0373335
0.386909
-0.0437359
-0.0287493
0.303686
0.198718
0.364411
-0.0346319
0.38603
-0.0589529
0.393832
-0.051537
-0.0300269
0.320614
-0.00496089
0.376714
-0.0907321
0.395038
-0.0772767
0.399143
-0.0556416
-0.0271329
0.329159
0.383302
0.400428
0.402723
0.373539
0.10265
-0.476189
0.390721
-0.0171821
0.403366
-0.0126451
0.411891
-0.00852447
-0.00321481
0.678946
-1.09404
0.527327
0.498556
0.499742
0.0953671
-0.00513071
-0.0902364
0.138326
-0.0429591
0.21668
-0.0783535
0.358186
-0.141506
-0.118004
0.224943
-0.193543
0.339499
0.565771
0.846657
0.13071
-0.148953
0.179424
-0.161181
0.0994613
-0.158196
0.189445
0.064156
-0.170141
0.205447
0.0258325
-0.174112
0.212436
-0.123758
0.149591
0.191855
-0.110742
-0.230065
0.147395
-0.113736
0.0955604
-0.118307
0.0405461
-0.119098
-0.0832123
0.17917
-0.0622769
-0.227635
0.130958
-0.0655245
0.0821324
-0.0694817
0.0338176
-0.0707833
-0.0493947
0.192713
-0.0153107
-0.239679
0.143472
-0.0162836
0.0913445
-0.0173544
0.0381772
-0.0176159
-0.0112176
0.193511
-0.240683
0.143977
0.0916616
0.0381802
0.0711093
-0.381492
-0.0943424
0.0388825
-0.406732
0.00778044
-0.417672
-0.0119872
-0.408542
-0.273078
0.161972
-0.339492
-0.203971
0.110341
-0.3551
0.0589793
-0.366311
0.0166611
-0.366224
-0.256416
0.192461
-0.290137
-0.241815
0.138862
-0.301501
0.0847497
-0.312199
0.0335784
-0.315052
-0.222838
0.205043
-0.240801
-0.254379
0.149969
-0.246427
0.0946687
-0.256899
0.0403447
-0.260728
-0.182493
0.18963
-0.251007
0.132648
0.0811948
0.0329025
0.386219
0.0696699
-0.0599096
0.366635
0.0628902
-0.0433059
0.335867
0.0420802
-0.0113121
0.309008
-0.0116255
0.0384842
-0.237409
0.385237
0.395154
0.0704955
0.385222
0.0728224
0.361607
0.0656947
0.336589
0.013393
-0.130886
0.402222
0.0642529
0.398799
0.076246
0.379817
0.0846759
0.346577
0.0466336
-0.0119439
0.40704
0.0531924
0.407622
0.0756645
0.39489
0.0974078
0.35342
0.088103
0.101798
0.409409
0.411906
0.402432
0.356473
0.450868
0.0591833
0.417167
0.0337009
0.412847
0.00431945
0.439485
-0.0266376
-0.18732
0.626805
0.509325
0.49972
0.492727
0.504574
0.702491
0.494006
0.132798
0.376805
0.117201
0.248745
0.12806
0.139712
0.109033
0.0494755
0.584282
0.447103
0.333348
0.23841
)
;

boundaryField
{
    left
    {
        type            calculated;
        value           nonuniform List<scalar> 
17
(
-0.60402
-0.60402
-0.60402
-0.60402
-0.60402
-0.39598
-0.39598
-0.39598
-0.39598
-0.39598
-0.39598
-0.39598
-0.39598
-0.39598
-0.39598
-0.510051
-0.510051
)
;
    }
    right
    {
        type            calculated;
        value           nonuniform List<scalar> 
17
(
0.415105
0.502397
0.393277
0.394258
0.395109
0.396249
0.397666
0.39936
0.401309
0.403469
0.405769
0.408103
0.628377
0.632974
0.63692
0.635879
0.55378
)
;
    }
    down
    {
        type            calculated;
        value           uniform 0;
    }
    up
    {
        type            calculated;
        value           uniform 0;
    }
    cylinder
    {
        type            calculated;
        value           uniform 0;
    }
    defaultFaces
    {
        type            empty;
    }
}


// ************************************************************************* //
