/*--------------------------------*- C++ -*----------------------------------*\
  =========                 |
  \\      /  F ield         | OpenFOAM: The Open Source CFD Toolbox
   \\    /   O peration     | Website:  https://openfoam.org
    \\  /    A nd           | Version:  13
     \\/     M anipulation  |
\*---------------------------------------------------------------------------*/
FoamFile
{
    format      ascii;
    class       volScalarField;
    location    "3.7";
    object      p;
}
// * * * * * * * * * * * * * * * * * * * * * * * * * * * * * * * * * * * * * //

dimensions      [0 2 -2 0 0 0 0];

internalField   nonuniform List<scalar> 
1800
(
-0.997157
-0.99768
-0.996221
-0.99173
-0.984461
-0.974952
-0.965863
-0.960014
-0.955693
-0.994991
-1.02387
-1.02265
-1.02015
-1.0156
-1.00901
-1.00061
-0.991338
-0.98344
-0.975872
-1.00469
-1.06105
-1.05681
-1.05216
-1.04648
-1.03991
-1.03243
-1.02414
-1.01573
-1.00847
-1.0138
-1.10619
-1.09871
-1.091
-1.08315
-1.0749
-1.06575
-1.05518
-1.04321
-1.03102
-1.02118
-1.16444
-1.15384
-1.14342
-1.13289
-1.12129
-1.10732
-1.09005
-1.06944
-1.0465
-1.02289
-1.23788
-1.22446
-1.21092
-1.19626
-1.17807
-1.15462
-1.12566
-1.09221
-1.05595
-1.01878
-1.3253
-1.30933
-1.29153
-1.26971
-1.24031
-1.20255
-1.15811
-1.10981
-1.0602
-1.01166
-1.42075
-1.40262
-1.37839
-1.34494
-1.29935
-1.24335
-1.18138
-1.11761
-1.05491
-0.995071
-1.51437
-1.49399
-1.46034
-1.41073
-1.34509
-1.26914
-1.18967
-1.11144
-1.03695
-0.96744
-1.59327
-1.56988
-1.52394
-1.45491
-1.36771
-1.27232
-1.17684
-1.08566
-1.0006
-0.922115
-1.00724
-1.01412
-1.02292
-1.03512
-1.05257
-1.07514
-1.10172
-1.13184
-1.16726
-1.21041
-1.04378
-1.04789
-1.05412
-1.06508
-1.08227
-1.10534
-1.13314
-1.16472
-1.2008
-1.24345
-1.08597
-1.08672
-1.08928
-1.0988
-1.11522
-1.13803
-1.16617
-1.19837
-1.23407
-1.2744
-1.1113
-1.10756
-1.10745
-1.11442
-1.1287
-1.14968
-1.17631
-1.2074
-1.24151
-1.27705
-1.11124
-1.10389
-1.10051
-1.10389
-1.11426
-1.13119
-1.15389
-1.18147
-1.21282
-1.24591
-1.08983
-1.08092
-1.07481
-1.07338
-1.07697
-1.08565
-1.09921
-1.11722
-1.13907
-1.16258
-1.05908
-1.05123
-1.04416
-1.03843
-1.03416
-1.03184
-1.03209
-1.03545
-1.0425
-1.0537
-1.02864
-1.02382
-1.01791
-1.01028
-1.00059
-0.989264
-0.9774
-0.966414
-0.958352
-0.959031
-1.00377
-1.00205
-0.998275
-0.990701
-0.978953
-0.963439
-0.94542
-0.926751
-0.910213
-0.90251
-0.986554
-0.987169
-0.98471
-0.977749
-0.966268
-0.950686
-0.931988
-0.911891
-0.892835
-0.877011
-1.45445
-1.60838
-1.0355
-0.570356
-0.301695
-0.0880044
0.00179164
0.0379189
0.0339709
0.0172044
-1.49168
-1.73234
-1.21885
-0.692632
-0.354023
-0.109362
-0.00575527
0.0345017
0.0319847
0.0163514
-1.52913
-1.86517
-1.40848
-0.813294
-0.40794
-0.134106
-0.0165771
0.0287373
0.0288129
0.0149524
-1.53531
-1.97231
-1.57081
-0.926594
-0.461272
-0.161401
-0.0303161
0.0208205
0.0245479
0.0130733
-1.49067
-2.03035
-1.69871
-1.02737
-0.513384
-0.190597
-0.0465946
0.0109793
0.0193115
0.0108119
-1.39254
-2.03851
-1.78453
-1.11238
-0.564184
-0.22157
-0.0651494
-0.000564089
0.0132359
0.00826773
-1.24764
-1.99799
-1.82916
-1.17917
-0.612804
-0.254459
-0.0859369
-0.0136685
0.00643074
0.00552759
-1.08185
-1.91692
-1.83733
-1.22597
-0.657522
-0.288948
-0.108975
-0.0283252
-0.00107848
0.00265798
-0.930642
-1.81576
-1.81686
-1.2536
-0.696524
-0.324002
-0.134087
-0.0446143
-0.00939353
-0.000322192
-0.82216
-1.70649
-1.78085
-1.26801
-0.730401
-0.358766
-0.160843
-0.0625502
-0.0186859
-0.0034575
-0.701545
-1.62476
-1.70749
-1.22622
-0.731169
-0.385033
-0.189894
-0.0850923
-0.0312358
-0.00765078
-0.760264
-1.44741
-1.50529
-1.10307
-0.701175
-0.406787
-0.223495
-0.112633
-0.0467365
-0.0126691
-0.762643
-1.25142
-1.30408
-0.998365
-0.681969
-0.433193
-0.258704
-0.140213
-0.0618466
-0.0170192
-0.752427
-1.07865
-1.13341
-0.912723
-0.670056
-0.465633
-0.299471
-0.171146
-0.0790309
-0.0217512
-0.715719
-0.933937
-0.988506
-0.840682
-0.667439
-0.506178
-0.344341
-0.201657
-0.0940321
-0.0248572
-0.668682
-0.815746
-0.866946
-0.781325
-0.670861
-0.546537
-0.385947
-0.23021
-0.10812
-0.0282894
-0.618705
-0.720035
-0.765522
-0.73157
-0.678023
-0.58414
-0.420243
-0.251637
-0.118101
-0.029461
-0.570195
-0.646729
-0.690199
-0.695219
-0.680322
-0.602148
-0.436108
-0.263276
-0.124019
-0.0301804
-0.534154
-0.609437
-0.652974
-0.674091
-0.675752
-0.602676
-0.437602
-0.265989
-0.126447
-0.030689
-0.509409
-0.604002
-0.659527
-0.679328
-0.671074
-0.593111
-0.432901
-0.264795
-0.127801
-0.0317612
-0.786635
-0.843993
-0.886947
-0.920664
-0.947249
-0.975016
-1.00105
-1.02286
-1.01008
-0.984167
-0.631862
-0.69722
-0.751312
-0.796162
-0.833386
-0.862492
-0.882394
-0.891006
-0.887644
-0.882768
-0.50879
-0.576576
-0.635393
-0.684021
-0.724094
-0.753925
-0.775446
-0.78939
-0.798469
-0.806941
-0.408008
-0.4763
-0.536149
-0.586783
-0.628571
-0.66261
-0.689575
-0.713222
-0.732745
-0.752699
-0.326056
-0.393853
-0.453124
-0.505162
-0.548487
-0.586551
-0.617859
-0.646854
-0.671467
-0.695838
-0.260117
-0.326835
-0.385348
-0.437784
-0.482085
-0.521725
-0.554975
-0.585328
-0.611489
-0.636317
-0.208363
-0.27379
-0.331641
-0.383426
-0.427762
-0.466875
-0.500076
-0.529518
-0.555332
-0.579179
-0.170265
-0.234512
-0.291748
-0.342267
-0.385833
-0.423229
-0.455138
-0.482355
-0.506333
-0.527315
-0.147457
-0.21095
-0.267824
-0.31753
-0.360555
-0.396577
-0.427112
-0.451677
-0.472948
-0.489499
-0.137578
-0.201509
-0.258598
-0.308662
-0.351828
-0.387979
-0.418132
-0.441604
-0.460916
-0.472662
0.595773
0.523833
0.441431
0.353136
0.257619
0.152501
0.0379937
-0.0792356
-0.177309
-0.224381
0.396157
0.318619
0.232105
0.137335
0.0324206
-0.0842214
-0.211309
-0.340425
-0.447263
-0.497161
0.177519
0.0973011
0.00841299
-0.0903144
-0.201025
-0.324886
-0.459946
-0.596466
-0.708847
-0.759547
-0.0320221
-0.115402
-0.208159
-0.31174
-0.427964
-0.557742
-0.698857
-0.839802
-0.954335
-1.00358
-0.220349
-0.308066
-0.405807
-0.514774
-0.636456
-0.77141
-0.917356
-1.06052
-1.17109
-1.21973
-0.387232
-0.479267
-0.581449
-0.694723
-0.820393
-0.958972
-1.10553
-1.24594
-1.35236
-1.39909
-0.533932
-0.6288
-0.733326
-0.848547
-0.975493
-1.11363
-1.25738
-1.3918
-1.49094
-1.534
-0.663124
-0.757435
-0.860947
-0.974695
-1.09926
-1.23313
-1.36969
-1.49348
-1.58168
-1.61981
-0.771474
-0.862543
-0.962297
-1.07149
-1.19
-1.31529
-1.43965
-1.54808
-1.62278
-1.65545
-0.857896
-0.943556
-1.03706
-1.13862
-1.2473
-1.35952
-1.46698
-1.55647
-1.61653
-1.64408
1.90176
1.91754
1.93384
1.94946
1.96349
1.97522
1.98389
1.98946
1.99397
1.99865
1.83423
1.84678
1.85905
1.86995
1.87872
1.88465
1.88699
1.886
1.8848
1.88607
1.74551
1.75381
1.76082
1.7656
1.76762
1.76617
1.76053
1.75127
1.74281
1.73991
1.63762
1.64114
1.64183
1.63913
1.63284
1.62223
1.60664
1.58708
1.56958
1.56182
1.51041
1.50807
1.5015
1.49048
1.47502
1.45437
1.42788
1.397
1.36943
1.35635
1.3679
1.35963
1.34488
1.32414
1.2979
1.2655
1.2264
1.18268
1.14393
1.12487
1.21014
1.19538
1.17243
1.14208
1.105
1.06044
1.00802
0.950571
0.89993
0.874703
1.04632
1.02404
0.990746
0.948533
0.898723
0.840634
0.773996
0.702325
0.639703
0.608327
0.881333
0.851473
0.807436
0.752602
0.688928
0.615827
0.533339
0.44608
0.370839
0.33348
0.729819
0.682181
0.620655
0.550158
0.471648
0.383545
0.285701
0.183615
0.0966993
0.0540743
1.62291
1.6094
1.5991
1.59313
1.59304
1.59766
1.61798
1.65692
1.72399
1.83047
1.61682
1.60428
1.59484
1.58788
1.58767
1.58994
1.60852
1.64212
1.69985
1.78931
1.61134
1.59919
1.59043
1.5822
1.58173
1.58105
1.59767
1.62417
1.67015
1.73634
1.60638
1.59421
1.58586
1.5761
1.57522
1.57098
1.58548
1.60287
1.63544
1.67095
1.60191
1.58936
1.58114
1.56963
1.56812
1.55976
1.57195
1.57802
1.59636
1.5921
1.5979
1.58469
1.57625
1.56286
1.5604
1.54746
1.55697
1.54959
1.55312
1.49901
1.59436
1.58022
1.57119
1.55581
1.55199
1.53414
1.54042
1.51758
1.50585
1.39015
1.59128
1.57596
1.56596
1.54852
1.54288
1.5199
1.5221
1.48221
1.4543
1.26703
1.58871
1.57192
1.56058
1.54103
1.53308
1.50492
1.50186
1.44366
1.39664
1.12778
1.58667
1.56811
1.5551
1.53335
1.52272
1.48934
1.48081
1.40375
1.33594
0.984011
1.58471
1.5639
1.54779
1.52375
1.50826
1.46868
1.4499
1.35357
1.26423
0.847026
1.58401
1.56002
1.53955
1.51329
1.49115
1.44679
1.41478
1.31053
1.19323
0.828798
1.58519
1.55729
1.53113
1.50346
1.47368
1.42692
1.38114
1.2762
1.13565
0.823172
1.5888
1.5557
1.52282
1.49448
1.45633
1.40925
1.34982
1.24909
1.08862
0.822794
1.59551
1.55503
1.51474
1.4864
1.43844
1.39386
1.32089
1.22853
1.05221
0.824826
1.60596
1.55538
1.50698
1.47921
1.42097
1.3806
1.29476
1.21351
1.02572
0.825947
1.61999
1.5545
1.49822
1.47008
1.40326
1.36839
1.27196
1.20221
1.00748
0.826561
1.64521
1.55801
1.4925
1.46317
1.38791
1.35768
1.25319
1.19456
0.995708
0.82777
1.6578
1.55052
1.48027
1.45119
1.37503
1.35041
1.24111
1.19108
0.990278
0.831056
1.73436
1.56352
1.48401
1.44837
1.36922
1.34751
1.23577
1.19124
0.987807
0.835986
0.584039
0.422065
0.228625
0.0426185
-0.123607
-0.271228
-0.403073
-0.521244
-0.625119
-0.714209
0.539803
0.412716
0.266913
0.119845
-0.0164823
-0.141507
-0.256375
-0.36425
-0.464459
-0.554499
0.529529
0.421834
0.305299
0.184862
0.067883
-0.0440631
-0.150484
-0.251421
-0.344988
-0.431014
0.546917
0.446581
0.342144
0.237474
0.134298
0.0333223
-0.0646432
-0.158735
-0.248006
-0.331357
0.568778
0.474135
0.377463
0.282592
0.189274
0.0966739
0.00518177
-0.0844152
-0.170289
-0.251475
0.5906
0.501224
0.410474
0.321979
0.235044
0.147998
0.0609564
-0.0253783
-0.108475
-0.187566
0.610705
0.526205
0.440227
0.355991
0.272826
0.189094
0.104871
0.0209766
-0.0600933
-0.137283
0.628374
0.548314
0.466361
0.384869
0.30338
0.22094
0.137905
0.0554272
-0.0243043
-0.10005
0.643945
0.567535
0.488729
0.408374
0.326496
0.243315
0.159858
0.0774887
-0.00212555
-0.0775645
0.656319
0.581562
0.503503
0.422117
0.338537
0.254046
0.169961
0.0874287
0.00786705
-0.0675558
-1.6713
-1.63257
-1.54983
-1.44558
-1.33972
-1.24321
-1.16017
-1.09174
-1.03823
-1.0001
-1.74896
-1.71504
-1.64575
-1.55616
-1.46233
-1.37504
-1.2991
-1.23619
-1.18732
-1.15374
-1.76194
-1.73223
-1.67758
-1.60582
-1.52761
-1.45242
-1.38543
-1.32888
-1.28425
-1.25303
-1.72268
-1.69642
-1.65534
-1.60207
-1.54162
-1.48097
-1.42511
-1.37669
-1.33758
-1.30941
-1.65011
-1.627
-1.59679
-1.55963
-1.51639
-1.47091
-1.42703
-1.38724
-1.35336
-1.32633
-1.56445
-1.54467
-1.5223
-1.49688
-1.46746
-1.43534
-1.40284
-1.37172
-1.34394
-1.32085
-1.48201
-1.46599
-1.44923
-1.43136
-1.41144
-1.38964
-1.36693
-1.34457
-1.32355
-1.30489
-1.41214
-1.40016
-1.38771
-1.37461
-1.36046
-1.34517
-1.32904
-1.31211
-1.29654
-1.28227
-1.35788
-1.34964
-1.34082
-1.33121
-1.32091
-1.31
-1.29863
-1.28721
-1.27542
-1.27236
-1.31794
-1.31286
-1.30702
-1.30023
-1.29282
-1.28508
-1.27708
-1.2697
-1.25964
-1.26177
-1.28932
-1.28652
-1.28297
-1.27846
-1.27346
-1.2684
-1.26364
-1.2594
-1.25297
-1.23148
-1.2693
-1.2678
-1.26544
-1.26231
-1.25889
-1.25557
-1.25245
-1.24927
-1.24383
-1.21913
-1.25625
-1.25482
-1.25292
-1.25071
-1.24846
-1.2464
-1.24478
-1.2433
-1.24029
-1.2312
-1.2462
-1.24479
-1.24395
-1.2441
-1.24524
-1.24742
-1.25067
-1.25495
-1.26032
-1.26924
-1.23024
-1.22991
-1.23155
-1.23588
-1.24273
-1.25195
-1.26347
-1.27721
-1.29319
-1.31287
-1.19917
-1.20118
-1.20605
-1.21458
-1.22662
-1.242
-1.26055
-1.28209
-1.30616
-1.33298
-1.15
-1.15504
-1.16307
-1.17479
-1.19044
-1.20989
-1.23275
-1.25838
-1.28622
-1.31824
-1.08756
-1.09511
-1.10536
-1.11874
-1.13618
-1.15775
-1.18288
-1.21101
-1.24328
-1.28414
-1.02953
-1.03835
-1.04939
-1.06305
-1.08078
-1.10269
-1.12803
-1.15655
-1.19052
-1.23388
-0.999706
-1.00831
-1.01878
-1.03193
-1.04956
-1.07167
-1.09735
-1.12638
-1.1612
-1.20493
-1.24123
-1.43945
-0.963073
-0.62455
-0.421864
-0.201915
-0.0673689
-0.00618852
0.0122591
0.00883865
-1.31574
-1.50982
-0.927803
-0.518061
-0.339986
-0.167065
-0.0606795
-0.00699253
0.0113739
0.00857886
-1.39645
-1.55284
-0.874679
-0.400994
-0.261364
-0.133668
-0.05169
-0.00428983
0.0127702
0.0091773
-1.48472
-1.58014
-0.812845
-0.29428
-0.193811
-0.103566
-0.0398782
0.00203434
0.016247
0.0104827
-1.56546
-1.60393
-0.756993
-0.219922
-0.149713
-0.0800601
-0.0265197
0.0107045
0.0208929
0.0121795
-1.62023
-1.61731
-0.721429
-0.18939
-0.133798
-0.0643302
-0.0137501
0.0197796
0.0256171
0.0139174
-1.62786
-1.60413
-0.715324
-0.20686
-0.145535
-0.0558944
-0.00359012
0.027662
0.0296173
0.0154255
-1.57971
-1.56143
-0.739735
-0.26747
-0.172596
-0.0543202
0.00312866
0.0336295
0.0325299
0.016563
-1.501
-1.52318
-0.793161
-0.353654
-0.20964
-0.0595327
0.00626185
0.0374163
0.0342413
0.0172687
-1.4552
-1.53471
-0.889873
-0.455123
-0.253437
-0.071038
0.00581941
0.0388826
0.0347251
0.0174989
-1.08123
-1.05614
-0.867794
-0.743949
-0.519334
-0.237666
-0.064209
0.00675455
0.0210106
0.0121955
-1.07566
-1.04639
-0.863032
-0.746303
-0.525968
-0.24121
-0.0656548
0.00612496
0.0206778
0.0120731
-1.08682
-1.08765
-0.87726
-0.749622
-0.530132
-0.244366
-0.06789
0.00423664
0.0195074
0.0116319
-1.11953
-1.18202
-0.907972
-0.744413
-0.526167
-0.242078
-0.0698676
0.0010173
0.0174228
0.0108083
-1.17576
-1.32842
-0.947388
-0.696363
-0.483624
-0.229001
-0.0709056
-0.00324532
0.0146463
0.00974723
-0.96176
-1.1081
-1.20739
-1.2716
-1.28915
-1.29531
-1.27697
-1.24884
-1.21411
-1.17346
-0.962598
-1.11124
-1.20909
-1.27162
-1.28411
-1.28976
-1.26991
-1.23768
-1.20905
-1.16475
-0.965191
-1.11551
-1.21251
-1.27325
-1.28349
-1.28855
-1.26755
-1.23847
-1.21444
-1.17904
-0.971309
-1.12367
-1.22111
-1.27976
-1.29142
-1.29299
-1.27391
-1.25109
-1.23246
-1.21881
-0.981798
-1.13672
-1.23533
-1.29216
-1.30654
-1.30329
-1.2881
-1.26846
-1.25512
-1.26102
1.45105
1.44033
1.4227
1.40121
1.37673
1.3482
1.31488
1.27857
1.24746
1.23271
1.56196
1.56351
1.55852
1.54896
1.53597
1.51902
1.49755
1.47293
1.4517
1.44214
1.6698
1.67698
1.67941
1.67839
1.67472
1.66789
1.65725
1.64357
1.63165
1.62685
1.7656
1.77745
1.78645
1.79307
1.79757
1.79937
1.79773
1.79301
1.78869
1.78815
1.84733
1.86275
1.87642
1.88845
1.89883
1.90697
1.91213
1.9144
1.91615
1.91913
1.90998
1.92774
1.945
1.9614
1.97656
1.98987
2.00055
2.00838
2.01489
2.02077
1.95261
1.97189
1.99149
2.01071
2.02891
2.04544
2.05955
2.07086
2.08039
2.08818
1.97335
1.9932
2.01391
2.03453
2.05422
2.07233
2.08807
2.101
2.11193
2.1206
1.9718
1.99129
2.01184
2.03234
2.05185
2.06967
2.08506
2.09758
2.10816
2.11661
1.94788
1.96604
1.98513
2.00397
2.02159
2.03728
2.0503
2.06037
2.06879
2.07591
-0.793827
-0.838206
-0.896507
-0.969317
-1.05742
-1.16017
-1.2743
-1.38913
-1.48228
-1.52548
-0.541911
-0.592578
-0.655849
-0.732495
-0.823679
-0.92956
-1.04862
-1.1705
-1.27079
-1.31687
-0.259007
-0.315622
-0.3836
-0.463379
-0.556267
-0.662938
-0.781875
-0.904277
-1.01045
-1.05764
0.0334944
-0.0274171
-0.0983224
-0.179345
-0.271712
-0.376256
-0.491793
-0.611398
-0.714157
-0.763243
0.314458
0.252245
0.181621
0.102629
0.0141163
-0.0849666
-0.193895
-0.306475
-0.402341
-0.449703
0.568624
0.509365
0.443225
0.370242
0.289252
0.199059
0.100113
-0.00206844
-0.0887784
-0.132179
0.79253
0.740197
0.682255
0.618586
0.547953
0.469093
0.3823
0.292493
0.216426
0.178295
0.993872
0.95008
0.90169
0.848501
0.789139
0.722312
0.648246
0.571306
0.506257
0.473862
1.18164
1.14552
1.10489
1.0606
1.01138
0.955856
0.894117
0.829849
0.775692
0.749077
1.34615
1.31749
1.28327
1.24695
1.20785
1.16431
1.11587
1.06516
1.02239
1.0017
1.73632
1.64597
1.62342
1.61358
1.60791
1.61401
1.62381
1.64538
1.63684
1.5785
1.71889
1.64507
1.62345
1.61504
1.61009
1.61747
1.6304
1.65737
1.66796
1.65146
1.70318
1.64319
1.62264
1.6155
1.61132
1.61969
1.63585
1.66983
1.69829
1.72207
1.68907
1.64052
1.62117
1.61506
1.61168
1.62073
1.63965
1.67878
1.72302
1.77918
1.67639
1.63718
1.61915
1.61385
1.61124
1.62071
1.64164
1.68468
1.74186
1.82425
1.66498
1.6333
1.61668
1.6119
1.61004
1.6196
1.64185
1.68751
1.7545
1.8565
1.6547
1.629
1.61379
1.60928
1.60806
1.61741
1.64034
1.68725
1.76077
1.87601
1.64546
1.62437
1.61055
1.60604
1.60535
1.61412
1.63717
1.68395
1.76067
1.88308
1.63714
1.61951
1.60699
1.60224
1.60192
1.60973
1.63237
1.67775
1.75445
1.8777
1.62965
1.6145
1.60316
1.59792
1.5978
1.60425
1.62596
1.66875
1.74221
1.86003
1.90324
1.64877
1.61567
1.60043
1.59577
1.5973
1.59396
1.59488
1.52981
1.4737
1.82881
1.64282
1.61672
1.60344
1.59761
1.59855
1.5948
1.59628
1.53231
1.47033
1.80585
1.6478
1.62033
1.60644
1.59969
1.6008
1.59774
1.6007
1.54308
1.47016
1.77919
1.64747
1.62198
1.60911
1.60212
1.60419
1.60407
1.61038
1.56371
1.48151
1.75604
1.64662
1.62289
1.61145
1.60488
1.60867
1.6122
1.62482
1.59392
1.50534
1.22755
1.11711
0.969367
0.779825
0.551126
0.29076
0.010753
-0.27159
-0.537274
-0.769763
1.22227
1.11532
0.973173
0.788949
0.565773
0.309224
0.029751
-0.255593
-0.527004
-0.765936
1.2332
1.1228
0.978968
0.796937
0.577878
0.324056
0.0442991
-0.244157
-0.520497
-0.764693
1.26581
1.142
0.987965
0.804312
0.587568
0.335212
0.0544663
-0.237147
-0.517924
-0.766922
1.32162
1.17558
1.00238
0.811093
0.593324
0.341647
0.0606156
-0.233371
-0.518558
-0.772959
)
;

boundaryField
{
    left
    {
        type            zeroGradient;
    }
    right
    {
        type            fixedValue;
        value           uniform 0;
    }
    down
    {
        type            zeroGradient;
    }
    up
    {
        type            zeroGradient;
    }
    cylinder
    {
        type            zeroGradient;
    }
    defaultFaces
    {
        type            empty;
    }
}


// ************************************************************************* //
