/*--------------------------------*- C++ -*----------------------------------*\
  =========                 |
  \\      /  F ield         | OpenFOAM: The Open Source CFD Toolbox
   \\    /   O peration     | Website:  https://openfoam.org
    \\  /    A nd           | Version:  13
     \\/     M anipulation  |
\*---------------------------------------------------------------------------*/
FoamFile
{
    format      ascii;
    class       surfaceScalarField;
    location    "3.7";
    object      phi;
}
// * * * * * * * * * * * * * * * * * * * * * * * * * * * * * * * * * * * * * //

dimensions      [0 3 -1 0 0 0 0];

internalField   nonuniform List<scalar> 
3485
(
-0.0017992
0.00402732
-0.00222813
-0.00443483
0.00787909
-0.00524346
-0.00584019
0.00874727
-0.00734191
-0.00437872
0.00706677
-0.00852823
0.00132071
0.00287936
-0.00857879
0.0124059
-0.0038664
-0.00721883
0.0298322
-0.0131605
-0.00426585
0.0541097
-0.024687
0.000409543
0.0859512
-0.0375707
0.00572916
-0.0436231
0.00908245
0.120492
-0.000723012
0.00475034
-0.000938258
0.00809433
0.00111908
0.00668994
0.00709309
0.00109276
0.0183666
-0.00839411
0.0359351
-0.0214349
0.0601628
-0.0373882
0.0908262
-0.0553505
0.127512
-0.0742564
-0.0881186
0.172008
0.000329762
0.00442057
0.00283202
0.00559208
0.00913639
0.000385563
0.0208837
-0.0106545
0.0391428
-0.0266533
0.0641589
-0.046451
0.0951492
-0.0683785
0.130407
-0.0906086
0.167869
-0.111718
-0.129152
0.208902
0.00103121
0.00338937
0.00600101
0.000622278
0.0167432
-0.0103566
0.0344402
-0.0283516
0.0593097
-0.0515228
0.0901343
-0.0772755
0.124587
-0.102831
0.159891
-0.125913
0.193304
-0.145131
-0.159905
0.224057
0.0019174
0.00147197
0.00973476
-0.00719508
0.0251
-0.0257218
0.048335
-0.0515866
0.0778785
-0.0810663
0.110675
-0.110072
0.143245
-0.135401
0.172681
-0.155348
0.197168
-0.169618
-0.179162
0.216425
0.00308803
-0.00161606
0.0140724
-0.0181794
0.033762
-0.0454115
0.0606389
-0.0784634
0.0910909
-0.111518
0.120972
-0.139953
0.147097
-0.161526
0.167891
-0.176143
0.183312
-0.185039
-0.189874
0.194024
0.00441557
-0.00603163
0.0184062
-0.03217
0.0409988
-0.0680041
0.068416
-0.105881
0.0958221
-0.138924
0.119543
-0.163674
0.137957
-0.17994
0.151216
-0.189402
0.160384
-0.194206
-0.19629
0.166799
0.00570899
-0.0117406
0.021853
-0.048314
0.0450865
-0.0912376
0.0699829
-0.130777
0.0920044
-0.160946
0.109014
-0.180684
0.120982
-0.191908
0.128959
-0.197379
0.134217
-0.199464
-0.199696
0.137623
0.00672983
-0.0184704
0.0236824
-0.0652666
0.0453072
-0.112862
0.0658657
-0.151335
0.0821244
-0.177205
0.0934492
-0.192009
0.100689
-0.199147
0.105107
-0.201798
0.107756
-0.202113
-0.201237
0.109297
0.00729982
-0.0257703
0.0236109
-0.0815776
0.0420989
-0.131351
0.0578093
-0.167046
0.0689188
-0.188314
0.0757571
-0.198847
0.0794941
-0.202884
0.081291
-0.203595
0.0819532
-0.202775
0.0818532
-0.201137
-0.00463287
0.0124591
-0.00782623
-0.0146072
0.0283086
-0.0183343
-0.0274706
0.0367318
-0.0238684
-0.0417894
0.0404624
-0.0261436
-0.0568344
0.0418776
-0.0268326
-0.0722817
0.0423556
-0.0269083
-0.0879767
0.0424436
-0.0267485
-0.103805
0.0422862
-0.0264579
-0.119659
0.0419316
-0.0260779
0.0417697
-0.135565
-0.0258633
-0.00217969
0.0146388
-0.00812376
0.0342527
-0.0169289
0.045537
-0.0275429
0.0510764
-0.0390778
0.0534124
-0.0509875
0.0542653
-0.0629896
0.0544456
-0.0749215
0.0542182
-0.0866445
0.0536545
0.0531123
-0.0979871
0.000764168
0.0138746
0.000356873
0.0346599
-0.0024785
0.0483724
-0.00745132
0.0560492
-0.0137434
0.0597045
-0.02059
0.061112
-0.027504
0.0613596
-0.0342319
0.0609461
-0.0406076
0.0600302
0.0588189
-0.0463142
0.00306913
0.0108055
0.0079099
0.0298192
0.0117257
0.0445566
0.0134794
0.0542955
0.0133941
0.0597897
0.0121927
0.0623134
0.0105696
0.0629827
0.00899532
0.0625204
0.00773417
0.0612914
0.0595213
0.00703177
0.00406746
0.00673805
0.0123899
0.0214968
0.0217864
0.0351601
0.0302545
0.0458274
0.0370533
0.0529909
0.0423327
0.057034
0.0466507
0.0586647
0.0506172
0.0585539
0.0547223
0.0571863
0.0546242
0.0596194
0.00370802
0.00303003
0.0126492
0.0125555
0.0245517
0.0232577
0.0373784
0.0330007
0.0497818
0.0405876
0.0611678
0.045648
0.0715054
0.0483271
0.0810636
0.0489956
0.0901743
0.0480756
0.0453984
0.0994001
0.00252292
0.000507109
0.00954783
0.00553061
0.0201296
0.0126759
0.0329941
0.0201362
0.0469462
0.0266354
0.0611252
0.031469
0.0750529
0.0343994
0.0885543
0.0354943
0.101656
0.0349738
0.0323217
0.114733
0.00104849
-0.000541381
0.00476623
0.00181286
0.0113045
0.00613765
0.0203363
0.0111044
0.0312589
0.0157128
0.0434333
0.0192945
0.0563356
0.0214971
0.0696381
0.0221918
0.0833103
0.0213016
0.0180234
0.0976086
-0.000663745
0.000122363
-0.000816446
0.00196556
0.000571852
0.00474935
0.00392265
0.00775356
0.00926934
0.0103662
0.0164526
0.0121113
0.0252734
0.0126763
0.0355671
0.0118981
0.047265
0.00960372
0.00521124
0.0600771
-0.00210576
-0.00538366
-0.00797622
-0.00875089
-0.00696352
-0.00207103
0.00633941
0.0186471
0.03398
0.0482736
-0.220826
0.303809
-0.218548
-0.192195
0.246786
-0.275417
-0.0679404
0.0204359
-0.144691
0.0361674
-0.243786
0.139678
0.104125
-0.410527
0.34257
0.148668
-0.397877
0.353333
0.176017
-0.345314
0.317965
0.192194
-0.256926
0.240749
0.203577
-0.20651
0.195127
-0.128466
0.122164
-0.164392
0.370214
-0.14008
0.222474
-0.0315934
-0.0880506
0.0656793
-0.341058
0.128347
-0.473195
0.168152
-0.437681
0.191002
-0.368164
0.203288
-0.269211
0.21086
-0.214083
-0.132551
-0.0912227
0.415123
-0.0711459
0.202397
0.0161979
-0.175394
0.100174
-0.425034
0.154623
-0.527644
0.18806
-0.471118
0.205826
-0.38593
0.214386
-0.277771
0.218406
-0.218103
-0.1345
-0.0167994
0.438954
0.00217233
0.183426
0.0651782
-0.2384
0.135836
-0.495692
0.181081
-0.572889
0.207576
-0.497614
0.219859
-0.398213
0.224758
-0.28267
0.225648
-0.218993
-0.134578
0.0537605
0.444813
0.0647157
0.17247
0.112859
-0.286544
0.169557
-0.552389
0.205796
-0.609129
0.225734
-0.517551
0.232742
-0.405222
0.234044
-0.283972
0.232188
-0.217137
-0.133113
0.112161
0.432052
0.119747
0.164884
0.155936
-0.322733
0.199682
-0.596135
0.227596
-0.637043
0.241694
-0.53165
0.244154
-0.407681
0.242118
-0.281936
0.237829
-0.212848
-0.130419
0.154787
0.391998
0.164334
0.155337
0.192698
-0.351096
0.225105
-0.628542
0.245725
-0.657663
0.254942
-0.540867
0.253831
-0.40657
0.248959
-0.277064
0.242524
-0.206413
-0.126773
0.176255
0.313351
0.197631
0.133961
0.222302
-0.375767
0.245259
-0.6515
0.259615
-0.67202
0.265159
-0.546411
0.261576
-0.402986
0.254569
-0.270057
0.246316
-0.198159
-0.122419
0.173912
0.199516
0.221054
0.0868188
0.244995
-0.399708
0.259886
-0.66639
0.269147
-0.681281
0.272261
-0.549525
0.267272
-0.397998
0.25893
-0.261715
0.249261
-0.18849
-0.117597
0.161329
0.0864613
0.238819
0.00932856
0.260539
-0.421428
0.269015
-0.674867
0.275029
-0.687295
0.276656
-0.551152
0.271033
-0.392374
0.262055
-0.252737
0.251416
-0.177852
-0.112554
0.444349
0.0436744
-0.401562
0.595624
-0.141946
0.662635
-0.488439
0.647308
-0.65954
0.596673
-0.63666
0.538862
-0.493341
0.483645
-0.337157
0.438609
-0.207701
0.400696
-0.139939
-0.0905053
0.683307
0.00474355
-0.644376
0.752534
-0.211173
0.745974
-0.481879
0.680556
-0.594122
0.607259
-0.563363
0.542462
-0.428544
0.485207
-0.279902
0.43981
-0.162305
0.401732
-0.101861
-0.0676045
0.772101
-0.0401931
-0.727164
0.782798
-0.22187
0.733307
-0.432387
0.671009
-0.531824
0.61324
-0.505595
0.554325
-0.369629
0.494822
-0.220398
0.445213
-0.112696
0.40384
-0.0604882
-0.0429779
0.7752
-0.0746994
-0.740694
0.768056
-0.214726
0.731073
-0.395404
0.683493
-0.484244
0.621597
-0.443699
0.551532
-0.299565
0.485038
-0.153904
0.43368
-0.0613389
0.394393
-0.0212007
-0.0202539
0.757967
-0.0984246
-0.734242
0.752867
-0.209626
0.721825
-0.364362
0.670228
-0.432647
0.600668
-0.374138
0.528038
-0.226935
0.46469
-0.0905552
0.417235
-0.0138844
0.382091
0.0139438
-0.000111232
0.740628
-0.114507
-0.724546
0.737011
-0.206009
0.703841
-0.331192
0.640205
-0.369011
0.55623
-0.290163
0.478104
-0.148809
0.419819
-0.0322698
0.38161
0.0243237
0.356735
0.038819
0.014084
0.721011
-0.121962
-0.713556
0.7095
-0.194498
0.654207
-0.2759
0.560992
-0.275796
0.460868
-0.190038
0.386865
-0.0748066
0.344299
0.0102962
0.324035
0.0445875
0.315307
0.0475471
0.01952
0.671048
-0.109723
-0.683286
0.628594
-0.152044
0.531801
-0.179106
0.408365
-0.15236
0.307423
-0.0890957
0.254056
-0.0214403
0.239058
0.0252948
0.242699
0.0409466
0.252228
0.0380175
0.0159742
0.514261
-0.0627038
-0.56128
0.427047
-0.0648308
0.303446
-0.0555047
0.190544
-0.0394581
0.124361
-0.022913
0.105864
-0.00294256
0.117599
0.0135594
0.139538
0.0190075
0.16048
0.0170756
0.00720737
0.178159
-0.240863
0.113328
0.0578235
0.0183654
-0.00454759
-0.00749015
0.00606926
0.0250768
0.0421524
0.551476
0.0706467
-0.54027
0.563785
0.0969879
0.578783
0.122625
0.59486
0.150723
0.610777
0.178106
0.624309
0.202894
0.618492
0.229874
0.590177
0.237217
0.504194
0.257991
0.223124
0.531942
0.0595305
-0.520825
0.546541
0.0823884
0.562433
0.106733
0.584449
0.128707
0.60495
0.157605
0.632417
0.175426
0.651788
0.210503
0.669342
0.219663
0.670034
0.257299
0.248782
0.518026
0.0496671
-0.508163
0.532796
0.0676191
0.548237
0.091292
0.569565
0.107379
0.591377
0.135793
0.6181
0.148703
0.64702
0.181583
0.675714
0.190969
0.708775
0.224237
0.230393
0.508592
0.0399085
-0.498833
0.522291
0.0539198
0.538245
0.075338
0.557436
0.0881884
0.580599
0.11263
0.605245
0.124057
0.636853
0.149975
0.667321
0.160502
0.706322
0.185235
0.196022
0.50102
0.0298913
-0.491002
0.513566
0.0413736
0.530042
0.058862
0.548154
0.0700766
0.571773
0.0890111
0.59601
0.0998192
0.627151
0.118833
0.658229
0.129425
0.696306
0.147158
0.158086
0.49318
0.0200201
-0.483308
0.505142
0.0294118
0.521525
0.0424782
0.539557
0.0520448
0.562853
0.0657154
0.587472
0.0751996
0.617705
0.0886005
0.649238
0.097892
0.686029
0.110367
0.119569
0.482083
0.0107179
-0.472781
0.493815
0.0176799
0.509726
0.0265673
0.527994
0.0337767
0.550837
0.0428724
0.575991
0.050046
0.605775
0.0588162
0.637915
0.065752
0.674549
0.0737328
0.0805619
0.457171
0.00271799
-0.449172
0.46798
0.00687141
0.48264
0.0119076
0.500262
0.0161539
0.521975
0.02116
0.546741
0.0252803
0.575673
0.0298834
0.607699
0.0337265
0.64392
0.0375117
0.0411955
0.385466
-0.00165174
-0.381097
0.392496
-0.000158639
0.402815
0.00158856
0.415918
0.00305153
0.43243
0.00464748
0.4518
0.0059111
0.474517
0.0071661
0.50017
0.00807286
0.528896
0.0087864
0.00881101
0.192986
-0.194638
0.192828
0.194416
0.197468
0.202115
0.208026
0.215193
0.223265
0.232052
0.0716838
0.14833
-0.136641
-0.0833731
0.0609545
0.1505
-0.139771
0.0510632
0.15311
-0.143219
0.0414792
0.156599
-0.147015
0.0319542
0.160309
-0.150784
0.0225817
0.16311
-0.153738
0.0137914
0.162283
-0.153493
0.00640461
0.151854
-0.144467
0.00152443
0.121382
-0.116502
0.0569698
-0.0554454
0.0676265
0.15878
-0.0780761
0.057333
0.160794
0.0473834
0.16306
0.0377871
0.166196
0.0284492
0.169647
0.0194832
0.172076
0.0113499
0.170417
0.00485337
0.158351
0.000919855
0.125316
0.0578897
0.060053
0.168022
-0.0692953
0.0505363
0.17031
0.0411505
0.172446
0.0320811
0.175265
0.0233692
0.178359
0.0151863
0.180259
0.00801873
0.177584
0.00271502
0.163654
5.86489e-05
0.127972
0.0579484
0.0487136
0.17594
-0.0566318
0.0404512
0.178573
0.0321324
0.180764
0.0240135
0.183384
0.016272
0.186101
0.0092104
0.187321
0.00339959
0.183395
-0.000299372
0.167353
-0.00104706
0.12872
0.0569013
0.0352705
0.182774
-0.0421038
0.0282371
0.185606
0.0211079
0.187894
0.0141289
0.190363
0.00758218
0.192647
0.00188587
0.193017
-0.00213074
0.187412
-0.00355665
0.168779
-0.00229918
0.127462
0.0546021
0.0199058
0.188497
-0.0256297
0.0141011
0.191411
0.00825574
0.193739
0.00259733
0.196021
-0.00250523
0.19775
-0.00641327
0.196925
-0.00830854
0.189307
-0.00736088
0.167831
-0.00363405
0.123735
0.0509681
0.00330589
0.193363
-0.00817176
-0.0014118
0.196129
-0.00602495
0.198352
-0.0103007
0.200297
-0.0137833
0.201232
-0.0157401
0.198882
-0.0151704
0.188737
-0.0113224
0.163983
-0.0049144
0.117327
0.0460537
-0.015285
0.197113
0.0115357
-0.0187915
0.199635
-0.0220522
0.201613
-0.024782
0.203027
-0.0263921
0.202843
-0.0259576
0.198447
-0.0224146
0.185194
-0.015268
0.156837
-0.0060443
0.108104
0.0400094
-0.0355796
0.199743
0.0329496
-0.0378512
0.201907
-0.0396822
0.203444
-0.0406693
0.204014
-0.0400514
0.202225
-0.0367435
0.19514
-0.0297074
0.178158
-0.0189088
0.146038
-0.0068941
0.096089
0.0331153
-0.0579696
0.0565755
-0.0588384
-0.0589894
-0.0578593
-0.0544817
-0.0476563
-0.036544
-0.0218563
-0.00734501
0.109511
0.0387418
-0.121705
-0.0265474
0.0970363
0.0397958
-0.0273213
0.0842706
0.0409382
-0.0281725
0.071188
0.042157
-0.0290743
0.0577708
0.0434332
-0.030016
0.0440436
0.044628
-0.0309008
0.0301913
0.0451965
-0.0313442
0.0168557
0.0435993
-0.0302636
0.0056779
0.0365361
-0.0253583
0.0185092
-0.0128313
0.108283
0.0509034
-0.120445
0.0959195
0.0521593
0.0832775
0.0535802
0.0703262
0.0551083
0.05704
0.0567193
0.0434419
0.0582262
0.0297252
0.0589132
0.0165457
0.0567788
0.00554298
0.0475388
0.0240522
0.106649
0.0629155
-0.118661
0.0943715
0.0644363
0.0818418
0.0661099
0.0690326
0.0679175
0.0559208
0.0698311
0.042524
0.0716229
0.0290325
0.0724047
0.0161052
0.0697062
0.00536422
0.0582798
0.0294164
0.104404
0.0749336
-0.116422
0.0922713
0.0765694
0.0798789
0.0785023
0.0672056
0.0805908
0.054249
0.0827876
0.0410611
0.0848109
0.0278632
0.0856026
0.015327
0.0822423
0.00503644
0.0685704
0.0344528
0.101626
0.0866997
-0.113392
0.0897156
0.0884796
0.0776354
0.0905824
0.065313
0.0929133
0.0526976
0.095403
0.0398214
0.0976871
0.0269272
0.0984968
0.0147266
0.094443
0.00480049
0.0784965
0.0392533
0.0976949
0.0985181
-0.109513
0.0858865
0.100288
0.0739243
0.102545
0.0618203
0.105017
0.0495632
0.10766
0.0371797
0.110071
0.0248965
0.11078
0.0134145
0.105925
0.00425626
0.0876547
0.0435096
0.093558
0.109672
-0.104712
0.0824055
0.111441
0.0710552
0.113895
0.059413
0.116659
0.0474933
0.11958
0.0354155
0.122148
0.0234985
0.122697
0.0124962
0.116927
0.00388839
0.0962626
0.047398
0.086094
0.120657
-0.097079
0.075346
0.122189
0.0646515
0.124589
0.0538788
0.127432
0.0429142
0.130544
0.0317943
0.133268
0.0208387
0.133653
0.010837
0.126929
0.00322642
0.103873
0.0506244
0.0812184
0.129881
-0.0904418
0.0715752
0.131832
0.0613496
0.134815
0.0507743
0.138008
0.0400185
0.1413
0.0292434
0.144043
0.0188162
0.14408
0.00953103
0.136214
0.00271743
0.110687
0.0533418
0.0701146
-0.0768746
0.0621755
0.0537714
0.0447636
0.0352796
0.0255851
0.016172
0.00791876
0.00210359
0.201642
0.00399363
-0.00764623
0.205545
0.0253987
-0.0293014
0.20955
0.0328532
-0.036858
0.212077
0.0505507
-0.0530781
0.213828
0.0631368
-0.0648875
0.212856
0.0790026
-0.0780309
0.208353
0.106865
-0.102362
0.197072
0.13873
-0.127449
0.171912
0.192959
-0.167799
0.254351
-0.204144
0.201295
0.000688897
0.204731
0.0219625
0.208685
0.028899
0.210543
0.0486931
0.212367
0.0613122
0.210557
0.0808128
0.206149
0.111272
0.194284
0.150596
0.16934
0.217903
0.303246
0.200913
-0.00223444
0.203759
0.0191171
0.207597
0.0250603
0.208641
0.0476496
0.210511
0.0594419
0.207675
0.0836488
0.203382
0.115565
0.190417
0.163562
0.166162
0.242158
0.350747
0.200476
-0.00472088
0.202634
0.0169589
0.206256
0.0214386
0.206415
0.0474903
0.208248
0.0576097
0.204241
0.0876556
0.2001
0.119705
0.185559
0.178103
0.162433
0.265284
0.396758
0.199962
-0.00669262
0.201365
0.015555
0.204655
0.0181489
0.2039
0.048245
0.20555
0.0559605
0.200292
0.0929135
0.196228
0.12377
0.179888
0.194442
0.158064
0.287108
0.44143
0.199349
-0.00805172
0.19996
0.014944
0.202794
0.0153143
0.201115
0.0499244
0.202408
0.054668
0.195834
0.099487
0.191757
0.127847
0.173179
0.213021
0.153339
0.306948
0.485256
0.198623
-0.00868535
0.19843
0.0151375
0.200677
0.0130667
0.198083
0.0525192
0.198795
0.0539555
0.190958
0.107325
0.186467
0.132337
0.16602
0.233467
0.147575
0.325393
0.528118
0.19778
-0.00847572
0.196789
0.0161282
0.198315
0.011541
0.194816
0.0560188
0.194722
0.0540495
0.185646
0.1164
0.180482
0.137502
0.157533
0.256416
0.141616
0.34131
0.572655
0.196828
-0.00731415
0.195047
0.0179091
0.195727
0.0108614
0.191323
0.0604228
0.190145
0.0552271
0.18004
0.126505
0.17378
0.143762
0.150318
0.279878
0.134789
0.356839
0.617003
0.195816
-0.00514067
0.193168
0.0205577
0.192994
0.0110347
0.187514
0.0659036
0.185007
0.0577339
0.173445
0.138068
0.16511
0.152096
0.139815
0.305173
0.12829
0.368364
0.668419
0.304892
-0.00802202
0.307633
0.0178163
0.317319
0.00134886
0.319039
0.0641831
0.33079
0.0459833
0.331294
0.137563
0.350869
0.132521
0.355989
0.300052
0.408249
0.316104
0.598788
0.47788
0.304994
-0.0110054
0.309113
0.0136966
0.319742
-0.00927998
0.322936
0.0609892
0.336048
0.032871
0.340346
0.133265
0.360967
0.1119
0.375931
0.285088
0.423854
0.268182
0.532253
0.490389
0.305078
-0.0140732
0.311593
0.00718154
0.321767
-0.0194535
0.327733
0.0550227
0.340863
0.0197411
0.349902
0.124226
0.369521
0.0922805
0.390894
0.263715
0.433385
0.225691
0.460121
0.505518
0.305626
-0.0176895
0.315011
-0.00220343
0.323495
-0.0279368
0.333717
0.0448005
0.344955
0.00850266
0.358568
0.110613
0.375527
0.0753218
0.401977
0.237265
0.442961
0.184707
0.385567
0.517514
0.307113
-0.0227923
0.319162
-0.0142521
0.326139
-0.0349139
0.340488
0.0304509
0.350381
-0.0013899
0.367838
0.0931559
0.382003
0.0611571
0.413967
0.205302
0.448647
0.150027
0.313423
0.520791
0.309525
-0.0303071
0.323829
-0.0285557
0.330001
-0.0410858
0.347853
0.012598
0.356257
-0.00979368
0.375656
0.0737571
0.387749
0.0490642
0.423067
0.169984
0.453049
0.120045
0.244338
0.522134
0.312874
-0.0411705
0.328313
-0.0439952
0.334481
-0.047254
0.353471
-0.00639189
0.358219
-0.0145415
0.378602
0.0533736
0.38911
0.0385568
0.428103
0.13099
0.45646
0.0916887
0.178503
0.522295
0.315976
-0.0551364
0.328582
-0.0566011
0.331874
-0.0505456
0.345022
-0.0195406
0.343676
-0.0131951
0.363693
0.033357
0.374337
0.0279123
0.418433
0.0868937
0.448678
0.0614441
0.113577
0.513604
0.308779
-0.0619056
0.303718
-0.0515397
0.291602
-0.03843
0.287784
-0.015722
0.280653
-0.00606396
0.299016
0.0149934
0.31329
0.0136389
0.361761
0.0384223
0.395578
0.0276273
0.0476031
0.461552
0.240105
0.188565
0.150135
0.134413
0.128349
0.143342
0.156981
0.195404
0.223031
0.270634
0.491089
-0.0965823
0.495504
-0.0824913
0.498987
-0.0727779
0.502085
-0.0597298
0.506639
-0.0466579
0.511224
-0.0302151
0.517112
-0.0140592
0.523391
0.00525638
0.531542
0.0247983
0.0478482
0.49133
-0.0975235
0.491868
-0.0830293
0.491979
-0.0728886
0.492003
-0.0597538
0.493513
-0.0481682
0.495506
-0.0322077
0.4996
-0.0181528
0.50485
5.7244e-06
0.511965
0.0176832
0.0389881
0.499029
-0.0910346
0.495444
-0.0794446
0.492054
-0.0694988
0.489507
-0.0572061
0.48795
-0.0466111
0.488359
-0.032617
0.490078
-0.0198718
0.493837
-0.00375351
0.499286
0.0122343
0.0301111
0.506348
-0.0798681
0.49805
-0.0711466
0.491409
-0.0628585
0.487054
-0.052851
0.483521
-0.0430774
0.482632
-0.0317288
0.482728
-0.0199674
0.485988
-0.00701345
0.490551
0.00767081
0.0218295
0.508641
-0.0677182
0.498651
-0.061156
0.490298
-0.0545058
0.484363
-0.0469162
0.479804
-0.0385188
0.477722
-0.0296466
0.477194
-0.0194388
0.479459
-0.00927886
0.483786
0.00334381
0.014613
0.509365
-0.0549498
0.498337
-0.0501278
0.488957
-0.0451254
0.481655
-0.0396148
0.476218
-0.0330818
0.47297
-0.0263982
0.471848
-0.0183171
0.473062
-0.0104931
0.476983
-0.000577054
0.00828779
0.508466
-0.0411208
0.496148
-0.0378099
0.485497
-0.0344745
0.476782
-0.0308992
0.470188
-0.0264886
0.465722
-0.021932
0.463671
-0.0162663
0.463922
-0.0107434
0.467117
-0.00377241
0.00262356
0.497812
-0.0253288
0.483724
-0.0237215
0.471485
-0.0222355
0.461209
-0.0206231
0.453159
-0.0184387
0.447238
-0.016011
0.443826
-0.0128549
0.442729
-0.00964642
0.444615
-0.00565792
-0.00193305
0.445335
-0.00911209
0.430876
-0.0092619
0.418043
-0.00940335
0.40679
-0.00936953
0.397323
-0.00897228
0.389624
-0.00831166
0.384068
-0.00729884
0.380593
-0.00617134
0.379685
-0.00474963
-0.00334511
0.261522
0.25226
0.242857
0.233487
0.224515
0.216203
0.208904
0.202733
0.197983
0.00708301
0.043964
-0.051047
0.0167392
0.113869
-0.123525
0.0232238
0.160271
-0.166756
0.0255765
0.185195
-0.187547
0.0248056
0.195744
-0.194973
0.0221801
0.198272
-0.195647
0.0186356
0.196458
-0.192914
0.0148023
0.19135
-0.187517
0.0112598
0.181725
-0.178182
0.164191
0.00858867
-0.16152
0.00847134
0.0354926
0.0223753
0.099965
0.0341034
0.148543
0.04127
0.178028
0.0444037
0.19261
0.0448435
0.197832
0.0437144
0.197587
0.0416709
0.193394
0.03892
0.184476
0.1679
0.0352108
0.00903271
0.0264599
0.0265183
0.0824794
0.0437703
0.131291
0.0565804
0.165218
0.0644845
0.184706
0.0686087
0.193708
0.0701986
0.195997
0.0699688
0.193624
0.067935
0.18651
0.172654
0.0631814
0.00864622
0.0178137
0.0282103
0.0629154
0.0505411
0.10896
0.0696427
0.146116
0.0833953
0.170954
0.0922235
0.18488
0.0973508
0.19087
0.0997028
0.191272
0.0992993
0.186913
0.176763
0.0951901
0.00743061
0.0103831
0.0268786
0.0434675
0.052587
0.0832514
0.0778854
0.120818
0.0986195
0.15022
0.113642
0.169858
0.123609
0.180903
0.129548
0.185333
0.131939
0.184522
0.179196
0.129506
0.00570674
0.00467636
0.0227904
0.0263837
0.0487764
0.0572655
0.0783163
0.091278
0.106107
0.122428
0.128911
0.147054
0.145741
0.164072
0.157024
0.17405
0.16341
0.178135
0.177624
0.164983
0.00389344
0.000782923
0.0171636
0.0131136
0.0400254
0.0344037
0.0698256
0.0614779
0.10211
0.0901442
0.13261
0.116554
0.158449
0.138234
0.178373
0.154126
0.1924
0.164108
0.17017
0.199854
0.0023261
-0.00154318
0.0114642
0.00397542
0.0290031
0.0168649
0.0547369
0.0357441
0.0864094
0.0584717
0.120567
0.0823965
0.153757
0.105044
0.183098
0.124785
0.207178
0.140027
0.151201
0.226147
0.00116056
-0.00270373
0.00673318
-0.00159721
0.0185699
0.00502817
0.0377609
0.016553
0.0640872
0.0321454
0.0959601
0.0505236
0.130921
0.0700833
0.166361
0.0893445
0.198917
0.107472
0.118694
0.231424
0.000389116
-0.00309285
0.00327409
-0.00448219
0.010279
-0.00197676
0.0227728
0.00405925
0.0415802
0.013338
0.0666801
0.0254237
0.0971311
0.0396323
0.131462
0.0550138
0.167488
0.0714459
0.0845847
0.201597
-8.3622e-05
-0.00300923
0.00102055
-0.00558636
0.0045377
-0.00549392
0.0116301
-0.00303312
0.0233149
0.00165321
0.0402827
0.00845591
0.0627238
0.0171912
0.090188
0.0275497
0.122238
0.0393959
0.0548472
0.151975
-0.000233397
-0.00277583
6.02384e-05
-0.00587999
0.00162989
-0.00706357
0.00517641
-0.00657963
0.0114048
-0.00457515
0.0209368
-0.00107613
0.0342607
0.00386737
0.0514697
0.0103406
0.0722422
0.0186235
0.0304504
0.096639
0.00016727
-0.0029431
0.000909718
-0.00662244
0.00239396
-0.00854781
0.00480572
-0.0089914
0.00841406
-0.00818349
0.0135878
-0.00624991
0.0206716
-0.00321637
0.030004
0.00100824
0.0418777
0.00674971
0.0141917
0.0581364
0.000941146
-0.00388425
0.00291817
-0.00859947
0.00553738
-0.011167
0.00869948
-0.0121535
0.0124883
-0.0119723
0.0171086
-0.0108703
0.0228601
-0.00896786
0.0301606
-0.00629226
0.0397205
-0.00281013
0.00157054
0.0523416
0.00138529
-0.00526954
0.00379233
-0.0110065
0.00657284
-0.0139475
0.00965467
-0.0152353
0.0132055
-0.0155232
0.0174813
-0.015146
0.0227714
-0.014258
0.0293939
-0.0129147
0.0377012
-0.0111174
-0.00902351
0.0482952
0.000897602
-0.00616714
0.00183672
-0.0119456
0.00244822
-0.014559
0.00294049
-0.0157276
0.0036506
-0.0162333
0.00488961
-0.016385
0.00691584
-0.0162843
0.00995812
-0.015957
0.014234
-0.0153933
-0.0146946
0.0199051
-0.000579564
-0.00558758
-0.00279416
-0.00973103
-0.00614613
-0.0112071
-0.00995895
-0.0119148
-0.0137159
-0.0124763
-0.0170982
-0.0130027
-0.0199263
-0.0134561
-0.0221163
-0.013767
-0.0236512
-0.0138585
-0.0138835
-0.0244622
-0.00285155
-0.00273602
-0.00935266
-0.00322992
-0.0177585
-0.00280126
-0.0269396
-0.00273364
-0.03631
-0.00310594
-0.0456104
-0.00370234
-0.054721
-0.00434549
-0.0635636
-0.00492443
-0.0720468
-0.00537525
-0.00579294
-0.0801374
-0.00490894
0.00217291
-0.0149998
0.00686094
-0.0274875
0.00968642
-0.0409784
0.0107573
-0.0549226
0.0108382
-0.0691363
0.0105114
-0.0835324
0.0100506
-0.098018
0.00956117
-0.112483
0.00908933
0.00858297
-0.126858
-0.00565332
-0.0171267
-0.0313086
-0.046695
-0.0626893
-0.0790862
-0.0957842
-0.112681
-0.12967
-0.14695
0.20518
0.117976
-0.171181
0.206544
0.475164
-0.476528
0.17644
0.526705
-0.496602
0.173392
0.219274
-0.216226
0.188296
-0.073464
0.0585598
0.19557
-0.158785
0.151511
0.196117
-0.12613
0.125583
0.196882
-0.0761146
0.0753489
0.200061
-0.0458527
0.042674
-0.0276514
0.0219593
0.163275
0.0513408
0.197465
0.440974
0.185691
0.538479
0.193978
0.210987
0.200456
-0.0799423
0.196467
-0.154796
0.193254
-0.122916
0.194505
-0.0773663
0.199529
-0.0508761
-0.0340717
0.131895
-0.0224177
0.175732
0.397137
0.181134
0.533077
0.193561
0.198561
0.188265
-0.0746466
0.177789
-0.144321
0.177234
-0.122361
0.183666
-0.0837984
0.193758
-0.0609685
-0.0427168
0.108058
-0.0781341
0.139838
0.365356
0.156015
0.5169
0.166856
0.18772
0.154118
-0.0619083
0.147285
-0.137487
0.156338
-0.131414
0.170994
-0.0984542
0.187194
-0.0771683
-0.0538865
0.0712109
-0.10105
0.0884053
0.348162
0.108332
0.496973
0.116059
0.179994
0.110376
-0.0562258
0.119187
-0.146298
0.140634
-0.152861
0.162541
-0.120361
0.183127
-0.0977538
-0.0666615
0.011089
-0.0922335
0.0225429
0.336708
0.0410819
0.478434
0.0551784
0.165897
0.0763725
-0.0774199
0.104244
-0.174169
0.134601
-0.183218
0.160193
-0.145954
0.182405
-0.119966
-0.0797628
-0.070481
-0.0462147
-0.0648094
0.331036
-0.030979
0.444604
0.009461
0.125457
0.0620797
-0.130039
0.10182
-0.21391
0.136113
-0.217511
0.162386
-0.172227
0.184183
-0.141763
-0.0922772
-0.15714
0.0307876
-0.149377
0.323274
-0.0799183
0.375145
-0.00703496
0.0525739
0.0616066
-0.19868
0.106652
-0.258956
0.141824
-0.252682
0.167135
-0.197538
0.18743
-0.162058
-0.103731
-0.219559
0.123488
-0.20044
0.304155
-0.0950746
0.269779
-0.00347799
-0.0390227
0.069155
-0.271313
0.116435
-0.306236
0.150479
-0.286726
0.173677
-0.220737
0.191724
-0.180104
-0.113809
-0.24201
-0.213272
-0.0881835
0.0124718
0.0837283
0.130826
0.162065
0.182078
0.1971
0.0456842
0.0357057
-0.0813899
0.00268312
0.0430011
-0.0284487
0.0311318
-0.0429075
0.0144589
-0.0357154
-0.00719211
-0.00950725
-0.0262082
0.0150745
-0.0245817
0.0297461
-0.0146716
0.0369609
-0.00721482
-0.00277858
0.192672
0.111805
-0.26877
0.0759825
0.15969
-0.0108216
0.117936
-0.0385027
0.0421399
-0.0179014
-0.0277934
0.0246974
-0.0688071
0.0630074
-0.0628917
0.0866818
-0.0383461
0.099532
-0.020065
-0.00829295
0.338245
0.176403
-0.402843
0.191672
0.306263
0.0626924
0.246916
0.0175136
0.0873188
0.0399954
-0.0502752
0.0799777
-0.108789
0.113352
-0.0962658
0.134484
-0.0594782
0.147044
-0.032625
-0.014448
0.418957
0.198049
-0.440603
0.298015
0.427204
0.158393
0.386539
0.0978169
0.147894
0.111092
-0.0635504
0.139975
-0.137672
0.160746
-0.117037
0.17297
-0.0717022
0.180686
-0.0403413
-0.0191856
0.40593
-0.379062
0.356606
0.246543
0.178211
0.173221
0.18706
0.195606
0.199253
0.201586
0.011334
-0.000141087
-0.0111929
0.0129776
-0.00164356
0.0160009
-0.0030233
0.0204531
-0.00445225
0.0268918
-0.00643864
0.0340269
-0.00713513
0.0442626
-0.0102357
0.0545635
-0.0103009
0.0683034
-0.0137399
-0.0130865
0.0311038
-0.000840974
-0.0304039
0.0357964
-0.00633617
0.0443542
-0.0115811
0.0577109
-0.017809
0.0764628
-0.0251905
0.0996526
-0.0303249
0.132618
-0.0432015
0.168526
-0.0462089
0.215797
-0.0610102
-0.0660603
0.0480131
-0.00239544
-0.0464586
0.0554919
-0.013815
0.0689947
-0.0250839
0.0900892
-0.0389035
0.118717
-0.0538182
0.156744
-0.0683525
0.205767
-0.092224
0.261202
-0.101643
0.332152
-0.131961
-0.136751
0.0619755
-0.00496186
-0.059409
0.0717493
-0.0235888
0.0893099
-0.0426445
0.115827
-0.0654201
0.151525
-0.0895166
0.199138
-0.115966
0.253192
-0.146278
0.318832
-0.167284
0.388467
-0.201596
-0.188887
0.0731482
-0.0695214
0.0847702
0.105307
0.135077
0.175067
0.224083
0.27766
0.336524
0.366352
0.0842247
-0.0785695
0.0863988
-0.0920539
0.0754917
-0.0797365
0.0884695
0.0663449
-0.0815868
0.0907337
0.0565477
-0.0835685
0.0933656
0.0460342
-0.0855746
0.0960881
0.0349372
-0.0873166
0.0984136
0.0236286
-0.0876905
0.0989992
0.0128821
-0.0837251
0.0944716
0.00417803
-0.0693363
0.0780404
-0.0346536
0.0388316
0.0932521
-0.068873
-0.102949
0.0831427
-0.0696271
0.0723595
-0.0708037
0.0609749
-0.0721839
0.0491494
-0.0737491
0.0370615
-0.0752287
0.0250038
-0.0756329
0.0136537
-0.072375
0.00445571
-0.0601383
-0.0301978
0.0953325
-0.0578497
-0.106356
0.0842022
-0.0584968
0.0728665
-0.059468
0.0613255
-0.0606429
0.0495434
-0.0619669
0.0375128
-0.0631981
0.0254207
-0.0635408
0.0139263
-0.0608806
0.00454062
-0.0507526
-0.0256572
0.100937
-0.0464662
-0.112321
0.089403
-0.0469627
0.0776362
-0.0477013
0.0655551
-0.0485618
0.0531065
-0.0495183
0.0403219
-0.0504135
0.0274387
-0.0506576
0.0151507
-0.0485926
0.00502299
-0.040625
-0.0206342
0.103683
-0.0345848
-0.115564
0.0916734
-0.0349532
0.0794205
-0.0354484
0.0668968
-0.0360381
0.0540895
-0.036711
0.0410372
-0.0373612
0.0279442
-0.0375646
0.0154544
-0.0361029
0.00512836
-0.0302989
-0.0155059
0.106705
-0.0225412
-0.118748
0.0944527
-0.022701
0.0819534
-0.0229491
0.0691728
-0.0232574
0.0560837
-0.0236219
0.0427027
-0.0239801
0.0292149
-0.0240768
0.0162659
-0.0231539
0.00546217
-0.0194951
-0.0100437
0.10847
-0.0103169
-0.120694
0.0960482
-0.0102791
0.0833681
-0.010269
0.0703998
-0.0102891
0.057117
-0.0103391
0.0435353
-0.0103984
0.0298331
-0.0103746
0.0166481
-0.00996883
0.00560662
-0.00845371
-0.00443709
0.109719
0.00196717
-0.122003
0.0971987
0.00224116
0.0844049
0.00252484
0.0713092
0.00280658
0.0578884
0.00308174
0.0441594
0.00333049
0.0302993
0.00348559
0.016943
0.00338746
0.00572607
0.00276319
0.00128899
0.110253
0.0142674
-0.122554
0.0977019
0.0147926
0.0848683
0.0153584
0.071725
0.0159499
0.0582486
0.0165581
0.0444551
0.017124
0.0305195
0.0174212
0.0170774
0.0168295
0.00577577
0.0140648
0.00706475
0.110119
-0.122399
0.0975904
0.0847762
0.0716518
0.0581939
0.0444172
0.0304942
0.0170601
0.00576655
0.0141246
-0.159318
-0.0163264
0.00957086
-0.173629
0.00401361
-0.18196
-0.00168476
-0.187215
-0.00687646
-0.190455
-0.0107987
-0.191051
-0.0123961
-0.18595
-0.0105331
-0.168618
-0.00515029
-0.128908
-0.0561973
0.0374762
-0.156046
-0.0407485
0.0312438
-0.167396
0.023823
-0.174539
0.0161355
-0.179528
0.00870411
-0.183024
0.00210632
-0.184453
-0.00269636
-0.181147
-0.00454155
-0.166773
-0.00302853
-0.130421