/*--------------------------------*- C++ -*----------------------------------*\
  =========                 |
  \\      /  F ield         | OpenFOAM: The Open Source CFD Toolbox
   \\    /   O peration     | Website:  https://openfoam.org
    \\  /    A nd           | Version:  13
     \\/     M anipulation  |
\*---------------------------------------------------------------------------*/
FoamFile
{
    format      ascii;
    class       volVectorField;
    location    "3.7";
    object      U;
}
// * * * * * * * * * * * * * * * * * * * * * * * * * * * * * * * * * * * * * //

dimensions      [0 1 -1 0 0 0 0];

internalField   nonuniform List<vector> 
1800
(
(-0.0324216 0.0259408 1.33421e-20)
(-0.0778078 0.0444319 5.9176e-21)
(-0.101926 0.0493074 -1.48566e-20)
(-0.102129 0.04893 3.32444e-20)
(-0.0730839 0.0481552 1.19669e-19)
(-0.0099268 0.0491658 6.28229e-20)
(0.0901277 0.0532439 -3.31599e-20)
(0.223942 0.0599767 -3.20731e-20)
(0.402445 0.0983836 8.6857e-20)
(0.488113 0.134007 9.78311e-20)
(-0.0462768 0.0348139 9.85456e-21)
(-0.0890454 0.060656 -2.13301e-20)
(-0.0871065 0.0636384 2.26285e-22)
(-0.0410895 0.0536743 -4.70406e-20)
(0.051899 0.0374453 1.97375e-20)
(0.193662 0.0185959 1.21032e-19)
(0.38292 -0.000302208 -7.50861e-20)
(0.610728 -0.0210212 4.59601e-20)
(0.88579 -0.0171047 -1.24707e-19)
(1.04404 -0.0164548 1.3218e-19)
(-0.0500763 0.0333841 3.50366e-21)
(-0.0753225 0.0561532 1.29624e-20)
(-0.0323094 0.0555493 -1.06176e-21)
(0.0761633 0.0404773 -8.96077e-21)
(0.249007 0.0184631 -1.10733e-19)
(0.480213 -0.00527749 2.35983e-20)
(0.756296 -0.0267794 5.03192e-20)
(1.05753 -0.0441982 -1.9955e-20)
(1.36772 -0.0521283 -5.91283e-23)
(1.62812 -0.0692042 -1.9975e-21)
(-0.0448053 0.0255695 -6.98669e-21)
(-0.0343913 0.0352596 -2.21296e-20)
(0.0701382 0.0260312 -2.24356e-20)
(0.26226 0.00607592 2.16459e-20)
(0.530825 -0.0167695 1.87119e-20)
(0.853513 -0.0367579 8.40502e-21)
(1.19913 -0.0508015 -2.55177e-21)
(1.5356 -0.0578841 7.03826e-20)
(1.83862 -0.0603152 6.06487e-20)
(2.08133 -0.0622793 -2.45849e-20)
(-0.0300365 0.015261 5.48711e-20)
(0.0392832 0.00947621 5.12036e-20)
(0.22971 -0.00709838 -3.53584e-20)
(0.523099 -0.0260011 -4.36072e-20)
(0.886622 -0.0399784 -1.08273e-19)
(1.27399 -0.0459265 1.79434e-21)
(1.63929 -0.0445441 1.39288e-19)
(1.94956 -0.0387486 7.21647e-20)
(2.18723 -0.0314717 2.7472e-21)
(2.35943 -0.0312775 -6.80951e-20)
(-0.00169261 0.00340147 -5.5315e-20)
(0.153836 -0.0149844 -1.05498e-20)
(0.451291 -0.0317545 1.84063e-19)
(0.847523 -0.0394408 -4.59378e-20)
(1.27813 -0.0357688 -1.20896e-19)
(1.67832 -0.0238273 2.4373e-19)
(2.00482 -0.00889402 -2.67714e-19)
(2.2415 0.00448482 -3.77618e-19)
(2.39585 0.0134734 3.24934e-19)
(2.48333 0.0170612 7.85721e-22)
(0.0438768 -0.00807251 6.33313e-20)
(0.311496 -0.0308891 -1.33143e-19)
(0.723266 -0.0364076 -4.35538e-19)
(1.19845 -0.0230515 2.04761e-19)
(1.64623 0.00143457 4.59893e-19)
(2.0056 0.0275646 -1.83024e-21)
(2.25733 0.048886 -1.02728e-18)
(2.41316 0.0627866 3.09395e-21)
(2.49782 0.0704751 1.28301e-18)
(2.5385 0.0695167 3.57173e-19)
(0.107831 -0.0156448 6.29455e-20)
(0.505051 -0.029658 3.3066e-19)
(1.01822 -0.0119913 3.51089e-19)
(1.52965 0.0266007 -1.15612e-19)
(1.94692 0.0675928 -4.3451e-19)
(2.23713 0.0999472 -1.66349e-19)
(2.41283 0.120628 0)
(2.50542 0.131195 5.49299e-19)
(2.5464 0.134397 -7.86747e-21)
(2.55712 0.131734 -5.30045e-19)
(0.187634 -0.0152134 5.72076e-20)
(0.717689 -0.00413112 3.31136e-19)
(1.3021 0.0452635 6.15811e-19)
(1.80714 0.106495 -6.36304e-19)
(2.16713 0.156305 -5.57931e-19)
(2.38578 0.188148 2.33599e-19)
(2.4993 0.204336 -1.1296e-18)
(2.54733 0.209642 -8.52029e-19)
(2.55929 0.208531 1.06191e-18)
(2.55223 0.201552 9.27314e-19)
(0.277547 -0.00319314 -4.96077e-20)
(0.92796 0.0489847 2.60215e-19)
(1.5478 0.132952 1.66862e-19)
(2.01793 0.210368 -1.33326e-18)
(2.31363 0.261856 5.02648e-20)
(2.4699 0.288419 2.73897e-18)
(2.53667 0.297383 -1.59684e-18)
(2.55488 0.29603 -9.49397e-19)
(2.54975 0.289098 3.33679e-19)
(2.53243 0.278031 -7.66652e-19)
(-0.0116762 0.130145 2.30209e-20)
(-0.0646529 0.294952 -7.70235e-20)
(-0.13376 0.378859 1.35054e-21)
(-0.209251 0.412375 -4.52287e-21)
(-0.283565 0.422102 3.53712e-21)
(-0.354853 0.422756 2.02343e-19)
(-0.42232 0.419855 8.83075e-20)
(-0.485681 0.414805 -2.89502e-19)
(-0.547486 0.408059 2.36377e-21)
(-0.612806 0.400393 -1.00917e-20)
(-0.0228398 0.174257 -1.48121e-20)
(-0.0728943 0.39665 -1.86189e-20)
(-0.13006 0.5139 4.20317e-20)
(-0.190517 0.563351 4.08446e-20)
(-0.249782 0.578651 -4.13438e-20)
(-0.306246 0.579888 2.00504e-19)
(-0.358944 0.575416 -2.62858e-19)
(-0.407155 0.567584 -3.20766e-19)
(-0.452316 0.556876 3.38709e-19)
(-0.499167 0.543975 -1.03527e-19)
(-0.0337692 0.182073 -2.63073e-20)
(-0.0796487 0.438665 -5.82197e-22)
(-0.12027 0.591932 -1.04019e-20)
(-0.15871 0.666951 -1.80553e-19)
(-0.196054 0.695408 -5.73326e-20)
(-0.231279 0.701204 6.08103e-19)
(-0.263372 0.696757 -1.75477e-19)
(-0.291274 0.686724 -3.71721e-19)
(-0.3148 0.672378 4.41393e-19)
(-0.336913 0.654357 2.63215e-19)
(-0.0383297 0.1551 -1.28686e-20)
(-0.0796328 0.411672 -4.76102e-21)
(-0.104961 0.594811 1.64776e-21)
(-0.122086 0.70383 -2.91767e-21)
(-0.136271 0.756872 9.84014e-20)
(-0.148801 0.775636 -2.05783e-19)
(-0.159404 0.776059 -1.65532e-19)
(-0.167274 0.766679 1.94188e-19)
(-0.17131 0.750749 -2.1065e-21)
(-0.168603 0.729357 8.68377e-21)
(-0.0333178 0.106894 0)
(-0.0690531 0.325972 -8.3463e-21)
(-0.0839231 0.517526 1.62387e-20)
(-0.0850336 0.658484 5.97622e-20)
(-0.0791771 0.746711 2.2576e-19)
(-0.0697708 0.792531 -1.62641e-19)
(-0.0580551 0.809094 6.20625e-20)
(-0.0440307 0.807127 5.01087e-20)
(-0.0271414 0.793263 0)
(-0.00144791 0.770676 1.75677e-20)
(-0.0207994 0.0559773 -2.57967e-20)
(-0.048255 0.211653 6.2706e-20)
(-0.0582916 0.38001 4.57296e-20)
(-0.0528943 0.52996 -5.82238e-20)
(-0.0364064 0.64525 5.59292e-20)
(-0.0123273 0.72297 8.79912e-20)
(0.0169047 0.767602 -2.68869e-19)
(0.0500112 0.786178 -3.61798e-20)
(0.0853105 0.78484 3.47513e-19)
(0.131261 0.766489 8.7852e-21)
(-0.00656219 0.0172843 7.40058e-21)
(-0.0243509 0.106962 1.02916e-19)
(-0.0339324 0.229099 -5.85603e-20)
(-0.0314317 0.357055 -9.90216e-21)
(-0.0165729 0.471594 -3.42203e-20)
(0.00936637 0.562668 -9.33027e-21)
(0.0444709 0.627409 5.00256e-20)
(0.087008 0.667449 4.40636e-20)
(0.134557 0.686325 -8.14541e-20)
(0.190993 0.679647 -1.22983e-19)
(0.00334485 -0.00349888 1.91235e-20)
(-0.0084461 0.0365181 -4.43291e-20)
(-0.0217889 0.109371 -7.08483e-20)
(-0.0285112 0.197142 2.47623e-20)
(-0.0243482 0.284949 6.09021e-21)
(-0.0078989 0.362439 1.6615e-19)
(0.0204705 0.424051 1.89845e-19)
(0.0595918 0.468104 -5.7055e-20)
(0.109608 0.495841 -2.16028e-20)
(0.164833 0.489357 -3.33296e-20)
(0.00403089 -0.00734388 1.69036e-20)
(-0.0124618 0.00500554 -4.06467e-20)
(-0.0351292 0.0388999 8.72366e-20)
(-0.0544318 0.0849842 1.17465e-19)
(-0.0638481 0.135234 -1.07755e-19)
(-0.0602115 0.182682 2.49294e-19)
(-0.0422197 0.222588 -2.42393e-20)
(-0.00927864 0.252306 -4.27458e-19)
(0.040672 0.269522 -6.99454e-20)
(0.10206 0.255397 8.7837e-21)
(-0.0110545 0.00654908 -4.95911e-22)
(-0.0452238 0.0141494 -1.09329e-20)
(-0.0789837 0.0249298 -1.28226e-20)
(-0.104965 0.0398799 5.76126e-20)
(-0.116545 0.0582997 1.15766e-19)
(-0.109416 0.0779841 -1.60565e-19)
(-0.0807501 0.0974974 -1.78599e-19)
(-0.0290004 0.115995 1.24062e-19)
(0.0470608 0.131892 -1.20709e-19)
(0.13855 0.134902 -7.3614e-20)
(-0.944204 0.361452 5.57763e-20)
(-1.15605 0.355322 -1.19622e-18)
(-0.578231 0.111133 -5.39059e-19)
(-0.0449967 -0.270163 4.15776e-19)
(0.393933 -0.526267 -1.25356e-19)
(0.632509 -0.524256 -8.72445e-20)
(0.807088 -0.463296 -3.24572e-20)
(0.918629 -0.348309 2.18576e-21)
(0.978919 -0.281705 1.80273e-20)
(1.06 -0.176403 3.77342e-21)
(-0.752797 0.468416 3.38161e-19)
(-0.897314 0.319907 4.96425e-19)
(-0.382255 -0.0541822 -3.93613e-20)
(0.137703 -0.413387 -4.72407e-19)
(0.548405 -0.618992 -6.48364e-19)
(0.760714 -0.584813 0)
(0.907863 -0.500106 -4.83827e-20)
(0.989457 -0.370256 3.75322e-21)
(1.03159 -0.297295 1.19434e-22)
(1.0856 -0.186465 -1.02264e-20)
(-0.492818 0.545282 1.05899e-19)
(-0.551178 0.291067 -3.23351e-19)
(-0.0980642 -0.193863 4.47686e-19)
(0.369976 -0.538518 1.12701e-19)
(0.728549 -0.69973 4.82342e-20)
(0.900805 -0.636134 -4.37263e-20)
(1.01215 -0.529248 0)
(1.06198 -0.386068 0)
(1.08663 -0.306916 -2.22478e-20)
(1.11293 -0.192783 0)
(-0.214149 0.588576 -2.77675e-20)
(-0.183134 0.262034 4.17774e-19)
(0.218427 -0.294291 -9.95507e-20)
(0.628801 -0.643287 0)
(0.922032 -0.765777 4.76371e-19)
(1.04728 -0.675861 -8.71198e-20)
(1.11714 -0.549396 0)
(1.13258 -0.395605 8.07674e-20)
(1.14019 -0.310879 0)
(1.14006 -0.1954 1.2592e-20)
(0.0353935 0.604465 2.26222e-19)
(0.165619 0.236541 1.70081e-19)
(0.542073 -0.368595 6.17638e-20)
(0.895354 -0.726982 0)
(1.11743 -0.816992 1.88391e-19)
(1.1925 -0.703714 1.91657e-19)
(1.2203 -0.559974 -2.51592e-20)
(1.19974 -0.398583 -3.4962e-21)
(1.18989 -0.309542 -1.80593e-20)
(1.1653 -0.194557 2.02667e-21)
(0.245989 0.597798 1.69063e-18)
(0.470555 0.221747 9.96163e-20)
(0.852651 -0.422232 -2.9434e-20)
(1.15915 -0.789488 4.27134e-19)
(1.30868 -0.853885 -3.11433e-19)
(1.33058 -0.720539 8.86483e-20)
(1.31851 -0.561493 2.00225e-19)
(1.26273 -0.39495 -1.68837e-19)
(1.23475 -0.30317 4.12635e-22)
(1.18759 -0.190544 -2.80694e-20)
(0.405892 0.561054 3.99747e-20)
(0.725455 0.20882 -1.27154e-19)
(1.14334 -0.459127 -7.33198e-20)
(1.40979 -0.831261 -1.14151e-20)
(1.4903 -0.876896 -2.06262e-19)
(1.45835 -0.727423 -4.45731e-20)
(1.40917 -0.55515 -7.85066e-20)
(1.32096 -0.385106 1.09154e-20)
(1.2747 -0.291994 2.33871e-20)
(1.2065 -0.183624 -4.99279e-22)
(0.473934 0.478757 -6.67096e-19)
(0.927269 0.190967 -2.56113e-19)
(1.41212 -0.484183 0)
(1.63986 -0.852796 1.05746e-19)
(1.6564 -0.8859 1.54335e-19)
(1.57362 -0.725342 -2.60518e-20)
(1.49046 -0.542382 -2.49695e-19)
(1.37377 -0.369925 7.14527e-20)
(1.31002 -0.276377 -1.21519e-21)
(1.22207 -0.174044 -1.37439e-20)
(0.416162 0.340719 6.99478e-19)
(1.10175 0.145422 7.3931e-19)
(1.66338 -0.501783 -1.20242e-19)
(1.84578 -0.855402 -6.27885e-20)
(1.80321 -0.880756 2.38738e-20)
(1.67516 -0.714921 -2.12044e-19)
(1.56144 -0.524514 9.13186e-20)
(1.42052 -0.350628 -1.56454e-21)
(1.3409 -0.256997 3.4638e-21)
(1.23458 -0.162097 2.02741e-20)
(0.336061 0.15022 -4.14305e-19)
(1.3033 0.0724991 7.15103e-19)
(1.90199 -0.515724 1.96119e-19)
(2.02472 -0.844593 -4.27284e-20)
(1.92902 -0.864196 -1.15999e-19)
(1.7628 -0.69728 -9.84426e-20)
(1.62209 -0.502678 -3.81774e-20)
(1.46083 -0.328554 0)
(1.36725 -0.234853 -3.76473e-20)
(1.24436 -0.148184 2.59221e-20)
(1.02657 0.0509116 -3.58373e-19)
(1.76733 -0.103165 -5.37203e-19)
(2.22457 -0.569318 4.2565e-19)
(2.23851 -0.825335 2.67427e-21)
(2.07401 -0.830099 5.48597e-21)
(1.8607 -0.664515 -8.74202e-20)
(1.68605 -0.467381 -9.0068e-20)
(1.50205 -0.295472 4.59216e-20)
(1.39333 -0.202713 -1.69858e-20)
(1.25374 -0.12854 -1.41689e-20)
(1.94671 0.0435893 -2.96862e-20)
(2.43037 -0.230387 -9.886e-19)
(2.61573 -0.618542 -1.0682e-18)
(2.40038 -0.79623 1.03128e-19)
(2.12789 -0.751567 -1.30277e-19)
(1.88088 -0.569011 1.27525e-19)
(1.69496 -0.377034 1.68516e-19)
(1.50596 -0.22502 -2.49474e-20)
(1.39902 -0.147694 7.86397e-20)
(1.25435 -0.0977127 8.37803e-21)
(2.34363 -0.0294802 7.56224e-20)
(2.64451 -0.282213 2.56817e-20)
(2.58722 -0.570712 1.78901e-20)
(2.33405 -0.689791 1.78823e-35)
(2.12933 -0.655369 -3.99562e-20)
(1.9227 -0.495977 -4.67401e-34)
(1.73656 -0.317186 2.77935e-20)
(1.53064 -0.177043 8.41531e-34)
(1.41164 -0.104473 -2.9773e-21)
(1.25561 -0.0701742 5.30148e-21)
(2.45123 -0.0728889 6.41267e-35)
(2.58737 -0.272601 4.20334e-19)
(2.52807 -0.511597 4.1781e-19)
(2.36852 -0.636139 0)
(2.17591 -0.601238 1.9237e-20)
(1.93372 -0.424376 -9.66297e-20)
(1.71314 -0.234677 -1.27084e-19)
(1.49281 -0.10661 2.21071e-33)
(1.37436 -0.048469 -4.62231e-20)
(1.23062 -0.037983 -6.77548e-21)
(2.43837 -0.108449 5.58296e-20)
(2.51108 -0.266079 -6.34634e-21)
(2.48791 -0.47716 0)
(2.33729 -0.57457 0)
(2.11497 -0.510313 0)
(1.8591 -0.328218 0)
(1.64236 -0.152047 7.35954e-21)
(1.43345 -0.0458641 2.54245e-33)
(1.32553 -0.00359859 -4.27283e-21)
(1.19842 -0.0119286 -9.54819e-34)
(2.40652 -0.133276 6.91397e-20)
(2.44908 -0.261243 0)
(2.43408 -0.434724 0)
(2.26068 -0.506187 0)
(1.98684 -0.423801 0)
(1.69847 -0.240225 0)
(1.48142 -0.076195 -1.47186e-20)
(1.30124 0.0101106 6.61724e-20)
(1.22266 0.0375245 -4.87995e-21)
(1.13415 0.0115353 -2.99052e-21)
(2.36343 -0.149702 0)
(2.38022 -0.252578 1.47277e-19)
(2.3167 -0.386003 1.54013e-19)
(2.03575 -0.414901 0)
(1.6772 -0.306666 -8.24432e-21)
(1.37972 -0.137273 -4.84577e-20)
(1.20111 -0.00664066 -5.91804e-20)
(1.08483 0.0497146 -2.88127e-20)
(1.05773 0.0596797 2.23395e-20)
(1.02597 0.0240262 -1.1409e-20)
(2.23995 -0.149887 -6.44288e-21)
(2.18654 -0.225803 -5.58375e-21)
(1.97352 -0.295761 2.25626e-21)
(1.54961 -0.274306 -2.43532e-35)
(1.1458 -0.169804 4.33059e-21)
(0.896004 -0.0487658 -1.48789e-34)
(0.804981 0.0332159 -1.57676e-20)
(0.784419 0.0615953 -4.35643e-20)
(0.820273 0.0591343 -5.21252e-21)
(0.846836 0.0248169 1.00876e-20)
(1.78887 -0.124702 3.88828e-20)
(1.60203 -0.156459 -3.72307e-20)
(1.22781 -0.146901 -2.6727e-20)
(0.776004 -0.100605 0)
(0.475128 -0.0492156 -8.05925e-21)
(0.352163 -0.00326641 -7.87465e-21)
(0.362126 0.031833 -1.84606e-20)
(0.42243 0.0423383 1.32322e-21)
(0.500185 0.0368102 -1.22781e-20)
(0.56033 0.0154248 -8.85396e-21)
(0.683805 -0.0268171 0)
(0.480729 -0.0107778 0)
(0.27119 0.000995408 0)
(0.111143 -0.0026859 0)
(0.00687222 -0.00616065 0)
(-0.0370488 -0.00297649 0)
(-0.00942728 0.00381501 -1.52598e-20)
(0.0518993 0.00629598 6.35976e-35)
(0.114624 0.00525458 -5.62571e-21)
(0.16337 0.00205467 -1.04991e-20)
(2.47566 0.252679 7.414e-19)
(2.5139 0.189069 4.47219e-20)
(2.53056 0.125008 -7.08471e-20)
(2.54791 0.0780939 -2.24682e-19)
(2.54741 0.0218006 -3.8864e-20)
(2.51528 -0.00287139 -5.85649e-20)
(2.47771 -0.0559823 -1.82833e-19)
(2.25188 -0.0492327 2.31346e-20)
(2.09458 -0.0877123 0)
(1.43166 -0.0352683 5.19452e-20)
(2.40112 0.213177 2.40634e-19)
(2.41196 0.168917 -2.67559e-19)
(2.47885 0.110377 -6.00757e-20)
(2.45702 0.0754366 -1.12474e-19)
(2.54186 0.0235881 9.25355e-20)
(2.46959 -0.00748935 1.58159e-19)
(2.57584 -0.0472446 -1.83876e-19)
(2.41752 -0.0909936 1.46589e-20)
(2.49063 -0.0970611 -4.55204e-20)
(2.18948 -0.161528 5.27916e-20)
(2.35368 0.181997 -1.07614e-19)
(2.33442 0.138177 2.46084e-19)
(2.42975 0.0994893 1.4391e-19)
(2.38225 0.0540125 -2.44295e-19)
(2.48702 0.0291198 -4.2983e-20)
(2.41633 -0.0259427 3.27799e-19)
(2.51945 -0.0297669 5.22847e-20)
(2.44173 -0.101837 -5.01194e-20)
(2.50919 -0.0781937 -2.28555e-20)
(2.43343 -0.163104 -2.08726e-20)
(2.30671 0.149662 -2.90142e-19)
(2.2961 0.102634 -5.82425e-20)
(2.3745 0.0830204 4.05645e-20)
(2.34963 0.0300512 -6.3032e-21)
(2.42013 0.0238715 -2.18841e-19)
(2.39282 -0.0371249 -7.08594e-20)
(2.44589 -0.0281179 1.82112e-19)
(2.43181 -0.0949634 -1.18861e-20)
(2.45895 -0.0740815 3.32541e-20)
(2.46253 -0.139775 1.1613e-20)
(2.26011 0.114687 3.52146e-20)
(2.27332 0.071685 1.32567e-19)
(2.3222 0.0593796 -1.32717e-20)
(2.32903 0.0121398 1.55078e-19)
(2.36518 0.00831083 -5.70336e-20)
(2.37268 -0.0417171 -2.04575e-19)
(2.3938 -0.0382939 3.08991e-20)
(2.40774 -0.0876646 -6.2116e-20)
(2.41577 -0.0807715 -1.35594e-20)
(2.43648 -0.125958 -2.21095e-20)
(2.21748 0.0778156 -1.60905e-19)
(2.24494 0.0443625 -6.67448e-20)
(2.27711 0.0320349 -1.35438e-20)
(2.29986 -0.00310873 1.0125e-19)
(2.32193 -0.0112943 2.64328e-19)
(2.34259 -0.0467633 -5.99419e-20)
(2.35514 -0.0521493 5.39636e-21)
(2.37543 -0.0863346 -7.82533e-20)
(2.38067 -0.0905858 -1.1573e-19)
(2.40153 -0.122451 -2.18833e-20)
(2.16562 0.0424028 -5.12685e-20)
(2.19738 0.0183327 -1.18806e-19)
(2.22359 0.00571677 -1.4784e-19)
(2.25171 -0.0188116 -2.60006e-19)
(2.27074 -0.029738 7.91599e-20)
(2.29649 -0.0545701 6.71066e-20)
(2.30847 -0.0646598 -9.26753e-21)
(2.33334 -0.0896796 8.03878e-20)
(2.33845 -0.099345 -7.64051e-20)
(2.36476 -0.12444 -4.8831e-20)
(2.05357 0.0101332 6.11558e-20)
(2.08521 -0.00625166 2.51465e-20)
(2.10402 -0.0164796 1.68722e-20)
(2.13581 -0.0331667 -3.56952e-20)
(2.14839 -0.042694 -3.39311e-20)
(2.18221 -0.0603332 -5.42011e-20)
(2.18773 -0.0698566 -4.79059e-20)
(2.22582 -0.0891607 1.05025e-19)
(2.2228 -0.0990312 -4.45486e-20)
(2.26826 -0.120511 6.82513e-21)
(1.73631 -0.0162612 -6.92956e-20)
(1.75443 -0.0247259 -1.39141e-20)
(1.75902 -0.0305574 1.24106e-19)
(1.78112 -0.0391148 -1.86862e-20)
(1.78013 -0.0446386 -3.54622e-20)
(1.80933 -0.0542083 7.36041e-20)
(1.80035 -0.0602368 -5.64685e-20)
(1.83981 -0.0717713 4.47806e-20)
(1.819 -0.0792711 -2.04225e-20)
(1.87291 -0.0935681 -9.1505e-20)
(0.878479 -0.011553 5.12238e-20)
(0.868687 -0.0109795 4.38838e-20)
(0.857511 -0.0104942 4.38256e-20)
(0.850746 -0.0103288 7.28345e-20)
(0.839873 -0.0105143 -3.7185e-20)
(0.837301 -0.0110541 -5.0551e-20)
(0.823567 -0.0121016 2.29574e-20)
(0.827487 -0.0140416 -2.40308e-21)
(0.802127 -0.0151654 3.58717e-21)
(0.822559 -0.0222484 -5.39331e-21)
(1.55733 0.955748 -8.38098e-20)
(1.54146 1.00154 2.60899e-20)
(1.54507 1.05501 -6.28935e-19)
(1.55364 1.11574 2.29272e-19)
(1.55996 1.17961 1.18068e-18)
(1.55534 1.23848 -1.43392e-19)
(1.51776 1.26979 -1.04565e-18)
(1.3972 1.22153 -2.18608e-22)
(1.10553 0.998796 -5.11883e-19)
(0.516952 0.47826 1.15964e-19)
(1.72025 0.926455 0)
(1.70912 0.970673 7.25948e-19)
(1.70904 1.02025 1.60889e-18)
(1.71714 1.07836 -9.93441e-19)
(1.72662 1.14062 -2.32e-18)
(1.72509 1.19726 -1.50636e-19)
(1.68525 1.22444 -1.9308e-19)
(1.54944 1.17087 7.04875e-19)
(1.2199 0.947904 1.05811e-18)
(0.564599 0.446303 4.15154e-19)
(1.87018 0.887808 6.64831e-20)
(1.86783 0.931542 0)
(1.86913 0.977989 -6.56438e-20)
(1.87792 1.03141 1.01251e-18)
(1.88937 1.0886 5.44192e-20)
(1.88887 1.1395 -2.25696e-18)
(1.84403 1.15976 1.42632e-18)
(1.68992 1.10011 8.37894e-19)
(1.3209 0.879662 -9.02453e-19)
(0.60286 0.405224 -2.64209e-19)
(2.00279 0.840129 -1.84409e-19)
(2.00989 0.881817 -1.3551e-19)
(2.01625 0.924558 2.76051e-19)
(2.02775 0.972434 -3.42425e-19)
(2.04094 1.023 -1.58175e-18)
(2.03959 1.06623 -1.22951e-18)
(1.98673 1.07778 1.28632e-18)
(1.81083 1.01021 8.50399e-19)
(1.39995 0.794165 0)
(0.62705 0.355351 0)
(2.11869 0.777924 -9.01537e-19)
(2.13414 0.816928 -1.65736e-18)
(2.14692 0.855953 -6.36419e-19)
(2.16221 0.898416 -3.25347e-20)
(2.17667 0.942025 0)
(2.17253 0.976054 1.30283e-19)
(2.10767 0.977168 1.49884e-19)
(1.90426 0.903722 1.86562e-19)
(1.45026 0.694945 -2.66405e-19)
(0.633864 0.297902 -6.6547e-20)
(2.22104 0.706066 1.07553e-18)
(2.24267 0.740804 -3.97476e-20)
(2.26083 0.775184 -1.26105e-18)
(2.27923 0.811554 0)
(2.2934 0.846996 0)
(2.28252 0.871211 0)
(2.19943 0.862077 1.43037e-18)
(1.96305 0.782273 -1.56912e-18)
(1.4667 0.583023 -9.8589e-19)
(0.620401 0.235551 1.79645e-20)
(2.30964 0.62384 -1.39099e-18)
(2.33579 0.653918 -2.91893e-18)
(2.35761 0.683555 -5.06312e-21)
(2.37721 0.71372 5.91823e-19)
(2.38783 0.74093 -3.51416e-20)
(2.36487 0.754859 1.23926e-18)
(2.25695 0.734958 -6.85062e-19)
(1.98208 0.649405 -1.78392e-18)
(1.44416 0.463335 9.15248e-20)
(0.585489 0.172388 7.23959e-20)
(2.38657 0.537561 -1.07633e-18)
(2.41388 0.562552 1.47662e-20)
(2.43653 0.58669 4.04909e-19)
(2.45426 0.609903 -3.91903e-19)
(2.45686 0.628121 6.10877e-19)
(2.41528 0.631089 1.6085e-18)
(2.27448 0.600379 -1.31265e-19)
(1.95499 0.510868 -9.25195e-19)
(1.37864 0.34266 2.06837e-19)
(0.529791 0.113023 3.78989e-20)
(2.44895 0.448266 3.90631e-19)
(2.47588 0.468784 7.54976e-20)
(2.49667 0.487321 -3.98613e-19)
(2.5086 0.503299 -9.40091e-19)
(2.49712 0.512214 6.10242e-20)
(2.42839 0.504233 4.266e-20)
(2.24531 0.463832 -1.1204e-18)
(1.87596 0.373486 4.84513e-19)
(1.26866 0.228426 1.37871e-19)
(0.456184 0.0618858 -4.5435e-20)
(2.49769 0.361678 7.17443e-19)
(2.52123 0.377331 -1.06917e-18)
(2.53673 0.389795 1.55806e-19)
(2.5374 0.398225 2.10475e-18)
(2.50366 0.397773 1.01205e-18)
(2.39726 0.379543 -2.18285e-18)
(2.16212 0.331696 -1.9943e-18)
(1.74062 0.244921 8.22968e-19)
(1.11612 0.128239 -4.0819e-20)
(0.369763 0.0225001 -1.07577e-19)
(0.549279 0.386506 -1.80948e-19)
(0.508299 0.399843 -1.6844e-19)
(0.462129 0.414015 7.88215e-20)
(0.411416 0.429168 -2.5375e-19)
(0.355854 0.445167 -2.38031e-20)
(0.294599 0.460614 2.23495e-19)
(0.226672 0.469758 3.96304e-20)
(0.152534 0.456144 -2.10168e-21)
(0.0793433 0.384328 1.7192e-20)
(0.0159703 0.195659 1.42229e-20)
(0.590796 0.494387 1.42014e-19)
(0.550932 0.514499 1.82151e-19)
(0.506736 0.536045 4.48123e-20)
(0.458425 0.559174 -5.56131e-20)
(0.405367 0.583632 -2.27382e-19)
(0.346447 0.607481 -1.27125e-20)
(0.279987 0.623027 6.54905e-20)
(0.204612 0.608241 3.70967e-20)
(0.123781 0.515056 -1.17426e-19)
(0.0390537 0.263633 -4.05009e-20)
(0.650303 0.594478 -1.2406e-19)
(0.611827 0.620437 -1.10461e-19)
(0.57014 0.648316 1.0274e-19)
(0.524998 0.678588 7.34821e-20)
(0.475484 0.711121 -7.73096e-20)
(0.420169 0.743523 -2.74653e-20)
(0.356318 0.766077 -1.07597e-19)
(0.279716 0.751041 -7.54732e-20)
(0.188009 0.637879 -6.72907e-20)
(0.0723862 0.326986 7.00798e-22)
(0.727454 0.690886 4.31982e-20)
(0.690915 0.723332 -4.76704e-20)
(0.652655 0.757558 -8.25414e-20)
(0.611439 0.794253 -5.04875e-20)
(0.565921 0.833422 -6.72129e-20)
(0.514486 0.872333 -4.61163e-21)
(0.45337 0.899462 -2.76197e-19)
(0.374928 0.881984 5.61596e-20)
(0.269216 0.748643 -3.17457e-19)
(0.11439 0.383104 4.89463e-20)
(0.817697 0.770628 4.04541e-21)
(0.783818 0.808079 1.26018e-20)
(0.750277 0.847863 -4.87172e-20)
(0.714947 0.891026 -2.62327e-19)
(0.675689 0.937337 1.21815e-19)
(0.630089 0.983365 3.80894e-20)
(0.572758 1.01576 4.26108e-20)
(0.49183 0.996902 -1.78164e-19)
(0.368096 0.845625 3.84914e-19)
(0.164846 0.431327 2.79993e-19)
(0.924464 0.849639 -8.58932e-20)
(0.892233 0.891559 -1.77841e-19)
(0.862 0.934636 2.11317e-20)
(0.831071 0.981341 9.87221e-20)
(0.797265 1.03201 3.62569e-19)
(0.757644 1.08251 2.68229e-19)
(0.704674 1.11727 6.45532e-19)
(0.621247 1.09427 2.65803e-19)
(0.477618 0.924814 1.469e-19)
(0.22054 0.468932 2.05144e-19)
(1.0372 0.902074 -1.0564e-19)
(1.01119 0.948793 5.97055e-19)
(0.988864 0.996396 3.95406e-19)
(0.965631 1.04742 -5.13565e-19)
(0.938727 1.10241 -2.58082e-19)
(0.905101 1.15715 6.74184e-19)
(0.855584 1.19453 -1.05631e-19)
(0.76754 1.16857 -4.57807e-19)
(0.599565 0.984164 2.47078e-20)
(0.281147 0.495361 2.53583e-19)
(1.15696 0.95595 2.9695e-19)
(1.13111 1.00299 5.80556e-20)
(1.11359 1.0509 -7.65639e-19)
(1.09849 1.10369 1.6876e-19)
(1.0811 1.16105 5.91142e-19)
(1.05628 1.21734 -3.24961e-19)
(1.01195 1.25375 -1.02754e-19)
(0.91937 1.2216 -1.88434e-19)
(0.725371 1.02239 1.90012e-20)
(0.342738 0.50943 -2.9657e-19)
(1.2859 0.97449 1.80353e-20)
(1.27061 1.02528 -5.60172e-19)
(1.26041 1.0741 -4.75754e-21)
(1.25089 1.12793 4.82358e-19)
(1.23936 1.18765 -5.02364e-19)
(1.22053 1.24655 9.83272e-19)
(1.17908 1.28339 6.60013e-19)
(1.0791 1.24682 -9.70976e-19)
(0.855061 1.03692 -7.65343e-20)
(0.404234 0.510774 -3.2598e-19)
(1.38759 0.985269 -3.38924e-19)
(1.38408 1.03688 -3.20085e-19)
(1.39128 1.08731 2.9751e-19)
(1.39654 1.14169 7.9202e-19)
(1.3964 1.20062 2.83225e-19)
(1.38599 1.25767 -8.16628e-19)
(1.34778 1.29084 1.07885e-19)
(1.23908 1.24763 2.20763e-19)
(0.982703 1.02915 -2.95234e-19)
(0.4629 0.500211 -2.30188e-19)
(0.997396 0.00952788 5.66993e-22)
(1.0105 0.0393492 -1.6738e-20)
(1.02203 0.0499342 -1.24718e-20)
(1.02946 0.0733226 0)
(1.02484 0.090474 1.41604e-20)
(1.02258 0.110418 2.07306e-20)
(1.00013 0.146746 2.73314e-20)
(0.96027 0.186331 6.40789e-20)
(0.88043 0.251575 -1.01951e-19)
(0.728024 0.319596 -1.33801e-19)
(0.998587 0.00761897 3.43765e-20)
(1.00795 0.037103 -5.39338e-20)
(1.02142 0.0473181 2.09172e-22)
(1.02725 0.0730939 -1.56376e-20)
(1.02464 0.0908245 7.25861e-21)
(1.02305 0.115039 -1.08518e-20)
(1.00159 0.155559 -6.38225e-20)
(0.968361 0.204688 0)
(0.890588 0.288272 2.12846e-19)
(0.76211 0.389979 -2.61062e-19)
(0.999286 0.00593228 -2.46204e-20)
(1.00658 0.0352356 1.48547e-20)
(1.02073 0.0444247 3.26565e-20)
(1.0268 0.0734341 8.44766e-21)
(1.02471 0.0905859 -1.78232e-20)
(1.02631 0.120362 1.2212e-21)
(1.00408 0.1636 -4.58272e-20)
(0.981544 0.223342 -6.95382e-21)
(0.904077 0.323354 3.27207e-22)
(0.810841 0.457531 6.75075e-19)
(0.999592 0.00435132 -2.74499e-20)
(1.00615 0.0337346 2.06159e-21)
(1.02009 0.0412016 2.67676e-20)
(1.02786 0.0743192 1.79664e-20)
(1.02525 0.0896478 -9.03882e-21)
(1.03205 0.126432 -1.32108e-20)
(1.00771 0.170513 6.76718e-20)
(0.999624 0.242822 -2.3454e-21)
(0.920425 0.355678 -2.39913e-19)
(0.87398 0.520764 8.11149e-20)
(0.999661 0.00278018 1.89177e-20)
(1.00632 0.0325353 -2.72024e-20)
(1.01974 0.0376494 -2.15834e-20)
(1.03011 0.0756245 1.07206e-20)
(1.02664 0.0880148 0)
(1.03963 0.133153 0)
(1.01331 0.176196 5.84505e-20)
(1.02093 0.26301 1.09249e-21)
(0.942219 0.385189 -1.11694e-19)
(0.947158 0.577966 8.98626e-20)
(0.999655 0.00117705 5.29299e-21)
(1.00675 0.0315324 2.16895e-20)
(1.02 0.0337952 -5.95276e-20)
(1.03318 0.0771768 -2.09439e-20)
(1.02926 0.0857433 -4.85232e-22)
(1.04868 0.140426 5.78038e-20)
(1.02102 0.180431 9.12118e-20)
(1.04604 0.284449 -1.80562e-22)
(0.965873 0.409629 1.84084e-19)
(1.0374 0.635314 -2.08705e-19)
(0.999705 -0.000466809 -2.02248e-20)
(1.00715 0.0305885 1.13447e-20)
(1.02117 0.0296795 -1.65797e-20)
(1.03672 0.0787733 -4.47733e-20)
(1.03357 0.0829648 1.57241e-21)
(1.05843 0.147952 -1.53283e-21)
(1.03227 0.183486 -4.44723e-21)
(1.07163 0.306354 -2.02493e-19)
(1.00043 0.43004 1.37345e-19)
(1.12161 0.676483 -5.13906e-19)
(0.999876 -0.0021394 -3.40508e-21)
(1.00735 0.0295471 -3.24744e-20)
(1.02345 0.0253458 3.36059e-20)
(1.04048 0.0802058 2.39804e-20)
(1.03984 0.0798535 8.31825e-22)
(1.06866 0.155287 -6.81425e-20)
(1.04688 0.185701 -5.22055e-20)
(1.09985 0.328769 3.64857e-19)
(1.03477 0.447672 1.32499e-20)
(1.23658 0.735314 8.10332e-19)
(1.00017 -0.00380548 1.35823e-20)
(1.00739 0.0282571 1.46833e-20)
(1.02685 0.0208577 3.98616e-20)
(1.04451 0.0813485 -2.64409e-20)
(1.04798 0.0764605 -7.03618e-20)
(1.07903 0.162598 9.19371e-22)
(1.06579 0.185344 -7.28466e-20)
(1.12792 0.349371 4.77558e-19)
(1.08947 0.447747 -8.30301e-21)
(1.30459 0.752475 -1.12411e-18)
(1.00057 -0.00539961 3.15493e-22)
(1.0074 0.0265579 2.27789e-20)
(1.03105 0.0166588 1.31181e-20)
(1.04929 0.0818976 -5.31665e-20)
(1.05668 0.0746349 -6.95018e-20)
(1.08914 0.169322 -5.87201e-20)
(1.08518 0.193058 -1.35319e-19)
(1.15182 0.373123 -4.35156e-19)
(1.14607 0.476254 -2.35819e-19)
(1.43974 0.823221 -1.18409e-18)
(1.00135 -0.00807831 -9.83593e-22)
(1.00697 0.0240897 -4.91887e-21)
(1.03716 0.00842038 -1.539e-20)
(1.05701 0.0814977 2.91671e-20)
(1.06735 0.0653294 5.30266e-20)
(1.10926 0.1734 -3.83114e-20)
(1.10749 0.177141 1.34822e-19)
(1.19667 0.383328 -4.0207e-19)
(1.20671 0.414996 -1.82101e-19)
(1.45472 0.813846 6.19456e-19)
(1.00284 -0.0120017 5.10342e-22)
(1.00523 0.0201851 8.74983e-21)
(1.04801 -0.00495235 -1.08453e-20)
(1.06399 0.0784889 5.37142e-20)
(1.08509 0.0490375 9.15841e-20)
(1.12773 0.170358 1.14127e-19)
(1.14786 0.151454 3.11219e-20)
(1.22427 0.36921 1.94573e-19)
(1.30503 0.363481 3.06409e-19)
(1.47171 0.714614 2.57771e-20)
(1.00339 -0.0157153 -1.27746e-21)
(1.00449 0.013937 -3.72469e-21)
(1.06343 -0.0183497 3.8053e-21)
(1.06694 0.0733396 4.06176e-21)
(1.11055 0.0324503 2.81337e-34)
(1.13873 0.161493 -6.54196e-21)
(1.19656 0.126514 -4.68759e-34)
(1.23978 0.344045 1.73554e-20)
(1.37909 0.308518 -5.31071e-20)
(1.50867 0.623933 -5.43136e-20)
(1.00059 -0.0197176 1.48146e-20)
(1.00985 0.00411571 -4.2189e-35)
(1.07806 -0.0302299 -4.32853e-21)
(1.07109 0.0637525 -2.25864e-20)
(1.13722 0.0172328 -4.66541e-20)
(1.15137 0.147858 -3.88144e-20)
(1.23517 0.103426 -6.10187e-34)
(1.26089 0.314971 -7.52637e-20)
(1.41775 0.25439 -1.40607e-19)
(1.54875 0.531586 9.12809e-20)
(0.993154 -0.0247725 0)
(1.02541 -0.00967081 4.06111e-36)
(1.08663 -0.0396189 0)
(1.0851 0.0479917 0)
(1.15926 0.00359872 0)
(1.17389 0.128181 0)
(1.25648 0.083715 -4.39727e-34)
(1.29287 0.278406 0)
(1.43493 0.207627 -1.87843e-20)
(1.57672 0.437621 5.40102e-20)
(0.981829 -0.0318702 2.3762e-21)
(1.05025 -0.0250937 7.05661e-22)
(1.0896 -0.0465772 -5.38527e-21)
(1.1118 0.0291832 0)
(1.17561 -0.00692231 0)
(1.20262 0.10525 5.87248e-21)
(1.26835 0.06811 4.263e-20)
(1.32622 0.235845 -1.25183e-20)
(1.44994 0.168386 -2.73998e-20)
(1.59421 0.34818 2.0764e-19)
(0.969653 -0.0456822 -8.14796e-20)
(1.08093 -0.047864 2.38291e-21)
(1.08835 -0.0576023 -5.96823e-21)
(1.14556 0.00123609 -1.39717e-20)
(1.17507 -0.0181953 -2.88086e-20)
(1.22076 0.0781219 -1.38568e-20)
(1.26325 0.0535618 -3.62198e-20)
(1.34538 0.18845 -2.88227e-20)
(1.45788 0.132682 -5.27096e-20)
(1.60985 0.263318 6.53007e-20)
(0.961012 -0.0527759 -5.39193e-21)
(1.10528 -0.0582327 -1.76264e-20)
(1.06857 -0.057342 -6.53371e-21)
(1.15032 -0.0162115 -4.86654e-21)
(1.1116 -0.0182958 -4.41523e-35)
(1.19082 0.0536907 6.26823e-21)
(1.19057 0.041261 -8.00051e-34)
(1.32335 0.137315 -1.19807e-20)
(1.41238 0.0961629 1.70665e-20)
(1.60321 0.18203 2.4658e-20)
(0.955688 -0.0936641 1.97113e-19)
(1.05908 -0.0888098 -4.98127e-21)
(0.954897 -0.0733897 -7.02187e-21)
(0.996937 -0.0348555 1.29021e-20)
(0.886763 -0.0156832 1.62859e-20)
(0.997784 0.0287939 1.50923e-20)
(0.95498 0.0282939 1.51772e-20)
(1.15409 0.0800958 -8.78227e-21)
(1.20646 0.0589606 -1.8568e-20)
(1.45417 0.103107 1.33534e-19)
(0.825797 -0.0466289 8.01708e-21)
(0.728362 -0.0335646 -9.25744e-35)
(0.532176 -0.0185073 -8.13189e-21)
(0.476805 -0.00309461 0)
(0.398041 0.000301134 0)
(0.470287 0.00898368 6.20224e-21)
(0.459027 0.00541778 -4.5969e-36)
(0.605837 0.0173002 -1.15253e-20)
(0.661207 0.00959544 -2.50882e-20)
(0.845762 0.0184591 5.32265e-20)
(1.65839 0.841435 -1.86313e-19)
(1.75836 0.823482 -2.75463e-19)
(1.87376 0.790236 0)
(1.9815 0.747557 1.53512e-19)
(2.08064 0.690069 6.49057e-19)
(2.17028 0.626425 -1.11808e-19)
(2.24916 0.553462 1.65165e-18)
(2.323 0.478873 -8.16184e-20)
(2.38207 0.40019 -3.55667e-19)
(2.43882 0.326209 3.11356e-19)
(1.68367 0.691652 9.52839e-20)
(1.75686 0.677237 1.09414e-19)
(1.85437 0.644594 -1.38171e-20)
(1.93762 0.606959 2.12357e-19)
(2.03084 0.554397 -1.7312e-19)
(2.09779 0.504441 -4.00707e-19)
(2.17827 0.443528 -1.21135e-19)
(2.23005 0.390311 5.45578e-19)
(2.30184 0.32696 -2.07606e-20)
(2.33662 0.275691 -4.5997e-19)