/*--------------------------------*- C++ -*----------------------------------*\
  =========                 |
  \\      /  F ield         | OpenFOAM: The Open Source CFD Toolbox
   \\    /   O peration     | Website:  https://openfoam.org
    \\  /    A nd           | Version:  13
     \\/     M anipulation  |
\*---------------------------------------------------------------------------*/
FoamFile
{
    format      ascii;
    class       volScalarField;
    location    "0.77";
    object      strainRateViscosityModel:nu;
}
// * * * * * * * * * * * * * * * * * * * * * * * * * * * * * * * * * * * * * //

dimensions      [0 2 -1 0 0 0 0];

internalField   nonuniform List<scalar> 
440
(
9.41954
8.96973
8.54452
8.04238
7.5862
9.68995
9.35817
8.98177
8.48004
7.87556
9.80074
9.53084
9.15877
8.58509
7.84825
9.84962
9.61817
9.25861
8.64755
7.86606
9.86917
9.65606
9.30591
8.68094
7.90878
1.30736
1.79082
2.05016
2.30027
2.36434
3.38603
3.30231
3.31646
3.42464
3.49534
5.8925
5.27142
4.92773
4.72759
4.75725
7.7696
6.99346
6.42032
5.9047
5.82709
8.82066
8.15137
7.5521
6.91819
6.87154
1.85154
0.846366
0.421714
0.1604
0.162162
2.61594
0.908279
0.367867
0.129074
0.0498755
3.51201
1.14745
0.303915
0.090045
0.0150281
4.09136
1.43506
0.276945
0.0513031
0.0534255
4.60405
1.75237
0.322929
0.0115819
0.165016
4.22942
1.74023
0.303198
0.0686845
0.281098
3.71153
1.82455
0.630093
0.311073
0.416467
4.91974
3.20845
1.24095
0.556441
0.534499
7.00946
4.28841
1.91725
0.899514
0.657072
8.27284
5.0764
2.49628
1.30441
0.833804
2.84823
3.68256
4.61968
5.50555
6.14881
3.68375
3.69665
3.77225
3.85223
3.3679
8.22649
8.08653
7.7993
7.38542
6.34643
9.0529
8.99236
8.85903
8.62149
8.16015
9.60671
9.56995
9.48702
9.33805
9.1188
7.50323
8.01244
8.55945
9.01088
9.46418
7.794
8.45166
8.98715
9.37788
9.70864
7.779
8.55905
9.15943
9.54077
9.80944
7.81627
8.62755
9.25739
9.62275
9.85359
7.89134
8.67366
9.30535
9.65743
9.87034
2.5328
2.47383
2.27393
2.1196
2.04855
3.4801
3.43214
3.47273
3.69276
4.24593
4.63601
4.65923
5.04959
5.59924
6.4515
5.68364
5.82572
6.49733
7.18782
8.04111
6.75317
6.84164
7.58032
8.2427
8.93537
0.209771
0.0607562
0.282158
0.870148
2.02676
0.181159
0.0763425
0.227322
0.888409
2.66045
0.16154
0.0795298
0.170639
1.08127
3.44062
0.149849
0.0635847
0.156733
1.38653
3.94206
0.153205
0.0693511
0.24977
1.73499
4.36449
0.203158
0.10736
0.271636
1.86929
4.10075
0.335191
0.125326
0.276199
1.81308
3.86165
0.665882
0.245283
0.774418
3.03726
4.9082
2.27474
0.815295
1.50911
4.16236
6.96072
5.05716
2.53786
2.42003
5.03785
8.27913
5.94699
5.26603
4.4023
3.51037
2.77979
3.52236
3.99115
3.97099
3.87636
3.76365
6.32103
7.35232
7.77902
8.06769
8.21847
8.12122
8.59993
8.84944
8.98862
9.05203
9.11694
9.33781
9.48741
9.57051
9.60696
9.31088
7.91687
1.39866
3.63023
7.73682
9.08187
7.44083
3.206
1.64077
6.78907
8.39872
6.57774
4.20853
1.00358
4.14773
6.8157
5.09479
3.45532
1.70068
1.03874
4.50388
3.14533
2.03881
1.37796
0.460026
2.59733
1.61866
1.0025
0.797036
0.926635
1.45638
0.779178
0.579947
0.613213
0.685897
0.801361
0.406264
0.59115
0.759924
0.833191
0.305497
0.50845
0.885901
1.05162
1.11301
0.162824
0.935468
1.28153
1.51784
1.57233
0.190467
0.362743
0.70983
0.776721
0.730059
0.39591
0.501373
0.578936
0.635966
0.619863
0.614863
0.64836
0.465035
0.492353
0.50586
0.966979
0.79708
0.41799
0.353089
0.388928
1.33148
0.847175
0.423811
0.235844
0.271775
1.10571
0.858351
1.12307
1.10786
0.996645
0.28373
0.471954
0.865577
0.919702
0.844241
9.19118
8.83868
7.75885
5.73027
3.55974
8.58731
7.72294
5.85163
3.49152
0.86602
0.964614
0.858313
1.02684
1.6202
2.65825
0.813231
0.767253
0.703776
0.824523
1.52662
1.0595
1.01076
0.847526
0.552985
0.74455
1.38434
1.34733
1.14942
0.79784
0.228553
1.85614
1.80947
1.55737
1.23945
0.598269
7.73635
3.62716
1.39995
7.91511
9.31103
6.78526
1.64057
3.20265
7.43773
9.08251
4.13433
1.01086
4.19438
6.57315
8.40029
1.0368
1.7054
3.43371
5.08567
6.8222
0.47607
1.37628
2.01481
3.12768
4.52674
1.31201
0.541998
0.550709
0.453073
0.175875
0.678011
0.291331
0.468302
0.519498
0.485701
0.399856
0.154146
0.38135
0.621207
0.804144
0.290357
0.0697945
0.341271
0.773562
1.22366
0.245967
0.0452802
0.319681
0.858423
1.58853
5.48129
2.46049
1.035
0.960388
1.14175
2.88779
1.08769
0.724233
0.555153
0.252169
3.56823
5.73582
7.76002
8.83921
9.19133
0.843614
3.47218
5.84503
7.72156
8.58716
)
;

boundaryField
{
    left
    {
        type            calculated;
        value           nonuniform List<scalar> 
17
(
0.457534
1.12279
2.18585
3.9101
6.58046
0.304351
0.188605
0.137957
0.143297
0.213603
2.95933
2.06192
1.33913
0.82017
0.499518
6.97882
4.57975
)
;
    }
    right
    {
        type            calculated;
        value           nonuniform List<scalar> 
17
(
0.996937
0.845697
0.732197
0.62279
0.508299
0.388369
0.265324
0.148888
0.0396969
0.013585
0.0658518
0.213099
0.344677
0.471288
0.568784
0.670402
0.825713
)
;
    }
    down
    {
        type            calculated;
        value           nonuniform List<scalar> 
20
(
5.99518
2.99972
1.14453
1.04293
1.85306
4.27033
6.3839
8.13147
9.01583
9.30928
9.30911
9.01518
8.12998
6.37986
4.26415
1.8317
0.932932
1.1895
1.16477
1.04384
)
;
    }
    up
    {
        type            calculated;
        value           nonuniform List<scalar> 
20
(
8.54862
5.4044
2.72575
1.45426
0.899821
9.69562
9.66615
9.59857
9.47421
9.2934
9.2964
9.47647
9.60018
9.66726
9.69603
5.70509
3.14858
2.66007
5.39365
8.56554
)
;
    }
    cylinder
    {
        type            calculated;
        value           nonuniform List<scalar> 
40
(
1.37361
3.59099
6.11882
7.96035
8.95705
9.50512
9.74576
9.84079
9.88145
9.89745
9.54743
9.76283
9.84855
9.88495
9.89848
2.28697
4.52362
6.69841
8.23413
9.06986
3.04372
1.85047
1.0943
0.446402
0.605536
9.51906
9.3319
8.74235
7.26981
4.98625
9.51889
9.33116
8.74029
7.26157
4.95767
2.96593
1.73343
1.07396
0.667694
0.103372
)
;
    }
    defaultFaces
    {
        type            empty;
    }
}


// ************************************************************************* //
