/*--------------------------------*- C++ -*----------------------------------*\
  =========                 |
  \\      /  F ield         | OpenFOAM: The Open Source CFD Toolbox
   \\    /   O peration     | Website:  https://openfoam.org
    \\  /    A nd           | Version:  13
     \\/     M anipulation  |
\*---------------------------------------------------------------------------*/
FoamFile
{
    format      ascii;
    class       surfaceScalarField;
    location    "75";
    object      phi;
}
// * * * * * * * * * * * * * * * * * * * * * * * * * * * * * * * * * * * * * //

dimensions      [0 3 -1 0 0 0 0];

internalField   nonuniform List<scalar> 
823
(
-0.00558864
0.0179744
-0.0123858
0.0105347
0.00692167
-0.023045
0.0731756
-0.0441672
-0.0184737
0.17383
-0.110423
0.00976848
-0.152221
0.00570437
0.320347
0.00679043
0.011184
0.0600755
-0.0463634
0.160454
-0.144546
0.279019
-0.228988
-0.30299
0.429788
0.026121
-0.014937
0.118682
-0.138924
0.232443
-0.258307
0.337588
-0.334133
-0.3744
0.408999
0.0482952
-0.0632322
0.146367
-0.236996
0.226386
-0.338326
0.271371
-0.379119
-0.390073
0.287044
0.059849
-0.123081
0.128251
-0.305397
0.164816
-0.374892
0.178301
-0.392603
0.18663
-0.398403
-0.0391665
0.0588346
-0.0196681
-0.106847
0.105644
-0.0379632
-0.171527
0.107777
-0.0430967
-0.225032
0.103669
-0.0501639
0.101312
-0.2649
-0.0614437
0.0165232
0.0423114
0.0193218
0.102845
0.00205159
0.125047
-0.0195602
0.125281
0.116406
-0.0346541
0.0277136
0.0145978
0.0717512
0.0588074
0.107897
0.088901
0.133044
0.100134
0.10062
0.14883
0.0110084
0.00358942
0.043658
0.0261578
0.0862069
0.0463521
0.134884
0.0514575
0.0590527
0.176451
-0.00879637
-0.0056836
0.0221948
0.0834208
0.148178
0.154046
0.799052
-1.218
0.590887
-1.31544
0.878597
0.588567
-1.39885
1.40117
0.540347
0.358917
-0.310697
0.283411
-0.228061
0.179722
0.584675
0.424541
-1.56026
0.54112
-1.51543
0.547494
0.352543
0.328521
0.288457
0.445048
0.379864
-1.65166
0.457694
-1.59326
0.522545
0.287692
0.351974
0.448049
0.173449
0.49057
-1.69418
0.449696
-1.55239
0.477854
0.259534
0.341967
0.519407
-0.19778
0.530669
-1.70545
0.405412
-1.42713
0.395082
0.269863
0.254978
1.45481
-0.440587
-1.212
1.3052
-1.55584
0.783965
-0.905899
0.657264
0.396564
0.0873729
1.47725
-0.521441
-1.39639
1.01512
-1.09371
0.513408
-0.404185
0.668501
0.241472
-0.119972
1.33695
-0.509812
-1.34858
0.898307
-0.655067
0.585552
-0.0914306
0.82959
-0.00256626
-0.207217
1.14682
-0.342104
-1.31453
0.721246
-0.22949
0.63814
-0.00832463
0.757931
-0.122358
-0.119479
0.525144
-0.867249
0.295654
0.287329
0.164971
1.10274
0.147826
-1.06393
1.17674
0.213038
1.28428
0.301461
1.32472
0.389351
0.433066
1.00571
0.0952014
-0.953086
1.07957
0.139175
1.17141
0.20962
1.28617
0.274594
0.322844
0.9589
0.0493326
-0.913031
1.01776
0.080319
1.10292
0.124453
1.21821
0.159304
0.192476
0.933984
0.0101831
-0.894835
0.990429
0.0238747
1.07512
0.0397581
1.18365
0.0507807
0.0615928
0.691242
-0.681059
0.715117
0.754875
0.805656
0.139738
0.299181
-0.24485
-0.194069
0.0938228
0.304385
-0.25847
0.0530525
0.314816
-0.274045
0.0185276
0.305645
-0.27112
0.19587
-0.177342
0.102295
0.335095
-0.138208
0.0659767
0.340703
0.0336933
0.347099
0.00816907
0.331169
0.204039
0.0691304
0.371144
-0.10518
0.0369523
0.372881
0.00951082
0.374541
-0.00561359
0.346294
0.198425
-0.00783433
0.387281
-0.00830212
-0.0253112
0.390358
-0.0341041
0.383333
-0.0266811
0.338871
0.171744
-0.0883327
0.0772104
-0.0905776
-0.082136
-0.0486628
0.199931
0.106082
-0.253583
-0.0524306
0.145706
0.110037
-0.0558114
0.0902642
0.114535
-0.059093
0.036637
0.113867
-0.0602395
0.0797031
-0.0430661
0.193447
0.149556
-0.23692
0.146846
0.156638
0.0951571
0.166224
0.0404236
0.1686
0.120127
0.136597
0.193799
-0.18084
0.0960298
0.197205
0.0570039
0.20525
0.0205157
0.205088
0.140642
0.151666
0.225692
-0.183559
0.113277
0.235594
0.0698816
0.248645
0.0272684
0.247702
0.167911
0.081127
-0.100285
0.0582504
0.0328499
0.00943125
0.407865
0.0431272
-0.0550128
0.426937
0.0371294
-0.0562014
0.409037
0.20736
-0.18946
0.397788
0.200356
-0.189107
0.484102
-0.339896
0.406311
0.0327958
0.419563
0.0238771
0.398431
0.228493
0.386616
0.212171
0.633797
0.400215
0.0285601
0.412706
0.0113865
0.374992
0.266207
0.372777
0.214386
0.825734
0.397484
0.0270555
0.394046
0.0148247
0.363729
0.296523
0.355085
0.22303
0.99726
0.388349
0.0346857
0.379078
0.0240965
0.336342
0.339259
0.324324
0.235048
1.2213
0.622542
0.0161642
0.630565
0.016073
0.685099
0.284726
0.790262
0.129885
1.02835
0.983212
0.633032
-0.0128471
0.612724
0.0363808
0.723504
0.173945
0.79863
0.0547593
0.789988
1.03699
0.628005
-0.0368315
0.637056
0.0273296
0.759364
0.0516373
0.801472
0.0126516
0.570233
1.02123
0.620494
-0.0533047
0.671236
-0.0234124
0.740498
-0.0176253
0.740406
0.0127437
0.297625
1.01301
0.550716
0.527303
0.509678
0.522422
0.820046
1.02452
-0.23538
1.01354
-0.127225
1.02396
-0.115604
1.01875
-0.00308544
0.0320272
0.982745
-0.181134
0.957395
-0.101875
0.930351
-0.0885604
0.9353
-0.00803393
0.0142411
0.947747
-0.107654
0.920431
-0.0745585
0.892206
-0.0603354
0.901901
-0.017729
0.00311039
0.949117
-0.0437572
0.911852
-0.037293
0.88378
-0.0322637
0.884147
-0.0180957
-0.00757758
0.776289
0.738996
0.706732
0.688637
0.0467645
0.15819
-0.204955
0.0694825
0.334392
-0.35711
0.0693949
0.385788
-0.3857
0.0603036
0.385947
-0.376855
0.35318
0.0482736
-0.34115
0.0698441
0.0883459
0.137137
0.267099
0.168228
0.354697
0.172255
0.381919
0.368497
0.156939
0.0608075
0.0275384
0.168439
0.159468
0.253022
0.270114
0.304849
0.330092
0.369077
0.304268
0.0301777
-0.00263928
0.129692
0.0599539
0.245987
0.153819
0.354876
0.221202
0.294308
0.429645
0.00787343
-0.0105127
0.06198
0.00584732
0.158858
0.0569408
0.271032
0.109029
0.17339
0.39195
-0.000356771
-0.0101559
0.013744
-0.00825344
0.0589513
0.0117336
0.12681
0.0411701
0.0912529
0.208947
-0.000665054
-0.00949088
0.00210832
-0.0110268
0.010186
0.00365593
0.0255536
0.0258024
0.0592731
0.0575334
0.0208165
-0.0303074
0.0433714
-0.0335817
0.0542071
-0.00717975
0.0561927
0.0238169
0.0535928
0.0618731
0.0112589
-0.0415663
0.0144158
-0.0367386
0.00993864
-0.00270259
0.0110147
0.0227408
0.044428
0.0201795
-0.0612344
-0.135936
-0.181735
-0.209159
-0.226174
0.115078
1.21862
-1.12475
0.239674
-0.0778667
-0.0467295
0.354164
-0.118646
0.0041559
0.250886
0.198422
-0.0951442
-0.0510495
0.0887332
-0.0256929
1.30185
0.139167
-0.242727
0.447167
-0.426645
0.357533
0.288056
0.0103025
-0.16492
1.52864
0.029721
-0.437368
0.53228
-0.929205
0.461518
0.358818
0.0906503
-0.0587658
1.60759
0.105799
-0.601933
0.505977
-1.32938
0.519835
0.34496
0.1663
0.163414
0.440078
0.511866
0.546129
-0.113863
0.62938
-0.515517
-0.0591682
-0.0546951
0.02504
-0.0842082
0.0751941
-0.0501541
-0.0805401
0.554099
-1.04947
0.452675
0.372622
0.227324
0.0858779
-0.0120798
-0.0737981
0.136505
-0.0506272
0.227761
-0.091256
0.362247
-0.134486
-0.15327
0.196308
-0.160114
0.302619
0.515631
0.810791
0.140946
-0.139609
0.16977
-0.171108
0.107227
-0.145429
0.179148
0.0688245
-0.153141
0.191544
0.027854
-0.153649
0.194619
-0.108746
0.1366
0.181259
-0.0999736
-0.220894
0.137087
-0.101257
0.0874279
-0.103482
0.036247
-0.102468
-0.0724987
0.190341
-0.0506389
-0.239675
0.139516
-0.0504327
0.0870858
-0.0510517
0.0355261
-0.0509083
-0.0369726
0.2024
0.00111947
-0.254159
0.149866
0.00210155
0.095719
0.00309512
0.0404742
0.00433649
0.00350158
0.205175
-0.256486
0.151465
0.0954675
0.0395645
0.0422019
-0.32114
-0.0622115
0.0169843
-0.351638
-0.0054155
-0.3633
-0.0150335
-0.347492
-0.219988
0.122991
-0.289939
-0.154193
0.08094
-0.309586
0.0395884
-0.321949
0.00830033
-0.316204
-0.211688
0.141525
-0.250149
-0.181315
0.0994508
-0.267512
0.0581034
-0.280601
0.0206407
-0.278741
-0.191047
0.159373
-0.215074
-0.194448
0.116929
-0.225068
0.0714204
-0.235093
0.0281562
-0.235477
-0.162891
0.156618
-0.201921
0.110697
0.0671489
0.0262912
0.392549
0.0954145
-0.0919841
0.390992
0.102933
-0.101376
0.356774
0.16089
-0.126672
0.29965
0.0595288
-0.00240453
-0.201793
0.330336
0.400197
0.091197
0.406369
0.0967612
0.395551
0.171709
0.348644
0.106435
-0.0740431
0.405131
0.0820457
0.416226
0.0856662
0.410256
0.177678
0.373644
0.143048
0.0599251
0.408829
0.0691958
0.422573
0.0719221
0.41855
0.181702
0.392406
0.169192
0.198173
0.410163
0.425883
0.418125
0.39821
0.41619
0.0938613
0.329769
0.086421
0.241218
0.0885509
0.246236
-0.00501783
-0.181611
0.427846
0.511928
0.496973
0.458851
0.451429
0.600154
0.344181
0.083666
0.268796
0.0753845
0.179709
0.0890874
0.104495
0.0752141
0.0306964
0.481899
0.362835
0.270608
0.191629
)
;

boundaryField
{
    left
    {
        type            calculated;
        value           nonuniform List<scalar> 
17
(
-0.60402
-0.60402
-0.60402
-0.60402
-0.60402
-0.39598
-0.39598
-0.39598
-0.39598
-0.39598
-0.39598
-0.39598
-0.39598
-0.39598
-0.39598
-0.510051
-0.510051
)
;
    }
    right
    {
        type            calculated;
        value           nonuniform List<scalar> 
17
(
0.155734
0.235517
0.213202
0.296181
0.38117
0.444185
0.484367
0.484998
0.502385
0.499092
0.48786
0.482072
0.824869
0.875846
0.916835
0.670194
0.0454918
)
;
    }
    down
    {
        type            calculated;
        value           uniform 0;
    }
    up
    {
        type            calculated;
        value           uniform 0;
    }
    cylinder
    {
        type            calculated;
        value           uniform 0;
    }
    defaultFaces
    {
        type            empty;
    }
}


// ************************************************************************* //
