/*--------------------------------*- C++ -*----------------------------------*\
  =========                 |
  \\      /  F ield         | OpenFOAM: The Open Source CFD Toolbox
   \\    /   O peration     | Website:  https://openfoam.org
    \\  /    A nd           | Version:  13
     \\/     M anipulation  |
\*---------------------------------------------------------------------------*/
FoamFile
{
    format      ascii;
    class       volVectorField;
    location    "75";
    object      U;
}
// * * * * * * * * * * * * * * * * * * * * * * * * * * * * * * * * * * * * * //

dimensions      [0 1 -1 0 0 0 0];

internalField   nonuniform List<vector> 
440
(
(-0.0900099 0.0621569 -6.79693e-20)
(-0.111448 0.073126 3.86537e-20)
(0.0579933 0.0397862 1.35457e-19)
(0.498453 0.0271996 1.82633e-20)
(0.567625 0.120044 2.27274e-20)
(-0.0997249 0.0572717 4.58309e-20)
(0.0715085 0.0130679 -1.30621e-19)
(0.616134 -0.0454555 -1.29667e-19)
(1.1895 -0.0796779 7.53994e-20)
(1.74038 -0.110377 1.92139e-20)
(-0.0185944 0.0048728 5.52592e-20)
(0.569406 -0.0512842 7.91097e-19)
(1.38624 -0.0533541 -5.03367e-19)
(1.98969 -0.0385403 -1.62094e-18)
(2.46335 -0.0309842 6.84558e-19)
(0.213166 -0.0482191 -1.77867e-19)
(1.27326 -0.000968477 -5.79981e-19)
(2.04374 0.0561988 1.90078e-18)
(2.43542 0.0852895 2.08997e-18)
(2.47461 0.0916961 -5.91558e-19)
(0.595594 -0.00366157 -3.05278e-19)
(1.79354 0.177733 -6.57741e-19)
(2.3196 0.244522 2.01395e-18)
(2.44377 0.249489 2.15897e-18)
(2.53541 0.22442 7.26218e-19)
(-0.0505167 0.331074 2.35865e-20)
(-0.256077 0.47522 3.8851e-19)
(-0.426496 0.409657 -6.13152e-19)
(-0.538911 0.405626 8.43973e-20)
(-0.601521 0.445814 5.51908e-19)
(-0.0561328 0.365995 -3.27465e-20)
(-0.109665 0.757781 -1.60986e-19)
(-0.162403 0.816419 -3.02888e-20)
(-0.206672 0.743507 -2.39936e-20)
(-0.222699 0.656603 3.8012e-20)
(-0.0466767 0.165087 9.16393e-20)
(-0.0625188 0.553043 -7.99202e-20)
(-0.0506286 0.771847 8.24039e-20)
(-0.025482 0.840053 -1.99283e-19)
(0.033195 0.818212 7.12197e-21)
(-0.00884761 0.0177547 -2.79979e-20)
(-0.0521675 0.218074 8.28762e-20)
(-0.0521292 0.425713 2.03357e-20)
(-0.0128298 0.550119 -3.06791e-19)
(0.036992 0.637844 6.33137e-20)
(-0.0339826 0.0178307 -4.98117e-20)
(-0.120321 0.0854483 -7.65545e-20)
(-0.146338 0.175529 -2.22169e-19)
(-0.0393842 0.240192 1.68436e-19)
(0.0336631 0.358572 6.88353e-20)
(-0.893338 0.69949 1.79857e-18)
(1.65881 -0.744271 2.08197e-18)
(1.32063 -0.947356 1.96561e-19)
(1.4626 0.236788 -7.40266e-19)
(1.22491 0.180046 5.32792e-21)
(-0.340004 0.43637 -1.54588e-19)
(1.32271 -1.07269 -4.10952e-19)
(1.1503 -1.03944 1.3753e-19)
(1.48027 0.214672 5.77797e-19)
(1.26855 0.196173 -4.55749e-21)
(0.0609992 0.314071 -2.11211e-19)
(1.61584 -1.14408 1.60617e-18)
(0.952268 -1.06985 -1.17792e-19)
(1.3813 0.224777 -1.01931e-19)
(1.26019 0.226758 3.72814e-22)
(0.453168 0.293709 5.75453e-19)
(2.23278 -1.09252 -1.43885e-19)
(1.24582 -1.07046 1.57111e-20)
(1.20764 0.14652 1.92955e-19)
(1.23188 0.220767 -2.80109e-20)
(1.08959 -0.0639459 -2.1902e-19)
(2.54882 -1.09942 6.27772e-19)
(1.52067 -0.931423 0)
(0.81503 0.186529 -6.37575e-20)
(1.2173 0.199309 -8.16852e-22)
(1.88588 -0.202543 -4.33624e-19)
(2.75287 -0.929332 -6.75192e-20)
(1.71886 -0.787346 -2.26619e-20)
(0.813567 0.149206 9.7864e-20)
(1.36552 0.0923507 -7.07392e-20)
(2.22595 -0.33597 1.61777e-20)
(2.55525 -0.954883 1.06221e-18)
(0.90059 -0.359949 -1.15471e-20)
(0.754818 0.305819 1.47696e-19)
(1.44991 0.00903312 0)
(2.19816 -0.341627 -2.86373e-19)
(2.20641 -0.437822 4.17413e-21)
(0.799399 -0.137867 -1.9101e-20)
(1.17484 0.0310667 -1.00072e-19)
(1.51804 -0.149222 7.43978e-21)
(2.22048 -0.300338 8.31428e-20)
(1.58623 -0.360887 1.2232e-19)
(0.794773 0.0210577 -1.68351e-20)
(1.35649 -0.0373763 -1.42683e-34)
(1.10964 -0.118542 -1.10224e-21)
(1.22884 -0.100584 1.73384e-19)
(0.461913 0.0563049 -4.10075e-21)
(0.536229 -0.0328549 -4.27621e-21)
(0.447398 -0.10109 2.43689e-20)
(0.0754159 -0.0239034 -1.02136e-20)
(2.37671 0.223449 -9.04307e-19)
(2.60374 0.0191282 -1.11284e-18)
(2.42492 0.0291747 8.55079e-19)
(2.71412 -0.150198 4.2249e-20)
(2.12587 -0.0281097 -2.11766e-20)
(2.0837 0.157223 4.35994e-20)
(2.39209 0.000571131 -3.83327e-20)
(2.2264 -0.0254289 -1.22692e-19)
(2.42517 -0.15423 -2.17284e-19)
(2.32946 -0.247413 -4.25921e-21)
(2.08361 0.0817854 6.30671e-20)
(2.17938 0.000456078 1.03081e-19)
(2.19744 -0.0554482 -1.35905e-19)
(2.21249 -0.117964 4.31539e-20)
(2.25696 -0.192579 2.39613e-20)
(2.06737 0.0172132 1.05711e-19)
(2.10066 -0.0355061 1.12176e-19)
(2.14699 -0.063346 -1.73756e-20)
(2.15998 -0.112686 -1.71781e-20)
(2.18106 -0.147818 2.77272e-20)
(1.5701 -0.0260523 1.47822e-19)
(1.51165 -0.0270021 -1.20961e-20)
(1.55467 -0.043185 2.58239e-20)
(1.46367 -0.0424534 -1.23483e-20)
(1.50215 -0.065181 2.93438e-20)
(1.54705 0.812701 1.12128e-18)
(1.50901 0.915484 -3.72229e-19)
(1.51458 1.0496 -1.3424e-18)
(1.4414 1.09627 7.15839e-19)
(0.876882 0.779811 -1.6325e-19)
(1.85187 0.792827 -5.66842e-19)
(1.81594 0.86691 -2.97464e-18)
(1.81754 0.970897 -1.14372e-18)
(1.72581 0.983545 -3.9823e-19)
(1.0482 0.684991 -6.44923e-19)
(2.13863 0.660237 7.4178e-19)
(2.12781 0.734078 1.93539e-19)
(2.10546 0.823811 -2.24321e-18)
(1.96611 0.811961 -6.29477e-19)
(1.15865 0.536733 4.6816e-19)
(2.32728 0.549374 2.23056e-18)
(2.30501 0.597782 1.66418e-18)
(2.29928 0.651317 -1.93266e-18)
(2.08693 0.612678 -1.46876e-18)
(1.14138 0.355315 -2.69627e-19)
(2.45244 0.394185 1.12472e-18)
(2.48037 0.419709 -8.02295e-19)
(2.38592 0.444161 5.78813e-19)
(2.04843 0.391338 4.5988e-19)
(0.962227 0.158563 -3.91364e-19)
(0.576321 0.474369 -6.60875e-19)
(0.483545 0.510891 -5.04661e-19)
(0.364329 0.546851 5.6743e-20)
(0.226387 0.544864 -7.32585e-21)
(0.0554215 0.381538 7.71462e-20)
(0.677241 0.62989 7.26204e-20)
(0.611462 0.683495 -2.98063e-19)
(0.521475 0.747388 1.72573e-19)
(0.396956 0.805174 -8.06457e-20)
(0.172828 0.610105 1.14815e-19)
(0.768626 0.847445 1.30207e-19)
(0.698505 0.930031 4.3508e-19)
(0.642775 1.0209 1.06608e-19)
(0.55609 1.04806 -2.94593e-19)
(0.302918 0.761842 2.4728e-19)
(1.03638 0.891077 2.17054e-19)
(0.986593 0.970762 -6.99824e-19)
(0.940943 1.07198 -1.87848e-18)
(0.862044 1.13941 7.45036e-19)
(0.50576 0.837882 -1.55697e-19)
(1.11534 0.966769 -8.97885e-20)
(1.1485 1.08042 -1.64291e-19)
(1.16733 1.18396 -3.69252e-19)
(1.10994 1.19557 -4.09852e-19)
(0.677554 0.842847 -6.40175e-21)
(1.01309 0.0374499 -8.32089e-20)
(1.00802 0.0339889 -2.74636e-20)
(1.0402 0.141784 -1.46438e-21)
(0.940855 0.134735 -1.61788e-19)
(0.908083 0.290824 2.93313e-19)
(1.00211 0.0333728 5.14284e-20)
(1.02776 0.0302052 1.05593e-19)
(1.01686 0.154988 1.13532e-19)
(0.985217 0.157096 2.25739e-20)
(0.935314 0.376863 -3.4126e-21)
(1.01265 0.031326 6.76748e-20)
(1.00841 0.0222951 -4.2838e-21)
(1.06004 0.175824 -3.22759e-21)
(0.930283 0.155226 1.23926e-19)
(1.14248 0.519473 -4.70493e-19)
(1.01273 0.0292795 -2.69775e-22)
(1.0221 0.0146951 -1.51847e-19)
(1.03689 0.200979 -5.62209e-20)
(1.03365 0.144871 -3.28124e-19)
(1.1654 0.583654 7.7857e-20)
(1.02011 0.0212024 -1.03799e-20)
(1.00455 0.0218049 4.23754e-20)
(1.08033 0.196955 2.54554e-20)
(1.02102 0.171339 4.21209e-19)
(1.37376 0.708045 -4.6981e-19)
(0.998832 0.0237025 -3.4706e-21)
(1.04594 0.00186308 9.21567e-20)
(1.04313 0.22555 -4.63433e-20)
(1.27763 0.0860829 9.52763e-19)
(1.29091 0.783624 -3.20402e-19)
(0.956712 -0.00431858 -1.30786e-21)
(1.11064 0.0165675 -7.88842e-20)
(0.952204 0.139418 4.97055e-21)
(1.41386 0.0652552 -3.45326e-19)
(1.30611 0.568713 -8.14687e-20)
(0.98109 -0.0105313 6.97671e-21)
(1.064 0.0318418 1.30136e-35)
(1.08841 0.076088 -8.82803e-21)
(1.37339 0.00866355 1.13121e-19)
(1.37683 0.395089 1.63673e-19)
(1.03018 -0.0390391 3.81469e-21)
(0.983914 -0.000764883 -2.43301e-20)
(1.29075 -0.0138857 2.08751e-20)
(1.09581 0.00548958 2.08731e-20)
(1.45507 0.301636 -2.45796e-19)
(0.943086 -0.0210439 -3.68402e-20)
(0.83707 -0.0262046 -1.34446e-21)
(0.95877 -0.00746258 2.56381e-20)
(0.667702 0.00826603 -2.34725e-20)
(1.15129 0.0857152 -5.57774e-20)
(1.79555 0.583519 2.71015e-19)
(1.88696 0.633305 7.17139e-19)
(2.15638 0.483477 -1.02546e-18)
(2.20804 0.467558 1.22897e-20)
(2.42908 0.272284 4.26993e-19)
(1.79529 0.383597 9.24734e-20)
(1.77302 0.437806 9.65674e-19)
(2.04643 0.322223 1.09546e-19)
(1.94241 0.325121 -8.46958e-19)
(2.26355 0.164475 -2.70719e-19)
(1.70646 0.294192 -2.2188e-19)
(1.76703 0.299925 -1.40882e-19)
(1.91551 0.227603 2.20094e-19)
(1.93332 0.208424 -2.6385e-19)
(2.08384 0.114872 2.42528e-19)
(1.67503 0.191031 3.7673e-19)
(1.78542 0.173608 8.94902e-22)
(1.85584 0.116207 2.02381e-19)
(1.94322 0.097404 1.60551e-19)
(1.99977 0.0377549 -1.62207e-19)
(1.36135 0.0436856 -5.02181e-20)
(1.46444 0.0246825 2.36057e-19)
(1.48248 0.00989366 9.49182e-20)
(1.54824 -0.00512799 -1.94554e-19)
(1.52172 -0.0127509 5.73745e-22)
(1.20849 -0.0179277 7.67419e-20)
(2.22405 -0.0247353 -4.98683e-19)
(2.44544 -0.0152547 1.35586e-18)
(2.42385 0.0248456 6.19419e-19)
(2.22542 0.0432216 -4.3095e-19)
(0.803386 0.107649 1.67844e-19)
(2.01246 0.122428 -5.43926e-19)
(2.43818 0.129852 -7.69673e-19)
(2.45374 0.135646 1.0216e-18)
(2.22775 0.121342 -7.35042e-19)
(0.312401 0.110075 2.0974e-21)
(1.44355 0.207479 6.56901e-19)
(2.14883 0.245468 9.31466e-20)
(2.48176 0.245753 9.78081e-19)
(2.52106 0.226259 5.24965e-19)
(0.0252729 0.0187178 2.13886e-19)
(0.646042 0.165206 2.44901e-19)
(1.43397 0.258965 -7.56686e-19)
(1.91783 0.305865 7.25604e-20)
(2.41335 0.33158 6.23992e-19)
(-0.0462807 -0.0347693 1.31329e-19)
(0.148034 0.0552523 -1.78494e-19)
(0.656226 0.182014 -1.63207e-19)
(1.12743 0.260367 2.02499e-19)
(1.62978 0.37989 1.1351e-19)
(-0.056608 -0.0669456 3.29982e-20)
(-0.0547551 -0.0590118 8.84624e-20)
(0.123369 0.00997325 1.27219e-19)
(0.359301 0.127084 -4.81593e-19)
(0.819367 0.252262 6.03883e-21)
(-0.0160683 -0.0208623 -2.08449e-20)
(-0.00638187 -0.00763986 -7.89815e-20)
(0.055787 0.0604849 -3.70587e-20)
(0.142253 0.181882 1.01776e-20)
(0.346552 0.354252 3.72958e-20)
(-0.0200443 -0.103239 3.43442e-20)
(0.0372744 -0.170247 9.3309e-20)
(0.109153 -0.0895973 7.71429e-20)
(0.157674 0.0319069 -3.38668e-19)
(0.220319 0.188694 8.33115e-20)
(-0.0540733 -0.322853 9.99648e-20)
(-0.038975 -0.32521 5.38686e-19)
(0.0181563 -0.0732289 -1.15805e-18)
(0.059434 0.16236 -1.00095e-18)
(0.111473 0.329972 9.95533e-20)
(-0.0860707 -0.110797 -8.63881e-20)
(-0.324832 -0.0228792 2.51912e-19)
(-0.443914 0.119725 -6.42868e-20)
(-0.479898 0.231649 -7.44743e-20)
(-0.470197 0.344 1.79468e-19)
(1.14088 0.731979 -7.64518e-20)
(0.0575556 -0.0122517 5.3806e-19)
(1.22817 -0.00738814 -1.05901e-19)
(0.722929 0.104399 2.19422e-21)
(0.539062 -0.0469969 -1.45674e-21)
(0.951582 0.91975 1.93081e-19)
(-0.67346 -0.107554 4.23921e-19)
(1.29165 -0.113266 -2.70996e-19)
(1.03419 0.180162 1.61177e-20)
(0.748685 -0.00918438 -1.36747e-20)
(0.785967 0.875568 -8.67323e-19)
(-1.32291 -0.231706 2.60414e-19)
(1.2894 -0.425086 4.73546e-20)
(1.31668 0.236258 -4.32649e-19)
(0.963248 0.0423658 1.0886e-20)
(0.567115 1.11849 8.79927e-19)
(-0.641955 -0.357947 -2.1368e-18)
(0.933866 -0.84445 -2.12648e-19)
(1.43206 0.267484 -9.63305e-21)
(1.12219 0.104053 2.31904e-20)
(-0.248795 1.07966 -1.93582e-19)
(1.12225 -0.504925 -1.28381e-19)
(0.904889 -0.973262 1.12049e-19)
(1.47878 0.214844 2.17745e-20)
(1.22348 0.139068 4.28706e-20)
(-0.100763 0.126611 -1.23513e-19)
(-0.357174 -0.15515 0)
(0.137793 -0.0934174 -3.66297e-20)
(-0.035612 -0.0445894 4.34859e-20)
(0.305848 -0.0238129 -1.22863e-20)
(1.58856 0.606833 0)
(0.650212 0.0982855 0)
(1.0977 0.00204545 3.3755e-19)
(0.387067 -0.0113317 5.82678e-20)
(0.462329 -0.0725834 1.9764e-20)
(0.716104 0.00312632 -1.28259e-19)
(0.739402 -0.00146779 2.66941e-19)
(0.924318 0.0159506 -4.77784e-20)
(0.841888 0.0200704 3.64e-19)
(1.22592 0.135383 2.30862e-19)
(1.61532 0.0340142 1.22638e-19)
(1.7363 0.0791227 4.00926e-19)
(1.88073 0.113601 -7.14027e-19)
(2.30207 0.236192 2.44636e-19)
(2.15486 0.29846 4.80607e-19)
(0.910615 -0.482678 -1.34754e-20)
(0.898625 -0.573681 -1.79633e-19)
(0.88896 -0.67196 -1.29869e-19)
(0.819866 -0.741358 7.92288e-20)
(0.502972 -0.585503 1.35386e-19)
(0.804802 -0.383878 1.15567e-19)
(0.750273 -0.450195 2.04181e-19)
(0.679467 -0.523916 -6.74397e-20)
(0.570727 -0.588632 1.47444e-19)
(0.315508 -0.473695 5.21117e-20)
(0.656352 -0.243753 -1.30071e-19)
(0.571782 -0.285184 -5.79633e-20)
(0.471579 -0.335907 7.76342e-20)
(0.350796 -0.380981 -2.56126e-20)
(0.157753 -0.309537 -1.32199e-19)
(0.554173 -0.011535 -4.30963e-19)
(0.467922 -0.0273256 -3.5089e-19)
(0.356679 -0.0506 2.83834e-19)
(0.22889 -0.0816755 1.59248e-19)
(0.0645032 -0.0892015 1.33509e-20)
(0.527277 0.195045 -1.46184e-19)
(0.440799 0.195216 -1.5813e-19)
(0.323105 0.194027 -5.25236e-20)
(0.184835 0.198201 3.72756e-20)
(0.028025 0.145157 1.26873e-20)
(2.01029 -0.0343204 8.526e-19)
(2.25673 -0.0991151 2.92189e-19)
(2.34604 -0.182937 -7.60956e-19)
(2.21379 -0.208943 -1.58851e-18)
(1.34852 -0.18864 1.3473e-19)
(1.97369 -0.121937 1.38712e-18)
(2.07885 -0.232194 1.84256e-18)
(2.10663 -0.352494 1.55694e-19)
(2.03268 -0.411009 2.7494e-19)
(1.31093 -0.364244 -1.82396e-19)
(1.69909 -0.283837 -3.56475e-18)
(1.76528 -0.401273 3.88604e-19)
(1.81595 -0.526506 1.13033e-18)
(1.7629 -0.600654 -4.25247e-19)
(1.15137 -0.510491 6.76734e-19)
(1.48301 -0.407566 8.57665e-19)
(1.50806 -0.507878 -2.28137e-18)
(1.50415 -0.626624 -2.601e-18)
(1.44187 -0.712764 7.95484e-19)
(0.935445 -0.588487 5.43987e-19)
(1.20516 -0.466533 1.8515e-19)
(1.16884 -0.561661 2.62106e-19)
(1.16327 -0.6834 -3.98254e-19)
(1.11086 -0.769798 -4.80362e-19)
(0.708241 -0.614965 -4.48425e-21)
(1.07099 0.0508996 7.09615e-21)
(0.940606 0.0590323 1.2279e-22)
(1.1111 0.0831338 7.91705e-21)
(0.822333 0.00499959 -2.54546e-19)
(1.079 -0.199744 -1.87749e-20)
(1.08006 0.0519967 -2.34393e-21)
(0.936274 0.0562118 2.71451e-20)
(1.11325 0.101595 -6.03172e-21)
(0.900849 0.0536462 2.01451e-19)
(0.987192 -0.0856739 7.34974e-22)
(1.07707 0.0467936 -5.5574e-20)
(0.939387 0.0519288 -8.31115e-23)
(1.09917 0.105539 -9.96291e-21)
(0.904 0.0743401 1.20478e-19)
(0.951638 -0.0235666 -2.40658e-19)
(1.05661 0.0439345 6.61118e-20)
(0.964465 0.0461015 2.8523e-21)
(1.06798 0.114336 2.38274e-20)
(0.932434 0.0995261 -5.80806e-20)
(0.867688 0.083164 7.02324e-20)
(1.02876 0.0394138 1.63325e-20)
(0.996855 0.0430133 -2.32408e-20)
(1.03686 0.122775 3.63605e-20)
(0.956149 0.124311 3.36404e-20)
(0.845329 0.187492 -6.15529e-20)
(0.891298 0.0338634 0)
(0.714065 0.0282347 9.22984e-21)
(0.594739 0.0219752 6.71672e-21)
(0.344344 -0.00587122 4.36957e-20)
(0.662518 -0.0521456 -1.59412e-19)
(1.03807 0.0729307 -6.37034e-20)
(0.949564 0.0744516 -4.69823e-21)
(1.01506 0.0827049 -6.19467e-20)
(0.805635 -0.0015694 -1.52139e-19)
(1.02134 -0.186061 -1.70984e-19)
(0.915615 -0.0667889 -3.7442e-20)
(1.00467 -0.0336121 5.45174e-19)
(1.09682 0.0352239 3.20831e-19)
(0.974496 0.0521853 3.13587e-20)
(0.757648 0.0279846 0)
(1.26868 -0.310307 3.60159e-19)
(1.38415 -0.274193 1.53365e-18)
(1.5589 -0.155054 -1.65215e-18)
(1.65725 -0.0208742 -5.13452e-19)
(1.56795 0.0286299 3.97904e-19)
)
;

boundaryField
{
    left
    {
        type            fixedValue;
        value           uniform (1 0 0);
    }
    right
    {
        type            zeroGradient;
    }
    down
    {
        type            noSlip;
    }
    up
    {
        type            noSlip;
    }
    cylinder
    {
        type            noSlip;
    }
    defaultFaces
    {
        type            empty;
    }
}


// ************************************************************************* //
