/*--------------------------------*- C++ -*----------------------------------*\
  =========                 |
  \\      /  F ield         | OpenFOAM: The Open Source CFD Toolbox
   \\    /   O peration     | Website:  https://openfoam.org
    \\  /    A nd           | Version:  13
     \\/     M anipulation  |
\*---------------------------------------------------------------------------*/
FoamFile
{
    format      ascii;
    class       surfaceScalarField;
    location    "0.69";
    object      phi;
}
// * * * * * * * * * * * * * * * * * * * * * * * * * * * * * * * * * * * * * //

dimensions      [0 3 -1 0 0 0 0];

internalField   nonuniform List<scalar> 
3485
(
0.00137166
-0.011258
0.00988637
0.00505113
-0.0319068
0.0282273
0.0107642
-0.0513829
0.0456699
0.0183125
-0.0696769
0.0621286
0.0275454
-0.086835
0.0776021
0.0383485
-0.102901
0.0920979
0.0506332
-0.117906
0.105621
0.0643566
-0.13187
0.118147
0.079616
-0.144861
0.129601
-0.156894
0.139503
0.0970073
0.00150033
-0.0127584
0.0054458
-0.0358523
0.0114761
-0.0574133
0.0193235
-0.0775243
0.0287728
-0.0962843
0.0396467
-0.113775
0.0518009
-0.13006
0.0651276
-0.145197
0.0795352
-0.159268
-0.172197
0.0948376
0.00147417
-0.0142325
0.00532697
-0.0397051
0.0111745
-0.0632608
0.0187208
-0.0850706
0.0277252
-0.105289
0.0379884
-0.124038
0.0493443
-0.141416
0.0616534
-0.157506
0.0747837
-0.172399
-0.186037
0.0886236
0.00133886
-0.0155714
0.00485901
-0.0432252
0.0102108
-0.0686126
0.017117
-0.0919768
0.0253538
-0.113526
0.0347401
-0.133424
0.0451301
-0.151806
0.0564035
-0.16878
0.0684539
-0.184449
-0.19879
0.0812076
0.00116693
-0.0167383
0.00425598
-0.0463143
0.00897313
-0.0733297
0.0150817
-0.0980853
0.0223916
-0.120835
0.0307523
-0.141785
0.040046
-0.1611
0.0501801
-0.178914
0.0610768
-0.195346
-0.210402
0.0726885
0.000980022
-0.0177183
0.00358795
-0.0489222
0.0075866
-0.0773284
0.0127839
-0.103283
0.019026
-0.127078
0.0261925
-0.148951
0.0341914
-0.169099
0.0429533
-0.187676
0.0524233
-0.204816
-0.220549
0.0625702
0.000780726
-0.0184991
0.00286501
-0.0510065
0.00606898
-0.0805324
0.0102429
-0.107457
0.0152665
-0.132101
0.0210467
-0.154732
0.0275143
-0.175566
0.0346205
-0.194782
0.0423312
-0.212526
-0.228851
0.0506328
0.000569703
-0.0190688
0.00209346
-0.0525303
0.00443788
-0.0828768
0.00749269
-0.110511
0.0111687
-0.135777
0.0153968
-0.15896
0.0201275
-0.180297
0.0253295
-0.199984
0.0309865
-0.218183
-0.234967
0.0371031
0.000352508
-0.0194213
0.00129576
-0.0534735
0.00274502
-0.084326
0.00462835
-0.112395
0.0068865
-0.138035
0.00947312
-0.161546
0.0123553
-0.183179
0.0155143
-0.203143
0.0189449
-0.221614
-0.238684
0.0226616
0.000137796
-0.0195591
0.000502467
-0.0538382
0.00105697
-0.0848805
0.00176955
-0.113107
0.00261374
-0.13888
0.00356843
-0.162501
0.00461815
-0.184229
0.00575336
-0.204278
0.00697064
-0.222831
0.00827506
-0.239988
0.000489717
-0.00186979
0.00138007
0.00209233
-0.00625527
0.00465265
0.00543464
-0.0114185
0.00807615
0.0101235
-0.0161899
0.0115011
0.0155496
-0.0201822
0.0147561
0.0214494
-0.0235785
0.0176787
0.0279179
-0.0267595
0.0202911
0.035103
-0.0299535
0.0227684
0.0429898
-0.0331129
0.0252261
-0.0360861
0.0514448
0.0276311
0.000427157
-0.00229694
0.00211185
-0.00793997
0.00544039
-0.014747
0.00981982
-0.0205694
0.0148947
-0.0252571
0.0207734
-0.0294572
0.0276285
-0.0336146
0.0354085
-0.0377335
0.0439025
-0.0416069
-0.0451293
0.0529457
0.000682712
-0.00297966
0.00271625
-0.00997351
0.00578135
-0.0178121
0.00976619
-0.0245542
0.0148225
-0.0303134
0.0211223
-0.0357571
0.0285968
-0.0410891
0.0369667
-0.0461034
0.0460134
-0.0506536
-0.0547615
0.0556455
0.000868283
-0.00384794
0.00306075
-0.012166
0.0060801
-0.0208315
0.0102036
-0.0286777
0.0157034
-0.0358133
0.0225629
-0.0426166
0.0305402
-0.0490664
0.0393986
-0.0549618
0.0490428
-0.0602978
-0.0651094
0.0593908
0.000922978
-0.00477092
0.00320054
-0.0144435
0.00651977
-0.0241507
0.0111188
-0.0332767
0.017138
-0.0418325
0.0244524
-0.049931
0.0328703
-0.0574842
0.0422939
-0.0643855
0.0526603
-0.0706641
-0.0762861
0.0638369
0.000943855
-0.00571477
0.00337276
-0.0168725
0.00709181
-0.0278697
0.0121754
-0.0383603
0.0186344
-0.0482916
0.0263579
-0.0576544
0.0352485
-0.0663749
0.0452592
-0.0743961
0.0563113
-0.0817163
-0.0882217
0.0682469
0.000979964
-0.00669474
0.0035841
-0.0194766
0.00764149
-0.0319271
0.0131074
-0.0438262
0.0199263
-0.0551104
0.0280118
-0.0657399
0.0373018
-0.0756649
0.0477503
-0.0848446
0.0592842
-0.0932502
-0.100696
0.0717586
0.00101802
-0.00771276
0.0037678
-0.0222264
0.00807116
-0.0362305
0.0138199
-0.0495749
0.0209195
-0.06221
0.0292811
-0.0741015
0.0388351
-0.0852189
0.0495248
-0.0955344
0.0612917
-0.105017
-0.11344
0.0740355
0.00105464
-0.0087674
0.00393675
-0.0251085
0.00846098
-0.0407547
0.014482
-0.0555959
0.0218737
-0.0696017
0.0305256
-0.0827534
0.0403424
-0.0950358
0.0512355
-0.106427
0.0631238
-0.116905
-0.126319
0.0760026
0.00111897
0.00423785
0.00915304
0.0156857
0.0236861
0.0330306
0.043616
0.0553356
0.0680315
0.0812157
0.114352
-0.414432
0.351524
0.168157
-0.471636
0.417832
0.210281
-0.421668
0.379544
0.244113
-0.326279
0.292447
0.270843
-0.213873
0.187143
0.291285
-0.109244
0.0888016
0.304307
-0.0293764
0.0163542
0.308877
0.0128743
-0.0174439
0.309057
0.0231187
-0.0232991
0.0179903
-0.0165054
0.115939
-0.477426
0.169729
-0.525426
0.211835
-0.463775
0.245418
-0.359862
0.272292
-0.240746
0.293482
-0.130434
0.309109
-0.0450033
0.317416
0.00456745
0.320487
0.0200474
0.0180698
0.11775
-0.53953
0.170562
-0.578237
0.21227
-0.505483
0.245254
-0.392845
0.272
-0.267492
0.293466
-0.151901
0.310429
-0.0619658
0.321767
-0.00677141
0.328728
0.0130867
0.015397
0.12013
-0.600269
0.170932
-0.62904
0.211765
-0.546316
0.243843
-0.424924
0.270205
-0.293854
0.291748
-0.173443
0.309269
-0.0794863
0.321863
-0.0193662
0.332232
0.00271793
0.00881075
0.123025
-0.659457
0.171043
-0.677058
0.210449
-0.585722
0.241372
-0.455848
0.267086
-0.319568
0.288624
-0.194981
0.306439
-0.0973015
0.319744
-0.0326711
0.33148
-0.00901776
0.000317065
0.12588
-0.71709
0.170926
-0.722104
0.208407
-0.623202
0.23798
-0.48542
0.262781
-0.344369
0.284229
-0.216429
0.302356
-0.115429
0.316427
-0.0467423
0.329291
-0.0218817
-0.00941616
0.127816
-0.773147
0.170396
-0.764685
0.20569
-0.658496
0.233785
-0.513516
0.257433
-0.368017
0.278618
-0.237615
0.297137
-0.133947
0.312346
-0.0619511
0.325373
-0.0349095
-0.0186958
0.127895
-0.827007
0.168972
-0.805762
0.202159
-0.691683
0.228761
-0.540118
0.251099
-0.390355
0.271791
-0.258306
0.290772
-0.152929
0.307286
-0.0784646
0.318261
-0.0458849
-0.0250436
0.125814
-0.876818
0.166245
-0.846192
0.197764
-0.723202
0.222994
-0.565347
0.243921
-0.411282
0.263692
-0.278077
0.283225
-0.172462
0.298556
-0.0937953
0.306387
-0.0537156
-0.0307936
0.122129
-0.917732
0.161415
-0.885478
0.191632
-0.75342
0.215772
-0.589487
0.235391
-0.430902
0.254263
-0.296949
0.272258
-0.190457
0.284928
-0.106466
0.291699
-0.0604862
-0.0371083
0.583945
-0.920205
-0.581472
0.561182
-0.862715
0.52396
-0.716198
0.487912
-0.553438
0.460521
-0.403511
0.444574
-0.281002
0.435139
-0.181021
0.42993
-0.101257
0.426581
-0.0571378
-0.0354962
0.682863
-0.871612
-0.731456
0.619691
-0.799542
0.553915
-0.650421
0.496433
-0.495957
0.451146
-0.358223
0.419451
-0.249307
0.401221
-0.162791
0.393253
-0.0932884
0.388547
-0.0524323
-0.0327572
0.753996
-0.775182
-0.850427
0.655122
-0.700668
0.56345
-0.558749
0.487435
-0.419942
0.429663
-0.300451
0.389651
-0.209295
0.365559
-0.1387
0.354168
-0.0818972
0.348128
-0.0463916
-0.0290846
0.778991
-0.641686
-0.912487
0.653745
-0.575422
0.546277
-0.45128
0.461027
-0.334692
0.398129
-0.237553
0.354498
-0.165665
0.327108
-0.11131
0.313098
-0.0678867
0.305779
-0.0390733
-0.02467
0.752981
-0.492433
-0.902233
0.617563
-0.440005
0.506184
-0.339902
0.4201
-0.248608
0.357565
-0.175017
0.314096
-0.122195
0.285927
-0.0831409
0.270353
-0.0523129
0.262012
-0.0307322
-0.0196943
0.685105
-0.345835
-0.831704
0.552703
-0.307603
0.446456
-0.233655
0.365999
-0.168151
0.308305
-0.117324
0.268169
-0.0820589
0.241527
-0.0564992
0.225826
-0.0366117
0.217028
-0.0219344
-0.0144418
0.58262
-0.213861
-0.714594
0.462892
-0.187875
0.369322
-0.140085
0.299949
-0.0987777
0.250914
-0.0682894
0.216794
-0.0479386
0.193692
-0.0333977
0.179346
-0.0222657
0.17091
-0.0134983
-0.00931086
0.44876
-0.105523
-0.557097
0.35118
-0.0902957
0.277061
-0.0659652
0.223532
-0.0452485
0.186273
-0.0310305
0.160302
-0.0219678
0.142397
-0.0154923
0.130782
-0.0106513
0.123674
-0.00638986
-0.00479903
0.286592
-0.0302206
-0.361894
0.220911
-0.0246153
0.172492
-0.0175461
0.138714
-0.0114703
0.11548
-0.00779682
0.099137
-0.0056245
0.0876744
-0.0040297
0.0799468
-0.00292372
0.0752023
-0.00164529
-0.00149226
0.101316
-0.131536
0.0767004
0.0591543
0.047684
0.0398872
0.0342627
0.030233
0.0273093
0.025664
0.738821
0.0102225
-0.740768
0.733075
0.0284077
0.723436
0.0467421
0.710163
0.0639061
0.693569
0.0791634
0.674075
0.0921825
0.652271
0.103012
0.628711
0.112184
0.604266
0.119283
0.119801
0.845549
0.0133984
-0.848725
0.837321
0.0366351
0.827288
0.0567758
0.816593
0.0746006
0.80525
0.0905066
0.792895
0.104537
0.779281
0.116626
0.764585
0.126881
0.749119
0.134748
0.137464
0.844983
0.0114256
-0.84301
0.848883
0.0327352
0.85302
0.0526385
0.856472
0.0711492
0.858833
0.0881452
0.85992
0.10345
0.859595
0.11695
0.857967
0.128509
0.855299
0.137416
0.142336
0.800213
0.00930469
-0.798092
0.805821
0.0271273
0.814419
0.0440408
0.825637
0.0599307
0.839002
0.07478
0.853852
0.0886009
0.869422
0.10138
0.885056
0.112875
0.899942
0.122529
0.129791
0.737866
0.00703894
-0.7356
0.744154
0.0208386
0.754124
0.0340716
0.767504
0.0465504
0.784084
0.0582001
0.803662
0.0690228
0.82599
0.0790517
0.850625
0.0882406
0.876546
0.0966076
0.104104
0.653921
0.00485412
-0.651736
0.660203
0.0145562
0.670378
0.0238964
0.684221
0.0327075
0.701525
0.040896
0.722112
0.048436
0.745807
0.055357
0.772331
0.0617163
0.801219
0.0677194
0.0736199
0.549112
0.00291618
-0.547174
0.554812
0.00885596
0.564138
0.0145706
0.576906
0.0199401
0.592915
0.0248867
0.611968
0.0293827
0.633871
0.0334541
0.658407
0.0371802
0.68538
0.0407464
0.0444063
0.422793
0.00137577
-0.421252
0.427413
0.00423597
0.435007
0.00697561
0.445422
0.00952585
0.45847
0.0118387
0.473957
0.0138957
0.491697
0.0157138
0.511527
0.0173497
0.533347
0.0189272
0.0206562
0.273828
0.000366673
-0.272819
0.276915
0.00114944
0.281999
0.00189174
0.288955
0.0025694
0.297629
0.00316445
0.307856
0.00366913
0.319482
0.00408803
0.332395
0.00443666
0.346561
0.00476039
0.00532322
0.100484
-0.100117
0.101633
0.103525
0.106094
0.109259
0.112928
0.117016
0.121453
0.126213
0.0779325
0.159502
-0.142488
-0.0949461
0.0630283
0.147458
-0.132554
0.0496188
0.134405
-0.120995
0.0376036
0.120331
-0.108316
0.0270266
0.10517
-0.094593
0.0179779
0.088894
-0.0798453
0.0105729
0.0714605
-0.0640554
0.0049633
0.0528094
-0.0471999
0.00134801
0.0328744
-0.0292591
0.011639
-0.010291
0.0779417
0.174432
-0.092872
0.0638717
0.161528
0.0508401
0.147436
0.0389383
0.132233
0.0282762
0.115832
0.0190003
0.0981699
0.0112896
0.0791712
0.00535959
0.0587395
0.00147721
0.0367568
0.0131162
0.0731804
0.187927
-0.0866755
0.0603707
0.174338
0.0483508
0.159456
0.0372489
0.143335
0.0272033
0.125878
0.0183793
0.106994
0.0109766
0.0865739
0.00523534
0.0644807
0.00144963
0.0405425
0.0145659
0.0667717
0.200352
-0.079197
0.0550336
0.186076
0.0440497
0.17044
0.0339219
0.153463
0.0247666
0.135033
0.016727
0.115033
0.00998166
0.0933192
0.00475145
0.069711
0.00130965
0.0439843
0.0158755
0.059313
0.211656
-0.0706171
0.0487157
0.196673
0.0388676
0.180288
0.0298413
0.162489
0.0217243
0.14315
0.0146296
0.122128
0.00870232
0.0992465
0.00412643
0.0742868
0.00113096
0.0469798
0.0170065
0.0505985
0.22152
-0.0604627
0.0414113
0.205861
0.0329277
0.188772
0.0251973
0.170219
0.0182837
0.150064
0.0122721
0.12814
0.00727495
0.104244
0.00343652
0.0781253
0.000937278
0.049479
0.0179438
0.0404575
0.229564
-0.0485006
0.0330129
0.213305
0.0261765
0.195608
0.0199773
0.176419
0.0144574
0.155584
0.00967744
0.13292
0.00572042
0.108201
0.00269375
0.0811519
0.000731834
0.0514409
0.0186756
0.0290543
0.235441
-0.0349319
0.0236513
0.218708
0.0187147
0.200545
0.0142551
0.180878
0.0102962
0.159543
0.0068775
0.136338
0.00405558
0.111023
0.00190426
0.0833033
0.000515278
0.0528299
0.0191909
0.0169175
0.238926
-0.020402
0.0137419
0.221884
0.0108549
0.203432
0.00825479
0.183478
0.00595146
0.161846
0.00396647
0.138323
0.00233216
0.112657
0.00109065
0.0845448
0.000293238
0.0536273
0.0194841
0.0048278
-0.00589041
0.00388038
0.00303399
0.00228336
0.00162813
0.00107198
0.000621601
0.000285819
7.49685e-05
0.0436554
0.0413957
-0.0525514
-0.0324996
0.0352792
0.0383469
-0.0299707
0.0276099
0.0349478
-0.0272785
0.020874
0.0313335
-0.0245977
0.0150739
0.0277667
-0.0219665
0.00996792
0.0242088
-0.0191028
0.00543866
0.0200729
-0.0155437
0.00197381
0.0144619
-0.010997
0.000386211
0.00739415
-0.00580656
0.00208753
-0.00170131
0.0437635
0.0505687
-0.0529365
0.0351099
0.0470005
0.0270669
0.0429907
0.0199173
0.0384831
0.0139777
0.0337064
0.00925505
0.0289315
0.00550448
0.0238235
0.00257512
0.0173913
0.000621342
0.00934794
0.00270887
0.0449504
0.0601285
-0.0545102
0.0360236
0.0559273
0.0277811
0.0512333
0.0203396
0.0459246
0.0140251
0.0400208
0.0091024
0.0338542
0.00551731
0.0274086
0.00289302
0.0200155
0.000809591
0.0114314
0.00351846
0.0473795
0.0703179
-0.057569
0.037941
0.0653658
0.0293682
0.0598061
0.0216991
0.0535937
0.015059
0.0466609
0.00970702
0.0392062
0.00576507
0.0313505
0.0029605
0.0228201
0.000875435
0.0135164
0.0043939
0.050845
0.0812466
-0.0617736
0.0407389
0.0754719
0.0316194
0.0689256
0.0235487
0.0616644
0.01655
0.0536596
0.0107502
0.045006
0.00628456
0.0358162
0.00306288
0.0260418
0.000880819
0.0156985
0.00527472
0.0545404
0.0928456
-0.0661394
0.0438172
0.0861951
0.034133
0.0786098
0.0255628
0.0702346
0.0181283
0.061094
0.0118858
0.0512485
0.00693047
0.0407715
0.00327953
0.0296927
0.000908853
0.0180692
0.00618357
0.0575918
0.104929
-0.0696752
0.0464305
0.0973563
0.0363259
0.0887144
0.027338
0.0792225
0.0195027
0.0689293
0.0128706
0.0578806
0.00752115
0.0461209
0.00352582
0.0336881
0.000959808
0.0206352
0.00714338
0.0596464
0.117258
-0.0719748
0.0482677
0.108735
0.0379242
0.099058
0.0286611
0.0884857
0.02053
0.0770604
0.0136
0.0648106
0.00796229
0.0517586
0.00372214
0.0379282
0.00100541
0.0233519
0.00814879
0.0614585
0.129712
-0.0739134
0.0499598
0.120234
0.0394098
0.109608
0.02988
0.0980155
0.0214566
0.0854837
0.0142368
0.0720304
0.00833491
0.0576605
0.00388474
0.0423784
0.00104195
0.0261947
0.00919074
0.0663134
-0.0790889
0.0539929
0.0426058
0.0323053
0.023196
0.0153811
0.00898619
0.0041647
0.00110028
0.213934
0.0615681
-0.077512
0.236602
0.0899192
-0.112588
0.261076
0.123488
-0.147961
0.276587
0.113248
-0.12876
0.275834
0.10997
-0.109217
0.252936
0.178974
-0.156076
0.218784
0.293695
-0.259544
0.17478
0.41244
-0.368436
0.118387
0.494509
-0.438115
0.461546
-0.395711
0.213294
0.0462637
0.234829
0.0683841
0.258381
0.0999363
0.27443
0.0971988
0.275285
0.109116
0.253305
0.200955
0.219016
0.327984
0.174564
0.456892
0.118077
0.550996
0.526687
0.213018
0.0312359
0.233691
0.0477106
0.256369
0.0772582
0.272458
0.0811097
0.273621
0.107953
0.252133
0.222442
0.217819
0.362298
0.173295
0.501415
0.117889
0.606403
0.590066
0.213028
0.0161981
0.233195
0.0275437
0.255111
0.0553419
0.270841
0.0653791
0.271127
0.107668
0.249544
0.244025
0.21534
0.396503
0.171354
0.545401
0.118406
0.659351
0.650902
0.213237
0.000951268
0.233211
0.00756964
0.254416
0.0341366
0.269174
0.0506212
0.267694
0.109148
0.245594
0.266125
0.211766
0.430331
0.169151
0.588016
0.119759
0.708743
0.708888
0.213559
-0.0146179
0.233542
-0.0124137
0.253986
0.0136929
0.267098
0.0375093
0.263202
0.113043
0.240381
0.288946
0.207346
0.463366
0.166961
0.628402
0.121488
0.754216
0.764236
0.21385
-0.0304781
0.233992
-0.0325558
0.253548
-0.00586304
0.26439
0.0266669
0.257619
0.119814
0.234104
0.312461
0.202356
0.495113
0.164769
0.665989
0.122702
0.796282
0.817263
0.213949
-0.0464372
0.234415
-0.0530217
0.252871
-0.0243191
0.26082
0.0187177
0.250857
0.129777
0.226879
0.33644
0.196846
0.525147
0.16215
0.700685
0.122381
0.836052
0.867669
0.213804
-0.0622518
0.234761
-0.0739788
0.251811
-0.0413691
0.256411
0.0141182
0.243166
0.143022
0.219066
0.360539
0.190932
0.553281
0.158681
0.732936
0.120128
0.874605
0.913884
0.213679
-0.0779411
0.234975
-0.0952742
0.250343
-0.0567373
0.250806
0.0136548
0.234008
0.15982
0.210031
0.384516
0.183692
0.57962
0.153491
0.763137
0.116449
0.911646
0.951244
0.331879
-0.10781
0.370518
-0.133913
0.406907
-0.0931255
0.424537
-0.00397597
0.439149
0.145209
0.467473
0.356191
0.506606
0.540487
0.549582
0.720161
0.581364
0.879864
0.946112
0.586496
0.333509
-0.139309
0.372998
-0.173403
0.408194
-0.128321
0.42268
-0.0184622
0.436051
0.131838
0.476096
0.316146
0.534338
0.482245
0.604481
0.650019
0.675397
0.808948
0.88853
0.732979
0.336205
-0.173504
0.375112
-0.21231
0.408476
-0.161685
0.41827
-0.0282562
0.428115
0.121993
0.474253
0.270008
0.546609
0.40989
0.638865
0.557763
0.742302
0.705511
0.784418
0.846414
0.340362
-0.211855
0.37317
-0.245118
0.384356
-0.172871
0.381392
-0.0252921
0.399404
0.10398
0.453116
0.216297
0.534259
0.328747
0.640588
0.451434
0.767116
0.578982
0.647029
0.904505
0.348432
-0.258277
0.356411
-0.253096
0.337585
-0.154045
0.334706
-0.0224125
0.358843
0.0798427
0.414162
0.160978
0.497335
0.245573
0.60793
0.34084
0.743766
0.443146
0.495845
0.89495
0.340801
-0.297068
0.321117
-0.233412
0.287944
-0.120873
0.284232
-0.0187002
0.309103
0.0549715
0.361182
0.108899
0.439805
0.16695
0.545786
0.234858
0.678781
0.310151
0.347974
0.826652
0.314273
-0.309331
0.271538
-0.190677
0.233662
-0.0829972
0.228791
-0.0138288
0.251175
0.032587
0.296229
0.0638453
0.364647
0.0985327
0.458344
0.14116
0.578806
0.18969
0.215099
0.71168
0.273773
-0.281093
0.21287
-0.129775
0.174375
-0.0445014
0.168882
-0.00833659
0.186347
0.0151225
0.221014
0.0291785
0.274196
0.0453499
0.348693
0.0666637
0.447053
0.0913299
0.106137
0.556015
0.214644
-0.193727
0.140471
-0.0556011
0.10939
-0.0134204
0.104135
-0.00308145
0.115412
0.00384533
0.137305
0.00728536
0.171108
0.0115466
0.219974
0.0177974
0.28634
0.0249644
0.0304071
0.36207
0.108283
0.0526817
0.0392613
0.0361799
0.0400252
0.0473106
0.0588572
0.0766546
0.101619
0.132026
0.608653
-0.117103
0.632318
-0.116537
0.655136
-0.109494
0.676288
-0.100349
0.695233
-0.0895612
0.71137
-0.0766
0.724263
-0.061394
0.73359
-0.0442588
0.739075
-0.0258871
-0.00758338
0.750314
-0.134438
0.765218
-0.131441
0.779422
-0.123698
0.792647
-0.113574
0.804711
-0.101625
0.815847
-0.087736
0.826402
-0.0719497
0.836392
-0.0542484
0.844841
-0.0343362
-0.0114669
0.851037
-0.13906
0.85348
-0.133885
0.854996
-0.125213
0.855374
-0.113951
0.854525
-0.100777
0.852625
-0.0858354
0.849898
-0.0692231
0.846741
-0.0510911
0.843947
-0.031543
-0.0105296
0.892561
-0.127116
0.878543
-0.119867
0.863861
-0.110531
0.849296
-0.0993855
0.835449
-0.0869308
0.823021
-0.0734074
0.812637
-0.0588385
0.804757
-0.043211
0.799745
-0.0265312
-0.00887685
0.870319
-0.102485
0.845555
-0.0951032
0.821949
-0.0869247
0.800492
-0.0779287
0.781656
-0.0680944
0.765715
-0.0574668
0.75289
-0.0460139
0.743403
-0.0337238
0.737523
-0.0206514
-0.00695337
0.797002
-0.072835
0.768936
-0.0670376
0.743123
-0.0611119
0.720038
-0.0548429
0.699972
-0.0480284
0.683112
-0.0406072
0.669641
-0.0325434
0.659769
-0.0238512
0.653726
-0.0146082
-0.00496358
0.682985
-0.0441397
0.6565
-0.0405525
0.632401
-0.0370127
0.610878
-0.03332
0.592145
-0.0292951
0.576395
-0.0248577
0.563828
-0.019976
0.554646
-0.0146694
0.549043
-0.00900538
-0.00309461
0.532509
-0.0206337
0.510908
-0.0189506
0.491274
-0.0173794
0.473703
-0.0157487
0.45835
-0.0139421
0.445397
-0.0119044
0.435037
-0.00961602
0.427458
-0.0070907
0.422824
-0.00437142
-0.00152281
0.346788
-0.00535159
0.332646
-0.00480898
0.319752
-0.00448476
0.308136
-0.00413348
0.297908
-0.00371355
0.289214
-0.00321078
0.282218
-0.00261994
0.277075
-0.00194734
0.273913
-0.00120942
-0.000429198
0.126675
0.121866
0.117381
0.113247
0.109534
0.106323
0.103703
0.101756
0.100546
0.000185056
0.0116092
-0.0117942
0.000623734
0.0304463
-0.030885
0.00123716
0.0462415
-0.0468549
0.00197732
0.0594672
-0.0602074
0.00277661
0.0700212
-0.0708205
0.00376953
0.0798888
-0.0808817
0.00396346
0.077267
-0.0774609
0.00408483
0.0700421
-0.0701635
0.00394496
0.0610794
-0.0609395
0.0499558
0.00350721
-0.0495181
0.000533394
0.0110758
0.00180386
0.0291758
0.00358507
0.0444602
0.00574122
0.0573111
0.0080728
0.0676896
0.0110396
0.076922
0.0116759
0.0766306
0.0120808
0.0696372
0.0117736
0.0613866
0.0510782
0.0106512
0.000835495
0.0102403
0.00283182
0.0271795
0.00563909
0.041653
0.00904152
0.0539086
0.0127394
0.0639918
0.0172474
0.072414
0.0187902
0.0750879
0.0195718
0.0688556
0.0193856
0.0615728
0.0524347
0.0180291
0.00105597
0.0091843
0.003597
0.0246385
0.00719361
0.0380564
0.0115558
0.0495464
0.0163566
0.059191
0.0217477
0.0670228
0.0250727
0.0717629
0.0263551
0.0675733
0.0266034
0.0613245
0.0535665
0.0254715
0.00115145
0.00803285
0.00397931
0.0218106
0.00804173
0.033994
0.012997
0.0445912
0.0185517
0.0536363
0.0245577
0.0610169
0.0299523
0.0663683
0.0320902
0.0654353
0.0330115
0.0604032
0.0540913
0.0324868
0.00111149
0.00692136
0.003966
0.0189561
0.00818562
0.0297743
0.0133903
0.0393865
0.0193181
0.0477085
0.0257722
0.0545629
0.0324161
0.0597243
0.0363128
0.0615387
0.0381246
0.0585914
0.0537072
0.0385086
0.000926237
0.00599513
0.00357298
0.0163094
0.0077107
0.0256366
0.0128818
0.0342155
0.0187868
0.0418035
0.0253384
0.0480113
0.0323213
0.0527414
0.0382755
0.0555845
0.0415876
0.0552793
0.0521831
0.0431117
0.000567834
0.0054273
0.00278663
0.0140906
0.00665753
0.0217657
0.0116214
0.0292516
0.0172044
0.0362204
0.0234475
0.0417682
0.0302862
0.0459027
0.0371843
0.0486864
0.0425615
0.0499021
0.0489243
0.0458202
0.000103784
0.00532351
0.00176855
0.0124258
0.00517569
0.0183586
0.0098149
0.0246124
0.014957
0.0310783
0.0206213
0.0361039
0.0269036
0.0396204
0.0335872
0.0420028
0.0400851
0.0434042
0.043796
0.0452134
-0.000175702
0.00549922
0.00108669
0.0111634
0.00385575
0.0155895
0.00788634
0.0205818
0.0125007
0.0264639
0.0175711
0.0310335
0.0231769
0.0340146
0.029249
0.0359307
0.0356355
0.0370177
0.0373696
0.0420619
-2.14125e-05
0.00552063
0.00113955
0.0100025
0.00327703
0.013452
0.00641234
0.0174465
0.0102937
0.0225826
0.014835
0.0264922
0.0199547
0.0288949
0.0254868
0.0303986
0.0312243
0.0312803
0.0316959
0.0368979
0.000376972
0.00514366
0.00153076
0.00884869
0.0031792
0.0118036
0.00548954
0.0151361
0.00870826
0.0193639
0.0128933
0.0223072
0.0177446
0.0240436
0.0230112
0.0251319
0.0285021
0.0257894
0.0260599
0.0341382
0.000623429
0.00452023
0.00170547
0.00776664
0.00302528
0.0104838
0.00484423
0.0133172
0.00783443
0.0163736
0.0119231
0.0182185
0.0166741
0.0192926
0.0218477
0.0199583
0.0273115
0.0203256
0.0204073
0.0329641
0.000676353
0.00384387
0.00164167
0.00680132
0.00282089
0.00930457
0.00470296
0.0114351
0.00797737
0.0130992
0.0122083
0.0139875
0.0170257
0.0144752
0.0222678
0.0147163
0.027838
0.0147554
0.0145947
0.0336505
0.000664014
0.00317985
0.0015546
0.00591073
0.00299726
0.0078619
0.00558676
0.00884559
0.00938147
0.0093045
0.0139071
0.0094619
0.0189541
0.0094282
0.0244231
0.00924731
0.030246
0.00893243
0.00848937
0.0363514
0.000594348
0.0025855
0.00171962
0.00478545
0.00407079
0.00551072
0.00753423
0.00538214
0.0117936
0.00504512
0.0166481
0.0046074
0.0219962
0.00408006
0.0277788
0.00346474
0.0339444
0.00276688
0.00199957
0.0404341
0.00052656
0.00205893
0.00249476
0.00281724
0.00576877
0.0022367
0.00977286
0.00137805
0.0143697
0.000448294
0.0195135
-0.000536468
0.0251744
-0.00158077
0.0313093
-0.00267021
0.0378575
-0.00378127
-0.00490177
0.0447588
0.000880688
0.00117824
0.00363084
6.70789e-05
0.00719702
-0.00132949
0.011387
-0.0028119
0.0161875
-0.00435226
0.0216093
-0.00595821
0.0276106
-0.00758211
0.0341006
-0.00916022
0.0409961
-0.0106768
-0.0121619
0.0482562
0.00150691
-0.000328677
0.00413634
-0.00256236
0.00755991
-0.00475307
0.011778
-0.00702995
0.0167976
-0.00937193
0.0225399
-0.0117005
0.0288375
-0.0138797
0.0355691
-0.0158919
0.0427094
-0.017817
-0.0197111
0.0502587
0.00105138
0.00314167
0.00646474
0.0109359
0.01632
0.0222983
0.0287096
0.0355861
0.0429952
0.0509151
0.0514054
0.0837482
-0.0982557
0.0772969
-0.00746643
-0.0184251
0.0999248
-0.051143
0.0285152
0.113595
-0.0470586
0.0333889
0.121538
-0.0267535
0.0188096
0.125134
-0.0078858
0.0042899
0.126128
0.00353828
-0.00453199
0.12625
0.00732
-0.00744237
0.126328
0.00718949
-0.00726691
0.00454269
-0.00538014
0.0586141
0.0592722
0.0916736
-0.040526
0.118854
-0.0783234
0.134858
-0.0630629
0.143564
-0.0354593
0.147191
-0.0115126
0.147897
0.00283223
0.147662
0.0075548
0.147432
0.00742006
0.00402158
0.0666397
0.0255966
0.105068
-0.0789542
0.136085
-0.109341
0.155713
-0.0826904
0.165689
-0.0454355
0.169383
-0.0152064
0.169691
0.00252372
0.168934
0.00831243
0.168222
0.00813209
0.00396698
0.0755356
-0.0162884
0.117921
-0.121339
0.151834
-0.143254
0.175223
-0.106079
0.187247
-0.0574603
0.191273
-0.0192318
0.191217
0.0025795
0.189879
0.00965017
0.188597
0.00941403
0.00446937
0.0846066
-0.0645437
0.129764
-0.166497
0.165846
-0.179335
0.192547
-0.132781
0.207477
-0.07239
0.212433
-0.0241882
0.212207
0.00280537
0.210328
0.01153
0.20846
0.0112818
0.0055626
0.0930791
-0.117189
0.140263
-0.213681
0.17803
-0.217103
0.207296
-0.162046
0.225519
-0.0906128
0.232325
-0.0309944
0.232343
0.00278767
0.230081
0.013792
0.227697
0.0136658
0.00721846
0.100289
-0.172719
0.149142
-0.262534
0.188288
-0.256249
0.21939
-0.193147
0.240675
-0.111898
0.250306
-0.0406247
0.251258
0.00183537
0.24892
0.01613
0.246182
0.0164037
0.00934398
0.105885
-0.230348
0.156274
-0.312923
0.196564
-0.296539
0.228934
-0.225518
0.252622
-0.135586
0.265644
-0.0536468
0.268508
-0.00102859
0.266589
0.0180489
0.263769
0.0192239
0.0117768
0.10985
-0.289939
0.161691
-0.364764
0.202883
-0.33773
0.236103
-0.258738
0.261407
-0.16089
0.277704
-0.0699431
0.283542
-0.00686667
0.282773
0.0188175
0.280279
0.0217181
0.0142745
0.1125
0.165568
0.207381
0.24109
0.267343
0.286201
0.295689
0.297063
0.295482
0.0131998
0.00607826
-0.0192781
0.010986
0.00221382
0.0115021
-0.000516076
0.012923
-0.0014209
0.013633
-0.000710004
0.0137456
-0.000112658
0.0135191
0.000226541
0.0131709
0.000348216
0.0129113
0.000259647
0.000330644
0.0372468
0.023217
-0.0543855
0.0314847
0.00797588
0.0339874
-0.00301884
0.0380376
-0.00547107
0.040198
-0.00287041
0.0405828
-0.000497361
0.0399372
0.000872142
0.0389641
0.00132132
0.0380714
0.00115232
0.00110403
0.0579616
0.0481008
-0.0828453
0.0508677
0.0150698
0.0558657
-0.00801688
0.0624341
-0.0120395
0.0660833
-0.00651964
0.0668203
-0.00123433
0.065821
0.00187147
0.0642706
0.0028718
0.0627549
0.00266799
0.00224092
0.0738992
0.0754106
-0.101209
0.0680594
0.0209095
0.076411
-0.0163684
0.0857313
-0.0213598
0.0910265
-0.0118148
0.0922576
-0.0024654
0.0910057
0.00312343
0.0889388
0.00493863
0.086872
0.00473485
0.0036881
0.0813907
-0.104236
0.0838749
0.0960215
0.108051
0.115045
0.11687
0.115462
0.112958
0.110426
0.00273367
-0.000172926
-0.00256074
0.00326454
-0.000530872
0.00417678
-0.000912232
0.00548783
-0.00131106
0.00718425
-0.00169641
0.00922881
-0.00204456
0.0115854
-0.00235659
0.0141737
-0.00258831
0.0168588
-0.0026851
-0.00241932
0.00778742
-0.000645698
-0.00731464
0.00923431
-0.00197777
0.0117137
-0.0033916
0.0152701
-0.00486744
0.0198843
-0.00631067
0.0254823
-0.00764256
0.0319646
-0.0088389
0.039156
-0.0097797
0.0467673
-0.0102964
-0.0100376
0.012478
-0.00138376
-0.01174
0.0147277
-0.00422746
0.0185606
-0.00722447
0.0240245
-0.0103314
0.0310792
-0.0133653
0.039586
-0.0161494
0.049328
-0.0185808
0.0600512
-0.020503
0.0714152
-0.0216604
-0.0214677
0.0168074
-0.0023477
-0.0158435
0.0197316
-0.00715169
0.0246749
-0.0121677
0.0316513
-0.0173079
0.0405499
-0.0222639
0.0511061
-0.0267056
0.0629373
-0.030412
0.075694
-0.0332598
0.0888603
-0.0348267
-0.0338164
0.020793
-0.0196334
0.0242925
0.030154
0.0383176
0.0485405
0.0603435
0.0730432
0.0856037
0.0959905
0.0314484
-0.0313046
0.03711
-0.0372538
0.0255876
-0.0309015
0.0367624
0.0199286
-0.0300689
0.0357278
0.0146818
-0.0286729
0.0339198
0.0100614
-0.0264645
0.0310848
0.0062056
-0.0227776
0.0266334
0.00311446
-0.0176473
0.0207385
0.0010179
-0.0136218
0.0157184
-8.64432e-05
-0.0101611
0.0112654
-0.00564158
0.00555514
0.0294668
-0.0254406
-0.0353308
0.0237504
-0.0251851
0.0182599
-0.0245784
0.0131733
-0.0235862
0.00874343
-0.0220346
0.00535228
-0.0193864
0.003021
-0.015316
0.0013974
-0.0119982
0.000298687
-0.00906238
-0.00534289
0.0294394
-0.0194518
-0.0354282
0.0236348
-0.0193805
0.0181169
-0.0190605
0.0130029
-0.0184722
0.00849552
-0.0175272
0.00504584
-0.0159367
0.00300616
-0.0132763
0.00164594
-0.010638
0.000583187
-0.00799963
-0.0047597
0.0313579
-0.0131885
-0.0376212
0.0253292
-0.0133517
0.0196184
-0.0133497
0.0143121
-0.0131658
0.009549
-0.0127641
0.00565377
-0.0120415
0.00319881
-0.0108214
0.00176226
-0.00920142
0.000727583
-0.00696494
-0.00403211
0.0349538
-0.00653373
-0.0416086
0.028581
-0.0069788
0.022562
-0.00733073
0.0169631
-0.00756697
0.0118751
-0.00767607
0.00748234
-0.00764874
0.00413636
-0.00747538
0.00199357
-0.00705862
0.000798646
-0.00577001
-0.00323346
0.0392659
0.000572658
-0.0463723
0.0324846
-0.000197547
0.026101
-0.000947071
0.0201894
-0.00165541
0.0148106
-0.00229721
0.0100275
-0.00286566
0.00592394
-0.00337181
0.00267399
-0.00380867
0.000720599
-0.00381661
-0.00251286
0.0430947
0.00808772
-0.0506097
0.0359198
0.00697731
0.0291387
0.00583401
0.0228513
0.00463201
0.0171596
0.00339451
0.0121031
0.00219082
0.00766331
0.00106803
0.00384658
8.07415e-06
0.000978885
-0.000948903
-0.00153397
0.0453659
0.0158892
-0.0531674
0.0379405
0.0144027
0.0308888
0.0128858
0.024247
0.0112738
0.0181582
0.00948329
0.0128083
0.00754072
0.00827591
0.00560045
0.00453669
0.0037473
0.00162993
0.00195787
9.59689e-05
0.0455165
0.0239885
-0.0536158
0.0379017
0.0220175
0.0307749
0.0200126
0.0240489
0.0179998
0.0176918
0.0158403
0.0118981
0.0133345
0.00704432
0.0104542
0.003416
0.00737563
0.00114689
0.00422699
0.00124286
0.0444604
-0.0529715
0.0365071
0.0292413
0.0226434
0.0165172
0.0107488