/*--------------------------------*- C++ -*----------------------------------*\
  =========                 |
  \\      /  F ield         | OpenFOAM: The Open Source CFD Toolbox
   \\    /   O peration     | Website:  https://openfoam.org
    \\  /    A nd           | Version:  13
     \\/     M anipulation  |
\*---------------------------------------------------------------------------*/
FoamFile
{
    format      ascii;
    class       volVectorField;
    location    "0.69";
    object      U;
}
// * * * * * * * * * * * * * * * * * * * * * * * * * * * * * * * * * * * * * //

dimensions      [0 1 -1 0 0 0 0];

internalField   nonuniform List<vector> 
1800
(
(0.097801 -0.0883287 -4.48956e-20)
(0.286896 -0.241951 -3.412e-20)
(0.473973 -0.379045 -4.85024e-19)
(0.657692 -0.500158 1.9147e-19)
(0.836611 -0.607171 7.43813e-20)
(1.00991 -0.701377 -3.90566e-20)
(1.17715 -0.783469 5.54967e-20)
(1.33793 -0.853679 1.97369e-19)
(1.49159 -0.91296 5.9224e-19)
(1.63353 -0.966897 8.10039e-19)
(0.119061 -0.0915028 -7.91144e-20)
(0.344291 -0.247709 -7.70613e-19)
(0.563282 -0.38475 3.78147e-21)
(0.775364 -0.504236 1.25761e-19)
(0.979505 -0.608922 -1.26264e-19)
(1.17521 -0.700695 7.65848e-20)
(1.36231 -0.780788 -2.80816e-19)
(1.54078 -0.850098 -5.02644e-20)
(1.7101 -0.910703 -6.93479e-19)
(1.86785 -0.967041 6.29758e-19)
(0.141651 -0.092323 4.88227e-20)
(0.40368 -0.247731 2.09288e-19)
(0.653755 -0.382117 5.43322e-19)
(0.892178 -0.497905 -1.90263e-19)
(1.11866 -0.598385 -1.42995e-19)
(1.33321 -0.685812 7.56114e-20)
(1.53605 -0.761706 9.8257e-20)
(1.72743 -0.827297 1.94065e-19)
(1.90721 -0.8848 2.73614e-21)
(2.07421 -0.937866 1.50984e-19)
(0.163907 -0.0897209 -4.57191e-20)
(0.461698 -0.23947 -2.04391e-19)
(0.741428 -0.367618 -1.8126e-19)
(1.00451 -0.476977 -1.42298e-19)
(1.25162 -0.571022 1.8131e-19)
(1.48351 -0.652127 -5.70906e-20)
(1.70092 -0.721905 -4.31057e-21)
(1.90453 -0.781621 2.926e-21)
(2.09455 -0.833364 -1.60458e-19)
(2.27025 -0.880354 -1.05942e-19)
(0.184658 -0.0833565 -1.14039e-19)
(0.515894 -0.221807 8.76368e-20)
(0.823292 -0.339431 1.79841e-19)
(1.10931 -0.439063 2.43305e-19)
(1.37561 -0.524071 -2.85022e-19)
(1.62371 -0.596777 -3.58075e-21)
(1.85494 -0.658767 4.24978e-19)
(2.07042 -0.711262 -1.85055e-19)
(2.27083 -0.756163 -1.23988e-19)
(2.45578 -0.796396 -5.35566e-20)
(0.20319 -0.0735001 1.73591e-19)
(0.564471 -0.1952 1.02985e-18)
(0.896791 -0.298074 1.43255e-19)
(1.20351 -0.384735 -5.03141e-19)
(1.48719 -0.458227 -1.75502e-19)
(1.75003 -0.520669 6.37689e-19)
(1.9939 -0.573525 -1.45378e-19)
(2.22036 -0.6179 -4.31587e-19)
(2.43047 -0.655444 -3.16654e-19)
(2.62419 -0.688742 2.6159e-19)
(0.218898 -0.0605913 1.1634e-19)
(0.605745 -0.160701 -7.47592e-19)
(0.959313 -0.24503 -1.0856e-18)
(1.28371 -0.315798 3.83786e-19)
(1.58223 -0.375564 4.49943e-19)
(1.85767 -0.426128 -9.02059e-22)
(2.11239 -0.468739 -6.39682e-19)
(2.34829 -0.504325 2.19314e-19)
(2.56683 -0.534213 -3.64479e-19)
(2.76827 -0.560569 -3.11214e-19)
(0.231235 -0.0451723 -3.42487e-19)
(0.6382 -0.119684 -6.92604e-19)
(1.00849 -0.182294 1.21221e-18)
(1.34677 -0.2347 5.98701e-19)
(1.65693 -0.278852 -2.69758e-19)
(1.94224 -0.316136 -2.11496e-19)
(2.20543 -0.347515 0)
(2.44874 -0.373689 1.16805e-19)
(2.67398 -0.395622 -2.95842e-19)
(2.88171 -0.41497 -7.74279e-20)
(0.239766 -0.0278754 -2.04466e-19)
(0.660652 -0.0737558 5.62384e-19)
(1.04249 -0.112198 1.71008e-19)
(1.39031 -0.144289 -5.12494e-19)
(1.7084 -0.171277 -7.84194e-19)
(2.00037 -0.194053 3.66196e-20)
(2.26924 -0.213245 1.67124e-19)
(2.51752 -0.229293 -5.46842e-19)
(2.74731 -0.242784 -2.89763e-19)
(2.95953 -0.254778 -5.63593e-19)
(0.24426 -0.00940241 4.51408e-19)
(0.672452 -0.024704 3.44149e-19)
(1.0603 -0.0373616 -9.38596e-20)
(1.41303 -0.0477884 -1.2979e-20)
(1.73514 -0.0564621 -3.87507e-19)
(2.03041 -0.063723 -8.57328e-20)
(2.30205 -0.06981 -2.90578e-19)
(2.55276 -0.0748902 6.46558e-19)
(2.7848 -0.079171 1.71003e-19)
(2.99945 -0.0830118 2.22281e-21)
(-0.00234407 -0.021787 -3.41746e-20)
(0.0086065 -0.0693493 -7.02973e-20)
(0.0248948 -0.120499 -7.3215e-21)
(0.0493257 -0.171198 -3.40565e-20)
(0.0776797 -0.216586 -1.27316e-20)
(0.106524 -0.254731 -3.90041e-19)
(0.135555 -0.288665 -1.94975e-20)
(0.166345 -0.321979 1.19952e-19)
(0.199175 -0.355494 1.09562e-20)
(0.233067 -0.387863 -3.57923e-20)
(0.000847878 -0.0246879 -9.77544e-20)
(0.0149441 -0.0850731 -2.12518e-19)
(0.0393454 -0.160325 -5.41789e-20)
(0.0692729 -0.225243 -1.10452e-19)
(0.0994954 -0.275533 -9.65424e-20)
(0.130467 -0.317967 -2.79854e-19)
(0.164488 -0.358958 2.00561e-19)
(0.202151 -0.400359 1.686e-19)
(0.241654 -0.440277 -2.56587e-19)
(0.281167 -0.476659 8.12938e-20)
(0.00549538 -0.0314944 -8.54123e-20)
(0.0287778 -0.107419 -8.66603e-19)
(0.0628549 -0.196098 -1.29511e-19)
(0.0974508 -0.268959 9.33421e-20)
(0.131819 -0.327203 6.78094e-20)
(0.169659 -0.380267 -4.50056e-19)
(0.212955 -0.432289 3.56512e-20)
(0.259149 -0.48178 3.67007e-19)
(0.3055 -0.526242 -3.86433e-19)
(0.351451 -0.565638 -2.58542e-19)
(0.0113686 -0.0409878 -1.77289e-21)
(0.0466249 -0.130879 1.89787e-19)
(0.0896404 -0.225329 1.61592e-21)
(0.133077 -0.307031 -1.07864e-20)
(0.177792 -0.377866 -3.01021e-20)
(0.227248 -0.443847 8.66542e-20)
(0.281102 -0.505609 7.31137e-20)
(0.335675 -0.560876 -1.36145e-19)
(0.389741 -0.609357 9.20881e-21)
(0.443912 -0.651923 -1.04423e-20)
(0.0185095 -0.0507731 0)
(0.0672389 -0.152431 5.4752e-21)
(0.121939 -0.253636 -5.10096e-19)
(0.178695 -0.345476 5.15673e-20)
(0.23781 -0.428574 -1.02077e-20)
(0.300518 -0.505082 5.80985e-21)
(0.365312 -0.574366 -2.54257e-20)
(0.42981 -0.63542 -7.77088e-21)
(0.493951 -0.688823 0)
(0.558145 -0.734831 -2.05848e-20)
(0.0273261 -0.0596513 3.18239e-20)
(0.0918956 -0.172858 -1.54252e-19)
(0.161767 -0.282526 -4.59515e-20)
(0.23463 -0.383891 -5.83693e-20)
(0.309737 -0.476752 4.96372e-20)
(0.386738 -0.561531 5.50589e-21)
(0.464243 -0.637694 8.97382e-20)
(0.540938 -0.704933 -2.17594e-20)
(0.61691 -0.763432 -6.96333e-19)
(0.69216 -0.812633 -1.01037e-20)
(0.0379753 -0.0676055 6.84282e-22)
(0.121237 -0.19218 5.57316e-20)
(0.209164 -0.310619 -7.84795e-20)
(0.299927 -0.420177 -1.67003e-20)
(0.392136 -0.520669 -7.29178e-20)
(0.484777 -0.612125 -9.55294e-21)
(0.5767 -0.694319 9.88411e-21)
(0.66694 -0.767136 -2.11695e-19)
(0.755524 -0.830255 3.83554e-19)
(0.842315 -0.882308 9.71599e-19)
(0.0503616 -0.0746015 1.51336e-20)
(0.15513 -0.209611 -1.42284e-19)
(0.263462 -0.335965 -2.13789e-19)
(0.37367 -0.452111 8.90197e-20)
(0.484102 -0.558264 -6.43251e-20)
(0.593543 -0.654613 9.87692e-20)
(0.700942 -0.741271 1.96869e-19)
(0.805406 -0.818292 -1.09143e-19)
(0.907018 -0.885103 -3.05966e-19)
(1.00569 -0.939516 7.25383e-19)
(0.0642902 -0.08036 -2.64864e-20)
(0.193286 -0.224026 -5.78126e-19)
(0.324297 -0.35656 5.2432e-19)
(0.455683 -0.47723 3.37497e-19)
(0.585738 -0.586744 -8.59134e-20)
(0.713223 -0.685657 3.08699e-19)
(0.837128 -0.774429 -1.59969e-19)
(0.956562 -0.853452 -7.72957e-19)
(1.07173 -0.922028 -4.03725e-19)
(1.18267 -0.977271 4.53686e-19)
(0.0795452 -0.0846662 -7.9824e-20)
(0.235846 -0.234417 -5.44356e-19)
(0.392392 -0.370525 -8.27606e-21)
(0.547541 -0.492795 6.8821e-20)
(0.699594 -0.602462 3.37765e-19)
(0.847391 -0.700431 -1.85394e-19)
(0.990011 -0.787438 -1.69483e-19)
(1.12653 -0.863822 1.89009e-19)
(1.2568 -0.928643 -3.51633e-19)
(1.38007 -0.980348 -5.84602e-19)
(0.402978 -0.531952 9.84695e-19)
(0.68491 -0.618408 -2.44159e-19)
(0.91379 -0.5577 -1.42988e-19)
(1.08765 -0.431162 2.69411e-19)
(1.24008 -0.280067 -2.30827e-19)
(1.36242 -0.139292 -2.99761e-19)
(1.45982 -0.0332077 -2.65781e-19)
(1.5167 0.0201997 -3.18559e-20)
(1.53742 0.0308766 5.32758e-21)
(1.55337 0.0219847 3.00658e-20)
(0.468921 -0.619821 9.65474e-19)
(0.741555 -0.69384 7.15251e-20)
(0.966346 -0.617744 1.09538e-20)
(1.12485 -0.48039 -2.1647e-19)
(1.26556 -0.32041 -7.17595e-19)
(1.38083 -0.171918 0)
(1.47934 -0.0577687 -2.46683e-19)
(1.55303 0.00624948 5.18462e-20)
(1.59028 0.0245871 4.49827e-21)
(1.61817 0.0185591 -6.80408e-22)
(0.556251 -0.70548 -9.98097e-19)
(0.810848 -0.766816 -7.09908e-20)
(1.0256 -0.675651 1.5627e-19)
(1.16622 -0.527454 -5.3866e-20)
(1.29123 -0.359536 -3.63672e-20)
(1.39696 -0.204386 6.44365e-20)
(1.49097 -0.0840586 0)
(1.57189 -0.0122275 0)
(1.62488 0.0123477 -2.10594e-20)
(1.67365 0.0124839 0)
(0.665726 -0.787229 -2.24884e-19)
(0.895656 -0.835384 4.0412e-19)
(1.09201 -0.730357 2.68244e-20)
(1.2125 -0.571368 0)
(1.31799 -0.396563 6.05803e-19)
(1.41184 -0.235679 -1.44117e-19)
(1.49858 -0.110488 0)
(1.57909 -0.0322578 1.32724e-19)
(1.63308 -0.00427111 0)
(1.71109 0.00139937 -9.3199e-21)
(0.795753 -0.863917 -1.48928e-19)
(0.997668 -0.897561 4.54687e-19)
(1.16624 -0.780703 -1.46595e-20)
(1.26384 -0.611308 0)
(1.34654 -0.430677 1.78819e-19)
(1.42584 -0.265098 2.70972e-19)
(1.50416 -0.13589 4.76321e-20)
(1.57986 -0.0521095 6.70685e-21)
(1.63073 -0.0214714 -2.2974e-20)
(1.7169 -0.0120527 3.27667e-20)
(0.942252 -0.934787 -1.33121e-18)
(1.1165 -0.951994 -9.41877e-19)
(1.24888 -0.825423 4.76271e-21)
(1.32004 -0.646547 5.75067e-19)
(1.37723 -0.461094 -3.03911e-19)
(1.439 -0.292125 1.47054e-19)
(1.50812 -0.159597 2.33693e-19)
(1.577 -0.0709287 -1.88e-19)
(1.62585 -0.0388085 -1.89112e-21)
(1.7121 -0.0247599 2.60511e-20)
(1.1001 -0.999465 -2.60464e-19)
(1.25002 -0.998495 2.86538e-19)
(1.34019 -0.863397 3.94596e-21)
(1.38079 -0.676399 -1.76116e-20)
(1.4102 -0.487035 -5.88653e-19)
(1.45133 -0.316224 5.41627e-20)
(1.50994 -0.181226 -9.39594e-20)
(1.57145 -0.0888563 -2.71305e-20)
(1.62152 -0.0541532 -1.34782e-21)
(1.69003 -0.0374452 -2.28707e-20)
(1.26432 -1.05684 -1.20082e-18)
(1.39474 -1.03767 2.09914e-19)
(1.43916 -0.894036 0)
(1.44512 -0.700433 3.44738e-20)
(1.44477 -0.507972 5.19138e-19)
(1.46251 -0.336883 -1.50249e-21)
(1.50856 -0.200794 -3.10372e-19)
(1.56354 -0.105282 5.92369e-20)
(1.61329 -0.0683286 -7.62091e-22)
(1.63932 -0.0444376 -2.4292e-20)
(1.432 -1.1035 3.39105e-18)
(1.54804 -1.07043 2.46103e-19)
(1.5456 -0.918045 4.6412e-19)
(1.51327 -0.719072 -3.17914e-20)
(1.48104 -0.524062 -3.43773e-20)
(1.47247 -0.353955 -4.27335e-19)
(1.50165 -0.218194 9.05465e-20)
(1.55381 -0.11998 3.06348e-21)
(1.56961 -0.0753978 -2.48395e-20)
(1.57637 -0.0463812 3.11716e-20)
(1.59924 -1.12819 -2.99823e-18)
(1.70185 -1.09563 1.27228e-18)
(1.65395 -0.938068 -2.32859e-19)
(1.58139 -0.735806 -7.88343e-19)
(1.51596 -0.538883 -6.5485e-19)
(1.47857 -0.371198 -2.54882e-19)
(1.48921 -0.235641 -6.66785e-20)
(1.51412 -0.132827 0)
(1.50727 -0.0764758 -5.5863e-20)
(1.50509 -0.0465926 1.18897e-19)
(1.88818 -1.17023 -6.71211e-18)
(1.92739 -1.10517 -1.69198e-18)
(1.80486 -0.932273 -5.84621e-20)
(1.67307 -0.727657 1.11947e-19)
(1.56249 -0.534044 1.60572e-19)
(1.48613 -0.373097 -1.03415e-19)
(1.45034 -0.240401 -4.02842e-20)
(1.4289 -0.133153 7.02277e-20)
(1.41749 -0.0743309 -5.75298e-20)
(1.40709 -0.0457959 -5.4635e-20)
(2.28933 -1.13486 4.95768e-19)
(2.17884 -1.05672 -2.87983e-19)
(1.94275 -0.865336 4.9795e-19)
(1.73567 -0.664821 -8.5335e-20)
(1.56238 -0.480767 6.65788e-21)
(1.42659 -0.333562 -6.76221e-20)
(1.34336 -0.217183 9.69321e-20)
(1.31066 -0.12275 -3.3042e-20)
(1.29335 -0.0689465 2.03238e-19)
(1.27751 -0.0429278 9.09216e-20)
(2.61059 -1.0436 2.2709e-18)
(2.35196 -0.948777 3.25819e-19)
(2.00829 -0.759474 -1.17826e-19)
(1.73255 -0.572953 1.62348e-36)
(1.5055 -0.410691 -2.5509e-20)
(1.33924 -0.286589 1.50765e-33)
(1.23491 -0.189764 -1.95573e-20)
(1.18431 -0.110542 -1.63668e-33)
(1.16138 -0.0622398 6.81586e-21)
(1.14067 -0.0389188 -1.46945e-20)
(2.78704 -0.893971 3.88696e-33)
(2.36945 -0.795628 2.96662e-18)
(1.97362 -0.63048 1.81816e-18)
(1.65348 -0.469401 0)
(1.40661 -0.334877 8.33647e-19)
(1.22983 -0.233574 4.30854e-19)
(1.11415 -0.156108 1.69329e-19)
(1.05146 -0.094135 -2.8684e-33)
(1.02269 -0.0538048 -5.92174e-20)
(0.998093 -0.0338207 9.53644e-21)
(2.76365 -0.705893 3.84277e-18)
(2.2459 -0.629882 -1.46816e-19)
(1.84654 -0.491016 0)
(1.51554 -0.361702 0)
(1.27133 -0.25568 0)
(1.09736 -0.17837 0)
(0.980946 -0.12071 -1.2678e-20)
(0.912404 -0.0751315 -4.16818e-33)
(0.879043 -0.0438364 7.61423e-21)
(0.851408 -0.0278746 8.51997e-34)
(2.55117 -0.517037 3.26577e-18)
(2.02005 -0.462915 0)
(1.63856 -0.353642 0)
(1.32676 -0.256742 0)
(1.10097 -0.179691 0)
(0.941738 -0.125503 0)
(0.833531 -0.0859419 3.2968e-20)
(0.76604 -0.0550934 -9.04362e-20)
(0.730755 -0.0328477 8.49359e-21)
(0.701621 -0.0213515 3.38745e-20)
(2.19012 -0.342711 0)
(1.70263 -0.303513 1.09828e-18)
(1.36128 -0.227606 1.09039e-18)
(1.09131 -0.161991 0)
(0.898402 -0.112333 6.67025e-19)
(0.76401 -0.078682 4.05057e-19)
(0.671622 -0.0545639 2.51696e-19)
(0.611376 -0.0359872 8.31235e-20)
(0.577729 -0.0218161 -2.55113e-20)
(0.549375 -0.0147171 -4.51781e-21)
(1.70286 -0.191136 -6.73871e-19)
(1.30018 -0.165594 -2.74164e-19)
(1.02505 -0.121755 1.75643e-19)
(0.815083 -0.0844378 -2.11273e-34)
(0.667704 -0.0580799 -7.70528e-20)
(0.566173 -0.0410288 3.71215e-33)
(0.495608 -0.028914 4.88617e-20)
(0.447881 -0.0196851 9.87341e-20)
(0.419677 -0.0120044 9.8711e-21)
(0.395044 -0.00858988 -2.73012e-21)
(1.10088 -0.0758214 3.40804e-18)
(0.823159 -0.0626785 -1.86546e-19)
(0.640582 -0.0442929 -5.88862e-19)
(0.506147 -0.0289883 0)
(0.413819 -0.0195674 -6.40082e-19)
(0.350652 -0.0141198 -4.32416e-19)
(0.306148 -0.010293 -2.03732e-19)
(0.275095 -0.00744427 -1.41704e-19)
(0.255895 -0.00459254 1.68518e-19)
(0.238533 -0.00362901 -2.70633e-20)
(0.397352 -0.00331881 0)
(0.287866 0.00159416 0)
(0.220892 0.00409433 0)
(0.173551 0.00624733 0)
(0.142373 0.00585583 0)
(0.121194 0.00471355 0)
(0.105869 0.00367672 5.61127e-20)
(0.0947151 0.00256289 -2.1747e-34)
(0.0874263 0.002121 1.2432e-20)
(0.0804511 0.000888834 1.13506e-20)
(3.3671 -0.0863116 5.39208e-19)
(3.32642 -0.265086 -8.419e-20)
(3.24735 -0.430656 8.52092e-19)
(3.13238 -0.582158 -6.04752e-19)
(2.98634 -0.718125 6.66398e-19)
(2.81524 -0.836382 2.75232e-19)
(2.6266 -0.934058 -1.92754e-18)
(2.42951 -1.00785 -7.74587e-20)
(2.22467 -1.05368 0)
(1.98485 -1.06655 4.26142e-19)
(3.86191 -0.0750595 7.07368e-18)
(3.79859 -0.234214 1.95637e-18)
(3.70428 -0.387311 -4.86731e-18)
(3.58426 -0.531992 -4.49088e-19)
(3.44238 -0.665894 3.55887e-18)
(3.28186 -0.787321 1.92343e-18)
(3.1065 -0.895068 -5.16861e-18)
(2.92204 -0.987702 -1.95216e-18)
(2.72759 -1.06339 2.20313e-18)
(2.49236 -1.12051 8.52168e-19)
(3.83308 -0.0533008 -1.26251e-19)
(3.82024 -0.171566 4.40362e-18)
(3.78546 -0.299762 -1.08826e-18)
(3.72434 -0.43092 -3.44613e-18)
(3.63618 -0.558731 -6.80012e-18)
(3.52371 -0.678803 1.02787e-17)
(3.39117 -0.788792 4.18063e-18)
(3.2435 -0.887984 -3.91181e-18)
(3.08161 -0.978715 -2.90276e-18)
(2.88723 -1.063 -3.42502e-18)
(3.62866 -0.0472858 -4.83943e-18)
(3.61961 -0.144931 -4.35349e-18)
(3.59963 -0.243741 5.47223e-18)
(3.56735 -0.343095 1.91192e-18)
(3.52241 -0.442378 -8.97143e-18)
(3.46417 -0.540808 4.9221e-19)
(3.39183 -0.637046 3.88641e-18)
(3.30512 -0.730431 -1.05397e-18)
(3.20499 -0.823064 1.27683e-18)
(3.08306 -0.914772 2.81767e-19)
(3.34405 -0.0365783 -9.16002e-19)
(3.339 -0.111656 3.00412e-18)
(3.3271 -0.188676 1.6196e-18)
(3.30744 -0.267172 -1.89429e-18)
(3.27986 -0.34607 -2.00139e-18)
(3.24465 -0.424138 -2.43402e-18)
(3.20204 -0.500335 3.79668e-19)
(3.15176 -0.574494 1.3903e-19)
(3.09549 -0.647758 -2.13976e-18)
(3.03287 -0.721304 -2.03442e-18)
(2.96257 -0.0265544 -1.82251e-18)
(2.95981 -0.0798889 -5.87231e-20)
(2.9533 -0.134599 -1.63755e-18)
(2.9424 -0.190903 3.12128e-19)
(2.92675 -0.248551 5.36787e-18)
(2.90629 -0.30693 -3.66751e-19)
(2.88092 -0.365116 4.43392e-20)
(2.85023 -0.422059 -2.60861e-18)
(2.81644 -0.476883 -3.4957e-18)
(2.786 -0.529864 3.7282e-19)
(2.48713 -0.0175107 -2.89314e-20)
(2.48578 -0.0519348 -8.14317e-19)
(2.48259 -0.0872483 -2.61487e-18)
(2.47707 -0.123771 -3.43104e-18)
(2.4688 -0.161534 2.49657e-18)
(2.45744 -0.200268 1.50226e-18)
(2.44261 -0.239353 -1.38508e-18)
(2.4237 -0.277791 1.6245e-18)
(2.40275 -0.314483 -4.29713e-19)
(2.38953 -0.349541 -9.63777e-19)
(1.91464 -0.00968837 7.72463e-19)
(1.91408 -0.0282976 -8.31807e-19)
(1.91278 -0.0474397 -3.27697e-20)
(1.91031 -0.0673591 -3.47233e-20)
(1.90624 -0.0881301 -7.27406e-20)
(1.90013 -0.109614 -2.33196e-18)
(1.89151 -0.131405 -6.78681e-19)
(1.87978 -0.152782 2.62613e-18)
(1.86664 -0.172975 -6.03511e-19)
(1.86191 -0.192207 -1.35115e-18)
(1.23988 -0.00373763 -1.64283e-18)
(1.23967 -0.0106957 -8.48917e-19)
(1.23923 -0.0179012 2.33921e-18)
(1.23823 -0.0254786 -8.89781e-19)
(1.23625 -0.0334753 -6.74128e-19)
(1.2329 -0.0418316 1.35204e-18)
(1.22775 -0.0503499 -1.2959e-18)
(1.22038 -0.0586654 1.287e-18)
(1.21202 -0.0663424 -1.21033e-18)
(1.21007 -0.0735081 -4.2483e-18)
(0.454916 -0.000257977 6.63084e-19)
(0.454827 -0.000700531 7.03058e-19)
(0.454692 -0.00115912 7.48186e-19)
(0.454325 -0.00164005 1.35398e-18)
(0.453496 -0.00214018 -6.7199e-19)
(0.451984 -0.00263719 -1.29962e-18)
(0.449567 -0.0030991 6.14719e-19)
(0.445992 -0.00359293 2.48373e-20)
(0.441737 -0.00439222 -4.96531e-20)
(0.44035 -0.00504562 1.1057e-19)
(1.65355 0.997257 -2.85782e-19)
(1.51227 0.941846 1.79971e-20)
(1.35879 0.880736 -2.28607e-19)
(1.19767 0.808431 1.76342e-19)
(1.02957 0.723973 -1.91972e-19)
(0.854823 0.627073 -1.01104e-19)
(0.673759 0.51694 2.31984e-19)
(0.487035 0.392146 -3.04918e-19)
(0.295891 0.250643 3.09877e-19)
(0.10143 0.0916438 2.38719e-19)
(1.88638 0.992179 0)
(1.72967 0.93473 6.39266e-19)
(1.56083 0.872762 3.32437e-19)
(1.38228 0.801848 1.62763e-19)
(1.19453 0.719875 4.31276e-19)
(0.997533 0.625897 -8.68523e-20)
(0.79136 0.518601 -7.85408e-20)
(0.576346 0.39599 8.87726e-20)
(0.353318 0.255175 -1.04517e-18)
(0.122698 0.0943552 -1.66427e-20)
(2.09103 0.959029 1.56804e-19)
(1.92523 0.905062 0)
(1.74614 0.846457 -1.00738e-19)
(1.55493 0.779546 -3.83405e-19)
(1.3517 0.70208 5.37072e-20)
(1.13609 0.612789 3.97122e-19)
(0.907783 0.510088 -6.06882e-19)
(0.66659 0.391638 -2.00881e-19)
(0.412595 0.254044 7.83588e-19)
(0.145251 0.0947351 -1.75939e-19)
(2.28484 0.898348 1.87996e-19)
(2.11044 0.850556 1.1994e-20)
(1.9213 0.797858 2.45115e-20)
(1.71811 0.736999 3.60936e-20)
(1.50058 0.665854 -2.9272e-20)
(1.26793 0.583131 2.73258e-19)
(1.01926 0.487168 -2.06877e-19)
(0.753674 0.375531 -8.5557e-19)
(0.470271 0.244678 0)
(0.167388 0.0916965 0)
(2.46796 0.811815 -1.07078e-18)
(2.28435 0.770833 -6.09139e-19)
(2.08493 0.725059 -1.20668e-19)
(1.87003 0.671521 -6.65719e-20)
(1.6389 0.608294 0)
(1.39031 0.534136 2.40751e-19)
(1.12275 0.447434 2.67777e-19)
(0.834555 0.345835 2.8624e-19)
(0.52384 0.225953 -4.23744e-19)
(0.187908 0.084898 -8.12345e-20)
(2.634 0.702091 7.6638e-19)
(2.44156 0.668062 -1.39173e-19)
(2.23244 0.629678 -2.2157e-19)
(2.00664 0.584305 0)
(1.76301 0.530279 0)
(1.49988 0.466488 0)
(1.21522 0.391463 -3.89804e-20)
(0.906685 0.30309 3.70275e-19)
(0.571498 0.198348 3.79144e-19)
(0.206083 0.0746242 -3.08566e-19)
(2.7758 0.572354 -1.19354e-18)
(2.5755 0.545259 -1.48134e-18)
(2.35787 0.514529 -3.03285e-22)
(2.1226 0.477946 -1.8766e-19)
(1.86818 0.434182 -9.28798e-20)
(1.59258 0.382318 -1.7884e-19)
(1.29333 0.321125 4.59091e-19)
(0.967489 0.248837 2.14862e-19)
(0.611583 0.162967 5.40025e-19)
(0.221314 0.0613402 2.02853e-19)
(2.88707 0.425748 -1.15707e-18)
(2.68027 0.405633 8.47053e-20)
(2.45576 0.38282 1.64525e-19)
(2.21297 0.355611 1.68174e-20)
(1.95004 0.323051 -3.14403e-19)
(1.66465 0.284468 -1.7421e-19)
(1.35398 0.238938 -6.21209e-19)
(1.01464 0.18514 1.1853e-19)
(0.642605 0.121237 5.14755e-20)
(0.233066 0.0456127 -6.26902e-21)
(2.9628 0.265187 1.01362e-19)
(2.75121 0.252354 3.97005e-19)
(2.52189 0.237904 -3.30292e-19)
(2.27394 0.22074 3.63016e-19)
(2.00524 0.200297 3.72548e-19)
(1.71322 0.176176 4.91896e-19)
(1.39481 0.147809 -6.35739e-19)
(1.04633 0.11439 -3.24415e-19)
(0.663412 0.0748097 -4.58506e-20)
(0.240916 0.0280951 -3.26994e-19)
(3.00052 0.0935773 5.81812e-19)
(2.78612 0.0887858 -1.86158e-19)
(2.55425 0.0834442 4.79563e-19)
(2.30367 0.0771503 -3.10668e-19)
(2.03208 0.069728 2.66478e-19)
(1.73679 0.061062 6.05411e-19)
(1.41457 0.0509785 3.78885e-19)
(1.06162 0.0392347 3.09342e-19)
(0.673396 0.0255066 2.65861e-19)
(0.244654 0.00950723 5.43614e-19)
(0.239566 0.452071 -4.69157e-19)
(0.203967 0.418351 -1.87522e-19)
(0.168404 0.381272 1.39148e-19)
(0.13488 0.343613 -4.19314e-19)
(0.10515 0.307491 -1.19459e-19)
(0.0782532 0.27024 6.92738e-19)
(0.051877 0.223834 3.35834e-19)
(0.025961 0.158986 -1.5567e-19)
(0.00705875 0.079702 1.14582e-19)
(-0.00112497 0.0224487 -6.07287e-20)
(0.288635 0.544346 4.11326e-19)
(0.248732 0.507553 4.58238e-19)
(0.208185 0.465505 -1.1714e-20)
(0.167859 0.418481 -1.32664e-19)
(0.13114 0.370363 -3.13089e-19)
(0.100609 0.32277 8.28199e-20)
(0.073479 0.269447 2.25023e-19)
(0.0458949 0.19699 1.65374e-19)
(0.0183416 0.101908 -5.90891e-19)
(0.00278953 0.0288778 -1.23604e-19)
(0.359662 0.633158 -6.00778e-19)
(0.313797 0.593011 -4.8137e-19)
(0.267998 0.547174 2.57543e-19)
(0.221355 0.493867 1.38157e-19)
(0.17581 0.434108 -6.04375e-21)
(0.136272 0.371901 -1.4001e-19)
(0.10212 0.305637 -2.94225e-20)
(0.0684378 0.224916 -5.552e-19)
(0.0336708 0.126033 -2.69409e-19)
(0.00763829 0.037799 -3.90665e-20)
(0.454224 0.717898 5.03225e-19)
(0.400066 0.673705 1.64743e-19)
(0.346371 0.622696 -1.49356e-19)
(0.292233 0.563652 6.32727e-20)
(0.23775 0.495557 -5.59273e-22)
(0.186586 0.420881 1.32721e-21)
(0.140104 0.340665 -1.32246e-19)
(0.0954602 0.250257 3.78531e-19)
(0.051435 0.147738 -4.19308e-19)
(0.0135807 0.0477095 -6.51205e-20)
(0.57201 0.797868 -2.82168e-19)
(0.507863 0.749776 -8.88994e-20)
(0.443581 0.692931 -1.4344e-20)
(0.37897 0.627214 -7.02139e-20)
(0.31372 0.551958 5.85169e-20)
(0.249662 0.46806 5.26883e-20)
(0.188379 0.376711 -2.79173e-20)
(0.129324 0.276649 -2.82188e-19)
(0.0725264 0.167637 2.1837e-19)
(0.0209179 0.0568383 8.72785e-20)
(0.709415 0.870953 6.43382e-19)
(0.634367 0.819571 3.20868e-19)
(0.558131 0.757408 2.03193e-19)
(0.480856 0.685347 4.82125e-20)
(0.402412 0.603513 1.54965e-19)
(0.32387 0.51235 7.84076e-20)
(0.246466 0.412508 1.43304e-19)
(0.170864 0.303904 5.7934e-20)
(0.0980526 0.186795 -1.59628e-20)
(0.0299967 0.0650291 -1.33437e-20)
(0.862016 0.934871 -1.19766e-19)
(0.775538 0.880674 -8.25059e-19)
(0.6867 0.81405 -7.62791e-20)
(0.595723 0.736809 -5.20074e-20)
(0.50256 0.649611 -1.96121e-20)
(0.408123 0.552698 1.51466e-19)
(0.313477 0.4463 -4.38205e-20)
(0.219709 0.330405 6.49954e-20)
(0.128292 0.205076 -1.44615e-19)
(0.0409037 0.0724929 -1.2539e-21)
(1.02672 0.986034 -8.8481e-19)
(0.928464 0.929636 5.94291e-20)
(0.826653 0.859702 -2.33801e-19)
(0.72146 0.778879 -7.25166e-20)
(0.612766 0.687999 -2.40814e-20)
(0.501456 0.58706 -7.5178e-20)
(0.388525 0.475887 5.62834e-20)
(0.275162 0.354191 6.0308e-20)
(0.162982 0.221555 -9.82141e-21)
(0.0535439 0.0791203 -1.03794e-19)
(1.20389 1.01794 1.23826e-19)
(1.0935 0.960941 5.23172e-19)
(0.97825 0.889717 1.55313e-21)
(0.85822 0.807551 -2.9634e-20)
(0.733143 0.715296 1.50903e-19)
(0.60389 0.612545 -3.47331e-19)
(0.471402 0.498747 -2.44394e-19)
(0.33683 0.373207 3.5612e-19)
(0.201771 0.235006 1.44187e-19)
(0.0677022 0.0845325 -3.62274e-20)
(1.40058 1.01547 7.39792e-19)
(1.27805 0.962345 3.23737e-19)
(1.14782 0.895364 5.59198e-20)
(1.01087 0.816402 -1.94986e-19)
(0.867269 0.726521 -1.644e-20)
(0.7179 0.625336 4.65608e-19)
(0.563583 0.512003 -2.68231e-19)
(0.405341 0.385475 -1.84485e-19)
(0.244705 0.244319 3.35799e-19)
(0.083114 0.0884409 -6.0484e-21)
(0.976708 0.0984577 8.6705e-21)
(1.14302 0.142052 -1.0604e-21)
(1.21365 0.19031 -2.33767e-20)
(1.32609 0.17091 0)
(1.37734 0.155692 6.94631e-22)
(1.27877 0.234434 -5.31042e-20)
(1.12928 0.385664 -5.42665e-20)
(0.949308 0.543523 -1.26374e-20)
(0.711641 0.648385 -3.0423e-19)
(0.416545 0.595576 4.26971e-19)
(0.981884 0.0795174 1.95844e-19)
(1.13504 0.11441 -3.05907e-20)
(1.20993 0.159944 1.89972e-21)
(1.317 0.15217 1.17471e-20)
(1.38015 0.157847 3.52844e-21)
(1.29849 0.269008 -2.87377e-21)
(1.15922 0.435824 1.49763e-20)
(0.993927 0.606587 0)
(0.76154 0.727435 7.96541e-19)
(0.479412 0.686775 -5.66493e-19)
(0.98661 0.0608544 -1.13292e-19)
(1.1316 0.0878082 6.75397e-21)
(1.20929 0.130444 7.77067e-20)
(1.31394 0.132142 1.91608e-20)
(1.38317 0.159151 -2.31151e-20)
(1.31839 0.301465 -3.49609e-20)
(1.19232 0.484467 -8.62851e-21)
(1.04405 0.66807 4.4561e-20)
(0.823139 0.803909 -1.24874e-21)
(0.564493 0.774557 -3.72013e-19)
(0.99068 0.0419344 -8.09143e-20)
(1.13227 0.061798 1.54447e-20)
(1.21222 0.101623 7.54895e-20)
(1.31716 0.111941 3.07063e-20)
(1.38893 0.159976 -2.37206e-20)
(1.33857 0.33178 -2.67825e-20)
(1.22893 0.530893 7.19836e-20)
(1.1002 0.726843 2.68742e-20)
(0.899934 0.875547 -5.45804e-19)
(0.673719 0.856962 -1.77906e-19)
(0.993989 0.0224204 3.6841e-20)
(1.13631 0.0359 -4.67629e-20)
(1.21833 0.0733696 -6.77418e-20)
(1.32526 0.0921974 2.23476e-20)
(1.39635 0.161331 0)
(1.35873 0.360398 0)
(1.2691 0.574456 7.56616e-20)
(1.16352 0.781523 -2.8249e-20)
(0.994696 0.939864 -1.18066e-19)
(0.805124 0.932347 -5.7379e-20)
(0.996461 0.00215783 3.44277e-21)
(1.14284 0.00970221 5.7908e-20)
(1.22673 0.0455914 -2.07695e-19)
(1.33642 0.0734697 -7.65546e-20)
(1.40419 0.164031 -4.86059e-21)
(1.37875 0.387487 1.23811e-19)
(1.31304 0.614304 1.52096e-19)
(1.23555 0.830391 -1.80478e-20)
(1.10783 0.995061 -4.34952e-20)
(0.95377 1.00007 2.73089e-21)
(0.997389 -0.0191048 1.54064e-21)
(1.15102 -0.0171445 2.955e-20)
(1.23644 0.0183062 -6.55104e-20)
(1.3492 0.0562876 -1.54121e-19)
(1.41153 0.168312 1.18268e-20)
(1.3989 0.412725 7.40247e-21)
(1.36133 0.649323 -5.95655e-20)
(1.31738 0.871793 -1.09114e-19)
(1.23731 1.04085 -3.01889e-20)
(1.11388 1.06026 -9.80077e-19)
(0.995609 -0.0412 1.48648e-20)
(1.16028 -0.0449219 -1.43083e-19)
(1.24671 -0.00831767 1.32368e-19)
(1.36238 0.0414069 1.01811e-19)
(1.41722 0.174643 5.02904e-21)
(1.41914 0.435662 -1.31961e-19)
(1.41387 0.678483 -8.56194e-23)
(1.40838 0.904791 -1.29861e-19)
(1.37934 1.0781 1.11045e-20)
(1.27986 1.11237 2.88347e-18)
(0.990792 -0.0634486 -8.74248e-20)
(1.17049 -0.073745 8.00863e-20)
(1.2571 -0.0341153 1.90249e-19)
(1.3753 0.0289459 -1.14216e-19)
(1.42177 0.182782 -2.24519e-19)
(1.44102 0.456009 9.25912e-21)
(1.47192 0.701652 1.68526e-19)
(1.50851 0.930086 -5.71954e-19)
(1.53086 1.1081 -2.68432e-20)
(1.44835 1.15335 -6.47469e-18)
(0.983839 -0.0863102 4.11103e-21)
(1.18193 -0.103589 1.40894e-19)
(1.26742 -0.0588929 6.1163e-20)
(1.38674 0.021223 -2.7534e-19)
(1.42298 0.196765 -2.43168e-19)
(1.46212 0.477354 -7.172e-20)
(1.53115 0.722607 7.93321e-20)
(1.61161 0.951021 -2.08613e-19)
(1.68374 1.13047 -1.08669e-18)
(1.61562 1.17233 -7.95162e-18)
(0.974095 -0.117382 -1.44975e-20)
(1.19592 -0.143204 -3.25017e-20)
(1.27686 -0.0924285 -7.63959e-20)
(1.39744 0.00669997 1.40138e-19)
(1.42515 0.195759 2.01091e-19)
(1.49192 0.472922 -6.01157e-20)
(1.61192 0.712032 -1.41501e-19)
(1.7538 0.940167 -1.20231e-18)
(1.90279 1.13246 -1.59939e-18)
(1.89934 1.20867 3.28632e-18)
(0.961923 -0.155992 -4.05593e-19)
(1.21411 -0.192637 1.69986e-20)
(1.28069 -0.138518 -5.77233e-20)
(1.39784 -0.0149269 3.32604e-19)
(1.40401 0.173805 3.44076e-19)
(1.49361 0.428231 -1.67796e-21)
(1.66815 0.647734 -6.67904e-20)
(1.88069 0.865755 -2.89383e-19)
(2.13955 1.07131 2.77089e-19)
(2.28452 1.16079 -3.23418e-19)
(0.949357 -0.196395 -2.78868e-20)
(1.23917 -0.242474 -5.48707e-20)
(1.27953 -0.18292 3.0667e-20)
(1.39296 -0.0335364 2.70181e-20)
(1.37786 0.162604 1.72483e-33)
(1.47028 0.371122 2.5485e-21)
(1.68058 0.561246 -2.04189e-33)
(1.94908 0.759496 1.85312e-19)
(2.30193 0.956352 -9.31062e-19)
(2.58733 1.05843 -6.29298e-19)
(0.937008 -0.243036 1.41152e-18)
(1.27055 -0.282419 -7.74914e-34)
(1.24941 -0.228522 -4.02674e-20)
(1.27097 -0.0363416 -2.28209e-19)
(1.263 0.144482 -4.46964e-19)
(1.38953 0.302328 -8.85935e-19)
(1.61923 0.459952 -5.0683e-33)
(1.92928 0.631016 -1.73808e-18)
(2.32582 0.802057 -3.17737e-18)
(2.75374 0.902569 1.67526e-18)
(0.927283 -0.30054 0)
(1.31621 -0.327201 -1.61883e-33)
(1.11266 -0.20693 0)
(1.10751 -0.0294345 0)
(1.11961 0.115024 0)
(1.2587 0.232782 0)
(1.4897 0.355355 -8.07334e-33)
(1.81506 0.491505 0)
(2.21349 0.634251 -3.3975e-19)
(2.735 0.712 1.25756e-18)
(0.916476 -0.360807 1.16124e-19)
(1.25169 -0.326222 -4.68889e-19)
(0.960013 -0.174024 -5.49648e-20)
(0.93416 -0.0257375 0)
(0.956549 0.0826914 0)
(1.0902 0.165429 6.04898e-20)
(1.30641 0.253851 1.17776e-18)
(1.61599 0.354648 -1.95061e-19)
(1.99673 0.466183 -4.95303e-19)
(2.53247 0.52047 4.673e-18)
(0.883462 -0.405317 -1.52016e-17)
(1.0921 -0.279942 1.08749e-18)
(0.792665 -0.130459 -7.27187e-20)
(0.747141 -0.0210082 -7.54256e-20)
(0.773125 0.0525585 -5.1208e-19)
(0.889637 0.104499 -7.72612e-19)
(1.07637 0.161238 -1.04849e-18)
(1.34607 0.228994 -1.38284e-18)
(1.68763 0.306107 -1.60571e-18)
(2.17994 0.344442 3.6129e-18)
(0.808999 -0.394519 -4.13655e-19)
(0.88648 -0.207589 -1.21643e-18)
(0.605554 -0.0828342 -1.2568e-19)
(0.549754 -0.0152677 -8.41747e-20)
(0.572011 0.0276323 -9.86809e-34)
(0.661664 0.0545299 9.38179e-20)
(0.805491 0.0845604 -1.4858e-32)
(1.01622 0.122926 -1.93435e-19)
(1.29248 0.167303 2.98936e-19)
(1.69929 0.192069 7.0576e-19)
(0.66425 -0.288845 3.42549e-17)
(0.618259 -0.108098 -3.14021e-18)
(0.393379 -0.0351072 -2.40764e-19)
(0.339414 -0.00735763 -1.57421e-19)
(0.35383 0.00926458 3.93773e-19)
(0.410507 0.018353 7.84012e-19)
(0.501221 0.0291796 7.95151e-19)
(0.636737 0.0448794 4.59841e-19)
(0.820756 0.0634545 -1.90394e-19)
(1.10156 0.0762251 3.56935e-18)
(0.336836 -0.0768242 5.58813e-19)
(0.261851 -0.0023049 -6.76604e-33)
(0.144383 0.019077 -3.04979e-19)
(0.120412 0.00335921 0)
(0.123638 -0.00234637 0)
(0.141867 -0.00541234 9.64533e-20)
(0.172382 -0.00624511 9.34348e-35)
(0.220298 -0.00417535 -1.23574e-19)
(0.28813 -0.0016189 -2.826e-19)
(0.399009 0.00331837 1.00157e-18)
(2.00204 1.0964 -1.78979e-18)
(2.23906 1.07845 -2.30495e-18)
(2.44207 1.0291 0)
(2.63707 0.952499 -7.58078e-19)
(2.82358 0.852507 -1.7828e-18)
(2.99276 0.73239 -2.2495e-18)
(3.13709 0.595042 -4.75937e-19)
(3.25054 0.442698 1.26928e-18)
(3.32824 0.276965 -3.54792e-18)
(3.36764 0.0986984 1.35669e-18)
(2.49866 1.14196 2.67718e-19)
(2.73055 1.08191 1.39731e-18)
(2.92386 1.00419 1.43902e-19)
(3.10673 0.909798 6.75768e-19)
(3.2806 0.800659 -1.104e-18)
(3.43997 0.678325 -5.00045e-18)
(3.58096 0.544013 2.46794e-18)
(3.70047 0.399321 1.27035e-17)
(3.79428 0.246325 1.04066e-19)
(3.8587 0.0872573 -1.07365e-17)