# Selection   : all
# Cells       : 440
# Volume      : 7.374263e+01
# Time        	maxMag(U)
2.5           	2.708329e+00
2.55          	2.721697e+00
2.6           	2.734620e+00
