/*--------------------------------*- C++ -*----------------------------------*\
  =========                 |
  \\      /  F ield         | OpenFOAM: The Open Source CFD Toolbox
   \\    /   O peration     | Website:  https://openfoam.org
    \\  /    A nd           | Version:  13
     \\/     M anipulation  |
\*---------------------------------------------------------------------------*/
FoamFile
{
    format      ascii;
    class       volScalarField;
    location    "3.65";
    object      p;
}
// * * * * * * * * * * * * * * * * * * * * * * * * * * * * * * * * * * * * * //

dimensions      [0 2 -2 0 0 0 0];

internalField   nonuniform List<scalar> 
1800
(
-1.01809
-1.01855
-1.01692
-1.01213
-1.00444
-0.994438
-0.984822
-0.978525
-0.974057
-1.01342
-1.04525
-1.044
-1.04143
-1.03673
-1.02992
-1.02125
-1.01169
-1.00353
-0.995807
-1.02423
-1.08314
-1.07887
-1.07418
-1.06842
-1.06173
-1.05408
-1.04557
-1.03693
-1.0295
-1.03438
-1.12908
-1.12155
-1.1138
-1.10591
-1.09757
-1.08825
-1.07743
-1.06516
-1.0526
-1.04229
-1.18816
-1.17749
-1.16702
-1.15642
-1.14469
-1.13047
-1.11284
-1.09178
-1.06832
-1.04418
-1.2624
-1.24891
-1.23529
-1.2205
-1.20205
-1.1782
-1.14872
-1.11471
-1.07786
-1.04013
-1.35053
-1.3345
-1.31656
-1.29448
-1.26466
-1.22633
-1.18126
-1.1323
-1.08208
-1.03297
-1.4465
-1.42832
-1.40387
-1.37
-1.32381
-1.26711
-1.20442
-1.13998
-1.07665
-1.01625
-1.54039
-1.51993
-1.48596
-1.43578
-1.3694
-1.29266
-1.21245
-1.13354
-1.05844
-0.988375
-1.61924
-1.59573
-1.54936
-1.47964
-1.39163
-1.29544
-1.19922
-1.10738
-1.02173
-0.942713
-1.01468
-1.02134
-1.0299
-1.04196
-1.0594
-1.08205
-1.10882
-1.13918
-1.17486
-1.21832
-1.05907
-1.06298
-1.06904
-1.08005
-1.09752
-1.12106
-1.14948
-1.1818
-1.21868
-1.26225
-1.10644
-1.10692
-1.1096
-1.11925
-1.13611
-1.15962
-1.18863
-1.22184
-1.25865
-1.30021
-1.13461
-1.13067
-1.13053
-1.13778
-1.15265
-1.17448
-1.20216
-1.23447
-1.26995
-1.30726
-1.13551
-1.12793
-1.12451
-1.12815
-1.13909
-1.15684
-1.18057
-1.20933
-1.24197
-1.27647
-1.11391
-1.10474
-1.09853
-1.09725
-1.10125
-1.11061
-1.12509
-1.14421
-1.16733
-1.19219
-1.08243
-1.07433
-1.06708
-1.06132
-1.05719
-1.05522
-1.05609
-1.0603
-1.06843
-1.08082
-1.05116
-1.04615
-1.04003
-1.03221
-1.02238
-1.01104
-0.99936
-0.988811
-0.981419
-0.982951
-1.02552
-1.02364
-1.01967
-1.01176
-0.999657
-0.983806
-0.96558
-0.946941
-0.930713
-0.923814
-1.00781
-1.00831
-1.00565
-0.998349
-0.986432
-0.970379
-0.95125
-0.931053
-0.911962
-0.896529
-1.46383
-1.59477
-0.999615
-0.529585
-0.270721
-0.0701222
0.010734
0.0408263
0.0344134
0.0167134
-1.51543
-1.73147
-1.19564
-0.64819
-0.319319
-0.0896373
0.00370238
0.0375988
0.032525
0.0159135
-1.5619
-1.87179
-1.38254
-0.765286
-0.370117
-0.11289
-0.00660794
0.0320727
0.0294846
0.014598
-1.5729
-1.98327
-1.54187
-0.875435
-0.420944
-0.139015
-0.0198507
0.0244405
0.025376
0.0128204
-1.53081
-2.04553
-1.66732
-0.973926
-0.471131
-0.167295
-0.0356459
0.0149357
0.0203181
0.0106687
-1.43303
-2.05696
-1.7532
-1.0579
-0.520672
-0.197507
-0.0537058
0.0037868
0.014446
0.0082386
-1.28702
-2.01897
-1.7999
-1.12499
-0.568952
-0.229752
-0.073955
-0.00885617
0.00787762
0.00561708
-1.11889
-1.94025
-1.81154
-1.17354
-0.614191
-0.263778
-0.0964117
-0.0229802
0.000648403
0.00287249
-0.964778
-1.84161
-1.79517
-1.2042
-0.654484
-0.298649
-0.120933
-0.0386695
-0.00733402
2.55137e-05
-0.85148
-1.73525
-1.76419
-1.22258
-0.690153
-0.3335
-0.147127
-0.0559467
-0.0162314
-0.00296539
-0.729167
-1.67227
-1.6924
-1.18517
-0.694561
-0.361034
-0.175939
-0.077768
-0.0282525
-0.00696328
-0.784968
-1.48548
-1.49252
-1.07091
-0.670953
-0.385105
-0.209425
-0.104462
-0.0431116
-0.0117717
-0.783954
-1.27928
-1.29688
-0.974977
-0.657444
-0.413089
-0.244098
-0.130995
-0.057518
-0.0159568
-0.770891
-1.10035
-1.1312
-0.896662
-0.650724
-0.44696
-0.283958
-0.160634
-0.0738869
-0.0205304
-0.73249
-0.951376
-0.990225
-0.831253
-0.653291
-0.488821
-0.327419
-0.189522
-0.0879542
-0.0235944
-0.683987
-0.830685
-0.871882
-0.777873
-0.661283
-0.530366
-0.368115
-0.216886
-0.101258
-0.026375
-0.632945
-0.733544
-0.773035
-0.733403
-0.672851
-0.56918
-0.401705
-0.23745
-0.110702
-0.0275776
-0.583489
-0.65972
-0.700063
-0.700945
-0.678089
-0.588368
-0.418091
-0.249085
-0.116433
-0.028291
-0.547008
-0.622262
-0.663899
-0.681711
-0.674791
-0.590187
-0.420517
-0.252369
-0.118913
-0.0287738
-0.522366
-0.617107
-0.670305
-0.686035
-0.669867
-0.581808
-0.41643
-0.251938
-0.120381
-0.0298252
-0.806312
-0.863969
-0.907126
-0.940976
-0.967575
-0.995293
-1.02135
-1.04356
-1.03173
-1.00585
-0.650531
-0.716127
-0.770391
-0.815356
-0.852772
-0.882023
-0.902374
-0.911297
-0.908723
-0.903981
-0.526673
-0.594635
-0.653593
-0.702351
-0.742624
-0.772629
-0.794498
-0.808699
-0.818216
-0.827056
-0.425213
-0.493635
-0.553579
-0.604322
-0.646209
-0.680368
-0.707431
-0.731212
-0.750874
-0.771186
-0.342672
-0.41055
-0.46987
-0.521951
-0.565283
-0.603371
-0.634655
-0.663693
-0.688328
-0.712896
-0.27624
-0.342987
-0.401503
-0.453915
-0.498157
-0.537745
-0.5709
-0.601217
-0.62732
-0.652205
-0.224077
-0.289487
-0.347296
-0.399
-0.443225
-0.482224
-0.515281
-0.544615
-0.570298
-0.594078
-0.185636
-0.249832
-0.306984
-0.357367
-0.400772
-0.437988
-0.469698
-0.496732
-0.520505
-0.541325
-0.162604
-0.226037
-0.282784
-0.332316
-0.37514
-0.410928
-0.441218
-0.465541
-0.486573
-0.50292
-0.152597
-0.216448
-0.273422
-0.323315
-0.366265
-0.40217
-0.432061
-0.455273
-0.474342
-0.485862
0.58147
0.509251
0.426541
0.33793
0.242086
0.136621
0.021745
-0.095867
-0.194277
-0.241541
0.381211
0.303382
0.216558
0.121463
0.0162022
-0.100815
-0.228308
-0.357853
-0.465073
-0.515181
0.161865
0.081352
-0.00785385
-0.106921
-0.218001
-0.342267
-0.477767
-0.614744
-0.727587
-0.778498
-0.04845
-0.132135
-0.225219
-0.329156
-0.445772
-0.575984
-0.717577
-0.858997
-0.974106
-1.02354
-0.237479
-0.325526
-0.423627
-0.532987
-0.655107
-0.790557
-0.937002
-1.08081
-1.19187
-1.24074
-0.405066
-0.497456
-0.600028
-0.713733
-0.839879
-0.979019
-1.12619
-1.26725
-1.3742
-1.42117
-0.552384
-0.647653
-0.752625
-0.868337
-0.995823
-1.13456
-1.27899
-1.41412
-1.51383
-1.55714
-0.682138
-0.776911
-0.880926
-0.995222
-1.12038
-1.25493
-1.39223
-1.51678
-1.60557
-1.64393
-0.791093
-0.882646
-0.982933
-1.09271
-1.21188
-1.3379
-1.46306
-1.57228
-1.64754
-1.68042
-0.878051
-0.96422
-1.05828
-1.16047
-1.26985
-1.38285
-1.49114
-1.5814
-1.64197
-1.66968
1.89222
1.90789
1.92407
1.93956
1.95346
1.96505
1.97358
1.97902
1.98343
1.98805
1.82421
1.83663
1.84877
1.85953
1.86816
1.87393
1.87612
1.87498
1.87366
1.87486
1.73501
1.74318
1.75004
1.75467
1.75654
1.75492
1.74911
1.73969
1.73109
1.72812
1.62662
1.63
1.63055
1.62769
1.62123
1.61045
1.59467
1.57494
1.55729
1.54944
1.4989
1.49642
1.4897
1.47851
1.46288
1.44205
1.41536
1.38429
1.35655
1.34338
1.35587
1.34746
1.33255
1.31163
1.28522
1.25261
1.21331
1.16938
1.13044
1.11127
1.19758
1.18267
1.15956
1.12903
1.09175
1.04698
0.994338
0.936657
0.885812
0.860467
1.03324
1.01081
0.977342
0.934932
0.884908
0.826587
0.7597
0.687771
0.624921
0.593412
0.867759
0.837738
0.793512
0.738462
0.67455
0.60119
0.518422
0.430871
0.355371
0.317862
0.715869
0.668013
0.606239
0.535478
0.45669
0.36829
0.270128
0.16771
0.0805019
0.0377068
1.61497
1.60137
1.59106
1.58525
1.58512
1.58977
1.61012
1.64895
1.71571
1.82151
1.60884
1.59621
1.58675
1.57994
1.57967
1.58195
1.60049
1.63393
1.69127
1.77998
1.60331
1.59109
1.58228
1.57419
1.57364
1.57295
1.58948
1.61577
1.66126
1.72663
1.59831
1.58607
1.57766
1.56804
1.56705
1.56278
1.57714
1.59426
1.62626
1.66084
1.5938
1.58118
1.57288
1.56151
1.55987
1.55146
1.56345
1.56919
1.58688
1.58158
1.58975
1.57646
1.56794
1.55467
1.55206
1.53906
1.54832
1.54054
1.54336
1.48804
1.58617
1.57194
1.56283
1.54756
1.54357
1.52564
1.53163
1.5083
1.49581
1.37872
1.58306
1.56764
1.55756
1.54021
1.53438
1.5113
1.51316
1.4727
1.44397
1.2551
1.58046
1.56355
1.55213
1.53266
1.5245
1.49622
1.49277
1.43392
1.38603
1.11533
1.57839
1.55969
1.54661
1.52491
1.51407
1.48054
1.47158
1.39378
1.32503
0.97102
1.5764
1.55542
1.53925
1.51523
1.49952
1.45978
1.44053
1.3434
1.25313
0.833622
1.57567
1.55146
1.53095
1.50468
1.48231
1.43778
1.4053
1.30023
1.18205
0.815565
1.57683
1.54865
1.52249
1.49477
1.46473
1.41782
1.37158
1.26585
1.12441
0.810142
1.58041
1.54698
1.51414
1.48572
1.44729
1.40005
1.34022
1.23874
1.07732
0.809921
1.58709
1.54622
1.50602
1.4776
1.42932
1.38459
1.31127
1.21821
1.04089
0.812136
1.59752
1.54647
1.49823
1.47037
1.41175
1.37125
1.28514
1.20324
1.01441
0.813432
1.6115
1.54553
1.4894
1.46122
1.39401
1.35902
1.26239
1.19199
0.996155
0.814139
1.63671
1.54903
1.48363
1.45425
1.37859
1.34833
1.2437
1.18437
0.984361
0.81536
1.64928
1.54154
1.47137
1.44223
1.36567
1.34111
1.23166
1.18089
0.978921
0.818663
1.72582
1.55454
1.47513
1.43934
1.35985
1.33825
1.22633
1.18101
0.976442
0.823604
0.569789
0.407292
0.213206
0.0264992
-0.140347
-0.288574
-0.420936
-0.539599
-0.643963
-0.733511
0.525524
0.398001
0.2517
0.104062
-0.0327597
-0.158295
-0.273592
-0.381882
-0.482479
-0.572889
0.515326
0.407247
0.290302
0.169414
0.0520225
-0.0603512
-0.167133
-0.268556
-0.362397
-0.448722
0.532907
0.432214
0.327399
0.222352
0.118798
0.0174424
-0.0808787
-0.175338
-0.264857
-0.348429
0.555005
0.460011
0.362969
0.267745
0.174065
0.0811297
-0.0106836
-0.100543
-0.186631
-0.267976
0.577038
0.487296
0.396175
0.30734
0.22007
0.132738
0.0454247
-0.0411164
-0.124407
-0.203605
0.597279
0.512412
0.426074
0.341521
0.258063
0.174085
0.0896293
0.00556251
-0.0756656
-0.152941
0.615046
0.534638
0.45235
0.370564
0.288811
0.206144
0.122899
0.0402645
-0.0395967
-0.115399
0.630716
0.553979
0.474858
0.394219
0.312083
0.228677
0.145023
0.062504
-0.0172193
-0.0927064
0.643153
0.568088
0.489732
0.408067
0.32423
0.239511
0.155231
0.0725503
-0.00711529
-0.0825834
-1.64284
-1.60453
-1.52273
-1.4196
-1.31483
-1.21926
-1.13702
-1.06926
-1.01628
-0.978549
-1.71965
-1.68607
-1.61759
-1.52901
-1.4362
-1.34984
-1.27469
-1.21244
-1.16411
-1.13094
-1.73233
-1.70288
-1.64887
-1.57798
-1.5007
-1.42639
-1.36018
-1.30431
-1.26024
-1.22947
-1.69323
-1.66717
-1.62654
-1.57396
-1.51432
-1.45449
-1.39939
-1.35165
-1.31314
-1.28545
-1.62112
-1.59816
-1.56826
-1.5316
-1.489
-1.44423
-1.40106
-1.36195
-1.32869
-1.30221
-1.53609
-1.51642
-1.49426
-1.46917
-1.44021
-1.40867
-1.37681
-1.34635
-1.31921
-1.29672
-1.45433
-1.4384
-1.42176
-1.4041
-1.38448
-1.3631
-1.3409
-1.31911
-1.2987
-1.28062
-1.38508
-1.37317
-1.36082
-1.34784
-1.33388
-1.31886
-1.30312
-1.28665
-1.27163
-1.25797
-1.33137
-1.32319
-1.31445
-1.30494
-1.29475
-1.28399
-1.27284
-1.26174
-1.25036
-1.24783
-1.29183
-1.28683
-1.28107
-1.27437
-1.26704
-1.25937
-1.25148
-1.24429
-1.23455
-1.23726
-1.26338
-1.26069
-1.25723
-1.2528
-1.24784
-1.24278
-1.23801
-1.23376
-1.2274
-1.2062
-1.24343
-1.24203
-1.23976
-1.23667
-1.23324
-1.22983
-1.22657
-1.22325
-1.21767
-1.19329
-1.23054
-1.22921
-1.22741
-1.22528
-1.22304
-1.22094
-1.2192
-1.21757
-1.21444
-1.20553
-1.22056
-1.21932
-1.21866
-1.21896
-1.22022
-1.22245
-1.22569
-1.22988
-1.23507
-1.24373
-1.20445
-1.20438
-1.20626
-1.21074
-1.21768
-1.22693
-1.23842
-1.25207
-1.26786
-1.2871
-1.17353
-1.17577
-1.18078
-1.18924
-1.20107
-1.21611
-1.23425
-1.2553
-1.27874
-1.30435
-1.12594
-1.13112
-1.13912
-1.15057
-1.16583
-1.1848
-1.20708
-1.23199
-1.2591
-1.29092
-1.06796
-1.07548
-1.08534
-1.09813
-1.11492
-1.13566
-1.15976
-1.18667
-1.21769
-1.25742
-1.01719
-1.02599
-1.03689
-1.0501
-1.06711
-1.08817
-1.11257
-1.14006
-1.17296
-1.21522
-0.997443
-1.00583
-1.01603
-1.02883
-1.04607
-1.06776
-1.09301
-1.12159
-1.15593
-1.1991
-1.21879
-1.41535
-0.939565
-0.603128
-0.404969
-0.19081
-0.0602634
-0.00221508
0.013873
0.00908852
-1.29295
-1.48228
-0.901033
-0.495949
-0.323945
-0.156697
-0.0537512
-0.00301881
0.012987
0.00882642
-1.37337
-1.52217
-0.844575
-0.378981
-0.246439
-0.124058
-0.0450024
-0.000456657
0.0142675
0.00937056
-1.46143
-1.54652
-0.779872
-0.273062
-0.180227
-0.0944968
-0.0333944
0.00560859
0.0175194
0.0105687
-1.5399
-1.56647
-0.721835
-0.199428
-0.136957
-0.0709073
-0.0200504
0.0139834
0.0218927
0.0121264
-1.59116
-1.57498
-0.684686
-0.168628
-0.120851
-0.0543766
-0.00706148
0.0228117
0.0263688
0.0137222
-1.59459
-1.55762
-0.67703
-0.184482
-0.1304
-0.0446649
0.0034676
0.0305205
0.0301818
0.0151066
-1.54539
-1.51409
-0.699305
-0.240881
-0.154522
-0.0416331
0.0106225
0.0363866
0.0329748
0.0161485
-1.4768
-1.48261
-0.752608
-0.320569
-0.188882
-0.0452851
0.0142215
0.0401456
0.0346296
0.0167908
-1.44633
-1.50635
-0.851561
-0.418299
-0.227043
-0.0550434
0.0142618
0.0416627
0.0351144
0.0169941
-1.06107
-1.03926
-0.851905
-0.727286
-0.503765
-0.226857
-0.0576914
0.0100965
0.0222776
0.0123357
-1.0556
-1.02979
-0.847237
-0.729565
-0.510278
-0.230254
-0.0590601
0.0095104
0.0219665
0.0122155
-1.06659
-1.07077
-0.861112
-0.732434
-0.514189
-0.233281
-0.0611758
0.00771136
0.020841
0.0117847
-1.09876
-1.16403
-0.890436
-0.725932
-0.509632
-0.230785
-0.0629818
0.00464091
0.0188331
0.0109855
-1.15401
-1.30773
-0.927241
-0.676384
-0.466776
-0.217609
-0.0638211
0.000592917
0.0161749
0.00996605
-0.940631
-1.08579
-1.18442
-1.24824
-1.2659
-1.27219
-1.25432
-1.22655
-1.19236
-1.15211
-0.941467
-1.08892
-1.18612
-1.24828
-1.26091
-1.26675
-1.24731
-1.21549
-1.18733
-1.14349
-0.944033
-1.09314
-1.1895
-1.24989
-1.26025
-1.26552
-1.24479
-1.21613
-1.19242
-1.15739
-0.950085
-1.10122
-1.198
-1.25631
-1.26801
-1.26977
-1.2508
-1.22827
-1.20975
-1.19635
-0.96046
-1.11413
-1.21204
-1.26852
-1.28285
-1.2797
-1.26447
-1.24492
-1.23143
-1.23748
1.45009
1.4396
1.42226
1.4011
1.37697
1.34884
1.31597
1.28015
1.24951
1.23504
1.55997
1.56163
1.5568
1.54745
1.53471
1.51805
1.49691
1.47267
1.45181
1.44246
1.6667
1.67393
1.67646
1.67557
1.67205
1.66542
1.65501
1.64161
1.62995
1.6253
1.76142
1.77327
1.78231
1.78899
1.79357
1.79549
1.794
1.78946
1.78533
1.7849
1.84214
1.85751
1.87117
1.88321
1.89362
1.90182
1.90706
1.90943
1.9113
1.91436
1.90387
1.92154
1.93875
1.95511
1.97026
1.98356
1.99427
2.00215
2.00871
2.01463
1.94548
1.96473
1.98429
2.00346
2.02162
2.03813
2.05222
2.06353
2.07307
2.08086
1.96547
1.98526
2.00591
2.02646
2.0461
2.06414
2.07982
2.09271
2.10362
2.11227
1.9633
1.98271
2.00318
2.02359
2.043
2.06074
2.07603
2.08848
2.099
2.10742
1.93884
1.9569
1.97589
1.99461
2.01212
2.02769
2.0406
2.05056
2.0589
2.06597
-0.774041
-0.817999
-0.875757
-0.947896
-1.03519
-1.13697
-1.24998
-1.36362
-1.45572
-1.49841
-0.524362
-0.574572
-0.637268
-0.713218
-0.803572
-0.908472
-1.0264
-1.14703
-1.24619
-1.29171
-0.244025
-0.300132
-0.367494
-0.446547
-0.538585
-0.64427
-0.762072
-0.883228
-0.988213
-1.03481
0.0457669
-0.0145865
-0.0848358
-0.165104
-0.25661
-0.360171
-0.474593
-0.592977
-0.694584
-0.743025
0.324093
0.262476
0.19253
0.114299
0.0266358
-0.0714924
-0.179349
-0.290764
-0.385542
-0.432268
0.57586
0.5172
0.451725
0.379476
0.299294
0.209999
0.112054
0.0109534
-0.0747529
-0.117557
0.797655
0.745886
0.688563
0.625568
0.555673
0.477631
0.391745
0.302917
0.227756
0.190165
0.997112
0.953828
0.905993
0.853404
0.794698
0.728598
0.655339
0.579268
0.515024
0.483106
1.18316
1.14749
1.10736
1.0636
1.01495
0.960067
0.899031
0.835518
0.782061
0.755857
1.34619
1.31791
1.28413
1.24828
1.20966
1.16665
1.11879
1.06871
1.02653
1.00618
1.72869
1.63829
1.6159
1.60623
1.60078
1.60743
1.61792
1.64055
1.63284
1.57598
1.71123
1.63736
1.6159
1.60764
1.60289
1.61073
1.62426
1.65152
1.66339
1.64806
1.6955
1.63545
1.61504
1.60806
1.60405
1.6128
1.62949
1.66375
1.69316
1.71783
1.68136
1.63274
1.61352
1.60758
1.60433
1.6137
1.63308
1.67246
1.71738
1.77419
1.66865
1.62936
1.61146
1.60631
1.60381
1.61354
1.63487
1.67811
1.73574
1.81861
1.65721
1.62545
1.60892
1.60432
1.60253
1.6123
1.63488
1.68068
1.74793
1.85035
1.64691
1.62112
1.60598
1.60164
1.60047
1.60998
1.63318
1.68018
1.75377
1.86854
1.63763
1.61645
1.60268
1.59834
1.59768
1.60657
1.62982
1.67665
1.75332
1.87523
1.62928
1.61156
1.59907
1.59448
1.59416
1.60207
1.62484
1.67023
1.74678
1.86947
1.62175
1.6065
1.59518
1.5901
1.58997
1.59647
1.61826
1.661
1.73423
1.85143
1.89567
1.6412
1.60823
1.59315
1.5888
1.59102
1.58857
1.59033
1.52673
1.47149
1.82124
1.63524
1.60927
1.59614
1.59062
1.59225
1.5894
1.59174
1.52922
1.46819
1.79828
1.6402
1.61287
1.59913
1.59268
1.59447
1.59231
1.59616
1.53994
1.46817
1.7716
1.63985
1.61451
1.60179
1.59509
1.59782
1.59857
1.60581
1.56043
1.47963
1.74843
1.63897
1.6154
1.60412
1.59781
1.60223
1.60658
1.62017
1.59038
1.50341
1.22806
1.11881
0.972576
0.784936
0.558499
0.30065
0.0232789
-0.256476
-0.519782
-0.750239
1.2228
1.117
0.976327
0.793958
0.572991
0.318924
0.0420866
-0.240633
-0.509608
-0.746447
1.23372
1.12445
0.982077
0.801867
0.584966
0.333595
0.056483
-0.229309
-0.50316
-0.745212
1.26622
1.14358
0.991039
0.809193
0.594563
0.344633
0.0665443
-0.222366
-0.500606
-0.747411
1.32175
1.177
1.00541
0.815957
0.600277
0.351005
0.0726329
-0.218621
-0.501225
-0.753381
)
;

boundaryField
{
    left
    {
        type            zeroGradient;
    }
    right
    {
        type            fixedValue;
        value           uniform 0;
    }
    down
    {
        type            zeroGradient;
    }
    up
    {
        type            zeroGradient;
    }
    cylinder
    {
        type            zeroGradient;
    }
    defaultFaces
    {
        type            empty;
    }
}


// ************************************************************************* //
