/*--------------------------------*- C++ -*----------------------------------*\
  =========                 |
  \\      /  F ield         | OpenFOAM: The Open Source CFD Toolbox
   \\    /   O peration     | Website:  https://openfoam.org
    \\  /    A nd           | Version:  13
     \\/     M anipulation  |
\*---------------------------------------------------------------------------*/
FoamFile
{
    format      ascii;
    class       volVectorField;
    location    "3.65";
    object      U;
}
// * * * * * * * * * * * * * * * * * * * * * * * * * * * * * * * * * * * * * //

dimensions      [0 1 -1 0 0 0 0];

internalField   nonuniform List<vector> 
1800
(
(-0.0321548 0.0255945 1.33857e-20)
(-0.0774291 0.0436556 5.94895e-21)
(-0.101367 0.0483707 -1.66869e-20)
(-0.10106 0.0479322 3.53049e-20)
(-0.071003 0.0470786 1.25301e-19)
(-0.00629277 0.0478741 6.57048e-20)
(0.0958722 0.0515824 -3.47808e-20)
(0.232359 0.0576793 -3.51781e-20)
(0.414386 0.0953243 8.64597e-20)
(0.500727 0.132084 9.92729e-20)
(-0.0462821 0.0347721 1.00242e-20)
(-0.0888375 0.0602437 -2.19209e-20)
(-0.0862992 0.0628407 2.33386e-22)
(-0.0391747 0.0524876 -4.84251e-20)
(0.0554935 0.0358644 2.03921e-20)
(0.199449 0.0165975 1.2493e-19)
(0.39122 -0.00272951 -7.72383e-20)
(0.621597 -0.0239265 4.71919e-20)
(0.899203 -0.0210139 -1.21466e-19)
(1.05957 -0.0209776 1.31243e-19)
(-0.050154 0.0334281 3.531e-21)
(-0.0748526 0.0558715 1.30686e-20)
(-0.0305981 0.0547676 -1.39169e-21)
(0.0798001 0.0391116 -9.04378e-21)
(0.255156 0.0165009 -1.13256e-19)
(0.489164 -0.00781931 2.41719e-20)
(0.767892 -0.029869 5.16538e-20)
(1.07125 -0.0477062 -2.0576e-20)
(1.38227 -0.0562296 -7.98535e-23)
(1.64452 -0.07388 -2.29781e-21)
(-0.0447784 0.0255694 -7.03351e-21)
(-0.0333202 0.0348836 -2.22654e-20)
(0.0731751 0.0251224 -2.25587e-20)
(0.26798 0.00456023 2.20465e-20)
(0.539524 -0.0189062 1.8942e-20)
(0.864891 -0.0394645 8.57494e-21)
(1.21232 -0.0540065 -2.61467e-21)
(1.54942 -0.0615395 7.23433e-20)
(1.85193 -0.0644194 6.29872e-20)
(2.09338 -0.0666636 -2.56531e-20)
(-0.0297517 0.015161 5.54819e-20)
(0.0412713 0.00891708 5.16353e-20)
(0.234357 -0.00821633 -3.58156e-20)
(0.530869 -0.0276916 -4.41738e-20)
(0.897184 -0.0422005 -1.09893e-19)
(1.28628 -0.0486301 1.82395e-21)
(1.65189 -0.0476924 1.4253e-19)
(1.96122 -0.0423332 7.36223e-20)
(2.19707 -0.0354026 2.77102e-21)
(2.36717 -0.0356144 -6.95764e-20)
(-0.00103756 0.00319763 -5.58292e-20)
(0.156919 -0.0157062 -1.11428e-20)
(0.457543 -0.0329994 1.85586e-19)
(0.85678 -0.04115 -4.66278e-20)
(1.28925 -0.0379103 -1.22791e-19)
(1.68975 -0.0264047 2.48465e-19)
(2.01522 -0.0119111 -2.72348e-19)
(2.25016 0.00106259 -3.84151e-19)
(2.4027 0.00971994 3.30002e-19)
(2.48864 0.0130629 7.53072e-22)
(0.0449693 -0.00833971 6.35646e-20)
(0.315675 -0.0316449 -1.33809e-19)
(0.730733 -0.0375835 -4.39862e-19)
(1.20821 -0.0245944 2.07639e-19)
(1.65662 -0.000516512 4.66842e-19)
(2.01521 0.0251617 -1.85706e-21)
(2.26545 0.0460533 -1.04181e-18)
(2.41974 0.059608 3.25508e-21)
(2.50317 0.0670738 1.29853e-18)
(2.54298 0.0659574 3.6129e-19)
(0.109367 -0.0159139 6.32457e-20)
(0.510115 -0.0302932 3.32334e-19)
(1.02624 -0.012922 3.56016e-19)
(1.53899 0.0253318 -1.15915e-19)
(1.95597 0.0658851 -4.4025e-19)
(2.24501 0.0977881 -1.6856e-19)
(2.41938 0.118099 0)
(2.51085 0.128413 5.54987e-19)
(2.551 0.131466 -7.99586e-21)
(2.56111 0.128704 -5.35004e-19)
(0.189558 -0.0154148 5.72782e-20)
(0.72328 -0.00451585 3.33948e-19)
(1.31003 0.0446747 6.22201e-19)
(1.81559 0.105542 -6.44159e-19)
(2.17487 0.154893 -5.64955e-19)
(2.39239 0.186323 2.35891e-19)
(2.50485 0.202206 -1.13957e-18)
(2.55209 0.207318 -8.59436e-19)
(2.56351 0.206096 1.07045e-18)
(2.55607 0.199048 9.34647e-19)
(0.279752 -0.00326572 -4.91022e-20)
(0.933686 0.0489243 2.62738e-19)
(1.55523 0.132727 1.68261e-19)
(2.0254 0.20975 -1.34595e-18)
(2.32028 0.260791 5.0194e-20)
(2.47559 0.286985 2.76075e-18)
(2.54158 0.295694 -1.60888e-18)
(2.55926 0.294189 -9.55863e-19)
(2.55377 0.287172 3.36e-19)
(2.53616 0.276046 -7.71873e-19)
(-0.0119346 0.144045 4.24715e-20)
(-0.0642722 0.320831 -8.08469e-20)
(-0.132634 0.408611 1.32708e-21)
(-0.207371 0.442595 -6.97214e-21)
(-0.280925 0.451692 3.4642e-21)
(-0.351438 0.451428 2.0354e-19)
(-0.418109 0.447465 9.6669e-20)
(-0.480635 0.441154 -2.97418e-19)
(-0.541529 0.432869 4.09719e-21)
(-0.605933 0.423334 -1.53231e-20)
(-0.0238128 0.185955 -1.39726e-20)
(-0.0734231 0.419621 -1.55905e-20)
(-0.129629 0.541067 3.98352e-20)
(-0.188912 0.591234 4.1299e-20)
(-0.246963 0.605941 -5.10557e-20)
(-0.302185 0.606159 2.03257e-19)
(-0.353607 0.600474 -2.70118e-19)
(-0.400479 0.591237 -3.33142e-19)
(-0.444194 0.578885 3.43842e-19)
(-0.48962 0.564032 -1.06033e-19)
(-0.0351619 0.191068 -2.84035e-20)
(-0.0810147 0.457903 2.76233e-21)
(-0.120867 0.615676 -9.69125e-21)
(-0.158228 0.69181 -1.84709e-19)
(-0.194274 0.719861 -5.90821e-20)
(-0.228185 0.724638 6.28529e-19)
(-0.258962 0.718896 -1.85666e-19)
(-0.285529 0.707365 -3.81154e-19)
(-0.307657 0.6913 4.54304e-19)
(-0.328361 0.67126 2.71192e-19)
(-0.0397905 0.161467 -1.48082e-20)
(-0.0816342 0.426935 -5.03411e-21)
(-0.106542 0.614844 2.18199e-21)
(-0.122746 0.725522 -5.32623e-21)
(-0.135782 0.778431 1.06554e-19)
(-0.147085 0.796248 -2.13512e-19)
(-0.156416 0.795376 -1.72974e-19)
(-0.162954 0.784508 2.03663e-19)
(-0.165551 0.766919 -1.37193e-21)
(-0.161597 0.743531 9.01864e-21)
(-0.0345721 0.110974 0)
(-0.0712087 0.337315 -8.1081e-21)
(-0.0860517 0.533856 1.39844e-20)
(-0.0865277 0.677195 6.33738e-20)
(-0.0797497 0.765816 2.35946e-19)
(-0.0693074 0.810871 -1.70931e-19)
(-0.0565148 0.82611 6.54667e-20)
(-0.0413943 0.822571 5.02793e-20)
(-0.0233822 0.806996 0)
(0.0034274 0.782404 1.8204e-20)
(-0.0216584 0.0582314 -2.64242e-20)
(-0.0500856 0.219282 6.41718e-20)
(-0.0603598 0.392394 4.6035e-20)
(-0.0545736 0.545445 -5.93098e-20)
(-0.0373141 0.66207 5.721e-20)
(-0.0122677 0.739756 9.48307e-20)
(0.0180087 0.783481 -2.86138e-19)
(0.0521841 0.800669 -3.68532e-20)
(0.0884971 0.797724 3.6966e-19)
(0.135659 0.777556 9.16388e-21)
(-0.0069761 0.0182307 7.62834e-21)
(-0.0255711 0.111378 1.05732e-19)
(-0.035511 0.237401 -5.99787e-20)
(-0.0328124 0.368589 -1.01388e-20)
(-0.0172989 0.485206 -3.63787e-20)
(0.0096052 0.577187 -5.06433e-21)
(0.0458464 0.641891 5.74053e-20)
(0.0896052 0.681228 5.45484e-20)
(0.138281 0.699014 -9.15966e-20)
(0.196238 0.690921 -1.38168e-19)
(0.00332569 -0.00337047 1.96735e-20)
(-0.00896551 0.0385207 -4.58738e-20)
(-0.0226273 0.114044 -7.31399e-20)
(-0.0292246 0.204456 2.57066e-20)
(-0.0244698 0.294367 5.24054e-21)
(-0.00704145 0.373213 1.64925e-19)
(0.0225645 0.435449 1.87012e-19)
(0.0630158 0.479524 -5.09137e-20)
(0.114276 0.506983 -1.72157e-20)
(0.171037 0.499673 -4.28595e-20)
(0.00425971 -0.00761993 1.71039e-20)
(-0.0124521 0.00553883 -4.34998e-20)
(-0.0353288 0.0409935 9.1257e-20)
(-0.0545318 0.0888466 1.2166e-19)
(-0.0634231 0.140738 -1.1025e-19)
(-0.0588868 0.189509 2.5382e-19)
(-0.0397043 0.230391 -2.55683e-20)
(-0.00548475 0.260888 -4.24992e-19)
(0.0459015 0.278802 -6.67457e-20)
(0.109203 0.26437 3.39535e-22)
(-0.0106307 0.00610834 -8.43596e-22)
(-0.0446881 0.0137766 -1.25494e-20)
(-0.0783725 0.025205 -1.314e-20)
(-0.103998 0.0410439 5.94678e-20)
(-0.114794 0.0603544 1.1994e-19)
(-0.10645 0.0807766 -1.64655e-19)
(-0.0759959 0.100959 -1.81036e-19)
(-0.0220443 0.119992 1.2449e-19)
(0.0567429 0.136356 -1.18962e-19)
(0.15152 0.139403 -7.08189e-20)
(-0.933697 0.373205 1.53907e-19)
(-1.12791 0.319283 -1.36334e-18)
(-0.553788 0.0496812 -5.61931e-19)
(-0.0243019 -0.300557 4.00984e-19)
(0.40497 -0.528995 -1.14319e-19)
(0.639681 -0.514241 -7.89074e-20)
(0.809527 -0.447709 -2.96278e-20)
(0.920098 -0.334148 1.61642e-21)
(0.980121 -0.268712 1.73923e-20)
(1.06001 -0.168131 3.72878e-21)
(-0.738014 0.477179 4.08629e-19)
(-0.856169 0.282213 5.38888e-19)
(-0.351304 -0.113485 -4.08355e-20)
(0.157997 -0.44151 -4.59044e-19)
(0.556457 -0.620036 -6.0687e-19)
(0.764193 -0.573132 0)
(0.90687 -0.483692 -4.57764e-20)
(0.98765 -0.355839 4.05436e-21)
(1.02948 -0.284304 1.61326e-22)
(1.08373 -0.178097 -9.78545e-21)
(-0.479587 0.550424 8.27993e-20)
(-0.508574 0.251562 -3.38279e-19)
(-0.0641497 -0.24681 4.39564e-19)
(0.388941 -0.563885 1.14068e-19)
(0.733173 -0.698883 4.62678e-20)
(0.899849 -0.622983 -4.06297e-20)
(1.00761 -0.512174 0)
(1.05742 -0.371422 0)
(1.08171 -0.294059 -2.14087e-20)
(1.10933 -0.184489 0)
(-0.205454 0.591052 -3.21367e-20)
(-0.144756 0.220282 4.49113e-19)
(0.251758 -0.344822 -1.05562e-19)
(0.645219 -0.665773 0)
(0.923538 -0.762693 4.56269e-19)
(1.04188 -0.661315 -8.37987e-20)
(1.10863 -0.531959 0)
(1.12538 -0.380901 7.78437e-20)
(1.13298 -0.298273 0)
(1.135 -0.187306 1.19451e-20)
(0.0398338 0.605859 2.27694e-19)
(0.197821 0.193636 1.8506e-19)
(0.573356 -0.417552 6.61319e-20)
(0.907921 -0.746929 0)
(1.11545 -0.811562 1.82405e-19)
(1.18333 -0.687685 1.85751e-19)
(1.20781 -0.542357 -2.27514e-20)
(1.18977 -0.384086 -3.17487e-21)
(1.1807 -0.297353 -1.75676e-20)
(1.15909 -0.186773 2.05837e-21)
(0.247915 0.599252 1.696e-18)
(0.498498 0.177779 8.17931e-20)
(0.882305 -0.470088 -3.18334e-20)
(1.16721 -0.807423 4.24923e-19)
(1.30228 -0.846261 -3.0497e-19)
(1.31806 -0.703052 8.68627e-20)
(1.30254 -0.543739 1.93891e-19)
(1.24998 -0.380896 -1.63251e-19)
(1.22373 -0.29161 3.7698e-22)
(1.18045 -0.183187 -2.67765e-20)
(0.406297 0.564128 3.80899e-20)
(0.752191 0.164284 -1.25511e-19)
(1.17214 -0.506085 -8.02957e-20)
(1.41365 -0.847508 -1.16115e-20)
(1.4793 -0.867404 -2.09436e-19)
(1.44268 -0.708674 -4.15202e-20)
(1.3904 -0.537257 -7.64977e-20)
(1.30567 -0.371638 9.80496e-21)
(1.26194 -0.281277 2.25543e-20)
(1.19859 -0.176825 -5.58547e-22)
(0.470702 0.484629 -6.75909e-19)
(0.957792 0.146293 -2.49921e-19)
(1.44039 -0.529801 0)
(1.63961 -0.867437 1.08125e-19)
(1.64116 -0.87514 1.60034e-19)
(1.55506 -0.705666 -2.49549e-20)
(1.4696 -0.524378 -2.44748e-19)
(1.35641 -0.35709 6.9078e-20)
(1.29568 -0.266673 -1.16769e-21)
(1.21352 -0.167928 -1.31312e-20)
(0.413407 0.348253 7.18579e-19)
(1.1429 0.101964 7.18085e-19)
(1.6904 -0.544978 -1.07465e-19)
(1.84121 -0.868416 -6.47025e-20)
(1.7842 -0.869358 2.27247e-20)
(1.65402 -0.694753 -2.12603e-19)
(1.53908 -0.506492 8.92899e-20)
(1.40171 -0.338413 -1.42558e-21)
(1.32526 -0.248405 3.0295e-21)
(1.2255 -0.156769 1.92112e-20)
(0.343816 0.160697 -4.27144e-19)
(1.35659 0.02863 6.6478e-19)
(1.92537 -0.556486 1.97303e-19)
(2.01566 -0.856073 -6.35422e-20)
(1.9068 -0.852506 -1.27151e-19)
(1.73945 -0.677 -1.01008e-19)
(1.59862 -0.484782 -3.83234e-20)
(1.44112 -0.316916 0)
(1.35074 -0.227389 -3.59379e-20)
(1.23492 -0.14371 2.47692e-20)
(1.04467 0.0558732 -3.79144e-19)
(1.81996 -0.140289 -5.0161e-19)
(2.23864 -0.600391 3.919e-19)
(2.22335 -0.833121 6.9731e-21)
(2.04802 -0.81795 1.04424e-20)
(1.83471 -0.644334 -8.80928e-20)
(1.66141 -0.449809 -8.74435e-20)
(1.4818 -0.284537 4.45647e-20)
(1.37637 -0.196647 -1.64116e-20)
(1.24413 -0.125167 -1.34965e-20)
(1.96239 0.0402262 -2.70958e-20)
(2.46153 -0.262079 -1.04061e-18)
(2.6056 -0.641222 -1.04732e-18)
(2.37015 -0.798079 9.51331e-20)
(2.09608 -0.736081 -9.82818e-20)
(1.85279 -0.548465 1.37837e-19)
(1.67021 -0.361097 1.67425e-19)
(1.48694 -0.21619 -2.40902e-20)
(1.38336 -0.143927 7.52533e-20)
(1.24549 -0.0958899 8.18032e-21)
(2.3567 -0.0362206 7.77247e-20)
(2.64826 -0.306629 2.43294e-20)
(2.56455 -0.584022 2.15132e-20)
(2.30838 -0.689301 1.83803e-35)
(2.1042 -0.641233 -3.97241e-20)
(1.89789 -0.477239 -4.90387e-34)
(1.71294 -0.303035 2.67608e-20)
(1.51237 -0.169656 7.94405e-34)
(1.39701 -0.102236 -2.7802e-21)
(1.24765 -0.069525 4.94869e-21)
(2.45641 -0.0796336 5.96838e-35)
(2.58236 -0.290006 4.34131e-19)
(2.51323 -0.523534 4.06002e-19)
(2.34683 -0.636022 0)
(2.14871 -0.586048 5.49939e-21)
(1.90636 -0.404428 -1.00268e-19)
(1.689 -0.22116 -1.23637e-19)
(1.476 -0.101135 2.10663e-33)
(1.3626 -0.0483934 -4.36826e-20)
(1.225 -0.0386949 -6.36205e-21)
(2.43893 -0.114136 5.58956e-20)
(2.50746 -0.280034 -5.99617e-21)
(2.4753 -0.486367 0)
(2.31517 -0.5708 0)
(2.09058 -0.494057 0)
(1.83799 -0.31004 0)
(1.62508 -0.141159 7.23335e-21)
(1.42228 -0.0427971 2.43236e-33)
(1.31844 -0.00536667 -4.01008e-21)
(1.19578 -0.0137069 -9.00403e-34)
(2.4056 -0.138809 7.00446e-20)
(2.4465 -0.272076 0)
(2.42226 -0.441071 0)
(2.23901 -0.501175 0)
(1.96488 -0.408111 0)
(1.6825 -0.223736 0)
(1.47166 -0.0670649 -1.45861e-20)
(1.29764 0.0117196 6.34542e-20)
(1.22227 0.0345733 -4.6042e-21)
(1.13583 0.00908119 -3.21717e-21)
(2.3622 -0.154837 0)
(2.37752 -0.260953 1.48975e-19)
(2.30149 -0.389412 1.49719e-19)
(2.01275 -0.408128 0)
(1.66111 -0.292546 -1.46443e-20)
(1.37404 -0.124311 -5.05417e-20)
(1.2028 -0.000402484 -5.89832e-20)
(1.09124 0.0496995 -2.8057e-20)
(1.06548 0.056147 2.13739e-20)
(1.03266 0.021536 -1.08181e-20)
(2.23782 -0.154377 -6.36165e-21)
(2.17872 -0.231048 -5.42416e-21)
(1.95276 -0.295713 1.9182e-21)
(1.52845 -0.267892 -2.29049e-35)
(1.13814 -0.160174 5.23819e-21)
(0.901697 -0.0405506 -1.68386e-34)
(0.81808 0.0368969 -1.57868e-20)
(0.79989 0.0610127 -4.21083e-20)
(0.834755 0.0562 -4.93742e-21)
(0.857693 0.0228876 9.46409e-21)
(1.78303 -0.127437 3.85826e-20)
(1.58721 -0.157661 -3.71323e-20)
(1.20613 -0.145189 -2.59303e-20)
(0.761995 -0.0975282 0)
(0.474808 -0.045102 -7.16457e-21)
(0.363388 0.000849797 -5.71597e-21)
(0.379915 0.0337876 -1.7166e-20)
(0.441055 0.0421354 2.48646e-21)
(0.516507 0.0352426 -1.22846e-20)
(0.572328 0.0144158 -8.27085e-21)
(0.675907 -0.0267519 0)
(0.470316 -0.0103363 0)
(0.261532 0.000842395 0)
(0.104034 -0.00291367 0)
(0.00442753 -0.0057081 0)
(-0.0319189 -0.00213742 0)
(0.00156297 0.0042289 -1.5332e-20)
(0.0639728 0.00634205 6.21045e-35)
(0.125058 0.00502911 -5.36208e-21)
(0.171004 0.0019125 -9.87635e-21)
(2.47886 0.250685 7.46376e-19)
(2.51722 0.186541 4.50716e-20)
(2.53379 0.121981 -7.15635e-20)
(2.5512 0.0745241 -2.26988e-19)
(2.55106 0.0176483 -3.95336e-20)
(2.51914 -0.00737663 -5.96378e-20)
(2.48388 -0.0611437 -1.85446e-19)
(2.26031 -0.0541128 2.27453e-20)
(2.10802 -0.0929744 0)
(1.44863 -0.038631 4.87241e-20)
(2.40442 0.211046 2.41951e-19)
(2.41432 0.16673 -2.69611e-19)
(2.48214 0.107325 -6.02542e-20)
(2.45904 0.072382 -1.13421e-19)
(2.54517 0.0195166 9.31531e-20)
(2.47152 -0.0114225 1.59378e-19)
(2.57955 -0.0522119 -1.85735e-19)
(2.42097 -0.0957625 1.39898e-20)
(2.49662 -0.102635 -4.51837e-20)
(2.19838 -0.167286 5.31239e-20)
(2.35724 0.179637 -1.08326e-19)
(2.33644 0.136424 2.47492e-19)
(2.43327 0.096304 1.45196e-19)
(2.38389 0.0515027 -2.46115e-19)
(2.49034 0.0250876 -4.30566e-20)
(2.41774 -0.0293732 3.30843e-19)
(2.52253 -0.0346006 5.30794e-20)
(2.44327 -0.106454 -5.1212e-20)
(2.51259 -0.0837598 -2.37016e-20)
(2.43604 -0.169188 -2.20686e-20)
(2.31001 0.14728 -2.91194e-19)
(2.29837 0.101112 -5.77487e-20)
(2.37759 0.0799544 3.97693e-20)
(2.35147 0.0278257 -6.72837e-21)
(2.42287 0.0200983 -2.19739e-19)
(2.39429 -0.0402858 -7.18465e-20)
(2.44823 -0.0326264 1.84359e-19)
(2.43294 -0.0993517 -1.19163e-20)
(2.46101 -0.079372 3.38594e-20)
(2.46358 -0.145588 1.19281e-20)
(2.26267 0.112611 3.5758e-20)
(2.27538 0.0703165 1.32712e-19)
(2.32433 0.0567623 -1.39385e-20)
(2.33057 0.010127 1.5747e-19)
(2.36685 0.0050967 -5.70348e-20)
(2.37374 -0.0446116 -2.06786e-19)
(2.39499 -0.042167 3.13084e-20)
(2.40835 -0.0916824 -6.34845e-20)
(2.41648 -0.0853681 -1.29036e-20)
(2.43676 -0.131273 -2.19478e-20)
(2.21914 0.0762112 -1.61483e-19)
(2.24633 0.0431558 -6.73057e-20)
(2.27834 0.0299541 -1.29609e-20)
(2.30075 -0.00487505 1.0223e-19)
(2.32272 -0.0139315 2.65011e-19)
(2.343 -0.0492766 -6.06304e-20)
(2.35545 -0.0554236 5.46301e-21)
(2.37537 -0.0897623 -7.82344e-20)
(2.3805 -0.0945837 -1.15901e-19)
(2.40107 -0.126915 -2.27402e-20)
(2.16687 0.0411847 -5.16939e-20)
(2.19848 0.0172093 -1.19502e-19)
(2.2245 0.00405215 -1.47955e-19)
(2.2524 -0.0204283 -2.61023e-19)
(2.27126 -0.0319435 7.86787e-20)
(2.29672 -0.056822 6.71243e-20)
(2.30854 -0.0674967 -8.53985e-21)
(2.3331 -0.0926948 8.06816e-20)
(2.33803 -0.102893 -7.75884e-20)
(2.36408 -0.128335 -4.92494e-20)
(2.05505 0.00916493 6.12953e-20)
(2.08654 -0.00728607 2.58668e-20)
(2.10508 -0.0178174 1.70728e-20)
(2.13662 -0.0346065 -3.6089e-20)
(2.14887 -0.0444971 -3.43143e-20)
(2.18235 -0.062282 -5.33549e-20)
(2.18751 -0.0722269 -4.8156e-20)
(2.2252 -0.0917214 1.04782e-19)
(2.22183 -0.102047 -4.47588e-20)
(2.26681 -0.123764 7.80787e-21)
(1.73788 -0.0169885 -6.89673e-20)
(1.75563 -0.0255356 -1.35132e-20)
(1.7598 -0.0315092 1.23886e-19)
(1.78138 -0.0401731 -1.83177e-20)
(1.77986 -0.0458593 -3.54189e-20)
(1.80843 -0.0555779 7.35822e-20)
(1.7988 -0.0617968 -5.63295e-20)
(1.83753 -0.0735197 4.4511e-20)
(1.81598 -0.0812218 -1.98546e-20)
(1.86911 -0.0957176 -9.04558e-20)
(0.878789 -0.0117079 5.12392e-20)
(0.868589 -0.0111529 4.37869e-20)
(0.856965 -0.0106874 4.37094e-20)
(0.849659 -0.0105353 7.256e-20)
(0.838261 -0.0107468 -3.706e-20)
(0.835015 -0.0113143 -5.01344e-20)
(0.820693 -0.0124003 2.27672e-20)
(0.823792 -0.0143776 -2.43984e-21)
(0.797764 -0.0155227 3.63988e-21)
(0.817334 -0.0227207 -5.46158e-21)
(1.55925 0.956866 -8.41627e-20)
(1.54333 1.00268 2.61656e-20)
(1.54696 1.05621 -6.31312e-19)
(1.55556 1.11699 2.2993e-19)
(1.56192 1.18094 1.18476e-18)
(1.55734 1.23991 -1.43796e-19)
(1.51982 1.27134 -1.04902e-18)
(1.39924 1.22317 -8.47676e-23)
(1.10733 1.00034 -5.13686e-19)
(0.517925 0.479152 1.16119e-19)
(1.72242 0.927458 0)
(1.71125 0.971694 7.28612e-19)
(1.71118 1.0213 1.61453e-18)
(1.7193 1.07947 -9.96806e-19)
(1.72882 1.1418 -2.32757e-18)
(1.72736 1.19855 -1.51112e-19)
(1.68759 1.22587 -1.93697e-19)
(1.55179 1.17243 7.07206e-19)
(1.22199 0.949405 1.06215e-18)
(0.565739 0.447192 4.16664e-19)
(1.87267 0.888511 6.6713e-20)
(1.87028 0.932296 0)
(1.87156 0.978795 -6.58688e-20)
(1.88036 1.03228 1.01593e-18)
(1.89186 1.08958 5.46057e-20)
(1.89144 1.14062 -2.26435e-18)
(1.8467 1.16106 1.431e-18)
(1.69265 1.10159 8.40967e-19)
(1.32338 0.881152 -9.06187e-19)
(0.604203 0.40612 -2.65224e-19)
(2.00552 0.840698 -1.8511e-19)
(2.01261 0.882423 -1.35987e-19)
(2.01895 0.925203 2.77011e-19)
(2.03047 0.973142 -3.43591e-19)
(2.04372 1.02381 -1.58715e-18)
(2.04248 1.06719 -1.23365e-18)
(1.98976 1.07897 1.29075e-18)
(1.81397 1.01158 8.53842e-19)
(1.40282 0.795547 0)
(0.6286 0.356216 0)
(2.12163 0.778192 -9.05022e-19)
(2.1371 0.817265 -1.6635e-18)
(2.14989 0.856349 -6.38753e-19)
(2.16521 0.898888 -3.26714e-20)
(2.17975 0.942615 0)
(2.17576 0.976847 1.30878e-19)
(2.11113 0.978189 1.50608e-19)
(1.90791 0.904966 1.87527e-19)
(1.45355 0.696272 -2.67783e-19)
(0.635635 0.29872 -6.69035e-20)
(2.22418 0.70611 1.07981e-18)
(2.24585 0.7409 -3.99267e-20)
(2.26405 0.775334 -1.2659e-18)
(2.28251 0.811781 0)
(2.2968 0.84734 0)
(2.28615 0.871761 0)
(2.20337 0.862905 1.43684e-18)
(1.9672 0.783389 -1.57674e-18)
(1.47045 0.584254 -9.91051e-19)
(0.622388 0.236287 1.78945e-20)
(2.31292 0.623548 -1.39699e-18)
(2.33915 0.653703 -2.93139e-18)
(2.36105 0.683402 -5.08472e-21)
(2.38076 0.71365 5.94286e-19)
(2.39157 0.740994 -3.53439e-20)
(2.36893 0.755148 1.24492e-18)
(2.26142 0.735563 -6.88239e-19)
(1.9868 0.650344 -1.79393e-18)
(1.44839 0.464406 9.25156e-20)
(0.587668 0.173005 7.30771e-20)
(2.38999 0.536922 -1.08157e-18)
(2.41742 0.561963 1.48479e-20)
(2.4402 0.586167 4.06907e-19)
(2.4581 0.609479 -3.93793e-19)
(2.46097 0.627858 6.1373e-19)
(2.41982 0.631083 1.61691e-18)
(2.27953 0.600725 -1.32593e-19)
(1.96034 0.511581 -9.31173e-19)
(1.38337 0.343514 2.08369e-19)
(0.532114 0.113485 3.81662e-20)
(2.45248 0.447216 3.92716e-19)
(2.47958 0.467786 7.59789e-20)
(2.50055 0.486392 -4.00856e-19)
(2.51272 0.502483 -9.45057e-19)
(2.50165 0.511584 6.16274e-20)
(2.4335 0.503894 4.33688e-20)
(2.25106 0.46388 -1.12887e-18)
(1.882 0.373925 4.87736e-19)
(1.27385 0.229011 1.38871e-19)
(0.458576 0.0621681 -4.64569e-20)
(2.50134 0.360179 7.21755e-19)
(2.52508 0.375885 -1.07559e-18)
(2.54083 0.388424 1.5693e-19)
(2.54187 0.396983 2.11786e-18)
(2.5087 0.396746 1.01905e-18)
(2.40306 0.378844 -2.1982e-18)
(2.16867 0.331417 -2.00997e-18)
(1.74737 0.245044 8.30595e-19)
(1.12167 0.128513 -4.06638e-20)
(0.372122 0.0225968 -1.07046e-19)
(0.548841 0.388758 -1.79117e-19)
(0.507887 0.402145 -1.67804e-19)
(0.461754 0.416373 7.80332e-20)
(0.411087 0.431589 -2.51495e-19)
(0.355578 0.447655 -2.32729e-20)
(0.294385 0.463167 2.22322e-19)
(0.226526 0.472341 3.88878e-20)
(0.152461 0.458637 -1.25531e-21)
(0.0793397 0.386426 1.76257e-20)
(0.0159993 0.196737 1.40727e-20)
(0.590697 0.496556 1.40823e-19)
(0.55085 0.516708 1.80475e-19)
(0.506681 0.538298 4.50789e-20)
(0.458406 0.561476 -5.47926e-20)
(0.405389 0.585987 -2.2582e-19)
(0.346515 0.609885 -1.32559e-20)
(0.280103 0.625446 6.36938e-20)
(0.20477 0.610565 3.76543e-20)
(0.123954 0.517005 -1.18529e-19)
(0.0391619 0.264632 -4.08977e-20)
(0.650504 0.596562 -1.22124e-19)
(0.612037 0.622551 -1.08465e-19)
(0.570369 0.650465 1.01756e-19)
(0.525254 0.680778 7.23793e-20)
(0.475772 0.713356 -7.76396e-20)
(0.420491 0.745799 -2.62227e-20)
(0.356673 0.768364 -1.08016e-19)
(0.280085 0.753237 -7.67261e-20)
(0.188344 0.639722 -6.77699e-20)
(0.0725677 0.327936 6.43917e-22)
(0.727926 0.692907 4.16489e-20)
(0.691388 0.725378 -4.86777e-20)
(0.653136 0.75963 -8.19517e-20)
(0.611936 0.796356 -5.22983e-20)
(0.566438 0.835559 -6.70433e-20)
(0.515027 0.874504 -5.04955e-21)
(0.45393 0.901638 -2.7814e-19)
(0.375483 0.884072 5.72294e-20)
(0.269695 0.750404 -3.18897e-19)
(0.11464 0.384021 4.89926e-20)
(0.818421 0.772561 4.81606e-21)
(0.784543 0.81003 1.30211e-20)
(0.751009 0.849837 -4.88881e-20)
(0.715693 0.893027 -2.63981e-19)
(0.676449 0.939368 1.22559e-19)
(0.630862 0.985427 3.91936e-20)
(0.573538 1.01783 4.18024e-20)
(0.492583 0.998905 -1.79824e-19)
(0.368735 0.847332 3.86393e-19)
(0.165176 0.432231 2.80981e-19)
(0.925403 0.851518 -8.75547e-20)
(0.89316 0.893453 -1.797e-19)
(0.862924 0.936547 1.99493e-20)
(0.832003 0.983274 9.90251e-20)
(0.798211 1.03397 3.64514e-19)
(0.758604 1.0845 2.69883e-19)
(0.705637 1.11927 6.4842e-19)
(0.622174 1.09621 2.66812e-19)
(0.478405 0.926484 1.46922e-19)
(0.220949 0.469828 2.05534e-19)
(1.03835 0.903851 -1.06042e-19)
(1.01233 0.95058 6.01468e-19)
(0.990011 0.998196 3.97943e-19)
(0.966781 1.04923 -5.16781e-19)
(0.939885 1.10425 -2.59549e-19)
(0.906267 1.15903 6.76787e-19)
(0.856751 1.19644 -1.05899e-19)
(0.768664 1.17045 -4.59653e-19)
(0.600523 0.985807 2.53494e-20)
(0.281647 0.496256 2.54387e-19)
(1.15829 0.957654 2.98903e-19)
(1.13242 1.00471 5.82341e-20)
(1.1149 1.05263 -7.68708e-19)
(1.09981 1.10545 1.69699e-19)
(1.08243 1.16283 5.93656e-19)
(1.05763 1.21916 -3.26029e-19)
(1.0133 1.2556 -1.03191e-19)
(0.92068 1.22343 -1.89116e-19)
(0.726497 1.02401 1.90742e-20)
(0.343332 0.510322 -2.97177e-19)
(1.28741 0.97606 1.80539e-20)
(1.27212 1.02685 -5.62562e-19)
(1.26192 1.07568 -4.77706e-21)
(1.25242 1.12952 4.84206e-19)
(1.2409 1.18928 -5.04279e-19)
(1.22209 1.24824 9.86816e-19)
(1.18065 1.28514 6.62283e-19)
(1.08064 1.2486 -9.74215e-19)
(0.856389 1.03851 -7.6906e-20)
(0.404939 0.511667 -3.26884e-19)
(1.38917 0.986711 -3.40566e-19)
(1.38569 1.03834 -3.21453e-19)
(1.39292 1.08879 2.9851e-19)
(1.39822 1.1432 7.95013e-19)
(1.39813 1.20216 2.84168e-19)
(1.38775 1.25927 -8.19497e-19)
(1.34957 1.29252 1.08378e-19)
(1.24084 1.24935 2.21536e-19)
(0.984243 1.03072 -2.96362e-19)
(0.463725 0.501102 -2.30878e-19)
(0.997308 0.00968253 5.7056e-22)
(1.01047 0.0396569 -1.68566e-20)
(1.02225 0.0502121 -1.26185e-20)
(1.02908 0.0737398 0)
(1.02463 0.0907032 1.43941e-20)
(1.02244 0.111101 2.10401e-20)
(1.00001 0.148423 2.77888e-20)
(0.960109 0.188231 6.49227e-20)
(0.879918 0.25356 -1.02958e-19)
(0.72747 0.321618 -1.36769e-19)
(0.998463 0.00778179 3.46297e-20)
(1.00794 0.0373815 -5.43305e-20)
(1.02167 0.0476633 2.0911e-22)
(1.02689 0.0735175 -1.58195e-20)
(1.02447 0.0910618 7.36624e-21)
(1.02293 0.115701 -1.09961e-20)
(1.00161 0.157239 -6.4857e-20)
(0.968411 0.206633 0)
(0.890387 0.290308 2.14868e-19)
(0.76192 0.391976 -2.60969e-19)
(0.999141 0.00610472 -2.48189e-20)
(1.00657 0.0354724 1.4973e-20)
(1.021 0.0448438 3.30566e-20)
(1.02645 0.0738542 8.52838e-21)
(1.02459 0.090834 -1.80653e-20)
(1.02623 0.120997 1.21069e-21)
(1.00422 0.165276 -4.64483e-20)
(0.981774 0.225304 -6.88574e-21)
(0.90415 0.325424 3.09598e-22)
(0.810973 0.459496 6.78809e-19)
(0.999437 0.00453594 -2.76903e-20)
(1.00614 0.0339218 2.07605e-21)
(1.02037 0.0416941 2.70857e-20)
(1.02755 0.0747322 1.81476e-20)
(1.02519 0.0899037 -9.15301e-21)
(1.03201 0.12704 -1.33496e-20)
(1.00797 0.172181 6.84943e-20)
(1.00001 0.244781 -2.30486e-21)
(0.920738 0.357762 -2.4177e-19)
(0.874401 0.522703 8.19047e-20)
(0.999499 0.0029817 1.90956e-20)
(1.00629 0.0326692 -2.74516e-20)
(1.02005 0.0382092 -2.1827e-20)
(1.02983 0.0760296 1.0827e-20)
(1.02663 0.0882723 0)
(1.03966 0.133735 0)
(1.01367 0.177856 5.90583e-20)
(1.02145 0.264954 1.04566e-21)
(0.942751 0.387269 -1.1238e-19)
(0.947825 0.579858 9.00533e-20)
(0.999487 0.00139864 5.3465e-21)
(1.0067 0.0316109 2.19017e-20)
(1.02033 0.0344129 -6.01418e-20)
(1.03294 0.0775735 -2.11312e-20)
(1.02929 0.0859955 -4.91858e-22)
(1.04877 0.140985 5.82622e-20)
(1.02147 0.182084 9.20839e-20)
(1.04668 0.286372 -2.16937e-22)
(0.966583 0.411686 1.85339e-19)
(1.03833 0.637174 -2.09466e-19)
(0.999522 -0.000221889 -2.04389e-20)
(1.00708 0.0306097 1.14697e-20)
(1.02153 0.0303453 -1.67304e-20)
(1.03651 0.0791617 -4.51721e-20)
(1.03365 0.0832044 1.5904e-21)
(1.05861 0.148495 -1.53551e-21)
(1.03279 0.185131 -4.54248e-21)
(1.07237 0.308251 -2.03947e-19)
(1.00132 0.432047 1.3811e-19)
(1.12272 0.678277 -5.16184e-19)
(0.999667 -0.00186812 -3.44726e-21)
(1.00727 0.0295078 -3.28468e-20)
(1.02386 0.0260509 3.39026e-20)
(1.0403 0.0805872 2.41806e-20)
(1.03994 0.080073 8.40109e-22)
(1.06893 0.15582 -6.86016e-20)
(1.04744 0.187349 -5.26175e-20)
(1.10068 0.330636 3.67231e-19)
(1.03579 0.449627 1.33959e-20)
(1.23797 0.737054 8.13535e-19)
(0.999922 -0.00350548 1.37645e-20)
(1.0073 0.0281526 1.48618e-20)
(1.02731 0.0215972 4.01758e-20)
(1.04435 0.0817253 -2.66605e-20)
(1.04812 0.0766539 -7.08995e-20)
(1.07939 0.163128 9.34381e-22)
(1.06639 0.186982 -7.33407e-20)
(1.12885 0.351194 4.80262e-19)
(1.09061 0.449606 -8.37364e-21)
(1.306 0.754179 -1.12861e-18)
(1.00027 -0.00506864 3.17857e-22)
(1.00732 0.0263846 2.30703e-20)
(1.03159 0.0174219 1.3221e-20)
(1.04912 0.0822629 -5.35962e-20)
(1.05687 0.0748007 -6.99763e-20)
(1.08956 0.169891 -5.90323e-20)
(1.08584 0.194729 -1.36158e-19)
(1.15285 0.374908 -4.37153e-19)
(1.14738 0.478031 -2.36779e-19)
(1.44152 0.824788 -1.18829e-18)
(1.00099 -0.00769679 -9.9159e-22)
(1.00689 0.0237996 -4.99008e-21)
(1.03784 0.00921813 -1.54884e-20)
(1.05679 0.0818708 2.94321e-20)
(1.0676 0.0654282 5.33464e-20)
(1.10978 0.173927 -3.8529e-20)
(1.10809 0.178746 1.35313e-19)
(1.19775 0.384999 -4.03843e-19)
(1.20822 0.416569 -1.82751e-19)
(1.4564 0.8155 6.21566e-19)
(1.00239 -0.0115471 5.92939e-22)
(1.00522 0.0197056 8.96155e-21)
(1.04884 -0.00410719 -1.08938e-20)
(1.06362 0.0789332 5.41722e-20)
(1.08543 0.0490111 9.21082e-20)
(1.1284 0.170799 1.14681e-19)
(1.14832 0.15295 3.1203e-20)
(1.22531 0.370728 1.94966e-19)
(1.30648 0.364969 3.06579e-19)
(1.47327 0.716147 2.6076e-20)
(1.00283 -0.0151982 -1.28997e-21)
(1.0047 0.0132478 -3.74316e-21)
(1.06419 -0.0174316 3.80886e-21)
(1.06645 0.0738546 4.08341e-21)
(1.11104 0.0322273 2.82879e-34)
(1.13961 0.161908 -6.58548e-21)
(1.19672 0.12798 -4.72549e-34)
(1.24065 0.345414 1.74747e-20)
(1.38038 0.309808 -5.34212e-20)
(1.51098 0.625107 -5.45684e-20)
(0.999996 -0.019184 1.47636e-20)
(1.01037 0.00326805 -4.24027e-35)
(1.07846 -0.0292286 -4.33081e-21)
(1.07077 0.0642803 -2.2738e-20)
(1.13791 0.0167817 -4.68938e-20)
(1.15231 0.148359 -3.9019e-20)
(1.23497 0.104923 -6.13672e-34)
(1.2617 0.316096 -7.53047e-20)
(1.41919 0.255305 -1.40886e-19)
(1.55108 0.532654 9.16902e-20)
(0.992706 -0.0242937 0)
(1.02607 -0.0105085 6.45221e-36)
(1.08653 -0.0385989 0)
(1.08526 0.0484151 0)
(1.16011 0.00299173 0)
(1.17455 0.128878 0)
(1.25612 0.0852065 -4.40808e-34)
(1.29376 0.279182 0)
(1.43618 0.208335 -1.88945e-20)
(1.57848 0.43865 5.42572e-20)
(0.981705 -0.0314804 2.39822e-21)
(1.05075 -0.0257657 9.1746e-22)
(1.08915 -0.0456455 -5.38011e-21)
(1.11254 0.0293584 0)
(1.17648 -0.00751186 0)
(1.20272 0.106192 5.89109e-21)
(1.26816 0.0695206 4.2586e-20)
(1.32706 0.236377 -1.25971e-20)
(1.45081 0.168943 -2.75585e-20)
(1.59632 0.348762 2.08754e-19)
(0.969897 -0.0454184 -8.13551e-20)
(1.08103 -0.0482392 2.32359e-21)
(1.08803 -0.0569541 -5.96041e-21)
(1.14658 0.00115866 -1.40399e-20)
(1.17573 -0.0185283 -2.88983e-20)
(1.22025 0.0792286 -1.38479e-20)
(1.26356 0.0547719 -3.61148e-20)
(1.3463 0.188813 -2.88341e-20)
(1.45913 0.132928 -5.28981e-20)
(1.6124 0.263439 6.54951e-20)
(0.961468 -0.0525878 -5.42205e-21)
(1.10505 -0.0583333 -1.76696e-20)
(1.06888 -0.0570479 -6.52957e-21)
(1.15107 -0.0164308 -4.88738e-21)
(1.11179 -0.0182788 -4.42723e-35)
(1.19019 0.0547548 6.27643e-21)
(1.19192 0.0421194 -8.0279e-34)
(1.32497 0.137456 -1.20669e-20)
(1.4146 0.0961618 1.71699e-20)
(1.60559 0.182058 2.47821e-20)
(0.956039 -0.093525 1.97029e-19)
(1.05899 -0.0888001 -4.98542e-21)
(0.955609 -0.0733902 -7.0208e-21)
(0.997143 -0.03492 1.29908e-20)
(0.88667 -0.0154214 1.63328e-20)
(0.998119 0.0294492 1.50186e-20)
(0.957544 0.0286343 1.51341e-20)
(1.15661 0.0801044 -8.82978e-21)
(1.20923 0.0589927 -1.87077e-20)
(1.45675 0.103206 1.34181e-19)
(0.825938 -0.0465979 8.03742e-21)
(0.728619 -0.0335822 -9.26788e-35)
(0.532503 -0.0185012 -8.13515e-21)
(0.476908 -0.0030455 0)
(0.398335 0.000331741 0)
(0.471256 0.00904127 6.20564e-21)
(0.461082 0.00543598 -4.64914e-36)
(0.607826 0.0173209 -1.16145e-20)
(0.663302 0.0096219 -2.52398e-20)
(0.848027 0.0184735 5.34897e-20)
(1.66053 0.842369 -1.86975e-19)
(1.7606 0.824359 -2.76365e-19)
(1.87629 0.790786 0)
(1.98415 0.748031 1.54151e-19)
(2.08352 0.690174 6.51729e-19)
(2.17325 0.626373 -1.12243e-19)
(2.25223 0.553008 1.659e-18)
(2.32617 0.478161 -8.20113e-20)
(2.38523 0.399077 -3.57481e-19)
(2.44212 0.324658 3.13148e-19)
(1.68596 0.692266 9.57207e-20)
(1.75919 0.677879 1.09787e-19)
(1.85703 0.644825 -1.38941e-20)
(1.94015 0.607281 2.13262e-19)
(2.03378 0.554176 -1.73853e-19)
(2.1004 0.504305 -4.02394e-19)
(2.18141 0.442761 -1.21786e-19)
(2.23271 0.389573 5.47828e-19)
(2.30507 0.325565 -2.0869e-20)
(2.33919 0.274284 -4.62294e-19)