/*--------------------------------*- C++ -*----------------------------------*\
  =========                 |
  \\      /  F ield         | OpenFOAM: The Open Source CFD Toolbox
   \\    /   O peration     | Website:  https://openfoam.org
    \\  /    A nd           | Version:  13
     \\/     M anipulation  |
\*---------------------------------------------------------------------------*/
FoamFile
{
    format      ascii;
    class       surfaceScalarField;
    location    "0.6";
    object      phi;
}
// * * * * * * * * * * * * * * * * * * * * * * * * * * * * * * * * * * * * * //

dimensions      [0 3 -1 0 0 0 0];

internalField   nonuniform List<scalar> 
3485
(
0.00222149
-0.00544551
0.00322403
0.00871456
-0.0514214
0.0449283
0.0180306
-0.1012
0.0918844
0.0283984
-0.132862
0.122494
0.0387767
-0.146535
0.136157
0.048787
-0.149555
0.139545
0.0583598
-0.147801
0.138229
0.0674949
-0.144349
0.135214
0.0761727
-0.140369
0.131691
-0.136113
0.127658
0.084628
0.00269551
-0.00814102
0.0097008
-0.0584267
0.0191235
-0.110623
0.0292037
-0.142942
0.0391031
-0.156434
0.0486518
-0.159104
0.0579468
-0.157096
0.0671389
-0.153541
0.0764426
-0.149673
-0.145861
0.0861908
0.00311799
-0.011259
0.0105016
-0.0658103
0.0197972
-0.119919
0.0292546
-0.152399
0.0382059
-0.165386
0.0466117
-0.16751
0.0546154
-0.1651
0.0623468
-0.161273
0.069882
-0.157208
-0.15317
0.0771905
0.0035553
-0.0148143
0.0112788
-0.0735338
0.0204017
-0.129042
0.0292511
-0.161249
0.0373851
-0.173519
0.0449432
-0.175068
0.0521669
-0.172324
0.0592241
-0.16833
0.0662094
-0.164193
-0.160239
0.0732782
0.00390016
-0.0187145
0.0117632
-0.0813969
0.0204566
-0.137735
0.0284203
-0.169212
0.0354374
-0.180537
0.0417995
-0.18143
0.047814
-0.178338
0.0536675
-0.174183
0.0594614
-0.169987
-0.166022
0.0652451
0.00418813
-0.0229026
0.0120359
-0.0892446
0.0201451
-0.145844
0.0271321
-0.176199
0.0330172
-0.186422
0.0382319
-0.186645
0.043135
-0.183242
0.0479184
-0.178967
0.0526666
-0.174736
-0.170797
0.0574411
0.00435588
-0.0272585
0.0119567
-0.0968455
0.0192515
-0.153139
0.0250842
-0.182032
0.0297037
-0.191041
0.0336569
-0.190598
0.0373364
-0.186921
0.040935
-0.182565
0.0445325
-0.178333
-0.174426
0.0481618
0.00440218
-0.0316607
0.0115341
-0.103977
0.017824
-0.159429
0.0223954
-0.186603
0.0257
-0.194346
0.0283689
-0.193267
0.0308042
-0.189356
0.0331859
-0.184947
0.0355817
-0.180729
-0.176856
0.0380114
0.00430082
-0.0359615
0.0107306
-0.110407
0.0158388
-0.164537
0.0190587
-0.189823
0.0210065
-0.196294
0.0223695
-0.19463
0.0235433
-0.19053
0.0246917
-0.186096
0.0258717
-0.181909
-0.178072
0.0270878
0.00405715
-0.0400186
0.00958079
-0.115931
0.0133819
-0.168338
0.0151927
-0.191634
0.0157684
-0.196869
0.0158259
-0.194688
0.0157405
-0.190445
0.0156556
-0.186011
0.0156155
-0.181869
0.0156162
-0.178072
-0.000699187
0.000266689
0.000432499
0.0019753
-0.00710817
0.00443368
0.00946209
-0.0163544
0.00886766
0.0204927
-0.0228775
0.0118468
0.0333403
-0.0261102
0.0132627
0.0468195
-0.0271573
0.0136781
0.0603159
-0.0270944
0.0135979
0.0735681
-0.0265699
0.0133177
0.0864951
-0.0259061
0.0129791
-0.0254207
0.0992562
0.0126596
-0.000608938
0.000875626
0.00219787
-0.00991499
0.00976866
-0.0239252
0.0208102
-0.033919
0.0336091
-0.0389091
0.0470025
-0.0405507
0.0603936
-0.0404855
0.0735325
-0.0397087
0.0863464
-0.03872
-0.0380704
0.0989961
-0.000480685
0.00135631
0.00251483
-0.0129105
0.0102087
-0.0316191
0.021271
-0.0449813
0.0340072
-0.0516454
0.0472853
-0.0538288
0.0605331
-0.0537333
0.0735161
-0.0526918
0.0861725
-0.0513764
-0.050562
0.0986642
-0.000298781
0.00165509
0.00295166
-0.0161609
0.0108143
-0.0394817
0.021909
-0.056076
0.0345673
-0.0643036
0.0476993
-0.0669608
0.0607663
-0.0668004
0.0735541
-0.0654796
0.0860138
-0.0638361
-0.0628533
0.0983051
-7.48737e-05
0.00172997
0.00351996
-0.0197558
0.0116072
-0.047569
0.0227478
-0.0672166
0.0353127
-0.0768685
0.0482697
-0.0799178
0.0611243
-0.0796549
0.0736879
-0.0780433
0.0859252
-0.0760734
-0.0749102
0.0979821
0.000216743
0.00151322
0.00423693
-0.023776
0.0125958
-0.0559278
0.0237861
-0.0784069
0.0362344
-0.0893168
0.0489847
-0.0926681
0.0615998
-0.09227
0.0739241
-0.0903676
0.0859332
-0.0880826
-0.0867024
0.0977254
0.000578378
0.000934844
0.00509557
-0.0282931
0.0137542
-0.0645864
0.0249755
-0.0896283
0.03726
-0.101601
0.04975
-0.105158
0.0620834
-0.104603
0.0741479
-0.102432
0.0859255
-0.0998602
-0.098169
0.0973921
0.000997088
-6.22444e-05
0.00605028
-0.0333463
0.0149944
-0.0735306
0.0261809
-0.100815
0.0382034
-0.113624
0.0503219
-0.117277
0.0622616
-0.116543
0.0739611
-0.114131
0.0854014
-0.111301
-0.109106
0.0963384
0.00138104
-0.00144329
0.00695651
-0.0389218
0.0160997
-0.0826737
0.0271103
-0.111825
0.0386943
-0.125208
0.0502355
-0.128818
0.0615406
-0.127848
0.0725847
-0.125176
0.0833286
-0.122044
-0.119059
0.0932813
0.00178074
0.00778723
0.0169979
0.0276666
0.0386153
0.0493426
0.059723
0.0697618
0.0794087
0.0880077
0.153919
-0.156227
0.101564
0.180946
-0.110601
0.0835742
0.194534
-0.0826655
0.0690772
0.201258
-0.0625512
0.0558273
0.204319
-0.0471881
0.0441274
0.205297
-0.0350961
0.0341176
0.205058
-0.0254486
0.0256877
0.204071
-0.0175586
0.0185455
0.202628
-0.0115189
0.0129616
-0.00360505
0.00550249
0.152776
-0.210007
0.179948
-0.137772
0.193827
-0.0965445
0.200803
-0.0695274
0.204062
-0.0504474
0.2052
-0.0362337
0.205094
-0.0253427
0.204228
-0.0166928
0.202901
-0.0101917
-0.00182877
0.150846
-0.262189
0.178062
-0.164988
0.192284
-0.110766
0.199606
-0.0768498
0.203175
-0.0540162
0.204593
-0.0376519
0.204748
-0.0254976
0.204133
-0.0160779
0.203054
-0.00911234
-0.000310076
0.148108
-0.311992
0.175278
-0.192159
0.189902
-0.12539
0.197669
-0.0846168
0.20166
-0.0580067
0.20348
-0.0394721
0.204022
-0.0260391
0.203788
-0.0158444
0.203089
-0.00841303
0.000817548
0.144555
-0.358565
0.171585
-0.219189
0.186685
-0.14049
0.194999
-0.0929312
0.199525
-0.0625327
0.201867
-0.0418136
0.202919
-0.0270913
0.203192
-0.0161179
0.203002
-0.00822255
0.00142006
0.140166
-0.401006
0.166954
-0.245976
0.182631
-0.156167
0.191604
-0.101905
0.196781
-0.0677097
0.199762
-0.0447944
0.201445
-0.0287747
0.20235
-0.0170223
0.202795
-0.00866806
0.00136696
0.134871
-0.438485
0.161313
-0.272417
0.177716
-0.17257
0.187487
-0.111676
0.193439
-0.0736616
0.197178
-0.0485337
0.199611
-0.0312078
0.201266
-0.0186766
0.202468
-0.00987089
0.000531578
0.128642
-0.470788
0.154533
-0.298308
0.171853
-0.18989
0.182626
-0.122449
0.1895
-0.0805357
0.194121
-0.053154
0.197423
-0.0345101
0.199945
-0.0211991
0.202023
-0.0119489
-0.00120907
0.121654
-0.499161
0.146574
-0.323228
0.16486
-0.208177
0.176904
-0.134493
0.18492
-0.088551
0.190582
-0.0588159
0.194882
-0.0388104
0.198391
-0.0247081
0.201462
-0.0150195
-0.00397406
0.114915
-0.526069
0.138808
-0.34712
0.157225
-0.226594
0.1704
-0.147668
0.179683
-0.0978339
0.186547
-0.06568
0.191989
-0.0442526
0.196606
-0.0293253
0.200784
-0.0191967
-0.00787895
0.380113
-0.464485
-0.441696
0.347865
-0.314873
0.331449
-0.210179
0.323546
-0.139765
0.319414
-0.093702
0.316951
-0.0632176
0.315323
-0.0426242
0.314215
-0.0282171
0.313461
-0.018443
-0.00755873
0.392199
-0.393439
-0.463245
0.356812
-0.279485
0.338977
-0.192344
0.329377
-0.130165
0.323606
-0.0879303
0.319886
-0.0594981
0.317393
-0.0401307
0.315721
-0.0265454
0.314614
-0.0173359
-0.00709879
0.408245
-0.32774
-0.473943
0.37026
-0.241501
0.348397
-0.170481
0.335691
-0.117458
0.327848
-0.0800867
0.32277
-0.0544209
0.319397
-0.0367578
0.317167
-0.024315
0.315709
-0.0158781
-0.00650107
0.418366
-0.266937
-0.479169
0.3799
-0.203035
0.355969
-0.14655
0.34112
-0.10261
0.331624
-0.0705903
0.325383
-0.0481799
0.321228
-0.0326033
0.318491
-0.0215776
0.316708
-0.0140956
-0.00577318
0.4255
-0.21111
-0.481328
0.387446
-0.16498
0.362219
-0.121324
0.345748
-0.0861385
0.334906
-0.0597487
0.327681
-0.0409542
0.322849
-0.0277717
0.319665
-0.0183931
0.317592
-0.0120235
-0.00492762
0.430413
-0.159809
-0.481714
0.393145
-0.127712
0.367176
-0.0953547
0.349535
-0.068497
0.337641
-0.0478554
0.329619
-0.0329315
0.324224
-0.0223767
0.320663
-0.0148327
0.318344
-0.0097047
-0.00398034
0.433654
-0.112212
-0.481251
0.397262
-0.0913193
0.370914
-0.0690065
0.35247
-0.0500533
0.339796
-0.0351815
0.331158
-0.0242929
0.325318
-0.0165371
0.321459
-0.0109734
0.318939
-0.007185
-0.00294775
0.43517
-0.0668578
-0.480524
0.399527
-0.0556758
0.373094
-0.0425739
0.354211
-0.0311704
0.34105
-0.0220199
0.332006
-0.0152495
0.325869
-0.0104003
0.321805
-0.00690916
0.319144
-0.00452334
-0.00185361
0.427438
-0.0201248
-0.474171
0.39251
-0.0207473
0.366892
-0.016956
0.348475
-0.012754
0.335543
-0.00908781
0.326614
-0.0063199
0.320537
-0.0043233
0.316511
-0.00288368
0.313872
-0.00188458
-0.000767957
0.309335
-0.32946
0.288588
0.271632
0.258878
0.24979
0.24347
0.239147
0.236263
0.234379
0.472991
0.0136547
-0.47103
0.474173
0.0259058
0.474457
0.0377276
0.47378
0.0488388
0.471615
0.0596058
0.469142
0.0677183
0.462878
0.0795422
0.459464
0.0806044
0.447829
0.097826
0.090761
0.454079
0.0117856
-0.45221
0.456032
0.0239525
0.457947
0.035813
0.459925
0.0468608
0.461324
0.0582068
0.463238
0.065804
0.463466
0.079314
0.464545
0.0795259
0.465477
0.0968938
0.0929924
0.437735
0.00989205
-0.435842
0.44026
0.0214275
0.443315
0.0327579
0.446936
0.0432397
0.450894
0.0542496
0.455202
0.0614958
0.460088
0.0744282
0.464084
0.0755292
0.470205
0.0907726
0.0892546
0.425216
0.00802427
-0.423349
0.42807
0.0185738
0.431853
0.0289754
0.436493
0.0385995
0.442094
0.0486489
0.448017
0.0555722
0.455606
0.0668398
0.462172
0.0689631
0.47143
0.0815141
0.081516
0.415431
0.00617475
-0.413582
0.418517
0.0154879
0.422815
0.0246774
0.428193
0.0332214
0.434864
0.0419782
0.442058
0.0483787
0.451221
0.0576764
0.459807
0.0603776
0.470998
0.0703222
0.0711868
0.408042
0.00431738
-0.406185
0.411308
0.0122222
0.415963
0.0200223
0.421866
0.0273182
0.429208
0.0346361
0.437325
0.0402616
0.447369
0.0476326
0.457326
0.0504207
0.469644
0.0580048
0.0591161
0.402646
0.0024208
-0.400749
0.406074
0.00879373
0.411007
0.0150899
0.41731
0.0210146
0.425095
0.0268513
0.433856
0.0315002
0.444389
0.0371002
0.455245
0.0395644
0.468148
0.0451018
0.0460129
0.397717
0.000262397
-0.395558
0.401447
0.00506317
0.406796
0.00974141
0.413621
0.0141889
0.421929
0.0185438
0.431331
0.0220983
0.442264
0.0261668
0.453764
0.0280643
0.467004
0.031862
0.0324925
0.377465
-0.00167161
-0.375531
0.381663
0.000865209
0.387941
0.00346327
0.396128
0.00600165
0.406128
0.00854472
0.417486
0.0107401
0.430423
0.0132294
0.443952
0.0145352
0.458931
0.0168832
0.0172523
0.237945
-0.239616
0.23881
0.242273
0.248275
0.25682
0.26756
0.280789
0.295324
0.312208
0.0773967
0.127695
-0.115638
-0.0894537
0.0663381
0.129615
-0.118556
0.0561809
0.132386
-0.122229
0.0464294
0.136101
-0.126349
0.0367099
0.140241
-0.130521
0.0269013
0.1441
-0.134292
0.0172349
0.145361
-0.135695
0.00853558
0.137309
-0.12861
0.00230557
0.108294
-0.102064
0.0489066
-0.046601
0.0797862
0.138841
-0.0909322
0.0683348
0.141066
0.0572402
0.143481
0.0466447
0.146696
0.0363802
0.150505
0.0263235
0.154157
0.0166542
0.15503
0.00813008
0.145833
0.00213976
0.114284
0.0510464
0.0735603
0.148404
-0.0831226
0.0634778
0.151149
0.0532891
0.153669
0.0432514
0.156734
0.0334021
0.160354
0.0237623
0.163797
0.0146099
0.164183
0.00676498
0.153678
0.00154728
0.119502
0.0525937
0.0618009
0.156069
-0.0694666
0.0537317
0.159218
0.0453016
0.162099
0.0366657
0.16537
0.0279469
0.169073
0.0193083
0.172435
0.0111837
0.172307
0.00454043
0.160321
0.000634432
0.123408
0.0532281
0.048937
0.162163
-0.0550307
0.0425742
0.165581
0.0358054
0.168868
0.0286811
0.172494
0.0213251
0.176429
0.0139734
0.179787
0.00716912
0.179111
0.00196886
0.165522
-0.000334465
0.125711
0.0528936
0.037079
0.167152
-0.0420683
0.0319162
0.170743
0.0264193
0.174365
0.0205922
0.178321
0.0145376
0.182484
0.00851295
0.185812
0.00314627
0.184478
-0.000577049
0.169245
-0.00124064
0.126374
0.051653
0.0262262
0.171284
-0.0303581
0.0219927
0.174977
0.0175275
0.17883
0.0128247
0.183024
0.00797411
0.187334
0.00324687
0.190539
-0.000771936
0.188497
-0.00268225
0.171155
-0.00203302
0.125725
0.04962
0.0157786
0.174534
-0.0190288
0.0124633
0.178292
0.00899427
0.182299
0.00537903
0.186639
0.00170674
0.191007
-0.00173271
0.193978
-0.00414871
0.190913
-0.00469107
0.171698
-0.00266949
0.123704
0.0469505
0.00537827
0.176843
-0.00768706
0.00304586
0.180625
0.000632024
0.184713
-0.00185227
0.189123
-0.0043088
0.193463
-0.00641081
0.19608
-0.00749437
0.191996
-0.00654096
0.170744
-0.00323621
0.120399
0.0437143
-0.00505556
0.00382632
-0.00629969
-0.00759718
-0.00891871
-0.0101431
-0.010932
-0.0105695
-0.00816375
-0.00369562
0.103653
0.0240893
-0.114973
-0.0127685
0.0920137
0.0247127
-0.0130738
0.0800207
0.0253848
-0.0133918
0.0676477
0.026104
-0.013731
0.0548832
0.0268615
-0.014097
0.0417406
0.0276178
-0.0144752
0.0283832
0.0280996
-0.0147422
0.0155307
0.0272511
-0.0143986
0.00504071
0.0227106
-0.0122206
0.0113362
-0.00629554
0.10288
0.0353951
-0.114186
0.091272
0.036321
0.079324
0.0373328
0.0670106
0.0384174
0.05432
0.0395521
0.0412661
0.0406717
0.0280158
0.0413499
0.0152928
0.0399741
0.00494381
0.0330596
0.0162801
0.101759
0.0466714
-0.113035
0.0902031
0.0478768
0.078327
0.0492089
0.0661043
0.0506401
0.0535224
0.052134
0.0405961
0.0535981
0.0274977
0.0544482
0.0149579
0.052514
0.00480712
0.0432103
0.0210872
0.100175
0.0578913
-0.111395
0.0887058
0.059346
0.07694
0.0609747
0.0648502
0.0627299
0.0524229
0.0645612
0.0396742
0.0663468
0.0267848
0.0673376
0.0144961
0.0648026
0.00461768
0.0530888
0.0257049
0.0979648
0.0690119
-0.109085
0.0866403
0.0706706
0.0750538
0.0725612
0.0631711
0.0746126
0.0509721
0.0767602
0.0384719
0.078847
0.0258618
0.0799478
0.0138992
0.0767652
0.00437397
0.062614
0.0300788
0.094932
0.0799519
-0.105872
0.0838246
0.081778
0.0724819
0.083904
0.0608737
0.0862207
0.0489827
0.0886512
0.0368261
0.0910036
0.0246046
0.0921693
0.0130884
0.0882813
0.00403981
0.0716626
0.0341186
0.0911972
0.0905085
-0.101754
0.0805502
0.092425
0.0696765
0.0947777
0.0585019
0.0973953
0.0470015
0.100152
0.0352122
0.102793
0.0233751
0.104006
0.0123033
0.0993531
0.00373404
0.0802319
0.0378527
0.0845759
0.100603
-0.0946708
0.0744719
0.102529
0.0642601
0.10499
0.053862
0.107793
0.0431973
0.110816
0.0322499
0.11374
0.0212432
0.115013
0.0109968
0.109599
0.00321353
0.0880151
0.0410662
0.0823052
0.109284
-0.0909858
0.0731859
0.111648
0.0633712
0.114804
0.0530261
0.118138
0.0423116
0.121531
0.0313591
0.124693
0.0204678
0.125905
0.0104791
0.119588
0.00302612
0.0954681
0.0440923
0.0690477
-0.0754018
0.0621397
0.0547151
0.0465045
0.0375143
0.0279156
0.0181255
0.00910413
0.00250872
0.202127
0.0121407
-0.0162777
0.204789
0.028443
-0.0311048
0.205354
0.0351012
-0.0356664
0.206303
0.0369007
-0.0378503
0.205415
0.0433754
-0.0424873
0.202935
0.0520011
-0.0495214
0.196828
0.0648212
-0.0587137
0.186186
0.0817044
-0.071063
0.160502
0.109942
-0.0842576
0.146919
-0.101391
0.201851
0.0082792
0.204365
0.0259296
0.204879
0.0345866
0.205771
0.0360091
0.204807
0.0443394
0.202191
0.0546166
0.195945
0.0710675
0.184974
0.0926751
0.159334
0.135583
0.192067
0.201453
0.00481595
0.203677
0.0237062
0.204043
0.03422
0.204733
0.0353188
0.203568
0.0455048
0.200691
0.0574941
0.194223
0.0775353
0.182793
0.104105
0.157378
0.160997
0.23641
0.200924
0.00188149
0.202723
0.021907
0.202854
0.0340897
0.203201
0.0349711
0.201712
0.0469944
0.198449
0.0607567
0.191666
0.0843184
0.179625
0.116146
0.154681
0.185941
0.279696
0.200261
-0.00039003
0.201513
0.0206556
0.201324
0.0342788
0.201188
0.0351066
0.199256
0.0489268
0.195487
0.0645256
0.188288
0.0915176
0.17544
0.128993
0.151307
0.210074
0.321918
0.199459
-0.00185936
0.200051
0.0200637
0.199466
0.0348634
0.198707
0.0358659
0.196219
0.0514146
0.191825
0.06892
0.184097
0.0992458
0.17025
0.14284
0.147276
0.233048
0.363322
0.198508
-0.00237771
0.198345
0.0202266
0.1973
0.0359084
0.195777
0.0373894
0.192625
0.0545661
0.187482
0.0740631
0.179082
0.107646
0.164173
0.157749
0.142662
0.254559
0.40423
0.197407
-0.00179533
0.196412
0.0212219
0.194844
0.0374767
0.192417
0.0398162
0.188501
0.0584818
0.182482
0.0800823
0.173205
0.116923
0.157126
0.173828
0.136649
0.275037
0.446208
0.196168
2.67848e-05
0.194284
0.023106
0.192114
0.0396465
0.188644
0.0432863
0.183873
0.0632527
0.176889
0.0870658
0.166729
0.127084
0.150464
0.190093
0.131812
0.293689
0.487034
0.194913
0.00310368
0.192022
0.0259968
0.189141
0.0425278
0.184421
0.0480059
0.178608
0.0690658
0.170181
0.0954925
0.158134
0.139131
0.14029
0.207937
0.121507
0.312471
0.533139
0.303464
0.00165004
0.306886
0.0225746
0.310788
0.0386256
0.31341
0.0453845
0.316458
0.0660171
0.319907
0.0920436
0.325453
0.133586
0.336626
0.196763
0.362417
0.286681
0.471438
0.424119
0.304311
-0.000651146
0.308056
0.0188299
0.312515
0.0341666
0.315956
0.0419439
0.320429
0.061544
0.32608
0.0863927
0.335065
0.1246
0.351023
0.180806
0.380603
0.2571
0.407863
0.444178
0.305162
-0.00380344
0.30943
0.0145621
0.314267
0.0293299
0.318505
0.0377058
0.324174
0.0558756
0.331684
0.0788818
0.343371
0.112913
0.362131
0.162046
0.39558
0.223652
0.344501
0.458942
0.306072
-0.00786506
0.310872
0.00976222
0.31599
0.0242114
0.320916
0.0327804
0.327602
0.0491889
0.33667
0.0698146
0.350421
0.0991617
0.37132
0.141146
0.406233
0.188739
0.283658
0.467077
0.307083
-0.0129381
0.312398
0.00444745
0.317661
0.0189487
0.323127
0.0273142
0.330643
0.041673
0.340971
0.0594863
0.356246
0.083887
0.378775
0.118617
0.413507
0.154007
0.226347
0.470818
0.308261
-0.0191893
0.314059
-0.00135023
0.319254
0.0137533
0.325086
0.0214823
0.33325
0.0335098
0.344554
0.0481819
0.360913
0.0675279
0.384586
0.094944
0.418361
0.120232
0.172728
0.47198
0.309679
-0.0268581
0.315892
-0.00756367
0.320751
0.0088952
0.326747
0.0154854
0.335381
0.0248766
0.347395
0.0361671
0.3645
0.0504231
0.388894
0.0705498
0.421517
0.0876099
0.122439
0.471806
0.311454
-0.0363015
0.317891
-0.0140008
0.321987
0.00479891
0.32789
0.00958218
0.336834
0.0159324
0.349339
0.0236625
0.366957
0.0328056
0.391739
0.0457676
0.423414
0.0559348
0.0750379
0.470815
0.309619
-0.0439104
0.314555
-0.0189367
0.317805
0.0015492
0.323662
0.00372541
0.332784
0.00681018
0.345615
0.0108311
0.363606
0.0148146
0.388515
0.0208586
0.419889
0.0245605
0.0324806
0.462447
0.2581
0.239163
0.240712
0.244438
0.251248
0.262079
0.276894
0.297752
0.322313
0.354793
0.439335
-0.104671
0.445483
-0.0970798
0.44842
-0.0860598
0.450814
-0.0718609
0.453745
-0.0579613
0.457321
-0.0456444
0.461206
-0.0342428
0.464955
-0.0227777
0.468218
-0.0109507
0.00101485
0.445496
-0.105989
0.444617
-0.0962006
0.443231
-0.0846739
0.443108
-0.0717381
0.444159
-0.059012
0.445701
-0.0471864
0.447313
-0.0358551
0.448945
-0.0244094
0.450609
-0.0126146
-0.000585907
0.452697
-0.0997447
0.447313
-0.0908167
0.442514
-0.0798745
0.43892
-0.0681446
0.436536
-0.0566276
0.435027
-0.0456779
0.434229
-0.0350566
0.434121
-0.0243018
0.434683
-0.0131757
-0.00174515
0.456616
-0.0892845
0.447533
-0.0817337
0.439747
-0.0720877
0.433581
-0.061979
0.429056
-0.0521027
0.425865
-0.0424869
0.42375
-0.0329415
0.422622
-0.0231736
0.42248
-0.0130342
-0.00261345
0.458029
-0.0764954
0.446745
-0.0704497
0.437169
-0.0625116
0.4294
-0.0542102
0.42336
-0.046063
0.418829
-0.0379558
0.415624
-0.0297362
0.413683
-0.0212331
0.41301
-0.0123605
-0.0031856
0.457959
-0.0624746
0.44538
-0.0578704
0.434623
-0.0517546
0.425751
-0.045338
0.418667
-0.03898
0.413225
-0.0325136
0.409293
-0.0258036
0.406813
-0.0187529
0.405776
-0.0113241
-0.00359415
0.457054
-0.0477231
0.443704
-0.0445202
0.432209
-0.0402592
0.422645
-0.0357744
0.414909
-0.0312438
0.408885
-0.0264896
0.404481
-0.0213994
0.401657
-0.0159288
0.400415
-0.010082
-0.00392858
0.455403
-0.0323111
0.441387
-0.0305047
0.429311
-0.0281831
0.419218
-0.0256811
0.410983
-0.0230094
0.404505
-0.0200108
0.399718
-0.0166124
0.396612
-0.0128236
0.395214
-0.00868373
-0.00427247
0.445362
-0.0152264
0.430017
-0.0151595
0.416718
-0.0148848
0.405387
-0.0143492
0.395862
-0.0134851
0.388067
-0.0122155
0.382029
-0.0105748
0.377851
-0.00864545
0.375658
-0.00649027
-0.00414581
0.339567
0.324407
0.309523
0.295173
0.281688
0.269473
0.258898
0.250252
0.243762
0.0101803
0.0513203
-0.0615006
0.0215282
0.149808
-0.161156
0.0266741
0.214274
-0.21942
0.0263704
0.241698
-0.241394
0.0231755
0.248146
-0.244951
0.0188866
0.246667
-0.242378
0.0142822
0.243037
-0.238433
0.00969695
0.238221
-0.233636
0.00560029
0.229633
-0.225536
0.209781
0.0031004
-0.207281
0.0118558
0.0394645
0.027993
0.133671
0.0385725
0.203694
0.0430947
0.237176
0.044053
0.247188
0.0436086
0.247111
0.0427628
0.243883
0.0416058
0.239378
0.0394718
0.231767
0.214127
0.0351252
0.0123339
0.0271307
0.0319515
0.114053
0.047601
0.188045
0.057223
0.227554
0.0628272
0.241584
0.0667136
0.243225
0.0701613
0.240435
0.0733102
0.236229
0.0748534
0.230223
0.217878
0.0711029
0.0115702
0.0155605
0.0325481
0.093075
0.0519245
0.168668
0.066219
0.213259
0.0765074
0.231295
0.0848517
0.234881
0.0926972
0.23259
0.100496
0.228431
0.107357
0.223362
0.215887
0.109348
0.00980035
0.00576014
0.0297849
0.0730905
0.0508188
0.147634
0.0685996
0.195479
0.0830557
0.216839
0.0956118
0.222325
0.107593
0.220608
0.119682
0.216342
0.131735
0.211309
0.205758
0.141864
0.00740243
-0.00164229
0.0244687
0.0560242
0.0449268
0.127176
0.0644437
0.175962
0.0819113
0.199371
0.0978842
0.206352
0.113275
0.205218
0.128738
0.200879
0.144555
0.195492
0.189487
0.160825
0.00486045
-0.00650274
0.0180512
0.0428334
0.0363136
0.108914
0.0558836
0.156392
0.0749467
0.180308
0.0931968
0.188102
0.110965
0.187449
0.128662
0.183182
0.146519
0.177636
0.170799
0.165207
0.00250457
-0.00900731
0.0118965
0.0334415
0.027259
0.0935514
0.0456142
0.138037
0.0647884
0.161134
0.083799
0.169091
0.102407
0.168841
0.120678
0.164911
0.138808
0.159505
0.152721
0.156887
0.000743903
-0.00975122
0.0072115
0.0269739
0.0199572
0.0808057
0.0367351
0.121259
0.0553032
0.142566
0.074308
0.150086
0.0931567
0.149992
0.111689
0.146379
0.130002
0.141193
0.13395
0.148772
-0.000346577
-0.00940464
0.00414532
0.022482
0.0148274
0.0701236
0.0299218
0.106164
0.0472075
0.12528
0.0651175
0.132176
0.0827783
0.132332
0.0997723
0.129385
0.115745
0.12522
0.119243
0.130452
-0.000827413
-0.00857723
0.00259478
0.0190598
0.0119852
0.0607332
0.0258309
0.0923185
0.0420296
0.109082
0.0590345
0.115171
0.0759695
0.115397
0.092441
0.112913
0.108266
0.109395
0.105972
0.121537
-0.000979857
-0.00759737
0.00199486
0.016085
0.0106716
0.0520565
0.0236776
0.0793125
0.0390236
0.0937357
0.0552346
0.0989604
0.0714704
0.0991608
0.0873367
0.0970469
0.102684
0.0940481
0.0920358
0.11662
-0.00100602
-0.00659136
0.00173748
0.0133416
0.00993313
0.0438608
0.0222642
0.0669814
0.0368198
0.0791801
0.0521947
0.0835855
0.067595
0.0837605
0.0826415
0.0820004
0.0971787
0.0795109
0.0782039
0.111011
-0.000986847
-0.00560451
0.0016232
0.0107315
0.00948432
0.0359997
0.021303
0.0551628
0.0352228
0.0652603
0.0498978
0.0689106
0.0645753
0.0690829
0.0788944
0.0676813
0.0926984
0.0657069
0.0647976
0.106105
-0.000948913
-0.0046556
0.00159193
0.00819067
0.00923983
0.0283518
0.020714
0.0436886
0.0341954
0.0517789
0.0483847
0.0547213
0.0625677
0.0548999
0.0764091
0.0538399
0.0897721
0.0523439
0.0517097
0.10286
-0.000915418
-0.00374018
0.00159279
0.00568246
0.00911104
0.0208335
0.0203709
0.0324287
0.0335803
0.0385696
0.0474741
0.0408274
0.0613693
0.0410047
0.0749544
0.0402548
0.0881131
0.0391852
0.0387749
0.101048
-0.000883554
-0.00285662
0.00161251
0.0031864
0.00905741
0.0133886
0.0201935
0.0212926
0.0332478
0.0255152
0.0469786
0.0270966
0.0607236
0.0272597
0.0741877
0.0267908
0.0872672
0.0261056
0.0258948
0.100147
-0.000849207
-0.00200742
0.00165335
0.000683836
0.0090651
0.00597689
0.0201356
0.0102222
0.0331059
0.012545
0.0467496
0.0134529
0.0604182
0.0135911
0.073827
0.013382
0.0868797
0.0130529
0.0130272
0.0997474
-0.000811123
-0.00119629
0.00172031
-0.00184759
0.00913024
-0.00143305
0.0201699
-0.000817515
0.0330916
-0.000376747
0.046682
-0.000137506
0.0603023
-2.91556e-05
0.0736753
8.95538e-06
0.08671
1.82184e-05
0.000169465
0.0995677
-0.000763796
0.00182229
0.0092569
0.0202862
0.0331721
0.0467128
0.0602815
0.0736082
0.0866055
0.0994345
0.13801
0.296587
-0.313061
0.150106
0.123992
-0.136087
0.15967
0.0419313
-0.0514955
0.167325
0.0049787
-0.0126338
0.173722
-0.00914055
0.00274327
0.179407
-0.0132439
0.00755916
0.184622
-0.013162
0.00794671
0.189464
-0.0114436
0.00660233
0.193995
-0.00941907
0.00488763
-0.00614304
0.00209807
0.139467
0.27374
0.155617
0.107842
0.166442
0.0311063
0.173795
-0.00237404
0.179377
-0.0147232
0.184062
-0.0179287
0.188193
-0.0172929
0.191904
-0.0151545
0.195288
-0.0128034
-0.00905301
0.141607
0.243144
0.160817
0.0886317
0.172279
0.0196446
0.179399
-0.00949407
0.184389
-0.0197131
0.188256
-0.021796
0.19144
-0.0204765
0.194141
-0.017856
0.196495
-0.0151573
-0.0109382
0.144257
0.204991
0.165607
0.0672824
0.17751
0.00774138
0.184443
-0.0164272
0.188891
-0.0241607
0.192024
-0.0249293
0.194366
-0.0228186
0.196173
-0.0196634
0.197613
-0.0165974
-0.0119123
0.146985
0.160866
0.169869
0.0443983
0.182099
-0.00448832
0.18886
-0.023188
0.192853
-0.0281533
0.195351
-0.0274281
0.196963
-0.0244306
0.197994
-0.0206941
0.19864
-0.0172429
-0.0120934
0.149461
0.112452
0.173533
0.0203262
0.186028
-0.0169829
0.192648
-0.0298081
0.196258
-0.0317637
0.198223
-0.0293934
0.19922
-0.0254274
0.199595
-0.0210693
0.199569
-0.0172169
-0.0116037
0.151521
0.0610793
0.17654
-0.00469291
0.189259
-0.0297021
0.195776
-0.0363255
0.199086
-0.0350737
0.200625
-0.0309318
0.201125
-0.025928
0.200969
-0.0209135
0.200398
-0.0166457
-0.0105692
0.153064
0.00776221
0.178836
-0.0304644
0.191753
-0.0426196
0.198219
-0.0427916
0.201319
-0.0381732
0.202542
-0.0321546
0.202668
-0.0260546
0.202109
-0.0203542
0.201122
-0.0156583
-0.00911925
0.154012
-0.0466823
0.180362
-0.0568142
0.193481
-0.0557388
0.199957
-0.0492679
0.202942
-0.0411574
0.203964
-0.0331771
0.203842
-0.0259323
0.203009
-0.0195213
0.201737
-0.014386
-0.00738576
0.154316
0.181076
0.194415
0.200974
0.203944
0.204885
0.20464
0.203664
0.20224
0.105232
-0.00454612
-0.100686
0.104197
0.00103518
0.102714
0.00148255
0.102822
-0.000107687
0.103862
-0.00103992
0.105069
-0.00120738
0.106138
-0.001069
0.106968
-0.000829944
0.107546
-0.000577717
-0.000235017
0.23113
0.0637911
-0.299467
0.199313
0.0328526
0.187228
0.0135668
0.184018
0.00310263
0.184266
-0.00128786
0.185681
-0.00262218
0.187256
-0.00264437
0.18859
-0.0021641
0.189585
-0.00157247
-0.00066188
0.251579
0.15604
-0.343828
0.213998
0.0704341
0.200119
0.0274454
0.196305
0.00691673
0.196427
-0.00141007
0.197886
-0.0040814
0.199558
-0.00431606
0.200991
-0.00359739
0.202074
-0.00265515
-0.0011321
0.246894
0.240628
-0.331482
0.212593
0.104735
0.200074
0.039964
0.196875
0.0101162
0.197318
-0.00185391
0.198941
-0.00570441
0.200701
-0.00607518
0.202177
-0.00507436
0.203283
-0.00376066
-0.00161155
0.241576
-0.314009
0.210224
0.198693
0.196175
0.197065
0.198919
0.200791
0.202319
0.203446
0.0120223
0.000634978
-0.0126573
0.0124256
-0.000403233
0.0133313
-0.000905744
0.0143365
-0.00100518
0.0160626
-0.00172612
0.0196097
-0.00354708
0.0301014
-0.0104917
0.0448886
-0.0147872
0.0720014
-0.0271128
-0.0286845
0.0346001
0.00152847
-0.0354936
0.037553
-0.00335606
0.0446024
-0.00795517
0.0574116
-0.0138144
0.0785841
-0.0228986
0.110385
-0.0353475
0.154101
-0.0542083
0.201781
-0.0624672
0.255848
-0.0811795
-0.0723039
0.0561392
0.00159406
-0.0562048
0.0629751
-0.0101919
0.078129
-0.0231091
0.104155
-0.0398403
0.142116
-0.0608601
0.189794
-0.0830252
0.239665
-0.104079
0.283858
-0.10666
0.319535
-0.116857
-0.0965967
0.0755347
0.000141006
-0.0740816
0.0863776
-0.0210348
0.108422
-0.0451533
0.142482
-0.0739005
0.185263
-0.103641
0.229444
-0.127207
0.26557
-0.140204
0.294387
-0.135477
0.314551
-0.137021
-0.113528
0.0915918
-0.0883504
0.105682
0.131632
0.16708
0.205303
0.238922
0.263924
0.285334
0.297085
0.0906744
-0.0880405
0.0970598
-0.0996938
0.0818702
-0.0906309
0.0994351
0.072991
-0.0941113
0.10299
0.0632873
-0.0977227
0.107426
0.0524739
-0.101252
0.112066
0.0405981
-0.104553
0.116429
0.0279733
-0.106465
0.11909
0.0154714
-0.102512
0.115014
0.00507052
-0.0835869
0.0939878
-0.0400377
0.0451082
0.104908
-0.0781156
-0.114833
0.0943711
-0.0800939
0.0827692
-0.0825094
0.0702529
-0.0852063
0.0570805
-0.08808
0.0434531
-0.0909255
0.0296187
-0.0926308
0.0163115
-0.0892048
0.00537792
-0.0726533
-0.0346598
0.101419
-0.066774
-0.112761
0.0898739
-0.0685484
0.0781022
-0.0707377
0.0660796
-0.0731837
0.0537295
-0.0757299
0.0409843
-0.0781802
0.0279501
-0.0795966
0.0153206
-0.0765753
0.00495726
-0.06229
-0.0297025
0.103807
-0.0554356
-0.115145
0.0922842
-0.0570256
0.0804348
-0.0588882
0.0681628
-0.0609117
0.055425
-0.0629922
0.0422352
-0.0649904
0.028775
-0.0661364
0.0157884
-0.0635886
0.00515108
-0.0516527
-0.0245514
0.104357
-0.0440199
-0.115773
0.0926627
-0.0453313
0.0806195
-0.0468451
0.0681912
-0.0484834
0.0553618
-0.0501627
0.0421417
-0.0517703
0.0286905
-0.0526852
0.015725
-0.0506231
0.00511022
-0.0410379
-0.0194412
0.104656
-0.0326215
-0.116054
0.0929575
-0.0336332
0.0809032
-0.0347907
0.0684573
-0.0360376
0.055601
-0.0373064
0.0423432
-0.0385126
0.0288453
-0.0391873
0.0158267
-0.0376045
0.00515865
-0.0303698
-0.0142826
0.104761
-0.0212518
-0.116131
0.0930674
-0.0219393
0.0810047
-0.022728
0.0685432
-0.0235761
0.0556693
-0.0244325
0.0423953
-0.0252386
0.0288818
-0.0256739
0.0158464
-0.024569
0.00516425
-0.0196877
-0.0091183
0.104716
-0.00989844
-0.116069
0.0930297
-0.0102531
0.0809718
-0.0106702
0.0685146
-0.0111189
0.0556459
-0.0115638
0.0423781
-0.0119707
0.0288712
-0.012167
0.0158419
-0.0115397
0.00516446
-0.00901033
-0.00395384
0.104514
0.0014376
-0.11585
0.0928439
0.0014174
0.0808018
0.0013719
0.068362
0.00132098
0.0555132
0.00128503
0.0422685
0.00127393
0.0287886
0.00131296
0.0157901
0.00145872
0.00514427
0.00163553
0.00119043
0.104159
-0.11549
0.0925025
0.0804826
0.0680725
0.0552605
0.0420593
0.0286301
0.0156902
0.00510511
0.0257196
-0.205271
-0.0277298
0.0197478
-0.219564
0.0123452
-0.226233
0.00465379
-0.230741
-0.00282231
-0.234902
-0.00948095
-0.238293
-0.0138971
-0.236978
-0.013817
-0.2195
-0.00764429
-0.167328
-0.0691449
0.0546103
-0.200991
-0.0588904
0.0459076
-0.210862
0.0358232
-0.216149
0.0255279
-0.220446
0.0154273
-0.224801