# Selection   : all
# Cells       : 440
# Volume      : 7.374263e+01
# Time        	min(p)
1.7           	-1.881080e+00
1.75          	-1.876476e+00
1.8           	-1.874752e+00
