# Selection   : all
# Cells       : 440
# Volume      : 7.374263e+01
# Time        	max(p)
2.8           	1.843920e+00
2.85          	1.842003e+00
2.9           	1.839418e+00
