/*--------------------------------*- C++ -*----------------------------------*\
  =========                 |
  \\      /  F ield         | OpenFOAM: The Open Source CFD Toolbox
   \\    /   O peration     | Website:  https://openfoam.org
    \\  /    A nd           | Version:  13
     \\/     M anipulation  |
\*---------------------------------------------------------------------------*/
FoamFile
{
    format      ascii;
    class       volScalarField;
    location    "0.3";
    object      p;
}
// * * * * * * * * * * * * * * * * * * * * * * * * * * * * * * * * * * * * * //

dimensions      [0 2 -2 0 0 0 0];

internalField   nonuniform List<scalar>
1800
(
-1.560551488
-1.57268719615
-1.52511106214
-1.43730654231
-1.33783571313
-1.2428807522
-1.15812895265
-1.08365512
-1.01824815206
-0.965675338885
-1.7602452457
-1.77320658707
-1.7174465469
-1.61753312385
-1.50567676184
-1.39929904762
-1.30450854026
-1.22171782741
-1.15050800914
-1.09285631942
-1.95196079605
-1.96508733822
-1.90016985102
-1.78784840375
-1.66359373119
-1.54569951241
-1.44040381604
-1.34801557225
-1.26762355418
-1.19995134197
-2.13042746563
-2.14298647399
-2.06836479684
-1.94414754374
-1.80861175265
-1.68062536695
-1.56639853552
-1.46604025362
-1.37846795133
-1.30410987162
-2.28966758796
-2.30085693482
-2.21602206689
-2.08052835991
-1.93465345762
-1.79754305053
-1.67516904875
-1.56743926929
-1.47311818808
-1.39198394292
-2.42443506737
-2.43355573033
-2.33842359719
-2.19283897911
-2.03810878635
-1.89343522999
-1.76443989787
-1.65077971662
-1.55102665623
-1.46456510949
-2.52943335585
-2.53590154655
-2.43063312637
-2.27643931764
-2.11440582484
-1.96375068389
-1.82958218627
-1.7112858234
-1.60727668866
-1.51656635814
-2.60024630542
-2.60369665238
-2.48896760528
-2.32789220661
-2.1603284058
-2.00545146132
-1.86771059038
-1.7462173915
-1.63921383708
-1.54539413231
-2.63340810904
-2.63347660619
-2.51046276676
-2.34425710844
-2.17301927553
-2.01580777517
-1.87612284535
-1.75290700452
-1.64423275764
-1.54843888958
-2.62678584526
-2.62338017254
-2.49304322555
-2.32418057986
-2.15081516524
-1.99307282337
-1.85298422636
-1.72944422488
-1.6203487533
-1.52366681198
-0.139016708429
-0.129325522056
-0.118075503361
-0.104516533921
-0.0929551504815
-0.0856741885976
-0.0826866992225
-0.0832197843086
-0.0864916304697
-0.0918673321826
-0.186458802369
-0.178052118424
-0.165951338236
-0.149986790755
-0.135243080006
-0.12465639412
-0.118535101066
-0.116171771573
-0.116776681715
-0.11954066748
-0.259897027909
-0.253363738692
-0.239937697828
-0.220311343257
-0.20073823342
-0.185138610946
-0.174267259724
-0.167515649228
-0.164081700868
-0.162863015353
-0.358426485739
-0.354193637687
-0.338913404336
-0.314390822017
-0.288447198125
-0.266268445375
-0.249176232438
-0.236698005307
-0.228004733843
-0.221582111303
-0.480749266794
-0.479082819623
-0.461361417933
-0.43074213376
-0.397029632972
-0.36689037559
-0.342305115445
-0.322965568521
-0.307998761002
-0.295365953204
-0.625009608382
-0.626039985273
-0.605242855952
-0.567403950643
-0.524717387047
-0.485465445547
-0.45235865591
-0.425270268951
-0.403270046258
-0.383704074441
-0.78865014137
-0.792401923862
-0.767892932819
-0.721875070228
-0.669287363647
-0.620094197097
-0.577754677714
-0.542336951612
-0.512825359986
-0.485975243733
-0.968256091746
-0.974661379334
-0.945814808924
-0.890874109961
-0.827823792899
-0.76830000138
-0.716478562003
-0.672603817053
-0.635471509182
-0.6014805312
-1.15963702515
-1.16846980789
-1.13447637348
-1.06973872677
-0.995593352772
-0.925331847972
-0.863829696118
-0.81145200387
-0.766630317579
-0.726063147406
-1.35850620457
-1.36930459527
-1.32902658562
-1.25317775815
-1.16666505611
-1.08435840273
-1.01172314108
-0.949141481177
-0.894886875719
-0.847676499378
-0.134802501247
-0.212020915216
-0.280869324937
-0.331097661924
-0.369526116429
-0.400396862281
-0.42702814903
-0.451299002495
-0.474317193307
-0.496738229103
-0.146312403779
-0.220073529505
-0.284587283907
-0.33315524872
-0.370926449285
-0.401465169269
-0.427843946443
-0.451879269963
-0.474669011338
-0.496865893821
-0.164238111678
-0.232617216973
-0.290343754292
-0.336083716204
-0.372660083545
-0.40264508516
-0.428679577927
-0.452445906786
-0.475003926497
-0.496987518186
-0.189535238013
-0.249145658625
-0.298054209364
-0.339872587491
-0.374737776141
-0.403946199008
-0.429542182163
-0.453004857845
-0.475325657314
-0.497103546846
-0.223596264243
-0.268945836093
-0.307574642585
-0.344494223095
-0.37715919511
-0.405373399287
-0.430437799966
-0.453561509133
-0.475637641897
-0.497214725177
-0.268154899132
-0.291156489828
-0.318676620253
-0.349900910892
-0.379925251341
-0.406929488744
-0.431371714794
-0.454120806615
-0.47594295459
-0.497321187565
-0.325123237051
-0.314963000055
-0.330988169325
-0.356011521196
-0.383026463028
-0.408620113387
-0.432348787195
-0.454687384404
-0.476244367283
-0.497422939439
-0.396332177907
-0.341097247369
-0.34423284421
-0.362739621015
-0.386453315909
-0.410448550507
-0.433373517141
-0.455265992325
-0.476544930367
-0.497519719996
-0.482175526482
-0.371614779947
-0.358733417902
-0.370224710102
-0.390289387939
-0.412456378154
-0.434466351752
-0.455866825466
-0.476848578498
-0.497615080094
-0.575974367379
-0.406108688594
-0.374234537024
-0.378326347636
-0.394497830497
-0.414643036204
-0.435630362762
-0.456495864079
-0.477160471657
-0.497698207292
-0.635432511029
-0.442840857635
-0.392678228319
-0.389796495656
-0.401554367291
-0.418912585872
-0.438224043026
-0.458049909643
-0.477971985022
-0.497897077309
-0.658678151139
-0.480038000356
-0.418517644305
-0.406858710251
-0.412559082337
-0.425896073028
-0.442631543752
-0.460757235525
-0.479433144088
-0.498342763258
-0.664313533467
-0.501810137438
-0.437074114395
-0.420831389009
-0.422369655093
-0.43244657377
-0.446877957795
-0.463399476139
-0.48087389435
-0.498789169318
-0.666131082355
-0.519842009582
-0.454003590829
-0.433728606257
-0.431570083469
-0.438703756456
-0.450984118063
-0.465972609433
-0.482287586075
-0.499233153753
-0.663493300377
-0.532827165735
-0.468299034556
-0.445153363516
-0.439962402772
-0.444535728306
-0.45486367737
-0.468423054531
-0.48364475236
-0.499664863799
-0.658971525842
-0.5427382901
-0.480458098393
-0.455218240845
-0.447502875689
-0.449857837184
-0.458443030398
-0.470701868304
-0.484918456215
-0.500075966511
-0.654603612117
-0.550697947067
-0.490789330548
-0.463976625525
-0.454147185344
-0.454596017136
-0.461657450383
-0.472763529727
-0.48608440704
-0.500459628028
-0.651745524551
-0.557750967572
-0.499716668903
-0.471531368175
-0.459875376024
-0.458693862245
-0.464450818848
-0.474567041956
-0.487120478667
-0.50080759902
-0.649630154149
-0.564469414368
-0.508130150658
-0.478543250499
-0.46513519447
-0.46243876016
-0.467007305799
-0.476231185108
-0.488114795893
-0.501167153377
-0.658669083448
-0.571696552463
-0.514674208312
-0.483538139473
-0.468753104335
-0.464982122879
-0.468733592902
-0.477348764334
-0.488776969446
-0.50140350852
-1.36144946244
-1.38639476081
-1.38798385209
-1.36756793355
-1.32735583967
-1.27003520876
-1.19935377029
-1.11642965002
-1.02867456865
-0.93208479605
-1.18865383494
-1.21517711958
-1.22268077786
-1.2126287061
-1.18597217355
-1.14621321532
-1.09453955319
-1.03504487965
-0.971555543649
-0.903367247012
-1.0564215083
-1.08222852479
-1.09277160077
-1.08928827852
-1.07176867717
-1.04427067278
-1.00573383458
-0.961839454614
-0.912688316188
-0.859589332622
-0.953876321085
-0.979906854152
-0.992650598238
-0.993337070465
-0.981830420079
-0.961930611595
-0.93210961636
-0.898154959642
-0.858800029115
-0.816669974087
-0.876261947828
-0.902027134161
-0.916132846433
-0.919549061313
-0.912283064451
-0.897444635986
-0.873977464796
-0.846970277043
-0.814977009511
-0.780955171114
-0.816950497873
-0.842774803127
-0.85803449745
-0.863469090721
-0.859345019997
-0.848089336337
-0.829292373095
-0.80715982016
-0.780333946657
-0.751833099325
-0.772891334862
-0.798997470695
-0.815237372861
-0.822198247126
-0.820376134447
-0.811652490763
-0.796149569218
-0.777334554412
-0.754171072061
-0.729573037551
-0.74166395149
-0.76839238357
-0.78569826464
-0.793974065467
-0.793881629962
-0.786933055181
-0.773620319325
-0.756852355516
-0.735993305595
-0.714021636049
-0.72518629134
-0.751816777439
-0.770079145969
-0.779782954301
-0.781232099615
-0.775500552764
-0.763237315615
-0.746764370953
-0.726151644481
-0.702902619172
-0.712544356912
-0.742846183663
-0.764390052575
-0.777664745798
-0.783207477494
-0.781699816992
-0.773937809317
-0.760948482871
-0.742993478551
-0.720260261996
-0.0796543945378
-0.133142439585
-0.19770336961
-0.267590738827
-0.342991060836
-0.426830681805
-0.520708421038
-0.620723236864
-0.70729097413
-0.735037110902
-0.267307180423
-0.325949499587
-0.393691198096
-0.468674373302
-0.552435786635
-0.647398541131
-0.754277119742
-0.868254213133
-0.96668150125
-0.996441520921
-0.47852653431
-0.540825110335
-0.610998040627
-0.689960953022
-0.779789201152
-0.882609013809
-0.99891283997
-1.12363062382
-1.23170010923
-1.26201179651
-0.677700994134
-0.74500633905
-0.82092408949
-0.906918556539
-1.00483344234
-1.11668069324
-1.24292714766
-1.37846508738
-1.4960856535
-1.52581070755
-0.855762902181
-0.92993333858
-1.01356851786
-1.10817512696
-1.2155298014
-1.33765167207
-1.4748393646
-1.6217774914
-1.7495049654
-1.77706226357
-1.01594334397
-1.09703018907
-1.18827170865
-1.29127423654
-1.40787447981
-1.54009164267
-1.68781041913
-1.84495026085
-1.98284746721
-2.00495917073
-1.16004257769
-1.24679791549
-1.34449212417
-1.45476123956
-1.57946311847
-1.72048237007
-1.87755095299
-2.0440675571
-2.18723882795
-2.20173821595
-1.28561268025
-1.3767709716
-1.479636091
-1.59577038344
-1.72713420498
-1.87541454474
-2.03887028321
-2.20883045616
-2.36083295179
-2.36286360639
-1.38891484955
-1.48370548198
-1.59061379953
-1.71103369717
-1.84709377916
-2.00170945211
-2.17237623605
-2.3421940379
-2.48419243098
-2.48965965531
-1.47083785323
-1.56678269159
-1.67539978164
-1.79777712177
-1.93601593646
-2.09252898297
-2.26858245122
-2.43659641035
-2.57246508348
-2.5791925412
1.02863723331
1.04286413579
1.05901953489
1.0755019492
1.09090302472
1.10434967226
1.11504160814
1.12243476728
1.12760662627
1.13281763265
0.978720748165
0.991028309435
1.00476164682
1.01839342383
1.03063307633
1.04059092664
1.0474377413
1.05084741741
1.0526471797
1.05601309115
0.909269385631
0.918884228303
0.929115829722
0.938607456254
0.94627476308
0.951186989825
0.952459921025
0.950080643903
0.94708413967
0.947703340162
0.820994612098
0.827180710874
0.832904280757
0.837104021296
0.838890099667
0.837327311582
0.831445902354
0.821599636346
0.81242297331
0.809381711392
0.71471229772
0.716869242485
0.717331264779
0.715248214115
0.710045857915
0.700740294357
0.686293999146
0.667420525716
0.650350250146
0.64407111863
0.591517152345
0.589387679504
0.584057419188
0.574902285277
0.561715677904
0.543531945993
0.519268983968
0.490024908819
0.463692521227
0.453886906072
0.453501285473
0.447298762514
0.436024511744
0.41928877023
0.397337113837
0.369287078962
0.334049484972
0.293222398886
0.256570323654
0.242999233861
0.307519640054
0.296638638971
0.278096849899
0.252241312023
0.220013814723
0.180653926297
0.133058174499
0.0793535476797
0.0314133407442
0.0140997886924
0.161076578283
0.145265503397
0.118344057427
0.0817907902231
0.0376064351878
-0.0147986611839
-0.0764866904277
-0.144676366034
-0.205057559513
-0.22616310387
0.0306523500268
-0.0012901355811
-0.0448090676851
-0.0964497918792
-0.15465547693
-0.221074583688
-0.297327376069
-0.380286332545
-0.453142532507
-0.477674899971
0.854423391812
0.974480682721
0.955207599847
0.771437953553
0.782161818745
0.792369323799
0.801174374529
0.822356017063
0.863762052135
0.967598661472
0.848608909516
0.970253321611
0.950423303176
0.765605349237
0.775877551305
0.784694109921
0.791252077905
0.809111495887
0.844424107189
0.934498454846
0.843092776743
0.966355942386
0.945527599291
0.758761041229
0.769028581836
0.776222896295
0.779772726739
0.793363964592
0.819756789133
0.889771861653
0.837881354878
0.962830357428
0.940507421481
0.750947284693
0.76167754264
0.766977661006
0.766761281964
0.774912744795
0.789236613845
0.833833133787
0.83300732481
0.95969008031
0.935340255649
0.742199771146
0.753916893745
0.756943957805
0.752237930089
0.753573284408
0.752752225515
0.766585073584
0.82854106046
0.956942702817
0.929958497801
0.732607727613
0.745816362559
0.746150866882
0.736194980495
0.729220944865
0.711283822804
0.686545077567
0.824547642363
0.954595216885
0.924290272744
0.722240795228
0.737476834843
0.734579654709
0.718592413986
0.701943507937
0.666565020307
0.590663725032
0.821113583714
0.952627481386
0.918292959425
0.711213310535
0.728958296017
0.72218586301
0.699451437907
0.6717751465
0.617851654975
0.48089870736
0.818339215255
0.950983306992
0.911898608455
0.699688717614
0.720336854227
0.708991010478
0.678895290588
0.638643931193
0.563175373879
0.354069329606
0.816549479556
0.949727723414
0.905118605815
0.687843604113
0.711573168747
0.694999934441
0.657281921438
0.604019596175
0.504668829229
0.225725471747
0.814740493034
0.947426229243
0.9006793296
0.676947335319
0.699102718142
0.676675378719
0.6289031618
0.559594076929
0.439651205572
0.105016191362
0.814703828273
0.944315040529
0.899649320941
0.668780199554
0.684264315094
0.656895607852
0.599992033046
0.517960671989
0.381335947811
0.0678027147674
0.816767515083
0.941962866985
0.898664911061
0.661595742405
0.670634398589
0.638533010884
0.57381301573
0.48232928073
0.333185557381
0.0410891264396
0.821230401214
0.940607206361
0.897781633515
0.655429294085
0.658528912402
0.622022535951
0.550822787517
0.452383116654
0.294226844904
0.0251328906276
0.828840748422
0.940395503873
0.897117921398
0.65028820052
0.648136037294
0.6076903556
0.531316496351
0.427702006057
0.264210721445
0.0162452703039
0.839513744972
0.941280144782
0.896704116533
0.646185258923
0.639565256774
0.595710945383
0.515358049651
0.407971513835
0.242299713544
0.0119176313953
0.855864422726
0.943205099631
0.896447159896
0.643101868955
0.632874264413
0.586198856579
0.502950457198
0.392931553767
0.227240065117
0.0107991797632
0.876606834774
0.946457701974
0.896445299012
0.641041577459
0.628145136855
0.579199380105
0.494013031135
0.382352517824
0.217845255283
0.0123838565544
0.89072951818
0.947247809022
0.893543977124
0.640194034277
0.625580377333
0.574906185941
0.488750139606
0.37640325289
0.213631332304
0.0179810446193
0.949842608323
0.95804040852
0.897068837962
0.638424655008
0.625618406408
0.573183093288
0.486737104985
0.374076467879
0.213103831492
0.0214530900415
-0.11402885593
-0.27065697104
-0.452904748325
-0.625202711014
-0.777743679364
-0.915126746139
-1.04058201958
-1.15143972881
-1.24311995419
-1.31194707759
-0.179587459659
-0.297767646515
-0.433972163485
-0.569316815224
-0.692760936671
-0.804837666399
-0.908203411926
-1.00119434381
-1.08068798505
-1.14341928488
-0.206184342708
-0.300040278397
-0.403487917505
-0.513942862264
-0.619940021867
-0.717493597726
-0.80764846693
-0.889381405069
-0.959635025551
-1.01567575279
-0.210580953623
-0.292441463834
-0.378250431737
-0.471482025669
-0.563719172445
-0.649381330003
-0.728524172045
-0.800680303727
-0.863520403478
-0.914931102077
-0.203559824936
-0.278497731585
-0.353602161642
-0.43453194681
-0.516627737334
-0.594211545005
-0.666219923198
-0.732262722203
-0.790537844986
-0.839028549404
-0.191973616645
-0.262350476671
-0.330890880102
-0.40376900631
-0.478851945208
-0.550819672379
-0.617896471989
-0.679616075344
-0.734513554567
-0.780740986865
-0.179695139593
-0.246822722791
-0.311027298488
-0.378635301487
-0.448989505347
-0.517121000819
-0.580863077955
-0.639667448676
-0.692295481116
-0.737129833028
-0.168126414006
-0.233088880429
-0.294427843689
-0.358821074649
-0.426350115134
-0.492167315879
-0.553910843818
-0.610973898307
-0.662193039489
-0.706098861254
-0.154459754054
-0.217813843473
-0.277915984215
-0.34156647767
-0.408623000579
-0.474215177181
-0.535968799403
-0.593228374507
-0.644843278325
-0.689256041013
-0.137135240405
-0.196009581668
-0.254639207585
-0.318928732595
-0.386535472722
-0.452739713537
-0.515639904653
-0.574383475092
-0.627657679933
-0.674068402267
-3.77885264571
-3.75956300605
-3.57795845373
-3.36627238969
-3.16353576873
-2.98856785581
-2.84189533049
-2.72090751893
-2.62359982867
-2.54939773225
-3.82952703142
-3.82053646827
-3.65365943026
-3.44413066536
-3.23993508146
-3.06168681404
-2.91199715386
-2.78837575878
-2.68930947522
-2.61567517153
-3.76740913559
-3.76898981401
-3.61891491029
-3.41412643389
-3.20886927202
-3.02745753463
-2.87469907803
-2.74830037599
-2.64630216302
-2.56937467704
-3.600152531
-3.61040680323
-3.47911730327
-3.28149929656
-3.07631235789
-2.89207709035
-2.73615932968
-2.60695086809
-2.50194965136
-2.42028414076
-3.3438653325
-3.3605082435
-3.24825813686
-3.06084274348
-2.85844041716
-2.67330728332
-2.51544918407
-2.38430656107
-2.27721688347
-2.19219532988
-3.02083853946
-3.04180071073
-2.94738024149
-2.77368916816
-2.5787508642
-2.39693748974
-2.24043141008
-2.10982054458
-2.00260224284
-1.91765947617
-2.65766505484
-2.68047805007
-2.60219519582
-2.44602844391
-2.2648223038
-2.09268444365
-1.94296843311
-1.8174166904
-1.71341209187
-1.63221396167
-2.2811644715
-2.30331549201
-2.23917116325
-2.10337757107
-1.94175379661
-1.78576940127
-1.64868699971
-1.5329747508
-1.43654406118
-1.36204937053
-1.91520843966
-1.93465976677
-1.88269559541
-1.76857753483
-1.63052792035
-1.49592397593
-1.37687537688
-1.27605922189
-1.19184072174
-1.13044850001
-1.57614485031
-1.59178010769
-1.54984620166
-1.45639493628
-1.3423646649
-1.23047416217
-1.13082682836
-1.04553054056
-0.971884035243
-0.916292151053
-1.27273867174
-1.28476219406
-1.25085449154
-1.17600414872
-1.08481870173
-0.995747916933
-0.917156419921
-0.851028794947
-0.795238046414
-0.747125801025
-1.00866399744
-1.0167802158
-0.989263357716
-0.930070963819
-0.858535546131
-0.789279996153
-0.728730659024
-0.678215093791
-0.636442112902
-0.598076878122
-0.782840334487
-0.787091559693
-0.764468214454
-0.717815248249
-0.662192385359
-0.609019308616
-0.563004717992
-0.524866030963
-0.49378199067
-0.464875975294
-0.593147418222
-0.593857823796
-0.575052775755
-0.538585437499
-0.496131309326
-0.456475800028
-0.422941045329
-0.395756855486
-0.374177201984
-0.354500376673
-0.437612808407
-0.435182187882
-0.419356415028
-0.391107778987
-0.359449384147
-0.33099374935
-0.307926652918
-0.290100438653
-0.276732262754
-0.265217132766
-0.314399933209
-0.309246954589
-0.295621020257
-0.273720206861
-0.250531826068
-0.230912588225
-0.216163655744
-0.205866712219
-0.199223823575
-0.19445764405
-0.221953584867
-0.214552802147
-0.202431809258
-0.185149561862
-0.168232331105
-0.155195099321
-0.14668255906
-0.142090023349
-0.140623323355
-0.141073680148
-0.159050187436
-0.149976137688
-0.138768689354
-0.124536654533
-0.111819414473
-0.103224803957
-0.0989431288986
-0.0982550337832
-0.100371482432
-0.104445837623
-0.12467801693
-0.114656497575
-0.103886342047
-0.0912529202783
-0.0807660113218
-0.0745556466748
-0.0725640587038
-0.0740044388285
-0.0780927659522
-0.0841873977356
-0.11825452694
-0.107986875104
-0.097151344546
-0.0847066169209
-0.0746029155803
-0.068816976986
-0.0672369049839
-0.0690660981907
-0.0735257855622
-0.0800355246981
-0.464321044382
-0.35114756893
-0.343983605751
-0.353516171283
-0.371087162336
-0.393390478718
-0.417921272033
-0.443289974379
-0.469012040726
-0.494889118464
-0.367385973811
-0.320402086639
-0.330702422103
-0.347862159871
-0.369808785385
-0.393953778141
-0.419051658019
-0.444371454704
-0.46974812641
-0.49513906863
-0.291661445649
-0.295884778327
-0.319929679367
-0.343891014364
-0.368891605318
-0.394547701464
-0.420117897594
-0.445375659928
-0.470428191723
-0.495370965125
-0.235858505846
-0.27542826078
-0.309938822047
-0.339844703067
-0.368092844021
-0.395137200084
-0.421114664763
-0.446305145493
-0.471055705206
-0.495586349874
-0.195059525529
-0.257243141896
-0.300789999899
-0.336360257165
-0.36751016435
-0.395740014994
-0.422052524353
-0.447166577051
-0.471634914196
-0.495786312788
-0.166206325829
-0.240728208147
-0.292914487232
-0.333540011427
-0.367161030359
-0.396371223124
-0.422941520075
-0.447967150245
-0.472169817315
-0.495972480351
-0.146740017988
-0.226879644762
-0.286622091802
-0.331436759721
-0.367063088871
-0.397040960756
-0.423792488651
-0.448713583457
-0.472664202889
-0.496146109905
-0.134744098882
-0.216284146889
-0.282150356465
-0.330105001306
-0.367235351707
-0.397765209916
-0.424616265259
-0.449413037407
-0.473122270337
-0.496308367472
-0.129137297574
-0.210199635463
-0.279662783761
-0.329587192373
-0.367692639871
-0.398557355051
-0.425423528656
-0.450072430223
-0.473547681795
-0.496460410053
-0.129149434779
-0.208719008773
-0.279226008207
-0.329910997735
-0.368452346001
-0.399430673966
-0.426224193246
-0.450698869813
-0.473944672368
-0.496603331977
-0.677483389788
-0.479739726842
-0.405393224576
-0.382677851546
-0.383442805203
-0.397334680787
-0.418319170982
-0.442478001881
-0.468083900055
-0.494455709662
-0.632421856116
-0.456190296995
-0.395757978742
-0.378837467114
-0.381907728245
-0.396976593147
-0.418330929608
-0.442603351621
-0.46821709054
-0.494517563137
-0.600944575405
-0.436882706969
-0.386187050545
-0.374296064578
-0.379867538834
-0.396280837124
-0.418228700807
-0.442714459085
-0.468369281611
-0.494594402304
-0.566366963301
-0.413286602767
-0.374044986067
-0.368303986633
-0.377301528994
-0.395223891343
-0.417957926485
-0.442747797428
-0.468477831294
-0.494652570897
-0.524733832374
-0.381057862847
-0.357467641099
-0.359975950354
-0.373571743523
-0.393837910109
-0.417547222195
-0.442721259605
-0.468556283571
-0.494697793328
-2.48076761564
-2.54975770675
-2.52275721189
-2.40603918088
-2.21332558167
-1.98276463945
-1.71647991836
-1.47472857437
-1.24273877834
-1.04155339276
-2.47803028468
-2.54437912745
-2.51046013697
-2.38673673824
-2.18971011594
-1.95808411224
-1.69608213789
-1.45550211723
-1.22480197497
-1.01140817558
-2.48023971334
-2.54506063253
-2.50586509239
-2.37441003946
-2.16991391198
-1.92613750636
-1.65629223315
-1.40099013944
-1.17153054762
-0.978812424873
-2.49077966002
-2.55650907509
-2.51327703467
-2.37225689799
-2.15560773398
-1.89527457433
-1.61826008071
-1.35579594982
-1.13283879548
-0.948807875605
-2.51030800571
-2.57718359307
-2.52976709372
-2.37925824967
-2.15046417529
-1.87687858182
-1.59357470376
-1.32743608936
-1.10239423125
-0.907827503076
0.458471247958
0.437461982841
0.406702228595
0.369135942896
0.326656599334
0.277834546824
0.220521786663
0.156796546219
0.100528803923
0.0795042988174
0.579714225279
0.57532058202
0.561892676639
0.540473845052
0.513131833842
0.479392432421
0.437965235436
0.390719312449
0.349022308332
0.333995353094
0.702036574735
0.702104916021
0.696482582467
0.685517712169
0.670052038531
0.649385519375
0.622296565245
0.590073430702
0.561659024651
0.551957781392
0.811303285408
0.815582455835
0.816804790835
0.814552444482
0.808888305403
0.798923980063
0.783574176811
0.763684169622
0.746180979785
0.740716391668
0.903226987333
0.911015290506
0.91742850286
0.921837706756
0.92378637343
0.922342552288
0.916458629498
0.906594025048
0.897929817487
0.895918975041
0.974908511405
0.985852740178
0.996762351763
1.006686843
1.01481547399
1.02020159931
1.02189653096
1.01999403274
1.01790349411
1.01932631584
1.0262027007
1.03958190258
1.05391901163
1.06800923951
1.08074875159
1.09124225233
1.09859197827
1.10257066823
1.10518371864
1.10944548356
1.05731912335
1.0722251383
1.08882335913
1.10565331917
1.12145695961
1.13530589473
1.14638507973
1.1542074323
1.15991594905
1.16575216372
1.06810448871
1.08365376821
1.10127755828
1.11942803657
1.13671097622
1.1521960611
1.16506243788
1.17469033385
1.1818380563
1.1882324302
1.05848697302
1.07382130803
1.09131236156
1.10929012564
1.12632715551
1.14158221279
1.15428669386
1.16381336197
1.17084733535
1.17710091062
-2.37862772814
-2.45559197398
-2.55213923734
-2.67021008418
-2.81313370697
-2.98430062727
-3.18670599332
-3.39256915292
-3.5900956809
-3.6170396834
-2.12320968756
-2.20111032362
-2.29642768149
-2.41107647739
-2.54907007289
-2.7137156436
-2.90474226737
-3.11591110604
-3.33294026905
-3.35408775559
-1.80611863294
-1.88224011827
-1.97530156769
-2.08646373194
-2.21919160821
-2.37670943262
-2.56107623375
-2.77034606292
-2.9701276512
-3.01739177229
-1.44742684764
-1.5230297895
-1.61452885746
-1.72257471499
-1.85000030978
-2.00017518432
-2.17558115585
-2.3727204191
-2.55577002333
-2.61636378308
-1.07691203904
-1.15381195357
-1.24392395666
-1.34778594702
-1.4680936027
-1.60828460578
-1.77088972993
-1.95178953042
-2.11841507733
-2.1806690197
-0.729423791014
-0.804268293855
-0.889514192863
-0.985635467324
-1.09532142802
-1.22201555637
-1.36819490561
-1.5297832136
-1.67770763383
-1.73564271177
-0.420451150027
-0.487696944158
-0.563320903786
-0.647689219635
-0.743530027254
-0.854194864773
-0.981908241523
-1.12268803186
-1.25063942911
-1.30150518898
-0.139584269733
-0.196817621317
-0.261505440523
-0.333370304727
-0.415253580515
-0.510495759606
-0.620870394715
-0.742285245895
-0.851484522255
-0.894675687109
0.12665903293
0.0783578982825
0.0202843667985
-0.0438662468183
-0.115911904101
-0.199161811644
-0.295141860009
-0.39973759562
-0.492292814889
-0.528221880029
0.352245983855
0.310818126958
0.256109105731
0.196805493157
0.133541465393
0.0631688566555
-0.0165349240147
-0.102481615976
-0.177564032527
-0.20610898394
0.946517590869
1.0258494232
0.979310162087
0.769818393264
0.81944918157
0.82558805251
0.820038148687
0.818429592621
0.781682906617
0.627273900879
0.932480880051
1.02120276519
0.980926633061
0.774188204507
0.816754432483
0.825842481747
0.823288984982
0.829111292139
0.811035543031
0.714642748424
0.91998165166
1.01611486617
0.981265720242
0.777994947936
0.814015201545
0.82529043469
0.826616427449
0.838769197062
0.836911834059
0.802121992878
0.908903848969
1.01074990456
0.980426731446
0.781011881897
0.81119128567
0.823946128907
0.828385740563
0.845858438244
0.856733320526
0.869457138951
0.898983641504
1.00522826832
0.978567646266
0.783051261348
0.808247797469
0.821786245462
0.828777304067
0.850462506237
0.87209953127
0.921474390583
0.890014890582
0.999692940033
0.975850506795
0.784004102863
0.805047310205
0.818825179537
0.827802671834
0.852287151452
0.884122629839
0.958165136763
0.881821641141
0.994241860395
0.972483601911
0.783796432052
0.801501652034
0.815114148283
0.825439573692
0.851303648992
0.8907365274
0.982981795404
0.874273222653
0.98894748901
0.968613580739
0.782425209676
0.797506910308
0.810612519283
0.82162930353
0.847688877037
0.891677103016
0.99668019598
0.867220776278
0.983868458377
0.964364411931
0.779879409299
0.792968072037
0.80532351727
0.816349810505
0.841616138593
0.887362715694
0.998433364022
0.860619500341
0.979031580485
0.959872670326
0.776203888252
0.78787195342
0.799242096812
0.809539567219
0.833168538144
0.87805209361
0.988905111728
1.08213545365
1.04238188162
0.98280256213
0.766604961354
0.821058973424
0.818668545188
0.799786984663
0.775276590731
0.682992101004
0.49624164968
1.02240202548
1.03498863296
0.981848925097
0.768430678601
0.82032010282
0.819870442918
0.801393104878
0.778284400693
0.689279156223
0.498861187736
1.00352938059
1.03497933576
0.983828176918
0.768213119115
0.820619736707
0.821203954455
0.804443104395
0.784191444498
0.703594604102
0.503778040511
0.981424808278
1.03271820778
0.982115120426
0.767914803681
0.820835598288
0.82266293788
0.808602272429
0.7926742079
0.723356552707
0.520314950812
0.962489788277
1.02965046251
0.979506437428
0.767550555962
0.820893112045
0.824147598922
0.813491212425
0.803471647645
0.747698880495
0.54075116285
0.146582132133
0.00533821450215
-0.192345533299
-0.467415295306
-0.802270609454
-1.15681602752
-1.49589298251
-1.80572450461
-2.08734248136
-2.32100888045
0.13879799206
-0.000397514821914
-0.187974126176
-0.450033893106
-0.772370734857
-1.12343335541
-1.46972900629
-1.79115118283
-2.07995150296
-2.31770408269
0.165853864378
0.0167267973582
-0.175853306149
-0.431535073259
-0.742467619395
-1.09086165339
-1.44732608668
-1.78082635005
-2.07651215518
-2.31813386696
0.22538632257
0.0527686155089
-0.15917085359
-0.415218222637
-0.717978110203
-1.06418127091
-1.42877343209
-1.7739476135
-2.07764089182
-2.32450836846
0.311304376925
0.10941172213
-0.132987598277
-0.399650110063
-0.701692531789
-1.04716678407
-1.41660884293
-1.77139662026
-2.08440856535
-2.33870904091
)
;

boundaryField
{
    left
    {
        type            zeroGradient;
    }
    right
    {
        type            fixedValue;
        value           uniform 0;
    }
    down
    {
        type            zeroGradient;
    }
    up
    {
        type            zeroGradient;
    }
    cylinder
    {
        type            zeroGradient;
    }
    defaultFaces
    {
        type            empty;
    }
}


// ************************************************************************* //
