/*--------------------------------*- C++ -*----------------------------------*\
  =========                 |
  \\      /  F ield         | OpenFOAM: The Open Source CFD Toolbox
   \\    /   O peration     | Website:  https://openfoam.org
    \\  /    A nd           | Version:  13
     \\/     M anipulation  |
\*---------------------------------------------------------------------------*/
FoamFile
{
    format      ascii;
    class       surfaceScalarField;
    location    "3.5";
    object      phi;
}
// * * * * * * * * * * * * * * * * * * * * * * * * * * * * * * * * * * * * * //

dimensions      [0 3 -1 0 0 0 0];

internalField   nonuniform List<scalar> 
823
(
-0.00246104
0.013273
-0.010812
0.0177276
0.0108592
-0.0310479
0.0831468
-0.0239093
-0.0415098
0.189398
-0.08708
-0.0191711
-0.0932662
-0.0536443
0.336308
0.00085939
0.0124136
0.0439018
-0.0321832
0.139269
-0.119277
0.253088
-0.200898
-0.269803
0.429624
0.0218938
-0.00948015
0.110912
-0.121202
0.232007
-0.240371
0.353088
-0.32198
-0.374507
0.457793
0.0460674
-0.0555475
0.15127
-0.226405
0.245292
-0.334393
0.305867
-0.382554
-0.3961
0.32746
0.0626991
-0.118247
0.141278
-0.304984
0.186356
-0.379471
0.202888
-0.399086
0.213387
-0.4066
-0.0248515
0.0640978
-0.0392463
-0.0673961
0.103511
-0.0609661
-0.113374
0.108794
-0.0628153
-0.157699
0.105532
-0.0612068
0.100065
-0.198303
-0.0594609
-1.30446e-05
0.0641108
-0.0154073
0.118905
-0.0393975
0.132784
-0.0646111
0.130745
0.12135
-0.0858966
0.0213537
0.0427571
0.0425479
0.0977108
0.0544419
0.12089
0.0611374
0.12405
0.117956
0.0645316
0.0239874
0.0187697
0.0640767
0.0576216
0.102893
0.0820734
0.139985
0.0869578
0.0971512
0.16079
0.00795771
0.0345314
0.075095
0.142882
0.186389
-0.143649
0.357743
-0.412396
0.100357
-0.499134
0.255127
0.23437
-0.688422
0.554409
0.333847
-0.570773
0.471297
-0.28714
0.243287
0.0349413
0.236905
0.239067
-0.70326
0.329798
-0.779153
0.382808
-0.623783
-0.309735
0.216837
0.0845992
0.376027
-0.862449
0.438235
-0.841362
0.447093
-0.632641
-0.308016
0.344195
-0.0988065
0.451536
-0.96979
0.503976
-0.893802
0.498714
-0.627378
-0.294547
0.407645
-0.320063
0.492888
-1.05503
0.531084
-0.931999
0.523066
-0.619359
-0.282472
1.30022
-0.456034
-1.16425
1.22172
-0.976535
1.05518
-0.765463
0.88499
-0.449166
-0.193914
1.44001
-0.430511
-1.46553
1.22362
-0.760144
0.9702
-0.512044
0.787058
-0.266024
-0.120875
1.36075
-0.369195
-1.42207
1.18035
-0.579737
0.995054
-0.326751
0.825312
-0.096281
-0.0328973
1.23603
-0.252578
-1.35264
0.969218
-0.312928
0.764635
-0.122168
0.656377
0.0119771
0.0150866
0.68907
-0.941648
0.376142
0.253974
0.265951
1.13093
0.178363
-1.09591
1.22434
0.234053
1.32473
0.357404
1.31853
0.43582
0.490593
1.0447
0.118764
-0.985102
1.12777
0.150985
1.23418
0.250996
1.35465
0.315345
0.37971
0.990127
0.0661136
-0.937476
1.04805
0.0930622
1.14637
0.152677
1.27373
0.187985
0.231368
0.937438
0.0215456
-0.89287
0.995766
0.0347345
1.09028
0.0581597
1.20901
0.0692613
0.0877324
0.69176
-0.670215
0.726495
0.784655
0.853916
0.145319
0.304223
-0.248031
-0.201512
0.0973197
0.308777
-0.260778
0.0550204
0.318693
-0.276394
0.0193952
0.309874
-0.274248
0.199598
-0.180203
0.103445
0.341006
-0.140228
0.0666366
0.345585
0.0338401
0.35149
0.00784753
0.335866
0.207445
0.0731604
0.378691
-0.110845
0.0387244
0.380021
0.00950097
0.380713
-0.006174
0.351541
0.201271
-0.0149348
0.394911
-0.00128577
-0.0314056
0.396492
-0.0388984
0.388206
-0.0298856
0.342528
0.171386
-0.0968249
0.0851363
-0.0994188
-0.0906837
-0.0531391
0.19803
0.109109
-0.249656
-0.0574832
0.145148
0.113323
-0.0604418
0.0906432
0.118271
-0.0637658
0.0370508
0.118649
-0.0650566
0.0836231
-0.0465723
0.183888
0.151325
-0.226104
0.139187
0.158025
0.0893782
0.16808
0.0374647
0.170563
0.121088
0.139994
0.19589
-0.184558
0.0986435
0.199375
0.0590007
0.207723
0.0217127
0.207851
0.1428
0.148237
0.226557
-0.178905
0.110928
0.236684
0.0684375
0.250213
0.0267039
0.249584
0.169504
0.0856374
-0.107111
0.0615438
0.0353625
0.0106985
0.409894
0.0327723
-0.0466868
0.422932
0.0498713
-0.0629096
0.417211
0.183205
-0.177484
0.390455
0.260258
-0.233502
0.516852
-0.376054
0.408315
0.0204367
0.415853
0.042334
0.405486
0.193572
0.378009
0.287736
0.668757
0.401877
0.0145391
0.41084
0.0333709
0.380839
0.223574
0.368619
0.299955
0.852818
0.397186
0.0133325
0.395305
0.0352523
0.367883
0.250996
0.337503
0.330335
1.01142
0.388133
0.0211786
0.382548
0.0408381
0.33469
0.298854
0.319138
0.345886
1.22344
0.618584
0.00661479
0.646413
0.0130097
0.678363
0.266903
0.751468
0.272782
0.974457
1.00045
0.627676
-0.0170412
0.645291
-0.0046051
0.710966
0.201228
0.749009
0.234739
0.703527
1.01994
0.629779
-0.0427998
0.646788
-0.0216137
0.723272
0.124744
0.799299
0.158712
0.439175
1.06365
0.61995
-0.0587299
0.637917
-0.0395797
0.722771
0.0398893
0.819394
0.062089
0.205601
1.05297
0.545291
0.505711
0.5456
0.607689
0.81329
1.04012
-0.241174
1.03191
-0.132023
1.04649
-0.12542
1.04075
0.00445162
0.0299802
0.982451
-0.203685
0.971943
-0.121516
0.951307
-0.104784
0.962894
-0.00713496
0.00777174
0.990283
-0.130318
0.960229
-0.0914609
0.925031
-0.0695857
0.933502
-0.0156064
0.00379724
0.976527
-0.0538768
0.92727
-0.0422039
0.889728
-0.0320435
0.887059
-0.0129378
-0.0020135
0.759414
0.71721
0.685166
0.672228
0.0472187
0.143409
-0.190628
0.0718998
0.313452
-0.338133
0.0730446
0.367301
-0.368446
0.0633083
0.370854
-0.361118
0.339594
0.0516206
-0.327907
0.0684078
0.0750013
0.139575
0.242285
0.174757
0.332118
0.180107
0.365505
0.360413
0.159288
0.0574042
0.0175971
0.168191
0.131498
0.261539
0.23877
0.328073
0.298971
0.350133
0.338353
0.0278348
-0.0102377
0.123422
0.0359111
0.243721
0.118471
0.360806
0.181886
0.245837
0.465101
0.00661373
-0.0168514
0.0540875
-0.0115627
0.149165
0.023394
0.26455
0.0665008
0.109372
0.401015
-0.00168624
-0.0151652
0.0109852
-0.0242342
0.0523969
-0.0180176
0.119601
-0.000703658
0.0289382
0.200036
0.00279659
-0.0179618
0.0096041
-0.0310417
0.0234324
-0.031846
0.0478763
-0.0251476
-0.0118776
0.0886922
-0.00372159
-0.0142402
-0.0117505
-0.0230128
-0.0194714
-0.024125
-0.0233154
-0.0213036
-0.0155751
-0.0196179
-0.0234335
0.00919328
-0.0603917
0.0139454
-0.0981695
0.0136528
-0.13308
0.0136067
0.0147505
-0.163405
-0.030053
-0.0770737
-0.126236
-0.173836
-0.218547
0.333464
0.52327
-0.656698
0.386922
0.18205
-0.235508
0.376748
-0.0259267
0.0361002
0.380339
-0.0367421
0.0331512
-0.0140236
-0.00513726
0.223234
0.388728
0.201439
0.203845
0.232277
-0.0567643
0.307847
-0.112312
-0.0669764
-0.0177835
0.386893
0.0287936
0.157268
0.172423
-0.200394
0.288187
-0.228076
-0.12919
-0.186253
0.409741
-0.0110858
-0.0178994
0.171251
-0.382731
0.294264
-0.351089
-0.188748
-0.221202
0.0160256
0.187704
0.307912
0.200092
0.412283
-0.612374
0.0786953
0.121396
0.138603
-0.059908
0.209895
-0.0712914
-0.0308993
0.782401
-1.02682
0.66829
0.644482
0.606342
0.0849771
-0.0147843
-0.0701928
0.135897
-0.0509199
0.245389
-0.109492
0.413538
-0.168149
-0.198836
0.190456
-0.15362
0.298825
0.527686
0.824638
0.136532
-0.128099
0.159036
-0.167469
0.103092
-0.133137
0.166577
0.0657913
-0.140093
0.177394
0.0264879
-0.140043
0.179346
-0.0980461
0.124534
0.174367
-0.0898075
-0.212658
0.131925
-0.0906948
0.084165
-0.0923334
0.0348449
-0.0907229
-0.0632012
0.183944
-0.0422271
-0.231525
0.134834
-0.041584
0.0840314
-0.0415312
0.0341616
-0.0408531
-0.0290396
0.196258
0.00762088
-0.246106
0.145267
0.00940737
0.0922732
0.0114627
0.0385229
0.0128971
0.00948336
0.192586
-0.242448
0.141552
0.0892484
0.0370889
0.0385064
-0.308295
-0.058118
0.01515
-0.337762
-0.00653118
-0.346765
-0.0153257
-0.329338
-0.205954
0.119941
-0.278371
-0.149864
0.0779921
-0.295813
0.0376942
-0.306467
0.00750691
-0.299151
-0.198447
0.138611
-0.239735
-0.177247
0.098061
-0.255263
0.0574412
-0.265847
0.0203996
-0.262109
-0.178047
0.158624
-0.205208
-0.193151
0.115899
-0.212538
0.0703874
-0.220335
0.0276442
-0.219366
-0.150403
0.154791
-0.200963
0.108829
0.0658885
0.0258689
0.393662
0.0785727
-0.076255
0.393335
0.124876
-0.124549
0.347805
0.153677
-0.108146
0.29141
0.0477438
0.00865082
-0.159413
0.283355
0.398326
0.0762265
0.410997
0.112205
0.391936
0.172737
0.33495
0.10473
-0.0371218
0.401622
0.0705839
0.41967
0.0941576
0.412301
0.180106
0.360056
0.156975
0.0914092
0.406167
0.0603966
0.423307
0.0770176
0.424037
0.179376
0.382264
0.198748
0.227567
0.409689
0.423797
0.425689
0.390935
0.425101
0.0849501
0.324552
0.100548
0.253937
0.070615
0.268007
-0.0140697
-0.151613
0.41962
0.518746
0.494746
0.457214
0.451795
0.583538
0.334447
0.0851726
0.258537
0.0759099
0.171144
0.0873927
0.098807
0.0723374
0.0286142
0.467747
0.350505
0.260651
0.183124
)
;

boundaryField
{
    left
    {
        type            calculated;
        value           nonuniform List<scalar> 
17
(
-0.60402
-0.60402
-0.60402
-0.60402
-0.60402
-0.39598
-0.39598
-0.39598
-0.39598
-0.39598
-0.39598
-0.39598
-0.39598
-0.39598
-0.39598
-0.510051
-0.510051
)
;
    }
    right
    {
        type            calculated;
        value           nonuniform List<scalar> 
17
(
0.240794
0.570305
0.3995
0.3608
0.350401
0.353822
0.362451
0.3777
0.405403
0.445373
0.485244
0.510992
0.796432
0.714019
0.737334
0.608393
0.281038
)
;
    }
    down
    {
        type            calculated;
        value           uniform 0;
    }
    up
    {
        type            calculated;
        value           uniform 0;
    }
    cylinder
    {
        type            calculated;
        value           uniform 0;
    }
    defaultFaces
    {
        type            empty;
    }
}


// ************************************************************************* //
