/*--------------------------------*- C++ -*----------------------------------*\
  =========                 |
  \\      /  F ield         | OpenFOAM: The Open Source CFD Toolbox
   \\    /   O peration     | Website:  https://openfoam.org
    \\  /    A nd           | Version:  13
     \\/     M anipulation  |
\*---------------------------------------------------------------------------*/
FoamFile
{
    format      ascii;
    class       volScalarField;
    location    "17";
    object      p;
}
// * * * * * * * * * * * * * * * * * * * * * * * * * * * * * * * * * * * * * //

dimensions      [0 2 -2 0 0 0 0];

internalField   nonuniform List<scalar> 
440
(
-0.548624
-0.527067
-0.595912
-0.506434
-0.605153
-0.524971
-0.519636
-0.518266
-0.509388
-0.508622
-0.645897
-0.616511
-0.588383
-0.555388
-0.518177
-0.767427
-0.722599
-0.649514
-0.56262
-0.475
-0.864626
-0.804338
-0.670642
-0.530547
-0.400974
-1.16365
-1.13459
-1.09441
-1.05147
-1.01626
-1.12724
-1.10024
-1.06721
-1.03774
-1.01883
-1.10004
-1.11495
-1.16069
-1.22899
-1.31363
-0.853934
-0.911104
-1.0265
-1.16881
-1.26819
-0.177295
-0.252525
-0.340979
-0.368179
-0.336678
-0.752091
-1.75845
-1.25574
-0.0206621
0.0397056
-0.627639
-1.75174
-1.54526
-0.0645703
0.0114919
-0.534463
-1.6007
-1.63742
-0.108696
0.000958406
-0.392189
-1.31778
-1.5555
-0.152345
-0.0045443
-0.267494
-1.04414
-1.39331
-0.19584
-0.0166376
0.267867
-0.802131
-1.14782
-0.210692
-0.0335064
-0.0783127
-0.595238
-0.808756
-0.198428
-0.0361768
-0.0193381
-0.347664
-0.540896
-0.226962
-0.0659851
0.0457619
-0.23362
-0.409574
-0.21204
-0.0802892
0.0773478
-0.067748
-0.296889
-0.237201
-0.0900155
-0.175823
-0.309959
-0.461214
-0.634459
-0.707926
0.0468303
-0.0859386
-0.151484
-0.189329
-0.178579
0.189431
0.0848276
0.0192674
-0.0246476
-0.0498186
0.282253
0.186064
0.109347
0.0633231
0.0341328
0.326046
0.230391
0.149587
0.104714
0.0755601
1.02784
0.89319
0.721991
0.528427
0.309679
0.652302
0.503714
0.31883
0.109034
-0.125459
0.275101
0.121767
-0.0707957
-0.291979
-0.49772
-0.0414365
-0.200518
-0.393051
-0.60133
-0.758287
-0.261119
-0.413758
-0.589544
-0.772214
-0.872645
2.1625
2.19545
2.22772
2.24726
2.24933
1.98954
2.01209
2.031
2.03441
2.01754
1.77638
1.77057
1.74402
1.69583
1.62317
1.52887
1.49891
1.43648
1.34457
1.22439
1.27984
1.1915
1.07264
0.930266
0.755512
1.89765
1.89121
1.87828
1.93586
2.038
1.889
1.88038
1.86329
1.91664
1.96156
1.88137
1.86628
1.8455
1.88476
1.86421
1.87502
1.84973
1.8253
1.84027
1.71306
1.86991
1.83212
1.80308
1.79382
1.55116
1.86686
1.80293
1.77329
1.7014
1.37074
1.86803
1.77199
1.75782
1.58651
1.39019
1.87493
1.75787
1.74746
1.52855
1.36379
1.86922
1.73476
1.74396
1.48433
1.34692
1.90911
1.72577
1.74474
1.4589
1.35115
0.996904
0.730956
0.415567
0.160823
-0.0318239
0.939702
0.750991
0.529722
0.345898
0.173578
0.953788
0.794459
0.62381
0.463488
0.314388
0.995687
0.847127
0.695212
0.543338
0.407879
1.02469
0.879811
0.736002
0.587097
0.455258
-1.88275
-1.6948
-1.49162
-1.32192
-1.21934
-1.96282
-1.87517
-1.7087
-1.55955
-1.45653
-1.87977
-1.82306
-1.70372
-1.58334
-1.47915
-1.71332
-1.66151
-1.59501
-1.51919
-1.44091
-1.54377
-1.51457
-1.47886
-1.44087
-1.40461
-1.45573
-1.44607
-1.41002
-1.44484
-1.39853
-1.41733
-1.40813
-1.38588
-1.41605
-1.37534
-1.39143
-1.38343
-1.37759
-1.38577
-1.39377
-1.33801
-1.3334
-1.3349
-1.34763
-1.37714
-1.24516
-1.23276
-1.22126
-1.21226
-1.22092
-1.16926
-1.01962
-0.328368
0.0920206
0.080857
-1.18308
-1.13287
-0.347281
0.021129
0.0796652
-1.17746
-1.31659
-0.345062
-0.0587136
0.0819065
-1.06486
-1.5399
-0.466989
-0.0517289
0.0896117
-0.883277
-1.67827
-0.8488
-0.0134701
0.0737046
-0.686697
-1.10209
-0.452912
0.099135
0.0813654
-1.04997
-1.06288
-0.372488
0.12719
0.0827985
-1.16135
-1.37991
-1.39092
-1.29907
-1.05828
-1.18319
-1.40021
-1.40609
-1.34018
-1.27662
1.71404
1.68061
1.62742
1.55562
1.46133
1.92458
1.94045
1.93851
1.91686
1.87616
2.10609
2.13641
2.15722
2.16425
2.15615
2.21532
2.2543
2.29537
2.32835
2.34252
2.23484
2.27349
2.3168
2.35347
2.37074
-0.702783
-0.828934
-1.02644
-1.26057
-1.55078
-0.0294553
-0.186521
-0.394631
-0.646179
-0.978745
0.588455
0.426936
0.232328
0.00152228
-0.297064
1.0856
0.957985
0.803559
0.615974
0.383612
1.48164
1.39161
1.27419
1.13285
0.964558
1.95593
1.91633
1.89948
1.89576
1.89145
1.94127
1.91452
1.90047
1.91724
1.96789
1.92891
1.91133
1.90182
1.94035
2.05403
1.91753
1.90672
1.89772
1.94921
2.07268
1.90711
1.90035
1.88963
1.94792
2.07359
2.01035
1.92012
1.88373
1.81264
1.75336
1.96566
1.9119
1.87996
1.8369
1.76383
1.35312
1.0977
0.659852
0.026685
-0.662873
1.44548
1.13651
0.677816
0.0487105
-0.655701
)
;

boundaryField
{
    left
    {
        type            zeroGradient;
    }
    right
    {
        type            fixedValue;
        value           uniform 0;
    }
    down
    {
        type            zeroGradient;
    }
    up
    {
        type            zeroGradient;
    }
    cylinder
    {
        type            zeroGradient;
    }
    defaultFaces
    {
        type            empty;
    }
}


// ************************************************************************* //
