/*--------------------------------*- C++ -*----------------------------------*\
  =========                 |
  \\      /  F ield         | OpenFOAM: The Open Source CFD Toolbox
   \\    /   O peration     | Website:  https://openfoam.org
    \\  /    A nd           | Version:  13
     \\/     M anipulation  |
\*---------------------------------------------------------------------------*/
FoamFile
{
    format      ascii;
    class       surfaceScalarField;
    location    "4.35";
    object      phi;
}
// * * * * * * * * * * * * * * * * * * * * * * * * * * * * * * * * * * * * * //

dimensions      [0 3 -1 0 0 0 0];

internalField   nonuniform List<scalar> 
3485
(
-0.00119671
0.00362319
-0.00242648
-0.0029909
0.00750345
-0.00570926
-0.00381236
0.00877318
-0.00795172
-0.00227977
0.00780279
-0.00933539
0.00284921
0.00471424
-0.00984321
0.0126324
-0.00042209
-0.00936112
0.0282706
-0.00787496
-0.0077632
0.0504977
-0.0172217
-0.00500543
0.0793751
-0.0277895
-0.00108798
-0.0325475
0.00200356
0.109919
-0.000491478
0.00411467
-0.000449415
0.00746139
0.00151885
0.00680492
0.00680423
0.00251741
0.0167123
-0.00519387
0.0323914
-0.0161011
0.0543313
-0.0298149
0.0827853
-0.0456757
0.117792
-0.062796
-0.0745752
0.15982
0.00025397
0.0038607
0.00241053
0.00530483
0.0079258
0.00128965
0.0182638
-0.00782062
0.0345453
-0.0214753
0.057273
-0.0388288
0.0860599
-0.0586019
0.11968
-0.0792957
0.156578
-0.0996937
-0.116402
0.198404
0.0008112
0.0030495
0.00508162
0.00103442
0.0145435
-0.00817226
0.030475
-0.0237521
0.0533546
-0.0443549
0.0824536
-0.0679278
0.115947
-0.0920957
0.151384
-0.114732
0.186073
-0.134383
-0.150026
0.219698
0.00161798
0.00143152
0.00852829
-0.00587589
0.0224376
-0.0220816
0.0439735
-0.045288
0.07212
-0.0725014
0.104364
-0.100172
0.137516
-0.125247
0.168611
-0.145827
0.195495
-0.161266
-0.172124
0.217592
0.00273065
-0.00129913
0.0127278
-0.015873
0.0310615
-0.0404153
0.0567757
-0.0710022
0.0868521
-0.102578
0.117409
-0.130729
0.145101
-0.15294
0.167923
-0.168649
0.185331
-0.178675
-0.184442
0.197649
0.00402584
-0.00532496
0.0170874
-0.0289346
0.0387106
-0.0620385
0.0657579
-0.0980495
0.0937069
-0.130527
0.118715
-0.155737
0.138729
-0.172953
0.153478
-0.183398
0.163799
-0.188995
-0.191634
0.170991
0.00532895
-0.0106539
0.0207488
-0.0443545
0.043552
-0.0848416
0.0687547
-0.123252
0.0917397
-0.153512
0.109996
-0.173994
0.123139
-0.186095
0.132042
-0.192302
0.137961
-0.194914
-0.195522
0.141849
0.00640458
-0.0170585
0.0229286
-0.0608785
0.0446055
-0.106519
0.0658087
-0.144455
0.0830342
-0.170737
0.0953326
-0.186292
0.103373
-0.194136
0.108378
-0.197307
0.111431
-0.197967
-0.197323
0.113231
0.00706001
-0.0241185
0.023238
-0.0770565
0.0420713
-0.125352
0.0584995
-0.160884
0.0704261
-0.182664
0.0779828
-0.193849
0.0822638
-0.198417
0.0844396
-0.199482
0.0853614
-0.198889
0.0854619
-0.197423
-0.00489124
-0.00392993
0.00882117
-0.0151069
-0.00418199
0.0143977
-0.0279175
-0.00247771
0.0152883
-0.0418602
-0.00107329
0.015016
-0.0562568
-0.00035254
0.0147491
-0.0707817
-5.37394e-05
0.0145787
-0.0852872
0.000188968
0.0143164
-0.099664
0.000580062
0.0137968
-0.113817
0.00122375
0.0129295
0.00219638
-0.1278
0.0117861
-0.00462286
0.000692934
-0.0142146
0.00540979
-0.0264509
0.00975849
-0.0400897
0.0125656
-0.0544478
0.0140055
-0.0691799
0.0146784
-0.0840566
0.0150656
-0.0988997
0.0154232
-0.113562
0.015886
0.0167316
-0.128097
-0.00287655
0.00356948
-0.00912114
0.0116544
-0.0177087
0.018346
-0.0279787
0.0228356
-0.0393441
0.0253709
-0.051311
0.0266452
-0.0635197
0.0272743
-0.0757186
0.0276222
-0.0876918
0.0278592
0.0283009
-0.0992611
-0.000616006
0.00418549
-0.0022785
0.0133169
-0.00539456
0.0214621
-0.0101374
0.0275785
-0.0162832
0.0315167
-0.0233447
0.0337067
-0.0307926
0.0347222
-0.0381919
0.0350215
-0.0452241
0.0348914
0.0345464
-0.0514695
0.00107591
0.00310957
0.00333066
0.0110621
0.00563356
0.0191592
0.00710688
0.0261052
0.00735797
0.0312657
0.00648003
0.0345846
0.00487083
0.0363314
0.00303426
0.036858
0.00148175
0.0364439
0.0352791
0.000749022
0.00161026
0.00149931
0.00565186
0.00702055
0.0111413
0.0136697
0.0170871
0.0201594
0.0227352
0.0256175
0.0277036
0.0296163
0.0319617
0.0320732
0.0357195
0.0331003
0.0393163
0.032847
0.0312261
0.0433693
0.00122647
0.00027284
0.00479471
0.00345231
0.0103153
0.0081492
0.0171835
0.0132911
0.024749
0.0180521
0.032481
0.0218842
0.0400527
0.0245016
0.0473493
0.0258036
0.0544769
0.0257195
0.0237731
0.0619299
0.000351029
-7.81894e-05
0.00196673
0.00183661
0.00509423
0.0050217
0.00965918
0.00872619
0.0153619
0.0123494
0.0218254
0.0154206
0.0287154
0.0176116
0.0358411
0.0186779
0.0432684
0.0182921
0.0156302
0.0514114
-0.00076066
0.000682471
-0.00169926
0.0027752
-0.00195083
0.00527327
-0.00109782
0.00787318
0.000974949
0.0102766
0.00420301
0.0121926
0.00845273
0.0133619
0.0136168
0.0135139
0.0197069
0.0122019
0.00842297
0.0269142
-0.00174401
-0.00467807
-0.00735652
-0.00881873
-0.00838533
-0.00555387
4.48373e-05
0.00855332
0.0196673
0.0300938
-0.189036
0.0296227
0.0316133
-0.173683
0.413508
-0.42886
-0.113119
0.675007
-0.735572
-0.023828
0.261738
-0.351029
0.0662525
-0.226042
0.135962
0.129137
-0.410099
0.347214
0.170727
-0.479671
0.438081
0.195061
-0.404434
0.380099
0.208836
-0.358111
0.344336
-0.232933
0.225581
-0.198624
0.100149
-0.182331
0.397215
-0.0876757
0.580352
0.013289
0.160774
0.0948434
-0.307597
0.15644
-0.471695
0.193807
-0.517038
0.21402
-0.424647
0.223085
-0.367176
-0.236866
-0.169079
0.169967
-0.156417
0.384554
-0.0478094
0.471745
0.0541235
0.0588407
0.127641
-0.381115
0.18459
-0.528644
0.216805
-0.549252
0.232518
-0.44036
0.236811
-0.371469
-0.237515
-0.106756
0.225253
-0.099894
0.377692
0.00166984
0.370181
0.0971181
-0.0366075
0.162427
-0.446424
0.212417
-0.578634
0.238776
-0.575612
0.249943
-0.451527
0.24965
-0.371176
-0.235058
-0.0296448
0.255647
-0.0240426
0.37209
0.0593791
0.286759
0.140725
-0.117953
0.197079
-0.502778
0.238885
-0.62044
0.25901
-0.595736
0.26575
-0.458267
0.261289
-0.366716
-0.229757
0.0471146
0.251902
0.0541634
0.365041
0.116182
0.22474
0.182401
-0.184172
0.229303
-0.54968
0.262826
-0.653963
0.276905
-0.609815
0.279533
-0.460895
0.271457
-0.35864
-0.221972
0.106087
0.207745
0.123115
0.348013
0.167094
0.180761
0.219663
-0.236741
0.25751
-0.587527
0.283338
-0.679791
0.292027
-0.618503
0.291037
-0.459905
0.279909
-0.347512
-0.212174
0.135325
0.123831
0.173822
0.309516
0.208232
0.146351
0.250822
-0.27933
0.280678
-0.617384
0.299826
-0.698939
0.304137
-0.622815
0.300171
-0.455939
0.286546
-0.333888
-0.200843
0.133876
0.0168689
0.20199
0.241402
0.237909
0.110432
0.275253
-0.316674
0.298231
-0.640363
0.311926
-0.712634
0.313122
-0.624011
0.306937
-0.449753
0.29133
-0.318281
-0.188447
0.117289
-0.070326
0.20728
0.15141
0.259895
0.0578173
0.292938
-0.349717
0.309747
-0.657172
0.320077
-0.722964
0.319278
-0.623212
0.311499
-0.441974
0.29432
-0.301103
-0.175397
0.35511
-0.0677755
-0.357661
0.444776
0.0617442
0.589077
-0.0864832
0.676784
-0.437423
0.682693
-0.663081
0.646109
-0.68638
0.587511
-0.564613
0.5291
-0.383563
0.470269
-0.242272
-0.136196
0.605456
-0.0607342
-0.612497
0.655495
0.0117046
0.746382
-0.177369
0.768678
-0.45972
0.723347
-0.61775
0.659908
-0.622941
0.59085
-0.495555
0.52657
-0.319283
0.465359
-0.181061
-0.0961897
0.713413
-0.0634244
-0.710723
0.765188
-0.0400699
0.798022
-0.210204
0.765911
-0.427609
0.71295
-0.564789
0.657913
-0.567904
0.592279
-0.42992
0.525469
-0.252474
0.46085
-0.116442
-0.0545606
0.742113
-0.073803
-0.731734
0.780858
-0.0788146
0.783865
-0.213211
0.758465
-0.402209
0.720248
-0.526572
0.658148
-0.505804
0.578995
-0.350767
0.503765
-0.177244
0.438152
-0.0508298
-0.0150984
0.739441
-0.0855115
-0.727733
0.763587
-0.10296
0.765087
-0.214711
0.745869
-0.382992
0.695806
-0.476508
0.614068
-0.424066
0.52721
-0.263909
0.45625
-0.106284
0.40095
0.00447091
0.0166656
0.72986
-0.0953815
-0.71999
0.74437
-0.11747
0.744756
-0.215097
0.716156
-0.354391
0.643363
-0.403715
0.542315
-0.323019
0.450796
-0.172389
0.386613
-0.0421011
0.346169
0.0449146
0.0367618
0.715218
-0.0991552
-0.711444
0.719932
-0.122185
0.70777
-0.202935
0.645615
-0.292235
0.53176
-0.28986
0.412903
-0.204162
0.330345
-0.0898317
0.28683
0.00141397
0.272193
0.0595511
0.0407223
0.673223
-0.0874913
-0.684887
0.658466
-0.107428
0.608172
-0.152641
0.492636
-0.176699
0.350388
-0.147612
0.240617
-0.094391
0.186149
-0.0353633
0.172844
0.0147187
0.185413
0.046982
0.0297381
0.534757
-0.0516916
-0.570557
0.483066
-0.0557379
0.384703
-0.0542777
0.252146
-0.0441426
0.141184
-0.0366503
0.076384
-0.0295908
0.0543988
-0.0133782
0.0625668
0.00655073
0.0896513
0.0198975
0.0120481
0.204674
-0.256365
0.148936
0.094658
0.0505153
0.0138651
-0.0157257
-0.0291039
-0.0225532
-0.00265568
0.542058
0.0742519
-0.530848
0.5543
0.100989
0.56923
0.126918
0.584685
0.155537
0.599722
0.182612
0.609529
0.207786
0.596435
0.232791
0.556562
0.238276
0.461129
0.255253
0.213387
0.523372
0.063
-0.51212
0.538065
0.0862965
0.554336
0.110647
0.576301
0.133571
0.596805
0.162109
0.623369
0.181221
0.640589
0.215571
0.653864
0.225002
0.648573
0.260544
0.249463
0.509804
0.053067
-0.499871
0.52481
0.0712901
0.540466
0.0949918
0.561891
0.112146
0.583995
0.140005
0.610434
0.154782
0.639683
0.186322
0.666647
0.198038
0.69863
0.228561
0.23737
0.500473
0.0432364
-0.490643
0.514358
0.0574051
0.530464
0.0788864
0.549759
0.0928503
0.573255
0.116509
0.597869
0.130168
0.630038
0.154154
0.659996
0.16808
0.699004
0.189553
0.204639
0.492996
0.0329828
-0.482742
0.505728
0.0446724
0.522434
0.0621809
0.540793
0.0744916
0.564627
0.0926743
0.58919
0.105605
0.620378
0.122966
0.651864
0.136595
0.689525
0.151892
0.166432
0.48586
0.0226999
-0.475577
0.498172
0.0323605
0.51487
0.0454829
0.533394
0.0559673
0.556841
0.0692274
0.582106
0.0803395
0.612227
0.0928451
0.644486
0.104335
0.68084
0.115538
0.127282
0.475932
0.012917
-0.466149
0.488153
0.0201395
0.504454
0.0291825
0.523378
0.0370436
0.546471
0.0461343
0.572412
0.0543984
0.602284
0.0629733
0.635224
0.0713943
0.671767
0.0789953
0.0876051
0.4517
0.00439385
-0.443177
0.463106
0.00873342
0.478327
0.0139616
0.496747
0.0186236
0.51903
0.0238512
0.544797
0.0286318
0.574323
0.0334474
0.607495
0.0382218
0.644316
0.0421744
0.0470344
0.380686
-0.000761776
-0.375531
0.388584
0.000835525
0.399853
0.00269293
0.414126
0.00435023
0.431876
0.00610176
0.452832
0.0076754
0.477141
0.00913849
0.504869
0.0104937
0.535611
0.011433
0.0120885
0.191556
-0.192317
0.192391
0.195084
0.199434
0.205536
0.213212
0.22235
0.232844
0.244277
0.0709219
0.145625
-0.134071
-0.0824754
0.0602859
0.1478
-0.137164
0.0504595
0.150397
-0.140571
0.0409352
0.153844
-0.14432
0.0314761
0.157496
-0.148037
0.0221823
0.160224
-0.15093
0.0134904
0.159329
-0.150637
0.00622284
0.148936
-0.141668
0.00145946
0.118866
-0.114103
0.0556684
-0.0542089
0.066691
0.15599
-0.0770561
0.0564779
0.158014
0.0465995
0.160275
0.0370743
0.163369
0.0278187
0.166751
0.0189559
0.169087
0.0109518
0.167333
0.00460723
0.15528
0.000831826
0.122641
0.0565002
0.0587471
0.165098
-0.067855
0.0493628
0.167398
0.0400998
0.169538
0.0311454
0.172324
0.0225543
0.175342
0.0145094
0.177132
0.00751488
0.174328
0.00240013
0.160395
-3.99046e-05
0.125081
0.0564603
0.0472371
0.172936
-0.0550752
0.0390851
0.17555
0.0308871
0.177736
0.0228928
0.180318
0.0152919
0.182943
0.00840938
0.184014
0.00279802
0.179939
-0.000603272
0.163796
-0.00114857
0.125627
0.0553117
0.0335443
0.179652
-0.0402603
0.0266395
0.182455
0.0196491
0.184727
0.0128183
0.187149
0.00643317
0.189329
0.00093778
0.18951
-0.00277777
0.183655
-0.00393654
0.164955
-0.00240815
0.124098
0.0529036
0.0179794
0.185285
-0.0236129
0.0122908
0.188143
0.00658676
0.190431
0.00109762
0.192638
-0.00379014
0.194216
-0.00743656
0.193156
-0.00903445
0.185253
-0.00773267
0.163653
-0.00372285
0.120089
0.0491807
0.00114728
0.190067
-0.00592925
-0.00345422
0.192745
-0.0079183
0.194895
-0.0120079
0.196727
-0.0152525
0.197461
-0.0168913
0.194795
-0.0159267
0.184288
-0.0116715
0.159398
-0.00497302
0.11339
0.0442077
-0.0177689
0.193672
0.0141645
-0.021124
0.1961
-0.0242065
0.197978
-0.0267086
0.199229
-0.0280134
0.198766
-0.0271776
0.193959
-0.0231579
0.180268
-0.0155551
0.151795
-0.00605409
0.103889
0.0381536
-0.0383682
0.196172
0.0358675
-0.0404804
0.198212
-0.0421
0.199597
-0.0427976
0.199927
-0.0417831
0.197751
-0.0379637
0.19014
-0.0303557
0.17266
-0.0190685
0.140508
-0.0068351
0.0916556
0.0313185
-0.0610582
0.0598075
-0.0617354
-0.0616206
-0.0601104
-0.0562082
-0.0487323
-0.0369555
-0.0217991
-0.00720002
0.110558
0.0362047
-0.122833
-0.0239298
0.0979931
0.0372177
-0.0246531
0.0851273
0.0383206
-0.0254547
0.0719339
0.0394952
-0.0263018
0.0583947
0.0407237
-0.0271845
0.0445338
0.0418768
-0.0280159
0.0305369
0.0424454
-0.0284486
0.0170529
0.0409846
-0.0275006
0.00574502
0.0343858
-0.0230779
0.0174505
-0.0117054
0.108912
0.0484021
-0.121109
0.0964994
0.0496299
0.0838004
0.0510196
0.0707836
0.052512
0.057423
0.0540843
0.0437409
0.0555589
0.0299321
0.0562542
0.0166594
0.0542574
0.00557919
0.045466
0.0230297
0.10693
0.0604234
-0.118951
0.0946373
0.0619224
0.0820831
0.0635738
0.0692408
0.0653543
0.0560887
0.0672364
0.0426465
0.0690011
0.0291077
0.069793
0.0161375
0.0672275
0.00536955
0.056234
0.0283992
0.104423
0.0724137
-0.116414
0.0923057
0.0740399
0.0799235
0.075956
0.0672527
0.078025
0.0542898
0.0801993
0.0410873
0.0822036
0.0278715
0.0830088
0.0153214
0.0797776
0.00502768
0.0665277
0.0334269
0.101444
0.0841534
-0.113183
0.0895559
0.0859278
0.0774925
0.0880194
0.0651848
0.0903327
0.0525837
0.0928004
0.0397217
0.0950656
0.0268439
0.0958866
0.014667
0.0919546
0.00477358
0.0764211
0.0382005
0.0974096
0.0959092
-0.109165
0.0856507
0.0976867
0.0737293
0.0999408
0.0616558
0.102406
0.0494218
0.105034
0.0370591
0.107428
0.0248002
0.108146
0.0133509
0.103404
0.00423131
0.0855406
0.0424318
0.0931686
0.107037
-0.104296
0.0820427
0.108813
0.0707243
0.111259
0.0591201
0.11401
0.0472418
0.116913
0.035208
0.119462
0.0233407
0.120013
0.0123971
0.114348
0.00385082
0.0940869
0.0462826
0.085786
0.117957
-0.0967059
0.0750739
0.119525
0.0643995
0.121934
0.0536425
0.124767
0.0426981
0.127857
0.0316077
0.130553
0.0206941
0.130926
0.0107478
0.124294
0.00319531
0.101639
0.0494779
0.0807751
0.127206
-0.0900246
0.0711387
0.129161
0.0609432
0.132129
0.0504078
0.135303
0.039698
0.138567
0.0289775
0.141273
0.018617
0.141287
0.00941074
0.1335
0.00267499
0.108375
0.0521529
0.0698909
-0.0767558
0.0618879
0.0534463
0.0444293
0.0349595
0.0253022
0.0159517
0.00778343
0.00205601
0.201776
0.00327397
-0.00706024
0.205407
0.0230017
-0.0266324
0.209722
0.0297208
-0.0340362
0.212467
0.0455713
-0.0483161
0.214457
0.0589564
-0.0609467
0.21345
0.0752349
-0.0742275
0.208827
0.094943
-0.0903203
0.197774
0.120875
-0.109822
0.173117
0.171625
-0.146968
0.232792
-0.182508
0.201473
-0.000209279
0.204526
0.0199487
0.208833
0.0254139
0.210873
0.0435317
0.212954
0.0568754
0.21109
0.0770982
0.206557
0.0994766
0.19475
0.132681
0.170093
0.196282
0.281777
0.201129
-0.00334809
0.203523
0.017554
0.207723
0.0212146
0.208951
0.0423036
0.211039
0.0547867
0.208133
0.0800044
0.203726
0.103884
0.190703
0.145705
0.166569
0.220416
0.329394
0.200718
-0.00607676
0.202401
0.0158719
0.206371
0.0172441
0.206715
0.0419597
0.208704
0.0527982
0.204609
0.0840992
0.200367
0.108125
0.185752
0.16032
0.162576
0.243592
0.375556
0.200226
-0.00831278
0.201155
0.0149422
0.204763
0.0136362
0.204184
0.0425392
0.205922
0.0510604
0.200557
0.0894638
0.19641
0.112272
0.180019
0.176712
0.158028
0.265583
0.420401
0.199635
-0.00995824
0.199784
0.0147931
0.202891
0.0105301
0.201374
0.0440553
0.202688
0.0497468
0.195994
0.0961577
0.191862
0.116404
0.173313
0.195261
0.153143
0.285754
0.464378
0.198936
-0.0109042
0.198288
0.015441
0.200749
0.00806867
0.198314
0.0464909
0.19898
0.0490807
0.191012
0.104125
0.186532
0.120884
0.166151
0.215643
0.147328
0.304576
0.507409
0.198125
-0.0110395
0.196669
0.0168969
0.198347
0.00639137
0.195018
0.0498192
0.194805
0.0492936
0.185606
0.113324
0.180547
0.125943
0.157762
0.238428
0.141235
0.321104
0.551938
0.197215
-0.0102649
0.194929
0.0191826
0.1957
0.00562119
0.1915
0.0540185
0.190126
0.0506679
0.179905
0.123545
0.17385
0.131999
0.150582
0.261695
0.134447
0.337239
0.59636
0.196256
-0.00853084
0.193025
0.0224133
0.192894
0.00575267
0.187663
0.0592488
0.184898
0.0534334
0.173267
0.135176
0.165238
0.140028
0.140066
0.286867
0.127759
0.349546
0.647363
0.305678
-0.0121986
0.307258
0.0208334
0.31637
-0.00335951
0.318591
0.057028
0.329821
0.0422032
0.329334
0.135664
0.347512
0.12185
0.351233
0.283146
0.400708
0.300071
0.578662
0.469409
0.305871
-0.0160596
0.308582
0.0181222
0.318548
-0.0133249
0.322609
0.0529671
0.334821
0.0299903
0.338164
0.132321
0.357811
0.102203
0.371056
0.269902
0.416399
0.254728
0.513017
0.482044
0.305779
-0.0198286
0.310861
0.0130405
0.320551
-0.0230148
0.327569
0.0459489
0.339239
0.0183202
0.347411
0.124149
0.366755
0.0828591
0.386605
0.250052
0.426708
0.214625
0.442886
0.496839
0.305765
-0.0235831
0.314379
0.00442616
0.322743
-0.0313784
0.333366
0.0353257
0.342708
0.0089783
0.355901
0.110955
0.373428
0.0653327
0.398532
0.224947
0.436636
0.176521
0.371284
0.508239
0.30647
-0.0280433
0.318799
-0.00790268
0.326112
-0.0386915
0.339475
0.0219627
0.347353
0.00110036
0.365506
0.0928023
0.380541
0.0502982
0.410782
0.194706
0.442864
0.144439
0.302046
0.512101
0.308229
-0.0342626
0.324002
-0.0236747
0.33041
-0.0451001
0.345716
0.00665628
0.353082
-0.00626494
0.374194
0.0716906
0.386544
0.0379479
0.420015
0.161234
0.448291
0.116163
0.236485
0.513853
0.31149
-0.0437423
0.329057
-0.0412418
0.334642
-0.0506853
0.350414
-0.00911569
0.355806
-0.0116563
0.378206
0.0492897
0.387547
0.0286075
0.424513
0.124268
0.451316
0.0893609
0.174448
0.513353
0.314928
-0.0566599
0.3295
-0.0558138
0.331019
-0.052204
0.342038
-0.0201353
0.342681
-0.012299
0.363281
0.0286893
0.370757
0.021132
0.412114
0.0829104
0.440878
0.0605968
0.11184
0.503486
0.308028
-0.0626772
0.303765
-0.0515509
0.290093
-0.0385323
0.28597
-0.0160121
0.280107
-0.00643646
0.296149
0.012647
0.306067
0.0112139
0.351964
0.0370142
0.385166
0.027394
0.0468158
0.45019
0.239333
0.187782
0.14925
0.133238
0.126801
0.139448
0.150662
0.187676
0.21507
0.261886
0.482164
-0.0952308
0.486607
-0.0814996
0.489894
-0.0711415
0.493095
-0.0582759
0.49741
-0.0445757
0.502062
-0.0282646
0.507715
-0.0115824
0.514018
0.00786168
0.522082
0.0278032
0.0510416
0.48283
-0.0960163
0.483333
-0.0820027
0.483215
-0.0710241
0.483321
-0.0583811
0.484569
-0.0458241
0.48674
-0.0304356
0.490674
-0.015516
0.496018
0.00251754
0.503097
0.0207241
0.0420183
0.490336
-0.0895135
0.486606
-0.0782733
0.483154
-0.0675715
0.48067
-0.0558973
0.479093
-0.0442475
0.479665
-0.0310069
0.48123
-0.0170817
0.485396
-0.00164773
0.490747
0.0153726
0.0328949
0.49737
-0.078645
0.489181
-0.0700837
0.482766
-0.0611566
0.478436
-0.0515677
0.475042
-0.0408528
0.474154
-0.0301191
0.474308
-0.0172357
0.477642
-0.00498212
0.482222
0.010793
0.0244742
0.500192
-0.0667355
0.490225
-0.0601173
0.481973
-0.0529043
0.475873
-0.0454676
0.471368
-0.0363481
0.469117
-0.0278677
0.468709
-0.0168276
0.470916
-0.00718914
0.475436
0.00627247
0.0171683
0.500967
-0.0538498
0.489721
-0.0488707
0.480272
-0.0434557
0.472789
-0.0379844
0.467464
-0.0310235
0.46417
-0.0245735
0.463356
-0.0160136
0.464663
-0.00849667
0.46902
0.00191571
0.0106116
0.499374
-0.0398716
0.486966
-0.0364626
0.476435
-0.0329248
0.467831
-0.02938
0.461591
-0.0247831
0.457364
-0.0203473
0.455804
-0.014453
0.456364
-0.00905711
0.460089
-0.00180902
0.00455105
0.487901
-0.0242869
0.474099
-0.0226596
0.462271
-0.021097
0.452384
-0.0194933
0.444827
-0.0172259
0.439308
-0.0148285
0.436416
-0.0115612
0.435726
-0.00836681
0.438153
-0.00423598
-0.000473258
0.434534
-0.00863036
0.420633
-0.00875847
0.40838
-0.00884466
0.397668
-0.00878128
0.388773
-0.00833082
0.381604
-0.0076588
0.376639
-0.00659666
0.37373
-0.00545721
0.373471
-0.00397789
-0.00253264
0.253256
0.244497
0.235653
0.226871
0.218541
0.210882
0.204285
0.198828
0.19485
0.00772667
0.0473198
-0.0550465
0.0179911
0.122581
-0.132846
0.0246583
0.171672
-0.178339
0.0268952
0.197286
-0.199523
0.0258986
0.20763
-0.206634
0.0230399
0.20974
-0.206881
0.0192793
0.207556
-0.203796
0.0152399
0.202173
-0.198134
0.0115119
0.192288
-0.18856
0.174253
0.00872164
-0.171463
0.00922695
0.0380929
0.0240665
0.107742
0.0362664
0.159472
0.043488
0.190064
0.0464821
0.204636
0.0467483
0.209474
0.045476
0.208829
0.0433306
0.204319
0.0405119
0.195107
0.177992
0.0367725
0.00981723
0.0282756
0.0285605
0.0889984
0.0466422
0.14139
0.0597372
0.176969
0.0676072
0.196766
0.0716003
0.20548
0.0730833
0.207346
0.0728038
0.204598
0.0707672
0.197144
0.182799
0.0659604
0.00937126
0.0189044
0.0304342
0.0679354
0.0540168
0.117808
0.0737178
0.157268
0.0875685
0.182915
0.0962732
0.196776
0.101249
0.20237
0.103509
0.202338
0.103069
0.197584
0.186928
0.0989404
0.00803095
0.0108734
0.0290484
0.0469179
0.0564413
0.0904146
0.0828135
0.130896
0.10391
0.161819
0.118855
0.18183
0.128614
0.192612
0.134393
0.196558
0.13674
0.195237
0.189457
0.134211
0.00615359
0.00471984
0.0246632
0.0284084
0.0526062
0.0624716
0.083812
0.0996901
0.112492
0.133139
0.135425
0.158897
0.151933
0.176104
0.162766
0.185725
0.168779
0.189224
0.188124
0.170112
0.00419284
0.000526998
0.0185983
0.0140029
0.0433763
0.0376937
0.075305
0.0677614
0.109245
0.0991988
0.140556
0.127586
0.166377
0.150283
0.185752
0.166349
0.199058
0.175918
0.181395
0.205788
0.00250337
-0.00197637
0.0124396
0.00406659
0.0315686
0.0185647
0.0594936
0.0398364
0.093426
0.0652664
0.129342
0.0916701
0.163442
0.116184
0.192727
0.137063
0.216096
0.15255
0.163865
0.233625
0.0012232
-0.00319956
0.00726953
-0.00197974
0.0202409
0.00559337
0.0412959
0.0187815
0.0699936
0.0365686
0.1043
0.0573642
0.141283
0.0792001
0.178004
0.100342
0.210845
0.11971
0.131919
0.242791
0.00034368
-0.00354324
0.00343402
-0.00507008
0.0111466
-0.00211922
0.0250048
0.00492331
0.0458311
0.0157422
0.0733958
0.0297995
0.106379
0.0462169
0.14293
0.0637908
0.180385
0.0822549
0.0976003
0.214703
-0.000199751
-0.00334349
0.000979617
-0.00624945
0.00497283
-0.00611243
0.0130687
-0.00317256
0.0263478
0.00246312
0.045471
0.0106764
0.0705014
0.0211865
0.100763
0.0335292
0.135684
0.0473342
0.0655968
0.167687
-0.000366555
-0.00297694
-1.74725e-05
-0.00659853
0.0019843
-0.00811421
0.00641004
-0.0075983
0.0140035
-0.00513029
0.0254128
-0.000732959
0.0411611
0.00543815
0.0612558
0.0134346
0.0852
0.02339
0.0380232
0.112774
-4.76608e-05
-0.00292928
0.000692289
-0.00733848
0.00257843
-0.0100003
0.00575971
-0.0107796
0.0104208
-0.00979134
0.0168855
-0.00719767
0.0254178
-0.00309419
0.0362931
0.0025593
0.0496643
0.0100188
0.0200242
0.0676632
0.000891313
-0.00382059
0.00343829
-0.00988546
0.00727409
-0.0138361
0.012032
-0.0155375
0.0175053
-0.0152647
0.0236868
-0.0133792
0.0307636
-0.010171
0.0391226
-0.00579974
0.0494703
-0.000328903
0.00661228
0.0628823
0.00207215
-0.00589274
0.00675444
-0.0145678
0.0129157
-0.0199974
0.0198714
-0.0224932
0.0273379
-0.0227312
0.0353094
-0.0213506
0.0439613
-0.0188228
0.0536073
-0.0154458
0.0646425
-0.0113641
-0.00643787
0.0776927
0.00291863
-0.00881137
0.00861775
-0.0202669
0.0153714
-0.026751
0.022461
-0.0295828
0.0297753
-0.0300455
0.0374822
-0.0290575
0.0458346
-0.0271753
0.0550875
-0.0246987
0.0654806
-0.0217572
-0.0182701
0.0773129
0.00283966
-0.011651
0.00738518
-0.0248124
0.011923
-0.0312888
0.0161105
-0.0337704
0.0201952
-0.0341302
0.0245504
-0.0334127
0.0294816
-0.0321065
0.0351788
-0.0303959
0.041755
-0.0283334
-0.0260463
0.0495312
0.00147803
-0.0131291
0.00258309
-0.0259175
0.0024862
-0.0311919
0.00155057
-0.0328348
0.000367143
-0.0329468
-0.000629104
-0.0324164
-0.00124146
-0.0314941
-0.00145195
-0.0301854
-0.0013782
-0.0284071
-0.0261305
-0.00129404
-0.000908596
-0.0122205
-0.00451935
-0.0223067
-0.0101166
-0.0255947
-0.016654
-0.0262974
-0.0233494
-0.0262514
-0.0297894
-0.0259764
-0.0358081
-0.0254754
-0.0413591
-0.0246344
-0.0464012
-0.0233651
-0.0218532
-0.0506784
-0.0033993
-0.0113083
-0.0216147
-0.0328961
-0.0443984
-0.055796
-0.066955
-0.0777926
-0.0882282
-0.0982954
0.225581
0.173617
-0.231511
0.204333
0.586787
-0.565539
0.142224
0.639468
-0.577359
0.116493
0.308556
-0.282825
0.126586
-0.0509079
0.0408147
0.135585
-0.193358
0.184358
0.145422
-0.185206
0.17537
0.16098
-0.139647
0.124089
0.178881
-0.104584
0.086683
-0.0589541
0.0453906
0.185164
0.101226
0.204553
0.567399
0.158889
0.685132
0.142779
0.324667
0.141406
-0.0495348
0.132423
-0.184375
0.135549
-0.188332
0.151156
-0.155254
0.172474
-0.125903
-0.0750956
0.154023
0.0148659
0.195215
0.526207
0.16622
0.714127
0.153827
0.337059
0.134873
-0.0305807
0.112803
-0.162305
0.116082
-0.191611
0.135279
-0.174451
0.16158
-0.152203
-0.0946536
0.140597
-0.0628485
0.174809
0.491995
0.160982
0.727954
0.145205
0.352836
0.109575
0.00504973
0.0861041
-0.138834
0.0976534
-0.203161
0.122337
-0.199134
0.152892
-0.182758
-0.11685
0.12678
-0.111936
0.142643
0.476132
0.1403
0.730296
0.115993
0.377143
0.0738695
0.0471736
0.0643155
-0.12928
0.0885964
-0.227442
0.117698
-0.228236
0.150053
-0.215114
-0.139895
0.095503
-0.130126
0.100102
0.471533
0.101794
0.728604
0.0701634
0.408773
0.0400648
0.0772722
0.0547918
-0.144007
0.0897616
-0.262411
0.121046
-0.25952
0.152854
-0.246922
-0.162143
0.0457718
-0.126367
0.0512216
0.466083
0.0474028
0.732423
0.0179385
0.438238
0.019965
0.0752456
0.0567823
-0.180824
0.0980047
-0.303634
0.129833
-0.291348
0.159586
-0.276675
-0.182513
-0.0160684
-0.111592
-0.00262788
0.452643
-0.0180934
0.747889
-0.0255111
0.445655
0.0171293
0.0326052
0.066776
-0.230471
0.111216
-0.348074
0.142506
-0.322638
0.16914
-0.303309
-0.200227
-0.0829133
-0.0793576
-0.0715719
0.441301
-0.0794578
0.755775
-0.0498929
0.416091
0.0268466
-0.0441344
0.0829233
-0.286548
0.128451
-0.393602
0.15832
-0.352507
0.181019
-0.326008
-0.214682
-0.14604
-0.133599
-0.113396
-0.0483348
0.0434927
0.104159
0.148639
0.176231
0.194558
0.0364264
0.0404996
-0.076926
-0.00448067
0.040907
-0.0333888
0.0289081
-0.0541244
0.0207356
-0.0548329
0.000708556
-0.027952
-0.026881
0.000259136
-0.0282111
0.0192363
-0.0189772
0.0306499
-0.0114136
-0.00508917
0.178651
0.133466
-0.271618
0.0560241
0.163534
-0.033554
0.118486
-0.0716513
0.0588329
-0.0579354
-0.0130073
-0.009898
-0.0749184
0.0358431
-0.0739522
0.0666091
-0.0497431
0.0867512
-0.0315558
-0.0147315
0.331407
0.219374
-0.417314
0.165585
0.329356
0.0220408
0.262031
-0.033893
0.114767
-0.011205
-0.0356953
0.0375192
-0.123643
0.0811059
-0.117539
0.11089
-0.0795267
0.131747
-0.0524129
-0.0256018
0.428016
0.256811
-0.465453
0.272865
0.484506
0.104867
0.430029
0.0320182
0.187616
0.0480394
-0.0517165
0.0878951
-0.163498
0.122392
-0.152036
0.146803
-0.103938
0.164728
-0.0703385
-0.0356638
0.437283
-0.411983
0.35625
0.20892
0.113711
0.10281
0.123669
0.147004
0.167155
0.1835
0.0120948
-0.000104862
-0.01199
0.0137797
-0.00168489
0.0168872
-0.00310747
0.0213598
-0.00447257
0.027845
-0.00648524
0.0346578
-0.00681281
0.0444801
-0.00982233
0.0536409
-0.00916076
0.0660444
-0.0124036
-0.0108816
0.0332052
-0.000756798
-0.0325532
0.0380781
-0.00655781
0.0469598
-0.0119891
0.0607101
-0.018223
0.0800388
-0.0258139
0.103364
-0.0301383
0.13671
-0.0431684
0.172412
-0.0448625
0.219347
-0.0593389
-0.0631522
0.0512288
-0.00230569
-0.0496799
0.0590417
-0.0143707
0.0731248
-0.0260723
0.0950675
-0.0401656
0.124759
-0.0555057
0.163789
-0.0691683
0.214415
-0.0937937
0.271008
-0.101456
0.343836
-0.132167
-0.136631
0.066044
-0.00494131
-0.0634084
0.0762738
-0.0246005
0.0946438
-0.0444423
0.122334
-0.0678553
0.159371
-0.092543
0.208953
-0.11875
0.265049
-0.14989
0.333317
-0.169723
0.407612
-0.206462
-0.194472
0.0778181
-0.0740377
0.08999
0.111508
0.142593
0.184261
0.235623
0.291521
0.355422
0.391752
0.0877807
-0.0842455
0.0921619
-0.0956971
0.0788243
-0.0855039
0.0944603
0.0693903
-0.0875039
0.0969378
0.0592367
-0.0896353
0.0997889
0.0483068
-0.0918055
0.102735
0.036743
-0.0937493
0.105313
0.0249225
-0.0943401
0.106161
0.0136382
-0.0904013
0.101686
0.00444461
-0.0752451
0.0844387
-0.0378427
0.0422873
0.0972839
-0.0742409
-0.107289
0.0868216
-0.0750416
0.075629
-0.0763113
0.0637954
-0.0778016
0.0514967
-0.0795068
0.0389116
-0.0811642
0.0263255
-0.0817539
0.0144271
-0.0785028
0.0047321
-0.0655502
-0.0331106
0.0994383
-0.0627714
-0.110908
0.0878721
-0.0634753
0.0761001
-0.0645393
0.0641202
-0.0658217
0.0518847
-0.0672713
0.0393713
-0.0686508
0.0267572
-0.0691398
0.0147142
-0.0664598
0.00482315
-0.0556591
-0.0282874
0.105285
-0.0509257
-0.117131
0.0932916
-0.0514817
0.0810593
-0.0523069
0.0684988
-0.0532612
0.0555523
-0.0543248
0.0422479
-0.0553465
0.0288194
-0.0557113
0.0159679
-0.0536084
0.00531845
-0.0450096
-0.022969
0.107747
-0.0385651
-0.120107
0.095275
-0.03901
0.0825577
-0.0395896
0.0695689
-0.0402724
0.0562957
-0.0410516
0.0427714
-0.0418222
0.0291894
-0.0421294
0.0161934
-0.0406124
0.005396
-0.0342122
-0.017573
0.110492
-0.0261163
-0.122941
0.0978307
-0.0263483
0.0849199
-0.0266788
0.0717241
-0.0270766
0.058212
-0.0275395
0.0443919
-0.0280021
0.0304387
-0.0281761
0.0169999
-0.0271736
0.00573342
-0.0229457
-0.0118395
0.111713
-0.0135303
-0.124299
0.0989393
-0.0135745
0.0859033
-0.0136428
0.0725744
-0.0137477
0.0589243
-0.0138894
0.0449637
-0.0140415
0.0308637
-0.0140762
0.0172633
-0.0135732
0.00583226
-0.0115147
-0.00600727
0.112405
-0.000985873
-0.124949
0.0996081
-0.00077756
0.0865294
-0.000564112
0.0731396
-0.000357883
0.059414
-0.00016379
0.0453667
5.82196e-06
0.0311701
0.000120445
0.0174624
0.000134462
0.00591678
3.0961e-05
-9.04909e-05
0.112342
0.0115161
-0.124844
0.0995852
0.0119794
0.0865361
0.012485
0.0731674
0.0130109
0.0594546
0.013549
0.045411
0.0140494
0.0312085
0.014323
0.0174865
0.0138564
0.00592425
0.0115932
0.00583375
0.111662
-0.124076
0.0989887
0.0860191
0.0727281
0.0590926
0.0451261
0.0310005
0.0173563
0.00587168
0.015197
-0.16905
-0.0176096
0.0103384
-0.183702
0.00446973
-0.192265
-0.00153424
-0.197792
-0.00703899
-0.201376
-0.0112756
-0.202397
-0.0131241
-0.197674
-0.0113137
-0.180149
-0.00562495
-0.138534
-0.0606715
0.0398155
-0.165384
-0.0434818
0.0331256
-0.177012
0.0252733
-0.184413
0.0171821
-0.189701
0.00935126
-0.193546
0.00234965
-0.195395
-0.00282281
-0.192502
-0.00488187