/*--------------------------------*- C++ -*----------------------------------*\
  =========                 |
  \\      /  F ield         | OpenFOAM: The Open Source CFD Toolbox
   \\    /   O peration     | Website:  https://openfoam.org
    \\  /    A nd           | Version:  13
     \\/     M anipulation  |
\*---------------------------------------------------------------------------*/
FoamFile
{
    format      ascii;
    class       surfaceScalarField;
    location    "0.32";
    object      phi;
}
// * * * * * * * * * * * * * * * * * * * * * * * * * * * * * * * * * * * * * //

dimensions      [0 3 -1 0 0 0 0];

internalField   nonuniform List<scalar> 
823
(
0.0113776
-0.0505563
0.0391787
0.0387595
-0.133438
0.106056
0.0788373
-0.205878
0.1658
0.130185
-0.268865
0.217517
-0.323246
0.25939
0.194041
0.0107028
-0.061259
0.0361434
-0.158879
0.0726511
-0.242385
0.117981
-0.314195
-0.375598
0.170333
0.00837727
-0.0696363
0.0282864
-0.178788
0.0567294
-0.270828
0.0918186
-0.349284
-0.416055
0.132275
0.00529968
-0.074936
0.0179972
-0.191485
0.036233
-0.289064
0.0588901
-0.371941
-0.442423
0.0852582
0.00196218
-0.0768982
0.00663067
-0.196154
0.0132909
-0.295724
0.0215237
-0.380174
0.0310647
-0.451964
0.00669963
-0.0106868
0.00398715
0.0222436
-0.0307863
0.0152423
0.0454314
-0.0483407
0.025153
0.0745516
-0.063762
0.0346418
-0.0768345
0.108167
0.0432187
0.00579385
-0.0164806
0.0215778
-0.0465702
0.0468472
-0.0736101
0.07994
-0.0968548
-0.115952
0.119057
0.00641132
-0.0228919
0.0237126
-0.0638715
0.0513413
-0.101239
0.0880754
-0.133589
-0.160038
0.132162
0.00754083
-0.0304328
0.0271051
-0.0834358
0.057358
-0.131492
0.0970957
-0.173327
-0.207855
0.144913
0.00874593
0.0313662
0.0656745
0.109865
0.1614
0.321537
-0.954898
0.741528
0.470391
-0.81528
0.666425
0.557973
-0.344063
0.256481
0.587049
-0.0891501
0.0600746
-0.0133931
0.013015
0.33074
-1.16658
0.469444
-0.953984
0.55796
-0.432578
0.587669
-0.118859
-0.0155721
0.337483
-1.3719
0.462263
-1.07876
0.549521
-0.519836
0.583552
-0.15289
-0.0238225
0.338169
-1.56516
0.451038
-1.19163
0.534245
-0.603042
0.576576
-0.195221
-0.0413979
0.328015
-1.73177
0.430929
-1.29455
0.509302
-0.681415
0.565246
-0.251166
-0.0715913
1.19671
-1.5883
-1.34019
1.00722
-1.10506
0.908049
-0.582241
0.882275
-0.225392
-0.0601764
1.33115
-1.13221
-1.78725
0.987058
-0.760959
0.796532
-0.391714
0.728995
-0.157856
-0.0408654
1.19021
-0.607448
-1.71497
0.817466
-0.388214
0.621339
-0.195587
0.546889
-0.083406
-0.022349
0.822537
-0.185258
-1.24473
0.545418
-0.111095
0.4016
-0.0517694
0.342039
-0.0238449
-0.00682211
0.306717
-0.491975
0.195622
0.143853
0.120008
1.56261
0.0462518
-1.5778
1.5217
0.126174
1.46265
0.191321
1.39629
0.236697
0.250145
1.67591
0.035654
-1.66532
1.69939
0.102695
1.73091
0.159804
1.76541
0.202199
0.228302
1.38798
0.018478
-1.37081
1.43708
0.0536003
1.51392
0.0829639
1.61024
0.10588
0.12357
0.977702
0.0053147
-0.964539
1.01588
0.0154199
1.07581
0.023038
1.15387
0.0278184
0.0327128
0.392986
-0.387671
0.408406
0.431444
0.459262
0.128809
0.327587
-0.264593
-0.191803
0.0781719
0.273198
-0.222561
0.0385266
0.209793
-0.170148
0.0113396
0.136452
-0.109265
0.0519601
-0.0406206
0.11596
0.378892
-0.167264
0.071494
0.317664
0.0356127
0.245674
0.0105582
0.161506
0.0625183
0.0888558
0.418274
-0.128238
0.0548105
0.351709
0.0272855
0.273199
0.00806363
0.180728
0.0705819
0.0552475
0.44354
-0.0805135
0.0337655
0.373191
0.0166554
0.290309
0.00486411
0.19252
0.075446
0.0174841
-0.0259085
0.0105014
0.00508646
0.00145214
0.0721329
0.0868874
-0.106549
-0.0524708
0.0425697
0.073318
-0.0437548
0.0195767
0.0566077
-0.0336147
0.00509427
0.0365676
-0.0220852
0.013184
-0.00808978
0.0761763
0.125477
-0.114766
0.0438484
0.105646
0.0197245
0.0807317
0.00511954
0.0511725
0.0183036
0.0848084
0.168271
-0.127602
0.0493608
0.141093
0.0228762
0.107216
0.00621873
0.06783
0.0245223
0.0943827
0.214526
-0.140638
0.0559716
0.179504
0.0266265
0.136561
0.00745965
0.0869968
0.031982
0.10755
-0.157616
0.064493
0.0309066
0.0086386
0.506181
0.166151
-0.276352
0.543448
0.178344
-0.215611
0.486735
0.311951
-0.255238
0.33113
0.803965
-0.64836
1.03605
-0.811474
0.502611
0.0595191
0.538377
0.142578
0.47773
0.372597
0.329825
0.95187
1.25111
0.499958
-0.0444596
0.527503
0.115034
0.460716
0.439384
0.329044
1.08354
1.45256
0.496725
-0.145205
0.513791
0.0979683
0.441091
0.512084
0.325841
1.19879
1.63776
0.491499
-0.240725
0.493108
0.0963597
0.415801
0.589391
0.313988
1.30061
1.79413
0.772428
-0.409133
0.859103
0.00968557
0.958902
0.489591
1.16944
1.09006
1.61627
1.34731
0.727248
-0.532361
0.811558
-0.0746244
0.965134
0.336016
1.30021
0.754985
1.14241
1.77406
0.608755
-0.537095
0.644915
-0.110784
0.807454
0.173476
1.17361
0.388826
0.61182
1.70421
0.450106
-0.383181
0.411041
-0.0717192
0.538327
0.0461909
0.81618
0.110972
0.186892
1.24111
0.220839
0.14912
0.195311
0.306283
0.493175
1.40245
-0.246942
1.46568
-0.230496
1.52298
-0.185538
1.56317
-0.120699
-0.0405448
1.7529
-0.225775
1.71992
-0.197516
1.69074
-0.156362
1.67091
-0.100874
-0.0349454
1.60162
-0.123185
1.50883
-0.104729
1.43459
-0.0821214
1.38707
-0.0533527
-0.0186853
1.15104
-0.0331132
1.07428
-0.027969
1.01528
-0.0231294
0.977568
-0.0156363
-0.00565608
0.460062
0.432093
0.408964
0.393327
0.00250104
0.0429984
-0.0454994
0.00732698
0.101035
-0.105861
0.0160934
0.148375
-0.157141
0.0165764
0.15189
-0.152373
0.114011
0.0148118
-0.112247
0.00682737
0.036171
0.0201751
0.0876871
0.0409533
0.127597
0.0482499
0.144594
0.116366
0.0458954
0.00880775
0.0273633
0.0270725
0.0694224
0.0521441
0.102525
0.0730864
0.123651
0.11402
0.075432
0.00779924
0.019564
0.025508
0.0517136
0.0497402
0.0782929
0.0774241
0.0959675
0.0992193
0.0922249
0.00509689
0.0144671
0.0179672
0.0388433
0.0367603
0.0594999
0.0600089
0.0727189
0.0767078
0.0825204
0.0034228
0.0110443
0.0125781
0.029688
0.0274487
0.0446293
0.0470765
0.053091
0.0561006
0.0676838
0.00223652
0.00880782
0.00897611
0.0229484
0.0223544
0.031251
0.0411379
0.0343075
0.0346833
0.0625552
0.00168577
0.00712205
0.0101481
0.0144861
0.0261905
0.0152086
0.0467195
0.0137785
0.0114594
0.0699434
0.00366335
0.00345871
0.0173685
0.000781001
0.0366067
-0.00402963
0.0595267
-0.00914144
-0.0143434
0.0853295
0.00744588
0.0234691
0.0445925
0.0700929
0.0989682
0.154249
0.018738
-0.105303
0.24372
-0.129934
0.0404622
0.265937
-0.0397159
0.0174987
0.275803
-0.0073898
-0.00247542
-0.00828234
-0.00106833
0.215075
-0.133782
0.325448
-0.240307
0.352748
-0.067016
0.361124
-0.0157653
-0.0143349
0.259562
-0.323401
0.390631
-0.371375
0.434102
-0.110487
0.441689
-0.0233518
-0.0157925
0.291811
-0.529883
0.436185
-0.515749
0.500597
-0.174899
0.512688
-0.0354423
-0.0135485
0.310614
0.46129
0.542871
0.567504
0.0707814
0.0385456
-0.109327
0.0787699
-0.00798849
0.0832867
-0.00451678
0.0823421
0.000944555
0.000305657
0.194631
-0.261388
0.227104
0.240086
0.238555
0.0207281
-0.00433068
-0.0163974
0.0342758
-0.0135477
0.0567507
-0.0224749
0.0856073
-0.0288565
-0.0237198
0.0539144
-0.0434333
0.0862621
0.139219
0.202588
0.0479324
-0.0550361
0.0762855
-0.0691818
0.0276103
-0.0520537
0.0723758
0.012347
-0.0443019
0.0595652
0.0033172
-0.0300235
0.0390533
-0.0112606
0.0145778
0.0457353
-0.032061
-0.0687104
0.0252153
-0.0315336
0.009959
-0.0290456
0.0022217
-0.0222862
-0.00903887
0.0562558
-0.00646578
-0.081851
0.0333152
-0.00859293
0.0144421
-0.0101725
0.00265662
-0.0105007
-0.00638224
0.0696623
0.0216198
-0.0977479
0.0445445
0.0165249
0.0232247
0.0111473
0.00689468
0.00582938
0.000512447
0.0735304
-0.104381
0.0463006
0.0238331
0.00757734
0.0165832
-0.11401
-0.0148202
0.0160931
-0.151883
0.00730586
-0.148354
0.00248885
-0.101044
-0.0430106
0.0482675
-0.116356
-0.0459207
0.0409281
-0.144544
0.0201614
-0.127587
0.00682029
-0.0877027
-0.0361903
0.0731253
-0.113952
-0.0755301
0.0521181
-0.123537
0.0270612
-0.10253
0.00880472
-0.0694462
-0.0273856
0.0773435
-0.0989319
-0.0923631
0.0496151
-0.0958081
0.025427
-0.0783424
0.00777302
-0.0517922
-0.0196125
0.059983
-0.0826294
0.0365509
0.0177737
0.00503475
0.342969
0.581852
-0.528841
0.283863
0.220098
-0.160992
0.250467
0.0537255
-0.0203296
0.166274
0.119185
-0.0349921
0.000946472
0.096146
0.410257
0.567575
0.37626
0.254095
0.338713
0.0912723
0.234365
0.223533
0.166601
0.464575
0.498979
0.456844
0.261826
0.411083
0.137033
0.283581
0.351036
0.368331
0.503977
0.390982
0.519502
0.246301
0.459769
0.196766
0.315792
0.495013
0.586375
0.510609
0.5413
0.482828
0.329481
0.158701
0.35135
0.0853803
0.0733204
0.0813334
0.00404693
0.072697
0.00863639
-0.0366999
0.109397
0.33256
0.244889
0.228606
0.202251
0.261697
0.0856615
0.0237354
0.0567823
0.0288792
0.0342866
0.0224957
0.0207316
0.0135551
0.00433414
0.202803
0.139319
0.086285
0.0539194
)
;

boundaryField
{
    left
    {
        type            calculated;
        value           nonuniform List<scalar> 
17
(
-0.60402
-0.60402
-0.60402
-0.60402
-0.60402
-0.39598
-0.39598
-0.39598
-0.39598
-0.39598
-0.39598
-0.39598
-0.39598
-0.39598
-0.39598
-0.510051
-0.510051
)
;
    }
    right
    {
        type            calculated;
        value           nonuniform List<scalar> 
17
(
0.0820365
0.237793
0.285153
0.367176
0.443146
0.510444
0.56697
0.587427
0.589848
0.591802
0.594152
0.59544
0.87086
0.709684
0.528373
0.326512
0.113186
)
;
    }
    down
    {
        type            calculated;
        value           uniform 0;
    }
    up
    {
        type            calculated;
        value           uniform 0;
    }
    cylinder
    {
        type            calculated;
        value           uniform 0;
    }
    defaultFaces
    {
        type            empty;
    }
}


// ************************************************************************* //
