/*--------------------------------*- C++ -*----------------------------------*\
  =========                 |
  \\      /  F ield         | OpenFOAM: The Open Source CFD Toolbox
   \\    /   O peration     | Website:  https://openfoam.org
    \\  /    A nd           | Version:  13
     \\/     M anipulation  |
\*---------------------------------------------------------------------------*/
FoamFile
{
    format      ascii;
    class       volScalarField;
    location    "29.2";
    object      p;
}
// * * * * * * * * * * * * * * * * * * * * * * * * * * * * * * * * * * * * * //

dimensions      [0 2 -2 0 0 0 0];

internalField   nonuniform List<scalar> 
440
(
-0.704254
-0.694779
-0.768753
-0.683417
-0.765621
-0.660144
-0.660105
-0.668263
-0.668062
-0.667563
-0.774677
-0.745034
-0.718734
-0.68704
-0.649616
-0.890774
-0.846369
-0.77392
-0.68689
-0.597303
-0.985552
-0.925083
-0.791199
-0.650091
-0.519226
-1.29448
-1.26609
-1.2276
-1.19156
-1.17283
-1.24017
-1.20466
-1.15733
-1.1109
-1.07109
-1.21137
-1.21704
-1.24152
-1.27844
-1.32133
-1.04034
-1.10584
-1.23275
-1.37517
-1.4591
-0.237048
-0.375281
-0.547451
-0.628681
-0.609819
-0.791938
-1.75962
-1.10892
-0.237953
0.0409214
-0.55171
-1.74627
-1.4694
-0.243407
0.0266412
-0.439678
-1.61982
-1.62231
-0.255373
0.0113258
-0.309803
-1.37293
-1.64278
-0.28007
-0.00576397
-0.236162
-1.06267
-1.54381
-0.303757
-0.017893
0.27454
-0.738157
-1.3209
-0.294502
-0.0306621
-0.185097
-0.548501
-0.933049
-0.273566
-0.0522206
-0.0560474
-0.310273
-0.605731
-0.266279
-0.0770188
-0.0637719
-0.220321
-0.455348
-0.253211
-0.0884146
-0.00362107
-0.0603066
-0.315679
-0.268086
-0.102643
-0.290811
-0.425127
-0.5767
-0.740977
-0.81229
-0.0581105
-0.189964
-0.259976
-0.300875
-0.302628
0.0901202
-0.0139986
-0.0796408
-0.118896
-0.137974
0.184819
0.089658
0.015242
-0.030394
-0.0595578
0.228937
0.13526
0.0564352
0.0124687
-0.0129333
0.929852
0.795869
0.625972
0.432613
0.211685
0.549582
0.400239
0.21404
0.00330682
-0.23453
0.168258
0.0135212
-0.181378
-0.403796
-0.611517
-0.153584
-0.313962
-0.50796
-0.717842
-0.875267
-0.375861
-0.530188
-0.707285
-0.891102
-0.9916
2.09388
2.12703
2.15992
2.18017
2.18272
1.91977
1.94212
1.96072
1.96373
1.94624
1.70358
1.69735
1.6704
1.6218
1.54853
1.452
1.42134
1.35799
1.26481
1.143
1.19609
1.10791
0.988809
0.845258
0.669006
1.82378
1.81642
1.80553
1.86084
1.96991
1.81484
1.8053
1.79012
1.8398
1.89349
1.80688
1.79096
1.77189
1.80559
1.7981
1.80018
1.77412
1.75101
1.75995
1.64778
1.79467
1.75636
1.72798
1.71079
1.48595
1.79097
1.72709
1.69685
1.61858
1.30833
1.79136
1.69543
1.6782
1.50968
1.31566
1.79777
1.68108
1.66486
1.45061
1.2744
1.79149
1.65823
1.66014
1.40765
1.24465
1.83129
1.64916
1.66057
1.38419
1.24036
0.899301
0.630102
0.31144
0.0525661
-0.142743
0.844514
0.653101
0.432107
0.246237
0.0711785
0.858759
0.699574
0.52985
0.367943
0.216043
0.899396
0.751972
0.600698
0.447374
0.310524
0.925378
0.782874
0.63967
0.489485
0.357872
-1.92118
-1.73343
-1.53071
-1.36099
-1.25861
-1.99437
-1.90816
-1.74261
-1.59477
-1.49277
-1.9068
-1.85062
-1.73269
-1.61348
-1.51107
-1.73716
-1.68493
-1.61798
-1.5426
-1.46579
-1.56539
-1.53503
-1.49687
-1.45872
-1.42935
-1.47517
-1.46386
-1.42169
-1.45496
-1.4159
-1.45088
-1.43871
-1.41111
-1.4358
-1.40147
-1.45057
-1.43895
-1.42628
-1.42425
-1.42665
-1.43357
-1.42877
-1.4292
-1.44254
-1.48024
-1.37151
-1.3615
-1.35167
-1.34837
-1.36459
-1.25186
-0.996611
-0.514835
-0.048534
0.108969
-1.2845
-1.11478
-0.574299
-0.178103
0.112792
-1.30329
-1.31452
-0.603044
-0.304627
0.113315
-1.31691
-1.54341
-0.51233
-0.304925
0.0962582
-1.0856
-1.70527
-0.622247
-0.255904
0.0640878
-0.700845
-1.08481
-0.613197
0.00308358
0.105135
-1.10384
-1.05054
-0.523038
0.027118
0.106573
-1.20068
-1.42007
-1.42008
-1.33196
-1.07918
-1.22256
-1.43798
-1.438
-1.37082
-1.31604
1.65846
1.62478
1.57111
1.49874
1.40382
1.86511
1.88111
1.87925
1.85765
1.81697
2.04398
2.0744
2.09502
2.10167
2.09316
2.15056
2.1898
2.23125
2.26471
2.27921
2.16862
2.20764
2.2514
2.28845
2.30591
-0.745471
-0.871712
-1.06951
-1.30402
-1.59524
-0.0745236
-0.231997
-0.440713
-0.692932
-1.0273
0.540586
0.378845
0.183865
-0.0475624
-0.347646
1.03523
0.907495
0.752764
0.564733
0.331505
1.42855
1.33861
1.22108
1.07931
0.910517
1.88321
1.84305
1.82919
1.82821
1.82943
1.8684
1.84097
1.82955
1.84847
1.90392
1.85585
1.83748
1.83041
1.87036
1.98869
1.84422
1.83258
1.82582
1.87768
2.00583
1.83353
1.82587
1.81729
1.87471
2.00605
1.93781
1.84714
1.81421
1.74598
1.69512
1.89305
1.83885
1.81021
1.76988
1.70375
1.30019
1.04772
0.61281
-0.0178672
-0.705659
1.3926
1.08638
0.630355
0.00393696
-0.69845
)
;

boundaryField
{
    left
    {
        type            zeroGradient;
    }
    right
    {
        type            fixedValue;
        value           uniform 0;
    }
    down
    {
        type            zeroGradient;
    }
    up
    {
        type            zeroGradient;
    }
    cylinder
    {
        type            zeroGradient;
    }
    defaultFaces
    {
        type            empty;
    }
}


// ************************************************************************* //
