/*--------------------------------*- C++ -*----------------------------------*\
  =========                 |
  \\      /  F ield         | OpenFOAM: The Open Source CFD Toolbox
   \\    /   O peration     | Website:  https://openfoam.org
    \\  /    A nd           | Version:  13
     \\/     M anipulation  |
\*---------------------------------------------------------------------------*/
FoamFile
{
    format      ascii;
    class       surfaceScalarField;
    location    "2.655";
    object      phi;
}
// * * * * * * * * * * * * * * * * * * * * * * * * * * * * * * * * * * * * * //

dimensions      [0 3 -1 0 0 0 0];

internalField   nonuniform List<scalar> 
823
(
0.00120633
0.01905
-0.0202563
0.0312341
0.013513
-0.0435408
0.106792
-0.0343256
-0.041232
0.221498
-0.0997123
-0.0149938
-0.16381
0.0207044
0.364604
0.00561989
0.0134301
0.0619817
-0.0428488
0.168885
-0.141228
0.297447
-0.228275
-0.302736
0.436372
0.0257654
-0.0123353
0.119379
-0.136463
0.235776
-0.257625
0.341581
-0.334079
-0.37492
0.413765
0.0481033
-0.0604386
0.147741
-0.2361
0.230654
-0.340538
0.279964
-0.38339
-0.395972
0.301016
0.0607564
-0.121195
0.133356
-0.3087
0.175048
-0.38223
0.193093
-0.401434
0.204112
-0.406991
-0.0223926
0.0643787
-0.0419861
-0.0588974
0.0935053
-0.0570005
-0.0971522
0.0913467
-0.053092
-0.133589
0.082676
-0.0462389
0.0715653
-0.166734
-0.0384205
-0.0072908
0.0716695
-0.0283961
0.114611
-0.0516069
0.114558
-0.0698107
0.10088
0.0831646
-0.0814099
0.0159517
0.0557178
0.0259572
0.104605
0.030586
0.109929
0.0373379
0.0941278
0.0686255
0.051877
0.0246944
0.0310235
0.0577669
0.0715325
0.0858436
0.081852
0.108913
0.0710587
0.0414527
0.136086
0.0107672
0.0387588
0.0793788
0.135444
0.197601
-0.0653771
-0.166963
0.0656059
0.160833
-0.701445
0.475235
0.30032
-0.501169
0.361682
0.374011
-0.319295
0.245604
-0.139374
0.115699
0.0531905
-0.301563
0.207286
-0.855541
0.321206
-0.615088
0.383862
-0.381952
-0.160497
0.231315
-0.481001
0.308906
-0.933131
0.365702
-0.671885
0.401833
-0.418083
-0.175454
0.361856
-0.706771
0.409673
-0.980949
0.423695
-0.685906
0.427904
-0.422292
-0.181182
0.393536
-0.902707
0.455072
-1.04248
0.464289
-0.695123
0.452538
-0.410541
-0.1811
1.22674
-0.896406
-1.23304
1.07931
-0.895049
0.910263
-0.526079
0.777251
-0.277529
-0.121
1.22824
-0.691565
-1.43308
0.976095
-0.642903
0.805615
-0.355599
0.717636
-0.18955
-0.0854306
1.23842
-0.530651
-1.39933
1.034
-0.438488
0.859754
-0.181349
0.743687
-0.0734831
-0.0349829
1.12308
-0.311911
-1.34182
0.891984
-0.207389
0.749486
-0.0388512
0.669133
0.00686982
0.000458852
0.613763
-0.925674
0.406374
0.367523
0.374392
1.13083
0.164748
-1.09146
1.20268
0.229161
1.28842
0.328031
1.3237
0.401093
0.455258
1.04064
0.105792
-0.981684
1.11476
0.155043
1.21222
0.230574
1.3254
0.287912
0.347571
0.989754
0.0553874
-0.939349
1.05196
0.0928352
1.14454
0.137995
1.26111
0.171342
0.20935
0.945636
0.0146062
-0.904855
1.00584
0.0326267
1.09539
0.0484466
1.20615
0.0605809
0.0736809
0.710339
-0.695733
0.742966
0.791412
0.851993
0.131295
0.315496
-0.263462
-0.183329
0.0864217
0.321627
-0.276754
0.0470518
0.332211
-0.292841
0.0148793
0.323778
-0.291605
0.210185
-0.195306
0.0968921
0.352874
-0.13427
0.0607701
0.357749
0.0283933
0.364588
0.00387699
0.348294
0.214062
0.0527037
0.383802
-0.0836319
0.0240026
0.38645
0.000289428
0.388301
-0.00996716
0.358551
0.204095
-0.0226108
0.398356
0.0080574
-0.0372712
0.401111
-0.0431166
0.394146
-0.0314113
0.346845
0.172684
-0.101227
0.0925918
-0.101551
-0.0896341
-0.051489
0.196406
0.110726
-0.24735
-0.0597821
0.143792
0.116092
-0.063478
0.0894524
0.122481
-0.0681415
0.0364065
0.124088
-0.0710417
0.0886215
-0.052215
0.184191
0.154204
-0.227668
0.138933
0.161349
0.0890791
0.172335
0.0371132
0.176053
0.125735
0.153941
0.200399
-0.200136
0.11029
0.205
0.0676479
0.214977
0.0263441
0.217357
0.152079
0.154767
0.236642
-0.191009
0.113192
0.246575
0.0683906
0.259779
0.0261131
0.259635
0.178192
0.112326
-0.139146
0.0821469
0.0490847
0.0171142
0.410926
0.0292479
-0.0441942
0.420475
0.0712579
-0.080807
0.413512
0.199046
-0.192083
0.379317
0.275977
-0.241782
0.492078
-0.360111
0.408655
0.0165728
0.414219
0.0656937
0.40437
0.208894
0.370142
0.310206
0.634552
0.403105
0.00944759
0.408078
0.060721
0.38146
0.235512
0.364479
0.327186
0.798895
0.397769
0.00765866
0.392586
0.0659033
0.365639
0.26246
0.339742
0.353083
0.947628
0.389107
0.0145311
0.379235
0.0757755
0.333354
0.308341
0.314825
0.371611
1.12331
0.620731
-0.00217926
0.643575
0.052931
0.66507
0.286846
0.749344
0.287337
0.830958
1.04169
0.625621
-0.0237797
0.644499
0.0340528
0.709153
0.222192
0.794896
0.201595
0.598735
1.02712
0.625284
-0.0450429
0.652806
0.0065299
0.740751
0.134248
0.821305
0.12104
0.397399
1.02264
0.617166
-0.0581883
0.652067
-0.0283718
0.743024
0.0432912
0.812206
0.0518589
0.197701
1.0119
0.545832
0.51746
0.560752
0.61261
0.810311
1.05883
-0.200464
1.05074
-0.126186
1.04902
-0.0819135
1.05347
0.00361608
0.054593
0.980451
-0.153796
0.965416
-0.111151
0.94458
-0.0610777
0.961659
-0.0134624
0.034567
0.96468
-0.0958347
0.93435
-0.0808213
0.915863
-0.0425907
0.923265
-0.0208648
0.0184836
0.956085
-0.0400153
0.913027
-0.0377633
0.892981
-0.0225453
0.888598
-0.016482
0.00222744
0.770296
0.732533
0.709987
0.693505
0.047449
0.135601
-0.183049
0.0727697
0.303491
-0.328812
0.0742511
0.358691
-0.360172
0.0636856
0.364196
-0.35363
0.33381
0.0516177
-0.321742
0.0676497
0.0679508
0.140611
0.23053
0.177294
0.322008
0.183227
0.358262
0.356872
0.160166
0.0551598
0.012791
0.166797
0.118893
0.263784
0.225021
0.337018
0.285028
0.341218
0.352672
0.0245038
-0.0117127
0.115971
0.0274251
0.236475
0.104517
0.355856
0.165648
0.223927
0.473147
0.00226687
-0.0139796
0.0436257
-0.0139337
0.135369
0.0127732
0.251659
0.0493579
0.0766008
0.398985
-0.00205512
-0.0119245
0.0114467
-0.0274356
0.0522586
-0.0280387
0.118052
-0.0164358
-0.000180597
0.194834
0.00725702
-0.0191815
0.0188706
-0.0390492
0.0335898
-0.0427579
0.0554977
-0.0383437
-0.029767
0.0850841
-0.0106763
-0.00850522
-0.0291886
-0.0205368
-0.0474509
-0.0244956
-0.060786
-0.0250086
-0.0241464
-0.0664066
-0.0248434
0.0163382
-0.0626212
0.017241
-0.0992109
0.0120941
-0.131644
0.0074248
0.00358712
-0.159378
-0.0256479
-0.0654074
-0.106405
-0.145219
-0.180053
0.399172
0.332359
-0.536697
0.432803
0.140038
-0.17367
0.386869
0.0872876
-0.0413529
0.383455
0.0548232
-0.0514098
0.00611976
-0.0251431
0.228488
0.188954
0.24619
0.122337
0.294213
0.0392651
0.357023
-0.00798697
-0.0283992
0.0151409
0.107407
0.147675
-0.0101972
0.273356
-0.0864167
0.355314
-0.0899447
-0.0618229
-0.0755289
0.023558
0.145325
-0.231051
0.28198
-0.223071
0.36153
-0.169495
-0.0904653
-0.0908889
0.153295
0.291905
0.368014
0.24825
0.39575
-0.643999
0.142626
0.105623
0.200053
-0.057427
0.259492
-0.0594388
-0.0210139
0.870599
-1.01155
0.802552
0.703773
0.592924
0.0833089
-0.0149284
-0.0683805
0.134547
-0.0512383
0.252013
-0.117466
0.424724
-0.172712
-0.219275
0.187268
-0.150579
0.296195
0.531401
0.831836
0.139084
-0.12317
0.15513
-0.171045
0.104754
-0.127432
0.161762
0.0670037
-0.133486
0.171237
0.0272101
-0.13236
0.172153
-0.0914671
0.118677
0.171314
-0.0851535
-0.20933
0.129395
-0.0855133
0.0821633
-0.0862545
0.0337715
-0.0839678
-0.0576956
0.178755
-0.0377781
-0.226131
0.129802
-0.03656
0.0798633
-0.0363157
0.0320603
-0.0361648
-0.0256352
0.193443
0.0109734
-0.242194
0.143508
0.0133743
0.091446
0.0157466
0.0382415
0.0170398
0.0126062
0.196109
-0.244918
0.146006
0.0936106
0.0396087
0.0368695
-0.302032
-0.0565796
0.0141273
-0.330888
-0.00733867
-0.338706
-0.0155778
-0.320573
-0.198627
0.118444
-0.272233
-0.148243
0.0763145
-0.288759
0.0365393
-0.298931
0.00698611
-0.291019
-0.191641
0.136435
-0.233512
-0.175155
0.0963485
-0.248673
0.056323
-0.258906
0.0198384
-0.254535
-0.171803
0.155187
-0.199826
-0.188873
0.11362
-0.207106
0.0690375
-0.214323
0.0269832
-0.21248
-0.14482
0.1549
-0.199595
0.109556
0.0664696
0.0261423
0.393663
0.0832514
-0.0809346
0.388164
0.127759
-0.12226
0.338408
0.132239
-0.0824824
0.290546
0.0538833
-0.00602134
-0.1395
0.259001
0.399951
0.0792804
0.407261
0.120449
0.378714
0.160785
0.325991
0.106606
-0.0228392
0.403849
0.0714106
0.418216
0.106082
0.398853
0.180148
0.349709
0.15575
0.100739
0.408233
0.0591576
0.422063
0.0922517
0.413845
0.188367
0.369039
0.200556
0.227584
0.410943
0.422388
0.418671
0.377445
0.423533
0.0865176
0.326997
0.0965363
0.27222
0.0547768
0.278253
-0.00603236
-0.141534
0.419787
0.515634
0.48991
0.462204
0.450151
0.567618
0.333869
0.085918
0.256744
0.0771251
0.168414
0.0883304
0.0963726
0.0720409
0.0279921
0.45394
0.342193
0.255368
0.179166
)
;

boundaryField
{
    left
    {
        type            calculated;
        value           nonuniform List<scalar> 
17
(
-0.60402
-0.60402
-0.60402
-0.60402
-0.60402
-0.39598
-0.39598
-0.39598
-0.39598
-0.39598
-0.39598
-0.39598
-0.39598
-0.39598
-0.39598
-0.510051
-0.510051
)
;
    }
    right
    {
        type            calculated;
        value           nonuniform List<scalar> 
17
(
0.280506
0.546767
0.402479
0.391542
0.388738
0.390173
0.393248
0.397686
0.404986
0.416791
0.433631
0.452456
0.717151
0.682067
0.693239
0.633691
0.374851
)
;
    }
    down
    {
        type            calculated;
        value           uniform 0;
    }
    up
    {
        type            calculated;
        value           uniform 0;
    }
    cylinder
    {
        type            calculated;
        value           uniform 0;
    }
    defaultFaces
    {
        type            empty;
    }
}


// ************************************************************************* //
