/*--------------------------------*- C++ -*----------------------------------*\
  =========                 |
  \\      /  F ield         | OpenFOAM: The Open Source CFD Toolbox
   \\    /   O peration     | Website:  https://openfoam.org
    \\  /    A nd           | Version:  13
     \\/     M anipulation  |
\*---------------------------------------------------------------------------*/
FoamFile
{
    format      ascii;
    class       surfaceScalarField;
    location    "74.1";
    object      phi;
}
// * * * * * * * * * * * * * * * * * * * * * * * * * * * * * * * * * * * * * //

dimensions      [0 3 -1 0 0 0 0];

internalField   nonuniform List<scalar> 
823
(
-0.00120091
0.0159074
-0.0147065
0.0241228
0.00110997
-0.0264337
0.0977924
-0.0558144
-0.0178553
0.209169
-0.127188
0.0158119
-0.180185
0.0261268
0.363227
0.00817966
0.00772772
0.0689221
-0.0596325
0.178048
-0.16494
0.303408
-0.252548
-0.326736
0.449959
0.0290562
-0.0213285
0.128204
-0.15878
0.245162
-0.281899
0.34866
-0.356045
-0.393236
0.41516
0.0525823
-0.0739108
0.152196
-0.258394
0.228373
-0.358076
0.267673
-0.395345
-0.40448
0.278917
0.0623613
-0.136272
0.12813
-0.324162
0.160981
-0.390927
0.172689
-0.407053
0.180703
-0.412494
0.0155683
0.104138
-0.119706
0.0130909
0.173084
-0.170606
0.00748136
0.180389
-0.17478
0.00678857
0.161337
-0.160644
0.133557
0.0163356
-0.143104
0.0486131
0.0555245
0.0994065
0.12229
0.136712
0.143084
0.16489
0.133159
0.110957
0.18749
0.0330361
0.0224883
0.0862279
0.0690984
0.136744
0.0925678
0.178514
0.0913899
0.0837185
0.205752
0.0126495
0.00983878
0.0462245
0.0355235
0.0894524
0.0493398
0.13637
0.0444721
0.041188
0.178901
-0.00486771
0.00422213
0.0357067
0.0959907
0.163305
0.00885069
-0.0299103
0.0373952
0.210048
-1.90374
1.70254
0.523299
-0.0167095
-0.296542
0.425021
0.940212
-0.841933
-0.0236714
0.0488469
0.297861
-0.140282
0.322298
-1.92817
0.542414
-0.236826
0.451064
1.03156
-0.0149949
0.444466
-0.378996
0.468882
-1.95259
0.430911
-0.198854
0.426718
1.03575
-0.0726125
0.566412
-0.766507
0.576886
-1.96306
0.36452
0.0135108
0.436769
0.963506
-0.198742
0.439543
-1.04274
0.472236
-1.99576
0.391985
0.0937616
0.505884
0.849607
-0.345325
1.27965
-1.003
-1.31939
0.85659
-1.5727
0.697717
0.252635
0.991841
0.555483
-0.467709
1.28963
-0.832867
-1.45977
0.591669
-0.874737
0.551706
0.292598
1.06594
0.0412476
-0.50546
1.19785
-0.658147
-1.37257
0.68152
-0.358408
0.759182
0.214936
1.11549
-0.315062
-0.413577
0.967853
-0.346088
-1.27991
0.696663
-0.087218
0.890664
0.0209355
0.850644
-0.275043
-0.172564
0.467537
-0.813625
0.380319
0.401254
0.126211
1.13422
0.146314
-1.09983
1.22749
0.18565
1.33358
0.309069
1.40458
0.378956
0.448417
1.01996
0.0841539
-0.957803
1.09701
0.1086
1.2043
0.201778
1.32788
0.255378
0.316534
0.981897
0.0348362
-0.932579
1.03084
0.0596604
1.12021
0.112401
1.23597
0.139621
0.179936
0.937969
0.0033828
-0.906515
0.982023
0.0156065
1.05964
0.0347792
1.1566
0.0426634
0.0566252
0.663951
-0.660568
0.679557
0.714336
0.757
0.143909
0.30768
-0.251226
-0.200363
0.0964886
0.312769
-0.265349
0.0548839
0.323512
-0.281907
0.0194824
0.31543
-0.280028
0.204165
-0.184682
0.105496
0.343856
-0.141672
0.06872
0.349545
0.0356816
0.35655
0.00937019
0.341741
0.213535
0.076491
0.38178
-0.114415
0.0428616
0.383174
0.0136568
0.385755
-0.00399361
0.359392
0.209541
-0.00192453
0.397594
-0.0138898
-0.0205214
0.401771
-0.0307402
0.395974
-0.0252677
0.353919
0.184274
-0.0775231
0.062623
-0.0828047
-0.0777584
-0.0480015
0.196871
0.112307
-0.250326
-0.0588522
0.142873
0.11676
-0.0627623
0.0881886
0.121465
-0.06678
0.0356889
0.12089
-0.0683904
0.0853752
-0.0496863
0.194457
0.15459
-0.236741
0.148622
0.162596
0.0967339
0.173353
0.0411389
0.176485
0.126514
0.135918
0.200073
-0.181401
0.0949662
0.203547
0.0563899
0.211929
0.0203104
0.212565
0.146824
0.155371
0.231707
-0.187005
0.11625
0.242669
0.0717553
0.256423
0.0281595
0.256161
0.174984
0.0817296
-0.101249
0.0590497
0.0335662
0.00969835
0.408974
0.0493644
-0.0623584
0.422577
0.0657926
-0.0793959
0.407935
0.201785
-0.187144
0.395813
0.23203
-0.219908
0.518415
-0.372928
0.406724
0.0386203
0.415278
0.0572379
0.39837
0.218694
0.382492
0.247908
0.664166
0.399623
0.0349769
0.408437
0.0484241
0.375687
0.251443
0.373849
0.249746
0.856614
0.39481
0.0361462
0.391213
0.0520217
0.369039
0.273617
0.351041
0.267744
1.02065
0.38433
0.0477958
0.380013
0.0563389
0.339518
0.314112
0.323783
0.283479
1.24318
0.614189
0.0376273
0.636932
0.0335958
0.700126
0.250918
0.793884
0.189722
1.02307
1.01399
0.620106
0.0215418
0.636128
0.0175737
0.75951
0.127536
0.795269
0.153963
0.812634
1.00571
0.627141
-0.00157916
0.670962
-0.0262473
0.77024
0.0282584
0.78176
0.142443
0.569095
1.0253
0.642744
-0.0403025
0.672918
-0.0564218
0.702924
-0.00174737
0.766498
0.0788695
0.269456
1.06614
0.563718
0.507296
0.505549
0.584418
0.853874
1.04881
-0.235178
1.03501
-0.127871
1.04616
-0.125565
1.04087
-0.00859964
0.00366165
0.951813
-0.181284
0.937517
-0.113576
0.921424
-0.109471
0.937036
-0.0242121
-0.0171051
0.963988
-0.119973
0.946427
-0.0960154
0.917865
-0.0809094
0.930857
-0.0372036
-0.0188272
1.00136
-0.0551982
0.955883
-0.050535
0.917858
-0.0428845
0.908866
-0.0282114
-0.0164769
0.798676
0.748141
0.705256
0.677045
0.0462216
0.138162
-0.184384
0.0707168
0.306578
-0.331074
0.0717736
0.361044
-0.3621
0.062135
0.364708
-0.35507
0.33383
0.0497078
-0.321402
0.0664159
0.0717462
0.136546
0.236448
0.170902
0.326687
0.175442
0.360168
0.353255
0.156017
0.0553686
0.0163776
0.164001
0.127817
0.25605
0.234638
0.320069
0.296149
0.346978
0.326347
0.0262877
-0.00991013
0.119392
0.0347118
0.236971
0.11706
0.352994
0.180126
0.249694
0.450277
0.00560089
-0.015511
0.0516264
-0.0113137
0.146131
0.0225552
0.262784
0.0634727
0.109549
0.40293
-0.002309
-0.013202
0.00946066
-0.0230834
0.0510723
-0.0190564
0.117573
-0.00302761
0.0276199
0.199501
-0.000104977
-0.0130971
0.00226547
-0.0254538
0.0116991
-0.02849
0.0336588
-0.0249874
-0.0128167
0.0740954
0.0103791
-0.0234762
0.018409
-0.0334837
0.0151456
-0.0252265
0.0060746
-0.0159164
-0.0133259
0.00658384
-0.0491097
0.0256336
-0.124466
0.0418727
-0.211608
0.0619148
-0.299167
0.0716434
0.0654646
-0.377958
-0.0940723
-0.222806
-0.335671
-0.424672
-0.502311
0.304165
0.882952
-0.987615
0.448467
-0.0626001
-0.0817022
0.27488
0.50002
-0.326432
0.132158
0.231319
-0.0885965
-0.250549
0.238168
0.307935
0.649112
0.484688
-0.239353
0.38672
0.597987
0.233132
0.384907
-0.218699
0.153276
0.50242
0.473101
-0.559178
0.478068
0.59302
0.316887
0.546088
-0.164521
-0.120405
0.244867
0.471856
-1.15144
0.538564
0.526312
0.380259
0.704393
-0.104679
-0.220049
0.331051
0.560821
0.423281
-0.0319554
0.61073
-0.578774
-0.0359064
0.00395099
-0.0388951
0.00298864
0.0225749
-0.06147
-0.126225
0.647384
-1.02427
0.569633
0.246189
0.0961227
0.0814308
-0.0134475
-0.0679834
0.132119
-0.0506883
0.236964
-0.104845
0.385269
-0.148304
-0.193506
0.186043
-0.149782
0.291371
0.512873
0.814845
0.136361
-0.12978
0.159523
-0.166104
0.103474
-0.134689
0.167577
0.0662288
-0.141188
0.178433
0.0266704
-0.140352
0.17991
-0.0975001
0.12417
0.175028
-0.0912853
-0.213522
0.132185
-0.0918472
0.0840223
-0.0930251
0.0345794
-0.0909092
-0.0629207
0.185584
-0.0427968
-0.234073
0.13555
-0.0418137
0.0841156
-0.0415902
0.0340832
-0.0408768
-0.0288375
0.199324
0.00828829
-0.250409
0.147505
0.0100054
0.0940141
0.0119004
0.0395062
0.013631
0.0106687
0.201413
-0.251977
0.148657
0.0937769
0.0390176
0.0365957
-0.302231
-0.0557669
0.0133642
-0.331838
-0.00750232
-0.341234
-0.0153771
-0.323199
-0.199761
0.114928
-0.273156
-0.144003
0.0744643
-0.291374
0.0354895
-0.302259
0.00660877
-0.294318
-0.193152
0.132599
-0.235746
-0.170009
0.0931388
-0.251914
0.0540678
-0.263188
0.0188603
-0.259111
-0.174292
0.150396
-0.202697
-0.183446
0.109847
-0.211365
0.0664894
-0.21983
0.025789
-0.21841
-0.148503
0.148017
-0.191191
0.104229
0.062832
0.0243323
0.390798
0.101945
-0.0967641
0.386777
0.112385
-0.108363
0.353141
0.163815
-0.130179
0.29308
0.0828633
-0.022803
-0.173212
0.300189
0.399105
0.0988201
0.402232
0.109258
0.392477
0.17357
0.342584
0.132756
-0.0441503
0.404476
0.0903241
0.412742
0.100991
0.40813
0.178182
0.369246
0.17164
0.091023
0.408999
0.0773048
0.419193
0.0907973
0.416299
0.181076
0.388852
0.199087
0.229466
0.410926
0.422327
0.41626
0.395439
0.414085
0.0959663
0.324655
0.0894294
0.233695
0.0909604
0.22864
0.00505465
-0.165557
0.394197
0.509253
0.490319
0.451101
0.433353
0.567984
0.316567
0.0776301
0.246522
0.0700453
0.163901
0.0826212
0.0950554
0.0688454
0.027072
0.454423
0.341023
0.253635
0.178477
)
;

boundaryField
{
    left
    {
        type            calculated;
        value           nonuniform List<scalar> 
17
(
-0.60402
-0.60402
-0.60402
-0.60402
-0.60402
-0.39598
-0.39598
-0.39598
-0.39598
-0.39598
-0.39598
-0.39598
-0.39598
-0.39598
-0.39598
-0.510051
-0.510051
)
;
    }
    right
    {
        type            calculated;
        value           nonuniform List<scalar> 
17
(
0.1488
0.208066
0.144539
0.201282
0.26271
0.320417
0.367449
0.399845
0.442388
0.484336
0.562898
0.652467
1.11423
1.10369
1.02361
0.609632
-0.0463527
)
;
    }
    down
    {
        type            calculated;
        value           uniform 0;
    }
    up
    {
        type            calculated;
        value           uniform 0;
    }
    cylinder
    {
        type            calculated;
        value           uniform 0;
    }
    defaultFaces
    {
        type            empty;
    }
}


// ************************************************************************* //
