/*--------------------------------*- C++ -*----------------------------------*\
  =========                 |
  \\      /  F ield         | OpenFOAM: The Open Source CFD Toolbox
   \\    /   O peration     | Website:  https://openfoam.org
    \\  /    A nd           | Version:  13
     \\/     M anipulation  |
\*---------------------------------------------------------------------------*/
FoamFile
{
    format      ascii;
    class       volScalarField;
    location    "6.97";
    object      p;
}
// * * * * * * * * * * * * * * * * * * * * * * * * * * * * * * * * * * * * * //

dimensions      [0 2 -2 0 0 0 0];

internalField   nonuniform List<scalar> 
440
(
-0.776045
-0.760754
-0.773336
-0.756287
-0.851072
-0.804288
-0.785773
-0.767896
-0.750076
-0.744093
-0.897926
-0.865167
-0.826302
-0.781271
-0.73257
-1.01231
-0.96119
-0.875424
-0.773257
-0.670003
-1.08993
-1.02223
-0.874981
-0.723401
-0.585302
-0.518083
-0.519421
-0.524315
-0.532831
-0.542503
-0.519422
-0.525624
-0.537199
-0.551743
-0.565476
-0.570523
-0.580132
-0.597385
-0.619854
-0.638769
-0.679413
-0.692495
-0.719501
-0.760814
-0.806809
-0.756667
-0.762283
-0.779988
-0.799811
-0.851123
-0.600434
-0.473697
-0.670964
-0.297675
-0.260252
-0.598918
-0.32221
-0.800209
-0.293536
-0.22823
-0.580665
-0.0342685
-0.784929
-0.426771
-0.182682
-0.583655
0.461824
-0.578495
-0.597064
-0.148088
-0.620337
0.62053
-0.315448
-0.68716
-0.132229
-0.417877
0.698894
-0.0480065
-0.673668
-0.128507
-0.128875
0.478664
0.116647
-0.406434
-0.128608
-0.113886
0.490263
0.334104
-0.12109
-0.115188
-0.0173778
0.539589
0.436873
-0.00753668
-0.111578
0.0258976
0.566225
0.567436
0.145095
-0.106128
-0.350227
-0.470112
-0.653957
-0.824996
-0.96474
-0.100144
-0.22285
-0.309859
-0.357201
-0.361806
0.0740868
-0.0353595
-0.10049
-0.148235
-0.17111
0.175841
0.0714373
0.000596567
-0.0456306
-0.064559
0.218616
0.114792
0.0435338
-0.00061087
-0.0102918
1.05961
0.913815
0.727312
0.516976
0.283622
0.629728
0.472006
0.279697
0.0601907
-0.191156
0.21097
0.0503495
-0.153411
-0.382407
-0.613906
-0.160114
-0.325273
-0.527251
-0.746059
-0.921728
-0.412475
-0.575444
-0.763122
-0.959862
-1.07204
2.24107
2.27168
2.29994
2.31459
2.31206
2.04277
2.06321
2.07831
2.0765
2.05368
1.81026
1.80057
1.76873
1.71422
1.63329
1.54879
1.51613
1.44902
1.35094
1.22282
1.30776
1.20733
1.07642
0.923184
0.735781
2.00423
1.99265
1.98255
2.0405
2.12649
1.9935
1.97908
1.96213
2.01272
2.03156
1.98377
1.96224
1.93932
1.9727
1.9127
1.97532
1.94277
1.91408
1.92226
1.73958
1.9681
1.9227
1.88747
1.86576
1.5596
1.96247
1.89019
1.8529
1.76309
1.35621
1.96007
1.85564
1.83307
1.66082
1.42418
1.96603
1.83676
1.81829
1.59894
1.40749
1.95841
1.81381
1.81193
1.54671
1.36101
1.9969
1.80428
1.80986
1.52078
1.34217
1.01952
0.706277
0.35395
0.0405024
-0.163943
0.918813
0.69371
0.451837
0.233754
0.051972
0.899325
0.71809
0.53406
0.364343
0.203538
0.926814
0.763494
0.600309
0.445923
0.299334
0.949247
0.792932
0.637451
0.486904
0.343317
-0.959841
-0.82607
-0.666587
-0.537058
-0.46098
-0.995466
-0.937326
-0.819992
-0.725512
-0.671646
-0.896562
-0.849692
-0.785484
-0.735376
-0.707567
-0.731482
-0.692981
-0.654632
-0.626519
-0.611234
-0.604745
-0.584572
-0.559529
-0.541846
-0.565451
-0.528493
-0.517853
-0.491233
-0.477104
-0.459874
-0.527666
-0.515685
-0.493074
-0.474605
-0.475699
-0.561804
-0.550138
-0.535388
-0.524384
-0.524231
-0.576632
-0.569091
-0.564373
-0.567441
-0.57441
-0.555989
-0.551955
-0.5511
-0.556934
-0.564354
-0.567905
-0.561724
-0.186835
-0.116845
-0.0147456
-0.541702
-0.529607
-0.181397
-0.134406
-0.0313438
-0.53326
-0.552824
-0.225731
-0.183481
-0.0852943
-0.593042
-0.582533
-0.335319
-0.246662
-0.166276
-0.602846
-0.550758
-0.491838
-0.29166
-0.23551
-0.122499
-0.647112
-0.309211
-0.150444
-0.0121477
-0.470591
-0.652481
-0.233955
-0.10933
-0.0054453
-0.417727
-0.657268
-0.684436
-0.643848
-0.421049
-0.436462
-0.653014
-0.697447
-0.62476
-0.627037
1.97901
1.95634
1.91612
1.85939
1.78455
2.14688
2.16732
2.17168
2.15866
2.12945
2.28593
2.31904
2.34374
2.35602
2.35429
2.35903
2.39866
2.44011
2.47373
2.48905
2.34236
2.37976
2.42112
2.45589
2.47205
-0.0301348
-0.131327
-0.29162
-0.485635
-0.710388
0.546265
0.41271
0.233995
0.0190147
-0.252837
1.06016
0.920176
0.753588
0.557205
0.310611
1.46948
1.3628
1.23185
1.07186
0.877963
1.79393
1.7191
1.62095
1.50327
1.36488
2.07188
2.0303
2.02833
2.0486
2.08522
2.05577
2.02568
2.02487
2.05999
2.13459
2.04156
2.01987
2.02138
2.07282
2.19643
2.02821
2.01289
2.01245
2.07219
2.19737
2.01575
2.00422
1.99918
2.06156
2.17907
2.12764
2.03912
2.02001
1.98047
1.97616
2.08304
2.02887
2.01358
1.99769
1.98194
1.68286
1.48536
1.12613
0.592324
-0.000598287
1.76179
1.51407
1.13943
0.610981
0.00803129
)
;

boundaryField
{
    left
    {
        type            zeroGradient;
    }
    right
    {
        type            fixedValue;
        value           uniform 0;
    }
    down
    {
        type            zeroGradient;
    }
    up
    {
        type            zeroGradient;
    }
    cylinder
    {
        type            zeroGradient;
    }
    defaultFaces
    {
        type            empty;
    }
}


// ************************************************************************* //
