/*--------------------------------*- C++ -*----------------------------------*\
  =========                 |
  \\      /  F ield         | OpenFOAM: The Open Source CFD Toolbox
   \\    /   O peration     | Website:  https://openfoam.org
    \\  /    A nd           | Version:  13
     \\/     M anipulation  |
\*---------------------------------------------------------------------------*/
FoamFile
{
    format      ascii;
    class       volScalarField;
    location    "1.55";
    object      p;
}
// * * * * * * * * * * * * * * * * * * * * * * * * * * * * * * * * * * * * * //

dimensions      [0 2 -2 0 0 0 0];

internalField   nonuniform List<scalar> 
1800
(
-1.52182
-1.51163
-1.50216
-1.49567
-1.49416
-1.49664
-1.49839
-1.49365
-1.47681
-1.45507
-1.5759
-1.56521
-1.55588
-1.54901
-1.54503
-1.54139
-1.53337
-1.51674
-1.48975
-1.45803
-1.64748
-1.6361
-1.62633
-1.6181
-1.60947
-1.59648
-1.57516
-1.54349
-1.50221
-1.4558
-1.73406
-1.7218
-1.71042
-1.69852
-1.68171
-1.65581
-1.61889
-1.57175
-1.51691
-1.45979
-1.83296
-1.81907
-1.80431
-1.78525
-1.75593
-1.71365
-1.65932
-1.59638
-1.52908
-1.46216
-1.93748
-1.92233
-1.902
-1.87163
-1.82586
-1.76485
-1.69296
-1.61566
-1.53739
-1.46206
-2.04091
-2.0239
-1.99511
-1.94936
-1.884
-1.80323
-1.71445
-1.62397
-1.53601
-1.4534
-2.13356
-2.1137
-2.07353
-2.00946
-1.92305
-1.82324
-1.71932
-1.6175
-1.52106
-1.43168
-2.20468
-2.18062
-2.12696
-2.04292
-1.93596
-1.81907
-1.70225
-1.5909
-1.48739
-1.39249
-2.24381
-2.21436
-2.1462
-2.04241
-1.91723
-1.78633
-1.6594
-1.54072
-1.43161
-1.33203
-0.702574
-0.70892
-0.715249
-0.72035
-0.723694
-0.723537
-0.718346
-0.707159
-0.688238
-0.659152
-0.79969
-0.804998
-0.810347
-0.815196
-0.819035
-0.819829
-0.815592
-0.804904
-0.786137
-0.756663
-0.924554
-0.928634
-0.933211
-0.9386
-0.944242
-0.947635
-0.94611
-0.937653
-0.920532
-0.891791
-1.06263
-1.06536
-1.06949
-1.07643
-1.08544
-1.09338
-1.09671
-1.09255
-1.07855
-1.0514
-1.19513
-1.1964
-1.19941
-1.2082
-1.22115
-1.23463
-1.2443
-1.24643
-1.2373
-1.21086
-1.30421
-1.30294
-1.30476
-1.3134
-1.32798
-1.34497
-1.35947
-1.36638
-1.36012
-1.33064
-1.38109
-1.37692
-1.37578
-1.38176
-1.39477
-1.41213
-1.429
-1.43922
-1.43615
-1.40598
-1.42818
-1.42137
-1.41652
-1.41789
-1.42659
-1.44112
-1.45701
-1.46795
-1.46659
-1.43529
-1.45747
-1.44885
-1.44105
-1.43801
-1.44192
-1.45228
-1.46519
-1.47372
-1.47048
-1.43634
-1.48449
-1.47487
-1.46561
-1.45995
-1.4605
-1.46709
-1.47551
-1.47885
-1.46883
-1.43237
-0.43851
0.0656149
0.0994589
0.114156
0.0962303
0.0745853
0.055361
0.0382939
0.0224575
0.0075774
-0.508449
0.0394436
0.0865128
0.107205
0.0919822
0.0716958
0.0532624
0.0368399
0.021613
0.00725876
-0.61143
0.000720571
0.0695555
0.0985939
0.0869018
0.0683541
0.0509214
0.0352614
0.0207104
0.00692046
-0.739818
-0.0486776
0.0493133
0.0880448
0.080909
0.0645357
0.0483241
0.0335495
0.0197437
0.00656141
-0.88284
-0.10739
0.0263029
0.0754056
0.0739215
0.060213
0.0454573
0.0316965
0.0187075
0.0061812
-1.02692
-0.175885
0.000366881
0.0606124
0.0658647
0.0553645
0.0423144
0.0296977
0.0175976
0.00578014
-1.14958
-0.25509
-0.0294759
0.0435261
0.0566164
0.0499586
0.0388952
0.0275539
0.0164138
0.0053604
-1.23294
-0.34216
-0.0643434
0.0239503
0.0459704
0.0439005
0.0351762
0.0252611
0.0151564
0.00492693
-1.27037
-0.429809
-0.10401
0.00204442
0.0337983
0.0370347
0.031074
0.0227832
0.0138107
0.00448319
-1.27193
-0.511363
-0.146385
-0.0212366
0.0204428
0.0293892
0.0265445
0.0200813
0.0123497
0.00402634
-1.18611
-0.531815
-0.174414
-0.0438376
0.00450898
0.0191318
0.0201435
0.0161758
0.0102218
0.00338799
-1.00312
-0.500604
-0.192391
-0.067861
-0.0148063
0.00588668
0.011637
0.0109284
0.00741905
0.00249557
-0.872555
-0.475317
-0.203822
-0.0826452
-0.0286003
-0.00474342
0.00429713
0.00622622
0.00485149
0.00167133
-0.76948
-0.451722
-0.217876
-0.102078
-0.0452183
-0.0165744
-0.00339467
0.00148701
0.00231728
0.000844492
-0.692465
-0.435737
-0.230372
-0.116958
-0.0582765
-0.0265319
-0.0101949
-0.00279687
6.44286e-06
8.72855e-05
-0.634232
-0.426093
-0.244733
-0.133229
-0.0716126
-0.0362094
-0.0166123
-0.00675283
-0.00209982
-0.000603285
-0.592652
-0.424769
-0.261462
-0.149484
-0.0837147
-0.0446814
-0.0222012
-0.0101725
-0.00391184
-0.00119678
-0.566193
-0.430623
-0.279831
-0.165623
-0.0947847
-0.0520512
-0.0269497
-0.0130141
-0.00538692
-0.00166871
-0.554753
-0.441569
-0.295249
-0.177545
-0.10194
-0.0564788
-0.0297547
-0.0146451
-0.00623666
-0.0019194
-0.547067
-0.448451
-0.305128
-0.185661
-0.106939
-0.0595289
-0.0316913
-0.0157824
-0.0069586
-0.00213546
-1.16096
-1.22585
-1.27247
-1.30439
-1.32354
-1.33655
-1.3434
-1.35477
-1.36151
-1.38312
-0.969986
-1.03594
-1.08666
-1.12399
-1.14937
-1.16655
-1.17525
-1.1806
-1.18148
-1.18571
-0.819948
-0.883864
-0.935214
-0.974067
-1.00172
-1.01911
-1.02779
-1.02923
-1.02649
-1.02126
-0.698563
-0.76035
-0.810679
-0.84967
-0.877762
-0.895664
-0.904735
-0.906052
-0.902054
-0.89406
-0.601429
-0.660716
-0.709213
-0.747609
-0.775588
-0.794223
-0.803963
-0.806048
-0.801756
-0.792444
-0.523886
-0.580565
-0.627204
-0.664675
-0.692386
-0.711394
-0.721699
-0.72454
-0.720746
-0.711604
-0.462762
-0.517256
-0.562389
-0.598785
-0.62603
-0.644933
-0.655739
-0.659338
-0.656846
-0.648842
-0.417107
-0.469974
-0.514087
-0.549455
-0.576153
-0.594673
-0.605956
-0.610116
-0.60913
-0.602038
-0.389824
-0.4422
-0.485596
-0.520269
-0.546689
-0.56517
-0.576833
-0.581287
-0.5813
-0.574713
-0.376903
-0.429813
-0.474147
-0.5101
-0.537552
-0.557094
-0.569264
-0.574521
-0.574266
-0.566549
0.392964
0.323613
0.244126
0.158971
0.0669235
-0.0343904
-0.144936
-0.258598
-0.354474
-0.40178
0.178778
0.103038
0.0185772
-0.0738918
-0.176172
-0.289926
-0.414155
-0.541117
-0.64717
-0.698495
-0.0570711
-0.13647
-0.224336
-0.321869
-0.431172
-0.553563
-0.687484
-0.823999
-0.937445
-0.991038
-0.285817
-0.369588
-0.462699
-0.566645
-0.683255
-0.813559
-0.95562
-1.09953
-1.21821
-1.2722
-0.496077
-0.585619
-0.685378
-0.796594
-0.920773
-1.05886
-1.2087
-1.35857
-1.47893
-1.53198
-0.68606
-0.78171
-0.888111
-1.00629
-1.13744
-1.28194
-1.43893
-1.59042
-1.70852
-1.76103
-0.856435
-0.957364
-1.06924
-1.19286
-1.32947
-1.47888
-1.63635
-1.78677
-1.90099
-1.9513
-1.00746
-1.11175
-1.22665
-1.3531
-1.49199
-1.64242
-1.79827
-1.94363
-2.05044
-2.09682
-1.13974
-1.24418
-1.35903
-1.48527
-1.62324
-1.77104
-1.92122
-2.05686
-2.15283
-2.19405
-1.24826
-1.35096
-1.46381
-1.58746
-1.72147
-1.86278
-2.00265
-2.12414
-2.20682
-2.2422
1.7891
1.80384
1.81911
1.83381
1.84709
1.85828
1.86668
1.87224
1.87683
1.88153
1.7144
1.72617
1.73779
1.74824
1.7568
1.76277
1.76548
1.76516
1.76464
1.76625
1.61922
1.62712
1.63398
1.63892
1.64138
1.64066
1.63611
1.62825
1.62112
1.6189
1.50481
1.50831
1.50941
1.50753
1.50241
1.49335
1.47972
1.46245
1.44705
1.44031
1.37105
1.3692
1.36361
1.35403
1.34042
1.32204
1.29829
1.27049
1.24569
1.23396
1.22138
1.21398
1.20075
1.18207
1.15835
1.12893
1.0933
1.05334
1.0179
1.0004
1.05574
1.04226
1.02126
0.993435
0.959366
0.918338
0.869957
0.816795
0.769819
0.746228
0.882452
0.861847
0.830959
0.791706
0.745345
0.691225
0.629036
0.561981
0.503165
0.473321
0.70641
0.678486
0.637138
0.585536
0.525582
0.456704
0.378863
0.296276
0.224687
0.188534
0.541777
0.496615
0.438067
0.370887
0.2961
0.212166
0.118822
0.0210883
-0.0626951
-0.104687
1.53751
1.4991
1.50864
1.50121
1.49825
1.50997
1.5291
1.56593
1.62532
1.72343
1.53042
1.49324
1.50265
1.49419
1.48988
1.4987
1.51452
1.54506
1.59394
1.67471
1.52387
1.48732
1.49654
1.48674
1.48092
1.48642
1.49845
1.52112
1.55698
1.61447
1.51782
1.48138
1.49035
1.47889
1.47138
1.47311
1.48091
1.494
1.5148
1.54199
1.51228
1.47545
1.4841
1.47068
1.46129
1.45876
1.46192
1.46352
1.46798
1.45617
1.50722
1.46959
1.47781
1.46214
1.45065
1.44337
1.4415
1.42956
1.41689
1.35625
1.50267
1.46381
1.4715
1.45331
1.43944
1.42697
1.41961
1.39208
1.36169
1.24056
1.49864
1.45815
1.46518
1.44422
1.42766
1.40967
1.39614
1.35126
1.30203
1.11027
1.49518
1.45264
1.45886
1.43491
1.41533
1.3916
1.37097
1.30726
1.2365
0.963638
1.49233
1.44731
1.45254
1.42542
1.40256
1.37292
1.34494
1.26163
1.16746
0.811773
1.48945
1.44111
1.44444
1.41373
1.38583
1.34869
1.3095
1.2054
1.0868
0.665374
1.48787
1.43464
1.43548
1.40101
1.36743
1.32311
1.27163
1.15561
1.01036
0.634196
1.48824
1.42902
1.42691
1.38884
1.34971
1.30004
1.23689
1.11532
0.948245
0.615943
1.49117
1.42427
1.41871
1.37731
1.33269
1.27987
1.20559
1.08358
0.896912
0.605348
1.49718
1.42043
1.4106
1.36631
1.31646
1.26255
1.17761
1.05968
0.856875
0.599295
1.50692
1.41753
1.40327
1.35602
1.30148
1.24794
1.15349
1.04284
0.827819
0.59417
1.52016
1.41403
1.39408
1.34497
1.28777
1.2359
1.13332
1.03097
0.807992
0.590502
1.54432
1.41494
1.38829
1.33636
1.27651
1.22648
1.11755
1.02285
0.795187
0.588868
1.55613
1.40625
1.37478
1.32562
1.26782
1.21987
1.10707
1.01818
0.788737
0.589932
1.63064
1.41887
1.37657
1.3218
1.26467
1.21643
1.10221
1.01636
0.785288
0.59279
0.373844
0.197008
-0.0123175
-0.21533
-0.400402
-0.567086
-0.718227
-0.854336
-0.974281
-1.07697
0.318691
0.17836
0.0177753
-0.143722
-0.295158
-0.43426
-0.562857
-0.681924
-0.791206
-0.88788
0.299816
0.180534
0.0509744
-0.0819138
-0.210455
-0.332148
-0.447065
-0.554894
-0.654398
-0.74301
0.309017
0.198819
0.0840433
-0.0304751
-0.142173
-0.250114
-0.353598
-0.451888
-0.543215
-0.625907
0.324425
0.221509
0.116681
0.0143066
-0.0852418
-0.182687
-0.27752
-0.368884
-0.454386
-0.532546
0.341233
0.244852
0.147636
0.053518
-0.037818
-0.127892
-0.216508
-0.302684
-0.383778
-0.458244
0.35765
0.266919
0.175614
0.0871713
0.00108235
-0.0842007
-0.168537
-0.250772
-0.328333
-0.399673
0.372927
0.287055
0.200441
0.115724
0.0324877
-0.0503147
-0.13229
-0.212062
-0.287212
-0.35609
0.387112
0.305328
0.222359
0.139497
0.0567262
-0.0259425
-0.107502
-0.186492
-0.260885
-0.32916
0.399505
0.32032
0.238936
0.155614
0.0714062
-0.0124713
-0.0945806
-0.173581
-0.247824
-0.316047
-1.30451
-1.26591
-1.18206
-1.07608
-0.968719
-0.87104
-0.78694
-0.717374
-0.662615
-0.62327
-1.34006
-1.30632
-1.23712
-1.14713
-1.05272
-0.964799
-0.888039
-0.824008
-0.77375
-0.738738
-1.30942
-1.27959
-1.22619
-1.15587
-1.07872
-1.00418
-0.937348
-0.880389
-0.834819
-0.802294
-1.22799
-1.20108
-1.16194
-1.11188
-1.05453
-0.996305
-0.942007
-0.894151
-0.854667
-0.825325
-1.11795
-1.09369
-1.06538
-1.03225
-0.993683
-0.952399
-0.911803
-0.874285
-0.841708
-0.815278
-1.00237
-0.981178
-0.960049
-0.938331
-0.914167
-0.887783
-0.860743
-0.83433
-0.810337
-0.789754
-0.898373
-0.881293
-0.864754
-0.848738
-0.832607
-0.816298
-0.800119
-0.784479
-0.769194
-0.754526
-0.814273
-0.801692
-0.788371
-0.774439
-0.761241
-0.75022
-0.742431
-0.737385
-0.73625
-0.736861
-0.751041
-0.741804
-0.729924
-0.715202
-0.701339
-0.692239
-0.690381
-0.696267
-0.707435
-0.726561
-0.716688
-0.708749
-0.69491
-0.676971
-0.661015
-0.65263
-0.655874
-0.674024
-0.703917
-0.758969
-0.724324
-0.713958
-0.699212
-0.68109
-0.665756
-0.659547
-0.666209
-0.686585
-0.717471
-0.744433
-0.761656
-0.750739
-0.739176
-0.729674
-0.725808
-0.730742
-0.745845
-0.769819
-0.801177
-0.828104
-0.799939
-0.792018
-0.788972
-0.794682
-0.81013
-0.835061
-0.867924
-0.905922
-0.94587
-0.9727
-0.809429
-0.807242
-0.811803
-0.827201
-0.853011
-0.887255
-0.927139
-0.96975
-1.01168
-1.04016
-0.781939
-0.784774
-0.792019
-0.807861
-0.831628
-0.861261
-0.894249
-0.928213
-0.960392
-0.980513
-0.729849
-0.734818
-0.742131
-0.753519
-0.769138
-0.787496
-0.806835
-0.825503
-0.84026
-0.844609
-0.674078
-0.680181
-0.687198
-0.69546
-0.705105
-0.714826
-0.723154
-0.728676
-0.728613
-0.718821
-0.632597
-0.639386
-0.646464
-0.653185
-0.659407
-0.6638
-0.665036
-0.661945
-0.652319
-0.633289
-0.619295
-0.626399
-0.633666
-0.639772
-0.644329
-0.645916
-0.643274
-0.635454
-0.620644
-0.596407
-0.641534
-0.648578
-0.655668
-0.661309
-0.664999
-0.665199
-0.660596
-0.650298
-0.632639
-0.605239
-0.94081
-0.449153
-0.103567
0.0650152
0.095451
0.0842449
0.0673226
0.048812
0.0294503
0.0102063
-1.01255
-0.356264
-0.0305012
0.0923106
0.10106
0.0847444
0.0664621
0.0478189
0.0287119
0.00993765
-1.02204
-0.271998
0.0251258
0.110202
0.104044
0.0846123
0.0656217
0.0468866
0.0280272
0.00968515
-0.959422
-0.198347
0.0603321
0.119256
0.105511
0.0843611
0.0647768
0.0459758
0.0273678
0.00943832
-0.827683
-0.128191
0.08207
0.12442
0.106275
0.0838939
0.0638529
0.0450491
0.026715
0.00919258
-0.683251
-0.0557005
0.0964467
0.127407
0.106376
0.0831524
0.0628245
0.0440909
0.0260607
0.00894539
-0.546533
0.00414698
0.105651
0.128196
0.105766
0.08212
0.0616704
0.0430853
0.0253959
0.00869342
-0.456214
0.0478044
0.110617
0.126903
0.104451
0.0807792
0.060368
0.0420165
0.0247117
0.00843345
-0.411664
0.0730305
0.111474
0.123981
0.102435
0.0790989
0.0588955
0.0408703
0.0239993
0.00816253
-0.405692
0.0775587
0.107826
0.119709
0.099703
0.0770446
0.0572328
0.0396335
0.0232505
0.00787795
-0.599982
-0.582626
-0.277
-0.02672
0.0660897
0.079104
0.0678476
0.0501632
0.0307061
0.0107331
-0.597166
-0.583101
-0.285307
-0.0265283
0.0674593
0.0793643
0.0676978
0.0499732
0.0305378
0.0106683
-0.645478
-0.583958
-0.279236
-0.0202031
0.0704635
0.079725
0.0674514
0.0497383
0.0303478
0.0105955
-0.740098
-0.564194
-0.257677
-0.0042542
0.0762039
0.0806829
0.0673724
0.0495479
0.0301629
0.0105129
-0.859836
-0.515988
-0.177201
0.033405
0.0885824
0.0836955
0.0677942
0.0494616
0.0299868
0.0104277
-0.586716
-0.698512
-0.765166
-0.796318
-0.796895
-0.768642
-0.750052
-0.70125
-0.670087
-0.626897
-0.586677
-0.699944
-0.764419
-0.793312
-0.789924
-0.757779
-0.743941
-0.683167
-0.670501
-0.618756
-0.588627
-0.702676
-0.765525
-0.792899
-0.78483
-0.757434
-0.735032
-0.691084
-0.681268
-0.650938
-0.594273
-0.709556
-0.772056
-0.797931
-0.786875
-0.76604
-0.731697
-0.719376
-0.707083
-0.732878
-0.60444
-0.721371
-0.784372
-0.808184
-0.797553
-0.775321
-0.740979
-0.739801
-0.730726
-0.822347
1.52227
1.5128
1.49633
1.476
1.45276
1.42559
1.39376
1.3592
1.33022
1.31709
1.60861
1.61116
1.60694
1.59799
1.58558
1.56924
1.54852
1.525
1.5054
1.4971
1.69121
1.69855
1.70099
1.6999
1.69619
1.68944
1.67911
1.66612
1.65536
1.65157
1.76181
1.77329
1.78193
1.78819
1.79233
1.79385
1.79209
1.78759
1.78389
1.78405
1.82007
1.83475
1.84765
1.85887
1.86844
1.87584
1.88043
1.88244
1.88432
1.88762
1.86151
1.8782
1.8944
1.90972
1.92383
1.93615
1.94599
1.95325
1.9595
1.9654
1.88603
1.9041
1.9224
1.94027
1.95712
1.97236
1.98532
1.99573
2.00466
2.01218
1.89153
1.91004
1.92931
1.94846
1.96673
1.98348
1.99803
2.01
2.02022
2.02849
1.87758
1.89573
1.91484
1.93389
1.95202
1.96859
1.98289
1.99457
2.00451
2.01257
1.84354
1.86044
1.87823
1.8958
1.91226
1.92697
1.93922
1.94876
1.95682
1.9637
-0.456309
-0.501125
-0.559965
-0.633364
-0.722144
-0.825924
-0.941782
-1.05898
-1.15407
-1.19735
-0.242803
-0.292895
-0.355758
-0.432111
-0.523197
-0.629423
-0.74978
-0.873921
-0.976589
-1.02288
0.00327595
-0.0515769
-0.117947
-0.196262
-0.28792
-0.393855
-0.512987
-0.636786
-0.74575
-0.793093
0.261913
0.204034
0.135958
0.0575566
-0.032437
-0.135087
-0.249633
-0.369687
-0.474315
-0.52356
0.512649
0.454465
0.387644
0.312259
0.227154
0.131041
0.0242153
-0.0876706
-0.18415
-0.231394
0.740441
0.685913
0.624257
0.555576
0.478711
0.392238
0.296239
0.195786
0.109636
0.0668286
0.941719
0.894345
0.841091
0.781956
0.715697
0.640844
0.557414
0.470027
0.395478
0.358475
1.12403
1.08486
1.04076
0.991734
0.936369
0.873196
0.802287
0.727897
0.664902
0.634026
1.29541
1.26291
1.22537
1.18405
1.13772
1.08488
1.02559
0.963571
0.911636
0.88673
1.44261
1.41599
1.38319
1.34831
1.31077
1.26889
1.2222
1.17341
1.13288
1.11392
1.65504
1.53866
1.54717
1.5369
1.54433
1.5691
1.59193
1.62937
1.64597
1.61494
1.6377
1.53788
1.54664
1.53694
1.54283
1.56738
1.59149
1.63225
1.66275
1.66753
1.62195
1.53596
1.54496
1.53602
1.54067
1.56475
1.5903
1.63483
1.6789
1.71892
1.60769
1.53315
1.54236
1.53423
1.53784
1.56125
1.58787
1.63499
1.6902
1.75697
1.59477
1.5296
1.53899
1.53161
1.53433
1.55684
1.58401
1.63284
1.69663
1.78464
1.58303
1.52544
1.53497
1.5282
1.5301
1.55148
1.57868
1.62828
1.69812
1.80144
1.57231
1.5208
1.53042
1.52405
1.52514
1.54514
1.57185
1.62118
1.69443
1.80752
1.5625
1.51576
1.52543
1.51923
1.51946
1.53783
1.5635
1.61145
1.68539
1.80295
1.55349
1.51042
1.52009
1.51378
1.51307
1.52952
1.5536
1.59903
1.67092
1.78751
1.54518
1.50485
1.51447
1.50775
1.50599
1.52024
1.54213
1.58388
1.65096
1.761
1.81901
1.54026
1.53564
1.52727
1.54078
1.56195
1.57536
1.59598
1.55516
1.52953
1.74559
1.53396
1.53603
1.52904
1.54141
1.56286
1.57601
1.59756
1.5595
1.52602
1.72339
1.53903
1.54098
1.53165
1.54249
1.56445
1.57843
1.60184
1.57128
1.52768
1.69725
1.53928
1.54422
1.53408
1.54362
1.5665
1.58272
1.60944
1.5905
1.53814
1.67449
1.53895
1.54636
1.5359
1.54448
1.56847
1.58752
1.61908
1.61523
1.55497
1.3202
1.22656
1.0989
0.931979
0.728278
0.495882
0.246722
-0.00249942
-0.233498
-0.430562
1.31418
1.22337
1.10157
0.939983
0.741424
0.512438
0.263692
0.0116382
-0.224509
-0.427085
1.32573
1.23083
1.10629
0.946192
0.751484
0.525111
0.276097
0.021262
-0.219173
-0.426152
1.36104
1.25167
1.11504
0.951973
0.759093
0.534059
0.284114
0.0265248
-0.217688
-0.4287
1.41809
1.28707
1.12992
0.957843
0.763127
0.538371
0.288095
0.0284795
-0.219519
-0.435198
)
;

boundaryField
{
    left
    {
        type            zeroGradient;
    }
    right
    {
        type            fixedValue;
        value           uniform 0;
    }
    down
    {
        type            zeroGradient;
    }
    up
    {
        type            zeroGradient;
    }
    cylinder
    {
        type            zeroGradient;
    }
    defaultFaces
    {
        type            empty;
    }
}


// ************************************************************************* //
