/*--------------------------------*- C++ -*----------------------------------*\
  =========                 |
  \\      /  F ield         | OpenFOAM: The Open Source CFD Toolbox
   \\    /   O peration     | Website:  https://openfoam.org
    \\  /    A nd           | Version:  13
     \\/     M anipulation  |
\*---------------------------------------------------------------------------*/
FoamFile
{
    format      ascii;
    class       surfaceScalarField;
    location    "1.55";
    object      phi;
}
// * * * * * * * * * * * * * * * * * * * * * * * * * * * * * * * * * * * * * //

dimensions      [0 3 -1 0 0 0 0];

internalField   nonuniform List<scalar> 
3485
(
0.00115066
0.00644349
-0.00759415
0.00624802
0.00946924
-0.0145666
0.0161133
0.00363059
-0.0134958
0.0310897
-0.0100116
-0.00496486
0.051002
-0.0298116
0.00989929
0.0750076
-0.0535287
0.0295231
0.101514
-0.0785257
0.0520195
0.12855
-0.102292
0.0752549
0.154216
-0.12287
0.0972047
-0.138551
0.116004
0.176762
0.0013976
0.0050459
0.00755083
0.00331601
0.0195871
-0.00840567
0.0377426
-0.0281671
0.0612081
-0.0532771
0.0881066
-0.0804273
0.11597
-0.106389
0.142452
-0.128774
0.165857
-0.146275
-0.15898
0.186286
0.00208952
0.00295638
0.0101001
-0.00469455
0.0249647
-0.0232703
0.04627
-0.0494724
0.0720921
-0.0790992
0.0995365
-0.107872
0.125736
-0.132588
0.148622
-0.151659
0.16732
-0.164973
-0.173376
0.181716
0.0030311
-7.4721e-05
0.0132679
-0.0149313
0.0309744
-0.0409769
0.0545345
-0.0730324
0.0808224
-0.105387
0.106466
-0.133515
0.129004
-0.155126
0.14731
-0.169965
0.161336
-0.179
-0.183754
0.171714
0.00400846
-0.00408318
0.0164545
-0.0273774
0.0363281
-0.0608504
0.0605667
-0.097271
0.0852507
-0.130071
0.107285
-0.15555
0.125122
-0.172963
0.138594
-0.183437
0.148397
-0.188803
-0.190904
0.155547
0.00503054
-0.00911372
0.0192577
-0.0416046
0.0401098
-0.0817025
0.0632858
-0.120447
0.0848359
-0.151621
0.102523
-0.173237
0.115847
-0.186287
0.125403
-0.192994
0.132174
-0.195574
-0.195721
0.136992
0.00591708
-0.0150308
0.0212085
-0.056896
0.0416531
-0.102147
0.0623327
-0.141127
0.0799244
-0.169213
0.0932299
-0.186542
0.102566
-0.195623
0.108902
-0.19933
0.113249
-0.199921
-0.198885
0.116413
0.0065702
-0.021601
0.0220286
-0.0723544
0.0408232
-0.120942
0.0581733
-0.158477
0.0716937
-0.182734
0.0811089
-0.195957
0.0872402
-0.201754
0.0911625
-0.203252
0.0937469
-0.202506
-0.200624
0.0954856
0.00690282
-0.0285038
0.0216101
-0.0870617
0.0378714
-0.137203
0.0515425
-0.172148
0.0612125
-0.192404
0.0672577
-0.202003
0.0707235
-0.20522
0.0726196
-0.205148
0.0736402
-0.203526
-0.20113
0.0741469
0.00687286
-0.0353767
0.0200702
-0.100259
0.0333235
-0.150456
0.0433665
-0.182191
0.0496197
-0.198657
0.0528583
-0.205241
0.0541654
-0.206527
0.0544071
-0.20539
0.0540915
-0.203211
0.053395
-0.200434
-0.00510835
0.0101834
-0.00507501
-0.014828
0.0174528
-0.00773325
-0.0258873
0.017851
-0.00679162
-0.0364982
0.0147064
-0.00409551
-0.0457497
0.0098426
-0.000591186
-0.0531676
0.00428916
0.00312879
-0.0585926
-0.00128338
0.0067084
-0.0620388
-0.00642941
0.00987555
-0.0636343
-0.0109192
0.0125147
-0.0147459
-0.0635529
0.0146645
-0.00443709
0.0146205
-0.0132009
0.0262167
-0.0234166
0.0280667
-0.0333914
0.0246812
-0.0421733
0.0186245
-0.0492237
0.0113395
-0.0542013
0.00369427
-0.0570439
-0.00358678
-0.0578224
-0.0101407
-0.0157967
-0.0567716
-0.00323233
0.0178528
-0.0102111
0.0331955
-0.0187689
0.0366244
-0.0274039
0.0333163
-0.0351421
0.0263626
-0.0413269
0.0175244
-0.0454891
0.00785643
-0.0472579
-0.00181794
-0.0466325
-0.0107662
-0.0186057
-0.0438235
-0.00152283
0.0193756
-0.00579517
0.0374678
-0.011658
0.0424873
-0.017958
0.0396163
-0.023748
0.0321527
-0.028283
0.0220593
-0.0309321
0.0105055
-0.0311118
-0.00163825
-0.0285149
-0.0133631
-0.0240267
-0.0230939
0.00042154
0.0189541
-0.000420715
0.0383101
-0.00263847
0.0447051
-0.00551286
0.0424907
-0.00822789
0.0348677
-0.0100475
0.0238789
-0.0103001
0.0107581
-0.00835007
-0.0035883
-0.00336243
-0.0183507
-0.0325195
0.00513035
0.00205637
0.0168977
0.0045684
0.035798
0.0064044
0.0428691
0.0076732
0.0412219
0.008932
0.0336089
0.0108076
0.0220034
0.0138671
0.00769864
0.0187185
-0.00843973
0.0260193
-0.0256515
-0.0432978
0.0367976
0.00289397
0.0140037
0.00778886
0.0309031
0.0130374
0.0376205
0.0182826
0.0359767
0.0237774
0.0281141
0.0299872
0.0157935
0.0372511
0.00043473
0.0462594
-0.0174479
0.0570787
-0.0364709
-0.057242
0.0710229
0.00280985
0.0111939
0.00860106
0.0251119
0.0158989
0.0303227
0.0241607
0.0277149
0.0334226
0.0188521
0.0439484
0.00526776
0.0563445
-0.0119613
0.0703569
-0.0314604
0.0858012
-0.0519152
-0.0746831
0.103242
0.00214821
0.00904567
0.00767965
0.0195805
0.0158217
0.0221806
0.0262033
0.0173333
0.0388131
0.00624232
0.053922
-0.00984118
0.0713908
-0.0294301
0.0908548
-0.0509245
0.111478
-0.0725379
-0.0952294
0.132024
0.00145152
0.00646541
0.0151502
0.0275187
0.0436603
0.0633422
0.0859317
0.110262
0.134929
0.155704
0.0126489
-0.294651
0.218449
0.102941
-0.261827
0.171535
0.153638
-0.188558
0.137861
0.182581
-0.137856
0.108914
0.197883
-0.102223
0.0869207
0.20549
-0.0754826
0.0678754
0.208999
-0.0578803
0.0543715
0.210045
-0.0402329
0.0391864
0.210041
-0.0341929
0.0341969
-0.0211454
0.022164
0.0168571
-0.36828
0.102241
-0.347211
0.153546
-0.239864
0.182603
-0.166913
0.198037
-0.117656
0.205749
-0.083195
0.209311
-0.061442
0.210403
-0.0413251
0.210429
-0.0342191
-0.02018
0.0255666
-0.43767
0.102536
-0.424181
0.153461
-0.290789
0.182297
-0.195749
0.197774
-0.133133
0.205614
-0.0910348
0.209302
-0.0651305
0.210543
-0.0425657
0.210715
-0.0343909
-0.0193969
0.0407413
-0.501505
0.10605
-0.489489
0.154097
-0.338836
0.181883
-0.223534
0.197154
-0.148404
0.205097
-0.0989776
0.208975
-0.069009
0.210465
-0.0440554
0.210895
-0.0348215
-0.0189234
0.0620198
-0.558394
0.11394
-0.54141
0.156112
-0.381007
0.181659
-0.249082
0.19628
-0.163025
0.204225
-0.106923
0.208335
-0.0731188
0.210169
-0.0458892
0.210969
-0.0356211
-0.0188852
0.0865883
-0.608185
0.125328
-0.58015
0.15961
-0.415289
0.181869
-0.271342
0.195298
-0.176454
0.203059
-0.114683
0.2074
-0.0774604
0.209659
-0.048148
0.210932
-0.036894
-0.019405
0.110171
-0.647333
0.137596
-0.607574
0.16372
-0.441414
0.182403
-0.290024
0.194309
-0.18836
0.201679
-0.122053
0.206209
-0.0819909
0.208948
-0.0508865
0.210786
-0.0387318
-0.0206011
0.12958
-0.673671
0.14793
-0.625924
0.166954
-0.460437
0.182623
-0.305694
0.193187
-0.198924
0.200127
-0.128993
0.204812
-0.0866759
0.208062
-0.0541371
0.210538
-0.0412075
-0.0225833
0.143548
-0.685195
0.154561
-0.636937
0.168163
-0.474039
0.181667
-0.319197
0.191509
-0.208767
0.198288
-0.135772
0.203211
-0.0915985
0.207025
-0.0579515
0.2102
-0.0443827
-0.0254525
0.151707
-0.681198
0.157433
-0.642664
0.167336
-0.483942
0.179189
-0.33105
0.188819
-0.218397
0.195875
-0.142827
0.201288
-0.0970116
0.205805
-0.0624682
0.20977
-0.0483481
-0.0293109
0.555573
-0.625787
-0.610984
0.47844
-0.565531
0.414765
-0.420266
0.37651
-0.292796
0.355593
-0.19748
0.343752
-0.130986
0.336403
-0.0896636
0.331945
-0.0580098
0.328736
-0.0451388
-0.0275013
0.557241
-0.524007
-0.659021
0.469426
-0.477716
0.412465
-0.363305
0.379136
-0.259467
0.359529
-0.177873
0.347418
-0.118875
0.339357
-0.0816023
0.334166
-0.0528194
0.330215
-0.0411878
-0.0252043
0.572358
-0.436679
-0.659685
0.497307
-0.402666
0.439623
-0.305621
0.398746
-0.218589
0.371831
-0.150959
0.354732
-0.101775
0.343676
-0.0705472
0.336809
-0.0459515
0.331771
-0.0361503
-0.0223365
0.572386
-0.359389
-0.649676
0.500343
-0.330623
0.444346
-0.249623
0.404194
-0.178438
0.376944
-0.123708
0.358864
-0.0836951
0.346662
-0.0583456
0.338869
-0.0381577
0.333055
-0.0303363
-0.0189897
0.575003
-0.293421
-0.64097
0.508695
-0.264315
0.453578
-0.194506
0.411775
-0.136635
0.382418
-0.0943511
0.362646
-0.0639232
0.349186
-0.0448854
0.340548
-0.0295195
0.334073
-0.023862
-0.0152308
0.576021
-0.235255
-0.634187
0.512653
-0.200947
0.457871
-0.139724
0.415332
-0.094096
0.385068
-0.0640871
0.364559
-0.0434144
0.350479
-0.0308061
0.341391
-0.0204306
0.33451
-0.0169818
-0.0111793
0.570742
-0.179451
-0.626546
0.507945
-0.13815
0.453627
-0.0854069
0.411785
-0.0522538
0.382248
-0.0345501
0.362335
-0.0235012
0.348598
-0.0170692
0.339688
-0.0115207
0.332832
-0.0101255
-0.00705449
0.536474
-0.117442
-0.598483
0.474017
-0.075692
0.424216
-0.0356058
0.387949
-0.0159872
0.363073
-0.00967399
0.346531
-0.00695905
0.335067
-0.00560574
0.327578
-0.00403142
0.321611
-0.00415899
-0.00331821
0.414298
-0.0486466
-0.483094
0.360988
-0.0223823
0.32842
-0.00303764
0.308858
0.00357502
0.296203
0.00298141
0.287665
0.00157841
0.281461
0.000598579
0.277268
0.000161675
0.273549
-0.000440309
-0.000735755
0.144763
-0.19341
0.122381
0.119343
0.122918
0.125899
0.127478
0.128076
0.128238
0.127798
0.542001
0.0452427
-0.533849
0.551992
0.0641561
0.56254
0.0849371
0.575529
0.103424
0.588043
0.124477
0.603374
0.140216
0.614072
0.161016
0.625922
0.169866
0.621565
0.190643
0.187343
0.51804
0.0376673
-0.510465
0.528875
0.0533211
0.540051
0.0737619
0.555024
0.0884513
0.570037
0.109464
0.588629
0.121625
0.607123
0.142522
0.626128
0.150861
0.646429
0.170342
0.174751
0.501631
0.030169
-0.494133
0.511801
0.043151
0.523484
0.0620789
0.537813
0.0741228
0.553923
0.0933535
0.571913
0.103635
0.592276
0.122159
0.613024
0.130113
0.636935
0.146431
0.152
0.489807
0.0224744
-0.482112
0.499358
0.0336001
0.51154
0.0498967
0.525301
0.0603619
0.541877
0.0767777
0.559565
0.0859464
0.580168
0.101556
0.601431
0.10885
0.625409
0.122454
0.127732
0.480264
0.0148606
-0.47265
0.489515
0.0243492
0.50182
0.0375914
0.515532
0.0466503
0.532303
0.0600064
0.550226
0.0680239
0.570971
0.0808101
0.592576
0.0872462
0.616459
0.0985704
0.103221
0.47161
0.00758832
-0.464338
0.480713
0.0152463
0.492876
0.0254289
0.506725
0.032801
0.52359
0.0431414
0.541897
0.0497166
0.562947
0.0597605
0.585042
0.0651507
0.609329
0.0742839
0.0783624
0.461364
0.000998244
-0.454774
0.470134
0.0064758
0.481907
0.0136564
0.495715
0.0189932
0.512529
0.0263268
0.53117
0.0310757
0.552624
0.0383067
0.575469
0.0423053
0.600665
0.0490879
0.0524818
0.439584
-0.00404161
-0.434545
0.446879
-0.000818588
0.457151
0.00338454
0.469669
0.00647452
0.485324
0.0106722
0.503073
0.0133269
0.523869
0.0175103
0.546462
0.0197123
0.57175
0.0237996
0.0257489
0.372866
-0.00476349
-0.372144
0.375561
-0.00351309
0.380952
-0.00200728
0.388397
-0.000970516
0.398685
0.000384826
0.410781
0.00123048
0.42573
0.00256162
0.442346
0.0030964
0.461754
0.00439143
0.00440927
0.183826
-0.18859
0.180313
0.178306
0.177335
0.17772
0.178951
0.181512
0.184609
0.189
0.0757017
0.144568
-0.132704
-0.0875657
0.0647499
0.146664
-0.135712
0.05461
0.149201
-0.139062
0.0447621
0.152647
-0.142799
0.0349308
0.156385
-0.146554
0.0251685
0.159363
-0.149601
0.0158527
0.159034
-0.149718
0.00776438
0.149651
-0.141563
0.00207818
0.120771
-0.115085
0.0576692
-0.055591
0.0730956
0.155346
-0.0838742
0.0624257
0.157333
0.0520727
0.159554
0.0420647
0.162655
0.0322811
0.166169
0.0227764
0.168868
0.0139348
0.167876
0.00652725
0.157058
0.00159278
0.125706
0.059262
0.0665265
0.164852
-0.0760326
0.0566406
0.167219
0.0468162
0.169379
0.0372604
0.172211
0.0279993
0.17543
0.0191514
0.177716
0.0111391
0.175888
0.00473384
0.163464
0.000862177
0.129577
0.0601241
0.0566909
0.173171
-0.0650094
0.0479744
0.175936
0.0391312
0.178222
0.030422
0.18092
0.0220104
0.183842
0.0141161
0.18561
0.00723814
0.182766
0.00218943
0.168512
-0.000153037
0.13192
0.0599711
0.0444448
0.180338
-0.0516119
0.0369826
0.183398
0.0293307
0.185874
0.0217174
0.188533
0.0143913
0.191168
0.00773116
0.19227
0.00227709
0.18822
-0.000934886
0.171724
-0.00130811
0.132293
0.058663
0.030837
0.186419
-0.0369179
0.0245799
0.189655
0.0181474
0.192306
0.0117413
0.194939
0.00565894
0.19725
0.00037398
0.197555
-0.00314428
0.191738
-0.00418719
0.172767
-0.00252288
0.130629
0.0561401
0.0159284
0.191465
-0.0209747
0.0108224
0.194761
0.0056385
0.19749
0.000564379
0.200014
-0.00401776
0.201832
-0.00746811
0.201005
-0.00899817
0.193268
-0.00769338
0.171463
-0.00371215
0.126648
0.052428
0.00027732
0.195629
-0.00444077
-0.00375995
0.198798
-0.00773771
0.201468
-0.0114588
0.203735
-0.0144815
0.204855
-0.0160597
0.202584
-0.0152042
0.192413
-0.0112063
0.167465
-0.00481287
0.120254
0.0476151
-0.016918
0.19859
0.0139565
-0.0197265
0.201607
-0.0223708
0.204112
-0.0245842
0.205948
-0.0258006
0.206071
-0.0251262
0.201909
-0.021544
0.18883
-0.0145997
0.16052
-0.00576549
0.11142
0.0418496
-0.0349603
0.0331166
-0.0365641
-0.0378416
-0.0384203
-0.0375902
-0.0343377
-0.027698
-0.0176339
-0.00647293
0.105152
0.035393
-0.116902
-0.0236431
0.0931413
0.0364079
-0.0243975
0.0808561
0.0375028
-0.0252175
0.0682697
0.0386796
-0.0260933
0.0553633
0.0399215
-0.027015
0.0421614
0.0411069
-0.027905
0.0288515
0.0417582
-0.0284483
0.0160679
0.0404922
-0.0277085
0.00539411
0.0342307
-0.023557
0.0176147
-0.0122206
0.104733
0.0472066
-0.116546
0.0927208
0.0484199
0.0804487
0.0497748
0.0678903
0.051238
0.055023
0.0527888
0.0418693
0.0542606
0.0286183
0.0550093
0.0159083
0.0532022
0.00532145
0.0448176
0.0229362
0.104065
0.0589773
-0.115836
0.0920597
0.0604252
0.0798088
0.0620257
0.067287
0.0637598
0.0544765
0.0655992
0.0414017
0.0673354
0.0282529
0.0681581
0.0156704
0.0657847
0.0052234
0.0552645
0.0281596
0.102567
0.0707774
-0.114367
0.0906458
0.0723467
0.0784846
0.074187
0.0660563
0.0761881
0.0533509
0.0783046
0.0404139
0.0802724
0.0274586
0.0811134
0.0151363
0.0781069
0.0049924
0.0654085
0.033152
0.100712
0.0824257
-0.11236
0.0889214
0.0841371
0.0769626
0.0861457
0.0647742
0.0883766
0.0523075
0.0907712
0.0395851
0.0929948
0.0268312
0.0938673
0.0147305
0.0902076
0.00483491
0.0753041
0.0379869
0.097401
0.0941294
-0.109105
0.0856974
0.0958407
0.0738344
0.0980086
0.0618187
0.100392
0.0496422
0.102948
0.0373309
0.105306
0.0250955
0.106103
0.0136072
0.101696
0.00436647
0.0845449
0.0423534
0.0941568
0.105304
-0.105332
0.0829889
0.107009
0.0716369
0.109361
0.0600014
0.112028
0.0480842
0.114865
0.0359914
0.117399
0.0240203
0.118074
0.0128931
0.112823
0.0040784
0.0933596
0.0464318
0.0875557
0.116293
-0.0985444
0.076761
0.117803
0.0659935
0.120128
0.0551387
0.122883
0.0440854
0.125918
0.0328534
0.128631
0.0217304
0.129197
0.0114689
0.123084
0.00350875
0.10132
0.0499405
0.0833785
0.125655
-0.0927401
0.0736428
0.127539
0.0633221
0.130449
0.0526257
0.133579
0.0417187
0.136825
0.0307496
0.1396
0.0200508
0.139896
0.0103777
0.132758
0.00308009
0.108617
0.0530206
0.0734009
-0.0804498
0.0652281
0.0566153
0.0473953
0.0376664
0.0276657
0.0178431
0.00903808
0.00257042
0.201392
0.00849519
-0.0118975
0.205429
0.0212858
-0.0253226
0.209173
0.0389775
-0.0427221
0.211803
0.058289
-0.0609187
0.211596
0.072114
-0.0719066
0.209665
0.0895372
-0.0876061
0.202625
0.105647
-0.0986074
0.190457
0.131691
-0.119524
0.165542
0.175493
-0.150578
0.228694
-0.180053
0.201071
0.005414
0.204778
0.0175788
0.208252
0.0355033
0.210698
0.0558427
0.210547
0.0722652
0.208437
0.0916472
0.201603
0.112481
0.189111
0.144183
0.164258
0.200346
0.276406
0.20068
0.00272376
0.203977
0.014282
0.207079
0.0324014
0.209152
0.0537693
0.208956
0.0724611
0.206387
0.0942164
0.199743
0.119125
0.186643
0.157283
0.162189
0.224799
0.32276
0.200214
0.00049974
0.203019
0.0114768
0.205643
0.0297775
0.207183
0.0522295
0.206833
0.0728106
0.203534
0.0975152
0.197103
0.125557
0.182908
0.171478
0.15941
0.248297
0.367802
0.19967
-0.00118007
0.201901
0.00924546
0.203934
0.0277445
0.204813
0.0513502
0.204178
0.0734457
0.199901
0.101792
0.193717
0.131741
0.177827
0.187368
0.155914
0.27021
0.411356
0.199045
-0.0022353
0.200622
0.00766874
0.201943
0.026423
0.202071
0.0512225
0.200983
0.0745333
0.195557
0.107218
0.189637
0.137661
0.171817
0.205188
0.151862
0.290166
0.454113
0.198341
-0.00258681
0.199184
0.00682595
0.19967
0.025937
0.198987
0.0519051
0.197238
0.0762827
0.190674
0.113782
0.184744
0.143591
0.165151
0.224781
0.146889
0.308428
0.495671
0.197559
-0.00215561
0.197595
0.00678911
0.197127
0.0264054
0.195594
0.0534384
0.192943
0.0789337
0.185316
0.121408
0.179059
0.149849
0.157246
0.246594
0.141435
0.324239
0.538561
0.196694
-0.000859851
0.195872
0.00761067
0.194344
0.0279339
0.191925
0.055857
0.188092
0.0827671
0.179659
0.129841
0.172447
0.157061
0.150265
0.268775
0.13512
0.339385
0.580941
0.195782
0.00134804
0.193994
0.00939862
0.191392
0.0305359
0.18795
0.0592989
0.182829
0.0878885
0.173138
0.139533
0.164116
0.166082
0.140131
0.292761
0.129429
0.350086
0.62992
0.304903
-0.00154465
0.309337
0.00496429
0.314827
0.0250456
0.321062
0.0530638
0.328413
0.0805381
0.332258
0.135688
0.349622
0.148718
0.35346
0.288924
0.402409
0.301137
0.561322
0.471008
0.305487
-0.00502128
0.310845
-0.00039375
0.31704
0.0188504
0.324689
0.0454146
0.332417
0.0728099
0.340737
0.127369
0.359857
0.129597
0.37167
0.277111
0.417807
0.254999
0.494209
0.48492
0.306251
-0.00926232
0.312751
-0.00689383
0.319841
0.0117609
0.328523
0.0367323
0.336435
0.0648981
0.348858
0.114945
0.366791
0.111664
0.384677
0.259225
0.428614
0.211063
0.42021
0.502613
0.307268
-0.0145205
0.315109
-0.0147341
0.323241
0.00362897
0.332264
0.0277093
0.340978
0.0561839
0.355629
0.100295
0.372023
0.0952694
0.396377
0.234871
0.439749
0.167691
0.345744
0.514214
0.308605
-0.0211153
0.31813
-0.0242595
0.327227
-0.00546796
0.336025
0.018912
0.345768
0.0464405
0.361349
0.0847137
0.376975
0.0796435
0.409411
0.202435
0.446367
0.130735
0.276226
0.515885
0.310315
-0.0294202
0.321804
-0.0357484
0.331768
-0.0154319
0.339968
0.010712
0.350267
0.0361412
0.366698
0.0682827
0.381327
0.0650151
0.419789
0.163973
0.450248
0.100276
0.211813
0.514661
0.31269
-0.0401004
0.326036
-0.0490943
0.335792
-0.0251878
0.342886
0.00361795
0.353146
0.025882
0.370242
0.0511858
0.384243
0.0510145
0.426303
0.121913
0.452833
0.073745
0.151966
0.512681
0.315007
-0.0530973
0.326257
-0.0603438
0.333239
-0.0321705
0.338804
-0.00194727
0.349016
0.0156705
0.366694
0.0335079
0.381675
0.0360335
0.42584
0.0777481
0.451238
0.0483465
0.0952859
0.507919
0.308586
-0.059673
0.301897
-0.0536549
0.29679
-0.0270631
0.299096
-0.00425362
0.309631
0.00513504
0.327904
0.0152355
0.347317
0.0166203
0.391357
0.0337078
0.41811
0.0215941
0.0397504
0.473645
0.242337
0.188682
0.161619
0.157366
0.162501
0.177736
0.194357
0.228064
0.249658
0.289409
0.484859
-0.101417
0.490558
-0.0895729
0.494789
-0.0802642
0.499078
-0.0692976
0.503602
-0.0561362
0.508709
-0.042025
0.513926
-0.0261922
0.519715
-0.0102298
0.526192
0.00747962
0.0254604
0.487174
-0.103672
0.489026
-0.0914243
0.489425
-0.0806637
0.489908
-0.06978
0.490573
-0.0568017
0.49231
-0.0437626
0.494677
-0.0285588
0.49873
-0.0142826
0.503458
0.00275142
0.0184535
0.497015
-0.0980735
0.493199
-0.0876088
0.489329
-0.0767932
0.485713
-0.0661645
0.483063
-0.0541515
0.482011
-0.0427102
0.482315
-0.0288634
0.48456
-0.0165272
0.488042
-0.000730343
0.0123626
0.50293
-0.0867894
0.493637
-0.0783159
0.486188
-0.0693443
0.480175
-0.0601514
0.475754
-0.0497298
0.473065
-0.0400221
0.472337
-0.0281352
0.473486
-0.0176755
0.47678
-0.00402497
0.00703033
0.502818
-0.0737229
0.491535
-0.0670328
0.482233
-0.0600419
0.474849
-0.0527673
0.46946
-0.0443409
0.465847
-0.0364097
0.464475
-0.0267633
0.464923
-0.0181235
0.467874
-0.0069759
0.00225417
0.500848
-0.0599105
0.488741
-0.054925
0.478516
-0.0498171
0.4702
-0.0444515
0.464031
-0.0381721
0.459716
-0.0320942
0.457707
-0.0247545
0.45757
-0.017986
0.460033
-0.00943959
-0.00205031
0.49829
-0.04552
0.485496
-0.0421307
0.474455
-0.0387761
0.46528
-0.0352771
0.458239
-0.0311308
0.453105
-0.0269599
0.450243
-0.0218926
0.449332
-0.0170749
0.451018
-0.0111255
-0.00580651
0.49206
-0.0296615
0.477791
-0.0278615
0.465312
-0.0262968
0.454687
-0.024652
0.446116
-0.0225598
0.439432
-0.0202764
0.434943
-0.0174038
0.432435
-0.0145666
0.432417
-0.0111069
-0.00793448
0.455678
-0.0116946
0.43953
-0.011713
0.425014
-0.0117807
0.412067
-0.0117049
0.400806
-0.0112995
0.391185
-0.0106554
0.383481
-0.00969932
0.377584
-0.00866987
0.373878
-0.0074009
-0.00620075
0.277714
0.266001
0.25422
0.242516
0.231216
0.220561
0.210861
0.202192
0.194791
0.00778938
0.0427081
-0.0504975
0.0183458
0.114984
-0.125541
0.0252273
0.163846
-0.170728
0.0275008
0.189973
-0.192247
0.0264185
0.200942
-0.19986
0.0234266
0.203725
-0.200733
0.0195248
0.202261
-0.198359
0.0153495
0.197539
-0.193364
0.011501
0.188052
-0.184204
0.169963
0.00860669
-0.167069
0.00923773
0.0334704
0.0244765
0.0997456
0.0370777
0.151245
0.0444766
0.182574
0.0474368
0.197982
0.047546
0.203616
0.0460498
0.203757
0.0436217
0.199967
0.040434
0.19124
0.174143
0.0362538
0.00974397
0.0237264
0.0289551
0.0805345
0.047692
0.132508
0.0612179
0.169048
0.0692063
0.189994
0.0730931
0.199729
0.0743427
0.202507
0.0737258
0.200584
0.0712352
0.193731
0.179597
0.0657813
0.00918689
0.0145395
0.0306671
0.0590543
0.0551872
0.107988
0.0757604
0.148475
0.0901006
0.175654
0.098924
0.190905
0.10376
0.197672
0.105693
0.198652
0.104644
0.194779
0.184655
0.0995857
0.00771209
0.00682746
0.0288763
0.0378901
0.0572776
0.0795866
0.0850118
0.120741
0.107205
0.153461
0.122714
0.175396
0.132566
0.18782
0.138079
0.193138
0.139931
0.192927
0.188162
0.136424
0.00571718
0.00111028
0.0239552
0.0196521
0.0525736
0.0509681
0.0853949
0.0879197
0.115996
0.12286
0.140532
0.15086
0.15804
0.170313
0.169362
0.181816
0.17542
0.186869
0.186963
0.17662
0.00366545
-0.00255517
0.0173171
0.0060005
0.042048
0.0262372
0.0751795
0.0547882
0.111375
0.0866639
0.145305
0.11693
0.173371
0.142247
0.19408
0.161107
0.207887
0.173061
0.181141
0.213709
0.00167896
-0.00423413
0.0102213
-0.00254182
0.0284401
0.00801843
0.0567719
0.0264564
0.092739
0.0506968
0.132011
0.0776579
0.170112
0.104146
0.203209
0.12801
0.229521
0.14675
0.160912
0.24975
-0.000245001
-0.00398913
0.00357058
-0.0063574
0.0148207
-0.00323168
0.0354556
0.00582149
0.0655173
0.0206351
0.103019
0.0401565
0.14465
0.0625146
0.186869
0.0857908
0.224434
0.109184
0.12557
0.259776
-0.0012222
-0.00276692
0.000218814
-0.00779842
0.00718372
-0.0101966
0.0213287
-0.00832346
0.0435029
-0.00153914
0.0737596
0.00989977
0.11104
0.0252344
0.153659
0.0431717
0.199477
0.0633658
0.0814501
0.243597
0.000253162
-0.00302009
0.00377534
-0.0113206
0.0115012
-0.0179225
0.0235974
-0.0204196
0.0403853
-0.0183271
0.0623424
-0.0120573
0.0898781
-0.00230131
0.122455
0.0105944
0.160363
0.0254586
0.0446341
0.197179
0.00291105
-0.00593113
0.0106601
-0.0190696
0.0216525
-0.0289149
0.0347199
-0.0334869
0.0494299
-0.0330371
0.0659312
-0.0285586
0.0846394
-0.0210095
0.106293
-0.0110589
0.131212
0.000539694
0.0170389
0.158807
0.00459954
-0.0105307
0.0138275
-0.0282976
0.0246418
-0.0397292
0.0357494
-0.0445945
0.0470042
-0.0442919
0.0587762
-0.0403306
0.0715211
-0.0337544
0.0855586
-0.0250964
0.100641
-0.0145425
-0.00172001
0.1194
0.00368258
-0.0142133
0.0093168
-0.0339318
0.0143626
-0.044775
0.0184109
-0.0486428
0.0220948
-0.0479758
0.0263062
-0.0445419
0.0318414
-0.0392897
0.039341
-0.0325959
0.0492995
-0.024501
-0.0145787
0.0621582
0.000949389
-0.0151626
0.000715394
-0.0336978
-0.00143962
-0.04262
-0.00479917
-0.0452833
-0.00834097
-0.044434
-0.0111124
-0.0417705
-0.0122909
-0.0381112
-0.0111384
-0.0337485
-0.00696024
-0.0286792
-0.022641
0.00110203
-0.00168345
-0.0134792
-0.00656755
-0.0288137
-0.0134773
-0.0357103
-0.0212241
-0.0375365
-0.0288962
-0.0367619
-0.0358797
-0.0347869
-0.0417228
-0.0322681
-0.046039
-0.0294323
-0.048494
-0.0262242
-0.0222762
-0.0488587
-0.00348147
-0.00999773
-0.0110632
-0.021232
-0.0204259
-0.0263476
-0.0300572
-0.0279052
-0.0391397
-0.0276794
-0.0472961
-0.0266305
-0.0543719
-0.0251923
-0.0602862
-0.023518
-0.064915
-0.0215954
-0.0191964
-0.0679948
-0.00459103
-0.0054067
-0.013691
-0.0121321
-0.0243105
-0.015728
-0.0347491
-0.0174666
-0.0441754
-0.0182531
-0.0522636
-0.0185422
-0.0589521
-0.0185039
-0.0642875
-0.0181825
-0.0683025
-0.0175805
-0.0166076
-0.0708913
-0.00515892
-0.000247785
-0.0149896
-0.00230143
-0.0261744
-0.0045432
-0.0369211
-0.0067199
-0.0463682
-0.00880599
-0.054171
-0.0107394
-0.06026
-0.0124149
-0.0647066
-0.0137359
-0.0676189
-0.0146682
-0.0152095
-0.0690169
-0.0053228
-0.0153575
-0.0266923
-0.0375077
-0.0469049
-0.0545155
-0.0602221
-0.0640824
-0.0662359
-0.0667809
0.259355
0.377587
-0.439764
0.274494
0.340577
-0.355716
0.237444
0.158377
-0.121327
0.199072
0.0709711
-0.0325987
0.184238
0.0217791
-0.0069453
0.183925
-0.00390659
0.00421993
0.188691
-0.0144706
0.00970383
0.194376
-0.0152691
0.00958405
0.200482
-0.0160783
0.00997311
-0.0123236
0.00683343
0.246119
0.290275
0.252295
0.334401
0.211556
0.199116
0.187349
0.095178
0.183599
0.0255298
0.187029
-0.00733714
0.192169
-0.01961
0.197127
-0.0202271
0.202142
-0.021094
-0.0166303
0.202515
0.207159
0.199156
0.337761
0.177834
0.220438
0.177031
0.0959806
0.183634
0.0189271
0.1899
-0.0136033
0.195178
-0.0248883
0.199437
-0.0244855
0.203448
-0.0251053
-0.019849
0.124496
0.144821
0.134708
0.327549
0.151829
0.203317
0.172182
0.075628
0.185203
0.00590567
0.192815
-0.0212152
0.197931
-0.0300039
0.201502
-0.0280571
0.204608
-0.0282108
-0.0220953
0.0449423
0.100981
0.0900156
0.282476
0.141243
0.152089
0.172116
0.0447552
0.187604
-0.00958154
0.195625
-0.0292366
0.200421
-0.0348006
0.203357
-0.0309928
0.205666
-0.0305196
-0.0234913
0.00065322
0.0514689
0.0759384
0.20719
0.141261
0.0867669
0.174287
0.0117294
0.190192
-0.0254871
0.198189
-0.0372333
0.202628
-0.0392398
0.205004
-0.033369
0.206631
-0.0321463
-0.0241622
-0.0125975
-0.00392845
0.0813079
0.113285
0.144985
0.0230894
0.176926
-0.020211
0.192589
-0.0411507
0.200425
-0.0450688
0.204534
-0.0433494
0.206442
-0.0352764
0.207504
-0.0332081
-0.0242354
-0.00547437
-0.0693454
0.0913797
0.0164309
0.148843
-0.0343742
0.179248
-0.0506161
0.194615
-0.0565173
0.20229
-0.0527441
0.20613
-0.0471893
0.207667
-0.036813
0.208283
-0.0338239
-0.0238399
0.00387915
-0.142241
0.0988649
-0.0785548
0.151617
-0.087126
0.180981
-0.07998
0.196186
-0.0717226
0.203762
-0.0603203
0.207408
-0.0508357
0.208677
-0.0380815
0.208967
-0.0341136
-0.0231058
0.00942669
0.102407
0.153142
0.182076
0.197274
0.204829
0.208365
0.20947
0.209553
0.0090063
0.0652498
-0.0742561
-0.0084607
0.017467
0.0113517
-0.0198124
0.0351297
-0.023778
0.047363
-0.0122333
0.0519176
-0.00455466
0.0537511
-0.0018335
0.0546746
-0.000923485
0.0553492
-0.000674616
-0.000449332
0.129712
0.214319
-0.278781
0.0653511
0.0818278
0.080623
-0.0350842
0.108716
-0.0518714
0.124581
-0.0280978
0.131405
-0.0113792
0.134876
-0.00530432
0.136991
-0.00303867
0.138749
-0.00243233
-0.00156589
0.288325
0.364314
-0.43832
0.183109
0.187043
0.159444
-0.0114192
0.164803
-0.0572302
0.171708
-0.0350024
0.175943
-0.0156149
0.179146
-0.00850694
0.181611
-0.00550376
0.183976
-0.00479694
-0.00313357
0.401569
0.454014
-0.491269
0.295961
0.292651
0.237626
0.0469155
0.209308
-0.028912
0.198394
-0.0240881
0.196256
-0.0134766
0.197777
-0.0100281
0.199991
-0.00771827
0.202563
-0.00736816
-0.00493581
0.443785
-0.429535
0.380721
0.306309
0.244798
0.213765
0.204508
0.204184
0.20605
0.208654
0.0112574
-0.000101632
-0.0111558
0.012831
-0.00157362
0.0157916
-0.00296061
0.0201314
-0.0043398
0.0261302
-0.00599876
0.0337545
-0.00762425
0.0421689
-0.00841444
0.0531455
-0.0109766
0.0631843
-0.0100387
-0.0110718
0.031394
-0.000743863
-0.0307518
0.0360831
-0.00626276
0.0448383
-0.0117158
0.0582724
-0.0177739
0.0775875
-0.0253139
0.102062
-0.0320992
0.134296
-0.0406478
0.174741
-0.0514214
0.219705
-0.0550037
-0.0701475
0.0489447
-0.00226579
-0.0474228
0.0565993
-0.0139173
0.0706284
-0.0257449
0.0925238
-0.0396693
0.122848
-0.0556383
0.163203
-0.072454
0.215374
-0.0928191
0.277326
-0.113373
0.352458
-0.130136
-0.15601
0.0636237
-0.00486298
-0.0610266
0.0737836
-0.0240771
0.0921621
-0.0441235
0.120354
-0.0678616
0.158198
-0.0934819
0.209557
-0.123813
0.270042
-0.153305
0.340916
-0.184246
0.425366
-0.214586
-0.221913
0.0754444
-0.0717006
0.087621
0.109279
0.141003
0.183945
0.236752
0.297156
0.362661
0.407851
0.0855429
-0.0767745
0.0851168
-0.0938852
0.0766035
-0.0779616
0.086901
0.0674434
-0.0798721
0.0890321
0.0576722
-0.0818948
0.0916659
0.0471422
-0.0838995
0.0944296
0.0359602
-0.0855842
0.0967661
0.0244835
-0.0858016
0.0972783
0.0134672
-0.0815434
0.0925597
0.00441939
-0.0669082
0.075956
-0.0328453
0.0372647
0.0937452
-0.0670793
-0.10344
0.0836652
-0.0678816
0.0728661
-0.0690729
0.0614282
-0.0704568
0.0495483
-0.0720197
0.0374243
-0.0734602
0.0253308
-0.0737082
0.0139044
-0.0701169
0.00457002
-0.0575738
-0.0282753
0.09307
-0.0562103
-0.103939
0.082135
-0.0569466
0.0710345
-0.0579724
0.05978
-0.0592024
0.0483257
-0.0605653
0.0366368
-0.0617713
0.0248677
-0.061939
0.0136456
-0.0588949
0.00445398
-0.0483822
-0.0238213
0.0973011
-0.0453377
-0.108174
0.0862688
-0.0459143
0.0750037
-0.0467072
0.0634068
-0.0476055
0.0514148
-0.0485733
0.0390598
-0.0494163
0.026584
-0.0494632
0.0146751
-0.046986
0.0048624
-0.0385695
-0.0189589
0.0985631
-0.0340771
-0.109824
0.0871808
-0.0345321
0.0755396
-0.035066
0.0636181
-0.035684
0.0514108
-0.036366
0.0389634
-0.0369689
0.0264813
-0.0369811
0.0145953
-0.0351
0.00481136
-0.0287856
-0.0141475
0.10099
-0.0228102
-0.112257
0.089461
-0.0230034
0.0776721
-0.0232771
0.0655874
-0.0235993
0.0531798
-0.0239585
0.0404673
-0.0242564
0.02764
-0.0241539
0.0153408
-0.0228007
0.00512285
-0.0185677
-0.00902467
0.102215
-0.0113057
-0.113719
0.0905166
-0.0113053
0.0785538
-0.0113142
0.0662997
-0.0113453
0.0537323
-0.0113911
0.0408755
-0.0113995
0.0279192
-0.0111975
0.0154985
-0.01038
0.0051735
-0.00824263
-0.00385117
0.103574
0.000257549
-0.115137
0.0917541
0.000514337
0.0796583
0.000781653
0.0672584
0.00105456
0.0545352
0.00133211
0.0415151
0.00162056
0.0283895
0.00192814
0.015794
0.00221543
0.00529512
0.00225624
0.00144395
0.10445
0.0119162
-0.116108
0.0925403
0.0124236
0.080354
0.012968
0.067865
0.0135435
0.0550528
0.0141444
0.041939
0.0147343
0.0287079
0.0151592
0.015992
0.0149313
0.00537094
0.0128773
0.00681489
0.104966
-0.116693
0.0929924
0.0807428
0.068193
0.0553224
0.0421517
0.0288626
0.0160853
0.00540573
0.0150695
-0.164875
-0.0172627
0.0102934
-0.179428
0.0044031
-0.187474
-0.00167881
-0.192277
-0.0072886
-0.195123
-0.011625
-0.195524
-0.0135099
-0.190362
-0.011604
-0.172633
-0.00571509
-0.13143
-0.0562126
0.0396909
-0.161634
-0.0429321
0.0331753
-0.172912
0.0253451
-0.179644
0.0172054
-0.184137