/*--------------------------------*- C++ -*----------------------------------*\
  =========                 |
  \\      /  F ield         | OpenFOAM: The Open Source CFD Toolbox
   \\    /   O peration     | Website:  https://openfoam.org
    \\  /    A nd           | Version:  13
     \\/     M anipulation  |
\*---------------------------------------------------------------------------*/
FoamFile
{
    format      ascii;
    class       volVectorField;
    location    "1.55";
    object      U;
}
// * * * * * * * * * * * * * * * * * * * * * * * * * * * * * * * * * * * * * //

dimensions      [0 1 -1 0 0 0 0];

internalField   nonuniform List<vector> 
1800
(
(-0.0645566 0.0600974 3.22637e-20)
(-0.101195 0.115441 1.48348e-20)
(-0.0426776 0.119838 -4.01113e-20)
(0.101694 0.0768665 2.26203e-20)
(0.31987 -0.00321847 4.39193e-20)
(0.59302 -0.108097 1.3598e-20)
(0.895449 -0.224044 -1.62124e-20)
(1.19682 -0.33923 -1.10084e-19)
(1.4796 -0.437069 -1.12277e-19)
(1.68683 -0.525371 -1.1973e-19)
(-0.0572278 0.0458399 1.19614e-20)
(-0.0544914 0.0673733 -1.12418e-19)
(0.0612992 0.0417197 5.16592e-22)
(0.27449 -0.0226275 -8.91426e-20)
(0.563118 -0.112416 4.02119e-20)
(0.89454 -0.213539 9.97679e-20)
(1.2306 -0.312739 -1.10836e-19)
(1.53736 -0.40042 1.296e-19)
(1.79169 -0.466926 3.40073e-19)
(1.97822 -0.531528 -2.18223e-19)
(-0.0425995 0.0303329 9.71477e-21)
(0.0173334 0.0212504 3.07334e-20)
(0.208925 -0.0291175 -1.5189e-20)
(0.503718 -0.107175 -4.96104e-21)
(0.861349 -0.197006 -1.86768e-19)
(1.23219 -0.284517 5.16753e-20)
(1.57111 -0.359869 1.6013e-19)
(1.84853 -0.4185 -1.63479e-20)
(2.05461 -0.459629 -2.96069e-21)
(2.19522 -0.494252 -6.05722e-22)
(-0.0168401 0.0126764 -1.13648e-20)
(0.120284 -0.0236061 -3.42876e-20)
(0.402095 -0.0904638 -3.34471e-20)
(0.779441 -0.170493 4.1897e-20)
(1.18847 -0.248132 5.20465e-20)
(1.56797 -0.313134 1.47092e-20)
(1.87785 -0.361413 -9.51395e-21)
(2.10368 -0.393881 2.97318e-19)
(2.25212 -0.410871 3.21577e-19)
(2.33226 -0.425687 -1.48995e-19)
(0.0227732 -0.00615394 8.22656e-20)
(0.256536 -0.0636776 7.43279e-20)
(0.635288 -0.135701 -5.64876e-20)
(1.08197 -0.204725 -6.68891e-20)
(1.51285 -0.260595 -3.02461e-19)
(1.86895 -0.300165 4.20848e-21)
(2.12749 -0.324937 4.8508e-19)
(2.29385 -0.3381 1.8908e-19)
(2.38733 -0.34289 -4.82077e-22)
(2.43105 -0.348635 -1.8786e-19)
(0.0773665 -0.0230202 -7.13969e-20)
(0.42332 -0.0913164 -1.45439e-20)
(0.894619 -0.155381 2.98154e-19)
(1.38557 -0.2027 -1.64613e-19)
(1.80648 -0.233 -3.09535e-19)
(2.11599 -0.249848 6.95147e-19)
(2.31488 -0.25724 -6.39584e-19)
(2.42572 -0.258819 -8.75123e-19)
(2.47637 -0.256274 6.77973e-19)
(2.48632 -0.256735 -1.81794e-21)
(0.14591 -0.0347504 6.676e-20)
(0.612297 -0.0997759 -1.95747e-19)
(1.16067 -0.142956 -8.38869e-19)
(1.66615 -0.163137 4.67808e-19)
(2.05206 -0.170187 1.01954e-18)
(2.30432 -0.170787 -3.77352e-21)
(2.44612 -0.168595 -2.01575e-18)
(2.51157 -0.165425 1.72268e-20)
(2.53037 -0.162098 2.23316e-18)
(2.52246 -0.162984 6.03849e-19)
(0.225881 -0.0380212 4.73021e-20)
(0.811024 -0.0833618 3.50693e-19)
(1.41295 -0.0957333 7.81592e-19)
(1.90628 -0.0888516 -8.59698e-20)
(2.24263 -0.0783044 -8.12805e-19)
(2.43721 -0.0696223 -3.0693e-19)
(2.53034 -0.0639435 0)
(2.5615 -0.0607521 8.63969e-19)
(2.55888 -0.0591488 -1.61197e-20)
(2.53743 -0.06163 -7.89364e-19)
(0.312892 -0.0299626 3.63051e-20)
(1.00515 -0.039432 5.20456e-19)
(1.63487 -0.0160788 9.94154e-19)
(2.09695 0.013694 -1.11295e-18)
(2.37886 0.0349987 -9.74358e-19)
(2.52153 0.0463852 3.51266e-19)
(2.57617 0.0503501 -1.61433e-18)
(2.58302 0.0499735 -1.21529e-18)
(2.56635 0.0471894 1.45978e-18)
(2.53729 0.0408163 1.26427e-18)
(0.401249 -0.00870668 2.66239e-20)
(1.18097 0.0312249 4.14076e-19)
(1.81525 0.0907382 2.2908e-19)
(2.23498 0.137663 -1.93805e-18)
(2.46412 0.163485 2.66316e-20)
(2.56336 0.172679 3.67782e-18)
(2.58936 0.171803 -2.11088e-18)
(2.58003 0.166024 -1.20274e-18)
(2.55498 0.158008 4.2861e-19)
(2.52155 0.147258 -9.72735e-19)
(-0.0115274 0.09574 1.46804e-19)
(-0.064267 0.156099 -1.01963e-19)
(-0.12449 0.150102 7.21603e-22)
(-0.181642 0.110935 -2.08654e-20)
(-0.22798 0.0565439 -4.02301e-22)
(-0.261759 -0.00290061 -2.33757e-20)
(-0.283458 -0.0608573 3.61912e-20)
(-0.294623 -0.112998 8.97095e-20)
(-0.295748 -0.157231 1.18952e-20)
(-0.282782 -0.194061 -3.05548e-20)
(-0.0247675 0.154805 -1.69764e-20)
(-0.0827329 0.267454 4.14939e-21)
(-0.139406 0.274441 -1.76238e-21)
(-0.189203 0.226627 1.13229e-20)
(-0.226986 0.15275 -1.5262e-19)
(-0.251968 0.0687426 -4.28784e-20)
(-0.264766 -0.0156432 4.70979e-20)
(-0.266864 -0.0938356 5.18853e-20)
(-0.25895 -0.161738 -2.4975e-19)
(-0.237111 -0.218264 7.24556e-20)
(-0.0441268 0.200922 -1.03499e-19)
(-0.110047 0.361083 3.56758e-20)
(-0.161404 0.383974 2.0957e-20)
(-0.199714 0.33243 -7.53819e-20)
(-0.223866 0.243548 -1.5128e-20)
(-0.23463 0.137992 7.6367e-20)
(-0.233028 0.0282763 -1.353e-19)
(-0.2203 -0.0767575 2.20084e-19)
(-0.197221 -0.170299 -2.90818e-19)
(-0.160277 -0.247783 -2.02881e-19)
(-0.0651561 0.227316 -1.38859e-19)
(-0.139529 0.426426 9.21491e-21)
(-0.183394 0.468751 3.86938e-20)
(-0.206009 0.420734 -1.7123e-19)
(-0.211192 0.323983 3.35323e-19)
(-0.201738 0.202412 -1.50502e-20)
(-0.179231 0.0705203 -5.57524e-20)
(-0.144977 -0.0611275 5.008e-20)
(-0.099962 -0.18299 4.6907e-20)
(-0.0406776 -0.284635 -1.01222e-20)
(-0.0823564 0.22952 0)
(-0.163936 0.453539 7.67835e-20)
(-0.198868 0.517696 -2.33012e-19)
(-0.202446 0.481505 9.39699e-20)
(-0.184038 0.386132 8.4969e-20)
(-0.14865 0.257023 -1.54885e-19)
(-0.0987523 0.109696 6.9589e-20)
(-0.0362152 -0.0450097 -1.43139e-19)
(0.0366849 -0.196591 0)
(0.126064 -0.326883 -2.00816e-20)
(-0.0913433 0.208691 3.03221e-20)
(-0.177305 0.438034 -3.71821e-21)
(-0.203631 0.521318 -1.0676e-19)
(-0.188376 0.502356 1.61527e-19)
(-0.144528 0.417157 -1.19219e-19)
(-0.0797183 0.290459 1.59224e-19)
(0.00183381 0.137936 -1.83358e-19)
(0.0974575 -0.0300527 5.02974e-20)
(0.204304 -0.204197 -2.5217e-19)
(0.335038 -0.362147 -1.05115e-20)
(-0.0910165 0.172846 3.66089e-21)
(-0.178176 0.385653 -1.00061e-20)
(-0.197371 0.477804 8.54995e-20)
(-0.165754 0.474602 1.68434e-20)
(-0.0976553 0.403368 1.19834e-20)
(-0.00236636 0.285958 1.5186e-19)
(0.113906 0.137416 8.85827e-20)
(0.24726 -0.0310823 5.08749e-20)
(0.392075 -0.212508 1.48623e-19)
(0.572456 -0.388283 3.76919e-19)
(-0.084234 0.13353 -2.64082e-20)
(-0.168632 0.312149 -6.92854e-21)
(-0.180913 0.398074 6.93846e-20)
(-0.134634 0.401353 -2.90575e-20)
(-0.0432063 0.340282 -1.32822e-20)
(0.0834757 0.232391 -2.17845e-19)
(0.238297 0.0920351 -1.97621e-19)
(0.414631 -0.0689204 3.36781e-20)
(0.598961 -0.244415 -9.44918e-20)
(0.832085 -0.421125 2.78474e-19)
(-0.075902 0.100339 -5.42548e-20)
(-0.15245 0.23632 -1.46297e-19)
(-0.153577 0.301862 7.25171e-20)
(-0.0889412 0.298805 -1.09856e-20)
(0.0303762 0.239019 5.07753e-20)
(0.194707 0.136456 -1.72142e-19)
(0.394059 0.00365929 1.02284e-20)
(0.617169 -0.146823 6.38581e-20)
(0.841931 -0.30638 -1.08243e-19)
(1.11618 -0.461584 2.10174e-19)
(-0.0694915 0.0766864 -7.07765e-21)
(-0.131204 0.170205 -1.31169e-19)
(-0.11067 0.206552 -6.52465e-20)
(-0.0156214 0.186263 5.93063e-20)
(0.144455 0.118739 -4.86442e-20)
(0.357903 0.0157636 6.44479e-20)
(0.609135 -0.110341 5.33891e-20)
(0.877778 -0.246552 2.15847e-20)
(1.13934 -0.380221 -1.43076e-19)
(1.41468 -0.496191 -1.98612e-19)
(-0.152651 -0.35847 3.76372e-19)
(0.307686 -0.302661 -2.07776e-19)
(0.630532 -0.227569 -3.30092e-20)
(0.812386 -0.172472 2.50958e-20)
(0.919683 -0.132675 -1.26336e-20)
(0.979444 -0.101002 -1.0507e-20)
(1.01257 -0.0794809 -1.14714e-20)
(1.03351 -0.0567255 -2.1922e-21)
(1.04379 -0.0490932 1.22215e-20)
(1.05572 -0.0316938 1.99566e-21)
(-0.06611 -0.462966 3.80824e-19)
(0.335312 -0.425475 2.02552e-19)
(0.652978 -0.299791 -2.57736e-21)
(0.827546 -0.2147 -2.93364e-20)
(0.930694 -0.156411 -5.50441e-20)
(0.987728 -0.114293 0)
(1.01897 -0.0871891 -1.24771e-20)
(1.03811 -0.0611166 4.18171e-21)
(1.04752 -0.0520582 2.95621e-22)
(1.05795 -0.0333339 -3.8371e-21)
(0.0731006 -0.561835 -6.13891e-19)
(0.387439 -0.538295 -1.06487e-19)
(0.688633 -0.371549 4.74834e-20)
(0.849219 -0.256146 2.04749e-21)
(0.94506 -0.179596 -1.2551e-21)
(0.997803 -0.127171 3.99516e-21)
(1.02637 -0.0945193 0)
(1.04324 -0.0652049 0)
(1.05159 -0.0547305 -5.71848e-21)
(1.06031 -0.0347635 0)
(0.26856 -0.652442 -9.4864e-20)
(0.478603 -0.634718 3.8978e-19)
(0.741787 -0.439717 -1.33172e-20)
(0.879262 -0.295679 0)
(0.963222 -0.201738 6.23159e-20)
(1.00973 -0.139388 -1.18204e-20)
(1.03473 -0.101336 0)
(1.04887 -0.0689144 1.56953e-20)
(1.05595 -0.0570589 0)
(1.06279 -0.0359558 2.21377e-21)
(0.511985 -0.732619 -3.02916e-19)
(0.614339 -0.710216 2.67457e-19)
(0.815391 -0.499309 1.15691e-20)
(0.919594 -0.331354 0)
(0.98587 -0.222073 2.18315e-20)
(1.02365 -0.150635 2.61232e-20)
(1.04404 -0.1075 3.53817e-21)
(1.05499 -0.0721746 3.84509e-22)
(1.06057 -0.0589957 -4.15881e-21)
(1.06536 -0.0368876 1.54617e-21)
(0.787047 -0.800499 -1.87241e-18)
(0.786953 -0.765005 -5.13575e-19)
(0.907961 -0.546256 -7.76385e-21)
(0.970965 -0.360958 9.16536e-20)
(1.01377 -0.239508 -3.92279e-20)
(1.03987 -0.160448 1.50371e-20)
(1.05435 -0.112828 2.8551e-20)
(1.06157 -0.0749095 -2.97693e-20)
(1.06543 -0.0604967 -6.11763e-23)
(1.06799 -0.0375401 -3.77541e-21)
(1.06658 -0.85226 1.8277e-19)
(0.979892 -0.801847 1.49872e-19)
(1.01222 -0.579728 -2.77726e-20)
(1.03122 -0.383408 -3.14106e-21)
(1.04705 -0.253086 -6.08944e-20)
(1.05874 -0.168248 3.1717e-21)
(1.06583 -0.117048 -1.27721e-20)
(1.06864 -0.0770072 -1.96328e-21)
(1.07048 -0.061507 4.0625e-21)
(1.07067 -0.0378969 -9.40923e-22)
(1.32897 -0.881034 8.28279e-20)
(1.17513 -0.821832 2.38326e-19)
(1.11872 -0.600954 0)
(1.09505 -0.399334 1.69055e-20)
(1.08419 -0.262734 5.37445e-20)
(1.08015 -0.173708 -1.07851e-21)
(1.07862 -0.119909 -4.56445e-20)
(1.07631 -0.0783332 1.22926e-20)
(1.07577 -0.0619547 -1.97039e-22)
(1.07339 -0.0379385 -1.99843e-21)
(1.56274 -0.881539 4.32758e-20)
(1.35758 -0.824019 -6.22908e-19)
(1.22091 -0.610802 1.24603e-19)
(1.15671 -0.409831 -1.24764e-20)
(1.12201 -0.269284 -1.55654e-21)
(1.10303 -0.177126 -4.76917e-20)
(1.09253 -0.121449 1.51913e-20)
(1.08463 -0.0788638 2.15382e-22)
(1.08133 -0.0618116 -1.40756e-21)
(1.07617 -0.0376517 1.42417e-21)
(1.76544 -0.856848 -7.11176e-20)
(1.51618 -0.80978 -5.63499e-19)
(1.31576 -0.609125 -2.66918e-20)
(1.21319 -0.414689 -1.18262e-19)
(1.15729 -0.273295 -6.71472e-20)
(1.12536 -0.179069 -3.06074e-20)
(1.10666 -0.121987 -1.07632e-20)
(1.09331 -0.078738 0)
(1.08707 -0.0611446 -5.31199e-21)
(1.07899 -0.0370364 4.38075e-21)
(2.04178 -0.812444 -5.97903e-19)
(1.70827 -0.765656 6.31683e-20)
(1.43478 -0.585393 -2.54799e-19)
(1.28154 -0.406039 2.0998e-20)
(1.19769 -0.269544 2.08701e-20)
(1.15065 -0.176143 -1.9704e-20)
(1.12313 -0.119166 -1.08795e-20)
(1.10382 -0.0765659 8.87291e-21)
(1.09415 -0.0590539 -4.01892e-21)
(1.0825 -0.0357567 -1.84645e-21)
(2.06603 -0.7251 1.31409e-19)
(1.67551 -0.642507 -1.49602e-19)
(1.4183 -0.472049 7.78696e-20)
(1.28733 -0.331623 -1.75641e-20)
(1.21072 -0.22744 8.76714e-20)
(1.16337 -0.153026 6.32203e-20)
(1.1339 -0.105817 4.17258e-20)
(1.11192 -0.0688407 -4.50311e-21)
(1.10051 -0.0538551 1.44241e-20)
(1.08579 -0.0329478 2.96579e-21)
(2.0692 -0.592702 -1.59329e-19)
(1.764 -0.547676 -3.17197e-20)
(1.52226 -0.425842 2.77609e-20)
(1.36633 -0.307873 5.03666e-36)
(1.26219 -0.211518 -5.50745e-21)
(1.19401 -0.14102 -1.74688e-34)
(1.15191 -0.0965469 1.04063e-21)
(1.12242 -0.0623838 -3.9173e-35)
(1.10745 -0.048659 1.10081e-22)
(1.08905 -0.0298523 -4.63478e-22)
(2.05393 -0.49572 -4.63189e-34)
(1.77223 -0.455335 5.24033e-20)
(1.53856 -0.34135 -3.51519e-20)
(1.38505 -0.242699 0)
(1.28106 -0.168513 -3.92905e-20)
(1.20975 -0.114654 -2.88473e-20)
(1.16362 -0.0802453 -2.00274e-20)
(1.13027 -0.0525848 8.45102e-35)
(1.11312 -0.0416531 -6.39918e-21)
(1.09171 -0.0258997 2.27886e-22)
(2.04146 -0.404512 -9.97911e-20)
(1.79728 -0.368047 1.07506e-20)
(1.57409 -0.277348 0)
(1.41424 -0.198488 0)
(1.30277 -0.137685 0)
(1.22485 -0.0930526 0)
(1.17381 -0.06493 5.73619e-22)
(1.13672 -0.0425169 1.02431e-34)
(1.11771 -0.0340082 -6.97031e-23)
(1.09372 -0.021459 8.32469e-36)
(2.03217 -0.328358 -2.2685e-21)
(1.80987 -0.289068 0)
(1.59209 -0.207861 0)
(1.42824 -0.143355 0)
(1.31322 -0.0985729 0)
(1.23243 -0.0669547 0)
(1.17907 -0.0473187 -1.37061e-21)
(1.13994 -0.031262 9.76506e-21)
(1.11996 -0.0255743 -1.4862e-22)
(1.0942 -0.0165417 1.51089e-21)
(2.00956 -0.259286 0)
(1.79485 -0.211868 -3.94728e-21)
(1.58 -0.140733 -3.0584e-20)
(1.41598 -0.091037 0)
(1.30282 -0.0610792 -2.01915e-20)
(1.22437 -0.0413613 -1.38042e-20)
(1.17247 -0.0296244 -1.06134e-20)
(1.13403 -0.0197925 -5.45595e-21)
(1.11449 -0.0168457 5.51169e-21)
(1.0884 -0.0113619 -1.31376e-21)
(1.89842 -0.188528 8.24014e-21)
(1.67733 -0.133839 1.33244e-20)
(1.4757 -0.0744789 -1.23304e-20)
(1.32916 -0.0410742 -2.66461e-36)
(1.23266 -0.02635 5.28449e-21)
(1.16756 -0.0180833 -9.34335e-35)
(1.12457 -0.0134824 -1.81639e-21)
(1.09229 -0.00926175 -3.00993e-21)
(1.0759 -0.00858473 -2.53708e-22)
(1.05253 -0.00629564 4.88319e-22)
(1.48755 -0.108847 -3.30766e-20)
(1.2766 -0.0583035 1.55345e-20)
(1.1295 -0.0151725 2.20431e-20)
(1.04397 0.0017056 0)
(0.994884 0.00282407 1.05913e-20)
(0.962313 0.00119899 6.51584e-21)
(0.93988 -0.000146117 2.18524e-21)
(0.922013 -0.000539448 2.41219e-21)
(0.912861 -0.00159939 -3.0466e-21)
(0.897209 -0.00189769 -1.42473e-22)
(0.540553 -0.0103301 0)
(0.428511 0.00103297 0)
(0.393124 0.00691525 0)
(0.398629 0.00651991 0)
(0.41118 0.00411499 0)
(0.418975 0.00246191 0)
(0.422698 0.00150502 -2.03329e-21)
(0.423718 0.000891085 5.82187e-36)
(0.424272 0.000412718 -3.29454e-22)
(0.42072 4.52749e-06 -6.285e-22)
(2.44492 0.127264 9.29498e-19)
(2.46133 0.0353162 6.03273e-20)
(2.47802 -0.0570665 -1.10222e-19)
(2.46663 -0.143879 -3.53076e-19)
(2.46925 -0.233937 -8.83686e-20)
(2.42214 -0.312495 -1.50247e-19)
(2.4207 -0.400224 -5.04316e-19)
(2.30347 -0.465045 1.11842e-19)
(2.30763 -0.548876 0)
(2.0353 -0.582848 1.53625e-19)
(2.34096 0.107614 2.79477e-19)
(2.35058 0.0290972 -3.529e-19)
(2.383 -0.0379456 -5.37858e-20)
(2.36668 -0.117618 -1.57259e-19)
(2.39328 -0.183886 9.90571e-20)
(2.34857 -0.264737 2.12679e-19)
(2.37287 -0.329742 -2.2127e-19)
(2.29752 -0.414053 2.10783e-20)
(2.3088 -0.475765 -5.83731e-20)
(2.21056 -0.566739 1.068e-19)
(2.26434 0.0894665 -1.30922e-19)
(2.27712 0.0173152 2.81867e-19)
(2.30333 -0.0291797 2.00399e-19)
(2.29844 -0.105428 -3.0438e-19)
(2.3125 -0.148724 5.84049e-21)
(2.29233 -0.229773 3.68103e-19)
(2.29186 -0.269377 3.29494e-20)
(2.26251 -0.357733 -3.68719e-20)
(2.24103 -0.393025 -6.52465e-21)
(2.21163 -0.491653 -1.34294e-21)
(2.20667 0.0646037 -2.96536e-19)
(2.2266 0.00275272 -1.46693e-20)
(2.24379 -0.032162 -2.83878e-20)
(2.2512 -0.0983799 -3.94148e-20)
(2.25272 -0.130085 -1.58126e-19)
(2.24926 -0.20057 -1.17481e-19)
(2.23446 -0.228565 2.12899e-19)
(2.2232 -0.303751 7.46356e-21)
(2.19249 -0.329464 2.71479e-20)
(2.17679 -0.409267 2.3927e-20)
(2.16198 0.0389259 5.50859e-20)
(2.18485 -0.0109095 1.12886e-19)
(2.19847 -0.0399289 -4.77943e-20)
(2.21047 -0.0932653 2.49137e-19)
(2.20966 -0.119513 -3.11652e-20)
(2.21114 -0.175958 -2.44575e-19)
(2.19623 -0.198557 3.90844e-20)
(2.18819 -0.258096 -1.21424e-19)
(2.16042 -0.278361 9.19117e-20)
(2.14469 -0.340509 6.30345e-20)
(2.12349 0.0133595 -1.60872e-19)
(2.14569 -0.0254381 -7.99494e-20)
(2.15926 -0.0500562 1.82407e-20)
(2.17134 -0.091183 1.2217e-19)
(2.17292 -0.113432 2.03882e-19)
(2.17489 -0.156689 -7.18898e-20)
(2.16434 -0.175609 6.35192e-21)
(2.15687 -0.220838 -7.07728e-21)
(2.1345 -0.236911 1.42765e-20)
(2.11931 -0.283253 -7.1759e-20)
(2.07864 -0.0105743 -6.07644e-20)
(2.09863 -0.0399943 -1.26903e-19)
(2.11179 -0.0598091 -1.21809e-19)
(2.12317 -0.0906368 -2.37446e-19)
(2.12628 -0.108371 3.15702e-20)
(2.12973 -0.140828 3.97131e-20)
(2.12211 -0.15548 3.41644e-20)
(2.11912 -0.189319 3.82726e-20)
(2.09969 -0.200293 -7.94957e-20)
(2.09278 -0.234707 -2.03166e-20)
(1.98301 -0.0305434 5.74103e-20)
(1.99744 -0.0507823 4.74713e-20)
(2.00445 -0.0646452 2.0904e-20)
(2.01382 -0.0858978 -4.13466e-20)
(2.01184 -0.0979225 -3.78677e-20)
(2.01859 -0.120599 -3.54191e-21)
(2.00641 -0.129695 -3.37901e-20)
(2.01408 -0.153721 2.85729e-20)
(1.98881 -0.158707 -1.76028e-20)
(2.00225 -0.183683 4.81963e-20)
(1.6899 -0.0419129 -4.84518e-20)
(1.68651 -0.0521226 1.08318e-21)
(1.67718 -0.059338 9.49652e-20)
(1.67216 -0.0694545 -3.65998e-21)
(1.65648 -0.0750592 -2.43796e-20)
(1.65424 -0.0856854 4.66321e-20)
(1.63058 -0.0891581 -2.61645e-20)
(1.63695 -0.100889 9.87552e-21)
(1.60022 -0.101036 1.46477e-20)
(1.62461 -0.11448 3.43908e-20)
(0.844698 -0.0157016 4.51691e-20)
(0.819614 -0.0152849 3.44988e-20)
(0.79515 -0.0146277 3.28476e-20)
(0.771457 -0.0142691 5.01953e-20)
(0.747659 -0.0137031 -2.38448e-20)
(0.726764 -0.0136539 -2.36261e-20)
(0.703235 -0.0135388 8.01654e-21)
(0.688452 -0.013985 -1.43715e-21)
(0.660117 -0.0133693 1.90866e-21)
(0.662941 -0.017233 -2.543e-21)
(1.5352 0.908858 -7.86237e-20)
(1.51835 0.954643 2.83854e-20)
(1.52044 1.00779 -5.95028e-19)
(1.52793 1.06846 2.47798e-19)
(1.53369 1.13288 1.11191e-18)
(1.52941 1.19366 -1.55515e-19)
(1.4943 1.22998 -1.01862e-18)
(1.38016 1.19214 -3.10576e-20)
(1.09962 0.985698 -5.13037e-19)
(0.521032 0.48124 1.37243e-19)
(1.70011 0.876981 0)
(1.68842 0.922203 7.08998e-19)
(1.687 0.972389 1.57044e-18)
(1.694 1.03123 -9.55569e-19)
(1.70316 1.09494 -2.24122e-18)
(1.70275 1.15473 -1.59201e-19)
(1.66683 1.18861 -2.03046e-19)
(1.53952 1.14747 7.34486e-19)
(1.22272 0.941539 1.05489e-18)
(0.575011 0.453645 4.47104e-19)
(1.85314 0.83934 7.16708e-20)
(1.85096 0.884101 0)
(1.85127 0.93132 -7.24634e-20)
(1.85894 0.985656 9.76317e-19)
(1.87027 1.04474 5.89538e-20)
(1.87175 1.09973 -2.24095e-18)
(1.83267 1.12813 1.40577e-18)
(1.68957 1.08237 8.58109e-19)
(1.33496 0.879625 -9.24476e-19)
(0.621399 0.416715 -2.99419e-19)
(1.9879 0.788142 -1.71452e-19)
(1.99612 0.831701 -1.29221e-19)
(2.00267 0.876091 2.77093e-19)
(2.01397 0.925712 -3.43635e-19)
(2.02794 0.979129 -1.60953e-18)
(2.03017 1.02762 -1.23633e-18)
(1.98559 1.04895 1.31877e-18)
(1.82401 0.997989 8.41863e-19)
(1.42995 0.800509 0)
(0.655892 0.37037 0)
(2.10795 0.724918 -9.41178e-19)
(2.12494 0.765579 -1.67905e-18)
(2.13859 0.80625 -6.53896e-19)
(2.15459 0.850636 -3.76054e-20)
(2.17109 0.897527 0)
(2.17236 0.938494 1.53346e-19)
(2.11962 0.951299 1.79645e-19)
(1.93532 0.894306 2.2415e-19)
(1.49961 0.70504 -3.26974e-19)
(0.67433 0.315683 -8.21867e-20)
(2.21165 0.647192 1.1252e-18)
(2.23669 0.684099 -4.75817e-20)
(2.25759 0.720646 -1.32155e-18)
(2.27851 0.759751 0)
(2.2969 0.799838 0)
(2.29534 0.831275 0)
(2.22954 0.835099 1.56163e-18)
(2.01677 0.774794 -1.73257e-18)
(1.53891 0.596211 -1.12006e-18)
(0.674412 0.25472 -3.91383e-21)
(2.30313 0.559825 -1.49395e-18)
(2.33348 0.591723 -3.13405e-18)
(2.35974 0.623156 -5.42634e-21)
(2.38425 0.656011 6.27738e-19)
(2.40255 0.688206 -4.4126e-20)
(2.39379 0.710828 1.34924e-18)
(2.30878 0.705768 -7.32612e-19)
(2.06302 0.641825 -2.05334e-18)
(1.54386 0.477429 1.55489e-19)
(0.654708 0.191181 1.11518e-19)
(2.37957 0.462202 -1.19802e-18)
(2.41414 0.488452 1.88261e-20)
(2.44402 0.514583 4.55687e-19)
(2.46998 0.541166 -4.36397e-19)
(2.48488 0.565501 6.67097e-19)
(2.46387 0.57919 1.82191e-18)
(2.35389 0.565861 -2.0865e-19)
(2.07 0.500248 -1.11305e-18)
(1.51132 0.354612 2.66885e-19)
(0.615352 0.129231 4.84056e-20)
(2.44316 0.36001 4.46673e-19)
(2.4788 0.380823 9.69511e-20)
(2.50954 0.40093 -4.7186e-19)
(2.53388 0.42044 -1.07398e-18)
(2.54109 0.436384 9.60515e-20)
(2.50178 0.440999 9.17864e-20)
(2.35967 0.420524 -1.45206e-18)
(2.03285 0.356461 5.84141e-19)
(1.43914 0.234628 1.76333e-19)
(0.557668 0.0729611 -1.20261e-19)
(2.48984 0.25343 8.6429e-19)
(2.52577 0.269288 -1.28833e-18)
(2.55526 0.283386 2.05666e-19)
(2.57449 0.295892 2.5628e-18)
(2.56857 0.303853 1.28049e-18)
(2.50357 0.300531 -2.73935e-18)
(2.32159 0.275502 -2.60707e-18)
(1.9485 0.217391 1.17601e-18)
(1.32797 0.124523 -1.3462e-20)
(0.484793 0.0260567 -2.6944e-20)
(0.52652 0.348402 -1.62316e-19)
(0.48705 0.361138 -1.64831e-19)
(0.442603 0.374807 7.21881e-20)
(0.393781 0.389519 -2.39454e-19)
(0.3403 0.405132 -2.049e-20)
(0.281364 0.420457 2.24776e-19)
(0.216094 0.430586 3.88739e-20)
(0.145072 0.420966 -9.78333e-22)
(0.0752308 0.358684 1.83426e-20)
(0.0151585 0.186184 1.44271e-20)
(0.568349 0.452627 1.3523e-19)
(0.529622 0.471743 1.73516e-19)
(0.486654 0.492364 4.79854e-20)
(0.439697 0.514632 -5.37202e-20)
(0.388219 0.538332 -2.3217e-19)
(0.331204 0.561751 -1.31073e-20)
(0.267122 0.578022 7.45992e-20)
(0.194813 0.567096 3.58932e-20)
(0.117689 0.483951 -1.16485e-19)
(0.0372501 0.251073 -4.01129e-20)
(0.628451 0.550656 -1.1819e-19)
(0.590959 0.575547 -1.06516e-19)
(0.550165 0.602389 1.0553e-19)
(0.50589 0.631568 7.78885e-20)
(0.457353 0.662952 -7.9971e-20)
(0.403277 0.6944 -3.72455e-20)
(0.341188 0.717116 -1.09671e-19)
(0.267287 0.70556 -6.39613e-20)
(0.179511 0.602768 -6.48696e-20)
(0.0693169 0.312311 1.36782e-21)
(0.704527 0.644297 4.29011e-20)
(0.668763 0.675379 -4.95473e-20)
(0.631137 0.70841 -9.00771e-20)
(0.590572 0.743991 -3.94475e-20)
(0.54584 0.782048 -7.37987e-20)
(0.495401 0.820038 1.72656e-21)
(0.435738 0.84739 -2.60341e-19)
(0.359782 0.833648 3.68614e-20)
(0.258298 0.711356 -3.09541e-19)
(0.110077 0.36756 5.1107e-20)
(0.795145 0.723817 1.29004e-21)
(0.76166 0.759779 1.05507e-20)
(0.728159 0.798136 -5.06544e-20)
(0.692805 0.839902 -2.58181e-19)
(0.653701 0.884877 1.17739e-19)
(0.608565 0.929867 1.32648e-20)
(0.552283 0.962504 7.25291e-20)
(0.473691 0.947639 -1.41258e-19)
(0.354663 0.807995 3.75715e-19)
(0.159398 0.416073 2.76452e-19)
(0.8997 0.800995 -7.66691e-20)
(0.867958 0.84161 -1.67094e-19)
(0.837811 0.883548 5.07878e-20)
(0.806757 0.929083 1.023e-19)
(0.77284 0.978575 3.43393e-19)
(0.733378 1.02827 2.38726e-19)
(0.681278 1.06373 6.07017e-19)
(0.600328 1.04542 2.55841e-19)
(0.462125 0.888362 1.64215e-19)
(0.214378 0.454952 2.12666e-19)
(1.01296 0.853952 -1.10502e-19)
(0.986664 0.899205 5.60187e-19)
(0.963797 0.945657 3.62316e-19)
(0.940032 0.995635 -4.54428e-19)
(0.912687 1.0496 -2.27606e-19)
(0.878872 1.10368 6.48103e-19)
(0.82998 1.14206 -1.09285e-19)
(0.744547 1.12141 -4.24237e-19)
(0.582785 0.950096 -6.04311e-21)
(0.274863 0.48345 2.52469e-19)
(1.13203 0.907147 2.81856e-19)
(1.10612 0.953059 6.11777e-20)
(1.08783 0.999989 -7.53987e-19)
(1.07182 1.05192 1.44022e-19)
(1.05371 1.10861 5.45245e-19)
(1.02861 1.16487 -3.19365e-19)
(0.98503 1.20317 -9.0262e-20)
(0.895555 1.17746 -1.76652e-19)
(0.70872 0.992201 1.79276e-20)
(0.33728 0.500489 -3.12645e-19)
(1.26064 0.926506 2.11592e-20)
(1.2451 0.97656 -5.42565e-19)
(1.23434 1.02488 -4.47318e-21)
(1.22398 1.07811 4.54129e-19)
(1.21156 1.13731 -4.62981e-19)
(1.19229 1.19646 9.10297e-19)
(1.15175 1.23586 6.17493e-19)
(1.05556 1.20677 -9.27488e-19)
(0.839836 1.01157 -6.55226e-20)
(0.40057 0.505371 -3.3734e-19)
(1.36422 0.936865 -3.1769e-19)
(1.35915 0.987592 -3.04116e-19)
(1.36515 1.03777 2.98595e-19)
(1.36962 1.09218 7.419e-19)
(1.36887 1.1514 2.74779e-19)
(1.35838 1.20969 -7.50297e-19)
(1.32172 1.24674 7.72139e-20)
(1.21796 1.21258 2.0499e-19)
(0.971201 1.0097 -2.79374e-19)
(0.46245 0.498906 -2.4044e-19)
(0.954096 0.0155523 1.60823e-21)
(1.03729 0.0338134 -1.9013e-20)
(1.01272 0.0581686 -1.60367e-20)
(1.02392 0.0842861 0)
(1.02907 0.101601 2.24503e-20)
(1.00604 0.124554 3.11299e-20)
(0.982379 0.143401 4.12823e-20)
(0.926128 0.175908 8.78448e-20)
(0.849353 0.227622 -1.2737e-19)
(0.698823 0.285081 -1.89448e-19)
(0.954222 0.0138201 4.05854e-20)
(1.03608 0.0314063 -6.23565e-20)
(1.01155 0.0559913 9.44132e-23)
(1.02356 0.0835325 -2.05155e-20)
(1.03083 0.104629 1.11395e-20)
(1.01034 0.129966 -1.5489e-20)
(0.989347 0.1556 -9.67858e-20)
(0.939558 0.195308 0)
(0.864455 0.26407 2.62921e-19)
(0.734687 0.353618 -2.74357e-19)
(0.954031 0.0122851 -3.14006e-20)
(1.03562 0.0291582 1.73823e-20)
(1.01077 0.0538516 4.42976e-20)
(1.02412 0.0826962 1.10993e-20)
(1.03295 0.107108 -2.65538e-20)
(1.01624 0.135225 1.30906e-21)
(0.996546 0.166864 -6.65848e-20)
(0.957179 0.214544 -5.59484e-21)
(0.881939 0.299214 1.10712e-23)
(0.784406 0.41956 7.51128e-19)
(0.953553 0.0108735 -3.25797e-20)
(1.03584 0.0270112 2.69568e-21)
(1.01035 0.0517249 3.63362e-20)
(1.0255 0.0818462 2.26491e-20)
(1.03555 0.108982 -1.3019e-20)
(1.02352 0.140497 -1.73265e-20)
(1.00435 0.176943 9.63535e-20)
(0.978609 0.233867 -1.56978e-21)
(0.90205 0.332097 -2.88404e-19)
(0.847454 0.481475 9.03023e-20)
(0.952825 0.00954535 2.3021e-20)
(1.03667 0.0249122 -3.35396e-20)
(1.01027 0.049598 -2.888e-20)
(1.02756 0.0810066 1.32283e-20)
(1.03884 0.110231 0)
(1.03188 0.145917 0)
(1.01335 0.185561 8.04627e-20)
(1.003 0.253664 2.13234e-22)
(0.925775 0.361901 -1.31499e-19)
(0.921921 0.538338 9.74239e-20)
(0.951877 0.00824752 6.36279e-21)
(1.03803 0.0228039 2.76194e-20)
(1.01052 0.0474716 -7.65242e-20)
(1.03016 0.0801533 -2.64386e-20)
(1.04302 0.110877 -5.86891e-22)
(1.04092 0.151568 7.17756e-20)
(1.02417 0.192412 1.22768e-19)
(1.02984 0.274354 -8.58335e-22)
(0.952353 0.386981 2.16982e-19)
(1.0101 0.593503 -2.23906e-19)
(0.950736 0.00691557 -2.64612e-20)
(1.03989 0.020629 1.48043e-20)
(1.01108 0.045357 -2.00604e-20)
(1.03322 0.0792137 -5.54219e-20)
(1.04829 0.111005 1.89866e-21)
(1.05024 0.15731 -1.70642e-21)
(1.0377 0.197527 -6.9645e-21)
(1.05718 0.295381 -2.36793e-19)
(0.987307 0.407842 1.59573e-19)
(1.09736 0.635315 -5.43623e-19)
(0.949384 0.0055213 -3.79076e-21)
(1.04221 0.018329 -4.37639e-20)
(1.01197 0.0432668 4.05485e-20)
(1.03674 0.0780806 3.01662e-20)
(1.05472 0.110746 9.98601e-22)
(1.05965 0.162846 -8.2396e-20)
(1.0541 0.201118 -6.60746e-20)
(1.08632 0.316688 4.20281e-19)
(1.02294 0.42459 1.47846e-20)
(1.20929 0.691122 8.54668e-19)
(0.947715 0.00405429 1.77761e-20)
(1.04503 0.0158562 2.02472e-20)
(1.01324 0.0412341 4.52628e-20)
(1.04085 0.0766803 -3.29205e-20)
(1.06237 0.110239 -8.75474e-20)
(1.069 0.167902 1.31137e-21)
(1.07464 0.202342 -8.99629e-20)
(1.11359 0.336293 5.43832e-19)
(1.07889 0.427199 -9.02205e-21)
(1.28102 0.708709 -1.18181e-18)
(0.945512 0.00261437 7.63509e-22)
(1.04845 0.0132644 3.20681e-20)
(1.01491 0.039394 1.57125e-20)
(1.04574 0.0751999 -6.66494e-20)
(1.0707 0.110607 -8.32015e-20)
(1.07828 0.172459 -6.89598e-20)
(1.09504 0.209492 -1.62136e-19)
(1.13742 0.357778 -4.90804e-19)
(1.13202 0.451607 -2.66155e-19)
(1.41826 0.775792 -1.25503e-18)
(0.942107 0.000168758 -2.27692e-21)
(1.05292 0.00920112 -7.24885e-21)
(1.01807 0.0351643 -1.69274e-20)
(1.05168 0.0706479 3.42405e-20)
(1.08321 0.105419 5.93274e-20)
(1.09232 0.17295 -4.53642e-20)
(1.12462 0.196247 1.50042e-19)
(1.1806 0.367966 -4.58756e-19)
(1.20234 0.395196 -1.99496e-19)
(1.4291 0.766039 6.69974e-19)
(0.940496 -0.00399656 4.05296e-21)
(1.0572 0.00313096 1.59994e-20)
(1.02453 0.027587 -1.03113e-20)
(1.0595 0.0616711 6.59144e-20)
(1.09962 0.0954693 9.56443e-20)
(1.10334 0.165124 1.33301e-19)
(1.16914 0.173281 3.28655e-20)
(1.20326 0.355781 2.26369e-19)
(1.29416 0.347481 3.30029e-19)
(1.45339 0.666989 1.82653e-20)
(0.939345 -0.00874452 -2.7109e-21)
(1.06225 -0.00412183 -4.22492e-21)
(1.03263 0.0194023 2.84088e-21)
(1.07005 0.0513494 5.45815e-21)
(1.11407 0.0858023 2.8029e-34)
(1.11792 0.151883 -7.97636e-21)
(1.20639 0.149936 -5.71704e-34)
(1.22005 0.336556 2.04061e-20)
(1.35495 0.291439 -5.85408e-20)
(1.50666 0.574725 -5.76316e-20)
(0.938006 -0.0146141 1.46334e-20)
(1.06886 -0.0131222 -4.75716e-35)
(1.04223 0.0101685 -3.31985e-21)
(1.08321 0.0402916 -2.98219e-20)
(1.12477 0.0757055 -4.40178e-20)
(1.14034 0.134634 -4.37147e-20)
(1.225 0.128356 -7.12238e-34)
(1.24698 0.311251 -8.80378e-20)
(1.39315 0.234541 -1.54782e-19)
(1.55284 0.480815 9.91584e-20)
(0.936281 -0.0219506 0)
(1.07762 -0.0235955 8.50464e-35)
(1.0541 -0.00135975 0)
(1.09823 0.0285767 0)
(1.13329 0.063875 0)
(1.1668 0.115446 0)
(1.22939 0.108461 -4.60948e-34)
(1.28312 0.275814 0)
(1.41981 0.184707 -2.14214e-20)
(1.57577 0.388817 5.90248e-20)
(0.934234 -0.0305423 4.19944e-21)
(1.08868 -0.0361136 8.46762e-21)
(1.06832 -0.0117699 -4.34812e-21)
(1.11437 0.0192259 0)
(1.14192 0.051787 0)
(1.19093 0.0957515 6.8861e-21)
(1.23023 0.089775 3.85932e-20)
(1.31705 0.23081 -1.51532e-20)
(1.44014 0.143342 -3.17196e-20)
(1.58341 0.304275 2.23504e-19)
(0.932943 -0.0447439 -7.56048e-20)
(1.10279 -0.0548248 -2.3438e-21)
(1.08319 -0.0279326 -4.8827e-21)
(1.12696 0.00667303 -1.71366e-20)
(1.14734 0.0375881 -2.17565e-20)
(1.20701 0.0742975 -1.15128e-20)
(1.23102 0.0718996 -3.13148e-20)
(1.34008 0.179506 -3.25567e-20)
(1.454 0.108513 -5.95742e-20)
(1.58705 0.226683 8.20478e-20)
(0.936056 -0.0511457 -8.00095e-21)
(1.11122 -0.0640121 -1.80098e-20)
(1.07762 -0.0325868 -5.41353e-21)
(1.11627 0.00294477 -5.20103e-21)
(1.13016 0.0269087 2.13702e-36)
(1.1987 0.0530475 7.3965e-21)
(1.21177 0.0546602 -9.37541e-34)
(1.34541 0.124876 -1.49994e-20)
(1.44201 0.0761768 2.01929e-20)
(1.58786 0.1539 2.75587e-20)
(0.941908 -0.0899592 1.92996e-19)
(1.06015 -0.0924632 -3.55922e-21)
(0.967165 -0.0514023 -5.70042e-21)
(0.98763 -0.00836959 1.2687e-20)
(0.995329 0.0112425 1.03165e-20)
(1.07272 0.0302 1.62316e-20)
(1.07915 0.0350159 1.33701e-20)
(1.25122 0.0698285 -9.15936e-21)
(1.30703 0.0459864 -2.16496e-20)
(1.50096 0.0855963 1.43245e-19)
(0.825055 -0.0451897 9.93747e-21)
(0.735989 -0.0350576 -9.33459e-35)
(0.538614 -0.0130793 -6.85523e-21)
(0.524535 -0.00186479 0)
(0.519788 0.00192894 0)
(0.569428 0.00717386 7.5513e-21)
(0.592113 0.00598495 -6.94528e-36)
(0.718557 0.0141335 -1.473e-20)
(0.765204 0.0071215 -2.99126e-20)
(0.916904 0.0156769 5.97877e-20)
(1.6348 0.79591 -2.00363e-19)
(1.73811 0.773898 -2.99778e-19)
(1.85536 0.741486 0)
(1.96501 0.693811 1.46703e-19)
(2.06701 0.636077 6.47091e-19)
(2.15491 0.565446 -1.34626e-19)
(2.23665 0.488213 1.75641e-18)
(2.30314 0.402763 -8.43562e-20)
(2.36396 0.313687 -4.06591e-19)
(2.40693 0.22055 3.6892e-19)
(1.66452 0.646295 9.88096e-20)
(1.74614 0.62555 1.20861e-19)
(1.84062 0.595435 -1.13757e-20)
(1.93038 0.550571 2.15559e-19)
(2.01567 0.502167 -1.81797e-19)
(2.08608 0.441718 -4.34054e-19)
(2.15506 0.383388 -1.27362e-19)
(2.20734 0.313462 6.01416e-19)
(2.264 0.249626 -2.38107e-20)
(2.29715 0.17414 -5.25607e-19)
(1.70455 0.529083 1.06092e-19)
(1.77397 0.505553 1.95854e-19)