/*--------------------------------*- C++ -*----------------------------------*\
  =========                 |
  \\      /  F ield         | OpenFOAM: The Open Source CFD Toolbox
   \\    /   O peration     | Website:  https://openfoam.org
    \\  /    A nd           | Version:  13
     \\/     M anipulation  |
\*---------------------------------------------------------------------------*/
FoamFile
{
    format      ascii;
    class       surfaceScalarField;
    location    "4.365";
    object      phi;
}
// * * * * * * * * * * * * * * * * * * * * * * * * * * * * * * * * * * * * * //

dimensions      [0 3 -1 0 0 0 0];

internalField   nonuniform List<scalar> 
823
(
-0.00572999
0.0140989
-0.00836888
0.00917329
0.00830786
-0.0232111
0.0689093
-0.0273337
-0.0324024
0.169935
-0.0924805
-0.008545
-0.0975728
-0.0444167
0.311924
0.00219328
0.0119056
0.0446872
-0.0341861
0.136659
-0.119305
0.242046
-0.197868
-0.263811
0.408284
0.0231408
-0.0112352
0.111187
-0.122232
0.227634
-0.235753
0.342389
-0.312623
-0.362858
0.441437
0.0457168
-0.0569521
0.145129
-0.221644
0.231964
-0.322588
0.287031
-0.36769
-0.381093
0.305266
0.0586703
-0.115622
0.129022
-0.291996
0.168731
-0.362297
0.182669
-0.381628
0.191734
-0.390158
-0.0284991
0.0244162
0.00408295
-0.0733749
0.0494878
-0.004612
-0.117364
0.0566708
-0.0126816
-0.157201
0.0611282
-0.0212916
0.0673765
-0.193447
-0.0311302
-0.0148842
0.0393003
-0.0464543
0.081058
-0.0823854
0.0926018
-0.11439
0.0931323
0.0922918
-0.139305
0.010378
0.0289223
0.0166959
0.0747401
0.0119814
0.0973163
0.00122027
0.103893
0.102696
-0.00918364
0.0182089
0.0107134
0.0508964
0.0420526
0.081383
0.0668297
0.108705
0.0765712
0.0881581
0.123243
0.00234453
0.021186
0.0556133
0.12364
0.167381
-0.16802
0.686276
-0.711702
0.0853025
0.0976319
-0.350955
0.244348
-0.667917
0.508871
0.340211
-0.757962
0.6621
-0.445164
0.411045
-0.0349338
0.581905
0.252218
-0.18952
0.388112
-0.803811
0.441888
-0.811738
-0.448708
0.118447
0.454274
0.356455
-0.427527
0.470608
-0.917964
0.518137
-0.859267
-0.444891
0.274699
0.302818
0.465285
-0.618113
0.534555
-0.987234
0.553029
-0.87774
-0.445004
0.361317
0.108882
0.550859
-0.807655
0.602089
-1.03846
0.58223
-0.857881
-0.433331
1.23192
-0.0151082
-1.10793
1.34948
-0.92522
1.24733
-0.936315
1.01771
-0.628258
-0.297181
1.50939
-0.101573
-1.42292
1.41322
-0.82905
1.19864
-0.721735
0.925736
-0.355359
-0.154355
1.45573
-0.149736
-1.40757
1.25195
-0.625267
1.06395
-0.533736
0.891252
-0.182661
-0.0473326
1.33844
-0.141271
-1.3469
1.06916
-0.355989
0.777517
-0.242094
0.62195
-0.0270936
0.0167461
0.779171
-0.920442
0.423182
0.181089
0.153995
1.09694
0.157346
-1.06255
1.18223
0.219975
1.28842
0.335251
1.26925
0.427446
0.473253
1.02624
0.0943619
-0.963257
1.09954
0.146679
1.20498
0.229808
1.31353
0.318895
0.363863
0.992234
0.0439301
-0.941802
1.04846
0.0904527
1.14253
0.135743
1.26687
0.194547
0.223168
0.94354
0.0109338
-0.910544
1.00122
0.0327737
1.08604
0.0509242
1.20838
0.0722055
0.0846456
0.679894
-0.66896
0.712667
0.763591
0.835797
0.128563
0.294097
-0.242078
-0.180582
0.0857324
0.297509
-0.254679
0.0478286
0.306754
-0.26885
0.0163791
0.295437
-0.263987
0.186419
-0.17004
0.0889801
0.32838
-0.123264
0.0564835
0.330006
0.0283821
0.334855
0.00623564
0.317583
0.192655
0.0686825
0.363353
-0.103656
0.0363788
0.362309
0.00950345
0.361731
-0.00473086
0.331818
0.187924
-0.00905349
0.378461
-0.00605403
-0.0253489
0.378605
-0.0329537
0.369336
-0.0255289
0.324393
0.162395
-0.0831849
0.0714875
-0.0862077
-0.0791692
-0.0467727
0.201169
0.108542
-0.25481
-0.0549
0.146967
0.112243
-0.058042
0.0914159
0.116477
-0.0609256
0.0370838
0.115905
-0.0615726
0.0809541
-0.0438703
0.189389
0.151936
-0.232783
0.143267
0.158365
0.0922318
0.167512
0.0390005
0.169136
0.119955
0.130586
0.197027
-0.175677
0.0898207
0.199131
0.0520951
0.205238
0.0180025
0.203229
0.137957
0.147948
0.226824
-0.177745
0.110274
0.236805
0.0673605
0.248151
0.0260692
0.24452
0.164026
0.0640544
-0.0793079
0.0461804
0.0254813
0.00601386
0.408315
0.0384058
-0.0507412
0.424284
0.029986
-0.045955
0.414482
0.180799
-0.170998
0.403996
0.190689
-0.180202
0.510795
-0.36161
0.407135
0.0272505
0.417906
0.0192152
0.403517
0.195188
0.393039
0.201166
0.671051
0.40061
0.0226199
0.412369
0.00745641
0.382118
0.225439
0.385729
0.197555
0.881103
0.396476
0.0221236
0.395741
0.00819101
0.375481
0.2457
0.357529
0.215506
1.06089
0.387332
0.0307707
0.383183
0.0123409
0.341847
0.287035
0.316949
0.240405
1.29853
0.618282
0.0165089
0.638345
-0.00772223
0.692638
0.232742
0.793974
0.139069
1.11853
0.973978
0.629023
-0.00849345
0.636676
-0.0153754
0.729497
0.139922
0.733685
0.13488
0.880444
0.971766
0.633246
-0.0377187
0.646754
-0.0288841
0.725649
0.0610272
0.726584
0.133945
0.600808
1.00622
0.624006
-0.0577038
0.638861
-0.0437399
0.690811
0.00907727
0.757288
0.0674689
0.281535
1.07656
0.546317
0.502577
0.511654
0.579123
0.860658
1.01114
-0.21774
1.0024
-0.114525
1.01438
-0.11564
1.01289
-0.00456172
0.021825
0.938119
-0.184093
0.932445
-0.108852
0.922611
-0.105806
0.941232
-0.0231833
-0.000199449
0.954333
-0.132207
0.944636
-0.0991544
0.921888
-0.0830578
0.935236
-0.0365311
-0.00676551
1.0048
-0.0604425
0.958095
-0.0524524
0.919024
-0.0439865
0.907923
-0.0254305
-0.00938611
0.800215
0.747763
0.703776
0.678346
0.0499676
0.154285
-0.204253
0.0759466
0.332045
-0.358024
0.0779655
0.386321
-0.38834
0.0693044
0.388788
-0.380127
0.357875
0.0555662
-0.344137
0.0720623
0.0822231
0.142913
0.261194
0.178283
0.350951
0.184413
0.382658
0.376428
0.16586
0.0609821
0.0212411
0.17356
0.148616
0.264773
0.259738
0.327498
0.319933
0.36807
0.335856
0.0305335
-0.00929245
0.133932
0.0452183
0.258418
0.135252
0.377529
0.200821
0.271492
0.474107
0.00876614
-0.0180586
0.0654021
-0.0114176
0.168618
0.0320354
0.286371
0.0830679
0.138722
0.419142
0.00120065
-0.0192593
0.0197433
-0.0299603
0.0697848
-0.0180061
0.142252
0.0106011
0.0499608
0.231013
0.00292371
-0.022183
0.0115254
-0.038562
0.0300623
-0.0365429
0.0630812
-0.0224179
-0.00180885
0.114851
0.00967222
-0.0318552
0.0196648
-0.0485545
0.0293378
-0.046216
0.0425308
-0.0356108
-0.0213614
0.0620833
-0.00513963
-0.0267155
-0.0197242
-0.03397
-0.0371638
-0.0287764
-0.0535598
-0.0192148
-0.00690759
-0.0680136
-0.0226326
-0.0612146
-0.102673
-0.143179
-0.181217
0.318283
0.674235
-0.761505
0.301826
0.377681
-0.361225
0.288807
-0.01039
0.0234093
0.327454
-0.15456
0.115914
-0.0891785
0.0466909
0.269672
0.519413
0.160334
0.487019
0.143396
0.00654764
0.23659
-0.247754
-0.165177
0.0565314
0.524965
-0.0361232
0.579674
0.0694674
-0.0990429
0.207768
-0.386054
-0.254959
-0.182275
0.639227
-0.127473
0.524872
0.0764295
-0.302946
0.219422
-0.529047
-0.341594
-0.253692
-0.0797751
0.12615
0.259203
0.129694
0.480852
-0.610546
-0.00137193
0.131066
0.074828
-0.0761999
0.167309
-0.0924813
-0.0418536
0.795636
-1.07629
0.565477
0.512687
0.536119
0.0901665
-0.0154752
-0.0746912
0.143202
-0.0530352
0.250178
-0.106977
0.419655
-0.169477
-0.190891
0.201703
-0.161612
0.314528
0.543407
0.848038
0.140829
-0.136917
0.167414
-0.171326
0.107392
-0.142696
0.176134
0.0692337
-0.150337
0.188495
0.0281835
-0.150657
0.191707
-0.10651
0.134694
0.183224
-0.0975472
-0.222593
0.139055
-0.0985269
0.0890427
-0.100325
0.0371749
-0.0987887
-0.0693352
0.187431
-0.0483188
-0.236659
0.136975
-0.048071
0.085347
-0.0486973
0.0348476
-0.0482893
-0.0344876
0.203104
0.00322812
-0.254651
0.150684
0.00434865
0.0962283
0.00575884
0.0405387
0.00740028
0.00605114
0.200852
-0.252523
0.147158
0.0919914
0.0378191
0.0432496
-0.324238
-0.0631483
0.0180519
-0.354929
-0.00552403
-0.364764
-0.0156873
-0.347861
-0.21994
0.127378
-0.293058
-0.158558
0.0831697
-0.31072
0.040266
-0.32186
0.00829602
-0.315891
-0.211644
0.145187
-0.252177
-0.186068
0.102093
-0.267626
0.0597041
-0.279471
0.0212474
-0.277434
-0.190397
0.163822
-0.215249
-0.20075
0.11968
-0.223484
0.0727737
-0.232565
0.0285747
-0.233235
-0.161822
0.160077
-0.207912
0.112727
0.068657
0.0271286
0.393087
0.0767549
-0.0738627
0.396146
0.109264
-0.112322
0.355721
0.165785
-0.12536
0.300676
0.0334932
0.0215516
-0.193282
0.322632
0.396847
0.0758878
0.410867
0.095243
0.399351
0.1773
0.34733
0.0855141
-0.0685447
0.40014
0.0717276
0.417524
0.0778592
0.417717
0.177107
0.374019
0.129212
0.0688154
0.40467
0.0630373
0.421398
0.0611311
0.426612
0.171893
0.395767
0.160057
0.209931
0.408276
0.423452
0.424347
0.404202
0.426659
0.083392
0.330925
0.0957337
0.250058
0.0808678
0.271241
-0.0211836
-0.172566
0.443807
0.51958
0.502992
0.4585
0.458868
0.608934
0.355082
0.088725
0.275147
0.079935
0.182983
0.0921639
0.105837
0.0771455
0.0311463
0.489747
0.368932
0.275027
0.193614
)
;

boundaryField
{
    left
    {
        type            calculated;
        value           nonuniform List<scalar> 
17
(
-0.60402
-0.60402
-0.60402
-0.60402
-0.60402
-0.39598
-0.39598
-0.39598
-0.39598
-0.39598
-0.39598
-0.39598
-0.39598
-0.39598
-0.39598
-0.510051
-0.510051
)
;
    }
    right
    {
        type            calculated;
        value           nonuniform List<scalar> 
17
(
0.209163
0.540956
0.369941
0.312589
0.297549
0.306058
0.328653
0.374329
0.445433
0.51432
0.553142
0.570557
0.881559
0.78291
0.78423
0.557871
0.170741
)
;
    }
    down
    {
        type            calculated;
        value           uniform 0;
    }
    up
    {
        type            calculated;
        value           uniform 0;
    }
    cylinder
    {
        type            calculated;
        value           uniform 0;
    }
    defaultFaces
    {
        type            empty;
    }
}


// ************************************************************************* //
