/*--------------------------------*- C++ -*----------------------------------*\
  =========                 |
  \\      /  F ield         | OpenFOAM: The Open Source CFD Toolbox
   \\    /   O peration     | Website:  https://openfoam.org
    \\  /    A nd           | Version:  13
     \\/     M anipulation  |
\*---------------------------------------------------------------------------*/
FoamFile
{
    format      ascii;
    class       volVectorField;
    location    "18.4";
    object      U;
}
// * * * * * * * * * * * * * * * * * * * * * * * * * * * * * * * * * * * * * //

dimensions      [0 1 -1 0 0 0 0];

internalField   nonuniform List<vector> 
440
(
(-0.116902 0.127649 3.6151e-20)
(-0.118339 0.216684 -8.97581e-20)
(0.0572678 0.158844 -1.14581e-19)
(0.473374 0.109926 2.47254e-19)
(0.621037 0.0811493 -6.63069e-20)
(-0.0209705 0.0168049 -1.72056e-20)
(0.141533 0.011834 -8.17096e-20)
(0.594181 -0.0279759 2.03063e-21)
(1.13446 -0.0630551 -1.03767e-19)
(1.62132 -0.0958956 -8.77671e-20)
(0.022925 -0.0137524 1.84095e-20)
(0.528921 -0.0717038 8.50278e-19)
(1.2764 -0.0639418 -5.65763e-19)
(1.8502 -0.0415876 -1.6522e-18)
(2.37703 -0.0238786 8.42426e-19)
(0.226733 -0.0533838 -1.60034e-19)
(1.19565 -0.0124448 -6.266e-19)
(1.9612 0.0574629 1.90517e-18)
(2.39805 0.102317 2.25342e-18)
(2.46852 0.120685 -5.93202e-19)
(0.570972 -0.0095081 -3.00698e-19)
(1.74325 0.175172 -6.71138e-19)
(2.29384 0.255388 2.10004e-18)
(2.41948 0.269296 2.19627e-18)
(2.48531 0.243321 7.44216e-19)
(0.028354 -0.233573 9.62364e-22)
(0.103521 -0.567296 -2.22808e-19)
(0.105122 -0.650194 3.70978e-19)
(0.053793 -0.584271 -7.5014e-20)
(-0.0113075 -0.495737 -7.02867e-19)
(0.0808167 -0.281788 6.341e-20)
(0.148166 -0.55965 1.86758e-19)
(0.0810801 -0.53857 5.50457e-20)
(-0.0146938 -0.409063 4.36379e-20)
(-0.0806581 -0.324324 -6.59337e-20)
(0.123283 -0.280317 -1.19549e-19)
(0.117262 -0.472658 1.63042e-19)
(-0.00961317 -0.433738 -1.49816e-19)
(-0.111873 -0.367194 -1.19069e-20)
(-0.144747 -0.35762 -7.31588e-21)
(0.00815908 -0.10455 1.02598e-19)
(-0.160439 -0.200101 -2.70143e-19)
(-0.318069 -0.202333 3.78326e-20)
(-0.364146 -0.239185 1.08248e-18)
(-0.324799 -0.292665 -2.50508e-19)
(-0.143867 0.137093 2.12125e-19)
(-0.22465 0.0858791 2.77363e-19)
(-0.185448 -0.0188615 5.51025e-19)
(-0.0576964 -0.092129 -5.28098e-19)
(0.0896929 -0.149405 -8.41123e-19)
(-0.38953 -0.304689 -3.38327e-19)
(1.22549 0.944674 -1.33485e-18)
(0.192028 0.886249 -4.53714e-20)
(1.24025 -0.73329 -3.82444e-19)
(1.23098 -0.701492 -1.11324e-20)
(-0.327309 -0.496897 1.15388e-18)
(1.60135 0.819315 3.37776e-19)
(0.412516 0.916266 -1.36385e-19)
(1.48971 -0.839708 -9.45797e-21)
(1.38579 -0.721567 2.69159e-20)
(-0.0480223 -0.747743 4.90963e-19)
(1.063 0.61555 -2.99745e-18)
(0.426335 0.914836 1.31249e-19)
(1.78642 -0.915653 -5.42257e-19)
(1.52711 -0.724642 5.20084e-20)
(0.237013 -0.836723 -1.65792e-19)
(-0.0683864 0.491646 9.222e-20)
(0.650457 0.799678 4.25862e-19)
(2.05782 -0.960113 7.93289e-19)
(1.66328 -0.705332 1.50478e-19)
(1.31489 -0.966463 -5.58344e-19)
(-1.18285 0.346714 1.03772e-18)
(1.28895 0.456865 0)
(2.24534 -0.990877 -8.96321e-19)
(1.72695 -0.67469 1.87734e-20)
(2.39836 -0.506669 -7.38821e-19)
(0.0389272 0.184552 -1.32955e-22)
(1.85687 -0.0772106 3.32419e-20)
(2.36862 -0.988097 -4.79761e-19)
(1.71373 -0.626573 -3.6173e-20)
(2.15539 -0.537029 7.77188e-20)
(1.17917 0.417785 -2.07809e-19)
(2.44042 -0.229065 1.74948e-20)
(2.4812 -0.826407 9.85032e-19)
(1.57906 -0.480646 0)
(1.97348 -0.173266 -6.60451e-20)
(1.73075 0.132559 5.21512e-21)
(2.57352 -0.466706 5.01252e-19)
(2.13086 -0.655277 -3.04183e-19)
(1.223 -0.318966 -1.59942e-20)
(1.85309 -0.149318 -7.80766e-20)
(2.02107 0.035574 1.45938e-19)
(2.1826 -0.359776 4.62527e-20)
(1.43866 -0.402279 5.36512e-34)
(0.598734 -0.139491 4.53898e-20)
(1.2009 -0.00564092 3.84947e-20)
(1.38819 -0.0962138 5.87077e-21)
(0.865893 -0.130704 -1.14114e-19)
(0.0585573 -0.0126068 7.47406e-20)
(-0.29621 2.74174e-06 -1.31549e-21)
(2.35146 0.241649 -9.34408e-19)
(2.57873 0.0602919 -1.28129e-18)
(2.36585 0.0421012 1.0973e-18)
(2.69795 -0.121187 -1.05021e-20)
(1.91073 -0.0645027 -1.30638e-19)
(2.10543 0.134927 5.02598e-20)
(2.42414 0.0662318 -4.34014e-20)
(2.19337 -0.0204977 -1.38744e-19)
(2.46035 -0.124899 -2.83145e-19)
(2.23991 -0.224898 -1.02269e-21)
(2.09376 0.0575251 6.99363e-20)
(2.14839 0.0633088 1.12522e-19)
(2.19785 -0.0455803 -1.54943e-19)
(2.1761 -0.0529411 4.61338e-20)
(2.26853 -0.152103 5.99403e-20)
(2.01165 0.0152861 1.14696e-19)
(1.95125 0.0247319 1.23804e-19)
(2.12186 -0.0343433 -1.65571e-20)
(2.01503 -0.0402024 2.70947e-21)
(2.1887 -0.0814769 1.10738e-20)
(1.44343 -0.0150735 1.67772e-19)
(1.41511 -0.00525974 -1.18207e-20)
(1.48637 -0.0253894 2.1977e-20)
(1.40615 -0.0124792 -1.31717e-20)
(1.51252 -0.0385618 3.0751e-20)
(1.5702 0.848448 1.0701e-18)
(1.5272 0.945511 -3.1354e-19)
(1.52289 1.07222 -1.28624e-18)
(1.45694 1.11873 7.2106e-19)
(0.902451 0.812511 -1.82444e-19)
(1.84674 0.791986 -5.62593e-19)
(1.82341 0.876656 -2.92116e-18)
(1.83158 0.98738 -1.13528e-18)
(1.74599 1.00186 -4.18375e-19)
(1.07155 0.705422 -6.66505e-19)
(2.13359 0.691967 7.49937e-19)
(2.11945 0.759184 2.0004e-19)
(2.10185 0.844394 -2.25982e-18)
(1.97228 0.831038 -6.29622e-19)
(1.16541 0.548529 4.79746e-19)
(2.29507 0.564074 2.32786e-18)
(2.29817 0.616825 1.7049e-18)
(2.29783 0.668401 -1.97139e-18)
(2.07861 0.625395 -1.47011e-18)
(1.13244 0.357234 -2.76568e-19)
(2.4438 0.415135 1.14342e-18)
(2.45397 0.437215 -8.38414e-19)
(2.35911 0.457621 5.81158e-19)
(2.02037 0.398766 4.79368e-19)
(0.934762 0.151424 -4.04588e-19)
(0.572954 0.413057 -6.9217e-19)
(0.484708 0.445656 -5.55889e-19)
(0.366372 0.478212 7.1726e-20)
(0.227512 0.486094 -2.18836e-20)
(0.0560974 0.354677 7.71834e-20)
(0.672341 0.589428 9.50208e-20)
(0.608661 0.647941 -3.15484e-19)
(0.520557 0.715828 1.82716e-19)
(0.393625 0.769897 -8.40312e-20)
(0.169155 0.589094 1.19465e-19)
(0.78086 0.777886 2.09143e-19)
(0.707426 0.855489 4.32145e-19)
(0.647589 0.953106 5.72902e-20)
(0.561362 1.00779 -2.85164e-19)
(0.307355 0.757315 2.31304e-19)
(1.03667 0.872332 2.26026e-19)
(0.991815 0.960423 -6.40844e-19)
(0.94214 1.06075 -1.8419e-18)
(0.859372 1.12845 7.54106e-19)
(0.509031 0.847131 -1.84705e-19)
(1.15699 0.900575 -1.36479e-19)
(1.17094 1.02292 -2.139e-19)
(1.18907 1.14487 -3.34159e-19)
(1.13618 1.18697 -3.89437e-19)
(0.701407 0.866367 -6.42763e-21)
(1.0191 0.0542635 -9.73135e-20)
(0.979623 0.0270884 -3.80348e-20)
(1.04282 0.105877 -1.41637e-21)
(0.945641 0.134984 -3.21003e-19)
(0.882652 0.24871 3.17876e-19)
(1.00881 0.0529115 6.1353e-20)
(0.989302 0.0246858 1.32534e-19)
(1.03546 0.110759 1.20661e-19)
(0.976047 0.168045 3.995e-20)
(0.923748 0.324682 5.67317e-21)
(1.01356 0.0524461 8.32958e-20)
(0.972277 0.0191533 -5.0317e-21)
(1.0866 0.125456 -6.68184e-21)
(0.9256 0.173968 1.69295e-19)
(1.12072 0.45816 -4.61761e-19)
(1.00555 0.0534982 -4.68161e-22)
(0.99057 0.00779615 -1.73328e-19)
(1.09395 0.139676 -6.56654e-20)
(0.991691 0.191295 -4.11539e-19)
(1.15856 0.499279 9.79984e-20)
(0.998393 0.0472158 -1.48862e-20)
(0.9996 0.00726149 5.39136e-20)
(1.14228 0.146901 3.2491e-20)
(0.960671 0.215857 4.82614e-19)
(1.41959 0.622781 -4.4341e-19)
(0.953428 0.0503767 -9.78402e-21)
(1.07516 -0.0197077 1.19558e-19)
(1.145 0.173665 -9.06986e-20)
(1.16592 0.162091 8.50483e-19)
(1.33162 0.638943 -4.071e-19)
(0.88748 0.0229866 -1.68608e-21)
(1.18359 -0.0399614 -1.07171e-19)
(1.10158 0.118747 4.72108e-21)
(1.21094 0.172025 -2.66181e-19)
(1.38652 0.393792 2.22386e-20)
(0.951851 0.0148666 -5.86109e-21)
(1.16443 -0.066277 1.41006e-35)
(1.07312 0.13041 -5.47121e-20)
(1.19869 0.104835 8.18895e-20)
(1.49774 0.230861 1.62685e-19)
(1.09868 -0.0424318 4.34539e-21)
(0.996912 -0.0618651 -2.51659e-20)
(1.07226 0.0849188 1.73369e-20)
(1.23552 0.0420229 3.4829e-20)
(1.46265 0.125458 -2.32813e-19)
(1.00933 -0.0257659 -4.28726e-20)
(0.742777 -0.0187125 -4.1042e-21)
(0.879466 0.0128587 2.19701e-20)
(0.923158 -0.0111549 -1.07663e-20)
(1.0312 0.0415814 -5.17809e-20)
(1.77734 0.656071 3.31451e-19)
(1.88595 0.640161 7.63905e-19)
(2.12945 0.540094 -1.07779e-18)
(2.19134 0.482821 1.90192e-20)
(2.40069 0.309462 4.79627e-19)
(1.75852 0.488874 5.42806e-20)
(1.79987 0.41623 1.01202e-18)
(2.01868 0.410772 9.85313e-20)
(1.98453 0.290188 -9.20327e-19)
(2.25598 0.242457 -3.02713e-19)
(1.69441 0.369652 -2.12852e-19)
(1.78756 0.266978 -1.47272e-19)
(1.87687 0.304096 2.56881e-19)
(1.95597 0.163937 -2.99565e-19)
(2.04259 0.186912 2.69214e-19)
(1.60663 0.218907 3.04105e-19)
(1.69358 0.142473 -1.39495e-21)
(1.73264 0.168634 2.20769e-19)
(1.8608 0.0742068 1.91851e-19)
(1.8571 0.0974362 -1.85292e-19)
(1.23445 0.0529677 -3.42119e-20)
(1.26163 0.0298219 2.08073e-19)
(1.32747 0.0292043 1.03737e-19)
(1.37036 0.00190413 -2.27629e-19)
(1.39626 0.00800672 2.96548e-22)
(1.28414 -0.0363399 5.44485e-20)
(2.37643 -0.0428223 -4.89927e-19)
(2.60665 -0.0329381 1.35893e-18)
(2.60277 0.014765 6.21519e-19)
(2.41246 0.0386453 -4.08437e-19)
(0.794991 0.0920501 9.57106e-20)
(2.14972 0.0910286 -5.02653e-19)
(2.62418 0.0947888 -6.85321e-19)
(2.64769 0.110839 8.7632e-19)
(2.42402 0.102773 -5.81026e-19)
(0.208519 0.0755905 -4.31529e-20)
(1.47983 0.157716 5.30436e-19)
(2.29478 0.193854 8.87076e-20)
(2.6995 0.193804 6.77604e-19)
(2.79325 0.191303 3.86096e-19)
(-0.0784303 -0.0428358 2.35056e-19)
(0.535865 0.0823516 2.36679e-19)
(1.45919 0.176614 -5.52495e-19)
(2.02037 0.232479 3.82919e-20)
(2.66929 0.270333 2.0405e-19)
(-0.139212 -0.114685 1.77075e-19)
(-0.0258965 -0.065396 -1.91043e-19)
(0.548073 0.0526709 -2.29581e-20)
(1.05737 0.104622 5.60142e-20)
(1.66179 0.231763 -1.56046e-20)
(-0.10479 -0.111207 3.69334e-20)
(-0.176693 -0.14596 1.27554e-19)
(-0.0117306 -0.142287 8.9353e-20)
(0.179122 -0.117792 -7.31866e-20)
(0.768867 0.0160473 1.52671e-20)
(-0.0585959 -0.077911 -1.35451e-20)
(-0.15095 -0.176387 -9.19709e-20)
(-0.158273 -0.244526 -5.29661e-20)
(-0.112467 -0.26632 -2.29567e-20)
(0.101136 -0.144566 -8.02323e-22)
(-0.0274967 -0.054504 7.92119e-21)
(-0.0820704 -0.199649 2.92326e-19)
(-0.0977018 -0.325333 -2.5591e-19)
(-0.0761326 -0.396687 -6.45502e-19)
(-0.0396708 -0.37741 1.38253e-19)
(-0.0176904 -0.0873003 -2.27803e-20)
(-0.0236771 -0.321831 -1.42645e-19)
(0.00185449 -0.505905 3.69461e-19)
(0.0429436 -0.594605 2.1681e-19)
(0.0563004 -0.622689 -4.98068e-20)
(-0.00682427 -0.160807 1.52874e-20)
(0.0303814 -0.4773 -4.73815e-20)
(0.0640613 -0.646499 1.45966e-20)
(0.0694859 -0.672829 1.74786e-21)
(0.0533712 -0.626883 -1.481e-19)
(1.49658 0.702682 -3.04652e-20)
(1.70641 0.395998 4.62655e-19)
(0.523924 0.326685 1.07283e-19)
(-0.317281 -0.148455 2.56552e-20)
(0.673813 -0.330679 -2.20831e-20)
(1.24413 0.53493 1.9304e-20)
(1.75183 0.469052 8.71466e-20)
(0.304514 0.537689 8.55501e-19)
(-0.0650932 -0.207208 -5.02984e-21)
(0.6886 -0.463301 1.00259e-19)
(1.0917 0.294155 2.75163e-19)
(1.51856 0.646712 8.22785e-19)
(-0.11064 0.720752 -1.97786e-20)
(0.274307 -0.300369 -1.49526e-18)
(0.766199 -0.545263 -2.67322e-20)
(0.804643 -0.0564967 6.12581e-20)
(1.28981 0.755033 -1.66394e-18)
(-0.313684 0.830201 -5.09991e-19)
(0.512028 -0.485191 3.43585e-21)
(0.866223 -0.626262 -5.61895e-20)
(0.112389 -0.12077 -2.86149e-20)
(0.986503 0.996187 -1.03731e-19)
(-0.181233 0.889765 3.00771e-19)
(0.889292 -0.62336 -7.34934e-20)
(1.0217 -0.673885 -1.26967e-19)
(0.00806623 0.175357 -5.47524e-20)
(-0.323646 -0.172566 0)
(-0.471825 -0.092799 -5.15634e-21)
(-0.333433 -0.0805316 -5.03375e-21)
(0.344102 -0.0411045 9.78321e-21)
(1.90243 0.624359 0)
(1.30538 0.351876 0)
(0.354332 0.0705262 -5.95101e-20)
(-0.278391 -0.152468 -5.79763e-20)
(0.644013 -0.180841 5.64296e-20)
(0.775594 0.00377745 -1.25616e-19)
(0.809354 -0.00799576 1.08737e-19)
(1.08688 0.0194158 -4.41056e-20)
(0.964892 -0.000427116 3.82833e-19)
(1.50139 0.132532 2.60949e-19)
(1.74612 0.0327898 1.18045e-19)
(1.93632 0.075556 2.34828e-19)
(2.09722 0.0753497 -4.84671e-19)
(2.64612 0.224133 6.72438e-20)
(2.47235 0.197453 2.40944e-19)
(0.947363 -0.51099 2.71773e-20)
(0.936696 -0.605993 -1.8399e-19)
(0.934086 -0.709138 -1.74521e-19)
(0.866093 -0.781352 1.04118e-19)
(0.527096 -0.613361 1.30295e-19)
(0.849398 -0.422963 1.17218e-19)
(0.793641 -0.490695 1.87599e-19)
(0.716858 -0.562983 -8.43707e-20)
(0.599395 -0.624685 1.3094e-19)
(0.327807 -0.493853 3.26091e-20)
(0.665278 -0.286562 -1.45817e-19)
(0.572478 -0.328438 -4.94832e-20)
(0.471734 -0.382552 4.55561e-20)
(0.358091 -0.430591 -3.74898e-20)
(0.164903 -0.338861 -1.17754e-19)
(0.562602 -0.0538655 -4.48472e-19)
(0.47915 -0.0729421 -3.67041e-19)
(0.372114 -0.1037 2.92909e-19)
(0.245311 -0.141634 1.7309e-19)
(0.0738536 -0.127403 1.40735e-20)
(0.531236 0.148708 -1.67916e-19)
(0.446196 0.149844 -1.74782e-19)
(0.330269 0.148954 -6.36209e-20)
(0.193318 0.151739 3.7569e-20)
(0.0321681 0.115503 1.41394e-20)
(2.16458 -0.036556 8.7706e-19)
(2.41081 -0.108122 3.25221e-19)
(2.50147 -0.200056 -8.29311e-19)
(2.3622 -0.225278 -1.73446e-18)
(1.43737 -0.211862 1.21517e-19)
(2.12277 -0.128794 1.48116e-18)
(2.22696 -0.243464 1.92469e-18)
(2.23998 -0.370156 1.5665e-19)
(2.16689 -0.433156 2.66419e-19)
(1.40272 -0.395808 -1.76858e-19)
(1.83203 -0.300052 -3.84022e-18)
(1.88101 -0.420239 4.63779e-19)
(1.92565 -0.550101 1.19578e-18)
(1.87362 -0.630297 -4.85305e-19)
(1.22546 -0.547507 7.58149e-19)
(1.59141 -0.425823 9.27669e-19)
(1.60874 -0.526805 -2.41158e-18)
(1.59702 -0.649014 -2.83053e-18)
(1.53153 -0.744046 8.89523e-19)
(0.99175 -0.623715 5.63692e-19)
(1.2925 -0.491843 2.10885e-19)
(1.23649 -0.587833 2.50651e-19)
(1.22238 -0.714212 -4.28762e-19)
(1.16778 -0.805773 -5.1964e-19)
(0.740729 -0.645741 -5.02008e-21)
(1.06511 0.056791 7.59925e-21)
(0.921119 0.0487961 -3.98154e-21)
(1.13422 0.0697748 -4.88703e-21)
(0.806675 -0.0032379 -2.07069e-19)
(1.17247 -0.23687 -1.02273e-20)
(1.07478 0.0607386 -2.54744e-21)
(0.918424 0.0450287 4.89527e-20)
(1.12723 0.0872489 -3.93984e-20)
(0.89015 0.0395648 1.16488e-19)
(1.02699 -0.120588 -1.88115e-20)
(1.07298 0.0586508 -6.22438e-20)
(0.92201 0.0393437 5.30445e-22)
(1.11279 0.0877798 -1.61617e-20)
(0.883012 0.0611642 1.93921e-20)
(0.992218 -0.0621814 -1.9324e-19)
(1.0545 0.0577063 7.56176e-20)
(0.949683 0.0341994 3.31548e-21)
(1.07203 0.0927359 3.04748e-20)
(0.928369 0.0876615 3.28788e-20)
(0.87411 0.0516076 1.03426e-19)
(1.03105 0.0551189 1.89328e-20)
(0.975826 0.0320843 -3.07517e-20)
(1.04116 0.0962947 4.12744e-20)
(0.951269 0.117184 8.60335e-20)
(0.841812 0.142993 -8.36868e-20)
(0.888339 0.0336696 0)
(0.707953 0.0273486 9.46349e-21)
(0.624755 0.0221386 3.46375e-21)
(0.361956 -0.00884728 4.31708e-20)
(0.719566 -0.0604024 -1.2974e-19)
(1.03311 0.0753753 -6.46794e-20)
(0.932181 0.0667765 -1.36629e-20)
(1.04461 0.0721859 -3.81895e-20)
(0.822597 -0.00403866 -1.12279e-19)
(1.07859 -0.214373 -1.34092e-19)
(1.01051 -0.0657755 -3.03676e-20)
(1.09763 -0.0355783 5.1116e-19)
(1.20099 0.0377242 3.21956e-19)
(1.06786 0.0607617 2.20318e-20)
(0.82751 0.0326517 0)
(1.38031 -0.32734 3.08685e-19)
(1.50103 -0.288367 1.52816e-18)
(1.69133 -0.166873 -1.74356e-18)
(1.78991 -0.0218094 -5.52135e-19)
(1.71008 0.0330926 3.9735e-19)
)
;

boundaryField
{
    left
    {
        type            fixedValue;
        value           uniform (1 0 0);
    }
    right
    {
        type            zeroGradient;
    }
    down
    {
        type            noSlip;
    }
    up
    {
        type            noSlip;
    }
    cylinder
    {
        type            noSlip;
    }
    defaultFaces
    {
        type            empty;
    }
}


// ************************************************************************* //
