/*--------------------------------*- C++ -*----------------------------------*\
  =========                 |
  \\      /  F ield         | OpenFOAM: The Open Source CFD Toolbox
   \\    /   O peration     | Website:  https://openfoam.org
    \\  /    A nd           | Version:  13
     \\/     M anipulation  |
\*---------------------------------------------------------------------------*/
FoamFile
{
    format      ascii;
    class       surfaceScalarField;
    location    "0.1075";
    object      phi;
}
// * * * * * * * * * * * * * * * * * * * * * * * * * * * * * * * * * * * * * //

dimensions      [0 3 -1 0 0 0 0];

internalField   nonuniform List<scalar> 
3485
(
0.00462059
-0.0576259
0.0530053
0.0134988
-0.123758
0.11488
0.0233339
-0.143217
0.133382
0.0330851
-0.144686
0.134934
0.0425503
-0.14153
0.132064
0.0517125
-0.137644
0.128482
0.0605684
-0.133892
0.125036
0.0690887
-0.130399
0.121878
0.0771789
-0.12708
0.11899
-0.123597
0.115953
0.0848222
0.00450183
-0.0621277
0.0128746
-0.132131
0.0220281
-0.152371
0.0310672
-0.153725
0.0398505
-0.150313
0.048392
-0.146185
0.056722
-0.142222
0.0648737
-0.13855
0.0729149
-0.135121
-0.131814
0.0811325
0.00435983
-0.0664876
0.0121668
-0.139938
0.0205649
-0.160769
0.0288116
-0.161971
0.0368197
-0.158321
0.0446175
-0.153983
0.0522364
-0.149841
0.0597032
-0.146017
0.0670468
-0.142465
-0.139083
0.0743153
0.00418411
-0.0706717
0.011352
-0.147106
0.0189128
-0.168329
0.0262875
-0.169346
0.0334428
-0.165476
0.0404212
-0.160962
0.0472562
-0.156676
0.0539718
-0.152733
0.0605936
-0.149087
-0.145707
0.0672181
0.00396117
-0.0746328
0.0104043
-0.153549
0.0170367
-0.174962
0.0234514
-0.175761
0.0296643
-0.171689
0.0357293
-0.167027
0.0416795
-0.162626
0.0475367
-0.15859
0.0533275
-0.154877
-0.151493
0.0591133
0.00367928
-0.0783121
0.00930337
-0.159173
0.0149165
-0.180575
0.020287
-0.181131
0.0254732
-0.176875
0.0305395
-0.172093
0.0355179
-0.167605
0.040428
-0.1635
0.0452922
-0.159742
-0.156352
0.050151
0.00332981
-0.0816419
0.00803914
-0.163883
0.012553
-0.185089
0.0168048
-0.185383
0.0208894
-0.18096
0.0248815
-0.176085
0.0288112
-0.171534
0.0326952
-0.167384
0.0365519
-0.163598
-0.160202
0.0404017
0.0029066
-0.0845485
0.00661389
-0.16759
0.00996639
-0.188441
0.0130317
-0.188448
0.0159509
-0.183879
0.0188052
-0.17894
0.0216212
-0.17435
0.0244111
-0.170174
0.0271883
-0.166376
-0.162969
0.0299556
0.00241382
-0.0869623
0.00505348
-0.17023
0.0071826
-0.19057
0.00900978
-0.190275
0.0107182
-0.185588
0.0123867
-0.180608
0.0140379
-0.176002
0.0156805
-0.171817
0.017323
-0.168018
-0.164601
0.0189549
0.00186312
-0.0888255
0.00337527
-0.171742
0.00421641
-0.191412
0.00481454
-0.190874
0.00527183
-0.186045
0.00571917
-0.181055
0.00617097
-0.176453
0.00662706
-0.172273
0.00708785
-0.168479
0.00753993
-0.165053
0.00484387
-0.00935329
0.00450943
0.0160089
-0.0207383
0.00957329
0.0292262
-0.0243388
0.0111215
0.0426874
-0.0247426
0.0112814
0.0558749
-0.0242494
0.0110618
0.0686848
-0.0235831
0.0107732
0.0811172
-0.0229233
0.0104909
0.0931932
-0.0223048
0.0102287
0.104933
-0.0217265
0.00998624
-0.0213039
0.116469
0.00976814
0.00484627
-0.0141996
0.0159539
-0.0318459
0.0290798
-0.0374648
0.0424404
-0.0381031
0.05553
-0.037339
0.0682491
-0.0363021
0.0805995
-0.0352737
0.0926031
-0.0343084
0.104282
-0.0334058
-0.0327869
0.115765
0.00485414
-0.0190537
0.015886
-0.0428778
0.0288873
-0.050466
0.0421089
-0.0513247
0.0550619
-0.050292
0.0676529
-0.0488931
0.0798859
-0.0475067
0.0917838
-0.0462063
0.103372
-0.0449939
-0.0441879
0.114773
0.00486642
-0.0239201
0.0157979
-0.0538093
0.0286324
-0.0633005
0.0416674
-0.0643597
0.0544358
-0.0630604
0.0668522
-0.0613095
0.0789234
-0.0595779
0.0906735
-0.0579564
0.102132
-0.0564522
-0.0554676
0.113411
0.00488046
-0.0288006
0.0156792
-0.064608
0.0282954
-0.0759168
0.0410863
-0.0771506
0.053612
-0.0755861
0.0657972
-0.0734947
0.0776515
-0.0714322
0.0892003
-0.0695052
0.100478
-0.0677294
-0.0665719
0.111582
0.00489128
-0.0336919
0.0155163
-0.075233
0.0278536
-0.0882541
0.0403337
-0.0896308
0.0525497
-0.0878021
0.0644371
-0.085382
0.0760086
-0.0830037
0.0872902
-0.0807868
0.0983198
-0.078759
-0.0774247
0.109173
0.00489098
-0.0385828
0.0152921
-0.0856342
0.0272825
-0.100244
0.0393792
-0.101727
0.0512124
-0.0996354
0.0627298
-0.0968994
0.0739464
-0.0942203
0.0848877
-0.0917281
0.0955911
-0.0894625
-0.0879247
0.106091
0.00486996
-0.0434528
0.0149892
-0.0957534
0.0265602
-0.111815
0.0381983
-0.113365
0.0495752
-0.111012
0.0606518
-0.107976
0.0714464
-0.105015
0.0819836
-0.102265
0.0922934
-0.0997723
-0.0979548
0.102324
0.00481934
-0.0482721
0.0145919
-0.105526
0.0256668
-0.12289
0.036768
-0.124467
0.0476134
-0.121858
0.0581805
-0.118543
0.0684948
-0.115329
0.0785839
-0.112354
0.0884595
-0.109648
-0.107358
0.097863
0.00473317
0.0140875
0.024579
0.0350466
0.0452533
0.0551919
0.064899
0.0744229
0.0837649
0.09236
0.160731
-0.123392
0.0791301
0.183677
-0.0897265
0.0667804
0.194943
-0.0666778
0.0554117
0.200241
-0.0502463
0.0449482
0.20241
-0.0377025
0.035534
0.202835
-0.0277107
0.027285
0.202241
-0.0195681
0.0201627
0.201014
-0.01278
0.0140066
0.19937
-0.006999
0.00864328
-0.00109793
0.00308891
0.15964
-0.167266
0.182656
-0.112742
0.194174
-0.0781956
0.19972
-0.0557929
0.202092
-0.0400747
0.202685
-0.0283036
0.202235
-0.0191174
0.20114
-0.0116851
0.199622
-0.00548118
0.000766387
0.157787
-0.21028
0.180736
-0.135692
0.19255
-0.0900094
0.198447
-0.0616893
0.201141
-0.0427687
0.202026
-0.0291888
0.201848
-0.0189394
0.201016
-0.010853
0.199757
-0.00422264
0.00236962
0.15513
-0.251999
0.177904
-0.158466
0.190071
-0.102176
0.196422
-0.068041
0.199557
-0.0459037
0.200859
-0.0304908
0.201082
-0.0191615
0.200642
-0.0104133
0.199774
-0.00335492
0.0035782
0.151602
-0.292019
0.174147
-0.18101
0.186737
-0.114766
0.193653
-0.0749571
0.19735
-0.0496003
0.199192
-0.0323331
0.19994
-0.0199093
0.20002
-0.0104934
0.199672
-0.00300745
0.00426022
0.147033
-0.32988
0.169446
-0.203423
0.182554
-0.127875
0.190149
-0.0825515
0.194528
-0.0539792
0.197032
-0.0348375
0.198428
-0.0213054
0.199152
-0.0112176
0.199452
-0.00330672
0.00428628
0.141003
-0.364791
0.163753
-0.226174
0.177527
-0.141648
0.185923
-0.0909474
0.191106
-0.0591621
0.194392
-0.0381235
0.196555
-0.0234689
0.198044
-0.0127062
0.199112
-0.00437543
0.00353037
0.134266
-0.396734
0.15704
-0.248947
0.171648
-0.156256
0.180989
-0.100288
0.1871
-0.065273
0.191285
-0.0423085
0.194331
-0.0265152
0.1967
-0.0150749
0.198656
-0.00633174
0.00187073
0.126517
-0.425388
0.149074
-0.271504
0.164805
-0.171987
0.175313
-0.110796
0.182509
-0.072469
0.18772
-0.0475202
0.191766
-0.0305604
0.195127
-0.0184364
0.198085
-0.00928924
-0.000809501
0.117342
-0.450371
0.140473
-0.294635
0.157298
-0.188812
0.169017
-0.122516
0.177392
-0.0808439
0.183732
-0.0538599
0.188878
-0.0357064
0.193335
-0.0228939
0.1974
-0.0133541
-0.00462206
0.355129
-0.400024
-0.405476
0.329559
-0.269064
0.318873
-0.178126
0.314193
-0.117836
0.311752
-0.0784023
0.31022
-0.0523283
0.309158
-0.0346445
0.308425
-0.0221606
0.307966
-0.0128955
-0.00445114
0.369181
-0.343729
-0.425476
0.341141
-0.241024
0.327167
-0.164151
0.31979
-0.11046
0.315489
-0.0741009
0.312759
-0.049598
0.310947
-0.0328328
0.309759
-0.020973
0.309049
-0.0121854
-0.00419879
0.382387
-0.2889
-0.437216
0.35185
-0.210487
0.334819
-0.147121
0.325001
-0.100641
0.319007
-0.0681068
0.315165
-0.0457567
0.312647
-0.0303145
0.311027
-0.0193529
0.310075
-0.0112334
-0.00386652
0.391939
-0.237226
-0.443614
0.360469
-0.179017
0.341385
-0.128037
0.329643
-0.088899
0.322208
-0.0606726
0.31738
-0.0409282
0.314218
-0.0271523
0.312198
-0.017333
0.31102
-0.0100557
-0.00345883
0.398899
-0.189372
-0.446752
0.367336
-0.147454
0.346882
-0.107583
0.333656
-0.0756736
0.325031
-0.0520477
0.319354
-0.0352507
0.315624
-0.0234231
0.313248
-0.0149562
0.311867
-0.00867479
-0.00298255
0.403865
-0.145312
-0.447926
0.372669
-0.116257
0.351342
-0.0862555
0.337005
-0.0613374
0.327429
-0.0424707
0.321047
-0.0288689
0.316837
-0.0192132
0.314154
-0.0122731
0.312597
-0.00711778
-0.00244637
0.407298
-0.104574
-0.448036
0.376664
-0.0856237
0.354811
-0.0644016
0.339673
-0.0461998
0.329366
-0.0321642
0.322428
-0.02193
0.31783
-0.0146159
0.314897
-0.00934028
0.313196
-0.00541596
-0.00186048
0.409513
-0.0664124
-0.447675
0.379458
-0.055569
0.357316
-0.0422594
0.341636
-0.0305199
0.330808
-0.021336
0.32346
-0.0145815
0.318573
-0.00972915
0.315452
-0.0062193
0.31364
-0.00360399
-0.00123638
0.409709
-0.0295238
-0.446597
0.380227
-0.0260877
0.358057
-0.0200886
0.342126
-0.0145895
0.331021
-0.0102306
0.323444
-0.00700419
0.318392
-0.00467752
0.315164
-0.00299118
0.31329
-0.00173016
-0.000590644
0.374012
-0.403535
0.347924
0.327835
0.313246
0.303015
0.296011
0.291333
0.288342
0.286612
0.437865
0.00730227
-0.437628
0.437417
0.0194035
0.436252
0.0311204
0.434321
0.0423323
0.431561
0.0529113
0.427941
0.0627332
0.423154
0.0720051
0.418027
0.0794428
0.408612
0.090547
0.0879581
0.420194
0.0069568
-0.419849
0.420807
0.0187907
0.421614
0.0303137
0.422557
0.0413893
0.423555
0.0519126
0.424576
0.0617123
0.425414
0.0711674
0.426408
0.0784487
0.427111
0.0898435
0.0895939
0.405884
0.00634636
-0.405273
0.407234
0.0174404
0.409278
0.0282694
0.411972
0.0386956
0.415256
0.0486282
0.41907
0.0578991
0.423368
0.0668686
0.427806
0.0740112
0.433359
0.0842902
0.0857375
0.394631
0.00559392
-0.393878
0.396457
0.0156147
0.399324
0.0254023
0.40319
0.0348291
0.408008
0.04381
0.413701
0.0522068
0.420292
0.060277
0.427353
0.0669502
0.435987
0.075657
0.0781101
0.385814
0.00474113
-0.384961
0.387973
0.0134553
0.39141
0.0219658
0.396084
0.0301552
0.401952
0.0379422
0.408938
0.04522
0.417072
0.0521436
0.425996
0.058026
0.436539
0.0651135
0.0678972
0.379043
0.00381594
-0.378118
0.381436
0.0110624
0.385267
0.0181346
0.390495
0.0249272
0.397074
0.0313629
0.404935
0.0373596
0.414081
0.0429978
0.424248
0.0478589
0.435991
0.0533703
0.0559624
0.374027
0.00283506
-0.373047
0.376588
0.00850159
0.380697
0.014026
0.386307
0.019317
0.393366
0.024304
0.401803
0.0289224
0.411596
0.0332045
0.422554
0.0369016
0.435027
0.040897
0.0429534
0.370505
0.00179748
-0.369467
0.373202
0.00580405
0.377522
0.009706
0.38341
0.0134291
0.390799
0.0169148
0.39961
0.0201114
0.40979
0.0230247
0.421197
0.0254947
0.434031
0.0280628
0.02931
0.366165
0.000630267
-0.364998
0.369106
0.00286284
0.373766
0.00504621
0.380069
0.00712648
0.387917
0.00906663
0.397196
0.0108324
0.407805
0.0124154
0.419583
0.0137172
0.43259
0.0150555
0.0153028
0.31211
-0.31148
0.314973
0.320019
0.327145
0.336212
0.347044
0.35946
0.373177
0.388233
0.0799965
0.122745
-0.112299
-0.0904431
0.0704076
0.12507
-0.115481
0.0611103
0.128041
-0.118744
0.0518388
0.131444
-0.122172
0.0424622
0.135184
-0.125807
0.0329092
0.139234
-0.129681
0.0231564
0.143363
-0.133611
0.0133791
0.145482
-0.135704
0.00458817
0.134342
-0.125551
0.0753486
-0.0707605
0.075468
0.131304
-0.084027
0.0666999
0.133838
0.0578451
0.136896
0.0489332
0.140356
0.0399399
0.144177
0.0308245
0.148349
0.0215727
0.152615
0.0123635
0.154691
0.00417405
0.142531
0.0795227
0.0678569
0.138651
-0.0752034
0.0601862
0.141508
0.0523218
0.14476
0.0443108
0.148367
0.0361568
0.152331
0.0278443
0.156662
0.0193838
0.161076
0.0109817
0.163093
0.00360415
0.149909
0.0831268
0.0595014
0.145075
-0.0659254
0.0528206
0.148189
0.0459489
0.151632
0.0389104
0.155405
0.0317065
0.159535
0.0243298
0.164039
0.0168062
0.168599
0.00936257
0.170537
0.00294169
0.15633
0.0860685
0.0510573
0.150724
-0.0567064
0.0452439
0.154003
0.0392904
0.157585
0.0331978
0.161498
0.0269571
0.165776
0.0205602
0.170435
0.0140404
0.175119
0.00763699
0.17694
0.00224923
0.161717
0.0883178
0.0423431
0.155572
-0.0471913
0.0374008
0.158945
0.032369
0.162617
0.0272364
0.166631
0.0219882
0.171024
0.0166148
0.175809
0.0111514
0.180583
0.00584443
0.182247
0.00154521
0.166017
0.089863
0.0331668
0.15952
-0.0371145
0.029172
0.16294
0.0251221
0.166667
0.0210021
0.170751
0.0167989
0.175227
0.0125079
0.1801
0.00815644
0.184934
0.00398285
0.18642
0.000806378
0.169193
0.0906694
0.0235081
0.162459
-0.0264479
0.0205492
0.165898
0.0175532
0.169663
0.014505
0.173799
0.0113912
0.178341
0.00823022
0.183261
0.00508007
0.188084
0.00209781
0.189403
3.54885e-05
0.171255
0.0907048
0.0134694
0.164307
-0.0153171
0.0116155
0.167752
0.00973476
0.171544
0.00781921
0.175714
0.00585279
0.180307
0.00381016
0.185303
0.00187903
0.190015
0.00017285
0.191109
-0.000625392
0.172054
0.0900795
0.00327886
-0.00402433
0.00255239
0.00182339
0.00108441
0.000336527
-0.000404834
-0.00126316
-0.00156586
-0.00125399
0.108954
0.0212644
-0.120208
-0.0100101
0.0973273
0.0218484
-0.0102219
0.0853709
0.022408
-0.0104516
0.0730726
0.0229984
-0.0107002
0.0604094
0.0236351
-0.0109719
0.0473529
0.0243267
-0.0112702
0.033888
0.0250521
-0.0115873
0.0201675
0.0255207
-0.0118001
0.00736324
0.0239168
-0.0111125
0.0140375
-0.00667427
0.108059
0.0324756
-0.11927
0.0964931
0.0334141
0.0846095
0.0342917
0.0723956
0.0352123
0.0598278
0.0362029
0.0468772
0.0372772
0.0335285
0.0384009
0.0199345
0.0391147
0.00726239
0.0365888
0.0212999
0.106783
0.0436189
-0.117926
0.0953116
0.0448855
0.0835374
0.0460659
0.0714473
0.0473023
0.0590169
0.0486333
0.0462168
0.0500774
0.0330314
0.0515863
0.0196147
0.0525314
0.00712676
0.0490768
0.0284267
0.105032
0.0546541
-0.116067
0.0937015
0.0562159
0.0820858
0.0576815
0.0701707
0.0592174
0.0579311
0.0608729
0.0453372
0.0626714
0.0323739
0.0645495
0.019199
0.0657063
0.00696636
0.0613094
0.035393
0.102699
0.0655224
-0.113568
0.0915733
0.067342
0.0801804
0.0690744
0.0685053
0.0708926
0.0565219
0.0728563
0.0441997
0.0749935
0.0315247
0.0772246
0.0186582
0.0785728
0.00674448
0.0732231
0.0421375
0.099691
0.076154
-0.110322
0.088845
0.078188
0.0777532
0.0801662
0.0663968
0.0822489
0.0547478
0.0845053
0.0427743
0.086967
0.0304632
0.0895357
0.0179807
0.0910553
0.00646037
0.0847434
0.0485979
0.0959181
0.0864694
-0.106234
0.0854565
0.0886497
0.0747711
0.0908516
0.0638323
0.0931876
0.0526081
0.0957296
0.0410669
0.0985082
0.0291988
0.101404
0.0171774
0.103077
0.00612592
0.0957949
0.0547238
0.0912033
0.0963171
-0.101051
0.0812744
0.0985785
0.0711369
0.100989
0.0607441
0.10358
0.0500607
0.106413
0.0390561
0.109513
0.0277248
0.112735
0.0162503
0.114551
0.00574348
0.106302
0.0604673
0.0861287
0.105322
-0.0951339
0.0769765
0.107731
0.0674675
0.110498
0.0576338
0.113414
0.0474855
0.116561
0.0370117
0.119987
0.0262197
0.123527
0.0153048
0.125466
0.00536033
0.116246
0.0658276
0.0782532
-0.0852294
0.0705033
0.0622578
0.0534994
0.0442534
0.0345592
0.0244757
0.0142375
0.00493288
0.200708
0.0153493
-0.0180672
0.202995
0.0211995
-0.0234866
0.202874
0.0259331
-0.0258125
0.20354
0.0282601
-0.0289264
0.203135
0.0341472
-0.0337419
0.201046
0.0423452
-0.0402558
0.195968
0.0534498
-0.0483724
0.185433
0.0684789
-0.0579436
0.162955
0.0911405
-0.0686628
0.123586
-0.0808391
0.200553
0.0127858
0.202718
0.0190344
0.20254
0.0261115
0.20312
0.0276796
0.202593
0.0346751
0.200334
0.0446038
0.195035
0.0587485
0.184231
0.0792834
0.161688
0.113684
0.166004
0.200271
0.0105046
0.202148
0.0171573
0.201819
0.0264408
0.202191
0.0273075
0.20141
0.0354558
0.198858
0.047156
0.193228
0.0643784
0.182078
0.0904339
0.159553
0.136208
0.207631
0.199857
0.00863771
0.201289
0.0157254
0.200723
0.0270066
0.200762
0.0272681
0.199598
0.0366197
0.196627
0.0501276
0.190547
0.0704579
0.178957
0.102024
0.156445
0.15872
0.248009
0.199302
0.00732511
0.200145
0.0148832
0.199267
0.0278845
0.198846
0.0276892
0.197169
0.0382967
0.193651
0.0536451
0.186994
0.0771149
0.174848
0.11417
0.152069
0.181499
0.28651
0.198598
0.00671696
0.198723
0.0147576
0.197471
0.0291371
0.196455
0.028705
0.194137
0.0406149
0.189946
0.0578356
0.182574
0.0844874
0.169726
0.127018
0.146321
0.204904
0.322509
0.197731
0.00697585
0.197034
0.0154542
0.195357
0.0308144
0.193604
0.0304584
0.190521
0.0436975
0.185529
0.0628275
0.177293
0.0927234
0.163595
0.140717
0.140515
0.227984
0.35679
0.196687
0.00827835
0.19509
0.0170519
0.19295
0.0329538
0.190304
0.0331045
0.186343
0.0476586
0.180422
0.0687481
0.171185
0.10196
0.156513
0.155389
0.134387
0.250109
0.390126
0.195455
0.0108133
0.192909
0.0195973
0.190277
0.035586
0.186567
0.036815
0.18163
0.0525956
0.174673
0.0757043
0.164417
0.112217
0.149045
0.17076
0.128316
0.270839
0.423308
0.194122
0.0146812
0.190505
0.0232146
0.187396
0.0386951
0.182428
0.0417824
0.176465
0.0585591
0.168363
0.0838063
0.156782
0.123798
0.139863
0.187679
0.11735
0.293352
0.455429
0.30273
0.0139618
0.304074
0.0218706
0.307357
0.0354116
0.308546
0.0405938
0.310405
0.0566997
0.312803
0.0814084
0.316898
0.119704
0.325805
0.178772
0.35035
0.268806
0.399766
0.406013
0.303455
0.0125173
0.305152
0.0201734
0.308642
0.0319215
0.310864
0.0383718
0.313945
0.0536183
0.318365
0.0769888
0.32565
0.112419
0.339175
0.165247
0.367981
0.24
0.344393
0.423354
0.304074
0.0104537
0.306277
0.0179706
0.309936
0.0282618
0.31305
0.0352579
0.317275
0.0493935
0.323443
0.0708207
0.333255
0.102607
0.349991
0.148511
0.380862
0.209128
0.290311
0.434944
0.304655
0.00780854
0.307337
0.0152889
0.311206
0.0243926
0.315076
0.0313884
0.320334
0.0441352
0.328002
0.0631528
0.339824
0.0907846
0.358817
0.129519
0.390368
0.177577
0.239072
0.441607
0.30523
0.00458912
0.308335
0.0121835
0.312406
0.0203215
0.316901
0.0268933
0.323052
0.0379846
0.331964
0.0542404
0.345338
0.0774105
0.365835
0.109022
0.397239
0.146172
0.191332
0.444979
0.305826
0.000773641
0.309278
0.00873088
0.313499
0.0161007
0.318489
0.0219031
0.325376
0.0310982
0.335284
0.0443319
0.349821
0.062874
0.371265
0.0875781
0.402128
0.115309
0.147154
0.446307
0.306471
-0.00368684
0.310177
0.00502416
0.314454
0.0118246
0.319807
0.01655
0.327268
0.0236367
0.337939
0.0336606
0.353315
0.0474988
0.375317
0.0655759
0.405514
0.0851123
0.106163
0.446504
0.307223
-0.00889979
0.311048
0.00119895
0.315232
0.00764046
0.320816
0.0109668
0.328694
0.0157587
0.339912
0.0224417
0.355861
0.0315503
0.378162
0.0432747
0.407726
0.0555487
0.0677274
0.446162
0.307541
-0.0144302
0.311266
-0.00252594
0.315208
0.00369781
0.320896
0.00527934
0.329038
0.00761633
0.340608
0.0108715
0.356912
0.0152463
0.379346
0.0208406
0.408403
0.0264917
0.0316068
0.444524
0.28758
0.285054
0.288752
0.294031
0.301648
0.312519
0.327765
0.348606
0.375098
0.406705
0.415367
-0.0997964
0.417786
-0.0864468
0.420543
-0.0779601
0.42405
-0.069432
0.427602
-0.0602586
0.43079
-0.0503793
0.433443
-0.0397672
0.435501
-0.0285063
0.436912
-0.0167283
-0.00473998
0.422755
-0.0991975
0.422555
-0.0862467
0.422182
-0.0775877
0.4218
-0.0690494
0.421293
-0.0597514
0.420708
-0.0497951
0.420179
-0.0392379
0.419808
-0.0281349
0.419685
-0.016606
-0.00490302
0.428939
-0.0931927
0.424375
-0.0816824
0.420041
-0.0732536
0.416108
-0.0651165
0.412716
-0.0563588
0.409902
-0.0469814
0.407714
-0.0370497
0.406202
-0.0266231
0.405403
-0.0158073
-0.00477308
0.432029
-0.0836148
0.42428
-0.0739334
0.417339
-0.0663121
0.411157
-0.0589343
0.405836
-0.0510383
0.401431
-0.0425767
0.397993
-0.0336111
0.395569
-0.0241995
0.394194
-0.0144323
-0.00445719
0.433168
-0.0718033
0.423229
-0.0639948
0.41443
-0.057513
0.40666
-0.0511643
0.399993
-0.044371
0.394489
-0.0370729
0.390197
-0.0293192
0.38716
-0.0211626
0.385411
-0.0126838
-0.00400689
0.433125
-0.0586217
0.421751
-0.0526203
0.411692
-0.0474548
0.402849
-0.0423204
0.39527
-0.0367927
0.389016
-0.0308189
0.384136
-0.0244389
0.380673
-0.0176998
0.378662
-0.0106728
-0.00346247
0.432504
-0.0446216
0.420231
-0.0403473
0.409363
-0.0365874
0.399819
-0.0327757
0.391637
-0.0286113
0.384879
-0.0240606
0.379598
-0.0191581
0.375843
-0.0139448
0.373652
-0.00848194
-0.00285648
0.43167
-0.0301299
0.418883
-0.0275603
0.407552
-0.0252563
0.397583
-0.0228067
0.389017
-0.0200451
0.381924
-0.0169681
0.376372
-0.0136055
0.372417
-0.00999048
0.370106
-0.00617113
-0.00221731
0.429497
-0.0151025
0.416413
-0.0144769
0.404764
-0.0136076
0.394441
-0.0124835
0.38551
-0.0111142
0.378074
-0.00953162
0.37223
-0.00776152
0.368065
-0.00582572
0.365645
-0.00375106
-0.00157037
0.391602
0.377125
0.363518
0.351034
0.33992
0.330388
0.322627
0.316801
0.31305
0.00502949
0.10667
-0.111699
0.00865165
0.208119
-0.211741
0.0102389
0.233138
-0.234725
0.0111438
0.233594
-0.234498
0.0118881
0.229113
-0.229858
0.0127246
0.224531
-0.225368
0.0136986
0.220629
-0.221603
0.0147928
0.21742
-0.218515
0.0159133
0.214701
-0.215822
0.211433
0.0166208
-0.21214
0.00662823
0.100041
0.0134645
0.201282
0.0187231
0.22788
0.0232344
0.229082
0.027665
0.224683
0.0322804
0.219916
0.0371718
0.215737
0.0423701
0.212222
0.047818
0.209253
0.206357
0.0528932
0.0075924
0.0924489
0.0170739
0.191801
0.0255512
0.219402
0.0333996
0.221234
0.041176
0.216906
0.0491749
0.211917
0.0575307
0.207381
0.066324
0.203429
0.0755889
0.199988
0.196922
0.0850243
0.00791044
0.0845385
0.0193067
0.180405
0.0303724
0.208337
0.040982
0.210624
0.0515128
0.206376
0.0622357
0.201194
0.0733049
0.196312
0.0848288
0.191905
0.0968988
0.187918
0.184229
0.109592
0.00772657
0.0768119
0.0202515
0.16788
0.0331623
0.195426
0.0457972
0.197989
0.0583177
0.193855
0.0709308
0.188581
0.0837799
0.183463
0.0969713
0.178713
0.110598
0.174292
0.169939
0.124887
0.00725171
0.0695602
0.0202345
0.154897
0.0342435
0.181417
0.0481463
0.184087
0.0618785
0.180123
0.0755601
0.174899
0.0893013
0.169722
0.103187
0.164828
0.117286
0.160193
0.155411
0.131814
0.00668458
0.0628756
0.0196653
0.141916
0.034157
0.166925
0.0486798
0.169564
0.0629737
0.165829
0.0770724
0.160801
0.0910465
0.155748
0.104956
0.150919
0.118833
0.146316
0.141392
0.132852
0.00616419
0.0567114
0.0188953
0.129185
0.0334488
0.152372
0.0481258
0.154887
0.0625245
0.15143
0.076609
0.146716
0.0904163
0.141941
0.103987
0.137348
0.117366
0.132937
0.128178
0.13058
0.00575683
0.0509546
0.0181546
0.116787
0.0325398
0.137986
0.0471
0.140326
0.0613485
0.137182
0.0752048
0.13286
0.0886863
0.128459
0.101833
0.124202
0.114679
0.12009
0.115239
0.127618
0.00546914
0.0454854
0.0175462
0.10471
0.0316692
0.123863
0.0459777
0.126018
0.0599324
0.123227
0.0734074
0.119385
0.0863669
0.1155
0.098771
0.111797
0.110495
0.108367
0.104434
0.121299
0.00529387
0.0401916
0.0171334
0.0928708
0.0310376
0.109959
0.0451504
0.111905
0.0589335
0.109444
0.072276
0.106042
0.0851842
0.102592
0.0977022
0.0992794
0.109904
0.0961653
0.0935832
0.120754
0.00518226
0.0350093
0.0168498
0.0812033
0.030578
0.096231
0.044522
0.0979611
0.0581442
0.0958219
0.0713286
0.0928579
0.0840681
0.089852
0.0963763
0.0869713
0.108285
0.0842561
0.0824105
0.119458
0.00509994
0.0299094
0.0166418
0.0696614
0.0302366
0.0826362
0.0440471
0.0841506
0.0575378
0.0823312
0.070591
0.0798047
0.0831962
0.0772467
0.0953649
0.0748026
0.107121
0.0724997
0.0710716
0.11846
0.00503342
0.024876
0.0164873
0.0582075
0.0299954
0.0691281
0.0437236
0.0704224
0.0571397
0.0689151
0.0701288
0.0668156
0.082683
0.0646926
0.0948174
0.0626682
0.106559
0.0607584
0.0596252
0.118005
0.0049779
0.0198981
0.0163699
0.0468156
0.0298251
0.0556729
0.0435083
0.0567391
0.0568888
0.0555347
0.069854
0.0538504
0.0823992
0.0521474
0.0945428
0.0505246
0.106312
0.048989
0.0481034
0.117834
0.00493274
0.0149653
0.016279
0.0354693
0.0297
0.0422519
0.0433573
0.0430818
0.0567198
0.0421722
0.0696762
0.0408939
0.0822232
0.0396004
0.0943804
0.0383674
0.106173
0.0371965
0.0365418
0.117734
0.00489799
0.0100673
0.0162079
0.0241594
0.0296016
0.0288581
0.0432387
0.0294447
0.0565871
0.0288238
0.0695359
0.027945
0.0820823
0.027054
0.0942461
0.0262036
0.10605
0.0253929
0.0249628
0.117629
0.00487303
0.0051943
0.0161508
0.0128817
0.0295164
0.0154924
0.0431301
0.015831
0.0564599
0.015494
0.0693955
0.0150095
0.0819343
0.0145152
0.0940964
0.0140415
0.105902
0.013587
0.0133777
0.117487
0.00485655
0.000337742
0.0161021
0.00163614
0.0294328
0.00216177
0.0430134
0.00225046
0.056314
0.00219346
0.0692253
0.00209816
0.0817453
0.00199522
0.0938941
0.00189269
0.105691
0.00178986
0.00179963
0.117269
0.00484717
0.0160566
0.0293398
0.0428717
0.056127
0.0689983
0.0814845
0.0936059
0.105382
0.11695
0.13631
0.245188
-0.260744
0.149579
0.110031
-0.1233
0.159208
0.0377446
-0.0473728
0.166436
0.00563324
-0.0128614
0.172376
-0.00713143
0.00119141
0.177623
-0.0110277
0.00578039
0.182418
-0.0110934
0.00629849
0.186872
-0.0095968
0.00514323
0.19102
-0.00755865
0.00341061
-0.00505991
0.00125592
0.141568
0.223079
0.156386
0.0952129
0.166055
0.0280756
0.17277
-0.001082
0.17788
-0.0122414
0.182148
-0.0152956
0.185886
-0.0148317
0.18924
-0.012951
0.192275
-0.0105935
-0.00775596
0.145401
0.196138
0.162237
0.078377
0.172103
0.0182093
0.178415
-0.0073935
0.182854
-0.016681
0.186265
-0.0187063
0.189056
-0.0176227
0.191419
-0.0153144
0.193449
-0.012623
-0.00944925
0.149127
0.165016
0.167514
0.0599899
0.177552
0.00817126
0.183501
-0.0133421
0.187317
-0.0204969
0.189964
-0.021354
0.191915
-0.019573
0.193399
-0.0167989
0.194536
-0.01376
-0.0102505
0.153138
0.129713
0.172147
0.0409804
0.182319
-0.00200022
0.187961
-0.0189846
0.191242
-0.0237773
0.193229
-0.0233409
0.19445
-0.0207943
0.195171
-0.0175205
0.195533
-0.0141211
-0.0102755
0.156042
0.0914049
0.176037
0.020985
0.186372
-0.0123346
0.19177
-0.0243831
0.194606
-0.0266132
0.19604
-0.0247745
0.196648
-0.0214029
0.196727
-0.0175994
0.196434
-0.0138275
-0.00964425
0.158213
0.0508205
0.179179
1.88933e-05
0.189681
-0.0228362
0.1949
-0.0296026
0.197389
-0.0291018
0.198382
-0.0257674
0.198498
-0.0215191
0.198058
-0.0171594
0.197235
-0.0130039
-0.00848111
0.159795
0.00851258
0.181541
-0.0217267
0.192216
-0.0335112
0.197329
-0.0347156
0.199573
-0.031346
0.200242
-0.0264365
0.19999
-0.0212667
0.199158
-0.0163276
0.197932
-0.0117782
-0.00691361
0.160768
-0.0349862
0.183098
-0.0440565
0.193951
-0.0443641
0.199037
-0.0398019
0.201144
-0.0334531
0.201609
-0.0269016
0.201115
-0.0207719
0.20002
-0.015233
0.198523
-0.0102807
-0.00507208
0.161094
0.183818
0.194865
0.200011
0.202092
0.202476
0.201866
0.20064
0.199003
0.193788
0.0347898
-0.228578
0.173363
0.0204252
0.164445
0.00891852
0.161621
0.0028233
0.161492
0.000128805
0.162328
-0.000835926
0.163338
-0.00100976
0.164189
-0.00085058
0.164755
-0.00056675
-0.000206689
0.23738
0.09707
-0.299661
0.209336
0.0484695
0.198069
0.0201855
0.194585
0.00630741
0.19441
0.000304306
0.195406
-0.00183288
0.196619
-0.00222271
0.197644
-0.00187521
0.198334
-0.00125653
-0.000462668
0.236943
0.156509
-0.296382
0.209631
0.0757818
0.198999
0.030817
0.195932
0.0093744
0.195987
0.000249852
0.1971
-0.00294636
0.198372
-0.00349488
0.199428
-0.00293033
0.200134
-0.00196256
-0.000724404
0.231593
0.211754
-0.286838
0.206725
0.100649
0.197606
0.0399364
0.195359
0.0116212
0.195808
-0.000198548
0.197109
-0.00424816
0.198461
-0.00484687
0.199548
-0.0040173
0.200266
-0.00267979
-0.000988692
0.225856
-0.274846
0.203205
0.195768
0.194528
0.195521
0.197053
0.198505
0.199631
0.200362
0.0217098
-0.000896088
-0.0208137
0.0259847
-0.00427494
0.03438
-0.00839534
0.048131
-0.013751
0.0683194
-0.0201884
0.0948558
-0.0265364
0.126572
-0.0317165
0.160592
-0.0340198
0.197105
-0.0365125
-0.0314734
0.0586967
-0.00362116
-0.0559716
0.0692981
-0.0148763
0.0881513
-0.0272486
0.114863
-0.0404626
0.147273
-0.0525982
0.181841
-0.0611045
0.215383
-0.0652589
0.245696
-0.0643322
0.274392
-0.0652088
-0.0567422
0.0843455
-0.0076305
-0.0803362
0.097518
-0.0280488
0.118773
-0.0485031
0.145375
-0.067065
0.173582
-0.0808057
0.200628
-0.0881505
0.22572
-0.0903504
0.249478
-0.0880901
0.273661
-0.0893924
-0.0794632
0.0989651
-0.0121341
-0.0944615
0.111915
-0.0409989
0.131262
-0.0678496
0.153854
-0.0896573
0.177015
-0.103967
0.199675
-0.110811
0.221683
-0.112358
0.243973
-0.11038
0.266024
-0.111444
-0.100277
0.106027
-0.10154
0.117921
0.135096
0.155031
0.175951
0.196955
0.217449
0.237649
0.253823
0.101776
-0.090373
0.0990388
-0.110442
0.0922332
-0.0931219
0.102665
0.0820107
-0.0962206
0.106443
0.0710037
-0.0993835
0.11039
0.0592315
-0.102694
0.114467
0.0467549
-0.106211
0.118688
0.033648
-0.109821
0.122928
0.0201313
-0.112121
0.125637
0.0074073
-0.104709
0.117433
-0.0601752
0.0675825
0.105939
-0.0798906
-0.116421
0.0952042
-0.0823872
0.0839057
-0.0849221
0.0720898
-0.0875675
0.0597849
-0.0903896
0.0469899
-0.0934164
0.0337091
-0.0965404
0.020114
-0.0985254
0.00738187
-0.0919772
-0.0527933
0.106986
-0.0688669
-0.118009
0.0957515
-0.071153
0.0841723
-0.0733429
0.0722066
-0.0756019
0.0598206
-0.0780035
0.0469829
-0.0805787
0.0336813
-0.0832388
0.0200786
-0.0849227
0.00735365
-0.0792522
-0.0454397
0.108221
-0.0576937
-0.119394
0.0967708
-0.0597026
0.0849795
-0.0615517
0.0728231
-0.0634455
0.0602722
-0.0654526
0.0472962
-0.0676027
0.0338815
-0.069824
0.0201871
-0.0712283
0.00739171
-0.0664568
-0.038048
0.109061
-0.0464587
-0.120296
0.0974906
-0.0481319
0.0855731
-0.0496342
0.0732968
-0.0511692
0.0606374
-0.0527932
0.0475652
-0.0545305
0.0340649
-0.0563237
0.0202929
-0.0574564
0.00742996
-0.0535939
-0.030618
0.10963
-0.0351766
-0.120912
0.0979892
-0.0364913
0.0859999
-0.0376449
0.0736515
-0.0388208
0.0609215
-0.0400632
0.0477812
-0.0413902
0.0342155
-0.0427579
0.0203782
-0.0436191
0.00745017
-0.0406658
-0.0231679
0.109948
-0.0238724
-0.121252
0.0982687
-0.0248124
0.0862411
-0.0256173
0.0738545
-0.0264342
0.0610864
-0.0272951
0.0479089
-0.0282127
0.0343066
-0.0291557
0.0204325
-0.029745
0.00746721
-0.0277006
-0.0157006
0.110035
-0.012565
-0.121342
0.0983426
-0.0131201
0.0863026
-0.0135773
0.0739047
-0.0140362
0.0611263
-0.0145167
0.0479395
-0.015026
0.0343295
-0.0155457
0.0204489
-0.0158644
0.00747819
-0.0147298
-0.00822245
0.109895
-0.00128008
-0.12118
0.0982112
-0.00143644
0.086182
-0.00154817
0.0737968
-0.00165103
0.0610333
-0.00175318
0.0478637
-0.0018564
0.0342734
-0.00195538
0.020415
-0.002006
0.00746688
-0.00178168
-0.000755573
0.109534
-0.120824
0.0978754
0.0858757
0.0735244
0.0607994
0.0476728
0.0341301
0.020324
0.00742984
0.0174688
-0.208872
-0.0207374
0.0141829
-0.212536
0.0110248
-0.215356
0.00795206
-0.21853
0.00491262
-0.222328
0.00187145
-0.226817
-0.00115893
-0.231468
-0.00300879
-0.232876
-0.00295176
-0.211798
-0.114651
0.0493978
-0.201611
-0.0566588
0.0419258
-0.205064
0.034751
-0.208182
0.0278714
-0.21165
0.0212011
-0.215658
0.0146793
-0.220295
0.00848173
-0.225271
0.00279838
-0.227192
-0.000760566
-0.208239
-0.115411
0.0765177
-0.190532
-0.0875959
0.0655574
-0.194104
0.0551019
-0.197726
0.0451093
-0.201658
0.0354722
-0.206021