/*--------------------------------*- C++ -*----------------------------------*\
  =========                 |
  \\      /  F ield         | OpenFOAM: The Open Source CFD Toolbox
   \\    /   O peration     | Website:  https://openfoam.org
    \\  /    A nd           | Version:  13
     \\/     M anipulation  |
\*---------------------------------------------------------------------------*/
FoamFile
{
    format      ascii;
    class       surfaceScalarField;
    location    "0.63";
    object      phi;
}
// * * * * * * * * * * * * * * * * * * * * * * * * * * * * * * * * * * * * * //

dimensions      [0 3 -1 0 0 0 0];

internalField   nonuniform List<scalar> 
823
(
0.0113777
-0.0505545
0.0391768
0.0387585
-0.133436
0.106055
0.0788323
-0.205877
0.165804
0.130172
-0.268869
0.217529
-0.323257
0.259411
0.194018
0.010703
-0.0612575
0.036143
-0.158876
0.0726481
-0.242383
0.117973
-0.314194
-0.375599
0.170315
0.00837701
-0.0696345
0.0282851
-0.178784
0.0567257
-0.270823
0.0918109
-0.349279
-0.41605
0.132262
0.00529928
-0.0749338
0.0179957
-0.19148
0.0362298
-0.289057
0.0588844
-0.371933
-0.442415
0.0852492
0.00196199
-0.0768958
0.00663009
-0.196148
0.0132898
-0.295717
0.0215222
-0.380166
0.0310626
-0.451955
0.00665216
-0.0107476
0.00409545
0.0221912
-0.0308999
0.0153608
0.0453961
-0.0484857
0.0252808
0.0745447
-0.0639215
0.0347729
-0.0770083
0.108199
0.0433544
0.00575443
-0.0165021
0.0214789
-0.0466243
0.0466911
-0.0736979
0.0797359
-0.0969662
-0.11608
0.118808
0.00639302
-0.0228951
0.0236549
-0.0638862
0.0512306
-0.101274
0.0879092
-0.133645
-0.16011
0.131939
0.00753616
-0.0304313
0.0270874
-0.0834375
0.057317
-0.131503
0.0970242
-0.173352
-0.207893
0.144808
0.00874555
0.031363
0.0656635
0.10984
0.161358
0.322515
-0.957273
0.742956
0.474266
-0.821812
0.670061
0.572934
-0.353086
0.254418
0.6134
-0.0679273
0.0274609
0.00173049
-0.00656031
0.330445
-1.16891
0.471072
-0.962439
0.574846
-0.456859
0.631963
-0.125045
-0.0159402
0.336633
-1.3736
0.461283
-1.08709
0.562803
-0.558378
0.626865
-0.189108
-0.0419114
0.337504
-1.5663
0.448431
-1.19802
0.540642
-0.650589
0.610695
-0.25916
-0.077611
0.327765
-1.73271
0.428387
-1.29864
0.5089
-0.731102
0.576465
-0.326725
-0.113035
1.19772
-1.59014
-1.34028
1.0079
-1.10882
0.891936
-0.615134
0.842611
-0.2774
-0.0919113
1.32991
-1.13294
-1.78711
0.982288
-0.761201
0.774777
-0.407623
0.687633
-0.190256
-0.065554
1.18951
-0.607624
-1.71483
0.816391
-0.388081
0.611036
-0.202268
0.518274
-0.0974942
-0.0351932
0.82239
-0.185283
-1.24473
0.545357
-0.111048
0.39654
-0.0534516
0.325678
-0.0266315
-0.010495
0.306721
-0.492004
0.195673
0.142221
0.11559
1.56259
0.0462507
-1.57778
1.52169
0.126158
1.46266
0.191291
1.39632
0.236647
0.250059
1.67586
0.0356518
-1.66527
1.69933
0.102696
1.73082
0.159798
1.76529
0.202175
0.228242
1.38797
0.0184775
-1.37079
1.43706
0.0536076
1.51388
0.082977
1.61016
0.105893
0.123571
0.977699
0.00531452
-0.964536
1.01588
0.0154231
1.07582
0.0230444
1.15388
0.0278274
0.0327221
0.392987
-0.387673
0.40841
0.431454
0.459282
0.128773
0.327623
-0.264663
-0.191733
0.0781587
0.273213
-0.222599
0.0385241
0.209793
-0.170158
0.0113399
0.136444
-0.10926
0.0519537
-0.0406138
0.115952
0.378905
-0.167233
0.0714968
0.317668
0.0356179
0.245672
0.0105609
0.161501
0.0625146
0.0888493
0.418274
-0.128219
0.0548105
0.351707
0.0272875
0.273195
0.00806483
0.180724
0.0705794
0.055241
0.443533
-0.0805005
0.0337631
0.373185
0.016655
0.290303
0.00486426
0.192515
0.0754437
0.0174807
-0.0259024
0.0104998
0.00508593
0.00145207
0.0725928
0.0873058
-0.107208
-0.0526904
0.0428595
0.0736876
-0.0439543
0.01972
0.0569211
-0.0337817
0.00513299
0.0367948
-0.0222078
0.0132884
-0.00815536
0.0760262
0.125884
-0.114605
0.0437247
0.105989
0.019646
0.0809998
0.00509133
0.0513494
0.0183797
0.0844223
0.168547
-0.127085
0.0491044
0.141307
0.0227417
0.107362
0.00617607
0.067915
0.0245558
0.0940811
0.214675
-0.140209
0.0557851
0.179603
0.0265335
0.136614
0.00743057
0.0870179
0.0319864
0.10741
-0.157399
0.0644139
0.0308696
0.00862745
0.512871
0.174222
-0.291114
0.561218
0.163078
-0.211425
0.496109
0.313084
-0.247976
0.334635
0.803441
-0.641966
1.04109
-0.813664
0.512697
0.057504
0.558413
0.117362
0.486732
0.384766
0.331206
0.958966
1.25769
0.512468
-0.0589842
0.545189
0.0846415
0.466377
0.463578
0.328158
1.09719
1.45877
0.508793
-0.171798
0.524525
0.0689097
0.441838
0.546265
0.324034
1.21499
1.64259
0.498336
-0.274154
0.494638
0.072607
0.412949
0.627954
0.312182
1.31576
1.79737
0.765552
-0.435685
0.846763
-0.00860456
0.956651
0.518067
1.16944
1.10297
1.61927
1.34754
0.708765
-0.540429
0.784418
-0.0842581
0.955391
0.347094
1.2979
0.760457
1.14339
1.77378
0.602433
-0.538842
0.633702
-0.115527
0.803801
0.176995
1.17258
0.391673
0.612024
1.70395
0.448469
-0.38329
0.40582
-0.0728785
0.536239
0.0465762
0.816015
0.111897
0.186913
1.24113
0.22073
0.147852
0.194428
0.306325
0.493238
1.40258
-0.246768
1.46574
-0.230391
1.52299
-0.185475
1.56316
-0.120664
-0.0405278
1.75267
-0.225662
1.71975
-0.197467
1.69062
-0.15635
1.67084
-0.10088
-0.0349528
1.60148
-0.123191
1.50877
-0.104752
1.43456
-0.0821466
1.38705
-0.0533708
-0.0186943
1.15107
-0.0331316
1.0743
-0.0279871
1.0153
-0.0231426
0.977571
-0.0156444
-0.00565983
0.460106
0.432119
0.408977
0.393332
0.0025015
0.0430079
-0.0455094
0.00732821
0.101055
-0.105881
0.0160957
0.1484
-0.157168
0.0165791
0.151915
-0.152398
0.114032
0.0148147
-0.112268
0.00682867
0.0361792
0.0201786
0.0877046
0.0409594
0.12762
0.0482568
0.144617
0.116386
0.0459033
0.00880967
0.0273695
0.0270778
0.0694365
0.0521527
0.102545
0.0730944
0.123675
0.114039
0.0754407
0.00780163
0.0195679
0.0255146
0.0517236
0.0497502
0.078309
0.077433
0.0959927
0.0992474
0.0922248
0.00509913
0.0144688
0.0179739
0.0388488
0.0367675
0.0595154
0.0600095
0.0727508
0.0767494
0.0825075
0.00342415
0.0110446
0.0125813
0.0296917
0.0274434
0.0446532
0.0470554
0.0531387
0.0561592
0.0676457
0.00222355
0.00882107
0.00893
0.0229852
0.022262
0.0313212
0.0410079
0.0343928
0.0347791
0.0623879
0.00167076
0.00715032
0.0101155
0.0145405
0.0261634
0.0152733
0.0467105
0.0138457
0.0115381
0.0699515
0.0037315
0.00341882
0.0175226
0.000749336
0.0368537
-0.00405784
0.0598684
-0.00916906
-0.0143641
0.0857704
0.00751421
0.0236243
0.0448472
0.070451
0.0994413
0.153765
0.0198949
-0.106015
0.243268
-0.130181
0.0406791
0.264598
-0.037962
0.0166317
0.26991
0.00306586
-0.00837787
-0.00207772
-0.00437397
0.214712
-0.132429
0.325133
-0.240603
0.351252
-0.0640809
0.354099
0.000218455
-0.00494046
0.260015
-0.322493
0.391223
-0.37181
0.433366
-0.106225
0.434865
-0.0012803
-0.00306388
0.293271
-0.529994
0.438534
-0.517072
0.502277
-0.169968
0.508482
-0.00748543
0.00215645
0.312404
0.465393
0.549842
0.569818
0.0706579
0.0386867
-0.109345
0.0786153
-0.00795738
0.0829202
-0.00430481
0.0804379
0.00248231
0.00109009
0.194061
-0.261389
0.226782
0.239109
0.233213
0.0207325
-0.00433162
-0.0164009
0.0342831
-0.0135506
0.0567622
-0.0224791
0.0856221
-0.0288599
-0.0237226
0.053925
-0.0434419
0.0862777
0.139239
0.202604
0.0478352
-0.0551419
0.0763498
-0.0690431
0.0275599
-0.052162
0.0724372
0.0123376
-0.0443752
0.0595975
0.00331786
-0.0300407
0.0390605
-0.0112611
0.014579
0.0454088
-0.0322541
-0.0682967
0.0249753
-0.0317284
0.00983023
-0.0292301
0.00219149
-0.022402
-0.0090696
0.0560758
-0.00666958
-0.0816604
0.0331383
-0.00879091
0.0142889
-0.0103807
0.00259304
-0.0107061
-0.00647655
0.0700865
0.0215678
-0.0983239
0.0448201
0.0164756
0.0233605
0.0110789
0.00692172
0.00573264
0.000445165
0.0743668
-0.105489
0.0468881
0.0241854
0.00771022
0.0165858
-0.11403
-0.0148231
0.016095
-0.151907
0.00730693
-0.14838
0.00248924
-0.101064
-0.0430201
0.0482728
-0.116375
-0.045928
0.0409334
-0.144568
0.0201647
-0.127611
0.0068215
-0.0877205
-0.0361986
0.073127
-0.113969
-0.0755329
0.0521252
-0.123566
0.0270662
-0.102552
0.00880662
-0.0694609
-0.027392
0.077342
-0.0989694
-0.0923417
0.0496226
-0.0958466
0.0254341
-0.0783636
0.00777584
-0.0518027
-0.0196162
0.0599548
-0.0825744
0.0365454
0.0177794
0.0050372
0.341939
0.583337
-0.529296
0.280589
0.225003
-0.163653
0.247657
0.0543707
-0.021438
0.16537
0.114119
-0.0318324
-0.000833714
0.0971607
0.407878
0.571438
0.371506
0.261376
0.335842
0.0900343
0.233617
0.216345
0.164486
0.460028
0.50739
0.451567
0.269836
0.409383
0.132219
0.283781
0.341947
0.366607
0.495939
0.40743
0.514963
0.250813
0.461418
0.185764
0.317769
0.485595
0.586052
0.512296
0.551684
0.489472
0.333101
0.158667
0.351384
0.0847723
0.0738942
0.0801377
0.00463459
0.0724449
0.00769277
-0.0369554
0.1094
0.332139
0.24238
0.225577
0.201437
0.261643
0.0856726
0.0237278
0.056794
0.0288785
0.0342942
0.0224999
0.020736
0.0135581
0.0043351
0.202796
0.139333
0.0862998
0.0539299
)
;

boundaryField
{
    left
    {
        type            calculated;
        value           nonuniform List<scalar> 
17
(
-0.60402
-0.60402
-0.60402
-0.60402
-0.60402
-0.39598
-0.39598
-0.39598
-0.39598
-0.39598
-0.39598
-0.39598
-0.39598
-0.39598
-0.39598
-0.510051
-0.510051
)
;
    }
    right
    {
        type            calculated;
        value           nonuniform List<scalar> 
17
(
0.0793478
0.229929
0.276361
0.356962
0.432989
0.503262
0.565414
0.61823
0.649634
0.652836
0.646395
0.611888
0.821487
0.661276
0.487913
0.300979
0.105095
)
;
    }
    down
    {
        type            calculated;
        value           uniform 0;
    }
    up
    {
        type            calculated;
        value           uniform 0;
    }
    cylinder
    {
        type            calculated;
        value           uniform 0;
    }
    defaultFaces
    {
        type            empty;
    }
}


// ************************************************************************* //
