/*--------------------------------*- C++ -*----------------------------------*\
  =========                 |
  \\      /  F ield         | OpenFOAM: The Open Source CFD Toolbox
   \\    /   O peration     | Website:  https://openfoam.org
    \\  /    A nd           | Version:  13
     \\/     M anipulation  |
\*---------------------------------------------------------------------------*/
FoamFile
{
    format      ascii;
    class       surfaceScalarField;
    location    "1.06";
    object      phi;
}
// * * * * * * * * * * * * * * * * * * * * * * * * * * * * * * * * * * * * * //

dimensions      [0 3 -1 0 0 0 0];

internalField   nonuniform List<scalar> 
3485
(
0.00202966
-0.00337253
0.00134288
0.00860766
-0.0572898
0.0507118
0.0180255
-0.110808
0.10139
0.0283131
-0.139511
0.129224
0.0384866
-0.148998
0.138824
0.0482622
-0.149283
0.139507
0.057605
-0.14627
0.136927
0.066511
-0.142391
0.133485
0.074928
-0.138322
0.129905
-0.134071
0.125911
0.0830877
0.00251772
-0.00589025
0.00950049
-0.0642725
0.0188725
-0.12018
0.0287871
-0.149426
0.038501
-0.158712
0.0479248
-0.158707
0.0571631
-0.155508
0.0663345
-0.151562
0.0756189
-0.147607
-0.143846
0.0853946
0.00294138
-0.00883163
0.0101807
-0.0715118
0.0192568
-0.129256
0.0284344
-0.158603
0.0371667
-0.167444
0.0454705
-0.16701
0.0534716
-0.163509
0.0612634
-0.159354
0.068914
-0.155257
-0.151289
0.0763566
0.00337733
-0.012209
0.0108268
-0.0789613
0.019559
-0.137988
0.0280091
-0.167054
0.0358688
-0.175304
0.0433006
-0.174442
0.050494
-0.170702
0.0575584
-0.166418
0.0645516
-0.16225
-0.158333
0.0715956
0.00373077
-0.0159397
0.0112157
-0.0864462
0.0193933
-0.146166
0.0268955
-0.174556
0.0336478
-0.182056
0.039939
-0.180733
0.0460012
-0.176764
0.0519542
-0.172371
0.0578667
-0.168163
-0.164235
0.063769
0.00402105
-0.0199608
0.0113914
-0.0938166
0.018871
-0.153645
0.0253292
-0.181014
0.0309301
-0.187657
0.0360723
-0.185876
0.0410195
-0.181712
0.0458905
-0.177243
0.0507353
-0.173008
-0.169093
0.0555929
0.00420362
-0.0241644
0.0112645
-0.100877
0.0178638
-0.160245
0.0231446
-0.186295
0.0274975
-0.19201
0.0314081
-0.189786
0.0351603
-0.185464
0.0388703
-0.180952
0.0425834
-0.176721
-0.172831
0.0463214
0.00426522
-0.0284296
0.0108211
-0.107433
0.0163753
-0.165799
0.0203849
-0.190304
0.0234371
-0.195062
0.0260767
-0.192426
0.0285908
-0.187978
0.0310859
-0.183448
0.033598
-0.179233
-0.175375
0.036142
0.00418172
-0.0326113
0.0100346
-0.113286
0.0143899
-0.170154
0.017072
-0.192986
0.0187895
-0.19678
0.0201346
-0.193771
0.0213873
-0.189231
0.022641
-0.184701
0.0239245
-0.180516
-0.1767
0.0252497
0.00394864
-0.03656
0.00890472
-0.118242
0.0119628
-0.173212
0.0132886
-0.194312
0.0136534
-0.197144
0.0137035
-0.193821
0.0136948
-0.189222
0.0137042
-0.184711
0.0137493
-0.180562
0.0138389
-0.176789
-0.000841619
0.000523091
0.000318528
0.00252689
-0.00838599
0.00501748
0.0112329
-0.0184168
0.00971075
0.023239
-0.0243719
0.0123659
0.0365924
-0.0267076
0.0133542
0.0502183
-0.0271034
0.0134775
0.0636643
-0.0267
0.013254
0.0767798
-0.0260404
0.0129248
0.0895365
-0.0253388
0.0125821
-0.0248623
0.102124
0.0122745
-0.000757559
0.00128065
0.00272518
-0.0118687
0.0114799
-0.0271715
0.0234595
-0.0363515
0.036736
-0.0399842
0.0502596
-0.0406269
0.0635936
-0.040034
0.0765958
-0.0390426
0.089244
-0.037987
-0.0373474
0.101729
-0.000635976
0.00191663
0.00301289
-0.0155176
0.0118431
-0.0360017
0.0237922
-0.0483006
0.0369666
-0.0531586
0.0503513
-0.0540116
0.0635317
-0.0532144
0.0763767
-0.0518876
0.0888722
-0.0504825
-0.0496847
0.101209
-0.000466281
0.00238291
0.00341132
-0.0193952
0.0123479
-0.0449382
0.0242609
-0.0602137
0.0373047
-0.0662023
0.0505113
-0.0672182
0.0634951
-0.0661982
0.0761397
-0.0645322
0.0884406
-0.0627833
-0.0618304
0.100586
-0.000244831
0.00262774
0.00393331
-0.0235733
0.0130104
-0.0540153
0.024881
-0.0720843
0.037764
-0.0790853
0.0507536
-0.0802078
0.0635018
-0.0789465
0.07591
-0.0769404
0.0879838
-0.0748572
-0.073746
0.0998994
2.08845e-06
0.00262565
0.00457445
-0.0281457
0.0138273
-0.0632681
0.0256441
-0.0839012
0.0383328
-0.091774
0.0510678
-0.0929428
0.0635487
-0.0914274
0.0756986
-0.0890902
0.0875307
-0.0866893
-0.0853971
0.0991819
0.000370203
0.00225544
0.0053663
-0.0331418
0.0147887
-0.0726905
0.0265118
-0.0956243
0.038953
-0.104215
0.0513848
-0.105375
0.0635667
-0.103609
0.0754496
-0.100973
0.0870485
-0.0982882
-0.0967379
0.0983893
0.000786601
0.00146884
0.00624475
-0.0386
0.0158105
-0.0822562
0.0273706
-0.107184
0.0394773
-0.116322
0.0515205
-0.117418
0.0633306
-0.115419
0.0748954
-0.112538
0.0862234
-0.109616
-0.107615
0.097101
0.00120991
0.000258929
0.0070971
-0.0444871
0.0167124
-0.0918715
0.027975
-0.118447
0.0395881
-0.127935
0.0510613
-0.128891
0.0622896
-0.126648
0.0732849
-0.123533
0.0840251
-0.120356
-0.117563
0.0939732
0.00160181
0.00782642
0.0173448
0.0281214
0.0390109
0.0496269
0.059906
0.0698574
0.0794061
0.0877535
0.155056
-0.151698
0.0987657
0.181407
-0.107857
0.0815067
0.194608
-0.0806195
0.0674181
0.201115
-0.0609993
0.0544931
0.204055
-0.046013
0.0430727
0.204964
-0.0341857
0.0332771
0.204681
-0.0247144
0.0249966
0.203666
-0.0169574
0.0179726
0.202194
-0.0108573
0.012329
-0.00318139
0.00509564
0.153861
-0.20383
0.180389
-0.134385
0.193886
-0.0941157
0.200649
-0.067763
0.203791
-0.0491549
0.204861
-0.0352558
0.204715
-0.0245681
0.203822
-0.0160647
0.202468
-0.00950307
-0.0013904
0.151863
-0.254484
0.178476
-0.160998
0.192321
-0.107961
0.199439
-0.0748812
0.202895
-0.0526105
0.204249
-0.0366101
0.204366
-0.0246851
0.203727
-0.0154257
0.202623
-0.0083993
0.000142575
0.149051
-0.302948
0.175654
-0.187601
0.189913
-0.12222
0.197487
-0.0824553
0.201371
-0.0564942
0.203131
-0.0383698
0.203637
-0.0251916
0.203382
-0.0151702
0.20266
-0.00767781
0.00128288
0.145431
-0.34848
0.171916
-0.214087
0.186665
-0.136969
0.194799
-0.0905894
0.199226
-0.0609212
0.201512
-0.0406561
0.202531
-0.0262106
0.202784
-0.015423
0.202575
-0.00746885
0.00189658
0.140992
-0.39029
0.167244
-0.240339
0.18258
-0.152305
0.191385
-0.0993936
0.196471
-0.0660076
0.199402
-0.0435869
0.201057
-0.0278662
0.201944
-0.01631
0.202372
-0.00789633
0.00185469
0.135654
-0.427555
0.161585
-0.26627
0.177647
-0.168367
0.187251
-0.108997
0.193118
-0.0718752
0.196811
-0.0472796
0.19922
-0.030275
0.200861
-0.0179509
0.202049
-0.00908505
0.0010289
0.129293
-0.459747
0.154796
-0.291773
0.17179
-0.185361
0.182383
-0.11959
0.189173
-0.0786658
0.193751
-0.0518575
0.19703
-0.0335537
0.199541
-0.0204616
0.201609
-0.0111529
-0.000702824
0.12195
-0.487723
0.146643
-0.316466
0.164783
-0.203502
0.176669
-0.131475
0.184595
-0.0865927
0.190213
-0.057475
0.194491
-0.0378317
0.197988
-0.023959
0.201051
-0.0142156
-0.00346084
0.114603
-0.514573
0.138313
-0.340175
0.156856
-0.222045
0.170053
-0.144672
0.179319
-0.0958586
0.186164
-0.0643199
0.191592
-0.0432598
0.196204
-0.028571
0.200376
-0.0183871
-0.00735686
0.376494
-0.455596
-0.435472
0.345315
-0.308996
0.329684
-0.206414
0.322271
-0.137259
0.318412
-0.0919992
0.316103
-0.0620106
0.314565
-0.0417226
0.313515
-0.0275211
0.312809
-0.0176811
-0.0070621
0.388967
-0.386548
-0.458015
0.354734
-0.274762
0.337429
-0.18911
0.328141
-0.127971
0.322577
-0.086435
0.319001
-0.0584353
0.31661
-0.039331
0.315011
-0.0259219
0.313967
-0.0166376
-0.00663789
0.404809
-0.32238
-0.468978
0.367817
-0.23777
0.346608
-0.167901
0.334322
-0.115685
0.326742
-0.0788546
0.32184
-0.0535337
0.318591
-0.0360819
0.316447
-0.0237778
0.315066
-0.015257
-0.00608542
0.415057
-0.262872
-0.474565
0.37743
-0.200142
0.354115
-0.144587
0.339687
-0.101257
0.33047
-0.069638
0.324422
-0.0474851
0.320404
-0.0320643
0.317764
-0.0211382
0.316074
-0.0135664
-0.00541173
0.422229
-0.20818
-0.476921
0.384943
-0.162856
0.360313
-0.119957
0.344264
-0.0852076
0.333714
-0.0590878
0.326694
-0.0404656
0.322009
-0.0273785
0.318933
-0.0180626
0.316966
-0.0115988
-0.00462833
0.427136
-0.157887
-0.47743
0.390621
-0.126341
0.36524
-0.0945758
0.348024
-0.0679914
0.33643
-0.0474944
0.328619
-0.0326539
0.323376
-0.022136
0.31993
-0.0146168
0.317723
-0.00939174
-0.00374914
0.43037
-0.111227
-0.477029
0.394738
-0.0907094
0.368972
-0.0688096
0.350952
-0.049971
0.338579
-0.0351221
0.330155
-0.0242296
0.324473
-0.0164544
0.320732
-0.010875
0.318331
-0.00699132
-0.00279071
0.43204
-0.0669938
-0.476274
0.397196
-0.0558651
0.371327
-0.0429411
0.352838
-0.0314815
0.339954
-0.0222381
0.331111
-0.0153867
0.325123
-0.0104669
0.321173
-0.00692506
0.318631
-0.00444958
-0.00177288
0.426271
-0.0216745
-0.471591
0.392168
-0.0217618
0.366941
-0.0177144
0.348737
-0.013277
0.335941
-0.00944255
0.327111
-0.00655671
0.321117
-0.00447251
0.317161
-0.00296861
0.314614
-0.00190348
-0.00075417
0.319049
-0.340723
0.297287
0.279572
0.266296
0.256853
0.250296
0.245824
0.242855
0.240952
0.469304
0.0122513
-0.467717
0.470124
0.02443
0.470055
0.0362114
0.468983
0.0473929
0.466633
0.0579428
0.463635
0.0667673
0.45753
0.0777003
0.45401
0.0798771
0.441959
0.0974456
0.0895747
0.450662
0.0107185
-0.449129
0.452264
0.0228277
0.453865
0.03461
0.455484
0.0457744
0.456725
0.0567018
0.458271
0.0652217
0.458415
0.0775561
0.459634
0.0786575
0.460257
0.0968233
0.0918164
0.434462
0.0091228
-0.432866
0.436693
0.0205969
0.439482
0.0318209
0.442824
0.0424319
0.446545
0.0529815
0.450673
0.0610934
0.455305
0.0729245
0.459221
0.0747414
0.465402
0.0906418
0.0882407
0.422098
0.00751467
-0.42049
0.424689
0.0180062
0.42822
0.0282902
0.432645
0.0380068
0.437974
0.047652
0.443826
0.0552414
0.451138
0.0656124
0.45759
0.0682892
0.466971
0.0812614
0.080647
0.412411
0.00590102
-0.410798
0.415268
0.0151495
0.419336
0.0242218
0.424535
0.0328085
0.430944
0.0412428
0.438093
0.048092
0.446993
0.0567124
0.455454
0.0598283
0.466709
0.0700069
0.0704349
0.405095
0.00426035
-0.403454
0.408148
0.0120963
0.412585
0.0197847
0.418319
0.0270746
0.425419
0.0341432
0.433475
0.0400357
0.443278
0.0469095
0.453124
0.0499826
0.465467
0.0576634
0.0584724
0.399771
0.00257808
-0.398088
0.402991
0.00887619
0.407708
0.0150679
0.41383
0.0209519
0.421384
0.0265896
0.430053
0.0313662
0.440368
0.0365945
0.451117
0.0392336
0.46402
0.0447613
0.0454628
0.395378
0.000699488
-0.393499
0.398866
0.0053877
0.403935
0.00999913
0.41049
0.0143969
0.41849
0.0185894
0.427683
0.0221737
0.438338
0.0259396
0.449674
0.0278968
0.462791
0.0316449
0.0319801
0.378908
-0.00123603
-0.376972
0.382939
0.00135706
0.388969
0.00396879
0.396821
0.00654454
0.406352
0.0090589
0.417235
0.0112899
0.429546
0.0136288
0.442532
0.0149111
0.45693
0.0172466
0.0173199
0.245398
-0.246634
0.246755
0.250724
0.257268
0.266327
0.277617
0.291246
0.306157
0.323403
0.0801878
0.127972
-0.115257
-0.0929026
0.0685553
0.129781
-0.118148
0.0579107
0.132576
-0.121931
0.047761
0.136202
-0.126052
0.0377187
0.14026
-0.130218
0.0276248
0.144247
-0.134153
0.0176495
0.146108
-0.136132
0.00861227
0.138667
-0.129629
0.00220645
0.108066
-0.10166
0.0459588
-0.0437523
0.0805331
0.139198
-0.091759
0.0690521
0.141262
0.0579776
0.14365
0.047354
0.146825
0.036995
0.150619
0.0267851
0.154457
0.0168888
0.156004
0.00809598
0.14746
0.00200133
0.11416
0.0479601
0.0720317
0.148256
-0.0810899
0.0624818
0.150812
0.0527564
0.153376
0.0430418
0.15654
0.0333763
0.160285
0.0237956
0.164038
0.014569
0.16523
0.00656498
0.155464
0.00133354
0.119392
0.0492936
0.0598347
0.155344
-0.0669225
0.0523268
0.158319
0.0443938
0.161309
0.0361591
0.164775
0.0277384
0.168706
0.0192744
0.172502
0.0111591
0.173346
0.0043842
0.162239
0.000462727
0.123313
0.0497564
0.0479711
0.161113
-0.0537399
0.0418958
0.164395
0.0354045
0.1678
0.0285513
0.171628
0.0214357
0.175821
0.0142282
0.17971
0.0073977
0.180176
0.0020282
0.167608
-0.00047261
0.125814
0.0492838
0.0373262
0.166019
-0.0422328
0.0322171
0.169504
0.0268022
0.173215
0.0211002
0.17733
0.0151777
0.181744
0.00919902
0.185688
0.0036514
0.185724
-0.000374285
0.171634
-0.0013691
0.126809
0.0479147
0.0272815
0.170159
-0.0314211
0.0230215
0.173764
0.0185681
0.177668
0.0139301
0.181968
0.00916008
0.186514
0.00443803
0.19041
0.00022415
0.189938
-0.00228531
0.174143
-0.00201299
0.126537
0.0459017
0.0172449
0.173417
-0.0205034
0.0139077
0.177101
0.0104443
0.181132
0.00686219
0.18555
0.00321336
0.190163
-0.000334526
0.193958
-0.00308058
0.192684
-0.00416621
0.175229
-0.00257451
0.124945
0.0433272
0.0070198
0.175673
-0.00927559
0.00471998
0.179401
0.00235604
0.183496
-6.73698e-05
0.187973
-0.00251478
0.19261
-0.00473526
0.196179
-0.00626142
0.19421
-0.00597029
0.174938
-0.00316383
0.122138
0.0401633
-0.00332199
0.00220573
-0.00448279
-0.00569753
-0.00694611
-0.00815718
-0.00912296
-0.00922506
-0.00749959
-0.00360336
0.103339
0.0237296
-0.11462
-0.0124489
0.0917276
0.0243531
-0.0127418
0.0797467
0.02503
-0.0130491
0.0673818
0.0257444
-0.0133795
0.0546272
0.0264924
-0.0137378
0.041487
0.0272544
-0.0141142
0.0280932
0.0277985
-0.0144047
0.0151637
0.0270411
-0.0141116
0.00474132
0.0223366
-0.0119142
0.0107218
-0.00598044
0.102577
0.0349937
-0.113841
0.0909967
0.0359333
0.0790619
0.0369647
0.0667578
0.0380485
0.0540776
0.0391726
0.0410255
0.0403065
0.0277366
0.0410875
0.0149329
0.0398447
0.00464882
0.0326207
0.0153706
0.101479
0.0462248
-0.11271
0.0899518
0.0474608
0.0780895
0.048827
0.0658764
0.0502615
0.0533045
0.0517445
0.040378
0.0532329
0.0272373
0.0542282
0.0146112
0.0524708
0.00451738
0.0427146
0.019888
0.0999337
0.0573961
-0.111105
0.0884925
0.058902
0.0767414
0.0605781
0.064662
0.0623409
0.0522442
0.0641624
0.0394924
0.0659847
0.026554
0.0671667
0.0141726
0.0648522
0.0043389
0.0525482
0.0242269
0.0977843
0.0684631
-0.108851
0.0864863
0.0701999
0.074912
0.0721525
0.0630358
0.074217
0.0508414
0.0763568
0.0383316
0.0784945
0.0256624
0.0798359
0.013593
0.0769216
0.00410058
0.0620407
0.0283275
0.0948691
0.0793459
-0.105752
0.0837906
0.0812784
0.0724645
0.0834786
0.0608644
0.0858172
0.0489721
0.0882491
0.0367911
0.0906755
0.0244868
0.0921402
0.0128349
0.0885734
0.00379184
0.0710838
0.0321193
0.0910768
0.0898515
-0.101582
0.0804412
0.091914
0.0695697
0.09435
0.0584036
0.0969833
0.0469184
0.0997343
0.0351294
0.102464
0.0232316
0.104038
0.0120372
0.0997679
0.00348089
0.07964
0.0356002
0.0851007
0.0998237
-0.0950729
0.0750282
0.101987
0.0647951
0.104583
0.0543369
0.107441
0.0435868
0.110484
0.0325265
0.113525
0.0213473
0.115217
0.010876
0.110239
0.00301572
0.0875003
0.0386159
0.082232
0.108366
-0.0907743
0.073151
0.111068
0.0633932
0.114341
0.0531035
0.117731
0.0424231
0.121165
0.031458
0.12449
0.020466
0.126209
0.0103027
0.120402
0.00281468
0.0949884
0.0414306
0.0698522
-0.0767435
0.0627717
0.0551813
0.0468605
0.0378072
0.0281435
0.0182203
0.00899328
0.00232173
0.202116
0.0130329
-0.0171589
0.204575
0.028245
-0.0307042
0.20498
0.0341748
-0.0345797
0.205951
0.0357929
-0.0367641
0.205041
0.0423888
-0.0414786
0.202513
0.051022
-0.0484945
0.196429
0.0637395
-0.0576548
0.185637
0.0804751
-0.069683
0.159808
0.108492
-0.0826629
0.144349
-0.0991605
0.201849
0.00917411
0.204173
0.0259203
0.20453
0.0338177
0.205438
0.034885
0.204446
0.0433814
0.201783
0.053685
0.195554
0.0699682
0.18445
0.0915791
0.158685
0.134257
0.189193
0.201453
0.00571048
0.203501
0.0238725
0.203716
0.033603
0.204418
0.0341834
0.203219
0.0445798
0.200299
0.0566049
0.193843
0.0764244
0.182313
0.103109
0.156789
0.159781
0.233272
0.200927
0.00277355
0.202564
0.0222353
0.202548
0.0336184
0.2029
0.0338315
0.201375
0.0461055
0.198078
0.0599011
0.191299
0.0832033
0.17921
0.115199
0.154164
0.184826
0.276331
0.200262
0.000501403
0.201364
0.0211333
0.201042
0.0339407
0.200898
0.0339748
0.198928
0.0480757
0.195139
0.06369
0.187936
0.0904072
0.175103
0.128031
0.150894
0.209035
0.318374
0.199453
-0.000961783
0.199908
0.0206784
0.199211
0.0346379
0.198424
0.0347614
0.195902
0.0505981
0.191502
0.068089
0.183765
0.098145
0.169999
0.141797
0.147018
0.232016
0.35964
0.198496
-0.00146768
0.198205
0.0209689
0.197075
0.0357681
0.195491
0.0363453
0.192318
0.0537718
0.187185
0.0732215
0.17878
0.106551
0.164032
0.156544
0.142567
0.253481
0.400625
0.197385
-0.000862524
0.196266
0.0220877
0.194655
0.0373787
0.192114
0.0388868
0.188203
0.0576826
0.182204
0.0792199
0.172939
0.115816
0.157125
0.172358
0.136696
0.27391
0.442248
0.196132
0.000995388
0.194118
0.0241012
0.191978
0.0395193
0.18831
0.042555
0.183594
0.0623983
0.176639
0.0861751
0.166525
0.125929
0.150587
0.188297
0.131863
0.292633
0.483337
0.194848
0.00413743
0.191844
0.0271054
0.189044
0.0423188
0.184042
0.0475573
0.178323
0.0681171
0.169871
0.0946267
0.157835
0.137966
0.140233
0.205899
0.120544
0.312321
0.527138
0.30331
0.00283789
0.306773
0.0236418
0.31036
0.0387316
0.312931
0.0449867
0.31582
0.0652285
0.319263
0.0911838
0.324836
0.132392
0.335884
0.194852
0.36064
0.287565
0.461557
0.426221
0.304208
0.000639805
0.30787
0.0199801
0.312115
0.034487
0.315435
0.0416659
0.319762
0.0609015
0.325356
0.0855897
0.334304
0.123445
0.349972
0.179183
0.37981
0.257727
0.397396
0.443971
0.305093
-0.00244269
0.309178
0.0158947
0.313849
0.0298165
0.31794
0.0375751
0.323483
0.0553585
0.330919
0.0781535
0.342499
0.111865
0.361064
0.160618
0.394712
0.224079
0.335164
0.456943
0.305997
-0.00642941
0.310554
0.0113376
0.315528
0.024843
0.320314
0.0327888
0.326881
0.0487917
0.33586
0.0691739
0.34946
0.0982652
0.370209
0.139869
0.405202
0.189086
0.276059
0.464307
0.306978
-0.0113972
0.311998
0.00631713
0.317131
0.0197104
0.322485
0.0274353
0.329887
0.0413896
0.340115
0.0589459
0.355217
0.0831626
0.377585
0.117501
0.412349
0.154323
0.220578
0.46783
0.308093
-0.01748
0.313553
0.000856766
0.318642
0.0146222
0.324403
0.0216741
0.332455
0.0333372
0.34365
0.0477506
0.359838
0.0669748
0.383317
0.0940227
0.41713
0.12051
0.168672
0.469035
0.309383
-0.024853
0.315269
-0.00502879
0.320029
0.00986173
0.326023
0.0156805
0.334553
0.0248069
0.346457
0.0358472
0.363396
0.0500355
0.387555
0.0698636
0.42026
0.0878051
0.119965
0.468967
0.311029
-0.0338721
0.317169
-0.0111686
0.321179
0.00585203
0.327194
0.009665
0.336037
0.0159643
0.348426
0.0234585
0.365879
0.0325819
0.390401
0.0453423
0.422187
0.056019
0.0739843
0.468167
0.309615
-0.0414772
0.315
-0.0165537
0.318014
0.00283848
0.324121
0.00355783
0.333099
0.00698606
0.3458
0.0107581
0.363601
0.014781
0.388233
0.0207098
0.419585
0.0246675
0.0322974
0.461272
0.260533
0.243979
0.246818
0.250376
0.257362
0.26812
0.282901
0.303611
0.328278
0.360575
0.439179
-0.105861
0.44385
-0.0964295
0.445768
-0.0830079
0.447883
-0.0690376
0.450966
-0.0568228
0.454734
-0.0460009
0.458657
-0.0353443
0.462289
-0.0241358
0.465344
-0.0123297
-0.000167516
0.443904
-0.105793
0.442171
-0.0946973
0.441058
-0.0818942
0.441518
-0.0694981
0.442801
-0.0581061
0.44415
-0.0473494
0.445363
-0.0365578
0.446539
-0.0253117
0.447784
-0.0135745
-0.00151244
0.450559
-0.0994082
0.44504
-0.0891788
0.440541
-0.0773953
0.43723
-0.0661872
0.434848
-0.0557239
0.433142
-0.0456432
0.432074
-0.0354895
0.431672
-0.02491
0.43194
-0.013843
-0.00243829
0.453843
-0.0889441
0.444903
-0.0802387
0.437545
-0.0700376
0.431777
-0.0604191
0.427385
-0.0513313
0.424077
-0.0423353
0.421717
-0.0331297
0.420308
-0.0235011
0.419892
-0.013427
-0.00303656
0.455092
-0.0762059
0.444079
-0.0692262
0.434937
-0.0608958
0.4275
-0.0529816
0.421561
-0.0453921
0.416932
-0.0377067
0.413528
-0.0297261
0.411359
-0.0213313
0.410447
-0.0125158
-0.00338701
0.455047
-0.0622172
0.442734
-0.0569135
0.43236
-0.050522
0.423766
-0.0443877
0.416775
-0.0384008
0.411265
-0.0321966
0.407174
-0.0256352
0.404498
-0.0186554
0.403254
-0.0112713
-0.0035876
0.454246
-0.0474965
0.441136
-0.0438035
0.429987
-0.0393725
0.420668
-0.0350684
0.413014
-0.0307473
0.406939
-0.0261213
0.402401
-0.0210973
0.399402
-0.0156567
0.397962
-0.0098315
-0.0037137
0.4528
-0.03213
0.439084
-0.030087
0.427396
-0.0276845
0.417581
-0.0252537
0.409471
-0.0226374
0.402992
-0.0196422
0.398125
-0.0162302
0.394896
-0.0124271
0.393344
-0.00828023
-0.00386851
0.444415
-0.0152735
0.429574
-0.0152459
0.416828
-0.0149383
0.405944
-0.0143698
0.396734
-0.0134276
0.389155
-0.0120627
0.383274
-0.0103497
0.379212
-0.00836543
0.377088
-0.00615604
-0.00375272
0.345302
0.330056
0.315118
0.300748
0.28732
0.275258
0.264908
0.256543
0.250387
0.0105118
0.0461536
-0.0566654
0.0213575
0.151219
-0.162065
0.0257775
0.219275
-0.223695
0.0252753
0.245067
-0.244565
0.0224771
0.249507
-0.246708
0.0189827
0.247064
-0.243569
0.015311
0.243273
-0.239601
0.0115209
0.238966
-0.235176
0.007619
0.231931
-0.228029
0.214348
0.00419393
-0.210923
0.0120183
0.0341353
0.0271603
0.136077
0.0366169
0.209818
0.0407502
0.240934
0.0422252
0.248032
0.042911
0.246378
0.0435294
0.242654
0.0439947
0.238501
0.0433022
0.232623
0.218661
0.03899
0.0122068
0.0219285
0.0302917
0.117993
0.0442422
0.195868
0.0530642
0.232112
0.0590097
0.242086
0.0640458
0.241342
0.0691115
0.237589
0.0742637
0.233349
0.0783681
0.228519
0.219753
0.077276
0.0110853
0.0108432
0.0301883
0.0988895
0.0473921
0.178664
0.0604069
0.219097
0.0706571
0.231836
0.0799083
0.23209
0.089207
0.22829
0.0988662
0.22369
0.108361
0.219024
0.213409
0.114705
0.00897493
0.00186826
0.0271073
0.0807571
0.0458912
0.15988
0.0620812
0.202907
0.0760547
0.217862
0.0890672
0.219078
0.10207
0.215287
0.115516
0.210244
0.12942
0.20512
0.199874
0.142955
0.00638103
-0.00451277
0.0220085
0.0651296
0.0406697
0.141219
0.0586602
0.184917
0.0753213
0.201201
0.0912037
0.203195
0.106967
0.199525
0.123032
0.194178
0.139632
0.18852
0.182409
0.157096
0.00384987
-0.00836264
0.0162974
0.0526821
0.0336089
0.123907
0.0520834
0.166442
0.0702272
0.183057
0.0878702
0.185553
0.105268
0.182127
0.122685
0.176761
0.140264
0.17094
0.164231
0.158442
0.00175732
-0.01012
0.0111485
0.0432909
0.0265165
0.108539
0.0444315
0.148527
0.06285
0.164639
0.0810125
0.16739
0.0987864
0.164353
0.116236
0.159312
0.133543
0.153633
0.147142
0.150633
0.000258029
-0.010378
0.00736227
0.0361867
0.0209118
0.0949898
0.0378814
0.131558
0.0559914
0.146529
0.0741442
0.149237
0.0919729
0.146525
0.109426
0.141859
0.12657
0.136489
0.129593
0.144119
-0.000489441
-0.00988855
0.0049434
0.0307538
0.0168678
0.0830654
0.032555
0.115871
0.0496163
0.129468
0.0667263
0.132127
0.0832966
0.129954
0.0991101
0.126046
0.113887
0.121711
0.116033
0.127447
-0.000820111
-0.00906844
0.00370969
0.026224
0.0145786
0.0721965
0.0293139
0.101135
0.045594
0.113187
0.0620938
0.115627
0.078223
0.113825
0.0937809
0.110488
0.108707
0.106786
0.103616
0.121123
-0.000935716
-0.00813272
0.00314227
0.022146
0.0133423
0.0619965
0.0273551
0.0871225
0.0429499
0.0975927
0.0588436
0.0997336
0.0744641
0.0982046
0.0896112
0.0953406
0.104275
0.0921217
0.0902392
0.117652
-0.000988735
-0.00714398
0.00278665
0.0183706
0.0124693
0.0523138
0.0258427
0.0737491
0.0407488
0.0826866
0.0559478
0.0845347
0.0708847
0.0832677
0.0853548
0.0808705
0.0993131
0.0781634
0.0769065
0.112646
-0.00101092
-0.00613306
0.00255226
0.0148075
0.0118523
0.0430138
0.0247304
0.0608709
0.0390842
0.0683329
0.0537124
0.0699064
0.0680765
0.0689035
0.0819713
0.0669756
0.0953308
0.064804
0.0639003
0.108337
-0.00101121
-0.00512186
0.00240996
0.0113863
0.0114478
0.033976
0.023984
0.0483347
0.0379567
0.0543602
0.0521977
0.0556654
0.0661887
0.0549126
0.0797365
0.0534278
0.0927821
0.0517584
0.0511082
0.105574
-0.00100306
-0.00411879
0.00232428
0.00805896
0.0111899
0.0251104
0.0235064
0.0360182
0.0372406
0.0406259
0.051249
0.0416571
0.0650306
0.0411309
0.0784048
0.0400536
0.091323
0.0388402
0.0384056
0.104026
-0.000989835
-0.00312896
0.00228228
0.00478685
0.0110421
0.0163505
0.023226
0.0238343
0.036821
0.0270309
0.0506993
0.0277787
0.0643726
0.0274577
0.0776687
0.0267575
0.0905452
0.0259637
0.0257276
0.103223
-0.000970108
-0.00215885
0.00228005
0.00153669
0.0109821
0.00764844
0.0230892
0.0117273
0.0366032
0.013517
0.0504079
0.013974
0.0640237
0.0138419
0.0772843
0.013497
0.0901509
0.013097
0.0130493
0.102829
-0.000940235
-0.00121862
0.00231794
-0.00172149
0.0109962
-0.00102986
0.0230578
-0.000334285
0.0365175
5.72016e-05
0.0502703
0.000221174
0.063844
0.000268235
0.0770767
0.000264237
0.0899327
0.000241023
0.000374334
0.102608
-0.000900089
0.0023959
0.0110768
0.0231084
0.0365198
0.0502184
0.0637407
0.0769297
0.0897528
0.102402
0.137493
0.284878
-0.301248
0.149534
0.120599
-0.13264
0.159379
0.0409686
-0.0508128
0.167113
0.00485516
-0.0125899
0.173499
-0.00894311
0.00255707
0.179143
-0.0129896
0.00734616
0.184307
-0.012913
0.00774837
0.189098
-0.0112195
0.00642872
0.193572
-0.00915504
0.0046812
-0.00596771
0.0019627
0.13974
0.262791
0.15555
0.104788
0.166335
0.0301839
0.173616
-0.00242572
0.179155
-0.0144827
0.183789
-0.0176228
0.187868
-0.0169928
0.191531
-0.0148823
0.194862
-0.0124859
-0.00884146
0.142286
0.23315
0.160952
0.0861222
0.172216
0.0189197
0.179238
-0.00944768
0.18416
-0.0194045
0.187972
-0.021435
0.191105
-0.0201258
0.193762
-0.0175387
0.196066
-0.0147903
-0.0106938
0.145139
0.196348
0.165838
0.0654236
0.177486
0.00727158
0.184292
-0.016254
0.18866
-0.0237719
0.191732
-0.0245076
0.194024
-0.0224172
0.195788
-0.0193033
0.197182
-0.0161843
-0.0116381
0.147942
0.153981
0.170179
0.043186
0.18211
-0.00465946
0.188719
-0.0228625
0.192619
-0.0276719
0.195053
-0.0269415
0.196614
-0.0239788
0.197604
-0.0202934
0.198207
-0.0167868
-0.0117919
0.150461
0.107545
0.173907
0.01974
0.186069
-0.0168213
0.192514
-0.0293074
0.196021
-0.0311791
0.197918
-0.0288385
0.198865
-0.0249256
0.199202
-0.02063
0.199135
-0.0167205
-0.0112773
0.152571
0.0581969
0.176961
-0.00464914
0.189322
-0.0291831
0.195646
-0.0356314
0.198845
-0.0343777
0.200313
-0.0303064
0.200764
-0.0253769
0.200572
-0.0204378
0.199963
-0.0161117
-0.0102201
0.154169
0.00685711
0.179286
-0.0297658
0.191831
-0.0417288
0.198091
-0.0418906
0.201073
-0.03736
0.202224
-0.0314575
0.202303
-0.0254555
0.201709
-0.0198443
0.200687
-0.0150893
-0.00874937
0.155158
-0.0456928
0.180828
-0.0554361
0.193565
-0.0544662
0.199827
-0.0481521
0.202691
-0.040224
0.203641
-0.032408
0.203472
-0.0252864
0.202607
-0.0189788
0.201301
-0.013784
-0.00699653
0.155475
0.181545
0.194497
0.200838
0.203687
0.204556
0.204266
0.20326
0.201805
0.114788
-0.0015431
-0.113245
0.110866
0.00392193
0.108175
0.00269179
0.107828
0.000346117
0.108692
-0.000863568
0.109845
-0.00115324
0.11091
-0.00106459
0.111749
-0.000838967
0.112329
-0.000580203
-0.000231388
0.234582
0.0718843
-0.30801
0.202063
0.0364412
0.189858
0.0148971
0.186535
0.00366845
0.1867
-0.00102865
0.188058
-0.00251046
0.189591
-0.00259822
0.190894
-0.00214163
0.191853
-0.00153882
-0.000634372
0.24858
0.156664
-0.33336
0.213422
0.0715983
0.200136
0.0281832
0.196468
0.00733656
0.196591
-0.00115189
0.19801
-0.00392946
0.19963
-0.00421815
0.201015
-0.0035261
0.202042
-0.00256634
-0.00107023
0.24329
0.234214
-0.320839
0.211424
0.103464
0.199608
0.0399994
0.19663
0.0103143
0.197106
-0.00162792
0.198696
-0.00551976
0.200405
-0.00592662
0.20183
-0.0049514
0.202876
-0.00361258
-0.00151279
0.238149
-0.305183
0.208973
0.198159
0.195884
0.196813
0.198639
0.200461
0.201938
0.203007
0.0109894
0.000791735
-0.0117812
0.0110736
-8.4118e-05
0.0115616
-0.000488052
0.0121889
-0.000627237
0.0140433
-0.00185448
0.018964
-0.00492063
0.0319517
-0.0129877
0.0502599
-0.0183082
0.0817096
-0.0314497
-0.0315355
0.0328316
0.00178718
-0.033827
0.0358857
-0.00313829
0.0437034
-0.0083057
0.0585461
-0.01547
0.0833964
-0.0267048
0.120177
-0.0417014
0.167789
-0.0605997
0.217485
-0.0680042
0.269038
-0.0830029
-0.0705068
0.0552723
0.00168864
-0.0551738
0.0630886
-0.0109546
0.0805833
-0.0258004
0.110263
-0.0451499
0.151766
-0.0682071
0.200007
-0.0899428
0.245667
-0.106259
0.282712
-0.105049
0.311866
-0.112157
-0.0920008
0.0763053
-0.000266966
-0.0743497
0.0887694
-0.0234186
0.113348
-0.0503791
0.149194
-0.0809959
0.19049
-0.109503
0.229217
-0.12867
0.259059
-0.136101
0.283732
-0.129722
0.302924
-0.131349
-0.109916
0.0935742
-0.0896473
0.109146
0.136043
0.169751
0.203203
0.23163
0.253971
0.274881
0.287652
0.0916232
-0.0877792
0.0973395
-0.101183
0.0826317
-0.0907125
0.099704
0.0735095
-0.0943406
0.103463
0.0635986
-0.098028
0.107939
0.0526525
-0.101596
0.112542
0.0406898
-0.105007
0.116969
0.0279608
-0.10727
0.119999
0.0153077
-0.103632
0.116285
0.0048708
-0.0834441
0.093881
-0.0378415
0.0427123
0.104216
-0.0779538
-0.114041
0.0936831
-0.0801797
0.0821329
-0.0827905
0.0697083
-0.0856034
0.0566446
-0.088532
0.043106
-0.0914682
0.029296
-0.0934602
0.0159519
-0.090288
0.00510762
-0.0725998
-0.0327339
0.101838
-0.0667644
-0.113027
0.0903765
-0.0687182
0.0786295
-0.0710435
0.0665637
-0.0735376
0.0541136
-0.0760819
0.0412285
-0.0785831
0.0280106
-0.0802424
0.0151703
-0.0774476
0.00475379
-0.0621833
-0.0279801
0.103643
-0.0554845
-0.114923
0.0921252
-0.0572001
0.0802563
-0.0591746
0.0679633
-0.0612445
0.0552158
-0.0633344
0.0420186
-0.0653859
0.0285168
-0.0667406
0.0154485
-0.0643793
0.00486742
-0.0516023
-0.0231127
0.104201
-0.044126
-0.11556
0.0925355
-0.0455343
0.0805029
-0.0471421
0.0680753
-0.048817
0.0552409
-0.0505
0.0420013
-0.0521463
0.0284871
-0.0532264
0.0154192
-0.0513114
0.00484012
-0.0410231
-0.0182726
0.104436
-0.032778
-0.115784
0.0927621
-0.0338609
0.080714
-0.0350939
0.068266
-0.036369
0.0554063
-0.0376403
0.0421369
-0.0388768
0.0285898
-0.0396793
0.0154836
-0.0382052
0.00487025
-0.0304098
-0.0134023
0.104496
-0.0214523
-0.115822
0.0928283
-0.0221928
0.0807742
-0.0230398
0.0683152
-0.02391
0.0554443
-0.0247693
0.0421654
-0.025598
0.0286089
-0.0261228
0.01549
-0.0250863
0.00487048
-0.0197903
-0.00853184
0.104425
-0.0101397
-0.115737
0.0927647
-0.0105326
0.0807162
-0.0109914
0.0682632
-0.0114571
0.0553999
-0.011906
0.0421303
-0.0123284
0.0285841
-0.0125766
0.0154761
-0.0119784
0.00486579
-0.00917993
-0.00366605
0.104207
0.00115815
-0.115505
0.0925618
0.00111227
0.0805297
0.00104075
0.0680957
0.000976964
0.0552548
0.000934958
0.0420114
0.000915017
0.0284951
0.000939672
0.0154206
0.00109611
0.00484302
0.00139766
0.00117697
0.103843
-0.115134
0.0922134
0.0802051
0.0678026
0.0549998
0.0418006
0.0283355
0.01532
0.00480347
0.0256481
-0.208319
-0.0282525
0.0193799
-0.221761
0.0121005
-0.227897
0.00475618
-0.232257
-0.00235048
-0.236463
-0.00885474
-0.240204
-0.0135295
-0.239891
-0.0140142
-0.22321
-0.00799803
-0.168081
-0.0646634
0.0554995
-0.203664
-0.0601548
0.0464682
-0.212729
0.0362569
-0.217685
0.0259772
-0.221977
0.0159519
-0.226437
0.00648813
-0.23074
-0.00152406
-0.231878
-0.00611596
-0.218618
-0.00506291
-0.169134