/*--------------------------------*- C++ -*----------------------------------*\
  =========                 |
  \\      /  F ield         | OpenFOAM: The Open Source CFD Toolbox
   \\    /   O peration     | Website:  https://openfoam.org
    \\  /    A nd           | Version:  13
     \\/     M anipulation  |
\*---------------------------------------------------------------------------*/
FoamFile
{
    format      ascii;
    class       volScalarField;
    location    "0.735";
    object      p;
}
// * * * * * * * * * * * * * * * * * * * * * * * * * * * * * * * * * * * * * //

dimensions      [0 2 -2 0 0 0 0];

internalField   nonuniform List<scalar> 
1800
(
5.74748
7.85457
10.0074
11.4358
12.2701
12.6807
12.8116
12.654
11.4076
7.31525
9.59684
12.0725
14.5775
16.2615
17.318
17.9807
18.4354
18.6743
17.9497
15.2717
15.989
18.6137
21.2865
23.1497
24.4099
25.2916
25.9424
26.3257
25.8544
24.0232
24.9841
27.5535
30.2019
32.1163
33.4816
34.4907
35.2531
35.705
35.2989
33.6141
36.0426
38.4034
40.8557
42.6672
43.9916
44.9878
45.7423
46.1917
45.8414
44.2858
48.7194
50.772
52.9156
54.5219
55.7128
56.6151
57.2973
57.7079
57.4267
56.0673
62.6678
64.3406
66.0963
67.4283
68.4303
69.1999
69.7913
70.1683
69.9932
68.9045
77.5936
78.8351
80.1462
81.1555
81.9315
82.5453
83.0394
83.3943
83.3609
82.6244
93.2117
93.9914
94.8229
95.4778
96.0006
96.4381
96.8208
97.1442
97.2544
96.92
109.241
109.545
109.877
110.152
110.389
110.61
110.827
111.041
111.202
111.23
-0.605856
-0.85872
-0.635811
-0.220979
0.251851
0.719981
1.07967
1.29056
1.43566
1.58249
-0.477126
-0.993321
-1.10367
-0.897969
-0.474034
-0.0501397
0.242299
0.48473
0.765029
1.03872
0.52543
-0.442996
-1.27675
-1.44308
-1.11612
-0.810742
-0.597786
-0.292714
0.114697
0.500651
0.9192
-0.223055
-1.42269
-1.76167
-1.54149
-1.3886
-1.26444
-0.959709
-0.502849
0.00496576
0.487678
-0.481004
-1.42258
-1.71412
-1.65721
-1.66871
-1.63318
-1.37204
-0.881134
-0.187102
-0.216804
-0.73418
-1.13541
-1.26526
-1.28623
-1.35228
-1.34553
-1.13781
-0.6138
0.318354
-0.553089
-0.515582
-0.339499
-0.193745
-0.109472
-0.089534
-0.0518493
0.117249
0.694401
1.92414
-0.0705229
0.51569
1.23646
1.74074
2.07009
2.28299
2.43197
2.64805
3.37812
5.03999
1.37606
2.48397
3.73232
4.65371
5.3236
5.81575
6.15552
6.49434
7.48077
9.76792
3.61747
5.26034
7.07847
8.45437
9.47704
10.2371
10.7594
11.2122
12.2729
14.4358
2.30091
2.44015
2.33296
2.0876
1.58348
1.18087
0.860368
0.586455
0.350193
0.133678
1.9525
2.41747
2.22958
2.00513
1.50076
1.10181
0.809676
0.569892
0.354186
0.141148
1.47522
2.38841
2.12886
1.91384
1.42629
1.03571
0.764005
0.551321
0.355123
0.147583
0.850473
2.3059
2.02895
1.80829
1.35162
0.977588
0.724861
0.534472
0.349951
0.15176
0.156101
2.12978
1.91825
1.68617
1.27082
0.923063
0.690822
0.519747
0.342464
0.154303
-0.41696
1.8506
1.7795
1.54603
1.18035
0.86928
0.660402
0.506292
0.342004
0.155138
-0.566774
1.50194
1.59958
1.3855
1.07823
0.81432
0.632566
0.493977
0.345756
0.154608
0.161593
1.17247
1.36951
1.19575
0.960941
0.756132
0.605942
0.483489
0.342727
0.150074
2.41788
1.03598
1.06861
0.952228
0.820063
0.692102
0.579575
0.47122
0.330833
0.138428
6.65275
1.40483
0.711051
0.634625
0.648236
0.621196
0.552411
0.453509
0.312215
0.123115
9.97837
2.57482
0.687145
0.392628
0.471825
0.543241
0.515715
0.423506
0.283312
0.101389
11.7633
2.57097
0.265842
0.0593594
0.358378
0.509613
0.480037
0.378577
0.241487
0.0710976
12.8621
2.77772
0.396565
0.155088
0.471655
0.570904
0.480986
0.347329
0.202212
0.0401399
14.1836
4.36565
1.28155
0.729159
0.791081
0.718743
0.523119
0.33399
0.169745
0.0107941
16.3603
7.10942
2.70147
1.59256
1.24181
0.935183
0.607014
0.342674
0.148237
-0.0138945
19.2503
9.87432
4.33398
2.55758
1.77139
1.20131
0.724054
0.37316
0.140343
-0.0312219
21.7542
11.9356
5.85138
3.51726
2.33717
1.49721
0.863337
0.422263
0.14666
-0.0394038
23.0333
13.1186
7.04844
4.41717
2.91063
1.80892
1.01677
0.486299
0.166544
-0.0375888
22.9732
13.4977
7.90918
5.2644
3.4999
2.14422
1.19079
0.569278
0.203641
-0.0240873
22.4203
13.7227
8.68058
6.12549
4.12625
2.52308
1.40764
0.688779
0.277496
0.00683133
111.786
97.8399
84.0752
71.0699
59.1304
48.3502
38.7687
30.0919
20.0806
4.97566
112.766
99.4776
85.9767
72.9702
60.927
50.0461
40.5128
32.2546
23.5894
11.4763
113.297
100.212
87.3318
75.0054
63.4666
52.8746
43.4447
35.2558
27.4693
18.3353
114.51
102.769
90.8106
78.9798
67.6232
57.028
47.3949
38.7945
31.0877
23.8246
115.087
104.076
93.1549
82.4638
72.1168
62.1924
52.73
43.8196
36.0015
29.8226
115.436
104.709
94.2024
84.0406
74.3199
65.0905
56.3311
48.0897
41.0481
36.0311
115.668
105.109
94.7971
84.8649
75.4221
66.5416
58.2328
50.5652
44.2111
40.0916
115.768
105.247
94.9802
85.1087
75.7545
67.0086
58.9048
51.5113
45.3945
41.4348
115.718
105.032
94.6057
84.5866
75.1074
66.2748
58.1446
50.7751
44.5513
40.0984
115.594
104.647
93.9598
83.6823
73.9568
64.9065
56.6117
49.1169
42.6079
37.413
234.122
229.758
228.19
227.749
227.657
227.909
228.643
230.024
232.175
234.314
225.559
222.54
221.491
221.451
221.677
222.162
223.092
224.7
227.171
229.647
216.046
213.871
213.098
213.223
213.654
214.357
215.482
217.252
219.866
222.464
205.739
203.712
203.008
203.204
203.748
204.577
205.801
207.609
210.178
212.697
194.416
192.507
191.852
192.04
192.572
193.383
194.56
196.254
198.609
200.899
182.05
180.325
179.731
179.873
180.326
181.037
182.073
183.55
185.58
187.545
168.704
167.241
166.747
166.85
167.206
167.779
168.618
169.811
171.438
173.009
154.57
153.453
153.098
153.176
153.432
153.844
154.451
155.313
156.484
157.612
139.961
139.247
139.04
139.089
139.235
139.469
139.82
140.321
141.003
141.66
125.436
125.092
124.952
124.905
124.892
124.914
124.981
125.1
125.278
125.454
246.554
246.793
247.045
247.263
247.561
248.062
248.614
248.951
248.956
248.442
246.628
246.959
247.362
247.668
247.868
248.203
248.628
248.543
247.726
246.706
246.638
247.034
247.479
247.79
247.873
248.004
248.286
247.926
246.537
245.282
246.516
247.018
247.448
247.68
247.612
247.498
247.533
247.11
245.815
244.658
246.024
246.678
247.067
247.173
246.995
246.717
246.54
246.18
245.371
244.581
244.817
245.66
245.995
245.959
245.727
245.443
245.246
245.075
244.835
244.548
242.471
243.568
243.905
243.789
243.578
243.413
243.378
243.509
243.816
244.056
238.587
240.072
240.541
240.474
240.39
240.441
240.678
241.173
241.986
242.725
233.113
235.167
235.876
235.943
236.068
236.414
237.002
237.906
239.211
240.423
227.759
229.624
230.368
230.535
230.842
231.458
232.4
233.751
235.598
237.307
246.939
246.72
246.681
246.49
246.422
246.306
245.93
245.674
245.573
245.719
246.898
246.719
246.676
246.493
246.421
246.316
245.939
245.656
245.38
245.739
246.87
246.715
246.667
246.488
246.413
246.317
245.939
245.601
245.143
245.822
246.852
246.708
246.655
246.476
246.399
246.312
245.927
245.509
244.925
246.008
246.84
246.698
246.638
246.456
246.379
246.298
245.9
245.4
244.79
246.245
246.834
246.687
246.62
246.433
246.354
246.272
245.863
245.307
244.765
246.354
246.832
246.672
246.6
246.406
246.324
246.233
245.827
245.256
244.812
246.021
246.835
246.654
246.578
246.376
246.29
246.19
245.81
245.26
244.833
244.784
246.844
246.632
246.554
246.343
246.253
246.159
245.843
245.336
244.655
242.008
246.861
246.608
246.525
246.308
246.22
246.155
245.945
245.462
243.976
237.293
246.899
246.581
246.484
246.251
246.155
246.084
245.875
245.134
242.443
233.743
247.015
246.561
246.445
246.2
246.1
246.122
246.071
245.334
242.178
231.8
247.256
246.567
246.408
246.122
246.022
246.083
246.062
245.237
241.885
230.535
247.707
246.622
246.378
246.037
245.886
245.817
245.614
244.534
240.48
229.316
248.545
246.688
246.401
245.946
245.674
245.31
244.743
243.227
238.009
227.46
250.381
246.754
246.509
245.875
245.382
244.648
243.657
241.569
235.375
224.914
254.261
247.066
246.664
245.817
245.027
243.934
242.56
239.957
233.312
222.585
262.566
248.204
246.939
245.774
244.653
243.245
241.558
238.668
232.073
221.329
280.126
250.939
247.589
245.809
244.3
242.592
240.65
237.737
231.631
221.359
306.097
254.985
249.095
246.023
244.009
241.971
239.765
236.921
231.359
221.886
236.417
221.067
210.445
201.13
190.97
179.665
167.27
153.898
139.853
125.723
230.028
217.734
208.582
199.861
189.924
178.685
166.339
153.088
139.364
125.89
223.496
214.131
205.952
197.424
187.71
176.869
165.116
152.616
139.598
126.42
218.38
210.873
202.881
194.031
184.188
173.423
161.931
149.988
137.925
126.091
212.983
206.589
198.596
189.503
179.833
169.696
159.145
148.278
137.222
126.13
207.386
202.09
194.83
186.359
177.361
167.905
157.985
147.663
137.043
126.255
203.591
199.151
192.561
184.664
176.131
167.045
157.424
147.349
136.938
126.328
202.309
198.051
191.705
184.093
175.779
166.843
157.324
147.32
136.962
126.393
203.636
198.921
192.471
184.886
176.553
167.538
157.9
147.754
137.239
126.507
206.31
200.875
194.138
186.427
177.931
168.699
158.816
148.413
137.636
126.644
112.188
112.358
112.442
112.293
111.787
111.426
111.241
111.526
111.518
111.269
89.6129
90.0762
90.2948
89.8613
88.4293
87.3428
86.7219
87.3836
87.4212
86.8346
68.7696
69.3973
69.6586
68.9919
67.0525
65.3407
64.3205
64.8692
65.1736
64.6184
50.6516
51.2581
51.4478
50.6246
48.6455
46.4795
45.1494
45.1848
45.9232
45.6898
36.0062
36.4146
36.465
35.5836
33.7917
31.4758
29.832
29.2667
30.0743
30.262
24.9537
25.0572
24.9352
24.012
22.4345
20.4051
18.6142
17.6726
17.9276
18.4276
17.0671
16.9168
16.702
15.711
14.2966
12.7932
11.3057
10.2407
9.90097
10.2675
11.5799
11.4031
11.3546
10.3553
9.03634
8.03445
7.14283
6.29996
5.71151
5.62771
7.90581
7.8176
8.11366
7.24582
6.07978
5.48929
5.16048
4.77588
4.29195
3.91222
6.03695
5.83204
6.21756
5.47974
4.61038
4.33437
4.35844
4.34913
4.19659
3.80061
5.2698
5.03301
5.11546
4.42113
3.88891
3.8328
3.98266
4.12545
4.24659
4.30328
4.84263
4.73355
4.45626
3.78992
3.50409
3.59145
3.79471
3.96234
4.08212
4.16839
4.46407
4.41934
3.98761
3.43706
3.31709
3.47999
3.70478
3.88354
4.00154
4.0619
4.00961
3.95469
3.54863
3.19728
3.20728
3.41057
3.6235
3.78083
3.87943
3.92076
3.46164
3.36842
3.09531
2.97562
3.09246
3.30931
3.49946
3.63711
3.71841
3.74215
2.81046
2.71635
2.65711
2.74755
2.94431
3.14877
3.31461
3.43408
3.50102
3.51445
2.08721
2.10397
2.23908
2.47383
2.70956
2.90811
3.0634
3.17714
3.24346
3.25894
1.41438
1.53256
1.78403
2.07717
2.33322
2.54765
2.72358
2.86231
2.9499
2.97802
0.737792
0.872583
1.14756
1.47677
1.7868
2.05865
2.29627
2.48127
2.58617
2.62383
0.0653427
-0.0196021
0.215869
0.627884
1.04869
1.43123
1.75575
1.97104
2.07436
2.13763
3.65751
3.70092
3.57031
3.24412
2.59308
1.90389
1.31232
0.840113
0.45432
0.0915149
3.73012
3.67463
3.51973
3.22809
2.55363
1.84797
1.26046
0.802527
0.431272
0.0895558
3.75647
3.56844
3.40786
3.17391
2.50962
1.79531
1.21148
0.767363
0.410613
0.0894536
3.71726
3.39193
3.25493
3.07136
2.45235
1.74418
1.16542
0.734762
0.392494
0.0907419
3.60927
3.18356
3.08649
2.9178
2.36992
1.69006
1.12158
0.704723
0.377045
0.0934765
3.4457
2.98567
2.92577
2.7336
2.256
1.62903
1.07977
0.677655
0.36454
0.0976927
3.25217
2.81833
2.78201
2.55073
2.11342
1.55737
1.03935
0.653959
0.355248
0.103302
3.04502
2.68147
2.65587
2.39347
1.95741
1.47237
0.998991
0.633701
0.349306
0.110083
2.82276
2.57055
2.543
2.269
1.80936
1.3753
0.956813
0.616486
0.346684
0.117696
2.57832
2.48834
2.43708
2.17119
1.68404
1.27426
0.91068
0.601309
0.347161
0.12571
5.4188
3.97248
3.27396
2.89435
2.41292
1.89062
1.39015
0.935899
0.541218
0.130724
4.61497
3.75187
3.3102
2.95561
2.4536
1.89943
1.37749
0.91704
0.519515
0.119272
3.94501
3.65989
3.37104
3.02515
2.49301
1.90732
1.36613
0.900177
0.50284
0.109554
3.62516
3.66038
3.45656
3.10557
2.53431
1.91499
1.35525
0.884475
0.488358
0.101873
3.61044
3.70359
3.55843
3.19811
2.58034
1.9229
1.34352
0.868293
0.474282
0.0960796
112.018
88.951
67.8994
50.1273
36.1121
25.7915
18.6213
13.7458
10.5638
8.74959
111.797
88.3887
67.1932
49.3929
35.3099
24.7873
17.3176
12.2123
9.06937
7.56918
111.611
87.9084
66.5549
48.6523
34.3987
23.6146
15.8973
10.6773
7.53265
6.0746
111.401
87.3346
65.7146
47.5875
33.0741
22.0205
14.1257
8.8927
5.80716
4.43149
111.147
86.6066
64.5853
46.1144
31.2739
19.9528
11.9569
6.92039
4.43724
3.6214
243.77
243.808
243.927
244.099
244.312
244.32
243.816
243.114
243.217
242.994
243.982
244.054
244.168
244.357
244.627
244.802
244.584
243.934
243.677
243.57
244.178
244.226
244.34
244.536
244.822
245.084
245.057
244.55
244.122
244.072
244.42
244.453
244.551
244.725
244.983
245.272
245.379
245.109
244.722
244.655
244.695
244.713
244.795
244.944
245.16
245.425
245.629
245.631
245.466
245.375
244.988
245
245.069
245.192
245.365
245.596
245.868
246.11
246.216
246.205
245.262
245.28
245.363
245.498
245.674
245.905
246.206
246.568
246.872
246.996
245.548
245.565
245.662
245.854
246.109
246.409
246.77
247.184
247.55
247.731
245.929
245.958
246.035
246.258
246.629
247.083
247.589
248.11
248.455
248.417
246.322
246.433
246.534
246.724
247.123
247.694
248.297
248.848
249.201
248.996
136.501
136.242
136.22
136.482
136.264
135.866
135.325
135.153
135.225
135.389
160.952
160.356
160.377
161.015
160.362
159.239
157.775
157.319
157.525
157.983
183.197
182.631
182.918
183.441
182.39
180.645
178.676
177.988
178.236
178.859
202.164
201.918
202.637
202.647
201.289
199.092
197.084
196.24
196.418
197.02
217.636
217.81
218.594
218.007
216.338
213.994
212.173
211.27
211.309
211.714
229.516
229.997
230.227
229.268
227.46
225.404
223.794
222.847
222.715
222.816
237.715
238.052
237.689
236.615
235.123
233.595
232.144
231.127
230.903
230.751
242.371
242.251
241.642
240.808
239.929
238.911
237.558
236.532
236.473
236.296
244.095
243.677
243.183
242.825
242.528
241.942
240.752
239.856
240.142
240.058
244.235
243.809
243.656
243.677
243.749
243.506
242.632
241.871
242.256
242.066
254.847
246.874
247.502
246.286
246.037
245.53
244.997
244.635
244.505
244.543
252.014
246.81
247.315
246.265
246.09
245.593
245.014
244.668
244.581
244.514
250.091
246.817
247.093
246.261
246.146
245.661
245.057
244.762
244.751
244.546
248.904
246.845
246.88
246.279
246.203
245.735
245.138
244.915
244.98
244.652
248.219
246.848
246.742
246.318
246.26
245.818
245.266
245.107
245.222
244.823
247.77
246.806
246.704
246.367
246.312
245.911
245.433
245.295
245.43
245.03
247.455
246.752
246.703
246.411
246.358
246.014
245.61
245.45
245.585
245.24
247.239
246.723
246.695
246.446
246.391
246.119
245.756
245.56
245.683
245.434
247.096
246.717
246.686
246.47
246.407
246.211
245.854
245.628
245.722
245.592
247.001
246.719
246.683
246.483
246.416
246.274
245.907
245.664
245.688
245.688
317.351
253.757
249.911
246.973
246.142
245.571
245.253
244.932
244.239
242.722
295.619
251.368
248.789
246.741
246.06
245.542
245.208
244.902
244.452
243.523
277.178
249.212
248.193
246.567
246.019
245.523
245.158
244.845
244.534
244.196
265.775
247.867
247.868
246.437
246.001
245.512
245.101
244.763
244.524
244.525
259.004
247.137
247.646
246.328
245.998
245.504
245.032
244.66
244.479
244.557
239.301
237.452
234.236
229.329
222.126
211.772
197.721
179.916
158.839
135.757
240.484
238.948
235.773
230.637
223.135
212.578
198.458
180.624
159.402
135.979
241.996
240.499
237.318
232.065
224.313
213.493
199.201
181.264
159.883
136.165
243.659
242.253
239.125
233.851
225.916
214.822
200.269
182.105
160.457
136.375
244.448
243.61
241.108
236.037
227.994
216.627
201.744
183.235
161.185
136.628
)
;

boundaryField
{
    left
    {
        type            zeroGradient;
    }
    right
    {
        type            fixedValue;
        value           uniform 0;
    }
    down
    {
        type            zeroGradient;
    }
    up
    {
        type            zeroGradient;
    }
    cylinder
    {
        type            zeroGradient;
    }
    defaultFaces
    {
        type            empty;
    }
}


// ************************************************************************* //
