/*--------------------------------*- C++ -*----------------------------------*\
  =========                 |
  \\      /  F ield         | OpenFOAM: The Open Source CFD Toolbox
   \\    /   O peration     | Website:  https://openfoam.org
    \\  /    A nd           | Version:  13
     \\/     M anipulation  |
\*---------------------------------------------------------------------------*/
FoamFile
{
    format      ascii;
    class       volVectorField;
    location    "9.535";
    object      U;
}
// * * * * * * * * * * * * * * * * * * * * * * * * * * * * * * * * * * * * * //

dimensions      [0 1 -1 0 0 0 0];

internalField   nonuniform List<vector> 
440
(
(-0.106465 0.0759172 -8.42411e-20)
(-0.0972361 0.0886878 1.25792e-20)
(0.0608581 0.0575661 1.45344e-19)
(0.510517 0.0461103 2.31375e-20)
(0.439938 0.20444 2.77569e-20)
(-0.105963 0.0590283 5.98181e-20)
(0.0833684 0.00453229 -1.3276e-19)
(0.598403 -0.0600308 -1.61621e-19)
(1.15909 -0.0973985 1.06283e-19)
(1.62513 -0.104671 5.00989e-20)
(-0.0281677 0.00963495 7.63057e-20)
(0.547927 -0.0487125 7.63911e-19)
(1.34209 -0.0483987 -4.9122e-19)
(1.92421 -0.0242143 -1.61694e-18)
(2.41767 -0.00688827 5.48194e-19)
(0.20163 -0.0448897 -1.80122e-19)
(1.24837 -0.000430603 -5.42212e-19)
(2.02333 0.0607064 1.83535e-18)
(2.43702 0.0919807 1.9652e-18)
(2.50431 0.102321 -5.72071e-19)
(0.57568 -0.00327154 -3.06512e-19)
(1.77934 0.180737 -6.31902e-19)
(2.31538 0.2507 1.91351e-18)
(2.43907 0.258256 2.09097e-18)
(2.50989 0.230963 6.99779e-19)
(-0.0185808 0.241484 -1.37745e-19)
(-0.0968745 0.433492 1.46029e-19)
(-0.171134 0.465388 -2.76409e-19)
(-0.21823 0.464819 7.09882e-20)
(-0.246423 0.474597 1.06297e-18)
(-0.0354988 0.221872 4.15631e-20)
(-0.0798979 0.500594 2.40777e-19)
(-0.113405 0.558495 -8.45832e-20)
(-0.141162 0.520872 -7.95941e-20)
(-0.138216 0.47094 1.57224e-19)
(-0.0347034 0.108233 2.54514e-19)
(-0.075167 0.395353 -2.76943e-19)
(-0.0787001 0.540904 1.41853e-19)
(-0.0662685 0.567617 2.34561e-19)
(-0.0127569 0.535174 4.01922e-21)
(-0.0218087 0.0251788 -5.19976e-20)
(-0.0754836 0.182961 1.32497e-19)
(-0.0872936 0.32767 -6.07443e-20)
(-0.0764128 0.404643 -8.28095e-19)
(-0.0172966 0.44016 1.66111e-19)
(-0.0598884 0.0441747 -3.86702e-20)
(-0.128856 0.0969729 -6.4654e-20)
(-0.146724 0.180067 -1.74156e-19)
(-0.0543484 0.242266 1.48078e-19)
(0.0292273 0.364629 -1.72212e-20)
(-0.630227 0.803566 1.22572e-18)
(1.43603 -0.476531 1.34007e-18)
(0.953753 -1.3159 -1.84506e-20)
(1.33954 -0.0827623 -2.48077e-19)
(0.874541 0.20166 2.52054e-19)
(-0.571605 0.532464 -2.53198e-18)
(2.19714 -0.723543 -2.05824e-19)
(1.14083 -1.26735 9.38353e-20)
(1.26526 -0.010278 -6.7217e-19)
(0.821846 0.252924 -5.74142e-19)
(-0.384421 0.248606 -9.9743e-19)
(2.26922 -0.872538 9.30343e-19)
(1.0202 -1.15457 -1.08911e-19)
(1.09577 0.0263291 -7.11638e-19)
(0.825207 0.284923 -1.80985e-20)
(-0.159199 0.162 6.42863e-19)
(2.17246 -0.904088 -1.85593e-19)
(1.09203 -1.03668 2.66246e-19)
(0.908927 -0.0260962 5.02471e-19)
(0.871634 0.288598 2.14901e-19)
(0.388751 -0.0799151 -1.0864e-19)
(2.06251 -0.991677 -2.17949e-19)
(1.53543 -0.856005 0)
(0.244802 0.0519267 -6.82124e-19)
(0.976922 0.226057 1.58038e-19)
(1.76417 -0.0582717 -4.68059e-19)
(2.16468 -0.951637 1.24109e-20)
(2.14103 -0.725953 -3.30802e-20)
(0.471446 0.0717049 -5.76537e-20)
(1.27546 0.0570741 -5.44304e-19)
(2.3059 -0.189283 3.38336e-21)
(2.58197 -0.941002 1.57825e-18)
(1.3231 -0.369886 -1.76077e-20)
(0.894962 0.30783 6.89412e-20)
(1.49923 -0.0361993 0)
(2.25025 -0.228497 -2.58555e-19)
(2.28829 -0.530427 2.08273e-21)
(0.830871 -0.123109 -2.17577e-19)
(1.38085 0.074054 -1.47825e-19)
(1.59781 -0.159131 7.95413e-20)
(2.25951 -0.219021 1.32421e-19)
(1.8039 -0.379857 1.88555e-19)
(0.825588 -0.0162209 -2.88673e-20)
(1.43578 -0.0509612 8.2216e-36)
(1.14529 -0.127888 -1.75913e-20)
(1.3879 -0.0994318 2.72154e-19)
(0.623105 0.0138991 2.06264e-20)
(0.489324 -0.00130941 -1.09477e-19)
(0.499236 -0.0664002 5.9844e-20)
(0.106008 -0.00949415 -4.99187e-20)
(2.40203 0.238752 -8.57846e-19)
(2.58386 0.0217326 -1.04247e-18)
(2.46353 0.0585924 6.97198e-19)
(2.69292 -0.115461 7.72479e-20)
(2.08945 0.0154311 -3.56244e-21)
(2.12119 0.152881 4.51157e-20)
(2.39234 0.0128754 -3.70177e-20)
(2.24403 -0.0239373 -1.19848e-19)
(2.46915 -0.114033 -2.2195e-19)
(2.33188 -0.231337 -2.75338e-21)
(2.06938 0.0657525 5.45591e-20)
(2.18477 -0.00133575 1.06613e-19)
(2.17178 -0.0615133 -1.43285e-19)
(2.22639 -0.094459 4.41133e-20)
(2.25028 -0.177715 2.62358e-20)
(2.04502 0.0113691 9.81096e-20)
(2.09967 -0.0280576 9.55711e-20)
(2.12094 -0.0599705 -1.59687e-20)
(2.15715 -0.0892166 -4.26893e-21)
(2.16736 -0.129242 2.82998e-20)
(1.57249 -0.0277772 1.32994e-19)
(1.53232 -0.0295521 -1.14556e-20)
(1.55118 -0.0374174 2.7627e-20)
(1.49718 -0.0400988 -2.07323e-21)
(1.50941 -0.0511223 5.19202e-20)
(1.54102 0.823308 1.1034e-18)
(1.50985 0.927507 -3.66992e-19)
(1.51595 1.05986 -1.32959e-18)
(1.44267 1.10282 7.13137e-19)
(0.874464 0.779082 -1.60899e-19)
(1.83672 0.795925 -5.5643e-19)
(1.80596 0.872477 -2.98975e-18)
(1.81248 0.976862 -1.15669e-18)
(1.71979 0.985127 -3.9037e-19)
(1.0382 0.678812 -6.42385e-19)
(2.13761 0.659115 7.55577e-19)
(2.12246 0.731869 1.89432e-19)
(2.0989 0.822018 -2.26977e-18)
(1.95934 0.810135 -6.32729e-19)
(1.1447 0.530454 4.53585e-19)
(2.30603 0.551902 2.27099e-18)
(2.29706 0.602466 1.6693e-18)
(2.29181 0.654084 -1.90434e-18)
(2.07393 0.613105 -1.45091e-18)
(1.12395 0.35167 -2.56848e-19)
(2.46353 0.388984 1.12292e-18)
(2.47188 0.414321 -7.91302e-19)
(2.37511 0.443288 5.78123e-19)
(2.03676 0.391788 4.38414e-19)
(0.944288 0.156316 -3.72659e-19)
(0.5682 0.475796 -6.08107e-19)
(0.474774 0.512923 -4.57228e-19)
(0.356735 0.549184 4.84556e-20)
(0.221724 0.546772 -1.37457e-21)
(0.054082 0.381802 7.66045e-20)
(0.683104 0.629564 8.36749e-20)
(0.616724 0.683377 -2.84702e-19)
(0.525416 0.747017 1.70102e-19)
(0.399086 0.804517 -7.95172e-20)
(0.173094 0.608369 1.13515e-19)
(0.769671 0.847364 1.04564e-19)
(0.699936 0.930768 4.45153e-19)
(0.6443 1.02238 1.11128e-19)
(0.557769 1.04993 -3.00194e-19)
(0.303375 0.762619 2.57514e-19)
(1.04116 0.895367 2.23402e-19)
(0.991225 0.975948 -7.01439e-19)
(0.944461 1.07698 -1.88289e-18)
(0.864782 1.14298 7.57765e-19)
(0.505998 0.838321 -1.51463e-19)
(1.12272 0.966781 -9.39144e-20)
(1.15282 1.08042 -1.65579e-19)
(1.17163 1.18523 -3.7097e-19)
(1.11384 1.19775 -4.16235e-19)
(0.677707 0.842712 -6.51808e-21)
(1.00271 0.0454515 -7.14205e-20)
(1.011 0.0323191 -2.61379e-20)
(1.02996 0.138757 -1.13143e-21)
(0.939473 0.132522 -1.2005e-19)
(0.904201 0.28982 2.66119e-19)
(0.99253 0.0427176 5.43151e-20)
(1.02754 0.0292329 9.96861e-20)
(1.00806 0.151579 9.2005e-20)
(0.982456 0.153396 1.80194e-20)
(0.938582 0.37491 -9.85964e-21)
(0.99881 0.041179 7.95024e-20)
(1.01184 0.0228383 -3.92506e-21)
(1.04731 0.170119 -2.17438e-21)
(0.940866 0.154452 1.20435e-19)
(1.14131 0.514794 -4.45104e-19)
(0.994113 0.0401352 -3.06823e-22)
(1.02785 0.0153418 -1.25011e-19)
(1.03334 0.193 -4.56853e-20)
(1.03771 0.141174 -3.39359e-19)
(1.17293 0.58104 8.74415e-20)
(0.993823 0.0328665 -1.17768e-20)
(1.02212 0.0200023 3.64122e-20)
(1.07582 0.188239 2.3409e-20)
(1.0324 0.174166 4.34301e-19)
(1.36992 0.705003 -4.52474e-19)
(0.960183 0.0350244 -6.44485e-21)
(1.07759 0.000123892 1.02521e-19)
(1.05237 0.215355 -4.52061e-20)
(1.28971 0.0836683 1.02782e-18)
(1.33732 0.777135 -3.25462e-19)
(0.91027 0.00771137 -1.36853e-21)
(1.15735 0.000727734 -9.70032e-20)
(0.983363 0.129582 5.51873e-21)
(1.41775 0.0636354 -3.53695e-19)
(1.31638 0.590393 -8.31939e-20)
(0.946374 0.000153817 5.08567e-21)
(1.12304 0.000888105 1.43179e-35)
(1.07827 0.0765551 -1.61012e-20)
(1.34872 0.018551 1.01211e-19)
(1.33076 0.434168 1.65547e-19)
(1.04122 -0.0382413 3.98962e-21)
(1.00314 -0.0203027 -2.66274e-20)
(1.22574 0.00643589 2.12627e-20)
(1.08578 0.017121 1.94051e-20)
(1.44905 0.30788 -2.50787e-19)
(0.966693 -0.0227084 -4.32359e-20)
(0.808192 -0.0234805 3.95442e-22)
(0.939248 -0.000995874 2.88623e-20)
(0.694217 0.00455177 -2.58538e-20)
(1.17674 0.0921875 -5.73709e-20)
(1.76369 0.584412 2.77607e-19)
(1.88787 0.633815 7.29437e-19)
(2.12457 0.480641 -1.01844e-18)
(2.21598 0.474232 3.60783e-20)
(2.40541 0.263012 4.21358e-19)
(1.73245 0.365231 8.3255e-20)
(1.77296 0.430402 9.3921e-19)
(1.9815 0.303447 1.15222e-19)
(1.97268 0.321063 -8.22156e-19)
(2.21631 0.154129 -2.54351e-19)
(1.69055 0.273137 -2.35007e-19)
(1.7735 0.284523 -1.46992e-19)
(1.907 0.200232 1.52683e-19)
(1.93816 0.190253 -2.46919e-19)
(2.07405 0.0977678 2.24047e-19)
(1.6962 0.183894 4.11624e-19)
(1.80699 0.164467 -5.14492e-22)
(1.87786 0.108027 2.01166e-19)
(1.94512 0.0873325 1.46931e-19)
(2.00537 0.0360636 -1.45654e-19)
(1.40345 0.0409155 -5.78024e-20)
(1.50739 0.0217588 2.58368e-19)
(1.52065 0.00363054 9.29857e-20)
(1.56956 -0.010058 -1.80966e-19)
(1.54308 -0.0189793 6.04632e-22)
(1.18933 -0.0213126 8.50035e-20)
(2.21313 -0.0330082 -4.8181e-19)
(2.44223 -0.0264838 1.26209e-18)
(2.41735 0.0157309 5.54188e-19)
(2.24618 0.0363946 -4.09062e-19)
(0.771657 0.0996927 1.67218e-19)
(1.9961 0.106893 -4.80209e-19)
(2.43798 0.113524 -6.9438e-19)
(2.47822 0.118143 8.87483e-19)
(2.22872 0.110261 -6.36118e-19)
(0.265578 0.090775 8.99059e-21)
(1.3975 0.179049 5.50517e-19)
(2.12443 0.207816 6.72654e-20)
(2.47427 0.209335 6.5349e-19)
(2.58431 0.188516 2.71324e-19)
(-0.0143785 -0.00830709 1.78445e-19)
(0.587384 0.118886 1.97862e-19)
(1.3912 0.208244 -5.17979e-19)
(1.88264 0.243226 3.93944e-20)
(2.40496 0.278919 3.05909e-19)
(-0.0943225 -0.0770529 1.07753e-19)
(0.0731696 -0.0164361 -1.36721e-19)
(0.570912 0.0916326 -8.96184e-20)
(1.05653 0.157796 8.22446e-20)
(1.51002 0.250157 4.24022e-20)
(-0.0868134 -0.100752 2.70049e-20)
(-0.0864821 -0.102123 6.39635e-20)
(0.0867685 -0.0400456 3.25712e-20)
(0.341304 0.0546719 -1.91465e-19)
(0.751752 0.163377 -9.60678e-22)
(-0.0601295 -0.0983902 -2.60225e-20)
(-0.0831294 -0.136559 -6.78953e-21)
(-0.0393709 -0.110656 2.91153e-20)
(0.0488719 -0.0390476 8.33413e-21)
(0.236116 0.0770217 2.61485e-20)
(-0.0504661 -0.132446 -4.68283e-20)
(-0.071513 -0.190567 -4.85931e-19)
(-0.0621765 -0.172486 2.95591e-19)
(-0.0435108 -0.112007 7.5895e-19)
(0.000421237 -0.0222702 -9.41065e-20)
(-0.0411889 -0.105499 5.29677e-20)
(-0.124172 -0.0834809 3.98349e-19)
(-0.198157 0.00452961 -1.25781e-18)
(-0.259517 0.100888 -1.09854e-18)
(-0.291874 0.190828 2.20779e-19)
(-0.0198848 0.0841831 -2.51236e-20)
(-0.136684 0.192085 9.68488e-20)
(-0.241867 0.247444 -3.34096e-20)
(-0.318382 0.295907 -6.05053e-20)
(-0.377028 0.359402 3.2529e-19)
(1.36615 0.589419 -4.28885e-20)
(0.710504 0.107966 1.05929e-18)
(1.17806 -0.137018 -1.18061e-19)
(1.39626 0.0158437 1.0629e-19)
(1.14152 0.00454818 4.68127e-21)
(1.15576 0.547725 1.83616e-19)
(0.0538026 0.0587134 2.82016e-19)
(0.869717 -0.238824 -8.51284e-19)
(1.39895 0.0162768 -1.30622e-21)
(1.18226 0.0405641 -1.37763e-20)
(0.459977 0.549761 -2.09723e-19)
(-0.883352 0.0617443 1.09604e-18)
(0.649342 -0.492672 1.23673e-20)
(1.35684 -0.0256415 2.35281e-20)
(1.14388 0.0801148 1.98179e-22)
(-0.29646 0.695065 9.04387e-19)
(-1.07963 -0.0976704 -5.5951e-18)
(0.588672 -0.881237 -5.37218e-19)
(1.32389 -0.0698506 -3.27652e-21)
(1.04865 0.116834 -5.09296e-20)
(-0.635284 0.795962 2.33348e-19)
(-0.0391087 -0.320337 -7.05148e-19)
(0.641971 -1.20688 4.82256e-19)
(1.30237 -0.102074 -1.13737e-20)
(0.943013 0.155764 8.29877e-20)
(0.432477 0.132598 -1.32382e-19)
(-0.204626 -0.0583482 0)
(0.0832704 -0.0893347 -1.20992e-20)
(0.160183 -0.0572574 4.43647e-20)
(0.402458 -0.0344909 2.30964e-21)
(1.80329 0.458711 0)
(1.01422 0.165635 0)
(1.16206 -0.0210871 4.74568e-19)
(1.1255 -0.0200618 -1.88882e-21)
(0.976637 -0.0509085 3.76362e-21)
(0.713248 0.00191147 -1.45245e-19)
(0.781217 0.000176323 4.10209e-19)
(0.88131 -0.00280745 -3.34944e-20)
(1.00441 0.0212447 2.67369e-19)
(1.2482 0.0864694 1.91256e-19)
(1.62791 0.0261692 1.40473e-19)
(1.76663 0.0816936 4.71294e-19)
(1.90341 0.0825758 -4.25869e-19)
(2.43487 0.191077 1.16987e-19)
(2.15974 0.216126 3.29688e-19)
(0.900769 -0.476357 -2.45825e-20)
(0.889017 -0.566601 -1.80309e-19)
(0.879656 -0.664175 -1.20543e-19)
(0.81095 -0.732764 7.63277e-20)
(0.495407 -0.57647 1.3868e-19)
(0.799647 -0.377464 1.13442e-19)
(0.745093 -0.442837 1.95934e-19)
(0.674209 -0.515587 -7.03684e-20)
(0.564997 -0.579368 1.52904e-19)
(0.310184 -0.464407 5.81369e-20)
(0.649652 -0.238494 -1.1672e-19)
(0.565919 -0.279164 -6.0684e-20)
(0.466409 -0.329156 5.99803e-20)
(0.345861 -0.372484 -2.92204e-20)
(0.153828 -0.300269 -1.35725e-19)
(0.548808 -0.00779951 -4.12926e-19)
(0.463144 -0.0229418 -3.33773e-19)
(0.352438 -0.0451861 2.7066e-19)
(0.224991 -0.0751867 1.44584e-19)
(0.0621763 -0.0830278 1.2505e-20)
(0.524313 0.196463 -1.37608e-19)
(0.438719 0.197676 -1.52334e-19)
(0.321472 0.19785 -4.79947e-20)
(0.183072 0.203952 4.0233e-20)
(0.0273268 0.150491 1.30232e-20)
(2.00645 -0.033975 8.43648e-19)
(2.26737 -0.0996268 2.59308e-19)
(2.34594 -0.183377 -7.07102e-19)
(2.20803 -0.210418 -1.52955e-18)
(1.33606 -0.188121 1.42963e-19)
(1.98516 -0.121269 1.37735e-18)
(2.07582 -0.231176 1.85807e-18)
(2.09944 -0.352349 1.60516e-19)
(2.02224 -0.410566 2.88713e-19)
(1.29877 -0.361923 -1.91086e-19)
(1.69777 -0.281878 -3.51957e-18)
(1.76607 -0.398478 3.51111e-19)
(1.81329 -0.522524 1.13151e-18)
(1.75624 -0.597333 -4.0553e-19)
(1.14141 -0.506016 6.58909e-19)
(1.48758 -0.403952 8.53462e-19)
(1.50424 -0.501761 -2.31492e-18)
(1.49428 -0.619091 -2.59895e-18)
(1.43007 -0.705632 7.76202e-19)
(0.923958 -0.581107 5.51025e-19)
(1.20058 -0.459654 2.00308e-19)
(1.1609 -0.553954 2.72384e-19)
(1.15537 -0.676177 -4.04951e-19)
(1.10285 -0.762836 -4.81334e-19)
(0.699149 -0.606479 -4.41255e-21)
(1.04591 0.0521494 9.05024e-21)
(0.951912 0.0573411 8.06325e-22)
(1.0955 0.0822446 1.42526e-20)
(0.822506 0.00345706 -3.01309e-19)
(1.07582 -0.197548 -2.23081e-20)
(1.0584 0.0550192 -2.57186e-21)
(0.94224 0.0537223 2.72415e-20)
(1.10028 0.100697 2.33821e-20)
(0.89592 0.0484689 2.05501e-19)
(0.981046 -0.0838849 7.33541e-21)
(1.05842 0.051569 -4.79073e-20)
(0.944622 0.0490824 -2.10994e-22)
(1.08775 0.104718 1.59551e-22)
(0.900046 0.069364 1.53874e-19)
(0.941778 -0.0233721 -2.67668e-19)
(1.04074 0.0501478 5.73331e-20)
(0.969922 0.0433489 2.8746e-21)
(1.05903 0.112927 1.43803e-20)
(0.92872 0.0950883 -8.56826e-20)
(0.859696 0.0828542 5.14844e-20)
(1.0159 0.0468263 1.29482e-20)
(1.00138 0.0400754 -2.25991e-20)
(1.02862 0.121341 2.55023e-20)
(0.953203 0.120721 1.619e-20)
(0.839109 0.184642 -3.37851e-20)
(0.880952 0.0337953 0)
(0.731323 0.0283887 9.98712e-21)
(0.588017 0.0215829 1.04395e-20)
(0.367117 -0.00697909 8.05615e-20)
(0.668611 -0.0492516 -1.69002e-19)
(1.01309 0.0718931 -7.34072e-20)
(0.968901 0.0730908 -2.3389e-21)
(0.996731 0.0810428 -5.62581e-20)
(0.816112 -0.00259727 -2.08552e-19)
(1.01208 -0.18467 -1.80869e-19)
(0.923782 -0.0648811 -3.94824e-20)
(1.0115 -0.0322 5.89834e-19)
(1.10123 0.0358561 3.33472e-19)
(0.976313 0.0528361 3.80617e-20)
(0.75388 0.0281522 0)
(1.27508 -0.306702 4.02417e-19)
(1.3912 -0.272117 1.61468e-18)
(1.56431 -0.153844 -1.65421e-18)
(1.665 -0.020632 -5.0858e-19)
(1.56451 0.0300875 3.99438e-19)
)
;

boundaryField
{
    left
    {
        type            fixedValue;
        value           uniform (1 0 0);
    }
    right
    {
        type            zeroGradient;
    }
    down
    {
        type            noSlip;
    }
    up
    {
        type            noSlip;
    }
    cylinder
    {
        type            noSlip;
    }
    defaultFaces
    {
        type            empty;
    }
}


// ************************************************************************* //
