/*--------------------------------*- C++ -*----------------------------------*\
  =========                 |
  \\      /  F ield         | OpenFOAM: The Open Source CFD Toolbox
   \\    /   O peration     | Website:  https://openfoam.org
    \\  /    A nd           | Version:  13
     \\/     M anipulation  |
\*---------------------------------------------------------------------------*/
FoamFile
{
    format      ascii;
    class       volVectorField;
    location    "0.1975";
    object      U;
}
// * * * * * * * * * * * * * * * * * * * * * * * * * * * * * * * * * * * * * //

dimensions      [0 1 -1 0 0 0 0];

internalField   nonuniform List<vector> 
1800
(
(0.295454 -0.270251 1.27197e-19)
(0.882344 -0.756498 5.72847e-20)
(1.2296 -1.00144 -6.35039e-19)
(1.3757 -1.06845 5.50812e-19)
(1.42206 -1.04862 1.20275e-18)
(1.42996 -0.997777 4.94154e-19)
(1.42525 -0.94038 -2.51155e-19)
(1.41667 -0.884866 -6.36422e-19)
(1.40758 -0.830744 -3.33746e-19)
(1.38035 -0.784106 -2.7175e-19)
(0.350552 -0.2733 2.24899e-20)
(1.01686 -0.744858 -7.4091e-19)
(1.39702 -0.975901 6.42935e-21)
(1.548 -1.03569 -4.34225e-19)
(1.58825 -1.01329 9.99478e-20)
(1.58738 -0.962041 1.14947e-18)
(1.57423 -0.904725 -8.21533e-19)
(1.55854 -0.848755 4.14643e-19)
(1.5431 -0.794815 6.82706e-19)
(1.52024 -0.752817 -3.49113e-19)
(0.408997 -0.269982 4.04979e-20)
(1.15237 -0.715322 2.1387e-19)
(1.5615 -0.927024 5.08245e-19)
(1.71484 -0.978575 -3.20846e-19)
(1.7478 -0.954741 -1.43312e-18)
(1.73765 -0.905264 3.11733e-19)
(1.71559 -0.850945 5.42326e-19)
(1.69177 -0.79858 -5.97205e-20)
(1.66891 -0.749076 -4.55363e-21)
(1.63964 -0.709152 -2.63882e-20)
(0.469906 -0.259493 -4.63867e-20)
(1.2859 -0.667316 -2.35801e-19)
(1.71913 -0.85483 -3.55549e-19)
(1.87232 -0.897299 5.65055e-20)
(1.89738 -0.872797 3.8134e-19)
(1.87825 -0.826172 3.04291e-20)
(1.84795 -0.775697 -2.21679e-20)
(1.8168 -0.727144 5.00007e-19)
(1.78727 -0.681335 4.16678e-19)
(1.75424 -0.645481 -1.43653e-19)
(0.53215 -0.241252 1.34252e-19)
(1.41422 -0.601196 2.97514e-19)
(1.86573 -0.760848 -6.85949e-20)
(2.01609 -0.794217 -7.71083e-20)
(2.03265 -0.770408 -1.13607e-18)
(2.00495 -0.728373 9.54031e-21)
(1.96711 -0.683523 8.6686e-19)
(1.9294 -0.640617 2.86587e-19)
(1.89407 -0.600528 1.51711e-20)
(1.85745 -0.569091 -1.88708e-19)
(0.59418 -0.214688 -6.62846e-20)
(1.53371 -0.517456 6.65047e-19)
(1.99719 -0.64663 1.29968e-18)
(2.14217 -0.671317 -8.60258e-19)
(2.14999 -0.64949 -8.24911e-19)
(2.11439 -0.613383 1.35394e-18)
(2.06994 -0.575317 -9.55741e-19)
(2.02655 -0.539036 -1.07179e-18)
(1.98623 -0.50534 7.60509e-19)
(1.9465 -0.479205 -2.07416e-20)
(0.654187 -0.179552 2.46762e-19)
(1.64083 -0.417391 -1.11084e-18)
(2.10973 -0.51472 -3.51443e-18)
(2.2471 -0.531714 1.39162e-18)
(2.2463 -0.513308 2.0872e-18)
(2.20383 -0.484463 -5.88039e-21)
(2.15394 -0.454326 -2.60873e-18)
(2.106 -0.425676 8.33867e-21)
(2.06175 -0.39923 2.33441e-18)
(2.01955 -0.378961 6.10223e-19)
(0.710083 -0.135922 -9.92453e-20)
(1.73201 -0.302843 6.79118e-19)
(2.19991 -0.368134 2.70201e-18)
(2.32794 -0.378818 -4.58154e-20)
(2.31904 -0.36521 -1.34432e-18)
(2.27093 -0.344728 -4.12985e-19)
(2.2169 -0.323385 0)
(2.1656 -0.303103 9.1687e-19)
(2.11849 -0.284496 -4.27639e-21)
(2.07452 -0.270651 -7.52091e-19)
(0.759643 -0.0843111 -1.08719e-20)
(1.80403 -0.176345 1.61906e-18)
(2.26498 -0.210556 2.33496e-18)
(2.38248 -0.216553 -2.01659e-18)
(2.36642 -0.208972 -1.39222e-18)
(2.31411 -0.197694 4.1554e-19)
(2.25735 -0.185761 -1.72483e-18)
(2.20394 -0.174353 -1.20652e-18)
(2.1551 -0.163959 1.39635e-18)
(2.11013 -0.156835 1.18365e-18)
(0.800671 -0.0256871 2.14348e-19)
(1.85423 -0.0410986 1.0469e-18)
(2.30295 -0.0460889 4.28757e-19)
(2.40936 -0.0490133 -2.88546e-18)
(2.38741 -0.0484715 1.76702e-20)
(2.33245 -0.0469016 3.95799e-18)
(2.27436 -0.0447122 -2.10534e-18)
(2.22007 -0.0424633 -1.14006e-18)
(2.17058 -0.0404549 3.90957e-19)
(2.12546 -0.0401396 -8.70013e-19)
(0.00294216 -0.048516 1.22674e-19)
(0.0373032 -0.146179 1.22838e-19)
(0.0985429 -0.202382 -1.94834e-21)
(0.16595 -0.22325 -6.33996e-21)
(0.23211 -0.225486 -1.55568e-21)
(0.293789 -0.220173 -2.85163e-20)
(0.350084 -0.212522 1.20971e-20)
(0.401168 -0.204548 -2.63983e-20)
(0.447429 -0.196902 1.97612e-21)
(0.489651 -0.190852 -5.14864e-21)
(0.0101775 -0.0770236 7.18372e-20)
(0.0608421 -0.241612 1.22368e-19)
(0.131576 -0.33638 -1.19742e-19)
(0.202123 -0.369987 -4.34439e-20)
(0.268175 -0.371101 -6.09081e-20)
(0.328534 -0.359118 -6.1493e-20)
(0.383164 -0.343215 1.90389e-20)
(0.432577 -0.326938 -2.06016e-20)
(0.477183 -0.311447 6.32872e-21)
(0.518477 -0.299929 -8.03424e-21)
(0.0220169 -0.105181 -2.4264e-21)
(0.0998063 -0.333921 2.80561e-19)
(0.186385 -0.465095 8.12377e-20)
(0.262228 -0.510467 2.67341e-19)
(0.328139 -0.51024 4.27575e-20)
(0.386308 -0.491729 -2.25825e-19)
(0.438166 -0.467865 -2.77918e-20)
(0.484781 -0.443624 6.87872e-20)
(0.526617 -0.420682 -2.59907e-20)
(0.566418 -0.403914 -1.16806e-21)
(0.0385784 -0.132698 -1.05753e-19)
(0.153897 -0.421422 -6.0806e-20)
(0.262197 -0.585834 2.82395e-20)
(0.34523 -0.641559 -1.16504e-19)
(0.41086 -0.639696 5.52162e-20)
(0.46594 -0.614884 1.58268e-19)
(0.513931 -0.583489 4.16961e-20)
(0.556657 -0.551777 -6.60418e-21)
(0.594673 -0.521951 1.81528e-20)
(0.632416 -0.500212 -2.04716e-21)
(0.0600148 -0.159279 0)
(0.222653 -0.502445 8.15553e-20)
(0.357878 -0.695953 4.12435e-19)
(0.449638 -0.760215 -2.81724e-19)
(0.514716 -0.756368 -5.15951e-19)
(0.565787 -0.725586 1.66543e-19)
(0.608857 -0.687247 -2.15719e-20)
(0.646671 -0.648721 -8.57993e-20)
(0.679923 -0.612744 0)
(0.715032 -0.586366 -7.31102e-21)
(0.086504 -0.184582 5.38112e-21)
(0.305406 -0.575311 2.53932e-19)
(0.471899 -0.792897 1.17601e-19)
(0.573458 -0.863543 2.07711e-19)
(0.637558 -0.857349 -1.65515e-19)
(0.683707 -0.821054 -2.51868e-19)
(0.720879 -0.776525 4.29108e-19)
(0.752861 -0.732009 4.7097e-20)
(0.780551 -0.690758 -2.45447e-19)
(0.81242 -0.660078 -5.89063e-21)
(0.118213 -0.208165 2.40304e-20)
(0.401224 -0.638318 2.91263e-19)
(0.602282 -0.874244 6.7186e-20)
(0.714171 -0.948895 1.9934e-20)
(0.776707 -0.940039 2.86212e-19)
(0.817048 -0.89885 -3.51067e-19)
(0.847466 -0.849066 -3.46154e-19)
(0.872853 -0.799555 -2.87142e-19)
(0.894377 -0.754004 2.08487e-19)
(0.922282 -0.71925 2.24173e-19)
(0.155223 -0.22942 -1.18765e-19)
(0.508812 -0.689727 -1.00766e-19)
(0.746538 -0.937759 2.05142e-19)
(0.868699 -1.01399 -1.5279e-19)
(0.928931 -1.00232 3.0077e-19)
(0.962659 -0.957108 6.99881e-19)
(0.985651 -0.903279 4.73407e-19)
(1.00389 -0.850058 -3.6457e-19)
(1.01891 -0.801299 -1.71762e-19)
(1.04163 -0.762475 2.47269e-19)
(0.197391 -0.247518 -2.75885e-19)
(0.626331 -0.727745 -8.2405e-19)
(0.901478 -0.981386 9.3916e-19)
(1.03316 -1.05684 8.11806e-19)
(1.09012 -1.04244 -6.94227e-19)
(1.11642 -0.994388 7.43032e-19)
(1.13141 -0.938121 1.14163e-19)
(1.14206 -0.882984 -8.62691e-19)
(1.15049 -0.832308 -2.09575e-19)
(1.16515 -0.789301 2.81913e-19)
(0.244286 -0.261442 -7.15123e-22)
(0.751518 -0.750533 -7.24366e-19)
(1.06347 -1.00315 -4.68542e-19)
(1.20318 -1.07553 7.55069e-19)
(1.25543 -1.05847 5.87406e-19)
(1.27304 -1.00871 -6.70162e-19)
(1.2788 -0.951552 -5.44488e-19)
(1.28067 -0.896174 3.2077e-19)
(1.28159 -0.84426 -3.28671e-19)
(1.28155 -0.797556 -2.02328e-19)
(0.635142 -0.155138 4.36432e-21)
(0.809694 -0.119539 -1.12116e-20)
(0.889839 -0.0935043 1.23879e-20)
(0.937056 -0.0731876 3.44123e-21)
(0.964598 -0.0566963 -1.3634e-21)
(0.980884 -0.0430908 1.95951e-21)
(0.990827 -0.0318041 4.80512e-23)
(0.996984 -0.0223161 -3.37054e-21)
(1.00063 -0.0144112 4.29658e-21)
(1.00292 -0.00552486 3.2353e-21)
(0.652595 -0.222436 7.3928e-20)
(0.819994 -0.155967 -7.32541e-21)
(0.897434 -0.113125 3.97201e-21)
(0.942824 -0.0840668 2.31706e-21)
(0.969179 -0.0629956 5.41648e-21)
(0.9846 -0.0468434 0)
(0.993878 -0.0340754 8.27578e-23)
(0.999533 -0.0236825 3.28726e-21)
(1.00284 -0.0152007 5.37064e-22)
(1.00486 -0.00580975 -3.20225e-21)
(0.680877 -0.287655 -3.92269e-20)
(0.834894 -0.191592 -1.83993e-20)
(0.907586 -0.132501 5.95833e-21)
(0.949915 -0.09485 -8.75863e-21)
(0.974471 -0.0692141 -4.1191e-21)
(0.988728 -0.0505162 6.4357e-21)
(0.99718 -0.0362717 0)
(1.00224 -0.0249853 0)
(1.00516 -0.0159422 1.25861e-22)
(1.00689 -0.00607445 0)
(0.719811 -0.349599 -2.77002e-20)
(0.85431 -0.225865 3.00488e-20)
(0.920211 -0.151395 8.33544e-21)
(0.958316 -0.105428 0)
(0.980471 -0.0752905 1.0108e-21)
(0.993261 -0.0540726 1.26469e-21)
(1.00072 -0.0383702 0)
(1.00511 -0.0262102 -2.3471e-21)
(1.00759 -0.0166268 0)
(1.00899 -0.00631568 -2.42304e-22)
(0.769136 -0.407132 -2.35537e-20)
(0.878164 -0.258298 5.67976e-20)
(0.935198 -0.169585 -4.86363e-21)
(0.968002 -0.115695 0)
(0.987171 -0.0811672 -2.57823e-21)
(0.998189 -0.0574771 -3.44256e-21)
(1.0045 -0.0403479 6.63358e-21)
(1.00811 -0.0273425 1.37734e-21)
(1.0101 -0.0172455 -9.59498e-22)
(1.01116 -0.00653002 3.10458e-21)
(0.828354 -0.459105 -5.75216e-19)
(0.906384 -0.288555 -1.11431e-19)
(0.952425 -0.186893 2.16559e-21)
(0.978935 -0.125557 9.92412e-21)
(0.994557 -0.0867919 5.03322e-21)
(1.0035 -0.060696 -3.58995e-22)
(1.00849 -0.0421824 -7.40466e-21)
(1.01124 -0.0283672 2.20857e-21)
(1.01269 -0.0177891 -2.74504e-22)
(1.01338 -0.00671385 2.08873e-21)
(0.896407 -0.504143 -1.19396e-20)
(0.938677 -0.316278 4.73164e-20)
(0.971729 -0.203194 4.92298e-21)
(0.991062 -0.13494 -2.19359e-22)
(1.00261 -0.0921223 -7.3701e-21)
(1.00917 -0.0637006 5.58534e-21)
(1.01269 -0.0438532 1.3951e-21)
(1.01448 -0.0292699 -5.14563e-21)
(1.01534 -0.0182485 -5.6457e-22)
(1.01564 -0.00686346 -2.21997e-21)
(0.971481 -0.541145 2.38715e-19)
(0.973892 -0.340892 5.91492e-20)
(0.992566 -0.218199 0)
(1.00418 -0.143704 -3.27837e-21)
(1.01124 -0.0970926 5.37857e-21)
(1.01518 -0.0664575 1.90453e-21)
(1.01706 -0.0453409 1.76542e-22)
(1.01781 -0.030038 -1.33904e-23)
(1.01804 -0.0186157 4.3308e-23)
(1.01793 -0.0069761 5.56864e-22)
(1.05259 -0.57128 -3.44516e-19)
(1.01047 -0.363693 -1.65151e-19)
(1.01355 -0.23258 3.02904e-20)
(1.01753 -0.152038 1.77837e-21)
(1.02011 -0.101725 -2.02295e-21)
(1.02135 -0.0689479 -5.41112e-22)
(1.02153 -0.0466249 -1.50034e-21)
(1.02119 -0.030657 6.45987e-22)
(1.02075 -0.0188822 -3.92924e-21)
(1.02022 -0.00705182 -4.72993e-21)
(1.14146 -0.594158 2.33037e-19)
(1.05092 -0.385179 -1.62345e-19)
(1.03448 -0.24818 -2.25293e-20)
(1.03028 -0.161245 -1.49162e-20)
(1.02857 -0.106691 -5.65756e-21)
(1.02732 -0.0714594 -2.56833e-21)
(1.02593 -0.0478038 -2.72196e-21)
(1.02455 -0.0311474 0)
(1.02345 -0.0190459 2.10746e-21)
(1.0225 -0.00707592 7.88312e-22)
(1.2828 -0.578446 3.60625e-19)
(1.13913 -0.38205 1.06707e-19)
(1.08359 -0.248773 -6.14825e-20)
(1.05846 -0.162489 2.49097e-21)
(1.04535 -0.107487 3.55984e-21)
(1.03779 -0.0717271 9.80403e-22)
(1.03283 -0.0477332 5.28603e-21)
(1.02935 -0.0309331 2.15682e-21)
(1.02705 -0.0188207 -2.5437e-21)
(1.02542 -0.00697189 1.03996e-21)
(1.33405 -0.485819 -4.81277e-21)
(1.17794 -0.333981 1.0833e-19)
(1.11445 -0.225566 8.19545e-20)
(1.08106 -0.151324 -9.2002e-21)
(1.06092 -0.101523 3.36591e-20)
(1.04841 -0.0681564 2.05919e-20)
(1.04019 -0.0454335 1.48205e-20)
(1.03465 -0.0294373 -1.27881e-21)
(1.03113 -0.0178975 5.14689e-21)
(1.02875 -0.00661825 4.07704e-21)
(1.38519 -0.415848 -1.1008e-19)
(1.22394 -0.296589 -8.78071e-21)
(1.14702 -0.20485 2.95383e-21)
(1.10338 -0.139509 -4.30967e-37)
(1.07602 -0.0943562 2.47021e-21)
(1.05864 -0.0635612 -5.80731e-35)
(1.04727 -0.0423974 -4.44334e-21)
(1.03973 -0.027451 -2.82423e-34)
(1.03502 -0.0166734 1.17107e-21)
(1.03189 -0.00615903 -3.43344e-21)
(1.4176 -0.344116 -1.71915e-34)
(1.25846 -0.254536 -2.6123e-20)
(1.17386 -0.180077 -2.91784e-20)
(1.12274 -0.124628 0)
(1.08953 -0.0850682 -1.52203e-20)
(1.06797 -0.0575554 -9.94422e-21)
(1.05378 -0.0384482 -4.22095e-21)
(1.04441 -0.0248933 -4.07874e-34)
(1.03859 -0.0151136 -9.27706e-22)
(1.03476 -0.00558018 3.36339e-21)
(1.43812 -0.278092 -6.07173e-20)
(1.28493 -0.212499 3.36698e-21)
(1.19583 -0.153439 0)
(1.13916 -0.107655 0)
(1.10128 -0.0740955 0)
(1.0762 -0.0503492 0)
(1.05956 -0.0336944 -1.02049e-21)
(1.04858 -0.021823 -4.5868e-34)
(1.04178 -0.0132485 1.11259e-21)
(1.03732 -0.00489074 4.11963e-34)
(1.45065 -0.217226 -1.74647e-20)
(1.30467 -0.170742 0)
(1.21325 -0.125483 0)
(1.15263 -0.089077 0)
(1.11112 -0.0617606 0)
(1.08319 -0.0421372 0)
(1.06451 -0.0282507 1.86755e-21)
(1.05216 -0.0183069 3.59608e-21)
(1.04452 -0.0111149 1.08462e-21)
(1.03951 -0.00410278 3.85096e-21)
(1.45789 -0.161088 0)
(1.31881 -0.12968 -8.12856e-21)
(1.22649 -0.0967113 -1.2319e-20)
(1.16316 -0.0693189 0)
(1.11896 -0.0483604 -7.72774e-21)
(1.08881 -0.0331118 -5.32645e-21)
(1.06853 -0.0222378 -1.72671e-21)
(1.05508 -0.0144186 -2.20272e-21)
(1.04675 -0.00875435 3.52502e-21)
(1.04129 -0.00323087 2.73985e-21)
(1.46127 -0.108669 4.88463e-21)
(1.32787 -0.0893285 4.44635e-21)
(1.23549 -0.0673749 -1.90533e-21)
(1.1705 -0.0486529 4.21585e-36)
(1.12447 -0.0341049 -7.54617e-22)
(1.09276 -0.0234156 -4.40167e-35)
(1.07131 -0.0157466 1.70075e-21)
(1.05705 -0.0102127 5.69374e-21)
(1.04822 -0.00619465 9.57352e-22)
(1.04242 -0.00228022 -3.0912e-21)
(1.45157 -0.0591737 -2.21639e-20)
(1.32253 -0.0518619 7.93829e-21)
(1.23158 -0.0399057 9.19863e-21)
(1.1666 -0.0290879 0)
(1.12016 -0.0204921 5.45046e-21)
(1.08796 -0.0141062 3.78196e-21)
(1.06609 -0.00949764 4.15052e-21)
(1.05154 -0.00616182 1.61374e-21)
(1.04253 -0.00373432 -8.81065e-22)
(1.03662 -0.00137121 3.37037e-21)
(1.22194 -0.00785713 0)
(1.1232 -0.00925822 0)
(1.04943 -0.00758866 0)
(0.99534 -0.00562878 0)
(0.956277 -0.00399117 0)
(0.929054 -0.00275969 0)
(0.910506 -0.00186273 1.58324e-21)
(0.898147 -0.00121151 -7.84684e-36)
(0.890483 -0.00072106 9.9809e-22)
(0.885493 -0.000255022 2.98417e-21)
(2.04678 -0.0370153 8.07726e-19)
(2.03425 -0.137206 5.47408e-20)
(2.00472 -0.234789 -1.11111e-19)
(1.95878 -0.327679 -3.19526e-19)
(1.89801 -0.414141 -1.01472e-19)
(1.82297 -0.492691 -1.56443e-19)
(1.73936 -0.55921 -3.93836e-19)
(1.63737 -0.623131 1.17824e-19)
(1.55318 -0.648755 0)
(1.40825 -0.723015 4.27857e-20)
(1.9635 -0.027391 2.26609e-19)
(1.95362 -0.102798 -3.03475e-19)
(1.93118 -0.1769 -2.48372e-20)
(1.89618 -0.248377 -1.27227e-19)
(1.85109 -0.315622 4.07931e-20)
(1.79283 -0.379403 1.26559e-19)
(1.73324 -0.43057 -2.79943e-20)
(1.65086 -0.492903 6.85153e-20)
(1.59402 -0.504493 -8.82694e-20)
(1.48711 -0.583444 2.47929e-20)
(1.89416 -0.0208947 -1.06533e-19)
(1.88654 -0.0805551 2.17312e-19)
(1.86894 -0.139034 1.67679e-19)
(1.84107 -0.195653 -2.24812e-19)
(1.80563 -0.248907 5.25971e-20)
(1.75893 -0.300877 1.73575e-19)
(1.71241 -0.341256 -2.82865e-20)
(1.64744 -0.395941 3.95141e-20)
(1.59918 -0.404977 4.82916e-20)
(1.52081 -0.474682 6.42833e-20)
(1.84031 -0.0172334 -2.25135e-19)
(1.83409 -0.0632565 1.73601e-21)
(1.81952 -0.10856 -4.69566e-20)
(1.79645 -0.152812 -4.16282e-20)
(1.76708 -0.194632 -5.09184e-20)
(1.72881 -0.236252 -8.77693e-20)
(1.68977 -0.268602 1.0329e-19)
(1.63834 -0.313489 1.70185e-20)
(1.5956 -0.32239 -2.18631e-21)
(1.53679 -0.378949 9.32906e-21)
(1.79821 -0.0137571 3.97315e-20)
(1.79298 -0.048991 7.90067e-20)
(1.78053 -0.0837006 -3.84848e-20)
(1.76089 -0.117735 1.82715e-19)
(1.73561 -0.150031 -8.99411e-21)
(1.70347 -0.182432 -1.43354e-19)
(1.66937 -0.208041 2.14036e-20)
(1.62762 -0.243051 -7.32368e-20)
(1.58928 -0.251834 7.4188e-20)
(1.54299 -0.295529 5.13015e-20)
(1.7661 -0.0113425 -1.19179e-19)
(1.7616 -0.037458 -5.45666e-20)
(1.75061 -0.0632227 1.19033e-20)
(1.73336 -0.0885881 7.73875e-20)
(1.71084 -0.112821 1.05443e-19)
(1.68292 -0.137239 -4.05875e-20)
(1.6522 -0.157046 3.2986e-21)
(1.61684 -0.183407 1.63397e-20)
(1.58182 -0.191621 4.01518e-20)
(1.54338 -0.224247 -3.80768e-20)
(1.7425 -0.00947825 -4.03714e-20)
(1.73856 -0.027745 -8.50238e-20)
(1.72861 -0.0457845 -8.29336e-20)
(1.713 -0.0636279 -1.42491e-19)
(1.69236 -0.0808298 1.54593e-20)
(1.66722 -0.098278 1.64943e-20)
(1.63876 -0.112842 2.30896e-20)
(1.60744 -0.131855 8.05215e-21)
(1.5748 -0.138902 -3.31568e-20)
(1.54111 -0.162441 -2.72126e-21)
(1.72476 -0.0078668 4.35917e-20)
(1.7215 -0.019135 2.25438e-20)
(1.71257 -0.030211 1.18172e-20)
(1.69835 -0.0412042 -2.2128e-20)
(1.67922 -0.0519456 -1.86722e-20)
(1.65605 -0.063041 -1.17091e-21)
(1.62915 -0.0725846 -1.23718e-20)
(1.60026 -0.0852268 -1.89635e-21)
(1.56913 -0.0904681 -2.14119e-21)
(1.53806 -0.106967 2.54521e-20)
(1.6837 -0.00857638 -4.50148e-20)
(1.68173 -0.0126811 -6.25096e-21)
(1.67551 -0.0166587 7.19374e-20)
(1.66489 -0.0206747 -9.34322e-21)
(1.64988 -0.0247117 -1.28197e-20)
(1.63129 -0.0293181 1.56233e-20)
(1.60858 -0.0332582 -3.26585e-21)
(1.58431 -0.0399385 -5.229e-21)
(1.55568 -0.0421595 9.4649e-21)
(1.52953 -0.0528555 4.09499e-20)
(1.29157 -0.00455163 3.96006e-20)
(1.28666 -0.00308078 3.02711e-20)
(1.28252 -0.00168787 2.77448e-20)
(1.27937 -0.000434611 4.01024e-20)
(1.27667 0.000608859 -1.44434e-20)
(1.27468 0.00132961 -1.86285e-20)
(1.27116 0.0018801 2.97423e-21)
(1.27007 0.00119357 2.53817e-21)
(1.26081 0.0023751 -4.07157e-21)
(1.26494 -0.00223149 4.30093e-21)
(1.36208 0.727854 -5.11158e-20)
(1.35464 0.776228 2.55028e-20)
(1.36027 0.829617 -4.07964e-19)
(1.36876 0.888763 2.22591e-19)
(1.37745 0.952239 7.67732e-19)
(1.38469 1.01905 -1.41539e-19)
(1.38136 1.08327 -8.12603e-19)
(1.3295 1.11075 -4.09946e-20)
(1.12154 0.987408 -4.99279e-19)
(0.553683 0.511206 9.77053e-20)
(1.50692 0.70626 0)
(1.50742 0.752175 5.14238e-19)
(1.51303 0.802554 1.14287e-18)
(1.52276 0.859568 -6.77717e-19)
(1.53555 0.921873 -1.63778e-18)
(1.54881 0.988144 -1.39693e-19)
(1.55138 1.052 -1.79625e-19)
(1.49896 1.07922 6.71292e-19)
(1.26699 0.957131 1.09388e-18)
(0.624228 0.492186 4.58979e-19)
(1.63123 0.680873 6.37751e-20)
(1.64182 0.723579 0)
(1.65377 0.770173 -6.68976e-20)
(1.66936 0.822629 6.95764e-19)
(1.68849 0.88046 5.27946e-20)
(1.70858 0.942699 -1.7787e-18)
(1.71707 1.0029 1.16663e-18)
(1.6635 1.02748 8.02071e-19)
(1.40669 0.907593 -9.98001e-19)
(0.690328 0.462451 -2.94361e-19)
(1.73744 0.638188 -1.0747e-19)
(1.75701 0.677382 -8.76041e-20)
(1.77784 0.720147 2.12229e-19)
(1.80194 0.767926 -2.6683e-19)
(1.82934 0.820713 -1.29968e-18)
(1.85748 0.87779 -1.01164e-18)
(1.87237 0.932805 1.16108e-18)
(1.81729 0.953518 8.24545e-19)
(1.53504 0.837459 0)
(0.74819 0.421278 0)
(1.83197 0.575186 -7.59844e-19)
(1.85901 0.610867 -1.29321e-18)
(1.88813 0.649703 -5.20655e-19)
(1.92062 0.692678 -3.49862e-20)
(1.95634 0.740012 0)
(1.99254 0.791141 1.45945e-19)
(2.01346 0.839934 1.73134e-19)
(1.95585 0.856297 2.22958e-19)
(1.64759 0.746729 -3.41342e-19)
(0.795024 0.369503 -8.70553e-20)
(1.91739 0.495252 8.98766e-19)
(1.9502 0.526927 -4.61409e-20)
(1.986 0.561182 -1.07192e-18)
(2.02552 0.598705 0)
(2.06849 0.639819 0)
(2.11172 0.684061 0)
(2.13736 0.725648 1.49537e-18)
(2.07569 0.737464 -1.92537e-18)
(1.74122 0.637769 -1.45938e-18)
(0.828989 0.309238 5.79022e-20)
(1.99181 0.402626 -1.21777e-18)
(2.02898 0.429353 -2.55122e-18)
(2.06992 0.457967 -4.44975e-21)
(2.115 0.489053 5.19186e-19)
(2.16382 0.522978 -4.29079e-20)
(2.21262 0.559352 1.23361e-18)
(2.24128 0.592871 -7.35008e-19)
(2.17383 0.599879 -2.47206e-18)
(1.81303 0.514468 1.69715e-19)
(0.849138 0.243925 1.33228e-19)
(2.05198 0.300436 -9.94383e-19)
(2.09249 0.321191 1.86098e-20)
(2.1373 0.343097 3.89151e-19)
(2.18661 0.366797 -3.77774e-19)
(2.23989 0.392619 5.89676e-19)
(2.2927 0.420216 1.75156e-18)
(2.32253 0.445287 -2.37337e-19)
(2.24762 0.44798 -1.4555e-18)
(1.86036 0.380576 4.04537e-19)
(0.856115 0.175836 8.01123e-20)
(2.09522 0.191081 3.7242e-19)
(2.1382 0.205101 9.09152e-20)
(2.1858 0.219471 -4.19985e-19)
(2.23809 0.234973 -9.58213e-19)
(2.29444 0.251972 1.02507e-19)
(2.3497 0.270074 1.09403e-19)
(2.37882 0.285661 -1.72817e-18)
(2.29438 0.287173 8.42865e-19)
(1.88276 0.241328 3.06474e-19)
(0.850043 0.106412 -2.2353e-19)
(2.1201 0.0766945 7.48151e-19)
(2.16462 0.0833358 -1.13766e-18)
(2.21376 0.089739 1.93042e-19)
(2.26771 0.0966038 2.41549e-18)
(2.32568 0.104143 1.28957e-18)
(2.38168 0.11242 -3.01313e-18)
(2.40809 0.119669 -3.39049e-18)
(2.31278 0.121171 1.95445e-18)
(1.88081 0.0993545 -6.11028e-21)
(0.831275 0.038498 6.90946e-21)
(0.523642 0.188234 -1.98475e-19)
(0.489874 0.194738 -1.79476e-19)
(0.447651 0.201836 1.10708e-19)
(0.399527 0.209496 -3.69927e-19)
(0.346803 0.217754 -5.2085e-20)
(0.288876 0.226622 3.11788e-19)
(0.224481 0.235229 9.24386e-20)
(0.152975 0.237913 -6.27952e-20)
(0.0792918 0.213846 -1.26494e-20)
(0.0138031 0.117099 2.85065e-20)
(0.549587 0.287619 1.60755e-19)
(0.516655 0.300839 2.35954e-19)
(0.475779 0.315431 3.48581e-20)
(0.429223 0.331172 -1.06244e-19)
(0.378197 0.348074 -3.48312e-19)
(0.322115 0.366197 2.40993e-20)
(0.259543 0.384051 2.18013e-19)
(0.188834 0.391714 -5.26733e-21)
(0.111766 0.353168 -3.76526e-20)
(0.0315684 0.192072 -1.10012e-20)
(0.59252 0.38282 -1.77734e-19)
(0.56109 0.402509 -1.95095e-19)
(0.522557 0.42421 1.68832e-19)
(0.478677 0.447612 1.59019e-19)
(0.430511 0.472726 -6.21222e-20)
(0.37751 0.499654 -1.39254e-19)
(0.317952 0.526291 -8.51419e-20)
(0.248462 0.538596 3.81858e-20)
(0.165481 0.485903 -2.98002e-20)
(0.0606164 0.263069 6.35016e-21)
(0.651339 0.47164 1.00105e-19)
(0.622056 0.497453 3.44807e-22)
(0.586811 0.525713 -1.36643e-19)
(0.546665 0.556174 9.98067e-20)
(0.502479 0.588886 -9.64196e-20)
(0.453754 0.623972 4.1787e-20)
(0.398369 0.658727 -1.06784e-19)
(0.330488 0.675225 -5.85139e-20)
(0.239048 0.609049 -2.11028e-19)
(0.100074 0.328395 5.09572e-20)
(0.724577 0.552025 -3.26863e-20)
(0.698047 0.583529 -1.33181e-20)
(0.666973 0.617645 -4.25078e-20)
(0.631564 0.654392 -1.40656e-19)
(0.592424 0.693908 6.08776e-20)
(0.549106 0.736318 -1.00176e-19)
(0.498978 0.778321 1.6861e-19)
(0.433132 0.798384 5.23828e-21)
(0.330785 0.719633 2.80359e-19)
(0.148943 0.386495 2.18931e-19)
(0.810382 0.622086 6.16083e-21)
(0.787101 0.658635 -5.21913e-20)
(0.760929 0.697672 1.72335e-19)
(0.731138 0.739732 8.76894e-20)
(0.698024 0.785105 1.7837e-19)
(0.66117 0.833866 8.05335e-20)
(0.617294 0.882113 3.64889e-19)
(0.553868 0.90499 1.83473e-19)
(0.438648 0.814589 1.69621e-19)
(0.206061 0.435571 1.91018e-19)
(0.906494 0.680198 -9.33066e-20)
(0.887218 0.721125 2.55929e-19)
(0.866924 0.764083 1.42222e-19)
(0.84377 0.810324 -1.35331e-19)
(0.817655 0.860389 -7.73537e-20)
(0.788182 0.914317 4.30745e-19)
(0.751326 0.96764 -9.61499e-20)
(0.690444 0.992537 -2.85229e-19)
(0.560305 0.891654 -4.24411e-20)
(0.269847 0.474248 2.18797e-19)
(1.00755 0.725016 1.51418e-19)
(0.992177 0.768847 5.32744e-20)
(0.978433 0.814282 -5.15491e-19)
(0.963149 0.863559 3.78842e-20)
(0.945532 0.917299 2.97348e-19)
(0.924965 0.975304 -2.372e-19)
(0.896423 1.03249 -4.81829e-20)
(0.83858 1.05848 -1.30348e-19)
(0.691937 0.948428 1.48826e-20)
(0.338085 0.501284 -2.76138e-19)
(1.12072 0.750026 2.31991e-20)
(1.11181 0.796833 -3.47963e-19)
(1.10538 0.843777 -2.62055e-21)
(1.09742 0.894965 2.77068e-19)
(1.08729 0.951522 -2.69855e-19)
(1.07468 1.01291 5.71113e-19)
(1.05368 1.07336 4.29391e-19)
(0.997817 1.10041 -7.34375e-19)
(0.83213 0.98368 -5.71664e-20)
(0.409553 0.516525 -3.0825e-19)
(1.20476 0.76307 -1.88642e-19)
(1.20742 0.811587 -1.92289e-19)
(1.21676 0.860047 2.25209e-19)
(1.22347 0.912325 4.69368e-19)
(1.22625 0.96972 1.97158e-19)
(1.22541 1.03198 -4.82998e-19)
(1.21434 1.09314 2.1649e-20)
(1.16137 1.11942 1.63863e-19)
(0.975671 0.997237 -2.64132e-19)
(0.481738 0.519778 -2.26637e-19)
(0.722305 0.0234684 1.70183e-20)
(1.19522 0.0369501 -2.10415e-20)
(0.913835 0.0420905 -5.20284e-21)
(1.0116 0.0454819 0)
(0.988613 0.0529504 2.10008e-20)
(0.968722 0.0634705 2.49685e-20)
(0.943567 0.0775294 3.16838e-20)
(0.895932 0.0957094 6.41063e-20)
(0.830827 0.120864 -9.36845e-20)
(0.659307 0.154512 -1.04437e-19)
(0.721943 0.0211734 3.89848e-20)
(1.19546 0.0371126 -7.19155e-20)
(0.914511 0.0445931 -1.27118e-21)
(1.0134 0.0471842 -1.02067e-20)
(0.99126 0.0564912 1.01669e-20)
(0.972475 0.0694106 -1.30405e-20)
(0.948537 0.0877587 -7.98047e-20)
(0.903253 0.113222 0)
(0.839903 0.155834 2.04112e-19)
(0.679811 0.217145 -2.47014e-19)
(0.721381 0.0189138 -5.78712e-20)
(1.19585 0.0371323 1.95311e-20)
(0.915064 0.0468625 3.06569e-20)
(1.0156 0.0486896 1.71645e-20)
(0.994278 0.0598571 -2.44411e-20)
(0.976892 0.0752007 7.86761e-23)
(0.954604 0.0978286 -5.69628e-20)
(0.91322 0.130617 -5.06046e-21)
(0.852748 0.190116 2.88361e-22)
(0.712877 0.277864 6.21044e-19)
(0.720613 0.0168214 -8.58339e-21)
(1.19633 0.0370095 4.85376e-21)
(0.915509 0.0488442 2.73635e-20)
(1.01819 0.0499871 1.40427e-20)
(0.997676 0.0630277 -1.24942e-20)
(0.981976 0.0807965 -1.51643e-20)
(0.961824 0.107653 8.54413e-20)
(0.925719 0.147758 -1.5146e-21)
(0.86955 0.22341 -2.53728e-19)
(0.757819 0.335421 6.55969e-20)
(0.719628 0.0149754 8.10386e-21)
(1.19685 0.0367267 -4.09201e-20)
(0.915866 0.0504806 -2.15214e-20)
(1.0212 0.0510723 5.63904e-21)
(1.00146 0.0659842 0)
(0.987727 0.0861575 0)
(0.970253 0.117165 7.30036e-20)
(0.940644 0.164506 2.7458e-22)
(0.890496 0.255496 -1.23891e-19)
(0.813758 0.388666 9.04123e-20)
(0.71841 0.0134573 -1.65478e-21)
(1.19732 0.0362548 3.51092e-20)
(0.916167 0.0517127 -4.38587e-20)
(1.02465 0.0519497 -3.47252e-20)
(1.00561 0.0687085 -6.514e-22)
(0.994142 0.0912495 6.15823e-20)
(0.979942 0.126324 1.14074e-19)
(0.957888 0.180705 -7.87943e-22)
(0.915802 0.285815 2.06026e-19)
(0.879665 0.437145 -1.96607e-19)
(0.71694 0.0123632 -2.53165e-20)
(1.19764 0.0355509 1.79601e-20)
(0.916452 0.0524815 -5.01347e-21)
(1.02854 0.0526351 -5.60571e-20)
(1.01013 0.0711802 1.74605e-21)
(1.00123 0.0960436 -1.11685e-21)
(0.990925 0.135099 -6.82744e-21)
(0.977269 0.196247 -2.00037e-19)
(0.945833 0.313092 1.55364e-19)
(0.953773 0.480163 -4.58078e-19)
(0.71519 0.0117858 1.14026e-20)
(1.19771 0.0345456 -5.4406e-20)
(0.916777 0.0527293 1.62795e-20)
(1.03289 0.0531547 4.53994e-20)
(1.01498 0.0733681 8.01937e-22)
(1.00898 0.1005 -7.16481e-20)
(1.00323 0.143401 -6.26319e-20)
(0.998542 0.211166 3.60014e-19)
(0.981068 0.33712 1.08397e-20)
(1.03427 0.520938 7.38927e-19)
(0.713128 0.0118529 -3.99951e-21)
(1.19748 0.0331634 2.42754e-20)
(0.917221 0.0523818 1.5827e-21)
(1.0377 0.0535296 -4.75377e-20)
(1.02012 0.0752125 -7.95139e-20)
(1.01734 0.104488 1.56614e-21)
(1.01676 0.150739 -8.62078e-20)
(1.02164 0.223764 4.67689e-19)
(1.02348 0.352023 -6.99059e-21)
(1.11808 0.545708 -1.00852e-18)
(0.710791 0.0127589 7.30035e-21)
(1.19759 0.0316163 3.6374e-20)
(0.9177 0.0513897 1.28874e-20)
(1.04293 0.0537859 -1.05489e-19)
(1.02517 0.0768444 -7.41398e-20)
(1.02519 0.108677 -6.05403e-20)
(1.02855 0.159505 -1.54494e-19)
(1.03969 0.240853 -4.38609e-19)
(1.05911 0.377672 -2.5336e-19)
(1.1964 0.598154 -1.11308e-18)
(0.710722 0.0129555 -2.04907e-20)
(1.19977 0.0293038 -7.46639e-21)
(0.919496 0.048678 -1.06077e-20)
(1.04884 0.0531535 2.03766e-21)
(1.03398 0.076076 5.25655e-20)
(1.03951 0.108585 -4.17667e-20)
(1.05199 0.159499 1.38853e-19)
(1.07824 0.23861 -4.35552e-19)
(1.12376 0.361048 -1.82058e-19)
(1.24819 0.576507 5.96878e-19)
(0.711215 0.0108933 1.65113e-20)
(1.20359 0.0264315 1.35587e-20)
(0.923707 0.0438201 3.78786e-21)
(1.05405 0.0507067 4.064e-20)
(1.04409 0.0723354 8.10732e-20)
(1.05482 0.103737 1.21546e-19)
(1.07552 0.151577 2.91558e-20)
(1.11473 0.223753 2.30075e-19)
(1.1745 0.328372 2.9724e-19)
(1.32005 0.497076 -1.09247e-20)
(0.711454 0.00822634 -2.05873e-20)
(1.20756 0.0231173 -4.66025e-21)
(0.928151 0.0388156 -9.14801e-21)
(1.05938 0.0470506 1.99097e-20)
(1.05379 0.0671921 2.22311e-34)
(1.06922 0.0965083 -8.40761e-21)
(1.09688 0.140004 -5.49138e-34)
(1.14603 0.203665 1.94944e-20)
(1.2141 0.28899 -5.39079e-20)
(1.37211 0.423113 -4.58129e-20)
(0.711749 0.00471775 3.65378e-20)
(1.21142 0.0191567 -4.94667e-35)
(0.932523 0.0335261 8.8673e-21)
(1.06458 0.0423458 -1.62557e-20)
(1.06272 0.060714 -3.19263e-20)
(1.08224 0.0872275 -4.0351e-20)
(1.11568 0.125588 -6.82439e-34)
(1.17205 0.180265 -9.92896e-20)
(1.2457 0.248032 -1.35245e-19)
(1.4063 0.352204 8.49016e-20)
(0.712169 0.000330076 0)
(1.21533 0.0146136 5.39087e-36)
(0.936749 0.0279709 0)
(1.06947 0.0367709 0)
(1.07069 0.0530512 0)
(1.09366 0.0762074 0)
(1.13176 0.108933 -4.08261e-34)
(1.1931 0.154474 0)
(1.2706 0.206929 -2.06459e-20)
(1.42679 0.285833 5.16949e-20)
(0.712765 -0.00495688 2.23129e-20)
(1.21944 0.00958117 -3.43261e-21)
(0.940796 0.0222477 8.17061e-21)
(1.0739 0.0305121 0)
(1.07757 0.0443927 0)
(1.1033 0.0637784 7.12595e-21)
(1.14503 0.0905865 2.83741e-20)
(1.20963 0.127081 -1.44662e-20)
(1.28962 0.166492 -3.06265e-20)
(1.43829 0.224037 1.94679e-19)
(0.713619 -0.0117482 -5.10981e-20)
(1.22397 0.00409642 4.92758e-21)
(0.944642 0.0165123 7.78183e-21)
(1.0777 0.0237644 -5.0722e-21)
(1.08322 0.0349404 -1.06965e-20)
(1.11106 0.0502537 -8.51518e-21)
(1.1555 0.0710045 -2.11945e-20)
(1.22212 0.0987027 -4.04546e-20)
(1.30355 0.127039 -5.43127e-20)
(1.44428 0.166725 8.19325e-20)
(0.714784 -0.0176918 -3.11575e-20)
(1.22919 -0.00160035 -1.59767e-20)
(0.948145 0.0110964 7.18591e-21)
(1.08058 0.0167137 -1.45621e-20)
(1.08739 0.0248798 7.14707e-35)
(1.11673 0.0359042 7.68652e-21)
(1.16307 0.050516 -9.84641e-34)
(1.23089 0.0696772 -1.46377e-20)
(1.31295 0.0883783 1.9248e-20)
(1.447 0.112666 2.59466e-20)
(0.714209 -0.0333081 1.78196e-19)
(1.22764 -0.00782921 -1.1053e-20)
(0.945212 0.00492802 7.04069e-21)
(1.07642 0.0103281 2.50349e-21)
(1.084 0.0150225 3.2875e-21)
(1.11433 0.0218642 1.39703e-20)
(1.1619 0.0306648 7.86273e-21)
(1.2304 0.0420597 -5.48541e-21)
(1.31241 0.0526647 -2.238e-20)
(1.44241 0.0650846 1.37483e-19)
(0.660678 -0.023637 2.64224e-20)
(1.07083 -0.0100661 -7.50089e-35)
(0.802401 0.00299043 6.30096e-21)
(0.926344 0.0013319 0)
(0.92957 0.0031264 0)
(0.956823 0.00459778 7.92217e-21)
(0.999512 0.00641169 -9.41121e-36)
(1.06018 0.00889807 -1.45328e-20)
(1.13321 0.0109449 -2.82093e-20)
(1.24165 0.012835 5.67785e-20)
(1.43696 0.617058 -1.73784e-19)
(1.52505 0.612932 -2.7778e-19)
(1.62016 0.597517 0)
(1.70871 0.560979 9.70831e-20)
(1.78966 0.503571 4.70311e-19)
(1.86401 0.430661 -1.37526e-19)
(1.92944 0.347366 1.39111e-18)
(1.98245 0.257007 -5.84839e-20)
(2.02055 0.161617 -3.47563e-19)
(2.04216 0.0634646 3.09643e-19)
(1.4763 0.508677 6.59556e-20)
(1.54074 0.503119 1.10366e-19)
(1.61927 0.480572 -4.15725e-21)
(1.69648 0.440814 1.63499e-19)
(1.76502 0.389259 -1.45269e-19)
(1.82489 0.329832 -3.69455e-19)
(1.87567 0.264721 -8.53555e-20)
(1.91583 0.195299 5.17658e-19)
(1.94432 0.122735 -1.93954e-20)