/*--------------------------------*- C++ -*----------------------------------*\
  =========                 |
  \\      /  F ield         | OpenFOAM: The Open Source CFD Toolbox
   \\    /   O peration     | Website:  https://openfoam.org
    \\  /    A nd           | Version:  13
     \\/     M anipulation  |
\*---------------------------------------------------------------------------*/
FoamFile
{
    format      ascii;
    class       surfaceScalarField;
    location    "0.255";
    object      phi;
}
// * * * * * * * * * * * * * * * * * * * * * * * * * * * * * * * * * * * * * //

dimensions      [0 3 -1 0 0 0 0];

internalField   nonuniform List<scalar> 
3485
(
0.00137152
-0.0112586
0.00988709
0.00505076
-0.031908
0.0282288
0.0107636
-0.0513843
0.0456714
0.018312
-0.0696779
0.0621296
0.0275452
-0.0868352
0.077602
0.0383492
-0.1029
0.092096
0.0506353
-0.117903
0.105617
0.0643608
-0.131865
0.118139
0.0796231
-0.144852
0.12959
-0.156881
0.139486
0.097018
0.00150026
-0.0127589
0.00544565
-0.0358534
0.011476
-0.0574146
0.0193235
-0.0775254
0.0287732
-0.0962849
0.0396478
-0.113775
0.0518034
-0.130059
0.0651321
-0.145194
0.0795426
-0.159262
-0.172188
0.094849
0.00147414
-0.014233
0.00532692
-0.0397062
0.0111745
-0.0632621
0.018721
-0.085072
0.0277259
-0.10529
0.0379898
-0.124038
0.049347
-0.141416
0.061658
-0.157504
0.0747909
-0.172395
-0.186031
0.0886343
0.00133885
-0.0155719
0.00485905
-0.0432264
0.010211
-0.0686141
0.0171175
-0.0919785
0.0253547
-0.113527
0.0347419
-0.133426
0.045133
-0.151807
0.0564081
-0.16878
0.0684606
-0.184448
-0.198788
0.0812173
0.00116695
-0.0167388
0.0042561
-0.0463155
0.00897345
-0.0733315
0.0150824
-0.0980874
0.0223929
-0.120838
0.0307543
-0.141787
0.0400491
-0.161102
0.0501846
-0.178915
0.0610832
-0.195346
-0.210402
0.0726972
0.000980066
-0.0177189
0.00358813
-0.0489236
0.00758706
-0.0773304
0.0127848
-0.103285
0.0190275
-0.12708
0.0261947
-0.148954
0.0341945
-0.169101
0.0429576
-0.187678
0.0524292
-0.204818
-0.220551
0.062578
0.000780787
-0.0184997
0.00286525
-0.051008
0.00606952
-0.0805346
0.0102438
-0.107459
0.0152681
-0.132105
0.0210489
-0.154735
0.0275173
-0.17557
0.0346246
-0.194785
0.0423366
-0.21253
-0.228854
0.0506397
0.000569778
-0.0190694
0.00209374
-0.052532
0.00443847
-0.0828794
0.0074937
-0.110515
0.0111702
-0.135781
0.015399
-0.158964
0.0201304
-0.180301
0.0253333
-0.199988
0.0309913
-0.218188
-0.234972
0.037109
0.000352589
-0.019422
0.00129605
-0.0534755
0.00274562
-0.0843289
0.00462932
-0.112398
0.00688791
-0.13804
0.00947503
-0.161551
0.0123578
-0.183184
0.0155174
-0.203148
0.0189485
-0.221619
-0.238689
0.022666
0.000137879
-0.0195599
0.000502745
-0.0538403
0.00105752
-0.0848837
0.00177041
-0.113111
0.00261491
-0.138884
0.00356992
-0.162506
0.00461993
-0.184234
0.00575541
-0.204283
0.00697291
-0.222837
0.0082775
-0.239994
0.000495286
-0.00186825
0.00137296
0.00209772
-0.00622576
0.00462332
0.00543256
-0.0113463
0.00801142
0.0101205
-0.0161107
0.0114228
0.0155468
-0.0201074
0.0146811
0.0214396
-0.0235004
0.0176077
0.0278963
-0.0266734
0.0202167
0.0350704
-0.0298608
0.0226867
0.0429483
-0.0330152
0.0251373
-0.035982
0.0513948
0.0275355
0.000421876
-0.00229012
0.00210922
-0.0079131
0.00545963
-0.0146967
0.00986078
-0.0205119
0.0149456
-0.0251922
0.020828
-0.0293828
0.0276881
-0.0335336
0.0354764
-0.037649
0.0439793
-0.0415181
-0.0450336
0.0530309
0.000682475
-0.0029726
0.00272559
-0.00995623
0.00581409
-0.0177852
0.00981793
-0.0245157
0.0148889
-0.0302632
0.021205
-0.0356988
0.0286977
-0.0410264
0.0370852
-0.0460365
0.0461474
-0.0505803
-0.0546808
0.0557945
0.000871776
-0.00384438
0.00307411
-0.0121586
0.00610732
-0.0208184
0.0102466
-0.028655
0.0157651
-0.0357817
0.0226448
-0.0425785
0.0306407
-0.0490223
0.0395151
-0.0549109
0.0491745
-0.0602396
-0.0650443
0.059538
0.000925972
-0.00477035
0.00320949
-0.0144421
0.00653722
-0.0241461
0.0111487
-0.0332665
0.0171831
-0.0418161
0.0245129
-0.0499083
0.0329449
-0.0574543
0.042382
-0.064348
0.052762
-0.0706196
-0.0762348
0.0639525
0.000945334
-0.00571568
0.00337718
-0.0168739
0.007101
-0.0278699
0.0121919
-0.0383574
0.0186601
-0.0482843
0.0263934
-0.0576416
0.0352945
-0.0663554
0.0453162
-0.0743697
0.0563794
-0.0816829
-0.0881816
0.0683262
0.000980412
-0.00669609
0.00358555
-0.0194791
0.00764488
-0.0319293
0.013114
-0.0438266
0.0199375
-0.0551077
0.0280287
-0.0657329
0.0373258
-0.0756524
0.0477821
-0.084826
0.0593243
-0.0932251
-0.100664
0.0718072
0.00101793
-0.00771402
0.00376762
-0.0222288
0.00807122
-0.0362329
0.0138208
-0.0495762
0.0209223
-0.0622092
0.0292868
-0.0740974
0.0388449
-0.0852106
0.0495399
-0.095521
0.0613127
-0.104998
-0.113415
0.074063
0.00105435
-0.00876837
0.00393595
-0.0251104
0.00845974
-0.0407567
0.0144807
-0.0555971
0.0218729
-0.0696013
0.0305261
-0.0827507
0.0403453
-0.0950298
0.0512418
-0.106417
0.0631344
-0.11689
-0.126299
0.0760182
0.00111872
0.00423713
0.0091519
0.0156844
0.023685
0.0330303
0.0436173
0.0553393
0.0680383
0.0812262
0.114183
-0.413125
0.350337
0.167669
-0.469028
0.415542
0.209031
-0.417103
0.375741
0.241386
-0.320342
0.287986
0.265466
-0.207055
0.182975
0.28075
-0.102885
0.0876011
0.287909
-0.0410231
0.0338635
0.290594
-0.018133
0.015448
0.291013
-0.0105903
0.0101714
-0.00304567
0.00464654
0.116007
-0.476102
0.169621
-0.522642
0.211145
-0.458628
0.243281
-0.352477
0.267112
-0.230886
0.281733
-0.117506
0.288303
-0.0475935
0.290739
-0.0205686
0.291099
-0.0109498
-0.00148231
0.11797
-0.538278
0.170752
-0.575423
0.212133
-0.500008
0.243892
-0.384236
0.267487
-0.254481
0.281638
-0.131657
0.287994
-0.0539495
0.29051
-0.0230853
0.291041
-0.0114806
-0.000182941
0.120407
-0.599147
0.171301
-0.626317
0.212063
-0.54077
0.243285
-0.415458
0.266669
-0.277865
0.280627
-0.145615
0.28711
-0.0604328
0.289964
-0.0259384
0.290873
-0.0123903
0.000639143
0.123292
-0.658487
0.17148
-0.674505
0.211022
-0.580312
0.241517
-0.445953
0.264692
-0.30104
0.278751
-0.159675
0.285674
-0.0673553
0.289101
-0.0293661
0.290593
-0.0138817
0.000776859
0.126107
-0.716267
0.171359
-0.719757
0.209106
-0.618059
0.238644
-0.475491
0.261571
-0.323968
0.276012
-0.174115
0.283683
-0.0750271
0.287925
-0.0336072
0.290194
-0.0161513
2.48527e-05
0.127999
-0.772459
0.17079
-0.762548
0.206408
-0.653677
0.234759
-0.503843
0.257344
-0.346552
0.272404
-0.189175
0.281144
-0.0837662
0.286438
-0.0389019
0.289677
-0.0193896
-0.00181599
0.128041
-0.826437
0.16932
-0.803827
0.202841
-0.687198
0.229863
-0.530865
0.25199
-0.368679
0.26787
-0.205056
0.278038
-0.0939338
0.284644
-0.0455076
0.289033
-0.0237794
-0.00494693
0.125931
-0.87635
0.166553
-0.84445
0.198401
-0.719046
0.224101
-0.556565
0.245624
-0.390202
0.262456
-0.221888
0.274402
-0.10588
0.282555
-0.053661
0.288262
-0.0294862
-0.00956495
0.122226
-0.917349
0.161693
-0.883916
0.192236
-0.749589
0.216859
-0.581188
0.237808
-0.411151
0.255801
-0.23988
0.270068
-0.120147
0.280095
-0.0636881
0.287289
-0.0366797
-0.0158623
0.583724
-0.91966
-0.581413
0.560761
-0.860953
0.523242
-0.712071
0.486433
-0.544378
0.458593
-0.383311
0.446543
-0.227831
0.446839
-0.120443
0.447489
-0.0643378
0.445589
-0.0347798
-0.0153032
0.682595
-0.870889
-0.731366
0.619396
-0.797753
0.553955
-0.646631
0.497967
-0.48839
0.458119
-0.343463
0.441465
-0.211176
0.435059
-0.114036
0.427373
-0.0566516
0.420367
-0.027774
-0.0127063
0.754001
-0.774517
-0.850373
0.655584
-0.699336
0.565153
-0.5562
0.491788
-0.415025
0.438691
-0.290366
0.409822
-0.182307
0.395688
-0.0999027
0.387511
-0.0484747
0.382097
-0.0223594
-0.0104525
0.779378
-0.641306
-0.91259
0.654721
-0.574679
0.548305
-0.449784
0.464838
-0.331558
0.404884
-0.230412
0.369779
-0.147202
0.353145
-0.0832684
0.344861
-0.0401904
0.339977
-0.0174758
-0.00822619
0.75334
-0.492269
-0.902377
0.618309
-0.439647
0.5076
-0.339075
0.422715
-0.246673
0.36244
-0.170138
0.325346
-0.110109
0.306552
-0.0644746
0.297856
-0.0314939
0.293515
-0.013135
-0.00620449
0.685292
-0.345779
-0.831782
0.553098
-0.307453
0.447261
-0.233238
0.367621
-0.167033
0.311658
-0.114174
0.276232
-0.0746825
0.257099
-0.0453424
0.24828
-0.0226746
0.24433
-0.0091851
-0.00436729
0.582695
-0.213851
-0.714624
0.463066
-0.187823
0.369732
-0.139904
0.300899
-0.0981995
0.253173
-0.0664486
0.22242
-0.0439288
0.204762
-0.0276845
0.196348
-0.0142611
0.192819
-0.00565603
-0.00274668
0.44878
-0.105527
-0.557103
0.351241
-0.0902843
0.277242
-0.0659056
0.22405
-0.0450073
0.187748
-0.0301473
0.164037
-0.0202176
0.149639
-0.013286
0.142446
-0.00706845
0.139514
-0.00272359
-0.00139696
0.286588
-0.030224
-0.361891
0.220919
-0.0246153
0.172548
-0.0175344
0.13895
-0.0114091
0.116339
-0.00753646
0.1013
-0.00517864
0.0916395
-0.00362562
0.0865976
-0.00202651
0.0846204
-0.000746367
-0.000442531
0.101308
-0.131532
0.0766931
0.0591587
0.0477496
0.0402131
0.0350345
0.0314089
0.0293824
0.028636
0.738835
0.0102248
-0.740783
0.733088
0.0284134
0.723446
0.0467506
0.710169
0.0639169
0.693571
0.0791764
0.67407
0.0921981
0.652257
0.10303
0.628685
0.112206
0.604227
0.119308
0.119831
0.84556
0.0134005
-0.848736
0.83733
0.0366436
0.827292
0.0567883
0.816593
0.0746167
0.805242
0.0905266
0.792878
0.104562
0.779252
0.116657
0.764539
0.126919
0.749053
0.134794
0.137518
0.845006
0.0114305
-0.843036
0.848907
0.0327422
0.853047
0.052648
0.856501
0.0711633
0.858861
0.0881666
0.859942
0.103481
0.859606
0.116992
0.857961
0.128564
0.855271
0.137483
0.142417
0.800226
0.00930964
-0.798105
0.805836
0.027132
0.814439
0.0440455
0.825666
0.0599365
0.839043
0.074789
0.853908
0.0886162
0.869495
0.101406
0.885144
0.112915
0.900041
0.122586
0.129867
0.737875
0.00704365
-0.735609
0.744164
0.0208423
0.754136
0.0340744
0.767519
0.0465527
0.784106
0.0582029
0.803695
0.0690273
0.82604
0.0790599
0.8507
0.0882554
0.876653
0.096633
0.104143
0.653926
0.00485802
-0.65174
0.660209
0.014559
0.670385
0.0238981
0.68423
0.0327084
0.701536
0.0408965
0.722127
0.0484365
0.745828
0.0553582
0.772364
0.0617194
0.801271
0.0677262
0.0736329
0.549114
0.00291893
-0.547175
0.554815
0.00885777
0.564142
0.0145715
0.57691
0.0199403
0.59292
0.0248864
0.611974
0.0293819
0.633879
0.0334531
0.658419
0.0371795
0.685399
0.0407464
0.044408
0.422792
0.00137727
-0.42125
0.427413
0.00423691
0.435008
0.00697603
0.445423
0.0095258
0.458471
0.0118383
0.473958
0.0138948
0.491698
0.0157127
0.511529
0.0173484
0.53335
0.0189258
0.020655
0.273827
0.000367146
-0.272817
0.276914
0.00114972
0.281998
0.00189184
0.288955
0.00256934
0.297629
0.00316423
0.307855
0.00366876
0.31948
0.00408752
0.332392
0.00443602
0.346558
0.00475964
0.00532239
0.100483
-0.100116
0.101633
0.103525
0.106094
0.109258
0.112927
0.117014
0.12145
0.12621
0.0779979
0.159441
-0.142408
-0.0950309
0.0630766
0.147411
-0.13249
0.0496532
0.13437
-0.120947
0.037627
0.120308
-0.108281
0.0270416
0.105155
-0.0945699
0.0179867
0.0888863
-0.0798314
0.0105774
0.0714578
-0.0640485
0.00496516
0.05281
-0.0471978
0.00134843
0.0328764
-0.0292597
0.0116405
-0.0102921
0.0779902
0.174389
-0.0929385
0.0639058
0.161496
0.0508631
0.147413
0.0389531
0.132218
0.028285
0.115823
0.0190051
0.0981662
0.0112918
0.0791711
0.00536034
0.0587415
0.00147732
0.0367595
0.0131178
0.0732163
0.187899
-0.0867259
0.0603951
0.174317
0.0483664
0.159441
0.0372583
0.143326
0.0272083
0.125873
0.0183817
0.106993
0.0109774
0.0865753
0.00523541
0.0644835
0.00144954
0.0405453
0.0145674
0.0667985
0.200335
-0.0792348
0.0550516
0.186064
0.044061
0.170432
0.0339284
0.153458
0.0247698
0.135032
0.0167282
0.115034
0.00998185
0.0933217
0.00475128
0.0697141
0.00130951
0.0439871
0.0158769
0.0593327
0.211647
-0.0706448
0.0487289
0.196668
0.0388759
0.180285
0.029846
0.162488
0.0217266
0.143151
0.0146303
0.122131
0.00870235
0.0992497
0.00412624
0.0742902
0.00113084
0.0469825
0.0170077
0.0506124
0.221517
-0.0604823
0.0414206
0.205859
0.0329335
0.188772
0.0252006
0.170221
0.0182853
0.150067
0.0122726
0.128143
0.00727492
0.104247
0.00343636
0.0781287
0.000937184
0.0494817
0.0179449
0.0404668
0.229564
-0.0485138
0.033019
0.213307
0.0261803
0.195611
0.0199794
0.176422
0.0144583
0.155588
0.00967766
0.132924
0.00572033
0.108205
0.0026936
0.0811555
0.000731757
0.0514435
0.0186767
0.0290599
0.235445
-0.0349401
0.0236549
0.218712
0.0187168
0.200549
0.0142562
0.180883
0.0102965
0.159547
0.00687745
0.136343
0.00405539
0.111027
0.00190409
0.0833068
0.000515207
0.0528324
0.0191919
0.0169199
0.238931
-0.0204058
0.0137432
0.221889
0.0108554
0.203437
0.0082548
0.183483
0.00595119
0.161851
0.00396611
0.138328
0.00233184
0.112661
0.00109045
0.0845482
0.000293164
0.0536297
0.019485
0.00482745
-0.00589055
0.00387972
0.00303316
0.0022825
0.00162733
0.00107133
0.000621142
0.000285567
7.4888e-05
0.0433584
0.0409977
-0.0521951
-0.032161
0.0350429
0.0379658
-0.0296503
0.027436
0.0345915
-0.0269845
0.0207524
0.031014
-0.0243305
0.0149812
0.0274849
-0.0217136
0.00988269
0.0239507
-0.0188522
0.00536014
0.0198295
-0.0153069
0.00192248
0.014258
-0.0108204
0.000372098
0.00728412
-0.00573372
0.00205426
-0.00168216
0.0437688
0.0501642
-0.0529353
0.0351213
0.0466134
0.0270899
0.0426228
0.019958
0.038146
0.0140299
0.033413
0.00929827
0.0286823
0.00551572
0.023612
0.00255391
0.0172198
0.00061016
0.00922787
0.00266442
0.0452093
0.0597539
-0.054799
0.0362492
0.0555734
0.0279709
0.0509011
0.0204978
0.0456191
0.0141572
0.0397535
0.00920669
0.0336328
0.00558355
0.0272352
0.00291771
0.0198857
0.000811499
0.0113341
0.00347592
0.0477599
0.0699909
-0.057997
0.0382713
0.065062
0.0296439
0.0595286
0.0219175
0.0533455
0.0152241
0.046447
0.0098252
0.0390316
0.00584236
0.031218
0.00300245
0.0227256
0.000887237
0.0134493
0.00436316
0.0512271
0.0809729
-0.0622091
0.0410668
0.0752224
0.0318905
0.0687048
0.0237615
0.0614745
0.0167066
0.0535019
0.0108573
0.0448809
0.00635196
0.0357234
0.00310003
0.0259775
0.000893143
0.0156562
0.0052563
0.0548629
0.0926235
-0.0665135
0.0440882
0.0859971
0.0343527
0.0784403
0.0257325
0.0700947
0.0182516
0.0609828
0.0119688
0.0511637
0.00698129
0.0407109
0.00330637
0.0296524
0.000917773
0.0180448
0.00617408
0.0578391
0.104753
-0.0699682
0.046633
0.0972032
0.0364855
0.0885877
0.0274584
0.0791219
0.0195886
0.0688526
0.0129274
0.0578249
0.00755517
0.0460831
0.003543
0.0336646
0.000965247
0.0206225
0.00713932
0.0598263
0.11712
-0.0721935
0.0484105
0.108619
0.0380333
0.098965
0.0287408
0.0884143
0.0205852
0.0770082
0.0136356
0.0647745
0.00798289
0.0517358
0.00373204
0.0379154
0.00100833
0.0233462
0.00814766
0.061587
0.129607
-0.074074
0.0500587
0.120147
0.0394829
0.109541
0.0299316
0.0979656
0.0214912
0.0854486
0.0142582
0.0720075
0.00834676
0.0576472
0.00389008
0.0423721
0.00104338
0.0261929
0.00919103
0.0664046
-0.0792055
0.0540618
0.0426558
0.03234
0.0232186
0.0153947
0.00899347
0.0041678
0.00110103
0.215245
0.0559465
-0.0732016
0.234982
0.0962939
-0.116031
0.255378
0.12318
-0.143576
0.265155
0.115075
-0.124852
0.264975
0.118691
-0.118511
0.246669
0.182103
-0.163797
0.215021
0.294013
-0.262366
0.172775
0.409302
-0.367056
0.117444
0.49007
-0.434739
0.457382
-0.392133
0.21429
0.0396464
0.233306
0.0772781
0.253147
0.103339
0.263646
0.104576
0.264516
0.117821
0.247278
0.199341
0.215909
0.325383
0.173263
0.451948
0.117706
0.545626
0.522153
0.213398
0.0242377
0.232104
0.0585721
0.251399
0.0840435
0.262316
0.0936601
0.26348
0.116657
0.246793
0.216029
0.215626
0.35655
0.172776
0.494798
0.118066
0.600336
0.58542
0.212645
0.00958229
0.231361
0.0398559
0.250103
0.0653019
0.261126
0.082637
0.261937
0.115846
0.245239
0.232727
0.214171
0.387618
0.171555
0.537414
0.118985
0.652907
0.646408
0.212153
-0.00458091
0.231073
0.0209362
0.249195
0.04718
0.259951
0.0718804
0.259817
0.11598
0.242587
0.249957
0.211589
0.418616
0.169904
0.579099
0.120546
0.702264
0.704745
0.212007
-0.0185981
0.231216
0.00172762
0.248577
0.0298185
0.258609
0.0618487
0.256972
0.117617
0.238802
0.268127
0.208005
0.449414
0.16805
0.619054
0.122321
0.747992
0.760553
0.212222
-0.0328305
0.231733
-0.0177836
0.248134
0.0134175
0.256932
0.0530507
0.253288
0.121261
0.233935
0.28748
0.203616
0.479733
0.165998
0.656671
0.123486
0.790505
0.81407
0.212712
-0.0475525
0.232528
-0.0375995
0.247731
-0.00178602
0.254704
0.0460781
0.248568
0.127397
0.227963
0.308085
0.198458
0.509237
0.163381
0.691749
0.123074
0.830812
0.864951
0.21324
-0.0628024
0.233456
-0.0578159
0.247239
-0.0155687
0.251914
0.0414034
0.242946
0.136365
0.221156
0.329875
0.192685
0.537708
0.159838
0.724596
0.120723
0.869927
0.9116
0.213752
-0.078565
0.234241
-0.0783041
0.246595
-0.0279233
0.248156
0.0398431
0.235807
0.148714
0.212848
0.352834
0.185451
0.565105
0.154535
0.755512
0.116946
0.907516
0.94934
0.333088
-0.109642
0.371689
-0.116905
0.405649
-0.0618837
0.425389
0.0201032
0.44228
0.131823
0.468732
0.326381
0.506876
0.526961
0.54957
0.712819
0.581143
0.875942
0.944164
0.58632
0.334561
-0.142194
0.375035
-0.157379
0.409886
-0.0967348
0.42835
0.00163928
0.443772
0.116401
0.479137
0.291016
0.535314
0.470784
0.604674
0.643458
0.675212
0.805405
0.886603
0.732773
0.336325
-0.176509
0.376906
-0.19796
0.412807
-0.132636
0.430981
-0.0165353
0.441461
0.105922
0.480252
0.252224
0.549317
0.401719
0.639941
0.552834
0.74257
0.702776
0.782828
0.846345
0.339097
-0.213595
0.375867
-0.23473
0.396599
-0.153368
0.399366
-0.0193022
0.41146
0.0938279
0.459024
0.204661
0.537662
0.323082
0.642377
0.448119
0.767947
0.577205
0.646013
0.904762
0.345626
-0.257211
0.357831
-0.246936
0.348028
-0.143564
0.347318
-0.0185922
0.367108
0.0740381
0.418327
0.153441
0.499925
0.241484
0.609424
0.338621
0.744552
0.442077
0.495282
0.895284
0.341532
-0.296732
0.324841
-0.230246
0.29551
-0.114233
0.293355
-0.0164371
0.315104
0.0522888
0.364203
0.104342
0.441549
0.164138
0.546729
0.233441
0.679256
0.30955
0.347692
0.826846
0.314493
-0.309215
0.273485
-0.189238
0.238758
-0.0795055
0.234924
-0.0126031
0.255479
0.031733
0.298431
0.0613904
0.365783
0.0967863
0.458877
0.140346
0.579042
0.189385
0.214977
0.711757
0.273905
-0.281109
0.213891
-0.129224
0.177432
-0.0430461
0.172703
-0.00787409
0.189326
0.0151099
0.222586
0.02813
0.274904
0.0444681
0.348965
0.0662857
0.447146
0.0912043
0.106097
0.556025
0.214643
-0.193742
0.140871
-0.0554517
0.11093
-0.0131052
0.106103
-0.00304715
0.11721
0.00400259
0.138299
0.00704086
0.17149
0.0112777
0.220084
0.0176914
0.286356
0.0249326
0.030401
0.362052
0.108268
0.0528165
0.0397113
0.0366641
0.0406667
0.0477076
0.0589852
0.0766767
0.101609
0.13201
0.608522
-0.117234
0.632223
-0.116639
0.655071
-0.109574
0.676247
-0.100411
0.69521
-0.0896074
0.711361
-0.0766334
0.724264
-0.0614174
0.733598
-0.0442741
0.739088
-0.0258952
-0.00758538
0.750148
-0.134609
0.765092
-0.131584
0.779331
-0.123812
0.792583
-0.113663
0.804669
-0.101693
0.815822
-0.0877863
0.82639
-0.0719858
0.83639
-0.0542737
0.844847
-0.0343524
-0.0114742
0.851012
-0.139276
0.853494
-0.134065
0.855037
-0.125356
0.855434
-0.11406
0.854594
-0.100854
0.852693
-0.0858851
0.849958
-0.0692508
0.846788
-0.0511035
0.843982
-0.0315464
-0.010528
0.8928
-0.127314
0.878753
-0.120018
0.864034
-0.110637
0.849426
-0.0994522
0.835541
-0.0869684
0.823081
-0.0734252
0.812674
-0.058844
0.80478
-0.0432099
0.799761
-0.0265273
-0.00887204
0.870569
-0.1026
0.845731
-0.0951795
0.822064
-0.0869697
0.800564
-0.0779519
0.781699
-0.0681035
0.765741
-0.0574674
0.752907
-0.04601
0.743415
-0.0337179
0.737533
-0.0206452
-0.00694774
0.79713
-0.0728836
0.769015
-0.0670646
0.743169
-0.0611241
0.720063
-0.0548457
0.699985
-0.0480257
0.683119
-0.0406015
0.669646
-0.0325366
0.659772
-0.0238444
0.653729
-0.0146021
-0.00495851
0.683027
-0.044154
0.65652
-0.0405574
0.632408
-0.0370119
0.610878
-0.0333159
0.592142
-0.0292893
0.576391
-0.0248513
0.563824
-0.0199698
0.554644
-0.0146638
0.549042
-0.00900065
-0.00309087
0.532506
-0.0206349
0.510898
-0.0189488
0.491262
-0.0173758
0.47369
-0.0157442
0.458338
-0.0139374
0.445387
-0.0119
0.435029
-0.00961203
0.427452
-0.0070873
0.42282
-0.00436866
-0.0015207
0.346768
-0.00535045
0.332626
-0.00480728
0.319733
-0.00448281
0.30812
-0.0041315
0.297895
-0.00371168
0.289204
-0.00320911
0.28221
-0.00261852
0.277069
-0.00194617
0.273909
-0.0012085
-0.000428514
0.12666
0.121853
0.11737
0.113238
0.109527
0.106318
0.103699
0.101753
0.100544
0.000185024
0.0116065
-0.0117916
0.000623627
0.0304399
-0.0308785
0.00123695
0.0462324
-0.0468457
0.00197699
0.0594563
-0.0601963
0.00277615
0.0700088
-0.070808
0.0037689
0.079875
-0.0808677
0.00396278
0.0772537
-0.0774476
0.00408411
0.0700298
-0.0701511
0.00394422
0.0610683
-0.0609284
0.0499463
0.00350651
-0.0495086
0.0005333
0.0110732
0.00180355
0.0291697
0.00358446
0.0444515
0.00574028
0.0573005
0.00807146
0.0676776
0.0110378
0.0769087
0.0116739
0.0766176
0.0120787
0.0696251
0.0117714
0.0613756
0.0510686
0.0106491
0.000835345
0.0102379
0.00283132
0.0271737
0.00563813
0.0416447
0.00904003
0.0538986
0.0127373
0.0639804
0.0172446
0.0724014
0.018787
0.0750752
0.0195684
0.0688437
0.019382
0.0615619
0.052425
0.0180256
0.00105578
0.00918212
0.00359635
0.0246331
0.00719236
0.0380487
0.0115539
0.0495371
0.0163538
0.0591804
0.0217442
0.0670111
0.0250687
0.0717507
0.0263506
0.0675618
0.0265987
0.0613139
0.0535569
0.0254668
0.00115122
0.00803089
0.00397856
0.0218058
0.00804028
0.033987
0.0129947
0.0445827
0.0185485
0.0536265
0.0245536
0.0610061
0.0299477
0.0663565
0.0320852
0.0654243
0.0330061
0.060393
0.0540819
0.0324811
0.00111124
0.00691965
0.00396518
0.0189519
0.00818403
0.0297681
0.0133878
0.0393789
0.0193147
0.0476997
0.0257678
0.054553
0.0324113
0.059713
0.0363083
0.0615273
0.0381196
0.0585817
0.0536984
0.0385031
0.000926025
0.00599363
0.00357213
0.0163058
0.00770893
0.0256313
0.0128791
0.0342088
0.0187831
0.0417957
0.0253338
0.0480022
0.0323165
0.0527303
0.038272
0.0555718
0.0415851
0.0552686
0.0521748
0.0431086
0.000567815
0.00542581
0.00278591
0.0140877
0.00665551
0.0217617
0.0116181
0.0292462
0.0172002
0.0362136
0.0234428
0.0417596
0.0302817
0.0458915
0.037181
0.0486724
0.0425614
0.0498883
0.0489139
0.0458223
0.000104252
0.00532156
0.00176837
0.0124236
0.0051738
0.0183563
0.00981093
0.0246091
0.0149519
0.0310726
0.0206166
0.036095
0.0269002
0.0396078
0.0335856
0.041987
0.0400865
0.0433875
0.0437815
0.0452189
-0.000174723
0.00549629
0.00108714
0.0111617
0.00385457
0.0155889
0.00788291
0.0205807
0.0124964
0.0264591
0.0175687
0.0310227
0.0231782
0.0339983
0.029254
0.0359112
0.0356439
0.0369976
0.0373507
0.0420747
-1.99607e-05
0.00551625
0.00114071
0.010001
0.00327729
0.0134523
0.0064114
0.0174466
0.0102944
0.0225761
0.0148406
0.0264765
0.0199661
0.0288728
0.0255039
0.0303734
0.0312475
0.0312539
0.0316693
0.0369289
0.000380573
0.00513568
0.00153627
0.00884532
0.00318634
0.0118022
0.00550007
0.0151329
0.00873023
0.0193459
0.0129281
0.0222786
0.0177905
0.0240104
0.0230676
0.0250963
0.0285697
0.0257518
0.026021
0.0342181
0.000631016
0.00450466
0.00171959
0.00775675
0.0030462
0.0104756
0.00487813
0.013301
0.00788989
0.0163342
0.0119971
0.0181714
0.0167634
0.0192441
0.0219511
0.0199085
0.0274289
0.0202739
0.0203538
0.0330961
0.00068756
0.0038171
0.00166434
0.00677996
0.00285782
0.00928213
0.00476218
0.0113966
0.00805515
0.0130412
0.0123005
0.0139261
0.0171308
0.0144138
0.0223851
0.0146543
0.0279669
0.0146921
0.0145297
0.033791
0.00067318
0.00314391
0.00157627
0.00587686
0.00303707
0.00782133
0.00564125
0.00879242
0.00943849
0.00924393
0.0139653
0.00939926
0.0190139
0.00936516
0.0244842
0.00918398
0.0303079
0.00886849
0.00842392
0.0364137
0.000593864
0.00255005
0.00172412
0.00474659
0.00407952
0.00546592
0.00753659
0.00533535
0.0117833
0.00499726
0.0166235
0.00455903
0.0219568
0.00403183
0.027724
0.00341682
0.0338734
0.00271901
0.00195087
0.0403465
0.000516033
0.00203401
0.00246743
0.00279518
0.00572136
0.00221199
0.00970347
0.00135323
0.014276
0.000424763
0.0193925
-0.00055753
0.0250239
-0.00159958
0.0311282
-0.00268746
0.0376446
-0.00379734
-0.00491711
0.0445125
0.000852546
0.00118145
0.0035749
7.28135e-05
0.00711289
-0.00132601
0.0112727
-0.00280658
0.0160393
-0.00434181
0.0214247
-0.005943
0.0273893
-0.0075641
0.0338416
-0.00913979
0.0406974
-0.0106531
-0.012135
0.0479152
0.00148818
-0.000306733
0.00409883
-0.00253784
0.00749184
-0.00471903
0.0116719
-0.00698661
0.0166529
-0.00932285
0.0223606
-0.0116507
0.0286253
-0.0138288
0.0353221
-0.0158366
0.0424247
-0.0177557
-0.0196439
0.0499336
0.00106622
0.00315169
0.00644408
0.0108802
0.0162385
0.0221955
0.0285834
0.0354334
0.042815
0.0507066
0.0517265
0.0832038
-0.0980014
0.0777365
-0.00817824
-0.0178318
0.100145
-0.0509659
0.0285569
0.113587
-0.0462283
0.0327869
0.121426
-0.0262015
0.018362
0.12537
-0.00894976
0.00500568
0.127756
-0.0012602
-0.00112498
0.129998
-9.75509e-05
-0.00214482
0.132488
-0.000984773
-0.00150507
-0.00232882
-0.00032816
0.05893
0.0584918
0.0919637
-0.041212
0.118985
-0.077987
0.13479
-0.0620334
0.143394
-0.0348058
0.147439
-0.0129942
0.149779
-0.00360033
0.15199
-0.00230806
0.154451
-0.00344626
-0.00476959
0.0668478
0.0247401
0.105127
-0.0794909
0.136012
-0.108873
0.155541
-0.0815619
0.165431
-0.0446957
0.169579
-0.0171428
0.171734
-0.0057548
0.173708
-0.00428245
0.175898
-0.00563631
-0.006786
0.0755586
-0.0170276
0.117693
-0.121625
0.151459
-0.142639
0.174842
-0.104945
0.186843
-0.0566965
0.191324
-0.0216238
0.193281
-0.00771151
0.194906
-0.00590735
0.196659
-0.00738909
-0.00822666
0.0843937
-0.0650077
0.129221
-0.166453
0.165093
-0.178511
0.191808
-0.13166
0.206815
-0.0717032
0.212188
-0.0269973
0.214073
-0.00959631
0.215317
-0.00715101
0.216539
-0.00861178
-0.00900236
0.0926261
-0.117287
0.139414
-0.213241
0.176866
-0.215963
0.206047
-0.160841
0.224396
-0.0900522
0.231547
-0.0341487
0.233679
-0.0117281
0.234612
-0.00808329
0.235291
-0.009291
-0.00908813
0.0996519
-0.172427
0.148054
-0.261643
0.186743
-0.254651
0.217532
-0.19163
0.238811
-0.111332
0.248632
-0.0439697
0.251592
-0.014688
0.25244
-0.00893086
0.252673
-0.00952429
-0.00853638
0.105179
-0.22969
0.15508
-0.311545
0.19475
-0.294321
0.226483
-0.223363
0.249734
-0.134582
0.262523
-0.0567591
0.26706
-0.0192251
0.268175
-0.0100457
0.268117
-0.00946606
-0.00745344
0.109218
-0.288974
0.160575
-0.362901
0.201005
-0.334752
0.233228
-0.255586
0.25736
-0.158714
0.272437
-0.0718363
0.279253
-0.0260413
0.281504
-0.0122967
0.281593
-0.00955533
-0.00607277
0.112069
0.16471
0.205699
0.2381
0.262361
0.278126
0.285948
0.2891
0.289716
0.0132016
0.00607535
-0.019277
0.0110043
0.00219728
0.0115361
-0.000531788
0.0129325
-0.00139639
0.0136355
-0.000703042
0.013796
-0.00016045
0.0137097
8.6266e-05
0.013582
0.000127766
0.0134675
0.000114443
3.77177e-05
0.0372543
0.0232025
-0.0543814
0.0315569
0.00789464
0.0340956
-0.00307054
0.0380727
-0.00537343
0.0401923
-0.00282268
0.0406922
-0.000660333
0.0404713
0.000307212
0.0401341
0.000464969
0.0398694
0.000379159
0.000115327
0.0579938
0.0480487
-0.0828401
0.0510123
0.0148761
0.0560461
-0.00810437
0.062494
-0.0118213
0.0660607
-0.00638942
0.0669623
-0.00156192
0.0666612
0.000608393
0.0661652
0.000961007
0.0658043
0.000740032
0.000210051
0.0739628
0.0752955
-0.10121
0.0682811
0.0205578
0.0766609
-0.0164841
0.0858112
-0.0209716
0.0909739
-0.0115522
0.0923954
-0.00298336
0.0920962
0.000907582
0.0915114
0.00154581
0.0911164
0.00113508
0.000290783
0.0815232
-0.104229
0.0842491
0.0963217
0.108137
0.114947
0.116969
0.116752
0.116153
0.115783
0.00273307
-0.000172886
-0.00256019
0.00326382
-0.000530749
0.00417584
-0.000912019
0.0054866
-0.00131076
0.00718262
-0.00169602
0.00922676
-0.00204414
0.011583
-0.00235624
0.0141713
-0.00258826
0.0168567
-0.00268549
-0.00242024
0.00778577
-0.000645557
-0.0073131
0.00923235
-0.00197733
0.0117112
-0.00339085
0.0152668
-0.00486639
0.0198801
-0.00630935
0.0254771
-0.0076411
0.0319585
-0.00883765
0.0391496
-0.00977935
0.0467615
-0.0102974
-0.0100401
0.0124755
-0.00138346
-0.0117376
0.0147247
-0.00422656
0.0185568
-0.00722295
0.0240197
-0.0103293
0.031073
-0.0133627
0.0395784
-0.0161465
0.0493192
-0.0185784
0.0600421
-0.0205023
0.0714072
-0.0216626
-0.021473
0.016804
-0.00234722
-0.0158403
0.0197277
-0.00715022
0.02467
-0.0121652
0.0316452
-0.0173045
0.0405423
-0.0222598
0.0510969
-0.0267012
0.0629271
-0.0304086
0.0756849
-0.03326
0.0888548
-0.0348324
-0.0338278
0.0207889
-0.0196296
0.0242878
0.0301482
0.0383105
0.0485319
0.0603338
0.0730338
0.085596
0.0959824
0.0315253
-0.0312637
0.037083
-0.0373446
0.0256526
-0.0308597
0.0367323
0.0199827
-0.0300265
0.0356964
0.014724
-0.0286313
0.03389
0.0100897
-0.0264267
0.0310609
0.00622125
-0.0227512
0.0266196
0.00312625
-0.0176402
0.0207352
0.00102717
-0.0136164
0.0157155
-8.03182e-05
-0.0101515
0.011259
-0.00562607
0.00554576
0.0295957
-0.0253843
-0.0354751
0.0238647
-0.0251287
0.0183602
-0.0245219
0.0132577
-0.0235288
0.00880696
-0.0219759
0.00539094
-0.0193351
0.00304667
-0.0152959
0.00141549
-0.0119852
0.000309126
-0.00904517
-0.00531694
0.0296023
-0.0193807
-0.0356058
0.0237836
-0.01931
0.0182515
-0.0189898
0.0131215
-0.0183988
0.00859462
-0.017449
0.00511913
-0.0158596
0.0030538
-0.0132306
0.00167761
-0.010609
0.000600087
-0.00796764
-0.00471685
0.0314852
-0.0131102
-0.0377557
0.02545
-0.0132748
0.0197325
-0.0132723
0.0144196
-0.0130859
0.00965056
-0.0126799
0.00574727
-0.0119563
0.00326682
-0.0107501
0.00180457
-0.00914675
0.000748941
-0.006912
-0.00396791
0.0349465
-0.00646707
-0.0415896
0.0285859
-0.00691427
0.0225791
-0.00726548
0.0169932
-0.00749997
0.0119203
-0.00760701
0.00754182
-0.00757783
0.00419295
-0.00740127
0.00202731
-0.00698109
0.000809455
-0.00569414
-0.00315845
0.0390439
0.000598132
-0.0461091
0.0323041
-0.000174454
0.0259608
-0.000922203
0.0200865
-0.00162567
0.0147412
-0.00226167
0.00998759
-0.00282424
0.0059085
-0.00332217
0.00267181
-0.00374439
0.000719062
-0.00374138
-0.00243938
0.0426337
0.00804179
-0.0500773
0.0355296
0.00692962
0.0288194
0.005788
0.0225996
0.0045941
0.0169659
0.0033721
0.0119551
0.00218654
0.0075552
0.00107773
0.00378235
2.84686e-05
0.000957075
-0.000916094
-0.0014823
0.0447262
0.015752
-0.0524364
0.0373875
0.0142684
0.0304207
0.0127548
0.0238673
0.0111475
0.0178687
0.00937067
0.0125991
0.00745619
0.00812739
0.00554944
0.00443738
0.00371849
0.00157906
0.00194224
9.67654e-05
0.044849
0.023748
-0.052845
0.0373279
0.0217895
0.0302836
0.0197991
0.0236363
0.0177947
0.0173691
0.0156379
0.0116806
0.0131446
0.00692834
0.0103017
0.00336753
0.00727931
0.0011287
0.00418108
0.00122547
0.0439207
-0.0523337