/*--------------------------------*- C++ -*----------------------------------*\
  =========                 |
  \\      /  F ield         | OpenFOAM: The Open Source CFD Toolbox
   \\    /   O peration     | Website:  https://openfoam.org
    \\  /    A nd           | Version:  13
     \\/     M anipulation  |
\*---------------------------------------------------------------------------*/
FoamFile
{
    format      ascii;
    class       surfaceScalarField;
    location    "0.895";
    object      phi;
}
// * * * * * * * * * * * * * * * * * * * * * * * * * * * * * * * * * * * * * //

dimensions      [0 3 -1 0 0 0 0];

internalField   nonuniform List<scalar> 
823
(
0.0113782
-0.0505538
0.0391756
0.0387597
-0.133435
0.106053
0.0788333
-0.205877
0.165804
0.130172
-0.26887
0.217532
-0.32326
0.259418
0.194014
0.0107033
-0.0612572
0.0361438
-0.158875
0.0726489
-0.242382
0.117973
-0.314194
-0.375601
0.170313
0.00837711
-0.0696343
0.0282852
-0.178784
0.0567257
-0.270823
0.0918102
-0.349279
-0.41605
0.13226
0.00529926
-0.0749335
0.0179955
-0.19148
0.0362294
-0.289057
0.0588835
-0.371933
-0.442414
0.0852475
0.00196195
-0.0768955
0.00662996
-0.196148
0.0132895
-0.295716
0.0215217
-0.380165
0.0310618
-0.451954
0.00661656
-0.0107668
0.00415006
0.022129
-0.0309406
0.0154281
0.0453143
-0.0485434
0.0253581
0.0744478
-0.0639901
0.0348567
-0.0770863
0.108089
0.0434452
0.00573907
-0.0165059
0.0214368
-0.0466384
0.0466199
-0.0737265
0.0796373
-0.0970075
-0.116131
0.118682
0.00638844
-0.0228944
0.0236382
-0.0638883
0.051195
-0.101283
0.0878516
-0.133664
-0.160138
0.131859
0.00753536
-0.0304297
0.0270833
-0.0834362
0.0573053
-0.131505
0.0970009
-0.17336
-0.207907
0.144771
0.00874586
0.0313631
0.0656615
0.109834
0.161344
0.322428
-0.958492
0.744153
0.474603
-0.824056
0.671881
0.575248
-0.357435
0.25679
0.618643
-0.0691177
0.0257228
0.00338061
-0.00866703
0.330119
-1.16993
0.470808
-0.964745
0.576736
-0.463362
0.643045
-0.135426
-0.0213445
0.336277
-1.37435
0.460536
-1.089
0.562899
-0.565726
0.642854
-0.215381
-0.0632488
0.337248
-1.56682
0.447514
-1.19927
0.540454
-0.658666
0.615692
-0.290619
-0.103137
0.327626
-1.73311
0.427859
-1.2995
0.508682
-0.739489
0.57211
-0.354048
-0.134111
1.19774
-1.59053
-1.34031
1.00767
-1.10944
0.885721
-0.617538
0.826819
-0.295146
-0.111302
1.32967
-1.13311
-1.78709
0.981599
-0.761365
0.772781
-0.40872
0.677303
-0.199668
-0.07788
1.18936
-0.607673
-1.7148
0.816105
-0.388106
0.60999
-0.202605
0.511439
-0.101116
-0.0411293
0.822344
-0.18529
-1.24473
0.545297
-0.111058
0.396271
-0.053579
0.322424
-0.0272697
-0.011977
0.306715
-0.492004
0.195656
0.142077
0.114808
1.56259
0.0462491
-1.57778
1.52169
0.126154
1.46266
0.191283
1.39634
0.236636
0.25004
1.67586
0.0356507
-1.66526
1.69932
0.102694
1.7308
0.159794
1.76527
0.202167
0.228226
1.38797
0.0184772
-1.37079
1.43705
0.053608
1.51387
0.0829775
1.61014
0.105892
0.123568
0.977699
0.00531443
-0.964536
1.01588
0.0154233
1.07582
0.0230448
1.15388
0.0278276
0.0327214
0.392987
-0.387673
0.408411
0.431455
0.459283
0.128769
0.327628
-0.264673
-0.191725
0.0781584
0.273215
-0.222604
0.0385248
0.209792
-0.170159
0.0113403
0.136442
-0.109258
0.0519523
-0.0406119
0.115952
0.378906
-0.167231
0.0714989
0.317669
0.0356196
0.245671
0.0105616
0.1615
0.0625139
0.0888494
0.418274
-0.128217
0.0548114
0.351707
0.0272882
0.273195
0.00806517
0.180723
0.0705791
0.0552406
0.443533
-0.0804992
0.0337631
0.373184
0.0166551
0.290303
0.00486434
0.192514
0.0754434
0.0174804
-0.025902
0.0104997
0.00508593
0.00145208
0.0726937
0.087376
-0.107349
-0.0527201
0.0429253
0.0737498
-0.0439813
0.0197546
0.0569739
-0.0338031
0.00514351
0.0368335
-0.0222224
0.0133062
-0.00816268
0.0760123
0.125957
-0.114593
0.0437114
0.106051
0.0196368
0.0810484
0.00508799
0.0513823
0.0183942
0.0843489
0.168595
-0.126987
0.0490553
0.141344
0.0227156
0.107388
0.00616775
0.0679302
0.024562
0.0940214
0.214698
-0.140125
0.0557476
0.179618
0.0265144
0.136621
0.00742448
0.0870201
0.0319865
0.107386
-0.157361
0.0644002
0.030863
0.00862544
0.513552
0.177344
-0.294916
0.56405
0.158715
-0.209212
0.497832
0.313942
-0.247725
0.335331
0.802784
-0.640283
1.04188
-0.813896
0.514874
0.0584497
0.562865
0.110723
0.488671
0.388136
0.331569
0.959886
1.25885
0.515578
-0.0611492
0.549746
0.0765562
0.467803
0.470078
0.328014
1.09968
1.45988
0.512094
-0.177264
0.527428
0.0612221
0.442078
0.555429
0.323661
1.21809
1.64342
0.499701
-0.280985
0.49441
0.0665136
0.412362
0.637477
0.311834
1.31862
1.79789
0.76226
-0.439225
0.841403
-0.0126293
0.956034
0.522845
1.16944
1.10521
1.61975
1.34759
0.705339
-0.540543
0.778953
-0.086244
0.953686
0.348112
1.29751
0.761387
1.14352
1.77374
0.602224
-0.538747
0.632434
-0.116453
0.803237
0.177308
1.17244
0.392185
0.612045
1.70392
0.448497
-0.383224
0.405129
-0.0730848
0.535871
0.0465658
0.815996
0.112061
0.18691
1.24113
0.220796
0.147711
0.194277
0.306338
0.493248
1.4026
-0.246743
1.46575
-0.230376
1.523
-0.185466
1.56316
-0.120659
-0.0405263
1.75264
-0.225647
1.71972
-0.197461
1.69061
-0.156349
1.67083
-0.100881
-0.0349544
1.60146
-0.123192
1.50876
-0.104756
1.43456
-0.0821506
1.38705
-0.0533736
-0.0186958
1.15107
-0.0331346
1.07431
-0.02799
1.0153
-0.0231446
0.977572
-0.0156456
-0.0056604
0.460113
0.432123
0.408979
0.393333
0.00250157
0.043009
-0.0455105
0.0073284
0.101057
-0.105884
0.0160961
0.148403
-0.157171
0.0165795
0.151918
-0.152401
0.114035
0.014815
-0.11227
0.00682887
0.0361801
0.0201792
0.0877066
0.0409603
0.127622
0.048258
0.14462
0.116388
0.0459044
0.00880995
0.0273701
0.0270786
0.069438
0.052154
0.102547
0.0730967
0.123677
0.114042
0.0754431
0.00780178
0.0195684
0.025515
0.0517248
0.0497512
0.0783105
0.0774354
0.0959931
0.0992473
0.0922298
0.00509892
0.0144694
0.0179733
0.0388504
0.0367678
0.0595161
0.060013
0.0727478
0.0767451
0.0825151
0.00342327
0.0110462
0.0125792
0.0296945
0.0274447
0.0446505
0.0470639
0.0531286
0.0561464
0.0676626
0.00222158
0.00882458
0.00893308
0.022983
0.0222802
0.0313034
0.0410417
0.0343671
0.0347519
0.0624362
0.00168055
0.00714406
0.010159
0.0145045
0.0262381
0.0152242
0.0468124
0.0137926
0.0114828
0.0700813
0.00377542
0.00336864
0.0175967
0.000683238
0.0369511
-0.00413019
0.0599893
-0.00924568
-0.014445
0.0859169
0.0075186
0.0236299
0.0448578
0.0704688
0.099469
0.153944
0.0195662
-0.105847
0.243647
-0.130627
0.0409231
0.265098
-0.0383275
0.016876
0.269774
0.00462532
-0.00930044
-0.000715765
-0.00516947
0.215
-0.132997
0.325647
-0.241274
0.351928
-0.0646083
0.354087
0.00246703
-0.0030154
0.260381
-0.323297
0.391862
-0.372756
0.434312
-0.107058
0.435243
0.00153655
-0.000729272
0.293635
-0.531015
0.439271
-0.518392
0.503563
-0.17135
0.50962
-0.00451982
0.0046842
0.312607
0.466095
0.551535
0.572738
0.0707017
0.0386463
-0.109348
0.0787115
-0.00800974
0.0830924
-0.00438092
0.0803541
0.00273835
0.00129147
0.194203
-0.261404
0.227116
0.239611
0.233049
0.0207331
-0.00433173
-0.0164013
0.0342839
-0.0135509
0.0567634
-0.0224795
0.0856241
-0.0288607
-0.0237239
0.0539262
-0.0434429
0.0862797
0.139243
0.202612
0.0478229
-0.0551576
0.07636
-0.0690254
0.027554
-0.0521778
0.0724466
0.0123373
-0.0443857
0.0596024
0.00331833
-0.0300427
0.0390616
-0.0112608
0.0145791
0.0453579
-0.0322835
-0.068232
0.0249384
-0.0317584
0.00981105
-0.0292584
0.00218741
-0.022419
-0.00907341
0.0560338
-0.00670466
-0.0816128
0.0331006
-0.00882524
0.014259
-0.0104169
0.0025817
-0.0107417
-0.0064917
0.0701374
0.0215528
-0.0983948
0.0448509
0.0164612
0.0233728
0.0110612
0.00692121
0.00570988
0.000429489
0.0745078
-0.105675
0.0469878
0.0242459
0.00773325
0.016586
-0.114033
-0.0148234
0.0160951
-0.15191
0.00730704
-0.148383
0.00248927
-0.101066
-0.0430213
0.0482733
-0.116377
-0.0459288
0.0409339
-0.144571
0.020165
-0.127614
0.00682163
-0.0877226
-0.0361996
0.0731266
-0.113971
-0.0755327
0.0521258
-0.12357
0.0270667
-0.102555
0.00880682
-0.0694628
-0.0273928
0.0773411
-0.0989748
-0.0923374
0.0496233
-0.0958521
0.0254349
-0.0783665
0.00777618
-0.0518041
-0.0196166
0.0599495
-0.0825643
0.036544
0.0177799
0.00503749
0.341904
0.583364
-0.529289
0.28055
0.225027
-0.163673
0.247161
0.0557724
-0.0223831
0.165228
0.112945
-0.0310121
-0.00108315
0.097286
0.407672
0.571672
0.371329
0.26137
0.335361
0.0917404
0.233477
0.214828
0.164162
0.45957
0.508082
0.451291
0.269648
0.409058
0.133973
0.28374
0.340147
0.366289
0.494425
0.409636
0.514087
0.249987
0.461472
0.186588
0.318003
0.483616
0.585898
0.5107
0.551475
0.490338
0.333672
0.158669
0.351382
0.084797
0.0738721
0.0798412
0.0049559
0.0724159
0.00742525
-0.0369817
0.109398
0.332144
0.242343
0.224916
0.201329
0.261633
0.0856732
0.0237244
0.0567954
0.0288778
0.0342951
0.0225003
0.0207366
0.0135585
0.00433523
0.202793
0.139334
0.0863015
0.0539311
)
;

boundaryField
{
    left
    {
        type            calculated;
        value           nonuniform List<scalar> 
17
(
-0.60402
-0.60402
-0.60402
-0.60402
-0.60402
-0.39598
-0.39598
-0.39598
-0.39598
-0.39598
-0.39598
-0.39598
-0.39598
-0.39598
-0.39598
-0.510051
-0.510051
)
;
    }
    right
    {
        type            calculated;
        value           nonuniform List<scalar> 
17
(
0.0790626
0.229171
0.275659
0.356386
0.432957
0.504206
0.568755
0.623929
0.66777
0.684758
0.655581
0.603084
0.804011
0.64388
0.474688
0.293272
0.102831
)
;
    }
    down
    {
        type            calculated;
        value           uniform 0;
    }
    up
    {
        type            calculated;
        value           uniform 0;
    }
    cylinder
    {
        type            calculated;
        value           uniform 0;
    }
    defaultFaces
    {
        type            empty;
    }
}


// ************************************************************************* //
