/*--------------------------------*- C++ -*----------------------------------*\
  =========                 |
  \\      /  F ield         | OpenFOAM: The Open Source CFD Toolbox
   \\    /   O peration     | Website:  https://openfoam.org
    \\  /    A nd           | Version:  13
     \\/     M anipulation  |
\*---------------------------------------------------------------------------*/
FoamFile
{
    format      ascii;
    class       volScalarField;
    location    "0.895";
    object      strainRateViscosityModel:nu;
}
// * * * * * * * * * * * * * * * * * * * * * * * * * * * * * * * * * * * * * //

dimensions      [0 2 -1 0 0 0 0];

internalField   nonuniform List<scalar> 
440
(
9.41954
8.96974
8.54454
8.04241
7.5862
9.68995
9.35817
8.98178
8.48005
7.87557
9.80074
9.53084
9.15877
8.58509
7.84826
9.84962
9.61817
9.25861
8.64755
7.86606
9.86917
9.65606
9.30591
8.68093
7.90878
1.30854
1.79059
2.04972
2.29971
2.36382
3.38698
3.30199
3.31562
3.42348
3.49418
5.89262
5.27132
4.92728
4.7268
4.75637
7.76953
6.99346
6.42025
5.90444
5.82671
8.82062
8.15139
7.55213
6.91816
6.87143
1.85086
0.845844
0.424181
0.166618
0.182079
2.61467
0.906319
0.368629
0.137919
0.0712001
3.51089
1.14542
0.301603
0.104926
0.0186816
4.09062
1.43317
0.275449
0.0555932
0.0898041
4.60355
1.75041
0.320523
0.0114741
0.18915
4.2291
1.73926
0.309303
0.0786387
0.289126
3.71198
1.82509
0.634854
0.306982
0.412517
4.92012
3.20817
1.24337
0.558396
0.521165
7.00948
4.28785
1.91814
0.899489
0.639169
8.27285
5.07589
2.49623
1.30354
0.814455
2.84818
3.68249
4.61957
5.50539
6.1486
3.68376
3.6967
3.77233
3.85234
3.36794
8.22648
8.08652
7.7993
7.38545
6.3465
9.0529
8.99236
8.85902
8.62148
8.16014
9.60671
9.56995
9.48702
9.33805
9.1188
7.5032
8.01245
8.55947
9.01088
9.46416
7.794
8.45168
8.98716
9.37788
9.70863
7.77901
8.55907
9.15943
9.54077
9.80944
7.81628
8.62756
9.25739
9.62275
9.85359
7.89134
8.67365
9.30535
9.65743
9.87034
2.53498
2.47597
2.27598
2.12153
2.05054
3.48083
3.43294
3.47376
3.69412
4.24814
4.63543
4.65882
5.04956
5.59961
6.45243
5.68295
5.82519
6.49709
7.18778
8.04123
6.75289
6.84143
7.58024
8.24265
8.93534
0.213018
0.0625527
0.285407
0.874964
2.02898
0.186369
0.0781837
0.231025
0.892196
2.66103
0.167856
0.0801501
0.172465
1.08182
3.4395
0.155906
0.0611927
0.155559
1.38472
3.94059
0.157142
0.0659172
0.246817
1.73286
4.36338
0.204935
0.103713
0.273513
1.86843
4.09994
0.337868
0.121426
0.280893
1.81648
3.86217
0.668497
0.238476
0.773041
3.03775
4.90858
2.27554
0.813526
1.50843
4.16245
6.96073
5.05779
2.5365
2.41849
5.03745
8.27916
5.94672
5.2658
4.40216
3.51029
2.77974
3.52255
3.99133
3.97112
3.87644
3.76367
6.32109
7.35231
7.77899
8.06766
8.21845
8.12119
8.59991
8.84943
8.98861
9.05202
9.11694
9.33782
9.48741
9.57051
9.60696
9.31089
7.9169
1.39868
3.63025
7.73685
9.08189
7.44085
3.20603
1.64078
6.7891
8.39874
6.57777
4.20856
1.00361
4.14773
6.81574
5.09481
3.45532
1.70078
1.03871
4.50394
3.1453
2.03879
1.37803
0.460136
2.59747
1.61863
1.00257
0.797298
0.926888
1.45661
0.779305
0.580369
0.613789
0.686417
0.801076
0.406747
0.592107
0.760903
0.834153
0.305071
0.509497
0.886681
1.05259
1.11395
0.163436
0.935622
1.28178
1.51821
1.57278
0.19061
0.363286
0.711732
0.779373
0.732289
0.396338
0.502379
0.580708
0.638877
0.624414
0.615777
0.649737
0.46672
0.495648
0.51297
0.967933
0.798595
0.419947
0.356997
0.399913
1.33181
0.848135
0.426096
0.241017
0.284992
1.1059
0.859396
1.12545
1.1101
0.995393
0.283491
0.472643
0.867691
0.922151
0.844571
9.1912
8.8387
7.75888
5.73034
3.55984
8.58733
7.72297
5.85165
3.49149
0.865884
0.964495
0.858109
1.02671
1.62021
2.65828
0.81289
0.766847
0.703406
0.824398
1.52684
1.05935
1.01059
0.847328
0.552802
0.745234
1.38511
1.34811
1.15018
0.798374
0.229022
1.85808
1.81139
1.55913
1.24093
0.598609
7.73638
3.6272
1.39996
7.91514
9.31104
6.78529
1.6406
3.20266
7.43776
9.08253
4.13441
1.01086
4.1944
6.57319
8.40032
1.03688
1.70531
3.43374
5.08573
6.82225
0.475976
1.3762
2.01483
3.12776
4.52681
1.31259
0.540832
0.55102
0.452286
0.175682
0.678975
0.289672
0.469038
0.519011
0.485222
0.401601
0.150785
0.382306
0.621157
0.803836
0.292343
0.0671422
0.342273
0.774642
1.22433
0.247622
0.0463293
0.320431
0.861428
1.59043
5.48147
2.46072
1.03473
0.95868
1.14175
2.88807
1.08739
0.724314
0.554064
0.252391
3.5682
5.73583
7.76006
8.83923
9.19135
0.843766
3.47229
5.84508
7.72159
8.58718
)
;

boundaryField
{
    left
    {
        type            calculated;
        value           nonuniform List<scalar> 
17
(
0.46059
1.12627
2.18723
3.90992
6.5806
0.305601
0.189591
0.138817
0.144322
0.215056
2.95962
2.06272
1.34155
0.824107
0.502033
6.97889
4.57983
)
;
    }
    right
    {
        type            calculated;
        value           nonuniform List<scalar> 
17
(
0.995688
0.846021
0.734435
0.627373
0.515466
0.399342
0.278263
0.167609
0.0569488
0.0164058
0.108977
0.242794
0.353457
0.465845
0.553819
0.651699
0.806531
)
;
    }
    down
    {
        type            calculated;
        value           nonuniform List<scalar> 
20
(
5.99533
3.00013
1.1443
1.04121
1.85317
4.27032
6.38393
8.13151
9.01584
9.30929
9.30912
9.0152
8.13001
6.3799
4.26421
1.83182
0.933921
1.19194
1.16702
1.04229
)
;
    }
    up
    {
        type            calculated;
        value           nonuniform List<scalar> 
20
(
8.54864
5.40392
2.72564
1.45409
0.881471
9.69562
9.66615
9.59857
9.47421
9.2934
9.29641
9.47647
9.60018
9.66726
9.69603
5.70566
3.14795
2.65859
5.39328
8.56558
)
;
    }
    cylinder
    {
        type            calculated;
        value           nonuniform List<scalar> 
40
(
1.37547
3.59204
6.11887
7.96025
8.95701
9.50511
9.74576
9.84079
9.88145
9.89745
9.54742
9.76283
9.84855
9.88495
9.89848
2.28917
4.52602
6.6994
8.23425
9.06982
3.0437
1.85062
1.09508
0.447621
0.605602
9.51907
9.33192
8.74238
7.26985
4.9863
9.5189
9.33117
8.74031
7.2616
4.95773
2.96611
1.73382
1.07394
0.66696
0.102932
)
;
    }
    defaultFaces
    {
        type            empty;
    }
}


// ************************************************************************* //
