/*--------------------------------*- C++ -*----------------------------------*\
  =========                 |
  \\      /  F ield         | OpenFOAM: The Open Source CFD Toolbox
   \\    /   O peration     | Website:  https://openfoam.org
    \\  /    A nd           | Version:  13
     \\/     M anipulation  |
\*---------------------------------------------------------------------------*/
FoamFile
{
    format      ascii;
    class       volVectorField;
    location    "1.15";
    object      U;
}
// * * * * * * * * * * * * * * * * * * * * * * * * * * * * * * * * * * * * * //

dimensions      [0 1 -1 0 0 0 0];

internalField   nonuniform List<vector> 
1800
(
(-0.0720907 0.0706524 6.63037e-20)
(-0.0549648 0.0924674 3.05641e-20)
(0.0937227 0.0270796 2.66643e-20)
(0.337389 -0.0968544 9.10843e-21)
(0.636584 -0.250027 1.76561e-19)
(0.950324 -0.406136 1.49689e-19)
(1.24216 -0.545506 -1.34366e-19)
(1.48633 -0.657468 -5.9863e-19)
(1.67683 -0.732694 -3.9851e-19)
(1.78489 -0.787179 -3.55819e-19)
(-0.0515691 0.0446321 2.46827e-20)
(0.0180133 0.0302377 -9.36217e-20)
(0.228018 -0.0547132 3.54266e-22)
(0.533498 -0.182118 -1.28153e-19)
(0.882615 -0.323646 5.76261e-20)
(1.2242 -0.455913 3.88888e-19)
(1.5194 -0.564344 -4.75011e-19)
(1.74847 -0.64289 3.58123e-19)
(1.90907 -0.689224 7.76548e-19)
(2.00699 -0.728303 -4.37817e-19)
(-0.0231214 0.0197505 9.08853e-21)
(0.115685 -0.0282065 2.93597e-20)
(0.399719 -0.128845 -3.11129e-20)
(0.769393 -0.253402 -1.78052e-20)
(1.15706 -0.376269 -3.77725e-19)
(1.50509 -0.480076 1.27954e-19)
(1.77995 -0.55727 3.47248e-19)
(1.97297 -0.607647 -2.63664e-20)
(2.09437 -0.634769 -4.9835e-21)
(2.15399 -0.65072 -1.24295e-20)
(0.0152408 -0.00370758 -1.11361e-20)
(0.239876 -0.0791075 -3.6174e-20)
(0.605655 -0.187099 -4.48369e-20)
(1.03226 -0.299502 4.69611e-20)
(1.43812 -0.396909 1.11391e-19)
(1.7687 -0.470139 1.82301e-20)
(2.00467 -0.5181 -1.562e-20)
(2.15282 -0.544442 4.46381e-19)
(2.23279 -0.552705 4.45366e-19)
(2.26152 -0.559148 -1.85414e-19)
(0.0650721 -0.0245353 8.7641e-20)
(0.389426 -0.11778 8.16578e-20)
(0.836136 -0.222015 -6.07932e-20)
(1.30228 -0.313448 -6.97104e-20)
(1.70198 -0.382645 -4.75547e-19)
(1.99546 -0.428511 5.85276e-21)
(2.18294 -0.454356 6.81768e-19)
(2.28566 -0.465263 2.49697e-19)
(2.33006 -0.466121 3.59108e-21)
(2.33548 -0.466379 -2.219e-19)
(0.126432 -0.040648 -7.20763e-20)
(0.558651 -0.138746 7.86946e-21)
(1.0758 -0.226906 3.7982e-19)
(1.55855 -0.291198 -2.6475e-19)
(1.93145 -0.332998 -4.26876e-19)
(2.17777 -0.356437 9.26615e-19)
(2.31722 -0.366359 -7.98662e-19)
(2.3813 -0.367469 -1.04438e-18)
(2.3987 -0.362837 7.87616e-19)
(2.38742 -0.36111 -8.99971e-21)
(0.197849 -0.0495642 6.74105e-20)
(0.738408 -0.137414 -2.43899e-19)
(1.30841 -0.19904 -1.09596e-18)
(1.78628 -0.234557 6.14377e-19)
(2.11966 -0.253385 1.28167e-18)
(2.31715 -0.261309 -4.54106e-21)
(2.41391 -0.262593 -2.3461e-18)
(2.44698 -0.260176 1.75024e-20)
(2.44431 -0.256069 2.4708e-18)
(2.42163 -0.255366 6.62468e-19)
(0.276193 -0.0487034 3.1522e-20)
(0.917358 -0.11051 3.44965e-19)
(1.51982 -0.138517 9.92724e-19)
(1.97647 -0.146813 -6.8983e-20)
(2.2649 -0.14792 -9.49176e-19)
(2.41673 -0.146312 -3.49739e-19)
(2.47797 -0.143918 0)
(2.48753 -0.141389 9.3623e-19)
(2.47087 -0.139065 -1.34917e-20)
(2.44087 -0.140502 -8.31888e-19)
(0.357392 -0.0361509 2.41057e-20)
(1.0851 -0.0577579 5.95942e-19)
(1.7009 -0.0492754 1.12574e-18)
(2.12564 -0.0344771 -1.26669e-18)
(2.3685 -0.0240706 -1.09111e-18)
(2.48006 -0.0190395 3.79626e-19)
(2.5129 -0.0179451 -1.71708e-18)
(2.50522 -0.019003 -1.27611e-18)
(2.47893 -0.0213574 1.52076e-18)
(2.44361 -0.0268355 1.31168e-18)
(0.436447 -0.0110572 5.76725e-20)
(1.23221 0.0186953 4.59324e-19)
(1.84491 0.0635822 2.436e-19)
(2.23163 0.0966767 -2.0783e-18)
(2.43139 0.113159 2.008e-20)
(2.5092 0.117291 3.83925e-18)
(2.52068 0.114366 -2.18396e-18)
(2.50147 0.1083 -1.23325e-18)
(2.46961 0.100888 4.35443e-19)
(2.43198 0.0911935 -9.85509e-19)
(-0.00814159 0.0446969 7.99647e-20)
(-0.0476719 0.062695 -4.18716e-20)
(-0.0881895 0.0412211 -2.59328e-22)
(-0.121115 -0.00211428 -1.11963e-20)
(-0.140231 -0.0561357 -2.76255e-21)
(-0.144419 -0.11348 -1.59988e-19)
(-0.134393 -0.169103 -3.66668e-20)
(-0.111743 -0.219065 2.39053e-19)
(-0.0790478 -0.259521 6.23175e-21)
(-0.0391901 -0.285779 -1.35148e-20)
(-0.0165191 0.0914202 -7.09527e-21)
(-0.0580236 0.14265 1.63311e-20)
(-0.0935278 0.120494 -3.50045e-20)
(-0.118063 0.0579238 -2.13465e-20)
(-0.127465 -0.0245271 -1.03992e-19)
(-0.121786 -0.114111 -1.77392e-19)
(-0.102541 -0.202374 2.13794e-19)
(-0.0716963 -0.282976 2.30383e-19)
(-0.0318166 -0.349861 -3.41122e-19)
(0.0136427 -0.395388 8.64524e-20)
(-0.0307638 0.13121 -7.58089e-20)
(-0.0773945 0.212233 5.87246e-20)
(-0.1065 0.19036 3.38188e-20)
(-0.118686 0.111225 8.88179e-20)
(-0.11336 0.00343901 3.27991e-20)
(-0.0923474 -0.115381 -4.00895e-19)
(-0.0582288 -0.233622 1.29468e-20)
(-0.0139441 -0.342804 4.35541e-19)
(0.0375391 -0.435 -4.80439e-19)
(0.0928696 -0.499732 -2.62317e-19)
(-0.048613 0.16102 -1.24139e-19)
(-0.101795 0.266823 4.66533e-22)
(-0.122457 0.246491 3.49177e-20)
(-0.118064 0.154521 -1.54965e-19)
(-0.0924792 0.0257813 2.02074e-19)
(-0.0500628 -0.117942 1.79407e-19)
(0.00504111 -0.262261 1.0359e-19)
(0.0687195 -0.396813 -1.32075e-19)
(0.137438 -0.512368 3.5882e-20)
(0.208666 -0.596103 -1.30343e-20)
(-0.0670637 0.178083 0)
(-0.126401 0.301596 8.37504e-20)
(-0.136141 0.283888 -1.34477e-19)
(-0.11084 0.183536 -2.03092e-20)
(-0.0595308 0.0393456 -2.2569e-19)
(0.0104785 -0.123989 7.60121e-20)
(0.0930913 -0.28927 -2.36523e-20)
(0.182608 -0.444435 -1.50195e-19)
(0.274487 -0.579873 0)
(0.368933 -0.681926 -2.94165e-20)
(-0.0828928 0.180967 4.28323e-20)
(-0.146236 0.312849 4.7829e-21)
(-0.14234 0.297754 -1.11871e-19)
(-0.0919367 0.193162 2.33627e-19)
(-0.00987247 0.0387281 -1.84679e-19)
(0.0933499 -0.138317 -7.77483e-20)
(0.209818 -0.318221 4.11268e-19)
(0.331026 -0.487541 6.90168e-20)
(0.450344 -0.636945 -8.80046e-19)
(0.574825 -0.754149 -1.77533e-20)
(-0.0933794 0.170627 2.1232e-21)
(-0.156796 0.299657 -6.31523e-20)
(-0.136625 0.284842 1.69032e-19)
(-0.0584593 0.178116 3.21982e-20)
(0.0589272 0.0181748 1.41366e-19)
(0.201268 -0.166256 -8.26509e-20)
(0.356644 -0.354011 -2.6541e-19)
(0.513338 -0.529927 -4.13979e-19)
(0.661129 -0.684793 5.22185e-19)
(0.817453 -0.80938 7.90752e-19)
(-0.0972695 0.150468 -7.51509e-20)
(-0.155006 0.264802 5.65526e-20)
(-0.114819 0.245354 2.43395e-19)
(-0.00517492 0.136539 -1.09203e-19)
(0.151469 -0.0252993 9.60476e-20)
(0.336512 -0.211619 1.13187e-19)
(0.533103 -0.400108 2.22541e-19)
(0.725308 -0.574152 -4.06458e-19)
(0.898452 -0.724409 -3.52368e-19)
(1.07937 -0.843821 6.28607e-19)
(-0.0946758 0.124929 -1.1974e-19)
(-0.138751 0.214388 -9.71306e-20)
(-0.0725679 0.184296 -2.81143e-20)
(0.0736583 0.0717509 -6.25035e-20)
(0.27362 -0.0899327 -5.9384e-20)
(0.503275 -0.272749 6.60636e-20)
(0.739704 -0.453842 8.39368e-20)
(0.96199 -0.616615 -8.99872e-19)
(1.15318 -0.751522 -3.72319e-19)
(1.34053 -0.85163 5.23235e-19)
(-0.0861998 0.0976468 1.82885e-20)
(-0.10615 0.15516 -1.2209e-19)
(-0.00487238 0.109015 -1.3033e-19)
(0.185321 -0.00909567 1.24493e-19)
(0.433116 -0.168338 -4.22506e-20)
(0.707061 -0.341351 -1.36175e-19)
(0.977176 -0.50593 -2.69671e-19)
(1.21827 -0.647583 3.07129e-19)
(1.41655 -0.75631 -4.56158e-19)
(1.58188 -0.828443 -4.20161e-19)
(0.203063 -0.315981 2.32368e-19)
(0.604032 -0.232205 -1.64225e-19)
(0.781441 -0.176627 -1.97563e-20)
(0.89485 -0.136817 1.99383e-20)
(0.959143 -0.10617 -9.65436e-21)
(0.995048 -0.0814491 -7.81701e-21)
(1.01595 -0.0630399 -8.81707e-21)
(1.02948 -0.0454451 -2.15262e-21)
(1.03683 -0.0384049 9.91918e-21)
(1.04485 -0.0225806 2.02523e-21)
(0.243147 -0.445754 2.43424e-19)
(0.624048 -0.314138 8.70782e-20)
(0.796253 -0.222701 -7.00276e-22)
(0.905768 -0.162183 -1.86397e-20)
(0.967587 -0.120445 -3.72252e-20)
(1.00164 -0.0897055 0)
(1.02108 -0.0679934 -9.2125e-21)
(1.03333 -0.0483845 3.60218e-21)
(1.03998 -0.0404668 3.07188e-22)
(1.04694 -0.0236812 -3.39026e-21)
(0.306942 -0.565951 -3.73808e-19)
(0.654025 -0.395066 -5.72985e-20)
(0.81718 -0.268375 3.08925e-20)
(0.919953 -0.187251 -3.72894e-21)
(0.977801 -0.134455 -2.06508e-21)
(1.00922 -0.0977041 3.97399e-21)
(1.02679 -0.0726937 0)
(1.03751 -0.051113 0)
(1.04334 -0.0423218 -4.10377e-21)
(1.04912 -0.0246423 0)
(0.403977 -0.672434 -5.77079e-20)
(0.697393 -0.472875 1.82728e-19)
(0.844947 -0.312931 -5.20129e-21)
(0.937516 -0.211763 0)
(0.989771 -0.148031 4.04723e-20)
(1.01777 -0.105334 -7.75359e-21)
(1.03306 -0.0770712 0)
(1.042 -0.0535885 1.05763e-20)
(1.04688 -0.0439395 0)
(1.05139 -0.0254482 1.54488e-21)
(0.541007 -0.760879 -2.04942e-19)
(0.758221 -0.543181 1.44325e-19)
(0.880605 -0.354978 4.79391e-21)
(0.958651 -0.235343 0)
(1.00348 -0.161021 1.25999e-20)
(1.02725 -0.1125 1.64029e-20)
(1.03984 -0.0810653 3.6477e-21)
(1.04678 -0.0557724 5.24101e-22)
(1.05059 -0.0452913 -3.07358e-21)
(1.05372 -0.0260851 1.67622e-21)
(0.717971 -0.82923 -1.34065e-18)
(0.840622 -0.601126 -2.79167e-19)
(0.925939 -0.392394 -3.36545e-21)
(0.983976 -0.257174 5.414e-20)
(1.01903 -0.173152 -2.12615e-20)
(1.03762 -0.119097 9.47403e-21)
(1.04708 -0.0846223 1.74407e-20)
(1.05181 -0.0576317 -1.96693e-20)
(1.05442 -0.0463516 -9.57178e-23)
(1.05609 -0.0265419 -2.2203e-21)
(0.925056 -0.877679 1.71237e-19)
(0.945299 -0.644767 9.10857e-20)
(0.982829 -0.423463 -1.25448e-20)
(1.01476 -0.276155 -1.75251e-21)
(1.03686 -0.183923 -3.68603e-20)
(1.04894 -0.124925 3.35467e-21)
(1.05475 -0.0876601 -7.97102e-21)
(1.05706 -0.0591271 -2.34271e-21)
(1.05836 -0.0470948 2.6338e-21)
(1.05849 -0.0268108 -1.08535e-21)
(1.14539 -0.905683 2.32095e-19)
(1.06603 -0.675213 1.44049e-19)
(1.05052 -0.448152 0)
(1.05214 -0.291806 7.40531e-21)
(1.05784 -0.192921 3.16246e-20)
(1.06157 -0.12976 -1.31456e-22)
(1.06295 -0.090074 -2.88412e-20)
(1.06253 -0.0602079 8.03778e-21)
(1.06237 -0.0474902 -1.22879e-22)
(1.06091 -0.0268847 -1.23441e-21)
(1.36116 -0.910091 -3.07411e-19)
(1.19242 -0.692442 -4.0231e-19)
(1.1237 -0.46673 8.646e-20)
(1.09492 -0.304363 -5.95979e-21)
(1.08242 -0.200214 -1.64186e-21)
(1.07605 -0.133624 -2.83391e-20)
(1.07197 -0.0918904 9.13207e-21)
(1.06833 -0.0608895 2.76846e-22)
(1.06647 -0.0475399 -1.74844e-21)
(1.06333 -0.026763 -3.60711e-23)
(1.55782 -0.888426 2.06838e-19)
(1.31538 -0.693778 -3.90091e-19)
(1.19539 -0.47748 -3.3053e-20)
(1.13865 -0.313329 -7.63521e-20)
(1.109 -0.205646 -4.1122e-20)
(1.09214 -0.136474 -1.90296e-20)
(1.08192 -0.0931451 -7.33697e-21)
(1.07461 -0.0612212 0)
(1.07075 -0.0472909 -3.06137e-21)
(1.06578 -0.0264482 3.03696e-21)
(1.81264 -0.826588 2.2969e-20)
(1.478 -0.666444 1.06113e-19)
(1.2872 -0.471477 -1.81842e-19)
(1.19217 -0.313122 1.38832e-20)
(1.1419 -0.205186 1.39812e-20)
(1.11284 -0.135362 -1.17675e-20)
(1.09509 -0.0917927 -5.57033e-21)
(1.08297 -0.0600353 6.19335e-21)
(1.07632 -0.0460281 -3.18347e-21)
(1.06892 -0.0257021 -9.96434e-22)
(1.81123 -0.689886 6.47511e-20)
(1.4663 -0.53271 -7.17943e-21)
(1.2919 -0.380557 8.57754e-20)
(1.20511 -0.262913 -1.47956e-20)
(1.15608 -0.17861 6.55946e-20)
(1.12546 -0.1208 4.50404e-20)
(1.10523 -0.0832707 3.00459e-20)
(1.09043 -0.0549891 -3.1986e-21)
(1.08188 -0.0425788 1.06185e-20)
(1.07214 -0.0239104 2.82903e-21)
(1.839 -0.564964 -1.7238e-19)
(1.55077 -0.467762 -2.27082e-20)
(1.36869 -0.351039 1.62576e-20)
(1.25883 -0.246478 2.64268e-36)
(1.18962 -0.166874 -2.44965e-21)
(1.14575 -0.111841 -1.21783e-34)
(1.11785 -0.0764817 -4.06553e-22)
(1.09842 -0.0502502 -8.78329e-35)
(1.0874 -0.0388429 3.21936e-22)
(1.07517 -0.0218497 -1.02062e-21)
(1.83695 -0.459384 -3.75125e-34)
(1.57515 -0.379207 4.0526e-21)
(1.39631 -0.282715 -3.31404e-20)
(1.28409 -0.201613 0)
(1.20987 -0.139649 -2.83454e-20)
(1.16041 -0.0953782 -2.01763e-20)
(1.12803 -0.0660809 -1.34744e-20)
(1.10522 -0.0437072 -3.80907e-35)
(1.09225 -0.0340215 -4.42374e-21)
(1.07779 -0.0192593 8.49853e-22)
(1.83625 -0.364737 -1.0402e-19)
(1.60254 -0.307684 8.1585e-21)
(1.42616 -0.232563 0)
(1.30865 -0.16718 0)
(1.22824 -0.116055 0)
(1.17323 -0.07926 0)
(1.13675 -0.0549896 1.09484e-22)
(1.11099 -0.0364175 -3.88855e-35)
(1.09635 -0.0285218 1.9509e-22)
(1.07994 -0.0162718 9.08999e-35)
(1.83611 -0.283537 -2.28066e-20)
(1.62138 -0.237448 0)
(1.4467 -0.176648 0)
(1.32542 -0.126772 0)
(1.24107 -0.0886048 0)
(1.18242 -0.060938 0)
(1.14309 -0.0425628 -3.90682e-22)
(1.11517 -0.0283087 7.16786e-21)
(1.09931 -0.022405 1.38885e-22)
(1.08133 -0.0129276 1.89204e-21)
(1.83239 -0.210127 0)
(1.62743 -0.170447 -8.74372e-21)
(1.45302 -0.122881 -2.12191e-20)
(1.32975 -0.0869478 0)
(1.24425 -0.0607443 -1.37454e-20)
(1.18448 -0.0419411 -9.79713e-21)
(1.14406 -0.0294938 -7.12228e-21)
(1.11519 -0.019728 -4.10537e-21)
(1.0988 -0.0158728 4.64854e-21)
(1.07989 -0.00931784 -4.18835e-22)
(1.78219 -0.138693 9.7803e-21)
(1.58208 -0.102937 1.13499e-20)
(1.41288 -0.0693579 -8.31919e-21)
(1.29504 -0.047841 -8.89843e-37)
(1.21526 -0.0334239 2.7885e-21)
(1.15986 -0.0231926 -6.94952e-35)
(1.1222 -0.0164585 -6.94611e-22)
(1.09513 -0.0111144 -5.84068e-22)
(1.07964 -0.00922295 4.35414e-23)
(1.06138 -0.00558611 -2.87876e-22)
(1.49801 -0.0714067 -4.5597e-20)
(1.33131 -0.0384731 1.58352e-20)
(1.20244 -0.0169407 1.85738e-20)
(1.11767 -0.00963333 0)
(1.06185 -0.00740418 8.67697e-21)
(1.02287 -0.0057926 5.7917e-21)
(0.995949 -0.0045085 3.06524e-21)
(0.976392 -0.00324441 2.38611e-21)
(0.964896 -0.00310477 -2.76437e-21)
(0.950771 -0.00212051 6.98627e-22)
(0.635114 -0.00371109 0)
(0.567439 0.00276662 0)
(0.538858 0.00493836 0)
(0.529458 0.00360701 0)
(0.523826 0.00202359 0)
(0.518108 0.00114682 0)
(0.51319 0.000667357 -8.75505e-22)
(0.509042 0.000365543 2.13989e-36)
(0.50618 0.000118352 -5.90027e-24)
(0.50142 -4.73382e-05 1.35882e-22)
(2.35253 0.0751416 9.34374e-19)
(2.36486 -0.0297692 6.20632e-20)
(2.37345 -0.130213 -1.19918e-19)
(2.35693 -0.233768 -3.72149e-19)
(2.34645 -0.327971 -1.06246e-19)
(2.29845 -0.427549 -1.79363e-19)
(2.27689 -0.508197 -5.63909e-19)
(2.18132 -0.61046 1.5442e-19)
(2.15027 -0.66829 0)
(1.95822 -0.792201 1.67693e-19)
(2.25972 0.0594974 2.70644e-19)
(2.27014 -0.0299853 -3.5734e-19)
(2.287 -0.101754 -4.08334e-20)
(2.27128 -0.196943 -1.5802e-19)
(2.27205 -0.259464 7.63667e-20)
(2.23128 -0.361014 1.95061e-19)
(2.21861 -0.40549 -1.41309e-19)
(2.15702 -0.519377 5.9241e-20)
(2.12466 -0.540455 -9.65429e-20)
(2.05141 -0.674481 8.10964e-20)
(2.19657 0.0437059 -1.29614e-19)
(2.20621 -0.0345776 2.69216e-19)
(2.21945 -0.0868858 2.05012e-19)
(2.20846 -0.171945 -2.90587e-19)
(2.20356 -0.213828 4.33485e-20)
(2.17598 -0.304717 2.8973e-19)
(2.15246 -0.330591 -7.01434e-21)
(2.11676 -0.428169 1.32565e-20)
(2.07214 -0.438642 3.4435e-20)
(2.03621 -0.546111 5.16658e-20)
(2.14617 0.0252006 -2.75755e-19)
(2.15715 -0.0399746 3.14054e-21)
(2.16568 -0.08 -5.44737e-20)
(2.16012 -0.150021 -4.98408e-20)
(2.14977 -0.18146 -9.47893e-20)
(2.13086 -0.254451 -1.18398e-19)
(2.10171 -0.27435 1.68988e-19)
(2.07566 -0.34915 1.86849e-20)
(2.02944 -0.359165 8.31924e-21)
(2.00084 -0.438048 1.90952e-20)
(2.10399 0.00767084 5.59481e-20)
(2.11604 -0.0439309 9.75942e-20)
(2.12201 -0.0757613 -5.27692e-20)
(2.11968 -0.130069 2.47634e-19)
(2.10796 -0.155444 -1.54391e-20)
(2.09297 -0.210473 -2.10946e-19)
(2.06457 -0.227462 3.30429e-20)
(2.04097 -0.282196 -1.14243e-19)
(1.99935 -0.291707 1.12644e-19)
(1.97089 -0.348393 8.04668e-20)
(2.06714 -0.00959118 -1.49134e-19)
(2.07951 -0.0487895 -7.50028e-20)
(2.08478 -0.0740189 2.2095e-20)
(2.08412 -0.11414 1.10288e-19)
(2.07384 -0.134254 1.51229e-19)
(2.06097 -0.173711 -6.11445e-20)
(2.03631 -0.187299 5.17176e-21)
(2.01406 -0.225724 2.23892e-20)
(1.97835 -0.233211 6.12393e-20)
(1.95002 -0.272791 -6.73925e-20)
(2.0263 -0.0254676 -5.68574e-20)
(2.03769 -0.0539431 -1.16091e-19)
(2.0429 -0.0728305 -1.05928e-19)
(2.0432 -0.100992 -2.00494e-19)
(2.0356 -0.115554 1.6925e-20)
(2.02547 -0.142546 2.4305e-20)
(2.00582 -0.151726 3.84154e-20)
(1.98764 -0.17775 1.34961e-20)
(1.95758 -0.181667 -5.71371e-20)
(1.9344 -0.208792 -4.138e-21)
(1.94172 -0.0386105 5.31714e-20)
(1.94867 -0.0568867 4.21089e-20)
(1.95052 -0.0687446 1.82761e-20)
(1.95055 -0.0862269 -3.5101e-20)
(1.94285 -0.0947764 -3.07546e-20)
(1.93808 -0.111308 5.39867e-21)
(1.92092 -0.115453 -2.09763e-20)
(1.9148 -0.131587 -3.68311e-21)
(1.88722 -0.131097 -2.68563e-21)
(1.88364 -0.148677 4.87438e-20)
(1.67372 -0.0451733 -4.67128e-20)
(1.66604 -0.0534648 -6.98803e-22)
(1.65477 -0.0585198 8.54282e-20)
(1.64574 -0.0655971 -4.02032e-21)
(1.62991 -0.068197 -1.90743e-20)
(1.62462 -0.074494 3.16242e-20)
(1.60431 -0.0742043 -1.20822e-20)
(1.60754 -0.0806467 -3.70582e-21)
(1.57937 -0.0770291 2.25448e-20)
(1.59772 -0.0852626 7.35626e-20)
(0.857476 -0.0159176 4.29232e-20)
(0.830964 -0.0149739 3.24789e-20)
(0.806361 -0.0138018 3.01432e-20)
(0.783466 -0.0127764 4.42011e-20)
(0.762213 -0.0115373 -1.91085e-20)
(0.745423 -0.0107293 -1.65557e-20)
(0.727584 -0.00964487 3.09862e-21)
(0.719954 -0.00919782 -4.3694e-22)
(0.701105 -0.00734081 3.84092e-22)
(0.711642 -0.00997348 -7.36315e-22)
(1.49809 0.877315 -7.23066e-20)
(1.48036 0.921847 2.82031e-20)
(1.4812 0.973761 -5.51344e-19)
(1.48759 1.03313 2.45445e-19)
(1.49242 1.09623 1.02916e-18)
(1.48741 1.15581 -1.54227e-19)
(1.45234 1.19162 -9.58909e-19)
(1.34066 1.15555 -4.49265e-20)
(1.068 0.956221 -4.85803e-19)
(0.506649 0.467809 1.43472e-19)
(1.6584 0.849758 0)
(1.6462 0.893357 6.65943e-19)
(1.64381 0.942079 1.47554e-18)
(1.64973 0.999369 -8.92213e-19)
(1.65796 1.06156 -2.0996e-18)
(1.65689 1.12 -1.55349e-19)
(1.62118 1.15325 -1.97487e-19)
(1.49671 1.11369 7.09801e-19)
(1.18868 0.914424 9.8962e-19)
(0.559779 0.441499 4.35075e-19)
(1.80454 0.81554 7.00989e-20)
(1.80268 0.858406 0)
(1.80297 0.904023 -7.1526e-20)
(1.81023 0.956731 9.12726e-19)
(1.82098 1.01421 5.77767e-20)
(1.82205 1.0678 -2.1222e-18)
(1.78344 1.09557 1.32387e-18)
(1.64368 1.05132 8.18497e-19)
(1.29886 0.854893 -8.74794e-19)
(0.605678 0.406 -2.96754e-19)
(1.9315 0.766871 -1.58992e-19)
(1.94072 0.808292 -1.20782e-19)
(1.94822 0.850978 2.63388e-19)
(1.96005 0.898976 -3.26825e-19)
(1.97416 0.950849 -1.53819e-18)
(1.97653 0.998067 -1.17644e-18)
(1.93302 1.01884 1.25936e-18)
(1.77554 0.969545 7.8824e-19)
(1.39268 0.778302 0)
(0.64029 0.361207 0)
(2.04362 0.704079 -9.05311e-19)
(2.06237 0.742577 -1.60753e-18)
(2.07796 0.781617 -6.27658e-19)
(2.09549 0.824564 -3.69683e-20)
(2.11304 0.870134 0)
(2.11526 0.909989 1.52133e-19)
(2.0642 0.92279 1.78631e-19)
(1.88545 0.86787 2.23474e-19)
(1.46265 0.685025 -3.2736e-19)
(0.659891 0.308476 -8.24362e-20)
(2.14041 0.624666 1.08836e-18)
(2.16756 0.659638 -4.6626e-20)
(2.19114 0.694765 -1.27805e-18)
(2.2146 0.732607 0)
(2.23506 0.771685 0)
(2.23541 0.80307 0)
(2.17296 0.8072 1.51673e-18)
(1.96799 0.749589 -1.68576e-18)
(1.50482 0.578914 -1.08811e-18)
(0.663103 0.249852 -1.20541e-20)
(2.22656 0.533487 -1.45406e-18)
(2.25928 0.5637 -3.04906e-18)
(2.28869 0.594037 -5.28139e-21)
(2.31651 0.626049 6.108e-19)
(2.33797 0.657538 -4.40108e-20)
(2.33272 0.68047 1.32143e-18)
(2.25352 0.677137 -7.1209e-19)
(2.01816 0.617897 -2.01729e-18)
(1.51639 0.463021 1.65859e-19)
(0.648878 0.188716 1.1688e-19)
(2.29882 0.430256 -1.17467e-18)
(2.33586 0.455398 1.86448e-20)
(2.36952 0.480649 4.47605e-19)
(2.39978 0.506557 -4.30482e-19)
(2.4193 0.530696 6.56813e-19)
(2.40404 0.54549 1.80506e-18)
(2.30314 0.535569 -2.18517e-19)
(2.03383 0.477114 -1.10925e-18)
(1.49558 0.342769 2.69373e-19)
(0.617592 0.128736 4.86856e-20)
(2.35901 0.321109 4.41026e-19)
(2.39756 0.340806 9.63077e-20)
(2.43275 0.36028 -4.70426e-19)
(2.46251 0.379579 -1.07005e-18)
(2.47632 0.396097 9.99224e-20)
(2.44612 0.403037 9.96303e-20)
(2.31799 0.387912 -1.4837e-18)
(2.01134 0.333495 5.86686e-19)
(1.44066 0.224545 1.79094e-19)
(0.570136 0.0734418 -1.38095e-19)
(2.40291 0.206041 8.61838e-19)
(2.44217 0.220854 -1.2909e-18)
(2.47705 0.234434 2.08334e-19)
(2.50345 0.247097 2.59564e-18)
(2.50728 0.256461 1.30885e-18)
(2.4565 0.256911 -2.80527e-18)
(2.29534 0.239365 -2.6965e-18)
(1.94889 0.193286 1.24122e-18)
(1.35231 0.114494 -3.43496e-21)
(0.508759 0.025998 3.09354e-21)
(0.522739 0.305907 -1.73073e-19)
(0.483757 0.317245 -1.68308e-19)
(0.439587 0.329388 7.84317e-20)
(0.390929 0.342389 -2.59572e-19)
(0.337593 0.356107 -2.56493e-20)
(0.278808 0.369555 2.3792e-19)
(0.213721 0.378644 4.7649e-20)
(0.14298 0.370931 -1.14172e-20)
(0.0735547 0.317473 1.29654e-20)
(0.0143831 0.166224 1.65057e-20)
(0.560717 0.409656 1.43134e-19)
(0.522459 0.427339 1.86559e-19)
(0.479681 0.44643 4.55433e-20)
(0.432769 0.46701 -6.25075e-20)
(0.38132 0.488864 -2.51355e-19)
(0.324377 0.510491 -6.43545e-21)
(0.260492 0.52583 1.00128e-19)
(0.188718 0.516902 2.80971e-20)
(0.112765 0.442618 -1.0109e-19)
(0.0349129 0.23102 -3.44546e-20)
(0.617373 0.507533 -1.33481e-19)
(0.580398 0.531017 -1.24791e-19)
(0.539769 0.556396 1.16942e-19)
(0.495468 0.583964 9.22692e-20)
(0.446846 0.613572 -7.65087e-20)
(0.39269 0.643295 -5.63942e-20)
(0.330679 0.665155 -1.04734e-19)
(0.257404 0.655653 -4.29524e-20)
(0.171437 0.561702 -5.73926e-20)
(0.0654452 0.29239 2.42404e-21)
(0.689048 0.601068 5.70655e-20)
(0.653621 0.63068 -3.9287e-20)
(0.615976 0.662287 -9.87522e-20)
(0.575281 0.696408 -1.37696e-20)
(0.530458 0.732927 -7.7942e-20)
(0.48001 0.769457 9.55284e-21)
(0.420577 0.796155 -2.28801e-19)
(0.345612 0.784509 1.534e-20)
(0.246846 0.670878 -2.87036e-19)
(0.104634 0.347878 5.13786e-20)
(0.77668 0.681699 -7.08642e-21)
(0.743381 0.716231 5.37267e-21)
(0.709552 0.753099 -4.91241e-20)
(0.673645 0.793256 -2.35848e-19)
(0.634033 0.836542 1.06761e-19)
(0.588607 0.879969 -9.53165e-21)
(0.532493 0.911851 9.36808e-20)
(0.455151 0.898917 -1.0544e-19)
(0.339693 0.767734 3.52061e-19)
(0.152272 0.39647 2.61541e-19)
(0.878044 0.758391 -5.67796e-20)
(0.846821 0.797727 -1.42369e-19)
(0.8167 0.838513 7.58633e-20)
(0.785322 0.882741 9.97186e-20)
(0.750867 0.930686 3.10877e-19)
(0.710841 0.978851 2.05805e-19)
(0.65857 1.01362 5.53663e-19)
(0.578717 0.99741 2.3823e-19)
(0.444433 0.848975 1.70574e-19)
(0.205848 0.435959 2.10137e-19)
(0.987612 0.81326 -1.07389e-19)
(0.961243 0.857021 4.97577e-19)
(0.93803 0.90218 3.19032e-19)
(0.913928 0.950913 -3.9084e-19)
(0.886284 1.00353 -1.96462e-19)
(0.852175 1.05625 6.02706e-19)
(0.80331 1.09401 -1.07108e-19)
(0.719254 1.07541 -3.85024e-19)
(0.56214 0.9125 -2.76644e-20)
(0.264994 0.465503 2.40738e-19)
(1.1034 0.867044 2.55571e-19)
(1.07756 0.911787 6.00392e-20)
(1.05869 0.95764 -7.10507e-19)
(1.04191 1.00842 1.22585e-19)
(1.02315 1.06393 4.94299e-19)
(0.997641 1.1191 -3.02631e-19)
(0.954178 1.15704 -7.93233e-20)
(0.866426 1.13348 -1.62439e-19)
(0.685085 0.956406 1.64646e-20)
(0.326123 0.483565 -3.10659e-19)
(1.23053 0.888528 2.2057e-20)
(1.2143 0.937277 -5.0629e-19)
(1.20256 0.984558 -4.10831e-21)
(1.1911 1.03667 4.18449e-19)
(1.17767 1.09465 -4.2162e-19)
(1.15769 1.15272 8.32908e-19)
(1.11718 1.19184 5.68997e-19)
(1.02297 1.16492 -8.64343e-19)
(0.813509 0.977696 -5.57441e-20)
(0.388276 0.489547 -3.28767e-19)
(1.33028 0.902328 -2.9088e-19)
(1.32479 0.951696 -2.8102e-19)
(1.32977 1.00077 2.85432e-19)
(1.33317 1.05402 6.81331e-19)
(1.3314 1.11196 2.58239e-19)
(1.32009 1.16904 -6.83366e-19)
(1.28339 1.20562 5.79273e-20)
(1.18181 1.17336 1.87341e-19)
(0.942119 0.977987 -2.56087e-19)
(0.449049 0.484261 -2.34157e-19)
(0.923897 0.0137627 2.34514e-21)
(1.06242 0.0361906 -1.85162e-20)
(1.00044 0.0615983 -1.55131e-20)
(1.02662 0.0792884 0)
(1.02262 0.0908764 2.22057e-20)
(0.997165 0.106715 3.02809e-20)
(0.974244 0.123671 4.01011e-20)
(0.918305 0.154083 8.50542e-20)
(0.847429 0.196646 -1.22816e-19)
(0.692515 0.249109 -1.70762e-19)
(0.923854 0.0117012 3.95193e-20)
(1.06126 0.0334737 -6.10444e-20)
(0.999484 0.0601454 3.63392e-23)
(1.02701 0.0797249 -1.97676e-20)
(1.02483 0.0944504 1.10689e-20)
(1.00172 0.112335 -1.50678e-20)
(0.980984 0.135945 -9.47622e-20)
(0.930531 0.172389 0)
(0.860794 0.233187 2.5385e-19)
(0.72469 0.31741 -2.74921e-19)
(0.923553 0.00985287 -3.19622e-20)
(1.06077 0.0308953 1.70511e-20)
(0.99872 0.0586353 4.33343e-20)
(1.02808 0.079918 1.12644e-20)
(1.0274 0.0975347 -2.63998e-20)
(1.00748 0.117741 1.22475e-21)
(0.988256 0.147466 -6.55254e-20)
(0.946653 0.190637 -5.66998e-21)
(0.876676 0.268625 1.02243e-22)
(0.770885 0.383112 7.25886e-19)
(0.923018 0.00817828 -3.05635e-20)
(1.06088 0.0284337 2.70948e-21)
(0.998115 0.0570707 3.55138e-20)
(1.02979 0.0799017 2.19062e-20)
(1.03042 0.100094 -1.28172e-20)
(1.01433 0.123021 -1.681e-20)
(0.996375 0.158022 9.53877e-20)
(0.966282 0.208996 -1.66015e-21)
(0.895403 0.302005 -2.80684e-19)
(0.830431 0.445014 8.41384e-20)
(0.922274 0.00663577 2.16967e-20)
(1.06151 0.0260638 -3.31074e-20)
(0.997644 0.0554509 -2.80983e-20)
(1.03209 0.0796839 1.26505e-20)
(1.034 0.102116 0)
(1.02207 0.128224 0)
(1.00579 0.167423 8.01062e-20)
(0.988719 0.227807 3.50978e-22)
(0.917662 0.332385 -1.29018e-19)
(0.902035 0.502361 9.66733e-20)
(0.921357 0.00517105 5.79898e-21)
(1.06259 0.0237551 2.73252e-20)
(0.997289 0.0537739 -7.35628e-20)
(1.03491 0.0792464 -2.64434e-20)
(1.03825 0.10362 -4.64359e-22)
(1.0305 0.13336 6.92639e-20)
(1.01701 0.175468 1.23107e-19)
(1.01321 0.247484 -7.26678e-22)
(0.943656 0.358315 2.1144e-19)
(0.986367 0.556938 -2.1889e-19)
(0.920294 0.00375312 -2.57215e-20)
(1.06405 0.0214801 1.46108e-20)
(0.997041 0.0520367 -1.8929e-20)
(1.03823 0.0785487 -5.45495e-20)
(1.04326 0.104655 1.57721e-21)
(1.0394 0.138352 -1.58404e-21)
(1.03064 0.18214 -7.08863e-21)
(1.03843 0.267552 -2.30924e-19)
(0.976926 0.379709 1.56322e-19)
(1.07252 0.600422 -5.25951e-19)
(0.919064 0.0023585 -2.91763e-21)
(1.06588 0.0191959 -4.31795e-20)
(0.996934 0.0502266 3.8309e-20)
(1.04206 0.0775334 3.0431e-20)
(1.04905 0.105294 8.54158e-22)
(1.04869 0.143046 -7.98025e-20)
(1.04683 0.187472 -6.64835e-20)
(1.06475 0.287864 4.09666e-19)
(1.01265 0.397236 1.35979e-20)
(1.17955 0.655183 8.31904e-19)
(0.917521 0.000999348 1.61501e-20)
(1.06818 0.0168692 1.98657e-20)
(0.997086 0.0483414 4.19196e-20)
(1.04653 0.0761658 -3.30869e-20)
(1.05566 0.105624 -8.49992e-20)
(1.05833 0.147175 1.38464e-21)
(1.06621 0.191205 -9.05865e-20)
(1.08924 0.306168 5.3173e-19)
(1.06885 0.400395 -8.447e-21)
(1.25439 0.674713 -1.15126e-18)
(0.915289 -0.00022023 1.07311e-21)
(1.07131 0.0146211 3.13084e-20)
(0.997602 0.0465321 1.48963e-20)
(1.05185 0.0746729 -6.73675e-20)
(1.06274 0.106236 -8.04757e-20)
(1.06798 0.151218 -6.67887e-20)
(1.08482 0.199279 -1.62463e-19)
(1.1122 0.326032 -4.831e-19)
(1.11969 0.425578 -2.60838e-19)
(1.38113 0.742472 -1.23164e-18)
(0.911509 -0.00243253 -3.13402e-21)
(1.07595 0.0109917 -7.05045e-21)
(0.999317 0.0423943 -1.57953e-20)
(1.05832 0.0703815 3.18288e-20)
(1.07369 0.102721 5.73985e-20)
(1.08235 0.150435 -4.46328e-20)
(1.11567 0.190909 1.47175e-19)
(1.14791 0.334793 -4.52278e-19)
(1.19002 0.373562 -1.95656e-19)
(1.39888 0.732275 6.64683e-19)
(0.91007 -0.00648598 4.38945e-21)
(1.08037 0.00546685 1.5556e-20)
(1.00505 0.0347927 -9.2155e-21)
(1.06625 0.0624043 6.27744e-20)
(1.08688 0.0949405 9.20207e-20)
(1.09771 0.14147 1.31685e-19)
(1.15292 0.176005 3.13238e-20)
(1.16647 0.320709 2.28597e-19)
(1.28523 0.321886 3.3534e-19)
(1.44102 0.637481 1.26231e-20)
(0.909078 -0.0110966 -3.54942e-21)
(1.0855 -0.00102867 -4.08961e-21)
(1.01263 0.0266899 2.30605e-21)
(1.0755 0.0536125 6.11092e-21)
(1.09907 0.0861838 2.65809e-34)
(1.11578 0.128781 -8.0735e-21)
(1.17849 0.160415 -5.7362e-34)
(1.19314 0.297011 1.99839e-20)
(1.34953 0.262917 -5.69969e-20)
(1.48017 0.556949 -5.60626e-20)
(0.908034 -0.0168583 1.56576e-20)
(1.09197 -0.00908922 -4.58505e-35)
(1.02148 0.0178401 -2.74201e-21)
(1.08554 0.0442081 -2.7615e-20)
(1.11 0.0760413 -4.06496e-20)
(1.13574 0.114063 -4.42585e-20)
(1.19192 0.143467 -7.08688e-34)
(1.23346 0.265913 -9.1176e-20)
(1.37974 0.210221 -1.51905e-19)
(1.5023 0.477401 9.68155e-20)
(0.90684 -0.0240277 0)
(1.10035 -0.0185737 8.2472e-35)
(1.03191 0.00735119 0)
(1.09604 0.0341867 0)
(1.12015 0.0643382 0)
(1.15467 0.0984514 0)
(1.19998 0.123868 -4.45422e-34)
(1.27492 0.229488 0)
(1.39088 0.167652 -2.08152e-20)
(1.51914 0.393386 5.73943e-20)
(0.905458 -0.0325889 5.04487e-21)
(1.11082 -0.0296524 8.19896e-21)
(1.04411 -0.000885859 -3.64211e-21)
(1.10712 0.0254493 0)
(1.12993 0.0521448 0)
(1.1705 0.0821794 6.90364e-21)
(1.20787 0.102283 3.52411e-20)
(1.30626 0.189418 -1.49815e-20)
(1.39828 0.132415 -3.04791e-20)
(1.53347 0.309797 2.19035e-19)
(0.904467 -0.0462877 -7.26673e-20)
(1.12423 -0.0458985 -2.26541e-21)
(1.05745 -0.0142611 -4.02911e-21)
(1.11605 0.0148087 -1.41707e-20)
(1.13731 0.0387529 -1.79688e-20)
(1.18164 0.0646069 -1.22298e-20)
(1.21527 0.0800203 -2.77642e-20)
(1.32555 0.146327 -3.55066e-20)
(1.40653 0.101803 -5.76782e-20)
(1.54305 0.230341 7.55771e-20)
(0.906294 -0.0527636 -9.04808e-21)
(1.1313 -0.0540932 -1.70424e-20)
(1.05823 -0.0171849 -4.49704e-21)
(1.1127 0.00977063 -5.47817e-21)
(1.13112 0.0270515 2.371e-35)
(1.17831 0.0464717 7.4267e-21)
(1.21035 0.0578478 -9.49537e-34)
(1.33077 0.101063 -1.49971e-20)
(1.40193 0.0730575 1.90584e-20)
(1.5487 0.155143 2.68125e-20)
(0.91133 -0.089324 1.88249e-19)
(1.07961 -0.0816 -3.12442e-21)
(0.970374 -0.0340463 -4.59542e-21)
(1.01752 -0.000444463 9.99155e-21)
(1.03385 0.0126527 8.04076e-21)
(1.08605 0.0273602 1.67384e-20)
(1.11873 0.0346069 1.13339e-20)
(1.25572 0.0571487 -7.66271e-21)
(1.30238 0.0449307 -1.91348e-20)
(1.49145 0.0852904 1.39316e-19)
(0.808111 -0.0448944 1.06341e-20)
(0.753088 -0.0342992 -8.88134e-35)
(0.562894 -0.00994364 -5.66337e-21)
(0.584217 -0.00137375 0)
(0.582512 0.00214392 0)
(0.6206 0.00597879 7.59424e-21)
(0.656548 0.00589409 -7.81307e-36)
(0.755776 0.0116294 -1.48727e-20)
(0.79992 0.00739761 -2.8049e-20)
(0.947286 0.0156566 5.77767e-20)
(1.59867 0.769496 -1.97858e-19)
(1.69709 0.751991 -2.96625e-19)
(1.8062 0.72298 0)
(1.90725 0.677823 1.38407e-19)
(2.00038 0.62006 6.21732e-19)
(2.08162 0.547088 -1.30342e-19)
(2.15792 0.465667 1.7087e-18)
(2.22139 0.373632 -8.24108e-20)
(2.2784 0.278066 -3.97669e-19)
(2.31943 0.176031 3.64069e-19)
(1.62532 0.630876 9.52784e-20)
(1.69769 0.615535 1.19048e-19)
(1.78238 0.587493 -1.06751e-20)
(1.86451 0.543967 2.08627e-19)
(1.94376 0.492341 -1.76232e-19)
(2.01252 0.428884 -4.2133e-19)
(2.08011 0.363813 -1.23884e-19)
(2.13507 0.288255 5.85507e-19)
(2.18928 0.216776 -2.33495e-20)
(2.22434 0.133612 -5.1155e-19)