/*--------------------------------*- C++ -*----------------------------------*\
  =========                 |
  \\      /  F ield         | OpenFOAM: The Open Source CFD Toolbox
   \\    /   O peration     | Website:  https://openfoam.org
    \\  /    A nd           | Version:  13
     \\/     M anipulation  |
\*---------------------------------------------------------------------------*/
FoamFile
{
    format      ascii;
    class       volScalarField;
    location    "0.065";
    object      p;
}
// * * * * * * * * * * * * * * * * * * * * * * * * * * * * * * * * * * * * * //

dimensions      [0 2 -2 0 0 0 0];

internalField   nonuniform List<scalar> 
440
(
11.0452
13.7769
16.0208
15.9858
12.8454
23.8723
27.2317
30.1606
30.7421
28.7348
44.4059
47.4213
50.0912
50.8269
49.5951
70.5848
72.6728
74.5699
75.2005
74.4745
99.9325
100.743
101.532
101.922
101.875
0.88735
0.547663
0.844447
1.4223
1.89086
0.688787
-0.276108
-0.395243
0.0758868
0.719697
0.968604
-0.0206911
-0.322883
0.0583792
1.05367
2.55118
2.42443
2.58249
3.20185
4.88226
6.38998
7.70035
8.96923
10.129
12.1821
3.72152
4.20303
2.97743
1.82495
0.621933
2.7572
4.18066
2.95178
1.79545
0.612315
1.71873
3.98786
2.95397
1.78783
0.609079
1.57622
3.66048
2.93659
1.80077
0.611859
3.73526
3.38784
2.87944
1.82616
0.619992
7.10426
3.53226
2.76836
1.8291
0.624931
9.37757
3.60164
2.69539
1.81851
0.618579
12.4938
5.12654
3.26608
1.92668
0.618104
16.5705
7.83276
4.38145
2.18127
0.639758
19.5175
10.5073
5.5372
2.5383
0.726778
103.903
78.9186
56.263
35.97
15.1786
105.602
82.0301
60.5177
41.9552
26.3241
107.5
85.8228
65.4899
48.1396
35.6756
108.383
88.1653
69.575
54.1771
43.5509
108.305
87.9045
69.4363
54.3101
43.9019
223.748
220.188
219.751
221.781
224.492
206.415
203.881
204.056
206.745
210.015
184.129
182.312
182.633
185.03
187.898
158.207
156.839
157.026
158.612
160.507
130.21
129.489
129.426
129.888
130.485
240.677
241.176
241.784
242.038
241.557
241.032
241.658
242.045
241.783
240.685
239.513
240.409
240.602
240.135
239.131
234.304
235.792
236.158
236.169
236.1
225.598
227.34
228.183
229.294
230.648
242.664
240.085
239.8
238.717
238.959
242.581
240.036
239.751
238.572
239.508
242.581
239.961
239.672
238.544
240.002
242.656
239.859
239.601
238.596
239.481
242.802
239.739
239.559
238.54
236.574
243.059
239.635
239.497
237.994
232.57
243.527
239.608
239.411
237.731
230.253
244.237
239.499
238.842
236.182
227.345
247.657
239.424
237.704
233.353
223.406
256.135
239.807
236.705
230.541
220.411
221.45
199.917
178.615
155.202
129.792
211.069
195.009
175.886
153.89
130.005
202.66
189.856
172.146
151.497
129.637
195.316
184.264
168.511
149.612
129.205
194.958
184.162
168.721
149.988
129.427
99.1387
98.2919
97.8642
97.0963
96.9317
59.1724
57.3067
55.6225
53.6694
52.8761
30.6437
28.3851
25.5979
23.2245
21.8424
15.7928
13.4061
10.9049
8.79902
7.76477
9.82378
7.92527
6.57927
5.59702
4.96503
6.3868
5.30811
4.86808
4.90691
5.06166
4.26173
3.93356
4.05572
4.38959
4.65949
2.91318
3.1305
3.59214
4.05008
4.30532
2.14658
2.55079
3.15692
3.62504
3.87058
1.56034
1.72288
2.24514
2.76985
3.09596
4.80516
4.5425
3.54429
2.14985
0.725739
5.02081
4.44018
3.46852
2.10853
0.713366
4.87851
4.27982
3.33193
2.03544
0.689276
4.64726
4.17567
3.18386
1.95215
0.662237
4.31199
4.16008
3.0564
1.87722
0.638451
5.69851
4.42193
3.3224
2.04513
0.69236
4.855
4.54295
3.49614
2.13967
0.724297
97.6425
55.952
28.6574
15.3729
10.3669
96.4257
52.9738
24.0961
10.1452
5.8845
237.874
238.019
238.074
237.674
236.621
238.405
238.671
239.038
239.227
238.968
238.816
239.059
239.546
240.093
240.381
239.229
239.469
239.98
240.689
241.173
239.892
240.25
240.852
241.433
241.567
145.654
145.452
144.62
144.127
143.245
189.772
188.934
186.922
185.175
183.278
220.89
219.462
217.035
214.196
211.906
235.023
233.951
231.809
229.274
226.862
237.886
237.228
236.235
234.885
232.98
245.433
239.81
239.65
238.672
238.212
244.064
239.916
239.676
238.789
238.131
243.462
240.022
239.728
238.919
238.302
243.098
240.084
239.771
238.958
238.478
242.835
240.103
239.804
238.883
238.653
258.407
240.979
240.229
238.774
237.275
249.388
239.984
239.712
238.635
238.11
232.514
227.45
214.074
186.693
144.949
236.98
232.681
218.659
189.683
146.168
)
;

boundaryField
{
    left
    {
        type            zeroGradient;
    }
    right
    {
        type            fixedValue;
        value           uniform 0;
    }
    down
    {
        type            zeroGradient;
    }
    up
    {
        type            zeroGradient;
    }
    cylinder
    {
        type            zeroGradient;
    }
    defaultFaces
    {
        type            empty;
    }
}


// ************************************************************************* //
