/*--------------------------------*- C++ -*----------------------------------*\
  =========                 |
  \\      /  F ield         | OpenFOAM: The Open Source CFD Toolbox
   \\    /   O peration     | Website:  https://openfoam.org
    \\  /    A nd           | Version:  13
     \\/     M anipulation  |
\*---------------------------------------------------------------------------*/
FoamFile
{
    format      ascii;
    class       volScalarField;
    location    "0.695";
    object      p;
}
// * * * * * * * * * * * * * * * * * * * * * * * * * * * * * * * * * * * * * //

dimensions      [0 2 -2 0 0 0 0];

internalField   nonuniform List<scalar> 
440
(
7.82722
10.5836
12.9462
13.1281
10.1524
20.7181
24.1014
27.0968
27.7974
25.9095
41.2549
44.2862
46.9893
47.7819
46.621
67.3879
69.4857
71.3991
72.0557
71.3682
96.6642
97.4812
98.2781
98.6782
98.6447
-0.449762
-0.549296
-0.0773488
0.48365
0.826269
-1.68138
-2.34673
-2.08588
-1.38977
-0.751961
-2.02701
-2.90876
-2.83095
-2.07641
-0.959016
-0.683248
-0.815937
-0.411187
0.552287
2.41675
3.08275
4.39414
5.82328
7.25453
9.50402
2.08703
2.26857
1.34012
0.681702
0.23514
1.05891
2.08037
1.22009
0.623067
0.225369
-0.0934445
1.66962
1.08805
0.577618
0.21753
-0.403224
1.06596
0.878847
0.540662
0.209251
1.50433
0.477124
0.594482
0.488651
0.19586
4.37526
0.248703
0.335655
0.423758
0.161499
6.71959
0.710511
0.436462
0.417736
0.0974272
9.98359
2.44911
1.08402
0.546884
0.0634128
13.8727
4.7502
2.13255
0.822905
0.0694428
16.6088
7.11218
3.45385
1.30564
0.168497
100.689
75.8401
53.3245
33.1496
12.3468
102.384
78.9426
57.5376
39.0576
23.4837
104.285
82.7023
62.4753
45.235
32.8882
105.168
85.0214
66.5032
51.1841
40.6577
105.087
84.7439
66.3291
51.2516
40.8972
219.869
216.388
216.093
218.209
220.942
202.689
200.222
200.481
203.222
206.513
180.541
178.768
179.131
181.554
184.432
154.742
153.399
153.604
155.197
157.094
126.861
126.147
126.087
126.547
127.139
235.588
236.019
236.66
237.088
236.835
236.155
236.793
237.351
237.331
236.379
234.941
235.916
236.332
236.06
235.073
230.053
231.652
232.215
232.35
232.258
221.569
223.432
224.442
225.65
227.005
235.721
234.726
234.896
234.132
234.273
235.688
234.709
234.842
234.086
234.797
235.677
234.669
234.779
234.198
235.312
235.678
234.604
234.772
234.451
234.899
235.683
234.518
234.841
234.65
232.212
235.696
234.374
234.891
234.425
228.724
235.889
234.235
234.779
233.93
226.355
236.793
234.004
234.149
232.246
223.334
240.837
233.983
232.97
229.787
219.661
249.808
234.71
231.749
227.242
216.91
217.761
196.235
175.027
151.733
126.447
207.366
191.37
172.325
150.421
126.652
198.877
186.197
168.615
148.088
126.334
191.744
180.784
165.1
146.262
125.92
191.526
180.765
165.354
146.661
126.15
96.3948
95.518
95.0703
94.3034
94.1468
57.3133
55.3664
53.661
51.7393
50.9733
29.4829
27.1396
24.3768
22.0777
20.7532
15.0309
12.6143
10.1488
8.12854
7.15801
9.20148
7.31374
5.92679
4.95131
4.36416
5.97161
4.8695
4.28957
4.20076
4.28899
4.0639
3.60427
3.53193
3.68745
3.84103
2.75628
2.74222
2.97572
3.27914
3.43755
1.65522
1.95969
2.41122
2.76201
2.90682
0.609368
1.00619
1.57899
1.98115
2.15543
3.61051
3.17837
2.06612
0.960731
0.275843
3.66425
3.00712
1.97386
0.904594
0.26465
3.46542
2.74553
1.84486
0.852657
0.25591
3.14534
2.50211
1.6822
0.800416
0.248977
2.72951
2.3555
1.49985
0.743077
0.242582
4.47821
3.16186
1.97972
1.00435
0.310548
3.74139
3.25625
2.06855
0.997145
0.290078
94.9023
54.1434
27.5058
14.4822
9.462
93.6811
51.134
22.9824
9.46664
5.25627
232.142
232.223
232.173
231.656
230.578
232.73
232.903
233.132
233.171
232.795
233.293
233.465
233.852
234.25
234.42
233.893
234.044
234.449
235.052
235.471
234.639
234.875
235.38
235.994
236.255
141.979
141.787
140.959
140.448
139.537
185.213
184.404
182.425
180.659
178.682
215.513
214.142
211.793
208.979
206.604
229.149
228.142
226.091
223.593
221.148
231.997
231.383
230.411
229.028
227.129
238.817
234.442
234.534
233.51
232.896
237.114
234.484
234.622
233.678
232.913
236.348
234.573
234.726
233.902
233.244
235.977
234.655
234.829
234.104
233.623
235.799
234.709
234.896
234.186
233.939
252.258
235.782
234.889
233.446
231.979
243.164
234.688
234.471
233.389
232.699
226.935
221.861
208.753
182.036
141.228
231.132
226.889
213.307
185.06
142.451
)
;

boundaryField
{
    left
    {
        type            zeroGradient;
    }
    right
    {
        type            fixedValue;
        value           uniform 0;
    }
    down
    {
        type            zeroGradient;
    }
    up
    {
        type            zeroGradient;
    }
    cylinder
    {
        type            zeroGradient;
    }
    defaultFaces
    {
        type            empty;
    }
}


// ************************************************************************* //
