/*--------------------------------*- C++ -*----------------------------------*\
  =========                 |
  \\      /  F ield         | OpenFOAM: The Open Source CFD Toolbox
   \\    /   O peration     | Website:  https://openfoam.org
    \\  /    A nd           | Version:  13
     \\/     M anipulation  |
\*---------------------------------------------------------------------------*/
FoamFile
{
    format      ascii;
    class       surfaceScalarField;
    location    "0.695";
    object      phi;
}
// * * * * * * * * * * * * * * * * * * * * * * * * * * * * * * * * * * * * * //

dimensions      [0 3 -1 0 0 0 0];

internalField   nonuniform List<scalar> 
823
(
0.0113778
-0.0505543
0.0391764
0.0387588
-0.133435
0.106055
0.0788325
-0.205877
0.165804
0.130172
-0.268869
0.21753
-0.323258
0.259414
0.194016
0.0107031
-0.0612574
0.0361432
-0.158876
0.0726483
-0.242383
0.117973
-0.314194
-0.3756
0.170314
0.00837703
-0.0696344
0.0282851
-0.178784
0.0567257
-0.270823
0.0918106
-0.349279
-0.41605
0.132261
0.00529927
-0.0749337
0.0179956
-0.19148
0.0362296
-0.289057
0.058884
-0.371933
-0.442415
0.0852485
0.00196197
-0.0768956
0.00663004
-0.196148
0.0132897
-0.295717
0.021522
-0.380165
0.0310623
-0.451955
0.00664016
-0.0107546
0.00411434
0.0221707
-0.0309146
0.0153839
0.0453698
-0.0485063
0.0253072
0.0745141
-0.0639457
0.0348014
-0.0770357
0.108165
0.0433852
0.00574891
-0.0165037
0.021464
-0.0466297
0.0466661
-0.0737084
0.0797015
-0.0969811
-0.116098
0.118764
0.00639126
-0.0228949
0.0236487
-0.0638871
0.0512176
-0.101277
0.0878884
-0.133652
-0.16012
0.13191
0.00753584
-0.0304308
0.0270859
-0.0834372
0.0573128
-0.131504
0.0970158
-0.173355
-0.207898
0.144794
0.00874565
0.031363
0.0656627
0.109838
0.161353
0.322505
-0.957695
0.743355
0.474448
-0.822622
0.670678
0.573865
-0.354332
0.254916
0.61492
-0.0669516
0.0258962
0.00341064
-0.00798669
0.330337
-1.16927
0.471028
-0.963314
0.575724
-0.459028
0.636252
-0.12748
-0.0167344
0.336505
-1.37386
0.461008
-1.08782
0.56326
-0.561279
0.632396
-0.196616
-0.0472279
0.337413
-1.56648
0.448072
-1.19848
0.540657
-0.653865
0.613581
-0.26954
-0.0854168
0.327722
-1.73285
0.428162
-1.29891
0.50873
-0.734433
0.574971
-0.335781
-0.119402
1.19774
-1.59029
-1.34029
1.00783
-1.109
0.889743
-0.61635
0.837289
-0.283327
-0.0977406
1.32982
-1.13301
-1.7871
0.98204
-0.761222
0.773885
-0.408194
0.684073
-0.193515
-0.0693354
1.18945
-0.607646
-1.71482
0.816302
-0.388071
0.610576
-0.202469
0.515835
-0.0987734
-0.0370257
0.822371
-0.185287
-1.24473
0.545346
-0.111046
0.396392
-0.0535151
0.324484
-0.0268658
-0.0109609
0.306717
-0.492004
0.195672
0.142156
0.115291
1.56259
0.0462502
-1.57778
1.52169
0.126156
1.46266
0.191288
1.39633
0.236643
0.250052
1.67586
0.0356514
-1.66526
1.69932
0.102695
1.73081
0.159797
1.76528
0.202172
0.228236
1.38797
0.0184774
-1.37079
1.43706
0.0536078
1.51388
0.0829773
1.61015
0.105893
0.12357
0.977699
0.0053145
-0.964536
1.01588
0.0154232
1.07582
0.0230446
1.15388
0.0278276
0.0327219
0.392987
-0.387673
0.40841
0.431455
0.459283
0.128771
0.327625
-0.264667
-0.19173
0.0781584
0.273214
-0.222601
0.0385243
0.209793
-0.170159
0.0113401
0.136443
-0.109259
0.0519532
-0.0406132
0.115952
0.378905
-0.167232
0.0714975
0.317668
0.0356185
0.245672
0.0105611
0.161501
0.0625143
0.0888492
0.418274
-0.128218
0.0548108
0.351707
0.0272877
0.273195
0.00806496
0.180724
0.0705793
0.0552408
0.443533
-0.0805
0.0337631
0.373184
0.016655
0.290303
0.00486429
0.192514
0.0754436
0.0174806
-0.0259022
0.0104998
0.00508593
0.00145207
0.0726299
0.0873334
-0.10726
-0.0527028
0.0428835
0.073712
-0.0439656
0.0197326
0.0569418
-0.0337907
0.00513673
0.0368099
-0.0222141
0.0132953
-0.00815855
0.0760197
0.125912
-0.114598
0.0437187
0.106013
0.019642
0.0810185
0.00508987
0.051362
0.0183852
0.0843944
0.168565
-0.127048
0.0490857
0.141322
0.0227318
0.107372
0.00617291
0.0679209
0.0245582
0.0940587
0.214684
-0.140177
0.0557711
0.179609
0.0265263
0.136617
0.00742831
0.0870189
0.0319865
0.107401
-0.157384
0.0644087
0.0308671
0.00862669
0.513207
0.175279
-0.292506
0.562389
0.161577
-0.210759
0.496771
0.313346
-0.247728
0.334897
0.803211
-0.641337
1.0414
-0.813767
0.513495
0.0577632
0.56006
0.115012
0.487447
0.385959
0.331335
0.959324
1.25814
0.513573
-0.0598299
0.546803
0.0817821
0.466888
0.465874
0.3281
1.09811
1.45919
0.509929
-0.173779
0.525517
0.0661944
0.441919
0.549471
0.323895
1.21614
1.64291
0.498837
-0.276637
0.494597
0.0704349
0.412731
0.631337
0.312052
1.31682
1.79758
0.764507
-0.437123
0.845033
-0.0100908
0.956434
0.519935
1.16944
1.10381
1.61946
1.34756
0.707472
-0.540575
0.782375
-0.0849939
0.954744
0.347566
1.29775
0.760804
1.14344
1.77376
0.602281
-0.538836
0.633163
-0.115875
0.803584
0.177145
1.17253
0.391862
0.612033
1.70394
0.448456
-0.383272
0.405538
-0.0729577
0.536102
0.0465808
0.816007
0.111957
0.186913
1.24113
0.220749
0.147791
0.194372
0.306329
0.493242
1.40259
-0.246758
1.46574
-0.230385
1.523
-0.185471
1.56316
-0.120662
-0.0405271
1.75266
-0.225656
1.71974
-0.197464
1.69062
-0.156349
1.67084
-0.10088
-0.0349534
1.60147
-0.123191
1.50876
-0.104754
1.43456
-0.0821481
1.38705
-0.0533718
-0.0186949
1.15107
-0.0331328
1.0743
-0.0279882
1.0153
-0.0231433
0.977571
-0.0156448
-0.00566004
0.460109
0.432121
0.408978
0.393333
0.00250152
0.0430083
-0.0455099
0.00732829
0.101056
-0.105882
0.0160959
0.148402
-0.157169
0.0165793
0.151916
-0.152399
0.114033
0.0148148
-0.112269
0.00682875
0.0361796
0.0201789
0.0877055
0.0409598
0.127621
0.0482573
0.144618
0.116387
0.0459037
0.00880978
0.0273698
0.0270781
0.0694372
0.0521532
0.102546
0.0730952
0.123676
0.11404
0.0754415
0.00780171
0.0195681
0.0255148
0.0517241
0.0497507
0.0783097
0.0774338
0.0959932
0.0992478
0.0922263
0.00509909
0.014469
0.0179738
0.0388494
0.0367677
0.0595158
0.0600106
0.0727503
0.0767487
0.0825096
0.00342388
0.0110451
0.0125806
0.0296927
0.0274436
0.0446528
0.0470576
0.0531363
0.0561561
0.0676502
0.00222271
0.00882241
0.00893021
0.0229851
0.0222663
0.0313167
0.0410165
0.034386
0.034772
0.0624006
0.00167361
0.0071488
0.0101287
0.01453
0.0261865
0.0152588
0.0467425
0.01383
0.0115218
0.0699926
0.00374634
0.00340245
0.0175483
0.000727969
0.0368881
-0.00408112
0.0599116
-0.00919368
-0.0143899
0.0858232
0.00751665
0.0236285
0.0448545
0.0704622
0.0994573
0.153814
0.0198104
-0.105974
0.243375
-0.130318
0.0407557
0.26471
-0.0380042
0.0166697
0.269719
0.00377373
-0.00878255
-0.00149582
-0.00469929
0.214796
-0.132586
0.325285
-0.240807
0.351405
-0.0641239
0.353897
0.00128157
-0.00408062
0.260137
-0.32273
0.39143
-0.3721
0.433616
-0.10631
0.434739
0.000159088
-0.00195551
0.293408
-0.530315
0.438801
-0.517492
0.502661
-0.17017
0.508588
-0.00576817
0.00349801
0.312497
0.465683
0.550429
0.570557
0.0706689
0.038677
-0.109346
0.0786421
-0.00797316
0.0829599
-0.00431785
0.0803695
0.00259042
0.00116923
0.194096
-0.261394
0.226878
0.23923
0.233037
0.0207328
-0.00433166
-0.0164011
0.0342835
-0.0135507
0.0567628
-0.0224793
0.0856229
-0.0288602
-0.023723
0.0539255
-0.0434424
0.0862785
0.139241
0.202607
0.0478302
-0.0551481
0.0763538
-0.0690359
0.0275575
-0.0521682
0.0724409
0.0123374
-0.0443794
0.0595995
0.00331801
-0.0300415
0.0390609
-0.011261
0.014579
0.045389
-0.0322656
-0.0682715
0.0249609
-0.0317401
0.00982267
-0.0292412
0.00218984
-0.0224087
-0.00907117
0.0560606
-0.00668294
-0.0816434
0.0331244
-0.00880396
0.0142777
-0.0103945
0.00258871
-0.0107197
-0.00648245
0.0701078
0.0215627
-0.0983534
0.0448333
0.0164707
0.0233661
0.0110727
0.00692195
0.00572448
0.000439482
0.0744214
-0.105561
0.0469267
0.0242087
0.00771912
0.0165859
-0.114031
-0.0148232
0.0160951
-0.151909
0.00730698
-0.148381
0.00248925
-0.101065
-0.0430206
0.0482731
-0.116376
-0.0459284
0.0409336
-0.144569
0.0201648
-0.127612
0.00682156
-0.0877214
-0.0361991
0.0731269
-0.11397
-0.0755329
0.0521255
-0.123568
0.0270664
-0.102553
0.00880671
-0.0694617
-0.0273923
0.0773417
-0.0989716
-0.0923401
0.0496229
-0.0958488
0.0254345
-0.0783648
0.00777599
-0.0518032
-0.0196164
0.0599528
-0.0825706
0.0365449
0.0177796
0.00503732
0.341915
0.583366
-0.529301
0.280524
0.225096
-0.163705
0.247462
0.0547984
-0.0217366
0.165315
0.113679
-0.0315322
-0.000933136
0.0972118
0.407778
0.571568
0.371367
0.261507
0.335649
0.090517
0.233564
0.215764
0.16436
0.459831
0.507716
0.451393
0.269945
0.409253
0.132657
0.28377
0.341247
0.366487
0.495316
0.40838
0.514563
0.250698
0.461451
0.185769
0.317867
0.48483
0.586001
0.511853
0.551792
0.489834
0.333327
0.158667
0.351384
0.0847692
0.0738978
0.0800299
0.00473925
0.0724326
0.00759725
-0.0369669
0.1094
0.332134
0.242327
0.22533
0.201395
0.261639
0.0856729
0.0237266
0.0567946
0.0288783
0.0342946
0.0225001
0.0207363
0.0135583
0.00433515
0.202795
0.139333
0.0863005
0.0539304
)
;

boundaryField
{
    left
    {
        type            calculated;
        value           nonuniform List<scalar> 
17
(
-0.60402
-0.60402
-0.60402
-0.60402
-0.60402
-0.39598
-0.39598
-0.39598
-0.39598
-0.39598
-0.39598
-0.39598
-0.39598
-0.39598
-0.39598
-0.510051
-0.510051
)
;
    }
    right
    {
        type            calculated;
        value           nonuniform List<scalar> 
17
(
0.0792002
0.229507
0.275914
0.356482
0.432614
0.503135
0.566068
0.619496
0.656398
0.662889
0.65177
0.608956
0.815628
0.655667
0.483525
0.29842
0.10433
)
;
    }
    down
    {
        type            calculated;
        value           uniform 0;
    }
    up
    {
        type            calculated;
        value           uniform 0;
    }
    cylinder
    {
        type            calculated;
        value           uniform 0;
    }
    defaultFaces
    {
        type            empty;
    }
}


// ************************************************************************* //
