/*--------------------------------*- C++ -*----------------------------------*\
  =========                 |
  \\      /  F ield         | OpenFOAM: The Open Source CFD Toolbox
   \\    /   O peration     | Website:  https://openfoam.org
    \\  /    A nd           | Version:  13
     \\/     M anipulation  |
\*---------------------------------------------------------------------------*/
FoamFile
{
    format      ascii;
    class       volScalarField;
    location    "0.695";
    object      strainRateViscosityModel:nu;
}
// * * * * * * * * * * * * * * * * * * * * * * * * * * * * * * * * * * * * * //

dimensions      [0 2 -1 0 0 0 0];

internalField   nonuniform List<scalar> 
440
(
9.41955
8.96972
8.54449
8.04237
7.58621
9.68996
9.35816
8.98176
8.48003
7.87556
9.80074
9.53084
9.15876
8.58508
7.84825
9.84962
9.61817
9.25861
8.64755
7.86606
9.86917
9.65607
9.30591
8.68094
7.90878
1.30618
1.7909
2.0504
2.30061
2.36465
3.38508
3.30255
3.31718
3.42564
3.49636
5.89236
5.27153
4.92815
4.72833
4.75808
7.76964
6.99346
6.42039
5.90496
5.82744
8.82069
8.15136
7.55207
6.91823
6.87165
1.85195
0.846314
0.418415
0.154573
0.141763
2.61705
0.909886
0.365836
0.11977
0.0355322
3.51303
1.14962
0.304238
0.0780869
0.0132119
4.09198
1.43714
0.277659
0.0467214
0.0325938
4.60444
1.75446
0.324475
0.011776
0.134449
4.22971
1.74125
0.29793
0.0611757
0.277598
3.71113
1.82396
0.625275
0.314259
0.419443
4.9194
3.20865
1.23848
0.556018
0.545912
7.00945
4.2889
1.91613
0.900538
0.672287
8.27283
5.07686
2.49615
1.30637
0.850303
2.84827
3.68263
4.61978
5.5057
6.14902
3.68373
3.6966
3.77217
3.85213
3.36784
8.22651
8.08655
7.79931
7.3854
6.34635
9.05291
8.99237
8.85904
8.62149
8.16016
9.60671
9.56995
9.48702
9.33805
9.1188
7.50326
8.01244
8.55944
9.01088
9.46419
7.794
8.45164
8.98713
9.37787
9.70864
7.77899
8.55904
9.15942
9.54077
9.80944
7.81627
8.62755
9.25739
9.62275
9.85359
7.89134
8.67366
9.30535
9.65743
9.87034
2.53068
2.47175
2.27192
2.1177
2.04654
3.47944
3.4314
3.47175
3.69145
4.24376
4.63658
4.65965
5.04963
5.59887
6.45058
5.6843
5.82623
6.49756
7.18785
8.04098
6.75344
6.84184
7.5804
8.24273
8.9354
0.206689
0.059188
0.278699
0.865501
2.02459
0.176469
0.0748651
0.223879
0.884966
2.65993
0.156032
0.0791571
0.169181
1.08086
3.44168
0.144644
0.0656706
0.15802
1.38819
3.94344
0.149725
0.0724037
0.252438
1.73688
4.36554
0.201578
0.11046
0.270421
1.87015
4.10155
0.333092
0.128692
0.271861
1.80973
3.86112
0.663518
0.251722
0.775667
3.0367
4.90782
2.27397
0.81749
1.50983
4.16225
6.96072
5.05661
2.53954
2.42161
5.03822
8.27911
5.94728
5.26627
4.40245
3.51046
2.77984
3.52217
3.99096
3.97085
3.87629
3.76363
6.32098
7.35232
7.77904
8.06771
8.21849
8.12124
8.59995
8.84945
8.98862
9.05203
9.11693
9.33781
9.4874
9.57051
9.60696
9.31087
7.91685
1.39865
3.6302
7.73679
9.08185
7.44079
3.20597
1.64075
6.78904
8.39869
6.5777
4.20849
1.00356
4.14772
6.81565
5.09475
3.4553
1.70061
1.03875
4.50382
3.14534
2.03883
1.3779
0.459951
2.59721
1.61868
1.00245
0.796854
0.926461
1.45616
0.779073
0.579634
0.612791
0.685525
0.801492
0.405845
0.590356
0.759111
0.832398
0.305769
0.507483
0.885125
1.05068
1.1121
0.162251
0.935198
1.28113
1.51732
1.57174
0.190381
0.362239
0.708169
0.774856
0.730315
0.395603
0.50044
0.577236
0.633676
0.618014
0.614073
0.647028
0.463175
0.489354
0.50192
0.965994
0.795442
0.415764
0.349238
0.380764
1.33093
0.845799
0.421204
0.230312
0.26297
1.10559
0.85764
1.12136
1.10682
0.999839
0.283891
0.471449
0.863904
0.918244
0.846128
9.19117
8.83865
7.75881
5.73021
3.55966
8.58729
7.7229
5.85159
3.49152
0.866102
0.964744
0.858528
1.02698
1.6202
2.65822
0.813583
0.767666
0.704148
0.824643
1.52638
1.05963
1.0109
0.847694
0.553146
0.743839
1.38352
1.34649
1.14861
0.797262
0.228078
1.85417
1.80752
1.55557
1.23795
0.597873
7.73633
3.62713
1.39994
7.91509
9.31101
6.78522
1.64054
3.20264
7.4377
9.08249
4.13424
1.01087
4.19436
6.5731
8.40026
1.03672
1.70549
3.43366
5.08561
6.82214
0.476163
1.37636
2.01479
3.12759
4.52668
1.31137
0.543579
0.550705
0.453744
0.176064
0.677036
0.293189
0.467821
0.519961
0.486166
0.39821
0.157829
0.380484
0.621249
0.804388
0.288775
0.0715149
0.340297
0.772439
1.2229
0.244454
0.0439828
0.318381
0.855334
1.58655
5.4811
2.46064
1.0357
0.961985
1.14178
2.88746
1.08833
0.724552
0.556144
0.251954
3.56827
5.73579
7.75999
8.83918
9.19132
0.843457
3.47207
5.84498
7.72153
8.58713
)
;

boundaryField
{
    left
    {
        type            calculated;
        value           nonuniform List<scalar> 
17
(
0.454659
1.11968
2.18455
3.91023
6.58035
0.302961
0.187535
0.137272
0.142451
0.212142
2.95906
2.06114
1.33674
0.816742
0.497396
6.97875
4.57968
)
;
    }
    right
    {
        type            calculated;
        value           nonuniform List<scalar> 
17
(
1.00013
0.847597
0.732443
0.620885
0.504252
0.38016
0.256621
0.129635
0.0283383
0.0122585
0.0403421
0.175574
0.34066
0.475191
0.581369
0.686214
0.842095
)
;
    }
    down
    {
        type            calculated;
        value           nonuniform List<scalar> 
20
(
5.99501
2.99964
1.14519
1.04454
1.85298
4.27034
6.38386
8.13144
9.0158
9.30926
9.30909
9.01516
8.12995
6.37981
4.26409
1.83162
0.932277
1.18779
1.16376
1.04723
)
;
    }
    up
    {
        type            calculated;
        value           nonuniform List<scalar> 
20
(
8.54861
5.40481
2.72564
1.45561
0.915606
9.69562
9.66615
9.59857
9.47421
9.2934
9.29639
9.47646
9.60017
9.66726
9.69603
5.70459
3.14956
2.66159
5.39398
8.5655
)
;
    }
    cylinder
    {
        type            calculated;
        value           nonuniform List<scalar> 
40
(
1.3718
3.58992
6.11873
7.96043
8.95709
9.50513
9.74577
9.84079
9.88145
9.89745
9.54745
9.76283
9.84855
9.88496
9.89848
2.28473
4.52125
6.69744
8.234
9.06989
3.04373
1.85029
1.09348
0.445191
0.605388
9.51905
9.33189
8.74232
7.26975
4.98619
9.51888
9.33114
8.74026
7.26152
4.9576
2.96577
1.73309
1.07386
0.668178
0.103731
)
;
    }
    defaultFaces
    {
        type            empty;
    }
}


// ************************************************************************* //
