/*--------------------------------*- C++ -*----------------------------------*\
  =========                 |
  \\      /  F ield         | OpenFOAM: The Open Source CFD Toolbox
   \\    /   O peration     | Website:  https://openfoam.org
    \\  /    A nd           | Version:  13
     \\/     M anipulation  |
\*---------------------------------------------------------------------------*/
FoamFile
{
    format      ascii;
    class       volVectorField;
    location    "2.9";
    object      U;
}
// * * * * * * * * * * * * * * * * * * * * * * * * * * * * * * * * * * * * * //

dimensions      [0 1 -1 0 0 0 0];

internalField   nonuniform List<vector> 
1800
(
(-0.0306512 0.0238893 1.01041e-20)
(-0.0747621 0.0440277 4.5907e-21)
(-0.0922897 0.0542127 -5.30628e-20)
(-0.0775199 0.058733 6.50891e-20)
(-0.0232001 0.0602429 1.75456e-19)
(0.075441 0.0591182 7.54747e-20)
(0.220151 0.055771 -2.91683e-20)
(0.405894 0.0481631 3.98374e-20)
(0.653728 0.059446 1.54989e-19)
(0.77391 0.0962757 1.93057e-19)
(-0.0451806 0.0334955 9.37679e-21)
(-0.0817458 0.0547967 -4.47844e-20)
(-0.0654378 0.0541748 4.21089e-22)
(0.00491323 0.0403392 -6.25672e-20)
(0.132793 0.0190509 2.51271e-20)
(0.318231 -0.00647393 1.48344e-19)
(0.555306 -0.0332543 -6.03999e-20)
(0.829475 -0.0626275 1.89347e-20)
(1.14435 -0.0784599 -1.59553e-19)
(1.34631 -0.0940084 1.52097e-19)
(-0.0491847 0.0325857 4.72632e-21)
(-0.0610325 0.0480451 1.76666e-20)
(0.0080246 0.0387599 3.30933e-21)
(0.154544 0.0141095 -1.36671e-20)
(0.37451 -0.0180063 -1.49837e-19)
(0.655395 -0.0517335 3.01792e-20)
(0.975103 -0.0829207 5.86338e-20)
(1.30772 -0.108461 -2.33049e-20)
(1.62361 -0.127119 -1.58441e-22)
(1.90751 -0.155969 -1.26482e-21)
(-0.0414933 0.0240752 -8.23356e-21)
(-0.00754773 0.0250329 -2.59965e-20)
(0.135987 0.00488995 -2.67957e-20)
(0.37795 -0.0266388 2.69853e-20)
(0.698254 -0.0604702 2.53596e-20)
(1.06288 -0.0902741 1.05315e-20)
(1.43154 -0.112809 -3.53134e-21)
(1.76773 -0.127774 9.97423e-20)
(2.05235 -0.137854 9.75173e-20)
(2.25972 -0.144051 -4.62576e-20)
(-0.0214552 0.0119735 6.33863e-20)
(0.0837725 -0.00408287 5.86257e-20)
(0.324718 -0.0321424 -4.15751e-20)
(0.672537 -0.0619419 -5.11846e-20)
(1.07923 -0.0856138 -1.4493e-19)
(1.48668 -0.100143 2.30986e-21)
(1.84606 -0.106562 2.03904e-19)
(2.13029 -0.108121 9.54401e-20)
(2.32958 -0.106367 1.29178e-21)
(2.46442 -0.113002 -9.49923e-20)
(0.0140729 -0.00169118 -6.19718e-20)
(0.217939 -0.0310218 -1.35786e-20)
(0.572189 -0.0582762 2.13366e-19)
(1.01619 -0.0749769 -6.69096e-20)
(1.46958 -0.0795677 -1.61166e-19)
(1.8641 -0.0757052 3.42856e-19)
(2.16443 -0.0684885 -3.55851e-19)
(2.36638 -0.0617771 -5.01907e-19)
(2.48884 -0.0579694 4.16058e-19)
(2.55024 -0.0577429 2.08269e-21)
(0.0676611 -0.0140325 6.71151e-20)
(0.393439 -0.0467768 -1.49715e-19)
(0.860196 -0.0608112 -5.29897e-19)
(1.36699 -0.0549947 2.66037e-19)
(1.81565 -0.0385785 5.99174e-19)
(2.15368 -0.020727 -2.34328e-21)
(2.37562 -0.00666316 -1.29952e-18)
(2.50396 0.00187944 7.68406e-21)
(2.56734 0.00646287 1.56333e-18)
(2.59324 0.0033455 4.3047e-19)
(0.139087 -0.0212538 6.37976e-20)
(0.599384 -0.0427147 3.514e-19)
(1.1582 -0.0314889 4.58011e-19)
(1.6834 -0.000175867 -1.14522e-19)
(2.08803 0.0323204 -5.43577e-19)
(2.35378 0.0567248 -2.08282e-19)
(2.50482 0.0713623 0)
(2.57759 0.0780668 6.5158e-19)
(2.60434 0.0790958 -1.17189e-20)
(2.60429 0.0750468 -6.20208e-19)
(0.224731 -0.0192273 5.52986e-20)
(0.817073 -0.0123239 3.86851e-19)
(1.43455 0.0319834 7.34584e-19)
(1.94072 0.0855121 -7.84014e-19)
(2.28347 0.126797 -6.89863e-19)
(2.48027 0.151557 2.74071e-19)
(2.57489 0.16284 -1.30188e-18)
(2.60917 0.165223 -9.8326e-19)
(2.61167 0.162599 1.20908e-18)
(2.59797 0.154784 1.05322e-18)
(0.31817 -0.00465183 -3.41307e-20)
(1.02556 0.0465297 3.08696e-19)
(1.66722 0.12593 1.9072e-19)
(2.13191 0.195338 -1.55484e-18)
(2.41051 0.238761 4.59452e-20)
(2.54907 0.25909 3.10776e-18)
(2.6021 0.263971 -1.80156e-18)
(2.61087 0.260263 -1.05542e-18)
(2.59916 0.252045 3.73493e-19)
(2.57646 0.240091 -8.55225e-19)
(-0.0148637 0.262578 2.4677e-19)
(-0.0660963 0.520969 -1.25839e-19)
(-0.132163 0.618194 1.16322e-21)
(-0.203304 0.634617 -3.27811e-20)
(-0.27179 0.618393 2.84362e-21)
(-0.33602 0.590932 2.19201e-19)
(-0.395596 0.559081 1.79304e-19)
(-0.450011 0.524184 -3.57441e-19)
(-0.499982 0.486298 2.08587e-20)
(-0.548438 0.44569 -6.43708e-20)
(-0.0345982 0.295418 -8.28545e-21)
(-0.0884339 0.610956 1.58704e-20)
(-0.144001 0.743023 1.52502e-20)
(-0.199622 0.774897 4.56486e-20)
(-0.252191 0.762359 -1.63761e-19)
(-0.300724 0.7328 2.20288e-19)
(-0.344711 0.696098 -3.28573e-19)
(-0.383285 0.654647 -4.32653e-19)
(-0.416246 0.608681 3.31488e-19)
(-0.445979 0.558435 -1.05579e-19)
(-0.0525172 0.289964 -6.86938e-20)
(-0.108896 0.641242 4.52132e-20)
(-0.151469 0.813219 4.23432e-21)
(-0.18682 0.871277 -2.29607e-19)
(-0.218331 0.870361 -7.59661e-20)
(-0.246226 0.843023 8.17563e-19)
(-0.269951 0.803527 -3.00897e-19)
(-0.288558 0.756494 -4.27798e-19)
(-0.300864 0.702986 5.08238e-19)
(-0.307447 0.64336 2.86449e-19)
(-0.0615773 0.247797 -5.56403e-20)
(-0.119374 0.602014 -4.54655e-21)
(-0.149663 0.812433 1.38948e-20)
(-0.16502 0.908321 -5.76995e-20)
(-0.174047 0.93161 2.35478e-19)
(-0.179368 0.915614 -2.7969e-19)
(-0.181253 0.879258 -2.47562e-19)
(-0.179155 0.830738 2.96126e-19)
(-0.171936 0.77266 1.39482e-20)
(-0.155397 0.706039 9.23111e-21)
(-0.0578669 0.18134 0)
(-0.114672 0.497937 5.26818e-21)
(-0.136858 0.73005 -4.79541e-20)
(-0.136745 0.868058 1.10408e-19)
(-0.125513 0.929577 3.39386e-19)
(-0.108547 0.939384 -2.71046e-19)
(-0.0878861 0.917336 1.09256e-19)
(-0.063889 0.8755 2.62876e-20)
(-0.036256 0.819489 0)
(0.00251967 0.751653 2.01819e-20)
(-0.0431874 0.110227 -2.70886e-20)
(-0.0943909 0.355069 7.00726e-20)
(-0.113797 0.576336 3.365e-20)
(-0.10736 0.740467 -5.31854e-20)
(-0.0842376 0.841177 5.69292e-20)
(-0.0508645 0.887966 1.90232e-19)
(-0.0112157 0.894417 -5.01915e-19)
(0.0327223 0.872311 -3.51127e-20)
(0.0786148 0.829141 6.05793e-19)
(0.136053 0.769316 1.1525e-20)
(-0.0243682 0.0526691 9.89232e-21)
(-0.0657403 0.214442 1.31117e-19)
(-0.0859311 0.392826 -7.02396e-20)
(-0.082577 0.55056 -1.17627e-20)
(-0.0593376 0.668859 -6.77076e-20)
(-0.0209242 0.744312 7.82883e-20)
(0.0282281 0.781463 1.7492e-19)
(0.0849541 0.787623 2.18898e-19)
(0.144532 0.769098 -2.26602e-19)
(0.213463 0.729704 -3.09073e-19)
(-0.0089932 0.0169824 2.56493e-20)
(-0.04078 0.108046 -6.76386e-20)
(-0.0633969 0.229379 -1.02989e-19)
(-0.0682029 0.352071 3.87254e-20)
(-0.053205 0.457054 -1.6022e-20)
(-0.0200253 0.535585 7.79857e-20)
(0.0279295 0.586216 6.0819e-20)
(0.0870388 0.611735 9.01832e-20)
(0.152538 0.616562 7.12575e-20)
(0.226022 0.594005 -1.8031e-19)
(-0.00330412 0.00318404 1.63596e-20)
(-0.033227 0.0475558 -1.00103e-19)
(-0.0607376 0.116535 1.51587e-19)
(-0.0747353 0.192707 1.66577e-19)
(-0.0696173 0.263612 -1.17022e-19)
(-0.0442715 0.322005 2.34282e-19)
(-7.33285e-05 0.365323 -4.18563e-20)
(0.0606684 0.394581 -1.4046e-19)
(0.136008 0.410269 3.08309e-20)
(0.236211 0.391797 -1.33561e-19)
(-0.0123715 0.00902725 -8.70537e-21)
(-0.0505931 0.0321417 -4.69194e-20)
(-0.0817097 0.0633666 -1.59456e-20)
(-0.0958697 0.0974831 7.63896e-20)
(-0.0856142 0.130497 1.53801e-19)
(-0.047034 0.159435 -1.57574e-19)
(0.0219533 0.183198 -1.15367e-19)
(0.120736 0.201846 2.63127e-20)
(0.251809 0.215369 4.10929e-20)
(0.410246 0.213704 8.77951e-20)
(-0.786762 0.229966 9.40199e-19)
(-0.684599 -0.241861 -1.90979e-18)
(-0.157806 -0.444145 -3.65049e-19)
(0.248439 -0.446895 1.23018e-19)
(0.568399 -0.404706 -2.39822e-20)
(0.758104 -0.309454 -1.37545e-20)
(0.888708 -0.236261 -8.62242e-21)
(0.978395 -0.165138 -2.46138e-21)
(1.02292 -0.129489 1.1658e-20)
(1.06942 -0.0843472 2.75033e-21)
(-0.602463 0.282782 9.71046e-19)
(-0.407638 -0.328234 7.80667e-19)
(0.00898354 -0.578498 -4.71814e-20)
(0.381665 -0.553127 -1.90866e-19)
(0.661248 -0.474129 -2.07524e-19)
(0.819718 -0.353815 0)
(0.927534 -0.264919 -1.9861e-20)
(1.00052 -0.182824 5.18656e-21)
(1.03746 -0.141142 3.79409e-22)
(1.07639 -0.090616 -5.57543e-21)
(-0.369 0.310973 -3.27028e-19)
(-0.0949828 -0.402341 -4.04545e-19)
(0.243404 -0.683886 2.67222e-19)
(0.547522 -0.644621 7.38283e-20)
(0.775388 -0.533307 1.79835e-20)
(0.896431 -0.390351 -7.42379e-21)
(0.975987 -0.287882 0)
(1.02803 -0.196986 0)
(1.05494 -0.150558 -1.06089e-20)
(1.08438 -0.0957496 0)
(-0.118489 0.319275 -8.92531e-20)
(0.230811 -0.459952 8.04521e-19)
(0.511475 -0.766888 -1.35975e-19)
(0.72948 -0.717399 0)
(0.897255 -0.58099 2.43318e-19)
(0.979904 -0.418604 -4.38791e-20)
(1.03041 -0.30448 0)
(1.05977 -0.206928 3.89499e-20)
(1.07504 -0.157198 0)
(1.09332 -0.0994828 5.1594e-21)
(0.126376 0.313688 1.10819e-19)
(0.557665 -0.501916 3.65644e-19)
(0.790758 -0.82732 9.14053e-20)
(0.919856 -0.769698 0)
(1.01892 -0.616074 1.02261e-19)
(1.06216 -0.438938 1.05311e-19)
(1.08568 -0.31506 -1.07055e-21)
(1.09338 -0.212563 -3.4282e-22)
(1.09683 -0.160777 -9.75829e-21)
(1.10294 -0.101621 1.92349e-21)
(0.34103 0.303969 1.0562e-18)
(0.869066 -0.533634 -2.89573e-19)
(1.06624 -0.866771 -4.75543e-20)
(1.11143 -0.802594 3.23528e-19)
(1.13818 -0.637767 -1.81747e-19)
(1.13939 -0.45149 5.5493e-20)
(1.13766 -0.320333 1.05481e-19)
(1.12611 -0.214322 -8.95153e-20)
(1.11895 -0.161349 5.67997e-23)
(1.1128 -0.102096 -1.20202e-20)
(0.503138 0.283319 6.5603e-20)
(1.15809 -0.559277 -3.29287e-20)
(1.32388 -0.888319 -1.31498e-19)
(1.29412 -0.819417 -1.08742e-20)
(1.25314 -0.647015 -1.75419e-19)
(1.21123 -0.456407 -9.33757e-21)
(1.18455 -0.320856 -4.44199e-20)
(1.1559 -0.212804 3.46093e-22)
(1.13991 -0.159223 1.2071e-20)
(1.12232 -0.100971 -9.14971e-22)
(0.62643 0.234233 -5.92789e-19)
(1.42271 -0.580459 -6.39925e-20)
(1.55763 -0.893083 0)
(1.4611 -0.822121 9.41467e-20)
(1.36132 -0.645761 1.50532e-19)
(1.27858 -0.454397 -1.0672e-20)
(1.22673 -0.317092 -1.48646e-19)
(1.18194 -0.208548 3.80733e-20)
(1.1586 -0.154821 -6.14831e-22)
(1.1309 -0.0984177 -6.43381e-21)
(0.782309 0.129149 6.8202e-19)
(1.6693 -0.598096 2.26955e-19)
(1.76315 -0.881875 9.37369e-20)
(1.60909 -0.811748 -6.11246e-20)
(1.46074 -0.635667 8.12805e-21)
(1.34214 -0.446456 -1.52412e-19)
(1.26561 -0.309606 5.14445e-20)
(1.20469 -0.202083 -1.72107e-22)
(1.17453 -0.148646 -4.31813e-22)
(1.13808 -0.094677 8.3782e-21)
(1.02107 -0.000530556 -4.32316e-19)
(1.89754 -0.608938 2.73832e-19)
(1.93748 -0.857241 1.49783e-19)
(1.73702 -0.790803 -2.39966e-19)
(1.55031 -0.617909 -1.65452e-19)
(1.40188 -0.433117 -8.46084e-20)
(1.30241 -0.298686 -2.78381e-20)
(1.22533 -0.19377 0)
(1.18799 -0.141205 -1.76249e-20)
(1.14375 -0.0900184 1.25764e-20)
(1.7277 -0.156786 -7.34105e-19)
(2.22677 -0.619754 -6.21023e-19)
(2.14659 -0.81223 -3.73013e-20)
(1.88841 -0.749073 4.16189e-20)
(1.65573 -0.582611 4.1187e-20)
(1.47267 -0.405842 -6.39071e-20)
(1.34628 -0.276911 -4.47091e-20)
(1.24949 -0.178513 2.46592e-20)
(1.20244 -0.129119 -9.37906e-21)
(1.14943 -0.0830385 -6.34146e-21)
(2.33911 -0.251643 7.48873e-20)
(2.4913 -0.637006 -1.16854e-18)
(2.23205 -0.758298 -5.2216e-19)
(1.90646 -0.655056 7.67601e-21)
(1.66788 -0.482875 1.36889e-19)
(1.49207 -0.325387 1.53233e-19)
(1.36806 -0.219791 1.11063e-19)
(1.26515 -0.142497 -1.27382e-20)
(1.21362 -0.105676 3.80012e-20)
(1.15329 -0.0708713 5.115e-21)
(2.48643 -0.287773 4.00044e-21)
(2.43687 -0.546045 -7.50163e-21)
(2.20459 -0.632361 4.57862e-20)
(1.9617 -0.558817 1.8136e-35)
(1.75137 -0.419502 -2.89989e-20)
(1.56253 -0.280826 -4.64983e-34)
(1.4173 -0.183748 1.17953e-20)
(1.29441 -0.115399 2.40246e-34)
(1.23127 -0.0847848 -8.42601e-22)
(1.1595 -0.0587207 1.50208e-21)
(2.45364 -0.281234 -1.95152e-34)
(2.39068 -0.479619 3.64296e-19)
(2.21513 -0.571424 1.80302e-19)
(1.9803 -0.494839 0)
(1.75095 -0.340676 -8.48232e-20)
(1.5489 -0.204848 -8.33568e-20)
(1.40439 -0.123895 -6.60197e-20)
(1.2865 -0.0750288 8.39925e-34)
(1.22891 -0.056826 -1.95705e-20)
(1.15778 -0.0434567 -2.18781e-21)
(2.40766 -0.276048 3.06557e-21)
(2.34647 -0.428315 3.20415e-21)
(2.19313 -0.491193 0)
(1.97886 -0.407263 0)
(1.7594 -0.261751 0)
(1.55343 -0.142635 0)
(1.40293 -0.0782697 3.8604e-21)
(1.28154 -0.0441609 9.83273e-34)
(1.22412 -0.0341117 -1.41247e-21)
(1.15306 -0.029881 -3.23307e-34)
(2.36349 -0.265641 6.65854e-20)
(2.30687 -0.379987 0)
(2.1544 -0.425402 0)
(1.92007 -0.334582 0)
(1.68625 -0.186965 0)
(1.48459 -0.0755288 0)
(1.34857 -0.0259822 -8.39652e-21)
(1.24288 -0.00921897 2.9788e-20)
(1.1969 -0.00985391 -1.68949e-21)
(1.13507 -0.0158226 -2.58248e-22)
(2.31149 -0.250102 0)
(2.22705 -0.334307 1.0182e-19)
(2.01571 -0.347202 4.44087e-20)
(1.73976 -0.242815 0)
(1.50279 -0.10517 -5.70172e-20)
(1.32754 -0.0152656 -4.59523e-20)
(1.22766 0.0140123 -3.64945e-20)
(1.15583 0.015503 -1.42094e-20)
(1.13132 0.00754422 1.01415e-20)
(1.08775 -0.00471351 -4.50702e-21)
(2.15865 -0.218973 -1.71445e-21)
(1.97844 -0.262468 1.13047e-21)
(1.66291 -0.239441 -5.37247e-21)
(1.34785 -0.140269 -8.90785e-36)
(1.14261 -0.0340244 1.45644e-20)
(1.03599 0.0256753 -2.48425e-34)
(1.00199 0.0365836 -1.00915e-20)
(0.982894 0.0276862 -1.91832e-20)
(0.98792 0.0159028 -1.90328e-21)
(0.970153 0.00190374 3.69526e-21)
(1.65612 -0.157431 1.83172e-20)
(1.34994 -0.152598 -2.01974e-20)
(0.975184 -0.102018 -3.30256e-21)
(0.706785 -0.0361614 0)
(0.603454 0.0128918 7.30336e-21)
(0.602398 0.0352442 7.87026e-21)
(0.643118 0.0335382 -2.66757e-21)
(0.675917 0.0229231 4.68385e-21)
(0.705855 0.0133889 -6.60629e-21)
(0.71198 0.00347257 -3.36492e-21)
(0.558187 -0.0240348 0)
(0.334265 -0.00636942 0)
(0.161296 0.000199963 0)
(0.0750268 0.00177868 0)
(0.0711415 0.00459887 0)
(0.117416 0.00679777 0)
(0.174366 0.00579677 -1.02505e-20)
(0.217381 0.00364919 3.12826e-35)
(0.246608 0.00205023 -2.17369e-21)
(0.260056 0.000516016 -3.88294e-21)
(2.512 0.214412 8.27557e-19)
(2.54874 0.142835 5.07298e-20)
(2.56629 0.0684628 -8.32474e-20)
(2.58063 0.0129413 -2.67189e-19)
(2.58963 -0.0556302 -4.97481e-20)
(2.55449 -0.0842601 -7.62531e-20)
(2.56303 -0.155017 -2.47359e-19)
(2.36098 -0.132431 1.31692e-20)
(2.33154 -0.202531 0)
(1.69154 -0.0742922 9.13284e-21)
(2.43931 0.171983 2.64254e-19)
(2.42955 0.131834 -3.04127e-19)
(2.5169 0.0508502 -6.46085e-20)
(2.46464 0.0251984 -1.3098e-19)
(2.58231 -0.0589706 1.08608e-19)
(2.47041 -0.0687802 1.8856e-19)
(2.6294 -0.155144 -2.45218e-19)
(2.43575 -0.15877 -9.1461e-21)
(2.59382 -0.22952 -2.11229e-20)
(2.29905 -0.237206 8.43808e-20)
(2.38433 0.139495 -1.19941e-19)
(2.3486 0.110028 2.71998e-19)
(2.45772 0.0388457 1.67354e-19)
(2.38752 0.0160234 -2.81313e-19)
(2.51179 -0.0528377 -4.6425e-20)
(2.4158 -0.0756225 3.99553e-19)
(2.54182 -0.134504 7.35458e-20)
(2.44401 -0.168327 -8.22662e-20)
(2.53665 -0.205212 -4.84967e-20)
(2.46156 -0.255589 -5.56341e-20)
(2.32247 0.110552 -3.07034e-19)
(2.31091 0.0783247 -4.79172e-20)
(2.38561 0.0278043 2.54058e-20)
(2.35787 -0.00439883 -1.50559e-20)
(2.42582 -0.0492398 -2.3535e-19)
(2.39502 -0.0859584 -9.1709e-20)
(2.44527 -0.12025 2.29546e-19)
(2.42848 -0.164819 -1.26791e-20)
(2.4527 -0.18671 4.63687e-20)
(2.45702 -0.237791 2.03749e-20)
(2.26853 0.0810109 4.47813e-20)
(2.28636 0.0472284 1.33648e-19)
(2.32637 0.012123 -2.60785e-20)
(2.33614 -0.0232231 2.01427e-19)
(2.36412 -0.0540579 -5.59134e-20)
(2.37211 -0.0920171 -2.48757e-19)
(2.38608 -0.117292 3.93935e-20)
(2.39767 -0.157544 -9.42529e-20)
(2.40003 -0.178475 1.08199e-20)
(2.41585 -0.219759 -6.25524e-21)
(2.22805 0.0489984 -1.69605e-19)
(2.2581 0.0185046 -7.66418e-20)
(2.28355 -0.00800575 -1.25329e-21)
(2.3069 -0.0397193 1.19535e-19)
(2.32217 -0.0641146 2.72061e-19)
(2.3409 -0.0970348 -7.36327e-20)
(2.34698 -0.119376 6.7726e-21)
(2.36298 -0.153036 -7.13315e-20)
(2.36201 -0.174109 -1.0352e-19)
(2.37666 -0.208131 -4.6526e-20)
(2.18214 0.0173028 -5.89945e-20)
(2.2129 -0.00748094 -1.30543e-19)
(2.23379 -0.0282642 -1.46963e-19)
(2.25888 -0.0540228 -2.74758e-19)
(2.27162 -0.0740464 6.58528e-20)
(2.29247 -0.101109 6.47201e-20)
(2.29767 -0.120698 8.854e-21)
(2.31615 -0.149121 8.11261e-20)
(2.31411 -0.168381 -9.96886e-20)
(2.33276 -0.198059 -5.24594e-20)
(2.07321 -0.0103941 6.27272e-20)
(2.09986 -0.0283853 3.90499e-20)
(2.1122 -0.0431437 2.06518e-20)
(2.13676 -0.0621366 -4.27502e-20)
(2.14148 -0.0766626 -4.09051e-20)
(2.16631 -0.0973642 -3.40441e-20)
(2.163 -0.112138 -5.05595e-20)
(2.19087 -0.135072 9.10374e-20)
(2.17827 -0.150203 -4.45563e-20)
(2.21267 -0.175416 3.03554e-20)
(1.7492 -0.0296237 -6.17768e-20)
(1.75849 -0.0392164 -6.2383e-21)
(1.75428 -0.0469815 1.16846e-19)
(1.76496 -0.0570306 -1.1162e-20)
(1.75388 -0.0646541 -3.33298e-20)
(1.76952 -0.0762607 6.96323e-20)
(1.7492 -0.0843434 -5.01338e-20)
(1.77381 -0.0984362 3.55136e-20)
(1.74005 -0.107421 -5.63298e-21)
(1.77944 -0.124539 -5.37898e-20)
(0.872959 -0.0137545 5.04274e-20)
(0.855863 -0.0134052 4.11965e-20)
(0.837102 -0.0131547 4.04714e-20)
(0.821215 -0.0131786 6.53721e-20)
(0.801734 -0.0136638 -3.32979e-20)
(0.788159 -0.0145202 -4.02621e-20)
(0.765387 -0.0159999 1.77605e-20)
(0.756106 -0.0181908 -2.8437e-21)
(0.721754 -0.0196445 4.28978e-21)
(0.728019 -0.0275666 -6.18013e-21)
(1.57918 0.963056 -8.7057e-20)
(1.56261 1.00934 2.73905e-20)
(1.56616 1.06344 -6.52215e-19)
(1.57491 1.12504 2.40277e-19)
(1.5816 1.19008 1.22059e-18)
(1.57759 1.25058 -1.50211e-19)
(1.54096 1.28423 -1.08396e-18)
(1.42115 1.23873 -2.7752e-21)
(1.12801 1.01697 -5.35051e-19)
(0.530143 0.490276 1.20582e-19)
(1.74511 0.932563 0)
(1.73351 0.977298 7.55093e-19)
(1.73332 1.02745 1.6714e-18)
(1.74163 1.08642 -1.02894e-18)
(1.75163 1.14991 -2.40159e-18)
(1.75106 1.20841 -1.57735e-19)
(1.71268 1.2384 -2.0215e-19)
(1.57821 1.18823 7.38253e-19)
(1.2472 0.966666 1.10905e-18)
(0.580698 0.458822 4.38736e-19)
(1.89904 0.89079 6.99592e-20)
(1.8964 0.935348 0)
(1.89742 0.982592 -6.93275e-20)
(1.90627 1.03709 1.04918e-18)
(1.91833 1.09586 5.73328e-20)
(1.91915 1.1491 -2.34668e-18)
(1.87645 1.17269 1.48358e-18)
(1.72433 1.11708 8.78816e-19)
(1.35387 0.898704 -9.51395e-19)
(0.622294 0.418059 -2.81442e-19)
(2.03374 0.841784 -1.91422e-19)
(2.04137 0.884206 -1.40577e-19)
(2.04799 0.927654 2.87986e-19)
(2.05988 0.976507 -3.56944e-19)
(2.07405 1.02862 -1.65169e-18)
(2.07463 1.07428 -1.28107e-18)
(2.02467 1.0897 1.34813e-18)
(1.85199 1.02687 8.9191e-19)
(1.43962 0.81325 0)
(0.650249 0.368306 0)
(2.1528 0.7753 -9.49404e-19)
(2.16889 0.815476 -1.73582e-18)
(2.18219 0.855559 -6.67435e-19)
(2.19823 0.89927 -3.48406e-20)
(2.21412 0.944886 0)
(2.21272 0.982358 1.40817e-19)
(2.15225 0.987199 1.62627e-19)
(1.95322 0.918691 2.02929e-19)
(1.49705 0.713429 -2.91199e-19)
(0.660908 0.310356 -7.29294e-20)
(2.25709 0.700897 1.13442e-18)
(2.28015 0.73654 -4.29937e-20)
(2.29945 0.771878 -1.32765e-18)
(2.31921 0.80947 0)
(2.33578 0.846512 0)
(2.32888 0.874234 0)
(2.25165 0.870022 1.52356e-18)
(2.02039 0.795708 -1.68409e-18)
(1.5214 0.600169 -1.06814e-18)
(0.651354 0.246953 1.50988e-20)
(2.34795 0.613252 -1.47829e-18)
(2.37588 0.644636 -3.10186e-18)
(2.39956 0.675423 -5.37805e-21)
(2.42139 0.707077 6.26518e-19)
(2.4355 0.736446 -3.88365e-20)
(2.41795 0.754129 1.32235e-18)
(2.3177 0.739729 -7.29914e-19)
(2.04913 0.660476 -1.94069e-18)
(1.50761 0.478322 1.11305e-19)
(0.620317 0.182182 8.53981e-20)
(2.42667 0.522316 -1.15503e-18)
(2.4565 0.547962 1.63754e-20)
(2.48173 0.573141 4.35479e-19)
(2.5027 0.597966 -4.20247e-19)
(2.51025 0.618758 6.52045e-19)
(2.4762 0.625946 1.73673e-18)
(2.3452 0.601296 -1.57136e-19)
(2.0332 0.518719 -1.02106e-18)
(1.45145 0.354623 2.32907e-19)
(0.568084 0.120581 4.24773e-20)
(2.4908 0.425961 4.22762e-19)
(2.52087 0.447329 8.44705e-20)
(2.54513 0.467051 -4.35071e-19)
(2.56164 0.484881 -1.01596e-18)
(2.55717 0.496832 7.29808e-20)
(2.49871 0.493688 5.76391e-20)
(2.32795 0.460043 -1.26322e-18)
(1.96685 0.377203 5.35426e-19)
(1.351 0.236398 1.54681e-19)
(0.49698 0.0666238 -6.69174e-20)
(2.54109 0.332557 7.87583e-19)
(2.56846 0.348825 -1.1725e-18)
(2.58862 0.362371 1.76126e-19)
(2.59585 0.372758 2.31569e-18)
(2.57197 0.375734 1.12827e-18)
(2.47924 0.362956 -2.43191e-18)
(2.25906 0.322533 -2.25444e-18)
(1.8455 0.24364 9.56835e-19)
(1.20725 0.131332 -3.55654e-20)
(0.411505 0.0241079 -9.13422e-20)
(0.540832 0.40844 -1.55684e-19)
(0.500396 0.42242 -1.59693e-19)
(0.454934 0.437316 6.80961e-20)
(0.405062 0.453284 -2.23485e-19)
(0.35045 0.470182 -1.68068e-20)
(0.290257 0.486543 2.08288e-19)
(0.223515 0.496342 3.01622e-20)
(0.15068 0.482311 8.58229e-21)
(0.0787756 0.40702 2.26465e-20)
(0.0162271 0.207893 1.23098e-20)
(0.586372 0.514702 1.26414e-19)
(0.546903 0.53528 1.6026e-19)
(0.503253 0.557359 4.83421e-20)
(0.455605 0.581098 -4.51769e-20)
(0.403306 0.606244 -2.0811e-19)
(0.345239 0.630798 -1.94247e-20)
(0.279715 0.646813 4.40287e-20)
(0.205282 0.631544 4.37888e-20)
(0.125135 0.535196 -1.30689e-19)
(0.0401704 0.274494 -4.52797e-20)
(0.649515 0.61343 -9.98461e-20)
(0.611316 0.639755 -8.56238e-20)
(0.570036 0.668062 9.08464e-20)
(0.525401 0.69883 6.02924e-20)
(0.476475 0.731918 -8.14983e-20)
(0.421814 0.764867 -1.31148e-20)
(0.358647 0.787739 -1.12746e-19)
(0.282626 0.772181 -8.96686e-20)
(0.191037 0.65616 -7.28289e-20)
(0.074244 0.336933 5.75703e-23)
(0.729889 0.708465 2.43926e-20)
(0.693532 0.74115 -6.0037e-20)
(0.655547 0.775674 -7.60942e-20)
(0.61469 0.812741 -7.12527e-20)
(0.569603 0.852362 -6.57804e-20)
(0.518657 0.891761 -9.2582e-21)
(0.458029 0.919231 -2.97864e-19)
(0.379888 0.901411 6.71712e-20)
(0.273809 0.765664 -3.33869e-19)
(0.116981 0.392576 4.96377e-20)
(0.823076 0.787184 1.29866e-20)
(0.789282 0.824837 1.74381e-20)
(0.755904 0.864881 -5.09548e-20)
(0.720811 0.908369 -2.81816e-19)
(0.68185 0.955072 1.30357e-19)
(0.636583 1.00153 4.8969e-20)
(0.579557 1.03427 3.57708e-20)
(0.498698 1.01524 -1.94521e-19)
(0.374248 0.861942 4.01758e-19)
(0.168251 0.440664 2.91531e-19)
(0.932588 0.86495 -1.04801e-19)
(0.900357 0.907016 -1.98958e-19)
(0.870174 0.950301 1.02196e-20)
(0.839364 0.9973 1.02761e-19)
(0.805747 1.04837 3.83915e-19)
(0.766368 1.09938 2.85043e-19)
(0.713613 1.13467 6.76351e-19)
(0.630124 1.11182 2.76958e-19)
(0.485505 0.940829 1.48827e-19)
(0.224903 0.47838 2.10554e-19)
(1.04788 0.916376 -1.11083e-19)
(1.02187 0.963266 6.46525e-19)
(0.999604 1.0111 4.22563e-19)
(0.976465 1.06241 -5.45968e-19)
(0.949683 1.1178 -2.72428e-19)
(0.916209 1.17308 7.02905e-19)
(0.866831 1.21117 -1.09315e-19)
(0.778647 1.18574 -4.76621e-19)
(0.609466 1.00028 2.92868e-20)
(0.28668 0.505159 2.63428e-19)
(1.17 0.968977 3.19142e-19)
(1.14394 1.0162 6.06402e-20)
(1.12638 1.06438 -8.01899e-19)
(1.11139 1.11757 1.77224e-19)
(1.09419 1.17546 6.16434e-19)
(1.06962 1.23248 -3.37468e-19)
(1.02553 1.26988 -1.06664e-19)
(0.932886 1.23868 -1.95511e-19)
(0.737567 1.03886 1.97913e-20)
(0.34966 0.519699 -3.0595e-19)
(1.30176 0.986199 1.87268e-20)
(1.2864 1.03719 -5.87758e-19)
(1.27614 1.08624 -4.96295e-21)
(1.26664 1.14045 5.01619e-19)
(1.25521 1.20078 -5.21009e-19)
(1.23661 1.26064 1.01794e-18)
(1.19549 1.29887 6.8296e-19)
(1.09559 1.26384 -1.00624e-18)
(0.870122 1.05389 -7.99167e-20)
(0.412889 0.521614 -3.38867e-19)
(1.40482 0.995375 -3.55609e-19)
(1.40139 1.04742 -3.34195e-19)
(1.40892 1.09831 3.10057e-19)
(1.41454 1.15325 8.21537e-19)
(1.41476 1.21293 2.93776e-19)
(1.40482 1.27113 -8.43186e-19)
(1.36723 1.30603 1.09875e-19)
(1.25892 1.26487 2.28464e-19)
(1.00109 1.04677 -3.07661e-19)
(0.473603 0.511657 -2.40337e-19)
(0.993593 0.0134747 6.97921e-22)
(1.01182 0.0419013 -1.84298e-20)
(1.02318 0.0516332 -1.46331e-20)
(1.02202 0.0772006 0)
(1.02504 0.0948508 1.78603e-20)
(1.02093 0.127126 2.57412e-20)
(0.997848 0.170109 3.47964e-20)
(0.95392 0.20596 7.7266e-20)
(0.868589 0.270642 -1.17366e-19)
(0.717152 0.338705 -1.77869e-19)
(0.994202 0.0115616 3.81723e-20)
(1.00992 0.0396565 -5.96375e-20)
(1.02269 0.0500652 1.97032e-22)
(1.02013 0.0764239 -1.84276e-20)
(1.02538 0.0952922 8.95018e-21)
(1.02221 0.131559 -1.31595e-20)
(1.002 0.179611 -8.09855e-20)
(0.965485 0.225458 0)
(0.883127 0.307998 2.44051e-19)
(0.755737 0.408382 -2.61592e-19)
(0.994486 0.00987772 -2.77495e-20)
(1.00883 0.0376096 1.65187e-20)
(1.02227 0.0483637 3.88223e-20)
(1.02006 0.0760209 9.70534e-21)
(1.02606 0.0952328 -2.16459e-20)
(1.02631 0.136514 1.12486e-21)
(1.00673 0.188154 -5.63033e-20)
(0.981603 0.244817 -5.96443e-21)
(0.900437 0.34364 7.22887e-23)
(0.808434 0.475191 7.29322e-19)
(0.994492 0.00833764 -3.10114e-20)
(1.00841 0.0357575 2.33585e-21)
(1.02204 0.046388 3.17294e-20)
(1.02155 0.0760305 2.06736e-20)
(1.02725 0.0945251 -1.08668e-20)
(1.03289 0.142163 -1.54315e-20)
(1.01223 0.195457 8.16602e-20)
(1.00211 0.264607 -1.75768e-21)
(0.920197 0.376382 -2.6942e-19)
(0.875029 0.537758 9.16215e-20)
(0.994287 0.0068786 2.15692e-20)
(1.00845 0.0340583 -3.08117e-20)
(1.02224 0.0440546 -2.53897e-20)
(1.02423 0.0764453 1.22948e-20)
(1.02931 0.0930996 0)
(1.04136 0.148498 0)
(1.01925 0.201417 6.88563e-20)
(1.02554 0.28484 4.11755e-22)
(0.944924 0.406048 -1.22946e-19)
(0.95142 0.594221 9.29887e-20)
(0.993934 0.00545491 6.07054e-21)
(1.00878 0.0324222 2.48506e-20)
(1.02316 0.0413369 -6.90112e-20)
(1.02767 0.0771731 -2.38199e-20)
(1.03259 0.0909742 -5.89265e-22)
(1.05129 0.155471 6.52759e-20)
(1.02798 0.205821 1.06029e-19)
(1.05245 0.306091 -7.12239e-22)
(0.971214 0.430419 2.04127e-19)
(1.04459 0.650724 -2.19361e-19)
(0.993479 0.00404569 -2.34498e-20)
(1.00926 0.0307169 1.3174e-20)
(1.02504 0.038269 -1.88501e-20)
(1.03148 0.0780253 -5.0918e-20)
(1.03756 0.0882799 1.86061e-21)
(1.0619 0.162846 -1.5886e-21)
(1.03981 0.208918 -5.87752e-21)
(1.07964 0.327553 -2.24128e-19)
(1.00815 0.450507 1.49937e-19)
(1.13148 0.690946 -5.43851e-19)
(0.992936 0.00264467 -3.96438e-21)
(1.00984 0.0287889 -3.81396e-20)
(1.02801 0.0349267 3.81224e-20)
(1.03539 0.0787913 2.71552e-20)
(1.04448 0.0851992 9.66294e-22)
(1.07291 0.170219 -7.57578e-20)
(1.05456 0.21112 -5.89727e-20)
(1.10938 0.349362 3.99904e-19)
(1.04425 0.467512 1.51503e-20)
(1.24963 0.748675 8.52644e-19)
(0.992301 0.00125719 1.614e-20)
(1.01057 0.026494 1.74314e-20)
(1.03206 0.0314172 4.44981e-20)
(1.03937 0.0793437 -2.99525e-20)
(1.05341 0.0818124 -7.87598e-20)
(1.08389 0.177676 1.15611e-21)
(1.07345 0.210547 -8.1149e-20)
(1.13883 0.369104 5.17732e-19)
(1.10093 0.466983 -9.21671e-21)
(1.31943 0.764811 -1.18379e-18)
(0.991582 -4.40445e-05 3.81516e-22)
(1.01152 0.0237416 2.7327e-20)
(1.03699 0.0280741 1.47104e-20)
(1.0437 0.0792587 -6.01832e-20)
(1.06313 0.0802764 -7.69503e-20)
(1.09423 0.185139 -6.3995e-20)
(1.09332 0.217851 -1.48862e-19)
(1.16459 0.391587 -4.65396e-19)
(1.15941 0.494075 -2.51708e-19)
(1.45854 0.833709 -1.24103e-18)
(0.990779 -0.00225425 -1.19102e-21)
(1.01228 0.0195125 -6.04445e-21)
(1.04437 0.021384 -1.66419e-20)
(1.04985 0.0780313 3.34e-20)
(1.07566 0.0703255 5.79988e-20)
(1.11439 0.189058 -4.19648e-20)
(1.11472 0.200997 1.42586e-19)
(1.21057 0.400354 -4.30108e-19)
(1.22251 0.431913 -1.9218e-19)
(1.47371 0.823907 6.53223e-19)
(0.990564 -0.00564898 1.74432e-21)
(1.01291 0.012853 1.212e-20)
(1.05575 0.0105917 -1.12792e-20)
(1.05427 0.0743388 6.15348e-20)
(1.09678 0.0521742 9.89348e-20)
(1.13194 0.185801 1.23583e-19)
(1.15209 0.174038 3.23949e-20)
(1.2385 0.384257 2.03375e-19)
(1.32286 0.379476 3.11521e-19)
(1.49458 0.722124 2.746e-20)
(0.989782 -0.00919062 -1.56055e-21)
(1.01585 0.00397094 -4.03205e-21)
(1.06813 0.000167084 3.79887e-21)
(1.05806 0.067765 4.48361e-21)
(1.12483 0.0337666 3.01204e-34)
(1.14127 0.178631 -7.25945e-21)
(1.19564 0.147275 -5.24254e-34)
(1.25615 0.35589 1.92386e-20)
(1.39583 0.323008 -5.76954e-20)
(1.53378 0.630626 -5.77805e-20)
(0.987398 -0.0136813 1.43626e-20)
(1.02361 -0.00730287 -4.55814e-35)
(1.07728 -0.00978683 -4.32601e-21)
(1.06923 0.0563719 -2.65632e-20)
(1.15057 0.0175476 -4.92871e-20)
(1.15141 0.167981 -4.1241e-20)
(1.23036 0.121198 -6.6514e-34)
(1.27899 0.323045 -7.8331e-20)
(1.4322 0.267243 -1.44606e-19)
(1.57728 0.536513 9.71674e-20)
(0.983245 -0.0198313 0)
(1.03702 -0.0202841 3.69373e-35)
(1.08199 -0.0199983 0)
(1.09359 0.0390251 0)
(1.16744 0.00449184 0)
(1.17071 0.15136 0)
(1.25206 0.0979722 -4.59149e-34)
(1.30866 0.282649 0)
(1.45097 0.217685 -2.05172e-20)
(1.61175 0.438918 5.75692e-20)
(0.977586 -0.0278215 2.81226e-21)
(1.05525 -0.0333592 3.52361e-21)
(1.08563 -0.0307261 -5.41326e-21)
(1.12795 0.0196282 0)
(1.17601 -0.00255597 0)
(1.19637 0.130245 6.30181e-21)
(1.26849 0.0790375 4.19223e-20)
(1.33838 0.236038 -1.37725e-20)
(1.46917 0.173904 -2.99565e-20)
(1.62714 0.348046 2.22336e-19)
(0.97149 -0.042488 -7.96924e-20)
(1.07816 -0.0526641 1.0183e-21)
(1.09092 -0.0483973 -6.03132e-21)
(1.16036 -0.00647933 -1.65655e-20)
(1.16849 -0.0090936 -2.97458e-20)
(1.21384 0.101738 -1.13945e-20)
(1.27405 0.0611122 -3.45506e-20)
(1.35743 0.185628 -3.15663e-20)
(1.47786 0.135181 -5.56114e-20)
(1.62996 0.264861 6.65573e-20)
(0.966839 -0.0497485 -6.02088e-21)
(1.09876 -0.0604901 -1.82917e-20)
(1.08012 -0.0544898 -6.6622e-21)
(1.15283 -0.0204832 -5.17188e-21)
(1.10433 -0.00630313 -4.98123e-35)
(1.19246 0.0718569 6.55838e-21)
(1.22045 0.0452111 -8.78518e-34)
(1.34219 0.134172 -1.3349e-20)
(1.43692 0.0986945 1.85567e-20)
(1.62018 0.184507 2.63806e-20)
(0.961259 -0.0911413 1.9621e-19)
(1.05674 -0.0902103 -4.82525e-21)
(0.967426 -0.0736266 -7.17393e-21)
(0.988443 -0.0334397 1.40968e-20)
(0.889522 -0.00613659 1.63809e-20)
(1.01993 0.0373109 1.4028e-20)
(1.00197 0.029195 1.49403e-20)
(1.18563 0.0796252 -8.94458e-21)
(1.24458 0.0618124 -2.10761e-20)
(1.49157 0.103786 1.44801e-19)
(0.828936 -0.046112 8.4726e-21)
(0.731904 -0.0340572 -9.43274e-35)
(0.535364 -0.0177813 -8.34825e-21)
(0.47563 -0.00238296 0)
(0.410797 0.000801891 0)
(0.495186 0.00940537 6.47437e-21)
(0.494184 0.00545158 -5.64873e-36)
(0.634943 0.0176071 -1.28829e-20)
(0.696238 0.00998081 -2.71121e-20)
(0.883609 0.0178645 5.69972e-20)
(1.68285 0.846584 -1.96964e-19)
(1.78395 0.827787 -2.89699e-19)
(1.90221 0.791369 0)
(2.0106 0.747712 1.60697e-19)
(2.11311 0.685174 6.81961e-19)
(2.20282 0.619943 -1.20339e-19)
(2.28473 0.540383 1.75431e-18)
(2.35808 0.463061 -8.60251e-20)
(2.41883 0.376765 -3.85214e-19)
(2.47489 0.297073 3.40805e-19)
(1.70734 0.694949 1.01789e-19)
(1.78251 0.679212 1.15384e-19)
(1.88206 0.643116 -1.46173e-20)
(1.96616 0.604798 2.24331e-19)
(2.06353 0.546124 -1.83409e-19)
(2.12814 0.496808 -4.2647e-19)
(2.21505 0.426926 -1.29551e-19)
(2.25973 0.375336 5.82829e-19)
(2.3401 0.299727 -2.26435e-20)
(2.36161 0.250851 -4.99564e-19)