/*--------------------------------*- C++ -*----------------------------------*\
  =========                 |
  \\      /  F ield         | OpenFOAM: The Open Source CFD Toolbox
   \\    /   O peration     | Website:  https://openfoam.org
    \\  /    A nd           | Version:  13
     \\/     M anipulation  |
\*---------------------------------------------------------------------------*/
FoamFile
{
    format      ascii;
    class       surfaceScalarField;
    location    "0.19";
    object      phi;
}
// * * * * * * * * * * * * * * * * * * * * * * * * * * * * * * * * * * * * * //

dimensions      [0 3 -1 0 0 0 0];

internalField   nonuniform List<scalar> 
823
(
0.0113783
-0.0505543
0.039176
0.0387589
-0.133437
0.106056
0.0788297
-0.205882
0.165811
0.13016
-0.268878
0.217547
-0.323268
0.259442
0.193986
0.0107038
-0.0612581
0.0361457
-0.158879
0.0726524
-0.242388
0.117977
-0.314202
-0.37561
0.170319
0.00837869
-0.0696368
0.02829
-0.17879
0.0567346
-0.270833
0.0918236
-0.349291
-0.416065
0.132278
0.00530072
-0.0749375
0.018
-0.191489
0.0362375
-0.289071
0.0588954
-0.371949
-0.442433
0.0852631
0.00196255
-0.0769001
0.00663144
-0.196158
0.0132916
-0.295731
0.0215237
-0.380181
0.031063
-0.451972
0.00644164
-0.0107504
0.00430876
0.0217197
-0.0309741
0.0156962
0.0446651
-0.0486518
0.0257065
0.0735703
-0.0641628
0.0352577
-0.0772939
0.106981
0.043883
0.00573607
-0.0164864
0.0213951
-0.0466331
0.0465118
-0.0737685
0.0794536
-0.0971046
-0.116264
0.118424
0.00640818
-0.0228946
0.023675
-0.0639
0.0512265
-0.10132
0.0878597
-0.133738
-0.160244
0.131839
0.00753868
-0.0304333
0.0270863
-0.0834477
0.0572953
-0.131529
0.096962
-0.173405
-0.207976
0.144694
0.00874263
0.0313512
0.0656329
0.109776
0.161242
0.318673
-0.961424
0.749733
0.464513
-0.806693
0.660852
0.535615
-0.33197
0.260869
0.553061
-0.105207
0.0877612
-0.0196651
0.0236245
0.328692
-1.17169
0.464513
-0.942514
0.536095
-0.403552
0.554437
-0.123549
-0.0178071
0.336291
-1.37614
0.45888
-1.0651
0.531017
-0.475689
0.55323
-0.145762
-0.0212991
0.337402
-1.56885
0.449611
-1.17731
0.521327
-0.547406
0.549723
-0.174158
-0.0328627
0.327439
-1.73505
0.431625
-1.2815
0.50352
-0.6193
0.543026
-0.213664
-0.0556103
1.19283
-1.58773
-1.34014
1.00115
-1.08983
0.904099
-0.522245
0.875138
-0.184704
-0.0470437
1.33201
-1.13237
-1.78736
0.99755
-0.755369
0.835423
-0.360118
0.781505
-0.130787
-0.029662
1.19071
-0.607972
-1.71511
0.821022
-0.385687
0.64247
-0.181565
0.581157
-0.0694744
-0.0152489
0.822155
-0.185483
-1.24464
0.54676
-0.110291
0.413776
-0.0485814
0.365047
-0.020746
-0.00447057
0.306388
-0.491871
0.196097
0.147515
0.126769
1.56265
0.0462366
-1.57782
1.52174
0.12617
1.4627
0.191323
1.39632
0.236699
0.250158
1.67595
0.0356523
-1.66537
1.69944
0.102678
1.73099
0.159778
1.76551
0.202178
0.228303
1.388
0.0184785
-1.37082
1.43709
0.0535834
1.51394
0.0829263
1.6103
0.105822
0.123496
0.977703
0.00531533
-0.96454
1.01587
0.0154134
1.07578
0.0230215
1.15381
0.0277873
0.032664
0.392985
-0.38767
0.408399
0.43142
0.459207
0.128848
0.327542
-0.264518
-0.191872
0.0781894
0.273175
-0.222517
0.0385323
0.209787
-0.17013
0.0113405
0.136455
-0.109263
0.0519644
-0.0406239
0.115973
0.378871
-0.167302
0.0714942
0.317654
0.0356093
0.245672
0.010556
0.161508
0.0625204
0.0888674
0.418268
-0.128265
0.0548135
0.351707
0.0272851
0.2732
0.00806293
0.18073
0.0705833
0.0552586
0.443543
-0.0805333
0.0337706
0.373195
0.0166571
0.290314
0.00486435
0.192523
0.0754477
0.017491
-0.0259201
0.0105049
0.00508783
0.00145242
0.0713919
0.0866181
-0.105535
-0.0524751
0.0420799
0.0730809
-0.0437689
0.0193242
0.0563881
-0.0336325
0.00502821
0.0363816
-0.0220855
0.0130855
-0.00805726
0.0761866
0.125164
-0.114732
0.0438902
0.105377
0.0197719
0.0805065
0.00514355
0.0510099
0.018229
0.0851017
0.168038
-0.127976
0.0495694
0.14091
0.022994
0.107082
0.00625824
0.0677456
0.0244872
0.094635
0.21439
-0.140987
0.0561343
0.17941
0.0267108
0.136505
0.00748667
0.0869697
0.0319739
0.107674
-0.157803
0.0645674
0.0309431
0.00864999
0.49554
0.164185
-0.263745
0.521823
0.191187
-0.217471
0.474835
0.314533
-0.267545
0.326879
0.795187
-0.647232
1.0325
-0.811153
0.490501
0.0696641
0.517629
0.164059
0.468003
0.364159
0.327962
0.935228
1.24573
0.487066
-0.0214221
0.509887
0.141237
0.455084
0.418962
0.329391
1.06092
1.44714
0.484421
-0.109863
0.501242
0.124416
0.439813
0.480391
0.327271
1.17346
1.63343
0.48199
-0.195874
0.487456
0.11895
0.41844
0.549408
0.31579
1.27611
1.79141
0.771103
-0.362957
0.860173
0.0298801
0.959351
0.450229
1.168
1.06746
1.61244
1.34697
0.750116
-0.509052
0.841816
-0.0618202
0.978663
0.313383
1.30286
0.743261
1.14095
1.77435
0.625656
-0.530687
0.667705
-0.103869
0.815286
0.165802
1.17536
0.383188
0.611657
1.70465
0.455509
-0.382176
0.421566
-0.0699256
0.542227
0.0451402
0.816309
0.109106
0.186894
1.24107
0.221844
0.151919
0.197059
0.306164
0.493058
1.40227
-0.247163
1.46559
-0.230631
1.52295
-0.185621
1.56317
-0.120749
-0.0405757
1.75315
-0.225961
1.72012
-0.197601
1.69089
-0.156388
1.67101
-0.100868
-0.0349355
1.60186
-0.123168
1.50895
-0.104686
1.43464
-0.0820774
1.38709
-0.0533213
-0.0186692
1.15098
-0.0330756
1.07423
-0.0279355
1.01526
-0.023106
0.97756
-0.0156221
-0.00564917
0.459983
0.432047
0.408941
0.393319
0.00250073
0.0429884
-0.0454892
0.00732608
0.101014
-0.10584
0.0160916
0.148348
-0.157114
0.0165738
0.151866
-0.152348
0.11399
0.0148089
-0.112225
0.00682633
0.0361621
0.0201722
0.0876685
0.0409478
0.127573
0.0482451
0.144568
0.116347
0.045888
0.00880594
0.0273562
0.0270672
0.0694073
0.0521355
0.102504
0.0730876
0.123616
0.114
0.0754346
0.00779398
0.0195622
0.0254935
0.0517078
0.0497215
0.0782765
0.0774249
0.0959129
0.0991523
0.0922725
0.00508632
0.0144759
0.0179354
0.0388587
0.0367335
0.0594784
0.0600352
0.0726113
0.0765824
0.0826052
0.00341205
0.0110638
0.0125569
0.029714
0.0275162
0.0445192
0.0473051
0.0528224
0.0557971
0.0680905
0.0022598
0.00880406
0.00918858
0.0227853
0.0229187
0.0307892
0.0420246
0.0337167
0.0340696
0.0637521
0.00184872
0.00695539
0.010764
0.0138702
0.0271454
0.0144081
0.0479268
0.0129355
0.0105809
0.0714156
0.00398661
0.0029689
0.0177467
0.000110452
0.0369681
-0.00481312
0.0598673
-0.00996361
-0.0152106
0.085659
0.00727791
0.0230847
0.0439781
0.0692723
0.0979447
0.157542
0.0121175
-0.101569
0.246637
-0.1286
0.0395047
0.271544
-0.0463573
0.0214509
0.286433
-0.0187564
0.00386758
-0.0132503
0.00146087
0.219198
-0.143328
0.328973
-0.238376
0.359263
-0.0766463
0.373555
-0.0330486
-0.0219092
0.261902
-0.333814
0.393029
-0.369502
0.439967
-0.123585
0.453847
-0.0469284
-0.025492
0.2914
-0.539555
0.434696
-0.512799
0.500637
-0.189526
0.521142
-0.0674332
-0.0260799
0.308122
0.456175
0.527518
0.547846
0.071501
0.0377763
-0.109277
0.0794135
-0.00791257
0.0851179
-0.00570438
0.0857642
-0.000646191
-0.000309744
0.197759
-0.26155
0.229352
0.245098
0.24832
0.0207235
-0.00432965
-0.0163938
0.0342676
-0.0135441
0.0567363
-0.0224687
0.0855867
-0.0288504
-0.0236906
0.0539036
-0.0434243
0.0862475
0.139214
0.202636
0.048179
-0.0548297
0.0762013
-0.0695506
0.0277271
-0.0518268
0.0722787
0.0123619
-0.044161
0.0595262
0.0033133
-0.030011
0.0390595
-0.0112706
0.0145839
0.0465762
-0.0315992
-0.0698067
0.0258112
-0.0310618
0.0102622
-0.028612
0.00228624
-0.0220351
-0.00898438
0.0568604
-0.00590451
-0.0825551
0.0338384
-0.00804002
0.0148421
-0.00961571
0.00279996
-0.00999299
-0.00618446
0.0691326
0.0219871
-0.0970243
0.0442089
0.0168836
0.0230806
0.0115126
0.00689289
0.0061947
0.000708409
0.0722451
-0.102733
0.0453597
0.0232397
0.00734885
0.0165804
-0.113988
-0.0148172
0.0160909
-0.151858
0.00730472
-0.148328
0.00248844
-0.101023
-0.0430007
0.0482619
-0.116337
-0.0459129
0.040922
-0.144518
0.0201579
-0.127564
0.00681902
-0.0876845
-0.0361817
0.0731249
-0.113933
-0.0755294
0.0521091
-0.123503
0.0270549
-0.102509
0.00880244
-0.069432
-0.0273793
0.0773483
-0.0988803
-0.0924007
0.0496018
-0.0957561
0.0254141
-0.0783217
0.00776807
-0.051786
-0.0196112
0.0600268
-0.0827058
0.0365493
0.0177538
0.00502733
0.346078
0.57695
-0.527048
0.291929
0.209051
-0.154902
0.254335
0.0611178
-0.0235237
0.168701
0.122308
-0.0366749
0.0059192
0.0932314
0.415395
0.557535
0.385862
0.238584
0.342753
0.104227
0.236442
0.22862
0.172555
0.475377
0.478137
0.467457
0.246503
0.412674
0.15901
0.283559
0.357735
0.373558
0.504679
0.369438
0.513655
0.237528
0.454747
0.217918
0.312751
0.49973
0.589285
0.501672
0.521729
0.472102
0.3246
0.158942
0.351109
0.087074
0.0718683
0.0824693
0.00460462
0.0733554
0.00911391
-0.0360011
0.109356
0.334112
0.251078
0.232159
0.204598
0.261828
0.0856429
0.0237136
0.0567685
0.0288744
0.0342785
0.02249
0.020727
0.0135515
0.0043331
0.202835
0.139309
0.0862698
0.0539085
)
;

boundaryField
{
    left
    {
        type            calculated;
        value           nonuniform List<scalar> 
17
(
-0.60402
-0.60402
-0.60402
-0.60402
-0.60402
-0.39598
-0.39598
-0.39598
-0.39598
-0.39598
-0.39598
-0.39598
-0.39598
-0.39598
-0.39598
-0.510051
-0.510051
)
;
    }
    right
    {
        type            calculated;
        value           nonuniform List<scalar> 
17
(
0.0860739
0.249471
0.298222
0.382214
0.457429
0.52173
0.545391
0.549102
0.552579
0.556722
0.561287
0.565774
0.866572
0.764124
0.566744
0.354269
0.122299
)
;
    }
    down
    {
        type            calculated;
        value           uniform 0;
    }
    up
    {
        type            calculated;
        value           uniform 0;
    }
    cylinder
    {
        type            calculated;
        value           uniform 0;
    }
    defaultFaces
    {
        type            empty;
    }
}


// ************************************************************************* //
