/*--------------------------------*- C++ -*----------------------------------*\
  =========                 |
  \\      /  F ield         | OpenFOAM: The Open Source CFD Toolbox
   \\    /   O peration     | Website:  https://openfoam.org
    \\  /    A nd           | Version:  13
     \\/     M anipulation  |
\*---------------------------------------------------------------------------*/
FoamFile
{
    format      ascii;
    class       volScalarField;
    location    "77.3";
    object      p;
}
// * * * * * * * * * * * * * * * * * * * * * * * * * * * * * * * * * * * * * //

dimensions      [0 2 -2 0 0 0 0];

internalField   nonuniform List<scalar> 
440
(
-0.785128
-0.796314
-0.866855
-0.809029
-0.87016
-0.737475
-0.739526
-0.754269
-0.762053
-0.763755
-0.835586
-0.805451
-0.780106
-0.749503
-0.711118
-0.950062
-0.904754
-0.831379
-0.742962
-0.650648
-1.03943
-0.977139
-0.840346
-0.696309
-0.563164
-1.36648
-1.34372
-1.31678
-1.30158
-1.30657
-1.29261
-1.25641
-1.20957
-1.1682
-1.13645
-1.22007
-1.22127
-1.23521
-1.25316
-1.2699
-1.01982
-1.07868
-1.1855
-1.28109
-1.30566
-0.306121
-0.482194
-0.681521
-0.76384
-0.737033
-1.14064
-1.74519
-0.782238
-0.626534
0.0506027
-0.616372
-1.65092
-1.14561
-0.529981
0.0182081
-0.417799
-1.51524
-1.38296
-0.47612
-0.00404401
-0.266242
-1.30161
-1.5126
-0.448569
-0.0182157
-0.188435
-0.94414
-1.52938
-0.434412
-0.0313812
0.171777
-0.545131
-1.42848
-0.402377
-0.0520758
-0.147081
-0.393945
-1.03264
-0.349216
-0.0746013
-0.0550984
-0.134064
-0.647022
-0.30446
-0.0928665
-0.0925109
-0.0778125
-0.473029
-0.287847
-0.0993224
-0.0154906
0.0503188
-0.288803
-0.287692
-0.113001
-0.331812
-0.470013
-0.621268
-0.783762
-0.87618
-0.0948258
-0.223155
-0.29682
-0.334364
-0.341818
0.0579066
-0.0440314
-0.110553
-0.144728
-0.158444
0.155928
0.0606648
-0.0116144
-0.0575894
-0.0871335
0.201333
0.107064
0.0315043
-0.0117907
-0.0316374
0.904829
0.771403
0.602351
0.408835
0.186462
0.520362
0.370735
0.183987
-0.0278058
-0.26833
0.136968
-0.0188614
-0.215508
-0.440088
-0.651
-0.189369
-0.351122
-0.547256
-0.759284
-0.919527
-0.41644
-0.573081
-0.752673
-0.939087
-1.04147
2.08586
2.11903
2.15214
2.17271
2.17543
1.90959
1.93175
1.95029
1.95329
1.93557
1.69118
1.68473
1.65764
1.60886
1.5351
1.43777
1.40641
1.34231
1.24828
1.12526
1.1793
1.091
0.971259
0.826488
0.6488
1.81577
1.80658
1.79844
1.85017
1.9628
1.80663
1.79536
1.78272
1.82709
1.88495
1.79846
1.78062
1.7643
1.79084
1.78908
1.79154
1.76337
1.74313
1.74393
1.63925
1.78572
1.74543
1.71979
1.69197
1.47653
1.78158
1.71523
1.68792
1.60042
1.29808
1.78126
1.68227
1.66593
1.49848
1.2998
1.7884
1.66713
1.64888
1.43939
1.24616
1.78072
1.64483
1.64197
1.39936
1.20728
1.82085
1.63576
1.64228
1.3772
1.19662
0.874904
0.60165
0.280967
0.0176858
-0.179669
0.818909
0.624069
0.402541
0.213902
0.0388908
0.833453
0.674526
0.503833
0.340071
0.185949
0.87462
0.730928
0.578652
0.422174
0.281781
0.89784
0.760119
0.616483
0.463528
0.329855
-1.8474
-1.66435
-1.46547
-1.29866
-1.19839
-1.9136
-1.83138
-1.67022
-1.52752
-1.42969
-1.82371
-1.76899
-1.65658
-1.54304
-1.44668
-1.65405
-1.60302
-1.53821
-1.46619
-1.3938
-1.48429
-1.45596
-1.41661
-1.3791
-1.35661
-1.39137
-1.38129
-1.33518
-1.36336
-1.32481
-1.37115
-1.36075
-1.33006
-1.34649
-1.31653
-1.38503
-1.37028
-1.3483
-1.3311
-1.3203
-1.41523
-1.40572
-1.39472
-1.39011
-1.40806
-1.41261
-1.4034
-1.39429
-1.39696
-1.42265
-1.20376
-0.932384
-0.725422
-0.304569
0.148129
-1.24326
-1.04429
-0.834898
-0.494471
0.159516
-1.20432
-1.23482
-0.939637
-0.662594
0.149516
-1.29061
-1.51218
-0.834869
-0.731416
0.120384
-1.38288
-1.71851
-0.689949
-0.72106
0.085191
-0.61336
-1.01955
-0.780108
-0.187441
0.128268
-1.04766
-0.986668
-0.69861
-0.180507
0.133468
-1.14163
-1.36471
-1.35493
-1.27403
-1.01253
-1.16333
-1.37855
-1.37654
-1.3083
-1.26084
1.67176
1.63855
1.58545
1.51384
1.42012
1.87243
1.88872
1.8873
1.86639
1.82673
2.0464
2.0769
2.09739
2.1039
2.09541
2.14845
2.18771
2.22924
2.26296
2.27776
2.1635
2.20252
2.24611
2.28292
2.30022
-0.693733
-0.818242
-1.01321
-1.24497
-1.53116
-0.0314291
-0.187178
-0.393806
-0.643513
-0.973872
0.574397
0.414156
0.221162
-0.00785107
-0.30441
1.06087
0.934702
0.781721
0.595731
0.365412
1.44723
1.35848
1.24227
1.10198
0.935311
1.87626
1.83509
1.82458
1.82653
1.83337
1.86128
1.83266
1.82425
1.84536
1.90435
1.84853
1.82879
1.82458
1.86557
1.98681
1.83667
1.82353
1.81946
1.87111
2.00161
1.82573
1.81644
1.8105
1.8662
2.00037
1.93109
1.83964
1.81065
1.74596
1.70408
1.88623
1.8312
1.80632
1.76921
1.71079
1.32029
1.07392
0.646646
0.0247257
-0.654715
1.41167
1.11171
0.663588
0.0461627
-0.647362
)
;

boundaryField
{
    left
    {
        type            zeroGradient;
    }
    right
    {
        type            fixedValue;
        value           uniform 0;
    }
    down
    {
        type            zeroGradient;
    }
    up
    {
        type            zeroGradient;
    }
    cylinder
    {
        type            zeroGradient;
    }
    defaultFaces
    {
        type            empty;
    }
}


// ************************************************************************* //
