# Selection   : all
# Cells       : 440
# Volume      : 7.374263e+01
# Time        	maxMag(U)
0             	0.000000e+00
0.05          	2.772936e+00
0.1           	2.841743e+00
0.15          	2.877180e+00
0.2           	2.892811e+00
0.25          	2.916713e+00
0.3           	2.944266e+00
0.35          	2.958337e+00
0.4           	2.960235e+00
0.45          	2.951948e+00
0.5           	2.953580e+00
0.55          	2.948466e+00
0.6           	2.935381e+00
0.65          	2.916097e+00
0.7           	2.892556e+00
0.75          	2.894104e+00
0.8           	2.892143e+00
0.85          	2.883280e+00
0.9           	2.886729e+00
0.95          	2.889795e+00
1             	2.885454e+00
1.05          	2.874602e+00
1.1           	2.858302e+00
1.15          	2.837707e+00
1.2           	2.813553e+00
1.25          	2.786395e+00
1.3           	2.756733e+00
1.35          	2.725109e+00
1.4           	2.691837e+00
1.45          	2.669748e+00
1.5           	2.665490e+00
1.55          	2.661710e+00
1.6           	2.658110e+00
1.65          	2.654401e+00
1.7           	2.650345e+00
1.75          	2.645921e+00
1.8           	2.641124e+00
1.85          	2.635964e+00
1.9           	2.630408e+00
1.95          	2.624476e+00
2             	2.618237e+00
2.05          	2.611819e+00
2.1           	2.605327e+00
2.15          	2.602304e+00
2.2           	2.618927e+00
2.25          	2.635088e+00
2.3           	2.650721e+00
2.35          	2.665853e+00
2.4           	2.680425e+00
2.45          	2.694576e+00
2.5           	2.708335e+00
2.55          	2.721707e+00
2.6           	2.734628e+00
2.65          	2.747016e+00
2.7           	2.758734e+00
2.75          	2.769672e+00
2.8           	2.779755e+00
2.85          	2.788783e+00
2.9           	2.796791e+00
2.95          	2.803833e+00
3             	2.809894e+00
3.05          	2.815041e+00
3.1           	2.819298e+00
3.15          	2.822706e+00
3.2           	2.825290e+00
3.25          	2.827053e+00
3.3           	2.827989e+00
3.35          	2.828081e+00
3.4           	2.827371e+00
3.45          	2.825792e+00
3.5           	2.823303e+00
3.55          	2.819891e+00
3.6           	2.815572e+00
3.65          	2.810383e+00
3.7           	2.804171e+00
3.75          	2.797336e+00
3.8           	2.789837e+00
3.85          	2.781714e+00
3.9           	2.773042e+00
3.95          	2.763848e+00
4             	2.754216e+00
4.05          	2.744265e+00
4.1           	2.734278e+00
4.15          	2.723958e+00
4.2           	2.713408e+00
4.25          	2.702677e+00
4.3           	2.691834e+00
4.35          	2.680972e+00
4.4           	2.670317e+00
4.45          	2.659776e+00
4.5           	2.660443e+00
4.55          	2.668638e+00
4.6           	2.676869e+00
4.65          	2.685151e+00
4.7           	2.693453e+00
4.75          	2.701769e+00
4.8           	2.710064e+00
4.85          	2.718239e+00
4.9           	2.726339e+00
4.95          	2.734367e+00
5             	2.742305e+00
5.05          	2.750098e+00
5.1           	2.757766e+00
5.15          	2.765341e+00
5.2           	2.772700e+00
5.25          	2.779822e+00
5.3           	2.786718e+00
5.35          	2.793394e+00
5.4           	2.799867e+00
5.45          	2.806090e+00
5.5           	2.811905e+00
5.55          	2.817477e+00
5.6           	2.822734e+00
5.65          	2.827597e+00
5.7           	2.832247e+00
5.75          	2.836699e+00
5.8           	2.840629e+00
5.85          	2.844093e+00
5.9           	2.847127e+00
5.95          	2.849753e+00
6             	2.851986e+00
6.05          	2.853781e+00
6.1           	2.855125e+00
6.15          	2.855980e+00
6.2           	2.856296e+00
6.25          	2.856100e+00
6.3           	2.855266e+00
6.35          	2.853807e+00
6.4           	2.852003e+00
6.45          	2.849682e+00
6.5           	2.846869e+00
6.55          	2.843543e+00
6.6           	2.839738e+00
6.65          	2.835347e+00
6.7           	2.830416e+00
6.75          	2.837988e+00
6.8           	2.846202e+00
6.85          	2.852847e+00
6.9           	2.857290e+00
6.95          	2.859934e+00
7             	2.860380e+00
7.05          	2.858608e+00
7.1           	2.854388e+00
7.15          	2.847837e+00
7.2           	2.838416e+00
7.25          	2.827161e+00
7.3           	2.813527e+00
7.35          	2.797353e+00
7.4           	2.787393e+00
7.45          	2.789788e+00
7.5           	2.791402e+00
7.55          	2.792271e+00
7.6           	2.792484e+00
7.65          	2.792104e+00
7.7           	2.791170e+00
7.75          	2.789890e+00
7.8           	2.788388e+00
7.85          	2.786699e+00
7.9           	2.784921e+00
7.95          	2.783036e+00
8             	2.781170e+00
8.05          	2.779412e+00
8.1           	2.777878e+00
8.15          	2.776609e+00
8.2           	2.775705e+00
8.25          	2.775176e+00
8.3           	2.774776e+00
8.35          	2.774618e+00
8.4           	2.774621e+00
8.45          	2.774680e+00
8.5           	2.774677e+00
8.55          	2.774488e+00
8.6           	2.774110e+00
8.65          	2.773454e+00
8.7           	2.772491e+00
8.75          	2.771176e+00
8.8           	2.769486e+00
8.85          	2.767385e+00
8.9           	2.764946e+00
8.95          	2.762072e+00
9             	2.758819e+00
9.05          	2.755166e+00
9.1           	2.758559e+00
9.15          	2.787337e+00
9.2           	2.815156e+00
9.25          	2.841746e+00
9.3           	2.866870e+00
9.35          	2.890310e+00
9.4           	2.912128e+00
9.45          	2.932100e+00
9.5           	2.949921e+00
9.55          	2.964951e+00
9.6           	2.977580e+00
9.65          	2.987940e+00
9.7           	2.996048e+00
9.75          	3.001937e+00
9.8           	3.005363e+00
9.85          	3.005980e+00
9.9           	3.004532e+00
9.95          	3.000975e+00
10            	2.996036e+00
10.05         	2.989737e+00
10.1          	2.981938e+00
10.15         	2.972574e+00
10.2          	2.961864e+00
10.25         	2.950079e+00
10.3          	2.937000e+00
10.35         	2.923148e+00
10.4          	2.908452e+00
10.45         	2.892754e+00
10.5          	2.875963e+00
10.55         	2.858096e+00
10.6          	2.839106e+00
10.65         	2.819239e+00
10.7          	2.797751e+00
10.75         	2.774934e+00
10.8          	2.756923e+00
10.85         	2.761033e+00
10.9          	2.764700e+00
10.95         	2.768602e+00
11            	2.772562e+00
11.05         	2.776282e+00
11.1          	2.779796e+00
11.15         	2.783695e+00
11.2          	2.787589e+00
11.25         	2.790886e+00
11.3          	2.793700e+00
11.35         	2.796098e+00
11.4          	2.798254e+00
11.45         	2.800633e+00
11.5          	2.803442e+00
11.55         	2.804823e+00
11.6          	2.803756e+00
11.65         	2.800633e+00
11.7          	2.797222e+00
11.75         	2.794547e+00
11.8          	2.790982e+00
11.85         	2.786544e+00
11.9          	2.781228e+00
11.95         	2.777708e+00
12            	2.775013e+00
12.05         	2.771906e+00
12.1          	2.768025e+00
12.15         	2.763373e+00
12.2          	2.758001e+00
12.25         	2.751815e+00
12.3          	2.745660e+00
12.35         	2.739191e+00
12.4          	2.732293e+00
12.45         	2.724942e+00
12.5          	2.725463e+00
12.55         	2.732055e+00
12.6          	2.739040e+00
12.65         	2.746368e+00
12.7          	2.753773e+00
12.75         	2.761104e+00
12.8          	2.768429e+00
12.85         	2.775447e+00
12.9          	2.782565e+00
12.95         	2.790032e+00
13            	2.797909e+00
13.05         	2.805959e+00
13.1          	2.814093e+00
13.15         	2.822323e+00
13.2          	2.830498e+00
13.25         	2.838253e+00
13.3          	2.845525e+00
13.35         	2.851959e+00
13.4          	2.857147e+00
13.45         	2.860610e+00
13.5          	2.862020e+00
13.55         	2.861565e+00
13.6          	2.859211e+00
13.65         	2.855055e+00
13.7          	2.864807e+00
13.75         	2.936172e+00
13.8          	2.971207e+00
13.85         	2.968496e+00
13.9          	2.930456e+00
13.95         	2.861399e+00
14            	3.024405e+00
14.05         	3.140188e+00
14.1          	3.192301e+00
14.15         	3.182698e+00
14.2          	3.117165e+00
14.25         	3.019002e+00
14.3          	3.124835e+00
14.35         	3.157950e+00
14.4          	3.122114e+00
14.45         	3.026004e+00
14.5          	2.881834e+00
14.55         	2.850615e+00
14.6          	2.853260e+00
14.65         	2.853884e+00
14.7          	2.852245e+00
14.75         	2.848195e+00
14.8          	2.841766e+00
14.85         	2.833209e+00
14.9          	2.887112e+00
14.95         	2.973210e+00
15            	3.037941e+00
15.05         	3.080460e+00
15.1          	3.102203e+00
15.15         	3.105404e+00
15.2          	3.093086e+00
15.25         	3.068772e+00
15.3          	3.035596e+00
15.35         	2.996687e+00
15.4          	2.954746e+00
15.45         	2.912379e+00
15.5          	2.871647e+00
15.55         	2.833534e+00
15.6          	2.813169e+00
15.65         	2.830286e+00
15.7          	2.847508e+00
15.75         	2.864060e+00
15.8          	2.879418e+00
15.85         	2.893231e+00
15.9          	2.904987e+00
15.95         	2.913411e+00
16            	2.919014e+00
16.05         	2.921309e+00
16.1          	2.920231e+00
16.15         	2.915582e+00
16.2          	2.907443e+00
16.25         	2.896159e+00
16.3          	2.882359e+00
16.35         	2.865548e+00
16.4          	2.845929e+00
16.45         	2.824093e+00
16.5          	2.800522e+00
16.55         	2.775637e+00
16.6          	2.756208e+00
16.65         	2.763666e+00
16.7          	2.770910e+00
16.75         	2.777831e+00
16.8          	2.784425e+00
16.85         	2.790668e+00
16.9          	2.796511e+00
16.95         	2.801859e+00
17            	2.806699e+00
17.05         	2.811141e+00
17.1          	2.814977e+00
17.15         	2.818186e+00
17.2          	2.820770e+00
17.25         	2.822681e+00
17.3          	2.823940e+00
17.35         	2.824590e+00
17.4          	2.824970e+00
17.45         	2.824799e+00
17.5          	2.825038e+00
17.55         	2.828653e+00
17.6          	2.831713e+00
17.65         	2.833613e+00
17.7          	2.835277e+00
17.75         	2.836649e+00
17.8          	2.837318e+00
17.85         	2.837490e+00
17.9          	2.837138e+00
17.95         	2.836183e+00
18            	2.834664e+00
18.05         	2.832637e+00
18.1          	2.830114e+00
18.15         	2.826946e+00
18.2          	2.823099e+00
18.25         	2.818469e+00
18.3          	2.812979e+00
18.35         	2.806812e+00
18.4          	2.799793e+00
18.45         	2.792678e+00
18.5          	2.785055e+00
18.55         	2.776905e+00
18.6          	2.768451e+00
18.65         	2.759528e+00
18.7          	2.750034e+00
18.75         	2.753654e+00
18.8          	2.758821e+00
18.85         	2.763688e+00
18.9          	2.768057e+00
18.95         	2.772422e+00
19            	2.777027e+00
19.05         	2.781908e+00
19.1          	2.787248e+00
19.15         	2.792991e+00
19.2          	2.799260e+00
19.25         	2.805979e+00
19.3          	2.813240e+00
19.35         	2.820764e+00
19.4          	2.828314e+00
19.45         	2.835503e+00
19.5          	2.841994e+00
19.55         	2.847615e+00
19.6          	2.851999e+00
19.65         	2.855031e+00
19.7          	2.856659e+00
19.75         	2.856967e+00
19.8          	2.856221e+00
19.85         	2.854842e+00
19.9          	2.853219e+00
19.95         	2.851720e+00
20            	2.891498e+00
20.05         	2.951938e+00
20.1          	2.961214e+00
20.15         	2.925203e+00
20.2          	2.969916e+00
20.25         	3.037231e+00
20.3          	3.041660e+00
20.35         	2.990569e+00
20.4          	2.896039e+00
20.45         	2.855266e+00
20.5          	2.852865e+00
20.55         	2.848968e+00
20.6          	2.843509e+00
20.65         	2.836392e+00
20.7          	2.827796e+00
20.75         	2.817864e+00
20.8          	2.806821e+00
20.85         	2.794807e+00
20.9          	2.821042e+00
20.95         	2.853371e+00
21            	2.875131e+00
21.05         	2.887759e+00
21.1          	2.892503e+00
21.15         	2.890965e+00
21.2          	2.885510e+00
21.25         	2.877445e+00
21.3          	2.868199e+00
21.35         	2.858574e+00
21.4          	2.849158e+00
21.45         	2.840639e+00
21.5          	2.853692e+00
21.55         	2.867867e+00
21.6          	2.880395e+00
21.65         	2.890579e+00
21.7          	2.898787e+00
21.75         	2.904814e+00
21.8          	2.908422e+00
21.85         	2.910421e+00
21.9          	2.910074e+00
21.95         	2.906852e+00
22            	2.901963e+00
22.05         	2.894969e+00
22.1          	2.885792e+00
22.15         	2.875051e+00
22.2          	2.862312e+00
22.25         	2.847659e+00
22.3          	2.831067e+00
22.35         	2.812775e+00
22.4          	2.793169e+00
22.45         	2.771862e+00
22.5          	2.757883e+00
22.55         	2.765614e+00
22.6          	2.773169e+00
22.65         	2.780501e+00
22.7          	2.787396e+00
22.75         	2.793959e+00
22.8          	2.800350e+00
22.85         	2.806206e+00
22.9          	2.811627e+00
22.95         	2.816436e+00
23            	2.820555e+00
23.05         	2.823830e+00
23.1          	2.826502e+00
23.15         	2.828587e+00
23.2          	2.830038e+00
23.25         	2.830711e+00
23.3          	2.830606e+00
23.35         	2.829851e+00
23.4          	2.828855e+00
23.45         	2.827709e+00
23.5          	2.826146e+00
23.55         	2.824150e+00
23.6          	2.821557e+00
23.65         	2.817950e+00
23.7          	2.813932e+00
23.75         	2.809635e+00
23.8          	2.804687e+00
23.85         	2.799040e+00
23.9          	2.792661e+00
23.95         	2.785564e+00
24            	2.777720e+00
24.05         	2.773588e+00
24.1          	2.770177e+00
24.15         	2.766356e+00
24.2          	2.762074e+00
24.25         	2.757215e+00
24.3          	2.751794e+00
24.35         	2.745869e+00
24.4          	2.739405e+00
24.45         	2.732937e+00
24.5          	2.729356e+00
24.55         	2.737146e+00
24.6          	2.744225e+00
24.65         	2.750671e+00
24.7          	2.756463e+00
24.75         	2.762149e+00
24.8          	2.767838e+00
24.85         	2.773411e+00
24.9          	2.778749e+00
24.95         	2.784088e+00
25            	2.789592e+00
25.05         	2.795382e+00
25.1          	2.801266e+00
25.15         	2.807371e+00
25.2          	2.813620e+00
25.25         	2.819867e+00
25.3          	2.826093e+00
25.35         	2.832318e+00
25.4          	2.838210e+00
25.45         	2.843346e+00
25.5          	2.847762e+00
25.55         	2.851331e+00
25.6          	2.853953e+00
25.65         	2.855580e+00
25.7          	2.856033e+00
25.75         	2.855501e+00
25.8          	2.854294e+00
25.85         	2.852768e+00
25.9          	2.851287e+00
25.95         	2.850142e+00
26            	2.849537e+00
26.05         	2.894517e+00
26.1          	2.910749e+00
26.15         	2.882520e+00
26.2          	2.878651e+00
26.25         	2.977318e+00
26.3          	3.012175e+00
26.35         	2.988901e+00
26.4          	2.915718e+00
26.45         	2.858558e+00
26.5          	2.856737e+00
26.55         	2.853405e+00
26.6          	2.848405e+00
26.65         	2.841715e+00
26.7          	2.833351e+00
26.75         	2.823466e+00
26.8          	2.812337e+00
26.85         	2.819625e+00
26.9          	2.869163e+00
26.95         	2.904401e+00
27            	2.926326e+00
27.05         	2.935043e+00
27.1          	2.933195e+00
27.15         	2.922566e+00
27.2          	2.905607e+00
27.25         	2.884799e+00
27.3          	2.862093e+00
27.35         	2.839179e+00
27.4          	2.817431e+00
27.45         	2.797853e+00
27.5          	2.815942e+00
27.55         	2.835221e+00
27.6          	2.853961e+00
27.65         	2.871874e+00
27.7          	2.888514e+00
27.75         	2.903203e+00
27.8          	2.915842e+00
27.85         	2.926211e+00
27.9          	2.933666e+00
27.95         	2.938536e+00
28            	2.940239e+00
28.05         	2.938972e+00
28.1          	2.934736e+00
28.15         	2.927387e+00
28.2          	2.917070e+00
28.25         	2.904441e+00
28.3          	2.889188e+00
28.35         	2.871461e+00
28.4          	2.851030e+00
28.45         	2.828623e+00
28.5          	2.804505e+00
28.55         	2.779594e+00
28.6          	2.763100e+00
28.65         	2.770406e+00
28.7          	2.777531e+00
28.75         	2.784449e+00
28.8          	2.791024e+00
28.85         	2.797339e+00
28.9          	2.803117e+00
28.95         	2.808479e+00
29            	2.813273e+00
29.05         	2.817418e+00
29.1          	2.820982e+00
29.15         	2.823962e+00
29.2          	2.826332e+00
29.25         	2.827964e+00
29.3          	2.828865e+00
29.35         	2.829147e+00
29.4          	2.829213e+00
29.45         	2.828828e+00
29.5          	2.827988e+00
29.55         	2.826690e+00
29.6          	2.824711e+00
29.65         	2.821496e+00
29.7          	2.821121e+00
29.75         	2.821879e+00
29.8          	2.822094e+00
29.85         	2.821749e+00
29.9          	2.820876e+00
29.95         	2.819443e+00
30            	2.817503e+00
30.05         	2.815139e+00
30.1          	2.812298e+00
30.15         	2.808876e+00
30.2          	2.804797e+00
30.25         	2.800025e+00
30.3          	2.794440e+00
30.35         	2.788255e+00
30.4          	2.781414e+00
30.45         	2.774486e+00
30.5          	2.767142e+00
30.55         	2.759262e+00
30.6          	2.751194e+00
30.65         	2.747676e+00
30.7          	2.752518e+00
30.75         	2.757506e+00
30.8          	2.762279e+00
30.85         	2.766845e+00
30.9          	2.771064e+00
30.95         	2.775410e+00
31            	2.780077e+00
31.05         	2.785104e+00
31.1          	2.790493e+00
31.15         	2.796281e+00
31.2          	2.802516e+00
31.25         	2.809083e+00
31.3          	2.815935e+00
31.35         	2.823003e+00
31.4          	2.829872e+00
31.45         	2.836275e+00
31.5          	2.841986e+00
31.55         	2.846738e+00
31.6          	2.850291e+00
31.65         	2.852614e+00
31.7          	2.853691e+00
31.75         	2.853654e+00
31.8          	2.852786e+00
31.85         	2.851500e+00
31.9          	2.850196e+00
31.95         	2.849092e+00
32            	2.894359e+00
32.05         	2.941348e+00
32.1          	2.939247e+00
32.15         	2.894472e+00
32.2          	2.979475e+00
32.25         	3.034279e+00
32.3          	3.028354e+00
32.35         	2.968704e+00
32.4          	2.868298e+00
32.45         	2.855669e+00
32.5          	2.853158e+00
32.55         	2.849092e+00
32.6          	2.843376e+00
32.65         	2.836024e+00
32.7          	2.827159e+00
32.75         	2.817006e+00
32.8          	2.805756e+00
32.85         	2.796740e+00
32.9          	2.837216e+00
32.95         	2.866760e+00
33            	2.886167e+00
33.05         	2.895685e+00
33.1          	2.897500e+00
33.15         	2.893122e+00
33.2          	2.884553e+00
33.25         	2.873806e+00
33.3          	2.861976e+00
33.35         	2.849891e+00
33.4          	2.838281e+00
33.45         	2.839258e+00
33.5          	2.855027e+00
33.55         	2.869457e+00
33.6          	2.882419e+00
33.65         	2.893710e+00
33.7          	2.902962e+00
33.75         	2.910178e+00
33.8          	2.915178e+00
33.85         	2.918274e+00
33.9          	2.918988e+00
33.95         	2.917323e+00
34            	2.913474e+00
34.05         	2.907288e+00
34.1          	2.898827e+00
34.15         	2.888555e+00
34.2          	2.876061e+00
34.25         	2.861375e+00
34.3          	2.844412e+00
34.35         	2.825651e+00
34.4          	2.805196e+00
34.45         	2.782873e+00
34.5          	2.760213e+00
34.55         	2.766761e+00
34.6          	2.774282e+00
34.65         	2.781510e+00
34.7          	2.788261e+00
34.75         	2.794798e+00
34.8          	2.801098e+00
34.85         	2.806930e+00
34.9          	2.812264e+00
34.95         	2.817020e+00
35            	2.821065e+00
35.05         	2.824181e+00
35.1          	2.826829e+00
35.15         	2.828835e+00
35.2          	2.830186e+00
35.25         	2.830757e+00
35.3          	2.830580e+00
35.35         	2.829839e+00
35.4          	2.828979e+00
35.45         	2.827775e+00
35.5          	2.826112e+00
35.55         	2.823980e+00
35.6          	2.821004e+00
35.65         	2.817247e+00
35.7          	2.813137e+00
35.75         	2.808485e+00
35.8          	2.803181e+00
35.85         	2.797125e+00
35.9          	2.792087e+00
35.95         	2.789780e+00
36            	2.787037e+00
36.05         	2.783944e+00
36.1          	2.780446e+00
36.15         	2.776452e+00
36.2          	2.771894e+00
36.25         	2.766693e+00
36.3          	2.760892e+00
36.35         	2.754476e+00
36.4          	2.747800e+00
36.45         	2.740891e+00
36.5          	2.733918e+00
36.55         	2.741291e+00
36.6          	2.747953e+00
36.65         	2.753879e+00
36.7          	2.759167e+00
36.75         	2.764640e+00
36.8          	2.769973e+00
36.85         	2.775089e+00
36.9          	2.779959e+00
36.95         	2.784944e+00
37            	2.790275e+00
37.05         	2.795773e+00
37.1          	2.801522e+00
37.15         	2.807556e+00
37.2          	2.813798e+00
37.25         	2.819976e+00
37.3          	2.826371e+00
37.35         	2.832686e+00
37.4          	2.838608e+00
37.45         	2.843716e+00
37.5          	2.848067e+00
37.55         	2.851532e+00
37.6          	2.854007e+00
37.65         	2.855351e+00
37.7          	2.855563e+00
37.75         	2.854911e+00
37.8          	2.853725e+00
37.85         	2.852388e+00
37.9          	2.851256e+00
37.95         	2.850548e+00
38            	2.878606e+00
38.05         	2.912974e+00
38.1          	2.900341e+00
38.15         	2.854160e+00
38.2          	2.961819e+00
38.25         	3.013271e+00
38.3          	3.005046e+00
38.35         	2.944255e+00
38.4          	2.860181e+00
38.45         	2.858730e+00
38.5          	2.855926e+00
38.55         	2.851449e+00
38.6          	2.845277e+00
38.65         	2.837410e+00
38.7          	2.827982e+00
38.75         	2.817214e+00
38.8          	2.805390e+00
38.85         	2.838992e+00
38.9          	2.878343e+00
38.95         	2.904631e+00
39            	2.918935e+00
39.05         	2.922377e+00
39.1          	2.916904e+00
39.15         	2.904855e+00
39.2          	2.888614e+00
39.25         	2.869842e+00
39.3          	2.850375e+00
39.35         	2.831505e+00
39.4          	2.814155e+00
39.45         	2.820602e+00
39.5          	2.838768e+00
39.55         	2.856183e+00
39.6          	2.872663e+00
39.65         	2.887901e+00
39.7          	2.901075e+00
39.75         	2.912283e+00
39.8          	2.921102e+00
39.85         	2.927570e+00
39.9          	2.931596e+00
39.95         	2.932665e+00
40            	2.930983e+00
40.05         	2.926541e+00
40.1          	2.919430e+00
40.15         	2.909706e+00
40.2          	2.897574e+00
40.25         	2.882862e+00
40.3          	2.865736e+00
40.35         	2.846386e+00
40.4          	2.824715e+00
40.45         	2.801330e+00
40.5          	2.777225e+00
40.55         	2.762801e+00
40.6          	2.770285e+00
40.65         	2.777446e+00
40.7          	2.784408e+00
40.75         	2.791110e+00
40.8          	2.797528e+00
40.85         	2.803546e+00
40.9          	2.809061e+00
40.95         	2.814027e+00
41            	2.818353e+00
41.05         	2.821913e+00
41.1          	2.824920e+00
41.15         	2.827346e+00
41.2          	2.829097e+00
41.25         	2.830092e+00
41.3          	2.830329e+00
41.35         	2.830232e+00
41.4          	2.829767e+00
41.45         	2.828947e+00
41.5          	2.827651e+00
41.55         	2.825766e+00
41.6          	2.822822e+00
41.65         	2.819145e+00
41.7          	2.815118e+00
41.75         	2.814673e+00
41.8          	2.814356e+00
41.85         	2.813468e+00
41.9          	2.812040e+00
41.95         	2.810097e+00
42            	2.807687e+00
42.05         	2.804880e+00
42.1          	2.801538e+00
42.15         	2.797592e+00
42.2          	2.792944e+00
42.25         	2.787599e+00
42.3          	2.781571e+00
42.35         	2.774849e+00
42.4          	2.767979e+00
42.45         	2.760861e+00
42.5          	2.753274e+00
42.55         	2.745271e+00
42.6          	2.747362e+00
42.65         	2.752512e+00
42.7          	2.757650e+00
42.75         	2.762672e+00
42.8          	2.767483e+00
42.85         	2.771956e+00
42.9          	2.776411e+00
42.95         	2.781083e+00
43            	2.786073e+00
43.05         	2.791415e+00
43.1          	2.797095e+00
43.15         	2.803188e+00
43.2          	2.809612e+00
43.25         	2.816190e+00
43.3          	2.823082e+00
43.35         	2.829845e+00
43.4          	2.836216e+00
43.45         	2.841959e+00
43.5          	2.846747e+00
43.55         	2.850536e+00
43.6          	2.853143e+00
43.65         	2.854508e+00
43.7          	2.854743e+00
43.75         	2.854089e+00
43.8          	2.852901e+00
43.85         	2.851631e+00
43.9          	2.850560e+00
43.95         	2.856901e+00
44            	2.920943e+00
44.05         	2.934744e+00
44.1          	2.902932e+00
44.15         	2.935924e+00
44.2          	3.015027e+00
44.25         	3.031869e+00
44.3          	2.991402e+00
44.35         	2.904400e+00
44.4          	2.858057e+00
44.45         	2.856026e+00
44.5          	2.852444e+00
44.55         	2.847203e+00
44.6          	2.840288e+00
44.65         	2.831777e+00
44.7          	2.821843e+00
44.75         	2.810773e+00
44.8          	2.798649e+00
44.85         	2.834345e+00
44.9          	2.867246e+00
44.95         	2.889610e+00
45            	2.901377e+00
45.05         	2.904100e+00
45.1          	2.900107e+00
45.15         	2.890953e+00
45.2          	2.878674e+00
45.25         	2.865223e+00
45.3          	2.851475e+00
45.35         	2.838155e+00
45.4          	2.828774e+00
45.45         	2.845468e+00
45.5          	2.861047e+00
45.55         	2.875279e+00
45.6          	2.888285e+00
45.65         	2.899208e+00
45.7          	2.908187e+00
45.75         	2.914754e+00
45.8          	2.919376e+00
45.85         	2.921835e+00
45.9          	2.921654e+00
45.95         	2.919154e+00
46            	2.914236e+00
46.05         	2.906883e+00
46.1          	2.897398e+00
46.15         	2.885867e+00
46.2          	2.871996e+00
46.25         	2.855654e+00
46.3          	2.837313e+00
46.35         	2.817184e+00
46.4          	2.795007e+00
46.45         	2.771998e+00
46.5          	2.762699e+00
46.55         	2.770295e+00
46.6          	2.777641e+00
46.65         	2.784665e+00
46.7          	2.791292e+00
46.75         	2.797770e+00
46.8          	2.803905e+00
46.85         	2.809528e+00
46.9          	2.814616e+00
46.95         	2.819076e+00
47            	2.822660e+00
47.05         	2.825617e+00
47.1          	2.827996e+00
47.15         	2.829750e+00
47.2          	2.830763e+00
47.25         	2.830995e+00
47.3          	2.830525e+00
47.35         	2.829899e+00
47.4          	2.828962e+00
47.45         	2.827567e+00
47.5          	2.825712e+00
47.55         	2.823214e+00
47.6          	2.819590e+00
47.65         	2.815586e+00
47.7          	2.811144e+00
47.75         	2.806048e+00
47.8          	2.800187e+00
47.85         	2.798323e+00
47.9          	2.796290e+00
47.95         	2.793804e+00
48            	2.790919e+00
48.05         	2.787635e+00
48.1          	2.783841e+00
48.15         	2.779474e+00
48.2          	2.774439e+00
48.25         	2.768775e+00
48.3          	2.762496e+00
48.35         	2.755707e+00
48.4          	2.748813e+00
48.45         	2.741705e+00
48.5          	2.739003e+00
48.55         	2.745820e+00
48.6          	2.751771e+00
48.65         	2.757023e+00
48.7          	2.762395e+00
48.75         	2.767655e+00
48.8          	2.772674e+00
48.85         	2.777416e+00
48.9          	2.782235e+00
48.95         	2.787311e+00
49            	2.792705e+00
49.05         	2.798324e+00
49.1          	2.804258e+00
49.15         	2.810498e+00
49.2          	2.816776e+00
49.25         	2.823270e+00
49.3          	2.829780e+00
49.35         	2.836037e+00
49.4          	2.841668e+00
49.45         	2.846449e+00
49.5          	2.850371e+00
49.55         	2.853300e+00
49.6          	2.855109e+00
49.65         	2.855720e+00
49.7          	2.855365e+00
49.75         	2.854342e+00
49.8          	2.853039e+00
49.85         	2.851855e+00
49.9          	2.851034e+00
49.95         	2.870906e+00
50            	2.915800e+00
50.05         	2.912390e+00
50.1          	2.866146e+00
50.15         	2.951606e+00
50.2          	3.014003e+00
50.25         	3.015040e+00
50.3          	2.961808e+00
50.35         	2.864873e+00
50.4          	2.859218e+00
50.45         	2.856684e+00
50.5          	2.852504e+00
50.55         	2.846630e+00
50.6          	2.839048e+00
50.65         	2.829897e+00
50.7          	2.819349e+00
50.75         	2.807737e+00
50.8          	2.823400e+00
50.85         	2.865284e+00
50.9          	2.894043e+00
50.95         	2.911491e+00
51            	2.917857e+00
51.05         	2.915109e+00
51.1          	2.905671e+00
51.15         	2.891636e+00
51.2          	2.874784e+00
51.25         	2.856910e+00
51.3          	2.839423e+00
51.35         	2.823204e+00
51.4          	2.822962e+00
51.45         	2.840578e+00
51.5          	2.857322e+00
51.55         	2.873126e+00
51.6          	2.887668e+00
51.65         	2.900141e+00
51.7          	2.910645e+00
51.75         	2.918723e+00
51.8          	2.924652e+00
51.85         	2.928249e+00
51.9          	2.928987e+00
51.95         	2.927070e+00
52            	2.922499e+00
52.05         	2.915361e+00
52.1          	2.905711e+00
52.15         	2.893906e+00
52.2          	2.879367e+00
52.25         	2.862462e+00
52.3          	2.843486e+00
52.35         	2.822175e+00
52.4          	2.799026e+00
52.45         	2.775214e+00
52.5          	2.762575e+00
52.55         	2.770117e+00
52.6          	2.777356e+00
52.65         	2.784279e+00
52.7          	2.791037e+00
52.75         	2.797488e+00
52.8          	2.803593e+00
52.85         	2.809163e+00
52.9          	2.814207e+00
52.95         	2.818597e+00
53            	2.822178e+00
53.05         	2.825203e+00
53.1          	2.827623e+00
53.15         	2.829412e+00
53.2          	2.830451e+00
53.25         	2.830716e+00
53.3          	2.830512e+00
53.35         	2.829989e+00