/*--------------------------------*- C++ -*----------------------------------*\
  =========                 |
  \\      /  F ield         | OpenFOAM: The Open Source CFD Toolbox
   \\    /   O peration     | Website:  https://openfoam.org
    \\  /    A nd           | Version:  13
     \\/     M anipulation  |
\*---------------------------------------------------------------------------*/
FoamFile
{
    format      ascii;
    class       volScalarField;
    location    "0.135";
    object      p;
}
// * * * * * * * * * * * * * * * * * * * * * * * * * * * * * * * * * * * * * //

dimensions      [0 2 -2 0 0 0 0];

internalField   nonuniform List<scalar> 
1800
(
6.49857
8.60157
10.7499
12.1738
13.002
13.4036
13.5213
13.3452
12.0766
7.96865
10.3492
12.8203
15.3199
16.9984
18.0485
18.7029
19.1468
19.372
18.6305
15.9366
16.7391
19.3596
22.0275
23.8858
25.1405
26.0157
26.6588
27.0328
26.55
24.7069
25.7323
28.2983
30.9428
32.8533
34.2143
35.2187
35.9757
36.4214
36.0076
34.3146
36.7906
39.1489
41.598
43.4065
44.7276
45.7203
46.4711
46.9161
46.5607
44.9993
49.469
51.5196
53.6609
55.2648
56.4533
57.3529
58.0324
58.44
58.1554
56.792
63.4206
65.092
66.846
68.1761
69.1762
69.9438
70.5333
70.9081
70.7307
69.6393
78.3512
79.5918
80.9016
81.9095
82.684
83.2963
83.7888
84.1421
84.1071
83.3687
93.9755
94.7546
95.5852
96.2391
96.7607
97.197
97.5785
97.9006
98.0095
97.6735
110.012
110.316
110.647
110.921
111.158
111.378
111.594
111.807
111.966
111.993
0.153179
-0.117032
0.0259228
0.385315
0.831629
1.25446
1.5744
1.80002
1.98822
2.15527
0.494594
-0.116936
-0.388912
-0.260044
0.111456
0.467002
0.745102
1.02487
1.32654
1.59283
1.25744
0.283672
-0.577016
-0.764053
-0.514547
-0.273246
-0.0520778
0.269825
0.657208
1.02245
1.40859
0.338812
-0.714558
-1.04787
-0.942595
-0.847062
-0.711671
-0.408829
0.022326
0.519676
0.932062
0.0651393
-0.722703
-1.02618
-1.06398
-1.10319
-1.05605
-0.811333
-0.346983
0.339943
0.294648
-0.146589
-0.455427
-0.590974
-0.652529
-0.725366
-0.725174
-0.551964
-0.0602416
0.862879
0.0450848
0.122822
0.343979
0.494535
0.567361
0.580442
0.598642
0.732342
1.28064
2.50142
0.596768
1.19926
1.93826
2.44696
2.7721
2.97637
3.10663
3.29547
4.00231
5.6541
2.08852
3.20035
4.45324
5.37534
6.04137
6.52501
6.84934
7.1668
8.13241
10.4064
4.35665
5.99774
7.8142
9.18774
10.2056
10.9569
11.4645
11.8964
12.9342
15.0796
2.88218
3.04626
2.99475
2.78127
2.28618
1.82466
1.41385
1.01605
0.612718
0.205345
2.49836
2.98381
2.85413
2.6666
2.19621
1.75913
1.36923
0.987314
0.596836
0.200322
1.9944
2.9275
2.72239
2.54511
2.10757
1.6973
1.32803
0.961266
0.582595
0.195867
1.36364
2.83852
2.60731
2.42021
2.01923
1.63823
1.2901
0.937893
0.57001
0.191983
0.681226
2.67647
2.50332
2.29597
1.93094
1.58116
1.2553
0.917205
0.559098
0.188674
0.130006
2.42689
2.39451
2.17466
1.8433
1.52572
1.22351
0.899229
0.549879
0.185954
0.00528997
2.11685
2.26408
2.05465
1.75681
1.47207
1.19474
0.884026
0.542382
0.183847
0.75617
1.82779
2.09519
1.92332
1.66788
1.42003
1.16908
0.871678
0.536637
0.182384
3.02874
1.72604
1.85703
1.74658
1.56386
1.3679
1.14681
0.862363
0.532697
0.181626
7.27464
2.12649
1.56337
1.49636
1.42916
1.31202
1.1273
0.855866
0.530477
0.181617
10.643
3.42143
1.71231
1.4033
1.31604
1.24582
1.09729
0.840806
0.522808
0.18065
12.5222
3.48787
1.25648
0.929995
1.06527
1.16254
1.06624
0.822369
0.51211
0.179146
13.6456
3.58908
1.12252
0.722739
0.990998
1.17792
1.08443
0.827875
0.512121
0.178905
14.8849
4.98853
1.77201
1.12672
1.24383
1.30208
1.12273
0.837342
0.51321
0.173502
17.0087
7.67195
3.19859
2.07199
1.76416
1.50046
1.16814
0.84271
0.510877
0.164155
19.9251
10.5293
4.99387
3.22699
2.40144
1.74411
1.2259
0.846097
0.503686
0.153514
22.4741
12.6883
6.65432
4.33946
3.04818
2.01143
1.30046
0.855942
0.49828
0.145703
23.7709
13.9142
7.92131
5.31866
3.65705
2.2878
1.39356
0.877491
0.498798
0.142473
23.7122
14.3022
8.80251
6.18696
4.23819
2.57694
1.51171
0.917478
0.509784
0.144873
23.1592
14.5266
9.56836
7.02906
4.82199
2.89427
1.67073
0.989449
0.540683
0.154458
112.547
98.5919
84.8175
71.8025
59.8528
49.0615
39.467
30.7737
20.7471
5.64677
113.528
100.231
86.7213
73.707
61.657
50.7704
41.2326
32.97
24.3005
12.1879
114.062
100.968
88.0787
75.7449
64.2004
53.6053
44.1753
35.9898
28.2083
19.0757
115.27
103.522
91.5552
79.7158
68.3505
57.7474
48.1085
39.5052
31.7968
24.5318
115.848
104.83
93.9032
83.2053
72.8504
62.9162
53.4416
44.5169
36.6839
30.4925
116.197
105.464
94.9511
84.784
75.0585
65.8244
57.0599
48.8117
41.7603
36.7302
116.427
105.862
95.5453
85.6077
76.1601
67.2757
58.9639
51.2942
44.9382
40.8162
116.527
106
95.7281
85.8512
76.4921
67.7418
59.6345
52.2388
46.121
42.1624
116.477
105.785
95.3536
85.329
75.8447
67.0076
58.8738
51.5017
45.2765
40.8246
116.353
105.401
94.7075
84.4245
74.6939
65.6392
57.3408
49.8436
43.3337
38.14
235.034
230.688
229.131
228.695
228.606
228.859
229.592
230.972
233.122
235.259
226.447
223.441
222.398
222.362
222.59
223.075
224.005
225.61
228.079
230.552
216.912
214.747
213.978
214.104
214.536
215.24
216.364
218.132
220.743
223.338
206.588
204.567
203.866
204.063
204.607
205.436
206.659
208.466
211.033
213.55
195.249
193.345
192.692
192.88
193.412
194.224
195.4
197.093
199.446
201.735
182.868
181.148
180.556
180.698
181.151
181.862
182.897
184.374
186.403
188.366
169.51
168.051
167.558
167.661
168.018
168.59
169.429
170.622
172.249
173.819
155.366
154.251
153.897
153.975
154.231
154.643
155.251
156.113
157.283
158.411
140.746
140.033
139.827
139.877
140.023
140.258
140.609
141.111
141.792
142.449
126.21
125.867
125.728
125.682
125.67
125.693
125.76
125.88
126.058
126.234
247.21
247.427
247.686
247.944
248.249
248.689
249.182
249.473
249.4
248.87
247.404
247.701
248.069
248.391
248.625
248.921
249.268
249.182
248.402
247.427
247.533
247.909
248.317
248.632
248.763
248.878
249.053
248.698
247.467
246.295
247.502
247.997
248.405
248.641
248.632
248.538
248.494
248.062
246.925
245.85
247.06
247.717
248.1
248.211
248.081
247.846
247.647
247.285
246.573
245.84
245.854
246.708
247.056
247.034
246.835
246.589
246.405
246.247
246.059
245.802
243.481
244.593
244.954
244.862
244.677
244.538
244.522
244.671
245.005
245.259
239.57
241.07
241.563
241.521
241.457
241.525
241.776
242.284
243.11
243.855
234.077
236.144
236.871
236.955
237.094
237.45
238.045
238.956
240.266
241.481
228.704
230.581
231.339
231.516
231.829
232.45
233.394
234.746
236.594
238.302
248.123
247.867
247.835
247.549
247.281
246.969
246.585
246.367
246.292
246.42
248.084
247.86
247.826
247.548
247.285
246.984
246.625
246.419
246.199
246.545
248.059
247.853
247.819
247.544
247.285
246.997
246.668
246.448
246.066
246.735
248.043
247.848
247.816
247.539
247.283
247.009
246.707
246.438
245.93
246.997
248.038
247.845
247.814
247.533
247.28
247.019
246.733
246.39
245.837
247.263
248.041
247.843
247.815
247.525
247.276
247.026
246.741
246.32
245.806
247.359
248.053
247.843
247.817
247.516
247.271
247.026
246.728
246.247
245.813
246.99
248.074
247.843
247.82
247.507
247.265
247.023
246.708
246.193
245.778
245.717
248.104
247.845
247.823
247.497
247.258
247.026
246.717
246.195
245.545
242.915
248.142
247.85
247.824
247.487
247.254
247.05
246.79
246.25
244.818
238.179
248.199
247.864
247.817
247.481
247.238
247
246.607
245.74
243.135
234.527
248.313
247.882
247.834
247.492
247.248
247.095
246.872
245.954
242.818
232.506
248.541
247.914
247.861
247.492
247.219
247.131
247.064
246.075
242.652
231.272
249.01
248.006
247.902
247.481
247.107
246.912
246.759
245.589
241.449
230.179
249.911
248.168
247.967
247.396
246.885
246.387
245.816
244.262
239.018
228.377
251.701
248.288
248.054
247.27
246.607
245.705
244.554
242.414
236.243
225.764
255.545
248.516
248.138
247.161
246.3
245.001
243.321
240.627
234.032
223.347
263.833
249.566
248.302
247.055
245.979
244.345
242.258
239.247
232.719
222.052
281.404
252.245
248.833
247.024
245.67
243.741
241.348
238.291
232.254
222.075
307.394
256.272
250.243
247.171
245.414
243.174
240.497
237.49
231.987
222.603
237.275
221.911
211.274
201.948
191.779
180.467
168.066
154.688
140.635
126.495
230.826
218.513
209.362
200.646
190.713
179.476
167.129
153.875
140.145
126.661
224.28
214.91
206.742
198.226
188.516
177.674
165.917
153.41
140.383
127.195
219.238
211.728
203.736
194.883
185.03
174.251
162.742
150.782
138.706
126.86
213.884
207.469
199.45
190.332
180.642
170.49
159.93
149.056
137.995
126.897
208.209
202.894
195.62
187.143
178.141
168.684
158.763
148.437
137.813
127.021
204.355
199.917
193.331
185.438
176.907
167.822
158.2
148.123
137.708
127.093
203.061
198.813
192.474
184.865
176.555
167.619
158.098
148.092
137.73
127.157
204.387
199.682
193.238
185.657
177.327
168.312
158.674
148.525
138.007
127.271
207.06
201.634
194.904
187.197
178.704
169.473
159.59
149.184
138.404
127.407
112.886
113.056
113.141
112.993
112.486
112.125
111.94
112.225
112.217
111.967
90.3041
90.7699
90.9903
90.5575
89.1244
88.0378
87.4174
88.0802
88.116
87.5268
69.455
70.0865
70.3496
69.6832
67.7438
66.0312
65.0115
65.5612
65.8639
65.3047
51.3355
51.9457
52.136
51.3129
49.3347
47.1665
45.835
45.8706
46.6085
46.3696
36.697
37.1051
37.1516
36.27
34.4781
32.1583
30.5108
29.9443
30.7524
30.9336
25.6701
25.7579
25.6198
24.7
23.1203
21.0795
19.2826
18.3387
18.5925
19.0882
17.8441
17.6386
17.3743
16.4026
14.9948
13.4635
11.9639
10.8946
10.5481
10.9114
12.4617
12.1695
12.0019
11.033
9.74909
8.70409
7.79178
6.95172
6.35301
6.25938
8.79625
8.60332
8.73762
7.89746
6.77692
6.14199
5.7843
5.41708
4.93417
4.54087
6.72504
6.50966
6.80078
6.11073
5.26289
4.95694
4.95933
4.9658
4.82524
4.42223
5.81981
5.56265
5.6581
5.02958
4.49966
4.4344
4.5852
4.7374
4.8663
4.92264
5.33578
5.18587
4.9547
4.35365
4.08351
4.18038
4.39626
4.56993
4.69045
4.775
4.93285
4.856
4.45232
3.95354
3.8644
4.0504
4.29162
4.47638
4.59396
4.65172
4.47181
4.39145
3.99826
3.68943
3.7318
3.95892
4.18527
4.3485
4.44811
4.48805
3.91291
3.80084
3.55265
3.47263
3.61698
3.84638
4.04319
4.18515
4.26887
4.29322
3.25044
3.1605
3.13655
3.26418
3.48021
3.69027
3.85863
3.9813
4.05219
4.06827
2.54912
2.58943
2.74987
3.00178
3.24822
3.45461
3.61794
3.74007
3.81255
3.83119
1.93625
2.06108
2.31443
2.60892
2.87485
3.10443
3.29725
3.44576
3.53428
3.56328
1.30022
1.40529
1.66983
2.00355
2.32949
2.62272
2.87301
3.05531
3.15605
3.20047
0.635978
0.545922
0.777758
1.17636
1.59946
1.98743
2.29802
2.50199
2.62188
2.70797
4.25099
4.31846
4.19768
3.84429
3.15652
2.46382
1.83732
1.2742
0.746471
0.259673
4.31607
4.27221
4.15259
3.82421
3.10634
2.40734
1.7957
1.24857
0.733637
0.257567
4.3303
4.14363
4.04396
3.7707
3.05305
2.35328
1.75668
1.225
0.721962
0.253709
4.27654
3.96171
3.8926
3.67373
2.98974
2.30052
1.7202
1.20341
0.711343
0.248043
4.16098
3.76763
3.73057
3.53262
2.90764
2.2456
1.68511
1.18316
0.701443
0.241333
4.00518
3.59913
3.58703
3.37138
2.80512
2.18582
1.65118
1.16477
0.692983
0.235162
3.83258
3.46326
3.46746
3.22217
2.69043
2.11781
1.61253
1.14385
0.682927
0.229372
3.64782
3.34683
3.36124
3.09821
2.57825
2.04354
1.5651
1.11494
0.667804
0.223375
3.43674
3.23613
3.25258
2.99131
2.4752
1.96834
1.51357
1.08138
0.649263
0.217147
3.18531
3.13202
3.13065
2.88844
2.37873
1.89459
1.46209
1.04749
0.63024
0.210952
6.03673
4.57264
3.88053
3.51196
2.99135
2.41016
1.81629
1.26135
0.734712
0.251565
5.2284
4.35263
3.92215
3.57418
3.0365
2.43376
1.82879
1.26775
0.739562
0.253773
4.55456
4.26459
3.98638
3.64218
3.07683
2.45345
1.83944
1.27413
0.743842
0.256069
4.23225
4.26883
4.07302
3.71789
3.1157
2.47031
1.84884
1.28051
0.748198
0.258145
4.21411
4.32356
4.17777
3.80357
3.15546
2.48425
1.85605
1.28602
0.752304
0.260183
112.714
89.6372
68.5754
50.7936
36.7683
26.4371
19.2574
14.3756
11.1905
9.37445
112.494
89.077
67.873
50.0646
35.9724
25.4392
17.9584
12.8438
9.69498
8.19221
112.309
88.5991
67.2387
49.3293
35.0673
24.2722
16.5431
11.313
8.15962
6.69631
112.099
88.0263
66.4003
48.2669
33.7446
22.6795
14.7735
9.53155
6.43539
5.05009
111.844
87.2981
65.271
46.7936
31.9439
20.6115
12.6028
7.55427
5.06059
4.23658
244.554
244.592
244.714
244.884
245.086
245.078
244.572
243.926
244.037
243.795
244.768
244.838
244.95
245.137
245.405
245.575
245.36
244.762
244.538
244.395
244.967
245.013
245.123
245.318
245.604
245.869
245.853
245.384
244.977
244.897
245.211
245.242
245.338
245.51
245.766
246.056
246.172
245.927
245.553
245.464
245.474
245.491
245.572
245.718
245.927
246.186
246.395
246.415
246.262
246.159
245.732
245.744
245.813
245.936
246.106
246.331
246.599
246.844
246.954
246.943
245.963
245.978
246.055
246.191
246.374
246.609
246.904
247.25
247.541
247.661
246.212
246.235
246.324
246.502
246.753
247.059
247.415
247.807
248.147
248.315
246.552
246.602
246.698
246.905
247.242
247.672
248.156
248.636
248.949
248.918
246.923
247.044
247.186
247.399
247.761
248.267
248.823
249.316
249.595
249.394
137.204
136.945
136.921
137.184
136.966
136.568
136.026
135.855
135.927
136.093
161.661
161.062
161.082
161.721
161.068
159.945
158.48
158.025
158.232
158.693
183.912
183.342
183.628
184.151
183.101
181.355
179.386
178.698
178.949
179.575
202.885
202.634
203.352
203.363
202.003
199.804
197.797
196.954
197.133
197.739
218.364
218.533
219.318
218.729
217.057
214.709
212.888
211.986
212.023
212.429
230.255
230.733
230.963
230
228.186
226.12
224.51
223.567
223.422
223.511
238.47
238.805
238.437
237.357
235.853
234.301
232.859
231.86
231.594
231.398
243.14
243.015
242.396
241.56
240.659
239.606
238.285
237.286
237.129
236.856
244.871
244.445
243.951
243.599
243.27
242.646
241.496
240.626
240.78
240.611
245.018
244.589
244.441
244.466
244.511
244.239
243.382
242.664
242.973
242.774
255.866
248.026
248.695
247.4
247.038
246.473
245.869
245.453
245.303
245.33
253.048
247.978
248.517
247.408
247.085
246.527
245.893
245.493
245.39
245.306
251.155
247.993
248.308
247.427
247.132
246.583
245.945
245.595
245.568
245.342
250.031
248.005
248.101
247.455
247.173
246.643
246.032
245.749
245.789
245.449
249.345
247.978
247.987
247.488
247.205
246.711
246.157
245.921
246
245.606
248.889
247.931
247.936
247.516
247.224
246.785
246.295
246.065
246.157
245.779
248.584
247.906
247.91
247.53
247.231
246.851
246.409
246.163
246.256
245.94
248.387
247.894
247.886
247.54
247.245
246.896
246.479
246.221
246.31
246.081
248.26
247.885
247.866
247.546
247.262
246.926
246.52
246.265
246.336
246.208
248.178
247.876
247.849
247.549
247.274
246.95
246.552
246.312
246.334
246.318
318.382
254.85
251.001
247.956
247.2
246.596
246.15
245.771
245.049
243.495
296.651
252.465
249.908
247.749
247.107
246.549
246.094
245.731
245.26
244.302
278.204
250.313
249.34
247.6
247.056
246.513
246.035
245.667
245.34
244.978
266.792
248.979
249.038
247.496
247.026
246.484
245.971
245.581
245.329
245.307
260.017
248.267
248.83
247.413
247.01
246.459
245.899
245.476
245.275
245.339
240.074
238.224
235.006
230.093
222.881
212.516
198.455
180.64
159.554
136.462
241.258
239.722
236.542
231.397
223.883
213.315
199.187
181.345
160.115
136.683
242.772
241.273
238.084
232.82
225.056
214.225
199.925
181.981
160.594
136.869
244.435
243.023
239.887
234.603
226.657
215.552
200.99
182.82
161.166
137.078
245.23
244.386
241.872
236.789
228.735
217.357
202.465
183.95
161.894
137.331
)
;

boundaryField
{
    left
    {
        type            zeroGradient;
    }
    right
    {
        type            fixedValue;
        value           uniform 0;
    }
    down
    {
        type            zeroGradient;
    }
    up
    {
        type            zeroGradient;
    }
    cylinder
    {
        type            zeroGradient;
    }
    defaultFaces
    {
        type            empty;
    }
}


// ************************************************************************* //
