/*--------------------------------*- C++ -*----------------------------------*\
  =========                 |
  \\      /  F ield         | OpenFOAM: The Open Source CFD Toolbox
   \\    /   O peration     | Website:  https://openfoam.org
    \\  /    A nd           | Version:  13
     \\/     M anipulation  |
\*---------------------------------------------------------------------------*/
FoamFile
{
    format      ascii;
    class       surfaceScalarField;
    location    "7.555";
    object      phi;
}
// * * * * * * * * * * * * * * * * * * * * * * * * * * * * * * * * * * * * * //

dimensions      [0 3 -1 0 0 0 0];

internalField   nonuniform List<scalar> 
823
(
0.00539179
0.0123243
-0.0177161
0.0316424
0.00189657
-0.0281472
0.0955428
-0.0422398
-0.0216606
0.192206
-0.107471
0.0108078
-0.136424
0.0045006
0.324129
0.00687891
0.00544537
0.0573924
-0.0486169
0.154574
-0.139421
0.266749
-0.219646
-0.29062
0.420944
0.0241733
-0.0187279
0.113747
-0.138191
0.229132
-0.254806
0.340746
-0.33126
-0.376841
0.426967
0.0471492
-0.0658771
0.147033
-0.238074
0.232637
-0.340411
0.284602
-0.383225
-0.39388
0.301642
0.0605162
-0.126393
0.13249
-0.310047
0.172066
-0.379987
0.186298
-0.397457
0.196419
-0.404001
-0.0243145
0.0191727
0.00514181
-0.0635019
0.0146653
0.0245221
-0.104851
0.00923825
0.0321112
-0.143217
0.0037764
0.0345888
-0.00494714
-0.176915
0.0386461
-0.0174253
0.036598
-0.0492039
0.0464439
-0.0841071
0.0441414
-0.118303
0.0379722
0.0248944
-0.148144
-0.00489182
0.0414898
-0.0195053
0.0610575
-0.0365165
0.0611526
-0.052166
0.0536217
0.0397242
-0.0669959
0.0144906
0.0269992
0.0300355
0.0455126
0.044185
0.0470031
0.060739
0.0370676
0.032807
0.0676563
0.0092831
0.0266485
0.0519911
0.0998664
0.137174
0.0267369
-0.82356
0.619908
0.344528
-0.616421
0.29863
0.13584
1.39868
-1.19
0.17402
0.748177
-0.786357
-0.507663
0.30851
-0.0324488
-0.939256
0.257104
-0.905974
0.209046
1.44674
0.28363
0.673594
-0.697547
-0.107336
-0.898916
0.091183
-1.10449
0.278923
1.259
0.433394
0.519123
-0.859387
-0.0191733
-0.812087
-0.0652087
-1.05846
0.264708
0.929085
0.616845
0.166987
-0.96556
0.215557
-0.89047
-0.0402325
-0.802668
0.242808
0.646044
0.735687
-0.325892
-1.03522
1.17622
-0.878217
-1.18847
0.678607
-0.305053
0.822447
0.502204
1.33517
-0.838615
-0.992249
1.22329
-0.674895
-1.42661
0.996937
-0.0787006
1.27343
0.225713
1.41131
-0.976496
-0.81246
1.14927
-0.432906
-1.39126
1.07565
-0.00507966
1.38839
-0.0870283
1.21336
-0.801461
-0.515969
1.05804
-0.196982
-1.29397
1.08471
-0.0317464
1.2105
-0.212818
0.828922
-0.419884
-0.180029
0.672129
-0.869111
0.640383
0.427564
0.00768033
1.12007
0.161473
-1.08513
1.2031
0.218609
1.30326
0.326813
1.31926
0.404944
0.454915
1.03304
0.100769
-0.972334
1.11134
0.140308
1.20793
0.230216
1.32422
0.288662
0.35252
0.985497
0.050472
-0.935199
1.04092
0.0848866
1.13429
0.136849
1.25223
0.170722
0.213488
0.915323
0.0149687
-0.87982
0.96874
0.0314699
1.05446
0.0511307
1.16189
0.0632954
0.0814064
0.641809
-0.62684
0.673279
0.72441
0.787705
0.143898
0.303204
-0.246793
-0.200309
0.096085
0.308191
-0.260378
0.0540196
0.318703
-0.276638
0.0188527
0.310433
-0.275266
0.201186
-0.182334
0.102959
0.339591
-0.139346
0.0667663
0.344384
0.0343637
0.351106
0.00838884
0.336408
0.209575
0.072623
0.376446
-0.109478
0.0388563
0.378151
0.0101988
0.379764
-0.00556028
0.352167
0.204015
-0.0104423
0.39243
-0.00554177
-0.0272298
0.394938
-0.0354224
0.387956
-0.0276875
0.344432
0.176327
-0.0897693
0.0781978
-0.0922879
-0.0843188
-0.0499342
0.19655
0.106489
-0.249322
-0.0537175
0.143145
0.11085
-0.0574448
0.0887468
0.115634
-0.0612355
0.0359799
0.11564
-0.0628731
0.0824336
-0.0464537
0.193386
0.149892
-0.236789
0.147244
0.156992
0.0955633
0.167315
0.0405349
0.170668
0.122968
0.137937
0.194772
-0.182817
0.0966445
0.198285
0.0575744
0.206385
0.0209927
0.20725
0.143961
0.156107
0.226399
-0.187735
0.116846
0.237546
0.0719809
0.25125
0.0281788
0.251052
0.17214
0.0826284
-0.103022
0.0597962
0.0344077
0.0101938
0.404634
0.0785836
-0.087238
0.422405
0.0233759
-0.0411466
0.411495
0.183424
-0.172515
0.393279
0.215666
-0.19745
0.481088
-0.337131
0.401935
0.0726286
0.417251
0.00805951
0.402583
0.198092
0.381619
0.23663
0.625919
0.396213
0.0723953
0.412495
-0.00822259
0.382415
0.228173
0.36943
0.249615
0.812531
0.393601
0.0747738
0.400245
-0.0148669
0.371728
0.25669
0.343109
0.278234
0.967906
0.387443
0.0833107
0.391255
-0.0186794
0.340718
0.307228
0.317052
0.3019
1.18194
0.627661
0.05967
0.660989
-0.0520077
0.695157
0.27306
0.767616
0.229441
0.944087
1.00546
0.645507
0.0181833
0.662647
-0.0691472
0.721647
0.21406
0.754588
0.1965
0.682416
1.01626
0.653019
-0.0308156
0.654239
-0.0703667
0.704048
0.164251
0.769997
0.130551
0.419053
1.03336
0.637184
-0.0639796
0.619341
-0.0525236
0.707617
0.0759744
0.804799
0.03337
0.178438
1.04541
0.540041
0.487517
0.563492
0.596862
0.7753
1.04021
-0.235052
1.02894
-0.128081
1.03919
-0.119721
1.03454
-0.000893073
0.0276085
0.96727
-0.186064
0.955505
-0.116316
0.935891
-0.100108
0.950699
-0.0157008
0.00597423
0.969492
-0.122196
0.949225
-0.0960492
0.917569
-0.0684516
0.930384
-0.0285155
0.00115915
0.975068
-0.0518499
0.9239
-0.0448814
0.886517
-0.0310689
0.876512
-0.0185102
-0.00214895
0.72345
0.678569
0.6475
0.628989
0.0522406
0.14326
-0.1955
0.0786852
0.324793
-0.351238
0.0796152
0.382164
-0.383094
0.0686697
0.387072
-0.376126
0.355489
0.0561883
-0.343008
0.0754393
0.0678202
0.153595
0.246637
0.191055
0.344705
0.19565
0.382477
0.379975
0.171164
0.0603334
0.00748689
0.182948
0.124023
0.285306
0.242346
0.359274
0.30851
0.369562
0.369686
0.0266676
-0.0191807
0.12906
0.0216307
0.260065
0.111341
0.3893
0.179275
0.2512
0.507662
0.00297711
-0.0221578
0.0483924
-0.0237845
0.150076
0.00965736
0.278487
0.0508642
0.0947134
0.434973
-0.00969027
-0.0124676
-0.00603289
-0.0274419
0.0350155
-0.031391
0.110393
-0.0245137
-0.00314343
0.20825
-0.00331277
-0.00915479
0.000887942
-0.0316426
0.018922
-0.0494251
0.0528739
-0.0584657
-0.0584156
0.108146
0.00710566
-0.0162604
0.0235383
-0.0480753
0.0426062
-0.068493
0.0611334
-0.0769929
-0.0778216
0.0805394
0.00338408
-0.0196445
0.00681346
-0.0515047
0.00429576
-0.0659753
-0.00338602
-0.0693111
-0.0686422
-0.0125654
-0.0145027
-0.0414853
-0.0753494
-0.110072
-0.140068
0.487079
0.392209
-0.671038
0.513536
0.476575
-0.503033
0.382936
0.334179
-0.203579
0.195839
0.287049
-0.0999514
0.0158253
0.0266861
0.47895
0.0214055
0.535617
0.419908
0.362759
0.507037
0.156184
0.493624
0.0363137
0.334533
-0.232588
0.484872
0.269569
0.28224
0.709669
0.112716
0.663148
-0.00775927
0.16975
-0.414903
0.418593
0.020726
0.190969
0.937293
0.0912439
0.762873
-0.129113
0.064937
0.384293
0.131589
0.108105
0.144285
0.524043
-0.668328
-0.0877592
0.232044
-0.066478
-0.0212811
0.0192252
-0.0857032
-0.0617408
0.958179
-1.10517
0.687191
0.46233
0.276676
0.0890604
-0.0159826
-0.0730777
0.144244
-0.055184
0.264953
-0.120709
0.446038
-0.181085
-0.22229
0.200956
-0.160751
0.316936
0.565914
0.892491
0.1423
-0.137073
0.167601
-0.172828
0.10885
-0.142178
0.175628
0.0703912
-0.148891
0.187349
0.0287061
-0.148057
0.189742
-0.102616
0.131322
0.18104
-0.0974368
-0.220676
0.136619
-0.097757
0.0866597
-0.098931
0.0356594
-0.0970566
-0.0669569
0.185505
-0.0478997
-0.235043
0.134847
-0.0470985
0.0834753
-0.0475593
0.033824
-0.0474053
-0.0331329
0.1995
0.00323231
-0.250632
0.147763
0.00463835
0.0943349
0.0058688
0.0397595
0.00717012
0.00662657
0.203703
-0.254189
0.150897
0.0955301
0.0398271
0.0378665
-0.321113
-0.0597606
0.0134504
-0.35171
-0.00897408
-0.36067
-0.0174916
-0.34272
-0.212992
0.123458
-0.289926
-0.154646
0.0793994
-0.307651
0.037574
-0.318845
0.00679917
-0.311945
-0.206193
0.140626
-0.249749
-0.180803
0.0993266
-0.266352
0.0581809
-0.277699
0.020472
-0.274236
-0.185721
0.16311
-0.21483
-0.198029
0.119413
-0.222655
0.0726109
-0.230897
0.0285674
-0.230193
-0.157153
0.156856
-0.204085
0.109829
0.0662817
0.0258307
0.385271
0.110324
-0.0996148
0.388547
0.0852944
-0.0885706
0.356162
0.158071
-0.125685
0.302402
0.0644366
-0.0106771
-0.206024
0.335598
0.393394
0.112909
0.401213
0.0774759
0.394722
0.164562
0.347864
0.111295
-0.0788365
0.400081
0.108808
0.410956
0.0666011
0.40814
0.167378
0.371986
0.147449
0.0581069
0.405926
0.0988611
0.417641
0.0548867
0.416549
0.16847
0.389486
0.174512
0.196961
0.407603
0.421343
0.417298
0.394359
0.415214
0.0948374
0.3327
0.0825136
0.24304
0.0896597
0.244773
-0.00173245
-0.181995
0.426768
0.505274
0.499217
0.463191
0.450781
0.604384
0.341526
0.0852417
0.265912
0.0756138
0.177466
0.0884459
0.10282
0.0746462
0.0297425
0.485541
0.363126
0.270768
0.190769
)
;

boundaryField
{
    left
    {
        type            calculated;
        value           nonuniform List<scalar> 
17
(
-0.60402
-0.60402
-0.60402
-0.60402
-0.60402
-0.39598
-0.39598
-0.39598
-0.39598
-0.39598
-0.39598
-0.39598
-0.39598
-0.39598
-0.39598
-0.510051
-0.510051
)
;
    }
    right
    {
        type            calculated;
        value           nonuniform List<scalar> 
17
(
0.080966
0.241621
0.153328
0.135695
0.156789
0.212598
0.287502
0.373173
0.473514
0.595234
0.723017
0.805342
1.2922
1.23152
0.916864
0.492982
-0.172349
)
;
    }
    down
    {
        type            calculated;
        value           uniform 0;
    }
    up
    {
        type            calculated;
        value           uniform 0;
    }
    cylinder
    {
        type            calculated;
        value           uniform 0;
    }
    defaultFaces
    {
        type            empty;
    }
}


// ************************************************************************* //
