/*--------------------------------*- C++ -*----------------------------------*\
  =========                 |
  \\      /  F ield         | OpenFOAM: The Open Source CFD Toolbox
   \\    /   O peration     | Website:  https://openfoam.org
    \\  /    A nd           | Version:  13
     \\/     M anipulation  |
\*---------------------------------------------------------------------------*/
FoamFile
{
    format      ascii;
    class       surfaceScalarField;
    location    "4.2";
    object      phi;
}
// * * * * * * * * * * * * * * * * * * * * * * * * * * * * * * * * * * * * * //

dimensions      [0 3 -1 0 0 0 0];

internalField   nonuniform List<scalar> 
3485
(
-0.00134867
0.00385796
-0.00250929
-0.003398
0.00785384
-0.00580451
-0.00446338
0.00907951
-0.00801413
-0.00309824
0.00796978
-0.00933493
0.00197227
0.00465355
-0.00972406
0.0118312
-0.000824538
-0.00903436
0.0276141
-0.00864903
-0.00713391
0.0500305
-0.0184382
-0.00397819
0.0791244
-0.0294554
0.000361601
-0.0345305
0.00338741
0.110267
-0.000524066
0.00438203
-0.00053621
0.00786598
0.00142141
0.00712189
0.00678801
0.00260318
0.0168903
-0.00544871
0.0328455
-0.0167798
0.0551458
-0.0309493
0.0839581
-0.0472505
0.119257
-0.0647541
-0.0769887
0.161715
0.000290468
0.00409156
0.00253779
0.00561865
0.00821715
0.00144253
0.0188196
-0.00799923
0.0354657
-0.0220949
0.0586175
-0.0399316
0.0878227
-0.0601545
0.121768
-0.0811957
0.158805
-0.101792
-0.118692
0.200509
0.000865211
0.00322635
0.00528645
0.00119741
0.0150027
-0.00827367
0.0312828
-0.0242793
0.0545605
-0.0453726
0.0840243
-0.0693954
0.117757
-0.0938872
0.153241
-0.11668
0.187763
-0.136314
-0.151855
0.220926
0.00167729
0.00154906
0.00876659
-0.00589189
0.0229655
-0.0224726
0.0448521
-0.0461659
0.0733145
-0.073835
0.105736
-0.101817
0.138859
-0.12701
0.169714
-0.147535
0.196203
-0.162802
-0.173439
0.217787
0.00279788
-0.00124883
0.012988
-0.016082
0.0316011
-0.0410857
0.0575828
-0.0721476
0.0878001
-0.104052
0.118307
-0.132323
0.145771
-0.154475
0.168258
-0.170023
0.185319
-0.179863
-0.18547
0.197349
0.0040991
-0.00534793
0.0173488
-0.0293317
0.0391905
-0.0629274
0.0663661
-0.0993232
0.0942799
-0.131966
0.119105
-0.157148
0.138859
-0.174228
0.153353
-0.184517
0.163474
-0.189984
-0.192534
0.170539
0.00540315
-0.0107511
0.02098
-0.0449085
0.0439076
-0.085855
0.0691085
-0.124524
0.0919646
-0.154822
0.110027
-0.17521
0.122977
-0.187178
0.131727
-0.193268
0.13754
-0.195796
-0.196346
0.141351
0.00647156
-0.0172226
0.0231026
-0.0615396
0.0448135
-0.107566
0.065942
-0.145653
0.083025
-0.171905
0.09517
-0.187355
0.103082
-0.19509
0.107993
-0.198179
0.110985
-0.198788
-0.198112
0.112751
0.00711361
-0.0243362
0.0233457
-0.0777717
0.0421535
-0.126374
0.0584845
-0.161984
0.0702882
-0.183709
0.0777331
-0.1948
0.0819293
-0.199286
0.0840478
-0.200298
0.0849329
-0.199673
0.0850041
-0.198184
-0.00522529
-0.000118232
0.00534352
-0.0159977
0.00372241
0.00704997
-0.0294485
0.00729792
0.00615293
-0.0441158
0.00948538
0.00518195
-0.0593368
0.0105583
0.00466273
-0.0748313
0.0110889
0.00440557
-0.0904527
0.0114658
0.00415559
-0.106078
0.0118793
0.00374553
-0.12159
0.012434
0.00307816
0.0133497
-0.137047
0.00210744
-0.00434515
0.00422692
-0.0134372
0.0128145
-0.0252405
0.0191012
-0.0385696
0.0228145
-0.0527259
0.0247146
-0.0673123
0.0256752
-0.082096
0.0262495
-0.0969077
0.026691
-0.111595
0.0271214
0.0278815
-0.126127
-0.00207822
0.00630514
-0.00700528
0.0177415
-0.0142624
0.0263583
-0.0233065
0.0318585
-0.0335076
0.0349157
-0.0443078
0.0364754
-0.055323
0.0372647
-0.066311
0.037679
-0.0770739
0.0378842
0.0381815
-0.0873739
0.000333412
0.00597173
0.000383094
0.0176918
-0.000868728
0.0276102
-0.00382488
0.0348147
-0.00826847
0.0393593
-0.0136577
0.0418646
-0.0194175
0.0430245
-0.0250929
0.0433543
-0.0303561
0.0431475
0.0426395
-0.0348141
0.00187815
0.00409358
0.00579579
0.0137742
0.0101117
0.0232942
0.0136577
0.0312687
0.0159251
0.0370919
0.0169984
0.0407913
0.0173023
0.0427207
0.0173598
0.0432968
0.0176619
0.0428454
0.0414984
0.018803
0.00216785
0.00192573
0.007536
0.00840605
0.0148199
0.0160103
0.0227797
0.0233089
0.0305061
0.0293655
0.0375445
0.0337529
0.0438417
0.0364235
0.0496028
0.0375357
0.0551607
0.0372875
0.0355794
0.0610797
0.00155642
0.000369319
0.00601669
0.00394578
0.012877
0.00914996
0.0213917
0.0147942
0.0307894
0.0199679
0.0404579
0.0240844
0.0500226
0.0268587
0.059338
0.0282204
0.0684703
0.0281552
0.0261971
0.0778526
0.000512331
-0.000143012
0.0026256
0.00183251
0.00657518
0.00520037
0.0122467
0.00912269
0.0192877
0.0129269
0.0272741
0.0160981
0.0358352
0.0182976
0.0447497
0.0193059
0.0540483
0.0188566
0.0161722
0.0640732
-0.000759686
0.000616674
-0.00157917
0.002652
-0.0015361
0.0051573
-0.000195471
0.00778206
0.002559
0.0101724
0.0066605
0.0119965
0.0119774
0.0129806
0.0184035
0.0128799
0.0259328
0.0113272
0.00751417
0.0345909
-0.00189261
-0.00504513
-0.00790195
-0.00945482
-0.00900647
-0.00604429
-0.000197561
0.00870412
0.020393
0.0312945
-0.212583
0.114839
-0.0393026
-0.199318
0.413861
-0.427126
-0.108201
0.530634
-0.621751
-0.00637159
0.107544
-0.209373
0.0770122
-0.304404
0.22102
0.1356
-0.427043
0.368455
0.172658
-0.453854
0.416795
0.193775
-0.369097
0.34798
0.206377
-0.318146
0.305544
-0.204122
0.197043
-0.203853
0.192565
-0.188681
0.398689
-0.0775858
0.419538
0.0289796
0.00097877
0.105214
-0.380638
0.161385
-0.483214
0.193857
-0.486325
0.210886
-0.386126
0.218987
-0.326247
-0.20801
-0.15576
0.260951
-0.144087
0.387017
-0.0337637
0.309215
0.0663647
-0.0991497
0.13656
-0.450833
0.1878
-0.534453
0.215031
-0.513556
0.227541
-0.398636
0.231158
-0.329865
-0.208907
-0.0820295
0.308167
-0.0748949
0.379882
0.0192124
0.215107
0.107471
-0.187408
0.169128
-0.512491
0.213524
-0.578849
0.235251
-0.535283
0.243248
-0.406633
0.242524
-0.32914
-0.207017
-0.00368289
0.330653
0.0048956
0.371304
0.0755204
0.144482
0.149197
-0.261084
0.201197
-0.564491
0.23762
-0.615273
0.253739
-0.551403
0.257537
-0.41043
0.252828
-0.324431
-0.202579
0.072817
0.318915
0.0781912
0.36593
0.129366
0.0933076
0.188483
-0.320201
0.230744
-0.606752
0.25919
-0.643719
0.269934
-0.562146
0.270023
-0.410519
0.261859
-0.316268
-0.195908
0.127334
0.269434
0.139663
0.3536
0.176104
0.0568671
0.223032
-0.367129
0.256238
-0.639958
0.277466
-0.664947
0.283449
-0.568129
0.280442
-0.407512
0.269428
-0.305254
-0.187419
0.154052
0.179455
0.1839
0.323752
0.213716
0.0270509
0.25164
-0.405052
0.276889
-0.665207
0.292022
-0.68008
0.294127
-0.570235
0.288682
-0.402067
0.27544
-0.292012
-0.17756
0.149958
0.0640886
0.209533
0.264176
0.241787
-0.00520297
0.273837
-0.437102
0.292242
-0.683612
0.302625
-0.690463
0.30196
-0.56957
0.294752
-0.394859
0.279849
-0.27711
-0.166787
0.128072
-0.0326887
0.216906
0.175342
0.26377
-0.0520671
0.289313
-0.462645
0.302314
-0.696613
0.309698
-0.697848
0.307256
-0.567127
0.298811
-0.386414
0.282694
-0.260993
-0.155511
0.364305
-0.0334056
-0.363588
0.482393
0.0572536
0.619822
-0.189496
0.680249
-0.523072
0.667276
-0.68364
0.621251
-0.651823
0.560946
-0.506822
0.505082
-0.33055
0.451316
-0.207226
-0.12064
0.616708
-0.0324939
-0.61762
0.686631
-0.0126697
0.761883
-0.264748
0.755949
-0.517138
0.697955
-0.625646
0.631454
-0.585323
0.563349
-0.438717
0.503055
-0.270256
0.447876
-0.152047
-0.0852443
0.727588
-0.0461586
-0.713923
0.782229
-0.0673107
0.791982
-0.2745
0.745482
-0.470638
0.689801
-0.569965
0.633213
-0.528734
0.567556
-0.37306
0.50415
-0.20685
0.445415
-0.0933119
-0.0482219
0.753745
-0.065775
-0.734128
0.786604
-0.100169
0.775758
-0.263654
0.744562
-0.439442
0.6998
-0.525204
0.633473
-0.462407
0.55554
-0.295127
0.485332
-0.136642
0.426398
-0.034378
-0.0133966
0.747069
-0.0829417
-0.729902
0.766865
-0.119966
0.760056
-0.256845
0.732172
-0.411559
0.674025
-0.467057
0.592157
-0.380539
0.510978
-0.213948
0.446495
-0.072159
0.39675
0.0153669
0.0151442
0.734828
-0.0955725
-0.722197
0.747224
-0.132362
0.740296
-0.249917
0.701541
-0.372804
0.622417
-0.387932
0.524894
-0.283016
0.441787
-0.130841
0.385423
-0.0157954
0.350057
0.0507333
0.0334091
0.718316
-0.100714
-0.713175
0.721942
-0.135988
0.700233
-0.228208
0.626842
-0.299414
0.511787
-0.272877
0.402947
-0.174176
0.33181
-0.0597048
0.296113
0.0199018
0.284602
0.0622443
0.0373332
0.674988
-0.0900674
-0.685634
0.656607
-0.117607
0.593107
-0.164708
0.470207
-0.176513
0.33467
-0.13734
0.23871
-0.0782158
0.196169
-0.0171634
0.189556
0.0265145
0.203501
0.0482993
0.0276993
0.533286
-0.0536184
-0.569735
0.474065
-0.0583859
0.365432
-0.0560744
0.233275
-0.044356
0.131508
-0.0355742
0.0777645
-0.0244719
0.0660361
-0.00543492
0.0804027
0.0121479
0.108265
0.0204369
0.011639
0.200472
-0.25409
0.142086
0.0860116
0.0416555
0.00608134
-0.0183905
-0.0238255
-0.0116776
0.00875929
0.544044
0.0738095
-0.53285
0.55632
0.100476
0.571239
0.126432
0.586841
0.154936
0.601994
0.182196
0.612571
0.20721
0.600723
0.232774
0.562868
0.238364
0.468365
0.256218
0.215044
0.525208
0.0626642
-0.514063
0.539993
0.0856915
0.556112
0.110313
0.578192
0.132857
0.598635
0.161752
0.625415
0.18043
0.642982
0.215207
0.656853
0.224493
0.652469
0.260602
0.249894
0.511627
0.0528204
-0.501784
0.52669
0.070629
0.54223
0.0947731
0.56374
0.111347
0.585722
0.13977
0.612276
0.153877
0.641411
0.186072
0.668733
0.197172
0.700868
0.228466
0.236839
0.50226
0.0430052
-0.492445
0.516153
0.0567354
0.532223
0.0787038
0.551566
0.0920038
0.574981
0.116355
0.599692
0.129166
0.631734
0.15403
0.661914
0.166992
0.700889
0.189492
0.203599
0.494798
0.0327134
-0.484506
0.507519
0.044014
0.524265
0.0619579
0.542615
0.0736539
0.566491
0.0924784
0.59105
0.104607
0.622314
0.122766
0.653811
0.135495
0.691639
0.151664
0.165336
0.487736
0.0223871
-0.47741
0.499997
0.0317534
0.516762
0.0451925
0.535209
0.0552072
0.558763
0.0689236
0.583941
0.0794289
0.614231
0.0924762
0.646426
0.1033
0.683019
0.11507
0.126158
0.477744
0.0125989
-0.467956
0.489853
0.0196448
0.50619
0.0288554
0.524974
0.0364228
0.548143
0.0457543
0.573949
0.0536234
0.603937
0.0624885
0.636788
0.0704485
0.673498
0.0783603
0.0864814
0.453307
0.00412688
-0.444835
0.464565
0.00838642
0.479756
0.0136649
0.497996
0.0181833
0.520269
0.0234808
0.54584
0.0280521
0.575372
0.0329573
0.608361
0.0374595
0.645206
0.0415149
0.0460534
0.381996
-0.00090639
-0.376962
0.389725
0.000657044
0.400868
0.00252164
0.414923
0.00412829
0.432523
0.00588084
0.453199
0.00737664
0.477319
0.00883725
0.504696
0.0100824
0.535197
0.0110139
0.0115151
0.192077
-0.192984
0.192734
0.195256
0.199384
0.205265
0.212642
0.221479
0.231561
0.242575
0.0710164
0.146262
-0.134685
-0.082593
0.0603669
0.148434
-0.137784
0.0505329
0.15103
-0.141196
0.0410014
0.154483
-0.144951
0.0315336
0.158142
-0.148674
0.022229
0.160879
-0.151575
0.0135238
0.159988
-0.151283
0.00624104
0.149569
-0.142286
0.0014647
0.11939
-0.114614
0.0559211
-0.0544564
0.0668106
0.156643
-0.0771918
0.0565846
0.15866
0.0466963
0.160919
0.0371617
0.164017
0.0278949
0.167409
0.0190179
0.169756
0.0109963
0.168009
0.00463233
0.155933
0.000839648
0.123183
0.0567607
0.0589068
0.165768
-0.0680321
0.0495048
0.168062
0.0402264
0.170197
0.0312581
0.172986
0.0226518
0.176015
0.0145889
0.177819
0.00757201
0.175026
0.00243328
0.161072
-3.20331e-05
0.125648
0.0567287
0.0474207
0.173617
-0.0552697
0.0392532
0.176229
0.0310389
0.178411
0.0230289
0.180996
0.0154102
0.183634
0.00850437
0.184725
0.00286718
0.180664
-0.000570774
0.164509
-0.00113952
0.126217
0.0555892
0.0337562
0.180345
-0.0404837
0.0268363
0.183149
0.0198286
0.185419
0.0129793
0.187845
0.00657386
0.190039
0.0010526
0.190246
-0.00270305
0.184419
-0.0038965
0.165703
-0.00239951
0.12472
0.0531897
0.0182162
0.185988
-0.0238596
0.0125145
0.188851
0.00679345
0.19114
0.00128339
0.193355
-0.00363253
0.194955
-0.0073142
0.193928
-0.00895179
0.186057
-0.00769581
0.164447
-0.00371839
0.120742
0.0494713
0.00141974
0.190779
-0.00621066
-0.0031958
0.193466
-0.00767893
0.195623
-0.0117932
0.19747
-0.0150701
0.198232
-0.0167529
0.195611
-0.0158428
0.185147
-0.011641
0.160245
-0.00497451
0.114076
0.0444968
-0.0174582
0.194399
0.0138381
-0.0208301
0.196838
-0.0239343
0.198727
-0.0264663
0.200002
-0.0278135
0.199579
-0.0270348
0.194832
-0.0230819
0.181194
-0.0155385
0.152702
-0.00606476
0.104602
0.038432
-0.0380099
0.196918
0.0354913
-0.040143
0.198971
-0.0417915
0.200376
-0.0425303
0.20074
-0.0415738
0.198623
-0.0378295
0.191088
-0.0303026
0.173667
-0.0190772
0.141476
-0.00685798
0.0923829
0.031574
-0.0606674
0.0594014
-0.0613688
-0.0612909
-0.0598367
-0.0560137
-0.048635
-0.0369518
-0.021849
-0.00723779
0.110391
0.036784
-0.122654
-0.0245208
0.0978398
0.0378029
-0.0252515
0.084989
0.0389108
-0.0260601
0.0718129
0.040091
-0.0269148
0.0582931
0.0413254
-0.0278057
0.044454
0.0424825
-0.0286435
0.0304811
0.0430451
-0.0290722
0.0170216
0.0415468
-0.0280873
0.00573474
0.0348379
-0.0235511
0.0176637
-0.011929
0.108829
0.0489788
-0.121024
0.0964219
0.0502098
0.0837296
0.0516031
0.0707209
0.0530996
0.0573702
0.0546762
0.0436996
0.0561531
0.029904
0.0568408
0.0166445
0.0548062
0.0055749
0.0459076
0.0232386
0.106913
0.061002
-0.118936
0.0946196
0.0625035
0.082066
0.0641568
0.0692259
0.0659397
0.0560774
0.0678247
0.0426396
0.0695909
0.0291054
0.070375
0.0161387
0.0677729
0.00537129
0.056675
0.0286099
0.10446
0.0730018
-0.11646
0.0923353
0.0746281
0.0799465
0.0765455
0.0672705
0.0786158
0.0543038
0.0807914
0.0410992
0.0827955
0.0278819
0.0835924
0.0153295
0.0803253
0.00503178
0.0669727
0.0336417
0.101513
0.0847495
-0.113261
0.0896175
0.0865234
0.0775478
0.0886153
0.0652338
0.0909297
0.0526261
0.0933991
0.0397569
0.0956646
0.0268712
0.0964781
0.0146848
0.0925117
0.00478091
0.0768765
0.0384226
0.0974933
0.0965224
-0.109266
0.0857201
0.0982965
0.0737865
0.100549
0.0617033
0.103013
0.0494614
0.105641
0.0370915
0.108035
0.0248246
0.108745
0.0133659
0.10397
0.00423671
0.0860058
0.0426593
0.0932707
0.107658
-0.104406
0.0821365
0.109431
0.070808
0.111877
0.0591921
0.114629
0.0473013
0.117532
0.035255
0.120081
0.0233747
0.120625
0.0124172
0.114928
0.00385779
0.0945652
0.0465171
0.0858519
0.118593
-0.0967868
0.0751315
0.120151
0.0644526
0.122556
0.0536916
0.12539
0.0427419
0.128481
0.0316439
0.131179
0.0207206
0.131549
0.0107628
0.124886
0.00319975
0.102128
0.0497168
0.0808604
0.127841
-0.0901088
0.0712187
0.129793
0.0610143
0.132761
0.0504693
0.135935
0.0397497
0.139201
0.0290184
0.14191
0.0186455
0.141921
0.0094262
0.134105
0.0026793
0.108875
0.0523961
0.0699226
-0.0767665
0.0619312
0.0534956
0.044479
0.0350057
0.0253412
0.0159801
0.00779894
0.00206025
0.201737
0.00332494
-0.00707252
0.20543
0.0234255
-0.0271179
0.209721
0.0303675
-0.0346587
0.212419
0.0467233
-0.0494217
0.214331
0.0602628
-0.0621747
0.213301
0.0758485
-0.0748186
0.208729
0.0968795
-0.0923077
0.197681
0.124527
-0.113479
0.172937
0.17653
-0.151787
0.237818
-0.187535
0.201422
-0.000107293
0.204557
0.0202904
0.20884
0.0260842
0.210832
0.0447321
0.212837
0.0582574
0.210951
0.0777351
0.206461
0.101369
0.194682
0.136306
0.169995
0.201217
0.28679
0.20107
-0.003187
0.203556
0.0178036
0.207734
0.0219068
0.208909
0.0435566
0.210933
0.0562336
0.208009
0.0806589
0.203639
0.105739
0.190655
0.14929
0.166532
0.22534
0.334385
0.200654
-0.00585162
0.202431
0.0160275
0.206381
0.0179563
0.206671
0.0432664
0.208608
0.0542965
0.204504
0.0847628
0.200299
0.109945
0.185715
0.163874
0.162586
0.24847
0.380511
0.200159
-0.00802089
0.201178
0.0150082
0.204769
0.0143652
0.204138
0.0438981
0.205838
0.0525958
0.200476
0.0901254
0.196365
0.114055
0.179992
0.180248
0.158068
0.270393
0.425319
0.199566
-0.0095975
0.199798
0.0147771
0.202893
0.0112698
0.201327
0.0454642
0.202617
0.0513055
0.195938
0.0968047
0.191843
0.11815
0.173283
0.198808
0.153214
0.290462
0.469267
0.198864
-0.0104715
0.19829
0.0153507
0.200751
0.00880899
0.198266
0.0479487
0.198922
0.0506496
0.190984
0.104743
0.186532
0.122602
0.166124
0.219216
0.147407
0.309179
0.512268
0.198048
-0.0105297
0.196661
0.0167374
0.198352
0.00711784
0.194973
0.0513285
0.194762
0.0508598
0.185606
0.113899
0.180561
0.127647
0.157714
0.242062
0.141334
0.32556
0.556815
0.197129
-0.00966937
0.194913
0.0189538
0.195716
0.00631481
0.191457
0.0555872
0.190098
0.0522188
0.179936
0.124062
0.173878
0.133705
0.150528
0.265413
0.134543
0.341545
0.601249
0.196158
-0.00783768
0.193004
0.022108
0.192926
0.00639251
0.187625
0.060888
0.184885
0.0549586
0.173318
0.135629
0.165261
0.141762
0.140022
0.290652
0.127893
0.353674
0.652375
0.305503
-0.0113308
0.307221
0.0203906
0.316583
-0.00296981
0.318736
0.0587354
0.329988
0.0437059
0.329692
0.135926
0.348231
0.123223
0.352221
0.286661
0.402398
0.303497
0.583417
0.471355
0.305668
-0.0149881
0.308551
0.0175073
0.318835
-0.013254
0.322736
0.054834
0.33501
0.0314324
0.338593
0.132342
0.358497
0.103319
0.372064
0.273094
0.418198
0.257363
0.517623
0.483993
0.305595
-0.0185732
0.310879
0.0122241
0.320866
-0.0232413
0.327635
0.0480651
0.339464
0.0196035
0.34795
0.123856
0.36742
0.0838494
0.387586
0.252928
0.42826
0.216689
0.447283
0.498601
0.305691
-0.0222539
0.314442
0.00347263
0.322972
-0.0317713
0.333406
0.0376316
0.343041
0.00996802
0.35658
0.110317
0.374048
0.0663814
0.399275
0.227701
0.437799
0.178165
0.374994
0.510087
0.306581
-0.0268245
0.318965
-0.00891125
0.326133
-0.0389396
0.33952
0.0242448
0.347939
0.00154885
0.366244
0.0920128
0.38101
0.051615
0.411337
0.197373
0.443922
0.145581
0.304901
0.514015
0.308515
-0.033329
0.32416
-0.0245565
0.330222
-0.0450016
0.345925
0.00854161
0.353875
-0.00640121
0.374812
0.0710754
0.386848
0.0395799
0.420567
0.163653
0.449211
0.116937
0.238604
0.515509
0.311825
-0.0431436
0.329097
-0.0418286
0.334406
-0.0503107
0.350892
-0.00794417
0.356613
-0.012122
0.378529
0.0491595
0.387781
0.0303279
0.42518
0.126254
0.45217
0.0899468
0.175813
0.51496
0.3152
-0.0563332
0.329411
-0.0560398
0.330996
-0.0518959
0.342714
-0.0196618
0.343231
-0.0126389
0.363371
0.0290195
0.37121
0.0224889
0.41325
0.0842136
0.442289
0.0609079
0.112501
0.505601
0.308203
-0.0625262
0.30372
-0.0515565
0.290328
-0.0385041
0.286541
-0.0158746
0.280367
-0.00646513
0.296454
0.0129326
0.307193
0.01175
0.353904
0.0375022
0.387345
0.0274672
0.0470553
0.452791
0.239484
0.187928
0.149423
0.133549
0.127084
0.140016
0.151766
0.189268
0.216736
0.263791
0.484185
-0.0954225
0.488606
-0.0816132
0.491887
-0.0713126
0.49506
-0.0584426
0.499374
-0.0447982
0.504028
-0.028514
0.509689
-0.0118715
0.516009
0.00751852
0.52407
0.0274298
0.0506222
0.484738
-0.0961671
0.485181
-0.0820569
0.485058
-0.0711896
0.485144
-0.058528
0.486413
-0.0460677
0.488605
-0.0307057
0.492539
-0.0158052
0.497943
0.00211418
0.504971
0.0204019
0.04153
0.492071
-0.0896373
0.488367
-0.0783535
0.484968
-0.0677901
0.48251
-0.05607
0.480979
-0.0445371
0.481564
-0.0312906
0.48315
-0.0173907
0.487305
-0.00204128
0.492623
0.0150841
0.0323695
0.499227
-0.0787775
0.491073
-0.0701989
0.484673
-0.0613906
0.480348
-0.0517452
0.476946
-0.0411346
0.476027
-0.0303716
0.476169
-0.0175325
0.47947
-0.00534247
0.484041
0.0105128
0.0239661
0.502065
-0.066827
0.492073
-0.0602074
0.483771
-0.0530883
0.477653
-0.0456273
0.47312
-0.0366017
0.470861
-0.0281123
0.470457
-0.0171288
0.472661
-0.00754648
0.477211
0.00596336
0.0166705
0.502601
-0.0539193
0.491366
-0.048972
0.481923
-0.0436451
0.474482
-0.0381864
0.469185
-0.0313051
0.465937
-0.0248641
0.465156
-0.0163477
0.466483
-0.00887374
0.470873
0.00157309
0.0101343
0.501058
-0.0400165
0.488732
-0.0366461
0.478257
-0.0331705
0.469714
-0.0296427
0.463498
-0.0250899
0.459292
-0.0206577
0.457727
-0.0147833
0.45826
-0.00940677
0.461972
-0.00213798
0.00415003
0.490057
-0.0244725
0.476274
-0.0228633
0.46443
-0.0213267
0.454517
-0.0197291
0.446904
-0.0174769
0.441323
-0.0150773
0.438356
-0.0118161
0.437577
-0.00862807
0.439929
-0.00448984
-0.000756003
0.437044
-0.0087256
0.423041
-0.00885998
0.410672
-0.00895805
0.399844
-0.00890075
0.390825
-0.0084581
0.383535
-0.00778755
0.378448
-0.0067287
0.375413
-0.00559309
0.375037
-0.00411384
-0.00268177
0.255065
0.246205
0.237247
0.228347
0.219888
0.212101
0.205372
0.199779
0.195665
0.007577
0.0466584
-0.0542354
0.0176955
0.120748
-0.130867
0.0243156
0.169222
-0.175842
0.0265766
0.194664
-0.196925
0.0256319
0.205042
-0.204097
0.0228286
0.207237
-0.204434
0.0191209
0.205131
-0.201423
0.0151334
0.199806
-0.195819
0.0114535
0.18998
-0.1863
0.172062
0.00869652
-0.169305
0.00905291
0.0376055
0.0236701
0.106131
0.0357541
0.157138
0.0429595
0.187459
0.0459858
0.202016
0.0462951
0.206928
0.0450614
0.206364
0.0429471
0.20192
0.0401537
0.192773
0.175784
0.0364319
0.00963885
0.0279666
0.0280847
0.0876852
0.0459648
0.139258
0.0589873
0.174436
0.0668638
0.194139
0.0708906
0.202901
0.0724056
0.204849
0.0721489
0.202177
0.0701277
0.194794
0.18056
0.0653517
0.00920971
0.0187569
0.029921
0.066974
0.0532007
0.115978
0.0727507
0.154886
0.0865724
0.180318
0.0953061
0.194167
0.100323
0.199832
0.102616
0.199884
0.102201
0.195209
0.184663
0.0980974
0.00790156
0.0108553
0.0285569
0.0463187
0.0555463
0.0889883
0.081651
0.128782
0.102648
0.15932
0.117604
0.179211
0.127413
0.190024
0.133238
0.194059
0.13561
0.192838
0.187147
0.133126
0.00606199
0.00479334
0.024252
0.0281287
0.0517354
0.0615049
0.0825345
0.0979823
0.110984
0.130871
0.133867
0.156328
0.150438
0.173453
0.161374
0.183124
0.16748
0.186731
0.185743
0.168884
0.00413552
0.000657817
0.0182964
0.0139678
0.042638
0.0371633
0.0740629
0.0665575
0.107595
0.0973391
0.138689
0.125234
0.164487
0.147654
0.183971
0.163639
0.197434
0.173269
0.178845
0.204332
0.00247032
-0.0018125
0.0122418
0.00419638
0.0310228
0.0183822
0.0584485
0.0391317
0.0918486
0.063939
0.127334
0.089749
0.161191
0.113797
0.190458
0.134373
0.213962
0.149765
0.161015
0.231792
0.00121133
-0.00302383
0.00716621
-0.0017585
0.0199039
0.00564455
0.0405551
0.0184805
0.068719
0.0357751
0.102459
0.0560087
0.138955
0.0773009
0.175348
0.0979796
0.208086
0.117028
0.128984
0.240116
0.000359936
-0.00338377
0.00343695
-0.00483551
0.011038
-0.00195648
0.0246325
0.00488599
0.0450304
0.0153772
0.0720412
0.028998
0.104429
0.0449127
0.140433
0.0619762
0.177501
0.0799591
0.0947779
0.211708
-0.00013545
-0.00324832
0.00111559
-0.00608655
0.00510873
-0.00594961
0.0130776
-0.00308285
0.0260696
0.00238516
0.0447409
0.0103267
0.0691822
0.0204714
0.0987715
0.0323868
0.132975
0.0457556
0.0633727
0.16438
-0.000259712
-0.00298861
0.000230156
-0.00657642
0.00230717
-0.00802663
0.00669046
-0.00746614
0.0140941
-0.00501853
0.0251524
-0.000731493
0.040378
0.00524578
0.0597941
0.0129707
0.0829444
0.0226053
0.0366412
0.109676
9.82984e-05
-0.00308691
0.00102383
-0.00750195
0.00301624
-0.010019
0.00618982
-0.0106397
0.0107327
-0.00956136
0.0169778
-0.00697662
0.0252142
-0.00299066
0.0357348
0.00245012
0.0487238
0.00961634
0.0191047
0.0662604
0.00102839
-0.00411529
0.00366925
-0.0101428
0.00744887
-0.0137987
0.0120178
-0.0152087
0.0172312
-0.0147747
0.0231436
-0.012889
0.0299784
-0.00982554
0.0381447
-0.00571612
0.0483564
-0.000595348
0.00583701
0.061624
0.00209227
-0.00620756
0.00653035
-0.0145809
0.0121633
-0.0194316
0.0184135
-0.0214589
0.025114
-0.0214752
0.0323436
-0.0201186
0.0403254
-0.0178074
0.0493892
-0.0147798
0.0599294
-0.0111356
-0.00676855
0.0725349
0.00268128
-0.00888884
0.00757277
-0.0194724
0.013133
-0.0249918
0.0188644
-0.0271903
0.024802
-0.0274128
0.0311804
-0.0264971
0.038266
-0.024893
0.0462969
-0.0228107
0.0554792
-0.0203179
-0.0174458
0.0661564
0.0022261
-0.0111149
0.00533798
-0.0225843
0.00808067
-0.0277345
0.0103931
-0.0295027
0.0126321
-0.0296518
0.0151723
-0.0290372
0.018277
-0.0279977
0.0220995
-0.0266332
0.0267241
-0.0249424
-0.0229787
0.032257
0.000545912
-0.0116609
-0.000151457
-0.0218869
-0.00228379
-0.0256022
-0.00520284
-0.0265836
-0.00827227
-0.0265824
-0.0110864
-0.0262231
-0.0134608
-0.0256233
-0.0153633
-0.0247307
-0.0168482
-0.0234575
-0.0219144
-0.0179126
-0.00202208
-0.00963877
-0.00752398
-0.016385
-0.0151382
-0.017988
-0.0236765
-0.0180453
-0.0323967
-0.0178621
-0.0409479
-0.0176719
-0.0491952
-0.017376
-0.0570888
-0.0168372
-0.0645822
-0.0159641
-0.014883
-0.0716135
-0.00429525
-0.0136303
-0.0254654
-0.0383287
-0.0515282
-0.0647945
-0.0780149
-0.0911065
-0.103992
-0.116768
0.220412
0.161619
-0.21765
0.204137
0.56301
-0.546734
0.149447
0.616409
-0.561719
0.129396
0.28644
-0.266388
0.141329
-0.0602505
0.0483169
0.151725
-0.191631
0.181236
0.160832
-0.176294
0.167187
0.173189
-0.125533
0.113176
0.186693
-0.0878225
0.0743177
-0.0489252
0.0380998
0.179563
0.0917314
0.201994
0.540579
0.163859
0.654544
0.154053
0.296246
0.155246
-0.061443
0.149322
-0.185708
0.152489
-0.179461
0.165216
-0.13826
0.181932
-0.104539
-0.0618659
0.148537
0.00945494
0.189259
0.499856
0.168324
0.675479
0.162041
0.302529
0.146831
-0.0462326
0.129261
-0.168138
0.133028
-0.183228
0.14983
-0.155061
0.171903
-0.126612
-0.07811
0.132917
-0.0618379
0.16476
0.468013
0.158366
0.681873
0.148552
0.312342
0.118598
-0.0162783
0.100802
-0.150342
0.112792
-0.195217
0.135764
-0.178034
0.162931
-0.153778
-0.0972616
0.114184
-0.103487
0.127977
0.45422
0.130553
0.679297
0.112954
0.329941
0.079941
0.0167349
0.0769606
-0.147362
0.101226
-0.219482
0.129129
-0.205938
0.158959
-0.183608
-0.117718
0.0770889
-0.114419
0.08104
0.450269
0.0833833
0.676953
0.0606652
0.352659
0.0457322
0.0316679
0.066139
-0.167769
0.100209
-0.253553
0.130382
-0.236111
0.160244
-0.213469
-0.13783
0.0210179
-0.10318
0.0269491
0.444338
0.0205049
0.683398
0.00525457
0.36791
0.0280482
0.00887423
0.0673253
-0.207046
0.106634
-0.292862
0.137082
-0.266558
0.165242
-0.241629
-0.156497
-0.0471233
-0.0739693
-0.0414778
0.438692
-0.0490473
0.690967
-0.032366
0.351228
0.0274528
-0.0509446
0.0764099
-0.256003
0.11805
-0.334502
0.147487
-0.295995
0.172786
-0.266928
-0.172974
-0.120268
-0.0253145
-0.116244
0.434668
-0.10119
0.675914
-0.0454559
0.295494
0.0371946
-0.133595
0.0916303
-0.310439
0.133576
-0.376447
0.160981
-0.3234
0.182477
-0.288424
-0.18663
-0.181385
-0.173844
-0.119682
-0.0335608
0.053864
0.11188
0.152229
0.176809
0.193928
0.0386414
0.0394789
-0.0781203
-0.00347385
0.0421153
-0.0335514
0.0300775
-0.0525598
0.0190084
-0.0510198
-0.00154005
-0.0238426
-0.0271772
0.00393142
-0.027774
0.0220965
-0.0181651
0.0325031
-0.0104066
-0.00445772
0.18212
0.128326
-0.270967
0.0600803
0.164155
-0.0297826
0.11994
-0.06513
0.0543559
-0.0492398
-0.0174303
-0.001942
-0.074475
0.0425427
-0.0722587
0.0719492
-0.0475715
0.0903062
-0.0287637
-0.0129733
0.333035
0.209118
-0.413827
0.171194
0.325996
0.0302754
0.260859
-0.022834
0.107465
0.00114649
-0.0414108
0.0480238
-0.121352
0.0896783
-0.113913
0.117518
-0.0754111
0.136143
-0.0473886
-0.0224736
0.425809
0.242943
-0.459633
0.278734
0.473071
0.116885
0.422708
0.0468691
0.177481
0.0627239
-0.0572655
0.101481
-0.16011
0.133547
-0.145979
0.154997
-0.0968616
0.169863
-0.0622549
-0.0307972
0.429826
-0.404533
0.356162
0.21715
0.128243
0.119294
0.140421
0.161629
0.177943
0.190006
0.0119422
-0.000114272
-0.0118279
0.0136213
-0.0016791
0.0167168
-0.00309554
0.0211958
-0.00447892
0.0276859
-0.00649018
0.0345862
-0.00690022
0.0445377
-0.00995156
0.0539731
-0.00943543
0.0667224
-0.0127493
-0.0113979
0.0327693
-0.000778898
-0.0321046
0.0376059
-0.00651578
0.0464238
-0.0119134
0.0600962
-0.0181513
0.0793025
-0.0256965
0.102606
-0.0302041
0.13587
-0.0432148
0.171598
-0.0451642
0.218596
-0.0597465
-0.0637693
0.0505489
-0.0023307
-0.0489971
0.0582894
-0.0142563
0.0722481
-0.025872
0.0940001
-0.0399034
0.123447
-0.0551436
0.162237
-0.0689938
0.212455
-0.0934326
0.268737
-0.101447
0.341054
-0.132063
-0.136542
0.0651725
-0.00495138
-0.0625518
0.0753006
-0.0243844
0.0934887
-0.0440601
0.120906
-0.0673203
0.157626
-0.0918639
0.206725
-0.118093
0.2623
-0.149008
0.329918
-0.169064
0.403073
-0.205218
-0.193102
0.0768089
-0.0730638
0.0888564
0.110148
0.140925
0.182187
0.232978
0.288302
0.35103
0.385928
0.0869721
-0.083026
0.0909179
-0.094864
0.0780686
-0.0842678
0.0931713
0.0687001
-0.086238
0.0956065
0.0586269
-0.0883405
0.0984136
0.0477909
-0.0904795
0.101316
0.0363324
-0.0923845
0.103843
0.0246278
-0.0929336
0.104638
0.0134658
-0.0889948
0.100157
0.00438397
-0.0740094
0.0830913
-0.0371872
0.0415712
0.0963722
-0.0730915
-0.106307
0.0859898
-0.0738854
0.07489
-0.0751383
0.0631582
-0.0766087
0.0509666
-0.0782878
0.0384937
-0.0799116
0.0260266
-0.0804666
0.0142521
-0.0772203
0.00467
-0.0644274
-0.0325172
0.0985305
-0.0617222
-0.1099
0.0870616
-0.0624165
0.0753866
-0.0634633
0.0635036
-0.0647257
0.0513678
-0.066152
0.0389603
-0.0675041
0.026461
-0.0679673
0.0145392
-0.0652985
0.00476002
-0.0546482
-0.0277572
0.104343
-0.0499758
-0.11609
0.0924483
-0.0505216
0.080316
-0.0513309
0.0678586
-0.0522684
0.0550196
-0.0533129
0.0418276
-0.0543122
0.0285174
-0.054657
0.0157887
-0.0525698
0.0052536
-0.0441131
-0.0225036
0.106891
-0.0377161
-0.119151
0.0945161
-0.0381466
0.0818961
-0.038711
0.069005
-0.0393773
0.0558297
-0.0401375
0.0424045
-0.040887
0.0289254
-0.041178
0.0160365
-0.0396808
0.00533925
-0.0334159
-0.0171643
0.109711
-0.0253489
-0.122078
0.0971319
-0.025568
0.0843049
-0.025884
0.0711939
-0.0262662
0.0577685
-0.0267122
0.0440389
-0.0271573
0.0301821
-0.0273213
0.0168457
-0.0263444
0.00567638
-0.0222466
-0.0114879
0.111066
-0.0128348
-0.12358
0.0983615
-0.0128633
0.0853958
-0.0129183
0.0721385
-0.0130089
0.0585615
-0.0131352
0.0446766
-0.0132724
0.0306563
-0.013301
0.0171395
-0.0128276
0.00578705
-0.0108941
-0.00570089
0.11189
-0.000341097
-0.124383
0.099144
-0.000117604
0.0861184
0.000107305
0.0727842
0.000325359
0.0591168
0.000532143
0.045131
0.000713466
0.0309998
0.000830143
0.0173609
0.000811322
0.00587969
0.000587132
0.000178795
0.111955
0.0121287
-0.124425
0.0992349
0.0126022
0.0862253
0.013117
0.072898
0.0136527
0.0592288
0.0142013
0.0452317
0.0147106
0.0310791
0.0149827
0.0174098
0.0144806
0.00589663
0.0121003
0.00607543
0.111392
-0.123784
0.098743
0.0857998
0.0725377
0.0589333
0.0450004
0.030911
0.0173043
0.00585353
0.0149681
-0.166941
-0.0173323
0.0101796
-0.181511
0.00438251
-0.190022
-0.00155149
-0.195489
-0.00698494
-0.199
-0.0111508
-0.199932
-0.0129442
-0.195132
-0.0111263
-0.17766
-0.00551334
-0.13648
-0.0597487
0.0393096
-0.16336
-0.0428902
0.0327209
-0.174923
0.0249647
-0.182265
0.0169637
-0.187488
0.00922219
-0.191259
0.00231068
-0.19302
-0.00278096
-0.19004
-0.00479583
-0.175645
-0.00324931
-0.138026
-0.062998