/*--------------------------------*- C++ -*----------------------------------*\
  =========                 |
  \\      /  F ield         | OpenFOAM: The Open Source CFD Toolbox
   \\    /   O peration     | Website:  https://openfoam.org
    \\  /    A nd           | Version:  13
     \\/     M anipulation  |
\*---------------------------------------------------------------------------*/
FoamFile
{
    format      ascii;
    class       volVectorField;
    location    "4.2";
    object      U;
}
// * * * * * * * * * * * * * * * * * * * * * * * * * * * * * * * * * * * * * //

dimensions      [0 1 -1 0 0 0 0];

internalField   nonuniform List<vector> 
1800
(
(-0.0323868 0.0270901 1.16886e-20)
(-0.0771959 0.0505377 5.06664e-21)
(-0.101836 0.0596277 -3.81847e-21)
(-0.1051 0.062807 1.72739e-20)
(-0.0832099 0.0656583 6.47624e-20)
(-0.0323733 0.0710414 3.09518e-20)
(0.0502935 0.0810866 -1.14852e-20)
(0.162959 0.0967281 5.65048e-20)
(0.314989 0.142123 1.35919e-19)
(0.3938 0.172238 1.26476e-19)
(-0.0429628 0.0326083 7.65411e-21)
(-0.085461 0.0606367 -1.95896e-20)
(-0.0879973 0.0677833 1.90161e-22)
(-0.0511424 0.0626007 -3.46499e-20)
(0.0275609 0.0514369 1.33704e-20)
(0.150343 0.0381474 7.82766e-20)
(0.317364 0.0253 -3.54698e-20)
(0.52193 0.0110416 1.40878e-20)
(0.774374 0.0243378 -2.04593e-19)
(0.912741 0.0320249 1.71485e-19)
(-0.0460801 0.0306673 3.35826e-21)
(-0.0736721 0.0544344 1.23273e-20)
(-0.0405994 0.0577293 3.27741e-21)
(0.051378 0.0479366 -8.99946e-21)
(0.202189 0.0317568 -8.94314e-20)
(0.408214 0.013947 1.74463e-20)
(0.659788 -0.00188173 3.19425e-20)
(0.940612 -0.0149179 -1.35512e-20)
(1.24106 -0.0168612 3.22282e-22)
(1.48344 -0.0288948 2.15123e-21)
(-0.0419543 0.0237543 -6.4924e-21)
(-0.0380667 0.0349664 -2.07456e-20)
(0.0505048 0.0297312 -2.13262e-20)
(0.219488 0.0149957 1.80176e-20)
(0.461239 -0.00222137 1.69077e-20)
(0.75855 -0.0167753 6.83582e-21)
(1.08534 -0.0258649 -1.88191e-21)
(1.41295 -0.028468 4.76031e-20)
(1.71781 -0.0265187 3.26543e-20)
(1.968 -0.0253879 -1.2815e-20)
(-0.0295134 0.0147252 4.88717e-20)
(0.0276543 0.0115831 4.68734e-20)
(0.19595 -0.000739395 -3.09072e-20)
(0.461741 -0.0148741 -3.8008e-20)
(0.798984 -0.0241927 -9.5587e-20)
(1.1682 -0.0257713 1.52568e-21)
(1.52721 -0.020274 1.11413e-19)
(1.84283 -0.0103948 5.76016e-20)
(2.0945 0.000286665 1.79861e-21)
(2.28441 0.00413657 -5.40585e-20)
(-0.0043665 0.00404094 -4.99462e-20)
(0.132556 -0.0108745 -3.89366e-21)
(0.402856 -0.0235848 1.70142e-19)
(0.771408 -0.0274441 -4.23965e-20)
(1.18278 -0.0200866 -1.06192e-19)
(1.57697 -0.00432444 2.07414e-19)
(1.90963 0.0145844 -2.28687e-19)
(2.16004 0.0317849 -3.22783e-19)
(2.33005 0.0439206 2.79254e-19)
(2.43184 0.0499965 2.27019e-21)
(0.037378 -0.00661356 6.08299e-20)
(0.280232 -0.0259393 -1.28305e-19)
(0.66287 -0.0282079 -4.02579e-19)
(1.11561 -0.0119306 1.83288e-19)
(1.55479 0.0159264 4.05685e-19)
(1.91855 0.0459632 -1.6128e-21)
(2.18201 0.0711754 -9.08073e-19)
(2.35091 0.0883273 2.90718e-21)
(2.44647 0.0982181 1.15075e-18)
(2.49451 0.0988689 3.21327e-19)
(0.0973087 -0.0138971 5.8103e-20)
(0.465218 -0.0252654 3.1115e-19)
(0.951241 -0.00540957 3.17145e-19)
(1.44847 0.0357792 -1.09213e-19)
(1.86584 0.0803938 -3.88814e-19)
(2.16478 0.11669 -1.49106e-19)
(2.35148 0.140741 0)
(2.45361 0.153679 5.01637e-19)
(2.50158 0.1583 -8.25174e-21)
(2.51767 0.156525 -4.88841e-19)
(0.173448 -0.0137996 5.48155e-20)
(0.672171 -0.00152892 3.10276e-19)
(1.23429 0.0492207 5.63971e-19)
(1.73244 0.113243 -5.74708e-19)
(2.09689 0.166874 -5.04093e-19)
(2.32449 0.202323 2.14426e-19)
(2.4468 0.221236 -1.04367e-18)
(2.50158 0.228303 -7.91609e-19)
(2.51815 0.228205 9.88135e-19)
(2.51407 0.221903 8.6336e-19)
(0.260529 -0.00268432 -4.97923e-20)
(0.880149 0.0490298 2.41625e-19)
(1.48313 0.133956 1.54651e-19)
(1.95101 0.214427 -1.22717e-18)
(2.25249 0.269641 4.84767e-20)
(2.41652 0.299389 2.55182e-18)
(2.48983 0.310593 -1.49464e-18)
(2.51252 0.310597 -8.90122e-19)
(2.51027 0.304412 3.14369e-19)
(2.49516 0.293813 -7.21526e-19)
(-0.00649333 -0.0337348 -1.7525e-19)
(-0.0588903 -0.0224035 -3.72167e-20)
(-0.129408 0.00227933 1.65073e-21)
(-0.20614 0.0181759 2.02411e-20)
(-0.281154 0.0244869 4.61502e-21)
(-0.35257 0.0261943 2.10126e-19)
(-0.419708 0.0273028 1.0237e-20)
(-0.482474 0.0299803 -2.33852e-19)
(-0.543288 0.0353747 -1.57825e-20)
(-0.606428 0.0443763 4.47425e-20)
(-0.00993638 0.0292556 -2.45423e-20)
(-0.0620845 0.104435 -5.38307e-20)
(-0.128625 0.158562 6.83954e-20)
(-0.200694 0.185906 3.74671e-20)
(-0.271611 0.195157 7.12168e-20)
(-0.33959 0.195935 1.80192e-19)
(-0.403909 0.194077 -1.91708e-19)
(-0.464254 0.19226 -1.86442e-19)
(-0.522169 0.191761 2.89938e-19)
(-0.580776 0.193831 -7.57593e-20)
(-0.0167148 0.0701258 2.36581e-21)
(-0.0629742 0.194839 -5.28451e-20)
(-0.115321 0.280785 -2.20928e-20)
(-0.170451 0.327275 -1.21929e-19)
(-0.224936 0.346319 -3.5897e-20)
(-0.277389 0.350851 3.59543e-19)
(-0.326977 0.349268 -4.90565e-20)
(-0.373038 0.345509 -2.51857e-19)
(-0.415785 0.341183 2.69816e-19)
(-0.456747 0.337726 1.53392e-19)
(-0.021583 0.0794431 1.01769e-20)
(-0.060047 0.227093 -6.07783e-22)
(-0.095185 0.341764 -4.90952e-21)
(-0.128482 0.415441 2.59416e-20)
(-0.160609 0.453987 1.25043e-21)
(-0.191485 0.469236 -1.12599e-19)
(-0.220398 0.471839 -7.43367e-20)
(-0.246465 0.468338 7.67727e-20)
(-0.268443 0.461803 -1.15491e-20)
(-0.283945 0.454318 4.83717e-21)
(-0.0203281 0.0628075 0)
(-0.050349 0.200955 -1.11949e-20)
(-0.0711173 0.328921 4.13609e-20)
(-0.0854031 0.429036 1.6403e-20)
(-0.0958777 0.49588 1.00245e-19)
(-0.103924 0.533449 -5.74277e-20)
(-0.109892 0.549502 1.70562e-20)
(-0.11355 0.551392 4.78462e-20)
(-0.114096 0.544271 0)
(-0.104887 0.53304 7.73319e-21)
(-0.0132973 0.0351444 -1.81171e-20)
(-0.034869 0.13829 4.44587e-20)
(-0.0473789 0.254469 4.25229e-20)
(-0.0512493 0.362968 -4.7113e-20)
(-0.0482237 0.450898 4.20469e-20)
(-0.0398477 0.513767 5.85511e-21)
(-0.027259 0.55277 -5.50489e-20)
(-0.0111152 0.571702 -2.74945e-20)
(0.0079426 0.574291 3.56152e-20)
(0.0374358 0.565024 3.23431e-21)
(-0.00434877 0.0111264 4.92068e-21)
(-0.0184825 0.0722056 7.35002e-20)
(-0.028771 0.157825 -4.46655e-20)
(-0.032129 0.250685 -7.62325e-21)
(-0.0275775 0.33715 -1.15343e-20)
(-0.0152455 0.408841 -5.57052e-20)
(0.00413924 0.462156 -3.14978e-20)
(0.0297823 0.49688 -7.67262e-20)
(0.0606585 0.513927 4.79159e-20)
(0.0996593 0.511005 8.07381e-20)
(0.00132893 -0.00149984 1.31459e-20)
(-0.0100672 0.0270507 -2.98555e-20)
(-0.0239341 0.0788548 -4.83291e-20)
(-0.0345187 0.142651 1.53642e-20)
(-0.0383122 0.208452 1.46013e-20)
(-0.0337224 0.268479 1.73278e-19)
(-0.0203698 0.317797 2.09489e-19)
(0.00185368 0.354025 -1.18015e-19)
(0.0336169 0.375297 -7.55029e-20)
(0.073366 0.369445 8.82013e-20)
(-0.000229168 -0.00187897 1.23e-20)
(-0.0180415 0.00938095 -1.89565e-20)
(-0.0408419 0.0342067 5.4538e-20)
(-0.0621059 0.0677523 8.00084e-20)
(-0.0769685 0.105245 -8.16651e-20)
(-0.0826658 0.14175 1.882e-19)
(-0.0775603 0.173174 -8.19321e-21)
(-0.06011 0.196239 -3.80324e-19)
(-0.028334 0.20646 -8.57473e-20)
(0.0184814 0.192503 8.51191e-20)
(-0.0148799 0.0113058 2.03248e-21)
(-0.0502975 0.0230315 -7.174e-22)
(-0.0839322 0.0331731 -1.05288e-20)
(-0.111219 0.0450878 3.92544e-20)
(-0.127494 0.0601108 6.92366e-20)
(-0.129446 0.0774779 -1.02589e-19)
(-0.114753 0.0959298 -1.14832e-19)
(-0.0815961 0.114118 8.30582e-20)
(-0.027156 0.128052 -9.89754e-20)
(0.049696 0.128135 -5.61533e-20)
(-0.918727 0.110385 -9.79621e-19)
(-1.10795 0.592522 1.17372e-18)
(-0.725517 0.815609 -2.77313e-19)
(-0.312507 0.223009 5.81982e-19)
(0.248611 -0.368504 -2.59699e-19)
(0.531011 -0.554886 -1.8985e-19)
(0.784641 -0.607321 -7.80597e-20)
(0.916321 -0.500639 1.12078e-20)
(0.994136 -0.436195 2.94858e-20)
(1.07801 -0.281386 3.52171e-21)
(-0.873432 0.215286 -6.61946e-19)
(-1.14746 0.562993 -2.00191e-19)
(-0.679764 0.660251 -2.0463e-20)
(-0.114394 0.0750406 -6.57064e-19)
(0.4136 -0.479886 -1.12019e-18)
(0.69286 -0.636384 0)
(0.92079 -0.657399 -8.34915e-20)
(1.01859 -0.529332 -1.57809e-21)
(1.0799 -0.452847 -6.83712e-22)
(1.12558 -0.29168 -1.63148e-20)
(-0.677105 0.316172 4.29434e-19)
(-0.985299 0.538079 4.46238e-20)
(-0.501527 0.495329 2.92554e-19)
(0.118023 -0.0735434 6.26404e-20)
(0.613249 -0.582066 5.9593e-20)
(0.869267 -0.711059 -7.63118e-20)
(1.06303 -0.699101 0)
(1.12293 -0.550782 0)
(1.16378 -0.462251 -3.14709e-20)
(1.17195 -0.296864 0)
(-0.388575 0.394709 5.75885e-20)
(-0.667681 0.522554 -7.04406e-20)
(-0.224917 0.347812 -1.587e-20)
(0.383802 -0.2075 0)
(0.83748 -0.671935 6.90525e-19)
(1.05323 -0.775211 -1.37815e-19)
(1.20537 -0.731364 0)
(1.22615 -0.564323 1.11232e-19)
(1.24386 -0.464186 0)
(1.21529 -0.296969 2.11092e-20)
(-0.0893529 0.438593 1.32382e-19)
(-0.271155 0.508099 -4.38867e-20)
(0.104541 0.232195 2.47032e-21)
(0.670978 -0.31898 0)
(1.07512 -0.746631 2.30982e-19)
(1.23943 -0.826208 2.73692e-19)
(1.34333 -0.753418 -5.75596e-20)
(1.32473 -0.569869 -8.05639e-21)
(1.31862 -0.458765 -2.25357e-20)
(1.25448 -0.292097 7.9978e-22)
(0.167817 0.447315 1.36187e-18)
(0.121992 0.49372 2.9228e-19)
(0.440762 0.14782 2.47505e-21)
(0.962515 -0.407158 3.74494e-19)
(1.31311 -0.805203 -3.2614e-19)
(1.42141 -0.86337 1.07527e-19)
(1.47365 -0.76512 2.59573e-19)
(1.41579 -0.567712 -2.1744e-19)
(1.38662 -0.44642 9.60556e-22)
(1.28882 -0.282484 -4.62188e-20)
(0.348816 0.407786 9.97094e-20)
(0.457992 0.478366 -1.50237e-19)
(0.749195 0.0882699 1.71745e-20)
(1.24439 -0.47292 -6.47578e-21)
(1.54143 -0.846799 -1.29745e-19)
(1.593 -0.886756 -7.6272e-20)
(1.59369 -0.766969 -9.20304e-20)
(1.49739 -0.558467 2.69371e-20)
(1.44667 -0.427793 3.27996e-20)
(1.31788 -0.26853 8.46511e-22)
(0.427257 0.307752 -4.54445e-19)
(0.70757 0.44669 -2.9864e-19)
(1.01567 0.0465695 0)
(1.50844 -0.518542 4.45088e-20)
(1.75336 -0.870497 4.74907e-20)
(1.74973 -0.89626 -3.51263e-20)
(1.70177 -0.759636 -2.60586e-19)
(1.56871 -0.542973 9.05329e-20)
(1.49792 -0.403706 -1.76192e-21)
(1.34134 -0.250768 -2.24813e-20)
(0.381019 0.168103 2.99683e-19)
(0.846783 0.391379 8.54496e-19)
(1.24769 0.0042156 -2.65771e-19)
(1.75173 -0.548216 -2.04866e-20)
(1.94368 -0.876794 3.15299e-20)
(1.88785 -0.892165 -1.40274e-19)
(1.79655 -0.743797 9.69521e-20)
(1.62979 -0.522233 -3.49517e-21)
(1.53997 -0.375225 1.01339e-20)
(1.35899 -0.229831 3.61709e-20)
(0.375723 -0.0198012 -1.59378e-19)
(0.881479 0.277705 7.81248e-19)
(1.47301 -0.0239399 1.24338e-19)
(1.97547 -0.565776 1.91521e-19)
(2.10921 -0.870079 5.54998e-20)
(2.00525 -0.877047 -2.7597e-20)
(1.87717 -0.720625 -2.23672e-20)
(1.68105 -0.497327 0)
(1.57265 -0.343719 -5.76972e-20)
(1.37083 -0.206534 4.20112e-20)
(1.0616 -0.0647379 -1.93429e-19)
(1.26413 0.106418 -3.99388e-19)
(1.86215 -0.158225 5.14328e-19)
(2.26574 -0.613136 -4.53835e-20)
(2.3026 -0.855428 -6.09563e-20)
(2.13564 -0.84639 -4.90554e-20)
(1.96312 -0.681391 -1.05964e-19)
(1.73304 -0.458701 5.52254e-20)
(1.60053 -0.299229 -2.29242e-20)
(1.37887 -0.175145 -2.40225e-20)
(1.97177 -0.0276193 -2.21212e-20)
(2.01539 0.028479 -4.01134e-19)
(2.47555 -0.294061 -9.28713e-19)
(2.61793 -0.66244 1.66526e-19)
(2.44835 -0.828345 -5.50648e-19)
(2.18789 -0.773321 -1.00511e-19)
(1.98285 -0.584224 1.24328e-19)
(1.73356 -0.368064 -3.26069e-20)
(1.59111 -0.219075 1.21455e-19)
(1.36575 -0.126368 1.16559e-20)
(2.30399 -0.0524542 2.31449e-20)
(2.43742 -0.0564288 2.63192e-20)
(2.69304 -0.349253 -2.04833e-20)
(2.59346 -0.616074 7.398e-36)
(2.39279 -0.73457 -3.64751e-20)
(2.18417 -0.686887 1.45368e-34)
(2.0023 -0.506852 3.67763e-20)
(1.74717 -0.302583 1.33709e-33)
(1.58954 -0.157753 -5.46592e-21)
(1.3522 -0.0852256 1.09108e-20)
(2.40025 -0.0655448 2.77291e-35)
(2.5385 -0.10861 2.33902e-19)
(2.62516 -0.335285 4.17448e-19)
(2.54554 -0.563252 0)
(2.42588 -0.686745 2.00095e-19)
(2.20998 -0.629383 7.29049e-21)
(1.98133 -0.425556 -1.26147e-19)
(1.69631 -0.216653 3.16727e-33)
(1.52131 -0.0776346 -8.09931e-20)
(1.2965 -0.0362065 -1.34096e-20)
(2.41528 -0.0929972 3.56382e-20)
(2.49445 -0.141289 -6.24215e-21)
(2.54603 -0.326218 0)
(2.51455 -0.535767 0)
(2.36563 -0.625455 0)
(2.09024 -0.529149 0)
(1.83328 -0.317414 7.02121e-21)
(1.56047 -0.128502 3.36655e-33)
(1.40518 -0.00915276 -7.32896e-21)
(1.21913 0.00304111 -1.89076e-33)
(2.40396 -0.110984 5.77823e-20)
(2.43737 -0.159743 0)
(2.48207 -0.317605 0)
(2.44301 -0.492779 0)
(2.22266 -0.542822 0)
(1.8843 -0.424589 0)
(1.59795 -0.219541 -1.20113e-20)
(1.34372 -0.052926 8.6782e-20)
(1.22031 0.0464023 -8.14243e-21)
(1.09853 0.0344466 -7.59845e-21)
(2.3733 -0.124547 0)
(2.36879 -0.169605 1.03144e-19)
(2.39442 -0.302548 1.56859e-19)
(2.26083 -0.431232 0)
(1.89199 -0.425427 7.31211e-20)
(1.47669 -0.287714 -4.06875e-22)
(1.20013 -0.112109 -4.15738e-20)
(1.0152 0.01211 -2.93709e-20)
(0.958974 0.0795026 2.65459e-20)
(0.929266 0.0492695 -2.17182e-20)
(2.25502 -0.123362 -5.76759e-21)
(2.20875 -0.163331 -4.47019e-21)
(2.13458 -0.257514 3.66419e-21)
(1.80151 -0.311288 -3.94196e-35)
(1.30234 -0.256078 -3.02887e-21)
(0.894322 -0.143935 1.07056e-34)
(0.694738 -0.0338439 -1.04647e-20)
(0.619836 0.0394288 -5.07112e-20)
(0.647636 0.0771181 -8.20684e-21)
(0.705615 0.0442988 1.88535e-20)
(1.82441 -0.102474 3.5773e-20)
(1.7002 -0.133225 -3.186e-20)
(1.44506 -0.149821 -2.50496e-20)
(0.979494 -0.12155 0)
(0.553625 -0.0840261 -1.52886e-20)
(0.303593 -0.0483618 -1.65814e-20)
(0.216395 -0.00735464 -2.85918e-20)
(0.230404 0.028895 -1.12584e-20)
(0.311125 0.0455186 -4.92186e-21)
(0.411557 0.0252624 -1.85709e-20)
(0.745469 -0.0262828 0)
(0.571177 -0.0157998 0)
(0.371438 0.00207219 0)
(0.201554 0.00311804 0)
(0.0717047 -0.00802985 0)
(-0.0344685 -0.0101873 0)
(-0.0853265 -0.00475676 -1.01693e-20)
(-0.0674122 0.0031772 6.82704e-35)
(-0.00675134 0.00620825 -8.54039e-21)
(0.0674422 0.00340707 -1.88107e-20)
(2.44167 0.268843 6.99139e-19)
(2.48075 0.209267 4.16186e-20)
(2.49595 0.150409 -6.38803e-20)
(2.51583 0.107063 -2.058e-19)
(2.5088 0.0568048 -3.14958e-20)
(2.47861 0.0346317 -4.68151e-20)
(2.41718 -0.0134776 -1.56858e-19)
(2.17267 -0.00509596 1.87368e-20)
(1.98272 -0.04752 0)
(1.27482 0.0148206 6.57298e-20)
(2.36828 0.228896 2.31329e-19)
(2.38403 0.187958 -2.49211e-19)
(2.44752 0.13354 -6.09549e-20)
(2.43049 0.102895 -1.05154e-19)
(2.51388 0.0539118 9.19452e-20)
(2.43956 0.0293673 1.52567e-19)
(2.55179 -0.0126435 -1.8694e-19)
(2.36611 -0.0435399 1.03373e-20)
(2.45897 -0.0636508 -3.50903e-20)
(2.08415 -0.100797 5.93126e-20)
(2.3218 0.197534 -1.01483e-19)
(2.30798 0.155556 2.36143e-19)
(2.40114 0.120648 1.33288e-19)
(2.35516 0.0798105 -2.32472e-19)
(2.46468 0.0551534 -4.78096e-20)
(2.38649 0.00988422 3.18852e-19)
(2.50463 -0.000311003 5.40717e-20)
(2.40716 -0.0545104 -5.26704e-20)
(2.49419 -0.0469737 -2.55725e-20)
(2.38905 -0.105593 -2.33995e-20)
(2.27557 0.165535 -2.83403e-19)
(2.2693 0.118542 -6.38513e-20)
(2.34595 0.103424 5.00861e-20)
(2.3233 0.0537544 -2.06314e-21)
(2.39571 0.0484382 -2.19728e-19)
(2.36787 -0.00408377 -6.4201e-20)
(2.42514 0.000441304 1.7264e-19)
(2.41055 -0.0516444 -1.29565e-20)
(2.43818 -0.0412989 3.20723e-20)
(2.44486 -0.0871576 1.09263e-20)
(2.22993 0.129736 3.0464e-20)
(2.2465 0.0866323 1.32809e-19)
(2.29447 0.0781917 -7.2064e-21)
(2.3048 0.0340671 1.37106e-19)
(2.34062 0.0308982 -5.84497e-20)
(2.35191 -0.0113791 -1.92394e-19)
(2.37231 -0.0115929 2.86387e-20)
(2.39099 -0.0480831 -5.45369e-20)
(2.39698 -0.0493453 -1.84906e-20)
(2.42248 -0.0771095 -2.31772e-20)
(2.1911 0.0909592 -1.5694e-19)
(2.22145 0.0578668 -6.25e-20)
(2.25409 0.0483704 -1.87482e-20)
(2.28019 0.0161374 9.44282e-20)
(2.30276 0.00859248 2.62621e-19)
(2.32681 -0.0205714 -5.56388e-20)
(2.34006 -0.028111 5.00507e-21)
(2.36306 -0.0524718 -7.96757e-20)
(2.36974 -0.0616563 -1.16113e-19)
(2.39134 -0.0805171 -1.80486e-20)
(2.14459 0.0530191 -4.79544e-20)
(2.17862 0.0297189 -1.13826e-19)
(2.20647 0.019251 -1.48029e-19)
(2.23705 -0.00291229 -2.54383e-19)
(2.2581 -0.012743 8.36224e-20)
(2.28588 -0.0330938 6.76371e-20)
(2.30062 -0.043547 -1.43372e-20)
(2.32625 -0.0618183 7.89537e-20)
(2.3353 -0.0734954 -6.98581e-20)
(2.36022 -0.0894962 -4.62524e-20)
(2.0349 0.0183306 6.03314e-20)
(2.06862 0.0028236 1.94629e-20)
(2.08968 -0.00567647 1.54638e-20)
(2.12418 -0.0207495 -3.30269e-20)
(2.13942 -0.0286927 -3.14672e-20)
(2.17626 -0.0436912 -6.0414e-20)
(2.18479 -0.0519976 -4.65141e-20)
(2.22573 -0.0673929 1.06503e-19)
(2.22608 -0.0767211 -4.30467e-20)
(2.27365 -0.0927928 1.89583e-21)
(1.71891 -0.010318 -7.21066e-20)
(1.74019 -0.0180481 -1.69207e-20)
(1.74804 -0.0228613 1.26185e-19)
(1.77453 -0.030352 -2.14866e-20)
(1.77737 -0.0347446 -3.60124e-20)
(1.81223 -0.0428686 7.42038e-20)
(1.80736 -0.0476143 -5.76504e-20)
(1.85368 -0.0572572 4.64568e-20)
(1.83697 -0.0633566 -2.35726e-20)
(1.89875 -0.0754002 -9.4866e-20)
(0.872566 -0.0101312 5.1261e-20)
(0.866313 -0.00948459 4.47376e-20)
(0.858877 -0.00884711 4.49287e-20)
(0.856617 -0.00847692 7.52121e-20)
(0.850009 -0.00846881 -3.82939e-20)
(0.853085 -0.0086897 -5.37081e-20)
(0.844096 -0.00947666 2.43303e-20)
(0.854923 -0.0108978 -2.14853e-21)
(0.834985 -0.0119559 3.22217e-21)
(0.862801 -0.0176599 -4.87265e-21)
(1.5366 0.940913 -7.98143e-20)
(1.52114 0.986591 2.56098e-20)
(1.52454 1.03974 -6.02718e-19)
(1.53277 1.09997 2.24791e-19)
(1.53874 1.16324 1.1354e-18)
(1.53376 1.22139 -1.40616e-19)
(1.49594 1.25194 -1.01114e-18)
(1.37595 1.20344 -4.09833e-21)
(1.08734 0.982769 -4.94511e-19)
(0.507601 0.46964 1.16338e-19)
(1.69704 0.913122 0)
(1.6863 0.957337 6.98053e-19)
(1.68621 1.00674 1.54979e-18)
(1.69404 1.06443 -9.56866e-19)
(1.70312 1.12606 -2.23875e-18)
(1.7011 1.18187 -1.46783e-19)
(1.66084 1.20806 -1.87945e-19)
(1.52549 1.15396 6.84609e-19)
(1.19926 0.932657 1.01784e-18)
(0.553931 0.437947 4.02669e-19)
(1.84428 0.87723 6.47998e-20)
(1.84232 0.920697 0)
(1.84379 0.966828 -6.41255e-20)
(1.85241 1.01971 9.7497e-19)
(1.86342 1.07614 5.30034e-20)
(1.86226 1.12597 -2.18211e-18)
(1.81671 1.14499 1.37738e-18)
(1.66288 1.08439 8.0946e-19)
(1.29727 0.865034 -8.66975e-19)
(0.590635 0.397118 -2.5697e-19)
(1.97465 0.831487 -1.75373e-19)
(1.98188 0.872953 -1.29795e-19)
(1.98839 0.91543 2.66245e-19)
(1.99976 0.962816 -3.3057e-19)
(2.01241 1.01258 -1.52928e-18)
(2.01016 1.05465 -1.18804e-18)
(1.9564 1.06454 1.2433e-18)
(1.78027 0.995886 8.15375e-19)
(1.37309 0.780705 0)
(0.613265 0.347671 0)
(2.08859 0.772099 -8.68996e-19)
(2.10399 0.810674 -1.59454e-18)
(2.11676 0.849312 -6.13754e-19)
(2.13179 0.891236 -3.16381e-20)
(2.14553 0.933928 0)
(2.14019 0.966359 1.26334e-19)
(2.07374 0.965799 1.45027e-19)
(1.86962 0.890945 1.79858e-19)
(1.42002 0.682348 -2.56855e-19)
(0.618408 0.290769 -6.41142e-20)
(2.18912 0.702945 1.03375e-18)
(2.2105 0.737282 -3.8768e-20)
(2.22849 0.771247 -1.2146e-18)
(2.24644 0.806998 0)
(2.25955 0.841488 0)
(2.24688 0.864065 0)
(2.16147 0.852814 1.37193e-18)
(1.92425 0.771026 -1.50094e-18)
(1.43283 0.571579 -9.41353e-19)
(0.603347 0.229225 1.69036e-20)
(2.2764 0.623908 -1.33545e-18)
(2.30197 0.653444 -2.80382e-18)
(2.32326 0.682637 -4.86067e-21)
(2.34204 0.712144 5.67941e-19)
(2.35109 0.738258 -3.38255e-20)
(2.32563 0.750376 1.18698e-18)
(2.21469 0.727998 -6.5416e-19)
(1.93869 0.639999 -1.69696e-18)
(1.40647 0.453504 8.60559e-20)
(0.567086 0.167173 6.81787e-20)
(2.35202 0.541153 -1.03103e-18)
(2.37852 0.56572 1.43859e-20)
(2.4003 0.589334 3.87481e-19)
(2.41671 0.611735 -3.74714e-19)
(2.41703 0.628617 5.83436e-19)
(2.37199 0.629477 1.53267e-18)
(2.22729 0.595942 -1.23401e-19)
(1.90648 0.503651 -8.7387e-19)
(1.33717 0.334862 1.9465e-19)
(0.510494 0.109181 3.57769e-20)
(2.41326 0.45565 3.72139e-19)
(2.43905 0.475777 7.29131e-20)
(2.45856 0.49376 -3.80199e-19)
(2.46851 0.508801 -8.94155e-19)
(2.45376 0.516136 5.77983e-20)
(2.38034 0.50572 3.9387e-20)
(2.19241 0.462146 -1.05143e-18)
(1.82194 0.36878 4.55502e-19)
(1.22381 0.223023 1.29529e-19)
(0.436685 0.0595696 -3.97725e-20)
(2.4611 0.373123 6.81294e-19)
(2.48315 0.38835 -1.01356e-18)
(2.4967 0.400193 1.48355e-19)
(2.49436 0.407534 1.98886e-18)
(2.45595 0.405232 9.52811e-19)
(2.34339 0.384217 -2.04715e-18)
(2.10263 0.332887 -1.85911e-18)
(1.68099 0.242987 7.61474e-19)
(1.06887 0.125503 -4.04328e-20)
(0.350974 0.0216971 -1.07439e-19)
(0.552466 0.361476 -1.99477e-19)
(0.511311 0.37439 -1.76332e-19)
(0.464869 0.388098 8.68225e-20)
(0.4138 0.402736 -2.77325e-19)
(0.357816 0.418173 -2.89391e-20)
(0.296078 0.433105 2.37621e-19)
(0.227611 0.442136 4.72679e-20)
(0.152898 0.429759 -1.0245e-20)
(0.0791788 0.362483 1.33204e-20)
(0.0156478 0.184782 1.57689e-20)
(0.590455 0.469952 1.54668e-19)
(0.55051 0.489719 1.99795e-19)
(0.506136 0.510892 4.28652e-20)
(0.457575 0.533613 -6.41076e-20)
(0.404216 0.55764 -2.45466e-19)
(0.344961 0.581125 -7.44704e-21)
(0.278164 0.596706 8.48699e-20)
(0.202547 0.583228 3.17789e-20)
(0.121771 0.494424 -1.07512e-19)
(0.0379168 0.25337 -3.69384e-20)
(0.646795 0.570793 -1.44096e-19)
(0.608309 0.596501 -1.31065e-19)
(0.566523 0.624099 1.13621e-19)
(0.521208 0.654042 8.54707e-20)
(0.471474 0.686208 -7.48085e-20)
(0.415926 0.718293 -4.1045e-20)
(0.3519 0.740891 -1.04349e-19)
(0.275347 0.727083 -6.24504e-20)
(0.184244 0.618055 -6.27862e-20)
(0.070464 0.317069 1.31676e-21)
(0.721058 0.667649 5.92708e-20)
(0.684589 0.699881 -3.79233e-20)
(0.646329 0.733889 -8.96815e-20)
(0.605057 0.770341 -3.15667e-20)
(0.559438 0.809231 -6.99073e-20)
(0.507885 0.8479 3.31973e-22)
(0.446723 0.875117 -2.56843e-19)
(0.368543 0.858829 4.41107e-20)
(0.263874 0.729417 -3.04121e-19)
(0.11172 0.373385 4.89101e-20)
(0.808762 0.74822 -4.08894e-21)
(0.774947 0.785503 8.20533e-21)
(0.7414 0.825096 -4.74152e-20)
(0.70602 0.868039 -2.46545e-19)
(0.6667 0.914101 1.14525e-19)
(0.621058 0.959894 2.49356e-20)
(0.563797 0.992307 5.35527e-20)
(0.483326 0.974454 -1.59172e-19)
(0.361042 0.826813 3.71012e-19)
(0.16133 0.421693 2.71018e-19)
(0.913103 0.827664 -6.8354e-20)
(0.881073 0.869459 -1.58678e-19)
(0.85095 0.912402 3.59111e-20)
(0.820041 0.958923 9.63852e-20)
(0.786201 1.00936 3.42673e-19)
(0.746553 1.05964 2.50002e-19)
(0.693694 1.09442 6.15561e-19)
(0.610845 1.07235 2.55791e-19)
(0.468966 0.906363 1.48598e-19)
(0.216191 0.459393 2.02521e-19)
(1.02376 0.881052 -1.02374e-19)
(0.997816 0.927663 5.50743e-19)
(0.975526 0.975169 3.68032e-19)
(0.952312 1.02606 -4.77494e-19)
(0.925413 1.08084 -2.41455e-19)
(0.891794 1.13531 6.47854e-19)
(0.842414 1.17256 -1.03574e-19)
(0.755034 1.14727 -4.37844e-19)
(0.589124 0.966037 1.58633e-20)
(0.275875 0.485903 2.46154e-19)
(1.14174 0.935608 2.76306e-19)
(1.11617 0.982553 5.67117e-20)
(1.09867 1.03034 -7.35693e-19)
(1.08348 1.08297 1.57523e-19)
(1.06597 1.14011 5.63426e-19)
(1.04108 1.19616 -3.14607e-19)
(0.996841 1.23243 -9.75879e-20)
(0.90495 1.20088 -1.81101e-19)
(0.713251 1.00466 1.82288e-20)
(0.33657 0.50013 -2.92458e-19)
(1.26858 0.955431 1.81717e-20)
(1.25343 1.00628 -5.35584e-19)
(1.24331 1.05512 -4.54486e-21)
(1.23377 1.10881 4.62249e-19)
(1.22214 1.16823 -4.80709e-19)
(1.20319 1.2267 9.43495e-19)
(1.16177 1.26316 6.35027e-19)
(1.06249 1.22689 -9.36866e-19)
(0.841024 1.01968 -7.20553e-20)
(0.397073 0.501667 -3.18459e-19)
(1.36992 0.967429 -3.21128e-19)
(1.3661 1.01887 -3.05617e-19)
(1.37284 1.06923 2.88178e-19)
(1.37776 1.12351 7.59248e-19)
(1.37734 1.18221 2.73587e-19)
(1.36668 1.23886 -7.83846e-19)
(1.32836 1.2716 1.00612e-19)
(1.22031 1.22852 2.12098e-19)
(0.966743 1.01249 -2.83091e-19)
(0.454719 0.491344 -2.24449e-19)
(0.997597 0.00867956 5.53297e-22)
(1.01158 0.036425 -1.60734e-20)
(1.01967 0.0467007 -1.15195e-20)
(1.03168 0.068121 0)
(1.02731 0.0866046 1.26974e-20)
(1.02437 0.105996 1.88772e-20)
(1.0017 0.132811 2.45189e-20)
(0.960949 0.166705 5.86891e-20)
(0.883595 0.228991 -9.54574e-20)
(0.732026 0.296515 -1.10603e-19)
(0.999059 0.00660471 3.28319e-20)
(1.00898 0.0345525 -5.16837e-20)
(1.01872 0.043651 2.08227e-22)
(1.02931 0.0676948 -1.45632e-20)
(1.02658 0.0867292 6.59573e-21)
(1.02469 0.110721 -9.97374e-21)
(1.00219 0.141787 -5.75412e-20)
(0.967347 0.184894 0)
(0.890862 0.265297 1.99627e-19)
(0.762344 0.367048 -2.65354e-19)
(0.999913 0.00472921 -2.34436e-20)
(1.00766 0.0331695 1.41803e-20)
(1.01783 0.0402951 3.0178e-20)
(1.0287 0.067884 7.97263e-21)
(1.02611 0.0862766 -1.63597e-20)
(1.02767 0.116177 1.33013e-21)
(1.00365 0.150008 -4.21546e-20)
(0.979044 0.203599 -7.54599e-21)
(0.901746 0.300206 4.699e-22)
(0.807765 0.434842 6.50061e-19)
(1.00028 0.00294281 -2.59978e-20)
(1.00733 0.0322075 1.96135e-21)
(1.01709 0.0366262 2.48365e-20)
(1.02957 0.0686361 1.68772e-20)
(1.02611 0.0851828 -8.34243e-21)
(1.03301 0.122406 -1.23504e-20)
(1.00624 0.157101 6.28868e-20)
(0.995759 0.22325 -2.68838e-21)
(0.915829 0.332601 -2.27999e-19)
(0.867837 0.498315 7.45852e-20)
(1.00035 0.00112819 1.78603e-20)
(1.00767 0.0315507 -2.56918e-20)
(1.01668 0.0326759 -2.01281e-20)
(1.03158 0.0698249 1.00838e-20)
(1.02701 0.0834737 0)
(1.04008 0.129302 0)
(1.01078 0.162964 5.50056e-20)
(1.01586 0.243673 1.47971e-21)
(0.935456 0.362347 -1.07576e-19)
(0.93852 0.555977 8.9273e-20)
(1.00034 -0.000735528 4.97933e-21)
(1.00831 0.0310752 2.03641e-20)
(1.01687 0.0284947 -5.59003e-20)
(1.03436 0.0712846 -1.98548e-20)
(1.02919 0.0812113 -4.2979e-22)
(1.04849 0.136757 5.50131e-20)
(1.01751 0.167379 8.62773e-20)
(1.03978 0.265342 1.14192e-22)
(0.957398 0.38721 1.75993e-19)
(1.02589 0.613569 -2.03648e-19)
(1.00043 -0.00265738 -1.90107e-20)
(1.00892 0.0306386 1.05548e-20)
(1.01791 0.0241344 -1.56993e-20)
(1.03755 0.0728091 -4.2479e-20)
(1.03316 0.0785301 1.4267e-21)
(1.05752 0.144459 -1.52642e-21)
(1.02786 0.170598 -3.77062e-21)
(1.06437 0.287466 -1.92629e-19)
(0.990106 0.408327 1.32727e-19)
(1.1085 0.655415 -4.96006e-19)
(1.00071 -0.00462805 -3.16679e-21)
(1.00935 0.0300961 -3.00388e-20)
(1.01993 0.0196391 3.19203e-20)
(1.04096 0.0741736 2.28548e-20)
(1.03913 0.0755961 7.66274e-22)
(1.06693 0.151979 -6.54168e-20)
(1.04172 0.17286 -4.98404e-20)
(1.09164 0.310043 3.48638e-19)
(1.0232 0.426481 1.19932e-20)
(1.22029 0.71457 7.85218e-19)
(1.0012 -0.00661304 1.25938e-20)
(1.00962 0.0293211 1.34788e-20)
(1.02288 0.0150395 3.81026e-20)
(1.04469 0.0752372 -2.5227e-20)
(1.047 0.0724492 -6.70069e-20)
(1.07642 0.15945 8.22041e-22)
(1.05996 0.172694 -7.02003e-20)
(1.11877 0.330941 4.5937e-19)
(1.07668 0.427969 -7.69501e-21)
(1.28793 0.732178 -1.08741e-18)
(1.00185 -0.00855235 3.02043e-22)
(1.00991 0.0281557 2.07679e-20)
(1.02634 0.0108398 1.25184e-20)
(1.04932 0.0757393 -5.07976e-20)
(1.0554 0.0709938 -6.66195e-20)
(1.08576 0.166112 -5.69645e-20)
(1.07858 0.179953 -1.30555e-19)
(1.14147 0.354773 -4.22504e-19)
(1.13119 0.456987 -2.30277e-19)
(1.4204 0.803714 -1.15178e-18)
(1.00296 -0.011794 -9.32991e-22)
(1.01 0.0265774 -4.4198e-21)
(1.03124 0.00281182 -1.48907e-20)
(1.05706 0.0751359 2.77247e-20)
(1.06594 0.0621722 5.12637e-20)
(1.10482 0.170789 -3.70882e-20)
(1.101 0.164922 1.32328e-19)
(1.1862 0.365849 -3.91496e-19)
(1.19089 0.398332 -1.77889e-19)
(1.43442 0.793903 6.04139e-19)
(1.00506 -0.0165685 1.93234e-22)
(1.0083 0.0240973 7.22508e-21)
(1.04049 -0.0101127 -1.06071e-20)
(1.06471 0.0713469 5.13067e-20)
(1.08375 0.0465588 8.86595e-20)
(1.12155 0.168742 1.11271e-19)
(1.1421 0.140518 3.07161e-20)
(1.21444 0.353285 1.94304e-19)
(1.28783 0.349095 3.08078e-19)
(1.45432 0.695131 2.20816e-20)
(1.0067 -0.0211273 -1.18442e-21)
(1.00571 0.0195317 -3.59295e-21)
(1.05572 -0.023154 3.81936e-21)
(1.06873 0.0651039 3.94156e-21)
(1.10902 0.0313185 2.72673e-34)
(1.12995 0.160837 -6.27952e-21)
(1.19211 0.116133 -4.42139e-34)
(1.23108 0.329883 1.65115e-20)
(1.36462 0.295778 -5.06553e-20)
(1.49079 0.60628 -5.22313e-20)
(1.0048 -0.0255967 1.4993e-20)
(1.00744 0.01114 -4.05729e-35)
(1.07283 -0.0349282 -4.36593e-21)
(1.0731 0.0546604 -2.20019e-20)
(1.1343 0.0180155 -4.50747e-20)
(1.14019 0.147736 -3.76959e-20)
(1.23281 0.0927532 -5.87495e-34)
(1.25395 0.302043 -7.66886e-20)
(1.40577 0.244578 -1.39849e-19)
(1.52657 0.517161 8.82576e-20)
(0.996929 -0.0302881 0)
(1.01966 -0.00255639 -1.55967e-35)
(1.08608 -0.0444845 0)
(1.08556 0.0391465 0)
(1.15334 0.00647078 0)
(1.16295 0.127621 0)
(1.25626 0.0721587 -4.34527e-34)
(1.28662 0.267353 0)
(1.42366 0.201071 -1.80416e-20)
(1.55607 0.425431 5.21926e-20)
(0.983375 -0.0364382 2.19765e-21)
(1.04373 -0.0189633 -8.78477e-22)
(1.09344 -0.0517912 -5.51872e-21)
(1.10933 0.0224883 0)
(1.16626 -0.00246538 0)
(1.19573 0.103067 5.77963e-21)
(1.26919 0.0559336 4.30111e-20)
(1.31929 0.226953 -1.20025e-20)
(1.44089 0.163713 -2.63665e-20)
(1.57684 0.338743 1.98527e-19)
(0.968055 -0.0486881 -8.22831e-20)
(1.07709 -0.0439413 2.91476e-21)
(1.09265 -0.0621866 -6.14322e-21)
(1.14038 -0.0020953 -1.40622e-20)
(1.16425 -0.0140834 -2.81544e-20)
(1.2206 0.0736677 -1.33467e-20)
(1.26241 0.0421405 -3.68808e-20)
(1.33713 0.181314 -3.03245e-20)
(1.4477 0.129538 -5.26225e-20)
(1.59037 0.258336 6.64912e-20)
(0.957255 -0.0546394 -5.13836e-21)
(1.10518 -0.0568 -1.73324e-20)
(1.06849 -0.060288 -6.71139e-21)
(1.1441 -0.016648 -4.73507e-21)
(1.10361 -0.0162059 -4.57359e-35)
(1.19555 0.0476927 6.24561e-21)
(1.18322 0.0321879 -7.97513e-34)
(1.30956 0.132487 -1.14779e-20)
(1.393 0.0950276 1.64045e-20)
(1.57894 0.180384 2.37744e-20)
(0.952744 -0.0948645 1.97747e-19)
(1.05914 -0.0889001 -4.73323e-21)
(0.950476 -0.0737887 -7.15554e-21)
(0.992369 -0.0347073 1.22541e-20)
(0.884106 -0.016389 1.59182e-20)
(0.998191 0.0239122 1.56455e-20)
(0.937369 0.0238563 1.56633e-20)
(1.13071 0.0782653 -7.78096e-21)
(1.17908 0.0587489 -1.7308e-20)
(1.42576 0.102086 1.28903e-19)
(0.82476 -0.0468994 7.85496e-21)
(0.725921 -0.0334783 -9.18781e-35)
(0.5295 -0.0183928 -8.24215e-21)
(0.474505 -0.00354539 0)
(0.395285 4.4596e-05 0)
(0.464298 0.00844707 6.22519e-21)
(0.443025 0.00513003 -4.38662e-36)
(0.586702 0.0169577 -1.10095e-20)
(0.640752 0.00946078 -2.40622e-20)
(0.823561 0.0181224 5.1411e-20)
(1.63497 0.828281 -1.81315e-19)
(1.73428 0.811215 -2.69528e-19)
(1.84746 0.780942 0)
(1.95386 0.739785 1.45714e-19)
(2.05116 0.685508 6.19232e-19)
(2.13961 0.624226 -1.10424e-19)
(2.2174 0.554734 1.57766e-18)
(2.29023 0.483336 -7.66461e-20)
(2.3488 0.408267 -3.42361e-19)
(2.40512 0.338069 2.96584e-19)
(1.6606 0.681528 9.12194e-20)
(1.73399 0.667181 1.07185e-19)
(1.82805 0.638472 -1.25984e-20)
(1.91166 0.60108 2.03059e-19)
(2.00102 0.552865 -1.66469e-19)
(2.06957 0.503654 -3.87519e-19)
(2.14653 0.446965 -1.13713e-19)
(2.20089 0.395226 5.27692e-19)
(2.26895 0.33595 -1.96739e-20)