# Selection   : all
# Cells       : 440
# Volume      : 7.374263e+01
# Time        	minMag(U)
7.015         	5.616395e-03
7.06          	3.880435e-03
7.11          	2.296941e-03
