/*--------------------------------*- C++ -*----------------------------------*\
  =========                 |
  \\      /  F ield         | OpenFOAM: The Open Source CFD Toolbox
   \\    /   O peration     | Website:  https://openfoam.org
    \\  /    A nd           | Version:  13
     \\/     M anipulation  |
\*---------------------------------------------------------------------------*/
FoamFile
{
    format      ascii;
    class       volScalarField;
    location    "3.2";
    object      p;
}
// * * * * * * * * * * * * * * * * * * * * * * * * * * * * * * * * * * * * * //

dimensions      [0 2 -2 0 0 0 0];

internalField   nonuniform List<scalar> 
1800
(
-1.22278
-1.22215
-1.21853
-1.21067
-1.19902
-1.1856
-1.17337
-1.16678
-1.16573
-1.21027
-1.25047
-1.24851
-1.24466
-1.23806
-1.22893
-1.21792
-1.20685
-1.1987
-1.19315
-1.22054
-1.29199
-1.28706
-1.28145
-1.2745
-1.26626
-1.25687
-1.24679
-1.23697
-1.22939
-1.23162
-1.34352
-1.33528
-1.32686
-1.31806
-1.30842
-1.29724
-1.28403
-1.269
-1.25328
-1.2389
-1.40872
-1.39733
-1.38611
-1.37451
-1.36101
-1.34397
-1.32252
-1.29694
-1.2685
-1.23928
-1.48915
-1.47496
-1.46037
-1.44392
-1.42251
-1.39433
-1.35952
-1.3197
-1.27701
-1.23371
-1.58259
-1.56597
-1.54655
-1.5216
-1.48718
-1.44293
-1.39134
-1.33591
-1.27954
-1.22481
-1.68209
-1.66332
-1.63655
-1.59828
-1.54589
-1.4821
-1.41228
-1.34112
-1.27165
-1.20569
-1.77687
-1.75562
-1.71832
-1.66234
-1.58859
-1.5042
-1.41675
-1.33125
-1.2502
-1.1748
-1.85359
-1.82889
-1.77828
-1.70173
-1.60585
-1.502
-1.39879
-1.30069
-1.20942
-1.12533
-1.11008
-1.11531
-1.12234
-1.13395
-1.15212
-1.1764
-1.20542
-1.23823
-1.27578
-1.31994
-1.21198
-1.21488
-1.21981
-1.23142
-1.2511
-1.27814
-1.31099
-1.34822
-1.38985
-1.43761
-1.3008
-1.30052
-1.30291
-1.31391
-1.33411
-1.36246
-1.39736
-1.43705
-1.4804
-1.5282
-1.3552
-1.35064
-1.35054
-1.35999
-1.37916
-1.40695
-1.44177
-1.48194
-1.52558
-1.57138
-1.36888
-1.36036
-1.35706
-1.36314
-1.3788
-1.40317
-1.43488
-1.47245
-1.51421
-1.55777
-1.3493
-1.33866
-1.33209
-1.33253
-1.34053
-1.35602
-1.3784
-1.40666
-1.43964
-1.47427
-1.31272
-1.30281
-1.29435
-1.28865
-1.28634
-1.28832
-1.29531
-1.30752
-1.32495
-1.34641
-1.27396
-1.26697
-1.2589
-1.24943
-1.23881
-1.22834
-1.2198
-1.21475
-1.21466
-1.22296
-1.24057
-1.23702
-1.2307
-1.21991
-1.20489
-1.18709
-1.16896
-1.15319
-1.14259
-1.14251
-1.21813
-1.21712
-1.21227
-1.20202
-1.1868
-1.16792
-1.14855
-1.13224
-1.12163
-1.12002
-1.55604
-1.41206
-0.684754
-0.241113
-0.0525384
0.0399157
0.0573866
0.0512149
0.0328571
0.0126813
-1.69625
-1.59184
-0.830349
-0.313721
-0.0768597
0.0312275
0.0538144
0.0493346
0.0316754
0.0121861
-1.80874
-1.76584
-0.972106
-0.390737
-0.106755
0.0178746
0.0474272
0.0458269
0.0297368
0.0114179
-1.86614
-1.9058
-1.10104
-0.466916
-0.140616
0.000514329
0.0383948
0.0407239
0.0270445
0.0103743
-1.8559
-1.99885
-1.21223
-0.539388
-0.177087
-0.0200503
0.0270588
0.0341687
0.0236361
0.00907165
-1.7766
-2.04298
-1.30181
-0.607233
-0.215563
-0.0431833
0.013814
0.0263876
0.0195924
0.00754639
-1.63722
-2.04042
-1.36824
-0.669819
-0.255841
-0.0685635
-0.00106275
0.0176065
0.015029
0.00585306
-1.46664
-2.00398
-1.41201
-0.725927
-0.297364
-0.096007
-0.0175037
0.00793362
0.0100416
0.0040547
-1.30647
-1.95146
-1.43683
-0.774612
-0.338888
-0.125107
-0.0355188
-0.00268087
0.00462968
0.00219089
-1.17014
-1.89134
-1.45146
-0.817684
-0.379494
-0.155201
-0.0549346
-0.0142816
-0.00127186
0.000255138
-1.04037
-1.81117
-1.40121
-0.814622
-0.404258
-0.184904
-0.078068
-0.029393
-0.00922984
-0.00230939
-1.01378
-1.56287
-1.24986
-0.769828
-0.419185
-0.216936
-0.105942
-0.0482277
-0.0190469
-0.00543084
-0.9711
-1.3271
-1.11679
-0.737544
-0.438652
-0.248429
-0.132832
-0.066119
-0.0282872
-0.0082008
-0.92295
-1.13728
-1.00431
-0.711872
-0.46179
-0.283551
-0.162698
-0.086015
-0.0386388
-0.0112139
-0.864295
-0.98917
-0.909903
-0.69707
-0.493203
-0.323147
-0.191817
-0.103
-0.0468206
-0.0132922
-0.800663
-0.876094
-0.832885
-0.688933
-0.526458
-0.36347
-0.221342
-0.120504
-0.0552011
-0.0151228
-0.738109
-0.78772
-0.770957
-0.687357
-0.562236
-0.40109
-0.246587
-0.133502
-0.0607798
-0.0158731
-0.680363
-0.724161
-0.728031
-0.687163
-0.586088
-0.424188
-0.262213
-0.142173
-0.0644742
-0.0162563
-0.64061
-0.692992
-0.707326
-0.683376
-0.593073
-0.431246
-0.268413
-0.146337
-0.0663368
-0.0163657
-0.617257
-0.691052
-0.712479
-0.683208
-0.588812
-0.427639
-0.268666
-0.148146
-0.0678389
-0.0170023
-0.980099
-1.04106
-1.08653
-1.12277
-1.15052
-1.18027
-1.20862
-1.24076
-1.24575
-1.24326
-0.814227
-0.882742
-0.938175
-0.985518
-1.02457
-1.05779
-1.08339
-1.10029
-1.10854
-1.11588
-0.682329
-0.752408
-0.812063
-0.862845
-0.904671
-0.937799
-0.963305
-0.982505
-0.997554
-1.01364
-0.574183
-0.643691
-0.704173
-0.755939
-0.798712
-0.834241
-0.862633
-0.888135
-0.909665
-0.932653
-0.486011
-0.554067
-0.613667
-0.665641
-0.709036
-0.746856
-0.777926
-0.806699
-0.831169
-0.855772
-0.414733
-0.481013
-0.539348
-0.590778
-0.634251
-0.672472
-0.70435
-0.733188
-0.75782
-0.781239
-0.35837
-0.422891
-0.47991
-0.529964
-0.572618
-0.609443
-0.640397
-0.66733
-0.69056
-0.711673
-0.316292
-0.379352
-0.435074
-0.483279
-0.524394
-0.558797
-0.587699
-0.611601
-0.632226
-0.649661
-0.29107
-0.353131
-0.407886
-0.454935
-0.495
-0.527572
-0.554557
-0.575344
-0.592998
-0.605804
-0.279873
-0.342273
-0.397307
-0.444731
-0.484741
-0.517395
-0.543778
-0.563427
-0.578951
-0.587015
0.458048
0.383842
0.298907
0.207995
0.109764
0.00175952
-0.11585
-0.236343
-0.337356
-0.386209
0.252033
0.172078
0.0829569
-0.0145529
-0.122387
-0.242203
-0.372773
-0.505627
-0.615884
-0.667797
0.0263723
-0.056354
-0.147963
-0.249617
-0.363512
-0.49089
-0.629825
-0.770509
-0.887071
-0.939915
-0.190827
-0.276905
-0.372564
-0.479307
-0.599015
-0.732643
-0.878023
-1.02346
-1.14347
-1.19469
-0.386124
-0.476864
-0.577907
-0.690482
-0.816204
-0.955753
-1.10624
-1.25567
-1.37109
-1.42205
-0.560315
-0.655684
-0.76154
-0.878851
-1.00901
-1.15299
-1.30535
-1.45206
-1.56379
-1.61307
-0.713501
-0.812227
-0.921096
-1.04107
-1.17323
-1.31726
-1.46766
-1.60902
-1.71397
-1.75965
-0.849052
-0.947832
-1.05625
-1.17536
-1.30584
-1.44635
-1.59032
-1.72174
-1.81596
-1.85662
-0.963869
-1.05977
-1.16484
-1.27994
-1.40504
-1.53774
-1.67025
-1.78673
-1.86732
-1.90227
-1.05621
-1.14706
-1.24631
-1.35429
-1.47018
-1.59046
-1.70655
-1.8041
-1.86961
-1.89899
1.80868
1.82336
1.83847
1.85285
1.86562
1.87606
1.88347
1.88787
1.89144
1.89557
1.73675
1.74813
1.75916
1.76875
1.77618
1.78073
1.7817
1.7794
1.77714
1.77781
1.64369
1.65079
1.65651
1.65994
1.66057
1.65767
1.65057
1.6399
1.63027
1.62673
1.5314
1.53369
1.53308
1.52901
1.52128
1.50917
1.49205
1.47099
1.45222
1.44378
1.39964
1.39606
1.38817
1.37575
1.35883
1.33663
1.30854
1.27609
1.24714
1.2333
1.25249
1.24297
1.22688
1.2047
1.17693
1.1429
1.1021
1.05667
1.01641
0.996478
1.08987
1.07385
1.04955
1.01774
0.979065
0.932789
0.878544
0.819218
0.766908
0.740694
0.921257
0.897696
0.862957
0.819139
0.767587
0.707619
0.638964
0.565201
0.500699
0.468186
0.751541
0.720357
0.674762
0.618154
0.552532
0.47731
0.392529
0.302866
0.225452
0.186776
0.596059
0.546637
0.483078
0.410409
0.329609
0.23906
0.138581
0.0337225
-0.0557037
-0.0998598
1.54507
1.5301
1.52005
1.51572
1.51505
1.5204
1.54094
1.57886
1.6428
1.74304
1.5386
1.52464
1.51525
1.50989
1.50888
1.51162
1.52982
1.56192
1.61574
1.6983
1.53271
1.51921
1.51029
1.50364
1.50211
1.5017
1.51733
1.54186
1.5831
1.64173
1.52735
1.51385
1.5052
1.49698
1.49476
1.49062
1.50352
1.51847
1.54546
1.57266
1.52249
1.50861
1.49997
1.48994
1.48683
1.4784
1.48841
1.49151
1.50346
1.48997
1.51813
1.50353
1.49459
1.48257
1.47828
1.4651
1.47189
1.46095
1.45734
1.39289
1.51424
1.49863
1.48906
1.47492
1.46907
1.45079
1.45382
1.42677
1.40721
1.27979
1.51086
1.49393
1.48338
1.46702
1.45917
1.43556
1.43401
1.38922
1.35282
1.15221
1.50801
1.48944
1.47758
1.4589
1.44861
1.41959
1.41227
1.34847
1.29235
1.00832
1.50571
1.48517
1.47167
1.45057
1.43754
1.40305
1.38971
1.30637
1.22862
0.859715
1.50348
1.48036
1.46397
1.44017
1.42219
1.38125
1.35741
1.25426
1.15495
0.719066
1.50252
1.47574
1.45528
1.42876
1.40412
1.35833
1.32133
1.20992
1.08296
0.70143
1.50349
1.47221
1.44658
1.41807
1.38573
1.33749
1.28703
1.17491
1.02464
0.696313
1.50692
1.46979
1.43799
1.40825
1.36754
1.31893
1.25527
1.14752
0.977346
0.696691
1.51341
1.46833
1.42948
1.39944
1.34897
1.30292
1.22608
1.12695
0.940987
0.699984
1.52366
1.46786
1.42122
1.39156
1.33091
1.28938
1.20011
1.11201
0.914199
0.701978
1.53737
1.46648
1.41178
1.38187
1.31286
1.27745
1.1779
1.10063
0.895469
0.702989
1.56248
1.46966
1.40582
1.37404
1.29695
1.26751
1.15998
1.09263
0.883367
0.704581
1.57481
1.46208
1.39338
1.36174
1.28371
1.26089
1.1483
1.0887
0.877945
0.708591
1.65119
1.47506
1.39727
1.35829
1.27795
1.25837
1.14291
1.0884
0.8755
0.713845
0.446235
0.278886
0.0791344
-0.113639
-0.285943
-0.439806
-0.57712
-0.701081
-0.809878
-0.903844
0.401232
0.269675
0.119018
-0.033412
-0.174614
-0.304932
-0.42428
-0.537262
-0.640568
-0.734621
0.391391
0.279979
0.159443
0.0346883
-0.0865155
-0.202811
-0.312833
-0.417679
-0.514043
-0.603223
0.410471
0.306749
0.198552
0.0901138
-0.0169131
-0.121437
-0.222608
-0.319544
-0.411055
-0.496383
0.434182
0.33618
0.235878
0.137564
0.0408325
-0.0546148
-0.148807
-0.240339
-0.328104
-0.410392
0.457354
0.364678
0.270555
0.179015
0.0892122
-0.000142365
-0.0894279
-0.177309
-0.262032
-0.341601
0.478529
0.390947
0.301951
0.215052
0.129453
0.043708
-0.042416
-0.127587
-0.209798
-0.287213
0.497437
0.414503
0.329773
0.245819
0.162109
0.0777934
-0.00687271
-0.0904163
-0.170841
-0.246501
0.514262
0.435069
0.353562
0.270781
0.186755
0.101775
0.0168628
-0.066461
-0.146562
-0.221855
0.527368
0.449956
0.369338
0.285577
0.199852
0.11355
0.0280261
-0.0554517
-0.135444
-0.210662
-1.41841
-1.3834
-1.3088
-1.21426
-1.11773
-1.02941
-0.953299
-0.890601
-0.841679
-0.806995
-1.48702
-1.4561
-1.39378
-1.31306
-1.22813
-1.14885
-1.07979
-1.02264
-0.978395
-0.948244
-1.49565
-1.46825
-1.41917
-1.35508
-1.28506
-1.21758
-1.15743
-1.10676
-1.06703
-1.03962
-1.45619
-1.43165
-1.39468
-1.34756
-1.29429
-1.24086
-1.19173
-1.14932
-1.11541
-1.09145
-1.38652
-1.36468
-1.3373
-1.30462
-1.26716
-1.22802
-1.19047
-1.15663
-1.12815
-1.10578
-1.30567
-1.28687
-1.26635
-1.24391
-1.21872
-1.19178
-1.16493
-1.13958
-1.1174
-1.09948
-1.22885
-1.21366
-1.19811
-1.18208
-1.16493
-1.14687
-1.12865
-1.11125
-1.09545
-1.08178
-1.16457
-1.15335
-1.14181
-1.12986
-1.11738
-1.10444
-1.09147
-1.07853
-1.06769
-1.05889
-1.11521
-1.1078
-1.09981
-1.09103
-1.08161
-1.0718
-1.06208
-1.05323
-1.04493
-1.04689
-1.07857
-1.07445
-1.06954
-1.0634
-1.05631
-1.04871
-1.04118
-1.03529
-1.02849
-1.03704
-1.05162
-1.0499
-1.04699
-1.04259
-1.03713
-1.03104
-1.02523
-1.02063
-1.01533
-0.998629
-1.03468
-1.03375
-1.03152
-1.02775
-1.02286
-1.01747
-1.01211
-1.00714
-1.00117
-0.98218
-1.0276
-1.02655
-1.02482
-1.02231
-1.01918
-1.01576
-1.0124
-1.00921
-1.00537
-0.999959
-1.02341
-1.0228
-1.0227
-1.02332
-1.02468
-1.02692
-1.03018
-1.03452
-1.03976
-1.04598
-1.01275
-1.01372
-1.01598
-1.0199
-1.02562
-1.03319
-1.04263
-1.05381
-1.06626
-1.08013
-0.993644
-0.996934
-1.00167
-1.00819
-1.01698
-1.02814
-1.04148
-1.05648
-1.07243
-1.0903
-0.970533
-0.976048
-0.982933
-0.991393
-1.0022
-1.01581
-1.03181
-1.04956
-1.06967
-1.09687
-0.954212
-0.961379
-0.969515
-0.978962
-0.991468
-1.00696
-1.02478
-1.04452
-1.06809
-1.09988
-0.969375
-0.97689
-0.9855
-0.99593
-1.01001
-1.02772
-1.04819
-1.07104
-1.09835
-1.13327
-1.02249
-1.0293
-1.03752
-1.04867
-1.06476
-1.0856
-1.11004
-1.13755
-1.16973
-1.20878
-1.0386
-1.20244
-0.758355
-0.46929
-0.295141
-0.114848
-0.0125462
0.021213
0.0217205
0.00967176
-1.11419
-1.24407
-0.697737
-0.362395
-0.22358
-0.0874097
-0.00690285
0.021279
0.0212971
0.00951448
-1.20001
-1.25998
-0.619598
-0.253954
-0.158058
-0.0614332
0.000400485
0.0234284
0.0220924
0.00977887
-1.28405
-1.25797
-0.537619
-0.161951
-0.103427
-0.0368513
0.0100233
0.0275881
0.0238536
0.0103274
-1.34521
-1.24428
-0.468385
-0.0984151
-0.0640547
-0.0141036
0.0214356
0.0330077
0.0261361
0.0110117
-1.37123
-1.21754
-0.422043
-0.0675683
-0.0401537
0.00641603
0.0332188
0.0387179
0.0284926
0.0116971
-1.3578
-1.1766
-0.404081
-0.0686832
-0.0270579
0.0233786
0.043462
0.0437892
0.0305505
0.0122787
-1.33027
-1.14859
-0.414017
-0.0916795
-0.0222058
0.0353921
0.0511698
0.0477273
0.0320988
0.012696
-1.34943
-1.17296
-0.461786
-0.128224
-0.0248653
0.0420994
0.0560625
0.0503328
0.0330337
0.0129163
-1.42769
-1.26317
-0.555276
-0.178167
-0.0350308
0.0435892
0.0581287
0.0515204
0.0332997
0.0129181
-0.892747
-0.890479
-0.732666
-0.617808
-0.395355
-0.148359
-0.0151634
0.0270244
0.026503
0.0116918
-0.887305
-0.882155
-0.729071
-0.620731
-0.401471
-0.150825
-0.0156118
0.0268927
0.0263591
0.0115866
-0.897542
-0.918753
-0.739882
-0.621107
-0.404346
-0.153271
-0.0164947
0.0259616
0.025655
0.0112828
-0.927044
-1.00064
-0.757492
-0.607086
-0.396112
-0.150235
-0.0169306
0.0243191
0.0244192
0.0107632
-0.977024
-1.12102
-0.772218
-0.548836
-0.353732
-0.137871
-0.0163388
0.0223494
0.0229655
0.0101807
-0.772343
-0.907109
-0.999377
-1.05911
-1.07654
-1.08262
-1.06823
-1.04185
-1.0117
-0.973754
-0.77313
-0.910013
-1.00094
-1.05929
-1.07174
-1.07804
-1.06152
-1.03159
-1.00706
-0.965824
-0.775464
-0.91388
-1.00397
-1.06074
-1.0706
-1.07688
-1.05747
-1.03151
-1.01016
-0.977787
-0.780991
-0.921269
-1.01163
-1.06636
-1.07705
-1.07973
-1.06065
-1.0406
-1.02284
-1.01241
-0.790485
-0.933071
-1.02428
-1.07703
-1.08971
-1.08668
-1.07045
-1.0518
-1.03728
-1.04676
1.4366
1.4279
1.41284
1.39424
1.37289
1.34783
1.31842
1.28643
1.25943
1.24706
1.53756
1.54011
1.5366
1.52891
1.51811
1.50368
1.48514
1.46384
1.44582
1.43805
1.6348
1.64248
1.64579
1.64595
1.64369
1.63857
1.62998
1.61868
1.60907
1.60565
1.72027
1.73223
1.7416
1.74882
1.75411
1.75694
1.75662
1.75351
1.75078
1.75124
1.79229
1.80751
1.82119
1.83338
1.84408
1.85272
1.85861
1.86182
1.86454
1.86817
1.8463
1.86364
1.88059
1.89677
1.91182
1.92514
1.93601
1.94422
1.95115
1.95735
1.88135
1.90002
1.91905
1.93774
1.95548
1.97164
1.98551
1.99673
2.00627
2.0141
1.89558
1.91465
1.93457
1.95441
1.97336
1.99076
2.00589
2.01835
2.02895
2.03744
1.88838
1.90694
1.92653
1.94604
1.96457
1.98145
1.99594
2.0077
2.01768
2.02578
1.85943
1.87656
1.89456
1.91225
1.92872
1.94327
1.95519
1.96426
1.97189
1.97853
-0.617491
-0.658246
-0.711873
-0.778897
-0.85998
-0.954376
-1.05887
-1.16341
-1.24756
-1.28639
-0.386492
-0.43318
-0.491476
-0.562101
-0.6461
-0.743509
-0.852816
-0.963929
-1.05461
-1.09585
-0.127294
-0.179467
-0.242075
-0.315532
-0.401048
-0.499176
-0.608325
-0.720021
-0.816051
-0.858111
0.140343
0.0843572
0.0192099
-0.055215
-0.140072
-0.236074
-0.34196
-0.451046
-0.543954
-0.587481
0.39721
0.340285
0.275645
0.203335
0.122265
0.0315127
-0.0681084
-0.170626
-0.257155
-0.299036
0.629492
0.575565
0.515323
0.448808
0.37492
0.292593
0.202362
0.109545
0.0314917
-0.00676011
0.83416
0.786868
0.734422
0.676716
0.612585
0.540897
0.462027
0.380714
0.312492
0.279036
1.01835
0.979112
0.935647
0.887764
0.834175
0.77372
0.706702
0.637321
0.579258
0.551007
1.19047
1.15835
1.12212
1.08252
1.03836
0.988387
0.932777
0.875081
0.827012
0.80398
1.34141
1.3161
1.28576
1.25349
1.21863
1.17969
1.13633
1.09108
1.05342
1.03571
1.66113
1.56973
1.54911
1.54084
1.53761
1.54951
1.56559
1.59243
1.59366
1.54882
1.64349
1.56856
1.54888
1.542
1.53906
1.55147
1.57014
1.60167
1.61977
1.61337
1.62758
1.5664
1.54772
1.5421
1.53957
1.55224
1.57349
1.6109
1.6453
1.67585
1.61327
1.56342
1.54583
1.54127
1.53918
1.55188
1.57525
1.61709
1.66546
1.72546
1.60038
1.55978
1.54334
1.53963
1.53799
1.5505
1.57529
1.62035
1.6801
1.76378
1.58873
1.55559
1.54035
1.53722
1.53601
1.5481
1.57361
1.62067
1.68892
1.79015
1.57821
1.55098
1.53693
1.5341
1.53325
1.54466
1.57026
1.61802
1.69171
1.80457
1.56867
1.54604
1.53314
1.53034
1.52974
1.54018
1.56529
1.61244
1.68839
1.80715
1.56004
1.54086
1.52903
1.52599
1.52551
1.53465
1.55873
1.60402
1.67913
1.79768
1.5522
1.53552
1.52465
1.5211
1.52061
1.52806
1.5506
1.59284
1.66394
1.77622
1.82866
1.57349
1.5417
1.52808
1.52694
1.53542
1.53963
1.54701
1.4952
1.44795
1.75421
1.56747
1.54269
1.53091
1.52851
1.5365
1.54039
1.54836
1.49765
1.44511
1.73121
1.57228
1.54628
1.53385
1.53037
1.53853
1.54316
1.55267
1.50801
1.44623
1.7044
1.57173
1.5479
1.53652
1.53261
1.54158
1.54888
1.56173
1.52737
1.45835
1.68106
1.57064
1.54874
1.53885
1.53511
1.54545
1.55615
1.57486
1.55518
1.48143
1.22686
1.12743
0.99364
0.821547
0.613484
0.376071
0.120143
-0.138432
-0.382141
-0.595596
1.22176
1.12553
0.996966
0.829754
0.626727
0.392808
0.137402
-0.123862
-0.372764
-0.592094
1.23263
1.13272
1.00233
0.836979
0.637614
0.406155
0.150547
-0.113476
-0.366823
-0.590935
1.26433
1.1513
1.01098
0.843837
0.646392
0.416187
0.159709
-0.107111
-0.36445
-0.592926
1.31769
1.18355
1.02502
0.850393
0.65169
0.421969
0.165237
-0.103685
-0.365007
-0.598399
)
;

boundaryField
{
    left
    {
        type            zeroGradient;
    }
    right
    {
        type            fixedValue;
        value           uniform 0;
    }
    down
    {
        type            zeroGradient;
    }
    up
    {
        type            zeroGradient;
    }
    cylinder
    {
        type            zeroGradient;
    }
    defaultFaces
    {
        type            empty;
    }
}


// ************************************************************************* //
