/*--------------------------------*- C++ -*----------------------------------*\
  =========                 |
  \\      /  F ield         | OpenFOAM: The Open Source CFD Toolbox
   \\    /   O peration     | Website:  https://openfoam.org
    \\  /    A nd           | Version:  13
     \\/     M anipulation  |
\*---------------------------------------------------------------------------*/
FoamFile
{
    format      ascii;
    class       surfaceScalarField;
    location    "3.2";
    object      phi;
}
// * * * * * * * * * * * * * * * * * * * * * * * * * * * * * * * * * * * * * //

dimensions      [0 3 -1 0 0 0 0];

internalField   nonuniform List<scalar> 
3485
(
-0.00190092
0.00393455
-0.00203363
-0.00428424
0.00756475
-0.00518143
-0.00486593
0.0080667
-0.00748502
-0.00193271
0.00572931
-0.00866252
0.00593642
0.000453777
-0.00832291
0.0197565
-0.0076676
-0.00615245
0.0403725
-0.0187197
-0.00189632
0.0684757
-0.0322945
0.00419129
0.104327
-0.0478159
0.0119647
-0.0553936
0.0166045
0.143116
-0.000829679
0.00476423
-0.000876451
0.00761152
0.00191448
0.00527577
0.00932265
-0.00167886
0.0227066
-0.0129302
0.0430167
-0.0279778
0.0702496
-0.0459526
0.103669
-0.0657137
0.141909
-0.0860565
-0.101713
0.188229
0.000352521
0.00441171
0.00323785
0.0047262
0.0105451
-0.00203144
0.0239356
-0.0150694
0.0443616
-0.0333562
0.0717206
-0.0553367
0.104745
-0.0789768
0.141231
-0.1022
0.178647
-0.123472
-0.141095
0.218028
0.00122656
0.00318515
0.00690459
-0.000951836
0.0189021
-0.014029
0.0383351
-0.0345023
0.0649945
-0.0600156
0.0971169
-0.0874591
0.1319
-0.113759
0.166338
-0.136639
0.197786
-0.15492
-0.168352
0.225044
0.00222607
0.000959076
0.0109338
-0.00965954
0.0276499
-0.030745
0.0522874
-0.0591398
0.082693
-0.0904213
0.115345
-0.120111
0.146644
-0.145058
0.173909
-0.163903
0.195744
-0.176755
-0.184976
0.212368
0.00345266
-0.00249358
0.0153594
-0.0215663
0.0361528
-0.0515384
0.0636998
-0.0866868
0.0938914
-0.120613
0.122512
-0.148732
0.146698
-0.169244
0.165359
-0.182564
0.178899
-0.190295
-0.194224
0.188147
0.00479336
-0.00728694
0.0195604
-0.0363333
0.0427473
-0.0747254
0.0700056
-0.113945
0.0963795
-0.146987
0.118512
-0.170865
0.135241
-0.185973
0.147058
-0.194381
0.15514
-0.198377
-0.199883
0.160799
0.00604505
-0.013332
0.0226867
-0.052975
0.0459487
-0.0979873
0.070125
-0.138121
0.0909057
-0.167767
0.106554
-0.186514
0.117333
-0.196751
0.124396
-0.201444
0.128992
-0.202972
-0.2028
0.131908
0.00698295
-0.0203149
0.0241069
-0.070099
0.0453375
-0.119218
0.0649815
-0.157765
0.0801281
-0.182914
0.0904272
-0.196813
0.0968558
-0.20318
0.100689
-0.205277
0.102928
-0.205211
-0.204055
0.104183
0.00745036
-0.0277653
0.0236517
-0.0863003
0.0415425
-0.137109
0.0563658
-0.172589
0.0665747
-0.193123
0.0726631
-0.202901
0.0758434
-0.20636
0.0772456
-0.20668
0.0776218
-0.205588
0.0772937
-0.203727
-0.00381037
0.0203162
-0.0165058
-0.0127635
0.0425958
-0.0336427
-0.02465
0.0526124
-0.0407259
-0.0379657
0.0558915
-0.0425758
-0.0518868
0.0561833
-0.0422622
-0.0660359
0.05536
-0.0412109
-0.0802349
0.0540746
-0.0398756
-0.0943612
0.0524586
-0.0383323
-0.108303
0.0505257
-0.0365842
0.0486263
-0.122007
-0.0349224
-0.00105543
0.0213716
-0.00562888
0.0471693
-0.013247
0.0602305
-0.0227325
0.0653769
-0.0330705
0.0665214
-0.0436421
0.0659316
-0.054129
0.0645615
-0.0643502
0.0626798
-0.0741538
0.0603292
0.0578028
-0.0833302
0.00195103
0.0194206
0.00294243
0.0461779
0.00119868
0.0619743
-0.00289898
0.0694746
-0.00833119
0.0719536
-0.0142373
0.0718377
-0.0201014
0.0704256
-0.0256612
0.0682396
-0.0307479
0.0654159
0.0621252
-0.0350703
0.00428128
0.0151393
0.0106622
0.0397969
0.0155216
0.0571149
0.0178726
0.0671236
0.0182065
0.0716198
0.0174384
0.0726057
0.016328
0.071536
0.0153434
0.0692242
0.0147349
0.0660244
0.0620865
0.0147736
0.00529098
0.0098483
0.0154773
0.0296106
0.0263075
0.0462847
0.0355185
0.0579126
0.0425662
0.0645721
0.0478816
0.0672903
0.0522019
0.0672157
0.0561894
0.0652367
0.0602955
0.0619184
0.0572908
0.0650912
0.00483705
0.00501125
0.0159142
0.0185334
0.0299197
0.0322792
0.0442496
0.0435827
0.0574643
0.0513575
0.0691317
0.0556229
0.079431
0.0569163
0.0887825
0.0558853
0.0975604
0.0531404
0.0485875
0.106264
0.00340452
0.00160673
0.0124726
0.00946528
0.0255616
0.0191902
0.0407802
0.0283641
0.0565944
0.0355433
0.072057
0.0401603
0.0867426
0.0422307
0.100561
0.0420667
0.11355
0.0401514
0.0360363
0.126101
0.00162542
-1.86904e-05
0.00703104
0.00405966
0.0160213
0.0101999
0.027841
0.0165444
0.0415129
0.0218714
0.0561554
0.0255178
0.0711039
0.0272822
0.0859167
0.0272539
0.100451
0.0256172
0.0212651
0.115222
-0.000233475
0.000214784
0.00090622
0.00291997
0.00441325
0.0066929
0.0105072
0.0104505
0.0189843
0.0133943
0.0294892
0.015013
0.0416836
0.0150877
0.0553317
0.0136058
0.0704825
0.0104663
0.00437644
0.0873712
-0.00181884
-0.00408031
-0.00487243
-0.00308448
0.00198687
0.0108474
0.0240388
0.0418359
0.0642669
0.0852479
-0.184467
0.285761
-0.223301
-0.132458
-0.0434442
-0.00856501
-0.0209103
-0.291025
0.179478
0.0673948
-0.364386
0.276081
0.124396
-0.372674
0.315672
0.160298
-0.301014
0.265112
0.183475
-0.234584
0.211407
0.197632
-0.164958
0.150801
0.206876
-0.127599
0.118355
-0.0797292
0.0756034
-0.126902
0.329333
-0.0816384
-0.0887077
0.010266
-0.38293
0.0904101
-0.44453
0.141706
-0.423969
0.17285
-0.332158
0.191743
-0.253477
0.202851
-0.176066
0.210031
-0.134779
-0.0829247
-0.0611528
0.355415
-0.0215351
-0.128325
0.0496135
-0.454078
0.116724
-0.51164
0.160376
-0.467621
0.186382
-0.358165
0.200913
-0.268008
0.20877
-0.183924
0.213621
-0.13963
-0.0850906
0.0043668
0.365822
0.0358796
-0.159838
0.0910831
-0.509282
0.144225
-0.564782
0.178751
-0.502148
0.19934
-0.378753
0.209948
-0.278616
0.214878
-0.188854
0.21745
-0.142201
-0.0862306
0.0643172
0.366596
0.0880442
-0.183565
0.130693
-0.55193
0.171079
-0.605168
0.196137
-0.527206
0.210938
-0.393555
0.218007
-0.285684
0.220583
-0.191431
0.22122
-0.142838
-0.0864854
0.115305
0.357555
0.133712
-0.201972
0.165609
-0.583827
0.195097
-0.634656
0.211808
-0.543916
0.220972
-0.402719
0.224715
-0.289427
0.225439
-0.192155
0.224631
-0.142029
-0.086108
0.153313
0.330344
0.171374
-0.220033
0.194478
-0.606931
0.21483
-0.655008
0.224987
-0.554074
0.229383
-0.407114
0.230068
-0.290112
0.229259
-0.191346
0.227457
-0.140228
-0.0854038
0.1748
0.270765
0.200684
-0.245917
0.216898
-0.623145
0.22976
-0.66787
0.235229
-0.559544
0.236133
-0.408018
0.234233
-0.288212
0.232084
-0.189197
0.229606
-0.137749
-0.0846611
0.184381
0.173756
0.222427
-0.283963
0.232805
-0.633524
0.239742
-0.674806
0.242344
-0.562146
0.241166
-0.40684
0.237379
-0.284424
0.234086
-0.185905
0.231107
-0.134769
-0.0841065
0.192964
0.0660396
0.236555
-0.327554
0.241915
-0.638884
0.245652
-0.678543
0.246721
-0.563216
0.244579
-0.404698
0.239634
-0.279479
0.23546
-0.18173
0.232082
-0.131392
-0.0838953
0.563147
-0.0357566
-0.461351
0.647827
-0.412234
0.636771
-0.627827
0.583762
-0.625533
0.521053
-0.500508
0.466094
-0.349738
0.42169
-0.235075
0.390417
-0.150457
0.367913
-0.108888
-0.0717332
0.742028
-0.101589
-0.676196
0.737346
-0.407552
0.671326
-0.561807
0.59276
-0.546967
0.524603
-0.432351
0.470066
-0.295202
0.426427
-0.191436
0.394527
-0.118557
0.370501
-0.0848621
-0.0582146
0.776841
-0.138572
-0.739858
0.729837
-0.360548
0.66247
-0.494441
0.601504
-0.486
0.542977
-0.373824
0.486952
-0.239178
0.438247
-0.14273
0.401819
-0.0821293
0.374307
-0.057351
-0.0427697
0.761514
-0.157124
-0.742962
0.723214
-0.322248
0.669485
-0.440712
0.608383
-0.424898
0.542811
-0.308252
0.481536
-0.177903
0.431826
-0.0930201
0.396951
-0.0472538
0.371436
-0.0318364
-0.028026
0.742737
-0.167856
-0.732005
0.713697
-0.293208
0.663132
-0.390147
0.601573
-0.363339
0.536255
-0.242934
0.47565
-0.117298
0.426421
-0.0437905
0.392113
-0.0129466
0.367558
-0.00728071
-0.013854
0.726059
-0.172811
-0.721104
0.701447
-0.268597
0.647648
-0.336348
0.576166
-0.291857
0.504277
-0.171045
0.445614
-0.058635
0.402741
-0.000917575
0.374849
0.0149462
0.355709
0.0118589
-0.00238218
0.704907
-0.167993
-0.709726
0.669978
-0.233668
0.596391
-0.26276
0.508767
-0.204233
0.434752
-0.0970309
0.38613
-0.0100126
0.357114
0.0280985
0.341267
0.0307927
0.331344
0.0217825
0.00455797
0.646241
-0.138842
-0.675391
0.579467
-0.166895
0.4762
-0.159493
0.377131
-0.105163
0.314088
-0.0339878
0.287624
0.0164506
0.281287
0.0344355
0.282115
0.0299648
0.283712
0.0201857
0.00599505
0.477543
-0.0718353
-0.54455
0.375057
-0.0644085
0.262688
-0.047124
0.183181
-0.025656
0.15243
-0.0032371
0.156047
0.0128334
0.172214
0.0182688
0.187194
0.0149849
0.19752
0.00985943
0.00321777
0.150274
-0.22211
0.0858658
0.0387418
0.0130858
0.00984873
0.0226822
0.040951
0.0559359
0.0657953
0.557744
0.0658173
-0.546267
0.56971
0.092217
0.585062
0.116556
0.601176
0.144685
0.618296
0.171027
0.634359
0.196305
0.635688
0.223714
0.619764
0.233952
0.549399
0.258595
0.231164
0.53765
0.0542643
-0.526097
0.551286
0.078581
0.567598
0.100244
0.588551
0.123731
0.60988
0.149698
0.637123
0.169063
0.659468
0.20137
0.681014
0.212405
0.6905
0.249108
0.245468
0.523237
0.0443573
-0.51333
0.537095
0.0647228
0.552665
0.0846744
0.573007
0.103389
0.595165
0.12754
0.621259
0.142968
0.651017
0.171613
0.680216
0.183206
0.715939
0.213385
0.221549
0.512437
0.0352339
-0.503314
0.525696
0.0514636
0.541078
0.0692927
0.559892
0.0845743
0.582481
0.104951
0.606853
0.118597
0.637836
0.140629
0.668276
0.152767
0.707294
0.174367
0.185881
0.503165
0.0261347
-0.494066
0.515701
0.0389279
0.531195
0.0537983
0.549353
0.0664164
0.571881
0.0824233
0.596074
0.0944039
0.626103
0.110599
0.657
0.12187
0.694191
0.137176
0.148067
0.494664
0.0169971
-0.485526
0.506777
0.0268143
0.522267
0.0383082
0.540404
0.0482798
0.562659
0.0601683
0.58719
0.0698731
0.616331
0.0814584
0.647516
0.0906853
0.683271
0.101421
0.110234
0.484217
0.00817377
-0.475394
0.495951
0.0150797
0.511133
0.0231269
0.529252
0.0301608
0.55117
0.0382504
0.575952
0.0450909
0.60468
0.0527306
0.636189
0.0591757
0.671661
0.0659491
0.0721696
0.46015
0.000730475
-0.452706
0.470483
0.00474637
0.484278
0.00933157
0.501173
0.0132656
0.521709
0.017715
0.545426
0.0213735
0.572851
0.0253055
0.603474
0.028553
0.637825
0.0315981
0.0346036
0.387774
-0.00263802
-0.384405
0.393708
-0.00118745
0.402716
0.000323456
0.414349
0.00163227
0.429067
0.00299758
0.446446
0.00399444
0.466791
0.00496046
0.489829
0.00551482
0.515501
0.00592582
0.00555427
0.192394
-0.195032
0.191206
0.19153
0.193162
0.19616
0.200154
0.205115
0.210629
0.216555
0.072883
0.149761
-0.137922
-0.0847211
0.0620252
0.151936
-0.141078
0.0520245
0.154561
-0.14456
0.042337
0.158088
-0.148401
0.0327042
0.161858
-0.152225
0.0232104
0.164747
-0.155254
0.014273
0.164043
-0.155106
0.00670705
0.153725
-0.146159
0.00164011
0.123161
-0.118094
0.0580204
-0.0563803
0.06898
0.160327
-0.0795464
0.0585695
0.162346
0.0485089
0.164621
0.0388032
0.167794
0.029346
0.171315
0.0202373
0.173856
0.0119258
0.172355
0.00521527
0.160436
0.00105374
0.127322
0.0590742
0.0618477
0.16973
-0.0712504
0.0521609
0.172033
0.042604
0.174178
0.033367
0.177031
0.0244825
0.180199
0.0161109
0.182228
0.00871678
0.179749
0.00315726
0.165995
0.000213739
0.130266
0.0592879
0.0505443
0.177726
-0.0585412
0.0421675
0.18041
0.0337137
0.182632
0.0254451
0.1853
0.0175291
0.188115
0.0102474
0.189509
0.00418639
0.18581
0.000126552
0.170055
-0.000898314
0.131291
0.0583896
0.0374508
0.184711
-0.0444351
0.0302556
0.187605
0.0229505
0.189937
0.0157826
0.192468
0.00902889
0.194869
0.0030738
0.195464
-0.0013069
0.190191
-0.00306324
0.171811
-0.00214307
0.13037
0.0562465
0.022186
0.190508
-0.0279829
0.0162689
0.193522
0.0102704
0.195935
0.0044165
0.198322
-0.00093458
0.20022
-0.00513448
0.199664
-0.0073751
0.192431
-0.00685102
0.171287
-0.00348693
0.127006
0.0527596
0.00593271
0.195495
-0.0109198
0.00106768
0.198387
-0.0037208
0.200724
-0.00821038
0.202811
-0.0119646
0.203974
-0.0142864
0.201986
-0.0141684
0.192313
-0.0108046
0.167924
-0.00478452
0.120986
0.0479751
-0.0123215
0.199386
0.00843046
-0.0159868
0.202052
-0.0194415
0.204178
-0.0224212
0.205791
-0.0243659
0.205919
-0.024373
0.201993
-0.0213699
0.18931
-0.0147762
0.16133
-0.0059517
0.112162
0.0420234
-0.0321876
0.202175
0.0293986
-0.0346446
0.204509
-0.0367104
0.206244
-0.0380107
0.207091
-0.0378183
0.205727
-0.035067
0.199242
-0.0286824
0.182925
-0.018501
0.151149
-0.00686235
0.100523
0.035161
-0.054157
0.052605
-0.0552352
-0.0556705
-0.0549397
-0.052114
-0.0459951
-0.0356583
-0.0216184
-0.00739575
0.108311
0.0400962
-0.120397
-0.0280092
0.0959524
0.0411889
-0.0288307
0.0833108
0.0423706
-0.029729
0.0703603
0.0436333
-0.0306828
0.0570835
0.0449578
-0.031681
0.0435052
0.0462003
-0.0326221
0.0298102
0.046798
-0.0331029
0.0166349
0.0451603
-0.031985
0.00560028
0.0378701
-0.0268354
0.0192117
-0.0136114
0.107425
0.0521851
-0.119514
0.0951416
0.0534723
0.0825868
0.0549253
0.06973
0.0564902
0.0565457
0.0581421
0.043057
0.059689
0.0294564
0.0603985
0.0163938
0.0582229
0.00549183
0.048772
0.0247035
0.10609
0.0641574
-0.118062
0.0938621
0.0657
0.0813886
0.0673988
0.0686425
0.0692363
0.0556004
0.0711841
0.0422793
0.0730102
0.0288672
0.0738106
0.0160171
0.0710731
0.00533747
0.0594517
0.030041
0.104117
0.0761564
-0.116116
0.0920081
0.0778086
0.0796454
0.0797614
0.0670072
0.0818746
0.0540911
0.0841002
0.0409481
0.0861532
0.0277962
0.0869625
0.0152999
0.0835693
0.00503408
0.0697175
0.035075
0.10156
0.0879201
-0.113323
0.0896577
0.0897106
0.0775904
0.0918288
0.0652839
0.0941811
0.0526862
0.0966979
0.0398276
0.0990117
0.0269477
0.0998425
0.0147519
0.095765
0.00481647
0.079653
0.0398915
0.0977955
0.0997579
-0.109633
0.0859737
0.101532
0.0740029
0.1038
0.0618959
0.106288
0.0496401
0.108954
0.0372583
0.111394
0.0249711
0.11213
0.0134725
0.107264
0.0042834
0.0888422
0.0441749
0.093863
0.110927
-0.105032
0.0826962
0.112699
0.0713289
0.115167
0.0596656
0.117951
0.0477217
0.120898
0.0356157
0.123499
0.023662
0.124083
0.0126081
0.118317
0.00393593
0.0975143
0.0481108
0.0864587
0.12195
-0.0974817
0.0756855
0.123472
0.0649727
0.12588
0.0541828
0.128741
0.0431965
0.131884
0.0320452
0.134651
0.0210427
0.135086
0.0109734
0.128387
0.00328161
0.105206
0.0513925
0.0818222
0.131176
-0.0910482
0.0721598
0.133135
0.0618981
0.136141
0.0512767
0.139363
0.040467
0.142694
0.0296271
0.145491
0.0191168
0.145596
0.00972561
0.137778
0.00279454
0.112137
0.054187
0.0707346
-0.0774813
0.0627915
0.054373
0.0453349
0.0358037
0.0260408
0.0165313
0.00814994
0.00219333
0.201628
0.00555904
-0.00919701
0.205569
0.0271023
-0.0310437
0.209101
0.0343908
-0.0379231
0.211696
0.052629
-0.0552238
0.213457
0.0646979
-0.0664591
0.212558
0.0856655
-0.0847656
0.207781
0.118815
-0.114039
0.195919
0.150161
-0.138299
0.170331
0.204263
-0.178676
0.265497
-0.215563
0.20127
0.00227885
0.204834
0.0235384
0.208226
0.0309985
0.210243
0.0506122
0.212032
0.0629084
0.210372
0.0873257
0.205758
0.123429
0.193492
0.162428
0.168183
0.229572
0.314166
0.200867
-0.000597972
0.203916
0.0204891
0.20715
0.0277643
0.208428
0.0493342
0.210227
0.0611101
0.207555
0.0899973
0.2031
0.127884
0.189923
0.175604
0.165351
0.254145
0.361454
0.200401
-0.00300949
0.202824
0.0180662
0.20584
0.0247482
0.206253
0.0489219
0.208024
0.0593387
0.204167
0.0938542
0.199875
0.132176
0.185219
0.19026
0.161893
0.277471
0.407232
0.199853
-0.00487284
0.201574
0.0163457
0.204285
0.0220373
0.203771
0.0494355
0.205395
0.0577149
0.200249
0.0989999
0.196037
0.136388
0.179655
0.206642
0.157735
0.299391
0.451643
0.199206
-0.00608898
0.200184
0.0153675
0.202479
0.0197421
0.201026
0.0508891
0.202325
0.0564156
0.195802
0.105523
0.19157
0.14062
0.173002
0.225211
0.153181
0.319211
0.495191
0.198449
-0.00654782
0.198678
0.015138
0.200421
0.017999
0.198038
0.0532726
0.198783
0.0556702
0.190908
0.113398
0.186245
0.145283
0.165878
0.245578
0.147547
0.337542
0.537706
0.19758
-0.00613763
0.197076
0.0156421
0.198113
0.0169615
0.194813
0.0565727
0.194776
0.0557072
0.185546
0.122627
0.180189
0.150641
0.157378
0.268389
0.141718
0.353202
0.581942
0.196609
-0.00475648
0.195389
0.0168619
0.195568
0.0167825
0.191357
0.0607836
0.190262
0.0568022
0.179874
0.133015
0.173406
0.157109
0.15015
0.291645
0.134889
0.368463
0.625783
0.195583
-0.00234929
0.193584
0.0188605
0.192867
0.0175
0.187579
0.0660709
0.185157
0.0592242
0.173194
0.144978
0.164699
0.165604
0.139741
0.316603
0.128742
0.379462
0.677044
0.304507
-0.0048465
0.308608
0.0147603
0.317472
0.00863534
0.319251
0.064292
0.331911
0.0465645
0.332783
0.144106
0.353056
0.145331
0.359216
0.310443
0.412159
0.32652
0.606246
0.482957
0.304667
-0.00750312
0.310308
0.00911942
0.319843
-0.000900167
0.323144
0.0609915
0.337514
0.0321937
0.341615
0.140005
0.362809
0.124137
0.379135
0.294116
0.428346
0.277308
0.53857
0.496023
0.305011
-0.0105041
0.312771
0.0013601
0.321841
-0.00997044
0.328179
0.0546536
0.342592
0.0177808
0.350636
0.131961
0.370777
0.103997
0.394246
0.270647
0.438386
0.233168
0.465943
0.511013
0.305932
-0.0144256
0.315712
-0.00842058
0.323744
-0.0180018
0.334627
0.0437706
0.346704
0.00570388
0.358631
0.120033
0.376542
0.0860865
0.405408
0.24178
0.447377
0.191199
0.390309
0.523011
0.307668
-0.0200838
0.31893
-0.0196827
0.326698
-0.0257697
0.342187
0.0282815
0.351572
-0.00368038
0.367402
0.104203
0.382955
0.0705338
0.416944
0.207791
0.453139
0.155005
0.315622
0.527825
0.310115
-0.0281882
0.32262
-0.0321879
0.331205
-0.0343545
0.349965
0.00952088
0.356368
-0.0100829
0.375073
0.0854977
0.38881
0.0567968
0.425867
0.170734
0.458529
0.122342
0.244489
0.529663
0.313305
-0.0394825
0.326846
-0.0457294
0.336266
-0.0437749
0.355098
-0.0093108
0.357232
-0.0122169
0.37857
0.0641603
0.391345
0.0440219
0.431683
0.130396
0.461864
0.0921604
0.178539
0.527814
0.316321
-0.053793
0.327775
-0.0571836
0.333724
-0.0497242
0.345276
-0.0208622
0.342663
-0.00960477
0.36597
0.0408533
0.379381
0.030611
0.423714
0.0860632
0.453908
0.0619666
0.114256
0.51819
0.309342
-0.0611244
0.303966
-0.0518078
0.292664
-0.0384221
0.287307
-0.0155052
0.28182
-0.00411761
0.304947
0.0177258
0.321172
0.0143856
0.368944
0.038292
0.402718
0.0281925
0.0479696
0.469005
0.240886
0.189078
0.150656
0.135151
0.131033
0.148759
0.163145
0.201437
0.229629
0.277599
0.496618
-0.0983821
0.501178
-0.0841064
0.504845
-0.0749175
0.507862
-0.0615583
0.512702
-0.049275
0.517108
-0.0323885
0.52337
-0.0171821
0.529379
0.00242107
0.537874
0.0209039
0.0442117
0.496899
-0.0992582
0.49748
-0.084688
0.497549
-0.0749862
0.497575
-0.061584
0.499246
-0.0509464
0.501164
-0.0343064
0.50565
-0.0216679
0.510305
-0.00223411
0.517922
0.0132874
0.0360363
0.50435
-0.0925953
0.500877
-0.0812144
0.497551
-0.0716601
0.495285
-0.0593179
0.493809
-0.0494706
0.494336
-0.0348337
0.496034
-0.0233662
0.499698
-0.00589776
0.505058
0.00792766
0.027764
0.512153
-0.0817377
0.504205
-0.073266
0.497775
-0.0652304
0.493619
-0.0551613
0.489911
-0.0457628
0.488928
-0.0338511
0.48853
-0.0229682
0.491522
-0.00888922
0.495442
0.00400775
0.019892
0.515881
-0.0697937
0.505844
-0.0632286
0.497215
-0.0566014
0.490863
-0.0488091
0.485639
-0.0405394
0.48304
-0.0312518
0.481681
-0.0216092
0.483569
-0.0107772
0.487029
0.000547385
0.0128555
0.51635
-0.0564811
0.50463
-0.0515079
0.494486
-0.0464581
0.486458
-0.040781
0.480288
-0.0343691
0.476556
-0.0275195
0.474818
-0.0198711
0.475876
-0.0118358
0.479147
-0.00272333
0.00647637
0.513298
-0.0419651
0.500383
-0.0385929
0.489226
-0.0353011
0.480162
-0.0317169
0.473281
-0.0274879
0.46872
-0.0229588
0.466474
-0.0176249
0.466765
-0.0121273
0.469691
-0.00564891
0.000773923
0.502201
-0.0259757
0.488011
-0.0244031
0.475726
-0.0230162
0.465481
-0.0214722
0.457427
-0.019433
0.451539
-0.0170708
0.448015
-0.0141013
0.446841
-0.0109532
0.448388
-0.00719642
-0.00354403
0.452595
-0.00956637
0.437951
-0.00975863
0.424895
-0.00996012
0.413389
-0.00996608
0.403578
-0.00962183
0.395489
-0.00898198
0.389411
-0.00802312
0.385371
-0.0069139
0.383742
-0.00556713
-0.00420742
0.268032
0.258274
0.248313
0.238347
0.228725
0.219744
0.21172
0.204806
0.199239
0.00674263
0.0413859
-0.0481285
0.0161157
0.107878
-0.117251
0.0225477
0.152764
-0.159197
0.0249901
0.177403
-0.179845
0.024348
0.188179
-0.187537
0.02184
0.191044
-0.188536
0.0183929
0.189521
-0.186074
0.0146427
0.184627
-0.180877
0.0111647
0.17517
-0.171692
0.157902
0.0085162
-0.155253
0.00806081
0.0333251
0.0215153
0.0944239
0.033058
0.141222
0.0402424
0.170218
0.0434692
0.184953
0.0439951
0.190518
0.042916
0.1906
0.0408822
0.186661
0.0381023
0.17795
0.161678
0.0343265
0.00858977
0.0247353
0.0254555
0.0775582
0.04236
0.124317
0.055101
0.157477
0.0630674
0.176986
0.0672651
0.18632
0.0688794
0.188986
0.068607
0.186933
0.0664689
0.180088
0.166546
0.0616002
0.00821167
0.0165236
0.0270065
0.0587634
0.0487895
0.102534
0.0677111
0.138556
0.0815152
0.163182
0.0904589
0.177376
0.0956667
0.183778
0.0980251
0.184575
0.0975525
0.180561
0.170781
0.0933177
0.00703633
0.00948727
0.0256214
0.0401784
0.0505351
0.0776205
0.0754507
0.11364
0.096185
0.142448
0.111387
0.162174
0.121531
0.173635
0.127548
0.178557
0.1299
0.178208
0.173305
0.127376
0.00537487
0.00411241
0.0215934
0.0239598
0.0465549
0.052659
0.0753776
0.0848175
0.102959
0.114867
0.125965
0.139168
0.143183
0.156417
0.154838
0.166903
0.161465
0.171582
0.171632
0.163138
0.00363611
0.000476292
0.0161306
0.0114653
0.0378584
0.0309313
0.0665632
0.0561127
0.0981705
0.0832594
0.128562
0.108776
0.154773
0.130205
0.175319
0.146356
0.189997
0.156904
0.163663
0.197966
0.00215008
-0.00167379
0.0106628
0.00295257
0.0271233
0.0144708
0.0515417
0.0316943
0.0820266
0.0527744
0.115452
0.0753508
0.148525
0.097132
0.178357
0.116525
0.203296
0.131964
0.143324
0.223635
0.00104033
-0.00271412
0.00610042
-0.00210752
0.0169866
0.00358457
0.0348578
0.0138231
0.0597203
0.027912
0.0902939
0.0447773
0.124396
0.0630295
0.159586
0.0813359
0.192523
0.0990274
0.109837
0.226009
0.000214002
-0.00292812
0.00251212
-0.00440563
0.00854966
-0.00245297
0.0197697
0.00260311
0.0371075
0.0105741
0.0607392
0.0211456
0.0899816
0.0337871
0.123599
0.0477184
0.159682
0.0629441
0.0749229
0.194597
-0.000455996
-0.00247213
-0.000169476
-0.00469216
0.00224529
-0.00486773
0.00803377
-0.00318537
0.0182401
0.000367807
0.0336974
0.00568823
0.0546985
0.012786
0.0809592
0.0214576
0.112151
0.0317528
0.0455217
0.141552
-0.000572011
-0.00190012
-0.000970548
-0.00429362
-0.000258247
-0.00558003
0.00233295
-0.00577657
0.00754568
-0.00484492
0.0159635
-0.0027296
0.0280999
0.000649635
0.0441594
0.00539812
0.0639971
0.0119152
0.0218345
0.0876843
4.87006e-05
-0.00194882
0.000550735
-0.00479565
0.00178958
-0.00681888
0.00401853
-0.00800551
0.00750122
-0.00832762
0.0125292
-0.00775755
0.0194384
-0.00625961
0.0285805
-0.00374393
0.0405433
-4.7676e-05
0.00575528
0.0566225
0.000644985
-0.0025938
0.00198226
-0.00613292
0.00384827
-0.00868489
0.00628424
-0.0104415
0.00941098
-0.0114544
0.0133991
-0.0117456
0.018475
-0.0113355
0.0249529
-0.0102219
0.0332609
-0.00835566
-0.00583712
0.0448533
0.000373295
-0.0029671
0.000783395
-0.00654302
0.00112898
-0.00903048
0.00157062
-0.0108831
0.00234045
-0.0122242
0.00369746
-0.0131027
0.00592631
-0.0135643
0.00935145
-0.013647
0.0143534
-0.0133576
-0.0128986
0.0214148
-0.000827706
-0.00213939
-0.00302787
-0.00434286
-0.00605206
-0.00600629
-0.00936564
-0.00756955
-0.0125398
-0.00905006
-0.0152421
-0.0104003
-0.0172025
-0.0116039
-0.0182054
-0.0126441
-0.0180859
-0.0134772
-0.0142977
-0.0166867
-0.00272939
0.000590002
-0.00859577
0.00152352
-0.0160094
0.00140738
-0.0240213
0.000442267
-0.0320361
-0.00103526
-0.0397281
-0.00270832
-0.0469299
-0.00440207
-0.0535184
-0.00605568
-0.0593706
-0.00762497
-0.00928296
-0.0643853
-0.00466075
0.00525075
-0.0140567
0.0109195
-0.0255297
0.0128804
-0.0377397
0.0126523
-0.0502046
0.0114296
-0.0627538
0.00984085
-0.0752806
0.00812477
-0.0876967
0.0063604
-0.0998915
0.00456982
0.00269813
-0.111873
-0.00575018
0.0110009
-0.0171548
0.0223241
-0.0309842
0.0267098
-0.0457545
0.0274225
-0.0609304
0.0266055
-0.0763585
0.025269
-0.0919785
0.0237447
-0.107718
0.0221003
-0.123488
0.0203396
0.0185619
-0.139352
-0.00550485
-0.0168234
-0.0308396
-0.0459928
-0.0616495
-0.0775914
-0.0937223
-0.109954
-0.126199
-0.142559
0.200859
0.0794786
-0.138786
0.215171
0.410298
-0.42461
0.205623
0.441048
-0.4315
0.215212
0.156928
-0.166517
0.223401
-0.0682543
0.0600657
0.217161
-0.104756
0.110996
0.20681
-0.0701475
0.0804991
0.201361
-0.0376084
0.0430569
0.20221
-0.0244384
0.0235898
-0.0192071
0.0141968
0.161095
0.00606735
0.204657
0.366736
0.215435
0.43027
0.233503
0.13886
0.233019
-0.0677708
0.218569
-0.0903063
0.206272
-0.0578508
0.201592
-0.0329281
0.2035
-0.0263463
-0.0241868
0.128234
-0.0655442
0.178896
0.316074
0.205846
0.40332
0.227162
0.117544
0.218671
-0.0592802
0.202809
-0.0744445
0.195452
-0.0504929
0.196089
-0.0335652
0.201521
-0.0317782
-0.0300327
0.0885068
-0.109198
0.13354
0.271041
0.172466
0.364395
0.19331
0.0966993
0.183607
-0.0495773
0.176508
-0.0673451
0.180629
-0.0546136
0.189242
-0.0421787
0.198945
-0.0414812
-0.0369205
0.0331373
-0.12092
0.0712745
0.232904
0.117148
0.318521
0.137455
0.0763924
0.141127
-0.053249
0.151945
-0.0781636
0.169103
-0.0717713
0.184631
-0.0577067
0.197432
-0.0542821
-0.0443838
-0.0417619
-0.095845
-0.00743026
0.198572
0.0445255
0.266566
0.0803099
0.040608
0.110266
-0.0832048
0.138407
-0.106305
0.164219
-0.0975836
0.183341
-0.0768289
0.197375
-0.0683152
-0.051796
-0.128746
-0.0314846
-0.0975803
0.167407
-0.0162423
0.185228
0.0470855
-0.0227198
0.0979845
-0.134104
0.135436
-0.143756
0.164592
-0.126739
0.184495
-0.0967317
0.198392
-0.0822126
-0.058737
-0.197944
0.0545865
-0.154374
0.123837
-0.0419901
0.0728436
0.0378282
-0.102538
0.0972807
-0.193556
0.138017
-0.184493
0.167542
-0.156264
0.186864
-0.116054
0.199999
-0.0953474
-0.0650425
-0.228617
0.143852
-0.171911
0.0671306
-0.0447474
-0.0543201
0.0403408
-0.187626
0.101856
-0.255071
0.143016
-0.225652
0.171613
-0.184862
0.189812
-0.134253
0.201941
-0.107476
-0.0706768
-0.222008
-0.163442
-0.0382849
0.0501695
0.11077
0.15023
0.176776
0.193323
0.204202
0.0494064
0.0343322
-0.0837387
0.00893716
0.0404693
-0.021049
0.0299861
-0.032237
0.011188
-0.0195677
-0.0126694
0.00576708
-0.0253347
0.02575
-0.019983
0.0359287
-0.0101786
0.0402278
-0.00429909
-0.00163059
0.19774
0.105562
-0.26897
0.0874236
0.150786
0.00769939
0.10971
-0.0118415
0.0307289
0.0129725
-0.0374833
0.0520374
-0.0643997
0.0825577
-0.0505032
0.0991383
-0.0267593
0.107084
-0.0122449
-0.00507495
0.34167
0.16135
-0.397459
0.206133
0.286323
0.0906474
0.225196
0.0547196
0.0666566
0.0758215
-0.0585852
0.108151
-0.0967292
0.133057
-0.075409
0.147528
-0.0412306
0.15545
-0.0201668
-0.00913613
0.41653
0.173053
-0.428233
0.311599
0.391255
0.192053
0.344741
0.142659
0.116051
0.151124
-0.0670494
0.166874
-0.11248
0.176929
-0.0854634
0.182726
-0.047028
0.18689
-0.0243311
-0.0123729
0.393681
-0.359413
0.360325
0.273566
0.2231
0.216116
0.214632
0.209668
0.205697
0.204956
0.0107814
-0.000157246
-0.0106241
0.0123882
-0.00160685
0.015329
-0.0029408
0.0197349
-0.00440586
0.0260946
-0.00635966
0.033437
-0.00734245
0.0437447
-0.0103077
0.0548713
-0.0111266
0.0692053
-0.014334
-0.0145333
0.0296606
-0.000879764
-0.0289381
0.03424
-0.0061862
0.0425721
-0.0112729
0.0557072
-0.017541
0.0741617
-0.0248141
0.0973781
-0.0305589
0.130333
-0.0432628
0.166837
-0.0476302
0.214673
-0.0621704
-0.0688297
0.0458793
-0.00243559
-0.0443235
0.0531683
-0.0134752
0.0663232
-0.0244278
0.0870095
-0.0382273
0.115136
-0.0529404
0.152868
-0.0682916
0.201501
-0.0918957
0.256836
-0.102964
0.327627
-0.132962
-0.138661
0.0593436
-0.00496665
-0.0568125
0.0688681
-0.0229997
0.085996
-0.0415558
0.111953
-0.0641847
0.147084
-0.0880712
0.193958
-0.115165
0.247373
-0.145311
0.312008
-0.1676
0.379687
-0.200641
-0.187207
0.0701822
-0.0666327
0.081509
0.101553
0.130686
0.169992
0.217965
0.270619
0.326655
0.352023
0.082067
-0.0747013
0.0825148
-0.0898805
0.0734552
-0.0758012
0.084413
0.0644841
-0.0775502
0.0865213
0.0549109
-0.0794255
0.0889988
0.0446584
-0.0813087
0.0915611
0.0338515
-0.0828947
0.0937016
0.022857
-0.0830934
0.0940879
0.0124348
-0.0790692
0.0894915
0.00402047
-0.0651548
0.0735691
-0.032331
0.0363515
0.0907373
-0.0651978
-0.100241
0.0808512
-0.0659151
0.0703248
-0.0670238
0.0592199
-0.0683206
0.0476898
-0.0697786
0.035914
-0.0711188
0.024188
-0.0713674
0.0131789
-0.0680601
0.00428568
-0.0562616
-0.0280454
0.0925904
-0.0544644
-0.103324
0.0817475
-0.0550722
0.0707019
-0.0559782
0.0594564
-0.0570752
0.047982
-0.0583042
0.0362795
-0.0594162
0.0245395
-0.0596274
0.0134107
-0.0569314
0.00435823
-0.0472091
-0.0236871
0.0979081
-0.0434135
-0.108959
0.0867033
-0.0438674
0.0752689
-0.0445437
0.063527
-0.0453333
0.0514274
-0.0462047
0.0390047
-0.0469934
0.026499
-0.0471218
0.0145978
-0.0450302
0.00482399
-0.0374353
-0.0188631
0.10066
-0.0318899
-0.112184
0.0889994
-0.0322063
0.0770935
-0.0326379
0.0649158
-0.0331556
0.052455
-0.0337439
0.0397547
-0.0342931
0.0270259
-0.0343929
0.0149107
-0.032915
0.00493089
-0.0274555
-0.0139323
0.103769
-0.0201859
-0.115473
0.091849
-0.0202863
0.0796796
-0.0204684
0.0672282
-0.0207042
0.054471
-0.0209867
0.0414304
-0.0212525
0.0282986
-0.0212611
0.0157192
-0.0203356
0.00526069
-0.016997
-0.00867157
0.105813
-0.00825794
-0.117741
0.0936852
-0.00815816
0.0813004
-0.00808361
0.0686297
-0.00803345
0.0556488
-0.00800587
0.0423773
-0.00798101
0.0289991
-0.00788292
0.0161503
-0.00748676
0.0054231
-0.00626979
-0.00324848
0.107387
0.0037781
-0.119423
0.0951168
0.00411244
0.0825771
0.00445611
0.0697404
0.00480325
0.0565847
0.00514984
0.0431301
0.00547361
0.0295576
0.00568958
0.0165
0.00557078
0.00556254
0.00466772
0.00231406
0.108295
0.0158795
-0.120397
0.0959478
0.0164601
0.0833238
0.0170801
0.0703963
0.0177308
0.0571428
0.0184033
0.0435817
0.0190347
0.0298911
0.0193802
0.0167036
0.0187583
0.00563883
0.0157325
0.00795289
0.108548
-0.120677
0.0961769
0.083528
0.070576
0.0572983
0.0437109
0.0299882
0.0167615
0.0056585
0.0134181
-0.153171
-0.0155006
0.00903276
-0.167307
0.00364525
-0.175489
-0.00188677
-0.180542
-0.00690563
-0.183517
-0.0106476
-0.183795
-0.012089
-0.178404
-0.0101625
-0.161123
-0.00490699
-0.122507
-0.0530355
0.0360191
-0.150159
-0.0390308
0.0300683
-0.161356
0.0229021
-0.168323
0.0154461
-0.173086
0.0082413
-0.176312
0.00187491
-0.177429
-0.0027043
-0.173824