/*--------------------------------*- C++ -*----------------------------------*\
  =========                 |
  \\      /  F ield         | OpenFOAM: The Open Source CFD Toolbox
   \\    /   O peration     | Website:  https://openfoam.org
    \\  /    A nd           | Version:  13
     \\/     M anipulation  |
\*---------------------------------------------------------------------------*/
FoamFile
{
    format      ascii;
    class       surfaceScalarField;
    location    "0.015";
    object      phi;
}
// * * * * * * * * * * * * * * * * * * * * * * * * * * * * * * * * * * * * * //

dimensions      [0 3 -1 0 0 0 0];

internalField   nonuniform List<scalar> 
3485
(
0.00870674
-0.129004
0.120298
0.0185747
-0.146565
0.136697
0.0281855
-0.142841
0.13323
0.0375002
-0.138321
0.129006
0.0465496
-0.134162
0.125113
0.0553665
-0.130371
0.121554
0.063986
-0.126905
0.118286
0.0724495
-0.123726
0.115262
0.0808012
-0.120796
0.112445
-0.117989
0.109694
0.0890969
0.0080656
-0.13707
0.0172025
-0.155701
0.026103
-0.151742
0.0347366
-0.146954
0.0431321
-0.142557
0.0513168
-0.138556
0.0593147
-0.134903
0.0671462
-0.131557
0.0748262
-0.128476
-0.12558
0.0824163
0.0073608
-0.144431
0.0156933
-0.164034
0.0238107
-0.159859
0.0316912
-0.154835
0.039363
-0.150229
0.046852
-0.146045
0.0541806
-0.142232
0.061368
-0.138745
0.06843
-0.135538
-0.132552
0.0754025
0.00658559
-0.151016
0.0140341
-0.171482
0.0212889
-0.167114
0.0283367
-0.161883
0.0352048
-0.157097
0.0419171
-0.152757
0.0484949
-0.148809
0.0549569
-0.145207
0.06132
-0.141902
-0.138853
0.0676208
0.00573822
-0.156755
0.0122227
-0.177967
0.0185346
-0.173426
0.0246698
-0.168018
0.0306536
-0.163081
0.036508
-0.158612
0.0422523
-0.154554
0.0479034
-0.150858
0.0534776
-0.147476
-0.144379
0.0590037
0.00482235
-0.161577
0.0102663
-0.183411
0.0155578
-0.178717
0.0207027
-0.173163
0.0257242
-0.168103
0.0306416
-0.163529
0.0354716
-0.159384
0.0402291
-0.155615
0.0449286
-0.152175
-0.149042
0.0495914
0.00384921
-0.165426
0.00818322
-0.187745
0.0123823
-0.182916
0.0164653
-0.177246
0.0204526
-0.17209
0.0243603
-0.167437
0.0282022
-0.163226
0.0319905
-0.159404
0.0357378
-0.155923
-0.152762
0.0394579
0.00284131
-0.168267
0.00600516
-0.190909
0.00904511
-0.185956
0.0120018
-0.180202
0.0148918
-0.17498
0.017727
-0.170272
0.0205176
-0.166016
0.0232722
-0.162158
0.0260005
-0.158651
-0.155471
0.0287095
0.0018404
-0.170108
0.00376846
-0.192837
0.00558165
-0.18777
0.0073589
-0.18198
0.00910387
-0.176725
0.01082
-0.171988
0.0125117
-0.167708
0.0141837
-0.16383
0.0158418
-0.160309
-0.157116
0.0174871
0.000734619
-0.170842
0.00133991
-0.193442
0.00196353
-0.188393
0.00256581
-0.182582
0.0031534
-0.177312
0.00372968
-0.172564
0.00429715
-0.168275
0.00485788
-0.164391
0.0054141
-0.160865
0.00596317
-0.157665
0.0123286
-0.0210662
0.00873757
0.0263594
-0.0239499
0.00991907
0.0400325
-0.0233583
0.00968526
0.0532599
-0.022627
0.0093996
0.0660725
-0.0219539
0.0091413
0.078503
-0.0213403
0.00890981
0.0905806
-0.0207785
0.00870095
0.102331
-0.0202614
0.00851102
0.113776
-0.0197821
0.00833677
-0.0193615
0.124961
0.00817659
0.0122147
-0.0332809
0.0261149
-0.0378501
0.039663
-0.0369064
0.0527739
-0.035738
0.0654792
-0.0346592
0.0778123
-0.0336734
0.0898027
-0.032769
0.101477
-0.0319353
0.112856
-0.0311621
-0.0304913
0.123986
0.0120551
-0.045336
0.0257712
-0.0515662
0.0391424
-0.0502777
0.0520874
-0.0486829
0.0646384
-0.0472103
0.0768298
-0.0458647
0.0886915
-0.0446307
0.10025
-0.043494
0.11153
-0.0424415
-0.0415339
0.122572
0.0118425
-0.0571785
0.025313
-0.0650366
0.0384471
-0.0634118
0.0511677
-0.0614034
0.0635082
-0.0595509
0.0755036
-0.0578601
0.0871848
-0.0563118
0.0985792
-0.0548884
0.109712
-0.0535741
-0.0524454
0.120623
0.0115702
-0.0687487
0.0247251
-0.0781915
0.0375529
-0.0762396
0.0499813
-0.0738318
0.0620445
-0.0716141
0.0737782
-0.0695937
0.085214
-0.0677477
0.0963805
-0.0660549
0.107305
-0.0644983
-0.0631656
0.118025
0.0112322
-0.0799809
0.0239955
-0.0909548
0.0364408
-0.0886849
0.0485006
-0.0858917
0.0602096
-0.0833231
0.0716033
-0.0809875
0.0827142
-0.0788585
0.0935717
-0.0769124
0.104205
-0.0751318
-0.0736104
0.11465
0.0108259
-0.0908068
0.0231204
-0.103249
0.0351045
-0.100669
0.0467152
-0.0975023
0.0579858
-0.0945938
0.0689511
-0.0919528
0.0796431
-0.0895505
0.0900919
-0.0873612
0.100329
-0.0853688
-0.0836668
0.110385
0.0103576
-0.101164
0.0221121
-0.115004
0.033562
-0.112119
0.0446471
-0.108587
0.0553972
-0.105344
0.065843
-0.102399
0.0760131
-0.0997206
0.0859353
-0.0972833
0.095641
-0.0950745
-0.0931793
0.105153
0.00984113
-0.111005
0.0210015
-0.126164
0.0318637
-0.122981
0.042369
-0.119093
0.0525404
-0.115515
0.0623994
-0.112258
0.0719629
-0.109284
0.0812444
-0.106565
0.0902588
-0.104089
-0.101911
0.098991
0.00929207
0.0198245
0.0300739
0.0399871
0.0495843
0.058881
0.0678825
0.0765801
0.0849359
0.0927183
0.166652
-0.108593
0.0669019
0.186326
-0.0771314
0.057458
0.195832
-0.0577686
0.0482619
0.200208
-0.0437962
0.0394208
0.201856
-0.0329039
0.0312557
0.201976
-0.0240882
0.0239679
0.201196
-0.0168
0.0175809
0.199851
-0.01064
0.0119847
0.198125
-0.00526732
0.00699337
-0.000269862
0.00229123
0.165274
-0.149881
0.185177
-0.0970341
0.194994
-0.0675856
0.199638
-0.0484398
0.201499
-0.0347652
0.201792
-0.0243815
0.20116
-0.0161677
0.199951
-0.00943112
0.198355
-0.00367129
0.00162327
0.162934
-0.190242
0.183054
-0.117155
0.193274
-0.077805
0.198303
-0.0534696
0.200503
-0.0369647
0.201097
-0.0249757
0.200743
-0.0158138
0.199802
-0.00848938
0.198468
-0.00233798
0.00325431
0.159582
-0.229201
0.179944
-0.137517
0.19067
-0.0885311
0.196208
-0.0590077
0.198872
-0.0396282
0.199894
-0.025998
0.199947
-0.0158669
0.199402
-0.00794471
0.198463
-0.00139884
0.00449023
0.15515
-0.266326
0.175834
-0.158202
0.187186
-0.099883
0.193359
-0.06518
0.196612
-0.042882
0.198189
-0.0275743
0.198775
-0.0164533
0.198755
-0.00792476
0.19834
-0.00098322
0.00519971
0.149531
-0.301207
0.170713
-0.179383
0.182828
-0.111999
0.189766
-0.0721176
0.193736
-0.0468524
0.19599
-0.0298283
0.197233
-0.0176963
0.197863
-0.008554
0.198097
-0.00121753
0.00525393
0.142687
-0.333509
0.164565
-0.201261
0.177605
-0.125039
0.185445
-0.079958
0.190259
-0.0516656
0.193311
-0.0328811
0.195331
-0.0197157
0.19673
-0.00995292
0.197737
-0.0022244
0.0045275
0.135095
-0.363451
0.15742
-0.223585
0.17153
-0.139149
0.180416
-0.0888436
0.186197
-0.0574471
0.190167
-0.0368504
0.193078
-0.0226267
0.195362
-0.0122372
0.197259
-0.00412183
0.00289934
0.126952
-0.391412
0.149428
-0.246062
0.164672
-0.154393
0.174717
-0.0988881
0.18158
-0.0643101
0.186576
-0.0418464
0.190487
-0.0265384
0.193767
-0.015517
0.196668
-0.00702243
0.00025353
0.117982
-0.416676
0.140948
-0.269027
0.157247
-0.170692
0.168462
-0.110103
0.176471
-0.0723194
0.182578
-0.0479528
0.187583
-0.0315436
0.191957
-0.0198911
0.195965
-0.0110306
-0.00351928
0.341907
-0.368731
-0.389851
0.321229
-0.248349
0.313485
-0.162948
0.310244
-0.106863
0.308524
-0.0705992
0.307383
-0.0468116
0.306554
-0.0307147
0.305971
-0.0193083
0.305619
-0.0106787
-0.00339561
0.35799
-0.317094
-0.409627
0.333194
-0.223553
0.321433
-0.151187
0.315399
-0.100829
0.311907
-0.0671072
0.309671
-0.044576
0.308175
-0.029218
0.307197
-0.0183307
0.306637
-0.0101182
-0.00320984
0.370839
-0.266517
-0.421417
0.343401
-0.196115
0.328577
-0.136363
0.320189
-0.0924419
0.315109
-0.0620266
0.311854
-0.041321
0.309721
-0.0270857
0.308364
-0.0169733
0.307602
-0.00935604
-0.00296322
0.380466
-0.218998
-0.427984
0.351805
-0.167454
0.334799
-0.119357
0.324507
-0.0821495
0.31805
-0.0555696
0.313876
-0.0371472
0.311158
-0.0243675
0.309446
-0.0152615
0.308495
-0.00840473
-0.00265893
0.387517
-0.175238
-0.431278
0.358559
-0.138496
0.340065
-0.100863
0.328278
-0.0703621
0.320666
-0.0479577
0.315691
-0.0321726
0.312451
-0.0211275
0.31042
-0.0132303
0.309297
-0.00728193
-0.00230193
0.392554
-0.135164
-0.432628
0.36384
-0.109782
0.344378
-0.0814007
0.331454
-0.0574385
0.322907
-0.03941
0.31726
-0.0265259
0.313573
-0.0174406
0.311265
-0.0109226
0.309993
-0.00600968
-0.00189874
0.396042
-0.0982797
-0.432926
0.367822
-0.0815612
0.347764
-0.0613434
0.334009
-0.0436836
0.324735
-0.0301357
0.31855
-0.0203408
0.314499
-0.0133891
0.311963
-0.00838705
0.310567
-0.0046137
-0.00145713
0.398344
-0.0638734
-0.432751
0.370658
-0.0538745
0.350259
-0.0409446
0.335929
-0.0293535
0.326125
-0.0203318
0.319537
-0.0137529
0.315209
-0.0090611
0.312499
-0.00567719
0.311008
-0.00312255
-0.000985841
0.399698
-0.0311481
-0.432423
0.372449
-0.0266256
0.351876
-0.0203713
0.337188
-0.0146658
0.327041
-0.0101844
0.320186
-0.00689864
0.315673
-0.00454801
0.312846
-0.00285005
0.311291
-0.00156718
-0.000494463
0.395123
-0.426271
0.368498
0.348126
0.333461
0.323276
0.316378
0.31183
0.30898
0.307412
0.418277
0.00617493
-0.418489
0.417559
0.0182056
0.416303
0.0299658
0.41446
0.0413002
0.411972
0.0520792
0.408776
0.0621996
0.404816
0.0715812
0.400093
0.0801256
0.394288
0.0882209
0.0935338
0.401572
0.0060051
-0.401402
0.402057
0.0177207
0.402828
0.0291949
0.40384
0.0402877
0.405034
0.0508849
0.406335
0.0608989
0.407646
0.0702697
0.408851
0.0789213
0.409745
0.0873265
0.0936519
0.388308
0.00558983
-0.387893
0.389516
0.0165135
0.391488
0.0272221
0.394185
0.0375907
0.397552
0.047518
0.401523
0.0569284
0.406016
0.0657765
0.410918
0.0740194
0.416263
0.0819816
0.0884978
0.377827
0.00501096
-0.377248
0.379525
0.014816
0.382317
0.0244295
0.386168
0.0337403
0.391027
0.0426588
0.396835
0.0511211
0.403519
0.0590916
0.410994
0.0665448
0.419303
0.0736721
0.0798171
0.369593
0.00431905
-0.368901
0.37163
0.0127793
0.374988
0.0210712
0.379631
0.0290969
0.385512
0.0367786
0.392571
0.0440618
0.400747
0.050916
0.409968
0.0573236
0.420249
0.0633913
0.068788
0.363217
0.00354779
-0.362446
0.365491
0.010505
0.369244
0.0173182
0.374437
0.023904
0.381019
0.0301961
0.388933
0.0361479
0.398117
0.0417321
0.408505
0.0469363
0.420078
0.0518182
0.0562378
0.358419
0.00271994
-0.357591
0.360862
0.00806158
0.364894
0.0132865
0.370471
0.0183268
0.377539
0.0231283
0.386034
0.0276526
0.39589
0.031876
0.407037
0.0357898
0.419431
0.0394243
0.042742
0.355001
0.00185081
-0.354132
0.357567
0.00549564
0.361799
0.00905486
0.367647
0.0124784
0.375049
0.015726
0.383933
0.0187686
0.394222
0.0215877
0.405835
0.0241763
0.418711
0.0265484
0.0287021
0.352779
0.000947174
-0.351875
0.35544
0.00283438
0.359822
0.00467264
0.365868
0.00643275
0.373503
0.00809117
0.382641
0.00963079
0.393188
0.0110407
0.405048
0.0123165
0.418138
0.0134585
0.0144164
0.343378
-0.34243
0.346212
0.350885
0.357317
0.365409
0.375039
0.38608
0.398397
0.411855
0.0809531
0.118082
-0.109382
-0.0896527
0.0724655
0.120615
-0.112127
0.0639222
0.123601
-0.115058
0.0552688
0.126806
-0.118153
0.0464469
0.130293
-0.121471
0.0374093
0.134101
-0.125064
0.0281161
0.138276
-0.128983
0.0185328
0.142841
-0.133258
0.00869606
0.146912
-0.137075
0.130348
-0.121652
0.0751913
0.125673
-0.0827828
0.0673783
0.128428
0.0594446
0.131535
0.0513754
0.134876
0.0431445
0.138524
0.0347225
0.142523
0.0260769
0.146921
0.0171757
0.151743
0.00805276
0.156035
0.138401
0.0685398
0.132637
-0.0755032
0.0614348
0.135533
0.0542145
0.138755
0.046858
0.142232
0.0393467
0.146035
0.0316586
0.150211
0.0237675
0.154812
0.0156464
0.159864
0.00732971
0.164352
0.145731
0.0612608
0.138899
-0.0675228
0.0548912
0.141902
0.0484265
0.14522
0.0418444
0.148814
0.035127
0.152752
0.0282545
0.157084
0.0212036
0.161863
0.0139503
0.167117
0.00652892
0.171773
0.15226
0.0533198
0.144391
-0.058812
0.0477486
0.147473
0.0421046
0.150864
0.0363655
0.154553
0.0305146
0.158603
0.0245337
0.163065
0.0184018
0.167995
0.0120979
0.173421
0.0056558
0.178215
0.157915
0.0447123
0.149032
-0.0493537
0.0400159
0.15217
0.0352661
0.155614
0.0304427
0.159377
0.025531
0.163515
0.020515
0.168081
0.015377
0.173133
0.0100995
0.178698
0.00471612
0.183599
0.162631
0.0354822
0.152743
-0.0391931
0.0317359
0.155916
0.0279518
0.159398
0.0241135
0.163215
0.0202087
0.16742
0.0162245
0.172065
0.0121468
0.177211
0.0079646
0.182881
0.00371625
0.187847
0.166348
0.025717
0.155453
-0.0284271
0.0229869
0.158646
0.0202317
0.162153
0.0174389
0.166008
0.014599
0.17026
0.0117015
0.174962
0.0087351
0.180177
0.00569354
0.185922
0.0026503
0.19089
0.168998
0.0155414
0.157106
-0.0171943
0.0138801
0.160307
0.012204
0.163829
0.0105051
0.167707
0.00877664
0.171988
0.00701009
0.176729
0.00519314
0.181994
0.00330604
0.187809
0.00143072
0.192766
0.170429
0.00510979
-0.00566868
0.00455191
0.00398984
0.00342132
0.0028453
0.00226181
0.00167401
0.00109011
0.000413618
0.114232
0.0195526
-0.125404
-0.00838094
0.102754
0.0200195
-0.0085413
0.0909777
0.0204916
-0.00871513
0.0788758
0.0210071
-0.00890526
0.0664222
0.0215686
-0.009115
0.0535874
0.022183
-0.0093482
0.0403382
0.0228585
-0.00960935
0.0266389
0.0236016
-0.00990219
0.0125337
0.0242784
-0.0101732
0.0215937
-0.00905999
0.113245
0.0306644
-0.124356
0.101839
0.0314255
0.090145
0.0321853
0.0781365
0.0330156
0.0657866
0.0339185
0.0530655
0.034904
0.0399395
0.0359846
0.0263721
0.037169
0.0124066
0.0382438
0.0340004
0.111834
0.0416843
-0.122854
0.100537
0.0427229
0.0889653
0.0437567
0.0770928
0.0448881
0.0648922
0.0461191
0.0523331
0.0474631
0.0393811
0.0489366
0.0259991
0.050551
0.0122291
0.0520138
0.0462294
0.109918
0.0525693
-0.120803
0.098776
0.0538645
0.087377
0.0551557
0.0756935
0.0565717
0.0636974
0.0581152
0.0513578
0.0598027
0.0386395
0.061655
0.0255046
0.0636859
0.011994
0.0655244
0.0582234
0.107397
0.0632603
-0.118088
0.0964738
0.0647875
0.0853118
0.0663178
0.073883
0.0680004
0.0621587
0.0698395
0.0501068
0.0718546
0.0376912
0.0740706
0.0248739
0.0765032
0.0116946
0.0787038
0.069918
0.104168
0.073677
-0.114585
0.0935466
0.0754088
0.0827041
0.0771602
0.0716118
0.0790927
0.0602393
0.0812119
0.0485537
0.0835402
0.0365187
0.0861056
0.0240964
0.0889255
0.0113262
0.091474
0.0812442
0.100141
0.0837119
-0.110176
0.0899299
0.0856196
0.079511
0.0875792
0.0688529
0.0897508
0.057924
0.0921408
0.0466912
0.0947731
0.035119
0.0976777
0.0231714
0.100873
0.010889
0.103756
0.0921332
0.0952662
0.0932122
-0.104767
0.0856121
0.0952737
0.0757447
0.0974466
0.0656314
0.0998641
0.055242
0.10253
0.0445469
0.105468
0.0335149
0.10871
0.0221148
0.112273
0.0103908
0.11548
0.102524
0.0896221
0.101905
-0.0983149
0.0807262
0.10417
0.0715477
0.106625
0.0620763
0.109335
0.0522998
0.112307
0.0422023
0.115566
0.0317641
0.119148
0.0209628
0.123074
0.00984802
0.126595
0.112372
0.0836484
-0.0911256
0.0756911
0.0672582
0.0584408
0.0492765
0.0397786
0.029944
0.0197603
0.00928018
0.199024
0.0160306
-0.0170646
0.201663
0.0161126
-0.0187516
0.20237
0.0202502
-0.0209572
0.202771
0.0240193
-0.0244204
0.202425
0.0295401
-0.0291943
0.200643
0.0370512
-0.035269
0.196204
0.0469687
-0.0425299
0.186708
0.0602047
-0.0507083
0.167064
0.0790971
-0.0594533
0.110301
-0.0686414
0.198958
0.0150628
0.201462
0.0136081
0.202076
0.0196368
0.202375
0.0237203
0.201895
0.0300194
0.199931
0.0390152
0.195248
0.0516524
0.185455
0.0699972
0.165586
0.0989662
0.151531
0.198794
0.0142584
0.200984
0.0114188
0.201376
0.0192446
0.201452
0.023644
0.200717
0.0307543
0.198449
0.0412834
0.193402
0.0566996
0.183217
0.0801821
0.163122
0.119061
0.191799
0.198532
0.0137163
0.200227
0.00972339
0.200278
0.0191937
0.200014
0.0239082
0.198901
0.0318673
0.196204
0.0439803
0.19067
0.0622335
0.179983
0.0908692
0.159625
0.139419
0.230621
0.198166
0.0135399
0.199193
0.00869689
0.198794
0.0195921
0.198075
0.0246279
0.196461
0.0334806
0.19321
0.0472319
0.187061
0.0683824
0.175746
0.102184
0.155025
0.160141
0.267558
0.19769
0.0138401
0.197878
0.00850811
0.196939
0.0205314
0.195652
0.0259152
0.193416
0.0357165
0.189482
0.0511658
0.182584
0.0752806
0.170496
0.114272
0.14921
0.181426
0.302184
0.197092
0.0147379
0.196284
0.00931652
0.194732
0.0220826
0.192767
0.0278811
0.189785
0.0386976
0.18504
0.0559112
0.177251
0.0830692
0.164228
0.127295
0.142237
0.203417
0.334245
0.196361
0.0163672
0.194408
0.0112686
0.1922
0.0242911
0.189442
0.0306394
0.185593
0.0425463
0.179907
0.0615972
0.171081
0.0918949
0.156983
0.141393
0.134598
0.225802
0.364077
0.19548
0.0188769
0.192255
0.0144934
0.189374
0.0271727
0.185703
0.0343105
0.18087
0.0473786
0.174133
0.0683344
0.16418
0.101848
0.149023
0.156551
0.126669
0.248156
0.39243
0.194485
0.0223818
0.18981
0.0191688
0.186295
0.0306871
0.181592
0.0390138
0.175687
0.0532833
0.167829
0.0761923
0.15671
0.112967
0.140441
0.17282
0.11754
0.271057
0.418845
0.303522
0.0208695
0.303027
0.0196646
0.304958
0.0287557
0.30632
0.0376522
0.307761
0.0518417
0.309654
0.0742996
0.312949
0.109672
0.320581
0.165189
0.341322
0.250316
0.370122
0.390045
0.303761
0.019119
0.304153
0.0192719
0.306217
0.0266922
0.308335
0.0355338
0.310953
0.0492245
0.31469
0.0705617
0.320885
0.103477
0.33276
0.153313
0.357914
0.225162
0.318335
0.409701
0.303981
0.0171484
0.305131
0.0181222
0.307468
0.0243543
0.310278
0.0327243
0.313981
0.0455216
0.319366
0.0651766
0.32797
0.0948728
0.342974
0.138309
0.370704
0.197432
0.267656
0.421383
0.30422
0.014939
0.305971
0.0163709
0.308654
0.0216709
0.312094
0.0292848
0.316771
0.0408445
0.323584
0.0583632
0.334143
0.084314
0.351378
0.121074
0.380282
0.168528
0.220015
0.427922
0.304465
0.0124838
0.306697
0.0141395
0.309734
0.0186339
0.313734
0.0252843
0.319258
0.0353206
0.32727
0.0503509
0.339364
0.0722201
0.358118
0.102321
0.38728
0.139365
0.176111
0.431185
0.304708
0.00978563
0.307318
0.0115297
0.310677
0.0152754
0.315158
0.0208026
0.321392
0.0290869
0.330377
0.0413665
0.343638
0.0589591
0.363376
0.0825823
0.392272
0.11047
0.135878
0.432505
0.304943
0.00685272
0.307839
0.00863346
0.311461
0.0116538
0.316334
0.0159293
0.323136
0.0222854
0.332875
0.0316273
0.34699
0.0448439
0.367334
0.0622387
0.395725
0.082079
0.0988267
0.432776
0.305169
0.00369431
0.308261
0.00554101
0.312068
0.00784719
0.317236
0.0107605
0.324462
0.0150597
0.334752
0.0213378
0.349458
0.0301375
0.370149
0.0415482
0.398002
0.0542256
0.0642505
0.432578
0.305379
0.000325468
0.308569
0.00235099
0.312467
0.00394958
0.317832
0.00539514
0.325339
0.00755283
0.335987
0.0106901
0.351063
0.0150615
0.371933
0.0206781
0.399352
0.0268067
0.0313763
0.432226
0.302336
0.304687
0.308636
0.314031
0.321584
0.332274
0.347336
0.368014
0.394821
0.426197
0.396083
-0.0956903
0.400458
-0.087158
0.404748
-0.0797933
0.40855
-0.0713253
0.411715
-0.0619766
0.414224
-0.051863
0.416113
-0.0410815
0.417428
-0.0297421
0.418212
-0.0179781
-0.00594613
0.409395
-0.0953838
0.408726
-0.0864897
0.407612
-0.0786789
0.406319
-0.0700325
0.405013
-0.0606711
0.40381
-0.0506598
0.402795
-0.0400659
0.402029
-0.0289765
0.401556
-0.0175054
-0.0057917
0.415765
-0.0897662
0.410651
-0.0813751
0.405775
-0.0738033
0.40132
-0.0655772
0.397386
-0.0567375
0.394055
-0.0473285
0.391392
-0.0374031
0.389452
-0.0270367
0.388277
-0.0163301
-0.0054077
0.41886
-0.0807041
0.410739
-0.0732539
0.403295
-0.0663592
0.396644
-0.058926
0.390869
-0.0509626
0.386042
-0.0425015
0.382223
-0.0335843
0.379462
-0.0242755
0.377796
-0.0146639
-0.00486014
0.419868
-0.0693879
0.409716
-0.0631017
0.400527
-0.0571699
0.392382
-0.0507814
0.385353
-0.0439337
0.379505
-0.0366528
0.374893
-0.0289729
0.371567
-0.020949
0.369562
-0.0126588
-0.00419957
0.419746
-0.0566293
0.408261
-0.0516166
0.397906
-0.0468145
0.388751
-0.0416272
0.380866
-0.0360485
0.374313
-0.0301
0.369151
-0.0238106
0.365429
-0.017227
0.363186
-0.0104156
-0.0034593
0.41913
-0.0429837
0.4068
-0.0392857
0.395684
-0.0356993
0.385857
-0.0318001
0.37739
-0.0275812
0.370351
-0.0230607
0.364803
-0.0182627
0.360801
-0.0132253
0.358388
-0.00800252
-0.00266201
0.418428
-0.0288329
0.405601
-0.0264587
0.394019
-0.0241176
0.383759
-0.02154
0.374902
-0.0187249
0.367528
-0.0156865
0.361708
-0.0124431
0.357506
-0.00902323
0.354971
-0.00546674
-0.00182336
0.417824
-0.0144315
0.404785
-0.0134189
0.392958
-0.0122914
0.38244
-0.0110218
0.373332
-0.0096164
0.365728
-0.00808262
0.359715
-0.00643033
0.355367
-0.00467568
0.352742
-0.00284149
-0.000956439
0.411765
0.398347
0.386055
0.375033
0.365417
0.357334
0.350904
0.346228
0.343387
0.0018627
0.200234
-0.202097
0.00333351
0.227546
-0.229016
0.0048222
0.22221
-0.223699
0.00634346
0.216242
-0.217764
0.00792109
0.211134
-0.212712
0.00957689
0.20684
-0.208495
0.0113343
0.203271
-0.205029
0.0132191
0.200357
-0.202242
0.0152599
0.198038
-0.200079
0.196267
0.0174677
-0.198475
0.00422592
0.196008
0.00891532
0.222856
0.0134695
0.217656
0.0180689
0.211643
0.0227891
0.206414
0.0276947
0.201934
0.032851
0.198115
0.0383259
0.194882
0.0441944
0.19217
0.189928
0.0505329
0.00647572
0.189532
0.0138094
0.215522
0.02105
0.210415
0.0283203
0.204373
0.0357222
0.199012
0.0433462
0.19431
0.0512798
0.190181
0.0596111
0.186551
0.0684321
0.183349
0.180509
0.0778514
0.00834413
0.181188
0.0178237
0.206043
0.0271976
0.201041
0.0365567
0.195013
0.0460061
0.189563
0.0556393
0.184677
0.065544
0.180277
0.0758041
0.176291
0.0865004
0.172653
0.169269
0.0977407
0.00974801
0.17144
0.0208303
0.194961
0.0317704
0.190101
0.0426203
0.184164
0.0534755
0.178707
0.0644198
0.173732
0.0755277
0.169169
0.0868663
0.164952
0.0984932
0.161026
0.157264
0.110498
0.0107112
0.160729
0.0228947
0.182777
0.0348867
0.178109
0.0467003
0.17235
0.0584147
0.166993
0.0700987
0.162048
0.0818105
0.157457
0.0935988
0.153164
0.1055
0.149124
0.145179
0.117584
0.0113145
0.149415
0.0241876
0.169904
0.0368184
0.165479
0.0491855
0.159983
0.0613508
0.154828
0.0733683
0.150031
0.0852815
0.145544
0.0971248
0.14132
0.108922
0.137328
0.133376
0.120724
0.0116563
0.137758
0.0249166
0.156644
0.0378894
0.152506
0.0505258
0.147347
0.0628722
0.142481
0.0749703
0.137933
0.0868523
0.133662
0.0985424
0.12963
0.110056
0.125814
0.122008
0.121424
0.0118296
0.125929
0.0252811
0.143192
0.0384084
0.139378
0.0511418
0.134613
0.0635158
0.130107
0.0755625
0.125886
0.0873067
0.121918
0.0987658
0.118171
0.109946
0.114634
0.111044
0.120911
0.0119124
0.114016
0.0254513
0.129653
0.0386384
0.126191
0.0513905
0.121861
0.0637353
0.117762
0.0757027
0.113919
0.0873223
0.110298
0.0986268
0.106867
0.109657
0.103604
0.100316
0.120384
0.0119644
0.102052
0.0255531
0.116065
0.0387668
0.112978
0.0515089
0.109119
0.0637931
0.105478
0.0756297
0.102082
0.0870176
0.0989102
0.09794
0.0959443
0.108359
0.0931845
0.0907385
0.117937
0.0120298
0.0900221
0.0256911
0.102403
0.0389714
0.0996973
0.0517734
0.0963169
0.0641132
0.0931383
0.0760087
0.0901867
0.0874736
0.0874453
0.0985188
0.0848991
0.10916
0.0825432
0.0805183
0.11938
0.0121208
0.0779012
0.0258889
0.0886353
0.0392811
0.0863051
0.0522041
0.0833938
0.0646816
0.0806608
0.0767412
0.0781271
0.0884097
0.0757768
0.099714
0.0735947
0.110686
0.0715713
0.0698443
0.12136
0.0122204
0.0656809
0.0261078
0.0747479
0.0396248
0.072788
0.0526809
0.0703378
0.0653035
0.0680382
0.0775245
0.0659062
0.089374
0.0639273
0.100881
0.0620875
0.112077
0.0603754
0.0589174
0.123004
0.0123108
0.0533701
0.0263082
0.0607505
0.039938
0.0591582
0.0531103
0.0571655
0.0658542
0.0552942
0.0782027
0.0535578
0.0901859
0.051944
0.101832
0.0504411
0.11317
0.0490378
0.0478451
0.124242
0.0123824
0.0409877
0.0264667
0.0466661
0.0401844
0.0454406
0.053445
0.0439049
0.0662784
0.0424608
0.0787171
0.041119
0.090791
0.0398702
0.102527
0.038705
0.113951
0.0376141
0.0366894
0.125106
0.0124299
0.0285578
0.0265719
0.0325241
0.0403474
0.0316651
0.0536656
0.0305867
0.0665562
0.0295703
0.0790514
0.0286238
0.0911805
0.0277411
0.10297
0.0269159
0.114442
0.0261414
0.0254886
0.125643
0.0124504
0.0161074
0.0266183
0.0183563
0.04042
0.0178634
0.0537647
0.017242
0.0666818
0.0166531
0.0792037
0.016102
0.091359
0.0155857
0.103173
0.0151014
0.11467
0.0146453
0.0142661
0.125892
0.0124422
0.0036652
0.026602
0.00419644
0.0403971
0.00406826
0.0537369
0.00390226
0.066651
0.00373901
0.0791716
0.00358135
0.0913275
0.00342985
0.103144
0.00328489
0.114643
0.00314605
0.00304002
0.125869
0.0124028
0.0265183
0.0402718
0.0535737
0.066454
0.0789451
0.0910759
0.102872
0.114355
0.125571
0.135283
0.234532
-0.251878
0.149561
0.102847
-0.117125
0.159298
0.0349691
-0.0447061
0.166341
0.00510092
-0.0121439
0.172023
-0.00664959
0.000967697
0.177055
-0.0101936
0.00516154
0.181664
-0.0102249
0.0056165
0.185957
-0.00880335
0.00451003
0.189966
-0.00684968
0.00284026
-0.00469792
0.000972463
0.141171
0.212741
0.156502
0.0875153
0.166144
0.025327
0.17262
-0.00137515
0.177486
-0.0115155
0.181541
-0.014248
0.185097
-0.0137807
0.188298
-0.0120051
0.191204
-0.00975579
-0.00732388
0.146254
0.187848
0.162851
0.0709174
0.172404
0.0157743
0.178325
-0.00729617
0.182455
-0.0156458
0.185631
-0.0174231
0.188236
-0.0163861
0.190452
-0.0142214
0.192361
-0.0116647
-0.0089542
0.151365
0.159487
0.168682
0.0536008
0.178042
0.00641404
0.183463
-0.012717
0.186914
-0.0190974
0.189306
-0.0198146
0.191067
-0.0181472
0.192408
-0.0155626
0.193431
-0.0126876
-0.00969868
0.156218
0.127511
0.173789
0.0360295
0.182963
-0.00275962
0.187962
-0.0177164
0.190832
-0.0219672
0.192545
-0.0215281
0.193575
-0.0191766
0.194157
-0.0161445
0.19441
-0.0129405
-0.00967231
0.160173
0.092445
0.178084
0.0181179
0.187136
-0.0118113
0.191797
-0.0223775
0.194184
-0.0243541
0.195331
-0.0226747
0.195746
-0.0195916
0.195688
-0.0160872
0.195292
-0.0125441
-0.00899469
0.163197
0.0548907
0.181525
-0.000209991
0.190538
-0.0208239
0.194941
-0.0267803
0.19695
-0.0263633
0.197646
-0.0233705
0.197568
-0.0195135
0.196995
-0.0155145
0.196073
-0.0116225
-0.00778944
0.165356
0.0154268
0.184093
-0.0189473
0.193129
-0.0298601
0.19737
-0.0310207
0.199112
-0.0281058
0.199477
-0.0237354
0.199031
-0.0190673
0.19807
-0.0145534
0.196751
-0.0103032
-0.00618359
0.166664
-0.0253682
0.185764
-0.0380473
0.194888
-0.0389836
0.199066
-0.0351991
0.200657
-0.029697
0.200815
-0.0238927
0.200127
-0.01838
0.198907
-0.0133331
0.19732
-0.00871628
-0.00430691
0.167105
0.186516
0.195794
0.200016
0.201574
0.20165
0.20085
0.199502
0.197779
0.230525
0.0523557
-0.282881
0.204729
0.0257959
0.194003
0.010726
0.190572
0.0034312
0.190262
0.000309683
0.19105
-0.000787445
0.192055
-0.00100504
0.192901
-0.000846286
0.193445
-0.000543287
-0.000187722
0.235568
0.10682
-0.290032
0.209641
0.0517229
0.199097
0.0212702
0.195836
0.00669247
0.195647
0.000498416
0.196514
-0.00165485
0.197572
-0.00206322
0.198452
-0.00172627
0.199015
-0.00110589
-0.000381862
0.2321
0.15939
-0.284671
0.207705
0.0761184
0.198188
0.0307872
0.195476
0.00940465
0.195549
0.000424771
0.196532
-0.00263778
0.19764
-0.00317056
0.198538
-0.00262516
0.199107
-0.00167475
-0.000577228
0.226702
0.208544
-0.275856
0.204741
0.0980796
0.196784
0.0387438
0.194887
0.0113022
0.195344
-3.23574e-05
0.196495
-0.00378931
0.197674
-0.00434894
0.1986
-0.00355097
0.199177
-0.00225227
-0.000774211
0.219998
-0.263332
0.200953
0.19499
0.194148
0.195084
0.196456
0.197724
0.198683
0.199271
0.0600904
-0.00380415
-0.0562862
0.0719647
-0.0118744
0.0907387
-0.018774
0.114655
-0.0239166
0.141757
-0.0271014
0.170324
-0.0285677
0.199167
-0.0288424
0.227646
-0.0284794
0.25567
-0.0280243
-0.0272106
0.0946418
-0.00764348
-0.0908024
0.105457
-0.0226895
0.121884
-0.0352013
0.142193
-0.044225
0.164839
-0.049748
0.188777
-0.052505
0.213412
-0.0534777
0.238449
-0.0535162
0.263953
-0.053528
-0.0532904
0.100811
-0.0110534
-0.0974007
0.110432
-0.0323106
0.125159
-0.0499288
0.143637
-0.0627024
0.16465
-0.0707614
0.187282
-0.0751373
0.210901
-0.077097
0.235103
-0.0777175
0.259849
-0.0782746
-0.0781117
0.101663
-0.0142876
-0.098429
0.110869
-0.0415167
0.124995
-0.0640548
0.142766
-0.0804725
0.163012
-0.0910075
0.1848
-0.0969254
0.20744
-0.099737
0.230463
-0.100741
0.253547
-0.101359
-0.100421
0.101914
-0.0987342
0.11093
0.124727
0.141995
0.161486
0.182145
0.203133
0.223816
0.243368
0.107022
-0.0905727
0.0998432
-0.116293
0.0971122
-0.0931506
0.103061
0.08651
-0.0958633
0.106465
0.0753366
-0.0988002
0.109974
0.0636484
-0.101955
0.113643
0.0514716
-0.105339
0.117516
0.0388114
-0.108975
0.121635
0.0256606
-0.112869
0.12602
0.0120843
-0.116344
0.12992
-0.103424
0.115509
0.1088
-0.080347
-0.119026
0.0982567
-0.082607
0.0872986
-0.0849052
0.0759127
-0.0874143
0.064087
-0.090129
0.0518083
-0.0930607
0.0390603
-0.0962267
0.0258239
-0.099633
0.0121601
-0.10268
-0.0912643
0.110717
-0.069646
-0.121419
0.0997481
-0.0716376
0.0884578
-0.0736149
0.0768114
-0.0757679
0.0647778
-0.0780953
0.0523273
-0.0806102
0.0394308
-0.0833301
0.0260597
-0.0862619
0.0122679
-0.0888884
-0.0789964
0.112334
-0.0587057
-0.123274
0.101113
-0.0604164
0.0895889
-0.0620909
0.0777312
-0.0639102
0.0655081
-0.0658722
0.0528873
-0.0679894
0.0398352
-0.0702781
0.0263187
-0.0727454
0.0123872
-0.0749569
-0.0666092
0.113567
-0.0476283
-0.124644
0.102193
-0.0490429
0.0905172
-0.0504147
0.0785102
-0.0519033
0.0661431
-0.0535051
0.0533845
-0.0552307
0.0402001
-0.0570937
0.0265552
-0.0591005
0.0124971
-0.0608988
-0.054112
0.114435
-0.0364704
-0.125593
0.10297
-0.0375777
0.091198
-0.0386428
0.0790927
-0.039798
0.0666263
-0.0410387
0.0537683
-0.0423727
0.0404851
-0.0438105
0.0267416
-0.045357
0.0125844
-0.0467415
-0.0415277
0.114974
-0.0252691
-0.126176
0.103458
-0.0260611
0.0916308
-0.0268158
0.079467
-0.0276342
0.0669397
-0.0285114
0.0540194
-0.0294524
0.0406729
-0.030464
0.0268651
-0.0315492
0.0126423
-0.0325188
-0.0288853
0.115218
-0.0140482
-0.126439
0.103678
-0.0145208
0.0918261
-0.0149637
0.0796357
-0.0154438
0.0670808
-0.0159565
0.0541322
-0.0165037
0.040757
-0.0170888
0.0269203
-0.0177125
0.0126682
-0.0182668
-0.0162171
0.115182
-0.00282735
-0.126403
0.103641
-0.00297954
0.0917891
-0.00311194
0.0796002
-0.00325487
0.0670479
-0.00340426
0.0541035
-0.00355925
0.0407339
-0.00371924
0.0269042
-0.00388282
0.0126604
-0.00402292
-0.00355673
0.114861
-0.12607
0.10334
0.0915133
0.0793532
0.0668339
0.0539265
0.0405979
0.0268129
0.0126167
0.0154645
-0.196118
-0.0178212
0.013325
-0.19794
0.0113359
-0.200253
0.00946289
-0.203156
0.0076797
-0.206712
0.00596188
-0.210994
0.00428648
-0.216088
0.0026326
-0.222045
0.000907789
-0.227292
-0.201189
0.0444128
-0.189596
-0.0509345
0.0384205
-0.191948
0.0328394
-0.194672
0.0275772
-0.197893
0.0225613
-0.201696
0.0177227
-0.206155
0.012991
-0.211356
0.00829671
-0.217351
0.00377639
-0.222771
-0.197413
0.0685513
-0.180035
-0.0781127
0.0596206
-0.183017
0.0512111
-0.186262
0.0432067
-0.189889
0.0355151
-0.194005
0.0280484
-0.198688
0.0207189
-0.204027
0.0134472
-0.210079
0.00624951
-0.215573