/*--------------------------------*- C++ -*----------------------------------*\
  =========                 |
  \\      /  F ield         | OpenFOAM: The Open Source CFD Toolbox
   \\    /   O peration     | Website:  https://openfoam.org
    \\  /    A nd           | Version:  13
     \\/     M anipulation  |
\*---------------------------------------------------------------------------*/
FoamFile
{
    format      ascii;
    class       surfaceScalarField;
    location    "0.05";
    object      phi;
}
// * * * * * * * * * * * * * * * * * * * * * * * * * * * * * * * * * * * * * //

dimensions      [0 3 -1 0 0 0 0];

internalField   nonuniform List<scalar> 
3485
(
0.00130902
-0.0114164
0.0101074
0.0048245
-0.0322709
0.0287554
0.010285
-0.0518646
0.0464041
0.0175
-0.0701984
0.0629834
0.026325
-0.0873271
0.0785021
0.0366515
-0.103301
0.0929747
0.0483974
-0.118157
0.106411
0.0615275
-0.131916
0.118786
0.0761523
-0.144642
0.130018
-0.15635
0.13962
0.0928827
0.00143942
-0.0128558
0.00522404
-0.0360555
0.0110069
-0.0576474
0.0185299
-0.0777214
0.0275861
-0.0963833
0.0380063
-0.113721
0.0496559
-0.129807
0.0624402
-0.1447
0.0762865
-0.158489
-0.171104
0.0910407
0.00141962
-0.0142755
0.00512643
-0.0397623
0.0107482
-0.0632692
0.0179994
-0.0849726
0.0266496
-0.105033
0.0365109
-0.123583
0.0474313
-0.140727
0.0592883
-0.156557
0.0719702
-0.171171
-0.184521
0.0853869
0.00129364
-0.0155691
0.0046899
-0.0431586
0.00984847
-0.0684278
0.0165018
-0.0916259
0.0244371
-0.112969
0.0334859
-0.132632
0.0435164
-0.150757
0.0544241
-0.167465
0.0661189
-0.182865
-0.196945
0.0785426
0.00113125
-0.0167003
0.00412011
-0.0461475
0.00867927
-0.0729869
0.0145806
-0.0975273
0.0216442
-0.120032
0.0297306
-0.140718
0.0387344
-0.159761
0.0485754
-0.177306
0.0591882
-0.193478
-0.208292
0.0705358
0.000952455
-0.0176528
0.00348125
-0.0486762
0.00735388
-0.0768596
0.0123851
-0.102559
0.0184295
-0.126077
0.0253761
-0.147665
0.033143
-0.167528
0.0416706
-0.185833
0.0509137
-0.202721
-0.218228
0.0608491
0.000759499
-0.0184123
0.00278198
-0.0506987
0.00588677
-0.0799644
0.00992934
-0.106601
0.0147963
-0.130944
0.0204019
-0.15327
0.026685
-0.173811
0.033605
-0.192753
0.0411355
-0.210252
-0.226362
0.0492696
0.000553508
-0.0189658
0.00203009
-0.0521753
0.00429846
-0.0822327
0.00725224
-0.109555
0.0108071
-0.134498
0.0148996
-0.157363
0.0194863
-0.178398
0.0245419
-0.197809
0.0300565
-0.215766
-0.232345
0.0360399
0.000341093
-0.0193069
0.00125121
-0.0530854
0.00264721
-0.0836287
0.00445946
-0.111367
0.00663205
-0.136671
0.00912218
-0.159853
0.0119009
-0.181177
0.0149536
-0.200862
0.0182789
-0.219092
-0.235961
0.0218951
0.00013153
-0.0194384
0.000478226
-0.0534321
0.00100379
-0.0841543
0.00167794
-0.112041
0.00247567
-0.137469
0.00337782
-0.160755
0.00437053
-0.182169
0.0054462
-0.201937
0.00660271
-0.220248
0.00784615
-0.237205
0.000623863
-0.00278699
0.00216313
0.00254176
-0.00836961
0.00645172
0.00594343
-0.0136578
0.0102561
0.0106927
-0.0181537
0.0134044
0.0165703
-0.0219916
0.0161139
0.0233943
-0.025434
0.01861
0.0310204
-0.0286288
0.0210027
0.0393255
-0.0316388
0.0233337
0.0482063
-0.0345077
0.025627
-0.0372672
0.0575697
0.0279038
0.000616029
-0.00340302
0.00235709
-0.0101107
0.00533201
-0.0166327
0.00966464
-0.0224863
0.015309
-0.0276359
0.0220881
-0.0322131
0.0298043
-0.036345
0.0382963
-0.0401308
0.0474408
-0.0436522
-0.0469503
0.0571239
0.00062484
-0.00402787
0.00236659
-0.0118524
0.00524506
-0.0195112
0.00940242
-0.0266437
0.0149004
-0.0331339
0.0216488
-0.0389615
0.0294752
-0.0441713
0.038205
-0.0488607
0.0476901
-0.0531374
-0.0570458
0.0577856
0.000655964
-0.00468383
0.00250886
-0.0137053
0.00553633
-0.0225387
0.00980171
-0.0309091
0.0153594
-0.0386916
0.0221922
-0.0457944
0.030204
-0.0521831
0.039247
-0.0579036
0.0491596
-0.06305
-0.067653
0.0597668
0.000721278
-0.00540511
0.00275984
-0.0157439
0.00605891
-0.0258377
0.0106107
-0.0354608
0.016422
-0.0445029
0.0234901
-0.0528626
0.031776
-0.060469
0.0411821
-0.0673096
0.0515626
-0.0734305
-0.0788182
0.0627277
0.00080643
-0.00621154
0.00305917
-0.0179966
0.00666315
-0.0294417
0.0115596
-0.0403572
0.0177112
-0.0506545
0.0250972
-0.0602485
0.0336958
-0.0690676
0.0434527
-0.0770665
0.0542606
-0.0842384
-0.0904947
0.0659372
0.000887963
-0.0070995
0.00333676
-0.0204454
0.00721414
-0.0333191
0.0124243
-0.0455674
0.018896
-0.0571261
0.0265817
-0.0679343
0.0354518
-0.0779377
0.0454728
-0.0870875
0.0565791
-0.0953448
-0.102535
0.0686193
0.000948858
-0.00804836
0.00355042
-0.023047
0.00764482
-0.0374135
0.0131084
-0.051031
0.0198414
-0.0638591
0.0277686
-0.0758614
0.0368374
-0.0870065
0.0470097
-0.0972598
0.0582464
-0.106581
-0.114742
0.0704533
0.000995766
-0.00904413
0.00373317
-0.0257844
0.00803818
-0.0417185
0.0137639
-0.0567567
0.0207841
-0.0708794
0.0289954
-0.0840727
0.0383132
-0.0963244
0.0486642
-0.107611
0.0599858
-0.117903
-0.127039
0.0722825
0.00106326
0.00403429
0.00871988
0.0149465
0.0225692
0.0314713
0.0415581
0.052733
0.0648475
0.0774286
0.123963
-0.417262
0.350869
0.175206
-0.448354
0.397111
0.209064
-0.351954
0.318096
0.228716
-0.239696
0.220045
0.238835
-0.159974
0.149855
0.243988
-0.107942
0.10279
0.246227
-0.0715099
0.0692702
0.246547
-0.0447626
0.0444432
0.245501
-0.0242386
0.0252844
-0.00614398
0.00830245
0.123574
-0.483713
0.175398
-0.500178
0.210307
-0.386863
0.230421
-0.25981
0.240462
-0.170015
0.245385
-0.112865
0.247438
-0.0735623
0.247658
-0.0449824
0.246611
-0.0231918
-0.00408095
0.123151
-0.549078
0.174644
-0.551671
0.210464
-0.422683
0.231175
-0.280521
0.241331
-0.180171
0.24619
-0.117724
0.248215
-0.0755869
0.248495
-0.0452627
0.24761
-0.0223068
-0.00227979
0.123128
-0.612439
0.173232
-0.601774
0.209605
-0.459056
0.230998
-0.301914
0.241448
-0.190622
0.246401
-0.122676
0.24855
-0.0777359
0.249046
-0.0457587
0.248482
-0.0217428
-0.000909148
0.123613
-0.673325
0.171465
-0.649626
0.207838
-0.495429
0.22992
-0.323996
0.240823
-0.201525
0.246019
-0.127872
0.248438
-0.0801546
0.2493
-0.0466209
0.249215
-0.0216578
-0.000134585
0.124255
-0.731643
0.169518
-0.694889
0.205297
-0.531209
0.227977
-0.346676
0.239458
-0.213005
0.245048
-0.133463
0.247875
-0.0829817
0.249248
-0.0479932
0.249794
-0.0222042
-0.000124275
0.124337
-0.787361
0.167349
-0.737901
0.202152
-0.566012
0.225259
-0.369783
0.237379
-0.225124
0.243498
-0.139582
0.246863
-0.0863461
0.248883
-0.0500127
0.250209
-0.023531
-0.00104026
0.12302
-0.839928
0.164563
-0.779444
0.198327
-0.599775
0.221711
-0.393167
0.234549
-0.237962
0.241361
-0.146395
0.245402
-0.0903864
0.2482
-0.0528109
0.250449
-0.0257799
-0.00304313
0.120037
-0.887682
0.160842
-0.820249
0.19392
-0.632853
0.217649
-0.416896
0.231232
-0.251546
0.238718
-0.153881
0.243508
-0.0951757
0.2472
-0.0565028
0.250506
-0.029086
-0.00628349
0.115966
-0.926219
0.155398
-0.859682
0.187944
-0.665398
0.212265
-0.441218
0.227029
-0.266309
0.235464
-0.162316
0.241155
-0.100866
0.24587
-0.0612176
0.250373
-0.0335894
-0.0109045
0.565107
-0.917338
-0.573988
0.529045
-0.823619
0.486053
-0.622407
0.450408
-0.405573
0.425214
-0.241114
0.409862
-0.146965
0.400695
-0.0916986
0.395195
-0.0557178
0.392212
-0.0306062
-0.010003
0.655304
-0.855135
-0.717507
0.582057
-0.750372
0.516085
-0.556435
0.467148
-0.356636
0.435775
-0.20974
0.417154
-0.128344
0.405733
-0.0802779
0.398765
-0.0487494
0.39499
-0.0268313
-0.00890045
0.721821
-0.748296
-0.82866
0.620397
-0.648948
0.537381
-0.473419
0.479527
-0.298782
0.444683
-0.174897
0.423558
-0.107219
0.410159
-0.0668787
0.401883
-0.040473
0.397404
-0.0223522
-0.00765616
0.752714
-0.61419
-0.886819
0.634444
-0.530679
0.543339
-0.382314
0.484094
-0.239538
0.449693
-0.140496
0.427487
-0.0850127
0.412684
-0.0520759
0.403363
-0.0311516
0.398211
-0.0172005
-0.00624479
0.733324
-0.470375
-0.87714
0.609069
-0.406424
0.515829
-0.289073
0.457171
-0.18088
0.423467
-0.106792
0.40204
-0.0635859
0.388165
-0.0382007
0.379529
-0.0225148
0.374463
-0.0121348
-0.00460875
0.666759
-0.330337
-0.806797
0.54466
-0.284324
0.45412
-0.198534
0.396615
-0.123374
0.363386
-0.0735623
0.343431
-0.0436311
0.331054
-0.0258243
0.323549
-0.0150098
0.319317
-0.00790239
-0.00313672
0.56556
-0.204549
-0.691348
0.454833
-0.173598
0.375119
-0.11882
0.324898
-0.0731534
0.295666
-0.04433
0.27839
-0.0263554
0.267948
-0.0153827
0.261739
-0.00879994
0.258352
-0.00451564
-0.00187001
0.434856
-0.101261
-0.538144
0.344553
-0.0832948
0.281476
-0.0557424
0.242134
-0.0338121
0.218812
-0.0210076
0.205051
-0.0125939
0.196938
-0.00726974
0.192239
-0.00410138
0.189768
-0.00204476
-0.00089847
0.277558
-0.0291906
-0.349629
0.216861
-0.0225979
0.175807
-0.0146884
0.150664
-0.00866876
0.135319
-0.00566268
0.126176
-0.00345099
0.12088
-0.00197314
0.117879
-0.00110103
0.11636
-0.00052508
-0.000259861
0.0982739
-0.127465
0.075676
0.0609877
0.0523189
0.0466563
0.0432053
0.0412322
0.0401312
0.0396061
0.730473
0.0097057
-0.732333
0.724805
0.0275631
0.715222
0.0456226
0.701992
0.0625003
0.685443
0.0773976
0.66598
0.0899994
0.644187
0.100335
0.620687
0.108887
0.59645
0.115279
0.115345
0.834242
0.0126534
-0.83719
0.826045
0.0357602
0.815816
0.0558514
0.804868
0.0734484
0.793258
0.0890073
0.780621
0.102637
0.766654
0.114302
0.751506
0.124035
0.735569
0.131216
0.133406
0.822947
0.0107916
-0.821085
0.827059
0.0316482
0.831757
0.051154
0.835857
0.0693482
0.838718
0.0861462
0.840023
0.101332
0.83962
0.114705
0.837625
0.12603
0.834312
0.134529
0.139058
0.778286
0.00879437
-0.776288
0.783738
0.0261955
0.792164
0.0427284
0.803206
0.0583056
0.816404
0.0729489
0.831061
0.0866748
0.84633
0.0994351
0.861435
0.110925
0.875449
0.120514
0.127688
0.714888
0.00664611
-0.71274
0.721014
0.0200691
0.730787
0.0329561
0.74395
0.0451422
0.760322
0.0565766
0.779725
0.0672726
0.801899
0.0772609
0.826342
0.0864821
0.851937
0.0949201
0.102485
0.631796
0.00458282
-0.629733
0.637862
0.0140025
0.647738
0.0230806
0.661216
0.031664
0.678122
0.0396705
0.698315
0.0470795
0.721655
0.0539214
0.747883
0.0602536
0.776529
0.0662747
0.0722164
0.529518
0.00275614
-0.527691
0.535
0.0085198
0.54401
0.0140708
0.556378
0.0192967
0.571924
0.024124
0.590479
0.0285249
0.611877
0.0325231
0.635936
0.036195
0.66249
0.0397198
0.0433591
0.407457
0.00130393
-0.406004
0.411894
0.00408227
0.419219
0.00674638
0.429284
0.00923078
0.44192
0.0114885
0.456946
0.013499
0.474194
0.015275
0.493522
0.0168673
0.514851
0.0183901
0.020067
0.264159
0.000349835
-0.263205
0.267128
0.00111336
0.272036
0.00183841
0.278765
0.00250175
0.287168
0.00308537
0.297087
0.00358026
0.308373
0.00398847
0.320919
0.00432129
0.334694
0.00461515
0.00513223
0.0972882
-0.0969384
0.0984016
0.10024
0.102742
0.105827
0.109407
0.113396
0.117717
0.122332
0.075165
0.15801
-0.141489
-0.091687
0.060738
0.146364
-0.131937
0.0477861
0.133662
-0.12071
0.0361969
0.11989
-0.108301
0.0260046
0.10498
-0.0947873
0.0172912
0.0888996
-0.0801862
0.0101647
0.0716017
-0.0644752
0.00476898
0.0530186
-0.047623
0.00129401
0.0330745
-0.0295996
0.0117421
-0.0104481
0.0752498
0.172546
-0.0897855
0.0616059
0.160008
0.0490037
0.146264
0.037515
0.131379
0.0272343
0.11526
0.0182962
0.0978377
0.0108692
0.0790287
0.0051591
0.0587288
0.00142157
0.0368121
0.0131637
0.0708437
0.185748
-0.0840454
0.0583673
0.172484
0.0467019
0.15793
0.0359556
0.142126
0.0262485
0.124967
0.0177309
0.106355
0.0105888
0.0861707
0.00505063
0.064267
0.00139861
0.0404641
0.0145623
0.0648856
0.197955
-0.077093
0.0534015
0.183968
0.0426948
0.168636
0.0328514
0.151969
0.0239725
0.133846
0.0161867
0.114141
0.00965921
0.0926982
0.00459893
0.0693272
0.00126817
0.0437948
0.0158305
0.0578749
0.209096
-0.0690152
0.0474686
0.194375
0.0378296
0.178275
0.0290195
0.160779
0.0211144
0.141751
0.0142153
0.12104
0.00845636
0.0984571
0.00401136
0.0737722
0.00110032
0.0467059
0.0169308
0.0495544
0.218841
-0.0593
0.0405056
0.203423
0.0321741
0.186607
0.0246014
0.168352
0.0178425
0.14851
0.0119738
0.126909
0.00709931
0.103332
0.00335547
0.0775161
0.000916239
0.0491451
0.017847
0.0397463
0.226808
-0.0477127
0.032394
0.210776
0.0256609
0.19334
0.0195698
0.174443
0.0141565
0.153924
0.00947508
0.13159
0.00560232
0.107204
0.00264002
0.0804784
0.000718247
0.0510669
0.0185653
0.028621
0.232645
-0.0344582
0.023271
0.216126
0.0183964
0.198215
0.0140031
0.178836
0.0101103
0.157817
0.00675303
0.134948
0.00398345
0.109974
0.00187183
0.08259
0.000507224
0.0524315
0.0190725
0.0167327
0.23612
-0.0202077
0.0135756
0.219283
0.0107136
0.201077
0.00814221
0.181407
0.00586833
0.16009
0.00391094
0.136905
0.00230024
0.111585
0.00107643
0.0838138
0.000289793
0.0532181
0.0193623
0.00490351
-0.00598864
0.0039382
0.00307756
0.00231555
0.00165095
0.00108717
0.000630559
0.000290098
7.61163e-05
0.0493513
0.0391185
-0.0589353
-0.0295344
0.0402467
0.0363257
-0.0272211
0.0317175
0.0334107
-0.0248815
0.0238748
0.0303376
-0.0224948
0.0168574
0.0270539
-0.0200365
0.0108336
0.0234849
-0.017461
0.00600678
0.0194607
-0.0146339
0.00258884
0.0146797
-0.0112618
0.000652375
0.00898748
-0.00705102
0.00299487
-0.00234249
0.0484281
0.0489943
-0.058304
0.0390879
0.0456659
0.0304016
0.042097
0.0225002
0.0382389
0.0155608
0.0339934
0.00980335
0.0292423
0.0054169
0.0238472
0.00242259
0.017674
0.000645348
0.0107647
0.00364021
0.0484982
0.0592441
-0.058748
0.0388553
0.0553088
0.0299713
0.050981
0.0220045
0.0462056
0.0151412
0.0408567
0.00956119
0.0348222
0.00535042
0.028058
0.00243095
0.0205935
0.000647699
0.012548
0.00428791
0.049775
0.0699569
-0.0604877
0.0397521
0.0653316
0.0306028
0.0601303
0.0224982
0.0543103
0.0155907
0.0477642
0.00997237
0.0404406
0.00565228
0.0323781
0.0025733
0.0236725
0.00067672
0.0144445
0.00496463
0.0519857
0.0811735
-0.0632023
0.041547
0.0757703
0.0320841
0.0695932
0.023748
0.0626465
0.0166347
0.0548775
0.010777
0.0462983
0.00617418
0.0369808
0.00282345
0.0270232
0.000741603
0.0165264
0.00570623
0.0544924
0.0928478
-0.0661667
0.0436768
0.0865859
0.0339084
0.0793616
0.025295
0.0712598
0.0178875
0.062285
0.011704
0.0524818
0.00676623
0.0419186
0.0031173
0.0306721
0.000825378
0.0188183
0.00653161
0.0566046
0.104835
-0.0685916
0.045538
0.0976525
0.0355467
0.0893529
0.0266945
0.080112
0.0190119
0.0699676
0.0125279
0.0589658
0.00729249
0.047154
0.0033829
0.0345817
0.000903528
0.0212977
0.00743514
0.0580305
0.11694
-0.0701358
0.046879
0.108804
0.0367771
0.0994548
0.0277615
0.0891276
0.0198682
0.0778608
0.01315
0.065684
0.00768481
0.0526192
0.00357739
0.0386892
0.000958796
0.0239163
0.00839393
0.0594807
0.129088
-0.0716286
0.0482904
0.119994
0.0380537
0.109691
0.0288304
0.0983509
0.0206918
0.0859994
0.013722
0.0726537
0.00802635
0.0583149
0.00373429
0.0429812
0.000998183
0.0266524
0.00939212
0.0640371
-0.0764375
0.0520945
0.0410757
0.0311255
0.0223376
0.0148052
0.00864495
0.0040032
0.00105601
0.212222
0.0619954
-0.0762271
0.225259
0.10412
-0.117158
0.234336
0.108973
-0.11805
0.237895
0.114324
-0.117884
0.236098
0.133813
-0.132015
0.228034
0.172785
-0.164721
0.209995
0.241596
-0.223557
0.177335
0.34936
-0.3167
0.126346
0.453673
-0.402684
0.433556
-0.366145
0.211016
0.048969
0.224318
0.0908183
0.233596
0.0996944
0.23774
0.11018
0.236611
0.134942
0.229022
0.180374
0.210851
0.259767
0.177245
0.382965
0.125646
0.505272
0.500898
0.210126
0.0368325
0.223576
0.0773682
0.232929
0.090342
0.237392
0.105717
0.23664
0.135694
0.229235
0.187779
0.210706
0.278297
0.176174
0.417496
0.124827
0.55662
0.566976
0.209502
0.0253205
0.223028
0.0638425
0.23232
0.081049
0.236858
0.101179
0.236207
0.136345
0.228702
0.195285
0.209611
0.297387
0.174374
0.452733
0.124318
0.606676
0.630807
0.209104
0.014206
0.222666
0.0502811
0.231752
0.0719627
0.236129
0.0968015
0.235316
0.137158
0.227443
0.203158
0.207629
0.317201
0.172134
0.488229
0.124262
0.654548
0.691866
0.208908
0.00328783
0.222483
0.0367058
0.231197
0.0632488
0.235183
0.0928154
0.233945
0.138397
0.225455
0.211647
0.204851
0.337804
0.169652
0.523428
0.124353
0.699846
0.750053
0.208894
-0.00761682
0.222465
0.023135
0.230622
0.0550923
0.23399
0.0894467
0.232081
0.140306
0.222786
0.220942
0.201435
0.359155
0.166933
0.557931
0.123912
0.742868
0.805373
0.209049
-0.0186762
0.222589
0.00959477
0.229985
0.0476969
0.232498
0.0869333
0.22963
0.143174
0.219323
0.231249
0.19731
0.381168
0.163622
0.591619
0.122109
0.784381
0.857346
0.209351
-0.0300372
0.222844
-0.00389837
0.22925
0.0412906
0.230716
0.0854674
0.226799
0.147091
0.215388
0.24266
0.19263
0.403926
0.159433
0.624816
0.118668
0.825145
0.904385
0.210097
-0.0421448
0.222939
-0.0167402
0.228433
0.0357965
0.228563
0.0853377
0.223189
0.152465
0.210105
0.255744
0.186339
0.427693
0.153554
0.657602
0.114168
0.86453
0.942116
0.331288
-0.0714226
0.35709
-0.0425422
0.380163
0.0127235
0.3981
0.0674011
0.41736
0.133205
0.443598
0.229506
0.479418
0.391873
0.523658
0.613362
0.563268
0.82492
0.928465
0.576919
0.336529
-0.105941
0.363503
-0.0695167
0.387513
-0.0112866
0.407002
0.0479126
0.428683
0.111524
0.460119
0.19807
0.508157
0.343835
0.574394
0.547125
0.650004
0.749309
0.861171
0.717299
0.342407
-0.146338
0.371316
-0.0984258
0.395306
-0.0352763
0.415464
0.0277542
0.438613
0.0883747
0.472847
0.163836
0.528991
0.28769
0.611308
0.464809
0.713866
0.646751
0.750672
0.824364
0.347564
-0.191892
0.379068
-0.12993
0.40313
-0.0593389
0.423152
0.00773199
0.446361
0.0651661
0.479779
0.130418
0.536824
0.230645
0.626466
0.375167
0.7447
0.528516
0.614909
0.880464
0.350708
-0.240589
0.384161
-0.163383
0.403278
-0.0784558
0.413404
-0.00239394
0.429418
0.0491524
0.459055
0.100781
0.513974
0.175727
0.604732
0.284409
0.727951
0.405298
0.470628
0.872231
0.349926
-0.288505
0.363744
-0.1772
0.353911
-0.0686236
0.354553
-0.00303562
0.368459
0.0352469
0.398729
0.0705104
0.453779
0.120676
0.542463
0.195724
0.663823
0.283938
0.330462
0.80399
0.320509
-0.307004
0.30495
-0.161641
0.286237
-0.0499113
0.286411
-0.00320946
0.299671
0.0219874
0.327076
0.043105
0.375734
0.0720193
0.454057
0.117401
0.564394
0.173601
0.204637
0.690219
0.275861
-0.280855
0.232526
-0.118306
0.211521
-0.0289064
0.21085
-0.00253863
0.221821
0.0110165
0.244166
0.02076
0.282662
0.033523
0.344845
0.0552179
0.435022
0.0834246
0.101341
0.538318
0.214979
-0.193823
0.149518
-0.0528451
0.130287
-0.00967586
0.129258
-0.00150942
0.137115
0.00315986
0.152191
0.00568392
0.17704
0.00867376
0.217665
0.0145933
0.278412
0.0226772
0.0292278
0.350525
0.108187
0.0553418
0.0456659
0.0441565
0.0473163
0.0530003
0.061674
0.0762673
0.0989445
0.128172
0.598995
-0.113763
0.622686
-0.113476
0.645679
-0.107038
0.667046
-0.0984605
0.686171
-0.0881399
0.702456
-0.0755849
0.71549
-0.0607469
0.724952
-0.0439204
0.730553
-0.0258088
-0.00776788
0.735115
-0.131579
0.750661
-0.129023
0.765498
-0.121874
0.779246
-0.112209
0.791738
-0.100632
0.803253
-0.0870997
0.814158
-0.0716525
0.824464
-0.0542264
0.833135
-0.0344788
-0.011823
0.829902
-0.137117
0.833173
-0.132294
0.835247
-0.123949
0.83589
-0.112852
0.834991
-0.0997329
0.832714
-0.0848223
0.829369
-0.068307
0.825543
-0.0504005
0.822268
-0.0312042
-0.0106402
0.869677
-0.126331
0.85646
-0.119077
0.842194
-0.109682
0.827752
-0.0984102
0.813873
-0.0858541
0.80137
-0.0723195
0.790933
-0.057869
0.783026
-0.0424938
0.777991
-0.0261699
-0.008937
0.847794
-0.101893
0.823039
-0.0943225
0.79931
-0.0859536
0.777722
-0.0768217
0.758809
-0.0669408
0.742857
-0.0563679
0.730061
-0.0450731
0.720602
-0.0330347
0.714719
-0.0202864
-0.00695801
0.774201
-0.0721042
0.746044
-0.0661659
0.720232
-0.060142
0.697248
-0.0538373
0.677358
-0.0470506
0.660708
-0.0397181
0.647437
-0.0318022
0.637715
-0.0233123
0.631744
-0.0143156
-0.00494666
0.661582
-0.0434679
0.635254
-0.0398376
0.611407
-0.0362949
0.590193
-0.0326238
0.571789
-0.0286459
0.556352
-0.0242817
0.544051
-0.0195013
0.535063
-0.0143242
0.529562
-0.00881449
-0.00307533
0.515059
-0.0202085
0.493767
-0.0185456
0.474481
-0.0170094
0.457266
-0.0154089
0.442254
-0.0136341
0.429607
-0.0116343
0.419499
-0.0093936
0.412103
-0.00692808
0.407569
-0.00428008
-0.00151116
0.335517
-0.00520067
0.321665
-0.00469396
0.309051
-0.00439468
0.297698
-0.00405637
0.287709
-0.00364505
0.279225
-0.00315028
0.272401
-0.00256923
0.267382
-0.00190953
0.26429
-0.00118779
-0.000426245
0.122972
0.118278
0.113883
0.109827
0.106181
0.103031
0.100462
0.0985524
0.0973646
0.000211911
0.0147669
-0.0149788
0.00072156
0.0386755
-0.0391852
0.00143531
0.0583584
-0.0590721
0.00229046
0.0743061
-0.0751613
0.00319607
0.0866504
-0.087556
0.00446504
0.0976206
-0.0988896
0.00483163
0.0970987
-0.0974653
0.00509035
0.0894724
-0.0897312
0.005038
0.0798107
-0.0797584
0.0669589
0.00460403
-0.066525
0.00062016
0.0141467
0.00211065
0.037185
0.00419781
0.0562712
0.00669363
0.0718103
0.00935101
0.083993
0.012801
0.0941706
0.0140707
0.095829
0.0148932
0.0886499
0.0148937
0.0798103
0.0679987
0.0138539
0.000978657
0.013168
0.00332958
0.0348341
0.00662193
0.0529789
0.0105461
0.0678861
0.0147601
0.079779
0.019685
0.0892457
0.0223113
0.0932028
0.0237758
0.0871853
0.0241511
0.079435
0.0690791
0.0230707
0.00124371
0.0119243
0.00424227
0.0318355
0.00845568
0.0487655
0.0134794
0.0628624
0.0189389
0.0743195
0.0248701
0.0833146
0.0292709
0.0888019
0.0314556
0.0850006
0.0324837
0.0784069
0.0696846
0.0318782
0.00139925
0.0105251
0.00479753
0.0284372
0.00960596
0.043957
0.0153707
0.0570976
0.0217202
0.06797
0.0284373
0.0765974
0.0345633
0.082676
0.0376748
0.0818891
0.0395059
0.0765758
0.0694842
0.0397062
0.00145303
0.00907205
0.00501808
0.0248722
0.0101131
0.038862
0.0162803
0.0509304
0.023159
0.0610914
0.0304412
0.0693152
0.0377109
0.0754062
0.0422835
0.0773165
0.0449839
0.0738754
0.0683122
0.046156
0.0014124
0.00765965
0.00492968
0.0213549
0.0100256
0.0337661
0.0162741
0.0446819
0.0233281
0.0540373
0.0308851
0.0617582
0.0386487
0.0676426
0.045015
0.0709502
0.0488568
0.0700336
0.0660928
0.0510762
0.00127415
0.0063855
0.00452934
0.0180997
0.00934122
0.0289542
0.0153458
0.0386773
0.0222315
0.0471517
0.0297361
0.0542536
0.0376042
0.0597745
0.0451815
0.063373
0.0507446
0.0644704
0.0625858
0.0542515
0.00105205
0.00533345
0.00385161
0.0153001
0.00810622
0.0246996
0.0135355
0.0332481
0.0198858
0.0408013
0.0269396
0.0471998
0.0344968
0.0522172
0.0422537
0.0556161
0.0493376
0.0573865
0.0572956
0.0546278
0.000810393
0.00452305
0.0030728
0.0130377
0.00661646
0.0211559
0.0112464
0.0286182
0.0167785
0.0352692
0.0230574
0.0409209
0.0299258
0.0453488
0.0371955
0.0483464
0.0446553
0.0499267
0.0501045
0.0518465
0.000633204
0.00388985
0.002454
0.0112169
0.00537436
0.0182355
0.00927789
0.0247146
0.0140672
0.0304798
0.0196819
0.0353062
0.0260206
0.0390101
0.03284
0.041527
0.0398247
0.0429421
0.0433758
0.0465533
0.000511705
0.00337814
0.00201313
0.0097155
0.00447186
0.0157768
0.00784657
0.0213399
0.0121382
0.0261882
0.0173516
0.0300929
0.0233727
0.032989
0.0299421
0.0349575
0.0367687
0.0361155
0.0364732
0.0436713
0.000425944
0.00295219
0.00170454
0.00843689
0.00386187
0.0136195
0.00696045
0.0182413
0.0110992
0.0220494
0.0162522
0.0249399
0.0222151
0.0270262
0.0287336
0.028439
0.0356032
0.0292459
0.0294252
0.0426512
0.000377239
0.00257495
0.00153893
0.00727521
0.00362007
0.0115383
0.00682
0.0150414
0.0111952
0.0176742
0.0165531
0.0195819
0.022639
0.0209403
0.0292556
0.0218224
0.0362584
0.0222431
0.0221677
0.0435158
0.000373685
0.00220127
0.00158833
0.00606056
0.00398485
0.00914181
0.00771467
0.0113116
0.0125679
0.0128209
0.0182547
0.0138951
0.0245814
0.0146136
0.0314212
0.0149826
0.0386717
0.0149926
0.0146182
0.0462213
0.000437822
0.00176344
0.00207401
0.00442437
0.00522731
0.00598851
0.00962936
0.00690952
0.0149415
0.0075088
0.0209699
0.00786678
0.0276002
0.00798332
0.0347403
0.00784249
0.042304
0.00742889
0.00672214
0.0502
0.000676931
0.00108651
0.00316839
0.0019329
0.00705687
0.00210003
0.0119229
0.00204354
0.0175775
0.00185418
0.023918
0.00152631
0.030855
0.00104631
0.0383027
0.000394715
0.0461815
-0.000449837
-0.00150945
0.054413
0.00124069
-0.000154177
0.00433279
-0.00115921
0.008512
-0.00207918
0.0135957
-0.00304021
0.0194775
-0.00402762
0.0260536
-0.00504978
0.0332307
-0.00613076
0.040928
-0.0073026
0.0490727
-0.00859451
-0.010027
0.0575903
0.00125261
-0.00140679
0.00416879
-0.00407539
0.00838112
-0.00629152
0.0136013
-0.00826043
0.0196396
-0.0100659
0.0263787
-0.0117889
0.0337388
-0.0134909
0.0416505
-0.0152143
0.0500419
-0.0169859
-0.018822
0.0588368
0.000756337
0.00313266
0.00709725
0.0122413
0.0182893
0.0251104
0.0326223
0.0407417
0.0493827
0.0584646
0.062275
0.128088
-0.14381
0.0903736
0.00959207
-0.0376906
0.110959
-0.0458731
0.0252874
0.123978
-0.0486782
0.0356599
0.134517
-0.0384884
0.0279494
0.143323
-0.0283939
0.0195873
0.15056
-0.0202344
0.0129976
0.156491
-0.0140865
0.0081557
0.161385
-0.00939594
0.00450127
-0.00570428
0.00186006
0.0721291
0.0996305
0.108767
-0.0270462
0.133311
-0.0704167
0.146968
-0.0623354
0.158181
-0.0497009
0.167456
-0.0376682
0.174946
-0.0277243
0.180951
-0.0200911
0.185796
-0.0142409
-0.00920254
0.0815832
0.0606985
0.123343
-0.0688063
0.152205
-0.0992787
0.168985
-0.0791149
0.180956
-0.061672
0.19035
-0.0470627
0.197719
-0.0350934
0.203427
-0.0257982
0.20785
-0.0186644
-0.0120715
0.0912293
0.0129851
0.135506
-0.113083
0.166235
-0.130007
0.186864
-0.0997442
0.201021
-0.0758291
0.211112
-0.0571539
0.218488
-0.0424692
0.223808
-0.0311179
0.227553
-0.0224093
-0.0140889
0.100323
-0.0411161
0.145706
-0.158467
0.176477
-0.160778
0.197893
-0.121161
0.212748
-0.0906835
0.222957
-0.067363
0.229871
-0.0493834
0.234316
-0.0355625
0.236748
-0.0248412
-0.0148273
0.1084
-0.0993165
0.154338
-0.204404
0.184967
-0.191407
0.205659
-0.141852
0.219363
-0.104388
0.228353
-0.0763525
0.234067
-0.0550975
0.237377
-0.0388723
0.238754
-0.0262178
-0.0146236
0.114943
-0.159847
0.161454
-0.250916
0.192223
-0.222176
0.212208
-0.161837
0.22476
-0.11694
0.232608
-0.0842
0.237276
-0.0597658
0.239648
-0.0412443
0.240223
-0.0267928
-0.0137119
0.119646
-0.221902
0.167071
-0.298341
0.19827
-0.253375
0.217788
-0.181356
0.229403
-0.128554
0.236302
-0.0910988
0.240105
-0.0635685
0.241711
-0.0428511
0.241642
-0.026723
-0.0122487
0.122491
-0.285556
0.171184
-0.347033
0.203086
-0.285277
0.222403
-0.200673
0.233302
-0.139453
0.239438
-0.0972347
0.242548
-0.0666794
0.243559
-0.0438616
0.243003
-0.0261666
-0.010392
0.123777
0.173855
0.206674
0.226046
0.236447
0.242003
0.244594
0.245176
0.244294
0.01467
0.00885491
-0.0235249
0.0111708
0.00349919
0.0113864
-0.000215585
0.0134205
-0.00203409
0.0148132
-0.00139267
0.0156906
-0.00087743
0.0162493
-0.000558631
0.0165998
-0.000350545
0.016774
-0.000174134
-9.47642e-05
0.0422876
0.0335276
-0.0669603
0.0331019
0.0126849
0.035255
-0.00236864
0.0402872
-0.00706631
0.0440408
-0.00514623
0.0465308
-0.00336742
0.0481464
-0.00217416
0.0491545
-0.00135859
0.0496905
-0.000710138
-0.000334938
0.0659996
0.0697026
-0.102175
0.0544223
0.0242622
0.0592068
-0.00715308
0.0667501
-0.0146096
0.0725915
-0.0109877
0.0766124
-0.00738823
0.0792534
-0.00481512
0.0809017
-0.00300686
0.0818033
-0.00161162
-0.000710339
0.0854869
0.109434
-0.125218
0.0750133
0.0347358
0.0827916
-0.0149314
0.0924627
-0.0242807
0.100146
-0.0186707
0.105594
-0.0128362
0.109221
-0.00844248
0.111496
-0.005282
0.112763
-0.00287798
-0.00121944
0.0984319
-0.132808
0.0954771
0.105833
0.117212
0.126491
0.133243
0.137798
0.140672
0.142296
0.00385719
-0.000233017
-0.00362417
0.00456725
-0.000710063
0.00577333
-0.00120608
0.00747318
-0.00169985
0.00961318
-0.00214
0.0120994
-0.00248626
0.0148373
-0.00273787
0.0177151
-0.0028778
0.0206588
-0.0029437
-0.0028661
0.0109854
-0.000866328
-0.0103521
0.012909
-0.00263361
0.0161613
-0.00445841
0.0207313
-0.00626987
0.0265091
-0.00791783
0.0333232
-0.00930032
0.0410056
-0.0104202
0.0493608
-0.011233
0.0581504
-0.0117333
-0.011676
0.0175138
-0.00184544
-0.0165347
0.020473
-0.00559274
0.0254364
-0.00942184
0.0323557
-0.0131892
0.0410661
-0.0166282
0.0513335
-0.0195677
0.0629089
-0.0219957
0.0755373
-0.0238614
0.0888708
-0.0250668
-0.0249797
0.0233631
-0.00310774
-0.0221008
0.0271555
-0.00938515
0.0334568
-0.0157232
0.0421482
-0.0218806
0.0529771
-0.0274571
0.0656001
-0.0321907
0.0796284
-0.036024
0.0947011
-0.0389342
0.110341
-0.0407065
-0.0398574
0.0284995
-0.0270032
0.0329683
0.0403158
0.0503134
0.0625625
0.0765278
0.09158
0.106897
0.120819
0.0396997
-0.0432731
0.0500072
-0.0464338
0.0327145
-0.0428805
0.0498657
0.0258943
-0.041521
0.0483412
0.0195577
-0.0390663
0.0454029
0.0139579
-0.0354152
0.041015
0.00919593
-0.0306158
0.0353778
0.00532288
-0.0248501
0.0287231
0.00242874
-0.0183515
0.0212457
0.000625868
-0.011299
0.0131019
-0.003925
0.00455087
0.0368426
-0.0363312
-0.0437845
0.0299801
-0.036018
0.0233735
-0.0349144
0.0173153
-0.0330082
0.0120774
-0.0301773
0.00778491
-0.0263233
0.00442722
-0.0214924
0.0019898
-0.0159141
0.000504867
-0.00981407
-0.00342013
0.0360299
-0.0292027
-0.0431584
0.0290792
-0.0290674
0.0224773
-0.0283124
0.0164264
-0.0269573
0.0111861
-0.024937
0.0069805
-0.0221177
0.0038519
-0.0183638
0.00169237
-0.0137546
0.000421219
-0.00854293
-0.00299892
0.0371549
-0.0218159
-0.0445416
0.0300219
-0.0219345
0.0232732
-0.0215637
0.0170497
-0.0207338
0.0115448
-0.0194321
0.00702039
-0.0175933
0.00370026
-0.0150437
0.00155687
-0.0116112
0.000378375
-0.00736443
-0.00262054
0.0400467
-0.0140934
-0.0477692
0.0326227
-0.0145105
0.0256081
-0.0145491
0.0191037
-0.0142294
0.0132321
-0.0135605
0.00818002
-0.0125412
0.0042436
-0.0111072
0.00167965
-0.00904726
0.000388633
-0.00607341
-0.00223191
0.044039
-0.00599555
-0.0521369
0.0362726
-0.00674407
0.0289283
-0.0072048
0.0220933
-0.00739442
0.0158601
-0.00732737
0.0103397
-0.00702079
0.00571408
-0.00648162
0.00231974
-0.00565292
0.000493024
-0.00424671
-0.00173889
0.0480683
0.00244987
-0.0565137
0.0399739
0.00135033
0.0323086
0.000460441
0.0251539
-0.000239652
0.0185988
-0.000772302
0.012737
-0.00115894
0.0076697
-0.00141437
0.00356603
-0.00154926
0.000825504
-0.00150619
-0.000913391
0.0508618
0.0111884
-0.0596003
0.0424948
0.0097173
0.0345745
0.0083807
0.0271736
0.00716126
0.0203735
0.00602779
0.0142727
0.00494193
0.00898653
0.00387174
0.00462999
0.00280728
0.00137503
0.00174875
0.000461639
0.0515735
0.0202173
-0.0606024
0.042948
0.0183428
0.0348027
0.016526
0.0272102
0.0147538
0.0202371
0.0130009
0.0139598
0.0112192
0.00850602
0.00932555
0.00411655
0.00719676
0.0011762
0.00468909
0.00163784
0.0506924
-0.0600096
0.0418141
0.0334585
0.0257174
0.0186819
0.01244
0.00713163