/*--------------------------------*- C++ -*----------------------------------*\
  =========                 |
  \\      /  F ield         | OpenFOAM: The Open Source CFD Toolbox
   \\    /   O peration     | Website:  https://openfoam.org
    \\  /    A nd           | Version:  13
     \\/     M anipulation  |
\*---------------------------------------------------------------------------*/
FoamFile
{
    format      ascii;
    class       volScalarField;
    location    "0.05";
    object      strainRateViscosityModel:nu;
}
// * * * * * * * * * * * * * * * * * * * * * * * * * * * * * * * * * * * * * //

dimensions      [0 2 -1 0 0 0 0];

internalField   nonuniform List<scalar> 
1800
(
9.43559
9.22254
9.01994
8.78481
8.52276
8.24346
7.95965
7.68422
7.35552
7.06818
9.59834
9.42725
9.264
9.07496
8.86093
8.62535
8.37545
8.11449
7.80691
7.43277
9.70679
9.56348
9.42023
9.24815
9.04367
8.80446
8.53049
8.21793
7.83633
7.36783
9.77613
9.65343
9.52359
9.36107
9.16035
8.91673
8.62731
8.28574
7.8615
7.34603
9.82073
9.71408
9.59546
9.44137
9.24501
9.00032
8.70311
8.34744
7.90523
7.38039
9.85017
9.75599
9.64725
9.50178
9.3116
9.06925
8.76891
8.40455
7.95011
7.42282
9.86979
9.78487
9.68416
9.54631
9.36227
9.12302
8.82092
8.44898
7.98269
7.45166
9.8826
9.80412
9.70921
9.57701
9.39738
9.15987
8.85484
8.47421
7.99518
7.45624
9.89036
9.81587
9.72454
9.59554
9.41778
9.17929
8.86872
8.47687
7.98371
7.43052
9.89416
9.82159
9.73186
9.60405
9.42633
9.18571
8.86967
8.46849
7.96561
7.40019
2.29102
1.78265
1.80463
2.14258
2.48507
2.74254
2.92337
3.03275
3.05494
3.01828
3.4019
2.76798
2.59409
2.67128
2.8258
3.00549
3.1832
3.30873
3.34094
3.31346
4.46434
3.88933
3.595
3.42292
3.35046
3.39326
3.51244
3.62385
3.66141
3.65551
5.51383
5.00307
4.6598
4.34817
4.10385
3.97898
3.97271
4.02079
4.04649
4.07062
6.49613
6.03392
5.68456
5.32177
4.98567
4.72535
4.57371
4.51833
4.50192
4.55216
7.35652
6.92976
6.59128
6.22347
5.85486
5.5177
5.25008
5.08116
4.9945
5.05695
8.05283
7.65924
7.33795
6.98285
6.61118
6.24082
5.89994
5.63412
5.46347
5.52078
8.57732
8.22164
7.92026
7.58149
7.21446
6.82837
6.44078
6.09857
5.84451
5.88213
8.95476
8.64212
8.36196
8.03725
7.67148
7.2686
6.83675
6.41524
6.06032
6.0636
9.22227
8.95567
8.70163
8.39862
8.04881
7.65548
7.21974
6.7685
6.37271
6.41767
2.54562
1.57125
0.876708
0.338409
0.112599
0.0424961
0.0215339
0.0144503
0.0120916
0.0103656
2.79078
1.6998
0.994104
0.383903
0.123046
0.0448212
0.0222938
0.0148227
0.0123379
0.010421
3.08663
1.83505
1.11749
0.440225
0.136369
0.047682
0.023127
0.0151806
0.0125538
0.0104685
3.45565
2.00306
1.24753
0.506716
0.153192
0.0511682
0.0240293
0.0155105
0.012728
0.0105045
3.88672
2.23142
1.39099
0.583258
0.173712
0.0553976
0.0250023
0.0158021
0.0128492
0.0105265
4.33152
2.5316
1.56008
0.673581
0.198163
0.0605262
0.0260634
0.0160494
0.0129112
0.0105331
4.72071
2.88547
1.75853
0.777462
0.225184
0.0663224
0.0272141
0.0162507
0.0129124
0.0105236
4.98448
3.27509
2.00769
0.911761
0.262866
0.0734884
0.0285501
0.0164186
0.0128577
0.010499
4.9959
3.57701
2.2257
1.02783
0.29786
0.0786759
0.029455
0.0164887
0.012752
0.01046
4.82782
3.87813
2.56478
1.25256
0.391518
0.0972044
0.0320802
0.016738
0.0126558
0.0104216
4.68029
3.98168
2.74896
1.3555
0.432833
0.10724
0.0335121
0.01671
0.0124356
0.0103643
5.26069
3.6925
2.5475
1.14982
0.332427
0.0852865
0.029908
0.0157973
0.0119589
0.0102679
5.0643
3.45294
2.32374
0.944314
0.265237
0.0723248
0.0269315
0.0146323
0.0113091
0.0101186
4.60886
3.32967
1.93798
0.640302
0.143446
0.0428052
0.0216556
0.0155608
0.0137516
0.015099
4.81466
4.03989
2.20124
0.980925
0.507544
0.413339
0.371524
0.34413
0.329385
0.342331
5.93525
5.09387
3.22601
1.97801
1.47783
1.33195
1.25156
1.19212
1.15595
1.14829
7.01501
5.94859
4.14687
2.76892
2.10938
1.84631
1.70661
1.61949
1.56939
1.55548
7.80216
6.59547
4.91833
3.53049
2.77617
2.40056
2.19056
2.06515
1.99474
1.96574
8.36176
7.0893
5.51848
4.14515
3.30743
2.82652
2.54885
2.38853
2.30088
2.25876
8.82282
7.52721
6.04281
4.70144
3.80798
3.22375
2.86889
2.66484
2.55511
2.49644
6.31251
6.24137
6.21868
6.22575
6.2467
6.26874
6.29387
6.38919
6.55276
6.47215
0.0865312
0.786384
1.73816
2.65315
3.4584
4.09783
4.53761
4.79415
5.04628
5.52436
4.50288
4.18011
3.82133
3.52916
3.40873
3.47929
3.66961
3.90105
4.32604
4.9135
6.62748
6.61002
6.52879
6.34654
6.05269
5.66859
5.2617
4.92106
4.77657
4.59342
7.65378
7.63678
7.58843
7.49035
7.33255
7.10771
6.82051
6.48488
6.11888
5.44888
8.35302
8.33566
8.29496
8.22466
8.12046
7.9786
7.79748
7.56796
7.25311
6.69073
8.83456
8.81728
8.78062
8.7225
8.6411
8.53451
8.40025
8.22896
7.98757
7.61646
9.18169
9.16684
9.13628
9.08887
9.02315
8.93719
8.8281
8.68928
8.50335
8.26471
9.43748
9.42576
9.40194
9.365
9.31349
9.24539
9.15789
9.04636
8.90409
8.7436
9.65174
9.64382
9.62783
9.60282
9.56732
9.51934
9.45631
9.37498
9.27227
9.16037
6.97548
7.28155
7.63246
7.93107
8.2366
8.53471
8.8116
9.05706
9.26548
9.47878
7.33594
7.73855
8.06884
8.34958
8.61663
8.86634
9.09117
9.2875
9.45448
9.62486
7.27213
7.76989
8.17459
8.50601
8.7953
9.04626
9.25898
9.43606
9.58137
9.72338
7.25111
7.79506
8.2426
8.60273
8.90667
9.1608
9.36835
9.53456
9.66554
9.78691
7.29064
7.84178
8.30632
8.67949
8.99007
9.2441
9.44619
9.60313
9.72245
9.82797
7.34282
7.89305
8.36783
8.7478
9.05982
9.31009
9.50495
9.65261
9.76181
9.85512
7.38551
7.93535
8.41899
8.80387
9.11542
9.36086
9.54845
9.68788
9.78889
9.87317
7.40897
7.96137
8.45335
8.84325
9.15486
9.39659
9.57854
9.71174
9.80679
9.88482
7.40483
7.9654
8.46623
8.86311
9.1771
9.41771
9.59661
9.72607
9.81743
9.89164
7.39202
7.95991
8.46556
8.86825
9.18526
9.42645
9.60447
9.73239
9.82211
9.89458
3.15206
3.1987
3.18572
3.08257
2.90947
2.66738
2.3358
2.00447
2.03502
2.7265
3.4328
3.4695
3.4456
3.32336
3.15037
2.99175
2.87956
2.85881
3.10015
3.85058
3.74932
3.76305
3.73443
3.63087
3.52678
3.51954
3.651
3.89237
4.25013
4.89981
4.13141
4.11394
4.09945
4.06768
4.10347
4.27531
4.5782
4.94993
5.34575
5.91316
4.57791
4.53418
4.5662
4.64639
4.83594
5.14351
5.52885
5.93843
6.32943
6.83598
5.05035
4.9951
5.10261
5.30182
5.60814
5.98632
6.39375
6.79674
7.16679
7.62495
5.48693
5.43795
5.63414
5.93216
6.30846
6.71262
7.11442
7.4956
7.83952
8.25208
5.82595
5.79776
6.08088
6.45508
6.87429
7.28845
7.6792
8.03724
8.35401
8.71912
5.98603
5.99296
6.38027
6.83342
7.29458
7.7221
8.10747
8.44675
8.73709
9.05334
6.32848
6.28596
6.71361
7.19646
7.66076
8.07757
8.44528
8.76056
9.02194
9.28963
0.0771452
0.0743186
0.0116437
0.0104928
0.0171468
0.0662628
0.265049
0.815544
1.57275
2.62737
0.0596831
0.0807037
0.0121306
0.0117738
0.019837
0.0748103
0.303632
0.928246
1.69982
2.86236
0.0470781
0.0886368
0.0132254
0.0142255
0.0243697
0.0882038
0.357085
1.05045
1.83361
3.14066
0.0380367
0.098024
0.015044
0.018059
0.0310303
0.107352
0.424657
1.18181
1.99844
3.48543
0.0317548
0.108956
0.0177061
0.0233648
0.0400291
0.132754
0.504782
1.32781
2.22154
3.88812
0.0277105
0.121642
0.0213002
0.0301113
0.0514854
0.164452
0.599633
1.49997
2.51543
4.30318
0.0255452
0.136347
0.0259123
0.0381402
0.0650088
0.200081
0.708034
1.7019
2.86305
4.66282
0.0249644
0.152949
0.0317203
0.0472707
0.0809779
0.245816
0.846789
1.95567
3.24653
4.89722
0.0260388
0.170007
0.0393939
0.0570966
0.095562
0.286892
0.966748
2.17745
3.54401
4.88115
0.0316841
0.184099
0.048252
0.0670539
0.120782
0.382832
1.19858
2.52647
3.83695
4.66541
0.0486394
0.205659
0.0584916
0.0792584
0.140672
0.434387
1.31077
2.72073
3.95707
4.53314
0.0881353
0.249615
0.0674174
0.086523
0.126695
0.348373
1.11784
2.53236
3.70094
5.19126
0.176201
0.311692
0.0732793
0.0899075
0.116361
0.288349
0.926347
2.32266
3.50443
5.08309
0.378811
0.361477
0.0769258
0.0601974
0.0548533
0.144982
0.603154
1.90512
3.33907
4.68361
0.739222
0.372366
0.0157468
0.0812027
0.211738
0.365984
0.82105
2.02953
3.93507
4.80921
1.26013
0.15645
0.509156
0.954079
1.23298
1.42245
1.87734
3.07002
4.98354
5.86796
1.97152
0.624148
1.29416
1.59452
1.82239
2.09515
2.70975
4.04201
5.86747
6.96317
3.64084
1.69855
1.85259
2.16376
2.41864
2.79859
3.51863
4.86775
6.54924
7.7774
6.82071
3.54026
2.60893
2.65534
2.89247
3.36333
4.17723
5.51818
7.07826
8.35984
9.0442
6.44953
3.56089
3.20409
3.34698
3.89984
4.78182
6.09569
7.55482
8.83913
6.33187
6.39381
6.22941
6.13288
6.11138
6.09746
6.09014
6.10837
6.15987
6.27368
5.41671
4.93471
4.6791
4.42783
4.00454
3.38802
2.61688
1.73579
0.838079
0.123568
4.94202
4.393
3.99884
3.78298
3.60875
3.54013
3.6408
3.90145
4.21464
4.49921
4.68323
4.83978
4.97176
5.27953
5.65938
6.02781
6.31972
6.50937
6.60183
6.62613
5.42447
6.07662
6.4456
6.78237
7.07541
7.30833
7.47494
7.58136
7.63575
7.65417
6.627
7.20091
7.52742
7.76656
7.95562
8.10412
8.21401
8.28913
8.33343
8.35261
7.57129
7.95361
8.20283
8.38103
8.52053
8.63125
8.71597
8.77676
8.81544
8.83405
8.24285
8.48706
8.67645
8.81886
8.93075
9.01883
9.08614
9.13472
9.16609
9.18148
8.7401
8.90193
9.04463
9.15701
9.24518
9.31369
9.36541
9.40237
9.42608
9.4376
9.16987
9.28015
9.38116
9.46124
9.52329
9.57044
9.6052
9.62951
9.64483
9.65208
9.77689
9.50567
9.02118
7.98132
6.62952
0.624104
3.04887
6.76174
8.03666
8.93409
9.75838
9.47481
8.98118
7.96102
6.49971
1.42404
2.30328
6.52264
7.78505
8.76627
9.7166
9.40743
8.89639
7.91034
6.37007
2.62063
1.42488
5.96881
7.27212
8.39193
9.64121
9.29216
8.75738
7.8117
6.29969
3.66301
1.08802
4.92773
6.50058
7.7488
9.51329
9.11046
8.54905
7.64317
6.24251
4.2894
1.45332
3.39721
5.49678
6.78963
9.29882
8.83202
8.24557
7.37466
6.11924
4.51037
2.24068
2.02328
4.27087
5.53437
8.94002
8.40965
7.80552
6.96859
5.85508
4.47998
2.88641
1.65636
2.8257
4.08643
8.35691
7.77989
7.16837
6.36636
5.37334
4.22666
3.05589
1.98948
1.81644
2.54725
7.49391
6.89628
6.28506
5.5159
4.62631
3.68142
2.82896
2.13009
1.68854
1.35024
6.41276
5.81748
5.22153
4.49923
3.71849
2.96121
2.36702
1.98289
1.73385
1.21416
5.26596
4.69906
4.14844
3.5079
2.86683
2.31161
1.92843
1.76176
1.72504
1.77571
4.15885
3.64791
3.16438
2.6328
2.16615
1.84383
1.67926
1.62125
1.56951
1.60365
3.15545
2.71801
2.30845
1.90645
1.64707
1.56089
1.57623
1.6198
1.61351
1.64152
2.28465
1.92784
1.60756
1.3846
1.36847
1.47929
1.59315
1.66638
1.6599
1.66605
1.53491
1.26384
1.0926
1.1267
1.32886
1.54405
1.6944
1.77716
1.77215
1.75585
0.893865
0.743541
0.836545
1.12671
1.43267
1.67208
1.82615
1.91014
1.90959
1.88184
0.368851
0.482985
0.842787
1.23386
1.55953
1.80035
1.96128
2.05505
2.06673
2.0372
0.0869508
0.500827
0.932708
1.33794
1.67141
1.93515
2.12059
2.23085
2.25431
2.22645
0.311237
0.708727
1.07203
1.49179
1.86513
2.16611
2.36654
2.47744
2.49951
2.46772
1.17473
1.0877
1.31274
1.76273
2.17518
2.47499
2.66033
2.76059
2.77735
2.74025
0.628028
0.011361
0.403759
0.71395
0.917462
1.0372
1.12316
1.184
1.22041
1.23214
0.790317
0.255106
0.366645
0.566108
0.729689
0.817854
0.878635
0.920526
0.944529
0.947603
0.908776
0.404057
0.344125
0.354944
0.482814
0.565194
0.6169
0.647438
0.660688
0.651859
1.05982
0.652063
0.409398
0.236847
0.209249
0.206986
0.208864
0.20568
0.199175
0.17284
1.25429
0.824171
0.44661
0.213132
0.104902
0.0565143
0.0355463
0.0250511
0.0200466
0.0147964
1.46651
0.964655
0.48523
0.223821
0.089125
0.0374036
0.019373
0.0130386
0.0110241
0.0101291
1.67893
1.07705
0.53182
0.239397
0.0906044
0.0374255
0.0193533
0.0130902
0.0110911
0.0101396
1.88808
1.18765
0.595167
0.256345
0.0937878
0.0382322
0.0197891
0.0133964
0.0113211
0.0101898
2.10227
1.30843
0.674419
0.276763
0.0982596
0.0392426
0.0202707
0.0137227
0.0115696
0.0102463
2.32158
1.43929
0.768944
0.303339
0.104456
0.0406492
0.0208555
0.0140785
0.0118307
0.0103061
2.86245
0.810449
0.745513
1.06946
1.43338
1.71768
1.91458
2.04476
2.12045
2.16427
2.36729
0.661745
0.7289
1.08637
1.40144
1.6427
1.81517
1.93163
2.00044
2.03793
1.58996
0.474129
0.69821
1.05047
1.33098
1.53918
1.69196
1.79729
1.86031
1.89274
0.817178
0.325846
0.639963
0.988104
1.23313
1.4058
1.53479
1.62561
1.6806
1.70656
0.947417
0.126837
0.521604
0.848783
1.07654
1.22499
1.3359
1.41568
1.4649
1.48691
9.79012
9.76357
9.70093
9.58223
9.37131
9.00846
8.41543
7.52026
6.3446
5.11479
9.72891
9.68847
9.59483
9.42067
9.12149
8.63892
7.92134
6.95189
5.80397
4.52515
9.64636
9.59051
9.46025
9.21867
8.81277
8.18655
7.3112
6.21455
5.01751
3.54624
9.51164
9.43371
9.25144
8.91628
8.36916
7.56509
6.50718
5.26455
4.00173
2.43932
9.3199
9.19509
8.90656
8.39339
7.59669
6.50218
5.15883
3.71815
2.28305
0.888328
1.78113
1.73173
1.76134
1.91484
2.28862
2.84644
3.5007
4.15948
4.72689
5.31273
1.62079
1.58889
1.63915
1.69015
1.84352
2.16061
2.63537
3.1858
3.68876
4.22209
1.67631
1.65434
1.66464
1.62049
1.59617
1.66863
1.92347
2.33828
2.76679
3.22632
1.72365
1.72527
1.73882
1.67032
1.55401
1.42862
1.42425
1.64184
1.97317
2.34689
1.83556
1.86003
1.87289
1.79729
1.64985
1.4279
1.20287
1.13768
1.29447
1.56814
1.97797
2.01302
2.0204
1.94351
1.7948
1.55526
1.23704
0.910725
0.766603
0.884904
2.14552
2.18151
2.17521
2.08656
1.92937
1.68961
1.35754
0.943362
0.533893
0.341574
2.34909
2.38478
2.36818
2.26231
2.0764
1.80692
1.46425
1.04053
0.567825
0.0793513
2.6039
2.64627
2.63559
2.53455
2.3365
2.02368
1.62641
1.19304
0.839211
0.474306
2.87951
2.9273
2.92236
2.83388
2.65943
2.36066
1.92206
1.43351
1.24256
1.59561
8.93393
8.03632
6.76127
3.04931
0.623755
6.62766
7.98069
9.02101
9.50568
9.77696
8.76557
7.78402
6.5211
2.30726
1.41993
6.49555
7.9592
8.98067
9.47488
9.7586
8.39046
7.27031
5.96663
1.43199
2.61022
6.36466
7.9075
8.89562
9.40759
9.71704
7.7462
6.49795
4.9277
1.09331
3.64878
6.29296
7.80806
8.75644
9.29253
9.64201
6.78589
5.49377
3.40416
1.45114
4.27415
6.2343
7.63889
8.54804
9.11122
9.51473
5.52974
4.26942
2.03575
2.2283
4.49493
6.10932
7.36976
8.24461
8.83349
9.30142
4.08173
2.83284
1.66335
2.8671
4.46212
5.84276
6.96272
7.80475
8.41236
8.94484
2.5479
1.83111
1.98519
3.03346
4.20402
5.35745
6.35886
7.16805
7.78493
8.3661
1.36296
1.69818
2.12168
2.80487
3.65452
4.60669
5.50696
6.28636
6.90588
7.51134
1.23354
1.74194
1.97869
2.34569
2.93339
3.69655
4.4899
5.22638
5.83463
6.44309
1.91882
0.638395
1.13482
1.08788
1.08241
0.957139
0.743781
0.436827
0.012242
0.620424
1.45099
0.129011
0.839802
0.808904
0.848336
0.762752
0.59516
0.39605
0.271139
0.79715
1.12895
0.0418169
0.300353
0.381512
0.56255
0.502227
0.379007
0.359079
0.436249
0.928646
0.828451
0.151151
0.0280797
0.0376414
0.168742
0.20912
0.246658
0.420156
0.699099
1.10101
0.578933
0.134435
0.0358663
0.0188588
0.0404284
0.0992702
0.211788
0.451743
0.870134
1.31456
0.396456
0.106281
0.0254983
0.015344
0.0266294
0.0771612
0.210434
0.480869
1.00174
1.53918
0.27193
0.083005
0.01819
0.0118877
0.0219433
0.0694251
0.213245
0.515433
1.10282
1.75806
0.190238
0.0715213
0.0143644
0.0103593
0.0182775
0.0638321
0.217105
0.565932
1.20395
1.97146
0.137059
0.0682996
0.0124876
0.0100209
0.0163647
0.0611114
0.22488
0.632626
1.31778
2.18876
0.101643
0.0698763
0.0117192
0.0100529
0.0160308
0.0618374
0.23983
0.71608
1.44375
2.40774
9.33412
6.76077
3.05807
2.42039
1.85572
1.51216
1.11137
0.783686
0.834095
2.87565
8.20426
4.6051
2.5841
2.1627
1.76151
1.47192
1.12587
0.763068
0.670978
2.36202
6.09191
3.01611
2.15324
1.93978
1.64019
1.3953
1.08777
0.730684
0.478158
1.5712
4.05596
1.84021
1.80144
1.68211
1.4895
1.29033
1.02314
0.672989
0.332139
0.796172
2.70789
1.02847
1.47209
1.39553
1.28965
1.12493
0.880979
0.551451
0.13078
0.922541
5.11765
6.34703
7.52195
8.41666
9.00923
9.37177
9.58251
9.70109
9.76366
9.79015
4.51502
5.79851
6.94867
7.91955
8.63804
9.12116
9.42059
9.59485
9.68851
9.72893
3.52862
5.00692
6.20795
7.30682
8.18396
8.81148
9.21813
9.46008
9.59047
9.64637
2.42049
3.98774
5.25534
6.50047
7.56082
8.3668
8.91515
9.25098
9.43356
9.5116
0.897195
2.27553
3.71058
5.15207
6.49679
7.59314
8.39138
8.90565
9.19475
9.31979
)
;

boundaryField
{
    left
    {
        type            calculated;
        value           nonuniform List<scalar> 
35
(
0.468052
0.559097
0.782403
1.32022
2.27524
3.58648
5.01811
6.46165
8.15573
9.44089
0.517367
0.473911
0.442939
0.421088
0.406408
0.397759
0.394373
0.395564
0.402052
0.421227
4.90915
4.0037
3.1663
2.42365
1.81205
1.34735
1.02141
0.80741
0.669665
0.579135
9.61508
8.98004
7.92736
6.85633
5.86393
)
;
    }
    right
    {
        type            calculated;
        value           nonuniform List<scalar> 
35
(
2.1646
2.03733
1.89081
1.70284
1.48101
1.22365
0.937067
0.640362
0.166028
0.0139703
0.0100555
0.0100547
0.0100738
0.0100951
0.0101176
0.01014
0.0101608
0.0101788
0.0101924
0.010201
0.0102038
0.0102006
0.0101916
0.0101768
0.0101631
0.0101399
0.0101031
0.0100386
0.0161946
0.353622
1.16236
1.56576
1.97139
2.26071
2.49553
)
;
    }
    down
    {
        type            calculated;
        value           nonuniform List<scalar> 
40
(
9.45215
7.25313
3.24691
2.48953
1.88037
1.52241
1.10079
0.77448
0.90093
3.05876
5.31999
6.54283
7.69331
8.54342
9.09327
9.42408
9.61485
9.72234
9.77947
9.80382
9.80379
9.77936
9.72215
9.61451
9.42348
9.09219
8.54156
7.69044
6.53841
5.31389
3.04118
0.873587
0.734613
1.05806
1.4412
1.73787
1.9411
2.07483
2.15216
2.19739
)
;
    }
    up
    {
        type            calculated;
        value           nonuniform List<scalar> 
40
(
8.9389
7.66143
6.19116
4.85478
3.94389
3.328
2.94953
2.73279
2.61716
2.55494
9.69745
9.6905
9.67652
9.65461
9.62338
9.58091
9.52471
9.45146
9.35799
9.25665
9.26797
9.3672
9.45859
9.53031
9.58531
9.6268
9.65719
9.67833
9.69157
9.6978
9.26712
7.13813
3.8659
3.32611
3.45938
4.04462
4.94829
6.2571
7.69811
8.9582
)
;
    }
    cylinder
    {
        type            calculated;
        value           nonuniform List<scalar> 
80
(
2.59633
3.66011
4.64571
5.64581
6.60154
7.44886
8.13661
8.65189
9.01833
9.27406
9.47697
9.63214
9.73474
9.79943
9.84044
9.86724
9.88496
9.89648
9.90344
9.90685
9.5199
9.65815
9.75078
9.80974
9.84733
9.87193
9.88816
9.89858
9.90465
9.90725
3.09413
4.13491
5.0951
6.05691
6.95188
7.72506
8.34039
8.79566
9.11748
9.34149
5.44494
4.3508
3.34544
2.45386
1.66898
0.999937
0.470908
0.0710768
0.548631
1.97144
9.81694
9.80112
9.765
9.6989
9.58472
9.38886
9.05211
8.48977
7.642
6.57478
9.81687
9.8009
9.76456
9.6981
9.58327
9.38619
9.04707
8.47995
7.62307
6.54165
5.39392
4.28227
3.26897
2.38615
1.63027
1.00204
0.497203
0.122741
0.343174
1.41393
)
;
    }
    defaultFaces
    {
        type            empty;
    }
}


// ************************************************************************* //
