/*--------------------------------*- C++ -*----------------------------------*\
  =========                 |
  \\      /  F ield         | OpenFOAM: The Open Source CFD Toolbox
   \\    /   O peration     | Website:  https://openfoam.org
    \\  /    A nd           | Version:  13
     \\/     M anipulation  |
\*---------------------------------------------------------------------------*/
FoamFile
{
    format      ascii;
    class       volVectorField;
    location    "0.05";
    object      U;
}
// * * * * * * * * * * * * * * * * * * * * * * * * * * * * * * * * * * * * * //

dimensions      [0 1 -1 0 0 0 0];

internalField   nonuniform List<vector> 
1800
(
(0.099524 -0.0899715 -5.39695e-20)
(0.290495 -0.24631 -3.96917e-20)
(0.478272 -0.385648 -4.69221e-19)
(0.661661 -0.508609 1.68282e-19)
(0.839372 -0.61709 -1.11976e-20)
(1.0107 -0.712388 -9.07056e-20)
(1.17526 -0.795212 9.19959e-20)
(1.33269 -0.865747 2.98499e-19)
(1.48231 -0.924871 6.44041e-19)
(1.61985 -0.977925 8.53195e-19)
(0.120277 -0.0925291 -8.10898e-20)
(0.346596 -0.250474 -7.36679e-19)
(0.565594 -0.38898 3.54054e-21)
(0.776717 -0.509682 1.5443e-19)
(0.979072 -0.615298 -1.37394e-19)
(1.17228 -0.707713 -1.94172e-20)
(1.35624 -0.788145 -1.9743e-19)
(1.531 -0.857476 -1.06939e-19)
(1.69612 -0.91773 -7.96913e-19)
(1.84944 -0.973286 6.9362e-19)
(0.142331 -0.0928498 4.70138e-20)
(0.404618 -0.249166 1.9978e-19)
(0.653998 -0.384343 5.32581e-19)
(0.890868 -0.50079 -1.81032e-19)
(1.11506 -0.601753 -6.80957e-20)
(1.32674 -0.689461 5.6458e-20)
(1.52621 -0.765425 5.37795e-20)
(1.71386 -0.830851 2.09818e-19)
(1.88964 -0.887944 3.3314e-21)
(2.05261 -0.940337 1.63731e-19)
(0.164079 -0.0898803 -4.38685e-20)
(0.461314 -0.239899 -1.95337e-19)
(0.739666 -0.368297 -1.70922e-19)
(1.00064 -0.477866 -1.49066e-19)
(1.24505 -0.572031 1.69734e-19)
(1.47378 -0.653149 -6.10544e-20)
(1.68772 -0.722818 -2.87622e-21)
(1.88769 -0.782296 -3.90886e-20)
(2.074 -0.833665 -2.02384e-19)
(2.2461 -0.880161 -9.69755e-20)
(0.184387 -0.0832823 -1.21177e-19)
(0.514319 -0.221574 7.58286e-20)
(0.819714 -0.339073 1.87307e-19)
(1.10312 -0.438596 2.53945e-19)
(1.36636 -0.523478 -2.51139e-19)
(1.61107 -0.596018 -4.18558e-21)
(1.83875 -0.657801 3.92811e-19)
(2.05067 -0.710037 -2.14155e-19)
(2.24759 -0.754632 -1.32717e-19)
(2.42926 -0.79453 -4.03753e-20)
(0.20255 -0.0733026 1.79296e-19)
(0.561875 -0.194614 1.02969e-18)
(0.891627 -0.297154 1.09619e-19)
(1.19529 -0.383536 -4.96812e-19)
(1.47556 -0.456771 -1.56297e-19)
(1.73481 -0.518976 6.13159e-19)
(1.97506 -0.5716 -1.0769e-19)
(2.198 -0.615751 -3.99608e-19)
(2.40479 -0.653063 -3.7197e-19)
(2.59548 -0.686169 2.80183e-19)
(0.217957 -0.0603558 1.11522e-19)
(0.602293 -0.160006 -7.34695e-19)
(0.952807 -0.243946 -1.04041e-18)
(1.27374 -0.314389 3.67525e-19)
(1.56857 -0.373887 4.16988e-19)
(1.84023 -0.424222 -7.69225e-22)
(2.09125 -0.466651 -5.79512e-19)
(2.32365 -0.502078 2.3124e-19)
(2.539 -0.531833 -4.68005e-19)
(2.73761 -0.558111 -3.64697e-19)
(0.230052 -0.044959 -3.49977e-19)
(0.634053 -0.11907 -7.3026e-19)
(1.00088 -0.181341 1.20862e-18)
(1.33537 -0.233488 6.22463e-19)
(1.64158 -0.277435 -2.56987e-19)
(1.92294 -0.314577 -2.12496e-19)
(2.18235 -0.345856 0)
(2.42218 -0.371981 9.87658e-20)
(2.64431 -0.393881 -3.1375e-19)
(2.84937 -0.413268 -5.41973e-20)
(0.238398 -0.02773 -2.10665e-19)
(0.655974 -0.0733469 5.56917e-19)
(1.03404 -0.11159 1.51299e-19)
(1.37781 -0.143538 -5.11423e-19)
(1.69175 -0.170446 -8.01437e-19)
(1.97963 -0.19318 3.26286e-20)
(2.24465 -0.212387 2.03556e-19)
(2.48944 -0.228472 -5.56195e-19)
(2.71619 -0.242039 -3.28636e-19)
(2.92586 -0.254135 -6.26175e-19)
(0.242774 -0.00935202 4.6412e-19)
(0.667438 -0.0245876 3.48472e-19)
(1.05132 -0.0372176 -9.94629e-20)
(1.39983 -0.0476669 9.42588e-22)
(1.71766 -0.0563849 -4.04089e-19)
(2.00876 -0.0637302 -1.1693e-19)
(2.27649 -0.0699081 -2.87493e-19)
(2.52369 -0.0751136 6.93551e-19)
(2.75272 -0.0795138 1.77243e-19)
(2.96488 -0.0835015 1.30826e-20)
(-0.00125436 -0.030746 -2.47983e-19)
(0.010507 -0.0927417 -2.12713e-19)
(0.0289532 -0.150135 -4.16267e-21)
(0.0534772 -0.196909 -8.15131e-21)
(0.0821762 -0.235981 -1.58471e-20)
(0.114352 -0.271191 -6.23844e-19)
(0.14905 -0.304374 -1.43771e-19)
(0.185282 -0.336128 4.00852e-19)
(0.222323 -0.366811 1.92963e-21)
(0.259238 -0.396778 1.11291e-22)
(0.0027858 -0.038513 -1.5802e-19)
(0.020257 -0.113902 -3.11036e-19)
(0.0426975 -0.186217 8.20811e-20)
(0.0702943 -0.248499 -9.96936e-20)
(0.102462 -0.301097 -1.94734e-20)
(0.138543 -0.346852 -5.67228e-19)
(0.177401 -0.387927 5.50903e-19)
(0.217903 -0.425562 4.49863e-19)
(0.259358 -0.46063 -3.32786e-19)
(0.30084 -0.493751 9.15294e-20)
(0.00778519 -0.0458006 -6.84164e-20)
(0.033775 -0.133103 -5.57496e-19)
(0.0640034 -0.217444 -9.46663e-20)
(0.0985197 -0.293626 3.25297e-20)
(0.137183 -0.360386 8.799e-20)
(0.179461 -0.418233 -1.15838e-18)
(0.224252 -0.468528 2.7058e-19)
(0.270516 -0.512953 5.91582e-19)
(0.317711 -0.552957 -4.84657e-19)
(0.364985 -0.589428 -2.89641e-19)
(0.0138148 -0.0525928 2.63227e-20)
(0.0508246 -0.151297 8.56712e-20)
(0.092074 -0.246568 -1.7239e-20)
(0.137208 -0.334589 7.68355e-20)
(0.185716 -0.413854 -1.31824e-19)
(0.23698 -0.483535 2.06651e-19)
(0.290074 -0.5438 2.35184e-19)
(0.344109 -0.595905 -2.80333e-19)
(0.398716 -0.641422 -3.03627e-21)
(0.453214 -0.681369 -1.12052e-20)
(0.0211776 -0.0592539 0)
(0.071844 -0.169241 -2.78167e-20)
(0.126896 -0.274804 -1.9089e-19)
(0.185561 -0.373 1.1619e-19)
(0.246833 -0.462612 1.64202e-19)
(0.309823 -0.542577 7.54661e-20)
(0.373678 -0.61236 -8.11841e-20)
(0.437595 -0.672399 3.40148e-20)
(0.501358 -0.723757 0)
(0.564504 -0.767197 -2.14861e-20)
(0.0301018 -0.0659095 -1.33217e-21)
(0.0971615 -0.186981 -2.09852e-20)
(0.168489 -0.302163 3.52963e-20)
(0.242966 -0.409149 -1.33456e-19)
(0.319218 -0.507183 1.19465e-19)
(0.396116 -0.595468 1.65302e-20)
(0.472757 -0.673368 9.90076e-20)
(0.548342 -0.740745 -4.25313e-20)
(0.622787 -0.797854 -7.97135e-19)
(0.695798 -0.84471 -9.84399e-21)
(0.040711 -0.0724201 6.33975e-21)
(0.126854 -0.204004 1.66161e-19)
(0.216649 -0.327826 -1.33039e-19)
(0.308746 -0.442197 -2.45892e-20)
(0.401576 -0.546886 -1.33404e-19)
(0.493894 -0.641528 4.70941e-20)
(0.584736 -0.725734 8.09508e-20)
(0.673269 -0.799219 -1.86588e-19)
(0.759534 -0.861546 3.92e-19)
(0.843307 -0.911635 1.03523e-18)
(0.0529583 -0.0783946 3.01424e-20)
(0.160728 -0.219329 -1.76368e-19)
(0.270971 -0.350385 -2.73156e-19)
(0.382239 -0.470514 1.1593e-19)
(0.492908 -0.580008 -1.08273e-19)
(0.601729 -0.678972 -1.137e-20)
(0.707722 -0.767407 1.06766e-19)
(0.810038 -0.845221 -3.46183e-20)
(0.908858 -0.911607 -2.94614e-19)
(1.00403 -0.964413 7.2467e-19)
(0.0666792 -0.0833458 -1.08548e-20)
(0.198554 -0.231805 -5.78278e-19)
(0.331284 -0.368187 5.11931e-19)
(0.463402 -0.492021 3.03725e-19)
(0.593304 -0.604099 -1.89084e-20)
(0.719806 -0.70497 2.10198e-19)
(0.841961 -0.79508 -1.85862e-19)
(0.958913 -0.874721 -5.90709e-19)
(1.07098 -0.943006 -3.74753e-19)
(1.17817 -0.996915 4.02785e-19)
(0.0816704 -0.0869602 -8.4134e-20)
(0.240495 -0.240435 -5.17807e-19)
(0.398372 -0.379549 2.5518e-20)
(0.553814 -0.504267 1.51515e-20)
(0.705268 -0.615863 2.9821e-19)
(0.851677 -0.715279 -9.88579e-20)
(0.992199 -0.803245 -6.56844e-20)
(1.12593 -0.880082 1.14496e-19)
(1.25284 -0.944616 -2.83658e-19)
(1.37201 -0.995154 -5.49077e-19)
(0.442681 -0.533667 -2.5945e-19)
(0.730752 -0.5879 1.6879e-18)
(0.933947 -0.466494 2.32904e-19)
(1.04951 -0.320843 -2.86325e-19)
(1.12312 -0.217025 9.5965e-20)
(1.16638 -0.148247 1.19245e-19)
(1.19435 -0.0996483 5.07075e-20)
(1.21227 -0.0638189 -8.88774e-20)
(1.22291 -0.0362564 9.67976e-20)
(1.22905 -0.0118946 9.28788e-20)
(0.498611 -0.626317 -3.18096e-19)
(0.776899 -0.660299 -4.96583e-19)
(0.97515 -0.515926 -5.64304e-22)
(1.08062 -0.350915 3.70431e-19)
(1.14613 -0.23396 7.60115e-19)
(1.18304 -0.15843 0)
(1.20651 -0.105957 8.65484e-20)
(1.2214 -0.0676252 7.62844e-20)
(1.23017 -0.0383169 1.5138e-20)
(1.23514 -0.0125482 -8.44547e-20)
(0.575533 -0.716629 -2.54842e-19)
(0.834129 -0.731105 4.02325e-19)
(1.02137 -0.565091 -3.08767e-19)
(1.11495 -0.380434 -7.55272e-20)
(1.17071 -0.24994 -7.86951e-20)
(1.20067 -0.167629 1.37414e-19)
(1.21931 -0.111489 0)
(1.23098 -0.0708885 0)
(1.23776 -0.0400587 3.85972e-20)
(1.24151 -0.0131089 0)
(0.675018 -0.802377 3.89645e-21)
(0.905318 -0.798435 -5.76595e-19)
(1.07325 -0.613265 1.93929e-20)
(1.15262 -0.409189 0)
(1.19697 -0.264913 -7.95159e-19)
(1.21924 -0.175786 1.75365e-19)
(1.23267 -0.116198 0)
(1.24092 -0.0735792 -2.03137e-19)
(1.24561 -0.0414648 0)
(1.24809 -0.0135596 -2.1785e-20)
(0.795942 -0.881804 -1.09704e-19)
(0.992685 -0.860235 -4.68189e-19)
(1.13196 -0.659407 -1.42217e-20)
(1.19377 -0.436944 0)
(1.22498 -0.278796 -3.47835e-19)
(1.23873 -0.182844 -4.27412e-19)
(1.24654 -0.12004 1.70953e-19)
(1.25116 -0.0756679 4.10855e-20)
(1.25365 -0.0425183 2.69312e-21)
(1.25481 -0.0139037 9.12223e-20)
(0.934777 -0.953958 7.42525e-19)
(1.0966 -0.914938 5.98136e-19)
(1.19882 -0.70213 6.88927e-21)
(1.23862 -0.463311 -7.17715e-19)
(1.25467 -0.291522 6.19144e-19)
(1.25908 -0.188766 -2.05458e-19)
(1.26085 -0.122974 -5.64461e-19)
(1.26161 -0.0771266 3.68671e-19)
(1.26179 -0.0432026 -8.58374e-21)
(1.2616 -0.014133 9.90164e-20)
(1.08668 -1.01845 -7.19599e-21)
(1.21564 -0.962111 -2.38212e-19)
(1.27473 -0.740059 1.68405e-20)
(1.28788 -0.487551 2.10547e-20)
(1.2861 -0.302867 5.73778e-19)
(1.28028 -0.193479 1.26474e-19)
(1.27553 -0.124957 1.98114e-19)
(1.2722 -0.0779268 -1.50541e-19)
(1.26995 -0.0434997 -5.74986e-20)
(1.26837 -0.014236 -6.66198e-20)
(1.24664 -1.07436 -1.72241e-18)
(1.34688 -1.00222 -3.00705e-19)
(1.35902 -0.772474 0)
(1.34126 -0.509155 -1.06834e-19)
(1.31889 -0.312849 -4.67684e-19)
(1.30208 -0.197062 7.10932e-20)
(1.29049 -0.125981 5.63965e-19)
(1.28283 -0.0780441 -1.3424e-19)
(1.27805 -0.0433914 3.39914e-21)
(1.27507 -0.0142001 3.57836e-20)
(1.41139 -1.11858 3.86604e-18)
(1.48844 -1.03637 1.21493e-18)
(1.45241 -0.800198 -2.04051e-19)
(1.40045 -0.528154 5.80231e-20)
(1.35474 -0.320715 -2.60929e-20)
(1.3247 -0.198833 5.7366e-19)
(1.30569 -0.125844 -2.33439e-19)
(1.29345 -0.0774141 1.94107e-20)
(1.28602 -0.0428482 -1.19126e-19)
(1.28161 -0.0139758 -1.71853e-19)
(1.5771 -1.14106 -3.39008e-18)
(1.63255 -1.06436 2.23759e-18)
(1.54881 -0.826537 4.60901e-19)
(1.46034 -0.548409 5.35699e-19)
(1.39036 -0.330783 4.97172e-19)
(1.34668 -0.200991 2.83377e-19)
(1.32059 -0.125136 3.52521e-20)
(1.30388 -0.0762684 0)
(1.29379 -0.0419991 1.20775e-19)
(1.28792 -0.0136521 -9.55037e-21)
(1.85743 -1.17534 -8.92246e-18)
(1.8401 -1.06597 -3.51726e-18)
(1.68337 -0.817388 2.27899e-18)
(1.54533 -0.538804 -1.51902e-19)
(1.44479 -0.321697 -1.19342e-19)
(1.38036 -0.193995 2.53614e-19)
(1.34149 -0.120201 2.98201e-19)
(1.31757 -0.0729177 -1.65662e-20)
(1.30357 -0.0400235 -4.92674e-20)
(1.29569 -0.0130287 5.06364e-20)
(2.2326 -1.11994 7.78336e-19)
(2.06263 -0.995302 -1.7297e-18)
(1.80769 -0.742497 2.84226e-20)
(1.61575 -0.479906 -8.81498e-20)
(1.48503 -0.282166 6.28199e-20)
(1.40792 -0.171727 -1.08668e-19)
(1.36115 -0.107321 1.40656e-20)
(1.33145 -0.0652092 2.8574e-21)
(1.31394 -0.0358591 3.75881e-20)
(1.30422 -0.0118068 1.09287e-19)
(2.52793 -1.01344 2.42055e-18)
(2.22817 -0.884452 3.46877e-19)
(1.89843 -0.650453 -2.15783e-19)
(1.66901 -0.415246 -5.14108e-35)
(1.51907 -0.242779 1.08346e-19)
(1.43322 -0.14839 5.73463e-34)
(1.37903 -0.0925776 -1.6404e-19)
(1.34388 -0.0560881 -9.29136e-33)
(1.32306 -0.0309127 3.88162e-20)
(1.31173 -0.010396 -1.12266e-19)
(2.69951 -0.861003 4.60587e-33)
(2.28493 -0.741201 2.12991e-18)
(1.92928 -0.542317 9.93203e-19)
(1.68494 -0.344142 0)
(1.53643 -0.203831 5.82748e-19)
(1.44889 -0.124732 2.96745e-19)
(1.38969 -0.0772837 2.18694e-19)
(1.35031 -0.0465296 -1.5055e-32)
(1.32683 -0.025692 6.57584e-20)
(1.31384 -0.00883114 1.10828e-19)
(2.68827 -0.675228 4.18151e-18)
(2.19194 -0.579813 -1.79104e-19)
(1.84421 -0.413608 0)
(1.59027 -0.256029 0)
(1.44707 -0.150537 0)
(1.36157 -0.090679 0)
(1.30562 -0.0551614 -4.14884e-20)
(1.26937 -0.0328502 -1.60415e-32)
(1.24789 -0.0179667 3.58801e-20)
(1.23447 -0.00665782 1.28759e-32)
(2.48017 -0.491906 3.5671e-18)
(1.97146 -0.424679 0)
(1.634 -0.295988 0)
(1.38527 -0.183803 0)
(1.24452 -0.109182 0)
(1.16342 -0.0647201 0)
(1.11266 -0.0383486 7.7016e-20)
(1.0811 -0.0223244 -1.55704e-19)
(1.06282 -0.0118462 3.28955e-20)
(1.05246 -0.00476564 9.15121e-20)
(2.12388 -0.326946 0)
(1.65781 -0.279839 1.62756e-18)
(1.35329 -0.192507 1.6929e-18)
(1.13758 -0.119336 0)
(1.01519 -0.0721565 6.474e-19)
(0.944309 -0.0430078 3.0006e-19)
(0.900842 -0.0253043 2.26448e-19)
(0.874483 -0.0145857 7.9505e-20)
(0.859499 -0.00759031 -3.81625e-20)
(0.851327 -0.00312189 8.57377e-20)
(1.64864 -0.183288 -6.98299e-19)
(1.26403 -0.153208 -3.0391e-19)
(1.01793 -0.103516 2.30439e-19)
(0.849955 -0.0632984 -1.22951e-34)
(0.753678 -0.0388866 -1.40285e-19)
(0.696926 -0.0232686 2.3128e-33)
(0.662643 -0.0135202 7.57836e-20)
(0.64243 -0.00767338 1.90065e-19)
(0.631203 -0.00388508 2.7772e-20)
(0.625245 -0.00165791 -8.21399e-20)
(1.06564 -0.0731079 3.52436e-18)
(0.800255 -0.0579265 -3.76249e-19)
(0.637061 -0.0376516 -6.74685e-19)
(0.52955 -0.0222238 0)
(0.467544 -0.0140492 -4.23618e-19)
(0.429933 -0.0085175 -2.48479e-19)
(0.407253 -0.00490966 -6.24265e-20)
(0.394151 -0.00275266 -7.52338e-20)
(0.387021 -0.00134476 1.04945e-19)
(0.38329 -0.000610902 6.81296e-20)
(0.385567 -0.00295474 0)
(0.280724 0.00185995 0)
(0.221346 0.00333172 0)
(0.183689 0.0040303 0)
(0.161848 0.00296347 0)
(0.147858 0.00219939 0)
(0.139276 0.00145977 6.54438e-20)
(0.134381 0.000862767 -2.63289e-34)
(0.131769 0.000511188 2.48324e-20)
(0.130379 0.00017128 6.75506e-20)
(3.32905 -0.0870241 5.35582e-19)
(3.28891 -0.26481 -9.6421e-20)
(3.21069 -0.429253 9.38779e-19)
(3.09676 -0.579737 -6.10316e-19)
(2.95191 -0.71512 7.43276e-19)
(2.78216 -0.833394 3.31946e-19)
(2.59489 -0.931851 -2.01047e-18)
(2.39903 -1.00727 -1.09714e-19)
(2.19592 -1.05566 0)
(1.96008 -1.07238 5.31632e-19)
(3.80999 -0.0761049 7.65946e-18)
(3.74824 -0.232287 2.15345e-18)
(3.6534 -0.382099 -5.32971e-18)
(3.53368 -0.524295 -5.20434e-19)
(3.39206 -0.656293 3.89156e-18)
(3.23206 -0.776233 2.16603e-18)
(3.05741 -0.882944 -5.70679e-18)
(2.87343 -0.975198 -2.09497e-18)
(2.67932 -1.05147 2.26817e-18)
(2.44698 -1.11039 9.07441e-19)
(3.73295 -0.0536638 -1.15819e-19)
(3.72081 -0.167079 4.24053e-18)
(3.6893 -0.290424 -1.02653e-18)
(3.63306 -0.417748 -3.43543e-18)
(3.55008 -0.542599 -6.76225e-18)
(3.44193 -0.660047 1.04247e-17)
(3.31266 -0.767461 4.26398e-18)
(3.16724 -0.864458 -4.00472e-18)
(3.00707 -0.95384 -2.92802e-18)
(2.81606 -1.03709 -3.46811e-18)
(3.52934 -0.0474434 -4.99507e-18)
(3.52043 -0.142497 -4.50122e-18)
(3.50108 -0.238492 5.67569e-18)
(3.47005 -0.334536 1.99653e-18)
(3.427 -0.42992 -9.35497e-18)
(3.37122 -0.524155 5.54091e-19)
(3.30153 -0.616284 3.9971e-18)
(3.2171 -0.705826 -1.10913e-18)
(3.11855 -0.795005 1.30704e-18)
(2.99851 -0.883782 2.70435e-19)
(3.23995 -0.0363619 -9.70385e-19)
(3.23501 -0.108622 3.16511e-18)
(3.2238 -0.182725 1.7267e-18)
(3.20539 -0.258171 -2.07228e-18)
(3.17966 -0.333799 -2.1218e-18)
(3.14695 -0.408361 -2.5196e-18)
(3.10742 -0.480911 3.92079e-19)
(3.06055 -0.551452 2.04481e-19)
(3.00762 -0.621354 -2.35916e-18)
(2.94863 -0.692251 -2.22839e-18)
(2.86239 -0.026283 -1.92392e-18)
(2.85961 -0.077495 -6.2354e-20)
(2.8534 -0.130002 -1.73182e-18)
(2.84316 -0.183981 3.37502e-19)
(2.82861 -0.23914 5.71821e-18)
(2.80976 -0.294864 -3.97052e-19)
(2.78659 -0.350254 4.80711e-20)
(2.75868 -0.404296 -2.8359e-18)
(2.72811 -0.456172 -3.87215e-18)
(2.70157 -0.506522 4.39265e-19)
(2.39844 -0.0172516 -3.00027e-20)
(2.39701 -0.0502133 -8.65067e-19)
(2.39393 -0.0840079 -2.76877e-18)
(2.38875 -0.118932 -3.6591e-18)
(2.38109 -0.15501 2.64849e-18)
(2.37069 -0.192 1.60651e-18)
(2.35722 -0.229324 -1.47178e-18)
(2.34011 -0.266017 1.77269e-18)
(2.32134 -0.300999 -4.97401e-19)
(2.31081 -0.334465 -1.07631e-18)
(1.84524 -0.00950906 8.11742e-19)
(1.84459 -0.0272987 -8.62492e-19)
(1.84331 -0.0455865 -2.88786e-20)
(1.841 -0.0646052 -5.10847e-20)
(1.83725 -0.0844348 -9.3588e-20)
(1.83167 -0.104965 -2.45958e-18)
(1.82383 -0.125834 -7.4264e-19)
(1.81315 -0.146371 2.84858e-18)
(1.80124 -0.16584 -6.86725e-19)
(1.79797 -0.184445 -1.41573e-18)
(1.19613 -0.00365581 -1.71124e-18)
(1.19585 -0.0103023 -8.74804e-19)
(1.19542 -0.0171818 2.45222e-18)
(1.1945 -0.0244151 -9.15376e-19)
(1.1927 -0.032056 -7.18615e-19)
(1.18964 -0.0400635 1.46145e-18)
(1.18491 -0.0482707 -1.39913e-18)
(1.17806 -0.0563514 1.38923e-18)
(1.17025 -0.063912 -1.28642e-18)
(1.16889 -0.0710145 -4.56193e-18)
(0.440451 -0.000242466 6.87631e-19)
(0.440353 -0.000646142 7.28176e-19)
(0.440238 -0.00106296 7.76817e-19)
(0.439926 -0.00149794 1.41071e-18)
(0.439196 -0.00194782 -7.09581e-19)
(0.43783 -0.00239164 -1.35687e-18)
(0.435602 -0.00279992 6.49689e-19)
(0.432229 -0.00324699 1.87735e-20)
(0.428116 -0.00403938 -4.01476e-20)
(0.426836 -0.00472849 9.51003e-20)
(1.63285 0.996822 -2.80391e-19)
(1.49623 0.943526 2.21984e-20)
(1.34727 0.883892 -2.7685e-19)
(1.19011 0.812589 2.03775e-19)
(1.0254 0.728698 -1.26337e-19)
(0.853397 0.631963 -1.14316e-19)
(0.674375 0.521572 1.95802e-19)
(0.488869 0.396092 -3.18816e-19)
(0.297963 0.25345 2.90564e-19)
(0.102608 0.0927908 2.48382e-19)
(1.8613 0.9894 0)
(1.70923 0.933724 6.92021e-19)
(1.545 0.873122 4.61444e-19)
(1.3707 0.803204 9.68069e-20)
(1.18674 0.721895 3.1004e-19)
(0.992995 0.628257 -9.67871e-20)
(0.789426 0.520987 -8.91938e-20)
(0.57625 0.398085 1.21627e-19)
(0.354143 0.256691 -1.00789e-18)
(0.1234 0.0949805 5.09104e-22)
(2.06331 0.954373 1.68821e-19)
(1.9017 0.901844 0)
(1.72693 0.844423 -1.085e-19)
(1.53991 0.77846 -3.32597e-19)
(1.3406 0.701707 5.79033e-20)
(1.12855 0.612911 3.15529e-19)
(0.903288 0.510492 -5.70579e-19)
(0.664485 0.392126 -1.72929e-19)
(0.412086 0.254458 7.49815e-19)
(0.145429 0.0949286 -1.86217e-19)
(2.25525 0.892418 1.8787e-19)
(2.08456 0.84572 6.60965e-21)
(1.89937 0.794004 4.15396e-20)
(1.70019 0.734003 1.91947e-20)
(1.4866 0.663597 -9.83719e-20)
(1.25768 0.58149 2.36537e-19)
(1.0124 0.486029 -1.70476e-19)
(0.74968 0.374789 -8.42883e-19)
(0.468494 0.244272 0)
(0.167072 0.0915808 0)
(2.43675 0.80523 -1.17123e-18)
(2.25651 0.765075 -7.00916e-19)
(2.06075 0.720107 -1.5602e-19)
(1.84971 0.667342 -7.02478e-20)
(1.6225 0.604844 0)
(1.37777 0.531377 2.51667e-19)
(1.11386 0.445321 2.78902e-19)
(0.828937 0.344335 2.97891e-19)
(0.520979 0.225056 -4.39602e-19)
(0.187179 0.0846071 -8.40009e-20)
(2.60138 0.695549 8.48807e-19)
(2.41204 0.662137 -1.47874e-19)
(2.20639 0.624419 -2.77389e-19)
(1.98433 0.579718 0)
(1.74462 0.526378 0)
(1.48545 0.463278 0)
(1.20468 0.388954 -6.1739e-21)
(0.899756 0.30128 3.3732e-19)
(0.567779 0.197259 3.50126e-19)
(0.205038 0.074269 -3.11271e-19)
(2.74203 0.566478 -1.30028e-18)
(2.54464 0.539852 -1.61732e-18)
(2.33031 0.509657 -4.48711e-22)
(2.09871 0.473643 -1.80441e-19)
(1.84822 0.430471 -9.725e-20)
(1.57669 0.379239 -1.60467e-19)
(1.2815 0.318697 4.60529e-19)
(0.959565 0.247088 1.80449e-19)
(0.607224 0.161916 5.55333e-19)
(0.220045 0.0610015 2.08777e-19)
(2.85251 0.421048 -1.24379e-18)
(2.64844 0.401272 8.96489e-20)
(2.42712 0.37888 1.79513e-19)
(2.18793 0.352106 1.08363e-20)
(1.92894 0.320023 -3.179e-19)
(1.64771 0.281943 -1.57796e-19)
(1.34124 0.236953 -6.44759e-19)
(1.00601 0.183712 1.05712e-19)
(0.637803 0.120388 5.84967e-20)
(0.231645 0.0453409 -5.34089e-21)
(2.92781 0.261947 1.09739e-19)
(2.71883 0.249364 4.2006e-19)
(2.49261 0.235199 -3.50716e-19)
(2.24821 0.21835 3.72088e-19)
(1.98345 0.198231 3.89414e-19)
(1.69563 0.174472 5.12052e-19)
(1.38152 0.146474 -6.69112e-19)
(1.03728 0.113446 -3.29988e-19)
(0.658348 0.0742542 -4.48163e-20)
(0.239409 0.0279221 -3.37461e-19)
(2.96552 0.0918118 6.1394e-19)
(2.75364 0.087185 -1.92459e-19)
(2.5248 0.0820455 5.05307e-19)
(2.27774 0.0759389 -3.26643e-19)
(2.01009 0.0687263 2.78911e-19)
(1.719 0.0602589 6.29212e-19)
(1.40112 0.0503868 3.91503e-19)
(1.05244 0.0388355 3.21433e-19)
(0.668257 0.0252912 2.74424e-19)
(0.243123 0.00944492 5.59896e-19)
(0.265892 0.418362 -4.12183e-19)
(0.22808 0.387996 -2.66138e-19)
(0.190067 0.356773 2.67984e-19)
(0.15281 0.324314 -1.07795e-18)
(0.117074 0.290212 -2.35586e-19)
(0.0839863 0.253784 1.11362e-18)
(0.0546385 0.212868 4.07061e-19)
(0.0296847 0.162867 -1.23925e-19)
(0.0109091 0.100347 1.38378e-19)
(-0.000947626 0.0332443 -1.0651e-19)
(0.308685 0.517445 3.9351e-19)
(0.266391 0.484023 5.01443e-19)
(0.224048 0.448485 4.00909e-21)
(0.182605 0.410128 -3.65246e-19)
(0.142757 0.367902 -1.02091e-18)
(0.105733 0.32032 1.57697e-19)
(0.0727976 0.26498 4.46491e-19)
(0.0445823 0.19888 7.34961e-20)
(0.0214659 0.121763 -4.02346e-19)
(0.00329744 0.041309 -1.41027e-19)
(0.374195 0.614769 -6.54987e-19)
(0.326249 0.578067 -5.88623e-19)
(0.278289 0.537597 4.44141e-19)
(0.231187 0.492341 4.78106e-19)
(0.18547 0.440607 -2.30813e-20)
(0.142213 0.380463 -2.68752e-19)
(0.102571 0.310497 -6.37389e-20)
(0.067049 0.230333 -2.43679e-19)
(0.0356971 0.141336 -1.51344e-19)
(0.00854889 0.0488443 -2.9565e-20)
(0.463872 0.707767 5.81753e-19)
(0.408892 0.667634 2.0708e-19)
(0.353662 0.621601 -2.95722e-19)
(0.298879 0.568487 4.14643e-19)
(0.244885 0.506507 -1.06233e-19)
(0.19257 0.434292 2.56262e-20)
(0.142851 0.351732 -1.94616e-19)
(0.0963314 0.259759 1.5651e-19)
(0.0535245 0.159858 -2.67244e-19)
(0.0148765 0.0558099 -2.71382e-20)
(0.576607 0.793949 -3.25255e-19)
(0.513185 0.750352 -1.16133e-19)
(0.448949 0.698413 -2.3907e-20)
(0.384362 0.637221 7.88814e-21)
(0.319606 0.565596 3.4552e-20)
(0.255467 0.483089 -7.35786e-21)
(0.192773 0.390283 2.06481e-20)
(0.132403 0.288242 -9.57312e-20)
(0.0753892 0.178078 1.61169e-19)
(0.0225761 0.0626134 7.79704e-20)
(0.709187 0.871117 7.23698e-19)
(0.636114 0.824134 3.95606e-19)
(0.561344 0.766406 3.59994e-19)
(0.48517 0.697832 6.90269e-20)
(0.407635 0.618125 1.44962e-19)
(0.329515 0.527434 7.06308e-20)
(0.251683 0.426389 1.77555e-19)
(0.175249 0.315712 5.53655e-20)
(0.10159 0.196001 9.27061e-20)
(0.0318588 0.0693788 3.90599e-20)
(0.857627 0.937116 -1.40874e-19)
(0.77402 0.886941 -9.29399e-19)
(0.687594 0.824009 -1.39032e-19)
(0.598582 0.74938 -2.19645e-22)
(0.506899 0.663503 -1.34235e-20)
(0.413345 0.566655 2.1153e-19)
(0.318847 0.45917 -6.03839e-20)
(0.224606 0.341291 8.82111e-20)
(0.132159 0.213065 -2.31921e-19)
(0.0428296 0.0759445 6.12139e-21)
(1.01874 0.988551 -9.11348e-19)
(0.923985 0.935707 6.87548e-20)
(0.825203 0.868768 -2.99214e-19)
(0.722571 0.789918 -7.28875e-20)
(0.615854 0.699984 1.45301e-20)
(0.505863 0.599025 -1.04985e-19)
(0.393518 0.486954 5.90634e-20)
(0.279996 0.363527 6.12683e-20)
(0.166843 0.228246 -1.05176e-20)
(0.0554193 0.0818951 -1.38411e-19)
(1.1926 1.0195 1.30348e-19)
(1.08612 0.965573 4.78428e-19)
(0.97432 0.896776 1.11385e-21)
(0.857267 0.816203 1.78683e-20)
(0.734577 0.724753 1.14889e-19)
(0.607052 0.62208 -3.03e-19)
(0.475553 0.50764 -2.28089e-19)
(0.341159 0.380735 3.36922e-19)
(0.205349 0.240366 1.51655e-19)
(0.0694387 0.0867266 -5.45067e-20)
(1.38557 1.01595 7.16067e-19)
(1.26738 0.965407 2.92979e-19)
(1.14096 0.900396 9.65178e-20)
(1.00735 0.822693 -1.08441e-19)
(0.866513 0.733512 8.73298e-21)
(0.719286 0.632469 4.31689e-19)
(0.566396 0.518726 -2.77621e-19)
(0.408754 0.391192 -1.83019e-19)
(0.247743 0.248396 3.33998e-19)
(0.0846445 0.0901092 -1.72562e-20)
(0.905946 0.0972032 1.01342e-20)
(1.17522 0.155475 -2.08098e-19)
(1.11964 0.159313 -2.27665e-19)
(1.14984 0.162995 0)
(1.14583 0.186432 2.46701e-19)
(1.11534 0.236269 2.71341e-19)
(1.05002 0.324708 3.53557e-19)
(0.941733 0.463793 6.11248e-19)
(0.743262 0.595495 -7.62407e-19)
(0.453174 0.555648 -5.69324e-19)
(0.902861 0.0807737 4.37797e-19)
(1.17099 0.140417 -5.92864e-19)
(1.12006 0.149548 4.89764e-21)
(1.15478 0.160701 -1.46592e-19)
(1.15705 0.191505 9.41887e-20)
(1.13457 0.250019 -1.72483e-19)
(1.07863 0.352322 -9.76461e-19)
(0.981574 0.511499 0)
(0.788449 0.667563 1.59607e-18)
(0.509589 0.649608 -9.15464e-19)
(0.900159 0.0654371 -2.51587e-19)
(1.16953 0.124487 1.38638e-19)
(1.12233 0.138982 3.96443e-19)
(1.16192 0.157084 1.21005e-19)
(1.17036 0.195025 -2.07797e-19)
(1.15603 0.262293 -8.707e-20)
(1.1109 0.378968 -6.50273e-19)
(1.02631 0.558861 2.09215e-20)
(0.844302 0.73808 -3.77128e-21)
(0.586828 0.740953 1.28522e-18)
(0.897764 0.0507327 -1.76756e-19)
(1.1705 0.107743 2.42113e-20)
(1.12642 0.127684 2.54611e-19)
(1.17116 0.152333 1.39755e-19)
(1.18575 0.197163 -1.38002e-19)
(1.17988 0.273223 -2.24388e-19)
(1.1469 0.404592 9.55737e-19)
(1.07634 0.605357 1.66777e-20)
(0.913562 0.805223 -1.37074e-18)
(0.686472 0.827384 2.53827e-20)
(0.895635 0.0362692 4.79354e-20)
(1.17363 0.0902023 -1.70387e-19)
(1.1323 0.115738 -1.55863e-19)
(1.18243 0.146622 6.05094e-20)
(1.20318 0.198087 0)
(1.2062 0.282917 0)
(1.18654 0.42918 7.54534e-19)
(1.13266 0.650145 -2.07191e-20)
(0.998505 0.866947 -5.13112e-19)
(0.807489 0.907056 1.24881e-19)
(0.893765 0.0217031 -1.51686e-20)
(1.17873 0.0718503 1.12085e-19)
(1.13994 0.103259 -3.39388e-19)
(1.19558 0.140122 -2.14605e-19)
(1.22254 0.197973 -3.81152e-20)
(1.23489 0.291511 7.31871e-19)
(1.22976 0.452621 1.1378e-18)
(1.19655 0.69196 -1.56635e-20)
(1.09971 0.921616 6.67528e-19)
(0.94637 0.978962 -3.40713e-19)
(0.892186 0.00673592 1.58801e-19)
(1.1856 0.0526229 2.28062e-20)
(1.14929 0.0903865 -8.48526e-20)
(1.21048 0.132994 -3.39146e-19)
(1.24372 0.196943 9.50631e-20)
(1.26583 0.298968 1.84251e-20)
(1.2771 0.474397 -1.26497e-19)
(1.26911 0.729414 -1.17655e-18)
(1.21595 0.968697 4.80659e-19)
(1.09818 1.04274 -1.53533e-18)
(0.890949 -0.00885952 7.82143e-20)
(1.194 0.0324173 -5.54315e-20)
(1.16034 0.0772607 1.0387e-19)
(1.22696 0.12539 2.49185e-19)
(1.26641 0.195282 4.11291e-20)
(1.29838 0.3056 -7.56247e-19)
(1.32823 0.494154 -4.84554e-19)
(1.34984 0.761714 1.68819e-18)
(1.34443 1.00863 3.215e-20)
(1.25773 1.09757 3.52733e-18)
(0.890041 -0.0251278 -4.33201e-19)
(1.20379 0.0113259 -2.36673e-21)
(1.17315 0.0640411 1.48138e-19)
(1.24485 0.117376 -2.49253e-19)
(1.29061 0.192479 -8.63314e-19)
(1.33401 0.310447 4.51427e-20)
(1.38508 0.511782 -4.58578e-19)
(1.43971 0.789597 1.62868e-18)
(1.48332 1.04259 -3.4132e-20)
(1.4216 1.14049 -7.05048e-18)
(0.889401 -0.0421935 7.98245e-21)
(1.21531 -0.00991478 -3.74744e-20)
(1.1884 0.0510088 -2.07891e-20)
(1.26427 0.10949 -5.45419e-19)
(1.31521 0.190587 -7.37015e-19)
(1.36939 0.318357 -4.5731e-19)
(1.44236 0.531751 -1.03061e-18)
(1.53255 0.816872 -2.63234e-18)
(1.62496 1.07086 -1.78251e-18)
(1.58609 1.16169 -8.82843e-18)
(0.89112 -0.0688408 -2.65357e-20)
(1.22913 -0.0369297 2.12534e-20)
(1.20879 0.0312371 3.92498e-20)
(1.28891 0.0955665 -8.53874e-20)
(1.35008 0.178895 2.8433e-19)
(1.42243 0.306806 -3.85224e-19)
(1.52392 0.521026 9.27622e-19)
(1.66183 0.806596 -4.41092e-18)
(1.82683 1.06988 -2.36242e-18)
(1.86127 1.19325 4.40943e-18)
(0.899237 -0.110011 -5.82765e-19)
(1.24939 -0.0696501 -1.90401e-19)
(1.23201 0.00106823 -1.2654e-20)
(1.31443 0.0718579 -4.9497e-20)
(1.38136 0.152582 2.57784e-19)
(1.46369 0.267439 4.71474e-19)
(1.59179 0.462839 2.24676e-20)
(1.78012 0.730491 4.16669e-19)
(2.03979 0.994826 1.63061e-18)
(2.2232 1.13015 -5.20432e-19)
(0.909022 -0.158122 -3.93761e-20)
(1.27706 -0.104599 -7.04792e-20)
(1.25773 -0.0292602 7.09635e-20)
(1.34119 0.0472108 1.28616e-19)
(1.41167 0.125279 5.41427e-34)
(1.49984 0.227582 -1.46711e-19)
(1.64479 0.399147 -7.64733e-33)
(1.86802 0.638315 2.80384e-19)
(2.19888 0.881583 -9.98572e-19)
(2.50641 1.01783 -6.61125e-19)
(0.915162 -0.214933 1.42113e-18)
(1.30769 -0.143552 -7.64501e-34)
(1.28356 -0.0592245 -7.68319e-20)
(1.36681 0.0235431 1.28415e-19)
(1.43822 0.0997097 -2.09033e-19)
(1.52555 0.190868 -5.05138e-19)
(1.66815 0.332699 -9.28136e-33)
(1.90421 0.533408 -1.20578e-18)
(2.25823 0.739184 -2.61591e-18)
(2.6737 0.862817 1.78303e-18)
(0.913958 -0.278357 0)
(1.33169 -0.180353 -5.96227e-33)
(1.30226 -0.0923065 0)
(1.35147 7.36221e-05 0)
(1.38927 0.0705053 0)
(1.46036 0.14156 0)
(1.5906 0.248091 -1.1088e-32)
(1.8336 0.407015 0)
(2.17491 0.578232 -4.06528e-19)
(2.66941 0.67646 1.36395e-18)
(0.903699 -0.346718 1.03676e-19)
(1.32881 -0.222216 -7.22326e-19)
(1.16786 -0.0934726 -1.03679e-19)
(1.16264 -0.00619914 0)
(1.18682 0.0496864 0)
(1.25598 0.103134 1.35521e-19)
(1.38803 0.178603 1.60678e-18)
(1.62998 0.290737 -2.60066e-19)
(1.96143 0.423376 -5.74611e-19)
(2.47069 0.491982 4.92869e-18)
(0.874192 -0.401088 -1.52778e-17)
(1.14934 -0.23579 8.46601e-19)
(0.946245 -0.0771817 -1.20335e-19)
(0.938535 -0.00359681 -2.84891e-19)
(0.961803 0.0353975 -3.98543e-19)
(1.02505 0.069771 -5.46218e-19)
(1.14216 0.117148 -1.29143e-18)
(1.35296 0.189798 -2.05015e-18)
(1.65324 0.279447 -2.24658e-18)
(2.1209 0.326744 4.28039e-18)
(0.802944 -0.393403 -4.05009e-19)
(0.909487 -0.186505 -1.18804e-18)
(0.705415 -0.0535181 -1.52225e-19)
(0.690861 -0.00448496 -1.07533e-19)
(0.709581 0.0197995 4.78107e-34)
(0.761745 0.038212 1.57012e-19)
(0.855366 0.0626406 -2.22429e-32)
(1.02021 0.102477 -2.56793e-19)
(1.26379 0.153312 3.31344e-19)
(1.65011 0.183298 7.2941e-19)
(0.660818 -0.288221 3.44421e-17)
(0.625259 -0.101331 -2.88229e-18)
(0.442229 -0.0250752 -2.4745e-19)
(0.423832 -0.00314761 6.52913e-20)
(0.437182 0.00753298 2.54963e-19)
(0.473011 0.0140588 5.87873e-19)
(0.534244 0.0222084 6.45968e-19)
(0.640263 0.0374401 4.56784e-19)
(0.802378 0.0581153 -5.01373e-20)
(1.06923 0.07319 3.40692e-18)
(0.335652 -0.0769737 5.5987e-19)
(0.263003 -0.00316807 -6.69711e-33)
(0.159232 0.0135199 -2.94145e-19)
(0.146703 0.000983965 0)
(0.15069 -0.00116154 0)
(0.16413 -0.00272949 1.30091e-19)
(0.186015 -0.00388505 -2.40949e-35)
(0.223375 -0.00322524 -1.74311e-19)
(0.282583 -0.00175567 -3.20806e-19)
(0.388143 0.00301129 1.0383e-18)
(1.97044 1.08985 -1.81401e-18)
(2.20396 1.0705 -2.40923e-18)
(2.40579 1.0205 0)
(2.60021 0.943702 -8.07386e-19)
(2.78607 0.843998 -1.89418e-18)
(2.95463 0.724664 -2.43449e-18)
(3.09851 0.588492 -4.451e-19)
(3.21175 0.437625 1.36598e-18)
(3.28946 0.273507 -3.83271e-18)
(3.32913 0.0967178 1.45724e-18)
(2.44728 1.12047 2.43653e-19)
(2.67653 1.06066 1.44285e-18)
(2.86983 0.983805 1.80737e-19)
(3.05269 0.89095 6.01359e-19)
(3.22633 0.783771 -1.11359e-18)
(3.3856 0.663614 -5.2635e-18)
(3.52672 0.531613 2.72525e-18)
(3.64644 0.389532 1.3659e-17)
(3.74104 0.239732 1.1707e-19)