/*--------------------------------*- C++ -*----------------------------------*\
  =========                 |
  \\      /  F ield         | OpenFOAM: The Open Source CFD Toolbox
   \\    /   O peration     | Website:  https://openfoam.org
    \\  /    A nd           | Version:  13
     \\/     M anipulation  |
\*---------------------------------------------------------------------------*/
FoamFile
{
    format      ascii;
    class       volScalarField;
    location    "0.85";
    object      p;
}
// * * * * * * * * * * * * * * * * * * * * * * * * * * * * * * * * * * * * * //

dimensions      [0 2 -2 0 0 0 0];

internalField   nonuniform List<scalar> 
440
(
7.82692
10.5833
12.9458
13.1273
10.151
20.7169
24.1002
27.0956
27.796
25.9079
41.2535
44.2848
46.9878
47.7804
46.6194
67.3863
69.4841
71.3975
72.0541
71.3666
96.6626
97.4795
98.2765
98.6766
98.643
-0.451285
-0.551297
-0.0797558
0.481569
0.824675
-1.67448
-2.34171
-2.08301
-1.38812
-0.75056
-2.01849
-2.90154
-2.8262
-2.07381
-0.957341
-0.678197
-0.811399
-0.408081
0.553699
2.41718
3.08446
4.39572
5.82437
7.25474
9.50345
2.08658
2.26647
1.33508
0.679811
0.237931
1.06035
2.08062
1.21749
0.621077
0.232753
-0.0922814
1.67025
1.08854
0.57541
0.225328
-0.403889
1.06517
0.879101
0.542769
0.213329
1.50216
0.474397
0.59523
0.485661
0.189311
4.37202
0.245737
0.342902
0.413629
0.145314
6.71818
0.709946
0.445491
0.408648
0.0819669
9.98267
2.44763
1.08982
0.541007
0.0485035
13.8711
4.74635
2.13389
0.82261
0.0588059
16.6069
7.10758
3.45395
1.3112
0.164014
100.687
75.8384
53.3227
33.1475
12.3445
102.382
78.941
57.536
39.0561
23.4821
104.283
82.7006
62.4737
45.2336
32.887
105.166
85.0196
66.5013
51.1821
40.6556
105.085
84.7422
66.3272
51.2496
40.8951
219.867
216.385
216.089
218.204
220.937
202.687
200.22
200.478
203.219
206.511
180.539
178.766
179.129
181.552
184.43
154.74
153.397
153.602
155.196
157.092
126.859
126.146
126.085
126.545
127.138
235.595
236.027
236.67
237.1
236.847
236.156
236.795
237.355
237.335
236.385
234.934
235.91
236.326
236.054
235.067
230.046
231.644
232.206
232.34
232.248
221.565
223.426
224.435
225.643
226.997
235.712
234.73
234.894
234.145
234.279
235.677
234.713
234.841
234.097
234.798
235.665
234.672
234.776
234.205
235.306
235.666
234.605
234.766
234.456
234.892
235.672
234.517
234.833
234.654
232.207
235.688
234.37
234.88
234.427
228.724
235.887
234.23
234.769
233.929
226.353
236.795
234
234.143
232.247
223.332
240.844
233.977
232.966
229.791
219.661
249.816
234.705
231.744
227.247
216.91
217.76
196.234
175.026
151.731
126.445
207.363
191.368
172.323
150.419
126.65
198.875
186.195
168.613
148.086
126.332
191.743
180.783
165.098
146.26
125.918
191.526
180.764
165.353
146.66
126.149
96.3942
95.5174
95.0697
94.3028
94.1462
57.3121
55.3652
53.6598
51.738
50.972
29.4812
27.1379
24.3751
22.076
20.7514
15.029
12.6124
10.1469
8.12662
7.15604
9.19934
7.31157
5.92474
4.94943
4.36222
5.96886
4.86686
4.28732
4.19884
4.28717
4.05985
3.60064
3.52893
3.68493
3.83868
2.75032
2.73729
2.97167
3.27563
3.43419
1.65002
1.95478
2.40705
2.75808
2.90293
0.60546
1.00174
1.57474
1.97736
2.15195
3.60837
3.17543
2.06212
0.951893
0.270071
3.66191
3.0036
1.96991
0.896036
0.259521
3.46218
2.74096
1.84082
0.845075
0.252008
3.14167
2.4968
1.67777
0.79405
0.247326
2.72681
2.35093
1.49474
0.738771
0.24288
4.47579
3.15804
1.9752
0.996917
0.306239
3.73941
3.2534
2.06421
0.988652
0.284508
94.9017
54.1421
27.5041
14.4803
9.45991
93.6805
51.1327
22.9806
9.46455
5.25413
232.144
232.225
232.174
231.658
230.58
232.731
232.905
233.134
233.172
232.796
233.295
233.467
233.854
234.252
234.423
233.897
234.048
234.453
235.057
235.477
234.646
234.882
235.388
236.004
236.266
141.979
141.787
140.959
140.448
139.537
185.214
184.405
182.426
180.66
178.682
215.514
214.144
211.794
208.98
206.606
229.151
228.144
226.093
223.595
221.15
231.999
231.385
230.413
229.03
227.131
238.82
234.445
234.526
233.514
232.897
237.116
234.487
234.615
233.681
232.914
236.347
234.577
234.719
233.905
233.245
235.974
234.66
234.823
234.109
233.626
235.793
234.713
234.89
234.196
233.945
252.263
235.785
234.882
233.45
231.98
243.168
234.691
234.464
233.394
232.7
226.936
221.863
208.754
182.037
141.228
231.134
226.891
213.308
185.06
142.452
)
;

boundaryField
{
    left
    {
        type            zeroGradient;
    }
    right
    {
        type            fixedValue;
        value           uniform 0;
    }
    down
    {
        type            zeroGradient;
    }
    up
    {
        type            zeroGradient;
    }
    cylinder
    {
        type            zeroGradient;
    }
    defaultFaces
    {
        type            empty;
    }
}


// ************************************************************************* //
