/*--------------------------------*- C++ -*----------------------------------*\
  =========                 |
  \\      /  F ield         | OpenFOAM: The Open Source CFD Toolbox
   \\    /   O peration     | Website:  https://openfoam.org
    \\  /    A nd           | Version:  13
     \\/     M anipulation  |
\*---------------------------------------------------------------------------*/
FoamFile
{
    format      ascii;
    class       volScalarField;
    location    "0.67";
    object      p;
}
// * * * * * * * * * * * * * * * * * * * * * * * * * * * * * * * * * * * * * //

dimensions      [0 2 -2 0 0 0 0];

internalField   nonuniform List<scalar> 
440
(
7.82779
10.5842
12.9468
13.1288
10.1533
20.7189
24.1022
27.0976
27.7982
25.9104
41.2558
44.2871
46.9901
47.7828
46.6219
67.3887
69.4865
71.3999
72.0565
71.3691
96.6651
97.4821
98.279
98.6791
98.6456
-0.448676
-0.548128
-0.0761289
0.484772
0.827275
-1.68227
-2.34721
-2.08591
-1.38956
-0.751696
-2.02839
-2.90984
-2.83147
-2.07646
-0.958854
-0.683868
-0.816436
-0.411349
0.552518
2.41722
3.08287
4.3943
5.82355
7.255
9.50469
2.0878
2.26963
1.34213
0.682926
0.235067
1.05917
2.08073
1.22169
0.624352
0.224432
-0.0931442
1.66966
1.08901
0.578842
0.216381
-0.402434
1.06622
0.879676
0.540996
0.208647
1.50554
0.477829
0.595125
0.489811
0.197318
4.37672
0.249553
0.334838
0.42656
0.165229
6.72056
0.710828
0.435159
0.420366
0.100798
9.98443
2.4497
1.08337
0.548789
0.0665547
13.8737
4.75142
2.13285
0.823614
0.0717082
16.6099
7.11362
3.4544
1.30495
0.169499
100.69
75.841
53.3254
33.1506
12.3478
102.385
78.9435
57.5384
39.0585
23.4845
104.286
82.7031
62.4761
45.2358
32.8891
105.169
85.0223
66.5042
51.1851
40.6587
105.088
84.7449
66.33
51.2526
40.8982
219.87
216.389
216.094
218.21
220.943
202.69
200.223
200.482
203.223
206.514
180.542
178.769
179.132
181.555
184.433
154.743
153.4
153.605
155.198
157.095
126.862
126.148
126.088
126.548
127.14
235.586
236.017
236.658
237.086
236.832
236.155
236.793
237.351
237.331
236.379
234.943
235.918
236.334
236.062
235.075
230.055
231.654
232.217
232.353
232.261
221.571
223.433
224.444
225.653
227.007
235.724
234.725
234.897
234.129
234.272
235.692
234.709
234.843
234.084
234.797
235.681
234.669
234.78
234.197
235.314
235.682
234.604
234.773
234.45
234.901
235.686
234.519
234.844
234.649
232.213
235.699
234.376
234.893
234.425
228.725
235.89
234.236
234.781
233.931
226.356
236.793
234.006
234.151
232.247
223.335
240.836
233.986
232.971
229.786
219.661
249.807
234.712
231.75
227.241
216.91
217.762
196.235
175.028
151.734
126.448
207.367
191.371
172.326
150.422
126.652
198.878
186.198
168.616
148.089
126.335
191.745
180.785
165.1
146.263
125.921
191.527
180.765
165.355
146.662
126.151
96.3955
95.5186
95.0709
94.304
94.1474
57.3141
55.3672
53.6618
51.7401
50.9741
29.4838
27.1405
24.3777
22.0787
20.7542
15.0318
12.6153
10.1498
8.12951
7.15899
9.20248
7.31475
5.92778
4.95227
4.36514
5.97273
4.8706
4.2906
4.20173
4.28995
4.06528
3.60556
3.53309
3.68852
3.84206
2.7581
2.74383
2.97714
3.28044
3.43882
1.65699
1.96138
2.41272
2.76345
2.90825
0.610962
1.00786
1.58059
1.98262
2.15685
3.61153
3.17953
2.06753
0.962985
0.277231
3.66529
3.0084
1.97528
0.906883
0.265967
3.46668
2.74706
1.84634
0.855137
0.257036
3.14677
2.50387
1.6838
0.802305
0.249715
2.73079
2.35716
1.50171
0.744727
0.243029
4.47928
3.16318
1.98115
1.00617
0.311471
3.74239
3.25739
2.07
0.999263
0.291357
94.903
54.1442
27.5067
14.4831
9.46299
93.6818
51.1348
22.9834
9.46764
5.25728
232.142
232.223
232.173
231.656
230.579
232.73
232.903
233.133
233.171
232.796
233.293
233.465
233.852
234.25
234.42
233.892
234.044
234.448
235.051
235.47
234.637
234.874
235.378
235.993
236.253
141.979
141.787
140.959
140.449
139.538
185.214
184.405
182.426
180.659
178.682
215.513
214.143
211.793
208.979
206.604
229.149
228.142
226.092
223.593
221.148
231.997
231.383
230.411
229.028
227.129
238.817
234.442
234.536
233.509
232.896
237.114
234.484
234.624
233.678
232.914
236.349
234.573
234.728
233.902
233.244
235.979
234.655
234.831
234.103
233.623
235.802
234.709
234.897
234.184
233.938
252.258
235.782
234.892
233.445
231.98
243.164
234.689
234.473
233.389
232.699
226.935
221.861
208.753
182.036
141.229
231.132
226.889
213.307
185.06
142.452
)
;

boundaryField
{
    left
    {
        type            zeroGradient;
    }
    right
    {
        type            fixedValue;
        value           uniform 0;
    }
    down
    {
        type            zeroGradient;
    }
    up
    {
        type            zeroGradient;
    }
    cylinder
    {
        type            zeroGradient;
    }
    defaultFaces
    {
        type            empty;
    }
}


// ************************************************************************* //
