/*--------------------------------*- C++ -*----------------------------------*\
  =========                 |
  \\      /  F ield         | OpenFOAM: The Open Source CFD Toolbox
   \\    /   O peration     | Website:  https://openfoam.org
    \\  /    A nd           | Version:  13
     \\/     M anipulation  |
\*---------------------------------------------------------------------------*/
FoamFile
{
    format      ascii;
    class       surfaceScalarField;
    location    "0.67";
    object      phi;
}
// * * * * * * * * * * * * * * * * * * * * * * * * * * * * * * * * * * * * * //

dimensions      [0 3 -1 0 0 0 0];

internalField   nonuniform List<scalar> 
823
(
0.0113778
-0.0505543
0.0391766
0.0387587
-0.133436
0.106055
0.0788324
-0.205877
0.165804
0.130172
-0.268869
0.217529
-0.323258
0.259413
0.194017
0.0107031
-0.0612574
0.0361431
-0.158876
0.0726482
-0.242383
0.117973
-0.314194
-0.3756
0.170315
0.00837702
-0.0696344
0.0282851
-0.178784
0.0567257
-0.270823
0.0918107
-0.349279
-0.41605
0.132261
0.00529927
-0.0749337
0.0179956
-0.19148
0.0362297
-0.289057
0.0588841
-0.371933
-0.442415
0.0852488
0.00196197
-0.0768957
0.00663006
-0.196148
0.0132897
-0.295717
0.021522
-0.380165
0.0310624
-0.451955
0.00664441
-0.0107522
0.00410766
0.022178
-0.0309095
0.0153757
0.0453793
-0.0484991
0.0252978
0.0745253
-0.0639372
0.0347913
-0.0770261
0.108177
0.0433742
0.00575081
-0.0165032
0.0214692
-0.0466279
0.0466748
-0.0737048
0.0797136
-0.0969759
-0.116092
0.118779
0.00639183
-0.022895
0.0236508
-0.0638869
0.0512221
-0.101276
0.0878956
-0.133649
-0.160116
0.13192
0.00753593
-0.030431
0.0270864
-0.0834373
0.0573142
-0.131504
0.0970187
-0.173354
-0.207896
0.144799
0.00874561
0.031363
0.0656629
0.109839
0.161355
0.322511
-0.957543
0.74321
0.47439
-0.822334
0.670454
0.573545
-0.353864
0.254709
0.61436
-0.0671959
0.0263812
0.00287681
-0.00752518
0.330376
-1.16914
0.471049
-0.963007
0.575434
-0.458249
0.634768
-0.126529
-0.0163931
0.336551
-1.37377
0.461106
-1.08756
0.563137
-0.56028
0.630396
-0.193788
-0.0451532
0.337446
-1.56642
0.448197
-1.19831
0.540667
-0.65275
0.612652
-0.265773
-0.0825232
0.327738
-1.7328
0.428238
-1.29881
0.508781
-0.733294
0.575541
-0.332532
-0.117065
1.19773
-1.59024
-1.34029
1.00786
-1.10894
0.890522
-0.615961
0.839177
-0.281187
-0.0955794
1.32985
-1.13299
-1.7871
0.982126
-0.761212
0.774178
-0.408013
0.685347
-0.192355
-0.0679476
1.18947
-0.607639
-1.71482
0.816334
-0.388073
0.610728
-0.202407
0.516693
-0.0983199
-0.0363544
0.822377
-0.185286
-1.24473
0.545351
-0.111046
0.396439
-0.0534947
0.324902
-0.0267834
-0.0107917
0.306718
-0.492004
0.195672
0.142178
0.115394
1.56259
0.0462504
-1.57778
1.52169
0.126157
1.46266
0.191289
1.39633
0.236645
0.250054
1.67586
0.0356515
-1.66526
1.69932
0.102696
1.73082
0.159797
1.76529
0.202173
0.228238
1.38797
0.0184774
-1.37079
1.43706
0.0536077
1.51388
0.0829772
1.61016
0.105893
0.123571
0.977699
0.00531451
-0.964536
1.01588
0.0154231
1.07582
0.0230445
1.15388
0.0278275
0.032722
0.392987
-0.387673
0.40841
0.431455
0.459282
0.128772
0.327625
-0.264666
-0.191731
0.0781585
0.273214
-0.222601
0.0385242
0.209793
-0.170159
0.01134
0.136444
-0.10926
0.0519534
-0.0406134
0.115952
0.378905
-0.167232
0.0714973
0.317668
0.0356183
0.245672
0.0105611
0.161501
0.0625144
0.0888493
0.418274
-0.128218
0.0548107
0.351707
0.0272876
0.273195
0.00806491
0.180724
0.0705793
0.0552409
0.443533
-0.0805002
0.0337631
0.373185
0.016655
0.290303
0.00486428
0.192514
0.0754436
0.0174806
-0.0259023
0.0104998
0.00508593
0.00145207
0.072617
0.0873241
-0.107242
-0.0526987
0.0428752
0.0737038
-0.0439619
0.0197282
0.0569348
-0.0337878
0.00513542
0.0368048
-0.0222121
0.013293
-0.00815752
0.0760218
0.125903
-0.1146
0.0437206
0.106005
0.0196433
0.0810122
0.00509034
0.0513578
0.0183834
0.0844039
0.168559
-0.127061
0.0490921
0.141317
0.0227351
0.107369
0.00617397
0.0679189
0.0245574
0.0940664
0.214681
-0.140188
0.0557759
0.179607
0.0265288
0.136616
0.00742907
0.0870186
0.0319865
0.107404
-0.157389
0.0644105
0.0308679
0.00862694
0.513098
0.174899
-0.292017
0.561992
0.16211
-0.211004
0.496543
0.31325
-0.247801
0.334806
0.803294
-0.641557
1.0413
-0.813734
0.513216
0.0576628
0.559485
0.115841
0.487198
0.385537
0.331289
0.959202
1.25799
0.513183
-0.0595408
0.546233
0.082792
0.466708
0.465062
0.32812
1.09779
1.45905
0.509525
-0.173087
0.525164
0.0671538
0.44189
0.548336
0.323943
1.21574
1.6428
0.498662
-0.275769
0.494615
0.0712007
0.412807
0.630144
0.312097
1.31645
1.79751
0.764888
-0.436636
0.845661
-0.00957244
0.95651
0.519294
1.16944
1.10352
1.61939
1.34755
0.70792
-0.540536
0.783085
-0.0847375
0.954967
0.347412
1.2978
0.760684
1.14343
1.77377
0.602326
-0.538841
0.633343
-0.115755
0.803658
0.177096
1.17255
0.391796
0.61203
1.70394
0.448458
-0.383279
0.405634
-0.0729304
0.53615
0.04658
0.816009
0.111936
0.186913
1.24113
0.220742
0.147811
0.194391
0.306327
0.493241
1.40259
-0.246762
1.46574
-0.230387
1.52299
-0.185472
1.56316
-0.120662
-0.0405274
1.75267
-0.225658
1.71974
-0.197465
1.69062
-0.156349
1.67084
-0.10088
-0.0349532
1.60147
-0.123191
1.50876
-0.104753
1.43456
-0.0821475
1.38705
-0.0533715
-0.0186947
1.15107
-0.0331324
1.0743
-0.0279878
1.0153
-0.0231431
0.977571
-0.0156447
-0.00565997
0.460108
0.43212
0.408977
0.393333
0.00250152
0.0430082
-0.0455097
0.00732827
0.101055
-0.105882
0.0160958
0.148401
-0.157169
0.0165792
0.151916
-0.152399
0.114033
0.0148148
-0.112268
0.00682873
0.0361795
0.0201788
0.0877053
0.0409596
0.12762
0.0482571
0.144618
0.116386
0.0459036
0.00880975
0.0273697
0.027078
0.069437
0.0521531
0.102545
0.073095
0.123676
0.11404
0.0754413
0.00780169
0.019568
0.0255147
0.051724
0.0497505
0.0783095
0.0774335
0.0959931
0.0992477
0.0922258
0.0050991
0.0144689
0.0179738
0.0388492
0.0367676
0.0595157
0.0600102
0.0727506
0.0767491
0.0825088
0.00342397
0.011045
0.0125808
0.0296923
0.0274435
0.044653
0.0470568
0.0531373
0.0561573
0.0676485
0.002223
0.00882195
0.00893005
0.0229853
0.0222646
0.0313185
0.0410131
0.0343887
0.0347748
0.0623957
0.00167255
0.00714941
0.0101238
0.0145339
0.026178
0.0152642
0.0467307
0.0138359
0.0115279
0.0699775
0.00374104
0.00340836
0.0175391
0.000735708
0.0368759
-0.00407267
0.0598964
-0.00918473
-0.0143805
0.0858046
0.00751586
0.0236272
0.0448523
0.0704587
0.0994523
0.153795
0.0198441
-0.105991
0.243334
-0.130265
0.0407264
0.264663
-0.0379807
0.0166514
0.269775
0.00352939
-0.00864172
-0.00169579
-0.00458666
0.214764
-0.132525
0.325227
-0.240729
0.351341
-0.0640943
0.353954
0.000916913
-0.00437397
0.260093
-0.32264
0.391354
-0.37199
0.433518
-0.106258
0.434764
-0.000329197
-0.00232895
0.293361
-0.530196
0.438707
-0.517336
0.50252
-0.170071
0.508525
-0.00633423
0.00304912
0.312466
0.465584
0.550222
0.570269
0.0706644
0.0386811
-0.109345
0.0786313
-0.00796683
0.0829431
-0.00431184
0.0803909
0.00255223
0.00114176
0.194082
-0.261392
0.226841
0.23918
0.23309
0.0207327
-0.00433165
-0.016401
0.0342834
-0.0135507
0.0567626
-0.0224792
0.0856227
-0.0288601
-0.0237228
0.0539254
-0.0434422
0.0862783
0.13924
0.202606
0.0478319
-0.055146
0.0763525
-0.0690383
0.0275583
-0.0521661
0.0724397
0.0123375
-0.044378
0.0595988
0.00331795
-0.0300413
0.0390608
-0.0112611
0.014579
0.0453958
-0.0322617
-0.0682802
0.0249658
-0.0317361
0.00982525
-0.0292374
0.00219039
-0.0224064
-0.00907067
0.056066
-0.00667833
-0.0816495
0.0331294
-0.00879945
0.0142816
-0.0103897
0.0025902
-0.010715
-0.00648045
0.0701008
0.0215646
-0.0983436
0.044829
0.0164725
0.0233643
0.011075
0.00692195
0.00572739
0.000441488
0.0744028
-0.105537
0.0469136
0.0242008
0.0077161
0.0165859
-0.114031
-0.0148232
0.016095
-0.151908
0.00730697
-0.148381
0.00248925
-0.101064
-0.0430205
0.048273
-0.116376
-0.0459283
0.0409336
-0.144569
0.0201648
-0.127612
0.00682154
-0.0877211
-0.0361989
0.073127
-0.11397
-0.075533
0.0521254
-0.123567
0.0270663
-0.102553
0.00880668
-0.0694615
-0.0273922
0.0773419
-0.0989709
-0.0923407
0.0496228
-0.0958481
0.0254343
-0.0783644
0.00777594
-0.0518031
-0.0196163
0.0599535
-0.0825719
0.0365451
0.0177795
0.00503728
0.341922
0.583358
-0.5293
0.280541
0.225072
-0.163692
0.247529
0.0546397
-0.021627
0.165334
0.113832
-0.0316372
-0.000899102
0.0971944
0.407811
0.571527
0.371408
0.261474
0.335715
0.0903332
0.233582
0.215964
0.164403
0.459897
0.50761
0.451447
0.269924
0.409298
0.132482
0.283775
0.341488
0.366529
0.495528
0.408062
0.514696
0.250756
0.461441
0.185737
0.317835
0.485094
0.58602
0.512024
0.551775
0.489712
0.33325
0.158667
0.351384
0.084769
0.0738977
0.0800678
0.00470125
0.0724368
0.0076309
-0.0369631
0.1094
0.332135
0.242341
0.225416
0.201409
0.26164
0.0856729
0.023727
0.0567945
0.0288784
0.0342944
0.0225
0.0207362
0.0135582
0.00433514
0.202796
0.139333
0.0863003
0.0539303
)
;

boundaryField
{
    left
    {
        type            calculated;
        value           nonuniform List<scalar> 
17
(
-0.60402
-0.60402
-0.60402
-0.60402
-0.60402
-0.39598
-0.39598
-0.39598
-0.39598
-0.39598
-0.39598
-0.39598
-0.39598
-0.39598
-0.39598
-0.510051
-0.510051
)
;
    }
    right
    {
        type            calculated;
        value           nonuniform List<scalar> 
17
(
0.0792491
0.229646
0.276057
0.356632
0.432719
0.503147
0.565793
0.619008
0.654037
0.659157
0.650022
0.610082
0.817692
0.657715
0.4851
0.29934
0.104603
)
;
    }
    down
    {
        type            calculated;
        value           uniform 0;
    }
    up
    {
        type            calculated;
        value           uniform 0;
    }
    cylinder
    {
        type            calculated;
        value           uniform 0;
    }
    defaultFaces
    {
        type            empty;
    }
}


// ************************************************************************* //
