/*--------------------------------*- C++ -*----------------------------------*\
  =========                 |
  \\      /  F ield         | OpenFOAM: The Open Source CFD Toolbox
   \\    /   O peration     | Website:  https://openfoam.org
    \\  /    A nd           | Version:  13
     \\/     M anipulation  |
\*---------------------------------------------------------------------------*/
FoamFile
{
    format      ascii;
    class       volScalarField;
    location    "2.55";
    object      p;
}
// * * * * * * * * * * * * * * * * * * * * * * * * * * * * * * * * * * * * * //

dimensions      [0 2 -2 0 0 0 0];

internalField   nonuniform List<scalar> 
1800
(
-1.49353
-1.49033
-1.48333
-1.47183
-1.45871
-1.44732
-1.44175
-1.44726
-1.46411
-1.52091
-1.51925
-1.51506
-1.50833
-1.49883
-1.48801
-1.47801
-1.47134
-1.47073
-1.47624
-1.50373
-1.56386
-1.55712
-1.54941
-1.54038
-1.53063
-1.52089
-1.51188
-1.50409
-1.49913
-1.49935
-1.62265
-1.61296
-1.60309
-1.59268
-1.58115
-1.56772
-1.5518
-1.53349
-1.51325
-1.49258
-1.6964
-1.68388
-1.6713
-1.65772
-1.64088
-1.61889
-1.59115
-1.5584
-1.52233
-1.48544
-1.78507
-1.76986
-1.75348
-1.73367
-1.70652
-1.6705
-1.62664
-1.57749
-1.52568
-1.47383
-1.88398
-1.86664
-1.84448
-1.81399
-1.7712
-1.71677
-1.65461
-1.58907
-1.52347
-1.46048
-1.98494
-1.96542
-1.93451
-1.88841
-1.8255
-1.75025
-1.66939
-1.58812
-1.50958
-1.43552
-2.07608
-2.0537
-2.01081
-1.94528
-1.85995
-1.76396
-1.66589
-1.57092
-1.48153
-1.39876
-2.14405
-2.11755
-2.06034
-1.97339
-1.866
-1.75127
-1.63835
-1.53166
-1.43277
-1.34189
-1.13537
-1.14045
-1.14746
-1.15897
-1.17662
-1.19967
-1.22654
-1.25523
-1.28298
-1.30795
-1.28647
-1.28972
-1.295
-1.30697
-1.32682
-1.35344
-1.38507
-1.41951
-1.45332
-1.48341
-1.42726
-1.42844
-1.43133
-1.44367
-1.46527
-1.49476
-1.53029
-1.56968
-1.60939
-1.64461
-1.53279
-1.53028
-1.53161
-1.54313
-1.5649
-1.59545
-1.63254
-1.67391
-1.71765
-1.75637
-1.58989
-1.58342
-1.58178
-1.59034
-1.60929
-1.6373
-1.67234
-1.71215
-1.75403
-1.79207
-1.60112
-1.59161
-1.58636
-1.58966
-1.60215
-1.62338
-1.65206
-1.68635
-1.7241
-1.75991
-1.5812
-1.57077
-1.56246
-1.55906
-1.5619
-1.57193
-1.58927
-1.61311
-1.64217
-1.67261
-1.54824
-1.53926
-1.52963
-1.52051
-1.51358
-1.51127
-1.51553
-1.52728
-1.54693
-1.57363
-1.51538
-1.50905
-1.49975
-1.48734
-1.47372
-1.46235
-1.45679
-1.45985
-1.47377
-1.49884
-1.49264
-1.48875
-1.48056
-1.46748
-1.452
-1.4379
-1.42958
-1.43124
-1.445
-1.4716
-1.40078
-0.784228
-0.225398
0.0363644
0.0758216
0.0841477
0.0667645
0.0461324
0.0266585
0.00922181
-1.57233
-0.928356
-0.283667
0.0141544
0.0689176
0.0808305
0.064718
0.0447883
0.0258146
0.00886568
-1.73749
-1.07775
-0.355883
-0.0159938
0.0574821
0.074814
0.0612947
0.0427558
0.0246484
0.0084043
-1.86239
-1.20837
-0.436685
-0.0530262
0.0417342
0.0660976
0.0564539
0.039999
0.0231474
0.00783487
-1.92982
-1.31402
-0.518148
-0.0956429
0.0221954
0.0548484
0.0501937
0.0364935
0.0213038
0.007157
-1.93515
-1.39148
-0.595373
-0.14239
-0.000442161
0.0414604
0.0426118
0.0322497
0.0191194
0.00637353
-1.87115
-1.44066
-0.665859
-0.19215
-0.0257054
0.0263995
0.0339085
0.0273321
0.0166129
0.00549395
-1.78268
-1.46399
-0.728249
-0.243535
-0.0533674
0.00995673
0.0242761
0.0218302
0.0138156
0.00453684
-1.70054
-1.46692
-0.781827
-0.294422
-0.0829468
-0.00772372
0.013797
0.0157866
0.0107358
0.00352004
-1.61718
-1.45586
-0.828278
-0.343295
-0.113354
-0.0262769
0.00260091
0.00923419
0.00735837
0.00244541
-1.51362
-1.36955
-0.815155
-0.368807
-0.140553
-0.0472733
-0.0114856
0.000492782
0.00271641
0.000994452
-1.33995
-1.19104
-0.754473
-0.378716
-0.168195
-0.0719532
-0.0286972
-0.010348
-0.00295824
-0.000810487
-1.1994
-1.05402
-0.710319
-0.39146
-0.193735
-0.094137
-0.0443721
-0.0202805
-0.00815689
-0.00242577
-1.0831
-0.946515
-0.674044
-0.405442
-0.222168
-0.119818
-0.0623488
-0.0312365
-0.013684
-0.00412885
-0.981191
-0.865802
-0.653674
-0.426354
-0.251752
-0.142383
-0.0772097
-0.0402933
-0.0183061
-0.00547925
-0.894463
-0.80492
-0.642462
-0.450691
-0.284045
-0.167307
-0.0931115
-0.0493985
-0.0226651
-0.00667088
-0.82026
-0.758876
-0.641582
-0.48032
-0.316255
-0.189011
-0.105766
-0.0563199
-0.0258565
-0.00741595
-0.760286
-0.727931
-0.646713
-0.50727
-0.343166
-0.206451
-0.115412
-0.0613478
-0.0281307
-0.00781556
-0.722399
-0.714465
-0.651337
-0.520757
-0.355391
-0.215365
-0.120635
-0.0639807
-0.029159
-0.00781336
-0.701925
-0.715675
-0.656551
-0.523863
-0.357569
-0.218733
-0.123228
-0.0655825
-0.0300122
-0.00810838
-1.18495
-1.25216
-1.30161
-1.34356
-1.37377
-1.4103
-1.44309
-1.49725
-1.53166
-1.59521
-1.00651
-1.08002
-1.13701
-1.18923
-1.22933
-1.27055
-1.30245
-1.33725
-1.3664
-1.40604
-0.865419
-0.938098
-0.998847
-1.05202
-1.09518
-1.13229
-1.16254
-1.18949
-1.21488
-1.24166
-0.749751
-0.819777
-0.881104
-0.932561
-0.97607
-1.01116
-1.04104
-1.0663
-1.09001
-1.11312
-0.655135
-0.722433
-0.78193
-0.831724
-0.874184
-0.908709
-0.937983
-0.962585
-0.984066
-1.00338
-0.57837
-0.643121
-0.699997
-0.748194
-0.788939
-0.822486
-0.850237
-0.872998
-0.891767
-0.907339
-0.517388
-0.579769
-0.6342
-0.68047
-0.719132
-0.750719
-0.77617
-0.796315
-0.812294
-0.824791
-0.471534
-0.531966
-0.584458
-0.628568
-0.665032
-0.693978
-0.716811
-0.733854
-0.74697
-0.756012
-0.444023
-0.503332
-0.554445
-0.597067
-0.632105
-0.65909
-0.679889
-0.694048
-0.704593
-0.709788
-0.4317
-0.49129
-0.542749
-0.585802
-0.620724
-0.647712
-0.66785
-0.680988
-0.689492
-0.690499
0.320518
0.245937
0.160563
0.0691389
-0.0296569
-0.138309
-0.256707
-0.378208
-0.480409
-0.530331
0.107974
0.0272953
-0.0626222
-0.160997
-0.269755
-0.390613
-0.522439
-0.656848
-0.768766
-0.822108
-0.124952
-0.20873
-0.301474
-0.404373
-0.519628
-0.648564
-0.78943
-0.932578
-1.05116
-1.10586
-0.349752
-0.437353
-0.534644
-0.643169
-0.764814
-0.90053
-1.04831
-1.19796
-1.32016
-1.3738
-0.552981
-0.645689
-0.748915
-0.863922
-0.992352
-1.1349
-1.28803
-1.44346
-1.56267
-1.61612
-0.735708
-0.833595
-0.94227
-1.06277
-1.19655
-1.34462
-1.50199
-1.65416
-1.77101
-1.82298
-0.89686
-0.998884
-1.1116
-1.23579
-1.37276
-1.52231
-1.67895
-1.82691
-1.93791
-1.98642
-1.04062
-1.14378
-1.25703
-1.38145
-1.51787
-1.66516
-1.81679
-1.95635
-2.05733
-2.10093
-1.16421
-1.26522
-1.37597
-1.49743
-1.62973
-1.77064
-1.91238
-2.03832
-2.12609
-2.16389
-1.26545
-1.36212
-1.46789
-1.58326
-1.70758
-1.83748
-1.96416
-2.07199
-2.14466
-2.17646
1.71873
1.73268
1.74703
1.76062
1.77261
1.78231
1.78902
1.79281
1.7959
1.79974
1.64282
1.6535
1.66379
1.67265
1.67936
1.68323
1.68357
1.68073
1.67804
1.67845
1.54602
1.55247
1.55753
1.56031
1.56031
1.55682
1.54918
1.53805
1.52806
1.52431
1.42996
1.43164
1.43045
1.42584
1.4176
1.40502
1.38748
1.36608
1.34704
1.33843
1.29436
1.29025
1.28188
1.26901
1.25166
1.22909
1.20067
1.16794
1.13878
1.12478
1.14304
1.13305
1.11656
1.09402
1.06595
1.03164
0.990613
0.944981
0.904543
0.88443
0.976017
0.95956
0.934881
0.902735
0.863774
0.817252
0.762799
0.703281
0.650756
0.624287
0.802398
0.77846
0.743412
0.699312
0.647495
0.587279
0.518381
0.444348
0.379513
0.346631
0.627107
0.595505
0.549562
0.492634
0.426713
0.351202
0.266112
0.176058
0.0981359
0.0589155
0.465395
0.415674
0.351783
0.278718
0.197495
0.106494
0.00549694
-0.100021
-0.190257
-0.235192
1.46752
1.44796
1.44059
1.43804
1.43587
1.44318
1.46394
1.50087
1.56171
1.65684
1.46059
1.44216
1.43512
1.43151
1.42862
1.43304
1.45077
1.48149
1.53147
1.60853
1.45424
1.43636
1.42951
1.42455
1.42078
1.4218
1.43619
1.45901
1.49563
1.54848
1.44841
1.4306
1.42376
1.41718
1.41235
1.40941
1.4203
1.43325
1.45467
1.47596
1.4431
1.42493
1.41791
1.40946
1.40333
1.39588
1.40312
1.40397
1.40929
1.3898
1.4383
1.41939
1.41194
1.4014
1.39368
1.38126
1.38457
1.37112
1.35972
1.28919
1.434
1.41399
1.40587
1.39305
1.3834
1.36563
1.36454
1.33465
1.3061
1.17251
1.43023
1.40876
1.39969
1.38445
1.37246
1.34908
1.34285
1.29479
1.24816
1.04113
1.42702
1.40371
1.39342
1.37562
1.3609
1.33177
1.31929
1.25173
1.18416
0.893268
1.42441
1.39886
1.38707
1.36656
1.34892
1.31391
1.29486
1.20722
1.11672
0.740425
1.42182
1.39329
1.37895
1.35525
1.33246
1.29059
1.26096
1.15282
1.03956
0.59593
1.42053
1.38769
1.36992
1.34277
1.31358
1.26615
1.22349
1.10628
0.965816
0.574433
1.4212
1.38305
1.36112
1.331
1.2948
1.24399
1.18801
1.0694
0.906329
0.565422
1.42441
1.37943
1.35252
1.3199
1.27639
1.22459
1.15521
1.04046
0.857856
0.562556
1.43071
1.37682
1.34404
1.3093
1.25814
1.20833
1.12519
1.01844
0.82059
0.564029
1.4408
1.3753
1.33587
1.29946
1.24032
1.19528
1.09884
1.00219
0.794075
0.566331
1.45427
1.37311
1.32604
1.28791
1.22245
1.18445
1.07678
0.989853
0.776435
0.569246
1.47929
1.37552
1.31979
1.27855
1.20695
1.17583
1.05938
0.981297
0.765446
0.572811
1.49138
1.36771
1.30663
1.26594
1.19367
1.16983
1.04788
0.977187
0.760723
0.577564
1.56762
1.38076
1.31007
1.26197
1.18923
1.16729
1.04209
0.976852
0.758656
0.582404
0.30703
0.133597
-0.072626
-0.271947
-0.451161
-0.612199
-0.756382
-0.887565
-1.00261
-1.10341
0.259864
0.122948
-0.0332852
-0.19099
-0.337879
-0.473798
-0.598583
-0.716993
-0.824357
-0.9236
0.249049
0.133163
0.00774962
-0.121599
-0.24754
-0.368072
-0.482387
-0.591139
-0.691353
-0.783937
0.267339
0.159982
0.0477928
-0.0646013
-0.175533
-0.283628
-0.388447
-0.488449
-0.582932
-0.670192
0.290748
0.189866
0.0863352
-0.0154003
-0.115562
-0.214272
-0.3116
-0.405651
-0.495668
-0.578679
0.314612
0.219359
0.122313
0.0275811
-0.0654515
-0.157783
-0.249649
-0.339363
-0.425425
-0.505257
0.337069
0.246654
0.154606
0.0645698
-0.0240583
-0.112385
-0.200561
-0.287008
-0.369921
-0.447091
0.357061
0.270836
0.182807
0.0957802
0.00934246
-0.0771383
-0.163426
-0.247841
-0.328507
-0.403367
0.374219
0.291503
0.206617
0.120896
0.0344355
-0.0523883
-0.138585
-0.22246
-0.302392
-0.376608
0.387341
0.306603
0.222813
0.136248
0.0481906
-0.0398995
-0.126621
-0.210585
-0.290322
-0.364423
-1.21257
-1.1796
-1.10931
-1.01988
-0.928292
-0.844343
-0.771932
-0.712266
-0.665744
-0.632834
-1.26654
-1.23725
-1.17886
-1.10316
-1.02324
-0.948473
-0.88326
-0.829254
-0.787449
-0.758984
-1.26294
-1.23669
-1.19099
-1.13163
-1.06663
-1.00383
-0.947784
-0.900556
-0.863604
-0.838279
-1.2141
-1.19028
-1.15599
-1.11304
-1.06462
-1.01601
-0.971308
-0.932772
-0.902082
-0.880603
-1.1382
-1.11677
-1.09128
-1.06187
-1.02863
-0.994047
-0.960901
-0.931038
-0.905969
-0.886295
-1.05418
-1.03568
-1.01637
-0.996161
-0.974207
-0.95116
-0.928466
-0.907254
-0.888962
-0.874612
-0.976686
-0.961892
-0.947102
-0.932365
-0.917255
-0.901957
-0.887067
-0.873307
-0.861222
-0.850743
-0.913473
-0.902802
-0.89187
-0.880552
-0.86892
-0.857329
-0.846516
-0.836617
-0.829878
-0.825993
-0.865302
-0.858819
-0.851417
-0.842726
-0.833032
-0.823135
-0.814246
-0.808009
-0.803937
-0.812494
-0.829206
-0.826067
-0.821273
-0.81422
-0.805361
-0.796144
-0.788409
-0.785389
-0.78587
-0.807612
-0.806405
-0.804667
-0.800494
-0.793168
-0.784097
-0.774577
-0.766719
-0.763397
-0.764913
-0.765722
-0.802309
-0.800192
-0.795844
-0.78885
-0.780121
-0.771069
-0.763744
-0.760117
-0.761349
-0.762698
-0.81175
-0.808885
-0.805377
-0.80126
-0.796985
-0.793458
-0.79177
-0.792918
-0.797442
-0.803362
-0.820948
-0.818864
-0.81751
-0.817418
-0.818982
-0.822687
-0.828944
-0.837907
-0.849102
-0.860389
-0.824122
-0.824255
-0.825491
-0.828563
-0.833972
-0.841848
-0.851946
-0.863743
-0.878422
-0.884809
-0.822657
-0.825601
-0.829787
-0.835678
-0.844215
-0.855537
-0.86923
-0.884423
-0.900475
-0.919296
-0.824924
-0.830569
-0.83755
-0.84506
-0.855371
-0.868475
-0.883607
-0.89987
-0.917652
-0.940283
-0.846599
-0.853208
-0.860771
-0.870734
-0.883406
-0.898748
-0.915952
-0.934237
-0.952738
-0.974882
-0.903825
-0.910957
-0.919455
-0.929981
-0.943939
-0.96096
-0.97981
-0.999123
-1.01977
-1.0411
-1.00166
-1.00815
-1.01627
-1.02734
-1.04297
-1.06264
-1.08499
-1.1084
-1.13119
-1.15261
-0.843519
-0.87411
-0.558959
-0.333116
-0.135013
-0.00587104
0.0351522
0.0371975
0.0252874
0.00947156
-0.926432
-0.890241
-0.476732
-0.241883
-0.0857376
0.00976628
0.0388468
0.0376868
0.025153
0.00938342
-1.01632
-0.874581
-0.38746
-0.158066
-0.0436715
0.0240591
0.0433819
0.038925
0.0254038
0.0094122
-1.09009
-0.831375
-0.310449
-0.0886439
-0.00960134
0.0374308
0.0484406
0.0405931
0.0258605
0.00949741
-1.13831
-0.77539
-0.254108
-0.0370705
0.0167551
0.0498499
0.0535082
0.0423888
0.0263844
0.00959764
-1.14449
-0.714219
-0.213891
-0.000556616
0.0384656
0.0614365
0.0582386
0.044083
0.026877
0.00968374
-1.1248
-0.650043
-0.184278
0.0262432
0.0559529
0.0711034
0.0621952
0.0454776
0.027257
0.00973135
-1.11741
-0.607713
-0.165669
0.0440666
0.0684499
0.0783061
0.06513
0.0464485
0.0274653
0.00972206
-1.15722
-0.614746
-0.165527
0.0519609
0.0757531
0.0828723
0.0669158
0.0469172
0.0274576
0.00964146
-1.2526
-0.674228
-0.185418
0.0493302
0.0781302
0.084816
0.0674801
0.0468277
0.0271983
0.00947789
-0.671352
-0.666885
-0.617881
-0.476113
-0.211142
-0.0350707
0.0295049
0.0380363
0.0267211
0.010135
-0.664306
-0.657793
-0.619341
-0.485701
-0.215286
-0.0350921
0.0299261
0.0381333
0.0266194
0.0100561
-0.679721
-0.682543
-0.625952
-0.486141
-0.21794
-0.0343421
0.030077
0.0378119
0.0263022
0.00992793
-0.718821
-0.738725
-0.627045
-0.471671
-0.209176
-0.0299349
0.0306437
0.0373347
0.0259029
0.00976769
-0.777906
-0.820849
-0.607073
-0.408317
-0.178572
-0.0202849
0.0322092
0.0371266
0.0256171
0.009642
-0.600598
-0.721276
-0.80307
-0.853189
-0.865615
-0.864188
-0.850159
-0.817489
-0.788235
-0.747318
-0.601226
-0.723745
-0.804079
-0.853171
-0.860078
-0.86043
-0.842788
-0.807697
-0.784196
-0.739641
-0.603316
-0.727124
-0.806425
-0.854282
-0.857331
-0.860105
-0.835748
-0.809147
-0.787681
-0.755334
-0.608425
-0.733861
-0.813122
-0.858996
-0.861974
-0.862097
-0.835775
-0.818438
-0.800247
-0.798905
-0.617279
-0.744747
-0.824414
-0.868049
-0.872661
-0.865674
-0.842935
-0.8256
-0.810799
-0.838322
1.42888
1.42147
1.40795
1.39104
1.37153
1.34851
1.3214
1.29198
1.26751
1.25663
1.51889
1.5222
1.51963
1.51304
1.50347
1.49047
1.47359
1.45422
1.43814
1.43156
1.60496
1.613
1.61678
1.61755
1.61604
1.61182
1.60435
1.59442
1.58622
1.58371
1.67949
1.69152
1.70106
1.70854
1.7142
1.71753
1.71787
1.71563
1.71381
1.71493
1.74134
1.75642
1.77
1.78215
1.79286
1.80162
1.80776
1.81139
1.8146
1.81861
1.7862
1.80321
1.81985
1.83575
1.85055
1.8637
1.8745
1.88277
1.88985
1.8962
1.81332
1.8315
1.85004
1.86823
1.8855
1.90123
1.91475
1.92574
1.93516
1.94294
1.82074
1.8392
1.85849
1.87768
1.89598
1.91278
1.92738
1.9394
1.94968
1.95798
1.80775
1.82563
1.84449
1.86325
1.88104
1.89719
1.91102
1.92221
1.93175
1.93959
1.77383
1.79023
1.80746
1.82436
1.84004
1.85382
1.86503
1.87347
1.88061
1.88695
-0.460788
-0.499636
-0.550815
-0.614804
-0.69219
-0.782215
-0.881753
-0.98107
-1.06064
-1.0971
-0.24962
-0.294037
-0.349572
-0.416903
-0.497018
-0.589926
-0.69424
-0.79992
-0.885808
-0.924459
-0.0113626
-0.0608176
-0.120268
-0.190101
-0.271477
-0.36492
-0.468881
-0.575078
-0.666142
-0.705515
0.235175
0.182375
0.120803
0.0503571
-0.0300756
-0.121182
-0.221739
-0.325284
-0.413249
-0.453828
0.472077
0.418729
0.357974
0.289872
0.213373
0.127584
0.0332874
-0.0637534
-0.145404
-0.184326
0.686356
0.636174
0.579905
0.517613
0.448242
0.370757
0.285674
0.198134
0.124799
0.0894087
0.875308
0.831654
0.782999
0.729276
0.669364
0.602167
0.528065
0.451659
0.387874
0.357108
1.0457
1.00974
0.969656
0.925304
0.875444
0.818963
0.756188
0.691222
0.63722
0.611431
1.20533
1.17597
1.14258
1.10595
1.06491
1.01829
0.966298
0.912435
0.867968
0.847114
1.34466
1.32146
1.29337
1.26344
1.23105
1.19479
1.15438
1.11232
1.07775
1.06189
1.58596
1.49007
1.47445
1.46826
1.46916
1.48898
1.51085
1.54375
1.55616
1.5246
1.56823
1.48877
1.47416
1.4691
1.46944
1.48897
1.51283
1.54956
1.57647
1.58018
1.5522
1.48642
1.47279
1.46883
1.46885
1.48786
1.51366
1.55505
1.59646
1.63418
1.53774
1.48321
1.47057
1.46758
1.46739
1.48571
1.51304
1.55784
1.61124
1.67571
1.52467
1.47933
1.46764
1.46547
1.46514
1.4826
1.51081
1.55796
1.62097
1.70672
1.51283
1.47489
1.46413
1.46255
1.46211
1.47851
1.50694
1.55539
1.62535
1.72664
1.50206
1.47002
1.46012
1.4589
1.4583
1.47344
1.50147
1.55003
1.62412
1.73547
1.49224
1.46481
1.45569
1.45456
1.45374
1.46737
1.49442
1.54187
1.61715
1.73309
1.48327
1.45934
1.45092
1.44961
1.44846
1.46032
1.48581
1.53096
1.60449
1.71921
1.47505
1.45371
1.44587
1.44408
1.44249
1.45226
1.47564
1.51732
1.58604
1.69376
1.75366
1.49423
1.46593
1.45567
1.4608
1.47837
1.48972
1.50486
1.46622
1.43125
1.67922
1.48813
1.46676
1.45811
1.46197
1.47929
1.4904
1.50616
1.46887
1.42855
1.65625
1.49278
1.4706
1.46102
1.46355
1.48108
1.49297
1.5103
1.47909
1.43061
1.62937
1.49219
1.47265
1.46387
1.46553
1.48367
1.49792
1.51852
1.49734
1.44258
1.60597
1.49104
1.47388
1.46636
1.46757
1.48666
1.50405
1.52986
1.5226
1.46344
1.23261
1.14313
1.02159
0.8642
0.67305
0.454366
0.218315
-0.0200886
-0.244321
-0.43966
1.22745
1.14091
1.02438
0.871574
0.685112
0.469686
0.234146
-0.00672594
-0.235734
-0.436436
1.23836
1.14787
1.02918
0.877872
0.694779
0.481685
0.246024
0.00267286
-0.230376
-0.435408
1.26985
1.16624
1.03741
0.883933
0.702459
0.490525
0.254122
0.00828468
-0.228364
-0.437349
1.32165
1.19773
1.05103
0.889929
0.706937
0.49535
0.258765
0.0110947
-0.229153
-0.442616
)
;

boundaryField
{
    left
    {
        type            zeroGradient;
    }
    right
    {
        type            fixedValue;
        value           uniform 0;
    }
    down
    {
        type            zeroGradient;
    }
    up
    {
        type            zeroGradient;
    }
    cylinder
    {
        type            zeroGradient;
    }
    defaultFaces
    {
        type            empty;
    }
}


// ************************************************************************* //
