/*--------------------------------*- C++ -*----------------------------------*\
  =========                 |
  \\      /  F ield         | OpenFOAM: The Open Source CFD Toolbox
   \\    /   O peration     | Website:  https://openfoam.org
    \\  /    A nd           | Version:  13
     \\/     M anipulation  |
\*---------------------------------------------------------------------------*/
FoamFile
{
    format      ascii;
    class       surfaceScalarField;
    location    "2.55";
    object      phi;
}
// * * * * * * * * * * * * * * * * * * * * * * * * * * * * * * * * * * * * * //

dimensions      [0 3 -1 0 0 0 0];

internalField   nonuniform List<scalar> 
3485
(
-0.00129558
0.00398069
-0.00268511
-0.00184115
0.00764098
-0.00709541
0.000514673
0.00764908
-0.0100049
0.00727635
0.00399387
-0.0107555
0.0196138
-0.00346669
-0.00887074
0.0383376
-0.0146556
-0.00406819
0.0639348
-0.029216
0.00361881
0.0965497
-0.0464454
0.0138306
0.1358
-0.0660793
0.0268287
-0.0786156
0.0364393
0.177977
-0.000579955
0.00456065
0.000548089
0.00651293
0.00560132
0.00259584
0.0163073
-0.00671211
0.0338312
-0.0209906
0.0585531
-0.0393775
0.0898362
-0.0604991
0.126153
-0.0827623
0.164661
-0.104587
-0.122548
0.208594
0.000529253
0.00403139
0.00441774
0.00262444
0.013769
-0.0067554
0.0301195
-0.0230627
0.0539356
-0.0448067
0.0843158
-0.0697577
0.119149
-0.0953323
0.155576
-0.119189
0.190756
-0.139768
-0.156439
0.224647
0.0015707
0.00246069
0.00846003
-0.00426489
0.0225153
-0.0208107
0.0444453
-0.0449926
0.0731988
-0.0735602
0.106119
-0.102678
0.139826
-0.129039
0.171241
-0.150604
0.198183
-0.166709
-0.177615
0.219359
0.00272799
-0.000267294
0.0127765
-0.0143134
0.0313125
-0.0393468
0.057427
-0.0711071
0.0880491
-0.104182
0.119176
-0.133805
0.147363
-0.157226
0.170569
-0.173811
0.188177
-0.184316
-0.190606
0.201167
0.00399264
-0.00425993
0.0171218
-0.0274425
0.0390396
-0.0612646
0.0666516
-0.0987191
0.0953464
-0.132877
0.121153
-0.159612
0.141918
-0.177991
0.157284
-0.189176
0.168149
-0.195181
-0.197812
0.175356
0.00530351
-0.00956344
0.0208889
-0.0430279
0.0442277
-0.0846035
0.0703163
-0.124808
0.0943688
-0.156929
0.113701
-0.178944
0.127808
-0.192098
0.137539
-0.198908
0.144091
-0.201733
-0.20241
0.148688
0.00642765
-0.0159911
0.0233314
-0.0599316
0.0458797
-0.107152
0.068281
-0.147209
0.0867796
-0.175428
0.100235
-0.192399
0.109231
-0.201094
0.114964
-0.204641
0.118594
-0.205363
-0.204583
0.120767
0.00718611
-0.0231772
0.0240382
-0.0767837
0.0440583
-0.127172
0.0618917
-0.165042
0.0751708
-0.188707
0.0838973
-0.201126
0.0891515
-0.206348
0.0921622
-0.207652
0.0938294
-0.20703
-0.205449
0.0946954
0.00746761
-0.0306448
0.023023
-0.0923391
0.0395755
-0.143724
0.0528193
-0.178286
0.0616013
-0.197489
0.0665822
-0.206107
0.0689688
-0.208735
0.0698058
-0.208489
0.0697548
-0.206979
0.0690602
-0.204754
-0.00436725
0.0229117
-0.0185445
-0.0141612
0.0447731
-0.0349792
-0.0267341
0.0527273
-0.0401544
-0.040468
0.0538028
-0.0400688
-0.0545436
0.0519825
-0.0379069
-0.0685776
0.0489916
-0.0349576
-0.082355
0.0453956
-0.0316182
-0.0957004
0.0413451
-0.0279997
-0.108432
0.0368949
-0.0241633
0.0323218
-0.120403
-0.0203506
-0.00190235
0.0248141
-0.00803304
0.0509038
-0.0171123
0.0618065
-0.0277999
0.0644904
-0.0391054
0.0632879
-0.050475
0.0603612
-0.0615958
0.0565164
-0.072239
0.0519883
-0.0821721
0.046828
0.0412272
-0.0910775
0.00107926
0.0237348
8.32257e-05
0.0518999
-0.00392673
0.0658165
-0.00999738
0.0705611
-0.0170946
0.0703852
-0.0244835
0.0677501
-0.0317133
0.0637462
-0.0384715
0.0587466
-0.0445373
0.0528939
0.0461029
-0.049413
0.00370988
0.0200249
0.00806418
0.0475456
0.0103023
0.0635784
0.0101843
0.070679
0.00852311
0.0720464
0.0061855
0.0700877
0.00376596
0.0661657
0.00163706
0.0608755
0.000209442
0.0543215
0.046369
-5.66695e-05
0.00524272
0.0147822
0.0139574
0.0388309
0.0220792
0.0554566
0.0281844
0.0645738
0.0323985
0.0678323
0.0353985
0.0670877
0.0378434
0.0637208
0.0401826
0.0585362
0.0426226
0.0518815
0.0435217
0.0454699
0.0053495
0.00943273
0.0161132
0.0280672
0.0283236
0.0432462
0.0397348
0.0531626
0.049598
0.0579691
0.058029
0.0586567
0.0654506
0.0562992
0.0722572
0.0517295
0.0786747
0.0454641
0.0375004
0.084696
0.00429554
0.00513719
0.014388
0.0179747
0.0275517
0.0300825
0.0416096
0.0391047
0.0552995
0.0442792
0.0681203
0.0458359
0.0800099
0.0444096
0.0910564
0.040683
0.101305
0.0352153
0.0280349
0.110771
0.00261579
0.0025214
0.00989775
0.0106928
0.0207419
0.0192384
0.0337774
0.0260692
0.0478652
0.0301914
0.0622672
0.0314339
0.0765931
0.0300837
0.0906825
0.0265936
0.104544
0.021354
0.0136389
0.11894
0.00072002
0.00180138
0.00414525
0.00726756
0.0106366
0.012747
0.0198961
0.0168097
0.0314172
0.0186704
0.0448141
0.018037
0.0599349
0.0149629
0.0768498
0.00967872
0.0959266
0.00227722
-0.00796984
0.117535
-0.00088373
-0.000711584
0.00203054
0.00808468
0.0178843
0.0318531
0.0504348
0.0739441
0.10305
0.13152
-0.142192
0.024475
-0.00268599
-0.0557599
-0.332929
0.246496
0.0447209
-0.366149
0.265669
0.111948
-0.305428
0.238201
0.156475
-0.240149
0.195622
0.183387
-0.172239
0.145327
0.198802
-0.128286
0.112871
0.206712
-0.0879022
0.0799922
0.210827
-0.0693696
0.0652549
-0.0453731
0.0442896
-0.101298
0.0346954
-0.0277526
-0.406474
0.0598167
-0.453719
0.122046
-0.367658
0.162422
-0.280525
0.186824
-0.196641
0.200874
-0.142337
0.208111
-0.0951394
0.211847
-0.073105
-0.046308
-0.0479308
0.0332132
0.0110232
-0.465428
0.0826391
-0.525335
0.136352
-0.421371
0.170637
-0.31481
0.191315
-0.217318
0.203339
-0.154361
0.209629
-0.101428
0.212912
-0.0763884
-0.0471512
0.00899651
0.02416
0.0511145
-0.507546
0.108608
-0.582829
0.152695
-0.465458
0.180338
-0.342453
0.196711
-0.233691
0.206218
-0.163868
0.211291
-0.106502
0.21403
-0.0791275
-0.0479483
0.0598752
0.00975467
0.0908248
-0.538496
0.13355
-0.625554
0.16825
-0.500158
0.189925
-0.364127
0.20235
-0.246116
0.209315
-0.170832
0.21306
-0.110247
0.215193
-0.0812608
-0.0487452
0.105185
-0.0107344
0.127402
-0.560713
0.155999
-0.654151
0.181451
-0.52561
0.197966
-0.380642
0.207339
-0.25549
0.212236
-0.175729
0.214805
-0.112816
0.216365
-0.0828211
-0.0496062
0.141833
-0.0417966
0.158626
-0.577506
0.175026
-0.670551
0.191926
-0.542511
0.203853
-0.392568
0.210995
-0.262632
0.21453
-0.179264
0.216315
-0.114601
0.217467
-0.0839734
-0.0506357
0.169714
-0.0925705
0.183083
-0.590875
0.18983
-0.677298
0.199652
-0.552332
0.207648
-0.400564
0.213088
-0.268072
0.215875
-0.182051
0.217363
-0.116089
0.218387
-0.0849975
-0.0519909
0.189908
-0.164943
0.200499
-0.601465
0.200101
-0.6769
0.204699
-0.55693
0.209682
-0.405547
0.213775
-0.272164
0.216181
-0.184457
0.217786
-0.117695
0.219003
-0.0862141
-0.0538707
0.205633
-0.239057
0.210807
-0.606639
0.206648
-0.672742
0.207689
-0.557971
0.210538
-0.408397
0.213486
-0.275112
0.215604
-0.186575
0.217551
-0.119642
0.219236
-0.0878998
-0.0564828
0.640822
-0.332353
-0.547526
0.619213
-0.58503
0.551773
-0.605302
0.482917
-0.489115
0.429181
-0.354661
0.393185
-0.239116
0.369685
-0.163075
0.355293
-0.10525
0.345391
-0.0779978
-0.0509967
0.718256
-0.340522
-0.710087
0.644067
-0.510841
0.556099
-0.517334
0.485919
-0.418934
0.434961
-0.303703
0.399386
-0.203542
0.374533
-0.138222
0.358541
-0.0892577
0.347337
-0.0667937
-0.0446254
0.716398
-0.313334
-0.743586
0.646167
-0.44061
0.576677
-0.447845
0.514122
-0.356379
0.459163
-0.248743
0.41617
-0.160549
0.38482
-0.106873
0.364403
-0.0688403
0.350345
-0.0527355
-0.0368341
0.704207
-0.282925
-0.734617
0.645385
-0.381787
0.578322
-0.380782
0.513101
-0.291158
0.456959
-0.192601
0.41498
-0.11857
0.385038
-0.0769301
0.365313
-0.0491161
0.351189
-0.0386115
-0.0286035
0.690824
-0.254955
-0.718793
0.641856
-0.33282
0.5826
-0.321526
0.52047
-0.229028
0.462912
-0.135043
0.418319
-0.0739773
0.386531
-0.0451417
0.365896
-0.0284817
0.351296
-0.0240108
-0.020018
0.679565
-0.230654
-0.703866
0.634412
-0.287667
0.572553
-0.259667
0.508103
-0.164578
0.451515
-0.0784549
0.409484
-0.0319461
0.380261
-0.0159188
0.361531
-0.00975175
0.348174
-0.0106535
-0.0118465
0.660316
-0.203032
-0.687938
0.605956
-0.233308
0.534628
-0.188339
0.468498
-0.0984477
0.417896
-0.0278524
0.383859
0.00209062
0.361523
0.00641696
0.34758
0.00419136
0.337379
-0.000452281
-0.00506136
0.60088
-0.154781
-0.649131
0.522432
-0.15486
0.439072
-0.104978
0.378669
-0.0380448
0.344368
0.00644873
0.326895
0.0195642
0.317196
0.0161158
0.311448
0.00993875
0.306573
0.0044234
-0.000784542
0.434577
-0.0737185
-0.515639
0.335819
-0.0561018
0.258682
-0.0278414
0.22266
-0.00202363
0.216837
0.0122726
0.221845
0.0145558
0.227185
0.0107763
0.230573
0.00654988
0.231573
0.00342379
0.00050884
0.126949
-0.200667
0.0708472
0.0430058
0.0409822
0.0532548
0.0678105
0.0785868
0.0851367
0.0885605
0.559007
0.0575306
-0.547477
0.570315
0.083387
0.585924
0.105158
0.60156
0.133052
0.620297
0.156618
0.638519
0.182945
0.649673
0.208205
0.649809
0.22451
0.608434
0.249968
0.238885
0.537295
0.0462982
-0.526062
0.550037
0.0706445
0.566354
0.088841
0.585685
0.113722
0.607899
0.134404
0.633661
0.157182
0.660015
0.181851
0.684959
0.199566
0.707771
0.227157
0.236569
0.521913
0.0367849
-0.512399
0.535263
0.0572942
0.55038
0.073724
0.569719
0.0943828
0.59143
0.112693
0.616568
0.132045
0.645954
0.152465
0.675821
0.169699
0.712333
0.190645
0.205315
0.511268
0.0279948
-0.502478
0.52434
0.0442226
0.53876
0.0593037
0.557347
0.0757961
0.578212
0.0918276
0.602537
0.107719
0.630785
0.124218
0.661511
0.138973
0.697395
0.154761
0.168094
0.502858
0.0194149
-0.494278
0.515009
0.0320721
0.529211
0.0451013
0.546988
0.058019
0.567393
0.0714227
0.591161
0.0839513
0.618284
0.0970943
0.648484
0.108774
0.682282
0.120963
0.131583
0.494624
0.0111893
-0.486398
0.505863
0.0208328
0.519838
0.0311268
0.536919
0.0409377
0.557045
0.0512968
0.580251
0.0607455
0.606704
0.0706406
0.636096
0.0793823
0.668634
0.0884243
0.0963515
0.483383
0.0037213
-0.475915
0.493792
0.0104243
0.507221
0.0176973
0.523696
0.0244629
0.543404
0.0315892
0.566137
0.0380116
0.59217
0.0446084
0.621087
0.0504653
0.653273
0.0562385
0.0616857
0.457851
-0.00208532
-0.452045
0.466552
0.00172356
0.478331
0.00591859
0.493221
0.00957289
0.511323
0.0134866
0.532568
0.0167671
0.557043
0.020133
0.584609
0.0228992
0.61537
0.0254776
0.0279251
0.383986
-0.00377542
-0.382296
0.388098
-0.00238856
0.395025
-0.00100852
0.404538
5.96441e-05
0.416752
0.00127275
0.431458
0.00206081
0.448768
0.0028234
0.468525
0.00314177
0.490583
0.00342003
0.00286848
0.188418
-0.192193
0.186029
0.185021
0.18508
0.186353
0.188414
0.191237
0.194379
0.197799
0.0742435
0.149813
-0.137913
-0.0861437
0.0633011
0.152004
-0.141062
0.0532041
0.154639
-0.144542
0.0434118
0.158185
-0.148393
0.0336604
0.161996
-0.152245
0.0240235
0.164973
-0.155336
0.0149046
0.164437
-0.155318
0.00711177
0.154383
-0.146591
0.00179825
0.124076
-0.118762
0.0587697
-0.0569714
0.0706088
0.160488
-0.0812842
0.0600852
0.162528
0.0499016
0.164822
0.0400659
0.168021
0.0304656
0.171596
0.0211846
0.174254
0.0126502
0.172971
0.00566961
0.161364
0.00122977
0.128516
0.0599995
0.0636984
0.169947
-0.0731567
0.0539142
0.172312
0.0442329
0.174504
0.0348511
0.177402
0.0258001
0.180647
0.017234
0.18282
0.00959688
0.180608
0.00369933
0.167261
0.000422174
0.131793
0.0604216
0.0526354
0.178022
-0.0607107
0.0441662
0.180781
0.0355961
0.183074
0.0271839
0.185815
0.0190908
0.18874
0.0115762
0.190334
0.00525134
0.186933
0.000814437
0.171698
-0.000651698
0.133259
0.0597699
0.0400085
0.185104
-0.0470909
0.0326869
0.188103
0.02523
0.190531
0.0178786
0.193166
0.0108963
0.195723
0.00464899
0.196582
-0.000212378
0.191794
-0.00239829
0.173884
-0.00190741
0.132768
0.0578625
0.0250943
0.190948
-0.0309382
0.0190896
0.194107
0.0129535
0.196667
0.0069126
0.199207
0.00130477
0.201331
-0.00326551
0.201152
-0.00593039
0.194459
-0.00600537
0.173959
-0.00320273
0.129966
0.0546598
0.00958013
0.196021
-0.0146524
0.00457175
0.199116
-0.000402616
0.201641
-0.00514179
0.203946
-0.00922683
0.205416
-0.0119868
0.203912
-0.0124763
0.194949
-0.00983049
0.171313
-0.00447689
0.124612
0.0501829
-0.00791778
0.200054
0.00388446
-0.0117497
0.202948
-0.0154222
0.205314
-0.0186939
0.207218
-0.0210529
0.207775
-0.0216494
0.204508
-0.0194227
0.192722
-0.0137173
0.165608
-0.00565683
0.116552
0.0445261
-0.0267033
0.203039
0.0237185
-0.0293989
0.205643
-0.0317689
0.207684
-0.0334795
0.208928
-0.0338618
0.208157
-0.0319038
0.20255
-0.0265253
0.187344
-0.0174267
0.156509
-0.00662179
0.105747
0.0379043
-0.0476734
0.0459581
-0.0490094
-0.0498147
-0.0496209
-0.0475708
-0.0425096
-0.0334519
-0.020667
-0.00725947
0.106785
0.04009
-0.118717
-0.0281574
0.0945874
0.0412013
-0.029004
0.0821124
0.0424008
-0.0299258
0.0693341
0.0436869
-0.0309086
0.0562354
0.045041
-0.0319422
0.0428419
0.0463209
-0.0329274
0.0293392
0.0469662
-0.0334634
0.0163598
0.0453868
-0.0324074
0.00550218
0.0381424
-0.0272848
0.0194231
-0.0139209
0.106241
0.0520619
-0.118213
0.0940778
0.0533645
0.0816492
0.0548293
0.0689254
0.0564107
0.0558816
0.0580847
0.0425411
0.0596614
0.0290952
0.060412
0.0161877
0.0582944
0.00542118
0.0489089
0.0248443
0.105269
0.0639577
-0.117165
0.0931277
0.0655061
0.0807438
0.0672133
0.0680917
0.0690628
0.0551491
0.0710274
0.0419335
0.0728769
0.0286316
0.0737139
0.0158891
0.0710369
0.00529745
0.0595005
0.0301418
0.103617
0.075899
-0.115558
0.0915651
0.077558
0.0792639
0.0795145
0.0666909
0.0816359
0.0538431
0.0838752
0.0407705
0.0859495
0.0276882
0.0867962
0.0152532
0.0834719
0.00502699
0.0697268
0.0351688
0.101384
0.0876442
-0.113129
0.0895047
0.0894371
0.077462
0.0915571
0.0651841
0.0939138
0.0526194
0.0964399
0.0397959
0.098773
0.0269479
0.0996442
0.0147717
0.0956481
0.00483403
0.0796645
0.0400028
0.0979416
0.0994672
-0.109765
0.0861295
0.101249
0.0741656
0.103521
0.0620615
0.106018
0.0498052
0.108696
0.0374186
0.11116
0.0251167
0.111946
0.0135841
0.107181
0.00433753
0.0889111
0.0443403
0.0942238
0.110672
-0.105428
0.0830293
0.112444
0.0716409
0.114909
0.0599605
0.117698
0.0479985
0.120658
0.0358683
0.12329
0.0238764
0.123938
0.0127609
0.118296
0.00400414
0.0976678
0.0483445
0.0872399
0.121736
-0.098304
0.0764093
0.123274
0.0656303
0.125689
0.0547723
0.128556
0.0437175
0.131713
0.0324923
0.134515
0.0213999
0.13503
0.0112139
0.128482
0.00338354
0.105498
0.051728
0.0826984
0.131031
-0.091994
0.0729796
0.132993
0.0626617
0.136006
0.0519764
0.139242
0.0410935
0.142596
0.0301666
0.145442
0.0195453
0.145652
0.0100089
0.138018
0.00291056
0.112597
0.0546385
0.0720345
-0.078916
0.0639658
0.0554306
0.0462794
0.0366307
0.0267368
0.0170708
0.0084988
0.0023329
0.201595
0.0083273
-0.0119323
0.205279
0.026143
-0.0298268
0.208591
0.0341728
-0.0374852
0.21176
0.0540784
-0.0572475
0.213203
0.0693382
-0.0707809
0.212034
0.0964632
-0.0952947
0.206368
0.125761
-0.120094
0.193708
0.152918
-0.140259
0.168048
0.205665
-0.180004
0.265553
-0.216222
0.201253
0.00506452
0.204618
0.0227775
0.207681
0.0311095
0.210397
0.0513627
0.211842
0.0678936
0.210144
0.098161
0.204734
0.131171
0.19181
0.165842
0.166379
0.231096
0.313719
0.200841
0.00221323
0.203783
0.0198354
0.206588
0.0283043
0.20868
0.0492712
0.210082
0.0664917
0.2075
0.100742
0.202336
0.136336
0.188745
0.179433
0.163975
0.255865
0.360529
0.200351
-0.00014829
0.20278
0.0174068
0.20529
0.0257939
0.206603
0.0479584
0.207912
0.0651832
0.20416
0.104494
0.199258
0.141237
0.184355
0.194335
0.160889
0.279331
0.40586
0.199775
-0.00193359
0.201623
0.0155591
0.203765
0.0236515
0.20417
0.0475537
0.205301
0.0640519
0.200222
0.109574
0.195524
0.145935
0.179054
0.210805
0.15707
0.301316
0.449801
0.199105
-0.00304832
0.200331
0.0143324
0.201995
0.0219881
0.201419
0.0481295
0.202224
0.0632469
0.195705
0.116092
0.191131
0.15051
0.172658
0.229278
0.152795
0.321179
0.492831
0.198338
-0.00339687
0.198925
0.0137461
0.199964
0.020949
0.198419
0.0496745
0.19864
0.0630255
0.190691
0.124042
0.185858
0.155342
0.165735
0.249401
0.14744
0.339474
0.534843
0.19748
-0.00288692
0.197417
0.0138085
0.197666
0.0207002
0.195183
0.0521581
0.194551
0.0636567
0.185165
0.133428
0.17984
0.160667
0.157445
0.271797
0.14183
0.355088
0.578369
0.196537
-0.00143451
0.195817
0.0145291
0.195108
0.0214088
0.191722
0.0555447
0.189923
0.0654553
0.179317
0.144034
0.173104
0.16688
0.150389
0.294512
0.13509
0.370387
0.621465
0.195554
0.00100148
0.194087
0.0159963
0.192365
0.0231302
0.187952
0.0599576
0.184704
0.0687037
0.172535
0.156203
0.164556
0.174859
0.140117
0.318951
0.129253
0.381251
0.671802
0.304547
-0.00153502
0.30966
0.0108826
0.316475
0.0163152
0.320114
0.0563186
0.332655
0.0561632
0.333333
0.155525
0.3544
0.153792
0.361101
0.31225
0.413195
0.329157
0.60056
0.484437
0.304922
-0.00444681
0.311439
0.00436552
0.318641
0.00911345
0.324259
0.0507004
0.33797
0.0424522
0.341351
0.152143
0.364539
0.130605
0.381459
0.29533
0.429514
0.281102
0.532622
0.497452
0.305561
-0.00799777
0.313611
-0.00368395
0.32096
0.00176383
0.329559
0.0421016
0.342157
0.029854
0.349456
0.144845
0.372739
0.107322
0.396502
0.271566
0.44055
0.237054
0.459348
0.513824
0.30663
-0.0126173
0.315986
-0.0130401
0.324124
-0.00637388
0.335637
0.0305887
0.345597
0.0198935
0.357089
0.133353
0.378551
0.085859
0.408244
0.241873
0.451249
0.19405
0.385044
0.525552
0.308167
-0.0187745
0.318658
-0.023531
0.32856
-0.0162754
0.342326
0.0168222
0.349614
0.0126056
0.365984
0.116983
0.38476
0.0670838
0.42033
0.206302
0.456418
0.157962
0.314026
0.527437
0.310185
-0.0269488
0.321987
-0.0353333
0.333995
-0.0282837
0.348761
0.00205683
0.353843
0.00752283
0.374749
0.0960776
0.390115
0.0517178
0.428
0.168418
0.459139
0.126822
0.245445
0.52772
0.31303
-0.0379683
0.326237
-0.0485402
0.338993
-0.0410399
0.352249
-0.0111992
0.355329
0.00444282
0.380077
0.071329
0.392326
0.0394696
0.431588
0.129156
0.461119
0.0972916
0.17872
0.527844
0.316218
-0.0521761
0.32736
-0.0596823
0.335025
-0.0487049
0.342113
-0.0182872
0.344155
0.00240122
0.371167
0.0443163
0.382322
0.0283151
0.424746
0.0867317
0.45657
0.0654673
0.112228
0.523062
0.30994
-0.0601061
0.30351
-0.0532524
0.292315
-0.0375101
0.286977
-0.0129486
0.289033
0.000345076
0.314755
0.0185943
0.329085
0.013985
0.376698
0.0391188
0.413057
0.0291085
0.0459424
0.479342
0.241904
0.188652
0.151142
0.138193
0.138538
0.157132
0.171117
0.210236
0.239345
0.285287
0.497979
-0.0996854
0.502826
-0.0861314
0.506442
-0.0767723
0.50979
-0.0640594
0.51451
-0.0518107
0.519028
-0.0354564
0.525288
-0.0209123
0.530982
-0.00180926
0.539485
0.0152154
0.0379659
0.498524
-0.100757
0.499562
-0.0871694
0.49949
-0.0766997
0.499715
-0.0642847
0.500805
-0.0529005
0.502775
-0.037427
0.50657
-0.0247071
0.511074
-0.00631365
0.518234
0.0080562
0.0301374
0.507261
-0.0941946
0.503316
-0.0832243
0.499385
-0.0727686
0.49647
-0.0613692
0.494293
-0.0507239
0.494478
-0.0376124
0.495616
-0.0258445
0.499334
-0.0100324
0.504205
0.00318546
0.0219435
0.513828
-0.0824707
0.504694
-0.0740905
0.49758
-0.0656538
0.492648
-0.0564377
0.488866
-0.0469422
0.487687
-0.0364326
0.487548
-0.0257061
0.490598
-0.0130825
0.494607
-0.000823498
0.0140725
0.514728
-0.0697624
0.504158
-0.0635205
0.495649
-0.0571442
0.489398
-0.0501875
0.484849
-0.042393
0.482549
-0.0341328
0.481846
-0.0250029
0.483857
-0.0150927
0.487423
-0.00439029
0.00721774
0.514746
-0.0567883
0.503609
-0.0523829
0.494316
-0.0478515
0.486997
-0.0428691
0.481585
-0.0369805
0.478197
-0.0307446
0.476752
-0.0235579
0.47763
-0.015971
0.480642
-0.00740213
0.00146113
0.514349
-0.0432936
0.50236
-0.0403937
0.491993
-0.0374848
0.483416
-0.0342918
0.476768
-0.030333
0.472091
-0.0260676
0.46949
-0.0209563
0.469151
-0.015632
0.471224
-0.00947514
-0.00323024
0.507657
-0.0278882
0.493753
-0.0264898
0.481481
-0.025213
0.47094
-0.0237509
0.462345
-0.0217372
0.45568
-0.0194029
0.451189
-0.0164651
0.448914
-0.0133573
0.449155
-0.00971668
-0.00611945
0.462163
-0.010709
0.44657
-0.0108966
0.432429
-0.0110721
0.419725
-0.0110467
0.408647
-0.0106601
0.399233
-0.00998889
0.391778
-0.00900924
0.386314
-0.0078933
0.383169
-0.00657224
-0.00524585
0.274578
0.263681
0.252609
0.241563
0.230903
0.220914
0.211904
0.204011
0.197439
0.00672719
0.039583
-0.0463102
0.0161969
0.104621
-0.114091
0.0227501
0.149247
-0.1558
0.0252731
0.174084
-0.176607
0.0246616
0.185167
-0.184555
0.0221497
0.188329
-0.185817
0.0186776
0.187064
-0.183592
0.0148865
0.182358
-0.178567
0.0113519
0.172995
-0.169461
0.155731
0.00862565
-0.153004
0.008018
0.031565
0.0215869
0.0910518
0.0333164
0.137518
0.0406511
0.166749
0.0439564
0.181861
0.0444971
0.187789
0.0433822
0.188179
0.0412639
0.184477
0.0383367
0.175923
0.159725
0.0343423
0.00850638
0.0230587
0.0254737
0.0740845
0.0426384
0.120353
0.0556344
0.153753
0.0637616
0.173734
0.0680136
0.183537
0.0695882
0.186604
0.0691847
0.18488
0.0668241
0.178283
0.164902
0.0616476
0.0080772
0.0149815
0.0268996
0.0552621
0.0489921
0.0982604
0.068331
0.134414
0.0824815
0.159584
0.0916354
0.174383
0.0969269
0.181312
0.099268
0.182539
0.0986606
0.178891
0.169416
0.0941462
0.00684526
0.0081362
0.0252987
0.0368087
0.050438
0.0731211
0.0758863
0.108966
0.097221
0.138249
0.112891
0.158713
0.123296
0.170907
0.129371
0.176464
0.131629
0.176633
0.17224
0.128805
0.00514384
0.00299236
0.0210366
0.0209159
0.0459568
0.0482009
0.0752031
0.0797198
0.103558
0.109894
0.127433
0.134838
0.145385
0.152954
0.15755
0.164299
0.164436
0.169747
0.17042
0.166256
0.00340174
-0.000409381
0.0154212
0.00889646
0.0367539
0.0268681
0.0654682
0.0510055
0.0976242
0.0777379
0.129003
0.10346
0.156397
0.12556
0.178042
0.142654
0.193616
0.154173
0.162078
0.201958
0.00192181
-0.00233119
0.00988375
0.000934517
0.0256565
0.0110954
0.0495793
0.0270828
0.0800526
0.0472645
0.114084
0.0694285
0.148331
0.0913127
0.17969
0.111295
0.206199
0.127663
0.139728
0.22855
0.000735214
-0.00306641
0.0050156
-0.00334587
0.0149112
0.00119981
0.0318587
0.0101352
0.0561629
0.0229603
0.0867803
0.038811
0.121642
0.056451
0.158311
0.074627
0.193015
0.0929588
0.104051
0.228692
-0.000407769
-0.00265864
0.000707404
-0.00446104
0.00540026
-0.00349304
0.0153255
0.000210036
0.0317576
0.00652821
0.0550403
0.0155283
0.0847106
0.0267807
0.119702
0.039636
0.158313
0.054347
0.0662054
0.196159
-0.00109634
-0.0015623
-0.00181944
-0.00373793
-0.000382123
-0.00493036
0.00463261
-0.0048047
0.014243
-0.00308215
0.0292917
0.00047959
0.0503097
0.00576265
0.0772305
0.0127153
0.110081
0.0214964
0.0341957
0.142091
-0.000465146
-0.00109715
-0.00030166
-0.00390142
0.00142299
-0.00665501
0.00531357
-0.00869528
0.0118566
-0.00962515
0.021606
-0.0092698
0.0349904
-0.00762183
0.052407
-0.00470127
0.0741809
-0.000277491
0.00821651
0.10016
0.000699413
-0.00179657
0.00287429
-0.00607629
0.00651211
-0.0102928
0.0115717
-0.0137549
0.018045
-0.0160985
0.0260113
-0.017236
0.0356222
-0.0172327
0.0470779
-0.016157
0.060651
-0.0138505
-0.00918377
0.0780512
0.00109159
-0.00288815
0.00355307
-0.00853778
0.00689426
-0.013634
0.0108685
-0.0177291
0.0154155
-0.0206455
0.0206181
-0.0224386
0.0266302
-0.0232448
0.0336191
-0.023146
0.0417782
-0.0220096
-0.0198556
0.0524501
0.000249772
-0.00313793
0.00051041
-0.00879842
0.000504625
-0.0136282
0.000208267
-0.0174328
-0.000225414
-0.0202118
-0.00054206
-0.0221219
-0.000466986
-0.0233199
0.000260565
-0.0238736
0.00204894
-0.023798
-0.023013
0.00520627
-0.00146122
-0.00167671
-0.00482919
-0.00543044
-0.0094401
-0.00901732
-0.0147458
-0.0121271
-0.0202645
-0.0146932
-0.0255602
-0.0168262
-0.0302507
-0.0186294
-0.0339989
-0.0201253
-0.0365233
-0.0212736
-0.0223446
-0.0371916
-0.00344085
0.00176414
-0.0106005
0.0017292
-0.0196812
6.33924e-05
-0.0294351
-0.00237315
-0.0393165
-0.0048118
-0.0489408
-0.00720192
-0.0580402
-0.00953002
-0.0663945
-0.011771
-0.0737694
-0.0138987
-0.0160533
-0.0800608
-0.00508179
0.00684593
-0.0151058
0.0117532
-0.0271631
0.0121206
-0.0400084
0.0104722
-0.0529195
0.0080992
-0.0655991
0.00547776
-0.0778887
0.00275958
-0.0897015
4.17947e-05
-0.100808
-0.00279228
-0.005563
-0.111298
-0.00594496
0.0127909
-0.0175602
0.0233685
-0.0314629
0.0260232
-0.0460686
0.0250779
-0.060726
0.0227566
-0.0751781
0.0199299
-0.0892855
0.016867
-0.102896
0.0136521
-0.116021
0.010333
0.00701518
-0.128599
-0.00575359
-0.0173643
-0.0314955
-0.0464863
-0.0616366
-0.0766643
-0.0914155
-0.105763
-0.119593
-0.132929
0.220687
0.0698008
-0.148397
0.236784
0.405314
-0.421412
0.246579
0.335722
-0.345516
0.25178
0.0722837
-0.0774847
0.234741
-0.0370036
0.0540417
0.211368
-0.0307477
0.0541211
0.19915
-0.019017
0.0312354
0.197401
-0.0145173
0.0162664
0.201492
-0.0170169
0.0129252
-0.0161709
0.0102633
0.184525
-0.0145644
0.230839
0.359001
0.258388
0.308173
0.260551
0.0701213
0.233487
-0.0099396
0.208829
-0.00609016
0.199141
-0.00932829
0.19913
-0.0145066
0.203514
-0.0214007
-0.0213743
0.141782
-0.0782957
0.206887
0.293897
0.247442
0.267618
0.243395
0.0741676
0.215008
0.0184475
0.198005
0.0109134
0.195536
-0.00685938
0.198975
-0.0179454
0.204222
-0.0266485
-0.026053
0.090916
-0.116762
0.166257
0.218556
0.208606
0.225269
0.201994
0.0807796
0.186369
0.0340726
0.185095
0.012187
0.191779
-0.0135438
0.198687
-0.0248533
0.204686
-0.0326473
-0.030229
0.03264
-0.144195
0.101879
0.149317
0.141968
0.18518
0.150711
0.0720375
0.160671
0.0241118
0.176162
-0.00330408
0.189934
-0.0273153
0.19902
-0.033939
0.205289
-0.0389162
-0.0338517
-0.042312
-0.139075
0.0191451
0.0878595
0.0737665
0.130559
0.113654
0.0321501
0.147203
-0.00943785
0.173018
-0.0291191
0.190145
-0.0444417
0.199974
-0.0437688
0.206071
-0.0450123
-0.0368924
-0.113768
-0.105368
-0.0466845
0.0207762
0.0367686
0.0471053
0.0994494
-0.0305306
0.144372
-0.0543603
0.173721
-0.0584682
0.191559
-0.0622798
0.201268
-0.0534775
0.206964
-0.0507085
-0.0393786
-0.153343
-0.063323
-0.0716795
-0.0608874
0.0295361
-0.0541102
0.0988564
-0.0998509
0.146338
-0.101842
0.175919
-0.0880491
0.193377
-0.0797372
0.202659
-0.06276
0.207906
-0.0559559
-0.0413801
-0.165153
-0.0267697
-0.0731919
-0.152848
0.0325929
-0.159895
0.102043
-0.169301
0.149316
-0.149115
0.178328
-0.117062
0.195201
-0.0966103
0.204033
-0.0715914
0.208866
-0.0607894
-0.0429865
-0.162384
-0.0687362
0.0370376
0.105937
0.152444
0.18071
0.196971
0.205372
0.209837
0.0461636
0.0398156
-0.0859792
0.00840804
0.0377555
-0.017906
0.026314
-0.016406
-0.00150001
0.0060412
-0.0224472
0.0274353
-0.0213941
0.0384982
-0.0110629
0.0428301
-0.0043319
0.0445686
-0.00173847
-0.000862082
0.18973
0.125836
-0.27575
0.0834907
0.143995
0.0219797
0.087825
0.0240589
-0.00357917
0.0577011
-0.0560894
0.0889028
-0.0525957
0.106094
-0.0282539
0.113572
-0.0118099
0.117226
-0.00539235
-0.00284087
0.337852
0.192805
-0.404821
0.20501
0.276837
0.111709
0.181126
0.0977238
0.0104064
0.119441
-0.0778062
0.141492
-0.0746466
0.155125
-0.0418873
0.161902
-0.0185866
0.166012
-0.0095022
-0.00543707
0.421217
0.202682
-0.431093
0.315524
0.382529
0.219094
0.277556
0.187737
0.0417639
0.186529
-0.0765985
0.187262
-0.0753793
0.188892
-0.0435174
0.190807
-0.0205019
0.193537
-0.0122323
-0.00800912
0.408929
-0.354644
0.370047
0.302086
0.266365
0.243808
0.22255
0.210268
0.206032
0.206725
0.01047
-0.000164333
-0.0103056
0.0120635
-0.0015935
0.0149573
-0.00289386
0.0193867
-0.00442932
0.0257022
-0.0063155
0.0334443
-0.00774213
0.0436302
-0.0101859
0.0558473
-0.0122171
0.0702894
-0.0144421
-0.0156898
0.0289546
-0.000909499
-0.0282095
0.0335226
-0.00616147
0.0418101
-0.0111814
0.0550664
-0.0176856
0.0736672
-0.0249164
0.0975784
-0.0316533
0.131192
-0.0437991
0.169468
-0.0504937
0.218563
-0.0635366
-0.0728775
0.0449404
-0.00249392
-0.043356
0.05223
-0.0134511
0.0653711
-0.0243225
0.0863036
-0.0386181
0.11467
-0.0532827
0.153302
-0.0702854
0.20326
-0.0937575
0.259998
-0.107231
0.333295
-0.136834
-0.144403
0.0582873
-0.00505306
-0.0557281
0.0678269
-0.0229907
0.0850052
-0.0415008
0.111212
-0.0648253
0.146802
-0.0888724
0.194498
-0.117981
0.249112
-0.148371
0.314771
-0.17289
0.384226
-0.20629
-0.19127
0.0690803
-0.0655077
0.0804319
0.100579
0.1299
0.169832
0.218107
0.271693
0.327353
0.349756
0.0810349
-0.0723511
0.0802269
-0.0889107
0.0724709
-0.0734247
0.0819886
0.0636109
-0.0751353
0.0839953
0.0541777
-0.0769587
0.0863918
0.0440738
-0.078764
0.0888679
0.0334164
-0.0802348
0.0908922
0.0225685
-0.0802825
0.0911304
0.0122803
-0.0761424
0.0864306
0.003969
-0.0624139
0.0707253
-0.0307097
0.0346787
0.0894114
-0.0629676
-0.0987948
0.079663
-0.0636763
0.0692797
-0.064752
0.0583212
-0.0660002
0.0469455
-0.0673883
0.0353369
-0.0686262
0.0237891
-0.0687347
0.0129563
-0.0653096
0.00421102
-0.0536686
-0.0264986
0.0906404
-0.0524216
-0.101186
0.079993
-0.0530289
0.0691532
-0.0539121
0.0581276
-0.0549746
0.0468884
-0.0561491
0.0354338
-0.0571716
0.0239496
-0.0572504
0.0130729
-0.054433
0.00423987
-0.0448356
-0.0222588
0.09563
-0.0416481
-0.106403
0.0846971
-0.042096
0.0735348
-0.0427498
0.0620635
-0.0435034
0.0502327
-0.0443182
0.038079
-0.0450179
0.0258464
-0.0450178
0.0142186
-0.0428052
0.00468935
-0.0353064
-0.0175694
0.0980766
-0.0304259
-0.109299
0.0867122
-0.0307316
0.0750989
-0.0311365
0.063212
-0.0316165
0.0510444
-0.0321506
0.0386454
-0.0326189
0.0262311
-0.0326035
0.0144393
-0.0310134
0.00475786
-0.0256249
-0.0128116
0.101129
-0.0190408
-0.112514
0.0895154
-0.0191184
0.0776489
-0.0192701
0.0654985
-0.019466
0.0530428
-0.019695
0.0403089
-0.019885
0.0274945
-0.019789
0.015241
-0.0187599
0.00508468
-0.0154687
-0.00772688
0.10321
-0.00740943
-0.114841
0.0913749
-0.00728362
0.0792824
-0.00717751
0.0669043
-0.00708799
0.054219
-0.00700963
0.0412499
-0.00691595
0.0281865
-0.00672563
0.0156636
-0.00623701
0.00524191
-0.00504693
-0.00248497
0.10496
0.00435381
-0.116723
0.0929581
0.00471821
0.0806879
0.00509267
0.0681224
0.0054775
0.0552416
0.00587123
0.0420693
0.00625629
0.0287919
0.00655174
0.016041
0.00651388
0.00539173
0.00560238
0.00290676
0.106117
0.0162217
-0.117985
0.0940048
0.0168306
0.0816191
0.0174784
0.0689337
0.0181629
0.0559278
0.0188771
0.0426227
0.0195614
0.0292003
0.0199742
0.0162909
0.0194233
0.00548619
0.0164071
0.00839295
0.106677
-0.118612
0.0945033
0.0820559
0.0693102
0.056245
0.0428791
0.0293899
0.0164057
0.00552799
0.0130999
-0.15095
-0.0151547
0.00873829
-0.165099
0.00336683
-0.173196
-0.00215324
-0.178071
-0.00715817
-0.180812
-0.010873
-0.18084
-0.0122628
-0.175217
-0.0102505
-0.157812
-0.00491334
-0.119428
-0.0512236
0.0355723
-0.148087
-0.0384344
0.0297328
-0.15926
0.0226364
-0.166099
0.0152205
-0.170656
0.00804027