/*--------------------------------*- C++ -*----------------------------------*\
  =========                 |
  \\      /  F ield         | OpenFOAM: The Open Source CFD Toolbox
   \\    /   O peration     | Website:  https://openfoam.org
    \\  /    A nd           | Version:  13
     \\/     M anipulation  |
\*---------------------------------------------------------------------------*/
FoamFile
{
    format      ascii;
    class       volVectorField;
    location    "2.55";
    object      U;
}
// * * * * * * * * * * * * * * * * * * * * * * * * * * * * * * * * * * * * * //

dimensions      [0 1 -1 0 0 0 0];

internalField   nonuniform List<vector> 
1800
(
(-0.0328841 0.0267046 9.37687e-21)
(-0.077918 0.0541614 4.25628e-21)
(-0.0900806 0.0709525 -6.81488e-20)
(-0.0624838 0.079104 6.95088e-20)
(0.0115217 0.0795399 1.59736e-19)
(0.135225 0.0722484 5.57439e-20)
(0.308934 0.0588417 -8.55583e-21)
(0.524741 0.0376894 1.40421e-19)
(0.803884 0.0261584 2.0359e-19)
(0.964191 0.0368858 2.32949e-19)
(-0.0449138 0.0333783 8.22987e-21)
(-0.0777409 0.0550391 -6.1982e-20)
(-0.0515649 0.0549782 5.19803e-22)
(0.0354568 0.0401702 -6.61653e-20)
(0.186186 0.015421 2.56464e-20)
(0.398169 -0.0159405 1.20256e-19)
(0.661738 -0.0505043 -1.50874e-20)
(0.958956 -0.0881337 -1.45257e-20)
(1.28555 -0.117081 -1.91934e-19)
(1.51407 -0.146774 1.5379e-19)
(-0.0474926 0.031443 5.7439e-21)
(-0.0505703 0.0432759 2.10751e-20)
(0.0343097 0.0300636 6.82546e-21)
(0.203049 0.000605563 -1.50369e-20)
(0.448889 -0.0371836 -1.5442e-19)
(0.754585 -0.0770679 2.79478e-20)
(1.0929 -0.11452 5.05963e-20)
(1.43453 -0.145997 -2.10788e-20)
(1.74593 -0.170764 -1.56478e-22)
(2.0271 -0.205639 1.71338e-21)
(-0.037926 0.022284 -9.02995e-21)
(0.0107756 0.0177753 -2.84619e-20)
(0.176497 -0.00839727 -2.92179e-20)
(0.44475 -0.0461146 2.93942e-20)
(0.789426 -0.0858085 2.75241e-20)
(1.16999 -0.120856 1.11697e-20)
(1.54237 -0.147943 -3.87255e-21)
(1.86967 -0.167089 1.12291e-19)
(2.1368 -0.180784 1.16425e-19)
(2.32005 -0.189434 -5.93582e-20)
(-0.0148876 0.0093186 6.71136e-20)
(0.111569 -0.0131089 6.21952e-20)
(0.379393 -0.0477058 -4.43352e-20)
(0.752858 -0.0834104 -5.4383e-20)
(1.17561 -0.112173 -1.642e-19)
(1.58495 -0.131092 2.54281e-21)
(1.93311 -0.141378 2.36472e-19)
(2.19805 -0.146286 1.05322e-19)
(2.37533 -0.147046 -4.94243e-23)
(2.49163 -0.156181 -1.07965e-19)
(0.0244679 -0.00514861 -6.44787e-20)
(0.255214 -0.0409792 -1.299e-20)
(0.63727 -0.0741605 2.28846e-19)
(1.1002 -0.0958359 -8.05776e-20)
(1.55713 -0.104914 -1.83234e-19)
(1.94114 -0.10526 3.95402e-19)
(2.22322 -0.101775 -3.98809e-19)
(2.40587 -0.0980501 -5.6132e-19)
(2.51259 -0.0962652 4.57369e-19)
(2.56184 -0.0972806 3.07066e-21)
(0.0820156 -0.0177283 6.85094e-20)
(0.438091 -0.0561804 -1.59456e-19)
(0.928917 -0.0751162 -5.84244e-19)
(1.44441 -0.0737477 3.00384e-19)
(1.88616 -0.0619025 6.72078e-19)
(2.20855 -0.0483401 -2.59509e-21)
(2.41348 -0.0376813 -1.42714e-18)
(2.52772 -0.0313581 1.02411e-20)
(2.58072 -0.0279644 1.68435e-18)
(2.59948 -0.0317858 4.6137e-19)
(0.156649 -0.0245017 6.20922e-20)
(0.647469 -0.0502628 3.56784e-19)
(1.22336 -0.0430756 5.18806e-19)
(1.74822 -0.016338 -1.10982e-19)
(2.14116 0.0113544 -5.97152e-19)
(2.39196 0.0317238 -2.28245e-19)
(2.52978 0.0435627 0)
(2.59267 0.0485991 6.95717e-19)
(2.61258 0.048779 -1.38682e-20)
(2.60738 0.0442171 -6.57802e-19)
(0.244242 -0.0214368 5.26782e-20)
(0.864254 -0.0172849 4.15741e-19)
(1.49141 0.0233342 7.92584e-19)
(1.99205 0.0719842 -8.55925e-19)
(2.32262 0.108568 -7.52551e-19)
(2.50713 0.129791 2.91662e-19)
(2.59213 0.138817 -1.3732e-18)
(2.61978 0.139987 -1.03786e-18)
(2.61771 0.136797 1.2668e-18)
(2.60059 0.128724 1.10163e-18)
(0.33814 -0.00546879 -2.32673e-20)
(1.06841 0.0441985 3.32728e-19)
(1.71413 0.119911 2.00931e-19)
(2.17137 0.184366 -1.65185e-18)
(2.43925 0.22346 4.23546e-20)
(2.5684 0.240746 3.25693e-18)
(2.61469 0.243785 -1.88333e-18)
(2.61891 0.239076 -1.09463e-18)
(2.60389 0.230332 3.89007e-19)
(2.57841 0.218037 -8.88394e-19)
(-0.0156209 0.262102 2.85714e-19)
(-0.0700915 0.50075 -1.4086e-19)
(-0.138426 0.579179 1.19648e-21)
(-0.210829 0.581274 -3.79292e-20)
(-0.27961 0.552862 2.5176e-21)
(-0.343386 0.512786 2.05808e-19)
(-0.402195 0.466896 1.86238e-19)
(-0.455545 0.41678 -3.21719e-19)
(-0.501601 0.363251 2.37705e-20)
(-0.538691 0.307493 -7.11333e-20)
(-0.0364338 0.301812 -9.64791e-21)
(-0.0947702 0.60023 1.99146e-20)
(-0.15369 0.711141 1.1078e-20)
(-0.211675 0.72602 4.53702e-20)
(-0.265448 0.699275 -1.97642e-19)
(-0.314398 0.655534 2.02452e-19)
(-0.358554 0.603151 -3.11991e-19)
(-0.397456 0.544412 -4.08526e-19)
(-0.428767 0.480261 2.33985e-19)
(-0.448826 0.411907 -7.17475e-20)
(-0.0565124 0.305194 -9.08282e-20)
(-0.11914 0.645107 5.27312e-20)
(-0.165854 0.794389 9.62355e-21)
(-0.203558 0.832107 -2.37026e-19)
(-0.236677 0.814536 -7.6331e-20)
(-0.265088 0.771884 8.15314e-19)
(-0.288744 0.716124 -3.28903e-19)
(-0.307445 0.650931 -3.80089e-19)
(-0.319049 0.577673 4.18384e-19)
(-0.317216 0.497192 2.0771e-19)
(-0.0687177 0.271415 -8.33575e-20)
(-0.133868 0.623977 -9.26337e-22)
(-0.168825 0.81177 2.18839e-20)
(-0.186634 0.882673 -9.27766e-20)
(-0.196352 0.885241 2.97426e-19)
(-0.200655 0.851989 -2.75175e-19)
(-0.199984 0.799138 -2.56329e-19)
(-0.193721 0.732937 3.10216e-19)
(-0.182812 0.654541 2.29924e-20)
(-0.158929 0.565348 6.57862e-21)
(-0.0686332 0.210821 0)
(-0.135029 0.539247 2.00543e-20)
(-0.162398 0.753035 -9.28269e-20)
(-0.164772 0.862048 1.19636e-19)
(-0.154116 0.895473 3.31269e-19)
(-0.135966 0.881522 -2.85932e-19)
(-0.11246 0.838944 1.18734e-19)
(-0.084084 0.777245 -2.19939e-21)
(-0.0513598 0.699084 0)
(-0.00367042 0.607192 1.51147e-20)
(-0.0567375 0.140993 -1.89969e-20)
(-0.120232 0.411221 6.06532e-20)
(-0.145083 0.626055 1.29379e-20)
(-0.140073 0.764941 -2.4168e-20)
(-0.116264 0.833882 3.40039e-20)
(-0.0807451 0.849665 2.14734e-19)
(-0.0376036 0.828399 -5.36865e-19)
(0.0111624 0.781382 -2.24113e-20)
(0.0630341 0.713794 6.15337e-19)
(0.128687 0.629943 9.52601e-21)
(-0.0385412 0.0795844 9.70314e-21)
(-0.0939846 0.273654 1.22179e-19)
(-0.119414 0.459552 -5.65971e-20)
(-0.115311 0.604105 -9.1199e-21)
(-0.0881048 0.696716 -6.98277e-20)
(-0.0440688 0.741456 1.21187e-19)
(0.0116561 0.747565 2.15372e-19)
(0.0755744 0.724336 2.84155e-19)
(0.142939 0.677449 -2.66361e-19)
(0.219122 0.61281 -3.34968e-19)
(-0.0217291 0.0373832 2.2756e-20)
(-0.0675291 0.159056 -6.89785e-20)
(-0.0946757 0.295967 -9.70471e-20)
(-0.0964775 0.417698 3.70862e-20)
(-0.0736467 0.508352 -2.70893e-20)
(-0.0299382 0.564271 -1.38619e-20)
(0.0299005 0.588497 -5.95805e-20)
(0.10177 0.586836 1.79499e-19)
(0.180494 0.563747 1.33349e-19)
(0.267569 0.518227 -2.44024e-19)
(-0.0135557 0.0172936 1.06738e-20)
(-0.0551119 0.0858044 -1.23531e-19)
(-0.0851575 0.171203 1.64735e-19)
(-0.0934492 0.253135 1.59324e-19)
(-0.0764305 0.319286 -8.82365e-20)
(-0.0347602 0.364702 1.43525e-19)
(0.0289639 0.389609 -4.21652e-20)
(0.112305 0.39714 1.51987e-19)
(0.212138 0.388213 1.11708e-19)
(0.341011 0.350711 -2.03188e-19)
(-0.0187839 0.0171123 -1.14818e-20)
(-0.063438 0.0561991 -6.59966e-20)
(-0.0929432 0.100194 -2.01142e-20)
(-0.0971386 0.141033 7.56656e-20)
(-0.0698524 0.173547 1.33355e-19)
(-0.00837006 0.194939 -1.02688e-19)
(0.0881046 0.20512 -3.12065e-20)
(0.218024 0.205238 -4.79423e-20)
(0.382853 0.195736 1.2427e-19)
(0.577791 0.176846 1.52964e-19)
(-0.698246 0.0224045 9.71239e-19)
(-0.528441 -0.412093 -1.50673e-18)
(0.0518228 -0.443472 -2.15921e-19)
(0.38205 -0.379481 4.64715e-20)
(0.670596 -0.304616 -1.12988e-20)
(0.835531 -0.222364 -8.27566e-21)
(0.939957 -0.169215 -8.03757e-21)
(1.00696 -0.11829 -2.66941e-21)
(1.03807 -0.0951809 1.11915e-20)
(1.07031 -0.0639616 2.39909e-21)
(-0.521535 0.0463387 9.87663e-19)
(-0.307096 -0.524081 7.08929e-19)
(0.169371 -0.576799 -3.74163e-20)
(0.471013 -0.471303 -1.05086e-19)
(0.725269 -0.365704 -1.1129e-19)
(0.868706 -0.260452 0)
(0.960563 -0.192324 -1.53018e-20)
(1.01908 -0.131624 4.89607e-21)
(1.04671 -0.103527 3.60446e-22)
(1.07471 -0.0683755 -4.7066e-21)
(-0.282657 0.0499013 -5.30697e-19)
(-0.0246308 -0.612367 -3.53526e-19)
(0.350889 -0.686351 1.87577e-19)
(0.596662 -0.552132 4.69949e-20)
(0.801862 -0.418421 7.24324e-21)
(0.91427 -0.293309 -5.08366e-22)
(0.987535 -0.212372 0)
(1.03422 -0.143258 0)
(1.05688 -0.110774 -8.13081e-21)
(1.07963 -0.072162 0)
(-0.0147926 0.0410568 -1.04402e-19)
(0.280069 -0.676102 8.06179e-19)
(0.568155 -0.772351 -1.1161e-19)
(0.74398 -0.618243 0)
(0.894021 -0.460543 1.63774e-19)
(0.970456 -0.319239 -2.97449e-20)
(1.02068 -0.22821 0)
(1.05247 -0.152542 2.78063e-20)
(1.0686 -0.116571 0)
(1.08504 -0.0751739 3.75815e-21)
(0.267793 0.0215492 -1.83237e-20)
(0.593495 -0.720659 3.80813e-19)
(0.795816 -0.835424 7.6417e-20)
(0.896223 -0.668821 0)
(0.990763 -0.491988 6.92783e-20)
(1.03206 -0.33783 7.34563e-20)
(1.05819 -0.239207 2.24393e-21)
(1.07339 -0.158969 1.17731e-22)
(1.08179 -0.120592 -7.27369e-21)
(1.09092 -0.0772678 1.75721e-21)
(0.525497 -0.00367689 3.77911e-19)
(0.901574 -0.749118 -4.06649e-19)
(1.02478 -0.875293 -4.05494e-20)
(1.04528 -0.703693 2.73649e-19)
(1.08359 -0.513557 -1.27214e-19)
(1.09284 -0.34977 4.08849e-20)
(1.09699 -0.245471 7.51033e-20)
(1.09585 -0.162352 -6.47074e-20)
(1.09607 -0.122615 -3.36124e-24)
(1.09716 -0.0783274 -8.30248e-21)
(0.747856 -0.0336477 1.2975e-19)
(1.19402 -0.766704 1.02124e-20)
(1.24607 -0.894903 -1.14571e-19)
(1.18845 -0.723552 -9.39378e-21)
(1.16965 -0.526057 -1.44104e-19)
(1.14865 -0.356084 -2.137e-21)
(1.1339 -0.247651 -3.28238e-20)
(1.11825 -0.162881 -1.07512e-21)
(1.11078 -0.122586 8.75087e-21)
(1.10358 -0.0782893 -9.25845e-22)
(0.957417 -0.0845458 -3.93045e-19)
(1.46327 -0.776052 2.18993e-20)
(1.45106 -0.896205 0)
(1.32294 -0.729808 7.2863e-20)
(1.24953 -0.530429 1.24729e-19)
(1.19858 -0.357714 -6.3891e-21)
(1.16694 -0.24659 -1.12377e-19)
(1.13899 -0.161034 2.84267e-20)
(1.12503 -0.120648 -4.48118e-22)
(1.10987 -0.0771655 -4.58303e-21)
(1.18635 -0.169745 4.49906e-19)
(1.70666 -0.775333 -3.29277e-20)
(1.63356 -0.880299 1.25878e-19)
(1.4459 -0.723447 -4.80016e-20)
(1.32435 -0.527562 3.33758e-21)
(1.24398 -0.35546 -1.1593e-19)
(1.19593 -0.243157 3.81465e-20)
(1.15715 -0.1575 3.69363e-23)
(1.13794 -0.117184 -9.32759e-22)
(1.11563 -0.0750705 5.58723e-21)
(1.44644 -0.255045 -3.19077e-19)
(1.92103 -0.761371 -3.92911e-21)
(1.79001 -0.851 1.01704e-19)
(1.55587 -0.705721 -2.36052e-19)
(1.39465 -0.51748 -1.41011e-19)
(1.28674 -0.349338 -6.65457e-20)
(1.22197 -0.237786 -2.21514e-20)
(1.1728 -0.152929 0)
(1.14898 -0.112756 -1.28857e-20)
(1.1205 -0.0722166 9.37562e-21)
(2.01707 -0.370635 -7.95405e-19)
(2.19589 -0.729588 -4.52302e-19)
(1.97553 -0.795635 -1.52084e-19)
(1.68986 -0.665453 4.08473e-20)
(1.48183 -0.490553 3.78927e-20)
(1.3396 -0.331703 -4.74445e-20)
(1.25268 -0.224622 -3.06258e-20)
(1.19007 -0.143792 1.86187e-20)
(1.16045 -0.105209 -7.37154e-21)
(1.12547 -0.0677402 -4.58944e-21)
(2.41653 -0.440072 1.30875e-19)
(2.32668 -0.702195 -8.3552e-19)
(1.99668 -0.707547 -2.77601e-19)
(1.69687 -0.559006 -1.02529e-20)
(1.50024 -0.399567 1.40822e-19)
(1.36234 -0.268386 1.24092e-19)
(1.27208 -0.18418 8.4215e-20)
(1.20241 -0.119885 -9.40187e-21)
(1.16941 -0.0898988 2.85613e-20)
(1.12899 -0.0596465 4.25996e-21)
(2.45769 -0.416328 -4.86873e-20)
(2.28834 -0.581548 -2.31982e-20)
(2.03754 -0.589302 4.68411e-20)
(1.79442 -0.483182 1.4849e-35)
(1.59415 -0.35251 -2.102e-20)
(1.43064 -0.234828 -3.74548e-34)
(1.31575 -0.157779 7.0064e-21)
(1.22681 -0.101242 1.09476e-34)
(1.18381 -0.07595 -4.31507e-22)
(1.13424 -0.0514193 7.24994e-22)
(2.40769 -0.371387 -3.51221e-34)
(2.26547 -0.513701 2.49193e-19)
(2.04554 -0.521003 7.49952e-20)
(1.79798 -0.404198 0)
(1.588 -0.271533 -7.68129e-20)
(1.42483 -0.169776 -6.38764e-20)
(1.31517 -0.111686 -4.75977e-20)
(1.22885 -0.0720739 5.11669e-34)
(1.18763 -0.0563998 -1.40924e-20)
(1.13558 -0.040723 -1.22461e-21)
(2.3543 -0.336659 -2.93446e-20)
(2.23154 -0.444406 7.61963e-21)
(2.04786 -0.433478 0)
(1.82537 -0.322155 0)
(1.61465 -0.20566 0)
(1.4402 -0.1226 0)
(1.32248 -0.0779859 2.46727e-21)
(1.23132 -0.0493249 5.97432e-34)
(1.18893 -0.039454 -8.41374e-22)
(1.13476 -0.0304888 -1.91222e-34)
(2.30701 -0.302508 5.76014e-20)
(2.20389 -0.387686 0)
(2.01951 -0.365874 0)
(1.78795 -0.248738 0)
(1.57538 -0.133657 0)
(1.40699 -0.0644841 0)
(1.29801 -0.0363538 -5.48625e-21)
(1.21415 -0.0226853 2.12187e-20)
(1.17697 -0.0209442 -1.03263e-21)
(1.12579 -0.01961 5.5082e-22)
(2.25432 -0.272662 0)
(2.12618 -0.330974 6.70863e-20)
(1.90164 -0.285685 -3.70405e-21)
(1.65529 -0.165889 0)
(1.4534 -0.0640457 -5.15166e-20)
(1.30962 -0.0150013 -3.41093e-20)
(1.22584 -0.00300771 -2.5606e-20)
(1.16192 -0.00141887 -1.04123e-20)
(1.13654 -0.00551417 8.34336e-21)
(1.09464 -0.00988924 -3.29269e-21)
(2.09997 -0.229954 1.03369e-21)
(1.88186 -0.250799 5.2845e-21)
(1.58641 -0.188662 -1.02673e-20)
(1.33764 -0.0838329 -6.6677e-36)
(1.18189 -0.00760075 1.3997e-20)
(1.09718 0.0198374 -2.09818e-34)
(1.06129 0.0186546 -6.75162e-21)
(1.03268 0.0117204 -1.21835e-20)
(1.02626 0.00431143 -1.1971e-21)
(1.00094 -0.00278869 2.42376e-21)
(1.59755 -0.159036 5.37709e-21)
(1.27441 -0.138267 -1.06795e-20)
(0.955268 -0.0734092 8.57268e-21)
(0.771566 -0.00999945 0)
(0.7157 0.0244619 1.25511e-20)
(0.720269 0.0299725 1.07019e-20)
(0.743192 0.0222252 -2.3263e-22)
(0.755111 0.0135331 3.68996e-21)
(0.76823 0.00698478 -4.63643e-21)
(0.762478 0.000939353 -2.20913e-21)
(0.522869 -0.0214852 0)
(0.306377 -0.00562119 0)
(0.165645 0.00218011 0)
(0.125324 0.00540745 0)
(0.152678 0.00738055 0)
(0.201351 0.00633334 0)
(0.244566 0.00423231 -7.11826e-21)
(0.271825 0.00245108 2.04928e-35)
(0.28934 0.00131937 -1.38749e-21)
(0.29491 0.000252517 -2.55626e-21)
(2.51112 0.19201 8.57897e-19)
(2.54383 0.117739 5.29639e-20)
(2.5654 0.0373995 -8.79572e-20)
(2.57452 -0.0208027 -2.84987e-19)
(2.59083 -0.0963576 -5.44625e-20)
(2.55166 -0.126111 -8.48857e-20)
(2.5797 -0.206846 -2.87812e-19)
(2.39013 -0.179085 1.44784e-20)
(2.41541 -0.270271 0)
(1.81434 -0.116066 1.22061e-20)
(2.43335 0.150555 2.72326e-19)
(2.42267 0.10852 -3.17012e-19)
(2.50986 0.0209185 -6.64173e-20)
(2.4559 -0.00416899 -1.38562e-19)
(2.57316 -0.0993988 1.14779e-19)
(2.4608 -0.103243 2.0273e-19)
(2.62077 -0.20855 -2.74025e-19)
(2.43438 -0.196432 -2.09107e-20)
(2.60108 -0.299547 -7.24665e-21)
(2.33887 -0.281601 1.03774e-19)
(2.37285 0.119672 -1.23634e-19)
(2.34852 0.0865374 2.8061e-19)
(2.44456 0.0109449 1.75876e-19)
(2.38691 -0.0121029 -2.9557e-19)
(2.49508 -0.0902773 -4.50948e-20)
(2.41298 -0.108064 4.26948e-19)
(2.52103 -0.183038 8.03681e-20)
(2.43917 -0.206642 -9.55718e-20)
(2.51452 -0.266554 -5.90665e-20)
(2.46056 -0.306241 -7.10931e-20)
(2.31406 0.0902729 -3.11573e-19)
(2.31537 0.0542803 -4.34236e-20)
(2.37472 0.00104292 1.74046e-20)
(2.36012 -0.0323119 -1.96473e-20)
(2.41108 -0.0832631 -2.35171e-19)
(2.39229 -0.118138 -1.01398e-19)
(2.42598 -0.162313 2.46906e-19)
(2.4185 -0.203454 -1.16291e-20)
(2.4284 -0.238059 5.07954e-20)
(2.43875 -0.287169 2.47178e-20)
(2.26545 0.060854 4.79643e-20)
(2.28859 0.0248469 1.32526e-19)
(2.31848 -0.0123944 -3.18349e-20)
(2.33324 -0.0487035 2.19997e-19)
(2.35038 -0.0832975 -5.32307e-20)
(2.36225 -0.121169 -2.63422e-19)
(2.36585 -0.151649 4.24862e-20)
(2.37956 -0.191777 -1.08801e-19)
(2.37229 -0.218735 2.85936e-20)
(2.3883 -0.261138 7.67897e-21)
(2.22526 0.0310707 -1.71041e-19)
(2.25381 -8.8435e-05 -7.94482e-20)
(2.27356 -0.028517 4.19366e-21)
(2.29511 -0.0604027 1.249e-19)
(2.30425 -0.0873342 2.6719e-19)
(2.32087 -0.120192 -7.75385e-20)
(2.32077 -0.14535 7.17312e-21)
(2.33419 -0.179277 -6.21235e-20)
(2.32692 -0.203029 -8.60836e-20)
(2.33841 -0.238175 -5.82009e-20)
(2.1754 0.00337203 -6.08511e-20)
(2.20195 -0.0214093 -1.3292e-19)
(2.21861 -0.0436946 -1.43861e-19)
(2.23925 -0.0690597 -2.74069e-19)
(2.24772 -0.0909659 5.83492e-20)
(2.26389 -0.117364 6.10641e-20)
(2.26494 -0.13895 1.70046e-20)
(2.27838 -0.166679 7.60515e-20)
(2.27239 -0.187701 -1.04223e-19)
(2.28551 -0.216814 -4.94543e-20)
(2.06207 -0.0195838 6.24634e-20)
(2.08436 -0.037551 4.32222e-20)
(2.09241 -0.0530002 2.15433e-20)
(2.11256 -0.0717648 -4.42758e-20)
(2.113 -0.0873047 -4.22304e-20)
(2.13322 -0.107521 -2.49215e-20)
(2.12587 -0.123368 -4.90708e-20)
(2.14877 -0.145583 7.89447e-20)
(2.13262 -0.161485 -4.10147e-20)
(2.16166 -0.185768 3.95314e-20)
(1.73624 -0.0341798 -5.86187e-20)
(1.74149 -0.0438275 -3.667e-21)
(1.73349 -0.0517911 1.1241e-19)
(1.74002 -0.0619154 -8.30273e-21)
(1.72498 -0.0697404 -3.17029e-20)
(1.73662 -0.0814896 6.57704e-20)
(1.71222 -0.0896318 -4.53758e-20)
(1.73292 -0.103804 2.95627e-20)
(1.69516 -0.112347 1.45828e-21)
(1.73108 -0.129431 -3.07966e-20)
(0.862864 -0.0143296 4.96041e-20)
(0.843242 -0.0140436 3.97314e-20)
(0.822274 -0.0138676 3.86643e-20)
(0.80361 -0.0138504 6.15405e-20)
(0.781678 -0.0143754 -3.11252e-20)
(0.765116 -0.0152422 -3.52338e-20)
(0.740061 -0.0167303 1.50444e-20)
(0.727545 -0.0187184 -2.8673e-21)
(0.691568 -0.0201675 4.29551e-21)
(0.694531 -0.0275727 -6.10952e-21)
(1.57875 0.958606 -8.65034e-20)
(1.56224 1.00498 2.79091e-20)
(1.56561 1.05907 -6.4832e-19)
(1.57422 1.12068 2.44415e-19)
(1.58085 1.18584 1.21386e-18)
(1.57695 1.24674 -1.52812e-19)
(1.54075 1.28124 -1.08429e-18)
(1.42185 1.23731 -7.51437e-21)
(1.12995 1.01765 -5.3792e-19)
(0.532278 0.49216 1.24099e-19)
(1.74471 0.927315 0)
(1.73325 0.97236 7.54933e-19)
(1.73304 1.02274 1.67115e-18)
(1.74133 1.08192 -1.02678e-18)
(1.7514 1.14573 -2.39839e-18)
(1.75112 1.20481 -1.59673e-19)
(1.71341 1.23592 -2.04506e-19)
(1.58019 1.1876 7.45991e-19)
(1.25063 0.968182 1.11409e-18)
(0.583853 0.461214 4.45644e-19)
(1.899 0.885896 7.09267e-20)
(1.89662 0.930619 0)
(1.89773 0.978028 -7.05759e-20)
(1.90663 1.03271 1.04779e-18)
(1.91884 1.09179 5.82209e-20)
(1.9201 1.1457 -2.35388e-18)
(1.87839 1.17052 1.48747e-18)
(1.72786 1.11695 8.85781e-19)
(1.35901 0.900834 -9.58949e-19)
(0.626653 0.420866 -2.87842e-19)
(2.03367 0.835997 -1.90702e-19)
(2.04175 0.878742 -1.40381e-19)
(2.04873 0.922507 2.89387e-19)
(2.0609 0.971685 -3.58587e-19)
(2.07542 1.02428 -1.66198e-18)
(2.07678 1.07071 -1.2868e-18)
(2.02821 1.08757 1.36053e-18)
(1.85778 1.02742 8.95429e-19)
(1.44724 0.816192 0)
(0.6562 0.371519 0)
(2.15349 0.768906 -9.59421e-19)
(2.17002 0.809331 -1.7474e-18)
(2.18373 0.849725 -6.73251e-19)
(2.20018 0.893838 -3.57265e-20)
(2.21667 0.940033 0)
(2.21619 0.978635 1.4468e-19)
(2.15792 0.984728 1.67693e-19)
(1.96176 0.918814 2.09175e-19)
(1.5075 0.716711 -3.01353e-19)
(0.668573 0.313788 -7.55636e-20)
(2.25755 0.693272 1.1475e-18)
(2.28157 0.729212 -4.42501e-20)
(2.3017 0.764847 -1.34375e-18)
(2.3222 0.802881 0)
(2.33964 0.841029 0)
(2.33442 0.869875 0)
(2.26034 0.867063 1.55213e-18)
(2.03235 0.795731 -1.7166e-18)
(1.53551 0.603408 -1.09439e-18)
(0.6611 0.250417 1.24972e-20)
(2.34901 0.603762 -1.50054e-18)
(2.37788 0.63552 -3.14972e-18)
(2.4026 0.666694 -5.45892e-21)
(2.42554 0.698837 6.35256e-19)
(2.44115 0.72915 -4.02871e-20)
(2.42623 0.748312 1.3462e-18)
(2.32981 0.736106 -7.40387e-19)
(2.06552 0.660249 -1.99015e-18)
(1.52624 0.48138 1.2149e-19)
(0.632499 0.185494 9.16816e-20)
(2.42754 0.510807 -1.17897e-18)
(2.459 0.536587 1.70953e-20)
(2.48574 0.562141 4.45263e-19)
(2.50832 0.587547 -4.2898e-19)
(2.5181 0.60937 6.63886e-19)
(2.48763 0.618343 1.77806e-18)
(2.3617 0.596482 -1.69505e-19)
(2.05516 0.517756 -1.05484e-18)
(1.47545 0.357151 2.43252e-19)
(0.582852 0.123396 4.42828e-20)
(2.49235 0.411273 4.33006e-19)
(2.5241 0.432861 8.85281e-20)
(2.55024 0.453032 -4.48315e-19)
(2.569 0.471597 -1.04036e-18)
(2.56777 0.484823 7.88196e-20)
(2.51428 0.48385 6.54823e-20)
(2.35025 0.453529 -1.32022e-18)
(1.99576 0.375019 5.5348e-19)
(1.38116 0.237874 1.61322e-19)
(0.51418 0.0685231 -7.85801e-20)
(2.54281 0.314764 8.1281e-19)
(2.57246 0.33119 -1.2091e-18)
(2.59505 0.345134 1.84891e-19)
(2.60542 0.356302 2.39188e-18)
(2.58622 0.360765 1.17316e-18)
(2.50039 0.35054 -2.5259e-18)
(2.2889 0.31395 -2.35792e-18)
(1.8828 0.239779 1.01521e-18)
(1.24396 0.131187 -3.16148e-20)
(0.430583 0.0247415 -7.96092e-20)
(0.536905 0.405541 -1.5104e-19)
(0.496729 0.419541 -1.58631e-19)
(0.451579 0.434487 6.62321e-20)
(0.402057 0.450539 -2.188e-19)
(0.347828 0.467559 -1.56686e-20)
(0.288058 0.484105 2.0714e-19)
(0.221794 0.494217 2.91003e-20)
(0.149511 0.480751 9.88533e-21)
(0.0781852 0.406343 2.34156e-20)
(0.0161536 0.208102 1.21251e-20)
(0.582903 0.511086 1.24255e-19)
(0.54363 0.531626 1.57248e-19)
(0.500215 0.553689 4.91685e-20)
(0.452836 0.577446 -4.3932e-20)
(0.400845 0.602655 -2.07033e-19)
(0.343136 0.627341 -2.01756e-20)
(0.278036 0.643624 4.30744e-20)
(0.204112 0.6289 4.43675e-20)
(0.124519 0.533537 -1.32085e-19)
(0.040072 0.274158 -4.57827e-20)
(0.646516 0.609376 -9.70297e-20)
(0.608472 0.635656 -8.28906e-20)
(0.567364 0.66393 9.01336e-20)
(0.522915 0.694678 5.96002e-20)
(0.474201 0.727766 -8.23402e-20)
(0.419797 0.760765 -1.29502e-20)
(0.356959 0.783817 -1.13637e-19)
(0.281371 0.76875 -8.9721e-20)
(0.190308 0.653789 -7.31576e-20)
(0.0740726 0.33623 7.17407e-23)
(0.727144 0.703847 2.26764e-20)
(0.690905 0.736447 -6.15142e-20)
(0.653042 0.770913 -7.65095e-20)
(0.612317 0.807949 -7.19626e-20)
(0.567387 0.847564 -6.65466e-20)
(0.516637 0.88701 -8.9144e-21)
(0.456273 0.914674 -2.98264e-19)
(0.378511 0.897406 6.58718e-20)
(0.272951 0.762866 -3.34821e-19)
(0.116739 0.391712 5.00161e-20)
(0.820794 0.782439 1.34443e-20)
(0.78707 0.82001 1.76425e-20)
(0.753739 0.859987 -5.14852e-20)
(0.718695 0.903423 -2.8351e-19)
(0.679802 0.950091 1.3081e-19)
(0.63464 0.996559 4.68828e-20)
(0.577785 1.02946 3.89702e-20)
(0.49723 1.011 -1.91622e-19)
(0.37329 0.85903 4.0264e-19)
(0.167971 0.439841 2.92505e-19)
(0.930369 0.859737 -1.05581e-19)
(0.898216 0.901724 -1.99885e-19)
(0.868078 0.944961 1.30713e-20)
(0.837299 0.991935 1.03764e-19)
(0.803724 1.04301 3.83867e-19)
(0.764425 1.09411 2.83006e-19)
(0.711828 1.1297 6.74934e-19)
(0.628653 1.10762 2.77038e-19)
(0.484588 0.938145 1.51473e-19)
(0.224697 0.477815 2.12311e-19)
(1.04602 0.911293 -1.12445e-19)
(1.01995 0.958136 6.47716e-19)
(0.997623 1.00596 4.21614e-19)
(0.974441 1.05728 -5.42149e-19)
(0.947643 1.11268 -2.70128e-19)
(0.914197 1.16805 7.03132e-19)
(0.864949 1.20645 -1.10316e-19)
(0.777107 1.18184 -4.74561e-19)
(0.60859 0.99799 2.57007e-20)
(0.286604 0.504938 2.64639e-19)
(1.16866 0.963484 3.19908e-19)
(1.1426 1.01067 6.14627e-20)
(1.12491 1.05884 -8.05191e-19)
(1.10978 1.11206 1.74738e-19)
(1.09247 1.17006 6.1326e-19)
(1.06788 1.22733 -3.38415e-19)
(1.02392 1.26525 -1.0545e-19)
(0.931683 1.23516 -1.94865e-19)
(0.737108 1.03716 1.97538e-20)
(0.34992 0.519958 -3.09467e-19)
(1.30024 0.981185 1.92953e-20)
(1.28491 1.03227 -5.89441e-19)
(1.27467 1.08143 -4.95026e-21)
(1.26512 1.13568 5.00054e-19)
(1.25363 1.19607 -5.17659e-19)
(1.23502 1.25611 1.01182e-18)
(1.19408 1.29487 6.79849e-19)
(1.0947 1.26102 -1.00476e-18)
(0.870139 1.05294 -7.88166e-20)
(0.413583 0.522403 -3.42213e-19)
(1.40455 0.989796 -3.53959e-19)
(1.40071 1.04189 -3.33158e-19)
(1.40795 1.09294 3.11838e-19)
(1.41342 1.1481 8.17409e-19)
(1.41357 1.20806 2.93867e-19)
(1.40367 1.2667 -8.36877e-19)
(1.36636 1.30242 1.05712e-19)
(1.25874 1.2627 2.27234e-19)
(1.00198 1.04663 -3.07055e-19)
(0.474944 0.513001 -2.43068e-19)
(0.989227 0.0155069 8.20124e-22)
(1.0139 0.040287 -1.89111e-20)
(1.02186 0.0512035 -1.53779e-20)
(1.01999 0.0787097 0)
(1.02744 0.098858 1.94286e-20)
(1.01941 0.134637 2.77835e-20)
(0.995743 0.172295 3.75735e-20)
(0.948156 0.20514 8.1908e-20)
(0.862194 0.268942 -1.22555e-19)
(0.712092 0.33584 -1.90157e-19)
(0.989643 0.0136115 3.94683e-20)
(1.01232 0.0382647 -6.13473e-20)
(1.02119 0.0496938 1.81696e-22)
(1.01832 0.0773971 -1.94297e-20)
(1.02801 0.0996621 9.66465e-21)
(1.02145 0.139229 -1.40645e-20)
(1.00109 0.182498 -8.75136e-20)
(0.96088 0.225136 0)
(0.877879 0.306251 2.54466e-19)
(0.75139 0.405079 -2.6375e-19)
(0.989742 0.0119366 -2.89953e-20)
(1.01145 0.0363937 1.7015e-20)
(1.02079 0.0481318 4.11356e-20)
(1.01838 0.0763734 1.0215e-20)
(1.02892 0.0999811 -2.3224e-20)
(1.0261 0.144163 1.13945e-21)
(1.00673 0.191664 -6.03945e-20)
(0.978013 0.244883 -5.67976e-21)
(0.896159 0.341894 4.80616e-25)
(0.804692 0.471507 7.45452e-19)
(0.989561 0.0104015 -3.22128e-20)
(1.01118 0.0346425 2.45934e-21)
(1.02073 0.0463741 3.36252e-20)
(1.01989 0.0756977 2.16646e-20)
(1.03035 0.0996819 -1.161e-20)
(1.03306 0.149689 -1.6281e-20)
(1.01292 0.199517 8.72034e-20)
(0.99934 0.264899 -1.59046e-21)
(0.916883 0.374708 -2.79667e-19)
(0.871674 0.533723 9.39175e-20)
(0.989143 0.00896357 2.24831e-20)
(1.01139 0.0329543 -3.20081e-20)
(1.0212 0.044331 -2.68422e-20)
(1.02248 0.0753915 1.28257e-20)
(1.03264 0.098685 0)
(1.04177 0.155881 0)
(1.0204 0.20591 7.30185e-20)
(1.02357 0.285258 2.17551e-22)
(0.942301 0.404384 -1.27114e-19)
(0.948654 0.589997 9.43615e-20)
(0.988529 0.00758062 6.32917e-21)
(1.01197 0.0312381 2.59635e-20)
(1.02237 0.0419721 -7.24928e-20)
(1.02577 0.075411 -2.48455e-20)
(1.03616 0.0969877 -6.31003e-22)
(1.05174 0.162719 6.83058e-20)
(1.02944 0.210615 1.11868e-19)
(1.05113 0.306493 -8.66364e-22)
(0.969401 0.428801 2.1128e-19)
(1.04192 0.64606 -2.22481e-19)
(0.987746 0.00620924 -2.46827e-20)
(1.01283 0.0293726 1.38173e-20)
(1.0244 0.0393293 -1.96155e-20)
(1.0294 0.0756006 -5.29782e-20)
(1.04135 0.0947153 1.98071e-21)
(1.06223 0.169982 -1.63347e-21)
(1.04141 0.213847 -6.32011e-21)
(1.07899 0.327816 -2.31001e-19)
(1.00684 0.448977 1.54771e-19)
(1.12961 0.686207 -5.50925e-19)
(0.986801 0.00483619 -4.12002e-21)
(1.01397 0.0272258 -4.02678e-20)
(1.02736 0.03648 3.96459e-20)
(1.03316 0.0757486 2.82829e-20)
(1.04846 0.092068 1.02397e-21)
(1.07295 0.177283 -7.88889e-20)
(1.05619 0.215985 -6.14779e-20)
(1.1094 0.349384 4.11088e-19)
(1.04349 0.465787 1.55597e-20)
(1.24767 0.743377 8.62994e-19)
(0.985685 0.00344666 1.70656e-20)
(1.01541 0.0246782 1.84998e-20)
(1.0312 0.0335283 4.58608e-20)
(1.03704 0.0757224 -3.11537e-20)
(1.05755 0.0891526 -8.21912e-20)
(1.08343 0.184643 1.226e-21)
(1.07518 0.215235 -8.42718e-20)
(1.13946 0.368827 5.30908e-19)
(1.10072 0.465794 -9.41015e-21)
(1.3179 0.759423 -1.19823e-18)
(0.9844 0.00210844 4.34041e-22)
(1.01718 0.0216845 2.91415e-20)
(1.03577 0.030734 1.52706e-20)
(1.04124 0.0751709 -6.26743e-20)
(1.06754 0.0882079 -7.98511e-20)
(1.09325 0.191922 -6.62634e-20)
(1.09536 0.221861 -1.53637e-19)
(1.16568 0.390852 -4.76093e-19)
(1.15878 0.492325 -2.58423e-19)
(1.45845 0.827599 -1.257e-18)
(0.982771 -0.000140843 -1.34635e-21)
(1.01908 0.0170811 -6.50464e-21)
(1.04271 0.025043 -1.69986e-20)
(1.04677 0.0729288 3.45981e-20)
(1.08099 0.0787729 5.94389e-20)
(1.11197 0.195686 -4.3432e-20)
(1.11719 0.204714 1.45633e-19)
(1.21265 0.39945 -4.41309e-19)
(1.22401 0.430974 -1.95933e-19)
(1.47254 0.81747 6.65637e-19)
(0.981894 -0.00368751 2.33149e-21)
(1.02113 0.00994926 1.35515e-20)
(1.05295 0.0158705 -1.12447e-20)
(1.0512 0.0674947 6.4216e-20)
(1.10334 0.0612539 9.97381e-20)
(1.12609 0.192643 1.27589e-19)
(1.15526 0.176873 3.30143e-20)
(1.2424 0.383146 2.08891e-19)
(1.32283 0.380252 3.15188e-19)
(1.4944 0.715787 2.61027e-20)
(0.980837 -0.00759798 -1.74647e-21)
(1.02516 0.000898207 -4.13953e-21)
(1.06346 0.00691742 3.68017e-21)
(1.05742 0.0589258 4.68869e-21)
(1.13007 0.0443898 3.003e-34)
(1.13276 0.185875 -7.54914e-21)
(1.19901 0.147973 -5.41556e-34)
(1.26112 0.355576 1.99145e-20)
(1.39428 0.324009 -5.90802e-20)
(1.54289 0.622826 -5.85783e-20)
(0.978865 -0.0125961 1.43312e-20)
(1.03263 -0.0101154 -4.67273e-35)
(1.07182 -0.00245309 -4.20881e-21)
(1.07217 0.046334 -2.87309e-20)
(1.15132 0.0302621 -4.85346e-20)
(1.14332 0.174995 -4.15686e-20)
(1.23306 0.119356 -6.85769e-34)
(1.28436 0.322978 -8.13065e-20)
(1.4351 0.26704 -1.47303e-19)
(1.58592 0.530259 9.87632e-20)
(0.975895 -0.0192146 0)
(1.04379 -0.0224915 5.21899e-35)
(1.07846 -0.0135895 0)
(1.09819 0.0296035 0)
(1.16252 0.0190365 0)
(1.16565 0.157688 0)
(1.25393 0.0936794 -4.70083e-34)
(1.31418 0.28178 0)
(1.45589 0.21842 -2.11437e-20)
(1.60644 0.437981 5.84619e-20)
(0.972024 -0.0273107 3.07726e-21)
(1.05849 -0.0353425 4.91339e-21)
(1.08613 -0.0262321 -5.36147e-21)
(1.13083 0.013207 0)
(1.16669 0.012662 0)
(1.19538 0.135063 6.58302e-21)
(1.26951 0.0730076 4.2185e-20)
(1.34073 0.234969 -1.41809e-20)
(1.46867 0.177663 -3.08144e-20)
(1.61498 0.349878 2.27072e-19)
(0.968144 -0.0418377 -7.91022e-20)
(1.07798 -0.0546225 2.05065e-22)
(1.09549 -0.0459528 -6.02367e-21)
(1.15804 -0.00847207 -1.82173e-20)
(1.15885 0.00546302 -2.90805e-20)
(1.21779 0.104628 -1.01698e-20)
(1.27564 0.0555749 -3.43886e-20)
(1.35382 0.18596 -3.2185e-20)
(1.47348 0.140599 -5.46823e-20)
(1.62439 0.265169 6.52026e-20)
(0.966024 -0.048733 -6.41641e-21)
(1.09683 -0.0627149 -1.84091e-20)
(1.0858 -0.0535388 -6.68044e-21)
(1.14393 -0.0183784 -5.25043e-21)
(1.10322 0.00546743 -4.95847e-35)
(1.20273 0.0727375 6.86646e-21)
(1.22745 0.0419866 -9.14732e-34)
(1.33864 0.135904 -1.36767e-20)
(1.44009 0.102652 1.90067e-20)
(1.62739 0.181822 2.70817e-20)
(0.962365 -0.0901207 1.96124e-19)
(1.05567 -0.0921305 -4.73866e-21)
(0.969916 -0.0726246 -7.19471e-21)
(0.978769 -0.0292662 1.44491e-20)
(0.903297 -7.0524e-05 1.54394e-20)
(1.03773 0.0370703 1.4223e-20)
(1.01804 0.0286641 1.50689e-20)
(1.19529 0.0813179 -9.48807e-21)
(1.26508 0.0626106 -2.23354e-20)
(1.51143 0.10008 1.47963e-19)
(0.830497 -0.0458942 8.76881e-21)
(0.732582 -0.0343738 -9.48973e-35)
(0.534216 -0.0170168 -8.38874e-21)
(0.476017 -0.00214471 0)
(0.426552 0.00108373 0)
(0.510194 0.00910329 6.83921e-21)
(0.509144 0.00549173 -5.98553e-36)
(0.649574 0.0177128 -1.31736e-20)
(0.716011 0.00966694 -2.78559e-20)
(0.899148 0.0169608 5.8779e-20)
(1.68139 0.842562 -2.00554e-19)
(1.78326 0.822495 -2.94292e-19)
(1.90161 0.786645 0)
(2.01004 0.741612 1.60774e-19)
(2.11296 0.678737 6.85771e-19)
(2.20149 0.611972 -1.2389e-19)
(2.28442 0.530442 1.77768e-18)
(2.35558 0.451516 -8.65237e-20)
(2.41814 0.361705 -3.95493e-19)
(2.47119 0.279645 3.51104e-19)
(1.70718 0.69154 1.0355e-19)
(1.78476 0.673425 1.17546e-19)
(1.88209 0.638996 -1.44803e-20)
(1.96743 0.597869 2.2622e-19)
(2.06108 0.540609 -1.8568e-19)
(2.12654 0.487796 -4.33517e-19)
(2.21024 0.417901 -1.30952e-19)
(2.25556 0.362611 5.94902e-19)
(2.33431 0.285182 -2.31217e-20)
(2.35606 0.233277 -5.12761e-19)
(1.74255 0.57479 1.01091e-19)
(1.8105 0.551456 1.89929e-19)