/*--------------------------------*- C++ -*----------------------------------*\
  =========                 |
  \\      /  F ield         | OpenFOAM: The Open Source CFD Toolbox
   \\    /   O peration     | Website:  https://openfoam.org
    \\  /    A nd           | Version:  13
     \\/     M anipulation  |
\*---------------------------------------------------------------------------*/
FoamFile
{
    format      ascii;
    class       volScalarField;
    location    "32.1";
    object      p;
}
// * * * * * * * * * * * * * * * * * * * * * * * * * * * * * * * * * * * * * //

dimensions      [0 2 -2 0 0 0 0];

internalField   nonuniform List<scalar> 
440
(
-1.09897
-1.07761
-1.06865
-1.05439
-1.11477
-1.17004
-1.14503
-1.11845
-1.09183
-1.06731
-1.3053
-1.26265
-1.20786
-1.13773
-1.06459
-1.44478
-1.38753
-1.26848
-1.1314
-0.993792
-1.52572
-1.44294
-1.2597
-1.07264
-0.905127
-1.06733
-1.12303
-1.27534
-1.48398
-1.73282
-1.23165
-1.23977
-1.2714
-1.3233
-1.40086
-1.18118
-1.16304
-1.14865
-1.15075
-1.18363
-1.13209
-1.10993
-1.08905
-1.07946
-1.10305
-1.07394
-1.05332
-1.02607
-0.997281
-0.995899
-0.966335
-0.203425
0.113691
0.13097
-0.0208503
-1.19814
-0.251788
0.367397
0.110178
-0.00560657
-1.29578
-0.260727
0.639442
0.0907255
-0.0258446
-1.28215
-0.302046
0.770088
0.124813
-0.083025
-1.17484
-0.36919
0.492197
0.205328
-0.107208
-0.905497
-0.274814
0.242588
0.299865
-0.0784445
-0.454053
0.0920369
0.157006
0.320491
0.0239686
-0.278961
0.24862
0.415786
0.305818
0.0560244
-0.121714
0.207245
0.417507
0.301929
0.0368064
-0.0320642
0.156459
0.486476
0.399078
0.0662682
-0.623319
-0.740047
-0.909778
-1.0665
-1.25594
-0.351887
-0.468
-0.559741
-0.61432
-0.649341
-0.164675
-0.267473
-0.324553
-0.358741
-0.374807
-0.0506421
-0.140133
-0.190632
-0.212502
-0.211141
0.00387306
-0.0832017
-0.129669
-0.14328
-0.124198
0.808526
0.646035
0.438023
0.206288
-0.0458449
0.359713
0.187016
-0.022121
-0.261033
-0.536682
-0.0728621
-0.250502
-0.474863
-0.723169
-0.991182
-0.459835
-0.640556
-0.87278
-1.11853
-1.33027
-0.719766
-0.911548
-1.13116
-1.36018
-1.50274
1.96998
1.99686
2.01908
2.02621
2.01603
1.75826
1.77433
1.78348
1.77456
1.74348
1.53112
1.51267
1.46933
1.40179
1.30611
1.26639
1.22723
1.14969
1.03947
0.89824
1.04085
0.925262
0.776833
0.607651
0.40262
1.77111
1.76146
1.73828
1.80676
1.87091
1.75961
1.74911
1.71505
1.78114
1.76834
1.74923
1.73414
1.6897
1.74269
1.64037
1.74005
1.71742
1.66261
1.69063
1.45835
1.73214
1.69931
1.63438
1.63874
1.265
1.72581
1.67323
1.5995
1.52934
1.05164
1.7195
1.64287
1.5826
1.4106
1.18967
1.72761
1.62425
1.55832
1.36739
1.2172
1.71963
1.59548
1.54505
1.31087
1.23801
1.75689
1.59382
1.53681
1.28007
1.25773
0.769028
0.449097
0.0952364
-0.221585
-0.425745
0.654851
0.426995
0.18879
-0.0238844
-0.204764
0.642587
0.459198
0.27945
0.117441
-0.0426726
0.716537
0.535402
0.362846
0.209
0.0644954
0.748408
0.565293
0.399421
0.253389
0.116483
-0.783497
-0.677149
-0.5391
-0.427441
-0.360719
-0.847679
-0.793491
-0.690112
-0.607186
-0.558062
-0.784737
-0.74131
-0.683992
-0.636809
-0.607019
-0.659696
-0.626517
-0.590885
-0.563531
-0.543665
-0.569745
-0.551718
-0.532397
-0.519305
-0.534416
-0.52132
-0.51481
-0.501415
-0.497755
-0.473237
-0.514831
-0.513208
-0.509105
-0.510791
-0.505316
-0.510215
-0.525256
-0.563297
-0.616045
-0.65671
-0.412886
-0.416432
-0.435759
-0.466367
-0.467641
-0.3887
-0.474352
-0.665644
-0.894745
-1.02051
-0.57046
0.767466
0.203691
0.126395
-0.0198225
-0.480986
0.858291
0.125129
0.124897
-0.0390676
-0.338576
0.938567
0.0575174
0.129861
-0.0457881
-0.24954
0.714104
0.0385816
0.139235
-0.0422087
-0.557578
0.145315
0.00217997
0.138361
-0.0294722
-0.12802
0.536124
0.18797
0.127381
0.0187651
-0.458091
0.597455
0.247692
0.141916
0.0072793
-0.321416
-0.54497
-0.562283
-0.553321
-0.339347
-0.33818
-0.540958
-0.587065
-0.542814
-0.553867
1.76202
1.74838
1.72009
1.67856
1.6235
1.91852
1.94121
1.95154
1.94801
1.93112
2.04556
2.07956
2.10767
2.1252
2.12943
2.10755
2.14568
2.18575
2.21837
2.23385
2.08046
2.11457
2.15167
2.18162
2.19426
0.0139734
-0.0716936
-0.205174
-0.369237
-0.541066
0.511846
0.400763
0.251638
0.073988
-0.135641
0.956977
0.840651
0.702135
0.540604
0.349534
1.30933
1.22115
1.11368
0.984662
0.833838
1.58986
1.53104
1.45433
1.36269
1.25679
1.83978
1.79879
1.79319
1.8174
1.85493
1.82355
1.79421
1.78923
1.82728
1.89792
1.80939
1.7883
1.78354
1.83839
1.95143
1.79593
1.7811
1.77286
1.83785
1.95035
1.78312
1.77242
1.75726
1.82765
1.92707
1.89793
1.80847
1.78767
1.75519
1.74223
1.85124
1.79769
1.78076
1.77128
1.75799
1.4938
1.32079
1.00836
0.547297
0.0396947
1.55868
1.34446
1.02117
0.564771
0.0468576
)
;

boundaryField
{
    left
    {
        type            zeroGradient;
    }
    right
    {
        type            fixedValue;
        value           uniform 0;
    }
    down
    {
        type            zeroGradient;
    }
    up
    {
        type            zeroGradient;
    }
    cylinder
    {
        type            zeroGradient;
    }
    defaultFaces
    {
        type            empty;
    }
}


// ************************************************************************* //
