# Selection   : all
# Cells       : 440
# Volume      : 7.374263e+01
# Time        	max(p)
5.515         	2.344320e+00
5.56          	2.346300e+00
5.61          	2.367272e+00
