/*--------------------------------*- C++ -*----------------------------------*\
  =========                 |
  \\      /  F ield         | OpenFOAM: The Open Source CFD Toolbox
   \\    /   O peration     | Website:  https://openfoam.org
    \\  /    A nd           | Version:  13
     \\/     M anipulation  |
\*---------------------------------------------------------------------------*/
FoamFile
{
    format      ascii;
    class       surfaceScalarField;
    location    "2.94";
    object      phi;
}
// * * * * * * * * * * * * * * * * * * * * * * * * * * * * * * * * * * * * * //

dimensions      [0 3 -1 0 0 0 0];

internalField   nonuniform List<scalar> 
823
(
-0.000124603
0.0166832
-0.0165586
0.0257457
0.0139844
-0.0398547
0.0966204
-0.0264554
-0.0444193
0.207269
-0.0876927
-0.0229556
-0.130465
-0.0164178
0.354151
0.00310135
0.0135819
0.0529791
-0.0358933
0.155199
-0.128675
0.280869
-0.213363
-0.288443
0.438848
0.0234681
-0.00988627
0.114878
-0.127303
0.234625
-0.248422
0.349887
-0.328626
-0.375341
0.436785
0.0467296
-0.0566159
0.14977
-0.230344
0.239201
-0.337853
0.294498
-0.383923
-0.397282
0.31644
0.0619276
-0.118544
0.138799
-0.307216
0.183602
-0.382655
0.202356
-0.402678
0.214483
-0.409409
-0.0216771
0.0680823
-0.0464052
-0.0589548
0.103408
-0.0661303
-0.0999498
0.105444
-0.0644493
-0.140546
0.0995241
-0.0589278
0.0902346
-0.178575
-0.0522056
-0.00193779
0.0700201
-0.0177472
0.119217
-0.0385686
0.126266
-0.0575152
0.118471
0.104438
-0.0717186
0.0192125
0.0508076
0.0354685
0.102961
0.0455064
0.116228
0.0553879
0.108589
0.0926013
0.0672246
0.0247429
0.0260647
0.0610729
0.0666314
0.0941774
0.0831233
0.12344
0.0793265
0.0684581
0.147583
0.00950605
0.0362827
0.0749867
0.131358
0.183398
-0.103078
0.0161984
-0.0916957
0.12592
-0.689459
0.460461
0.272127
-0.588185
0.441978
0.359507
-0.400714
0.313334
-0.181092
0.149186
0.0518226
-0.107343
0.208416
-0.846052
0.312461
-0.69223
0.377617
-0.465871
-0.206261
0.246086
-0.286205
0.339123
-0.939089
0.383593
-0.736699
0.409013
-0.491291
-0.218626
0.371641
-0.510262
0.436012
-1.00346
0.454687
-0.755374
0.447501
-0.484106
-0.217166
0.402459
-0.729323
0.470697
-1.0717
0.491203
-0.775879
0.476134
-0.469038
-0.210593
1.25213
-0.771949
-1.2095
1.1245
-0.944068
0.956448
-0.607828
0.813538
-0.326128
-0.140039
1.30634
-0.624087
-1.4542
1.0509
-0.688632
0.845949
-0.402876
0.734275
-0.214454
-0.0964673
1.28674
-0.496338
-1.41449
1.09147
-0.493361
0.905547
-0.216955
0.768052
-0.0769587
-0.034497
1.16201
-0.305865
-1.35248
0.915771
-0.247121
0.756899
-0.0580834
0.667348
0.0125921
0.00520798
0.633007
-0.938872
0.385886
0.327803
0.340395
1.13778
0.178282
-1.10157
1.21949
0.234725
1.30993
0.34634
1.33042
0.418359
0.475071
1.04574
0.117769
-0.985223
1.12497
0.155487
1.22683
0.244484
1.34482
0.300369
0.365692
0.989737
0.0634899
-0.935457
1.05121
0.0940152
1.1478
0.147895
1.27012
0.178044
0.221326
0.943295
0.0187893
-0.898594
1.00337
0.033943
1.09729
0.0539741
1.21157
0.0637671
0.0804076
0.70678
-0.68799
0.740723
0.794697
0.858464
0.139272
0.313595
-0.259318
-0.193549
0.0924172
0.319346
-0.272492
0.0511466
0.329837
-0.288566
0.0170077
0.321516
-0.287377
0.208555
-0.191547
0.10041
0.351224
-0.13804
0.0633631
0.356394
0.0302981
0.362902
0.00502955
0.346785
0.213584
0.0595678
0.385197
-0.0935415
0.0286411
0.38732
0.00278346
0.38876
-0.00926858
0.358837
0.204316
-0.0235818
0.39974
0.0090394
-0.0384578
0.402196
-0.0442119
0.394514
-0.0323055
0.34693
0.17201
-0.104558
0.0948895
-0.10504
-0.0931811
-0.0534665
0.197964
0.110315
-0.249071
-0.0592082
0.145151
0.115388
-0.0625748
0.0905466
0.121407
-0.0668025
0.036977
0.122786
-0.0692164
0.0874176
-0.0504406
0.184194
0.153244
-0.227122
0.139199
0.160383
0.0892797
0.171326
0.0372294
0.174836
0.124647
0.149838
0.198868
-0.195462
0.107004
0.203216
0.0652892
0.213041
0.0250297
0.215096
0.149677
0.153336
0.233645
-0.188113
0.112913
0.243639
0.0687394
0.257215
0.026523
0.257312
0.1762
0.105616
-0.131288
0.0767639
0.0454122
0.0153473
0.410649
0.0302615
-0.0449313
0.421367
0.0644304
-0.075148
0.414944
0.195322
-0.188899
0.381554
0.278907
-0.245517
0.499086
-0.366603
0.408585
0.0176559
0.414752
0.0582632
0.405464
0.204611
0.371723
0.312647
0.643686
0.402723
0.0109128
0.409194
0.0517921
0.381381
0.232423
0.364351
0.329678
0.812575
0.397631
0.00926109
0.393628
0.0557956
0.364717
0.261334
0.337591
0.356803
0.962053
0.388817
0.0164239
0.380493
0.0641195
0.332647
0.309181
0.315494
0.373956
1.14626
0.620196
0.000248605
0.645776
0.0385388
0.66785
0.287107
0.742852
0.298954
0.857372
1.03174
0.626586
-0.0223167
0.645103
0.0200219
0.707239
0.224971
0.78344
0.222753
0.606645
1.03417
0.626672
-0.0449685
0.649901
-0.00320723
0.735815
0.139058
0.824653
0.133915
0.390674
1.04062
0.617637
-0.0585851
0.646535
-0.0321057
0.740738
0.044855
0.82126
0.0533925
0.191435
1.0205
0.545435
0.51333
0.558185
0.611577
0.803012
1.05785
-0.219663
1.04929
-0.129473
1.0547
-0.0989577
1.05407
0.00967208
0.0473842
0.986817
-0.172313
0.971358
-0.114013
0.948486
-0.0760861
0.963738
-0.0055791
0.0258987
0.973682
-0.105371
0.941576
-0.0819068
0.915285
-0.0497951
0.92411
-0.0144041
0.0145512
0.957828
-0.0427005
0.913248
-0.0373265
0.887318
-0.0238658
0.885882
-0.0129678
0.00183896
0.760312
0.722985
0.699119
0.686152
0.0470262
0.137393
-0.184419
0.0721216
0.305032
-0.330128
0.0735223
0.359661
-0.361062
0.0632443
0.364417
-0.354139
0.333818
0.0511362
-0.321709
0.0672799
0.0701129
0.139285
0.233027
0.175465
0.323481
0.181185
0.358697
0.356056
0.158946
0.0554817
0.0146311
0.166002
0.122506
0.261199
0.228284
0.33186
0.288037
0.342148
0.345769
0.0258245
-0.0111933
0.118188
0.0301427
0.237735
0.108737
0.355213
0.170559
0.229826
0.467535
0.00419449
-0.0153878
0.0470769
-0.0127397
0.138993
0.0168211
0.253272
0.0562793
0.0875446
0.395554
-0.00333904
-0.0120488
0.00763184
-0.0237105
0.0463421
-0.0218892
0.111226
-0.00860468
0.0112424
0.187528
0.00408712
-0.0161359
0.0123866
-0.03201
0.0259554
-0.035458
0.0489317
-0.0315809
-0.022935
0.083109
-0.00951708
-0.00661883
-0.0254567
-0.0160704
-0.0410182
-0.0198966
-0.0521297
-0.0204694
-0.0190783
-0.0559864
-0.025608
0.0189892
-0.0648519
0.0231735
-0.103949
0.0192002
-0.139409
0.0149907
0.011646
-0.170133
-0.027416
-0.0703728
-0.115622
-0.159559
-0.200119
0.375659
0.384662
-0.572793
0.429536
0.12419
-0.178067
0.394547
0.0436863
-0.0086972
0.386156
0.0374335
-0.0290425
0.00738011
-0.0243111
0.225603
0.242168
0.235263
0.11453
0.275978
0.00297149
0.343022
-0.02961
-0.0330625
-0.00235568
0.188537
0.106483
0.00569135
0.241213
-0.131758
0.335818
-0.124215
-0.0758287
-0.12497
0.143375
0.091905
-0.211184
0.246222
-0.286075
0.342039
-0.220032
-0.114327
-0.14844
0.100838
0.256741
0.350043
0.237979
0.391681
-0.62966
0.122461
0.115518
0.17782
-0.0553586
0.24178
-0.0639608
-0.0246101
0.82737
-1.00848
0.764821
0.700765
0.607762
0.0832734
-0.0147183
-0.0685551
0.133993
-0.05072
0.248214
-0.11422
0.41866
-0.170447
-0.211
0.187065
-0.150647
0.295292
0.52684
0.823928
0.137572
-0.124139
0.155757
-0.169189
0.103507
-0.128597
0.162661
0.0659714
-0.134921
0.172457
0.0266267
-0.134203
0.173547
-0.0931663
0.119793
0.171093
-0.0861113
-0.209121
0.129187
-0.0866909
0.0821261
-0.0878603
0.0338054
-0.085882
-0.0593609
0.180817
-0.0388969
-0.228031
0.131964
-0.0378383
0.0816554
-0.0375518
0.032942
-0.0371686
-0.0264189
0.193802
0.0101179
-0.242816
0.143594
0.0123691
0.0913195
0.0147228
0.0381077
0.0160432
0.0116888
0.19421
-0.243301
0.144005
0.0919249
0.0387518
0.0368656
-0.302307
-0.0562682
0.0141386
-0.331412
-0.00719635
-0.339727
-0.0154586
-0.321865
-0.199878
0.11819
-0.27263
-0.147867
0.0763658
-0.289588
0.0366895
-0.30005
0.00708808
-0.292264
-0.192789
0.136123
-0.234404
-0.17435
0.0963769
-0.249842
0.0564183
-0.260092
0.0199131
-0.255759
-0.172876
0.155778
-0.200719
-0.189463
0.113918
-0.207981
0.0691119
-0.215286
0.0270128
-0.21366
-0.145864
0.154332
-0.199295
0.109012
0.066183
0.0260704
0.393723
0.081681
-0.0794249
0.390139
0.128756
-0.125172
0.34126
0.140675
-0.091795
0.289407
0.0531966
-0.0013442
-0.14386
0.264078
0.399462
0.0781988
0.409013
0.119205
0.383373
0.166314
0.327957
0.108612
-0.0250234
0.403096
0.0710825
0.419254
0.103047
0.403736
0.181832
0.351952
0.160396
0.0988975
0.407553
0.0595091
0.422921
0.0876792
0.41758
0.187173
0.372593
0.205383
0.228674
0.410557
0.423089
0.421363
0.38123
0.423913
0.0861375
0.324696
0.0992179
0.264001
0.0606945
0.272469
-0.00846812
-0.143159
0.415628
0.516764
0.49081
0.459709
0.449897
0.570816
0.330811
0.0848169
0.254949
0.0758628
0.167848
0.0871009
0.0963233
0.0715245
0.0277681
0.456338
0.342738
0.255489
0.179147
)
;

boundaryField
{
    left
    {
        type            calculated;
        value           nonuniform List<scalar> 
17
(
-0.60402
-0.60402
-0.60402
-0.60402
-0.60402
-0.39598
-0.39598
-0.39598
-0.39598
-0.39598
-0.39598
-0.39598
-0.39598
-0.39598
-0.39598
-0.510051
-0.510051
)
;
    }
    right
    {
        type            calculated;
        value           nonuniform List<scalar> 
17
(
0.26639
0.558841
0.403087
0.383464
0.378584
0.380537
0.384902
0.391412
0.402787
0.421378
0.446041
0.469561
0.742983
0.690703
0.706082
0.627643
0.345603
)
;
    }
    down
    {
        type            calculated;
        value           uniform 0;
    }
    up
    {
        type            calculated;
        value           uniform 0;
    }
    cylinder
    {
        type            calculated;
        value           uniform 0;
    }
    defaultFaces
    {
        type            empty;
    }
}


// ************************************************************************* //
