/*--------------------------------*- C++ -*----------------------------------*\
  =========                 |
  \\      /  F ield         | OpenFOAM: The Open Source CFD Toolbox
   \\    /   O peration     | Website:  https://openfoam.org
    \\  /    A nd           | Version:  13
     \\/     M anipulation  |
\*---------------------------------------------------------------------------*/
FoamFile
{
    format      ascii;
    class       volScalarField;
    location    "0.1825";
    object      p;
}
// * * * * * * * * * * * * * * * * * * * * * * * * * * * * * * * * * * * * * //

dimensions      [0 2 -2 0 0 0 0];

internalField   nonuniform List<scalar> 
1800
(
-0.952593
-0.910834
-0.826319
-0.725098
-0.627853
-0.541313
-0.466012
-0.400208
-0.34218
-0.294563
-1.12886
-1.08268
-0.987204
-0.8731
-0.763607
-0.665972
-0.580844
-0.506658
-0.442446
-0.389923
-1.29557
-1.24469
-1.13813
-1.01142
-0.890075
-0.781633
-0.686728
-0.603709
-0.531317
-0.47019
-1.44761
-1.39189
-1.2745
-1.13603
-1.00393
-0.885866
-0.782403
-0.69175
-0.612527
-0.545061
-1.57942
-1.51878
-1.39101
-1.24182
-1.10008
-0.973431
-0.862273
-0.764692
-0.679208
-0.605617
-1.68584
-1.62036
-1.483
-1.32445
-1.17456
-1.0407
-0.92311
-0.819754
-0.729026
-0.650332
-1.76195
-1.69186
-1.54596
-1.37968
-1.22326
-1.08369
-0.961009
-0.853071
-0.758162
-0.675356
-1.80356
-1.72923
-1.57617
-1.40404
-1.24291
-1.09926
-0.972955
-0.861747
-0.763816
-0.677955
-1.80739
-1.72931
-1.57087
-1.39488
-1.23095
-1.08492
-0.956478
-0.843346
-0.743604
-0.655787
-1.77139
-1.69037
-1.52843
-1.35062
-1.18583
-1.03913
-0.910005
-0.796213
-0.695767
-0.607061
0.35153
0.369927
0.386445
0.399989
0.409103
0.413859
0.415101
0.413684
0.410276
0.40546
0.310949
0.330039
0.348729
0.365277
0.377569
0.385307
0.389259
0.390296
0.389114
0.386438
0.244113
0.264273
0.286308
0.30745
0.324573
0.336837
0.344892
0.349639
0.351819
0.352399
0.152385
0.173975
0.200493
0.227736
0.251211
0.269412
0.282831
0.292408
0.298951
0.303759
0.0376372
0.0610088
0.0930988
0.127833
0.159021
0.184403
0.20428
0.219638
0.23137
0.241191
-0.0976493
-0.0721521
-0.0334687
0.010007
0.0500917
0.0837108
0.110958
0.132866
0.150427
0.165838
-0.250323
-0.222357
-0.17615
-0.122853
-0.0728916
-0.0301749
0.00517761
0.0342403
0.0581125
0.0794975
-0.41655
-0.385765
-0.33121
-0.267204
-0.206611
-0.154158
-0.110166
-0.0735293
-0.042997
-0.0154399
-0.59195
-0.557947
-0.494228
-0.418677
-0.346741
-0.283944
-0.230812
-0.186217
-0.14863
-0.114869
-0.772052
-0.734376
-0.660593
-0.572502
-0.4882
-0.41392
-0.350348
-0.296264
-0.249895
-0.209433
0.360447
0.280496
0.224903
0.181153
0.145602
0.115383
0.0880195
0.0621755
0.0370703
0.0123056
0.354997
0.279225
0.22522
0.18181
0.146131
0.115701
0.0881823
0.062245
0.0370908
0.0123013
0.342966
0.275306
0.224346
0.182036
0.14658
0.116065
0.088427
0.0623916
0.0371634
0.0123146
0.323597
0.26887
0.22233
0.181831
0.146936
0.116465
0.0887456
0.0626095
0.0372845
0.0123449
0.295881
0.260021
0.219244
0.1812
0.147185
0.11689
0.0891295
0.0628924
0.0374507
0.0123915
0.258794
0.248744
0.215158
0.18015
0.147312
0.117326
0.0895696
0.0632338
0.0376583
0.0124538
0.211673
0.234831
0.210124
0.178689
0.147302
0.117761
0.0900559
0.0636265
0.0379035
0.0125315
0.154246
0.21746
0.204099
0.176816
0.147141
0.118181
0.0905785
0.0640632
0.0381821
0.0126239
0.0864129
0.195383
0.196639
0.174379
0.146764
0.118556
0.0911231
0.064536
0.0384906
0.0127313
0.0132662
0.169742
0.188073
0.171513
0.146218
0.118897
0.0916915
0.0650433
0.0388274
0.0128571
-0.0239076
0.148943
0.179677
0.16724
0.14413
0.11796
0.0913012
0.0648908
0.0388006
0.0129125
-0.0362409
0.123815
0.162571
0.156739
0.137892
0.114275
0.0891097
0.0636001
0.0381286
0.0127209
-0.0320601
0.109221
0.149639
0.1477
0.132044
0.110636
0.0868837
0.0622698
0.0374256
0.0125139
-0.023734
0.09804
0.138065
0.139241
0.12637
0.107008
0.0846243
0.0609063
0.0366972
0.0122946
-0.0123745
0.0903022
0.128229
0.131556
0.121007
0.103483
0.0823909
0.059544
0.0359617
0.0120691
-0.000857215
0.0846404
0.119809
0.124633
0.11603
0.10014
0.0802394
0.0582177
0.0352377
0.0118427
0.00871418
0.0800756
0.112529
0.118453
0.111496
0.0970442
0.0782211
0.0569605
0.034542
0.0116203
0.0150025
0.0757089
0.106052
0.112949
0.107431
0.0942427
0.0763764
0.0557999
0.0338885
0.0114063
0.0176389
0.0706013
0.0996161
0.107641
0.103535
0.0915468
0.0745833
0.0546555
0.033217
0.0111672
0.0142352
0.0669213
0.0958161
0.104652
0.101369
0.0900484
0.073586
0.0540204
0.0328486
0.0110401
-0.457946
-0.505468
-0.53106
-0.535703
-0.521224
-0.49012
-0.445108
-0.388595
-0.324858
-0.256004
-0.297012
-0.344897
-0.37504
-0.388421
-0.386076
-0.370689
-0.343211
-0.308427
-0.266918
-0.224271
-0.173434
-0.219823
-0.251831
-0.270164
-0.275342
-0.270048
-0.254005
-0.232553
-0.203694
-0.174093
-0.0779074
-0.123469
-0.156576
-0.177859
-0.187734
-0.188535
-0.179868
-0.166531
-0.146538
-0.126045
-0.00520725
-0.0498129
-0.083466
-0.106623
-0.119692
-0.124535
-0.121121
-0.113299
-0.0997208
-0.0854609
0.0501912
0.00617817
-0.0279238
-0.0524266
-0.0677786
-0.0754245
-0.0757282
-0.0716496
-0.062449
-0.0523607
0.0913607
0.0475956
0.0130258
-0.0125552
-0.0296172
-0.0392745
-0.0421736
-0.040632
-0.0344466
-0.0272605
0.120516
0.0765479
0.0413027
0.0146783
-0.00380325
-0.0150051
-0.0197235
-0.0197945
-0.0154732
-0.0101018
0.137324
0.093245
0.0569984
0.0290096
0.00903099
-0.00357434
-0.00959891
-0.0104335
-0.00665185
-0.000565822
0.149129
0.101336
0.0618278
0.030387
0.0066941
-0.00959052
-0.0192553
-0.0227196
-0.0209322
-0.0139879
0.976284
0.927437
0.871138
0.810912
0.745411
0.67194
0.588472
0.496057
0.406872
0.352282
0.780685
0.726107
0.665432
0.598728
0.524046
0.439232
0.342721
0.235999
0.133188
0.0705567
0.56659
0.508447
0.444143
0.371959
0.289906
0.196046
0.0888248
-0.0301472
-0.145056
-0.214743
0.362042
0.298986
0.228642
0.149087
0.0585438
-0.044959
-0.163106
-0.294249
-0.42094
-0.496916
0.172522
0.103269
0.0257824
-0.0618451
-0.161362
-0.274867
-0.40412
-0.54742
-0.685561
-0.766809
-0.00337511
-0.0786015
-0.162843
-0.258013
-0.365904
-0.488716
-0.628196
-0.782659
-0.931583
-1.01603
-0.164916
-0.245084
-0.335058
-0.4367
-0.551822
-0.682664
-0.830733
-0.993966
-1.15441
-1.23634
-0.308907
-0.392922
-0.4875
-0.594399
-0.715452
-0.852952
-1.00835
-1.17867
-1.3436
-1.42464
-0.431681
-0.518619
-0.616703
-0.727514
-0.852995
-0.99545
-1.15608
-1.33187
-1.49585
-1.57888
-0.531157
-0.619835
-0.720009
-0.833188
-0.961443
-1.10707
-1.27088
-1.44855
-1.61216
-1.69502
2.16797
2.18506
2.2058
2.22809
2.24988
2.27028
2.28866
2.30441
2.31789
2.32841
2.11527
2.13052
2.14893
2.16852
2.18735
2.20449
2.21927
2.23115
2.24095
2.24889
2.04237
2.05495
2.06992
2.08553
2.09996
2.11226
2.12169
2.12781
2.13216
2.13634
1.95002
1.95916
1.96965
1.98006
1.98877
1.99478
1.99722
1.99578
1.99299
1.99243
1.83926
1.84427
1.84938
1.85352
1.85531
1.85371
1.8477
1.83709
1.82541
1.8194
1.71136
1.71176
1.71077
1.70773
1.70157
1.69117
1.6754
1.65421
1.63223
1.61959
1.5683
1.56397
1.55647
1.54556
1.53054
1.51026
1.48351
1.45044
1.41689
1.39673
1.41412
1.40475
1.38998
1.37018
1.3452
1.31391
1.27499
1.22882
1.18264
1.15433
1.25639
1.24169
1.2184
1.18809
1.15153
1.10768
1.0551
0.994438
0.934517
0.897546
1.10616
1.07872
1.04161
0.997989
0.948409
0.891077
0.824127
0.748367
0.67427
0.628519
2.17976
1.73671
2.11425
1.92359
1.90919
1.91123
1.91989
1.94395
2.00016
2.10314
2.17287
1.72997
2.10853
1.91653
1.90137
1.90189
1.90805
1.92842
1.97726
2.06743
2.16673
1.72285
2.10349
1.90872
1.89281
1.89149
1.89436
1.90992
1.94792
2.01967
2.16127
1.7154
2.09916
1.90019
1.88356
1.88007
1.87887
1.88833
1.91201
1.95981
2.15644
1.70774
2.09553
1.8909
1.87367
1.86764
1.86161
1.8635
1.8692
1.88815
2.15222
1.69999
2.09257
1.88084
1.8632
1.85426
1.8426
1.83527
1.82004
1.80409
2.14857
1.69229
2.09023
1.86997
1.85224
1.83993
1.82186
1.80363
1.76582
1.70593
2.14547
1.6848
2.08843
1.85829
1.84086
1.82469
1.79936
1.7687
1.70727
1.59379
2.14292
1.67769
2.08705
1.84578
1.82918
1.80856
1.77521
1.73054
1.6437
1.46554
2.14091
1.67122
2.08598
1.83247
1.81729
1.79165
1.74983
1.69062
1.57798
1.33335
2.13906
1.66436
2.08177
1.82099
1.80219
1.76957
1.71591
1.63797
1.49808
1.19472
2.13994
1.65822
2.07493
1.81311
1.78605
1.74632
1.68159
1.58826
1.42843
1.12876
2.14247
1.65379
2.0689
1.80577
1.77138
1.72496
1.65075
1.54556
1.37213
1.08431
2.14707
1.65108
2.06385
1.79918
1.75837
1.70591
1.62381
1.50958
1.32757
1.05422
2.15425
1.65007
2.05989
1.7935
1.74719
1.68948
1.60103
1.48003
1.29353
1.03381
2.16469
1.6507
2.05701
1.78889
1.73797
1.67586
1.5825
1.45659
1.26858
1.0205
2.17895
1.6528
2.05511
1.78541
1.73078
1.66516
1.56816
1.43889
1.25127
1.01269
2.19902
1.65633
2.05394
1.78309
1.72569
1.65743
1.55796
1.42661
1.24037
1.00954
2.21759
1.66036
2.0523
1.78206
1.72286
1.65282
1.55203
1.41978
1.23548
1.01203
2.27026
1.6687
2.05453
1.78028
1.72184
1.65036
1.54885
1.41605
1.23317
1.01293
0.945678
0.778505
0.588484
0.407341
0.241064
0.0863959
-0.0570445
-0.186267
-0.297584
-0.388611
0.869561
0.741364
0.594748
0.448653
0.311316
0.182029
0.0605997
-0.0503991
-0.148445
-0.231362
0.831738
0.727629
0.609914
0.486633
0.367604
0.254876
0.148468
0.0501253
-0.0376961
-0.112714
0.813785
0.722944
0.623301
0.517164
0.412568
0.312663
0.217784
0.129302
0.049383
-0.0200839
0.808042
0.725598
0.637808
0.543888
0.44964
0.358657
0.271801
0.190225
0.115775
0.050176
0.808933
0.732108
0.65204
0.566461
0.479547
0.394922
0.313765
0.237123
0.166623
0.103886
0.813162
0.740239
0.665329
0.585355
0.503473
0.423231
0.345977
0.272706
0.204896
0.144041
0.819157
0.748884
0.677379
0.600944
0.522206
0.444705
0.369862
0.298645
0.232459
0.172727
0.829051
0.760626
0.690833
0.61574
0.538082
0.461421
0.387169
0.316274
0.250091
0.190053
0.842716
0.778325
0.710009
0.635003
0.557324
0.480332
0.405286
0.333259
0.265676
0.203914
-2.99751
-2.88255
-2.66768
-2.44674
-2.25315
-2.0913
-1.95847
-1.8509
-1.76593
-1.70215
-3.06643
-2.95936
-2.74986
-2.52937
-2.33389
-2.16999
-2.03557
-1.92672
-1.84091
-1.77775
-3.01932
-2.92122
-2.72104
-2.5032
-2.30728
-2.14213
-2.00643
-1.89618
-1.80852
-1.74275
-2.86807
-2.77912
-2.59177
-2.38
-2.18611
-2.02128
-1.88517
-1.77398
-1.68458
-1.61535
-2.63337
-2.55352
-2.38163
-2.17998
-1.99176
-1.83008
-1.69562
-1.58497
-1.49496
-1.42389
-2.34093
-2.26998
-2.11543
-1.92818
-1.75021
-1.59566
-1.46612
-1.35865
-1.27016
-1.20004
-2.01742
-1.95495
-1.81887
-1.64998
-1.48704
-1.34418
-1.22358
-1.12287
-1.03898
-0.97291
-1.68637
-1.6317
-1.51425
-1.3664
-1.22223
-1.09488
-0.986753
-0.895984
-0.819899
-0.760423
-1.36566
-1.31798
-1.21846
-1.09267
-0.969362
-0.860097
-0.767131
-0.688978
-0.623299
-0.574378
-1.06625
-1.02464
-0.941536
-0.836998
-0.73446
-0.64355
-0.56604
-0.500397
-0.443547
-0.399452
-0.793867
-0.757449
-0.688971
-0.604081
-0.52144
-0.448956
-0.388198
-0.338215
-0.296746
-0.260738
-0.550369
-0.518314
-0.462356
-0.394498
-0.329201
-0.272651
-0.225882
-0.187909
-0.157173
-0.129092
-0.335713
-0.30725
-0.261714
-0.208072
-0.157235
-0.113854
-0.0784492
-0.049999
-0.0273348
-0.00648408
-0.14972
-0.124209
-0.0873194
-0.045528
-0.00684704
0.0253754
0.0510349
0.0711401
0.0866993
0.100756
0.0076233
0.0307245
0.0605488
0.0926121
0.121226
0.144143
0.161602
0.17458
0.183986
0.192043
0.136294
0.157485
0.181737
0.206096
0.22667
0.242123
0.252956
0.260105
0.264394
0.267407
0.236278
0.256029
0.276128
0.294714
0.309211
0.319
0.324766
0.327411
0.327686
0.326711
0.307604
0.326369
0.343666
0.358336
0.368676
0.37458
0.376849
0.376357
0.373805
0.369994
0.350396
0.368614
0.384406
0.396961
0.405041
0.408827
0.409182
0.406963
0.40284
0.397425
0.364894
0.382996
0.39854
0.410735
0.418422
0.421839
0.421862
0.419342
0.414939
0.409195
-0.0208542
0.131481
0.155799
0.151497
0.136864
0.116154
0.0922638
0.0667639
0.0403394
0.0134668
0.0708435
0.165636
0.169608
0.1572
0.138236
0.11575
0.0913035
0.0658201
0.0396934
0.0132488
0.146988
0.19252
0.180348
0.161129
0.139271
0.11538
0.09046
0.0649893
0.0391236
0.0130552
0.207362
0.213934
0.1897
0.165019
0.140266
0.115095
0.089743
0.0642719
0.0386283
0.0128856
0.255262
0.231543
0.198003
0.16851
0.14119
0.114893
0.0891511
0.0636658
0.0382056
0.0127391
0.292415
0.246272
0.205279
0.171609
0.142056
0.114776
0.0886819
0.0631681
0.0378534
0.012615
0.32024
0.258385
0.21151
0.174325
0.14287
0.114744
0.0883317
0.0627754
0.0375696
0.0125125
0.340101
0.267921
0.216642
0.176647
0.143634
0.114794
0.088096
0.0624841
0.0373519
0.0124309
0.353067
0.274831
0.220608
0.178565
0.144346
0.114922
0.0879695
0.06229
0.0371979
0.0123697
0.359764
0.279037
0.223367
0.18007
0.145004
0.11512
0.0879462
0.0621888
0.037105
0.0123282
-0.217166
0.0168914
0.100265
0.12545
0.125767
0.112239
0.0915073
0.0671508
0.0409224
0.0137623
-0.178122
0.0345053
0.107651
0.128509
0.126866
0.112592
0.0915476
0.0670892
0.0408472
0.0137263
-0.150301
0.0528282
0.117059
0.132917
0.128762
0.113274
0.0916944
0.0670362
0.0407479
0.013673
-0.118026
0.0750259
0.128627
0.138532
0.131213
0.114306
0.0920269
0.0670827
0.0407058
0.0136421
-0.0776832
0.103152
0.14321
0.145783
0.134633
0.11566
0.0925198
0.0672127
0.0407088
0.0136284
-1.6341
-1.71056
-1.69457
-1.5985
-1.44274
-1.25699
-1.05469
-0.869362
-0.69225
-0.538338
-1.63475
-1.71162
-1.69098
-1.58792
-1.42462
-1.23062
-1.02007
-0.825772
-0.640722
-0.482259
-1.63918
-1.71523
-1.68924
-1.5778
-1.40496
-1.19979
-0.982106
-0.780969
-0.601254
-0.45971
-1.6501
-1.72584
-1.69461
-1.57407
-1.39092
-1.17548
-0.953988
-0.750288
-0.575252
-0.434362
-1.66829
-1.74433
-1.70825
-1.57926
-1.38683
-1.16344
-0.938463
-0.730635
-0.550901
-0.39424
1.57823
1.55755
1.52848
1.49421
1.45552
1.41069
1.35776
1.29711
1.23761
1.20007
1.71203
1.70567
1.69216
1.67313
1.64941
1.62007
1.5837
1.5406
1.49788
1.47163
1.83969
1.83884
1.83432
1.82658
1.8153
1.79941
1.77767
1.75012
1.72228
1.70589
1.95246
1.95678
1.9597
1.96094
1.95961
1.95461
1.94485
1.9302
1.91482
1.90653
2.04585
2.05452
2.06351
2.07204
2.07881
2.08274
2.08287
2.07891
2.07385
2.07202
2.11852
2.13095
2.14502
2.15949
2.17277
2.18384
2.19187
2.19647
2.19951
2.20289
2.1703
2.18559
2.20353
2.2225
2.24069
2.25715
2.27114
2.28215
2.29121
2.29872
2.20121
2.21839
2.23892
2.2609
2.28239
2.30246
2.32045
2.33576
2.34887
2.35918
2.21118
2.22924
2.25106
2.27458
2.29775
2.31966
2.33969
2.35721
2.3724
2.38415
2.19996
2.21804
2.23995
2.26356
2.28682
2.30883
2.32898
2.34663
2.36193
2.37372
-1.51466
-1.58146
-1.66689
-1.77349
-1.90444
-2.06327
-2.25383
-2.47339
-2.69194
-2.81195
-1.22857
-1.29833
-1.38521
-1.49155
-1.62069
-1.77622
-1.96144
-2.17557
-2.39754
-2.52101
-0.865636
-0.939017
-1.02837
-1.1354
-1.26306
-1.41466
-1.59366
-1.80029
-2.0124
-2.1451
-0.45757
-0.536362
-0.628883
-0.736588
-0.862131
-1.00874
-1.17992
-1.37524
-1.57213
-1.70348
-0.0464596
-0.129068
-0.222499
-0.328147
-0.448614
-0.587063
-0.746784
-0.927132
-1.10754
-1.2294
0.332561
0.251972
0.162882
0.064044
-0.0470391
-0.173342
-0.317889
-0.479921
-0.640899
-0.749523
0.666103
0.593393
0.513818
0.426266
0.328346
0.217347
0.0906446
-0.0509074
-0.190685
-0.284439
0.961664
0.899128
0.830962
0.756386
0.67289
0.577932
0.46938
0.348275
0.229459
0.15074
1.23209
1.1785
1.11875
1.05442
0.983237
0.902581
0.810621
0.708501
0.609275
0.544852
1.45972
1.41466
1.36119
1.30537
1.24606
1.18031
1.10588
1.02343
0.943812
0.893125
2.29746
1.7812
2.19444
1.93831
1.94601
1.94739
1.94368
1.94045
1.89821
1.77233
2.28088
1.77811
2.18652
1.94267
1.94495
1.94795
1.94723
1.9523
1.92926
1.8642
2.26555
1.77487
2.17806
1.9456
1.94358
1.94775
1.95066
1.96307
1.95874
1.9499
2.25143
1.77142
2.16929
1.94708
1.94177
1.9467
1.95252
1.97114
1.98342
2.01645
2.23841
1.76768
2.16045
1.94716
1.93939
1.94472
1.95285
1.9762
2.00363
2.06699
2.2264
1.7636
2.15172
1.94592
1.93634
1.94176
1.95163
1.97827
2.01887
2.10316
2.21533
1.75914
2.14327
1.94346
1.93253
1.93779
1.9488
1.97725
2.02782
2.12703
2.20517
1.75423
2.13521
1.93989
1.92792
1.93277
1.94427
1.97324
2.03042
2.13891
2.19587
1.74886
2.12764
1.93533
1.92249
1.92668
1.93798
1.96634
2.0267
2.13882
2.18742
1.74302
2.12063
1.92987
1.91624
1.9195
1.92986
1.95658
2.01663
2.12691
2.44284
1.80472
2.20594
1.9411
1.94772
1.941
1.92263
1.8941
1.79329
1.61248
2.3882
1.79796
2.20393
1.94193
1.94725
1.94184
1.92425
1.8972
1.79942
1.61507
2.36369
1.79413
2.20478
1.94086
1.94722
1.94297
1.92718
1.90309
1.81256
1.62087
2.33849
1.78964
2.20284
1.9391
1.94706
1.9443
1.93139
1.91191
1.83258
1.64156
2.31602
1.78494
2.19999
1.93676
1.94672
1.94574
1.93656
1.92346
1.85889
1.67488
1.29768
1.15994
0.950588
0.657995
0.298316
-0.104068
-0.512932
-0.890321
-1.21262
-1.46488
1.28401
1.14266
0.939594
0.659461
0.315967
-0.0737172
-0.480307
-0.865042
-1.19848
-1.46036
1.30363
1.15044
0.941396
0.66696
0.335
-0.0463859
-0.454035
-0.847624
-1.19123
-1.46088
1.35367
1.17813
0.95304
0.678566
0.352634
-0.0250443
-0.43541
-0.837682
-1.19067
-1.46753
1.43224
1.22634
0.974785
0.691565
0.365331
-0.0113273
-0.423513
-0.832492
-1.19473
-1.48019
)
;

boundaryField
{
    left
    {
        type            zeroGradient;
    }
    right
    {
        type            fixedValue;
        value           uniform 0;
    }
    down
    {
        type            zeroGradient;
    }
    up
    {
        type            zeroGradient;
    }
    cylinder
    {
        type            zeroGradient;
    }
    defaultFaces
    {
        type            empty;
    }
}


// ************************************************************************* //
