/*--------------------------------*- C++ -*----------------------------------*\
  =========                 |
  \\      /  F ield         | OpenFOAM: The Open Source CFD Toolbox
   \\    /   O peration     | Website:  https://openfoam.org
    \\  /    A nd           | Version:  13
     \\/     M anipulation  |
\*---------------------------------------------------------------------------*/
FoamFile
{
    format      ascii;
    class       volScalarField;
    location    "9.7";
    object      p;
}
// * * * * * * * * * * * * * * * * * * * * * * * * * * * * * * * * * * * * * //

dimensions      [0 2 -2 0 0 0 0];

internalField   nonuniform List<scalar> 
440
(
-0.754181
-0.735589
-0.736745
-0.704095
-0.783844
-0.806744
-0.786448
-0.763966
-0.739924
-0.725791
-0.918158
-0.884949
-0.846708
-0.801386
-0.751897
-1.0537
-1.00507
-0.919905
-0.818851
-0.717763
-1.15087
-1.08649
-0.940657
-0.790059
-0.652293
-1.03332
-1.04082
-1.05009
-1.06589
-1.08864
-0.904565
-0.903905
-0.901289
-0.895245
-0.89075
-0.821814
-0.814731
-0.8035
-0.788265
-0.767369
-0.776076
-0.764193
-0.746833
-0.724404
-0.697813
-0.732087
-0.721998
-0.706365
-0.677184
-0.677889
-1.38895
-0.70627
-0.526305
0.0446921
-0.0628627
-1.20322
-0.936187
-0.372043
0.0936744
-0.0631966
-1.08722
-1.13797
-0.216817
0.183778
-0.0410051
-0.960034
-1.29098
-0.143224
0.19303
-0.0116476
-0.846654
-1.41456
-0.140592
0.183603
0.0215163
-0.642046
-1.32952
-0.120282
0.120393
0.0584733
-0.294455
-0.930039
-0.107784
-0.0640588
-0.00994553
-0.190114
-0.601913
-0.142831
0.0476146
0.0181057
-0.114066
-0.39545
-0.148818
0.0104585
-0.00523929
-0.00911567
-0.306021
-0.192136
0.0254055
0.0135344
-0.416701
-0.530857
-0.669777
-0.832415
-0.937407
-0.181389
-0.29743
-0.3683
-0.417008
-0.416756
-0.0235455
-0.11805
-0.181449
-0.219306
-0.244421
0.0771826
-0.0107155
-0.0792204
-0.11669
-0.142837
0.124691
0.0362458
-0.0284626
-0.058292
-0.0656398
0.841378
0.693053
0.505364
0.297811
0.0730787
0.445571
0.288331
0.0968749
-0.119417
-0.360633
0.0548129
-0.103674
-0.303367
-0.527933
-0.75003
-0.281158
-0.443474
-0.643405
-0.859228
-1.02931
-0.509727
-0.669449
-0.853756
-1.04662
-1.15586
1.91036
1.94028
1.96689
1.97969
1.97567
1.7276
1.74831
1.76311
1.76083
1.738
1.51626
1.50435
1.46991
1.41334
1.33184
1.27889
1.24483
1.17585
1.07722
0.951926
1.05817
0.957245
0.825488
0.673961
0.492181
1.68604
1.67841
1.65522
1.72647
1.79543
1.67758
1.66763
1.63839
1.7097
1.71081
1.67029
1.6542
1.61891
1.68251
1.60042
1.66441
1.6378
1.59854
1.63763
1.4388
1.66002
1.62119
1.57753
1.59345
1.2635
1.65797
1.59516
1.5507
1.4927
1.06027
1.65772
1.5592
1.54981
1.36983
1.16069
1.66656
1.54546
1.54731
1.29699
1.20515
1.66268
1.51476
1.54294
1.24028
1.22929
1.70054
1.5113
1.54262
1.20497
1.26743
0.818402
0.530309
0.200621
-0.0812235
-0.269182
0.724626
0.527377
0.305193
0.11202
-0.0550803
0.71772
0.549704
0.384343
0.23247
0.0942059
0.764728
0.605527
0.456112
0.316349
0.19115
0.8127
0.651106
0.502459
0.364108
0.239138
-1.68913
-1.54071
-1.36747
-1.22508
-1.13923
-1.78774
-1.7126
-1.57323
-1.45348
-1.37475
-1.73322
-1.68039
-1.58854
-1.50269
-1.43459
-1.59913
-1.55678
-1.50213
-1.44411
-1.38731
-1.47708
-1.45583
-1.42523
-1.3885
-1.34829
-1.40861
-1.40014
-1.38147
-1.37506
-1.3169
-1.37036
-1.36416
-1.35411
-1.35552
-1.33791
-1.36981
-1.37248
-1.38104
-1.3966
-1.40735
-1.29998
-1.31297
-1.33456
-1.36559
-1.39599
-1.19436
-1.21137
-1.23992
-1.27333
-1.31295
-1.14733
-0.521302
0.394601
0.227895
0.0504194
-1.16745
-0.460923
0.406048
0.237993
0.0300136
-1.14286
-0.503772
0.130913
0.253555
0.000804925
-1.28088
-0.669718
-0.429184
0.181933
-0.0317984
-1.47303
-0.751776
-0.625113
0.0808333
-0.0508091
-0.703043
-0.707907
0.298371
0.217852
0.0757666
-1.01826
-0.597197
0.369903
0.233342
0.0724672
-1.08778
-1.32466
-1.37093
-1.30345
-1.07472
-1.10839
-1.33608
-1.38798
-1.32354
-1.2653
1.5153
1.49156
1.45046
1.39295
1.31695
1.71546
1.7338
1.73773
1.72533
1.69671
1.88331
1.91493
1.9403
1.95407
1.95361
1.98365
2.02171
2.06193
2.0945
2.10903
1.98816
2.02431
2.06453
2.09789
2.11319
-0.671906
-0.777892
-0.943448
-1.14298
-1.37444
-0.0585661
-0.193476
-0.373633
-0.590383
-0.861759
0.495692
0.354829
0.186906
-0.0104807
-0.255375
0.941577
0.832557
0.700129
0.540033
0.346998
1.29799
1.22141
1.12294
1.00563
0.867866
1.74412
1.70392
1.68339
1.68318
1.67803
1.72939
1.70188
1.68398
1.7026
1.74805
1.71702
1.69859
1.68375
1.72587
1.82558
1.7057
1.69388
1.67841
1.73561
1.84175
1.69535
1.6875
1.6685
1.7361
1.83579
1.79939
1.70913
1.6692
1.605
1.536
1.75425
1.70008
1.66468
1.62703
1.55614
1.18092
0.949833
0.554597
-0.014725
-0.639659
1.2627
0.983193
0.572581
0.00656571
-0.631851
)
;

boundaryField
{
    left
    {
        type            zeroGradient;
    }
    right
    {
        type            fixedValue;
        value           uniform 0;
    }
    down
    {
        type            zeroGradient;
    }
    up
    {
        type            zeroGradient;
    }
    cylinder
    {
        type            zeroGradient;
    }
    defaultFaces
    {
        type            empty;
    }
}


// ************************************************************************* //
