/*--------------------------------*- C++ -*----------------------------------*\
  =========                 |
  \\      /  F ield         | OpenFOAM: The Open Source CFD Toolbox
   \\    /   O peration     | Website:  https://openfoam.org
    \\  /    A nd           | Version:  13
     \\/     M anipulation  |
\*---------------------------------------------------------------------------*/
FoamFile
{
    format      ascii;
    class       volScalarField;
    location    "1.7";
    object      p;
}
// * * * * * * * * * * * * * * * * * * * * * * * * * * * * * * * * * * * * * //

dimensions      [0 2 -2 0 0 0 0];

internalField   nonuniform List<scalar> 
1800
(
-1.5488
-1.53952
-1.5297
-1.52128
-1.5175
-1.51937
-1.52475
-1.52943
-1.52756
-1.5262
-1.59361
-1.58383
-1.57445
-1.56663
-1.56187
-1.55953
-1.5565
-1.54895
-1.53423
-1.5169
-1.65699
-1.64618
-1.6365
-1.62813
-1.62043
-1.61082
-1.59586
-1.57313
-1.54245
-1.50699
-1.73625
-1.72406
-1.71286
-1.70175
-1.68755
-1.66663
-1.63671
-1.59775
-1.55128
-1.50181
-1.82876
-1.81495
-1.80077
-1.78366
-1.75842
-1.72212
-1.67486
-1.61916
-1.55862
-1.49762
-1.93001
-1.9146
-1.89531
-1.86793
-1.82709
-1.77229
-1.70688
-1.63566
-1.56268
-1.49169
-2.0329
-2.01562
-1.98836
-1.94624
-1.88608
-1.81113
-1.72797
-1.64254
-1.55888
-1.47984
-2.12779
-2.10783
-2.06951
-2.00916
-1.92757
-1.83269
-1.73329
-1.63537
-1.54218
-1.45543
-2.20334
-2.17944
-2.12764
-2.04698
-1.944
-1.83095
-1.71756
-1.60916
-1.50809
-1.41518
-2.24821
-2.21912
-2.15257
-2.05143
-1.92912
-1.8009
-1.6763
-1.55958
-1.45208
-1.35379
-0.790201
-0.796902
-0.804265
-0.81162
-0.818717
-0.823866
-0.825363
-0.821708
-0.810243
-0.787694
-0.905139
-0.9107
-0.917079
-0.924375
-0.932369
-0.939065
-0.942364
-0.940383
-0.930024
-0.90872
-1.0439
-1.04809
-1.05367
-1.06173
-1.07205
-1.08225
-1.08974
-1.09238
-1.08719
-1.06794
-1.18844
-1.19105
-1.19585
-1.20535
-1.21903
-1.23388
-1.24642
-1.25362
-1.25195
-1.23894
-1.31779
-1.31843
-1.32196
-1.33261
-1.34976
-1.36976
-1.3887
-1.40311
-1.41092
-1.39917
-1.41465
-1.41231
-1.41367
-1.42313
-1.4402
-1.4621
-1.48465
-1.50341
-1.51326
-1.50416
-1.47324
-1.4678
-1.46535
-1.4704
-1.48353
-1.50317
-1.52577
-1.54642
-1.55843
-1.54957
-1.50013
-1.4924
-1.48584
-1.48469
-1.49095
-1.50464
-1.52323
-1.54177
-1.55467
-1.54452
-1.51098
-1.50221
-1.49297
-1.48687
-1.48733
-1.49575
-1.50961
-1.52513
-1.53571
-1.52173
-1.52296
-1.51388
-1.5037
-1.49518
-1.49215
-1.49621
-1.50695
-1.5183
-1.5227
-1.50519
-0.593735
-0.00436554
0.0617426
0.1126
0.0979629
0.075733
0.0558747
0.038491
0.0224938
0.00759974
-0.680644
-0.0331574
0.0458505
0.104971
0.0936698
0.0728692
0.0537865
0.037029
0.0216397
0.00727439
-0.804345
-0.0750991
0.0258157
0.0949576
0.0882267
0.0694133
0.051381
0.0354018
0.0207072
0.00692292
-0.948144
-0.130862
0.00223583
0.082243
0.0815415
0.0653291
0.0486391
0.0335986
0.0196895
0.00654407
-1.10044
-0.195895
-0.0244981
0.0666666
0.0735041
0.060576
0.0455438
0.0316103
0.0185806
0.00613724
-1.2472
-0.269765
-0.0543011
0.0482316
0.0639922
0.0551153
0.0420851
0.0294313
0.0173762
0.00570271
-1.36636
-0.353228
-0.0877055
0.0270162
0.0528651
0.0488948
0.0382579
0.0270621
0.0160767
0.00524283
-1.43858
-0.443907
-0.125354
0.00320915
0.0399969
0.0418184
0.0340333
0.024497
0.0146829
0.00476306
-1.45805
-0.534473
-0.166892
-0.0226387
0.0254369
0.033771
0.0293297
0.0216977
0.0131788
0.00426712
-1.43475
-0.618129
-0.210491
-0.049316
0.00970728
0.0248513
0.024122
0.0186273
0.0115351
0.00375159
-1.32812
-0.6328
-0.235207
-0.0730953
-0.00820807
0.0131944
0.0168794
0.0142408
0.00916354
0.00303463
-1.11663
-0.589721
-0.246617
-0.0961464
-0.0289401
-0.00144864
0.00744977
0.00843705
0.00607911
0.00205249
-0.967026
-0.555586
-0.256143
-0.110851
-0.0437749
-0.0131756
-0.000662626
0.00325647
0.00326722
0.00115304
-0.850679
-0.524438
-0.267582
-0.130705
-0.0620829
-0.0265264
-0.00931982
-0.00203101
0.000470389
0.000245329
-0.764051
-0.503521
-0.27971
-0.146699
-0.0763402
-0.0375411
-0.0168614
-0.00675936
-0.00205517
-0.000573913
-0.697808
-0.490191
-0.294366
-0.164984
-0.0914354
-0.0484903
-0.0240654
-0.0111466
-0.00435514
-0.00131576
-0.648889
-0.48635
-0.312618
-0.183967
-0.105267
-0.0579984
-0.0302583
-0.0148838
-0.00629925
-0.00193473
-0.615675
-0.490511
-0.333058
-0.203086
-0.118017
-0.0662497
-0.0354787
-0.0179518
-0.00785782
-0.00240996
-0.598955
-0.500135
-0.349616
-0.216779
-0.12607
-0.0710159
-0.0384354
-0.0196449
-0.00868467
-0.00263284
-0.589069
-0.506246
-0.359015
-0.224884
-0.131258
-0.074198
-0.0404325
-0.0208264
-0.00945456
-0.00284102
-1.18467
-1.25156
-1.30018
-1.33605
-1.35931
-1.38
-1.39585
-1.42229
-1.44241
-1.48394
-0.994745
-1.06327
-1.11645
-1.15815
-1.18799
-1.21226
-1.22821
-1.24307
-1.25412
-1.27066
-0.845287
-0.911675
-0.965831
-1.00839
-1.04042
-1.06312
-1.07782
-1.08586
-1.09111
-1.09398
-0.724184
-0.788137
-0.841292
-0.883329
-0.915427
-0.937465
-0.951744
-0.958511
-0.960994
-0.959646
-0.627004
-0.688272
-0.739379
-0.780403
-0.811836
-0.834001
-0.848264
-0.855147
-0.856215
-0.852533
-0.549198
-0.60776
-0.656678
-0.696401
-0.726965
-0.74899
-0.763136
-0.770037
-0.770649
-0.76613
-0.487746
-0.543921
-0.590954
-0.629235
-0.658801
-0.680146
-0.694036
-0.700817
-0.701825
-0.697567
-0.441684
-0.495987
-0.541667
-0.57856
-0.607085
-0.627413
-0.641029
-0.647496
-0.649198
-0.644943
-0.414014
-0.467635
-0.512306
-0.548258
-0.576163
-0.596014
-0.609417
-0.615503
-0.617568
-0.612933
-0.401002
-0.455002
-0.50043
-0.537483
-0.566085
-0.586804
-0.600312
-0.606919
-0.608305
-0.602181
0.37201
0.301438
0.220569
0.133923
0.0402526
-0.0628442
-0.175322
-0.290947
-0.388445
-0.436501
0.157647
0.0806997
-0.00510916
-0.0990586
-0.202981
-0.318555
-0.444753
-0.573696
-0.681353
-0.733359
-0.0781416
-0.158735
-0.247914
-0.346891
-0.457806
-0.581989
-0.717843
-0.856283
-0.971265
-1.02542
-0.306573
-0.391508
-0.485886
-0.591218
-0.709374
-0.841395
-0.985303
-1.13102
-1.25108
-1.30544
-0.516554
-0.607135
-0.70803
-0.820482
-0.946014
-1.08564
-1.23728
-1.38876
-1.50997
-1.56346
-0.706586
-0.803041
-0.910336
-1.02952
-1.16177
-1.30732
-1.46612
-1.6183
-1.73723
-1.79003
-0.877124
-0.978558
-1.09099
-1.21523
-1.35279
-1.50278
-1.66089
-1.81187
-1.92656
-1.97697
-1.02854
-1.13301
-1.24806
-1.37463
-1.51363
-1.66413
-1.81996
-1.96528
-2.072
-2.11829
-1.16103
-1.26519
-1.37966
-1.50544
-1.64284
-1.78997
-1.93937
-2.07416
-2.16947
-2.21044
-1.26993
-1.37183
-1.4837
-1.60616
-1.73876
-1.87845
-2.01653
-2.13626
-2.21775
-2.25277
1.77627
1.79077
1.80575
1.82011
1.83301
1.84376
1.85169
1.85676
1.86094
1.86541
1.70057
1.71204
1.72328
1.73328
1.74132
1.74673
1.74881
1.74783
1.74675
1.74804
1.60431
1.61183
1.61821
1.62257
1.62438
1.62296
1.61762
1.60894
1.6011
1.59848
1.48886
1.4919
1.4924
1.48982
1.48391
1.47396
1.45935
1.44106
1.42477
1.41756
1.35398
1.35157
1.3453
1.3349
1.32037
1.30097
1.27608
1.24708
1.22122
1.20894
1.20316
1.19513
1.18111
1.1615
1.13675
1.10618
1.06928
1.02799
0.991367
0.973242
1.03649
1.02228
1.00038
0.971514
0.936281
0.893962
0.844164
0.789522
0.741242
0.716949
0.86232
0.840933
0.809064
0.768667
0.721019
0.665465
0.601699
0.533
0.472748
0.442148
0.685593
0.656783
0.614344
0.56149
0.500138
0.429705
0.350158
0.265798
0.19268
0.155742
0.520645
0.47446
0.414695
0.346148
0.26985
0.184242
0.0890702
-0.0105469
-0.0959246
-0.138698
1.52502
1.49102
1.49631
1.49099
1.48801
1.49908
1.51877
1.5556
1.61504
1.71175
1.51789
1.48513
1.49034
1.48398
1.4797
1.48783
1.50421
1.53469
1.58342
1.6625
1.51131
1.47919
1.48425
1.47653
1.47079
1.47554
1.48818
1.51071
1.54622
1.60169
1.50523
1.47323
1.47806
1.46869
1.4613
1.46222
1.4707
1.48355
1.5038
1.52858
1.49966
1.46731
1.4718
1.46049
1.45124
1.44784
1.45183
1.45299
1.45679
1.44205
1.49458
1.46144
1.46548
1.45196
1.44062
1.43239
1.43157
1.41894
1.4055
1.34131
1.49001
1.45568
1.45913
1.44315
1.42941
1.41593
1.40986
1.38134
1.35008
1.22476
1.48596
1.45003
1.45274
1.43408
1.41763
1.39857
1.38658
1.34039
1.2902
1.09356
1.48247
1.44453
1.44634
1.42479
1.40529
1.38046
1.36157
1.29622
1.22435
0.945947
1.47962
1.4392
1.43992
1.41532
1.39253
1.36174
1.3357
1.25044
1.15507
0.793227
1.47672
1.433
1.43172
1.4036
1.37569
1.33746
1.30043
1.19426
1.07445
0.646627
1.47511
1.42654
1.42262
1.39077
1.35716
1.31189
1.26233
1.14481
0.99779
0.616723
1.47546
1.42095
1.41389
1.37849
1.33928
1.28889
1.22702
1.1049
0.936399
0.600446
1.47838
1.41625
1.40548
1.3668
1.32203
1.2689
1.19502
1.07356
0.886341
0.592197
1.48439
1.41247
1.39716
1.35559
1.30542
1.25187
1.16637
1.05019
0.847287
0.587955
1.49417
1.40965
1.38953
1.34508
1.28992
1.23763
1.1417
1.03394
0.818709
0.583575
1.50742
1.40624
1.38006
1.3333
1.27553
1.22593
1.12102
1.02262
0.799209
0.57998
1.5318
1.4073
1.37404
1.32452
1.26358
1.21675
1.10469
1.015
0.786747
0.578228
1.5436
1.3987
1.36038
1.31288
1.25426
1.2103
1.09379
1.01079
0.78072
0.579252
1.6187
1.41151
1.36242
1.30887
1.25083
1.20702
1.08862
1.00932
0.777478
0.582156
0.353938
0.177482
-0.0315108
-0.234213
-0.419276
-0.586448
-0.738306
-0.875335
-0.995915
-1.09974
0.300595
0.160786
0.000785004
-0.160673
-0.312714
-0.452927
-0.582758
-0.703027
-0.813195
-0.911334
0.283596
0.164795
0.0354626
-0.0979273
-0.227656
-0.350763
-0.466981
-0.575919
-0.676563
-0.766552
0.294856
0.184501
0.0691506
-0.0464347
-0.159532
-0.26883
-0.373508
-0.472843
-0.565393
-0.649569
0.31132
0.207655
0.101749
-0.00191724
-0.102813
-0.201489
-0.297453
-0.389886
-0.476668
-0.556288
0.328419
0.231016
0.13255
0.0371167
-0.0554898
-0.146747
-0.236488
-0.323764
-0.406085
-0.481895
0.344864
0.253082
0.160531
0.0707876
-0.0165609
-0.103026
-0.188488
-0.271823
-0.350564
-0.423173
0.360087
0.273213
0.18542
0.0994443
0.014957
-0.0690238
-0.152107
-0.23297
-0.30924
-0.379323
0.374152
0.29138
0.207288
0.123219
0.0392312
-0.0446064
-0.127266
-0.2073
-0.282744
-0.352148
0.386398
0.306148
0.223604
0.139076
0.0536842
-0.031315
-0.114487
-0.194522
-0.269797
-0.339079
-1.225
-1.18818
-1.10859
-1.00778
-0.905361
-0.812015
-0.731637
-0.665246
-0.613142
-0.575868
-1.26181
-1.22947
-1.16386
-1.07863
-0.98904
-0.905521
-0.832633
-0.771956
-0.724498
-0.691619
-1.235
-1.20622
-1.15556
-1.08923
-1.01649
-0.946216
-0.883317
-0.82992
-0.787528
-0.757703
-1.15949
-1.1334
-1.09612
-1.04901
-0.99536
-0.941074
-0.890655
-0.846491
-0.81037
-0.783866
-1.05669
-1.03314
-1.00594
-0.974634
-0.938665
-0.900513
-0.863253
-0.829033
-0.799597
-0.775976
-0.948742
-0.928256
-0.907821
-0.887021
-0.864321
-0.839984
-0.815444
-0.791877
-0.770932
-0.753574
-0.851999
-0.835639
-0.819723
-0.804283
-0.788793
-0.773304
-0.758219
-0.744006
-0.730535
-0.717692
-0.774191
-0.762495
-0.750164
-0.737102
-0.724188
-0.7127
-0.703955
-0.697961
-0.696556
-0.69802
-0.715174
-0.707272
-0.697283
-0.684305
-0.670932
-0.660411
-0.655518
-0.657869
-0.665901
-0.684658
-0.678721
-0.672929
-0.662092
-0.646766
-0.631509
-0.620661
-0.618987
-0.631077
-0.655303
-0.708149
-0.678487
-0.671294
-0.65902
-0.642274
-0.625692
-0.615465
-0.615562
-0.628441
-0.653049
-0.679769
-0.708859
-0.699766
-0.688939
-0.677811
-0.669471
-0.667519
-0.674428
-0.690964
-0.717292
-0.744593
-0.744999
-0.737091
-0.732066
-0.732651
-0.740131
-0.755203
-0.777666
-0.806352
-0.839627
-0.868637
-0.763415
-0.759844
-0.761339
-0.771133
-0.789389
-0.815264
-0.847349
-0.884043
-0.923223
-0.954107
-0.754313
-0.755582
-0.760833
-0.773336
-0.793124
-0.818834
-0.848946
-0.882106
-0.918035
-0.942699
-0.723721
-0.728026
-0.734809
-0.745752
-0.76121
-0.78025
-0.801722
-0.824456
-0.845413
-0.857727
-0.688355
-0.694408
-0.701831
-0.711049
-0.722404
-0.734974
-0.747637
-0.759136
-0.766673
-0.766333
-0.665309
-0.672422
-0.680395
-0.688807
-0.697759
-0.706171
-0.712855
-0.716535
-0.714683
-0.704486
-0.669756
-0.677395
-0.685786
-0.693889
-0.701631
-0.70774
-0.710932
-0.709938
-0.702296
-0.685359
-0.710445
-0.717858
-0.725972
-0.733758
-0.740914
-0.74597
-0.747503
-0.744189
-0.733496
-0.712543
-0.875932
-0.531273
-0.209028
0.011366
0.0807396
0.0794499
0.0648588
0.0475958
0.0288785
0.0100764
-0.95389
-0.458734
-0.126101
0.0518739
0.0906152
0.0810885
0.0643325
0.0467664
0.028213
0.00982692
-0.992966
-0.390547
-0.0575198
0.0817024
0.0968947
0.0812148
0.0638774
0.0460278
0.0276117
0.00959641
-0.982259
-0.328059
-0.00787408
0.099571
0.100397
0.0819259
0.0634685
0.0453189
0.0270385
0.00937224
-0.909273
-0.259318
0.0272118
0.110441
0.102712
0.0823135
0.0629588
0.0445852
0.026469
0.00914836
-0.78785
-0.177425
0.0528411
0.117741
0.104208
0.0823238
0.0623053
0.0438043
0.025892
0.00892146
-0.672058
-0.0963503
0.0693714
0.122029
0.104831
0.0819223
0.0614764
0.0429547
0.0252958
0.00868724
-0.589432
-0.0350575
0.0773688
0.123155
0.104551
0.0810936
0.0604436
0.042016
0.0246684
0.00844152
-0.547633
-0.00214725
0.0781634
0.121728
0.103348
0.0798104
0.0591812
0.0409699
0.0239991
0.00818055
-0.548996
0.00716797
0.0727417
0.118149
0.101172
0.0780358
0.0576657
0.0398
0.0232774
0.00790095
-0.551283
-0.601307
-0.381755
-0.0892114
0.0426059
0.0710293
0.0647646
0.0487394
0.0300123
0.0105644
-0.545831
-0.601557
-0.391246
-0.0925609
0.0440637
0.0715549
0.0647031
0.0485785
0.0298529
0.0104996
-0.592211
-0.605975
-0.387749
-0.0894456
0.0474668
0.0722472
0.0644855
0.0483415
0.0296693
0.0104305
-0.683576
-0.601386
-0.362907
-0.0741152
0.0546567
0.0737772
0.0644453
0.0481607
0.0295026
0.0103561
-0.796785
-0.578087
-0.286724
-0.0311148
0.069276
0.0777731
0.0650769
0.0481415
0.0293652
0.0102834
-0.540816
-0.652557
-0.722586
-0.75527
-0.761605
-0.734773
-0.721195
-0.671447
-0.641426
-0.596256
-0.540986
-0.65422
-0.722308
-0.753095
-0.755001
-0.726246
-0.714346
-0.656383
-0.640779
-0.588618
-0.542953
-0.657066
-0.723597
-0.753343
-0.749357
-0.727599
-0.703013
-0.664602
-0.649939
-0.618722
-0.548394
-0.66383
-0.729854
-0.758535
-0.750684
-0.735568
-0.698357
-0.688853
-0.67296
-0.696494
-0.558102
-0.675265
-0.741463
-0.768339
-0.76038
-0.742293
-0.706373
-0.703737
-0.691268
-0.778093
1.51811
1.50936
1.49385
1.47461
1.45257
1.42673
1.39642
1.36352
1.33606
1.32373
1.60327
1.60619
1.60257
1.59439
1.58288
1.5676
1.54809
1.5259
1.50748
1.4998
1.68473
1.69235
1.69524
1.69472
1.69169
1.68573
1.67632
1.66433
1.65445
1.65113
1.75438
1.76608
1.77502
1.78166
1.78628
1.78836
1.78728
1.78352
1.78047
1.78099
1.81183
1.82665
1.83976
1.85124
1.86113
1.86892
1.87397
1.87648
1.8788
1.88235
1.85259
1.86938
1.88568
1.90114
1.91541
1.92794
1.93803
1.94558
1.95208
1.95813
1.8764
1.8945
1.91282
1.93073
1.94765
1.96298
1.97606
1.98661
1.99566
2.00325
1.88123
1.8997
1.91892
1.93802
1.95624
1.97295
1.98746
1.99941
2.00962
2.01788
1.86652
1.88456
1.90356
1.92246
1.94044
1.95683
1.97095
1.98246
1.99225
2.00023
1.83164
1.84838
1.86597
1.8833
1.89949
1.9139
1.92582
1.93503
1.94282
1.94953
-0.410189
-0.453143
-0.509613
-0.580121
-0.665415
-0.765017
-0.87596
-0.987778
-1.07816
-1.1193
-0.200421
-0.248739
-0.309339
-0.382932
-0.470691
-0.572923
-0.688586
-0.807239
-0.904927
-0.948854
0.0403082
-0.0128034
-0.0770002
-0.152695
-0.24122
-0.343402
-0.458045
-0.576623
-0.680429
-0.725311
0.292384
0.236213
0.170245
0.0943661
0.00735656
-0.0917442
-0.202061
-0.317212
-0.41699
-0.463576
0.536216
0.479738
0.414967
0.341979
0.259657
0.166815
0.063866
-0.04354
-0.135611
-0.180285
0.757438
0.704544
0.644811
0.578338
0.503999
0.420474
0.327947
0.231482
0.149235
0.108758
0.952853
0.906976
0.85545
0.798268
0.734225
0.661947
0.581545
0.49762
0.426434
0.391442
1.12986
1.09201
1.04944
1.00212
0.948685
0.887759
0.819489
0.748091
0.68796
0.658769
1.29632
1.26503
1.22893
1.1892
1.14461
1.09378
1.0368
0.977358
0.927829
0.904296
1.43963
1.41413
1.38277
1.34941
1.31347
1.27334
1.22861
1.18195
1.14337
1.12549
1.64332
1.53149
1.53423
1.52625
1.53284
1.55793
1.58133
1.61925
1.63689
1.60807
1.62585
1.53059
1.5338
1.52641
1.53158
1.55628
1.58103
1.62206
1.65355
1.65976
1.60998
1.52856
1.53219
1.52558
1.52963
1.5537
1.57992
1.62471
1.66967
1.71036
1.59563
1.52563
1.52966
1.52383
1.52697
1.55022
1.57754
1.6249
1.68091
1.7479
1.58262
1.52196
1.52635
1.52125
1.52359
1.54583
1.57371
1.62275
1.68729
1.77519
1.5708
1.5177
1.5224
1.51788
1.51947
1.54049
1.56839
1.61817
1.68868
1.7917
1.56001
1.51297
1.5179
1.51376
1.51461
1.53417
1.56156
1.61103
1.68487
1.79748
1.55014
1.50785
1.51297
1.50897
1.50901
1.52687
1.55319
1.60124
1.67566
1.79261
1.54108
1.50244
1.50768
1.50354
1.5027
1.51859
1.54327
1.58878
1.66103
1.77679
1.53273
1.49681
1.5021
1.49753
1.49569
1.50933
1.5318
1.57359
1.64088
1.74983
1.80842
1.53367
1.52294
1.51583
1.52848
1.55054
1.56448
1.58578
1.54773
1.5221
1.73464
1.52739
1.5234
1.51768
1.52919
1.55142
1.56511
1.58726
1.55166
1.51876
1.71222
1.53234
1.52817
1.5204
1.53036
1.55302
1.56752
1.59146
1.56304
1.52071
1.68587
1.5324
1.53129
1.52301
1.53165
1.55513
1.57184
1.59901
1.58193
1.53154
1.66294
1.53191
1.53338
1.52505
1.53273
1.55719
1.57678
1.60871
1.60636
1.54896
1.31988
1.22921
1.10534
0.943433
0.745827
0.520064
0.277496
0.0342654
-0.191934
-0.385753
1.31404
1.22616
1.1079
0.951093
0.758475
0.536052
0.29393
0.0480012
-0.183184
-0.382399
1.32546
1.23342
1.11245
0.957073
0.768167
0.548295
0.305972
0.0573962
-0.177946
-0.381469
1.35993
1.25365
1.12093
0.962678
0.775515
0.556961
0.313803
0.0626125
-0.17639
-0.383852
1.41555
1.28801
1.13538
0.968389
0.779418
0.561166
0.317762
0.0646659
-0.177999
-0.389991
)
;

boundaryField
{
    left
    {
        type            zeroGradient;
    }
    right
    {
        type            fixedValue;
        value           uniform 0;
    }
    down
    {
        type            zeroGradient;
    }
    up
    {
        type            zeroGradient;
    }
    cylinder
    {
        type            zeroGradient;
    }
    defaultFaces
    {
        type            empty;
    }
}


// ************************************************************************* //
