/*--------------------------------*- C++ -*----------------------------------*\
  =========                 |
  \\      /  F ield         | OpenFOAM: The Open Source CFD Toolbox
   \\    /   O peration     | Website:  https://openfoam.org
    \\  /    A nd           | Version:  13
     \\/     M anipulation  |
\*---------------------------------------------------------------------------*/
FoamFile
{
    format      ascii;
    class       surfaceScalarField;
    location    "1.7";
    object      phi;
}
// * * * * * * * * * * * * * * * * * * * * * * * * * * * * * * * * * * * * * //

dimensions      [0 3 -1 0 0 0 0];

internalField   nonuniform List<scalar> 
3485
(
0.000653038
0.00604245
-0.00669548
0.00471146
0.00983919
-0.0138976
0.013334
0.00602484
-0.0146474
0.0271275
-0.00484254
-0.008951
0.0462579
-0.0217486
0.00261822
0.0702859
-0.0431063
0.0190783
0.0979874
-0.0668143
0.0391128
0.127605
-0.0906225
0.0610053
0.157167
-0.112554
0.0829911
-0.12987
0.102816
0.184221
0.000965551
0.0050769
0.00613568
0.00466906
0.0169801
-0.00481961
0.0341439
-0.0220063
0.0572953
-0.0448999
0.0849852
-0.0707963
0.114922
-0.0967507
0.144579
-0.12028
0.171703
-0.139678
-0.154511
0.196344
0.00173507
0.00334182
0.00895077
-0.00254663
0.0229489
-0.0188178
0.043832
-0.0428894
0.0701782
-0.0712461
0.0993373
-0.0999554
0.128295
-0.125708
0.154528
-0.146513
0.176646
-0.161796
-0.172127
0.194262
0.00272111
0.000620708
0.0123869
-0.0122125
0.0297063
-0.0361371
0.053591
-0.0667741
0.0812249
-0.09888
0.109127
-0.127857
0.134404
-0.150986
0.155425
-0.167534
0.171765
-0.178135
-0.184142
0.183779
0.00378058
-0.00315987
0.0159286
-0.0243605
0.0359712
-0.0561798
0.0612238
-0.0920267
0.0877337
-0.12539
0.11202
-0.152143
0.132079
-0.171044
0.147421
-0.182876
0.158604
-0.189318
-0.19227
0.166732
0.00488403
-0.0080439
0.0191503
-0.0386267
0.0406783
-0.0777078
0.065257
-0.116605
0.0886175
-0.14875
0.108103
-0.171629
0.122917
-0.185859
0.133547
-0.193506
0.141017
-0.196788
-0.197436
0.146183
0.00588306
-0.013927
0.0215265
-0.0542701
0.0429569
-0.0991382
0.0650613
-0.13871
0.0841316
-0.167821
0.0986819
-0.186179
0.108922
-0.196099
0.115848
-0.200432
0.120541
-0.201481
-0.200804
0.123909
0.00664755
-0.0205745
0.022672
-0.0702946
0.0425111
-0.118977
0.0610509
-0.15725
0.0756105
-0.18238
0.0857804
-0.196349
0.0923826
-0.202701
0.0965524
-0.204602
0.0992337
-0.204163
-0.202519
0.100949
0.00706686
-0.0276414
0.0224214
-0.0856492
0.0396019
-0.136158
0.0541569
-0.171805
0.0645029
-0.192726
0.0709866
-0.202832
0.0746975
-0.206412
0.0767061
-0.206611
0.077752
-0.205209
-0.203003
0.0782363
0.00708437
-0.0347257
0.0208885
-0.0994533
0.0348565
-0.150126
0.0454979
-0.182446
0.0521556
-0.199384
0.0556184
-0.206295
0.0570145
-0.207808
0.0572499
-0.206846
0.0568604
-0.204819
0.0560316
-0.202174
-0.00525078
0.0125873
-0.00733649
-0.0154446
0.0219991
-0.0118052
-0.027289
0.0232831
-0.0114387
-0.0390016
0.0206004
-0.00888782
-0.0497044
0.0161647
-0.00546189
-0.0590017
0.0111143
-0.00181702
-0.0667109
0.00603271
0.00167648
-0.0727692
0.00116493
0.00489342
-0.0772819
-0.00332258
0.00783525
-0.00767721
-0.0802104
0.0106057
-0.00437895
0.0169662
-0.0133565
0.0309766
-0.0241237
0.0340504
-0.0349825
0.0314592
-0.0449865
0.0261687
-0.0536144
0.0197421
-0.0605804
0.0129988
-0.0657753
0.00635979
-0.069071
-2.68707e-05
-0.00601743
-0.0707308
-0.00286692
0.0198331
-0.00960605
0.0377157
-0.0182784
0.0427227
-0.0273957
0.0405765
-0.0359459
0.0347189
-0.043245
0.0270413
-0.0488139
0.0185676
-0.0523441
0.00989003
-0.0536818
0.00131088
-0.00665532
-0.053044
-0.000820937
0.0206541
-0.00426435
0.0411591
-0.00964749
0.0481058
-0.0158871
0.0468161
-0.021972
0.0408038
-0.0270793
0.0321485
-0.0305314
0.0220198
-0.031768
0.0111266
-0.030412
-4.51363e-05
-0.0105213
-0.026546
0.00135846
0.0192956
0.00191775
0.0405998
0.000849684
0.0491739
-0.00132021
0.048986
-0.00374867
0.0432323
-0.00562038
0.0340202
-0.00619099
0.0225904
-0.00474205
0.00967771
-0.000702883
-0.00408431
-0.0180854
0.00686118
0.0029963
0.0162993
0.00717494
0.0364212
0.0106386
0.0457102
0.0131322
0.0464925
0.0151066
0.0412579
0.0172038
0.031923
0.0200595
0.0197346
0.0242749
0.00546228
0.0306298
-0.0104392
-0.0276195
0.0401639
0.00356587
0.0127335
0.00990692
0.0300801
0.016762
0.0388551
0.0233534
0.039901
0.0297103
0.034901
0.0362085
0.0254249
0.0432946
0.0126485
0.0514407
-0.00268384
0.0611419
-0.0201404
-0.0401973
0.0737197
0.00305188
0.00968157
0.00959091
0.0235411
0.0178601
0.0305859
0.0269808
0.0307803
0.0367527
0.0251292
0.0473734
0.0148041
0.0590841
0.000937827
0.0725053
-0.0161051
0.0872197
-0.0348548
-0.0571816
0.104204
0.00197328
0.00770829
0.0073842
0.0181302
0.0155049
0.0224652
0.0258257
0.0204595
0.0382295
0.0127254
0.052822
0.000211622
0.0700788
-0.016319
0.0894892
-0.0355155
0.110638
-0.0560034
-0.0791194
0.132576
0.00101281
0.00524539
0.0130632
0.0245717
0.0399154
0.0592053
0.081999
0.107489
0.134476
0.158174
-0.0169348
-0.283425
0.220149
0.0800636
-0.295834
0.198836
0.139934
-0.211866
0.151995
0.175322
-0.154725
0.119337
0.194329
-0.113918
0.0949099
0.203955
-0.0833669
0.0737412
0.208566
-0.0639646
0.0593533
0.210191
-0.0443147
0.0426896
0.210526
-0.0375576
0.0372227
-0.0238899
0.0247216
-0.00880826
-0.345347
0.0802328
-0.384875
0.140471
-0.272104
0.17563
-0.189884
0.19464
-0.132927
0.204318
-0.0930449
0.208951
-0.0685979
0.210601
-0.0459649
0.210949
-0.0379052
-0.0230984
0.00637792
-0.404769
0.0833551
-0.461852
0.141779
-0.330528
0.175919
-0.224024
0.194661
-0.151668
0.204343
-0.102728
0.209043
-0.0732977
0.210808
-0.04773
0.211277
-0.0383737
-0.0224729
0.0284724
-0.459788
0.0919041
-0.525284
0.144842
-0.383467
0.176587
-0.255769
0.194523
-0.169604
0.204065
-0.11227
0.208849
-0.0780816
0.210812
-0.0496935
0.211507
-0.0390685
-0.0221376
0.0573174
-0.510244
0.105926
-0.573892
0.150115
-0.427656
0.177982
-0.283636
0.194393
-0.186015
0.20354
-0.121417
0.208383
-0.0829243
0.210615
-0.0519258
0.211637
-0.0400899
-0.0222145
0.0883219
-0.558402
0.122925
-0.608496
0.156944
-0.461674
0.180107
-0.306799
0.194398
-0.200306
0.202849
-0.129867
0.207677
-0.0877526
0.210225
-0.0544742
0.211664
-0.0415284
-0.0228217
0.115579
-0.600261
0.139367
-0.632284
0.163683
-0.48599
0.182366
-0.325482
0.194466
-0.212406
0.202044
-0.137446
0.206775
-0.0924837
0.209662
-0.0573611
0.211591
-0.0434581
-0.024071
0.13647
-0.632526
0.152376
-0.64819
0.168667
-0.502282
0.183755
-0.34057
0.194207
-0.222859
0.201059
-0.144298
0.2057
-0.0971243
0.20895
-0.0606107
0.211429
-0.0459378
-0.0260654
0.150577
-0.650528
0.160434
-0.658047
0.171022
-0.51287
0.183459
-0.353007
0.193047
-0.232447
0.199646
-0.150897
0.204391
-0.101869
0.20809
-0.0643103
0.211184
-0.0490313
-0.0289029
0.158904
-0.651258
0.163899
-0.663042
0.171005
-0.519975
0.181454
-0.363456
0.190636
-0.241628
0.197471
-0.157731
0.202665
-0.107063
0.207013
-0.0686591
0.210836
-0.0528538
-0.032691
0.572875
-0.610445
-0.613689
0.499473
-0.58964
0.431374
-0.451876
0.38743
-0.319512
0.362549
-0.216748
0.348431
-0.143613
0.339697
-0.098329
0.334412
-0.0633741
0.33064
-0.0490813
-0.030554
0.581596
-0.514009
-0.678032
0.490649
-0.498693
0.427772
-0.388999
0.389448
-0.281189
0.366435
-0.193734
0.352172
-0.12935
0.342729
-0.088886
0.336706
-0.0573516
0.33217
-0.0445449
-0.0278872
0.595119
-0.428982
-0.680146
0.518908
-0.422481
0.457663
-0.327754
0.411884
-0.23541
0.380755
-0.162605
0.360684
-0.10928
0.347673
-0.0758748
0.339654
-0.049332
0.333858
-0.0387495
-0.0245635
0.594497
-0.355859
-0.66762
0.520744
-0.348728
0.460845
-0.267855
0.416225
-0.19079
0.385364
-0.131743
0.364726
-0.0886424
0.350723
-0.0618718
0.341795
-0.0404036
0.33519
-0.0321452
-0.0207162
0.596309
-0.295318
-0.65685
0.529373
-0.281792
0.470724
-0.209206
0.424346
-0.144413
0.39114
-0.0985369
0.368661
-0.0661637
0.353322
-0.0465326
0.343506
-0.0305871
0.33621
-0.0248496
-0.0164251
0.596302
-0.242929
-0.648691
0.532436
-0.217926
0.474035
-0.150805
0.427064
-0.0974426
0.393125
-0.0645977
0.370097
-0.0431356
0.354287
-0.0307226
0.344112
-0.0204115
0.336463
-0.0172009
-0.0118498
0.588376
-0.191661
-0.639644
0.524282
-0.153832
0.466247
-0.0927705
0.42054
-0.051735
0.388017
-0.0320747
0.366181
-0.0213005
0.351157
-0.0156979
0.341445
-0.0106994
0.334002
-0.00975809
-0.00727772
0.54714
-0.129928
-0.608873
0.480939
-0.0876306
0.4277
-0.0395315
0.389345
-0.0133802
0.363252
-0.00598161
0.346093
-0.00414191
0.334238
-0.00384277
0.326513
-0.00297433
0.320332
-0.00357665
-0.00327134
0.412798
-0.0551782
-0.487549
0.352572
-0.0274047
0.317296
-0.00425527
0.29851
0.0054064
0.287377
0.00515082
0.280083
0.00315189
0.274658
0.00158248
0.270932
0.000752002
0.26746
-0.000104465
-0.000656383
0.136163
-0.191341
0.108758
0.104503
0.109909
0.11506
0.118212
0.119794
0.120546
0.120442
0.54818
0.0470106
-0.539159
0.558786
0.0676307
0.570674
0.089061
0.584623
0.109959
0.598977
0.131829
0.615414
0.150295
0.627585
0.171608
0.63879
0.183057
0.631353
0.203782
0.201884
0.524434
0.0389011
-0.516325
0.535834
0.0562308
0.548002
0.0768926
0.564117
0.0938448
0.58087
0.115076
0.60134
0.129826
0.622014
0.150933
0.642971
0.1621
0.665064
0.181689
0.188916
0.507293
0.0312809
-0.499673
0.518024
0.0454996
0.530222
0.0646952
0.5457
0.0783667
0.562983
0.0977932
0.582756
0.110053
0.605057
0.128632
0.628115
0.139042
0.654612
0.155192
0.163382
0.49441
0.023547
-0.486676
0.504472
0.035437
0.517028
0.0521394
0.531827
0.0635674
0.549314
0.0803066
0.568587
0.0907798
0.590809
0.10641
0.614262
0.11559
0.640573
0.128881
0.136336
0.484133
0.0158262
-0.476412
0.493819
0.0257506
0.506544
0.0394152
0.521145
0.0489664
0.538787
0.0626646
0.558119
0.071447
0.580308
0.0842217
0.603916
0.0919815
0.629856
0.10294
0.109342
0.475074
0.0083965
-0.467645
0.484546
0.0162791
0.497171
0.02679
0.51177
0.0343671
0.529484
0.0449505
0.549041
0.0518905
0.571398
0.0618647
0.595319
0.0680609
0.621463
0.0767956
0.0821144
0.464472
0.00162101
-0.457696
0.473557
0.00719401
0.48579
0.0145567
0.50024
0.0199173
0.517845
0.0273456
0.537562
0.0321729
0.560163
0.0392634
0.584635
0.0435897
0.611512
0.0499177
0.0539833
0.442009
-0.00361383
-0.436774
0.449603
-0.000400053
0.460302
0.00385738
0.473348
0.00687108
0.489662
0.0110316
0.508246
0.0135889
0.529929
0.0175806
0.553787
0.0197319
0.580318
0.0233867
0.0254286
0.374015
-0.00457572
-0.373053
0.376973
-0.00335779
0.382717
-0.00188684
0.390506
-0.000917794
0.401174
0.000362981
0.413665
0.00109884
0.428964
0.00228088
0.446023
0.00267312
0.465694
0.00371605
0.00357363
0.183798
-0.188373
0.18044
0.178553
0.177635
0.177998
0.179097
0.181378
0.184051
0.187767
0.0754012
0.145704
-0.133865
-0.0872393
0.0644732
0.147842
-0.136914
0.0543582
0.150415
-0.1403
0.0445331
0.153895
-0.14407
0.0347244
0.157665
-0.147856
0.0249887
0.160661
-0.150925
0.015708
0.160312
-0.151031
0.00766687
0.150815
-0.142773
0.00203653
0.121647
-0.116016
0.0580221
-0.0559855
0.0727147
0.156429
-0.0834401
0.0620916
0.158465
0.051779
0.160727
0.0418053
0.163869
0.0320531
0.167417
0.0225816
0.170132
0.0137806
0.169112
0.00642471
0.158171
0.00154874
0.126523
0.0595708
0.0661341
0.165889
-0.0755946
0.056291
0.168308
0.0465061
0.170512
0.0369868
0.173388
0.0277597
0.176644
0.0189473
0.178944
0.0109786
0.177081
0.00462648
0.164523
0.000814533
0.130335
0.0603853
0.0563313
0.174195
-0.064637
0.0476343
0.177005
0.038815
0.179331
0.0301339
0.182069
0.0217554
0.185022
0.0138965
0.186803
0.00706028
0.183917
0.00206145
0.169521
-0.000202812
0.132599
0.0601825
0.0442191
0.181416
-0.0514403
0.0367228
0.184501
0.0290538
0.187
0.0214372
0.189686
0.0141212
0.192338
0.00749356
0.193431
0.00206295
0.189348
-0.00107041
0.172655
-0.00137208
0.1329
0.0588104
0.0306175
0.187592
-0.0367936
0.0242897
0.190829
0.0178099
0.19348
0.0113794
0.196117
0.00528277
0.198435
-7.04493e-07
0.198714
-0.00343258
0.19278
-0.00439611
0.173618
-0.00261324
0.131118
0.0561972
0.0156896
0.192788
-0.0208848
0.0104674
0.196051
0.00519944
0.198748
7.39267e-05
0.201242
-0.00451111
0.20302
-0.0079287
0.202132
-0.00940865
0.19426
-0.00797946
0.172189
-0.00383172
0.12697
0.0523655
-0.000304989
0.197098
-0.00400488
-0.00445491
0.200201
-0.00850929
0.202803
-0.0122692
0.205002
-0.0152944
0.206045
-0.0168187
0.203656
-0.0158334
0.193275
-0.011625
0.167981
-0.00497538
0.12032
0.0473901
-0.0179397
0.200222
0.0148156
-0.0208739
0.203135
-0.0236035
0.205532
-0.0258542
0.207253
-0.0270444
0.207236
-0.0262577
0.20287
-0.0224523
0.189469
-0.0151727
0.160701
-0.00596674
0.111114
0.0414234
-0.0368303
0.0348776
-0.0385141
-0.0398278
-0.040383
-0.0394429
-0.0359571
-0.028934
-0.0183586
-0.00669762
0.105329
0.0364772
-0.117102
-0.0247033
0.0932943
0.0375201
-0.0254857
0.0809854
0.0386459
-0.026337
0.0683761
0.0398569
-0.0272476
0.0554479
0.0411361
-0.0282079
0.0422261
0.0423571
-0.0291353
0.0288978
0.0430226
-0.0296943
0.0160963
0.0416987
-0.0288972
0.00540514
0.0352153
-0.0245242
0.0180868
-0.0126816
0.104929
0.0483145
-0.116766
0.0928962
0.0495528
0.0806036
0.0509386
0.068024
0.0524365
0.0551344
0.0540257
0.0419573
0.0555343
0.0286816
0.0562983
0.0159461
0.0544342
0.00533528
0.0458261
0.0234221
0.104236
0.0601059
-0.116027
0.0922075
0.0615811
0.079935
0.0632111
0.0673933
0.0649782
0.0545639
0.066855
0.04147
0.0686283
0.0283009
0.0694673
0.0156979
0.0670372
0.00523288
0.0562912
0.0286549
0.102705
0.0719373
-0.114536
0.0907566
0.0735295
0.0785674
0.0754002
0.0661119
0.0774338
0.0533827
0.0795843
0.0404273
0.0815836
0.0274603
0.0824343
0.0151331
0.0793645
0.00498995
0.0664343
0.0336449
0.10084
0.0836053
-0.112508
0.0890297
0.0853397
0.0770521
0.0873778
0.064844
0.0896419
0.0523571
0.0920712
0.0396162
0.0943245
0.0268475
0.0952029
0.0147366
0.0914754
0.00483504
0.0763358
0.0384799
0.097542
0.0953293
-0.109266
0.0858211
0.0970607
0.0739409
0.099258
0.0619082
0.101675
0.049714
0.104265
0.0373835
0.106655
0.0251282
0.107458
0.0136222
0.102981
0.0043693
0.0855887
0.0428492
0.0941322
0.106513
-0.105316
0.082962
0.108231
0.0716108
0.110609
0.0599773
0.113308
0.0480619
0.116181
0.0359694
0.118748
0.0239974
0.11943
0.0128718
0.114107
0.00406567
0.0943949
0.0469149
0.087564
0.117526
-0.098577
0.0767492
0.119046
0.0659656
0.121393
0.0550995
0.124174
0.0440392
0.127241
0.0328043
0.129983
0.0216831
0.130551
0.0114307
0.124359
0.00348925
0.102336
0.0504042
0.0832287
0.126862
-0.0925643
0.0735063
0.128768
0.0631928
0.131706
0.0525015
0.134865
0.0416005
0.138142
0.0306407
0.140942
0.0199577
0.141234
0.0103105
0.134007
0.00304926
0.109598
0.0534534
0.0731544
-0.0801582
0.0650088
0.0564154
0.0472105
0.0374966
0.0275141
0.0177176
0.00895084
0.00253212
0.201386
0.00897932
-0.0123757
0.205285
0.021459
-0.0253579
0.209077
0.0376511
-0.0414433
0.211995
0.0582525
-0.0611704
0.212017
0.0734738
-0.0734954
0.210164
0.0932237
-0.091371
0.203235
0.110451
-0.103521
0.190816
0.136664
-0.124246
0.165822
0.182592
-0.157599
0.23709
-0.18837
0.201065
0.00590375
0.204635
0.0178891
0.20814
0.0341464
0.210828
0.0555645
0.210901
0.0734004
0.208838
0.0952871
0.202142
0.117146
0.18942
0.149387
0.164515
0.207497
0.284839
0.200673
0.00322021
0.203839
0.0147231
0.20697
0.0310157
0.209232
0.0533027
0.209265
0.0733677
0.206692
0.0978592
0.200213
0.123626
0.186895
0.162705
0.162432
0.23196
0.331243
0.200205
0.00100506
0.202892
0.0120363
0.205554
0.0283536
0.207224
0.0516327
0.207115
0.0734761
0.203739
0.101235
0.197511
0.129855
0.183067
0.177149
0.159633
0.255394
0.37634
0.199658
-0.000662677
0.201791
0.00990316
0.203876
0.0262679
0.204828
0.0506808
0.204452
0.0738529
0.199996
0.105691
0.194081
0.135769
0.177986
0.193244
0.156109
0.277271
0.41994
0.19903
-0.00170271
0.200537
0.00839552
0.201926
0.0248795
0.202074
0.0505323
0.201264
0.0746635
0.19558
0.111375
0.189982
0.141367
0.171956
0.21127
0.152041
0.297187
0.462715
0.198323
-0.00203598
0.199136
0.00758262
0.199697
0.0243185
0.198995
0.0512346
0.197534
0.0761245
0.190649
0.11826
0.185056
0.14696
0.165277
0.231049
0.146994
0.31547
0.504393
0.197538
-0.0015842
0.197592
0.00752816
0.197199
0.024712
0.195621
0.0528128
0.193254
0.0784916
0.185238
0.126276
0.179347
0.15285
0.157326
0.253071
0.141546
0.331249
0.547362
0.196672
-0.000266893
0.195919
0.00828207
0.194457
0.0261739
0.191986
0.0552832
0.188405
0.0820727
0.179534
0.135147
0.172769
0.159616
0.150369
0.27547
0.135095
0.346523
0.589893
0.195761
0.00196156
0.194086
0.00995704
0.191539
0.0287215
0.188051
0.0587713
0.18312
0.0870029
0.172963
0.145304
0.164421
0.168158
0.140113
0.299778
0.129264
0.357372
0.638998
0.304896
-0.000923863
0.309507
0.00534541
0.315013
0.0232162
0.321197
0.0525864
0.329415
0.0787854
0.332618
0.142101
0.351442
0.149333
0.355492
0.295729
0.405149
0.307715
0.570125
0.474022
0.305467
-0.00438041
0.311056
-0.000243602
0.317219
0.0170533
0.325005
0.0448004
0.333436
0.070354
0.340966
0.134572
0.362099
0.1282
0.374679
0.283148
0.420453
0.261941
0.504089
0.486489
0.306225
-0.00859542
0.31298
-0.00699813
0.320045
0.00998829
0.329112
0.0357335
0.33724
0.062226
0.349317
0.122494
0.369685
0.107832
0.387732
0.265102
0.429586
0.220088
0.430054
0.50362
0.307243
-0.0138286
0.315342
-0.0150968
0.323596
0.00173466
0.333119
0.0262101
0.341618
0.0537274
0.356658
0.107454
0.374771
0.0897192
0.398367
0.241506
0.440326
0.178128
0.353158
0.517222
0.308577
-0.0203958
0.318374
-0.0248935
0.327871
-0.0077627
0.33714
0.016941
0.346489
0.0443792
0.363127
0.0908161
0.379115
0.0737306
0.4109
0.209721
0.448251
0.140778
0.280654
0.520755
0.310293
-0.0286787
0.322095
-0.036695
0.332744
-0.0184116
0.341374
0.00831031
0.351252
0.0345009
0.36917
0.0728984
0.382771
0.0601297
0.421176
0.171316
0.453636
0.108318
0.214164
0.520126
0.312718
-0.0393861
0.326365
-0.0503426
0.336993
-0.0290389
0.344374
0.000928438
0.354197
0.0246781
0.372855
0.0542405
0.385117
0.0478679
0.428031
0.128401
0.457046
0.0793036
0.153202
0.518008
0.315266
-0.0526415
0.326522
-0.0615992
0.333741
-0.0362575
0.339235
-0.00456582
0.349055
0.0148586
0.368222
0.0350732
0.381413
0.0346769
0.427286
0.0825278
0.455208
0.0513823
0.0958039
0.512606
0.30902
-0.0596514
0.301759
-0.054338
0.295115
-0.0296137
0.29622
-0.00567042
0.306335
0.00474313
0.325651
0.0157571
0.343952
0.0163765
0.390677
0.0358024
0.419405
0.0226546
0.0398195
0.475389
0.242359
0.188021
0.158407
0.152737
0.15748
0.173237
0.189613
0.225416
0.24807
0.28789
0.487523
-0.10074
0.492955
-0.0888726
0.497105
-0.0797445
0.501585
-0.0691169
0.506476
-0.0563314
0.512022
-0.0423393
0.517754
-0.0266168
0.523972
-0.0102226
0.531059
0.00772787
0.0267775
0.488499
-0.10275
0.490599
-0.0909724
0.491537
-0.0806822
0.492749
-0.0703291
0.494104
-0.0576863
0.496512
-0.0447477
0.49937
-0.0294751
0.503848
-0.0147003
0.508957
0.0026187
0.0194102
0.498777
-0.0979062
0.495919
-0.088115
0.492964
-0.0777266
0.490125
-0.0674906
0.487968
-0.0555296
0.487242
-0.0440214
0.487619
-0.0298518
0.489957
-0.017038
0.493399
-0.000823732
0.0131362
0.506857
-0.0875413
0.498263
-0.0795202
0.491277
-0.0707414
0.485451
-0.0616646
0.480985
-0.0510632
0.478128
-0.0411645
0.477154
-0.0288777
0.47814
-0.0180241
0.481258
-0.00394108
0.00771791
0.508068
-0.0748542
0.496881
-0.0683337
0.487472
-0.0613327
0.479816
-0.0540079
0.474103
-0.0453508
0.470146
-0.0372072
0.468489
-0.0272207
0.468739
-0.0182739
0.471567
-0.00676899
0.00287245
0.506201
-0.06093
0.493829
-0.0559617
0.483268
-0.0507711
0.474568
-0.045308
0.468048
-0.0388304
0.46341
-0.0325693
0.461163
-0.0249744
0.460867
-0.0179772
0.463256
-0.00915856
-0.00151605
0.503314
-0.0462355
0.490138
-0.0427861
0.478708
-0.0393409
0.469146
-0.0357458
0.461764
-0.031449
0.456337
-0.0271422
0.453264
-0.0219013
0.452222
-0.0169354
0.453869
-0.0108048
-0.00534346
0.496289
-0.0299187
0.481576
-0.0280738
0.468676
-0.0264408
0.457659
-0.0247289
0.448761
-0.0225511
0.441816
-0.0201966
0.437158
-0.0172431
0.434556
-0.0143338
0.434544
-0.0107923
-0.00757362
0.457136
-0.0116654
0.440721
-0.0116592
0.425977
-0.0116967
0.412843
-0.0115945
0.401455
-0.0111634
0.39176
-0.0105021
0.384047
-0.00952944
0.378202
-0.00848883
0.374617
-0.00720782
-0.00600938
0.276225
0.264565
0.252869
0.241274
0.230111
0.219609
0.210079
0.201591
0.194383
0.00756415
0.0415696
-0.0491337
0.0179533
0.111859
-0.122249
0.0248498
0.159763
-0.16666
0.0272445
0.185716
-0.188111
0.0263032
0.196826
-0.195885
0.0234321
0.199773
-0.196902
0.0196234
0.198401
-0.194592
0.0155162
0.193712
-0.189605
0.0117055
0.184271
-0.180461
0.166387
0.00879893
-0.163481
0.00896789
0.0326017
0.0239233
0.096904
0.0364596
0.147227
0.0439561
0.17822
0.0470657
0.193716
0.0473052
0.199533
0.0458957
0.199811
0.0435066
0.196101
0.0403047
0.187473
0.170653
0.0360394
0.00945126
0.0231504
0.0282421
0.0781131
0.046795
0.128674
0.0603708
0.164644
0.06851
0.185577
0.0725398
0.195504
0.0738731
0.198477
0.0732729
0.196701
0.0707512
0.189995
0.176121
0.0652832
0.0088985
0.0142519
0.0298225
0.0571891
0.0539884
0.104508
0.0745405
0.144092
0.0890642
0.171053
0.0981219
0.186446
0.103159
0.19344
0.10524
0.19462
0.104294
0.190941
0.181134
0.0992808
0.00745005
0.00680188
0.0279581
0.0366811
0.0557561
0.0767101
0.0832782
0.11657
0.105626
0.148706
0.121451
0.170621
0.131598
0.183293
0.137305
0.188914
0.139255
0.188991
0.184562
0.135827
0.00550593
0.00129596
0.0230765
0.0191106
0.0508388
0.0489478
0.083072
0.0843363
0.113591
0.118186
0.138477
0.145735
0.156529
0.165241
0.16839
0.177052
0.174895
0.182486
0.182911
0.176546
0.0035314
-0.00223544
0.0166206
0.00602131
0.0403754
0.025193
0.0724643
0.0522474
0.107988
0.0826623
0.141853
0.11187
0.170426
0.136668
0.191971
0.155507
0.206674
0.167784
0.176366
0.213219
0.00169139
-0.00392683
0.00989108
-0.00217838
0.0271984
0.00788573
0.0541832
0.0252625
0.0887696
0.0480759
0.127066
0.0735731
0.164884
0.098851
0.198473
0.121918
0.225819
0.140438
0.154348
0.247837
-0.000123175
-0.00380365
0.00339718
-0.00569873
0.0137313
-0.00244835
0.032906
0.00608778
0.0611715
0.0198104
0.0969331
0.0378116
0.137282
0.0585025
0.179008
0.0801917
0.216913
0.102532
0.117423
0.253838
-0.00138034
-0.00242331
-0.000769313
-0.00630976
0.00480368
-0.00802134
0.0171837
-0.0062922
0.0373467
-0.000352628
0.0656419
0.00951638
0.101212
0.0229324
0.142661
0.0387425
0.188093
0.0571001
0.07269
0.232826
-0.00042411
-0.0019992
0.00147126
-0.00820512
0.00711895
-0.013669
0.0170901
-0.0162634
0.0319676
-0.0152302
0.0521456
-0.0106616
0.0780605
-0.00298242
0.109414
0.00738854
0.146631
0.0198837
0.0358349
0.183486
0.0019716
-0.0039708
0.00793261
-0.0141661
0.0170968
-0.0228332
0.0286375
-0.0278041
0.0421669
-0.0287595
0.0577496
-0.0262443
0.0757378
-0.0209706
0.0966449
-0.0135186
0.120883
-0.00435404
0.00839628
0.148321
0.00373849
-0.00770929
0.0118881
-0.0223158
0.0220734
-0.0330184
0.0330281
-0.0387589
0.0444185
-0.04015
0.0564369
-0.0382627
0.0694486
-0.0339822
0.083746
-0.0278159
0.0992901
-0.0198981
-0.00965085
0.117337
0.00337511
-0.0110844
0.00918376
-0.0281244
0.0150139
-0.0388486
0.0201995
-0.0439445
0.0251143
-0.0450647
0.0305274
-0.0436758
0.0371871
-0.040642
0.0456471
-0.0362758
0.0561818
-0.0304329
-0.0224981
0.069029
0.00123559
-0.01232
0.00202401
-0.0289128
0.00130719
-0.0381318
-0.000561662
-0.0420756
-0.00271727
-0.0429091
-0.00428443
-0.0421086
-0.00455187
-0.0403745
-0.00297634
-0.0378514
0.000971973
-0.0343812
-0.0294227
0.0078966
-0.00121703
-0.011103
-0.00509915
-0.0250307
-0.0109519
-0.0322791
-0.0178015
-0.0352259
-0.0248141
-0.0358966
-0.0314071
-0.0355156
-0.0371725
-0.0346091
-0.0417651
-0.0332588
-0.0448724
-0.0312738
-0.0283854
-0.0459098
-0.00314727
-0.0079557
-0.0101922
-0.0179857
-0.0191619
-0.0233094
-0.028705
-0.0256829
-0.0380674
-0.0265342
-0.0469031
-0.0266799
-0.055059
-0.0264532
-0.062404
-0.0259138
-0.0686945
-0.0249834
-0.0234613
-0.0736185
-0.00450754
-0.00344816
-0.0135846
-0.00890871
-0.0244134
-0.0124806
-0.0353908
-0.0147055
-0.0457484
-0.0161766
-0.0551995
-0.0172288
-0.0636767
-0.0179761
-0.0711564
-0.0184341
-0.077542
-0.0185977
-0.0183764
-0.082627
-0.0052613
0.00181314
-0.0154371
0.00126706
-0.0272273
-0.000690376
-0.0388956
-0.00303717
-0.0496494
-0.00542272
-0.0591916
-0.00768657
-0.0674531
-0.00971463
-0.0744325
-0.0114547
-0.0800999
-0.0129303
-0.0141592
-0.0843171
-0.00552335
-0.0160615
-0.0281906
-0.0401156
-0.0510002
-0.0605038
-0.0685419
-0.0751032
-0.0801982
-0.0837517
0.252346
0.316993
-0.385853
0.277164
0.3631
-0.387918
0.255505
0.162034
-0.140375
0.214048
0.0663211
-0.0248642
0.190702
0.0254632
-0.00211725
0.185878
0.000284361
0.0045397
0.189269
-0.012745
0.00935427
0.194662
-0.0148821
0.00948899
0.200828
-0.0164391
0.0102724
-0.0130405
0.00737997
0.242674
0.22264
0.268397
0.337377
0.234777
0.195654
0.199209
0.101889
0.187203
0.0374692
0.187915
-0.000428079
0.192482
-0.0173118
0.197423
-0.0198236
0.202586
-0.0216014
-0.0175359
0.209807
0.13017
0.224728
0.322457
0.195988
0.224394
0.181774
0.116104
0.18403
0.0352132
0.189715
-0.00611321
0.195192
-0.0227883
0.199669
-0.0243012
0.203899
-0.0258313
-0.0209549
0.138859
0.0603404
0.154101
0.307215
0.155942
0.222553
0.169742
0.102304
0.183247
0.0217077
0.191923
-0.0147888
0.197723
-0.0285882
0.201672
-0.0282504
0.205047
-0.0292069
-0.0234081
0.050725
0.0175119
0.0898912
0.268048
0.132364
0.18008
0.16556
0.0691077
0.184467
0.00280102
0.194344
-0.0246657
0.200073
-0.0343175
0.20348
-0.0316575
0.206094
-0.0318204
-0.0250148
-0.0114643
-0.0169336
0.0581369
0.198447
0.1266
0.111616
0.166362
0.0293463
0.186613
-0.0174499
0.196715
-0.0347677
0.202195
-0.0397982
0.205097
-0.0345597
0.207052
-0.0337748
-0.0258978
-0.0372375
-0.0533146
0.0561136
0.105096
0.129466
0.0382632
0.168912
-0.0100989
0.18889
-0.0374286
0.198856
-0.0447336
0.204052
-0.0449946
0.206519
-0.0370258
0.207923
-0.0351796
-0.0261827
-0.0354987
-0.100443
0.065917
0.0036805
0.133912
-0.0297319
0.171475
-0.0476618
0.190908
-0.0568612
0.200679
-0.0545049
0.205626
-0.0499411
0.207741
-0.0391406
0.208708
-0.0361468
-0.0259962
-0.0270895
-0.15767
0.0748885
-0.0982975
0.137275
-0.0921184
0.173425
-0.0838122
0.192504
-0.0759395
0.202143
-0.0641443
0.206905
-0.0547027
0.208761
-0.0409967
0.209404
-0.0367899
-0.0254664
-0.0212731
0.079265
0.139142
0.174667
0.193637
0.203234
0.207885
0.209578
0.210011
0.0162674
0.0633933
-0.0796608
-0.00985292
0.0261204
0.0023312
-0.0121841
0.0268505
-0.0245192
0.0426833
-0.0158328
0.0489963
-0.00631307
0.0513478
-0.00235145
0.052398
-0.0010502
0.0531127
-0.000714695
-0.000486973
0.14084
0.206458
-0.283904
0.0609144
0.106046
0.0652113
-0.016481
0.0959649
-0.0552729
0.116926
-0.0367939
0.126264
-0.0156507
0.130538
-0.00662583
0.132875
-0.00338735
0.134727
-0.00256691
-0.00169016
0.299172
0.342535
-0.435249
0.181714
0.223504
0.149239
0.0159944
0.156254
-0.0622877
0.166376
-0.0469166
0.172274
-0.0215486
0.176029
-0.0103809
0.178665
-0.0060227
0.181144
-0.00504622
-0.00338409
0.40689
0.414556
-0.478912
0.298885
0.331509
0.23863
0.0762494
0.211011
-0.0346688
0.198909
-0.0348145
0.195704
-0.0183435
0.196756
-0.0114329
0.198841
-0.00810798
0.201473
-0.00767761
-0.00533112
0.437532
-0.408828
0.381123
0.316997
0.257464
0.220532
0.206729
0.20465
0.206031
0.208626
0.0110436
-0.000129257
-0.0109143
0.0126355
-0.00159192
0.0156032
-0.00296764
0.0200728
-0.00446966
0.0261245
-0.00605169
0.0342787
-0.00815419
0.0429969
-0.00871819
0.0552527
-0.0122558
0.0664502
-0.0111975
-0.0132106
0.0307612
-0.000830517
-0.0300599
0.0354512
-0.00628196
0.0441905
-0.0117069
0.0577601
-0.0180393
0.0770864
-0.025378
0.102218
-0.033286
0.13499
-0.0414904
0.176561
-0.0538263
0.223072
-0.0577087
-0.0740427
0.0479256
-0.00241437
-0.0463417
0.0555407
-0.0138971
0.0694829
-0.0256491
0.0913926
-0.0399491
0.121508
-0.0554937
0.162205
-0.0739824
0.214424
-0.0937101
0.276105
-0.115507
0.351938
-0.133542
-0.157354
0.0622786
-0.00505151
-0.0596415
0.0723594
-0.0239779
0.0905745
-0.0438641
0.118557
-0.0679317
0.156221
-0.0931577
0.207084
-0.124846
0.267105
-0.15373
0.336739
-0.185141
0.418861
-0.215664
-0.217405
0.0738487
-0.0701013
0.0859102
0.107329
0.138678
0.181347
0.233048
0.292536
0.355232
0.393407
0.0842382
-0.0754286
0.0836616
-0.0924711
0.0754114
-0.0765843
0.0854111
0.0663582
-0.0784404
0.0874937
0.0567026
-0.0804016
0.0900572
0.0463037
-0.0823361
0.092735
0.0352719
-0.083939
0.0949707
0.0239688
-0.084079
0.0953821
0.0131497
-0.079816
0.0906352
0.00429886
-0.0654093
0.0742601
-0.0320729
0.0363717
0.0925307
-0.0658342
-0.102125
0.0825538
-0.0666074
0.0718712
-0.0677579
0.060561
-0.0690914
0.0488155
-0.0705906
0.0368331
-0.0719566
0.0248937
-0.0721396
0.0136362
-0.0685585
0.00446859
-0.0562417
-0.0276043
0.0921575
-0.055069
-0.102923
0.0813194
-0.0557693
0.0703132
-0.0567517
0.0591512
-0.0579293
0.0477909
-0.0592303
0.0362029
-0.0603686
0.0245462
-0.0604829
0.0134487
-0.057461
0.00438034
-0.0471733
-0.0232239
0.0965866
-0.0442638
-0.107392
0.0856225
-0.0448052
0.0744269
-0.0455561
0.0629041
-0.0464064
0.0509918
-0.0473181
0.0387221
-0.0480989
0.0263375
-0.0480983
0.0145257
-0.0456493
0.0048066
-0.0374542
-0.0184173
0.0980932
-0.0330572
-0.1093
0.0867576
-0.0334696
0.0751646
-0.0339631
0.0632921
-0.0345339
0.0511347
-0.0351606
0.0387397
-0.035704
0.026316
-0.0356746
0.0144953
-0.0338285
0.00477515
-0.027734
-0.0136422
0.100634
-0.0218009
-0.11189
0.0891241
-0.02196
0.0773557
-0.0221948
0.0652951
-0.0224733
0.0529176
-0.0227831
0.0402448
-0.0230312
0.02747
-0.0228998
0.015235
-0.0215935
0.00508296
-0.017582
-0.00855922
0.102078
-0.0103051
-0.113574
0.0903856
-0.0102675
0.0784301
-0.0102393
0.0661855
-0.0102286
0.0536303
-0.010228
0.0407895
-0.0101904
0.0278542
-0.00996445
0.0154595
-0.00919885
0.0051603
-0.00728279
-0.00339892
0.103561
0.00127039
-0.115136
0.0917327
0.00156036
0.0796308
0.00186252
0.0672279
0.00217427
0.0545048
0.00249515
0.0414882
0.00282625
0.0283691
0.00315461
0.0157824
0.0033879
0.00529168
0.00320792
0.00189276
0.10454
0.0129511
-0.11622
0.0926112
0.0134889
0.0804078
0.0140659
0.067904
0.0146781
0.0550794
0.0153198
0.0419562
0.0159494
0.0287189
0.0163919
0.0159991
0.0161077
0.00537454
0.0138325
0.00726731
0.105109
-0.116862
0.0931126
0.0808415
0.0682719
0.0553838
0.0421979
0.0288955
0.016106
0.00541433
0.014427
-0.161278
-0.0166295
0.00972011
-0.175754
0.00393881
-0.183823
-0.00201229
-0.188641
-0.00747186
-0.191442
-0.011642
-0.191714
-0.0133742
-0.186379
-0.0113815
-0.168652
-0.00555436
-0.128076
-0.0546881
0.0385406
-0.158128
-0.0416914
0.0321932