/*--------------------------------*- C++ -*----------------------------------*\
  =========                 |
  \\      /  F ield         | OpenFOAM: The Open Source CFD Toolbox
   \\    /   O peration     | Website:  https://openfoam.org
    \\  /    A nd           | Version:  13
     \\/     M anipulation  |
\*---------------------------------------------------------------------------*/
FoamFile
{
    format      ascii;
    class       surfaceScalarField;
    location    "0.91";
    object      phi;
}
// * * * * * * * * * * * * * * * * * * * * * * * * * * * * * * * * * * * * * //

dimensions      [0 3 -1 0 0 0 0];

internalField   nonuniform List<scalar> 
3485
(
0.00137167
-0.011258
0.00988628
0.00505117
-0.0319067
0.0282272
0.0107642
-0.0513828
0.0456698
0.0183125
-0.0696769
0.0621286
0.0275453
-0.0868351
0.0776023
0.0383482
-0.102901
0.0920983
0.0506328
-0.117907
0.105622
0.0643558
-0.131871
0.118148
0.0796148
-0.144862
0.129603
-0.156896
0.139505
0.0970056
0.00150034
-0.0127583
0.00544583
-0.0358522
0.0114762
-0.0574132
0.0193235
-0.0775242
0.0287728
-0.0962843
0.0396465
-0.113775
0.0518006
-0.130061
0.065127
-0.145198
0.0795342
-0.159269
-0.172198
0.0948362
0.00147418
-0.0142325
0.00532699
-0.039705
0.0111745
-0.0632607
0.0187208
-0.0850705
0.0277252
-0.105289
0.0379883
-0.124038
0.0493441
-0.141416
0.061653
-0.157507
0.074783
-0.172399
-0.186037
0.0886225
0.00133887
-0.0155713
0.00485904
-0.0432252
0.0102109
-0.0686125
0.017117
-0.0919767
0.0253538
-0.113525
0.03474
-0.133424
0.0451299
-0.151806
0.0564032
-0.16878
0.0684532
-0.184449
-0.198791
0.0812067
0.00116693
-0.0167383
0.00425599
-0.0463142
0.00897313
-0.0733296
0.0150817
-0.0980853
0.0223916
-0.120835
0.0307522
-0.141785
0.0400458
-0.1611
0.0501797
-0.178914
0.0610763
-0.195346
-0.210402
0.0726877
0.000980024
-0.0177183
0.00358795
-0.0489221
0.00758659
-0.0773283
0.0127839
-0.103283
0.019026
-0.127077
0.0261924
-0.148951
0.0341912
-0.169099
0.042953
-0.187676
0.0524228
-0.204816
-0.220549
0.0625696
0.000780725
-0.018499
0.002865
-0.0510064
0.00606896
-0.0805322
0.0102428
-0.107456
0.0152665
-0.132101
0.0210466
-0.154732
0.027514
-0.175566
0.0346202
-0.194782
0.0423308
-0.212526
-0.228851
0.0506323
0.000569701
-0.0190687
0.00209345
-0.0525302
0.00443785
-0.0828766
0.00749264
-0.110511
0.0111686
-0.135777
0.0153967
-0.15896
0.0201274
-0.180297
0.0253293
-0.199984
0.0309862
-0.218183
-0.234967
0.0371027
0.000352505
-0.0194212
0.00129575
-0.0534734
0.00274499
-0.0843259
0.0046283
-0.112394
0.00688642
-0.138035
0.00947301
-0.161546
0.0123552
-0.183179
0.0155141
-0.203143
0.0189446
-0.221614
-0.238684
0.0226613
0.000137792
-0.019559
0.000502453
-0.0538381
0.00105695
-0.0848804
0.00176951
-0.113107
0.00261367
-0.138879
0.00356834
-0.162501
0.00461803
-0.184229
0.00575323
-0.204278
0.00697048
-0.222831
0.00827487
-0.239988
0.000487135
-0.0018685
0.00138137
0.00208553
-0.00625514
0.00465674
0.00542666
-0.0114272
0.00808606
0.0101149
-0.016204
0.0115157
0.015539
-0.0201971
0.0147731
0.0214355
-0.0235925
0.017696
0.027901
-0.0267734
0.0203079
0.0350842
-0.0299686
0.0227853
0.0429698
-0.0331297
0.025244
-0.0361042
0.0514237
0.0276503
0.0004268
-0.0022953
0.00211023
-0.00793857
0.00543701
-0.014754
0.00981281
-0.0205798
0.0148829
-0.0252672
0.0207576
-0.0294672
0.0276102
-0.033626
0.0353886
-0.037747
0.0438808
-0.0416219
-0.0451452
0.0529219
0.000682842
-0.00297814
0.00271677
-0.0099725
0.00577935
-0.0178166
0.00976
-0.0245604
0.0148123
-0.0303195
0.0211092
-0.0357642
0.0285817
-0.0410984
0.0369495
-0.0461147
0.0459935
-0.050666
-0.0547746
0.0556228
0.000868646
-0.00384679
0.00306155
-0.0121654
0.00607868
-0.0208337
0.0101992
-0.0286809
0.0156966
-0.0358169
0.0225541
-0.0426217
0.0305292
-0.0490735
0.0393848
-0.0549704
0.0490262
-0.0603073
-0.0651198
0.0593714
0.000923406
-0.0047702
0.00320113
-0.0144431
0.00651898
-0.0241515
0.0111164
-0.0332783
0.0171341
-0.0418347
0.0244469
-0.0499344
0.0328625
-0.0574891
0.0422837
-0.0643917
0.0526478
-0.0706714
-0.0762942
0.0638222
0.000944146
-0.00571434
0.0033731
-0.0168721
0.0070915
-0.0278699
0.0121742
-0.038361
0.0186324
-0.0482928
0.0263545
-0.0576566
0.0352436
-0.0663782
0.0452525
-0.0744005
0.0563028
-0.0817217
-0.0882282
0.0682368
0.000980126
-0.00669447
0.00358431
-0.0194763
0.00764146
-0.0319271
0.013107
-0.0438265
0.0199253
-0.0551112
0.02801
-0.0657414
0.037299
-0.0756671
0.0477462
-0.0848478
0.0592788
-0.0932543
-0.100701
0.0717518
0.00101811
-0.00771258
0.00376796
-0.0222261
0.00807126
-0.0362304
0.0138198
-0.049575
0.0209191
-0.0622105
0.0292803
-0.0741025
0.0388336
-0.0852205
0.0495224
-0.0955366
0.0612883
-0.10502
-0.113444
0.0740309
0.00105469
-0.00876728
0.00393686
-0.0251083
0.0084611
-0.0407546
0.0144821
-0.055596
0.0218736
-0.069602
0.0305251
-0.0827541
0.0403416
-0.0950369
0.051234
-0.106429
0.0631215
-0.116908
-0.126322
0.0759994
0.001119
0.00423791
0.00915312
0.0156857
0.023686
0.0330303
0.0436154
0.0553345
0.0680298
0.0812133
0.114325
-0.414647
0.351746
0.168131
-0.471969
0.418162
0.210279
-0.422148
0.38
0.244168
-0.32698
0.29309
0.270983
-0.214693
0.187878
0.2916
-0.11033
0.0897128
0.305178
-0.0321105
0.0185326
0.310514
0.0104855
-0.0158216
0.311191
0.0249605
-0.0256375
0.0205007
-0.0194632
0.115901
-0.477627
0.169684
-0.525752
0.2118
-0.464263
0.245427
-0.360607
0.272388
-0.241654
0.293805
-0.131746
0.31014
-0.0484451
0.319437
0.00118849
0.323395
0.0210025
0.0197864
0.117708
-0.539712
0.170505
-0.578548
0.212209
-0.505967
0.245216
-0.393615
0.272035
-0.268473
0.293761
-0.153472
0.311698
-0.0663817
0.324425
-0.0115393
0.332844
0.0125838
0.0161255
0.120089
-0.60043
0.170871
-0.62933
0.211686
-0.546782
0.243767
-0.425696
0.270171
-0.294878
0.291948
-0.17525
0.310737
-0.0851702
0.32535
-0.0261528
0.338132
-0.000197531
0.00762388
0.122989
-0.659597
0.170983
-0.677324
0.210363
-0.586161
0.24127
-0.456603
0.266996
-0.320604
0.288661
-0.196915
0.308008
-0.104518
0.323595
-0.0417397
0.339325
-0.0159277
-0.00578602
0.125849
-0.717209
0.17087
-0.722346
0.208319
-0.623611
0.237862
-0.486146
0.262665
-0.345406
0.2841
-0.21835
0.303768
-0.124186
0.320261
-0.0582321
0.335924
-0.0315913
-0.0183365
0.12779
-0.773247
0.170345
-0.764901
0.205604
-0.65887
0.233659
-0.514201
0.25732
-0.369067
0.278398
-0.239428
0.29823
-0.144019
0.315651
-0.0756523
0.329595
-0.0455358
-0.0270918
0.127873
-0.827089
0.168926
-0.805953
0.202077
-0.692021
0.228625
-0.540748
0.251005
-0.391448
0.271552
-0.259975
0.291718
-0.164184
0.308379
-0.0923133
0.318997
-0.0561541
-0.0338177
0.125796
-0.876886
0.166203
-0.84636
0.197689
-0.723507
0.222848
-0.565907
0.243826
-0.412426
0.263635
-0.279783
0.28313
-0.183679
0.297198
-0.106381
0.30485
-0.0638058
-0.0403854
0.122114
-0.917787
0.161378
-0.885624
0.191565
-0.753693
0.215622
-0.589964
0.235285
-0.432089
0.254465
-0.298963
0.270777
-0.199992
0.281657
-0.117261
0.289153
-0.0713021
-0.0472706
0.583956
-0.920265
-0.581478
0.561183
-0.862851
0.523942
-0.716452
0.487836
-0.553858
0.460455
-0.404708
0.443691
-0.282199
0.431275
-0.187576
0.424986
-0.110972
0.421658
-0.0679745
-0.045791
0.68287
-0.871673
-0.731463
0.619673
-0.799653
0.553837
-0.650617
0.496206
-0.496227
0.450465
-0.358968
0.418442
-0.250176
0.398152
-0.167285
0.388452
-0.101272
0.383035
-0.0625578
-0.0425148
0.753983
-0.775227
-0.850429
0.655067
-0.700737
0.563315
-0.558865
0.487173
-0.420084
0.429096
-0.300891
0.388794
-0.209874
0.363211
-0.141703
0.349979
-0.0880398
0.34256
-0.0551392
-0.0377841
0.778963
-0.641711
-0.912479
0.653684
-0.575459
0.546164
-0.451345
0.460842
-0.334763
0.39775
-0.237799
0.35391
-0.166033
0.325458
-0.11325
0.309693
-0.0722749
0.300597
-0.0460436
-0.0319296
0.75296
-0.492446
-0.902225
0.617524
-0.440023
0.506117
-0.339937
0.419994
-0.248639
0.357337
-0.175142
0.313718
-0.122415
0.284808
-0.0843403
0.267747
-0.055214
0.257497
-0.0357932
-0.0253079
0.685094
-0.345841
-0.831699
0.552683
-0.307612
0.44642
-0.233674
0.365942
-0.168162
0.308178
-0.117378
0.267946
-0.0821831
0.240801
-0.0571955
0.223944
-0.0383568
0.213351
-0.0252001
-0.0183828
0.582614
-0.213864
-0.714592
0.462882
-0.18788
0.369302
-0.140094
0.299919
-0.0987787
0.250849
-0.0683072
0.216671
-0.0480047
0.193238
-0.0337632
0.178068
-0.0231861
0.168138
-0.0152708
-0.0117243
0.448757
-0.105525
-0.557096
0.351175
-0.0902976
0.27705
-0.0659695
0.223518
-0.0452469
0.186244
-0.0310332
0.160238
-0.0219982
0.142123
-0.0156492
0.129978
-0.0110402
0.1218
-0.00709362
-0.00597579
0.28659
-0.030221
-0.361894
0.220908
-0.0246157
0.172486
-0.0175472
0.138709
-0.0114693
0.115472
-0.00779602
0.0991076
-0.00563431
0.0875287
-0.00407031
0.0795118
-0.00302329
0.074182
-0.0017638
-0.00182868
0.101315
-0.131536
0.0766997
0.0591525
0.0476832
0.0398872
0.0342529
0.0301826
0.0271593
0.0253955
0.73882
0.0102223
-0.740768
0.733074
0.0284072
0.723436
0.0467414
0.710163
0.0639052
0.69357
0.0791624
0.674077
0.0921811
0.652273
0.10301
0.628714
0.112182
0.60427
0.11928
0.119798
0.845548
0.0133981
-0.848724
0.837321
0.0366344
0.827288
0.0567748
0.816594
0.0745994
0.805251
0.090505
0.792897
0.104535
0.779284
0.116623
0.764589
0.126877
0.749124
0.134744
0.137459
0.844982
0.0114253
-0.843009
0.848881
0.0327347
0.853018
0.0526378
0.85647
0.0711481
0.858831
0.0881436
0.859918
0.103448
0.859594
0.116947
0.857966
0.128505
0.8553
0.137411
0.14233
0.800213
0.00930439
-0.798092
0.80582
0.027127
0.814418
0.0440405
0.825635
0.0599302
0.839
0.0747792
0.853848
0.0885997
0.869417
0.101378
0.88505
0.112872
0.899935
0.122525
0.129786
0.737865
0.00703869
-0.7356
0.744154
0.0208384
0.754123
0.0340714
0.767503
0.0465501
0.784083
0.0581998
0.80366
0.0690223
0.825987
0.0790509
0.85062
0.0882393
0.87654
0.0966057
0.104102
0.653921
0.00485393
-0.651736
0.660203
0.0145561
0.670378
0.0238963
0.684221
0.0327074
0.701525
0.0408959
0.722111
0.0484359
0.745805
0.0553567
0.772329
0.0617158
0.801216
0.0677186
0.0736186
0.549112
0.00291606
-0.547174
0.554812
0.00885588
0.564138
0.0145705
0.576905
0.01994
0.592915
0.0248867
0.611968
0.0293826
0.633871
0.033454
0.658406
0.0371801
0.685379
0.0407461
0.0444058
0.422793
0.0013757
-0.421252
0.427413
0.00423594
0.435008
0.0069756
0.445422
0.00952586
0.45847
0.0118388
0.473957
0.0138957
0.491697
0.0157138
0.511527
0.0173497
0.533346
0.0189271
0.020656
0.273828
0.000366654
-0.272819
0.276915
0.00114943
0.281999
0.00189174
0.288955
0.00256941
0.29763
0.00316447
0.307856
0.00366915
0.319482
0.00408805
0.332395
0.00443667
0.346562
0.00476039
0.00532319
0.100484
-0.100117
0.101633
0.103525
0.106094
0.109259
0.112928
0.117016
0.121453
0.126213
0.077929
0.159505
-0.142492
-0.0949416
0.0630257
0.147461
-0.132557
0.049617
0.134406
-0.120998
0.0376024
0.120332
-0.108318
0.0270258
0.105171
-0.0945942
0.0179775
0.0888944
-0.079846
0.0105726
0.0714606
-0.0640558
0.00496321
0.0528094
-0.0472
0.00134799
0.0328743
-0.0292591
0.0116389
-0.0102909
0.0779391
0.174434
-0.0928685
0.06387
0.16153
0.050839
0.147437
0.0389376
0.132234
0.0282758
0.115833
0.0190001
0.0981701
0.0112895
0.0791712
0.00535956
0.0587393
0.00147721
0.0367566
0.0131162
0.0731785
0.187928
-0.0866729
0.0603694
0.174339
0.04835
0.159457
0.0372485
0.143335
0.027203
0.125878
0.0183792
0.106994
0.0109766
0.0865738
0.00523535
0.0644806
0.00144963
0.0405423
0.0145658
0.0667704
0.200353
-0.0791951
0.0550327
0.186077
0.0440492
0.17044
0.0339216
0.153463
0.0247664
0.135033
0.016727
0.115033
0.00998166
0.0933191
0.00475147
0.0697108
0.00130965
0.0439842
0.0158754
0.0593121
0.211657
-0.0706157
0.0487151
0.196674
0.0388673
0.180288
0.0298411
0.162489
0.0217242
0.14315
0.0146295
0.122128
0.00870233
0.0992463
0.00412645
0.0742867
0.00113097
0.0469796
0.0170064
0.0505978
0.221521
-0.0604617
0.0414109
0.205861
0.0329274
0.188772
0.0251972
0.170219
0.0182837
0.150064
0.0122721
0.12814
0.00727496
0.104243
0.00343653
0.0781251
0.000937284
0.0494789
0.0179437
0.0404571
0.229564
-0.0485
0.0330126
0.213305
0.0261763
0.195608
0.0199772
0.176418
0.0144573
0.155583
0.00967743
0.13292
0.00572043
0.1082
0.00269376
0.0811517
0.00073184
0.0514408
0.0186755
0.029054
0.235441
-0.0349316
0.0236511
0.218708
0.0187146
0.200544
0.0142551
0.180878
0.0102962
0.159542
0.00687752
0.136338
0.0040556
0.111022
0.00190427
0.0833031
0.000515283
0.0528298
0.0191908
0.0169174
0.238926
-0.0204019
0.0137418
0.221884
0.0108549
0.203431
0.0082548
0.183478
0.00595148
0.161846
0.0039665
0.138323
0.00233218
0.112657
0.00109066
0.0845446
0.000293242
0.0536272
0.019484
0.00482785
-0.00589045
0.00388044
0.00303405
0.00228342
0.00162818
0.00107202
0.000621626
0.000285833
7.49726e-05
0.0436744
0.0414172
-0.0525741
-0.0325175
0.0352945
0.0383676
-0.0299876
0.0276213
0.0349671
-0.0272938
0.0208821
0.0313507
-0.0246115
0.0150801
0.0277817
-0.0219797
0.00997362
0.0242225
-0.019116
0.00544374
0.020086
-0.0155561
0.00197691
0.014473
-0.0110061
0.000386996
0.00740016
-0.00581024
0.00208935
-0.00170235
0.0437654
0.0505907
-0.0529389
0.0351113
0.0470217
0.0270674
0.0430109
0.0199164
0.0385016
0.0139757
0.0337224
0.0092533
0.0289449
0.00550433
0.023835
0.00257654
0.0174008
0.000622013
0.00935469
0.00271136
0.0449368
0.0601489
-0.0544949
0.0360119
0.0559466
0.0277713
0.0512515
0.0203316
0.0459414
0.0140183
0.0400356
0.00909687
0.0338664
0.00551374
0.0274181
0.00289171
0.0200228
0.00080952
0.0114369
0.00352088
0.0473582
0.0703357
-0.057545
0.0379225
0.0653823
0.0293528
0.0598212
0.0216869
0.0536073
0.0150498
0.0466727
0.00970043
0.0392158
0.00576069
0.0313579
0.0029581
0.0228254
0.000874766
0.0135202
0.00439565
0.0508235
0.0812613
-0.0617492
0.0407204
0.0754854
0.031604
0.0689376
0.0235366
0.0616747
0.0165412
0.0536682
0.0107441
0.0450128
0.0062807
0.0358213
0.00306073
0.0260453
0.000880104
0.0157009
0.00527575
0.0545224
0.0928576
-0.0661186
0.043802
0.0862057
0.0341207
0.0786189
0.0255532
0.0702421
0.0181213
0.0611001
0.0118811
0.0512531
0.00692756
0.0407748
0.00327799
0.0296949
0.000908337
0.0180705
0.00618409
0.0575781
0.104938
-0.0696591
0.0464193
0.0973645
0.036317
0.0887212
0.0273313
0.0792279
0.0194979
0.0689334
0.0128674
0.0578836
0.00751924
0.0461229
0.00352485
0.0336893
0.000959498
0.0206359
0.00714359
0.0596365
0.117265
-0.0719629
0.0482599
0.108741
0.0379182
0.0990629
0.0286567
0.0884895
0.020527
0.0770632
0.0135981
0.0648125
0.00796116
0.0517598
0.00372159
0.0379289
0.00100525
0.0233522
0.00814884
0.0614515
0.129718
-0.0739047
0.0499545
0.120238
0.0394058
0.109612
0.0298772
0.0980181
0.0214548
0.0854856
0.0142356
0.0720316
0.00833427
0.0576612
0.00388445
0.0423787
0.00104187
0.0261948
0.00919071
0.0663085
-0.0790826
0.0539892
0.0426031
0.0323034
0.0231948
0.0153803
0.0089858
0.00416453
0.00110024
0.213735
0.0621376
-0.0778833
0.236406
0.0904499
-0.113121
0.260939
0.124002
-0.148535
0.277115
0.112029
-0.128205
0.276283
0.109336
-0.108504
0.253268
0.17853
-0.155516
0.219003
0.293628
-0.259363
0.174901
0.412592
-0.36849
0.118445
0.494741
-0.438285
0.461769
-0.395898
0.213084
0.0470435
0.234667
0.0688667
0.258304
0.100366
0.275138
0.0951947
0.275915
0.108559
0.253663
0.200782
0.219209
0.328082
0.174647
0.457153
0.118103
0.551285
0.526933
0.212853
0.0321801
0.233589
0.0481309
0.256377
0.0775779
0.273209
0.0783623
0.274314
0.107454
0.252464
0.222632
0.217957
0.36259
0.17333
0.50178
0.117881
0.606735
0.590319
0.212975
0.0171947
0.23317
0.027936
0.255222
0.0555264
0.271572
0.0620117
0.271801
0.107226
0.249811
0.244622
0.215412
0.396989
0.171343
0.545849
0.118373
0.659704
0.651147
0.213316
0.00186891
0.233256
0.00799608
0.254625
0.0341566
0.269869
0.0467683
0.268289
0.108805
0.245773
0.267139
0.211773
0.430989
0.169106
0.588515
0.119714
0.709096
0.709113
0.213703
-0.0138447
0.233618
-0.011918
0.25426
0.0135142
0.267743
0.033285
0.263676
0.112873
0.240464
0.290351
0.207301
0.464152
0.166896
0.62892
0.121441
0.754552
0.764435
0.213963
-0.0298182
0.23405
-0.0320049
0.25384
-0.00627537
0.26496
0.0221647
0.257941
0.119892
0.234094
0.314198
0.202276
0.49597
0.164698
0.666498
0.122659
0.796591
0.817434
0.213995
-0.0458232
0.234434
-0.0524438
0.253145
-0.024987
0.261285
0.0140253
0.251011
0.130166
0.226791
0.338417
0.196748
0.526013
0.16208
0.701166
0.122343
0.836329
0.867814
0.213813
-0.0616464
0.234752
-0.073383
0.252055
-0.0422902
0.256747
0.00933329
0.243149
0.143764
0.218922
0.362644
0.190831
0.554104
0.158617
0.733381
0.120096
0.874849
0.914005
0.213686
-0.0773425
0.234973
-0.0946698
0.250562
-0.0578793
0.251015
0.00887987
0.233827
0.160952
0.209853
0.386618
0.183594
0.580362
0.153434
0.763542
0.116422
0.911861
0.951345
0.331948
-0.10728
0.370581
-0.133303
0.406986
-0.0942843
0.424368
-0.00850235
0.438819
0.146501
0.467398
0.358039
0.506588
0.541172
0.549579
0.720551
0.581375
0.880065
0.946215
0.586505
0.333649
-0.138918
0.373215
-0.17287
0.408383
-0.129452
0.422009
-0.0221289
0.435349
0.133162
0.475878
0.31751
0.534265
0.482785
0.604463
0.650354
0.675404
0.809124
0.888629
0.732989
0.33637
-0.173279
0.375495
-0.211994
0.408815
-0.162772
0.41686
-0.0301738
0.427114
0.122908
0.473871
0.270752
0.546438
0.410219
0.638798
0.557994
0.742283
0.705639
0.784496
0.846416
0.340524
-0.211792
0.373452
-0.244923
0.384191
-0.173511
0.38031
-0.0262929
0.398853
0.104365
0.452831
0.216774
0.534085
0.328965
0.640495
0.451584
0.767072
0.579061
0.647077
0.904492
0.348518
-0.2583
0.356603
-0.253008
0.337461
-0.154369
0.334126
-0.0229574
0.358487
0.0800037
0.413982
0.161279
0.497216
0.245732
0.607861
0.340939
0.743728
0.443193
0.495871
0.894934
0.340773
-0.297063
0.321152
-0.233387
0.287851
-0.121068
0.283863
-0.0189692
0.308854
0.0550129
0.361056
0.109076
0.439727
0.167061
0.545745
0.234921
0.67876
0.310178
0.347987
0.826643
0.314273
-0.309326
0.271557
-0.190671
0.23359
-0.0831003
0.228565
-0.0139441
0.250999
0.0325793
0.296138
0.0639368
0.364596
0.0986025
0.458321
0.141196
0.578795
0.189704
0.215105
0.711677
0.273773
-0.281089
0.212877
-0.129775
0.174324
-0.0445473
0.168751
-0.00837105
0.186227
0.0151034
0.220948
0.0292155
0.274165
0.0453857
0.348681
0.0666804
0.447049
0.091336
0.106139
0.556015
0.214647
-0.193726
0.140474
-0.0556022
0.10936
-0.0134326
0.104071
-0.00308287
0.115341
0.00383411
0.137263
0.00729301
0.171091
0.0115577
0.21997
0.017802
0.286339
0.0249661
0.0304074
0.362071
0.108284
0.0526822
0.0392496
0.0361667
0.0400008
0.0472938
0.0588515
0.0766535
0.10162
0.132027
0.608659
-0.117096
0.632322
-0.116532
0.65514
-0.10949
0.676291
-0.100346
0.695234
-0.089559
0.71137
-0.0765984
0.724263
-0.0613929
0.73359
-0.0442581
0.739075
-0.0258868
-0.00758337
0.750322
-0.134429
0.765225
-0.131434
0.779427
-0.123692
0.79265
-0.113569
0.804713
-0.101622
0.815848
-0.0877336
0.826403
-0.071948
0.836392
-0.0542472
0.844841
-0.0343355
-0.0114667
0.851037
-0.13905
0.853479
-0.133876
0.854993
-0.125206
0.85537
-0.113946
0.854522
-0.100773
0.852621
-0.0858331
0.849895
-0.0692218
0.846739
-0.0510905
0.843946
-0.0315429
-0.0105298
0.892549
-0.127106
0.878533
-0.11986
0.863853
-0.110527
0.849289
-0.0993826
0.835445
-0.0869292
0.823019
-0.0734067
0.812635
-0.0588383
0.804756
-0.0432111
0.799744
-0.0265314
-0.00887712
0.870308
-0.10248
0.845547
-0.0950999
0.821944
-0.0869228
0.800489
-0.0779278
0.781654
-0.0680941
0.765714
-0.0574669
0.75289
-0.0460142
0.743403
-0.0337242
0.737523
-0.0206517
-0.00695366
0.796996
-0.0728329
0.768933
-0.0670364
0.743122
-0.0611115
0.720037
-0.0548429
0.699971
-0.0480286
0.683112
-0.0406075
0.669641
-0.0325438
0.659769
-0.0238516
0.653726
-0.0146085
-0.00496383
0.682984
-0.0441392
0.656499
-0.0405523
0.632401
-0.0370128
0.610878
-0.0333203
0.592145
-0.0292955
0.576396
-0.0248581
0.563828
-0.0199764
0.554646
-0.0146697
0.549043
-0.00900561
-0.00309479
0.53251
-0.0206337
0.510908
-0.0189508
0.491275
-0.0173796
0.473704
-0.0157489
0.458351
-0.0139423
0.445397
-0.0119047
0.435037
-0.00961623
0.427458
-0.00709088
0.422824
-0.00437155
-0.00152291
0.346789
-0.00535166
0.332647
-0.00480907
0.319753
-0.00448487
0.308137
-0.00413359
0.297909
-0.00371366
0.289215
-0.00321087
0.282219
-0.00262002
0.277075
-0.0019474
0.273913
-0.00120947
-0.00042923
0.126675
0.121866
0.117381
0.113248
0.109534
0.106323
0.103703
0.101756
0.100546
0.000185057
0.0116093
-0.0117943
0.000623737
0.0304465
-0.0308852
0.00123716
0.0462418
-0.0468552
0.00197733
0.0594676
-0.0602078
0.00277662
0.0700217
-0.070821
0.00376954
0.0798893
-0.0808822
0.00396348
0.0772674
-0.0774614
0.00408486
0.0700426
-0.0701639
0.00394498
0.0610798
-0.0609399
0.0499562
0.00350723
-0.0495184
0.000533397
0.0110759
0.00180387
0.0291761
0.00358509
0.0444606
0.00574126
0.0573115
0.00807285
0.0676901
0.0110397
0.0769225
0.011676
0.0766311
0.0120809
0.0696377
0.0117737
0.061387
0.0510786
0.0106513
0.000835501
0.0102404
0.00283184
0.0271797
0.00563913
0.0416533
0.00904159
0.053909
0.0127395
0.0639922
0.0172475
0.0724145
0.0187903
0.0750884
0.0195719
0.0688561
0.0193857
0.0615732
0.052435
0.0180293
0.00105598
0.00918438
0.00359702
0.0246387
0.00719366
0.0380567
0.0115559
0.0495468
0.0163567
0.0591914
0.0217479
0.0670233
0.0250729
0.0717633
0.0263552
0.0675737
0.0266035
0.0613249
0.0535668
0.0254717
0.00115146
0.00803292
0.00397935
0.0218108
0.0080418
0.0339942
0.0129971
0.0445915
0.0185518
0.0536367
0.0245578
0.0610173
0.0299525
0.0663687
0.0320904
0.0654358
0.0330118
0.0604036
0.0540916
0.032487
0.0011115
0.00692142
0.00396604
0.0189563
0.00818569
0.0297746
0.0133904
0.0393868
0.0193183
0.0477088
0.0257723
0.0545633
0.0324163
0.0597247
0.0363131
0.061539
0.0381249
0.0585918
0.0537076
0.0385089
0.000926238
0.00599519
0.00357299
0.0163095
0.00771073
0.0256368
0.0128819
0.0342157
0.0187869
0.0418038
0.0253385
0.0480117
0.0323215
0.0527417
0.0382759
0.0555847
0.0415882
0.0552795
0.0521835
0.0431123
0.000567816
0.00542737
0.00278659
0.0140908
0.00665746
0.021766
0.0116213
0.0292519
0.0172043
0.0362208
0.0234475
0.0417685
0.0302863
0.0459029
0.0371846
0.0486863
0.0425622
0.0499019
0.0489244
0.0458213
0.000103731
0.00532364
0.00176842
0.0124261
0.00517548
0.0183589
0.00981458
0.0246128
0.0149566
0.0310788
0.0206209
0.0361042
0.0269034
0.0396204
0.0335873
0.0420024
0.0400857
0.0434036
0.0437955
0.0452146
-0.000175844
0.00549949
0.0010864
0.0111638
0.00385532
0.01559
0.00788574
0.0205823
0.0125
0.0264646
0.0175705
0.0310337
0.0231767
0.0340142
0.0292493
0.0359298
0.0356363
0.0370166
0.0373685
0.0420633
-2.17196e-05
0.00552121
0.001139
0.0100031
0.0032763
0.0134527
0.00641143
0.0174472
0.0102926
0.0225834
0.0148343
0.026492
0.0199547
0.0288938
0.0254875
0.0303969
0.0312257
0.0312784
0.031694
0.0369003
0.000376586
0.00514462
0.00153009
0.00884962
0.00317834
0.0118044
0.00548865
0.0151369
0.00870796
0.0193641
0.0128941
0.0223059
0.0177465
0.0240413
0.0230144
0.0251291
0.0285065
0.0257862
0.0260566
0.0341439
0.000623197
0.00452143
0.00170507
0.00776775
0.00302488
0.0104846
0.00484456
0.0133172
0.00783682
0.0163718
0.0119275
0.0182152
0.0166803
0.0192885
0.0218557
0.0199537
0.0273214
0.0203206
0.020402
0.0329759
0.000676545
0.00384488
0.00164207
0.00680223
0.00282221
0.00930445
0.00470693
0.0114325
0.0079846
0.0130941
0.0122183
0.0139815
0.0170382
0.0144686
0.0222828
0.0147091
0.0278556
0.0147478
0.0145868
0.0336707
0.000664789
0.00318009
0.00155652
0.00591049
0.00300245
0.00785852
0.00559606
0.00883888
0.00939405
0.00929613
0.0139227
0.00945281
0.0189727
0.00941859
0.0244446
0.00923719
0.0302707
0.00892182
0.00847834
0.0363792
0.000594945
0.00258514
0.00172404
0.00478138
0.00408024
0.00550231
0.00754725
0.00537186
0.0118094
0.00503395
0.0166666
0.00459558
0.0220176
0.00406761
0.0278032
0.00345162
0.0339719
0.00275309
0.0019852
0.040465
0.000528366
0.00205677
0.0025017
0.00280804
0.0057789
0.00222511
0.00978517
0.00136558
0.014384
0.000435139
0.01953
-0.000550435
0.0251933
-0.00159571
0.031331
-0.00268612
0.0378821
-0.00379798
-0.00491914
0.0447864
0.00088528
0.00117148
0.00363685
5.64535e-05
0.00720356
-0.00134162
0.0113941
-0.00282495
0.0161957
-0.00436646
0.0216192
-0.00597392
0.0276226
-0.00759918
0.0341147
-0.0091782
0.041012
-0.0106953
-0.0121811
0.0482739
0.00150688
-0.000335412
0.00413438
-0.00257106
0.007557
-0.00476424
0.0117753
-0.00704324
0.0167964
-0.00938754
0.0225403
-0.0117179
0.0288389
-0.0138978
0.0355709
-0.0159102
0.0427114
-0.0178358
-0.0197307
0.0502611
0.00104595
0.00313163
0.00645344
0.0109259
0.0163114
0.0222896
0.0286997
0.0355748
0.042983
0.0509025
0.0514304
0.0837005
-0.0982306
0.0773537
-0.00758339
-0.01834
0.10001
-0.0512656
0.0286093
0.113716
-0.0471909
0.0334849
0.121702
-0.0269213
0.0189356
0.125336
-0.00804472
0.0044104
0.126374
0.00341436
-0.0044529
0.12649
0.00744841
-0.00756393
0.126337
0.00792738
-0.0077743
0.00561004
-0.00615683
0.0586514
0.0591929
0.0917412
-0.0406732
0.118953
-0.0784777
0.135002
-0.0632394
0.143754
-0.0356731
0.147423
-0.0117143
0.148192
0.00264572
0.147961
0.00767877
0.147464
0.00842459
0.0054112
0.0666863
0.0254825
0.105144
-0.0791313
0.136196
-0.109529
0.155874
-0.0829182
0.165901
-0.0457003
0.169643
-0.0154558
0.170037
0.00225203
0.169301
0.00841472
0.168294
0.00943095
0.00570108
0.0755884
-0.0164352
0.118002
-0.121545
0.151951
-0.143478
0.175396
-0.106363
0.187478
-0.057782
0.191558
-0.0195359
0.191617
0.00219356
0.190326
0.00970541
0.188734
0.011023
0.00655659
0.0846616
-0.0647176
0.129846
-0.16673
0.165966
-0.179598
0.192725
-0.133122
0.207718
-0.0727747
0.212739
-0.0245572
0.212664
0.00226866
0.210867
0.0115023
0.208691
0.0131996
0.00799373
0.0931303
-0.117383
0.14034
-0.213939
0.178147
-0.217405
0.207471
-0.162447
0.225761
-0.0910645
0.232646
-0.0314423
0.23286
0.00205448
0.23073
0.0136319
0.228062
0.0158681
0.00996114
0.10033
-0.172927
0.149207
-0.262816
0.188394
-0.256592
0.219554
-0.193607
0.240908
-0.112418
0.250633
-0.0411674
0.251839
0.000848936
0.2497
0.0157708
0.246732
0.0188356
0.0123366
0.105912
-0.230564
0.156321
-0.313226
0.196652
-0.296922
0.229082
-0.226037
0.252838
-0.136174
0.265969
-0.054298
0.269155
-0.0023376
0.267524
0.0174018
0.264569
0.0217905
0.0149205
0.109857
-0.290161
0.161715
-0.365084
0.202946
-0.338153
0.236228
-0.25932
0.261602
-0.161548
0.27802
-0.0707155
0.284255
-0.008573
0.283896
0.0177614
0.281411
0.024275
0.0174265
0.112488
0.165567
0.207414
0.241184
0.267514
0.286511
0.296471
0.29841
0.297048
0.0132008
0.00607763
-0.0192784
0.0109903
0.00221048
0.011511
-0.000520703
0.0129358
-0.00142481
0.0136523
-0.000716527
0.0137711
-0.000118809
0.0135463
0.000224799
0.0131788
0.00036751
0.0129152
0.000263616
0.000369726
0.0372496
0.0232143
-0.0543863
0.031498
0.00796206
0.0340138
-0.00303653
0.038076
-0.00548704
0.0402537
-0.00289421
0.0406549
-0.000520006
0.0400144
0.00086526
0.0390112
0.00137078
0.0380709
0.00120391
0.00124271
0.0579676
0.0480934
-0.0828467
0.0508908
0.0150389
0.0559089
-0.00805463
0.0624971
-0.0120752
0.0661729
-0.00656999
0.0669351
-0.00128222
0.0659473
0.00185307
0.0643657
0.00295237
0.0627494
0.0028202
0.00253583
0.0739088
0.0753959
-0.101211
0.0680918
0.0208558
0.0764696
-0.0164324
0.0858168
-0.0214225
0.0911465
-0.0118997
0.0924104
-0.00254618
0.0911811
0.00308239
0.0890882
0.00504527
0.0868687
0.00503971
0.00419645
0.0814017
-0.104237
0.0839174
0.0960942
0.108157
0.115192
0.117057
0.115686
0.113168
0.110433
0.00273369
-0.000172927
-0.00256076
0.00326457
-0.000530876
0.00417681
-0.00091224
0.00548788
-0.00131107
0.0071843
-0.00169643
0.00922888
-0.00204458
0.0115855
-0.00235661
0.0141738
-0.00258834
0.016859
-0.00268516
-0.00241943
0.00778748
-0.000645704
-0.0073147
0.00923438
-0.00197778
0.0117138
-0.00339162
0.0152702
-0.00486748
0.0198845
-0.00631072
0.0254825
-0.00764261
0.0319649
-0.00883896
0.0391563
-0.00977982
0.0467678
-0.0102966
-0.010038
0.0124781
-0.00138377
-0.0117401
0.0147278
-0.00422749
0.0185607
-0.00722452
0.0240247
-0.0103315
0.0310794
-0.0133654
0.0395863
-0.0161495
0.0493283
-0.018581
0.0600517
-0.0205033
0.0714161
-0.021661
-0.0214686
0.0168075
-0.00234772
-0.0158436
0.0197318
-0.00715174
0.024675
-0.0121678
0.0316516
-0.017308
0.0405502
-0.022264
0.0511064
-0.0267057
0.0629378
-0.0304123
0.0756949
-0.0332605
0.0888618
-0.0348279
-0.0338181
0.0207931
-0.0196336
0.0242927
0.0301542
0.0383179
0.0485408
0.060344
0.073044
0.0856048
0.0959915
0.0314439
-0.0313068
0.0371114
-0.0372484
0.0255837
-0.0309038
0.036764
0.0199254
-0.0300712
0.0357295
0.0146793
-0.0286752
0.0339214
0.0100597
-0.0264665
0.0310861
0.00620465
-0.022779
0.0266341
0.00311377
-0.0176477
0.0207386
0.00101738
-0.0136221
0.0157185
-8.67719e-05
-0.0101616
0.0112658
-0.0056424
0.00555564
0.0294598
-0.0254437
-0.035323
0.0237443
-0.0251882
0.0182545
-0.0245815
0.0131687
-0.0235894
0.00874001
-0.0220378
0.0053502
-0.0193892
0.00301962
-0.0153171
0.00139644
-0.0119989
0.000298147
-0.00906333
-0.00534425
0.0294312
-0.0194556
-0.0354192
0.0236273
-0.0193843
0.0181101
-0.0190643
0.0129968
-0.0184761
0.00849046
-0.0175314
0.00504209
-0.0159408
0.00300374
-0.0132788
0.00164434
-0.0106395
0.000582341
-0.00800133
-0.00476191
0.0313516
-0.0131927
-0.0376146
0.0253232
-0.0133558
0.0196127
-0.0133539
0.0143067
-0.0131701
0.00954389
-0.0127686
0.00564905
-0.012046
0.00319541
-0.0108251
0.00176015
-0.00920428
0.00072652
-0.00696769
-0.00403538
0.0349541
-0.00653727
-0.0416095
0.0285806
-0.00698225
0.022561
-0.00733423
0.0169615
-0.00757057
0.0118727
-0.00767976
0.00747921
-0.00765251
0.00413341
-0.00747931
0.00199183
-0.00706269
0.000798088
-0.00577394
-0.00323729
0.0392765
0.000571148
-0.0463849
0.0324932
-0.000198936
0.0261075
-0.00094856
0.0201941
-0.00165718
0.0148137
-0.00229928
0.0100292
-0.00286801
0.00592441
-0.00337455
0.00267388
-0.00381216
0.0007206
-0.00382064
-0.00251668
0.0431173
0.00808974
-0.0506359
0.0359389
0.00697946
0.0291543
0.00583612
0.0228634
0.0046337
0.0171688
0.00339534
0.0121101
0.00219065
0.00766841
0.00106717
0.00384953
6.73305e-06
0.000979784
-0.000950888
-0.00153689
0.0453985
0.0158958
-0.0532046
0.0379687
0.0144092
0.0309127
0.0128922
0.0242662
0.0112801
0.0181727
0.00948888
0.0128187
0.0075447
0.0082833
0.00560254
0.00454175
0.00374829
0.00163253
0.00195835
9.56394e-05
0.0455522
0.0240007
-0.053657
0.0379324
0.022029
0.0308012
0.0200234
0.0240711
0.0180102
0.0177093
0.0158507
0.0119098
0.0133442
0.00705055
0.0104618
0.0034188
0.00738005
0.0011481
0.00422906
0.00124374
0.0444913
-0.0530081
0.0365327
0.0292623
0.0226609
0.016532
0.0107602
0.00566586
0.00203978