/*--------------------------------*- C++ -*----------------------------------*\
  =========                 |
  \\      /  F ield         | OpenFOAM: The Open Source CFD Toolbox
   \\    /   O peration     | Website:  https://openfoam.org
    \\  /    A nd           | Version:  13
     \\/     M anipulation  |
\*---------------------------------------------------------------------------*/
FoamFile
{
    format      ascii;
    class       volVectorField;
    location    "0.15";
    object      U;
}
// * * * * * * * * * * * * * * * * * * * * * * * * * * * * * * * * * * * * * //

dimensions      [0 1 -1 0 0 0 0];

internalField   nonuniform List<vector> 
1800
(
(0.0978262 -0.0883555 -4.49212e-20)
(0.286948 -0.242041 -3.41274e-20)
(0.474041 -0.379208 -4.84301e-19)
(0.657768 -0.500405 1.90848e-19)
(0.836694 -0.607513 7.25773e-20)
(1.01 -0.701823 -4.02938e-20)
(1.17725 -0.784027 5.65619e-20)
(1.33802 -0.854351 2.02935e-19)
(1.49166 -0.913742 5.95464e-19)
(1.63355 -0.967764 8.12805e-19)
(0.119068 -0.0915108 -7.90492e-20)
(0.344306 -0.247747 -7.69666e-19)
(0.5633 -0.384829 3.77524e-21)
(0.775384 -0.50437 1.25939e-19)
(0.979529 -0.60912 -1.26239e-19)
(1.17524 -0.700968 7.4299e-20)
(1.36234 -0.781141 -2.77918e-19)
(1.54081 -0.850535 -5.23365e-20)
(1.71012 -0.911222 -6.98258e-19)
(1.86784 -0.967629 6.32562e-19)
(0.141645 -0.0923209 4.87782e-20)
(0.403665 -0.247737 2.09075e-19)
(0.653731 -0.382142 5.42797e-19)
(0.892148 -0.497961 -1.89976e-19)
(1.11862 -0.598484 -1.417e-19)
(1.33318 -0.685962 7.51828e-20)
(1.53602 -0.761913 9.71955e-20)
(1.72739 -0.827565 1.942e-19)
(1.90717 -0.88513 2.755e-21)
(2.07415 -0.938252 1.51254e-19)
(0.163892 -0.0897138 -4.56841e-20)
(0.46166 -0.239458 -2.04223e-19)
(0.741368 -0.367612 -1.81072e-19)
(1.00444 -0.476986 -1.42291e-19)
(1.25153 -0.571057 1.8105e-19)
(1.48342 -0.652195 -5.71103e-20)
(1.70083 -0.722014 -4.28421e-21)
(1.90443 -0.781774 2.05147e-21)
(2.09445 -0.833563 -1.6148e-19)
(2.27015 -0.880599 -1.0569e-19)
(0.184637 -0.0833475 -1.14053e-19)
(0.515836 -0.221787 8.75132e-20)
(0.823203 -0.339408 1.79843e-19)
(1.1092 -0.439046 2.43319e-19)
(1.37548 -0.524067 -2.84529e-19)
(1.62356 -0.596794 -3.58633e-21)
(1.85479 -0.65881 4.24357e-19)
(2.07027 -0.711336 -1.85405e-19)
(2.27068 -0.756272 -1.24054e-19)
(2.45563 -0.796541 -5.33138e-20)
(0.203164 -0.073491 1.73593e-19)
(0.564399 -0.195178 1.0296e-18)
(0.896678 -0.298045 1.42919e-19)
(1.20337 -0.384705 -5.02937e-19)
(1.48702 -0.458202 -1.75254e-19)
(1.74984 -0.520656 6.37234e-19)
(1.9937 -0.573529 -1.44909e-19)
(2.22016 -0.617925 -4.30955e-19)
(2.43027 -0.655495 -3.17403e-19)
(2.62401 -0.68882 2.61732e-19)
(0.21887 -0.0605834 1.16284e-19)
(0.605663 -0.16068 -7.47366e-19)
(0.959184 -0.245001 -1.085e-18)
(1.28354 -0.315765 3.83545e-19)
(1.58203 -0.375532 4.49506e-19)
(1.85745 -0.426102 -9.00494e-22)
(2.11215 -0.468723 -6.38879e-19)
(2.34805 -0.504323 2.19368e-19)
(2.5666 -0.534228 -3.65846e-19)
(2.76806 -0.560606 -3.1173e-19)
(0.231205 -0.0451663 -3.42512e-19)
(0.638112 -0.119668 -6.92835e-19)
(1.00835 -0.182269 1.21201e-18)
(1.34659 -0.234671 5.98835e-19)
(1.65671 -0.278822 -2.69561e-19)
(1.94199 -0.316108 -2.11455e-19)
(2.20517 -0.347493 0)
(2.44848 -0.373676 1.16536e-19)
(2.67372 -0.395621 -2.95925e-19)
(2.88146 -0.414983 -7.70686e-20)
(0.239735 -0.0278717 -2.04506e-19)
(0.660561 -0.0737449 5.6231e-19)
(1.04234 -0.112182 1.70794e-19)
(1.39011 -0.144269 -5.12382e-19)
(1.70817 -0.171256 -7.84211e-19)
(2.00011 -0.194034 3.65535e-20)
(2.26896 -0.213229 1.6757e-19)
(2.51724 -0.229283 -5.46677e-19)
(2.74703 -0.242782 -2.90309e-19)
(2.95926 -0.254786 -5.64278e-19)
(0.244229 -0.0094011 4.51513e-19)
(0.67236 -0.0246999 3.44175e-19)
(1.06015 -0.0373554 -9.39172e-20)
(1.41283 -0.0477813 -1.27284e-20)
(1.7349 -0.0564555 -3.87642e-19)
(2.03014 -0.0637184 -8.63703e-20)
(2.30176 -0.0698088 -2.90265e-19)
(2.55245 -0.0748938 6.47093e-19)
(2.7845 -0.0791809 1.70933e-19)
(2.99916 -0.0830294 2.60612e-21)
(-0.00206965 -0.0207359 -5.97742e-20)
(0.00801457 -0.0692126 -9.30164e-20)
(0.0247447 -0.124236 -6.6419e-21)
(0.0490418 -0.176165 -3.18808e-20)
(0.0761748 -0.220262 -1.17209e-20)
(0.104046 -0.257582 -3.54961e-19)
(0.133036 -0.292065 -1.25765e-20)
(0.164214 -0.326387 1.37268e-19)
(0.197197 -0.36038 1.1265e-20)
(0.230897 -0.392662 -3.69149e-20)
(0.00113123 -0.0246111 -1.10623e-19)
(0.015468 -0.0863655 -2.78868e-19)
(0.0402701 -0.163276 1.67556e-20)
(0.0689351 -0.227135 -9.28199e-20)
(0.0980707 -0.276972 -9.43217e-20)
(0.129099 -0.32053 -2.55696e-19)
(0.163837 -0.363114 2.04299e-19)
(0.201735 -0.40522 1.87725e-19)
(0.240914 -0.444877 -2.62424e-19)
(0.280123 -0.480869 7.9765e-20)
(0.00573133 -0.03212 -9.51983e-20)
(0.0294589 -0.109148 -8.91263e-19)
(0.0629792 -0.196854 -1.3331e-19)
(0.0968987 -0.269278 6.5152e-20)
(0.131406 -0.328704 5.85651e-20)
(0.170001 -0.383558 -3.99593e-19)
(0.213597 -0.436499 3.68696e-20)
(0.259302 -0.485769 3.60704e-19)
(0.305164 -0.529847 -3.70002e-19)
(0.351021 -0.569085 -2.47893e-19)
(0.0115117 -0.0417462 -5.80228e-21)
(0.0469204 -0.131964 1.81028e-19)
(0.0894771 -0.225654 1.65631e-21)
(0.132975 -0.307717 -1.10022e-20)
(0.178298 -0.379868 -8.60445e-21)
(0.228128 -0.446822 7.19462e-20)
(0.281641 -0.508722 7.09811e-20)
(0.335757 -0.563892 -1.30253e-19)
(0.389741 -0.61249 9.29561e-21)
(0.443999 -0.655163 -1.03053e-20)
(0.0186206 -0.0513088 0)
(0.067398 -0.153169 5.75347e-21)
(0.12196 -0.254211 -4.78794e-19)
(0.178955 -0.346513 6.58739e-20)
(0.238429 -0.430347 2.09144e-20)
(0.301142 -0.507292 1.75342e-21)
(0.365685 -0.576777 -2.49766e-20)
(0.430125 -0.638138 -6.84661e-21)
(0.494387 -0.691857 0)
(0.558629 -0.738007 -2.04189e-20)
(0.0274411 -0.0599893 2.94571e-20)
(0.0920741 -0.17344 -1.39252e-19)
(0.16196 -0.283217 -4.11341e-20)
(0.234981 -0.384919 -5.77213e-20)
(0.310242 -0.478204 5.1046e-20)
(0.387235 -0.563315 6.98663e-21)
(0.464704 -0.639808 7.70188e-20)
(0.541458 -0.70742 -2.21881e-20)
(0.617478 -0.76621 -6.84655e-19)
(0.692677 -0.815527 -9.97972e-21)
(0.0380825 -0.0678238 1.19564e-21)
(0.121432 -0.192649 6.52033e-20)
(0.209413 -0.311274 -7.99868e-20)
(0.30027 -0.421091 -1.67538e-20)
(0.392556 -0.521875 -7.43263e-20)
(0.485222 -0.613617 -6.45618e-21)
(0.577165 -0.696123 1.75561e-20)
(0.667429 -0.769261 -2.00346e-19)
(0.755992 -0.832637 3.78548e-19)
(0.842695 -0.884815 9.69308e-19)
(0.050454 -0.0747476 1.56231e-20)
(0.155312 -0.209973 -1.44229e-19)
(0.263702 -0.336511 -2.15022e-19)
(0.373965 -0.45286 8.93516e-20)
(0.484439 -0.559236 -6.51326e-20)
(0.593903 -0.655822 9.38082e-20)
(0.701315 -0.742737 1.88632e-19)
(0.805775 -0.820022 -1.02329e-19)
(0.907348 -0.887061 -3.03618e-19)
(1.00593 -0.941609 7.23219e-19)
(0.0643619 -0.0804551 -2.61704e-20)
(0.193433 -0.224285 -5.78912e-19)
(0.32449 -0.356969 5.24665e-19)
(0.455908 -0.477799 3.36958e-19)
(0.585983 -0.587486 -8.44766e-20)
(0.713479 -0.686585 3.04799e-19)
(0.837385 -0.77556 -1.60332e-19)
(0.956803 -0.85479 -7.61086e-19)
(1.07193 -0.92356 -4.01647e-19)
(1.18281 -0.978934 4.5107e-19)
(0.0795933 -0.084722 -7.98502e-20)
(0.235945 -0.234583 -5.43733e-19)
(0.392521 -0.3708 -7.90463e-21)
(0.547687 -0.49319 6.81264e-20)
(0.699748 -0.602988 3.36505e-19)
(0.847549 -0.701098 -1.82854e-19)
(0.990169 -0.788257 -1.65548e-19)
(1.12667 -0.864801 1.85614e-19)
(1.25693 -0.929773 -3.48735e-19)
(1.38014 -0.981593 -5.81933e-19)
(0.399992 -0.535743 1.07872e-18)
(0.679968 -0.617521 -4.99579e-19)
(0.903892 -0.547531 -2.03986e-19)
(1.06621 -0.411969 3.58239e-19)
(1.19832 -0.256639 -2.59725e-19)
(1.27684 -0.138515 -2.64961e-19)
(1.31668 -0.0787868 -2.6617e-19)
(1.34074 -0.0480715 -5.03676e-20)
(1.35587 -0.0293598 2.59308e-19)
(1.36544 -0.011146 5.13871e-20)
(0.467196 -0.62316 1.05087e-18)
(0.738225 -0.692046 1.37231e-19)
(0.958478 -0.605331 9.44247e-21)
(1.10577 -0.456507 -3.07871e-19)
(1.22453 -0.287251 -9.16049e-19)
(1.29307 -0.1553 0)
(1.32686 -0.0880028 -2.41352e-19)
(1.34754 -0.0535757 8.57076e-20)
(1.36072 -0.0324947 7.6225e-21)
(1.36902 -0.0122654 -7.7422e-20)
(0.555536 -0.708598 -1.01998e-18)
(0.808802 -0.764416 -9.30297e-20)
(1.01954 -0.661477 1.8961e-19)
(1.15018 -0.499037 -4.82986e-20)
(1.25276 -0.316362 -3.46316e-20)
(1.31031 -0.170901 7.91538e-20)
(1.33782 -0.096312 0)
(1.35493 -0.058451 0)
(1.36604 -0.0352458 -8.35898e-20)
(1.37297 -0.0132465 0)
(0.665623 -0.790315 -2.24777e-19)
(0.894203 -0.832698 3.98083e-19)
(1.0871 -0.71509 2.3795e-20)
(1.19925 -0.539059 0)
(1.28326 -0.343681 7.34753e-19)
(1.32859 -0.185292 -1.65088e-19)
(1.34946 -0.103697 0)
(1.36283 -0.062678 1.90648e-19)
(1.37174 -0.0375932 0)
(1.37725 -0.0140772 2.08074e-20)
(0.795788 -0.866979 -1.48178e-19)
(0.996109 -0.894882 4.11906e-19)
(1.16164 -0.76505 -1.32965e-20)
(1.25253 -0.576144 0)
(1.31595 -0.368939 1.9589e-19)
(1.34789 -0.198443 3.06832e-19)
(1.36164 -0.11016 7.58519e-20)
(1.37114 -0.0662456 1.38014e-20)
(1.37777 -0.0395195 -5.18492e-20)
(1.38179 -0.0147598 4.44848e-20)
(0.942167 -0.937772 -1.26128e-18)
(1.1144 -0.949526 -8.45725e-19)
(1.24386 -0.810006 4.25799e-21)
(1.30954 -0.609796 4.60306e-19)
(1.3505 -0.391898 -2.79334e-19)
(1.36812 -0.210311 1.57885e-19)
(1.37425 -0.11573 2.43845e-19)
(1.37979 -0.0691524 -2.56829e-19)
(1.38403 -0.0410101 -3.05089e-21)
(1.38653 -0.0152882 -5.34243e-21)
(1.0999 -1.00231 -2.47919e-19)
(1.24725 -0.996313 2.51174e-19)
(1.33427 -0.848671 2.49173e-21)
(1.37008 -0.639362 -1.24902e-20)
(1.3865 -0.412263 -4.73873e-19)
(1.38911 -0.22073 6.08191e-20)
(1.38721 -0.120396 -9.98212e-20)
(1.3887 -0.0713891 -5.82029e-20)
(1.39047 -0.0420475 2.36334e-20)
(1.39141 -0.015656 -3.05569e-20)
(1.26407 -1.05948 -1.22132e-18)
(1.39136 -1.03577 1.81704e-19)
(1.43216 -0.880276 0)
(1.43349 -0.664309 1.89368e-20)
(1.4231 -0.429942 3.82385e-19)
(1.41016 -0.229795 3.02816e-21)
(1.4003 -0.124273 -3.18207e-19)
(1.39777 -0.0729847 7.37572e-20)
(1.397 -0.0426191 -6.67327e-22)
(1.39638 -0.0158669 -2.78836e-21)
(1.43175 -1.10588 3.41215e-18)
(1.54421 -1.0688 2.88144e-19)
(1.53766 -0.905398 3.81761e-19)
(1.50053 -0.684826 -2.1374e-20)
(1.46069 -0.445163 -2.87391e-20)
(1.43145 -0.237547 -3.44675e-19)
(1.41363 -0.127008 7.52361e-20)
(1.40699 -0.0737537 7.02694e-21)
(1.40357 -0.0426479 -4.90169e-20)
(1.40138 -0.0158888 -5.30105e-20)
(1.59905 -1.13029 -3.01955e-18)
(1.69777 -1.09434 1.32265e-18)
(1.64523 -0.92663 -1.2414e-19)
(1.56758 -0.704091 -5.24809e-19)
(1.49658 -0.46124 -4.58008e-19)
(1.4505 -0.247318 -2.05017e-19)
(1.42597 -0.130923 -6.6327e-20)
(1.41597 -0.0744181 0)
(1.41004 -0.0423415 6.38481e-21)
(1.40632 -0.015783 1.99509e-20)
(1.88771 -1.17175 -6.83576e-18)
(1.92237 -1.10282 -1.83121e-18)
(1.79463 -0.919624 1.36891e-19)
(1.65763 -0.695604 8.66787e-20)
(1.54428 -0.456662 1.66948e-19)
(1.47727 -0.245201 -9.86068e-20)
(1.44469 -0.129587 3.53357e-21)
(1.42878 -0.0729182 3.50624e-20)
(1.41856 -0.0410152 -3.50687e-20)
(1.41258 -0.0155386 1.46072e-20)
(2.28783 -1.13461 5.09371e-19)
(2.17205 -1.05166 -2.22544e-19)
(1.93258 -0.851557 9.3185e-19)
(1.72605 -0.636285 -2.21566e-19)
(1.56735 -0.416592 7.29179e-19)
(1.48474 -0.22493 1.47804e-19)
(1.45623 -0.121985 2.90809e-20)
(1.43826 -0.0682071 -3.74621e-21)
(1.42285 -0.0376074 3.57989e-20)
(1.41252 -0.0144724 4.85321e-20)
(2.60869 -1.04253 2.25429e-18)
(2.34803 -0.944797 3.25938e-19)
(2.00849 -0.749777 -1.27187e-19)
(1.74649 -0.552752 -2.22461e-36)
(1.55314 -0.360883 -3.07672e-20)
(1.45862 -0.200584 1.13248e-33)
(1.41215 -0.106476 -2.73675e-20)
(1.37592 -0.0557004 -2.76665e-33)
(1.35152 -0.0289286 1.39737e-20)
(1.33444 -0.0121042 -4.4004e-20)
(2.78688 -0.893139 3.96138e-33)
(2.37187 -0.792717 2.84662e-18)
(1.98266 -0.622635 1.70832e-18)
(1.67591 -0.451598 0)
(1.45137 -0.293685 9.02349e-19)
(1.32305 -0.169285 3.97982e-19)
(1.26493 -0.0894498 1.13858e-19)
(1.23019 -0.0443979 -4.58075e-33)
(1.20886 -0.0214656 5.69314e-21)
(1.19543 -0.00954326 4.06653e-20)
(2.76466 -0.705296 3.85677e-18)
(2.249 -0.627539 -1.48862e-19)
(1.8546 -0.48523 0)
(1.53239 -0.348983 0)
(1.30323 -0.227542 0)
(1.1684 -0.134782 0)
(1.10691 -0.0718333 -1.29078e-20)
(1.07333 -0.034609 -5.33811e-33)
(1.05443 -0.0158403 1.30273e-20)
(1.04298 -0.00718372 4.74952e-33)
(2.55166 -0.516845 3.28072e-18)
(2.02156 -0.461891 0)
(1.64297 -0.350568 0)
(1.33731 -0.248972 0)
(1.12285 -0.161643 0)
(0.993696 -0.0977876 0)
(0.930742 -0.0531765 3.31403e-20)
(0.898511 -0.0250018 -9.7745e-21)
(0.882205 -0.0107307 1.27444e-20)
(0.872891 -0.00497414 5.55798e-20)
(2.19006 -0.342863 0)
(1.70289 -0.303302 1.13583e-18)
(1.36313 -0.226256 1.16023e-18)
(1.09739 -0.157518 0)
(0.913165 -0.101596 7.392e-19)
(0.800971 -0.0629683 3.697e-19)
(0.742666 -0.0352828 1.61608e-19)
(0.713126 -0.0164128 2.10524e-20)
(0.699454 -0.00664249 2.34866e-20)
(0.692011 -0.00316732 2.37758e-20)
(1.70257 -0.191309 -6.72928e-19)
(1.29987 -0.165627 -2.72252e-19)
(1.02552 -0.121218 1.73739e-19)
(0.818334 -0.0821362 -2.26504e-34)
(0.677414 -0.0526399 -8.69378e-20)
(0.591109 -0.0337451 3.27902e-33)
(0.543214 -0.0196393 4.8786e-20)
(0.518428 -0.0091186 9.21271e-20)
(0.507651 -0.00347411 1.1812e-20)
(0.50203 -0.0017291 -3.11064e-20)
(1.10058 -0.0759061 3.40262e-18)
(0.822719 -0.0627191 -1.87671e-19)
(0.640476 -0.0441297 -5.92451e-19)
(0.507651 -0.0281213 0)
(0.419466 -0.0176566 -6.16154e-19)
(0.365125 -0.0119855 -3.67346e-19)
(0.333005 -0.00743313 -1.24149e-19)
(0.315789 -0.00352831 -7.42949e-20)
(0.308588 -0.0012853 6.76373e-20)
(0.30498 -0.00068906 2.30862e-20)
(0.397199 -0.00332105 0)
(0.287622 0.0015839 0)
(0.220749 0.00401934 0)
(0.174058 0.00603779 0)
(0.144532 0.00533809 0)
(0.126185 0.00364063 0)
(0.114291 0.00233749 5.41426e-20)
(0.107431 0.00131209 -1.76113e-34)
(0.104535 0.00067055 1.25777e-20)
(0.103085 0.000196885 2.93411e-20)
(3.36684 -0.0863452 5.38576e-19)
(3.32618 -0.265116 -8.42594e-20)
(3.24714 -0.430699 8.52436e-19)
(3.13219 -0.582229 -6.04775e-19)
(2.98618 -0.71824 6.66812e-19)
(2.81509 -0.83656 2.75424e-19)
(2.62646 -0.934324 -1.93052e-18)
(2.42936 -1.00823 -7.73814e-20)
(2.22451 -1.05422 0)
(1.98469 -1.06734 4.29864e-19)
(3.86172 -0.0751329 7.07431e-18)
(3.79842 -0.234273 1.95601e-18)
(3.70411 -0.387372 -4.86785e-18)
(3.58408 -0.532061 -4.49371e-19)
(3.44218 -0.66597 3.55894e-18)
(3.28161 -0.787398 1.92442e-18)
(3.10619 -0.895141 -5.16918e-18)
(2.92164 -0.987761 -1.95083e-18)
(2.72705 -1.06343 2.20036e-18)
(2.49171 -1.12053 8.54414e-19)
(3.83311 -0.0533778 -1.26104e-19)
(3.82022 -0.171632 4.40586e-18)
(3.78541 -0.299826 -1.08929e-18)
(3.72426 -0.430983 -3.446e-18)
(3.63605 -0.558783 -6.80012e-18)
(3.52349 -0.678822 1.02702e-17)
(3.39082 -0.788753 4.17452e-18)
(3.24298 -0.887852 -3.90249e-18)
(3.08086 -0.97844 -2.8948e-18)
(2.88624 -1.06249 -3.41406e-18)
(3.62863 -0.0472911 -4.84039e-18)
(3.61956 -0.144954 -4.35484e-18)
(3.59959 -0.243779 5.47431e-18)
(3.56733 -0.34314 1.91294e-18)
(3.52242 -0.442418 -8.97715e-18)
(3.46423 -0.540831 4.93478e-19)
(3.39194 -0.637038 3.88684e-18)
(3.30524 -0.730369 -1.055e-18)
(3.20506 -0.822917 1.27647e-18)
(3.08299 -0.91448 2.80503e-19)
(3.34401 -0.0365742 -9.16154e-19)
(3.33895 -0.111681 3.00461e-18)
(3.32704 -0.18873 1.61973e-18)
(3.30738 -0.26725 -1.89367e-18)
(3.27981 -0.346162 -2.00226e-18)
(3.24463 -0.424225 -2.43723e-18)
(3.20208 -0.500393 3.80287e-19)
(3.15191 -0.574494 1.39192e-19)
(3.09579 -0.647678 -2.14491e-18)
(3.03333 -0.72113 -2.03989e-18)
(2.96253 -0.0265394 -1.82269e-18)
(2.95976 -0.0798994 -5.86544e-20)
(2.95324 -0.134637 -1.63784e-18)
(2.94232 -0.190969 3.12177e-19)
(2.92666 -0.248646 5.36852e-18)
(2.90619 -0.307054 -3.67204e-19)
(2.88082 -0.365261 4.44252e-20)
(2.85017 -0.422212 -2.61016e-18)
(2.81644 -0.477013 -3.50029e-18)
(2.78612 -0.529934 3.71249e-19)
(2.48709 -0.0174933 -2.88597e-20)
(2.48574 -0.0519365 -8.14362e-19)
(2.48254 -0.0872699 -2.6153e-18)
(2.47701 -0.123814 -3.43137e-18)
(2.46871 -0.161599 2.49686e-18)
(2.45734 -0.200357 1.50225e-18)
(2.44248 -0.23947 -1.38498e-18)
(2.42355 -0.277935 1.62436e-18)
(2.40259 -0.314651 -4.30586e-19)
(2.3894 -0.349719 -9.6466e-19)
(1.91461 -0.0096747 7.72564e-19)
(1.91405 -0.0282959 -8.32016e-19)
(1.91274 -0.0474504 -3.27909e-20)
(1.91027 -0.0673828 -3.46944e-20)
(1.90617 -0.0881678 -7.27004e-20)
(1.90004 -0.109668 -2.33226e-18)
(1.89139 -0.131475 -6.78578e-19)
(1.87963 -0.152873 2.62563e-18)
(1.86645 -0.173086 -6.03122e-19)
(1.86169 -0.19234 -1.35024e-18)
(1.23987 -0.0037305 -1.64309e-18)
(1.23965 -0.0106938 -8.4908e-19)
(1.23922 -0.0179048 2.33966e-18)
(1.23821 -0.025488 -8.89968e-19)
(1.23622 -0.0334912 -6.74232e-19)
(1.23284 -0.0418548 1.35216e-18)
(1.22767 -0.0503816 -1.29593e-18)
(1.22026 -0.0587067 1.28689e-18)
(1.21187 -0.0663942 -1.21003e-18)
(1.20988 -0.0735704 -4.24566e-18)
(0.454915 -0.000257201 6.63193e-19)
(0.454828 -0.000700218 7.03189e-19)
(0.454693 -0.00115926 7.48335e-19)
(0.454323 -0.00164067 1.35424e-18)
(0.453488 -0.00214127 -6.72099e-19)
(0.451967 -0.00263879 -1.2998e-18)
(0.449538 -0.00310122 6.14746e-19)
(0.445947 -0.00359548 2.48442e-20)
(0.441672 -0.004395 -4.96585e-20)
(0.440261 -0.00504784 1.10576e-19)
(1.65254 0.995882 -2.84153e-19)
(1.51144 0.940799 1.81209e-20)
(1.35816 0.879972 -2.25175e-19)
(1.1972 0.807904 1.77494e-19)
(1.02925 0.723635 -1.94647e-19)
(0.854619 0.626883 -1.01809e-19)
(0.673653 0.516857 2.319e-19)
(0.487005 0.392135 -3.06126e-19)
(0.295906 0.250667 3.09518e-19)
(0.101452 0.0916661 2.39464e-19)
(1.88546 0.991175 0)
(1.72891 0.933979 6.35933e-19)
(1.56023 0.87222 3.2851e-19)
(1.38182 0.801476 1.64821e-19)
(1.1942 0.719638 4.33831e-19)
(0.997313 0.625762 -8.72344e-20)
(0.791235 0.518541 -7.89572e-20)
(0.576296 0.395979 8.99376e-20)
(0.353317 0.255189 -1.0451e-18)
(0.122713 0.0943689 -1.60119e-20)
(2.09024 0.958316 1.56999e-19)
(1.92455 0.904529 0)
(1.74558 0.846068 -1.00966e-19)
(1.55449 0.779275 -3.85119e-19)
(1.35136 0.701902 5.384e-20)
(1.13586 0.612681 3.97444e-19)
(0.907635 0.510033 -6.07285e-19)
(0.666514 0.391618 -2.00435e-19)
(0.412573 0.254044 7.8328e-19)
(0.145256 0.0947402 -1.76388e-19)
(2.28417 0.897846 1.90305e-19)
(2.10986 0.850175 1.25866e-20)
(1.9208 0.797572 2.42721e-20)
(1.7177 0.736791 3.62583e-20)
(1.50025 0.665709 -2.93139e-20)
(1.26768 0.583035 2.73418e-19)
(1.01909 0.487109 -2.06645e-19)
(0.753575 0.3755 -8.55961e-19)
(0.470228 0.244666 0)
(0.167383 0.0916949 0)
(2.46739 0.811461 -1.06831e-18)
(2.28384 0.770558 -6.06201e-19)
(2.08448 0.724845 -1.20429e-19)
(1.86964 0.671357 -6.66462e-20)
(1.63858 0.608172 0)
(1.39005 0.534049 2.4102e-19)
(1.12257 0.447374 2.68069e-19)
(0.834436 0.345798 2.8655e-19)
(0.523779 0.225934 -4.2418e-19)
(0.187894 0.0848926 -8.13128e-20)
(2.63352 0.701842 7.63468e-19)
(2.44111 0.667862 -1.3929e-19)
(2.23203 0.629516 -2.2124e-19)
(2.00628 0.584175 0)
(1.7627 0.530177 0)
(1.49962 0.46641 0)
(1.21503 0.391407 -3.8765e-20)
(0.906551 0.303051 3.70026e-19)
(0.571425 0.198326 3.78816e-19)
(0.206062 0.0746174 -3.08667e-19)
(2.77537 0.572178 -1.19141e-18)
(2.5751 0.545114 -1.47968e-18)
(2.35748 0.514407 -3.01943e-22)
(2.12225 0.477845 -1.87849e-19)
(1.86787 0.434099 -9.29393e-20)
(1.59232 0.382253 -1.7891e-19)
(1.29312 0.321075 4.59288e-19)
(0.967347 0.248802 2.14621e-19)
(0.611502 0.162947 5.40292e-19)
(0.22129 0.0613337 2.02953e-19)
(2.8867 0.425625 -1.15634e-18)
(2.6799 0.405529 8.47456e-20)
(2.4554 0.382732 1.64527e-19)
(2.21264 0.355537 1.68658e-20)
(1.94974 0.32299 -3.14601e-19)
(1.6644 0.284419 -1.74312e-19)
(1.35377 0.2389 -6.21514e-19)
(1.01449 0.185114 1.1848e-19)
(0.642517 0.121221 5.15448e-20)
(0.233038 0.0456074 -6.26084e-21)
(2.96246 0.265107 1.01138e-19)
(2.75086 0.252286 3.97159e-19)
(2.52156 0.237847 -3.30372e-19)
(2.27362 0.220692 3.63293e-19)
(2.00494 0.200258 3.72714e-19)
(1.71297 0.176145 4.92111e-19)
(1.3946 0.147786 -6.35987e-19)
(1.04618 0.114373 -3.24527e-19)
(0.663322 0.0748 -4.58519e-20)
(0.240887 0.0280918 -3.27113e-19)
(3.00021 0.0935343 5.81673e-19)
(2.7858 0.0887512 -1.85872e-19)
(2.55393 0.0834168 4.79727e-19)
(2.30336 0.0771292 -3.11174e-19)
(2.0318 0.0697122 2.66444e-19)
(1.73654 0.0610506 6.05887e-19)
(1.41437 0.0509707 3.79199e-19)
(1.06146 0.0392296 3.09395e-19)
(0.673305 0.0255037 2.65947e-19)
(0.244624 0.00950617 5.43777e-19)
(0.236234 0.445018 -4.53003e-19)
(0.201228 0.412071 -1.80488e-19)
(0.16635 0.37595 1.50905e-19)
(0.133107 0.338576 -4.55513e-19)
(0.103109 0.301835 -1.19664e-19)
(0.0761457 0.264057 6.46867e-19)
(0.0504887 0.218511 3.1189e-19)
(0.0258001 0.15641 -1.25991e-19)
(0.00716509 0.0790934 1.24683e-19)
(-0.00108814 0.0220776 -6.53207e-20)
(0.286995 0.535962 3.80385e-19)
(0.247231 0.499726 4.24327e-19)
(0.207235 0.458762 -1.62701e-20)
(0.167605 0.41306 -1.37678e-19)
(0.130883 0.365292 -2.95479e-19)
(0.0997445 0.317047 7.85934e-20)
(0.0723478 0.263501 1.99986e-19)
(0.0451773 0.192765 1.5617e-19)
(0.0183281 0.100981 -5.75531e-19)
(0.00269729 0.0285833 -1.24656e-19)
(0.359657 0.624693 -5.76549e-19)
(0.313555 0.584933 -4.56094e-19)
(0.267683 0.539672 2.40737e-19)
(0.221474 0.487583 1.3969e-19)
(0.176343 0.429113 -7.91574e-23)
(0.136413 0.367222 -1.12172e-19)
(0.101604 0.300786 -2.15408e-20)
(0.067779 0.221084 -5.30293e-19)
(0.0334571 0.12475 -2.57918e-19)
(0.00748338 0.0376106 -3.94815e-20)
(0.455194 0.71016 4.93973e-19)
(0.400767 0.666455 1.6254e-19)
(0.346682 0.615904 -1.41398e-19)
(0.292422 0.557611 7.6646e-20)
(0.238161 0.490719 -1.57279e-21)
(0.18691 0.416974 -2.82649e-21)
(0.139962 0.337178 -1.38033e-19)
(0.0950255 0.247498 3.69976e-19)
(0.0511656 0.146517 -3.97932e-19)
(0.0134022 0.0475231 -6.59453e-20)
(0.572943 0.791123 -2.80594e-19)
(0.50867 0.74366 -8.83044e-20)
(0.444122 0.687421 -1.3365e-20)
(0.379245 0.622364 -5.8815e-20)
(0.313932 0.547985 5.12876e-20)
(0.249828 0.464991 4.79183e-20)
(0.188328 0.374297 -3.55252e-20)
(0.129087 0.274891 -2.7647e-19)
(0.0723234 0.166769 2.08528e-19)
(0.0207792 0.0566777 8.44545e-20)
(0.709771 0.86536 6.47311e-19)
(0.634721 0.814631 3.25757e-19)
(0.558415 0.753153 2.10629e-19)
(0.481012 0.681774 4.75004e-20)
(0.402485 0.600652 1.41718e-19)
(0.323896 0.510194 6.82687e-20)
(0.246413 0.410949 1.35858e-19)
(0.170737 0.30287 5.52492e-20)
(0.0979369 0.18629 -1.38861e-20)
(0.0299144 0.0649348 -1.31807e-20)
(0.861786 0.930461 -1.19591e-19)
(0.775386 0.876875 -8.45e-19)
(0.686598 0.810907 -9.32644e-20)
(0.595636 0.7343 -2.95903e-20)
(0.502481 0.647692 -1.05013e-20)
(0.408056 0.551319 1.44762e-19)
(0.313412 0.445378 -4.43412e-20)
(0.219643 0.329861 6.90274e-20)
(0.128246 0.204842 -1.48593e-19)
(0.0408731 0.0724655 -1.01258e-21)
(1.02607 0.982684 -8.93436e-19)
(0.92795 0.926832 5.94821e-20)
(0.826258 0.857471 -2.23029e-19)
(0.721166 0.777182 -7.87449e-20)
(0.612558 0.68677 -3.29648e-20)
(0.50132 0.58623 -7.45798e-20)
(0.388447 0.475385 5.75553e-20)
(0.275128 0.353942 6.117e-20)
(0.162979 0.221483 -9.89616e-21)
(0.0535483 0.0791344 -1.0556e-19)
(1.20301 1.01545 1.24168e-19)
(1.09279 0.958929 5.30375e-19)
(0.977698 0.888172 1.62868e-21)
(0.85781 0.806424 -3.48633e-20)
(0.732858 0.714521 1.55311e-19)
(0.603713 0.612059 -3.52807e-19)
(0.471313 0.498487 -2.46658e-19)
(0.336807 0.37311 3.57591e-19)
(0.201788 0.235009 1.44987e-19)
(0.0677234 0.084562 -3.7303e-20)
(1.3996 1.01366 7.46565e-19)
(1.27727 0.960913 3.27083e-19)
(1.14722 0.894297 5.50317e-20)
(1.01042 0.815647 -2.00171e-19)
(0.866959 0.726024 -1.68532e-20)
(0.717708 0.625042 4.68505e-19)
(0.563488 0.511864 -2.69796e-19)
(0.405318 0.385442 -1.85017e-19)
(0.244726 0.244345 3.364e-19)
(0.0831395 0.0884698 -6.63172e-21)
(0.947738 0.0899928 1.02247e-20)
(1.17076 0.158092 -2.39752e-20)
(1.16653 0.180167 -4.97756e-20)
(1.23236 0.169072 0)
(1.24251 0.17945 8.83886e-21)
(1.20398 0.244572 -5.37461e-20)
(1.08426 0.384886 -1.02938e-19)
(0.924657 0.536124 -1.47463e-19)
(0.699392 0.638761 -1.48458e-19)
(0.410986 0.586611 6.62051e-19)
(0.945443 0.0698666 1.85011e-19)
(1.16448 0.137337 -7.19239e-20)
(1.16405 0.160758 2.60795e-21)
(1.23343 0.161911 2.13895e-20)
(1.25057 0.1836 -7.69534e-21)
(1.2228 0.26688 7.48867e-21)
(1.11762 0.427042 1.95237e-19)
(0.973956 0.594099 0)
(0.75351 0.715032 4.54252e-19)
(0.476944 0.67658 -4.05415e-19)
(0.943076 0.0511211 -1.09523e-19)
(1.16116 0.116072 5.3673e-21)
(1.16427 0.141126 4.67275e-20)
(1.23812 0.153273 2.18572e-20)
(1.26179 0.185973 2.11153e-20)
(1.2446 0.287549 -4.5701e-20)
(1.15623 0.467052 1.23908e-19)
(1.02957 0.650618 3.61308e-20)
(0.819502 0.789142 -1.73393e-22)
(0.564711 0.763731 -7.58212e-19)
(0.941104 0.033337 -5.88967e-20)
(1.16064 0.0941186 1.73599e-20)
(1.16714 0.121277 1.52783e-20)
(1.24618 0.14347 -9.4849e-21)
(1.27602 0.186963 -8.95044e-21)
(1.26968 0.306634 -6.03446e-21)
(1.1996 0.504743 -1.17436e-19)
(1.09118 0.705002 2.20749e-20)
(0.899872 0.859073 -3.73009e-19)
(0.675223 0.846117 -1.92373e-19)
(0.939803 0.0160193 8.22098e-21)
(1.1628 0.0713678 -5.43375e-21)
(1.1726 0.10127 1.26772e-22)
(1.25727 0.132799 -1.12275e-20)
(1.293 0.186959 0)
(1.29775 0.32423 0)
(1.24694 0.540076 -5.13438e-20)
(1.15913 0.756257 -2.38677e-20)
(0.996681 0.922606 -9.75874e-20)
(0.806554 0.922124 -6.05066e-20)
(0.939334 -0.0012557 -1.11191e-20)
(1.16756 0.0477356 1.1568e-20)
(1.18057 0.0812263 2.89523e-21)
(1.27101 0.121562 -3.75649e-20)
(1.31235 0.186362 -1.33315e-20)
(1.32813 0.340489 -8.46346e-21)
(1.29757 0.572885 2.52027e-20)
(1.23432 0.802993 -1.58446e-20)
(1.11031 0.978017 -1.16581e-20)
(0.954442 0.990948 -1.27073e-20)
(0.939808 -0.0189344 7.98511e-20)
(1.17478 0.0231471 -1.03175e-20)
(1.19095 0.0612947 -6.68783e-21)
(1.28695 0.109974 -3.3673e-20)
(1.33363 0.18532 2.95506e-20)
(1.36019 0.355424 1.18407e-20)
(1.35129 0.602694 -4.66654e-20)
(1.31766 0.843706 -2.01498e-19)
(1.23921 1.02479 1.12448e-20)
(1.11365 1.05245 -1.00503e-18)
(0.941238 -0.0373795 3.88603e-20)
(1.18438 -0.0024857 -3.75773e-21)
(1.20373 0.041733 -3.89787e-21)
(1.30465 0.0983945 5.16284e-20)
(1.35583 0.184444 1.14842e-20)
(1.3928 0.36933 3.32892e-22)
(1.40759 0.629003 -1.84297e-20)
(1.40881 0.877344 1.13928e-19)
(1.38015 1.06347 1.10931e-20)
(1.27887 1.10586 2.90496e-18)
(0.943234 -0.0566274 -1.92842e-19)
(1.19619 -0.0290684 2.55401e-22)
(1.219 0.0228306 3.33889e-20)
(1.32385 0.0869983 -4.66562e-20)
(1.37911 0.183629 -4.3664e-20)
(1.42671 0.382384 1.10506e-20)
(1.46779 0.651893 1.09614e-19)
(1.50835 0.904327 -2.44759e-19)
(1.53051 1.09511 -2.62848e-20)
(1.44682 1.14807 -6.46545e-18)
(0.945053 -0.0775822 4.67864e-21)
(1.20994 -0.0563158 3.31314e-21)
(1.2363 0.00508238 -7.13754e-21)
(1.34403 0.077294 -1.24949e-19)
(1.40109 0.186696 -6.53043e-20)
(1.45867 0.39868 1.69456e-21)
(1.52805 0.674972 -8.54109e-20)
(1.61058 0.927727 -6.08349e-19)
(1.68232 1.11931 -1.14784e-18)
(1.61379 1.16822 -7.99319e-18)
(0.947862 -0.110114 -1.5026e-20)
(1.22616 -0.0925558 -1.72519e-21)
(1.25733 -0.0215713 -3.45839e-23)
(1.36775 0.0597702 -4.96413e-20)
(1.43022 0.176438 2.31571e-20)
(1.50188 0.392101 -3.01749e-20)
(1.61004 0.666596 -4.40258e-20)
(1.75169 0.917863 -1.57101e-18)
(1.90022 1.12184 -1.657e-18)
(1.89714 1.20469 3.31966e-18)
(0.949921 -0.154375 -3.96167e-19)
(1.24284 -0.140079 -4.86148e-20)
(1.27853 -0.0638899 -1.38267e-20)
(1.3891 0.0326949 1.4662e-20)
(1.4454 0.149965 8.93463e-20)
(1.52264 0.351921 -2.77925e-19)
(1.67197 0.607016 -1.51734e-19)
(1.87987 0.844345 -6.41041e-19)
(2.13632 1.06002 1.647e-19)
(2.28174 1.15584 -3.29346e-19)
(0.946044 -0.198942 -2.58975e-20)
(1.25851 -0.191167 -4.41953e-20)
(1.29495 -0.103473 2.8489e-20)
(1.40762 0.00637742 4.1586e-20)
(1.461 0.129028 1.2492e-33)
(1.52967 0.310728 -6.99891e-21)
(1.70208 0.531252 -2.44504e-33)
(1.9573 0.743175 1.95304e-19)
(2.30309 0.947709 -9.36583e-19)
(2.58565 1.05383 -6.27665e-19)
(0.937633 -0.245497 1.52208e-18)
(1.27311 -0.238281 -6.24277e-34)
(1.304 -0.150691 -3.61234e-20)
(1.37469 -0.0176564 -1.4227e-19)
(1.38762 0.108102 -4.34714e-19)
(1.4613 0.254612 -9.00055e-19)
(1.65321 0.434603 -5.27392e-33)
(1.94678 0.617993 -1.65592e-18)
(2.33382 0.795434 -3.0813e-18)
(2.75559 0.899282 1.68052e-18)
(0.926215 -0.299659 0)
(1.29393 -0.279658 -3.15394e-33)
(1.19582 -0.168544 0)
(1.19879 -0.0214253 0)
(1.21261 0.0919497 0)
(1.30721 0.20108 0)
(1.51663 0.335694 -9.16758e-33)
(1.83101 0.481222 0)
(2.22143 0.629055 -3.44743e-19)
(2.73856 0.709572 1.26499e-18)
(0.913748 -0.359246 1.11259e-19)
(1.26486 -0.313337 -4.26578e-19)
(1.01804 -0.146991 -6.18019e-20)
(1.01003 -0.017509 0)
(1.02843 0.07067 0)
(1.12565 0.146569 7.08517e-20)
(1.32574 0.240998 1.34554e-18)
(1.62667 0.348113 -1.97278e-19)
(2.00177 0.463225 -4.96984e-19)
(2.5348 0.519096 4.66618e-18)
(0.881887 -0.405021 -1.52169e-17)
(1.0978 -0.271937 9.83197e-19)
(0.829578 -0.114522 -7.62525e-20)
(0.80349 -0.0159622 -1.40094e-19)
(0.824851 0.0470052 -4.26317e-19)
(0.915371 0.0938335 -7.34696e-19)
(1.08988 0.153219 -1.13771e-18)
(1.35252 0.225286 -1.47646e-18)
(1.69022 0.304751 -1.66752e-18)
(2.18092 0.343996 3.66137e-18)
(0.808032 -0.394438 -4.12496e-19)
(0.888769 -0.204176 -1.21805e-18)
(0.624763 -0.0751339 -1.26909e-19)
(0.58712 -0.0123982 -7.9887e-20)
(0.606855 0.0260107 -5.26595e-34)
(0.679978 0.0495711 1.08471e-19)
(0.814658 0.0801817 -1.58785e-32)
(1.01986 0.121026 -1.94131e-19)
(1.29355 0.16676 2.96771e-19)
(1.69951 0.191984 7.04015e-19)
(0.663774 -0.288827 3.42991e-17)
(0.618479 -0.106749 -3.12194e-18)
(0.401387 -0.032709 -2.40433e-19)
(0.359788 -0.00656219 -8.11612e-20)
(0.373709 0.00940391 3.34878e-19)
(0.421788 0.0169302 7.40189e-19)
(0.506684 0.027477 7.78596e-19)
(0.638505 0.0441695 4.60509e-19)
(0.821011 0.0632955 -1.82957e-19)
(1.10143 0.0762271 3.55786e-18)
(0.336685 -0.0768426 5.58956e-19)
(0.261796 -0.0023513 -6.77503e-33)
(0.146729 0.0179633 -3.0401e-19)
(0.126127 0.00241755 0)
(0.129721 -0.00169962 0)
(0.146023 -0.00474911 1.06305e-19)
(0.174486 -0.00595342 7.68012e-35)
(0.220855 -0.00401309 -1.24341e-19)
(0.288092 -0.0015625 -2.80158e-19)
(0.398863 0.0033305 9.98428e-19)
(2.00073 1.09448 -1.78369e-18)
(2.23791 1.07699 -2.30501e-18)
(2.44112 1.02803 0)
(2.63629 0.951735 -7.63958e-19)
(2.82295 0.851971 -1.79763e-18)
(2.99224 0.732021 -2.24965e-18)
(3.13665 0.594791 -4.88433e-19)
(3.25018 0.44253 1.26965e-18)
(3.32792 0.276858 -3.54758e-18)
(3.36735 0.0986388 1.3566e-18)
(2.49687 1.13919 2.61256e-19)
(2.72899 1.07984 1.39206e-18)
(2.92258 1.00267 1.44145e-19)
(3.10569 0.908711 6.7135e-19)
(3.27978 0.799907 -1.1004e-18)
(3.43932 0.677817 -4.98848e-18)
(3.58046 0.543669 2.46196e-18)
(3.70007 0.399083 1.26882e-17)
(3.79395 0.246155 1.03882e-19)