# Selection   : all
# Cells       : 440
# Volume      : 7.374263e+01
# Time        	max(p)
2.1           	1.924730e+00
2.15          	1.909025e+00
2.2           	1.896421e+00
