/*--------------------------------*- C++ -*----------------------------------*\
  =========                 |
  \\      /  F ield         | OpenFOAM: The Open Source CFD Toolbox
   \\    /   O peration     | Website:  https://openfoam.org
    \\  /    A nd           | Version:  13
     \\/     M anipulation  |
\*---------------------------------------------------------------------------*/
FoamFile
{
    format      ascii;
    class       volScalarField;
    location    "0.615";
    object      strainRateViscosityModel:nu;
}
// * * * * * * * * * * * * * * * * * * * * * * * * * * * * * * * * * * * * * //

dimensions      [0 2 -1 0 0 0 0];

internalField   nonuniform List<scalar> 
1800
(
9.40488
9.1976
9.01006
8.80094
8.57613
8.34412
8.11545
7.89817
7.62425
7.37933
9.58523
9.41878
9.2669
9.09732
8.91116
8.71141
8.50355
8.28866
8.02731
7.70212
9.70219
9.56269
9.42803
9.27096
9.08867
8.87898
8.6409
8.36902
8.03058
7.61064
9.77539
9.65614
9.53324
9.38287
9.20049
8.98171
8.7228
8.41596
8.02878
7.55458
9.82168
9.7183
9.60558
9.46166
9.2807
9.05695
8.78548
8.45888
8.04776
7.55616
9.85185
9.76081
9.6573
9.52059
9.34355
9.11896
8.84034
8.50016
8.07152
7.57021
9.87179
9.78991
9.69398
9.56396
9.39147
9.16769
8.8842
8.53252
8.08735
7.57568
9.88475
9.80924
9.71888
9.59395
9.42494
9.20146
8.91309
8.55005
8.08853
7.56355
9.8926
9.82107
9.73416
9.6122
9.44467
9.21963
8.92484
8.54923
8.07121
7.52871
9.89646
9.82686
9.74153
9.6207
9.4531
9.22573
8.92512
8.53953
8.05038
7.49285
1.78754
1.40536
1.21243
1.32247
1.73022
2.2492
2.49491
2.44926
2.36018
2.33642
3.71544
1.78359
1.49463
1.98144
2.69267
2.97098
2.81901
2.67453
2.69001
2.7428
4.69341
2.57246
2.43775
3.17491
3.59412
3.34764
3.08512
3.12121
3.26015
3.34037
5.26456
3.88346
3.81607
4.21216
4.18002
3.83133
3.72371
3.85668
3.95881
4.00788
6.05409
5.27591
5.1181
5.12075
4.91492
4.6543
4.57921
4.61325
4.61375
4.65364
6.9593
6.4601
6.22686
6.03802
5.7882
5.54564
5.38965
5.29403
5.22318
5.27587
7.77158
7.37776
7.11676
6.86016
6.58728
6.32052
6.08738
5.9013
5.77082
5.82448
8.4001
8.05531
7.79197
7.51568
7.22638
6.93111
6.64218
6.38645
6.19259
6.2297
8.84934
8.54536
8.29096
8.01024
7.70561
7.37939
7.03557
6.70115
6.41591
6.42202
9.16164
8.90153
8.6663
8.39663
8.09565
7.7657
7.4064
7.03566
6.70865
6.7526
2.19397
1.72977
1.33228
0.936354
0.617681
0.344139
0.170784
0.115386
0.127306
0.184847
2.52898
1.84977
1.40849
0.933193
0.592948
0.328311
0.156694
0.0775697
0.0668466
0.123458
2.94987
1.9794
1.48167
0.931981
0.55922
0.302668
0.142619
0.05711
0.0331635
0.0445192
3.44236
2.14944
1.55333
0.935823
0.521729
0.270854
0.125459
0.044003
0.0272739
0.0142763
3.98446
2.38734
1.63077
0.945218
0.484101
0.23543
0.106254
0.03575
0.025942
0.0126564
4.52974
2.6983
1.7269
0.961613
0.44935
0.197944
0.085949
0.0305774
0.0250934
0.0128495
4.99797
3.05789
1.84866
0.984283
0.41802
0.159486
0.0651396
0.0268267
0.0229752
0.0187673
5.31367
3.44081
2.01568
1.02702
0.397029
0.123565
0.0443526
0.0231106
0.0170164
0.0705834
5.3441
3.72414
2.16516
1.05893
0.374287
0.0899287
0.0282129
0.0161493
0.0430249
0.156208
5.20278
3.99033
2.40078
1.16268
0.391436
0.073404
0.0133232
0.0214169
0.11886
0.220392
4.94522
3.94375
2.45758
1.17619
0.365705
0.0508427
0.0158966
0.100218
0.185414
0.301196
5.33135
3.34898
2.1403
0.997021
0.354456
0.127432
0.109114
0.177226
0.275359
0.389955
4.90517
3.04475
2.24526
1.19999
0.58429
0.284508
0.193467
0.249344
0.346953
0.461504
4.546
3.63004
2.67876
1.63659
0.888056
0.487313
0.327392
0.339006
0.420472
0.522821
5.11354
4.74684
3.34161
2.16247
1.23595
0.724427
0.486599
0.441647
0.493404
0.573217
6.25432
5.66935
4.05708
2.67362
1.59815
0.978732
0.666575
0.559128
0.569669
0.61568
7.26271
6.37376
4.71399
3.15501
1.95771
1.23957
0.855419
0.685288
0.647994
0.651705
8.00013
6.91211
5.26014
3.58953
2.30071
1.50098
1.04927
0.817643
0.729208
0.68412
8.51878
7.33078
5.69758
3.97052
2.621
1.75479
1.23815
0.946149
0.806223
0.711175
8.93101
7.69123
6.04993
4.28337
2.92565
2.02598
1.45143
1.09588
0.900741
0.745601
6.51282
6.43966
6.43044
6.44877
6.48739
6.53001
6.58209
6.71066
6.89538
6.82648
0.260703
1.05719
2.00782
2.92293
3.70391
4.31659
4.7334
4.983
5.22217
5.72837
3.85073
3.5438
3.28452
3.11124
3.1063
3.24995
3.47225
3.7135
4.16513
4.84518
6.64421
6.62726
6.53715
6.34468
6.04321
5.65769
5.24932
4.89566
4.73898
4.54891
7.69186
7.67656
7.63214
7.54131
7.39615
7.18986
6.92705
6.61943
6.28582
5.6561
8.44952
8.43313
8.39436
8.32773
8.22959
8.09673
7.92838
7.71685
7.42792
6.9078
8.93968
8.92394
8.89029
8.83679
8.76167
8.66291
8.53817
8.37893
8.15469
7.80863
9.27299
9.25981
9.23246
9.18985
9.13052
9.05245
8.95269
8.82482
8.65282
8.43092
9.50446
9.49417
9.47307
9.44024
9.39426
9.33319
9.25424
9.15287
9.02289
8.87535
9.6899
9.68285
9.66852
9.64604
9.61405
9.5707
9.51361
9.43975
9.34638
9.2441
7.24827
7.52632
7.83696
8.08765
8.34476
8.59957
8.84135
9.06156
9.25458
9.46026
7.58322
7.9481
8.24096
8.48109
8.70931
8.92478
9.12228
9.29899
9.45391
9.61806
7.49857
7.9574
8.32594
8.62048
8.87573
9.09771
9.28804
9.44951
9.58536
9.72226
7.44694
7.95762
8.37375
8.70198
8.97657
9.20595
9.39471
9.54806
9.67131
9.78824
7.45636
7.98067
8.41859
8.76488
9.05053
9.28355
9.46977
9.61591
9.72868
9.83022
7.48243
8.01168
8.46401
8.82146
9.11233
9.34474
9.52606
9.66446
9.76796
9.85764
7.50364
8.03786
8.50277
8.86862
9.16197
9.39189
9.56764
9.6989
9.79479
9.8757
7.51114
8.05246
8.52871
8.90209
9.19746
9.42521
9.5964
9.72213
9.81243
9.88729
7.49836
8.05045
8.53742
8.91898
9.21768
9.44503
9.61371
9.73606
9.8229
9.89404
7.48288
8.04359
8.53593
8.92344
9.22525
9.4533
9.62123
9.74217
9.82746
9.89693
2.55502
2.51196
2.53046
2.74156
2.92439
2.54985
1.69607
1.18099
1.52188
4.18883
2.96317
2.8749
2.71577
2.71447
3.10372
3.42895
2.81881
1.90469
2.12287
5.13222
3.45278
3.409
3.251
3.06506
3.2656
3.82383
3.8022
3.15892
3.28589
5.45371
3.94567
3.93467
3.90787
3.79841
3.89115
4.31839
4.58904
4.46633
4.65843
5.91134
4.499
4.4715
4.54656
4.61772
4.78112
5.11432
5.43821
5.6182
5.89523
6.63008
5.1023
5.05975
5.1991
5.39708
5.65751
5.98063
6.30855
6.595
6.90022
7.40594
5.65441
5.61811
5.8187
6.09095
6.40793
6.74089
7.06843
7.37792
7.67846
8.0863
6.06723
6.05258
6.31542
6.64246
6.99499
7.33972
7.66717
7.97406
8.25884
8.611
6.26072
6.27954
6.63113
7.02592
7.42006
7.78432
8.11663
8.41661
8.68278
8.98796
6.60039
6.57014
6.9561
7.37948
7.78128
8.14304
8.46647
8.7504
8.99299
9.25187
0.109545
0.15546
0.117186
0.0578606
0.0141603
0.383469
0.9211
1.47693
1.94603
2.42925
0.0757495
0.140465
0.112827
0.0585258
0.0143035
0.373772
0.926324
1.54174
2.02714
2.69732
0.0539209
0.13225
0.111254
0.0618544
0.0230307
0.374608
0.935522
1.59442
2.1002
3.00975
0.0410272
0.130694
0.113633
0.0699602
0.0410725
0.38466
0.945442
1.63426
2.20568
3.3977
0.0347742
0.13455
0.118465
0.0804621
0.0644553
0.397419
0.952529
1.67198
2.38456
3.86824
0.0339571
0.142334
0.124
0.0905542
0.0889389
0.408876
0.960128
1.73053
2.65119
4.36524
0.0387968
0.153795
0.128841
0.0980826
0.109709
0.41602
0.972996
1.82645
2.9828
4.79572
0.0501948
0.169734
0.132635
0.103181
0.126147
0.427232
1.01505
1.98524
3.34924
5.08014
0.0702471
0.190348
0.13545
0.102094
0.130088
0.428491
1.05222
2.13605
3.62741
5.08316
0.101641
0.212639
0.138897
0.104662
0.146109
0.475651
1.18851
2.39403
3.87725
4.89169
0.159135
0.240491
0.145424
0.102175
0.135222
0.475827
1.25149
2.50662
3.8864
4.6741
0.26275
0.270787
0.134815
0.077892
0.0725553
0.37847
1.12067
2.30393
3.43147
5.19341
0.42766
0.268929
0.104056
0.0160492
0.0147562
0.331031
1.14239
2.34733
3.25509
4.93854
0.680716
0.255247
0.0226567
0.0807807
0.107022
0.529491
1.4256
2.6192
3.71212
4.69717
1.06435
0.0481305
0.258062
0.242905
0.321655
0.886508
1.93079
3.20335
4.70523
5.17627
1.51474
0.119523
0.535195
0.42331
0.604038
1.30628
2.47306
3.91594
5.59815
6.22301
2.19463
0.684716
0.8525
0.696417
0.949911
1.73851
2.99234
4.59319
6.3024
7.21637
3.79206
1.70576
1.2728
1.04322
1.3255
2.152
3.4621
5.16523
6.85418
7.96882
6.8601
3.57598
1.96237
1.42703
1.68621
2.52676
3.87481
5.63147
7.29523
8.50726
9.04905
6.38381
2.8433
2.00645
2.12188
2.90049
4.22592
6.01954
7.68655
8.93807
6.62499
6.68794
6.51114
6.3893
6.34887
6.32263
6.3056
6.31736
6.36196
6.47626
5.52929
5.0104
4.76648
4.52528
4.12701
3.54095
2.79894
1.93233
1.04481
0.284277
4.85031
4.23699
3.82731
3.61659
3.42967
3.31014
3.31505
3.45739
3.65523
3.87425
4.71155
4.88499
5.02761
5.33734
5.70176
6.05221
6.33389
6.52143
6.61659
6.64164
5.68723
6.28552
6.61213
6.91128
7.17237
7.3815
7.53184
7.62818
7.67673
7.69242
6.86578
7.38859
7.68445
7.90235
8.07662
8.21487
8.31783
8.38858
8.43056
8.4489
7.76515
8.12052
8.352
8.51793
8.64798
8.751
8.82957
8.88583
8.92165
8.939
8.40456
8.63269
8.80888
8.94093
9.04401
9.12466
9.18596
9.23006
9.25855
9.2726
8.86615
9.01619
9.14761
9.25059
9.33082
9.39282
9.43944
9.47267
9.494
9.50442
9.24867
9.35044
9.443
9.5163
9.57293
9.61588
9.64748
9.66956
9.68348
9.69012
9.50945
8.98531
8.23585
6.92821
5.59793
0.131167
3.36079
5.96035
7.21405
8.15183
9.4654
8.92153
8.16809
6.89054
5.54935
0.563763
2.62218
5.70598
6.91639
7.91392
9.36566
8.78278
8.02023
6.80957
5.36632
1.60347
1.41354
5.2066
6.3093
7.40326
9.18252
8.54509
7.77445
6.65507
5.18641
2.74001
0.723082
4.23835
5.42153
6.57143
8.86808
8.17354
7.40395
6.37689
5.02648
3.368
0.970944
2.6316
4.31692
5.39375
8.35048
7.62966
6.87335
5.91722
4.76506
3.44002
1.71922
1.30191
3.04928
3.98811
7.53599
6.89653
6.15547
5.2275
4.29963
3.26953
2.14306
1.17243
1.65628
2.55747
6.32533
6.03749
5.28125
4.23185
3.53348
2.91265
2.1184
1.43505
1.06847
1.2355
4.63164
5.23215
4.47425
2.99959
2.43719
2.27458
1.85599
1.38465
1.12247
0.659082
2.67271
4.53939
4.02154
1.96681
1.39688
1.48842
1.40985
1.21146
1.06376
0.844918
1.27666
3.78858
3.66648
1.33749
0.816289
0.897567
0.970815
0.955897
0.971365
1.01951
0.613412
2.96901
3.08179
0.956866
0.575322
0.639598
0.758823
0.819378
0.843431
0.876482
0.355322
2.18855
2.28475
0.688285
0.492211
0.594488
0.725434
0.809833
0.847714
0.872567
0.265298
1.54989
1.48854
0.520966
0.533415
0.672875
0.786366
0.857439
0.880942
0.891285
0.239679
1.01904
0.845005
0.512678
0.667935
0.801591
0.902821
0.966357
0.982145
0.979136
0.242959
0.494202
0.498983
0.634603
0.815557
0.953019
1.05083
1.1086
1.11923
1.11112
0.178073
0.203947
0.506778
0.754509
0.972793
1.1186
1.20849
1.25567
1.27245
1.27299
0.0455526
0.250714
0.648271
0.921107
1.13463
1.25239
1.32862
1.39817
1.45437
1.47601
0.0599016
0.491659
0.821295
1.0955
1.22991
1.3386
1.48824
1.64601
1.73303
1.74869
0.690955
0.863209
1.04068
1.18522
1.32449
1.59662
1.90801
2.07772
2.08032
2.04773
0.362946
0.0802388
0.223061
0.548988
0.791994
0.888326
0.881369
0.828818
0.779963
0.760538
0.461801
0.201559
0.318057
0.519747
0.721554
0.807973
0.802762
0.75646
0.714393
0.708519
0.525176
0.370949
0.438556
0.511922
0.651385
0.728347
0.725856
0.684823
0.64879
0.655323
0.637884
0.586166
0.593611
0.553559
0.585536
0.641624
0.643819
0.610736
0.582363
0.601018
0.804536
0.801471
0.739799
0.635828
0.540433
0.554757
0.559811
0.53581
0.515664
0.545579
1.00776
0.997242
0.872909
0.734976
0.52924
0.473311
0.474303
0.460079
0.448817
0.48898
1.22571
1.16885
0.98781
0.822887
0.550897
0.407263
0.39007
0.384382
0.382202
0.431138
1.45057
1.32333
1.08685
0.885451
0.587288
0.366146
0.311288
0.309787
0.316029
0.372
1.68358
1.46743
1.17386
0.920962
0.616801
0.350863
0.244394
0.237909
0.251065
0.311331
1.92584
1.6033
1.25432
0.93512
0.627274
0.349002
0.196731
0.171756
0.186888
0.249638
2.00901
0.747132
0.716333
0.962879
1.19363
1.27903
1.25277
1.17724
1.10836
1.02401
1.3944
0.482741
0.577935
0.872344
1.10582
1.19323
1.17158
1.10149
1.036
0.965169
0.751669
0.28785
0.480186
0.795544
1.03182
1.12156
1.10391
1.03809
0.976247
0.917045
0.253541
0.170164
0.404641
0.723958
0.957057
1.0457
1.03047
0.968783
0.911019
0.864864
0.435929
0.0327435
0.266626
0.611379
0.861487
0.961949
0.954916
0.899006
0.845641
0.812651
9.35463
9.29003
9.14097
8.87307
8.43752
7.77885
6.8713
5.75926
4.58192
3.53701
9.19246
9.09563
8.88108
8.51162
7.94147
7.13641
6.10958
4.95504
3.84471
2.78676
9.02386
8.90024
8.62658
8.161
7.46171
6.51609
5.37137
4.16858
3.08124
1.94237
8.81629
8.66217
8.32146
7.74788
6.90611
5.81418
4.55493
3.29479
2.22587
1.09012
8.58746
8.37935
7.92579
7.1774
6.11246
4.79205
3.35064
2.08519
0.994076
0.302039
1.06056
1.0248
1.01672
1.02027
0.915567
0.799925
1.29361
3.68276
3.85923
1.32325
0.949574
0.934182
0.926677
0.871257
0.719309
0.588964
0.911279
3.14102
3.10892
0.6476
0.986303
0.982781
0.965948
0.893169
0.747813
0.585013
0.698945
2.37121
2.34494
0.377551
1.05348
1.06533
1.06115
1.00135
0.890071
0.741126
0.656272
1.55564
1.63215
0.27734
1.18558
1.20964
1.21527
1.16756
1.07658
0.951656
0.789052
0.9083
0.917272
0.246238
1.34993
1.36982
1.37804
1.35277
1.28275
1.1495
0.928317
0.668558
0.357408
0.216601
1.5532
1.54915
1.5169
1.47454
1.42333
1.31643
1.07645
0.752044
0.272069
0.0663301
1.81988
1.8133
1.73081
1.57849
1.43911
1.34226
1.20656
0.898383
0.492798
0.046747
2.09949
2.14638
2.14408
1.9502
1.60811
1.32045
1.185
1.0537
0.852888
0.673943
2.30808
2.35502
2.47902
2.52948
2.22643
1.62727
1.18026
1.06533
1.30135
2.03245
8.15163
7.21369
5.95999
3.36029
0.131423
5.59646
6.92772
8.23565
8.98532
9.50954
7.91323
6.91528
5.70497
2.62158
0.563633
5.5455
6.88909
8.1675
8.92158
9.46571
7.4018
6.30742
5.20481
1.41543
1.59975
5.36183
6.8073
8.01936
8.78291
9.36625
6.56879
5.41864
4.23618
0.726249
2.73172
5.18168
6.65222
7.77347
8.54542
9.18355
5.38937
4.31242
2.63257
0.97104
3.35668
5.02052
6.37343
7.40302
8.17428
8.86984
3.97973
3.04136
1.3101
1.7133
3.42676
4.75618
5.91241
6.87246
7.63114
8.35346
2.54091
1.65329
1.18725
2.13298
3.25086
4.28293
5.21875
6.15454
6.89941
7.54132
1.21729
1.08764
1.45193
2.10737
2.88043
3.50299
4.21742
5.28193
6.04341
6.33605
0.67157
1.1531
1.40732
1.84248
2.23204
2.40026
2.98382
4.47915
5.24333
4.65568
0.885123
1.10266
1.24742
1.41296
1.46398
1.36914
1.94335
4.02611
4.5648
2.71688
2.08964
0.543232
1.06045
0.63139
0.664347
0.759366
0.632536
0.300025
0.0624263
0.356631
1.62973
0.236949
0.868934
0.48134
0.570415
0.681886
0.593158
0.356606
0.266263
0.488716
1.33371
0.0581499
0.640716
0.343307
0.481731
0.60222
0.561554
0.459469
0.473402
0.59131
1.0973
0.0148086
0.392507
0.235126
0.396779
0.518265
0.561584
0.625909
0.732227
0.758341
0.846987
0.0899147
0.18902
0.161399
0.318547
0.441389
0.607928
0.804359
0.973495
0.976918
0.634696
0.154737
0.0524425
0.104412
0.246072
0.385406
0.693188
0.973125
1.19161
1.22325
0.462326
0.209924
0.050168
0.0530006
0.181771
0.363861
0.785832
1.11529
1.38242
1.47814
0.329735
0.211428
0.106568
0.010559
0.122541
0.371735
0.857694
1.23027
1.55276
1.73172
0.230825
0.197368
0.118634
0.0364198
0.0631136
0.386789
0.898779
1.32381
1.70556
1.97192
0.15949
0.175464
0.122592
0.0533777
0.0264993
0.392126
0.915751
1.40426
1.83855
2.19534
9.33656
6.7703
2.66543
1.70074
1.20407
1.12281
0.967183
0.783163
0.797103
2.03328
8.21091
4.63638
2.21532
1.41889
1.07181
1.03776
0.893167
0.652282
0.52855
1.39868
6.12011
3.06387
1.78548
1.21171
0.967156
0.97321
0.833756
0.562234
0.329287
0.740989
4.13304
1.87579
1.49735
1.00535
0.861367
0.90576
0.77693
0.488377
0.229089
0.2248
2.83531
1.06123
1.24596
0.804966
0.758395
0.827747
0.686551
0.356543
0.0444353
0.397964
3.54772
4.58911
5.76317
6.87346
7.78038
8.43865
8.87384
9.14145
9.2903
9.35471
2.7809
3.84099
4.95228
6.10781
7.1358
7.94147
8.51184
8.88131
9.09579
9.19252
1.92837
3.07184
4.1621
5.36661
6.51354
7.46056
8.16058
8.6265
8.90026
9.02388
1.05529
2.20292
3.2815
4.54668
5.80998
6.9039
7.74676
8.321
8.66202
8.81626
0.300397
0.962349
2.06376
3.33737
4.78507
6.10888
7.17542
7.92484
8.37898
8.58738
)
;

boundaryField
{
    left
    {
        type            calculated;
        value           nonuniform List<scalar> 
35
(
0.299008
0.568922
0.988765
1.62624
2.52415
3.69528
5.06602
6.47613
8.15853
9.4418
0.208596
0.128635
0.0771634
0.0469972
0.0318462
0.0270971
0.0320155
0.0507907
0.0908831
0.159614
4.9334
4.06151
3.23458
2.51276
1.91693
1.42677
1.02998
0.722999
0.493391
0.32632
9.61572
8.97908
7.92208
6.84783
5.85944
)
;
    }
    right
    {
        type            calculated;
        value           nonuniform List<scalar> 
35
(
1.0236
0.965129
0.917547
0.866423
0.815581
0.76514
0.714845
0.663202
0.610284
0.556037
0.500341
0.442975
0.383715
0.322144
0.258611
0.191043
0.12583
0.0428879
0.0129365
0.0116975
0.0119386
0.0186509
0.077466
0.173712
0.243254
0.327497
0.417439
0.4886
0.5477
0.594117
0.631299
0.661613
0.688991
0.712587
0.743684
)
;
    }
    down
    {
        type            calculated;
        value           nonuniform List<scalar> 
40
(
9.4543
7.2663
2.89633
1.78982
1.24466
1.15124
0.992815
0.824768
0.898177
2.26049
3.83288
4.8824
6.03388
7.0928
7.94455
8.55497
8.95443
9.19922
9.33562
9.39485
9.39476
9.33534
9.1987
8.95357
8.55364
7.94261
7.08988
6.0287
4.87311
3.81879
2.23212
0.847225
0.760187
0.994766
1.22524
1.30849
1.27964
1.20165
1.13156
1.0429
)
;
    }
    up
    {
        type            calculated;
        value           nonuniform List<scalar> 
40
(
9.0341
7.80886
6.16778
4.39508
3.03372
2.12085
1.52421
1.14471
0.930954
0.757174
9.72927
9.72305
9.71045
9.69064
9.66234
9.62377
9.57263
9.50586
9.42075
9.32814
9.33504
9.42655
9.51038
9.57622
9.62664
9.66461
9.69238
9.71168
9.72379
9.72951
9.27073
7.09632
3.23928
2.15783
2.24093
3.02024
4.34817
6.14915
7.81369
9.04493
)
;
    }
    cylinder
    {
        type            calculated;
        value           nonuniform List<scalar> 
80
(
1.98315
4.55033
5.52552
5.77231
6.3022
7.08971
7.8616
8.47474
8.91246
9.21291
9.44581
9.61872
9.72982
9.7983
9.84096
9.86846
9.8865
9.89817
9.90522
9.90869
9.50041
9.65062
9.74903
9.81047
9.849
9.87389
9.89016
9.90054
9.90657
9.90913
5.31368
6.22942
6.20945
6.31373
6.83301
7.52592
8.17595
8.68594
9.05067
9.30252
0.994592
0.471734
0.264296
0.183279
0.159687
0.165648
0.0828887
0.0421961
0.748685
2.41867
9.59444
9.55587
9.46742
9.30184
9.00975
8.51132
7.68622
6.3666
4.38749
2.23919
9.59434
9.55555
9.46681
9.30076
9.00789
8.50815
7.68047
6.35445
4.3581
2.19123
0.952714
0.442194
0.244282
0.170807
0.150279
0.165463
0.161673
0.0843439
0.04336
0.729572
)
;
    }
    defaultFaces
    {
        type            empty;
    }
}


// ************************************************************************* //
