# Selection   : all
# Cells       : 440
# Volume      : 7.374263e+01
# Time        	max(p)
8.915         	1.986110e+00
8.96          	1.976679e+00
9.01          	1.969188e+00
