/*--------------------------------*- C++ -*----------------------------------*\
  =========                 |
  \\      /  F ield         | OpenFOAM: The Open Source CFD Toolbox
   \\    /   O peration     | Website:  https://openfoam.org
    \\  /    A nd           | Version:  13
     \\/     M anipulation  |
\*---------------------------------------------------------------------------*/
FoamFile
{
    format      ascii;
    class       surfaceScalarField;
    location    "0.26";
    object      phi;
}
// * * * * * * * * * * * * * * * * * * * * * * * * * * * * * * * * * * * * * //

dimensions      [0 3 -1 0 0 0 0];

internalField   nonuniform List<scalar> 
3485
(
0.00137153
-0.0112586
0.00988707
0.00505081
-0.031908
0.0282287
0.0107637
-0.0513842
0.0456713
0.0183122
-0.0696778
0.0621293
0.0275455
-0.086835
0.0776017
0.0383496
-0.1029
0.0920956
0.0506359
-0.117903
0.105616
0.0643615
-0.131864
0.118139
0.079624
-0.144851
0.129589
-0.156881
0.139486
0.0970191
0.00150027
-0.0127589
0.00544567
-0.0358534
0.011476
-0.0574145
0.0193236
-0.0775253
0.0287733
-0.0962848
0.0396481
-0.113774
0.0518037
-0.130058
0.0651325
-0.145193
0.0795431
-0.159262
-0.172188
0.0948497
0.00147414
-0.014233
0.00532693
-0.0397061
0.0111745
-0.0632621
0.0187211
-0.0850719
0.027726
-0.10529
0.03799
-0.124038
0.0493472
-0.141416
0.0616582
-0.157504
0.0747912
-0.172395
-0.186031
0.0886347
0.00133885
-0.0155719
0.00485905
-0.0432263
0.010211
-0.0686141
0.0171175
-0.0919784
0.0253548
-0.113527
0.034742
-0.133426
0.0451331
-0.151807
0.0564083
-0.168779
0.0684609
-0.184448
-0.198788
0.0812176
0.00116695
-0.0167388
0.0042561
-0.0463155
0.00897346
-0.0733314
0.0150824
-0.0980873
0.0223929
-0.120838
0.0307544
-0.141787
0.0400492
-0.161101
0.0501847
-0.178915
0.0610833
-0.195346
-0.210402
0.0726974
0.000980065
-0.0177189
0.00358813
-0.0489236
0.00758706
-0.0773303
0.0127848
-0.103285
0.0190275
-0.12708
0.0261947
-0.148954
0.0341945
-0.169101
0.0429577
-0.187678
0.0524292
-0.204818
-0.220551
0.0625781
0.000780786
-0.0184997
0.00286524
-0.051008
0.00606952
-0.0805346
0.0102438
-0.107459
0.0152681
-0.132104
0.0210489
-0.154735
0.0275173
-0.17557
0.0346246
-0.194785
0.0423366
-0.21253
-0.228854
0.0506397
0.000569776
-0.0190694
0.00209373
-0.052532
0.00443846
-0.0828793
0.00749369
-0.110515
0.0111702
-0.135781
0.015399
-0.158964
0.0201304
-0.180301
0.0253332
-0.199988
0.0309912
-0.218188
-0.234972
0.037109
0.000352586
-0.019422
0.00129604
-0.0534754
0.0027456
-0.0843289
0.0046293
-0.112398
0.00688788
-0.13804
0.009475
-0.161551
0.0123577
-0.183184
0.0155173
-0.203148
0.0189485
-0.221619
-0.238689
0.022666
0.000137876
-0.0195599
0.000502736
-0.0538403
0.00105751
-0.0848837
0.00177039
-0.113111
0.00261489
-0.138884
0.00356989
-0.162506
0.0046199
-0.184234
0.00575538
-0.204283
0.00697289
-0.222837
0.00827749
-0.239994
0.000497003
-0.00187053
0.00137353
0.00210204
-0.00622963
0.00462459
0.00543608
-0.0113445
0.00801043
0.0101232
-0.0161055
0.0114183
0.0155511
-0.0201028
0.0146749
0.0214468
-0.0234978
0.0176021
0.0279056
-0.0266714
0.0202125
0.0350804
-0.0298579
0.0226831
0.0429585
-0.0330114
0.0251334
-0.0359781
0.0514054
0.0275312
0.000422023
-0.00229255
0.00210899
-0.0079166
0.00545853
-0.014694
0.00986125
-0.0205082
0.0149489
-0.0251904
0.0208329
-0.0293818
0.0276931
-0.0335315
0.0354808
-0.0376456
0.0439837
-0.0415143
-0.0450301
0.0530357
0.000681888
-0.00297444
0.00272337
-0.00995808
0.00581258
-0.0177832
0.00981828
-0.0245139
0.0148903
-0.0302625
0.0212061
-0.0356976
0.0286983
-0.0410238
0.0370859
-0.0460332
0.0461488
-0.0505772
-0.054678
0.0557967
0.000871028
-0.00384547
0.00307223
-0.0121593
0.00610631
-0.0208173
0.0102464
-0.0286539
0.0157646
-0.0357808
0.022644
-0.0425769
0.0306402
-0.04902
0.0395154
-0.0549085
0.0491754
-0.0602372
-0.0650419
0.0595394
0.00092538
-0.00477085
0.00320835
-0.0144423
0.00653648
-0.0241454
0.0111481
-0.0332656
0.0171824
-0.0418151
0.0245124
-0.0499069
0.0329449
-0.0574525
0.0423825
-0.0643461
0.0527628
-0.0706175
-0.0762326
0.0639536
0.000944999
-0.00571585
0.0033766
-0.0168739
0.00710057
-0.0278694
0.0121916
-0.0383566
0.0186599
-0.0482834
0.0263934
-0.0576404
0.0352949
-0.066354
0.0453168
-0.074368
0.0563803
-0.081681
-0.0881797
0.0683274
0.000980263
-0.00669611
0.00358531
-0.0194789
0.00764473
-0.0319288
0.013114
-0.0438259
0.0199376
-0.0551069
0.0280291
-0.0657319
0.0373264
-0.0756513
0.0477831
-0.0848247
0.0593256
-0.0932236
-0.100663
0.0718088
0.00101788
-0.00771399
0.00376756
-0.0222286
0.00807126
-0.0362325
0.013821
-0.0495757
0.0209226
-0.0622085
0.0292874
-0.0740967
0.0388458
-0.0852097
0.049541
-0.0955199
0.0613142
-0.104997
-0.113414
0.0740648
0.00105435
-0.00876834
0.00393598
-0.0251102
0.00845987
-0.0407564
0.0144809
-0.0555967
0.0218733
-0.0696009
0.0305268
-0.0827501
0.0403462
-0.0950292
0.051243
-0.106417
0.0631359
-0.11689
-0.126298
0.0760201
0.00111873
0.00423719
0.00915204
0.0156846
0.0236854
0.0330309
0.0436181
0.0553403
0.0680396
0.0812278
0.114201
-0.413094
0.350299
0.167702
-0.469044
0.415543
0.209093
-0.417212
0.375821
0.241501
-0.32054
0.288132
0.26568
-0.207351
0.183172
0.281172
-0.102998
0.0875055
0.288509
-0.0404369
0.0330998
0.291288
-0.0174279
0.0146493
0.291771
-0.0101297
0.00964609
-0.0028826
0.00444189
0.116018
-0.476077
0.169642
-0.522668
0.211193
-0.458762
0.243384
-0.352731
0.267329
-0.231297
0.28217
-0.117839
0.288908
-0.0471746
0.291425
-0.0199443
0.291844
-0.0105488
-0.00135443
0.117976
-0.538256
0.170764
-0.575456
0.212163
-0.500161
0.243976
-0.384543
0.267696
-0.255017
0.282063
-0.132205
0.288574
-0.0536855
0.291171
-0.0225422
0.291762
-0.0111396
-8.76115e-05
0.120409
-0.599126
0.171306
-0.626352
0.212078
-0.540934
0.243345
-0.41581
0.266857
-0.278529
0.281024
-0.146372
0.287657
-0.0603177
0.290597
-0.025483
0.29157
-0.0121122
0.000702274
0.123294
-0.658466
0.171481
-0.67454
0.211026
-0.580479
0.241552
-0.446336
0.264849
-0.301826
0.279109
-0.160632
0.286182
-0.0673901
0.289707
-0.0290082
0.291266
-0.0136714
0.000806302
0.126109
-0.716248
0.171358
-0.719789
0.209102
-0.618223
0.238656
-0.47589
0.261688
-0.324859
0.276321
-0.175265
0.284149
-0.0752183
0.288501
-0.0333596
0.290845
-0.0160155
1.74871e-05
0.128002
-0.772441
0.17079
-0.762577
0.206401
-0.653833
0.234753
-0.504242
0.257416
-0.347522
0.272657
-0.190507
0.281564
-0.0841252
0.286985
-0.0387807
0.290306
-0.0193368
-0.00186473
0.128044
-0.82642
0.169321
-0.803854
0.202834
-0.687346
0.229843
-0.531251
0.252014
-0.369692
0.268058
-0.206551
0.278408
-0.0944754
0.285161
-0.0455328
0.289643
-0.0238197
-0.00504349
0.125935
-0.876334
0.166555
-0.844475
0.198395
-0.719186
0.224073
-0.55693
0.245601
-0.39122
0.26257
-0.223521
0.274716
-0.106621
0.283041
-0.0538574
0.288854
-0.0296326
-0.0097179
0.122229
-0.917336
0.161694
-0.88394
0.19223
-0.749722
0.216826
-0.581525
0.23774
-0.412134
0.25583
-0.241611
0.270316
-0.121107
0.280543
-0.0640844
0.287851
-0.0369412
-0.0160772
0.583736
-0.919658
-0.581414
0.560794
-0.860997
0.523303
-0.712231
0.48652
-0.544741
0.45865
-0.384265
0.446638
-0.229598
0.447152
-0.121621
0.447927
-0.0648594
0.445928
-0.0349424
-0.0154416
0.682613
-0.870901
-0.731369
0.619429
-0.797813
0.553991
-0.646794
0.497967
-0.488716
0.457966
-0.344264
0.441021
-0.212653
0.434414
-0.115014
0.426606
-0.0570514
0.419592
-0.027929
-0.0128432
0.754011
-0.774536
-0.850376
0.655584
-0.699387
0.565106
-0.556316
0.491634
-0.415244
0.438278
-0.290907
0.408998
-0.183373
0.394821
-0.100838
0.386724
-0.0489545
0.381353
-0.0225573
-0.0105839
0.779369
-0.641317
-0.912589
0.65469
-0.574708
0.548229
-0.449855
0.464691
-0.331706
0.404588
-0.230805
0.369163
-0.147948
0.352349
-0.0840235
0.344036
-0.040642
0.339153
-0.0176742
-0.00834514
0.753328
-0.492272
-0.902373
0.618281
-0.439661
0.507542
-0.339116
0.422608
-0.246771
0.362212
-0.170409
0.324857
-0.110593
0.305855
-0.0650211
0.297095
-0.0318819
0.292741
-0.01332
-0.00630764
0.685287
-0.345779
-0.83178
0.553084
-0.307458
0.447227
-0.233259
0.367552
-0.167096
0.311494
-0.114352
0.275873
-0.074972
0.256542
-0.0456904
0.247624
-0.0229636
0.243639
-0.00933466
-0.0044486
0.582694
-0.213849
-0.714624
0.463061
-0.187825
0.369715
-0.139914
0.300855
-0.0982357
0.253056
-0.0665526
0.222163
-0.0440786
0.204345
-0.0278722
0.195825
-0.0144442
0.192249
-0.00575851
-0.00280287
0.44878
-0.105526
-0.557104
0.35124
-0.0902843
0.277235
-0.065909
0.224024
-0.0450244
0.187668
-0.0301971
0.163867
-0.0202771
0.149357
-0.0133627
0.142071
-0.00715845
0.13909
-0.00277695
-0.00142767
0.286589
-0.0302236
-0.361892
0.22092
-0.0246151
0.172546
-0.0175351
0.138936
-0.0114141
0.11629
-0.007551
0.101203
-0.00519054
0.0914818
-0.00364103
0.0863749
-0.00205161
0.0843598
-0.000761768
-0.000452734
0.101309
-0.131533
0.076694
0.0591589
0.0477448
0.0401938
0.0350032
0.0313622
0.0293106
0.0285488
0.738835
0.0102248
-0.740782
0.733088
0.0284134
0.723446
0.0467506
0.710169
0.0639169
0.693571
0.0791764
0.67407
0.0921981
0.652257
0.10303
0.628685
0.112206
0.604227
0.119308
0.119832
0.84556
0.0134006
-0.848736
0.83733
0.0366436
0.827292
0.0567882
0.816593
0.0746166
0.805243
0.0905264
0.792879
0.104562
0.779253
0.116657
0.76454
0.126919
0.749055
0.134793
0.137518
0.845005
0.0114304
-0.843035
0.848907
0.0327421
0.853047
0.0526479
0.8565
0.0711632
0.85886
0.0881663
0.859942
0.103481
0.859606
0.116992
0.857962
0.128563
0.855274
0.137482
0.142415
0.800226
0.00930954
-0.798105
0.805836
0.027132
0.814438
0.0440455
0.825665
0.0599365
0.839042
0.074789
0.853907
0.0886161
0.869493
0.101405
0.885142
0.112914
0.900039
0.122585
0.129866
0.737875
0.00704353
-0.735609
0.744164
0.0208422
0.754135
0.0340744
0.767519
0.0465528
0.784105
0.058203
0.803694
0.0690274
0.826039
0.07906
0.850698
0.0882554
0.87665
0.0966327
0.104143
0.653926
0.0048579
-0.65174
0.660209
0.0145589
0.670385
0.0238981
0.68423
0.0327084
0.701536
0.0408966
0.722127
0.0484367
0.745828
0.0553584
0.772364
0.0617197
0.80127
0.0677264
0.0736329
0.549114
0.00291884
-0.547175
0.554815
0.00885772
0.564142
0.0145715
0.57691
0.0199403
0.59292
0.0248865
0.611974
0.029382
0.63388
0.0334534
0.658419
0.0371798
0.685399
0.0407467
0.0444084
0.422792
0.00137722
-0.42125
0.427413
0.00423688
0.435008
0.00697603
0.445423
0.00952583
0.458471
0.0118383
0.473958
0.0138949
0.491699
0.0157128
0.51153
0.0173486
0.53335
0.018926
0.0206553
0.273827
0.000367129
-0.272817
0.276914
0.00114971
0.281998
0.00189184
0.288955
0.00256935
0.297629
0.00316425
0.307855
0.00366879
0.31948
0.00408756
0.332393
0.00443608
0.346559
0.00475972
0.00532248
0.100483
-0.100116
0.101633
0.103525
0.106094
0.109258
0.112927
0.117015
0.121451
0.12621
0.077996
0.159443
-0.142411
-0.0950285
0.0630752
0.147413
-0.132492
0.0496522
0.134371
-0.120948
0.0376263
0.120308
-0.108283
0.0270412
0.105156
-0.0945707
0.0179865
0.0888865
-0.0798318
0.0105773
0.0714579
-0.0640487
0.00496511
0.05281
-0.0471978
0.00134842
0.0328764
-0.0292597
0.0116405
-0.010292
0.0779888
0.174391
-0.0929366
0.0639049
0.161497
0.0508625
0.147414
0.0389527
0.132218
0.0282848
0.115824
0.019005
0.0981663
0.0112918
0.0791711
0.00536033
0.0587415
0.00147732
0.0367594
0.0131178
0.0732153
0.1879
-0.0867244
0.0603944
0.174318
0.048366
0.159442
0.0372581
0.143326
0.0272082
0.125874
0.0183816
0.106993
0.0109774
0.0865753
0.00523542
0.0644834
0.00144955
0.0405452
0.0145673
0.0667977
0.200336
-0.0792337
0.0550511
0.186064
0.0440607
0.170432
0.0339282
0.153459
0.0247697
0.135032
0.0167282
0.115034
0.00998186
0.0933217
0.0047513
0.069714
0.00130952
0.043987
0.0158768
0.0593321
0.211648
-0.070644
0.0487285
0.196668
0.0388757
0.180285
0.0298459
0.162488
0.0217266
0.143151
0.0146303
0.122131
0.00870237
0.0992497
0.00412626
0.0742901
0.00113085
0.0469824
0.0170077
0.0506119
0.221518
-0.0604817
0.0414203
0.20586
0.0329333
0.188772
0.0252005
0.170221
0.0182853
0.150067
0.0122726
0.128143
0.00727493
0.104247
0.00343637
0.0781287
0.000937188
0.0494816
0.0179449
0.0404665
0.229565
-0.0485134
0.0330188
0.213307
0.0261802
0.195611
0.0199793
0.176422
0.0144583
0.155588
0.00967767
0.132924
0.00572034
0.108205
0.00269361
0.0811554
0.000731761
0.0514435
0.0186766
0.0290597
0.235445
-0.0349398
0.0236548
0.218712
0.0187167
0.200549
0.0142561
0.180883
0.0102965
0.159547
0.00687745
0.136343
0.0040554
0.111027
0.0019041
0.0833067
0.00051521
0.0528323
0.0191918
0.0169198
0.238931
-0.0204056
0.0137431
0.221889
0.0108554
0.203437
0.0082548
0.183483
0.0059512
0.161851
0.00396612
0.138328
0.00233185
0.112661
0.00109045
0.0845481
0.000293167
0.0536296
0.019485
0.00482743
-0.00589051
0.00387972
0.00303317
0.00228252
0.00162735
0.00107135
0.000621157
0.000285576
7.48908e-05
0.0433686
0.0410096
-0.0522073
-0.0321709
0.0350513
0.0379769
-0.0296596
0.0274428
0.0346018
-0.0269933
0.0207579
0.0310236
-0.0243387
0.0149854
0.0274938
-0.0217213
0.0098856
0.0239587
-0.0188589
0.00536199
0.0198362
-0.0153125
0.00192368
0.0142632
-0.0108249
0.000372436
0.00728842
-0.00573718
0.00205587
-0.00168343
0.0437697
0.0501766
-0.0529367
0.0351215
0.0466251
0.0270896
0.0426337
0.0199574
0.0381559
0.0140292
0.0334219
0.00929766
0.0286903
0.00551533
0.0236185
0.00255392
0.0172246
0.000610326
0.00923203
0.00266619
0.0452023
0.0597656
-0.0547913
0.036243
0.0555845
0.0279653
0.0509114
0.0204928
0.0456283
0.0141532
0.0397616
0.00920377
0.0336397
0.00558164
0.0272406
0.00291662
0.0198896
0.000811301
0.0113373
0.0034775
0.0477487
0.0700012
-0.0579842
0.0382616
0.0650716
0.0296357
0.0595373
0.0219108
0.0533532
0.0152188
0.0464536
0.00982145
0.039037
0.00583992
0.0312221
0.00300099
0.0227286
0.000886777
0.0134516
0.00436427
0.0512152
0.0809815
-0.0621955
0.0410566
0.0752302
0.0318821
0.0687117
0.0237548
0.0614805
0.0167016
0.0535068
0.0108538
0.0448848
0.00634972
0.0357263
0.00309874
0.0259796
0.000892692
0.0156576
0.00525697
0.0548526
0.0926305
-0.0665017
0.0440795
0.0860033
0.0343456
0.0784456
0.0257271
0.0700991
0.0182476
0.0609862
0.011966
0.0511664
0.00697958
0.0407127
0.00330543
0.0296537
0.000917449
0.0180456
0.00617441
0.0578312
0.104758
-0.069959
0.0466265
0.097208
0.0364804
0.0885917
0.0274545
0.079125
0.0195858
0.068855
0.0129255
0.0578266
0.00755402
0.0460842
0.0035424
0.0336653
0.00096505
0.0206229
0.00713946
0.0598206
0.117124
-0.0721867
0.048406
0.108623
0.0380298
0.0989679
0.0287382
0.0884166
0.0205834
0.0770098
0.0136344
0.0647756
0.0079822
0.0517364
0.0037317
0.0379158
0.00100823
0.0233464
0.00814769
0.061583
0.12961
-0.074069
0.0500557
0.12015
0.0394806
0.109543
0.02993
0.0979672
0.0214901
0.0854497
0.0142575
0.0720082
0.00834638
0.0576476
0.0038899
0.0423723
0.00104333
0.026193
0.00919102
0.0664019
-0.0792021
0.0540597
0.0426544
0.0323389
0.023218
0.0153943
0.00899325
0.00416771
0.00110101
0.215235
0.056048
-0.0732934
0.235065
0.0960074
-0.115837
0.255595
0.123254
-0.143785
0.265478
0.115043
-0.124925
0.265321
0.118367
-0.11821
0.246877
0.18208
-0.163636
0.215146
0.294038
-0.262306
0.172842
0.409416
-0.367113
0.117476
0.490213
-0.434847
0.457511
-0.392243
0.214293
0.0397448
0.233378
0.0769228
0.253343
0.103289
0.263944
0.104442
0.264847
0.117464
0.24748
0.199447
0.216014
0.325504
0.173308
0.452122
0.117721
0.545801
0.522295
0.213414
0.024321
0.23217
0.058166
0.25158
0.0838796
0.2626
0.0934218
0.263788
0.116276
0.246976
0.216259
0.215704
0.356776
0.172798
0.495028
0.118063
0.600536
0.585567
0.212669
0.00964223
0.231426
0.0394087
0.250274
0.0650311
0.261403
0.0822936
0.262217
0.115461
0.245392
0.233084
0.214218
0.38795
0.171553
0.537692
0.118968
0.653121
0.646551
0.212182
-0.00455019
0.231139
0.0204517
0.249363
0.0468075
0.26022
0.0714367
0.260063
0.115618
0.242701
0.250446
0.211604
0.419047
0.169884
0.579412
0.120522
0.702483
0.704878
0.212042
-0.0186022
0.231287
0.00120643
0.248746
0.0293486
0.258863
0.0613192
0.257174
0.117307
0.238871
0.26875
0.207992
0.449926
0.168018
0.619387
0.122295
0.748205
0.760671
0.212262
-0.0328746
0.23181
-0.018341
0.248305
0.0128532
0.257165
0.0524592
0.25344
0.121032
0.233957
0.288232
0.203581
0.480302
0.16596
0.657008
0.123461
0.790704
0.814173
0.212752
-0.0476366
0.232604
-0.0381929
0.247901
-0.00244364
0.254905
0.0454548
0.248664
0.127273
0.227942
0.308954
0.198409
0.509835
0.163342
0.692075
0.123052
0.830994
0.865038
0.213269
-0.0629162
0.233525
-0.0584488
0.2474
-0.0163186
0.252075
0.0407798
0.242982
0.136366
0.221097
0.330839
0.192628
0.538304
0.1598
0.724903
0.120703
0.870091
0.911673
0.213763
-0.078689
0.234296
-0.0789822
0.246739
-0.0287616
0.248269
0.0392499
0.235783
0.148852
0.21276
0.353863
0.185392
0.565672
0.154501
0.755793
0.11693
0.907662
0.949401
0.333045
-0.109724
0.371695
-0.117632
0.405755
-0.0628219
0.42544
0.0195656
0.44223
0.132062
0.468697
0.327395
0.506877
0.527493
0.549577
0.713093
0.581154
0.876086
0.944228
0.586326
0.334495
-0.142208
0.374979
-0.158117
0.409892
-0.0977351
0.428278
0.00118024
0.443586
0.116754
0.479047
0.291935
0.535292
0.471247
0.604676
0.643709
0.675223
0.805539
0.88667
0.732781
0.336273
-0.176471
0.37681
-0.198655
0.412711
-0.133635
0.430735
-0.0168443
0.44108
0.106409
0.480057
0.252958
0.549233
0.402071
0.639911
0.553031
0.742566
0.702884
0.782887
0.846349
0.339087
-0.213547
0.375707
-0.235274
0.39616
-0.154088
0.398764
-0.0194489
0.410978
0.0941956
0.458792
0.205144
0.537535
0.323328
0.642312
0.448254
0.767919
0.577278
0.646052
0.904754
0.345702
-0.25724
0.357687
-0.247259
0.347595
-0.143996
0.346848
-0.0187016
0.366771
0.0742725
0.418158
0.153757
0.499824
0.241662
0.609366
0.338712
0.744523
0.442121
0.495303
0.895271
0.341516
-0.296745
0.324664
-0.230407
0.29518
-0.114512
0.29299
-0.016512
0.314853
0.0524101
0.364077
0.104532
0.441479
0.16426
0.546692
0.233499
0.679238
0.309575
0.347702
0.826839
0.314483
-0.309218
0.273386
-0.189311
0.238531
-0.0796567
0.234668
-0.0126491
0.255298
0.0317797
0.298338
0.061492
0.365737
0.0968617
0.458856
0.14038
0.579033
0.189398
0.214981
0.711754
0.273901
-0.281108
0.213841
-0.129251
0.177294
-0.0431093
0.172539
-0.00789392
0.189201
0.0151177
0.22252
0.0281726
0.274876
0.044506
0.348954
0.0663017
0.447142
0.0912094
0.106099
0.556025
0.214643
-0.193741
0.140851
-0.0554588
0.11086
-0.0131187
0.106016
-0.00304973
0.117135
0.00399873
0.138257
0.00705029
0.171474
0.0112892
0.22008
0.017696
0.286355
0.0249339
0.0304012
0.362053
0.108269
0.0528102
0.0396914
0.0366417
0.0406404
0.0476907
0.0589799
0.0766759
0.10161
0.132011
0.608527
-0.11723
0.632227
-0.116636
0.655074
-0.109572
0.676249
-0.100409
0.695211
-0.089606
0.711362
-0.0766324
0.724265
-0.0614166
0.733598
-0.0442735
0.739088
-0.0258949
-0.00758525
0.750154
-0.134603
0.765097
-0.131579
0.779334
-0.123809
0.792586
-0.11366
0.804671
-0.101691
0.815823
-0.0877846
0.826391
-0.0719846
0.83639
-0.0542728
0.844847
-0.0343518
-0.0114738
0.851014
-0.139268
0.853494
-0.134058
0.855036
-0.125351
0.855432
-0.114056
0.854592
-0.100851
0.852691
-0.0858833
0.849956
-0.0692498
0.846786
-0.0511031
0.843981
-0.0315462
-0.010528
0.892792
-0.127307
0.878746
-0.120012
0.864028
-0.110633
0.849421
-0.0994497
0.835537
-0.0869671
0.823079
-0.0734246
0.812673
-0.0588438
0.804779
-0.04321
0.799761
-0.0265274
-0.00887218
0.87056
-0.102596
0.845725
-0.0951766
0.82206
-0.086968
0.800561
-0.0779511
0.781697
-0.0681032
0.76574
-0.0574674
0.752907
-0.0460102
0.743415
-0.0337182
0.737533
-0.0206454
-0.00694792
0.797125
-0.0728818
0.769012
-0.0670636
0.743167
-0.0611237
0.720062
-0.0548456
0.699985
-0.0480258
0.683119
-0.0406018
0.669646
-0.0325369
0.659772
-0.0238447
0.653729
-0.0146024
-0.00495869
0.683025
-0.0441535
0.656519
-0.0405573
0.632407
-0.037012
0.610878
-0.0333161
0.592142
-0.0292895
0.576391
-0.0248516
0.563825
-0.0199701
0.554644
-0.014664
0.549042
-0.00900083
-0.003091
0.532506
-0.0206349
0.510898
-0.0189489
0.491262
-0.017376
0.47369
-0.0157444
0.458338
-0.0139376
0.445387
-0.0119002
0.435029
-0.00961219
0.427453
-0.00708743
0.422821
-0.00436877
-0.00152078
0.346768
-0.00535051
0.332627
-0.00480736
0.319734
-0.0044829
0.308121
-0.00413158
0.297895
-0.00371176
0.289204
-0.00320918
0.28221
-0.00261858
0.277069
-0.00194622
0.273909
-0.00120854
-0.00042854
0.126661
0.121853
0.11737
0.113239
0.109527
0.106318
0.103699
0.101753
0.100544
0.000185025
0.0116066
-0.0117916
0.000623629
0.0304401
-0.0308787
0.00123695
0.0462326
-0.0468459
0.001977
0.0594565
-0.0601966
0.00277616
0.0700091
-0.0708082
0.00376891
0.0798752
-0.080868
0.00396279
0.0772539
-0.0774478
0.00408412
0.0700301
-0.0701514
0.00394423
0.0610685
-0.0609286
0.0499465
0.00350652
-0.0495088
0.000533303
0.0110733
0.00180356
0.0291698
0.00358448
0.0444517
0.0057403
0.0573007
0.00807149
0.0676779
0.0110378
0.0769089
0.011674
0.0766178
0.0120787
0.0696253
0.0117715
0.0613758
0.0510688
0.0106492
0.000835349
0.0102379
0.00283134
0.0271738
0.00563816
0.0416449
0.00904006
0.0538988
0.0127374
0.0639806
0.0172447
0.0724016
0.0187871
0.0750754
0.0195684
0.0688439
0.0193821
0.0615621
0.0524252
0.0180257
0.00105578
0.00918216
0.00359637
0.0246332
0.00719239
0.0380488
0.0115539
0.0495373
0.0163539
0.0591806
0.0217442
0.0670113
0.0250688
0.0717509
0.0263507
0.067562
0.0265988
0.0613141
0.0535571
0.0254669
0.00115123
0.00803093
0.00397858
0.0218059
0.00804031
0.0339871
0.0129947
0.0445829
0.0185486
0.0536267
0.0245536
0.0610063
0.0299478
0.0663567
0.0320853
0.0654245
0.0330063
0.0603932
0.0540821
0.0324813
0.00111125
0.00691968
0.00396521
0.0189519
0.00818407
0.0297683
0.0133879
0.039379
0.0193148
0.0476998
0.0257679
0.0545532
0.0324114
0.0597132
0.0363084
0.0615275
0.0381197
0.0585819
0.0536985
0.0385032
0.000926037
0.00599365
0.00357217
0.0163058
0.007709
0.0256314
0.0128792
0.0342089
0.0187832
0.0417958
0.025334
0.0480024
0.0323166
0.0527306
0.038272
0.0555721
0.041585
0.0552689
0.052175
0.0431085
0.000567831
0.00542582
0.00278597
0.0140877
0.00665564
0.0217618
0.0116183
0.0292463
0.0172004
0.0362136
0.0234431
0.0417597
0.0302819
0.0458917
0.0371811
0.0486729
0.0425612
0.0498888
0.0489142
0.045822
0.000104273
0.00532154
0.00176846
0.0124235
0.00517401
0.0183562
0.00981127
0.024609
0.0149524
0.0310725
0.020617
0.0360951
0.0269005
0.0396082
0.0335857
0.0419877
0.0400863
0.0433883
0.0437821
0.0452184
-0.000174665
0.00549621
0.00108731
0.0111615
0.00385488
0.0155886
0.0078834
0.0205805
0.012497
0.0264589
0.0175693
0.0310229
0.0231784
0.033999
0.0292539
0.0359122
0.0356435
0.0369987
0.0373517
0.0420739
-1.98266e-05
0.00551604
0.001141
0.0100007
0.00327774
0.0134519
0.00641201
0.0174462
0.0102951
0.0225758
0.014841
0.026477
0.019966
0.028874
0.0255032
0.0303749
0.0312464
0.0312555
0.0316709
0.0369272
0.000380649
0.00513539
0.00153645
0.00884489
0.00318657
0.0118018
0.00550019
0.0151326
0.00872961
0.0193464
0.0129264
0.0222802
0.0177878
0.0240126
0.023064
0.0250988
0.0285651
0.0257544
0.0260236
0.0342123
0.000630822
0.00450457
0.00171923
0.00775648
0.00304556
0.0104755
0.00487657
0.0133016
0.00788637
0.0163366
0.0119918
0.0181748
0.0167565
0.0192479
0.0219428
0.0199125
0.0274191
0.0202781
0.0203581
0.0330847
0.000686971
0.00381759
0.00166314
0.00678031
0.00285552
0.00928308
0.00475756
0.0113995
0.00804809
0.0130461
0.0122914
0.0139315
0.0171199
0.0144194
0.0223723
0.01466
0.0279523
0.0146981
0.0145358
0.0337746
0.000672393
0.0031452
0.00157431
0.00587838
0.00303264
0.00782476
0.00563412
0.00879803
0.00942958
0.00925059
0.0139548
0.00940626
0.0190019
0.00937232
0.0244706
0.00919128
0.0302927
0.00887597
0.00843155
0.0363969
0.00059362
0.00255157
0.00172172
0.00475027
0.00407442
0.00547205
0.00753001
0.00534244
0.0117759
0.00500472
0.0166155
0.00456668
0.0219481
0.00403966
0.0277145
0.00342491
0.0338631
0.00272734
0.0019594
0.0403352
0.000515698
0.00203587
0.00246531
0.00280064
0.00571859
0.00221876
0.00970075
0.00136028
0.0142736
0.000431875
0.0193905
-0.000550197
0.0250219
-0.0015918
0.0311261
-0.00267927
0.0376424
-0.00378896
-0.00490865
0.0445104
0.000851663
0.0011842
0.00357461
7.76834e-05
0.00711394
-0.00132057
0.0112753
-0.00280108
0.016043
-0.00433588
0.021429
-0.00593616
0.0273938
-0.00755658
0.0338467
-0.00913218
0.0407035
-0.0106458
-0.0121277
0.0479226
0.0014889
-0.000304712
0.004102
-0.00253543
0.00749762
-0.00471619
0.0116793
-0.00698277
0.0166606
-0.0093172
0.0223684
-0.0116439
0.028634
-0.0138222
0.0353326
-0.0158308
0.0424371
-0.0177502
-0.0196385
0.0499478
0.00106881
0.00315797
0.0064522
0.0108878
0.0162455
0.0222036
0.0285939
0.0354462
0.0428293
0.050722
0.0517003
0.0832396
-0.0980128
0.077692
-0.0081083
-0.0178834
0.10011
-0.0509424
0.0285246
0.113562
-0.0462525
0.0328003
0.121407
-0.0262325
0.018387
0.125324
-0.00886383
0.00494753
0.127648
-0.00104967
-0.00127412
0.12983
0.000118989
-0.00230099
0.132274
-0.000816686
-0.00162762
-0.00223348
-0.000398736
0.0588974
0.0585544
0.0919206
-0.0411316
0.118947
-0.0779686
0.134763
-0.062069
0.143374
-0.0348433
0.147385
-0.0128747
0.149654
-0.00331889
0.151797
-0.00202342
0.154211
-0.00323083
-0.00465016
0.0668153
0.0248239
0.10509
-0.0794067
0.135978
-0.108857
0.155514
-0.0816048
0.165411
-0.0447401
0.169522
-0.0169857
0.171597
-0.00539371
0.173498
-0.00392446
0.17564
-0.00537259
-0.00664416
0.0755316
-0.0169331
0.117668
-0.121543
0.151436
-0.142624
0.17482
-0.104989
0.186826
-0.0567463
0.191268
-0.0214271
0.193138
-0.00726366
0.194686
-0.00547251
0.196391
-0.00707756
-0.00806483
0.0843773
-0.0649135
0.129212
-0.166378
0.165087
-0.178499
0.191799
-0.131701
0.206807
-0.0717541
0.212141
-0.0267618
0.213935
-0.00905697
0.2151
-0.00663738
0.216276
-0.00825358
-0.00882322
0.0926233
-0.117202
0.139423
-0.213178
0.176881
-0.215957
0.206061
-0.160881
0.224407
-0.0901004
0.231523
-0.0338776
0.233561
-0.0110947
0.234414
-0.00749051
0.235049
-0.00888806
-0.00889458
0.0996628
-0.172354
0.148079
-0.261594
0.18678
-0.254658
0.217576
-0.191678
0.238857
-0.111381
0.248651
-0.0436721
0.251518
-0.0139613
0.252286
-0.00825849
0.252474
-0.00907607
-0.00832988
0.1052
-0.229631
0.155118
-0.311512
0.194806
-0.294347
0.226559
-0.22343
0.249829
-0.134651
0.262615
-0.0564585
0.267064
-0.0184102
0.268102
-0.00929616
0.268007
-0.00898088
-0.00723941
0.109244
-0.288927
0.160618
-0.362886
0.201073
-0.334802
0.233329
-0.255686
0.257511
-0.158833
0.272641
-0.071589
0.279394
-0.0251628
0.281546
-0.0114485
0.281573
-0.00900771
-0.00584248
0.112093
0.16475
0.205769
0.238215
0.262554
0.278471
0.286408
0.289609
0.290247
0.0132015
0.00607545
-0.0192769
0.0110027
0.00219881
0.0115328
-0.000530145
0.0129288
-0.00139601
0.0136324
-0.000703587
0.0137901
-0.000157739
0.0136984
9.17153e-05
0.0135648
0.000133667
0.0134454
0.000119372
4.22291e-05
0.0372539
0.0232028
-0.0543813
0.0315511
0.00790162
0.0340844
-0.00306345
0.038062
-0.00537364
0.040184
-0.00282556
0.0406762
-0.000649954
0.0404378
0.000330154
0.0400821
0.000489369
0.0398021
0.00039943
0.000130222
0.0579922
0.0480505
-0.0828399
0.0510011
0.0148926
0.0560267
-0.00808906
0.0624769
-0.0118238
0.0660481
-0.00639678
0.0669375
-0.00153932
0.0666065
0.000661164
0.0660792
0.0010167
0.065693
0.000785646
0.000240005
0.0739602
0.0752994
-0.101209
0.0682649
0.0205879
0.0766334
-0.0164576
0.085788
-0.0209784
0.0909581
-0.0115668
0.0923634
-0.00294466
0.0920221
0.00100248
0.0913932
0.00164561
0.0909637
0.00121517
0.000339612
0.0815156
-0.104229
0.08422
0.096287
0.108109
0.114929
0.116932
0.11666
0.116005
0.115593
0.00273308
-0.000172887
-0.0025602
0.00326384
-0.000530752
0.00417586
-0.000912024
0.00548662
-0.00131076
0.00718266
-0.00169603
0.00922681
-0.00204415
0.0115831
-0.00235624
0.0141713
-0.00258826
0.0168568
-0.00268546
-0.00242019
0.0077858
-0.00064556
-0.00731313
0.00923239
-0.00197734
0.0117112
-0.00339086
0.0152669
-0.00486641
0.0198802
-0.00630938
0.0254772
-0.00764114
0.0319586
-0.00883768
0.0391497
-0.00977933
0.0467616
-0.0102973
-0.0100399
0.0124755
-0.00138347
-0.0117376
0.0147248
-0.00422658
0.0185569
-0.00722298
0.0240198
-0.0103293
0.0310731
-0.0133627
0.0395786
-0.0161466
0.0493194
-0.0185784
0.0600422
-0.0205022
0.0714072
-0.0216623
-0.0214726
0.0168041
-0.00234723
-0.0158403
0.0197278
-0.00715025
0.0246701
-0.0121653
0.0316453
-0.0173046
0.0405425
-0.0222599
0.0510971
-0.0267013
0.0629273
-0.0304086
0.075685
-0.0332599
0.0888546
-0.034832
-0.0338271
0.020789
-0.0196297
0.0242879
0.0301483
0.0383106
0.0485321
0.0603339
0.0730338
0.0855959
0.0959824
0.0315234
-0.0312646
0.0370835
-0.0373424
0.0256511
-0.0308606
0.036733
0.0199815
-0.0300275
0.0356971
0.014723
-0.0286323
0.0338908
0.0100891
-0.0264276
0.0310615
0.00622099
-0.0227517
0.0266199
0.00312606
-0.0176403
0.0207352
0.00102701
-0.0136164
0.0157155
-8.04388e-05
-0.0101517
0.0112591
-0.00562641
0.00554597
0.0295917
-0.0253856
-0.0354707
0.0238613
-0.0251301
0.0183572
-0.0245234
0.0132553
-0.0235303
0.00880516
-0.0219775
0.00538994
-0.0193365
0.00304605
-0.0152964
0.00141507
-0.0119854
0.000308873
-0.00904549
-0.00531753
0.0295962
-0.0193827
-0.0355991
0.0237782
-0.0193121
0.0182466
-0.0189918
0.0131173
-0.018401
0.00859123
-0.0174513
0.00511675
-0.015862
0.00305235
-0.013232
0.00167667
-0.0106097
0.000599583
-0.00796839
-0.00471794
0.0314791
-0.0131127
-0.0377491
0.0254444
-0.0132773
0.0197274
-0.0132749
0.0144149
-0.0130886
0.00964641
-0.0126828
0.0057437
-0.0119593
0.00326435
-0.0107526
0.00180309
-0.00914849
0.000748203
-0.00691349
-0.00396974
0.0349441
-0.00646952
-0.0415873
0.0285835
-0.00691669
0.0225766
-0.00726793
0.0169905
-0.00750251
0.0119174
-0.00760967
0.00753879
-0.00758062
0.00419035
-0.00740417
0.00202583
-0.00698396
0.000809006
-0.00569666
-0.00316073
0.0390485
0.000596679
-0.0461147
0.0323078
-0.000175891
0.0259635
-0.000923714
0.0200883
-0.00162729
0.0147421
-0.00226341
0.00998767
-0.0028262
0.00590799
-0.00332448
0.00267124
-0.00374721
0.000718952
-0.00374435
-0.00244177
0.0426468
0.00804251
-0.0500926
0.0355406
0.00693029
0.0288284
0.00578846
0.0226069
0.00459425
0.0169716
0.00337192
0.0119594
0.00218602
0.00755807
0.00107682
0.00378387
2.70062e-05
0.000957466
-0.000917938
-0.00148429
0.0447465
0.0157557
-0.0524596
0.0374048
0.0142719
0.0304352
0.0127581
0.0238791
0.0111503
0.0178782
0.00937286
0.0126065
0.00745776
0.00813282
0.00555048
0.00444081
0.00371903
0.00158058
0.00194231
9.62873e-05
0.0448715
0.0237549
-0.0528707
0.0373473
0.0217961
0.0303
0.0198054
0.0236497
0.0178006
0.0173795
0.0156431
0.0116884
0.0131489
0.00693372
0.0103052
0.0033707
0.00728205
0.00112994
0.00418308
0.00122623