/*--------------------------------*- C++ -*----------------------------------*\
  =========                 |
  \\      /  F ield         | OpenFOAM: The Open Source CFD Toolbox
   \\    /   O peration     | Website:  https://openfoam.org
    \\  /    A nd           | Version:  13
     \\/     M anipulation  |
\*---------------------------------------------------------------------------*/
FoamFile
{
    format      ascii;
    class       volVectorField;
    location    "0.26";
    object      U;
}
// * * * * * * * * * * * * * * * * * * * * * * * * * * * * * * * * * * * * * //

dimensions      [0 1 -1 0 0 0 0];

internalField   nonuniform List<vector> 
1800
(
(0.0978066 -0.0883341 -4.49504e-20)
(0.286906 -0.241963 -3.41562e-20)
(0.473983 -0.379057 -4.8506e-19)
(0.657697 -0.500167 1.91446e-19)
(0.836608 -0.60717 7.41964e-20)
(1.0099 -0.70136 -3.91337e-20)
(1.17712 -0.783428 5.55175e-20)
(1.33788 -0.853606 1.97027e-19)
(1.49151 -0.912847 5.92009e-19)
(1.63342 -0.966733 8.09662e-19)
(0.119066 -0.0915069 -7.9135e-20)
(0.344301 -0.247718 -7.70617e-19)
(0.563294 -0.38476 3.78146e-21)
(0.775373 -0.504244 1.25881e-19)
(0.979508 -0.608923 -1.26336e-19)
(1.17521 -0.700685 7.65653e-20)
(1.36229 -0.78076 -2.81016e-19)
(1.54074 -0.850046 -5.01645e-20)
(1.71005 -0.910621 -6.93068e-19)
(1.86777 -0.96692 6.29289e-19)
(0.141656 -0.0923265 4.88246e-20)
(0.403691 -0.247739 2.09294e-19)
(0.653768 -0.382126 5.43395e-19)
(0.89219 -0.497912 -1.90291e-19)
(1.11866 -0.598388 -1.42974e-19)
(1.33321 -0.685807 7.5633e-20)
(1.53605 -0.761688 9.83129e-20)
(1.72741 -0.827262 1.94129e-19)
(1.90717 -0.884744 2.73424e-21)
(2.07416 -0.937782 1.51023e-19)
(0.163912 -0.0897238 -4.5721e-20)
(0.46171 -0.239477 -2.044e-19)
(0.741443 -0.367627 -1.81271e-19)
(1.00453 -0.476984 -1.42327e-19)
(1.25164 -0.571026 1.81342e-19)
(1.48352 -0.652126 -5.71025e-20)
(1.70093 -0.721896 -4.31222e-21)
(1.90453 -0.781599 2.97957e-21)
(2.09454 -0.833327 -1.60318e-19)
(2.27023 -0.880297 -1.06136e-19)
(0.184663 -0.083359 -1.14057e-19)
(0.515907 -0.221813 8.76348e-20)
(0.82331 -0.339438 1.79866e-19)
(1.10933 -0.43907 2.4334e-19)
(1.37564 -0.524076 -2.85066e-19)
(1.62373 -0.596778 -3.58116e-21)
(1.85496 -0.658761 4.25062e-19)
(2.07044 -0.711248 -1.85063e-19)
(2.27084 -0.756139 -1.24005e-19)
(2.45578 -0.796357 -5.37106e-20)
(0.203196 -0.0735022 1.73608e-19)
(0.564486 -0.195205 1.02994e-18)
(0.896813 -0.298081 1.43266e-19)
(1.20354 -0.384741 -5.03198e-19)
(1.48722 -0.458231 -1.7553e-19)
(1.75006 -0.520671 6.37781e-19)
(1.99393 -0.573522 -1.45413e-19)
(2.22039 -0.617891 -4.31682e-19)
(2.43049 -0.655428 -3.16556e-19)
(2.62422 -0.688716 2.6161e-19)
(0.218905 -0.0605932 1.16351e-19)
(0.605763 -0.160705 -7.47665e-19)
(0.959339 -0.245035 -1.08572e-18)
(1.28374 -0.315803 3.83832e-19)
(1.58227 -0.375568 4.50007e-19)
(1.85771 -0.426129 -9.02217e-22)
(2.11243 -0.468737 -6.39773e-19)
(2.34833 -0.504319 2.19333e-19)
(2.56687 -0.534201 -3.64291e-19)
(2.76831 -0.560551 -3.1108e-19)
(0.231243 -0.0451737 -3.42517e-19)
(0.63822 -0.119687 -6.92652e-19)
(1.00852 -0.182298 1.21234e-18)
(1.34681 -0.234703 5.98752e-19)
(1.65698 -0.278854 -2.69791e-19)
(1.94229 -0.316136 -2.11516e-19)
(2.20548 -0.347512 0)
(2.4488 -0.373683 1.16818e-19)
(2.67403 -0.395612 -2.95862e-19)
(2.88176 -0.414955 -7.75018e-20)
(0.239775 -0.0278763 -2.04484e-19)
(0.660675 -0.0737575 5.62467e-19)
(1.04252 -0.1122 1.7105e-19)
(1.39035 -0.14429 -5.12551e-19)
(1.70845 -0.171276 -7.84264e-19)
(2.00043 -0.194051 3.66223e-20)
(2.2693 -0.213241 1.67146e-19)
(2.51758 -0.229287 -5.46871e-19)
(2.74738 -0.242775 -2.89795e-19)
(2.9596 -0.254767 -5.63637e-19)
(0.24427 -0.00940268 4.51456e-19)
(0.672478 -0.024704 3.44205e-19)
(1.06034 -0.0373608 -9.38644e-20)
(1.41308 -0.0477865 -1.2985e-20)
(1.7352 -0.0564589 -3.87543e-19)
(2.03047 -0.0637185 -8.57878e-20)
(2.30212 -0.0698043 -2.90561e-19)
(2.55282 -0.0748835 6.46646e-19)
(2.78487 -0.0791634 1.70998e-19)
(2.99952 -0.0830037 2.29037e-21)
(-0.0024099 -0.0219024 -2.56625e-20)
(0.00871534 -0.0691201 -7.54931e-20)
(0.0248847 -0.119554 -7.22848e-21)
(0.0492475 -0.17003 -3.52511e-20)
(0.077645 -0.215529 -1.26949e-20)
(0.106502 -0.253729 -3.89108e-19)
(0.135479 -0.287601 -1.73844e-20)
(0.166207 -0.320816 1.1536e-19)
(0.198993 -0.354243 1.13315e-20)
(0.232857 -0.38653 -3.73462e-20)
(0.000789841 -0.0246432 -9.64305e-20)
(0.0149012 -0.0847361 -2.03483e-19)
(0.039262 -0.159477 -6.16847e-20)
(0.069327 -0.224322 -1.10577e-19)
(0.099664 -0.274601 -9.99156e-20)
(0.130654 -0.316941 -2.77881e-19)
(0.16466 -0.357819 1.9589e-19)
(0.202338 -0.399142 1.62776e-19)
(0.241874 -0.438998 -2.54684e-19)
(0.281409 -0.475301 8.06744e-20)
(0.00544941 -0.0314168 -8.54673e-20)
(0.0287352 -0.107157 -8.58699e-19)
(0.06287 -0.195617 -1.26836e-19)
(0.0975653 -0.268316 9.59213e-20)
(0.131996 -0.326406 6.77175e-20)
(0.169875 -0.379333 -4.45845e-19)
(0.213225 -0.431267 3.29164e-20)
(0.259487 -0.480697 3.6474e-19)
(0.30589 -0.525083 -3.8473e-19)
(0.351877 -0.564381 -2.57467e-19)
(0.0113456 -0.0409453 -2.11371e-21)
(0.0466235 -0.13075 1.89523e-19)
(0.0896781 -0.225061 1.94672e-21)
(0.133156 -0.306597 -1.20489e-20)
(0.177918 -0.377284 -3.01616e-20)
(0.227438 -0.443152 8.82733e-20)
(0.281358 -0.504821 7.32469e-20)
(0.33598 -0.559993 -1.3575e-19)
(0.390079 -0.608372 9.20089e-21)
(0.444279 -0.650834 -1.04099e-20)
(0.0185 -0.0507633 0)
(0.0672474 -0.152381 5.51654e-21)
(0.121965 -0.253506 -5.05433e-19)
(0.178743 -0.345239 4.83149e-20)
(0.237893 -0.428229 -1.55436e-20)
(0.300643 -0.504629 8.45923e-21)
(0.365469 -0.573798 -2.61437e-20)
(0.429986 -0.63474 -7.61701e-21)
(0.494145 -0.688039 0)
(0.558356 -0.733948 -2.05425e-20)
(0.0273273 -0.0596599 3.17835e-20)
(0.0919087 -0.172858 -1.5389e-19)
(0.161787 -0.282487 -4.47333e-20)
(0.234658 -0.38379 -5.88709e-20)
(0.309777 -0.476573 4.98074e-20)
(0.386788 -0.561258 2.80518e-21)
(0.464298 -0.637316 9.47727e-20)
(0.540996 -0.704449 -2.186e-20)
(0.616971 -0.762846 -6.97771e-19)
(0.692221 -0.811953 -1.00973e-20)
(0.0379826 -0.0676202 6.87722e-22)
(0.121253 -0.192201 5.63366e-20)
(0.20918 -0.310626 -7.92571e-20)
(0.299941 -0.42015 -1.6828e-20)
(0.392146 -0.52059 -7.27631e-20)
(0.484779 -0.611977 -1.14743e-20)
(0.576691 -0.694087 7.9221e-21)
(0.66692 -0.766812 -2.13976e-19)
(0.755492 -0.829837 3.84457e-19)
(0.842268 -0.881801 9.72477e-19)
(0.0503708 -0.0746157 1.53002e-20)
(0.155145 -0.209637 -1.42587e-19)
(0.263476 -0.335988 -2.14646e-19)
(0.373676 -0.452116 8.93498e-20)
(0.484096 -0.558237 -6.4338e-20)
(0.593521 -0.654538 1.00527e-19)
(0.700901 -0.741134 1.99099e-19)
(0.805345 -0.818081 -1.10466e-19)
(0.906934 -0.884812 -3.06556e-19)
(1.00558 -0.939145 7.26176e-19)
(0.0642985 -0.0803709 -2.63125e-20)
(0.193299 -0.224048 -5.78127e-19)
(0.324307 -0.356582 5.24516e-19)
(0.455685 -0.477243 3.37781e-19)
(0.585726 -0.586737 -8.60545e-20)
(0.713194 -0.685619 3.09622e-19)
(0.837077 -0.774347 -1.60123e-19)
(0.956488 -0.853314 -7.75354e-19)
(1.07163 -0.921826 -4.04233e-19)
(1.18254 -0.977 4.54294e-19)
(0.0795519 -0.0846737 -7.98644e-20)
(0.235856 -0.234433 -5.44248e-19)
(0.392401 -0.370542 -8.04283e-21)
(0.547543 -0.492806 6.85778e-20)
(0.699584 -0.60246 3.37922e-19)
(0.847366 -0.700408 -1.85508e-19)
(0.989968 -0.787383 -1.69798e-19)
(1.12646 -0.863727 1.8937e-19)
(1.25671 -0.928497 -3.52004e-19)
(1.37994 -0.980146 -5.85185e-19)
(0.402607 -0.530185 1.0441e-18)
(0.683698 -0.615026 -3.8415e-19)
(0.910526 -0.552042 -1.79255e-19)
(1.07948 -0.424292 3.24176e-19)
(1.22321 -0.273022 -2.58233e-19)
(1.32888 -0.134436 -2.77024e-19)
(1.39659 -0.0536856 -2.49598e-19)
(1.42946 -0.0248984 -3.81952e-20)
(1.44945 -0.0162644 2.25211e-19)
(1.46575 -0.00744891 4.04581e-20)
(0.469211 -0.617953 1.01126e-18)
(0.741415 -0.690114 1.026e-19)
(0.964731 -0.611154 1.04543e-20)
(1.11913 -0.471508 -2.7578e-19)
(1.25056 -0.309529 -9.10596e-19)
(1.34655 -0.159237 0)
(1.4048 -0.0672079 -2.36585e-19)
(1.43318 -0.0323783 7.03724e-20)
(1.45159 -0.0208335 5.64976e-21)
(1.46628 -0.00944981 -7.02943e-20)
(0.556822 -0.703644 -1.00655e-18)
(0.811385 -0.762952 -8.04234e-20)
(1.02524 -0.668453 1.7412e-19)
(1.16301 -0.51675 -5.11557e-20)
(1.27914 -0.344471 -3.3047e-20)
(1.36391 -0.182282 6.72602e-20)
(1.41214 -0.0796108 0)
(1.43703 -0.0394689 0)
(1.45398 -0.0252187 -7.81561e-20)
(1.4672 -0.0113227 0)
(0.66625 -0.785546 -2.24168e-19)
(0.896407 -0.83159 3.97257e-19)
(1.09234 -0.722942 2.64426e-20)
(1.21125 -0.559313 0)
(1.30909 -0.377444 7.30944e-19)
(1.38128 -0.203575 -1.78709e-19)
(1.41971 -0.0910896 0)
(1.44137 -0.0460616 1.78669e-19)
(1.45686 -0.0292334 0)
(1.46863 -0.0129875 2.11584e-20)
(0.796077 -0.862455 -1.48846e-19)
(0.998287 -0.893997 4.35632e-19)
(1.16672 -0.773422 -1.47179e-20)
(1.26376 -0.598521 0)
(1.34044 -0.408047 1.97766e-19)
(1.3986 -0.22318 3.28912e-19)
(1.42771 -0.101709 5.48318e-20)
(1.44617 -0.0521671 9.15687e-21)
(1.46018 -0.0328583 -4.3579e-20)
(1.47056 -0.0144626 3.41183e-20)
(0.942351 -0.933554 -1.30146e-18)
(1.11683 -0.948739 -9.06168e-19)
(1.24917 -0.818518 4.83582e-21)
(1.32035 -0.633642 5.23748e-19)
(1.37304 -0.435827 -2.93569e-19)
(1.41559 -0.241122 1.62546e-19)
(1.4361 -0.111587 2.66139e-19)
(1.45136 -0.0578403 -2.3288e-19)
(1.4639 -0.0361008 -2.18303e-21)
(1.47294 -0.0157594 -5.43256e-21)
(1.10001 -0.99844 -2.54524e-19)
(1.25003 -0.995562 2.756e-19)
(1.34012 -0.856993 3.92744e-21)
(1.38093 -0.663861 -1.54273e-20)
(1.4068 -0.460221 -5.20007e-19)
(1.43193 -0.257325 5.16962e-20)
(1.44471 -0.120786 -1.01698e-19)
(1.45693 -0.0631264 -3.94504e-20)
(1.46798 -0.0389614 1.86868e-20)
(1.47574 -0.0169078 -2.34088e-20)
(1.26411 -1.056 -1.20647e-18)
(1.39447 -1.03505 2.02125e-19)
(1.4387 -0.888164 0)
(1.44482 -0.68856 2.79061e-20)
(1.44116 -0.480769 4.38927e-19)
(1.44695 -0.271795 -5.13288e-22)
(1.45303 -0.129436 -3.04064e-19)
(1.46281 -0.0681001 6.08391e-20)
(1.47237 -0.0414501 -4.38031e-22)
(1.47894 -0.0179342 1.4717e-21)
(1.43172 -1.10282 3.39376e-18)
(1.54756 -1.06811 2.56488e-19)
(1.54483 -0.912698 4.41549e-19)
(1.51253 -0.707956 -2.79869e-20)
(1.47649 -0.497501 -3.09585e-20)
(1.46059 -0.284719 -3.58367e-19)
(1.46076 -0.13765 7.44213e-20)
(1.46893 -0.0726242 4.60911e-21)
(1.47704 -0.043469 -3.54696e-20)
(1.48249 -0.0188169 -4.94718e-20)
(1.59894 -1.12767 -3.0028e-18)
(1.70122 -1.09363 1.28504e-18)
(1.6529 -0.933234 -2.03352e-19)
(1.58034 -0.725405 -7.02948e-19)
(1.51056 -0.513704 -5.76738e-19)
(1.47111 -0.299144 -2.18705e-19)
(1.46569 -0.147961 -5.16532e-20)
(1.47419 -0.0779521 0)
(1.48145 -0.0455733 1.52709e-20)
(1.48593 -0.0197145 -2.63134e-21)
(1.88783 -1.16966 -6.74615e-18)
(1.92657 -1.10313 -1.72154e-18)
(1.80346 -0.927332 -2.59084e-20)
(1.67142 -0.71697 1.09442e-19)
(1.55535 -0.510339 1.79078e-19)
(1.48587 -0.303655 -1.10911e-19)
(1.47442 -0.15578 -9.40694e-21)
(1.48089 -0.0828238 1.49142e-20)
(1.48019 -0.0462241 -1.99018e-20)
(1.47436 -0.0197258 1.40878e-20)
(2.28882 -1.13397 4.95629e-19)
(2.17785 -1.05436 -2.32253e-19)
(1.94191 -0.860657 6.7071e-19)
(1.73715 -0.655895 -1.4079e-19)
(1.56856 -0.46414 3.50858e-19)
(1.47118 -0.2821 6.20314e-20)
(1.44699 -0.149056 2.153e-20)
(1.42242 -0.0758191 -8.31721e-21)
(1.39903 -0.0389858 6.01382e-20)
(1.38067 -0.0179207 5.46389e-20)
(2.61031 -1.04277 2.26823e-18)
(2.35236 -0.947193 3.27008e-19)
(2.01086 -0.756319 -1.2125e-19)
(1.74109 -0.566484 1.11285e-37)
(1.52384 -0.396582 -2.84448e-20)
(1.38307 -0.248192 1.30615e-33)
(1.32089 -0.136202 -1.28027e-20)
(1.28984 -0.0664995 -1.91141e-33)
(1.26972 -0.0311011 9.79942e-21)
(1.25522 -0.0145768 -3.14577e-20)
(2.78752 -0.893422 3.91369e-33)
(2.3714 -0.79447 2.94507e-18)
(1.97788 -0.628006 1.81121e-18)
(1.66232 -0.464134 0)
(1.42182 -0.32376 8.99013e-19)
(1.25917 -0.206532 4.33181e-19)
(1.18328 -0.116226 1.02911e-19)
(1.14907 -0.0562915 -2.98184e-33)
(1.12922 -0.0251401 -3.76598e-20)
(1.1156 -0.0118756 2.80091e-20)
(2.76436 -0.70552 3.8481e-18)
(2.24748 -0.629077 -1.47422e-19)
(1.84967 -0.489391 0)
(1.52153 -0.358391 0)
(1.28195 -0.248329 0)
(1.11775 -0.160567 0)
(1.03233 -0.0933174 -1.13537e-20)
(0.993651 -0.04548 -4.05009e-33)
(0.974624 -0.0193136 9.22537e-21)
(0.962638 -0.00913625 3.16337e-33)
(2.55157 -0.516877 3.27155e-18)
(2.02089 -0.462594 0)
(1.64024 -0.352896 0)
(1.33025 -0.254964 0)
(1.10789 -0.175003 0)
(0.955636 -0.114111 0)
(0.87039 -0.0686176 3.18518e-20)
(0.829777 -0.0341923 -2.03707e-20)
(0.811419 -0.0140854 9.31158e-21)
(0.800687 -0.00668831 5.03441e-20)
(2.19027 -0.342696 0)
(1.70298 -0.30344 1.10783e-18)
(1.36206 -0.227339 1.10807e-18)
(1.09318 -0.16111 0)
(0.902749 -0.109528 7.02783e-19)
(0.773462 -0.0721569 4.14853e-19)
(0.696963 -0.0449754 2.11014e-19)
(0.657819 -0.0230721 3.66233e-20)
(0.640668 -0.00930323 2.82353e-20)
(0.631271 -0.00447355 6.70109e-21)
(1.70289 -0.19115 -6.7358e-19)
(1.30029 -0.165591 -2.73622e-19)
(1.02535 -0.121675 1.74939e-19)
(0.815985 -0.0840473 -2.16929e-34)
(0.670304 -0.0566134 -7.89397e-20)
(0.572441 -0.0378721 3.68322e-33)
(0.511992 -0.0246149 5.00119e-20)
(0.478704 -0.0130844 9.04345e-20)
(0.463966 -0.00518877 9.47208e-21)
(0.456172 -0.00257004 -1.82657e-20)
(1.10087 -0.0758297 3.40655e-18)
(0.823157 -0.0626831 -1.85893e-19)
(0.640652 -0.0442765 -5.8846e-19)
(0.506497 -0.0288644 0)
(0.415188 -0.0190122 -6.37239e-19)
(0.354313 -0.0130674 -4.16204e-19)
(0.31522 -0.0090996 -1.64786e-19)
(0.292186 -0.00515531 -9.82021e-20)
(0.281708 -0.00207098 8.3766e-20)
(0.27629 -0.00109172 8.69789e-21)
(0.397335 -0.00331931 0)
(0.287841 0.00159133 0)
(0.220881 0.00407772 0)
(0.173634 0.0061815 0)
(0.142864 0.00572132 0)
(0.122551 0.00439619 0)
(0.108789 0.0029735 5.73442e-20)
(0.0999014 0.00178233 -1.91908e-34)
(0.0955517 0.00100662 1.12294e-20)
(0.0932073 0.000315351 1.95321e-20)
(3.36717 -0.0863031 5.39088e-19)
(3.32648 -0.26507 -8.41878e-20)
(3.2474 -0.430632 8.52036e-19)
(3.13242 -0.582123 -6.05051e-19)
(2.98636 -0.718075 6.66173e-19)
(2.81523 -0.836309 2.74752e-19)
(2.62656 -0.933954 -1.92952e-18)
(2.42943 -1.0077 -7.67986e-20)
(2.22456 -1.05347 0)
(1.98469 -1.06629 4.2779e-19)
(3.86197 -0.0750509 7.07315e-18)
(3.79863 -0.234184 1.95625e-18)
(3.70431 -0.387266 -4.86629e-18)
(3.58427 -0.53193 -4.48778e-19)
(3.44237 -0.665809 3.55723e-18)
(3.28181 -0.787198 1.92223e-18)
(3.10641 -0.894892 -5.16476e-18)
(2.9219 -0.987453 -1.95034e-18)
(2.72739 -1.06304 2.20123e-18)
(2.49211 -1.12005 8.52155e-19)
(3.83318 -0.0532892 -1.26187e-19)
(3.82034 -0.171537 4.40424e-18)
(3.78557 -0.299724 -1.08883e-18)
(3.72446 -0.430873 -3.44611e-18)
(3.6363 -0.558667 -6.80174e-18)
(3.52381 -0.678706 1.02764e-17)
(3.39124 -0.788646 4.17922e-18)
(3.24351 -0.887764 -3.90893e-18)
(3.08155 -0.978393 -2.90043e-18)
(2.88709 -1.06254 -3.42158e-18)
(3.62872 -0.047262 -4.83925e-18)
(3.61967 -0.144907 -4.35357e-18)
(3.59971 -0.243713 5.4727e-18)
(3.56745 -0.343056 1.91226e-18)
(3.52255 -0.442321 -8.97429e-18)
(3.46435 -0.540726 4.92614e-19)
(3.39208 -0.636934 3.88775e-18)
(3.30542 -0.73028 -1.05472e-18)
(3.20532 -0.822865 1.27732e-18)
(3.08339 -0.91451 2.81464e-19)
(3.34409 -0.0365562 -9.15954e-19)
(3.33904 -0.11164 3.004e-18)
(3.32715 -0.188667 1.61942e-18)
(3.3075 -0.267166 -1.89344e-18)
(3.27994 -0.346063 -2.00154e-18)
(3.24476 -0.424119 -2.43582e-18)
(3.20219 -0.500293 3.80052e-19)
(3.15198 -0.574414 1.38471e-19)
(3.09579 -0.64763 -2.14136e-18)
(3.03328 -0.721125 -2.03641e-18)
(2.96259 -0.0265342 -1.82242e-18)
(2.95983 -0.0798751 -5.8709e-20)
(2.95333 -0.134592 -1.63748e-18)
(2.94243 -0.190902 3.12159e-19)
(2.92679 -0.248554 5.36761e-18)
(2.90634 -0.306936 -3.66926e-19)
(2.88099 -0.365122 4.43727e-20)
(2.85033 -0.422059 -2.60886e-18)
(2.81658 -0.476864 -3.49684e-18)
(2.78621 -0.529813 3.71863e-19)
(2.48714 -0.0174949 -2.89174e-20)
(2.48579 -0.0519243 -8.14286e-19)
(2.4826 -0.0872429 -2.61479e-18)
(2.47709 -0.12377 -3.43089e-18)
(2.46882 -0.161537 2.49643e-18)
(2.45747 -0.200273 1.50212e-18)
(2.44264 -0.239362 -1.38489e-18)
(2.42374 -0.2778 1.62427e-18)
(2.4028 -0.314492 -4.29959e-19)
(2.38961 -0.349545 -9.63922e-19)
(1.91464 -0.00967829 7.72435e-19)
(1.91408 -0.0282912 -8.31774e-19)
(1.91278 -0.0474367 -3.27651e-20)
(1.91032 -0.0673591 -3.47288e-20)
(1.90624 -0.0881327 -7.27396e-20)
(1.90013 -0.109619 -2.33182e-18)
(1.89151 -0.131411 -6.786e-19)
(1.87979 -0.152789 2.62571e-18)
(1.86665 -0.172983 -6.03304e-19)
(1.86193 -0.192215 -1.35076e-18)
(1.23988 -0.00373315 -1.64276e-18)
(1.23966 -0.0106929 -8.48879e-19)
(1.23923 -0.0179001 2.33916e-18)
(1.23823 -0.0254789 -8.89752e-19)
(1.23625 -0.0334769 -6.74104e-19)
(1.23289 -0.0418343 1.35196e-18)
(1.22774 -0.0503536 -1.2958e-18)
(1.22037 -0.0586697 1.28685e-18)
(1.21201 -0.0663471 -1.21012e-18)
(1.21006 -0.0735131 -4.24721e-18)
(0.454912 -0.000257556 6.63069e-19)
(0.454824 -0.000700282 7.03042e-19)
(0.45469 -0.00115903 7.48172e-19)
(0.454323 -0.00164011 1.35395e-18)
(0.453493 -0.00214037 -6.71968e-19)
(0.45198 -0.00263748 -1.29956e-18)
(0.449562 -0.00309948 6.14674e-19)
(0.445986 -0.00359334 2.4837e-20)
(0.441728 -0.00439258 -4.96529e-20)
(0.440339 -0.00504578 1.10575e-19)
(1.65315 0.996427 -2.84806e-19)
(1.51195 0.941202 1.8043e-20)
(1.35856 0.880258 -2.2602e-19)
(1.19751 0.808095 1.76848e-19)
(1.02947 0.723753 -1.94007e-19)
(0.854771 0.626945 -1.0143e-19)
(0.673743 0.516879 2.32202e-19)
(0.487042 0.39213 -3.05543e-19)
(0.295908 0.250651 3.09893e-19)
(0.101442 0.0916544 2.3912e-19)
(1.88606 0.991595 0)
(1.72942 0.934291 6.36791e-19)
(1.56064 0.872446 3.29091e-19)
(1.38216 0.801636 1.64432e-19)
(1.19446 0.719745 4.33581e-19)
(0.997502 0.62583 -8.70175e-20)
(0.79136 0.518579 -7.87188e-20)
(0.576366 0.395996 8.9223e-20)
(0.353343 0.255192 -1.04561e-18)
(0.122713 0.0943669 -1.64088e-20)
(2.0908 0.958637 1.56832e-19)
(1.92504 0.904775 0)
(1.746 0.846257 -1.00829e-19)
(1.55485 0.779418 -3.84704e-19)
(1.35165 0.702009 5.37632e-20)
(1.13608 0.61276 3.97833e-19)
(0.907796 0.510088 -6.07417e-19)
(0.666616 0.391654 -2.00837e-19)
(0.412624 0.254064 7.83766e-19)
(0.145266 0.0947457 -1.76162e-19)
(2.28468 0.898093 1.89203e-19)
(2.11032 0.850375 1.23533e-20)
(1.92122 0.797736 2.42947e-20)
(1.71806 0.736925 3.62659e-20)
(1.50056 0.665819 -2.89665e-20)
(1.26793 0.583124 2.73559e-19)
(1.01929 0.487178 -2.06968e-19)
(0.753706 0.375549 -8.55969e-19)
(0.4703 0.244696 0)
(0.167403 0.0917052 0)
(2.46787 0.811656 -1.06919e-18)
(2.28429 0.770725 -6.0723e-19)
(2.0849 0.72499 -1.2041e-19)
(1.87002 0.671483 -6.66012e-20)
(1.63891 0.60828 0)
(1.39033 0.53414 2.40868e-19)
(1.12278 0.447448 2.67909e-19)
(0.834591 0.345853 2.86384e-19)
(0.52387 0.225968 -4.23955e-19)
(0.187922 0.0849048 -8.12743e-20)
(2.63397 0.701998 7.64751e-19)
(2.44155 0.668001 -1.39213e-19)
(2.23244 0.629642 -2.21248e-19)
(2.00666 0.584289 0)
(1.76304 0.530277 0)
(1.49991 0.466497 0)
(1.21527 0.391478 -3.9002e-20)
(0.906724 0.303105 3.70311e-19)
(0.571529 0.19836 3.79123e-19)
(0.206096 0.0746294 -3.0864e-19)
(2.7758 0.572304 -1.19236e-18)
(2.57552 0.545229 -1.4803e-18)
(2.3579 0.514514 -3.02344e-22)
(2.12264 0.477943 -1.87775e-19)
(1.86822 0.434187 -9.29012e-20)
(1.59262 0.382329 -1.78942e-19)
(1.29337 0.321138 4.59215e-19)
(0.967531 0.248849 2.14866e-19)
(0.611614 0.162976 5.40151e-19)
(0.221327 0.061344 2.02901e-19)
(2.88711 0.425724 -1.15665e-18)
(2.68031 0.405621 8.47183e-20)
(2.45581 0.382817 1.64507e-19)
(2.21302 0.355615 1.68499e-20)
(1.95009 0.323059 -3.14496e-19)
(1.66471 0.284479 -1.74303e-19)
(1.35403 0.238948 -6.21322e-19)
(1.01468 0.18515 1.18538e-19)
(0.642635 0.121244 5.14977e-20)
(0.233078 0.0456153 -6.26679e-21)
(2.96285 0.26518 1.0126e-19)
(2.75127 0.252353 3.9705e-19)
(2.52195 0.237907 -3.30306e-19)
(2.274 0.220746 3.63118e-19)
(2.0053 0.200305 3.72598e-19)
(1.71328 0.176185 4.91965e-19)
(1.39486 0.147817 -6.35815e-19)
(1.04637 0.114396 -3.24455e-19)
(0.663441 0.074814 -4.58492e-20)
(0.240928 0.0280966 -3.27043e-19)
(3.00059 0.0935806 5.81757e-19)
(2.78619 0.088791 -1.86075e-19)
(2.55432 0.0834506 4.79604e-19)
(2.30373 0.0771572 -3.10795e-19)
(2.03214 0.0697349 2.66474e-19)
(1.73685 0.0610682 6.05525e-19)
(1.41462 0.0509836 3.78944e-19)
(1.06166 0.0392383 3.09392e-19)
(0.673424 0.0255086 2.65891e-19)
(0.244665 0.00950778 5.43673e-19)
(0.237944 0.447541 -4.64003e-19)
(0.202553 0.414022 -1.78582e-19)
(0.167267 0.377293 1.36484e-19)
(0.134052 0.340065 -4.19222e-19)
(0.104546 0.304275 -1.20971e-19)
(0.0776748 0.267102 6.87812e-19)
(0.0512485 0.220715 3.36812e-19)
(0.0254513 0.156401 -1.68197e-19)
(0.00691335 0.0786418 1.06978e-19)
(-0.00120568 0.0221671 -5.97412e-20)
(0.28808 0.539405 4.05385e-19)
(0.24821 0.502791 4.50067e-19)
(0.207711 0.460976 -1.47466e-20)
(0.167526 0.414383 -1.28021e-19)
(0.130994 0.366809 -2.97791e-19)
(0.100527 0.31969 8.21557e-20)
(0.0732994 0.266691 2.19179e-19)
(0.045578 0.19466 1.5951e-19)
(0.0180506 0.100359 -5.7975e-19)
(0.00265245 0.0283701 -1.22031e-19)
(0.359946 0.628239 -5.93818e-19)
(0.314017 0.588331 -4.75917e-19)
(0.268119 0.542741 2.51257e-19)
(0.221395 0.489759 1.32758e-19)
(0.175848 0.430517 -2.8151e-21)
(0.136322 0.368921 -1.3565e-19)
(0.102137 0.303277 -2.47617e-20)
(0.0683513 0.22312 -5.58918e-19)
(0.0334312 0.124691 -2.70603e-19)
(0.00749311 0.0372442 -3.93279e-20)
(0.454806 0.713286 4.98273e-19)
(0.400562 0.669403 1.64365e-19)
(0.346756 0.618732 -1.46858e-19)
(0.292483 0.560073 6.52437e-20)
(0.237878 0.49245 2.06635e-22)
(0.186637 0.418338 2.41214e-21)
(0.140115 0.338724 -1.26154e-19)
(0.0954171 0.248877 3.85536e-19)
(0.0512848 0.146776 -4.22327e-19)
(0.0134538 0.0472837 -6.69309e-20)
(0.57245 0.793808 -2.81469e-19)
(0.508236 0.746055 -8.91493e-20)
(0.443878 0.689606 -1.39176e-20)
(0.379173 0.624326 -6.41768e-20)
(0.313822 0.549541 5.54481e-20)
(0.249679 0.466135 4.76726e-20)
(0.188352 0.375277 -2.60179e-20)
(0.129263 0.275657 -2.85764e-19)
(0.0724171 0.166996 2.20174e-19)
(0.020816 0.0565731 8.80665e-20)
(0.709557 0.867584 6.45473e-19)
(0.634478 0.816542 3.25243e-19)
(0.558209 0.754783 2.11512e-19)
(0.480897 0.683154 4.78565e-20)
(0.402411 0.601751 1.47886e-19)
(0.323832 0.510998 7.27408e-20)
(0.246409 0.411534 1.37982e-19)
(0.170796 0.303255 5.76352e-20)
(0.0979722 0.186405 -1.82746e-20)
(0.0299283 0.0648865 -1.47288e-20)
(0.86188 0.932197 -1.19371e-19)
(0.775414 0.878326 -8.38086e-19)
(0.686587 0.812082 -8.85806e-20)
(0.59562 0.735226 -3.59158e-20)
(0.502467 0.648388 -1.40235e-20)
(0.408039 0.551799 1.47542e-19)
(0.313405 0.445681 -4.40694e-20)
(0.219647 0.330016 6.58967e-20)
(0.128239 0.204863 -1.44398e-19)
(0.0408664 0.0724276 -9.11994e-22)
(1.0264 0.983981 -8.89852e-19)
(0.928188 0.927882 5.93395e-20)
(0.826423 0.85828 -2.26129e-19)
(0.721274 0.777776 -7.64837e-20)
(0.612623 0.687181 -2.96579e-20)
(0.50135 0.586485 -7.47137e-20)
(0.388452 0.475513 5.69056e-20)
(0.275114 0.353975 6.05976e-20)
(0.162952 0.221453 -9.83135e-21)
(0.053529 0.0790975 -1.0429e-19)
(1.20349 1.0164 1.2397e-19)
(1.09316 0.95967 5.28053e-19)
(0.977981 0.888719 1.60256e-21)
(0.858013 0.806801 -3.30834e-20)
(0.732992 0.714761 1.53655e-19)
(0.603788 0.612187 -3.50549e-19)
(0.47134 0.49853 -2.45608e-19)
(0.336798 0.373095 3.56824e-19)
(0.20176 0.234965 1.44522e-19)
(0.0677008 0.08453 -3.6638e-20)
(1.40017 1.01435 7.44279e-19)
(1.27772 0.96144 3.26091e-19)
(1.14757 0.894674 5.50661e-20)
(1.01068 0.8159 -1.98623e-19)
(0.867142 0.726176 -1.68319e-20)
(0.717822 0.625117 4.67385e-19)
(0.563544 0.511882 -2.69017e-19)
(0.405329 0.385423 -1.84783e-19)
(0.244709 0.24431 3.36181e-19)
(0.0831208 0.0884474 -6.26886e-21)
(0.962412 0.0917103 9.94274e-21)
(1.1631 0.148468 -6.32036e-21)
(1.19156 0.187057 -3.42458e-20)
(1.28009 0.168718 0)
(1.30588 0.16633 9.02382e-21)
(1.24508 0.242314 -3.91181e-20)
(1.10685 0.388099 -8.86846e-20)
(0.937358 0.540619 -8.91372e-20)
(0.705446 0.643173 -2.19631e-19)
(0.413876 0.590371 5.55235e-19)
(0.962625 0.0708708 1.86512e-19)
(1.15638 0.124732 -4.90099e-20)
(1.18694 0.162094 2.19599e-21)
(1.2772 0.157854 1.17359e-20)
(1.30912 0.169177 -1.00395e-21)
(1.26468 0.270363 7.55299e-21)
(1.13918 0.434481 1.51721e-19)
(0.98493 0.601219 0)
(0.757787 0.72087 6.10794e-19)
(0.478464 0.680939 -4.83858e-19)
(0.961979 0.0509703 -1.1838e-19)
(1.15242 0.101247 8.03315e-21)
(1.18564 0.137335 6.99413e-20)
(1.27894 0.145524 2.22218e-20)
(1.31586 0.170361 -4.01093e-22)
(1.28599 0.296029 -3.73239e-20)
(1.17588 0.478941 8.68904e-20)
(1.03835 0.660338 4.10201e-20)
(0.821815 0.796244 -7.01097e-22)
(0.56488 0.768383 -5.66985e-19)
(0.961094 0.0319935 -8.60316e-20)
(1.15119 0.0774412 1.67973e-20)
(1.18764 0.112759 5.39298e-20)
(1.28484 0.132043 1.41769e-20)
(1.32633 0.170651 -1.42218e-20)
(1.30906 0.319804 -5.08042e-21)
(1.21665 0.521166 -5.30514e-20)
(1.0976 0.717106 2.50659e-20)
(0.900492 0.867169 -4.61923e-19)
(0.674682 0.850817 -1.84264e-19)
(0.960685 0.0136076 3.82969e-20)
(1.15284 0.0529667 -3.43335e-20)
(1.19288 0.0883954 -4.27539e-20)
(1.2943 0.117823 7.55224e-21)
(1.33992 0.170687 0)
(1.33356 0.342102 0)
(1.261 0.560851 -5.42646e-22)
(1.1634 0.770328 -2.68437e-20)
(0.996271 0.931266 -1.09777e-19)
(0.806017 0.926595 -5.84084e-20)
(0.961251 -0.0047231 1.20824e-21)
(1.15745 0.0276446 4.01901e-20)
(1.20117 0.0643451 -1.31614e-19)
(1.30658 0.103354 -5.83628e-20)
(1.35554 0.171008 -7.98343e-21)
(1.359 0.363197 3.24843e-20)
(1.30858 0.597503 8.5645e-20)
(1.23699 0.818412 -1.7525e-20)
(1.10962 0.986729 -2.70363e-20)
(0.95426 0.994937 -5.00722e-21)
(0.962974 -0.0235229 1.96873e-20)
(1.16485 0.00140592 1.14986e-20)
(1.21222 0.0407629 -4.43975e-20)
(1.32097 0.0890749 -9.72115e-20)
(1.37223 0.171861 1.77548e-20)
(1.38507 0.383045 8.96323e-21)
(1.35959 0.630324 -5.33504e-20)
(1.3195 0.859725 -1.55387e-19)
(1.23882 1.03312 -1.21715e-20)
(1.11389 1.05584 -9.9064e-19)
(0.965483 -0.0432283 2.12505e-20)
(1.17457 -0.0258167 -7.72263e-20)
(1.22565 0.017846 8.28257e-20)
(1.33678 0.0756815 7.53206e-20)
(1.38869 0.173912 7.02772e-21)
(1.41113 0.401631 -5.84688e-20)
(1.41379 0.658501 -1.62689e-20)
(1.4105 0.893203 -1.77627e-20)
(1.38036 1.07114 1.12327e-20)
(1.27948 1.10863 2.88943e-18)
(0.967401 -0.0641048 -1.06519e-19)
(1.18582 -0.0540962 4.53103e-20)
(1.24092 -0.00413052 1.33587e-19)
(1.35355 0.0634219 -7.90623e-20)
(1.40512 0.177067 -1.11732e-19)
(1.43829 0.41895 9.42706e-21)
(1.47259 0.681931 1.30805e-19)
(1.51032 0.919358 -4.31962e-19)
(1.53137 1.10197 -2.66384e-20)
(1.4477 1.15027 -6.46276e-18)
(0.967305 -0.0870207 4.30947e-21)
(1.19785 -0.0833494 8.77692e-20)
(1.25701 -0.025275 3.75929e-20)
(1.37027 0.0541387 -1.92205e-19)
(1.41893 0.185217 -1.43874e-19)
(1.4638 0.4388 -3.39214e-20)
(1.53204 0.704208 -4.50311e-21)
(1.61301 0.94138 -3.5857e-19)
(1.68378 1.1252 -1.10764e-18)
(1.61483 1.16987 -7.96055e-18)
(0.965073 -0.119679 -1.4394e-20)
(1.21083 -0.122563 -2.15245e-20)
(1.27405 -0.0554187 -4.85058e-20)
(1.38894 0.037463 5.31603e-20)
(1.43729 0.179613 1.20006e-19)
(1.49904 0.434816 -3.87956e-20)
(1.61309 0.695006 -1.11275e-19)
(1.7548 0.931101 -1.30951e-18)
(1.90249 1.12764 -1.6169e-18)
(1.89844 1.20636 3.29459e-18)
(0.959029 -0.159966 -4.10528e-19)
(1.2236 -0.1729 -8.05736e-21)
(1.28688 -0.10085 -3.77708e-20)
(1.4009 0.014164 2.00695e-19)
(1.43711 0.157351 2.56026e-19)
(1.50922 0.395136 -1.58706e-19)
(1.67205 0.633376 -1.09057e-19)
(1.88247 0.857446 -4.62033e-19)
(2.13932 1.06664 2.05624e-19)
(2.28357 1.15834 -3.21915e-19)
(0.949678 -0.200763 -2.70891e-20)
(1.23976 -0.224837 -4.99742e-20)
(1.29168 -0.143243 2.83732e-20)
(1.40897 -0.01195 3.1444e-20)
(1.43569 0.140166 1.68481e-33)
(1.4995 0.347017 8.70775e-22)
(1.69204 0.551005 -2.20782e-33)
(1.95446 0.753336 1.89727e-19)
(2.30374 0.952994 -9.34963e-19)
(2.58709 1.05637 -6.29438e-19)
(0.938479 -0.24569 1.48403e-18)
(1.26065 -0.267979 -7.18185e-34)
(1.27832 -0.193917 -3.73535e-20)
(1.32002 -0.0270666 -2.02731e-19)
(1.31582 0.126681 -4.56979e-19)
(1.41515 0.284114 -9.25701e-19)
(1.63311 0.451257 -5.22348e-33)
(1.93699 0.626119 -1.7304e-18)
(2.32974 0.799489 -3.15804e-18)
(2.75492 0.901151 1.67825e-18)
(0.927307 -0.300443 0)
(1.29798 -0.311725 -2.15309e-33)
(1.14147 -0.192979 0)
(1.14556 -0.0248541 0)
(1.15643 0.10602 0)
(1.27516 0.221185 0)
(1.50012 0.349018 -8.56003e-33)
(1.8213 0.487859 0)
(2.21683 0.632345 -3.41349e-19)
(2.73661 0.710984 1.26047e-18)
(0.915643 -0.360063 1.14753e-19)
(1.25741 -0.324546 -4.43776e-19)
(0.978602 -0.164186 -5.68199e-20)
(0.964119 -0.0221356 0)
(0.983076 0.0784248 0)
(1.10179 0.158556 6.47143e-20)
(1.31372 0.249744 1.24004e-18)
(1.61999 0.352425 -1.95518e-19)
(1.99879 0.465144 -4.95567e-19)
(2.53346 0.519911 4.66879e-18)
(0.883084 -0.405159 -1.51991e-17)
(1.0936 -0.277176 1.0523e-18)
(0.803765 -0.124695 -7.33488e-20)
(0.768058 -0.0189918 -1.03749e-19)
(0.791615 0.0509704 -4.76942e-19)
(0.898037 0.10059 -7.64662e-19)
(1.08143 0.158638 -1.07789e-18)
(1.34845 0.227752 -1.41244e-18)
(1.68871 0.30563 -1.62619e-18)
(2.18037 0.344244 3.62969e-18)
(0.80873 -0.39445 -4.13415e-19)
(0.887465 -0.20669 -1.21734e-18)
(0.610937 -0.0802346 -1.2631e-19)
(0.563077 -0.0142591 -8.1857e-20)
(0.584215 0.0273916 -8.07721e-34)
(0.667696 0.0526619 9.96159e-20)
(0.808869 0.0831028 -1.51781e-32)
(1.01755 0.122296 -1.93416e-19)
(1.29296 0.167105 2.98115e-19)
(1.69941 0.192014 7.05053e-19)
(0.664108 -0.288841 3.42688e-17)
(0.618382 -0.107671 -3.13788e-18)
(0.395528 -0.0342836 -2.41335e-19)
(0.346423 -0.00712802 -1.26678e-19)
(0.360733 0.0094989 3.7208e-19)
(0.414273 0.0177732 7.71453e-19)
(0.503195 0.0285973 7.89055e-19)
(0.637373 0.0446497 4.59562e-19)
(0.820908 0.0633935 -1.883e-19)
(1.10153 0.0762142 3.56535e-18)
(0.336788 -0.0768323 5.58821e-19)
(0.261872 -0.00232087 -6.77002e-33)
(0.145024 0.0187529 -3.05498e-19)
(0.122333 0.0029718 0)
(0.125742 -0.00207617 0)
(0.143284 -0.00521482 1.00431e-19)
(0.173124 -0.00614739 8.79683e-35)
(0.22049 -0.00411544 -1.23652e-19)
(0.288136 -0.00160104 -2.81711e-19)
(0.398962 0.00332217 1.00036e-18)
(2.00155 1.09531 -1.78642e-18)
(2.23866 1.07764 -2.30416e-18)
(2.44177 1.02852 0)
(2.63686 0.952101 -7.6066e-19)
(2.82345 0.852244 -1.78947e-18)
(2.99269 0.732224 -2.2492e-18)
(3.13707 0.594943 -4.81848e-19)
(3.25057 0.442646 1.2694e-18)
(3.32829 0.276943 -3.54764e-18)
(3.3677 0.0986969 1.35661e-18)
(2.49804 1.1406 2.65551e-19)
(2.73003 1.0809 1.39468e-18)
(2.92346 1.00345 1.43713e-19)
(3.10643 0.909276 6.74501e-19)
(3.28038 0.800303 -1.10258e-18)
(3.43983 0.678089 -4.99502e-18)
(3.58089 0.54386 2.46495e-18)
(3.70045 0.399224 1.26964e-17)