/*--------------------------------*- C++ -*----------------------------------*\
  =========                 |
  \\      /  F ield         | OpenFOAM: The Open Source CFD Toolbox
   \\    /   O peration     | Website:  https://openfoam.org
    \\  /    A nd           | Version:  13
     \\/     M anipulation  |
\*---------------------------------------------------------------------------*/
FoamFile
{
    format      ascii;
    class       volScalarField;
    object      p;
}
// * * * * * * * * * * * * * * * * * * * * * * * * * * * * * * * * * * * * * //

dimensions      [0 2 -2 0 0 0 0];

internalField   nonuniform List<scalar>
440
(
1072.92592142
1070.26743089
1061.73748352
1051.04456537
1047.2093915
1161.77765618
1157.52892663
1148.09940307
1137.27704776
1131.49832878
1248.59255251
1244.51760002
1236.5352625
1228.34395326
1223.78387109
1335.29753309
1332.50775184
1327.37213049
1322.7060353
1320.32753649
1421.83926065
1420.9857999
1419.27569747
1417.88522262
1417.24134678
724.37283408
727.042009812
731.0700413
732.0588567
726.673416513
773.030527684
773.036123689
772.826408414
770.976659828
765.217910556
832.629513297
834.271918714
831.444510805
826.232844589
819.333685732
901.228644341
903.289353398
898.930382372
891.432852404
883.371121177
980.586445485
980.513931128
973.728915621
964.065247354
955.735635598
674.270816216
540.719061279
394.866768247
240.192983769
80.6207338581
701.478396596
557.722018324
404.646624774
245.145309826
81.9945360905
739.447798738
582.010011913
418.86353159
252.481955285
84.115398548
786.851447933
613.3545553
437.643740491
262.083151386
86.9443353167
841.902735735
650.834465039
460.49459935
273.884500265
90.4422611989
901.226013543
685.773878086
479.690074515
283.424452221
93.7165968088
933.463728621
702.021151381
487.533293297
287.09077679
95.0816396217
950.236709179
710.428496239
491.625942895
289.346414147
96.0697909434
963.118496096
718.129786448
493.957228482
290.512147387
96.6626832033
973.993342775
723.831875215
494.289323556
290.669869747
96.9091201833
1418.73007153
1325.63657944
1233.39190635
1147.93151053
1079.44976091
1422.46587719
1338.03736667
1255.56085444
1177.48731865
1107.97265607
1423.60763777
1343.86457569
1266.60066587
1192.54146211
1121.58807108
1425.67536255
1349.86053487
1275.33760953
1202.25688921
1130.58370163
1428.45331099
1358.03615701
1287.60351251
1216.78261568
1145.95193174
1883.78947265
1880.71485137
1870.57458196
1861.94778354
1858.66638461
1799.26670817
1793.880204
1783.17485422
1773.50558786
1768.71710615
1707.32186829
1702.84099546
1694.49756492
1686.21819404
1681.65139482
1610.7666085
1608.32728366
1603.48554093
1598.08464417
1594.83922146
1513.67180513
1512.87080643
1511.34422572
1509.47188407
1508.15929636
2198.48193666
2192.58218848
2193.19636359
2197.51665903
2200.81992208
2161.76430528
2155.82507764
2154.56083742
2155.75941579
2157.24844806
2110.16357976
2103.64867347
2099.86051964
2098.67825083
2100.87390312
2047.92063452
2040.55778821
2034.44626622
2030.99888015
2032.67691977
1976.12389303
1968.54844875
1959.7913989
1953.25113406
1952.53644101
2884.63374142
2688.69121166
2531.91565305
2386.17925604
2251.98124923
2880.22237838
2682.32994301
2522.28015576
2369.58046845
2225.61816355
2876.53264014
2673.89464846
2508.47648499
2345.92246085
2188.52695567
2873.55529551
2663.55293932
2490.39701491
2315.31272956
2141.77486156
2871.15955823
2651.53236065
2468.36073001
2278.60852867
2087.25542102
2869.4488618
2642.9217729
2449.61502444
2244.41286828
2028.02196925
2871.48829647
2640.94040747
2440.82089266
2226.67503077
1995.01494409
2873.31123673
2640.51431635
2436.46314048
2217.22608647
1977.16588363
2873.23791108
2639.66343568
2435.22916805
2209.98977652
1963.43221174
2873.34898835
2635.35726665
2435.80605751
2204.99486251
1952.51378269
1851.40357575
1782.48548024
1697.19357294
1604.92007516
1511.67222218
1821.87751851
1752.33427037
1674.21538126
1591.74586311
1507.48262119
1807.06523242
1736.14082117
1661.85591578
1584.27696269
1504.29295908
1796.53154327
1725.15866765
1652.17912817
1577.72398413
1501.93988124
1781.01097336
1710.40929223
1639.66647341
1569.28922802
1498.91527884
1357.06936701
1362.10633771
1364.23288142
1362.75667468
1353.24994317
1166.27433125
1177.67808668
1182.50968587
1178.19692466
1161.04464995
1001.84549678
1016.31590727
1020.77062981
1012.94579014
998.874017509
878.012570597
891.977546248
893.776860677
883.644723327
870.64613085
801.156482356
810.683500144
810.909976235
801.375695662
791.242407237
750.486712327
754.170095284
753.873288467
750.663667587
747.458065951
716.268366677
717.602480193
718.415049028
717.652124699
714.529187461
696.817678038
699.142172129
702.479743075
702.86031491
698.187574901
692.951850244
697.032944651
702.457668286
702.81393693
696.653730654
700.334790823
704.474028862
710.71230892
711.719601369
705.546877056
673.61643427
549.21306766
408.709008585
252.091586782
85.0365639445
657.953219823
536.443056327
398.174820128
245.359086206
82.8300338342
649.941092027
528.784970635
391.050916891
240.509668617
81.1947717112
649.652921215
526.867026389
387.995265066
237.889512643
80.2317957636
657.425590687
530.688306313
389.298052075
237.756071217
80.0261629469
706.674191949
560.911888878
413.212922669
254.383605542
86.0434667764
693.064188218
558.278495377
414.525979784
255.819867339
86.6505538064
1343.9835709
1138.11022621
985.58181289
883.501905475
821.856765431
1344.51645979
1142.01239185
988.946181907
877.940559099
805.9861798
2178.2804577
2174.82043132
2171.01479675
2169.96015925
2173.1193188
2212.09978722
2208.77054603
2207.49693247
2207.64185483
2208.4738161
2228.48151368
2223.66121859
2223.59339836
2226.18158531
2227.5309062
2229.64785367
2223.43625318
2223.66264409
2228.62421036
2232.40180586
2219.8610122
2213.39288811
2214.09203802
2220.480833
2225.69379858
1563.90330315
1553.43287656
1550.70308333
1551.48858711
1555.33460277
1757.53009148
1739.60281785
1734.1445529
1737.63917368
1747.77510439
1921.89838062
1907.03817396
1898.14287346
1901.39111822
1914.73281844
2052.18792075
2038.49465237
2027.42815131
2028.20331126
2041.2885204
2133.21890079
2122.64721081
2112.33710799
2111.67977259
2120.53588498
2903.35190913
2682.87899792
2519.96840171
2378.07837412
2253.40683855
2902.78984154
2689.89058631
2530.08907872
2391.01154471
2269.49243199
2899.52767857
2693.73916686
2536.66209038
2398.7012565
2277.03405269
2894.80653227
2694.60056732
2539.11138221
2400.36769141
2276.62773246
2889.61905916
2692.83719207
2537.49898959
2396.21624395
2268.50125155
2905.67295631
2677.21350134
2517.0119424
2366.96650081
2219.43879334
2902.4382496
2678.13396911
2515.08731563
2369.0887902
2233.53168137
2102.02589569
2039.41620979
1935.46343465
1780.81286676
1573.63392258
2118.2882221
2045.11208424
1932.18069966
1776.95178126
1573.02404614
)
;

boundaryField
{
    left
    {
        type            zeroGradient;
    }

    right
    {
        type            fixedValue;
        value           uniform 0;
    }

    down
    {
        type            zeroGradient;
    }

    up
    {
        type            zeroGradient;
    }

    cylinder
    {
        type            zeroGradient;
    }

    defaultFaces
    {
        type            empty;
    }
}

// ************************************************************************* //
