/*--------------------------------*- C++ -*----------------------------------*\
  =========                 |
  \\      /  F ield         | OpenFOAM: The Open Source CFD Toolbox
   \\    /   O peration     | Website:  https://openfoam.org
    \\  /    A nd           | Version:  13
     \\/     M anipulation  |
\*---------------------------------------------------------------------------*/
FoamFile
{
    format      ascii;
    class       volVectorField;
    object      U;
}
// * * * * * * * * * * * * * * * * * * * * * * * * * * * * * * * * * * * * * //

dimensions      [0 1 -1 0 0 0 0];

internalField   nonuniform List<vector>
440
(
(0.837724700586 -0.687526338125 -1.5983787349e-15)
(1.12984652121 -0.903765785953 7.38677589042e-17)
(1.18348780205 -0.956082368438 -1.5831400632e-16)
(1.08363973401 -0.916577845809 -5.48798872377e-17)
(0.901641460894 -0.766565677424 -8.08394384666e-17)
(0.979682821005 -0.580670136094 9.04131542518e-17)
(1.25591569133 -0.737570968698 8.05221010071e-18)
(1.26429284866 -0.761177146135 -9.5077110943e-18)
(1.12170090547 -0.715875532397 2.67617581011e-17)
(0.924930102227 -0.592204368477 1.56306129875e-17)
(1.09126045688 -0.437247432291 -2.78838960807e-17)
(1.34722698661 -0.540478550912 -2.7844381226e-17)
(1.31642175796 -0.547597491314 -2.31662618302e-17)
(1.155638992 -0.515227452677 6.15983996977e-17)
(0.991615223869 -0.431280797538 2.22097342944e-17)
(1.16640470592 -0.268767736036 2.99362157246e-17)
(1.4000504872 -0.328677066743 -1.08972013935e-17)
(1.33530346221 -0.329444351143 -5.1817909716e-17)
(1.15903826904 -0.314359086131 3.06970450165e-17)
(1.0989533677 -0.282436779507 5.84640007444e-17)
(1.20263770425 -0.0862144096086 2.12220870478e-17)
(1.42098290096 -0.110898432685 1.0326150448e-17)
(1.33448921617 -0.111521804056 4.32616965974e-17)
(1.14618601501 -0.108724079854 -3.02113169904e-17)
(1.19859799453 -0.10521371724 -9.92948975443e-18)
(0.0531719970382 -0.272151893905 -4.86086206049e-18)
(0.172310163008 -0.417909145932 8.36557335579e-18)
(0.321619570756 -0.45232674028 -1.68461717403e-17)
(0.467176696564 -0.414987526801 5.09791895722e-18)
(0.577159929726 -0.347168974362 5.38919862223e-17)
(0.153544882774 -0.45099720016 -2.90868732854e-18)
(0.309353355715 -0.663978241342 -4.61579703739e-18)
(0.452257255892 -0.747746034074 -5.5502175526e-18)
(0.568648866925 -0.723981732799 -3.87642031447e-18)
(0.634978409033 -0.629240240618 5.60362853623e-18)
(0.300601905475 -0.603655976651 3.11611539802e-17)
(0.510029909345 -0.859341763977 1.25975984478e-17)
(0.653044875774 -0.95308481762 1.63715582877e-17)
(0.737650213836 -0.924381471771 -4.10462683168e-17)
(0.749499076789 -0.79944685793 1.02534116988e-18)
(0.476356924044 -0.701860549324 7.77727252734e-18)
(0.73642333274 -0.971813444413 -9.61615687979e-18)
(0.871888417335 -1.06182154481 2.59541570973e-17)
(0.914890126079 -1.02226957092 2.36236131757e-17)
(0.866073601799 -0.877188804861 -1.02833084465e-18)
(0.667186247 -0.731718192467 -1.27043591823e-17)
(0.963609467936 -0.990115464857 -8.65333743425e-18)
(1.07148228496 -1.0660388501 -7.88697633325e-19)
(1.06175811228 -1.02764100683 -7.765280272e-18)
(0.928214814659 -0.869025178809 -2.93899625835e-17)
(0.739911210116 0.212229043733 9.33463025837e-17)
(0.621418873441 0.738643838166 -6.23989674137e-17)
(-0.161519526512 0.183518828985 -1.59957643329e-17)
(-0.437770824913 -0.0201176139565 1.13080309287e-17)
(-0.508372252387 0.00578904159321 -4.51373567585e-18)
(0.550328045293 0.174725523339 -1.55932577625e-16)
(0.46713105192 0.882620138953 2.40176459159e-17)
(-0.158194103836 0.322643341065 -2.01018736976e-17)
(-0.399353141613 0.00512571959099 -4.4870067608e-17)
(-0.261416250127 0.0102794764192 8.60649381861e-18)
(0.391414285215 0.160759769199 -9.06561424746e-17)
(0.220500450639 0.962053522653 -1.91716877367e-16)
(-0.150116063446 0.451548326554 1.60013034212e-17)
(-0.370305975675 0.008585163307 -3.80212465586e-17)
(-0.143052512401 -0.0190752651599 -8.91080664922e-18)
(0.248906680343 0.171932824623 8.75179523149e-17)
(-0.0474037297049 1.00852722649 4.33761745229e-17)
(-0.187474973855 0.565768185165 1.82222777145e-17)
(-0.331490568343 0.0104980867485 3.45043440922e-17)
(-0.28266018327 -0.0429682570398 -1.14604042253e-17)
(0.0940865380992 0.152009181096 -7.24639361702e-18)
(-0.336676567895 1.02729108904 1.72373820194e-16)
(-0.240885487571 0.69114720042 0)
(-0.279757703108 0.0681516832043 -1.46576802577e-17)
(-0.538425006557 -0.024370230848 2.48846760043e-18)
(-0.212376149165 0.479977350515 -2.41801817272e-17)
(-0.628653948438 1.09642274027 -5.11844592854e-17)
(-0.355046942985 0.800476864684 4.88198590866e-18)
(-0.395675846716 0.168880520637 -2.38297835236e-17)
(-0.513471082825 -0.0160675422789 -8.40445579817e-18)
(-0.860358428347 0.502826037599 -1.98137533933e-17)
(-0.434075576115 0.734283464362 3.05081795858e-17)
(0.314791393058 0.477855888064 5.09755330705e-18)
(0.666522287372 0.118958781862 8.14887934272e-18)
(0.598238425941 -0.00381150070989 0)
(-0.27972633547 0.26719505564 -3.10949258029e-17)
(0.535338984036 0.375798836157 -5.84580760528e-18)
(1.37860368962 0.226351716357 1.17511434907e-17)
(1.77360987727 0.072844965997 -2.53426914115e-18)
(1.67423045798 -0.00771165228211 1.65812057489e-18)
(0.561658350318 0.157752979081 5.14668801326e-17)
(1.09773230085 0.153968911528 -3.64771972282e-17)
(1.62951619393 0.0796468176603 1.41108522444e-17)
(1.8907677019 0.0390715546448 1.92070837692e-31)
(1.84818028237 0.00123274723825 -2.00674564216e-17)
(0.943171994391 -0.00680884164544 4.28741149696e-18)
(1.07181382471 -0.0494670380933 7.73851748895e-19)
(1.19944265103 -0.0738724870508 1.21316516888e-17)
(1.24209915233 -0.0292726407443 1.2731009428e-20)
(1.22825009618 -0.00538632149531 -1.7092404435e-19)
(0.0406008229781 -0.0237331289696 9.20608257326e-17)
(0.0675664285706 -0.0387861046063 -6.23233294396e-17)
(0.0977263913423 -0.0684928825557 3.72811711158e-17)
(0.137182606873 -0.143751251071 2.06728384738e-17)
(0.258225806709 -0.301169090066 -5.37786276469e-18)
(-0.85749028324 0.00493707206683 6.66987443166e-17)
(-0.887235391578 0.0519750185522 -4.0932178402e-18)
(-0.922811563005 0.131168241463 -2.90525685755e-17)
(-0.944913269712 0.263017137238 1.94568202514e-17)
(-0.862668667235 0.420033341368 -4.79643126198e-18)
(-0.135286076106 0.0182830392323 4.19194286569e-17)
(-0.186366535342 0.0575805682533 -3.20559039732e-17)
(-0.276913801284 0.105385069197 6.36903973431e-17)
(-0.392234021222 0.16992654142 -4.65099660917e-18)
(-0.48451678937 0.246469903385 -6.34716090803e-17)
(0.257810799119 0.0239700184296 2.926814979e-17)
(0.260692406996 0.0768803996 9.05284296567e-17)
(0.266886466972 0.134848065039 -7.40015705716e-18)
(0.265464086965 0.189104150651 -9.46133231643e-17)
(0.27765807761 0.201641284766 2.3185903237e-17)
(0.665257911182 0.00180671288156 4.087451194e-17)
(0.681555659522 0.00567379302979 -1.30635518553e-18)
(0.715146751706 0.0110665936283 8.16354877101e-19)
(0.76255846764 0.0155301024826 -2.19567470042e-17)
(0.824015165311 0.00668321884704 -3.81197371644e-17)
(0.863455878492 0.71428031773 2.19082048325e-17)
(1.04797870417 0.875390698875 4.91862384453e-18)
(1.15245471448 0.924948253819 -2.05589958321e-17)
(1.10900589447 0.884847493551 9.34008045843e-18)
(0.825134515756 0.688314399817 -8.28701859295e-18)
(0.894720529272 0.558051205961 -2.17897371954e-17)
(1.09164820729 0.688131022234 -2.9485821391e-17)
(1.23563674854 0.739326732196 -2.55690639786e-18)
(1.23573432859 0.72385911064 -1.63702633986e-17)
(0.967440455502 0.585535123647 -1.05034490759e-17)
(0.969131031905 0.406270796108 -1.52917193269e-17)
(1.13415094938 0.495334168185 1.22884528988e-17)
(1.29364396076 0.532134235693 1.93077981222e-17)
(1.33034874598 0.53118050137 5.49102957513e-18)
(1.08093976882 0.446125752541 1.93224449232e-17)
(1.08334108987 0.265314302897 -1.44264270627e-17)
(1.14698544109 0.299836899099 -5.84805959698e-18)
(1.32100457751 0.319306175143 -2.81146573965e-17)
(1.38909230378 0.323312645845 2.1602603826e-17)
(1.15972744702 0.281008723654 -1.12530195583e-17)
(1.1917140969 0.094374390106 -3.29029901732e-17)
(1.14246991467 0.0967019238599 -3.56903361235e-17)
(1.32959367112 0.104267860859 -1.34018543336e-17)
(1.41718456838 0.107611034069 1.80339050603e-17)
(1.20036493613 0.100183233073 -1.11039493213e-17)
(0.600657572759 0.168358789189 6.64567847823e-17)
(0.492623605291 0.242220849353 4.69832600441e-17)
(0.347621371229 0.297707831054 -4.95523496894e-18)
(0.198593188193 0.306739070241 1.97000777662e-18)
(0.0593392859468 0.228887954706 2.37810185299e-18)
(0.639373901363 0.456074759442 3.85974156737e-17)
(0.572518966365 0.565684995413 1.23091927319e-17)
(0.455223688504 0.621626266658 7.25936689051e-18)
(0.311874475019 0.588773590876 -2.87898243757e-18)
(0.147710263733 0.425871955036 3.24405855777e-18)
(0.728024847126 0.656963239406 -1.62738789826e-17)
(0.717123387467 0.800804441274 3.2574377965e-17)
(0.635026468954 0.86282753707 1.74119187312e-18)
(0.496997646282 0.809153857309 -6.411007607e-18)
(0.28984951413 0.58977916683 1.93186395672e-18)
(0.831345182125 0.771681219133 2.05768314959e-17)
(0.882517300739 0.934366270451 -2.4599181614e-17)
(0.84445439253 0.999421072939 -4.24659262494e-17)
(0.717826288743 0.936920237794 1.03699807375e-17)
(0.464574741935 0.694284351679 -1.09294146658e-17)
(0.889989225263 0.796909096238 -1.63486634885e-17)
(1.02633635926 0.968476473718 -1.7225854533e-17)
(1.04145439226 1.02298744344 2.22674294103e-19)
(0.943621916085 0.964900810085 2.96308630916e-18)
(0.654972613559 0.728556962058 -2.56445015045e-20)
(-0.626885573455 -0.110634159112 -2.96660577756e-17)
(-0.275176467676 -0.0757322220521 -3.66410548868e-18)
(-0.127096750559 -0.0702969225792 4.21194493756e-18)
(0.482957540682 -0.680241567829 -1.25669526306e-16)
(0.765869422796 -0.376974307757 2.39079898485e-18)
(-0.611340527483 0.0578671957922 1.69867834062e-17)
(-0.217331477083 -0.0463094556098 5.48087564202e-17)
(-0.0891851143041 -0.141346833101 3.63288052151e-17)
(0.439659418123 -0.856800198597 4.78399906663e-17)
(0.588546067954 -0.355695496961 -4.18667142789e-17)
(-0.603567436171 0.21218555013 1.48355628068e-17)
(-0.202204183116 -0.0153786139641 -2.85824405551e-18)
(-0.00500423441828 -0.229922462547 -1.9436712469e-17)
(0.263768903429 -0.960193027464 3.52711473833e-17)
(0.414167694313 -0.336271822472 -7.3788700178e-17)
(-0.618695515178 0.352640468187 -9.55304428319e-19)
(-0.205442457548 0.0087767484803 -6.35115849216e-17)
(0.0198559109914 -0.330139574259 -2.87324711106e-17)
(0.0420125048312 -1.01218874786 -1.44912061773e-16)
(0.254499086531 -0.329137914725 2.6394618138e-17)
(-0.656185269181 0.490722875056 -1.32160979743e-18)
(-0.226973699457 0.022338027741 4.49781932687e-18)
(0.0114549441706 -0.454912813508 1.74809319035e-17)
(-0.218219888403 -1.03182828257 1.14773078981e-16)
(0.0861168663563 -0.282153137101 -6.86209052596e-17)
(-0.684585024898 0.695110003432 8.35002776185e-18)
(-0.196256528096 0.0650124676725 2.73564177711e-17)
(-0.0540632647668 -0.558957546538 -2.75262045115e-17)
(-0.454660655101 -1.07793451946 1.97905181965e-16)
(-0.21743449762 -0.573613306949 -9.63584121733e-17)
(-0.575399791412 0.9583177387 -1.32195067324e-18)
(0.356940683421 0.210478653125 3.99336747518e-19)
(0.274573988024 -0.375108358683 5.01658776951e-18)
(-0.303932547927 -0.739039211767 -3.82320714011e-17)
(-0.777842529392 -0.542421928403 1.69970278349e-17)
(-0.198405373933 0.750062384574 1.18224147982e-17)
(1.58536626288 0.297101211923 -1.85336643434e-33)
(1.41566309536 -0.156185282158 8.47583346752e-19)
(0.615561923514 -0.370626214115 1.05897815267e-17)
(-0.224674880029 -0.292842216701 4.87789942509e-17)
(0.12187306969 0.251706910975 2.5533017372e-18)
(1.84277710291 0.139863012379 -1.68810692704e-18)
(1.70386488055 -0.0441328136849 1.42113629526e-17)
(1.15081456095 -0.15096869361 1.64322347064e-17)
(0.587942931368 -0.163556203746 -7.30139228535e-17)
(0.240228116791 0.0171517087437 -5.77978527146e-18)
(1.2031726114 -0.0734701346757 -1.11626214516e-18)
(1.21818258425 0.0559989155027 1.06448878634e-17)
(1.08950957087 0.0522523565859 -5.97695288876e-19)
(0.948908462549 0.00762015989036 -1.34746220559e-17)
(0.2212961366 0.242658508544 3.53255316154e-17)
(0.109055623283 0.107635850001 2.73108606648e-17)
(0.0767386183241 0.0375496864666 -4.83221290138e-17)
(0.0512224646623 0.0100147881105 -1.02388768571e-16)
(0.0333658016009 -0.00469262953397 1.02544660798e-16)
(-0.827634823253 -0.433583376172 2.22205072614e-17)
(-0.910021214623 -0.282175021003 1.82586864915e-16)
(-0.889363140416 -0.149978138494 5.23453318995e-17)
(-0.859344260134 -0.0693609584536 -1.9790129735e-16)
(-0.845493441334 -0.0257607085599 -3.09168061927e-17)
(-0.45082109642 -0.259511782084 -7.07207174664e-17)
(-0.374088999884 -0.178725205632 -4.22660188261e-17)
(-0.268024516445 -0.113679053114 -6.15210962144e-17)
(-0.183492991396 -0.0622759951925 -7.7862919553e-17)
(-0.134949409053 -0.0199394407094 7.41357195123e-17)
(0.295680579218 -0.20119380341 7.42792389096e-17)
(0.27691084937 -0.1885803688 -4.51482462743e-18)
(0.274392266885 -0.136811377891 5.53822213723e-17)
(0.265321620193 -0.0794420558356 6.71662344204e-17)
(0.259284329424 -0.0266706664427 -6.16154905325e-17)
(0.826843999584 -0.00539625557075 -5.5038345699e-18)
(0.764095482274 -0.0146100577383 3.6531348863e-17)
(0.716293752133 -0.0107652216499 2.29398261012e-17)
(0.68213066745 -0.00546729377848 -4.22359963002e-17)
(0.665397439268 -0.00158274922964 -3.35554590976e-19)
(2.26743891499 0.160955461711 1.25361352397e-17)
(3.75535419232 0.251105898915 -1.13646262222e-17)
(4.38651215146 0.27209271697 -1.28787198144e-19)
(4.81843866952 0.248099464651 -1.47934781734e-17)
(4.28718956533 0.0965925449928 1.79194429336e-18)
(2.12706691162 0.470284135568 2.39349971977e-17)
(3.50259854913 0.693400711988 9.65348967016e-18)
(4.13372631601 0.719955806471 -1.30787910716e-17)
(4.25877380525 0.614081328086 7.08294109335e-18)
(3.96899579923 0.341630888477 -6.06457463681e-18)
(1.83300772886 0.69182308063 2.07335708682e-17)
(3.03565806362 1.00801971558 7.98142722304e-18)
(3.63956297621 1.03949742161 -8.17881605045e-18)
(3.72470149638 0.897355472912 -7.99081872908e-18)
(3.58392413266 0.664484351168 -5.08260072608e-17)
(1.44789934374 0.801094691706 -1.80158608802e-17)
(2.42373459757 1.17385749963 -1.5519365368e-17)
(2.97363978642 1.25156608683 3.13582430947e-17)
(3.14475941868 1.12812253222 -2.28556166343e-18)
(3.0061081084 0.920897254941 3.93430151855e-18)
(1.06221479527 0.812608564279 -2.90145277889e-17)
(1.80923824575 1.2080127485 1.33249024797e-17)
(2.28689255888 1.34427670892 -1.76428115758e-17)
(2.53273697476 1.30063278351 -2.39026888604e-17)
(2.52379115789 1.11087056787 -2.08099035007e-18)
(0.724116205596 0.753496288956 -1.62221653399e-17)
(1.27044311786 1.12835316117 -6.93357871459e-18)
(1.66345728428 1.28976000279 -1.9399731398e-17)
(1.93547987204 1.31868021162 1.31106360089e-17)
(2.08305519677 1.22550091978 -5.48668018391e-18)
(0.443395219006 0.627697255815 9.04390608103e-18)
(0.835184527496 0.915482919815 3.50401791423e-18)
(1.14948805206 1.04625331653 -3.63898594644e-19)
(1.4118002373 1.09166514841 1.31882719557e-17)
(1.58998272502 1.03290639084 6.45974704118e-18)
(0.229973293999 0.42698550043 6.03075336925e-18)
(0.5115468144 0.568083958783 -7.23307135057e-18)
(0.763429765816 0.699146597778 2.38488808597e-17)
(1.00724541307 0.765674473411 6.0569470491e-17)
(1.1854104073 0.742468167238 -2.37812750602e-17)
(0.109150081789 0.141550285626 9.41238031079e-19)
(0.300732785404 0.196999932547 6.27936115899e-18)
(0.499472008962 0.316920938997 -2.49832193522e-17)
(0.704502425509 0.378336559484 -4.94453933154e-17)
(0.862495553622 0.387735499971 8.63371428869e-18)
(-0.00730812271752 -0.164947377561 -7.02686803447e-19)
(0.167557487222 -0.134333222492 2.09142852472e-18)
(0.334902096999 -0.0825144553054 -1.05340761074e-18)
(0.508303336954 -0.028154403003 -3.25513915611e-19)
(0.64797626119 0.0112063788355 1.64953251382e-17)
(1.96514204114 0.410538889499 -9.57697443066e-18)
(1.24345323834 0.143585784959 -4.00155419791e-17)
(1.30495387008 -0.0595070241253 1.56516806765e-17)
(1.46845485652 -0.0675899605473 2.7292357185e-17)
(1.57394577255 -0.0195596448406 2.22522147515e-18)
(1.81411903278 0.344310796535 -1.18663840118e-17)
(0.945809112595 0.159782869813 -3.76224695566e-18)
(0.959694334401 -0.113423533189 3.76201896835e-17)
(1.1010371418 -0.100148424554 6.15566781394e-18)
(1.19272399618 -0.0282326143167 -6.92385098949e-18)
(1.52829829229 0.334569447438 2.15923363538e-18)
(0.720770356779 0.270632248003 8.64970803781e-18)
(0.454738079157 -0.144727653901 -1.28462422284e-17)
(0.510499967358 -0.13871813002 -2.60577186988e-18)
(0.570850952809 -0.0386270276169 1.01972979768e-17)
(1.23062319229 0.301312927217 -2.7105143209e-17)
(0.648804338567 0.402095125138 7.47355373957e-17)
(0.0665954879287 -0.0829720332702 -3.88831702898e-18)
(-0.110608902116 -0.13823549361 -2.80712391389e-18)
(-0.134527753833 -0.0386550274956 3.1589127191e-18)
(0.968633785223 0.257669095926 -1.0053486039e-17)
(0.652486078375 0.563397256759 -9.08469872866e-18)
(-0.106160838272 0.0433677576399 -2.84915984577e-18)
(-0.422089434923 -0.08316810675 1.20787699006e-17)
(-0.542597016055 -0.0202072437039 9.11398835472e-18)
(1.10644792681 0.0681386173819 1.40338210093e-17)
(0.852660353143 0.00314730790604 0)
(0.847986486571 0.00342204204964 7.67818562594e-18)
(0.906274703099 0.0055624708289 5.0782373975e-19)
(0.945945322017 0.00278847125143 -8.55378521951e-18)
(1.89373053206 0.122220406048 0)
(1.2943941011 0.0230112000966 0)
(1.29073711007 -0.0305276749519 -1.34665424289e-17)
(1.42297845178 -0.0329559697744 2.50630783784e-18)
(1.5094549569 -0.00958824901809 1.77914383821e-18)
(1.39933020204 -0.000345953343511 -1.50195872854e-17)
(1.56534323367 0.00747556691228 8.36568452996e-17)
(1.63974187598 0.0406293263329 -5.42950840344e-18)
(1.58523169506 0.0977152211556 -5.5750852668e-17)
(1.4933330287 0.173852943113 -1.65050048145e-17)
(2.5727637753 0.0211094976533 1.70357217729e-17)
(2.88907327648 0.115171667657 6.38709881955e-17)
(2.93640023288 0.298939790221 -1.38274735242e-17)
(2.71562145362 0.544752974298 -4.56416913955e-18)
(2.34974221707 0.755266042078 8.76872854512e-18)
(2.08152088296 -1.23682535272 3.90221935648e-18)
(1.93967426335 -1.3308879805 -1.28658270932e-17)
(1.66382939729 -1.29310657848 -8.25452791416e-19)
(1.27226801019 -1.12716711068 -2.99645069081e-18)
(0.721447135395 -0.7585247406 6.02511141963e-18)
(1.57979019863 -1.08578700145 -1.13669591418e-17)
(1.41257038441 -1.1418338693 -4.02072298978e-17)
(1.15002150189 -1.07792987576 -1.28849270035e-17)
(0.834931956804 -0.916994554762 6.76925514932e-18)
(0.442868271452 -0.627806418069 3.27309242996e-18)
(1.14241577651 -0.845739562002 2.33172347317e-17)
(0.983553689235 -0.869099332798 -1.9176309606e-18)
(0.752986328144 -0.79366458008 -3.09860394512e-17)
(0.504599822029 -0.620907760538 -5.57008452236e-18)
(0.232836010506 -0.432615452119 -4.79854824782e-18)
(0.811890882839 -0.525949521742 3.71034280838e-17)
(0.666769767049 -0.5195497426 2.53891977934e-17)
(0.47565934137 -0.454996524792 -1.34925937313e-17)
(0.275055808479 -0.328268046386 -1.0093780849e-17)
(0.0847405366599 -0.155091470963 -6.57738972572e-19)
(0.642905979956 -0.173012297973 5.24824130812e-18)
(0.510846735399 -0.135594620885 7.34375498555e-18)
(0.344472312948 -0.0796540586224 -1.18309944728e-18)
(0.184187575659 -0.0210198662417 -2.986125059e-18)
(0.0437529524775 0.0203584359297 -1.66467797818e-19)
(4.28103612934 -0.0959969399872 4.73558133192e-17)
(4.81224409806 -0.250421649533 -1.0992482739e-17)
(4.38360840685 -0.275612262664 1.4365000241e-17)
(3.75538487913 -0.253149130011 9.34258769975e-18)
(2.26855101377 -0.180696278192 1.21533418047e-17)
(3.9620811476 -0.340195664957 5.79452521684e-17)
(4.25354955203 -0.613220053806 5.62455373555e-17)
(4.13026135639 -0.720463238263 7.52032984232e-18)
(3.50409468653 -0.694796577346 2.00540022398e-17)
(2.12779936578 -0.488406924027 -1.24104247183e-17)
(3.57886027652 -0.662866616625 -9.79731835527e-17)
(3.72109008643 -0.896019575278 -1.90799455984e-17)
(3.63708243098 -1.03859018962 2.09445234933e-17)
(3.03784837696 -1.00892365788 8.1636473899e-18)
(1.83215319474 -0.706910065423 1.06819420239e-18)
(3.00200922437 -0.920031758097 2.180809523e-17)
(3.14269725564 -1.12752265384 -5.99559019239e-17)
(2.97210354113 -1.25077156422 -1.54836195384e-17)
(2.42642625798 -1.17469003684 -5.23296264533e-18)
(1.44604776852 -0.812793334887 1.85908940154e-17)
(2.52773158052 -1.11623380038 3.53463069015e-18)
(2.53391293144 -1.30431380586 1.72434773972e-17)
(2.28745645774 -1.34457516531 -9.69609684634e-18)
(1.81253707407 -1.20891808388 -7.60209310849e-18)
(1.06009330978 -0.821264011862 -1.30428095801e-20)
(-0.0643337685385 -0.346710663094 1.61932743421e-18)
(1.53787869377 -0.144795585639 1.27626910159e-18)
(1.4398555378 0.0958993876677 2.84234609867e-17)
(1.14347010152 -0.114923528956 -1.18558285704e-17)
(1.89434959069 -0.439659531419 -4.89863415604e-18)
(-0.332149200764 -0.560597218004 -9.31235679621e-19)
(1.14529833758 -0.18901704361 -6.74015125152e-18)
(1.06432834902 0.142406845176 2.6141786354e-17)
(0.769799858729 -0.0993127104225 1.181817379e-17)
(1.6976311387 -0.403732635361 1.29494515352e-17)
(-0.561003074613 -0.641377797054 -2.03981813937e-17)
(0.364484190916 -0.182709244464 -2.70347597414e-18)
(0.508188352652 0.158647916828 -7.43712471759e-18)
(0.469687575503 -0.196323477762 1.3970068583e-18)
(1.38849001195 -0.418082025283 1.60646285352e-17)
(-0.634463522747 -0.505709420866 2.96899345285e-17)
(-0.385501160781 -0.133718842044 6.02589785764e-18)
(0.0875374938941 0.106057565007 1.78900952351e-18)
(0.372567461534 -0.326423315669 4.69351534338e-17)
(1.1187008388 -0.409014053791 1.59730023672e-19)
(-0.637069184825 -0.299838829413 6.39288433177e-18)
(-0.395266636288 -0.0908566816395 -1.8897624164e-17)
(-0.0802295581568 0.0175966209557 1.10829795087e-17)
(0.416253901359 -0.491151044321 2.00174706502e-17)
(0.931448710024 -0.392027783883 -6.92588678558e-17)
(0.185816263242 -0.0208426934748 0)
(0.946358528942 0.0549775094013 -8.06164130285e-19)
(0.888355323255 0.0210004049086 7.8140860724e-18)
(0.84333558362 -0.00529658124395 2.31399513045e-18)
(1.11108424868 -0.0660598088983 -2.67613617712e-17)
(0.150776457616 -0.141539197345 -1.25673110459e-17)
(1.49407606887 -0.0680398561733 2.16998916461e-17)
(1.39812046855 0.026477995019 -2.1442336801e-17)
(1.24717913652 -0.0193446785589 -3.65763444731e-17)
(1.87193921409 -0.122414485318 -2.83495443865e-17)
(1.49604296627 -0.17282422956 -5.87359265639e-18)
(1.58538871582 -0.0972787711643 4.82072525581e-17)
(1.64107283914 -0.0397854252445 1.99532818929e-17)
(1.56670020003 -0.00699719770006 4.89471966228e-18)
(1.40027274379 0.000716621929959 0)
(2.34339749981 -0.752310978534 4.58124417838e-17)
(2.7098041049 -0.545682098981 1.04300248597e-16)
(2.9339546811 -0.298351450601 -7.9709810174e-17)
(2.88778654643 -0.114278762672 -2.60148653084e-17)
(2.57376278416 -0.0203051654526 2.77628149095e-17)
)
;

boundaryField
{
    left
    {
        type            fixedValue;
        value           uniform (1 0 0);
    }

    right
    {
        type            zeroGradient;
    }

    down
    {
        type            noSlip;
    }

    up
    {
        type            noSlip;
    }

    cylinder
    {
        type            noSlip;
    }

    defaultFaces
    {
        type            empty;
    }
}

// ************************************************************************* //
