/*--------------------------------*- C++ -*----------------------------------*\
  =========                 |
  \\      /  F ield         | OpenFOAM: The Open Source CFD Toolbox
   \\    /   O peration     | Website:  https://openfoam.org
    \\  /    A nd           | Version:  13
     \\/     M anipulation  |
\*---------------------------------------------------------------------------*/
FoamFile
{
    format      ascii;
    class       volScalarField;
    location    "0.305";
    object      strainRateViscosityModel:nu;
}
// * * * * * * * * * * * * * * * * * * * * * * * * * * * * * * * * * * * * * //

dimensions      [0 2 -1 0 0 0 0];

internalField   nonuniform List<scalar> 
440
(
9.4196
8.96965
8.54433
8.0423
7.58623
9.68998
9.35816
8.98173
8.48002
7.87564
9.80076
9.53086
9.15878
8.58512
7.84834
9.84964
9.61819
9.25865
8.64761
7.86615
9.86918
9.65609
9.30596
8.681
7.90884
1.28867
1.78223
2.04099
2.29108
2.35492
3.37061
3.30125
3.3194
3.42984
3.50081
5.8885
5.27251
4.93253
4.73535
4.76565
7.76948
6.99373
6.4218
5.9081
5.83131
8.8208
8.15124
7.55204
6.91889
6.87284
1.8426
0.824483
0.330221
0.0498959
0.0122961
2.62299
0.921428
0.286711
0.0348119
0.0103133
3.52244
1.18281
0.260788
0.0293775
0.0103391
4.0975
1.47866
0.26788
0.0250243
0.010376
4.60669
1.79721
0.343787
0.0224004
0.0100359
4.23735
1.77475
0.268303
0.0162206
0.0674922
3.70597
1.78712
0.505539
0.295278
0.450895
4.91511
3.19869
1.19956
0.637247
0.674013
7.01033
4.28881
1.88879
0.980039
0.87222
8.27284
5.07951
2.49949
1.41712
1.08852
2.84895
3.68364
4.62144
5.50809
6.15219
3.68382
3.69602
3.77076
3.85006
3.36555
8.2269
8.08695
7.79965
7.38538
6.34513
9.05301
8.99249
8.85922
8.62175
8.16049
9.60671
9.56995
9.48701
9.33801
9.11873
7.50437
8.0126
8.55916
9.01081
9.4644
7.79422
8.45143
8.98688
9.37781
9.7087
7.77896
8.5589
9.15932
9.54076
9.80946
7.81624
8.62754
9.25738
9.62276
9.8536
7.89136
8.6737
9.30538
9.65746
9.87035
2.48935
2.43074
2.23172
2.07877
2.00029
3.4698
3.41992
3.45466
3.6664
4.19854
4.6486
4.66834
5.0503
5.59129
6.43187
5.69684
5.83546
6.50098
7.18738
8.03779
6.7592
6.84571
7.58162
8.24303
8.93559
0.148128
0.0443879
0.213661
0.780575
1.98286
0.11136
0.0601887
0.179371
0.833625
2.65394
0.0910992
0.078622
0.163686
1.07925
3.46165
0.0826713
0.0949094
0.188155
1.41377
3.96853
0.0981125
0.117957
0.293123
1.76533
4.38654
0.171599
0.155733
0.280196
1.89167
4.1205
0.309834
0.172721
0.201251
1.73272
3.84958
0.618918
0.378311
0.798399
3.01584
4.89864
2.25116
0.909508
1.53486
4.15758
6.96106
5.04688
2.60716
2.46255
5.04544
8.2788
5.95477
5.27234
4.40641
3.51275
2.78093
3.51724
3.98616
3.96737
3.87436
3.76323
6.31914
7.35226
7.77958
8.06831
8.21896
8.12189
8.6004
8.84975
8.9888
9.05215
9.11678
9.33771
9.48736
9.57049
9.60695
9.31039
7.91599
1.39833
3.62906
7.73586
9.08122
7.43975
3.20529
1.63996
6.78793
8.39763
6.57634
4.20747
1.00332
4.1461
6.81401
5.09305
3.45383
1.70097
1.03773
4.50223
3.1435
2.03756
1.378
0.460967
2.59663
1.61828
1.00308
0.799039
0.928695
1.45344
0.77909
0.582042
0.616584
0.689456
0.793603
0.403635
0.589122
0.757514
0.831189
0.299819
0.497874
0.873266
1.0378
1.09936
0.155777
0.923358
1.26518
1.49948
1.55336
0.192839
0.361551
0.694193
0.781018
0.786159
0.399606
0.492306
0.553269
0.618507
0.636303
0.611506
0.630264
0.42553
0.448119
0.47274
0.950783
0.766386
0.366636
0.268213
0.298317
1.31103
0.809094
0.3552
0.11527
0.0727404
1.10737
0.868432
1.12406
1.14794
1.112
0.28119
0.478838
0.859148
0.942464
0.933326
9.19061
8.83789
7.75757
5.72892
3.55903
8.58649
7.72182
5.85007
3.48963
0.863848
0.969028
0.864744
1.03097
1.62036
2.65721
0.822524
0.777519
0.712666
0.826819
1.51878
1.05994
1.01102
0.848431
0.55442
0.725495
1.36048
1.32268
1.12588
0.780214
0.217016
1.8087
1.76223
1.51383
1.20261
0.583869
7.73539
3.62595
1.39966
7.91422
9.31053
6.78404
1.6396
3.20211
7.43663
9.08185
4.13196
1.01088
4.19349
6.57165
8.39917
1.03479
1.70741
3.43224
5.0837
6.82045
0.478202
1.37844
2.01425
3.12536
4.52497
1.28892
0.601436
0.565412
0.458281
0.180015
0.646874
0.354493
0.468317
0.524145
0.495502
0.36191
0.220896
0.359278
0.616458
0.804112
0.263591
0.0451171
0.311821
0.740711
1.19791
0.204384
0.0300382
0.255686
0.784216
1.53861
5.47492
2.49106
1.07445
0.987288
1.14539
2.87335
1.13122
0.752723
0.569655
0.247834
3.56872
5.7349
7.75877
8.83842
9.19076
0.839424
3.46941
5.8433
7.72044
8.58634
)
;

boundaryField
{
    left
    {
        type            calculated;
        value           nonuniform List<scalar> 
17
(
0.401205
1.04901
2.14886
3.90639
6.57869
0.278861
0.186016
0.150699
0.149556
0.19666
2.95045
2.03531
1.27699
0.764917
0.461579
6.97697
4.57693
)
;
    }
    right
    {
        type            calculated;
        value           nonuniform List<scalar> 
17
(
1.1124
0.934102
0.786465
0.635991
0.470829
0.292991
0.0674195
0.0114181
0.0101182
0.0100955
0.0100933
0.0102887
0.0883579
0.502917
0.713916
0.890319
1.08044
)
;
    }
    down
    {
        type            calculated;
        value           nonuniform List<scalar> 
20
(
5.98933
3.02261
1.18295
1.0705
1.85351
4.26971
6.38256
8.13027
9.01512
9.30877
9.3086
9.01448
8.1288
6.37834
4.26277
1.83137
0.942823
1.19154
1.20715
1.1634
)
;
    }
    up
    {
        type            calculated;
        value           nonuniform List<scalar> 
20
(
8.54842
5.40637
2.7255
1.5546
1.15253
9.69562
9.66614
9.59855
9.47415
9.29329
9.29616
9.47633
9.60012
9.66723
9.69602
5.69572
3.20126
2.702
5.40049
8.56485
)
;
    }
    cylinder
    {
        type            calculated;
        value           nonuniform List<scalar> 
40
(
1.34843
3.57291
6.11476
7.96046
8.95728
9.50519
9.74579
9.8408
9.88146
9.89746
9.54771
9.76291
9.84857
9.88497
9.8985
2.23279
4.47207
6.67783
8.23098
9.07023
3.04376
1.84388
1.07182
0.419745
0.594555
9.51868
9.33138
8.74138
7.26821
4.98483
9.51852
9.33064
8.73935
7.25998
4.95611
2.96551
1.73058
1.0649
0.659708
0.102951
)
;
    }
    defaultFaces
    {
        type            empty;
    }
}


// ************************************************************************* //
