/*--------------------------------*- C++ -*----------------------------------*\
  =========                 |
  \\      /  F ield         | OpenFOAM: The Open Source CFD Toolbox
   \\    /   O peration     | Website:  https://openfoam.org
    \\  /    A nd           | Version:  13
     \\/     M anipulation  |
\*---------------------------------------------------------------------------*/
FoamFile
{
    format      ascii;
    class       volScalarField;
    location    "0.44";
    object      p;
}
// * * * * * * * * * * * * * * * * * * * * * * * * * * * * * * * * * * * * * //

dimensions      [0 2 -2 0 0 0 0];

internalField   nonuniform List<scalar> 
1800
(
5.76018
7.86733
10.0202
11.4487
12.2832
12.694
12.8255
12.6688
11.4236
7.33286
9.61168
12.0874
14.5924
16.2766
17.3333
17.9963
18.4514
18.691
17.9673
15.2905
16.0056
18.6303
21.3031
23.1666
24.4269
25.3089
25.96
26.3437
25.873
24.0428
25.0019
27.5714
30.2199
32.1345
33.4999
34.5091
35.2718
35.724
35.3182
33.6341
36.0614
38.4223
40.8747
42.6863
44.0109
45.0071
45.7618
46.2113
45.8614
44.3062
48.739
50.7916
52.9354
54.5417
55.7328
56.6351
57.3175
57.7282
57.4472
56.0881
62.6881
64.3609
66.1167
67.4487
68.4508
69.2205
69.812
70.1891
70.0141
68.9255
77.6144
78.856
80.1671
81.1765
81.9525
82.5664
83.0606
83.4155
83.3821
82.6458
93.233
94.0127
94.8443
95.4993
96.0221
96.4596
96.8424
97.1658
97.2761
96.9417
109.262
109.567
109.899
110.174
110.411
110.632
110.849
111.063
111.224
111.252
-0.569048
-0.820225
-0.599262
-0.186392
0.283538
0.748682
1.10766
1.31931
1.46397
1.60928
-0.472883
-0.983251
-1.0877
-0.878905
-0.455388
-0.0307802
0.264421
0.50757
0.78581
1.05757
0.505241
-0.454866
-1.27475
-1.43603
-1.10991
-0.801091
-0.58278
-0.27628
0.129688
0.514761
0.891335
-0.243679
-1.42888
-1.76428
-1.54479
-1.38619
-1.25475
-0.946975
-0.489823
0.0181596
0.462352
-0.500944
-1.43238
-1.72138
-1.66337
-1.66863
-1.62592
-1.36098
-0.86843
-0.17359
-0.233256
-0.747455
-1.1432
-1.27106
-1.2902
-1.35148
-1.33931
-1.12764
-0.600961
0.332572
-0.559978
-0.521005
-0.34237
-0.195214
-0.109456
-0.0866095
-0.0452398
0.127527
0.707758
1.93919
-0.0696626
0.517117
1.23896
1.74405
2.07431
2.28882
2.44016
2.65913
3.39194
5.0555
1.38244
2.49055
3.73931
4.66112
5.3315
5.8245
6.16564
6.5064
7.49491
9.78367
3.62754
5.27049
7.08878
8.46485
9.48775
10.2482
10.7713
11.2253
12.2878
14.4523
2.32334
2.46163
2.3574
2.11811
1.62311
1.21538
0.875775
0.609722
0.379261
0.141601
1.96897
2.43381
2.24788
2.02834
1.53501
1.13692
0.830525
0.590346
0.371104
0.138318
1.4886
2.40238
2.14306
1.93037
1.45285
1.06666
0.789418
0.570976
0.360694
0.133187
0.863899
2.32043
2.04219
1.82092
1.37118
1.00151
0.751173
0.552559
0.351043
0.128639
0.171461
2.14665
1.93328
1.69836
1.28636
0.940261
0.715142
0.536007
0.343431
0.125709
-0.399155
1.87022
1.79781
1.56056
1.19552
0.88229
0.681999
0.521708
0.337991
0.124496
-0.546864
1.52399
1.62141
1.40399
1.0961
0.826548
0.652527
0.509809
0.334816
0.125069
0.182864
1.19642
1.39443
1.21885
0.983517
0.770761
0.626957
0.500519
0.334172
0.127455
2.43969
1.06125
1.09604
0.980002
0.847868
0.710973
0.604653
0.494219
0.336013
0.131138
6.67502
1.43126
0.740763
0.666513
0.679005
0.643325
0.584321
0.490426
0.336885
0.131422
10.0067
2.60731
0.722783
0.429391
0.501801
0.56209
0.559
0.48012
0.326334
0.121734
11.7934
2.60064
0.291242
0.0770879
0.363635
0.516178
0.53057
0.446399
0.296505
0.104282
12.8864
2.79575
0.404931
0.15349
0.463217
0.570244
0.52675
0.414182
0.266224
0.0835054
14.2008
4.37496
1.28368
0.724418
0.786489
0.719931
0.560251
0.393671
0.235312
0.0608455
16.3769
7.1219
2.7124
1.59972
1.25112
0.944685
0.633386
0.390337
0.209195
0.0388357
19.2711
9.89527
4.35686
2.57826
1.79469
1.2218
0.743155
0.407211
0.191982
0.0203931
21.7782
11.9614
5.88051
3.54609
2.3702
1.52692
0.87777
0.443167
0.186477
0.00810139
23.0578
13.1451
7.07878
4.44921
2.94875
1.84363
1.02731
0.495494
0.193781
0.00370423
22.9975
13.5238
7.93893
5.29702
3.53957
2.17965
1.19642
0.567608
0.217644
0.00912424
22.4445
13.7484
8.70967
6.15732
4.16456
2.55587
1.40582
0.675284
0.273998
0.0291712
111.808
97.8617
84.0968
71.0916
59.1523
48.3721
38.7907
30.1141
20.1026
4.99679
112.788
99.4994
85.9984
72.992
60.9491
50.0687
40.5361
32.2787
23.6142
11.5002
113.319
100.234
87.353
75.0265
63.4876
52.8957
43.4661
35.278
27.4923
18.3581
114.532
102.791
90.8319
79.0005
67.6432
57.0473
47.4137
38.813
31.1061
23.8429
115.109
104.098
93.1768
82.4856
72.1385
62.2137
52.7507
43.8392
36.02
29.8401
115.458
104.731
94.2244
84.0626
74.3421
65.1128
56.3536
48.1122
41.0703
36.0528
115.69
105.131
94.8192
84.887
75.4443
66.564
58.2554
50.588
44.2343
40.1152
115.79
105.269
95.0023
85.1309
75.7768
67.031
58.9274
51.5342
45.4176
41.4584
115.74
105.054
94.6279
84.6088
75.1297
66.2972
58.1673
50.798
44.5744
40.1218
115.616
104.67
93.982
83.7045
73.9792
64.9291
56.6344
49.1398
42.6311
37.4364
234.151
229.79
228.225
227.785
227.695
227.948
228.682
230.064
232.215
234.355
225.586
222.57
221.523
221.485
221.711
222.196
223.128
224.735
227.207
229.683
216.072
213.899
213.127
213.253
213.685
214.388
215.514
217.284
219.898
222.496
205.765
203.739
203.036
203.232
203.776
204.606
205.83
207.638
210.208
212.727
194.441
192.532
191.878
192.066
192.599
193.411
194.587
196.282
198.636
200.927
182.074
180.35
179.756
179.898
180.352
181.063
182.099
183.576
185.606
187.571
168.727
167.265
166.772
166.874
167.231
167.803
168.643
169.836
171.463
173.034
154.593
153.477
153.122
153.2
153.455
153.868
154.475
155.337
156.508
157.636
139.984
139.27
139.063
139.112
139.258
139.492
139.843
140.345
141.026
141.683
125.458
125.115
124.974
124.927
124.915
124.937
125.003
125.123
125.3
125.476
246.541
246.776
247.025
247.241
247.54
248.037
248.584
248.919
248.93
248.423
246.631
246.96
247.36
247.662
247.861
248.194
248.613
248.53
247.724
246.712
246.658
247.052
247.496
247.805
247.888
248.018
248.298
247.937
246.553
245.299
246.548
247.049
247.479
247.71
247.645
247.534
247.572
247.149
245.852
244.69
246.06
246.715
247.106
247.214
247.04
246.767
246.595
246.237
245.425
244.631
244.852
245.697
246.037
246.006
245.78
245.5
245.307
245.138
244.897
244.608
242.505
243.604
243.946
243.836
243.631
243.47
243.438
243.571
243.878
244.117
238.62
240.108
240.582
240.52
240.44
240.494
240.733
241.229
242.043
242.782
233.146
235.203
235.915
235.986
236.114
236.462
237.051
237.956
239.261
240.473
227.79
229.658
230.406
230.575
230.884
231.502
232.444
233.796
235.643
237.352
246.982
246.75
246.718
246.512
246.427
246.28
245.91
245.66
245.565
245.71
246.943
246.749
246.714
246.514
246.426
246.286
245.927
245.654
245.389
245.746
246.916
246.745
246.705
246.51
246.418
246.291
245.94
245.615
245.168
245.845
246.898
246.737
246.693
246.498
246.405
246.294
245.943
245.538
244.961
246.041
246.885
246.727
246.677
246.48
246.388
246.288
245.928
245.438
244.832
246.281
246.877
246.715
246.66
246.458
246.368
246.271
245.899
245.347
244.805
246.387
246.875
246.702
246.641
246.434
246.343
246.242
245.866
245.293
244.847
246.05
246.879
246.687
246.621
246.408
246.314
246.206
245.846
245.289
244.862
244.809
246.888
246.667
246.599
246.379
246.284
246.18
245.872
245.356
244.679
242.031
246.904
246.646
246.572
246.347
246.257
246.182
245.969
245.475
243.997
237.314
246.94
246.622
246.534
246.298
246.199
246.115
245.884
245.133
242.452
233.754
247.056
246.606
246.501
246.256
246.151
246.167
246.095
245.342
242.188
231.809
247.302
246.616
246.472
246.187
246.074
246.139
246.11
245.268
241.91
230.552
247.763
246.675
246.449
246.11
245.933
245.868
245.666
244.577
240.518
229.344
248.607
246.746
246.472
246.014
245.719
245.351
244.778
243.262
238.044
227.49
250.433
246.815
246.573
245.937
245.43
244.682
243.675
241.587
235.396
224.937
254.311
247.121
246.721
245.872
245.08
243.967
242.569
239.964
233.322
222.601
262.615
248.258
246.99
245.823
244.71
243.279
241.564
238.67
232.08
221.342
280.176
250.992
247.635
245.851
244.359
242.629
240.656
237.737
231.636
221.372
306.147
255.039
249.137
246.058
244.071
242.011
239.773
236.922
231.365
221.899
236.441
221.089
210.466
201.152
190.991
179.687
167.293
153.92
139.875
125.745
230.047
217.751
208.6
199.88
189.944
178.706
166.361
153.11
139.386
125.912
223.516
214.151
205.973
197.447
187.733
176.892
165.139
152.639
139.621
126.443
218.408
210.901
202.908
194.058
184.215
173.449
161.955
150.011
137.948
126.113
213.012
206.617
198.622
189.526
179.856
169.718
159.167
148.3
137.244
126.151
207.407
202.11
194.85
186.379
177.381
167.926
158.007
147.684
137.064
126.277
203.608
199.169
192.58
184.684
176.151
167.066
157.445
147.371
136.96
126.35
202.326
198.069
191.724
184.112
175.8
166.864
157.345
147.342
136.983
126.414
203.652
198.938
192.489
184.905
176.574
167.558
157.921
147.776
137.261
126.529
206.326
200.892
194.156
186.446
177.951
168.72
158.838
148.434
137.658
126.666
112.203
112.373
112.458
112.309
111.802
111.441
111.256
111.541
111.534
111.285
89.6305
90.0938
90.3124
89.8788
88.4469
87.3605
86.7397
87.4013
87.4389
86.8525
68.7894
69.417
69.6782
69.0114
67.0722
65.3606
64.3404
64.8891
65.1935
64.6384
50.6735
51.2798
51.4693
50.6461
48.6672
46.5013
45.1714
45.2068
45.9452
45.7118
36.0299
36.4381
36.4882
35.6068
33.8151
31.4994
29.8557
29.2905
30.0981
30.2858
24.9789
25.0822
24.96
24.0368
22.4594
20.4302
18.6395
17.698
17.953
18.4531
17.0935
16.9429
16.7279
15.737
14.3228
12.8196
11.3322
10.2672
9.92755
10.2941
11.6073
11.4301
11.3814
10.3822
9.06358
8.06183
7.17006
6.32705
5.73867
5.65502
7.93397
7.84545
8.14114
7.27356
6.10793
5.51739
5.18815
4.80315
4.31919
3.9397
6.06598
5.86076
6.2458
5.50837
4.63934
4.36298
4.38636
4.37651
4.22378
3.82802
5.30016
5.06304
5.1448
4.45081
3.91856
3.8617
4.01065
4.15284
4.27373
4.3304
4.87487
4.76543
4.48739
3.821
3.53449
3.62071
3.82294
3.99001
4.10957
4.19582
4.49837
4.4533
4.02101
3.46989
3.34861
3.51001
3.73369
3.9119
4.02968
4.09002
4.04609
3.99096
3.5845
3.23208
3.24043
3.44205
3.65391
3.81066
3.909
3.9503
3.50105
3.4077
3.13347
3.01217
3.12733
3.34279
3.53203
3.6691
3.75013
3.77384
2.8539
2.75883
2.69722
2.78527
2.98051
3.18406
3.34929
3.46837
3.53509
3.54845
2.13371
2.14834
2.28048
2.5129
2.74732
2.94512
3.09998
3.21333
3.27922
3.29447
1.46153
1.57833
1.82744
2.11847
2.37297
2.58638
2.76133
2.89902
2.98582
3.01374
0.788103
0.923951
1.197
1.52268
1.82942
2.09842
2.33344
2.51679
2.62139
2.65919
0.117697
0.0350528
0.267521
0.674639
1.09068
1.46848
1.78961
2.0041
2.10797
2.17095
3.68537
3.72802
3.59725
3.27067
2.6237
1.94
1.35059
0.876902
0.472951
0.124839
3.75823
3.70241
3.547
3.25473
2.58422
1.88296
1.29724
0.839936
0.454733
0.125616
3.78516
3.59753
3.43595
3.20096
2.54007
1.82865
1.24602
0.805064
0.438879
0.127371
3.74711
3.423
3.28442
3.09925
2.48265
1.7754
1.19695
0.772361
0.425295
0.129492
3.64091
3.21678
3.11793
2.94716
2.40026
1.71891
1.14942
0.741777
0.413813
0.131879
3.47938
3.02072
2.95942
2.76524
2.2869
1.65562
1.10343
0.713639
0.404345
0.134411
3.2874
2.85437
2.81755
2.58527
2.14588
1.58241
1.05873
0.688256
0.396728
0.136864
3.08057
2.71698
2.69208
2.43064
1.99271
1.49726
1.01468
0.665712
0.39073
0.13897
2.85649
2.60331
2.57768
2.30708
1.84814
1.40207
0.969834
0.645721
0.386104
0.140487
2.60739
2.51601
2.4676
2.20713
1.72499
1.30487
0.923355
0.627771
0.382771
0.141357
5.44618
4.00058
3.30369
2.92416
2.44623
1.9296
1.42691
0.961456
0.532858
0.142965
4.64249
3.7798
3.33924
2.98469
2.48647
1.93852
1.41603
0.945568
0.517972
0.135923
3.97272
3.6876
3.39942
3.05352
2.52535
1.94618
1.4057
0.931561
0.506596
0.13073
3.65293
3.6878
3.4842
3.13322
2.56606
1.95328
1.39519
0.91834
0.497117
0.127395
3.63817
3.73059
3.5854
3.22504
2.61144
1.96026
1.38313
0.904159
0.48813
0.125808
112.034
88.9688
67.9194
50.1493
36.1358
25.8165
18.6471
13.7721
10.5904
8.77641
111.813
88.4065
67.2132
49.4149
35.3336
24.8122
17.3434
12.2386
9.09605
7.59611
111.627
87.9262
66.575
48.6743
34.4224
23.6395
15.9231
10.7038
7.55961
6.10191
111.417
87.3525
65.7346
47.6096
33.0977
22.0455
14.1517
8.91954
5.8346
4.45922
111.162
86.6245
64.6054
46.1365
31.2977
19.9781
11.9834
6.94765
4.46484
3.64911
243.77
243.807
243.926
244.098
244.311
244.321
243.817
243.116
243.219
242.994
243.983
244.054
244.168
244.357
244.627
244.803
244.585
243.935
243.677
243.569
244.179
244.228
244.34
244.536
244.821
245.083
245.057
244.55
244.12
244.069
244.421
244.454
244.551
244.725
244.981
245.269
245.374
245.105
244.718
244.649
244.693
244.711
244.792
244.94
245.154
245.417
245.62
245.622
245.457
245.365
244.981
244.993
245.062
245.184
245.356
245.585
245.855
246.095
246.2
246.188
245.249
245.268
245.349
245.484
245.66
245.89
246.189
246.547
246.848
246.969
245.529
245.548
245.645
245.835
246.089
246.387
246.746
247.155
247.516
247.694
245.905
245.935
246.014
246.237
246.605
247.053
247.555
248.069
248.408
248.37
246.298
246.407
246.508
246.7
247.099
247.664
248.259
248.805
249.153
248.948
136.514
136.255
136.233
136.495
136.277
135.879
135.338
135.167
135.238
135.402
160.963
160.366
160.388
161.025
160.373
159.25
157.786
157.33
157.536
157.994
183.206
182.639
182.927
183.45
182.399
180.654
178.685
177.997
178.245
178.868
202.17
201.925
202.643
202.653
201.295
199.098
197.091
196.247
196.425
197.027
217.64
217.815
218.599
218.011
216.343
213.999
212.178
211.275
211.314
211.719
229.519
230.001
230.231
229.271
227.463
225.407
223.798
222.851
222.718
222.819
237.718
238.054
237.691
236.617
235.125
233.597
232.147
231.13
230.904
230.752
242.372
242.251
241.641
240.808
239.93
238.913
237.56
236.534
236.474
236.296
244.095
243.676
243.182
242.824
242.527
241.942
240.753
239.858
240.143
240.057
244.234
243.808
243.654
243.676
243.748
243.506
242.634
241.873
242.257
242.067
254.865
246.9
247.524
246.314
246.063
245.557
245.01
244.642
244.509
244.545
252.032
246.836
247.337
246.295
246.115
245.619
245.027
244.676
244.587
244.517
250.111
246.843
247.116
246.294
246.171
245.685
245.071
244.772
244.756
244.549
248.927
246.871
246.906
246.315
246.228
245.758
245.153
244.926
244.984
244.655
248.244
246.873
246.771
246.355
246.284
245.839
245.282
245.116
245.222
244.823
247.795
246.83
246.735
246.404
246.335
245.931
245.448
245.299
245.423
245.025
247.481
246.776
246.733
246.444
246.378
246.031
245.619
245.446
245.571
245.229
247.268
246.749
246.726
246.473
246.404
246.13
245.756
245.547
245.664
245.416
247.129
246.744
246.721
246.493
246.415
246.212
245.842
245.608
245.7
245.571
247.04
246.747
246.72
246.505
246.423
246.262
245.887
245.643
245.669
245.668
317.369
253.783
249.932
246.989
246.167
245.601
245.269
244.941
244.244
242.725
295.636
251.394
248.811
246.758
246.085
245.572
245.224
244.911
244.456
243.526
277.195
249.238
248.215
246.587
246.045
245.553
245.173
244.852
244.538
244.199
265.792
247.893
247.891
246.459
246.026
245.54
245.115
244.769
244.528
244.527
259.021
247.163
247.668
246.353
246.024
245.531
245.045
244.666
244.482
244.559
239.303
237.453
234.238
229.331
222.129
211.777
197.727
179.924
158.85
135.77
240.485
238.949
235.775
230.639
223.138
212.582
198.464
180.632
159.413
135.992
241.998
240.5
237.319
232.067
224.317
213.498
199.208
181.272
159.894
136.178
243.661
242.255
239.127
233.853
225.919
214.827
200.275
182.114
160.468
136.388
244.449
243.612
241.11
236.039
227.997
216.632
201.75
183.243
161.195
136.641
)
;

boundaryField
{
    left
    {
        type            zeroGradient;
    }
    right
    {
        type            fixedValue;
        value           uniform 0;
    }
    down
    {
        type            zeroGradient;
    }
    up
    {
        type            zeroGradient;
    }
    cylinder
    {
        type            zeroGradient;
    }
    defaultFaces
    {
        type            empty;
    }
}


// ************************************************************************* //
