# Selection   : all
# Cells       : 440
# Volume      : 7.374263e+01
# Time        	min(p)
4.41          	-1.735700e+00
4.455         	-1.738268e+00
4.505         	-1.741486e+00
