/*--------------------------------*- C++ -*----------------------------------*\
  =========                 |
  \\      /  F ield         | OpenFOAM: The Open Source CFD Toolbox
   \\    /   O peration     | Website:  https://openfoam.org
    \\  /    A nd           | Version:  13
     \\/     M anipulation  |
\*---------------------------------------------------------------------------*/
FoamFile
{
    format      ascii;
    class       surfaceScalarField;
    location    "0.36";
    object      phi;
}
// * * * * * * * * * * * * * * * * * * * * * * * * * * * * * * * * * * * * * //

dimensions      [0 3 -1 0 0 0 0];

internalField   nonuniform List<scalar> 
3485
(
0.00137161
-0.0112584
0.00988677
0.00505112
-0.0319074
0.0282279
0.0107644
-0.0513833
0.04567
0.0183132
-0.0696767
0.0621278
0.0275469
-0.0868338
0.0776001
0.0383514
-0.102898
0.0920941
0.050638
-0.117902
0.105615
0.0643638
-0.131864
0.118138
0.0796264
-0.144852
0.129589
-0.156883
0.139487
0.0970216
0.0015003
-0.0127587
0.00544581
-0.0358529
0.0114763
-0.0574138
0.0193241
-0.0775244
0.028774
-0.0962838
0.0396489
-0.113773
0.0518046
-0.130058
0.0651334
-0.145193
0.0795438
-0.159262
-0.172189
0.0948498
0.00147415
-0.0142328
0.00532697
-0.0397057
0.0111746
-0.0632614
0.0187212
-0.085071
0.0277262
-0.105289
0.0379902
-0.124037
0.0493473
-0.141415
0.0616582
-0.157504
0.0747908
-0.172395
-0.186031
0.0886336
0.00133885
-0.0155717
0.00485903
-0.0432259
0.010211
-0.0686133
0.0171175
-0.0919775
0.0253547
-0.113526
0.0347418
-0.133424
0.0451327
-0.151806
0.0564076
-0.168779
0.0684598
-0.184447
-0.198787
0.0812158
0.00116693
-0.0167386
0.00425604
-0.046315
0.00897334
-0.0733306
0.0150822
-0.0980863
0.0223926
-0.120836
0.0307539
-0.141786
0.0400485
-0.1611
0.0501836
-0.178914
0.0610819
-0.195345
-0.210401
0.0726953
0.00098004
-0.0177187
0.00358804
-0.048923
0.00758687
-0.0773295
0.0127845
-0.103284
0.019027
-0.127079
0.026194
-0.148953
0.0341936
-0.1691
0.0429564
-0.187677
0.0524276
-0.204816
-0.220549
0.0625759
0.000780754
-0.0184994
0.00286513
-0.0510074
0.00606928
-0.0805336
0.0102434
-0.107458
0.0152675
-0.132103
0.0210481
-0.154733
0.0275163
-0.175568
0.0346232
-0.194783
0.0423348
-0.212528
-0.228852
0.0506375
0.000569738
-0.0190691
0.0020936
-0.0525312
0.00443819
-0.0828782
0.00749325
-0.110513
0.0111696
-0.135779
0.0153981
-0.158962
0.0201293
-0.180299
0.0253319
-0.199986
0.0309896
-0.218186
-0.234969
0.0371069
0.000352545
-0.0194217
0.0012959
-0.0534746
0.00274532
-0.0843276
0.00462886
-0.112397
0.00688727
-0.138038
0.0094742
-0.161549
0.0123568
-0.183182
0.0155161
-0.203145
0.0189471
-0.221617
-0.238687
0.0226644
0.000137834
-0.0195595
0.000502599
-0.0538394
0.00105724
-0.0848823
0.00176998
-0.113109
0.00261435
-0.138882
0.00356924
-0.162504
0.00461915
-0.184232
0.00575456
-0.204281
0.00697203
-0.222834
0.00827663
-0.239991
0.000504801
-0.00187905
0.00137425
0.0021288
-0.00625705
0.00463305
0.00546746
-0.0113612
0.00802252
0.0101492
-0.0161005
0.0114188
0.0155809
-0.0200918
0.01466
0.0214943
-0.023497
0.0175836
0.0279733
-0.0266802
0.0202012
0.0351613
-0.0298669
0.0226789
0.0430467
-0.0330165
0.0251312
-0.0359824
0.0515
0.0275291
0.000428363
-0.00230741
0.0021177
-0.00794639
0.00545312
-0.0146966
0.00985226
-0.0204997
0.0149529
-0.0251924
0.0208513
-0.0293954
0.0277158
-0.0335447
0.0355001
-0.0376512
0.0439998
-0.0415163
-0.0450338
0.0530512
0.000680875
-0.00298829
0.00271101
-0.00997653
0.00579321
-0.0177788
0.00980427
-0.0245107
0.0148832
-0.0302714
0.0211972
-0.0357093
0.0286808
-0.0410283
0.0370619
-0.0460323
0.046123
-0.0505774
-0.0546814
0.0557706
0.000865861
-0.00385415
0.00305629
-0.012167
0.00609116
-0.0208137
0.0102336
-0.0286532
0.015748
-0.0357858
0.022619
-0.0425804
0.0306095
-0.0490188
0.0394839
-0.0549067
0.0491444
-0.0602379
-0.0650449
0.0595079
0.000920543
-0.0047747
0.00319791
-0.0144443
0.00652678
-0.0241426
0.0111371
-0.0332635
0.0171661
-0.0418147
0.0244912
-0.0499055
0.0329226
-0.0574502
0.0423606
-0.0643447
0.0527403
-0.0706175
-0.076234
0.0639294
0.000942252
-0.00571695
0.00337136
-0.0168734
0.00709527
-0.0278665
0.012185
-0.0383533
0.0186507
-0.0482804
0.0263826
-0.0576374
0.0352836
-0.0663512
0.0453049
-0.074366
0.0563673
-0.0816799
-0.0881797
0.068313
0.000979087
-0.00669603
0.00358322
-0.0194776
0.00764273
-0.031926
0.0131119
-0.0438224
0.0199349
-0.0551034
0.028026
-0.0657285
0.0373231
-0.0756483
0.0477794
-0.0848223
0.0593215
-0.0932221
-0.100663
0.0718045
0.00101754
-0.00771357
0.00376714
-0.0222272
0.00807128
-0.0362301
0.0138216
-0.0495727
0.0209236
-0.0622054
0.0292888
-0.0740937
0.0388476
-0.0852071
0.0495432
-0.0955179
0.0613167
-0.104996
-0.113414
0.0740677
0.00105436
-0.00876793
0.00393627
-0.0251091
0.00846078
-0.0407546
0.0144826
-0.0555946
0.0218758
-0.0695986
0.03053
-0.0827479
0.0403502
-0.0950273
0.0512477
-0.106415
0.0631413
-0.116889
-0.126298
0.0760261
0.00111884
0.00423764
0.00915303
0.0156863
0.0236878
0.0330339
0.0436218
0.0553446
0.0680445
0.0812335
0.114382
-0.413225
0.350344
0.168072
-0.469779
0.416089
0.209868
-0.419004
0.377207
0.243025
-0.323147
0.289989
0.268549
-0.210778
0.185255
0.286854
-0.105318
0.0870124
0.297218
-0.0318369
0.0214725
0.301722
-0.00439595
-0.000107397
0.303184
-0.000231192
-0.00123107
0.00150656
-0.000646123
0.116084
-0.476258
0.169836
-0.523531
0.211721
-0.460889
0.244677
-0.356103
0.270176
-0.236278
0.288384
-0.123525
0.298671
-0.042124
0.303269
-0.00899357
0.305209
-0.0021717
0.00200982
0.11796
-0.538448
0.170807
-0.576378
0.21243
-0.502511
0.244936
-0.388609
0.270324
-0.261666
0.288239
-0.14144
0.29817
-0.0520544
0.302735
-0.0135594
0.30481
-0.00424605
0.00234204
0.120355
-0.599295
0.171249
-0.627271
0.21212
-0.543382
0.243931
-0.42042
0.269118
-0.286853
0.286838
-0.15916
0.296709
-0.0619256
0.30167
-0.0185202
0.304177
-0.00675282
0.00223086
0.123234
-0.6586
0.171377
-0.675415
0.21091
-0.582915
0.241777
-0.451287
0.26662
-0.311697
0.284335
-0.176874
0.294528
-0.0721193
0.300231
-0.0242227
0.303433
-0.00995516
0.00141065
0.126061
-0.716349
0.171247
-0.7206
0.208901
-0.620569
0.23858
-0.480965
0.262882
-0.336
0.280773
-0.194765
0.29169
-0.083036
0.298445
-0.0309775
0.302587
-0.0140973
-0.000374567
0.127971
-0.772515
0.170691
-0.76332
0.206173
-0.656052
0.234464
-0.509256
0.257989
-0.359525
0.276169
-0.212945
0.288209
-0.0950766
0.296324
-0.0390919
0.301643
-0.0194167
-0.00337262
0.128026
-0.826473
0.169239
-0.804532
0.202616
-0.689429
0.229435
-0.536075
0.251972
-0.382061
0.270482
-0.231455
0.28406
-0.108655
0.293865
-0.0488965
0.300595
-0.0261472
-0.00783924
0.125926
-0.876373
0.166487
-0.845093
0.198196
-0.721139
0.223619
-0.561498
0.244977
-0.403419
0.263752
-0.25023
0.279211
-0.124113
0.291024
-0.0607092
0.299358
-0.0344813
-0.0139915
0.122224
-0.917364
0.161633
-0.884502
0.192044
-0.751549
0.216354
-0.585808
0.236572
-0.423637
0.255608
-0.269266
0.273429
-0.141935
0.287298
-0.074578
0.296064
-0.0432472
-0.0208484
0.583866
-0.919797
-0.581433
0.561113
-0.861749
0.523894
-0.71433
0.487542
-0.549456
0.459535
-0.395631
0.447085
-0.256816
0.448575
-0.143425
0.448366
-0.0743691
0.443075
-0.0379562
-0.0185442
0.682792
-0.871179
-0.731409
0.619714
-0.798672
0.554218
-0.648833
0.497587
-0.492826
0.455099
-0.353143
0.431594
-0.23331
0.421062
-0.132893
0.413292
-0.0665991
0.407861
-0.0325254
-0.0163558
0.754067
-0.774834
-0.850411
0.65546
-0.700065
0.564354
-0.557728
0.489487
-0.417958
0.433326
-0.296983
0.398122
-0.198106
0.381827
-0.116598
0.374079
-0.0588518
0.369057
-0.027503
-0.0138886
0.779206
-0.641491
-0.91255
0.654232
-0.575091
0.547201
-0.450696
0.462732
-0.333489
0.400939
-0.23519
0.360895
-0.158061
0.34038
-0.0960833
0.331054
-0.0495252
0.3261
-0.0225492
-0.0114067
0.753158
-0.49234
-0.902309
0.617908
-0.439841
0.506798
-0.339587
0.421226
-0.247917
0.359493
-0.173456
0.318597
-0.117166
0.295908
-0.0733939
0.28548
-0.0390976
0.280548
-0.0176163
-0.00892535
0.6852
-0.345793
-0.831746
0.552887
-0.307529
0.4468
-0.233499
0.366675
-0.167792
0.30957
-0.116351
0.271333
-0.0789291
0.24877
-0.0508306
0.23778
-0.0281074
0.23284
-0.0126759
-0.0064886
0.582665
-0.213844
-0.714614
0.462981
-0.187845
0.3695
-0.140018
0.300326
-0.0986178
0.25171
-0.0677351
0.218954
-0.0461736
0.198674
-0.0305506
0.18814
-0.0175732
0.183424
-0.00795948
-0.00418691
0.448779
-0.105519
-0.557105
0.35122
-0.0902868
0.277145
-0.0659427
0.223723
-0.0451957
0.186759
-0.0307709
0.161735
-0.0211496
0.145591
-0.0144065
0.136655
-0.0086381
0.132579
-0.00388329
-0.00217201
0.286598
-0.03022
-0.361896
0.220925
-0.0246143
0.172524
-0.0175413
0.13879
-0.0114614
0.115741
-0.00772187
0.0999812
-0.00539021
0.0894048
-0.00383008
0.0832132
-0.00244647
0.080396
-0.00106609
-0.000693578
0.101316
-0.131536
0.0767016
0.0591603
0.0476989
0.039977
0.0345868
0.0307568
0.0283103
0.0272442
0.738828
0.0102243
-0.740776
0.733081
0.0284115
0.72344
0.0467477
0.710164
0.0639134
0.693568
0.0791725
0.674069
0.0921937
0.65226
0.103026
0.628692
0.112201
0.604239
0.119303
0.119827
0.845554
0.0134007
-0.84873
0.837325
0.0366408
0.827289
0.0567838
0.816591
0.0746109
0.805244
0.0905195
0.792884
0.104553
0.779264
0.116646
0.764559
0.126906
0.749083
0.134779
0.137501
0.844995
0.0114286
-0.843023
0.848897
0.0327395
0.853036
0.0526445
0.856489
0.071158
0.85885
0.0881583
0.859935
0.103469
0.859606
0.116975
0.85797
0.128541
0.855294
0.137455
0.142383
0.80022
0.0093074
-0.798099
0.805829
0.0271302
0.81443
0.044044
0.825653
0.0599349
0.839025
0.0747862
0.853883
0.0886108
0.869463
0.101396
0.885106
0.112898
0.9
0.122562
0.129833
0.737871
0.00704135
-0.735605
0.74416
0.0208407
0.754131
0.0340736
0.767513
0.0465525
0.784096
0.0582029
0.80368
0.0690269
0.826018
0.0790582
0.850665
0.0882508
0.876603
0.0966235
0.104127
0.653924
0.00485603
-0.651738
0.660207
0.0145577
0.670383
0.0238976
0.684227
0.0327086
0.701532
0.0408972
0.722121
0.0484376
0.74582
0.0553594
0.772351
0.0617202
0.801249
0.0677257
0.0736296
0.549113
0.00291748
-0.547175
0.554814
0.00885691
0.56414
0.0145712
0.576908
0.0199405
0.592919
0.0248871
0.611973
0.0293831
0.633878
0.0334548
0.658417
0.0371815
0.685394
0.0407484
0.0444097
0.422792
0.00137646
-0.421251
0.427413
0.00423644
0.435008
0.00697589
0.445423
0.00952597
0.458471
0.0118388
0.473959
0.0138957
0.4917
0.0157138
0.511531
0.0173499
0.533352
0.0189276
0.0206571
0.273828
0.000366884
-0.272818
0.276915
0.00114957
0.281999
0.0018918
0.288955
0.00256941
0.29763
0.00316441
0.307856
0.00366905
0.319482
0.00408795
0.332395
0.00443659
0.346563
0.00476037
0.00532327
0.100483
-0.100117
0.101633
0.103525
0.106094
0.109259
0.112928
0.117016
0.121452
0.126213
0.0779648
0.159473
-0.14245
-0.0949879
0.0630522
0.147436
-0.132523
0.0496359
0.134388
-0.120972
0.0376152
0.12032
-0.108299
0.0270341
0.105163
-0.0945819
0.0179823
0.0888904
-0.0798386
0.0105752
0.0714592
-0.0640521
0.00496423
0.0528098
-0.0471989
0.00134822
0.0328754
-0.0292594
0.0116397
-0.0102915
0.0779656
0.174412
-0.0929047
0.0638887
0.161513
0.0508516
0.147425
0.0389457
0.132226
0.0282807
0.115828
0.0190028
0.0981683
0.0112908
0.0791712
0.00535999
0.0587405
0.00147728
0.0367581
0.013117
0.0731981
0.187914
-0.0867002
0.0603828
0.174328
0.0483586
0.159449
0.0372537
0.143331
0.0272059
0.125876
0.0183806
0.106994
0.0109771
0.0865747
0.00523541
0.0644822
0.0014496
0.0405439
0.0145666
0.0667848
0.200345
-0.0792154
0.0550425
0.186071
0.0440554
0.170437
0.0339252
0.153461
0.0247683
0.135033
0.0167277
0.115034
0.00998181
0.0933206
0.0047514
0.0697126
0.00130959
0.0439858
0.0158762
0.0593226
0.211653
-0.0706305
0.0487222
0.196671
0.0388718
0.180287
0.0298437
0.162489
0.0217255
0.143151
0.01463
0.12213
0.00870238
0.0992483
0.00412636
0.0742886
0.00113091
0.0469812
0.0170071
0.0506052
0.221519
-0.0604721
0.0414159
0.20586
0.0329305
0.188772
0.025199
0.170221
0.0182845
0.150065
0.0122724
0.128142
0.00727496
0.104246
0.00343645
0.0781271
0.000937236
0.0494804
0.0179444
0.0404619
0.229564
-0.0485069
0.0330158
0.213307
0.0261783
0.19561
0.0199783
0.176421
0.0144578
0.155586
0.00967757
0.132922
0.00572039
0.108203
0.00269369
0.0811538
0.000731799
0.0514423
0.0186761
0.0290569
0.235443
-0.0349357
0.023653
0.21871
0.0187157
0.200547
0.0142556
0.180881
0.0102964
0.159545
0.00687748
0.136341
0.0040555
0.111025
0.00190418
0.0833051
0.000515246
0.0528312
0.0191914
0.0169185
0.238928
-0.0204036
0.0137424
0.221887
0.010855
0.203434
0.00825476
0.183481
0.00595131
0.161849
0.00396629
0.138326
0.00233201
0.112659
0.00109056
0.0845466
0.000293204
0.0536286
0.0194846
0.00482744
-0.00589022
0.00387993
0.0030335
0.0022829
0.00162772
0.00107166
0.000621381
0.000285701
7.49315e-05
0.0435135
0.0411982
-0.0523806
-0.0323311
0.0351679
0.0381569
-0.0298113
0.027531
0.0347703
-0.0271334
0.0208214
0.0311763
-0.0244668
0.0150327
0.0276296
-0.0218409
0.00992579
0.0240813
-0.0189743
0.00539755
0.0199486
-0.0154203
0.00194811
0.0143572
-0.0109077
0.000379424
0.00734497
-0.00577628
0.00207378
-0.00169435
0.0437697
0.0503697
-0.0529413
0.0351176
0.0468091
0.0270803
0.0428076
0.019941
0.0383156
0.0140078
0.0335627
0.00927876
0.0288104
0.00550899
0.0237184
0.0025621
0.0173041
0.000615387
0.00929169
0.00268917
0.0450828
0.0599456
-0.0546588
0.0361378
0.0557541
0.0278756
0.0510698
0.0204179
0.0457734
0.0140914
0.0398892
0.00915548
0.0337463
0.00555022
0.0273236
0.00290332
0.019951
0.000809927
0.0113851
0.0034991
0.0475701
0.0701588
-0.0577833
0.0381063
0.0652179
0.0295054
0.0596707
0.0218066
0.0534721
0.0151399
0.046556
0.00976525
0.0391209
0.00580301
0.0312859
0.00298008
0.0227739
0.000880682
0.0134845
0.00437978
0.0510331
0.0811136
-0.0619879
0.0409005
0.0753505
0.031753
0.0688182
0.0236531
0.061572
0.0166264
0.0535827
0.0108023
0.044945
0.00631714
0.035771
0.00308041
0.0260106
0.000886466
0.0156784
0.00526625
0.0546974
0.0927378
-0.0663217
0.0439491
0.0860988
0.03424
0.0785274
0.0256454
0.0701666
0.0181881
0.06104
0.0119258
0.0512073
0.0069548
0.040742
0.00329216
0.0296733
0.000912966
0.0180576
0.00617921
0.0577117
0.104844
-0.0698175
0.0465286
0.097282
0.0364031
0.0886528
0.0273961
0.0791736
0.0195441
0.068892
0.0128978
0.0578535
0.00753733
0.0461025
0.00353387
0.0336767
0.000962312
0.0206292
0.00714152
0.0597337
0.117191
-0.0720812
0.048337
0.108679
0.0379769
0.0990128
0.0286995
0.088451
0.0205565
0.077035
0.013617
0.064793
0.00797206
0.0517475
0.00372677
0.037922
0.00100675
0.0233492
0.00814828
0.0615212
0.129662
-0.0739919
0.0500081
0.120192
0.0394454
0.109576
0.029905
0.0979913
0.0214733
0.0854667
0.0142471
0.0720193
0.00834057
0.057654
0.00388725
0.0423753
0.00104261
0.0261938
0.00919088
0.0663583
-0.0791463
0.0540268
0.0426304
0.0323223
0.0232071
0.0153878
0.00898974
0.0041662
0.00110064
0.214871
0.058113
-0.0749947
0.236171
0.0919624
-0.113262
0.258697
0.12391
-0.146436
0.270508
0.114684
-0.126495
0.270478
0.113779
-0.113749
0.249896
0.181267
-0.160685
0.216952
0.294079
-0.261135
0.173808
0.411019
-0.367875
0.117933
0.492377
-0.436502
0.459508
-0.393956
0.214121
0.0419815
0.234345
0.0717386
0.256116
0.102139
0.26854
0.102259
0.269785
0.112535
0.250372
0.20068
0.217512
0.326939
0.173944
0.454586
0.117907
0.548414
0.524474
0.213483
0.0264879
0.233078
0.0521436
0.254137
0.0810805
0.266954
0.0894427
0.268382
0.111106
0.249564
0.219498
0.216782
0.359721
0.173068
0.4983
0.11799
0.603492
0.587805
0.21296
0.011518
0.232354
0.0327495
0.25274
0.060694
0.265643
0.0765399
0.266377
0.110373
0.247514
0.238361
0.21482
0.392415
0.171482
0.541639
0.118701
0.656273
0.648723
0.21265
-0.0031426
0.232138
0.013262
0.251829
0.0410033
0.264314
0.0640547
0.263659
0.111027
0.244224
0.257797
0.211738
0.4249
0.169545
0.583832
0.120151
0.705668
0.706885
0.212649
-0.0178018
0.232366
-0.00645484
0.251253
0.0221161
0.262691
0.0526164
0.260071
0.113648
0.239724
0.278143
0.207721
0.456903
0.16751
0.624043
0.121896
0.751281
0.76246
0.212946
-0.032758
0.232923
-0.0264315
0.250838
0.00420115
0.26059
0.0428642
0.255524
0.118714
0.234136
0.299531
0.203008
0.488032
0.165376
0.661675
0.123083
0.793574
0.815725
0.213373
-0.048141
0.233646
-0.0467045
0.250379
-0.0125325
0.257789
0.035455
0.249866
0.126636
0.227506
0.321891
0.197647
0.517891
0.16275
0.696572
0.122716
0.833608
0.86636
0.213644
-0.0637954
0.234371
-0.0674314
0.249696
-0.0278574
0.254291
0.0308597
0.243278
0.137649
0.220151
0.345018
0.191781
0.546261
0.15924
0.729113
0.120415
0.872433
0.912783
0.213809
-0.0796147
0.234879
-0.0885017
0.248704
-0.0416824
0.249697
0.029867
0.235176
0.15217
0.211425
0.36877
0.184526
0.57316
0.153992
0.759647
0.116689
0.909736
0.950326
0.332372
-0.109976
0.371383
-0.127513
0.406864
-0.0771637
0.425637
0.011094
0.441087
0.13672
0.468092
0.341765
0.506776
0.534475
0.549614
0.71681
0.581276
0.878074
0.945187
0.586415
0.33367
-0.141636
0.373919
-0.167762
0.409482
-0.112726
0.426487
-0.00591168
0.440409
0.122799
0.477645
0.304529
0.534873
0.477247
0.60462
0.647063
0.675336
0.807359
0.887635
0.732888
0.335796
-0.175422
0.375465
-0.207431
0.410702
-0.147963
0.426078
-0.0212882
0.435109
0.113768
0.47719
0.262448
0.547949
0.406488
0.639411
0.555601
0.742455
0.704314
0.783699
0.846391
0.339304
-0.212716
0.373691
-0.241818
0.389808
-0.164079
0.390207
-0.0216871
0.404655
0.0993201
0.455732
0.211371
0.535808
0.326412
0.641411
0.449998
0.767507
0.578218
0.646577
0.904629
0.347014
-0.25772
0.356305
-0.251109
0.341863
-0.149636
0.340448
-0.0202721
0.362389
0.0773787
0.415954
0.157805
0.498477
0.24389
0.608591
0.339884
0.74412
0.442689
0.495596
0.895101
0.341213
-0.296923
0.322443
-0.23234
0.290928
-0.118121
0.288187
-0.0175308
0.311633
0.0539322
0.362461
0.106978
0.440562
0.165788
0.546197
0.23425
0.678992
0.309894
0.347848
0.826739
0.314362
-0.309274
0.272201
-0.190179
0.235656
-0.0815768
0.231373
-0.0132477
0.252989
0.0323168
0.297159
0.0628076
0.365139
0.0978087
0.458576
0.140813
0.57891
0.189559
0.215044
0.711715
0.273834
-0.281098
0.213234
-0.129579
0.175565
-0.0439076
0.170455
-0.00813803
0.1876
0.0151719
0.221677
0.0287311
0.274502
0.0449832
0.348811
0.0665035
0.447095
0.0912756
0.106119
0.55602
0.214645
-0.193733
0.140612
-0.0555456
0.109993
-0.0132893
0.10493
-0.00307451
0.116171
0.00393069
0.137724
0.00717853
0.171272
0.0114347
0.220023
0.017753
0.286348
0.0249505
0.0304042
0.362062
0.108277
0.0527317
0.0394423
0.0363678
0.0402985
0.047477
0.0589117
0.0766646
0.101615
0.132019
0.608593
-0.117166
0.632275
-0.116586
0.655107
-0.109533
0.676271
-0.100379
0.695223
-0.0895833
0.711367
-0.0766159
0.724265
-0.061405
0.733595
-0.0442658
0.739082
-0.0258906
-0.00758387
0.750241
-0.134519
0.765163
-0.131509
0.779382
-0.123752
0.792619
-0.113616
0.804693
-0.101657
0.815837
-0.0877594
0.826398
-0.0719664
0.836392
-0.0542599
0.844845
-0.0343433
-0.0114695
0.851032
-0.13916
0.853492
-0.133968
0.855019
-0.125279
0.855404
-0.114001
0.854559
-0.100812
0.852657
-0.085858
0.849926
-0.0692356
0.846763
-0.0510967
0.843964
-0.0315444
-0.0105285
0.892674
-0.127205
0.878641
-0.119935
0.863941
-0.110579
0.849356
-0.0994155
0.835491
-0.0869477
0.823049
-0.0734155
0.812654
-0.058841
0.804768
-0.0432105
0.799753
-0.0265293
-0.00887443
0.870432
-0.102537
0.845635
-0.0951373
0.822001
-0.0869449
0.800525
-0.0779392
0.781675
-0.0680986
0.765727
-0.0574672
0.752898
-0.0460122
0.743409
-0.0337212
0.737528
-0.0206486
-0.0069507
0.797059
-0.0728569
0.768971
-0.0670498
0.743144
-0.0611175
0.720049
-0.0548443
0.699978
-0.0480273
0.683116
-0.0406048
0.669644
-0.0325404
0.659771
-0.0238482
0.653728
-0.0146055
-0.00496124
0.683004
-0.0441464
0.656509
-0.0405549
0.632404
-0.0370125
0.610878
-0.0333183
0.592144
-0.0292926
0.576394
-0.0248549
0.563827
-0.0199733
0.554645
-0.0146669
0.549043
-0.00900327
-0.00309291
0.532508
-0.0206344
0.510903
-0.01895
0.491269
-0.0173779
0.473697
-0.0157468
0.458345
-0.0139401
0.445392
-0.0119025
0.435033
-0.00961427
0.427456
-0.0070892
0.422822
-0.0043702
-0.00152187
0.346779
-0.00535117
0.332637
-0.00480828
0.319744
-0.00448394
0.308129
-0.00413263
0.297902
-0.00371274
0.28921
-0.00321005
0.282215
-0.00261932
0.277072
-0.00194683
0.273911
-0.00120902
-0.000428896
0.126668
0.12186
0.117376
0.113243
0.109531
0.106321
0.103701
0.101754
0.100545
0.00018504
0.0116078
-0.0117928
0.000623681
0.0304429
-0.0308816
0.00123705
0.0462367
-0.0468501
0.00197715
0.0594615
-0.0602016
0.00277637
0.0700146
-0.0708138
0.00376918
0.0798812
-0.080874
0.0039631
0.0772597
-0.0774537
0.00408445
0.0700356
-0.0701569
0.00394457
0.0610735
-0.0609336
0.0499508
0.00350684
-0.049513
0.000533347
0.0110744
0.0018037
0.0291726
0.00358476
0.0444556
0.00574074
0.0573055
0.00807209
0.0676832
0.0110386
0.0769147
0.0116749
0.0766235
0.0120797
0.0696307
0.0117725
0.0613808
0.0510731
0.0106501
0.000835419
0.010239
0.00283157
0.0271764
0.00563861
0.0416486
0.00904076
0.0539033
0.0127383
0.0639857
0.0172459
0.0724071
0.0187885
0.0750809
0.01957
0.0688492
0.0193837
0.061567
0.0524296
0.0180273
0.00105587
0.00918313
0.00359666
0.0246356
0.00719296
0.0380523
0.0115548
0.0495415
0.0163551
0.0591854
0.0217458
0.0670165
0.0250706
0.0717562
0.0263528
0.067567
0.0266009
0.0613188
0.0535614
0.0254691
0.00115133
0.0080318
0.00397891
0.0218081
0.00804095
0.0339903
0.0129958
0.0445867
0.0185501
0.0536311
0.0245555
0.0610111
0.0299498
0.0663619
0.0320875
0.0654293
0.0330087
0.0603976
0.0540862
0.0324839
0.00111137
0.00692043
0.00396559
0.0189538
0.0081848
0.0297711
0.013389
0.0393825
0.0193164
0.0477037
0.02577
0.0545575
0.0324135
0.0597183
0.03631
0.0615328
0.0381216
0.058586
0.0537023
0.0385055
0.000926175
0.00599426
0.00357266
0.0163074
0.00770996
0.0256338
0.0128806
0.0342118
0.0187852
0.0417991
0.0253365
0.0480063
0.0323189
0.0527359
0.0382729
0.0555788
0.0415848
0.0552741
0.0521784
0.0431087
0.000567941
0.00542632
0.0027866
0.0140887
0.00665709
0.0217633
0.0116206
0.0292484
0.0172034
0.0362163
0.0234463
0.0417634
0.0302847
0.0458975
0.0371824
0.0486811
0.0425594
0.0498971
0.0489198
0.045818
0.000104244
0.00532208
0.0017691
0.0124239
0.00517594
0.0183564
0.00981477
0.0246095
0.0149569
0.0310742
0.0206212
0.036099
0.0269033
0.0396153
0.0335866
0.0419979
0.0400841
0.0433995
0.0437916
0.0452123
-0.000174659
0.00549674
0.00108816
0.011161
0.00385718
0.0155874
0.0078876
0.0205791
0.0125025
0.0264593
0.0175733
0.0310283
0.0231789
0.0340096
0.0292507
0.0359261
0.0356367
0.0370134
0.0373654
0.0420629
-1.95262e-05
0.00551626
0.0011424
0.00999911
0.00328033
0.0134495
0.00641603
0.0174434
0.0102988
0.0225765
0.0148407
0.0264864
0.0199602
0.0288902
0.0254919
0.0303944
0.0312291
0.0312763
0.0316917
0.0369028
0.00037988
0.00513638
0.00153561
0.00884338
0.00318545
0.0117996
0.00549721
0.0151316
0.00871785
0.0193559
0.0129034
0.0223008
0.0177544
0.0240391
0.0230206
0.0251283
0.028511
0.0257859
0.0260561
0.0341466
0.000627059
0.00450932
0.00171217
0.00775826
0.00303442
0.0104774
0.00485514
0.0133109
0.00784499
0.016366
0.0119324
0.0182134
0.0166818
0.0192897
0.0218536
0.0199565
0.0273153
0.0203242
0.0204057
0.0329657
0.000679536
0.00382978
0.00164802
0.00678977
0.00282861
0.00929679
0.00470819
0.0114313
0.00797648
0.0130977
0.0122017
0.0139882
0.0170137
0.0144776
0.0222503
0.0147199
0.0278147
0.0147598
0.0145991
0.0336213
0.000664271
0.00316551
0.00155463
0.0058994
0.00299092
0.00786049
0.0055697
0.00885256
0.0093525
0.00931492
0.0138667
0.00947397
0.0189027
0.00944162
0.0243607
0.00926194
0.0301723
0.00894817
0.0085056
0.0362658
0.000592077
0.00257343
0.00170438
0.00478708
0.00403768
0.00552719
0.00748515
0.00540508
0.0117293
0.00507075
0.0165686
0.00463473
0.0219011
0.00410908
0.0276671
0.0034959
0.0338151
0.0028002
0.00203422
0.0402865
0.00051653
0.00205689
0.00245926
0.00284434
0.00571401
0.00227243
0.00970225
0.00141684
0.0142838
0.000489149
0.0194111
-0.000492536
0.0250527
-0.0015325
0.0311662
-0.00261759
0.0376919
-0.00372555
-0.00484413
0.0445703
0.000854294
0.00120259
0.00358866
0.000109966
0.00714373
-0.00128264
0.011323
-0.00276245
0.0161096
-0.00429746
0.0215121
-0.00589502
0.027491
-0.00751142
0.0339588
-0.00908541
0.0408333
-0.0106
-0.0120831
0.0480722
0.00149895
-0.000296371
0.00413106
-0.00252215
0.00755106
-0.00470265
0.0117575
-0.0069689
0.0167569
-0.00929689
0.0224772
-0.0116153
0.0287571
-0.0137913
0.0354755
-0.0158038
0.042603
-0.0177275
-0.0196178
0.0501378
0.00107787
0.00318876
0.00650863
0.0109585
0.0163217
0.02229
0.0286999
0.0355749
0.0429785
0.0508899
0.0514217
0.0836912
-0.0982102
0.0772501
-0.00736656
-0.0184618
0.0997644
-0.0507915
0.0282771
0.113331
-0.0465834
0.0330169
0.121247
-0.0265805
0.0186638
0.124898
-0.00807077
0.00442007
0.126395
0.00176194
-0.00325882
0.127594
0.00355197
-0.00475084
0.129197
0.0022133
-0.00381618
-0.000246717
-0.00187531
0.05858
0.0592577
0.0915367
-0.0403234
0.118615
-0.0778696
0.134531
-0.0624991
0.143212
-0.0352624
0.1469
-0.0117578
0.148193
0.000468566
0.149221
0.00252471
0.150732
0.000701836
-0.00215421
0.0665336
0.0256897
0.104822
-0.078612
0.135736
-0.108783
0.155306
-0.0820692
0.165267
-0.0452231
0.169015
-0.015506
0.16998
-0.000496365
0.170654
0.00185082
0.17186
-0.000504666
-0.00365936
0.0753442
-0.0160332
0.117563
-0.120831
0.151357
-0.142577
0.174707
-0.105419
0.186736
-0.0572525
0.190798
-0.0195681
0.191446
-0.00114435
0.191683
0.00161402
0.192447
-0.00126909
-0.00462856
0.0843305
-0.0640979
0.129302
-0.165802
0.165233
-0.178508
0.191884
-0.132069
0.206841
-0.0722098
0.211805
-0.0245324
0.212295
-0.00163377
0.212093
0.00181616
0.212343
-0.00151938
-0.00498396
0.0927376
-0.116549
0.139718
-0.212782
0.17729
-0.21608
0.206451
-0.161231
0.224695
-0.0904536
0.231472
-0.0313094
0.232166
-0.00232826
0.231634
0.00234909
0.231376
-0.00126182
-0.00470844
0.0999217
-0.171901
0.148556
-0.261416
0.187449
-0.254974
0.218348
-0.19213
0.239578
-0.111683
0.249117
-0.0408488
0.250636
-0.00384662
0.250008
0.00297674
0.249334
-0.00058767
-0.00384966
0.10555
-0.229378
0.15571
-0.311577
0.195684
-0.294948
0.227717
-0.224163
0.251166
-0.135132
0.263951
-0.0536338
0.267175
-0.00706973
0.266877
0.00327421
0.265985
0.000304548
-0.00252405
0.109605
-0.288845
0.161229
-0.3632
0.202053
-0.335772
0.234786
-0.256897
0.259552
-0.159898
0.275284
-0.0693652
0.281054
-0.0128405
0.281702
0.00262664
0.280915
0.00109126
-0.000945064
0.112388
0.165276
0.206712
0.239804
0.265161
0.282808
0.29144
0.29396
0.29382
0.0131989
0.00607791
-0.0192768
0.0109819
0.00221704
0.0114945
-0.000512661
0.0128949
-0.00140036
0.0136009
-0.000706069
0.0137306
-0.000129653
0.0135629
0.000167676
0.0133394
0.000223556
0.0131425
0.000196858
0.000134397
0.0372448
0.0232146
-0.0543815
0.0314779
0.00798394
0.0339602
-0.00299499
0.0379587
-0.00539887
0.0401039
-0.0028512
0.0405208
-0.00054658
0.0400458
0.000642737
0.0394054
0.000863944
0.0388626
0.000739672
0.000435956
0.0579618
0.0480919
-0.0828391
0.0508611
0.0150846
0.0558167
-0.00795057
0.0623077
-0.0118899
0.0659289
-0.00647243
0.0667031
-0.00132075
0.0659736
0.00137227
0.0649597
0.00187786
0.0641252
0.00157424
0.000857712
0.073906
0.075389
-0.101203
0.0680572
0.0209334
0.0763402
-0.0162336
0.0855591
-0.0211088
0.0908122
-0.0117255
0.0920734
-0.00258198
0.0911737
0.00227205
0.0898518
0.00319972
0.0888002
0.0026259
0.00135327
0.0814088
-0.10423
0.0838803
0.0959236
0.107832
0.11477
0.116608
0.115622
0.114071
0.112881
0.00273335
-0.000172904
-0.00256044
0.00326415
-0.000530806
0.00417627
-0.000912119
0.00548717
-0.0013109
0.00718339
-0.00169622
0.00922775
-0.00204436
0.0115842
-0.00235641
0.0141724
-0.0025882
0.0168574
-0.00268508
-0.0024194
0.00778653
-0.000645622
-0.00731381
0.00923326
-0.00197753
0.0117123
-0.0033912
0.0152683
-0.00486689
0.0198821
-0.00631001
0.0254796
-0.00764185
0.0319614
-0.00883824
0.0391524
-0.0097792
0.0467634
-0.0102961
-0.0100375
0.0124767
-0.0013836
-0.0117387
0.0147261
-0.00422698
0.0185586
-0.00722366
0.024022
-0.0103303
0.0310759
-0.013364
0.0395821
-0.016148
0.0493233
-0.0185795
0.0600459
-0.0205018
0.0714094
-0.0216595
-0.0214673
0.0168056
-0.00234744
-0.0158418
0.0197295
-0.00715091
0.0246723
-0.0121664
0.0316481
-0.0173061
0.040546
-0.0222618
0.0511013
-0.0267033
0.0629316
-0.0304098
0.0756877
-0.0332579
0.0888537
-0.0348256
-0.0338166
0.0207908
-0.0196314
0.02429
0.0301509
0.0383139
0.0485359
0.0603381
0.073037
0.0855971
0.0959839
0.0314885
-0.0312826
0.0370953
-0.0373012
0.0256216
-0.0308795
0.0367464
0.0199571
-0.0300469
0.0357114
0.0147042
-0.0286514
0.0339044
0.0100768
-0.0264448
0.0310723
0.0062144
-0.0227634
0.0266258
0.0031211
-0.017643
0.0207363
0.00102305
-0.0136185
0.0157165
-8.31304e-05
-0.0101557
0.0112618
-0.00563328
0.00555016
0.0295292
-0.0254115
-0.0354004
0.0238061
-0.0251563
0.018309
-0.0245498
0.0132148
-0.0235573
0.008775
-0.022005
0.00537196
-0.0193604
0.0030343
-0.0153054
0.00140681
-0.011991
0.00030407
-0.00905292
-0.00532921
0.0295127
-0.0194165
-0.0355077
0.0237022
-0.0193458
0.0181783
-0.0190259
0.0130575
-0.0184364
0.00854166
-0.0174892
0.00508066
-0.0158993
0.00302923
-0.0132539
0.00166141
-0.0106231
0.000591425
-0.00798293
-0.00473778
0.0314086
-0.0131511
-0.037674
0.0253781
-0.0133152
0.0196655
-0.0133132
0.0143574
-0.0131283
0.00959303
-0.0127248
0.00569558
-0.0120019
0.00322983
-0.0107882
0.00178187
-0.00917517
0.00073753
-0.00693858
-0.00400025
0.0349377
-0.00650352
-0.0415853
0.0285723
-0.00694979
0.0225605
-0.00730145
0.0169692
-0.00753701
0.0118898
-0.00764543
0.00750542
-0.00761747
0.00415974
-0.0074425
0.00200792
-0.00702333
0.000803391
-0.00573405
-0.00319685
0.0391483
0.000581643
-0.0462335
0.0323885
-0.000189974
0.0260258
-0.00093867
0.0201332
-0.00164442
0.014771
-0.00228328
0.0100027
-0.00284915
0.00591197
-0.00335173
0.00267015
-0.0037815
0.00071923
-0.00378312
-0.00247761
0.042866
0.00806181
-0.0503462
0.0357261
0.00694997
0.0289806
0.00580683
0.0227274
0.00460875
0.0170645
0.00337963
0.0120298
0.00218561
0.00760859
0.00106946
0.00381322
1.38765e-05
0.000967122
-0.000937013
-0.00151048
0.0450565
0.0158197
-0.0528144
0.0376723
0.0143342
0.0306613
0.0128178
0.0240634
0.0112066
0.0180206
0.00942241
0.0127111
0.00749519
0.00820712
0.0055734
0.00448964
0.00373136
0.0016048
0.00194783
9.43211e-05
0.0451984
0.0238688
-0.0532476
0.0376284
0.0219042
0.0305396
0.0199066
0.0238499
0.0178964
0.0175369
0.0157354
0.0117976
0.0132344
0.00699603
0.010375
0.00339915
0.00732825
0.00114048
0.00420651
0.00123481
0.0442037
-0.0526659
0.0362966