/*--------------------------------*- C++ -*----------------------------------*\
  =========                 |
  \\      /  F ield         | OpenFOAM: The Open Source CFD Toolbox
   \\    /   O peration     | Website:  https://openfoam.org
    \\  /    A nd           | Version:  13
     \\/     M anipulation  |
\*---------------------------------------------------------------------------*/
FoamFile
{
    format      ascii;
    class       volScalarField;
    location    "3.4";
    object      p;
}
// * * * * * * * * * * * * * * * * * * * * * * * * * * * * * * * * * * * * * //

dimensions      [0 2 -2 0 0 0 0];

internalField   nonuniform List<scalar> 
1800
(
-1.13154
-1.13149
-1.12884
-1.12235
-1.11239
-1.10013
-1.0884
-1.08097
-1.07716
-1.11833
-1.15874
-1.15717
-1.15396
-1.14824
-1.14009
-1.12992
-1.11911
-1.11026
-1.10275
-1.12989
-1.19831
-1.19371
-1.18855
-1.18214
-1.17454
-1.16578
-1.15613
-1.14642
-1.13841
-1.14131
-1.24694
-1.23903
-1.23088
-1.22248
-1.21339
-1.20297
-1.19071
-1.17673
-1.16222
-1.14946
-1.30905
-1.29795
-1.28706
-1.27591
-1.26321
-1.24744
-1.22769
-1.2041
-1.17781
-1.15076
-1.38651
-1.37261
-1.35845
-1.34277
-1.32274
-1.29657
-1.2642
-1.22701
-1.18693
-1.1461
-1.47753
-1.46115
-1.44242
-1.41881
-1.38655
-1.34505
-1.29646
-1.24397
-1.19037
-1.13816
-1.57559
-1.55706
-1.53137
-1.49516
-1.44565
-1.38513
-1.31858
-1.25048
-1.18379
-1.12033
-1.67024
-1.64934
-1.61358
-1.56028
-1.48993
-1.40903
-1.32488
-1.24235
-1.16398
-1.09097
-1.74828
-1.72412
-1.67546
-1.60203
-1.50974
-1.40935
-1.30929
-1.214
-1.12524
-1.04342
-1.07309
-1.07887
-1.08655
-1.09843
-1.11649
-1.1404
-1.16893
-1.20133
-1.23899
-1.28414
-1.1524
-1.15565
-1.1611
-1.17263
-1.19169
-1.21771
-1.24932
-1.28527
-1.32594
-1.37344
-1.22363
-1.22351
-1.22615
-1.2367
-1.25581
-1.28256
-1.31556
-1.35325
-1.39474
-1.44116
-1.26553
-1.26108
-1.26097
-1.26961
-1.28721
-1.31284
-1.34514
-1.38262
-1.42369
-1.46727
-1.27184
-1.26356
-1.26016
-1.26524
-1.27901
-1.30076
-1.32939
-1.36365
-1.40213
-1.44272
-1.24963
-1.23951
-1.23304
-1.23272
-1.23901
-1.25193
-1.27106
-1.29567
-1.32486
-1.35596
-1.21395
-1.20479
-1.19685
-1.19108
-1.1879
-1.18805
-1.19228
-1.20102
-1.21458
-1.23259
-1.1774
-1.17136
-1.16422
-1.15548
-1.1451
-1.134
-1.12372
-1.11585
-1.11218
-1.11759
-1.14643
-1.1435
-1.13865
-1.12906
-1.11516
-1.09785
-1.07905
-1.06117
-1.04705
-1.04335
-1.12497
-1.12479
-1.12103
-1.11209
-1.0982
-1.0802
-1.06013
-1.04097
-1.02486
-1.01503
-1.53359
-1.52789
-0.842423
-0.360874
-0.133783
0.00178041
0.0428396
0.0491525
0.0342877
0.0142985
-1.64324
-1.69696
-1.01516
-0.452427
-0.167762
-0.0107172
0.0380851
0.0468246
0.0328663
0.0137088
-1.72788
-1.85783
-1.18038
-0.546293
-0.205933
-0.0278419
0.0301837
0.0425233
0.030503
0.0127506
-1.76176
-1.98945
-1.32343
-0.637251
-0.246555
-0.0487735
0.0194179
0.0363686
0.02723
0.0114344
-1.73389
-2.07156
-1.44106
-0.721473
-0.288614
-0.0726862
0.00618103
0.0285796
0.0231255
0.00980095
-1.64233
-2.10226
-1.52986
-0.797309
-0.331903
-0.0990474
-0.00915834
0.0194102
0.0183089
0.00791395
-1.49602
-2.0812
-1.58853
-0.863314
-0.376282
-0.127685
-0.0263979
0.00906197
0.0129149
0.00584872
-1.32222
-2.02092
-1.61826
-0.917794
-0.420823
-0.158441
-0.0455208
-0.00240957
0.00702495
0.00367736
-1.15941
-1.94692
-1.62409
-0.960405
-0.463759
-0.190742
-0.066499
-0.0150879
0.000600532
0.0014341
-1.02678
-1.87044
-1.61862
-0.994798
-0.504256
-0.223814
-0.0890837
-0.0290219
-0.00646663
-0.000902312
-0.896542
-1.80566
-1.55445
-0.976892
-0.522675
-0.254144
-0.115216
-0.0469795
-0.016013
-0.00400706
-0.907782
-1.5766
-1.37587
-0.903347
-0.524321
-0.284912
-0.146224
-0.0691795
-0.0278405
-0.00778219
-0.882186
-1.3408
-1.21278
-0.8458
-0.533017
-0.316629
-0.1769
-0.0905881
-0.0390954
-0.0111002
-0.851061
-1.1467
-1.07572
-0.799169
-0.546368
-0.35302
-0.211177
-0.114292
-0.0518509
-0.0147273
-0.803718
-0.9906
-0.959072
-0.763858
-0.568877
-0.395911
-0.246774
-0.135669
-0.0619999
-0.0171281
-0.748041
-0.86846
-0.86186
-0.737624
-0.594341
-0.438827
-0.281548
-0.157085
-0.0719561
-0.019216
-0.691438
-0.772128
-0.781469
-0.718383
-0.622876
-0.479195
-0.310816
-0.173047
-0.0789137
-0.0201122
-0.637462
-0.701377
-0.723957
-0.70468
-0.640299
-0.502087
-0.327405
-0.183163
-0.0835023
-0.0205912
-0.599096
-0.66613
-0.695495
-0.694553
-0.6428
-0.506502
-0.33221
-0.18747
-0.0857818
-0.0208217
-0.575207
-0.662745
-0.701268
-0.695732
-0.637632
-0.500116
-0.329897
-0.188952
-0.0874394
-0.0216409
-0.902137
-0.96141
-1.00572
-1.04062
-1.06768
-1.09611
-1.12327
-1.15016
-1.14712
-1.1306
-0.740818
-0.807755
-0.862681
-0.908588
-0.946904
-0.977786
-1.00082
-1.01316
-1.01588
-1.01596
-0.612516
-0.681441
-0.740785
-0.790356
-0.831439
-0.86276
-0.886352
-0.902688
-0.914613
-0.926723
-0.507284
-0.576233
-0.636379
-0.68753
-0.729757
-0.764473
-0.791939
-0.81636
-0.836534
-0.857957
-0.421547
-0.48952
-0.548845
-0.600809
-0.64399
-0.68184
-0.712755
-0.741498
-0.765749
-0.790218
-0.352438
-0.418919
-0.477189
-0.529044
-0.572711
-0.611533
-0.643838
-0.673327
-0.698527
-0.722685
-0.297983
-0.362869
-0.420156
-0.470951
-0.514236
-0.552062
-0.5839
-0.611974
-0.636325
-0.658813
-0.257571
-0.321088
-0.377417
-0.426582
-0.468698
-0.504385
-0.53454
-0.559914
-0.581998
-0.601129
-0.233304
-0.295973
-0.351618
-0.399737
-0.441018
-0.47503
-0.503513
-0.525924
-0.54514
-0.55967
-0.222621
-0.28565
-0.341542
-0.390045
-0.431356
-0.465455
-0.493428
-0.514702
-0.531894
-0.541608
0.512275
0.438816
0.354729
0.264698
0.167381
0.0603534
-0.0561979
-0.175564
-0.275536
-0.323728
0.308904
0.229763
0.141533
0.0449629
-0.0618693
-0.180592
-0.309948
-0.441479
-0.550511
-0.60165
0.0861245
0.00426457
-0.0863966
-0.187026
-0.299805
-0.425941
-0.563484
-0.702616
-0.817714
-0.869689
-0.12797
-0.213076
-0.307689
-0.413291
-0.531742
-0.663986
-0.807834
-0.951476
-1.06958
-1.11993
-0.320406
-0.41003
-0.509853
-0.621091
-0.745312
-0.88315
-1.03199
-1.17899
-1.29251
-1.34252
-0.491532
-0.585646
-0.690101
-0.805891
-0.934361
-1.07626
-1.22643
-1.3707
-1.48032
-1.52856
-0.641978
-0.739257
-0.846322
-0.964495
-1.09466
-1.23642
-1.38423
-1.52287
-1.6255
-1.67012
-0.774691
-0.871744
-0.978261
-1.09529
-1.22345
-1.36136
-1.5024
-1.63078
-1.72258
-1.76222
-0.88673
-0.980728
-1.08371
-1.19647
-1.31895
-1.4487
-1.57795
-1.69118
-1.76937
-1.80338
-0.976455
-1.06525
-1.16221
-1.26762
-1.38061
-1.49763
-1.61022
-1.70447
-1.76774
-1.79635
1.8448
1.85987
1.87542
1.89025
1.90348
1.91439
1.92225
1.92707
1.93097
1.93531
1.7746
1.7864
1.79788
1.80794
1.81586
1.82089
1.82235
1.82051
1.81862
1.8195
1.68324
1.69077
1.69695
1.70085
1.70197
1.69958
1.69299
1.68281
1.67358
1.67026
1.57267
1.5754
1.57524
1.57165
1.56441
1.55281
1.53621
1.51566
1.49731
1.4891
1.44267
1.43952
1.43209
1.42015
1.40373
1.38206
1.3545
1.32257
1.29407
1.28049
1.29733
1.28824
1.27261
1.25091
1.22366
1.19017
1.14993
1.10506
1.0653
1.04567
1.13662
1.12104
1.09719
1.06587
1.02772
0.982012
0.928367
0.869657
0.8179
0.792023
0.969932
0.946809
0.912555
0.869271
0.818295
0.758947
0.690956
0.617885
0.554012
0.521895
0.802156
0.771418
0.726346
0.670331
0.605359
0.530842
0.446825
0.357969
0.281295
0.243087
0.64847
0.59964
0.536753
0.464805
0.384769
0.295037
0.195443
0.0915258
0.00297272
-0.040627
1.57552
1.56129
1.55103
1.54602
1.54564
1.55058
1.57102
1.60933
1.67449
1.77708
1.5692
1.55598
1.54646
1.54044
1.53981
1.54225
1.5606
1.59328
1.64863
1.73378
1.56348
1.55069
1.54173
1.53443
1.53338
1.53277
1.54881
1.5741
1.6172
1.67865
1.55829
1.54549
1.53686
1.528
1.52639
1.52213
1.53571
1.55157
1.58078
1.61105
1.55359
1.54041
1.53184
1.5212
1.51881
1.51033
1.52127
1.52549
1.54
1.52987
1.54938
1.5355
1.52667
1.51408
1.51062
1.49746
1.50542
1.4958
1.4951
1.43434
1.54564
1.53078
1.52133
1.50668
1.50175
1.48357
1.48801
1.4625
1.44618
1.32289
1.54239
1.52626
1.51584
1.49904
1.49219
1.46878
1.46884
1.42584
1.39299
1.19702
1.53965
1.52196
1.51021
1.49119
1.48195
1.45323
1.44774
1.38598
1.33371
1.05492
1.53746
1.51788
1.50449
1.48313
1.47118
1.43711
1.42583
1.34478
1.27126
0.908184
1.53534
1.51332
1.49695
1.47307
1.45621
1.41581
1.39412
1.29348
1.19847
0.768969
1.5345
1.50902
1.48842
1.46207
1.43853
1.39334
1.35846
1.24973
1.12705
0.751583
1.53556
1.50582
1.47982
1.45176
1.42051
1.37293
1.32446
1.21512
1.06908
0.746739
1.53906
1.50375
1.47132
1.44233
1.40264
1.35473
1.29293
1.18797
1.02183
0.747076
1.54563
1.50262
1.46297
1.43392
1.3843
1.33895
1.2639
1.16754
0.985516
0.750146
1.55596
1.50244
1.45493
1.42642
1.36641
1.32543
1.23789
1.15274
0.959031
0.752126
1.56979
1.50127
1.44577
1.41708
1.34848
1.31326
1.21546
1.14159
0.94059
0.753112
1.59495
1.50464
1.43986
1.40969
1.33277
1.30289
1.19722
1.13391
0.928622
0.754434
1.60738
1.49712
1.42753
1.39751
1.31965
1.29598
1.1854
1.13026
0.923166
0.75801
1.68382
1.51011
1.43139
1.39431
1.31384
1.29335
1.18008
1.13015
0.920682
0.763097
0.500728
0.335657
0.138461
-0.0516075
-0.221422
-0.37265
-0.507611
-0.629009
-0.735713
-0.827526
0.456234
0.326563
0.177894
0.0276038
-0.111551
-0.239607
-0.357015
-0.4678
-0.569832
-0.662088
0.44636
0.336486
0.217629
0.094664
-0.0247034
-0.139152
-0.247613
-0.350886
-0.446115
-0.533953
0.464912
0.362609
0.25602
0.149198
0.0438242
-0.0592559
-0.159114
-0.254973
-0.345527
-0.430044
0.488154
0.391548
0.292764
0.195887
0.100541
0.00620554
-0.0869132
-0.177701
-0.26464
-0.346475
0.511056
0.419672
0.326871
0.236531
0.147842
0.0593985
-0.0289797
-0.116217
-0.200233
-0.279613
0.531879
0.445441
0.357576
0.271705
0.187066
0.102149
0.0168104
-0.0678208
-0.14956
-0.226884
0.550221
0.468366
0.384697
0.301714
0.218905
0.135367
0.0513648
-0.031744
-0.111907
-0.187609
0.566504
0.4884
0.407963
0.326155
0.242996
0.158742
0.07441
-0.00853381
-0.0884493
-0.163801
0.579316
0.502957
0.423365
0.34056
0.255699
0.170124
0.085176
0.00207378
-0.0777568
-0.153067
-1.51555
-1.47921
-1.40174
-1.30378
-1.20396
-1.11276
-1.03421
-0.969494
-0.918962
-0.883074
-1.58826
-1.55628
-1.49148
-1.40762
-1.31953
-1.23742
-1.16592
-1.10674
-1.06088
-1.02954
-1.59933
-1.57112
-1.52005
-1.45321
-1.38026
-1.31003
-1.24745
-1.1947
-1.15325
-1.12453
-1.56077
-1.53564
-1.49719
-1.44784
-1.39198
-1.33595
-1.28441
-1.23985
-1.2041
-1.17866
-1.49078
-1.4685
-1.4401
-1.40578
-1.36622
-1.32479
-1.28496
-1.249
-1.21861
-1.19463
-1.40875
-1.38961
-1.36843
-1.34489
-1.31817
-1.28935
-1.26047
-1.23307
-1.20891
-1.18917
-1.33028
-1.3148
-1.29881
-1.28212
-1.26398
-1.24459
-1.22478
-1.20562
-1.18799
-1.17258
-1.26422
-1.25271
-1.24084
-1.22849
-1.21545
-1.20172
-1.18769
-1.17336
-1.16085
-1.15008
-1.21325
-1.2055
-1.1972
-1.18817
-1.17852
-1.16845
-1.15826
-1.14856
-1.13902
-1.13907
-1.17559
-1.1711
-1.16586
-1.15959
-1.15257
-1.14514
-1.13763
-1.13126
-1.12312
-1.12891
-1.1479
-1.14583
-1.14279
-1.13862
-1.13367
-1.12836
-1.12328
-1.11897
-1.11309
-1.09389
-1.12892
-1.12793
-1.12588
-1.1227
-1.11882
-1.11465
-1.11052
-1.10643
-1.10054
-1.07865
-1.11807
-1.11705
-1.11548
-1.11336
-1.11085
-1.10822
-1.1057
-1.10331
-1.09994
-1.09258
-1.1101
-1.10938
-1.10922
-1.10987
-1.11132
-1.11361
-1.11682
-1.12093
-1.12578
-1.13351
-1.0955
-1.09621
-1.09847
-1.10276
-1.10905
-1.11734
-1.12766
-1.13998
-1.15418
-1.17134
-1.06944
-1.07252
-1.0774
-1.08459
-1.0943
-1.10645
-1.12086
-1.13712
-1.15405
-1.16961
-1.03457
-1.04019
-1.04765
-1.05724
-1.06976
-1.08535
-1.10368
-1.1241
-1.14687
-1.17638
-1.00006
-1.00741
-1.01628
-1.02695
-1.04079
-1.05801
-1.07803
-1.10048
-1.12721
-1.16293
-0.987923
-0.995984
-1.00535
-1.01665
-1.03166
-1.05048
-1.0723
-1.09687
-1.12651
-1.16482
-1.01229
-1.01973
-1.02867
-1.04041
-1.05694
-1.07815
-1.10302
-1.13119
-1.16472
-1.20617
-1.12174
-1.30908
-0.841369
-0.524111
-0.342059
-0.147345
-0.0324721
0.012224
0.0190072
0.00956022
-1.19615
-1.36167
-0.78881
-0.41528
-0.265332
-0.116778
-0.0264454
0.0118511
0.0183505
0.00935048
-1.27828
-1.38869
-0.717987
-0.301101
-0.193495
-0.0876572
-0.0185126
0.0141155
0.0193057
0.009715
-1.36762
-1.39967
-0.640822
-0.201483
-0.133126
-0.0605654
-0.00785381
0.019102
0.0216534
0.0105025
-1.43863
-1.40175
-0.573025
-0.133268
-0.0914983
-0.0367457
0.00490092
0.0259117
0.0247953
0.0115086
-1.4771
-1.39045
-0.526997
-0.103338
-0.0707212
-0.0168797
0.0180081
0.0331801
0.0280594
0.0125315
-1.46536
-1.35436
-0.514873
-0.112404
-0.0661523
-0.00178182
0.0292623
0.0396397
0.0309016
0.013413
-1.42056
-1.31681
-0.531731
-0.151116
-0.0717134
0.00763026
0.037551
0.0446523
0.0330362
0.0140659
-1.40344
-1.32138
-0.586741
-0.206901
-0.0851318
0.0111676
0.0425834
0.0479775
0.0343433
0.0144489
-1.44163
-1.39194
-0.690699
-0.277187
-0.105903
0.00913042
0.0443407
0.0495094
0.0347718
0.0145357
-0.972779
-0.966576
-0.78784
-0.66732
-0.445613
-0.182239
-0.0328518
0.0209691
0.0253778
0.0121318
-0.967525
-0.958138
-0.783319
-0.670088
-0.452453
-0.184585
-0.033792
0.0206092
0.0251731
0.0120222
-0.977882
-0.997326
-0.796248
-0.670428
-0.454497
-0.187842
-0.0352901
0.0192706
0.0242904
0.0116594
-1.00796
-1.08507
-0.819442
-0.658389
-0.447162
-0.185145
-0.0363026
0.0169878
0.0227129
0.0110105
-1.05933
-1.21621
-0.844183
-0.602663
-0.403375
-0.172309
-0.0362475
0.0141059
0.0207271
0.0102329
-0.847081
-0.986721
-1.08221
-1.14418
-1.16232
-1.1691
-1.15365
-1.12736
-1.09586
-1.05747
-0.847901
-0.989741
-1.08388
-1.14434
-1.15753
-1.16417
-1.14686
-1.11681
-1.09103
-1.04926
-0.850338
-0.993773
-1.08709
-1.14589
-1.15666
-1.16297
-1.14354
-1.1169
-1.09485
-1.06173
-0.856083
-1.00146
-1.09511
-1.15188
-1.16368
-1.16641
-1.14794
-1.12709
-1.10927
-1.09749
-0.865937
-1.01373
-1.10835
-1.16323
-1.17724
-1.17465
-1.15932
-1.14049
-1.12658
-1.13413
1.4411
1.43166
1.41567
1.39603
1.37356
1.34726
1.31645
1.28292
1.25445
1.24124
1.5461
1.54826
1.54421
1.53585
1.52426
1.50894
1.48936
1.46687
1.44771
1.4393
1.64759
1.65507
1.65806
1.6578
1.65504
1.64931
1.63999
1.62785
1.61742
1.6135
1.7372
1.74911
1.75834
1.76535
1.77036
1.77283
1.77204
1.76837
1.76507
1.76518
1.81311
1.8284
1.84207
1.85421
1.8648
1.87328
1.87892
1.8818
1.88419
1.88759
1.8706
1.88809
1.90515
1.92142
1.93652
1.94984
1.96066
1.96874
1.97553
1.98163
1.90869
1.92758
1.94682
1.96572
1.98364
1.99995
2.01392
2.02518
2.03474
2.04256
1.92555
1.9449
1.96511
1.98525
2.00448
2.02215
2.03752
2.05016
2.0609
2.06945
1.92062
1.93953
1.95947
1.97936
1.99825
2.01548
2.03031
2.04235
2.05255
2.06079
1.8937
1.9112
1.92961
1.94772
1.96462
1.97959
1.99191
2.00134
2.00926
2.01608
-0.686788
-0.728819
-0.784092
-0.853154
-0.936712
-1.03405
-1.14194
-1.25008
-1.33739
-1.37777
-0.447536
-0.495644
-0.555708
-0.628467
-0.715007
-0.815407
-0.928141
-1.04303
-1.13708
-1.18002
-0.179134
-0.232909
-0.29744
-0.373152
-0.461289
-0.562443
-0.675044
-0.790502
-0.890074
-0.933942
0.0980703
0.0402942
-0.0269304
-0.103723
-0.191264
-0.290307
-0.399611
-0.512401
-0.608757
-0.65424
0.364167
0.30531
0.238499
0.163778
0.0800358
-0.0136936
-0.116622
-0.222694
-0.312504
-0.356316
0.604829
0.548945
0.486554
0.417696
0.341248
0.2561
0.162761
0.0666256
-0.014482
-0.0545523
0.816869
0.76772
0.713266
0.653394
0.586914
0.512648
0.430947
0.346617
0.275617
0.240504
1.00763
0.966713
0.921449
0.871639
0.815965
0.75322
0.683683
0.611613
0.551069
0.521345
1.18575
1.15216
1.11433
1.07304
1.02705
0.975092
0.917295
0.857261
0.807025
0.782717
1.34194
1.31542
1.28368
1.24996
1.21358
1.173
1.12783
1.08063
1.04115
1.02238
1.69053
1.59971
1.57818
1.56924
1.56491
1.57429
1.58786
1.61261
1.60979
1.55951
1.67296
1.59864
1.57804
1.57052
1.56667
1.57687
1.59326
1.6229
1.63795
1.62745
1.65713
1.59659
1.57701
1.57076
1.5675
1.57825
1.59748
1.63345
1.66543
1.69318
1.64289
1.59373
1.57527
1.57009
1.56743
1.57848
1.60008
1.6408
1.68746
1.74582
1.63008
1.59021
1.57298
1.56862
1.56656
1.57768
1.60092
1.64515
1.70382
1.78687
1.61853
1.58614
1.5702
1.5664
1.56491
1.57583
1.60002
1.64651
1.71421
1.81563
1.6081
1.58165
1.567
1.56348
1.56248
1.57292
1.59743
1.64484
1.71843
1.83209
1.59868
1.57684
1.56344
1.55994
1.55931
1.56894
1.5932
1.6402
1.71643
1.83651
1.59018
1.57179
1.55956
1.55581
1.55542
1.5639
1.58738
1.6327
1.70841
1.82871
1.58248
1.56659
1.55541
1.55116
1.55086
1.55779
1.57997
1.62242
1.69443
1.80879
1.85783
1.60311
1.57072
1.55636
1.5536
1.5591
1.56032
1.56504
1.50794
1.45663
1.78339
1.59712
1.57174
1.55928
1.55529
1.56024
1.56111
1.56641
1.51041
1.45363
1.7604
1.60199
1.57532
1.56224
1.55725
1.56236
1.56394
1.57078
1.52092
1.45432
1.73365
1.60153
1.57693
1.56489
1.55956
1.56556
1.56992
1.58011
1.54077
1.46626
1.71037
1.60052
1.57777
1.56721
1.56217
1.56969
1.57754
1.59381
1.56953
1.48979
1.22574
1.12201
0.982805
0.804006
0.588065
0.3419
0.0767687
-0.190949
-0.443194
-0.664172
1.2206
1.12017
0.986329
0.812575
0.60185
0.359298
0.0946922
-0.17583
-0.433471
-0.660544
1.23152
1.1275
0.99189
0.820127
0.613227
0.373226
0.108385
-0.16503
-0.427301
-0.659345
1.26358
1.14634
1.00072
0.827234
0.622394
0.383717
0.117955
-0.158396
-0.424831
-0.661411
1.31789
1.17912
1.01495
0.833938
0.627924
0.389795
0.123759
-0.154802
-0.425388
-0.667072
)
;

boundaryField
{
    left
    {
        type            zeroGradient;
    }
    right
    {
        type            fixedValue;
        value           uniform 0;
    }
    down
    {
        type            zeroGradient;
    }
    up
    {
        type            zeroGradient;
    }
    cylinder
    {
        type            zeroGradient;
    }
    defaultFaces
    {
        type            empty;
    }
}


// ************************************************************************* //
