/*--------------------------------*- C++ -*----------------------------------*\
  =========                 |
  \\      /  F ield         | OpenFOAM: The Open Source CFD Toolbox
   \\    /   O peration     | Website:  https://openfoam.org
    \\  /    A nd           | Version:  13
     \\/     M anipulation  |
\*---------------------------------------------------------------------------*/
FoamFile
{
    format      ascii;
    class       surfaceScalarField;
    location    "3.4";
    object      phi;
}
// * * * * * * * * * * * * * * * * * * * * * * * * * * * * * * * * * * * * * //

dimensions      [0 3 -1 0 0 0 0];

internalField   nonuniform List<scalar> 
3485
(
-0.00191814
0.00396357
-0.00204543
-0.0045267
0.00768098
-0.00507242
-0.00559946
0.00833606
-0.00726331
-0.003433
0.0062842
-0.00845065
0.00337969
0.00149701
-0.0083097
0.015936
-0.00602657
-0.00652974
0.0351374
-0.0163181
-0.00288327
0.061645
-0.0290192
0.00251162
0.0958668
-0.0433967
0.00917478
-0.0501859
0.0131276
0.132925
-0.000810673
0.00477424
-0.00099129
0.0078616
0.00140773
0.00593704
0.00812703
-0.000435093
0.0205528
-0.0109288
0.039655
-0.0251288
0.0655972
-0.0422603
0.0978625
-0.0612845
0.135527
-0.0810612
-0.0959646
0.181306
0.000336461
0.00443778
0.00303874
0.00515932
0.00989253
-0.000916748
0.0225576
-0.0131002
0.0420575
-0.0304287
0.0684466
-0.0515178
0.100671
-0.0744848
0.136737
-0.0973499
0.174291
-0.118616
-0.136229
0.214556
0.00114105
0.00329673
0.00651073
-0.000210366
0.0179747
-0.0123807
0.0366854
-0.0318109
0.0626281
-0.0563714
0.0942747
-0.0831644
0.129016
-0.109226
0.163929
-0.132263
0.196307
-0.150994
-0.165038
0.225116
0.00209069
0.00120604
0.0104265
-0.00854618
0.0265888
-0.028543
0.0506798
-0.0559019
0.0807973
-0.0864889
0.113602
-0.11597
0.145523
-0.141147
0.173763
-0.160503
0.19674
-0.173971
-0.182743
0.214444
0.00329712
-0.00209107
0.0148266
-0.0200756
0.0351931
-0.0489096
0.0625254
-0.0832342
0.092907
-0.116871
0.122126
-0.145189
0.147166
-0.166187
0.166731
-0.180067
0.181044
-0.188284
-0.192588
0.190889
0.00463621
-0.00672728
0.0190998
-0.0345392
0.0420889
-0.0718987
0.0694809
-0.110626
0.0963444
-0.143734
0.119173
-0.168018
0.136613
-0.183627
0.149023
-0.192477
0.157548
-0.196809
-0.198554
0.163514
0.00591049
-0.0126378
0.0223755
-0.0510042
0.0456776
-0.0952008
0.0702039
-0.135152
0.0915322
-0.165062
0.107758
-0.184244
0.11903
-0.194898
0.126469
-0.199916
0.131336
-0.201676
-0.201673
0.134454
0.00688714
-0.0195249
0.0239737
-0.0680907
0.0454103
-0.116637
0.0654647
-0.155207
0.0810866
-0.180684
0.091813
-0.19497
0.0985741
-0.201659
0.102645
-0.203987
0.105049
-0.20408
-0.20304
0.106416
0.00739964
-0.0269246
0.0236772
-0.0843683
0.041845
-0.134805
0.0570528
-0.170415
0.06764
-0.191271
0.0740378
-0.201368
0.0774457
-0.205067
0.0790094
-0.205551
0.0795037
-0.204574
0.0792716
-0.202808
-0.0039904
0.0177931
-0.0138028
-0.0131333
0.0382255
-0.0290826
-0.0252075
0.0480044
-0.0359302
-0.038749
0.0516831
-0.0381415
-0.052962
0.0525648
-0.0383518
-0.0674821
0.0523746
-0.0378544
-0.0821395
0.0517369
-0.0370795
-0.0968186
0.050787
-0.0361079
-0.111415
0.0495496
-0.0349529
0.0483996
-0.125899
-0.0339163
-0.0012684
0.0190615
-0.00601049
0.0429676
-0.0137318
0.0557257
-0.0233238
0.0612751
-0.033811
0.063052
-0.0445891
0.0631526
-0.0553491
0.0624969
-0.0659207
0.0613585
-0.0761633
0.0597922
0.0581114
-0.0858751
0.00171766
0.0173439
0.00257803
0.0421072
0.000863573
0.0574401
-0.00314966
0.0652883
-0.00851815
0.0684205
-0.0144061
0.0690406
-0.0203036
0.0683944
-0.0259563
0.0670112
-0.0312082
0.0650442
0.0626895
-0.0357863
0.00397997
0.0133639
0.0101369
0.0359503
0.0150367
0.0525404
0.0176003
0.0627247
0.0181895
0.0678313
0.0176511
0.0695791
0.0167311
0.0693143
0.0159038
0.0678386
0.0154245
0.0655234
0.0625492
0.0155648
0.00490307
0.00846084
0.0146254
0.0262279
0.0252717
0.0418941
0.0346
0.0533964
0.041938
0.0604933
0.0475918
0.0639253
0.052236
0.0646701
0.0565263
0.0635483
0.0609358
0.061114
0.0574145
0.0660705
0.00442454
0.00403631
0.0148114
0.015841
0.0282632
0.0284423
0.0423533
0.0393063
0.0556234
0.0472232
0.0675419
0.0520067
0.0781938
0.0540182
0.0879463
0.0537958
0.0971672
0.0518931
0.0481508
0.106431
0.0030544
0.000981909
0.0113645
0.00753093
0.0236059
0.0162009
0.0381322
0.02478
0.0535164
0.031839
0.0688143
0.0367088
0.0835597
0.0392729
0.0976225
0.0397329
0.111042
0.0384738
0.0349485
0.124244
0.00138482
-0.000402913
0.00609418
0.00282158
0.0141204
0.00817469
0.0249133
0.0139871
0.0376434
0.0191089
0.0515087
0.0228435
0.0658816
0.0249
0.0803502
0.0252643
0.0948265
0.0239975
0.0200887
0.109686
-0.000468595
6.5682e-05
6.64505e-05
0.00228653
0.00264236
0.00559878
0.00756938
0.0090601
0.0147509
0.0119273
0.0239111
0.0136833
0.0347512
0.0140599
0.0470496
0.0129659
0.0608089
0.0102382
0.00486957
0.076028
-0.00197975
-0.00476564
-0.00643016
-0.00582072
-0.00220309
0.00495051
0.0161271
0.0316046
0.0510177
0.0690149
-0.199024
0.317757
-0.244631
-0.15678
0.0745481
-0.116792
-0.0399135
-0.195987
0.07912
0.0552748
-0.33871
0.243522
0.116555
-0.3997
0.33842
0.155073
-0.343256
0.304738
0.179627
-0.277054
0.2525
0.194775
-0.198607
0.183459
0.205232
-0.15524
0.144783
-0.0963553
0.091212
-0.13809
0.369971
-0.102032
0.0384899
-0.00487867
-0.29314
0.0811717
-0.42476
0.136662
-0.455191
0.170632
-0.377225
0.190682
-0.297104
0.202166
-0.210091
0.209763
-0.162837
-0.100091
-0.0676917
0.401877
-0.0371465
0.00794473
0.0380631
-0.368349
0.111212
-0.497909
0.158129
-0.502109
0.186594
-0.405689
0.202191
-0.312701
0.210138
-0.218038
0.214777
-0.167476
-0.102338
-0.00108018
0.418522
0.0259358
-0.0190712
0.0831201
-0.425534
0.142689
-0.557478
0.179817
-0.539236
0.201841
-0.427713
0.21307
-0.32393
0.217938
-0.222906
0.219904
-0.169443
-0.103187
0.0629884
0.421604
0.0811899
-0.0372727
0.125858
-0.470202
0.172687
-0.604307
0.20055
-0.5671
0.21591
-0.443073
0.222753
-0.330774
0.224957
-0.225109
0.224734
-0.16922
-0.102886
0.115973
0.412062
0.129529
-0.0508289
0.163607
-0.50428
0.199025
-0.639725
0.218967
-0.587042
0.228416
-0.452522
0.231081
-0.333438
0.230887
-0.224915
0.228955
-0.167288
-0.101756
0.155501
0.380805
0.169434
-0.0647616
0.195365
-0.530211
0.220745
-0.665105
0.23421
-0.600507
0.239
-0.457313
0.238066
-0.332504
0.23569
-0.222539
0.232405
-0.164003
-0.100118
0.176244
0.314248
0.200554
-0.0890721
0.220523
-0.55018
0.237324
-0.681906
0.245863
-0.609046
0.247411
-0.45886
0.24375
-0.328843
0.239483
-0.218272
0.235076
-0.159596
-0.0982346
0.180125
0.21015
0.223965
-0.132912
0.239034
-0.565249
0.248565
-0.691437
0.253776
-0.614256
0.253485
-0.45857
0.24813
-0.323488
0.242407
-0.212549
0.237057
-0.154246
-0.0963059
0.179958
0.0992075
0.240166
-0.19312
0.250293
-0.575377
0.25553
-0.696673
0.2585
-0.617226
0.257388
-0.457458
0.251231
-0.317331
0.244576
-0.205894
0.238475
-0.148145
-0.0944855
0.515954
0.0188002
-0.435547
0.635834
-0.313
0.652787
-0.59233
0.611321
-0.655208
0.551269
-0.557173
0.494142
-0.400332
0.444646
-0.267835
0.407367
-0.168615
0.378988
-0.119765
-0.0788734
0.724625
-0.0423107
-0.663514
0.752067
-0.340442
0.704377
-0.544639
0.627446
-0.578278
0.556231
-0.485958
0.49711
-0.34121
0.448005
-0.21873
0.410737
-0.131347
0.381362
-0.0903906
-0.0619775
0.781678
-0.0885298
-0.735459
0.754055
-0.312819
0.690181
-0.480765
0.628158
-0.516254
0.570256
-0.428056
0.512495
-0.283449
0.459207
-0.165442
0.417586
-0.0897269
0.384835
-0.0576392
-0.0431855
0.771178
-0.116632
-0.743075
0.743032
-0.284674
0.6958
-0.433532
0.638779
-0.459234
0.573284
-0.362561
0.50755
-0.217715
0.451047
-0.108938
0.410108
-0.048788
0.379729
-0.0272606
-0.0256157
0.751961
-0.134871
-0.733722
0.731767
-0.26448
0.687988
-0.389753
0.628467
-0.399713
0.560662
-0.294756
0.495637
-0.15269
0.44091
-0.0542117
0.401685
-0.00956298
0.373293
0.00113149
-0.00922644
0.734634
-0.146623
-0.722882
0.718277
-0.248122
0.67142
-0.342897
0.600852
-0.329145
0.523041
-0.216945
0.457514
-0.0871625
0.40944
-0.00613768
0.378046
0.021831
0.35684
0.0223379
0.00328544
0.714143
-0.148965
-0.711802
0.688305
-0.222284
0.61945
-0.274041
0.527165
-0.23686
0.442675
-0.132455
0.385562
-0.0300496
0.352702
0.0267222
0.335815
0.0387186
0.326433
0.03172
0.00975524
0.658528
-0.127874
-0.679618
0.600125
-0.163881
0.496389
-0.170305
0.38553
-0.126001
0.308255
-0.0551804
0.27331
0.00489526
0.26554
0.0344927
0.268268
0.0359897
0.272919
0.0270697
0.00947604
0.493258
-0.0687509
-0.552382
0.394714
-0.0653367
0.275576
-0.0511675
0.181644
-0.0320683
0.13764
-0.0111767
0.134644
0.00789081
0.151261
0.0178758
0.169825
0.0174257
0.184227
0.012668
0.00460676
0.161204
-0.229955
0.0958673
0.0446999
0.0126316
0.0014549
0.00934571
0.0272215
0.0446472
0.0573152
0.555558
0.0679183
-0.544205
0.567729
0.0942449
0.582924
0.119259
0.59911
0.147328
0.615712
0.174287
0.630878
0.199278
0.629246
0.226748
0.6082
0.235602
0.53064
0.258866
0.228018
0.535682
0.0565155
-0.524279
0.549784
0.0801435
0.565905
0.103138
0.587414
0.125819
0.608332
0.153369
0.635853
0.171757
0.65683
0.205771
0.676941
0.215491
0.682428
0.25338
0.246931
0.52165
0.0465326
-0.511667
0.535929
0.0658643
0.551483
0.0875844
0.57231
0.104992
0.594317
0.131362
0.620767
0.145307
0.650153
0.176386
0.679205
0.186438
0.713851
0.218734
0.225324
0.511697
0.0370797
-0.502244
0.525118
0.0524441
0.5408
0.071902
0.559738
0.0860539
0.582655
0.108445
0.607086
0.120876
0.638472
0.145
0.668846
0.156064
0.708049
0.17953
0.190298
0.503045
0.027639
-0.493605
0.515498
0.0399915
0.531419
0.0559806
0.549455
0.0680186
0.572524
0.0853757
0.596627
0.0967726
0.62727
0.114358
0.658149
0.125184
0.695902
0.141777
0.152478
0.494373
0.0182825
-0.485017
0.50635
0.0280148
0.522193
0.0401371
0.54021
0.0500016
0.56295
0.0626359
0.587449
0.0722735
0.617152
0.0846554
0.648437
0.093899
0.684776
0.105437
0.114372
0.483339
0.00930813
-0.474364
0.495076
0.0162776
0.510561
0.0246518
0.528757
0.0318058
0.551109
0.0402839
0.576072
0.0473107
0.605337
0.0553905
0.637156
0.06208
0.673261
0.0693323
0.0758314
0.458989
0.00160903
-0.45129
0.469576
0.00569048
0.483772
0.0104562
0.501048
0.0145302
0.522142
0.0191898
0.546393
0.0230591
0.574547
0.027237
0.605875
0.0307519
0.641149
0.0340585
0.0373616
0.387123
-0.00222763
-0.383287
0.393568
-0.000753796
0.403172
0.00085154
0.41548
0.00222262
0.430993
0.0036764
0.449272
0.00478044
0.470658
0.00585118
0.494863
0.00654662
0.521859
0.00706209
0.00683915
0.192879
-0.195106
0.192125
0.192976
0.195199
0.198875
0.203656
0.209507
0.216054
0.223116
0.0723578
0.149294
-0.137519
-0.0841327
0.0615555
0.151468
-0.140665
0.0516029
0.154088
-0.144136
0.0419613
0.157602
-0.14796
0.0323761
0.161349
-0.151764
0.0229356
0.164203
-0.154762
0.0140625
0.163445
-0.154572
0.00657441
0.15307
-0.145581
0.00158928
0.122513
-0.117528
0.0576207
-0.0560314
0.0683983
0.159811
-0.078915
0.0580382
0.161828
0.0480263
0.1641
0.0383685
0.16726
0.028963
0.170754
0.0199158
0.17325
0.0116819
0.171679
0.00506403
0.159687
0.000997227
0.12658
0.0586179
0.0611068
0.169156
-0.0704524
0.0514854
0.171449
0.0419972
0.173588
0.0328296
0.176427
0.0240174
0.179566
0.0157245
0.181543
0.0084228
0.178981
0.00297473
0.165135
0.000147373
0.129407
0.0587653
0.0498035
0.177126
-0.0577737
0.0414678
0.179785
0.0330647
0.181991
0.0248542
0.184638
0.0170078
0.187413
0.00981523
0.188735
0.00385629
0.18494
-6.66218e-05
0.169058
-0.00096344
0.130304
0.0578018
0.0365578
0.184053
-0.0434848
0.0294253
0.186918
0.0221899
0.189227
0.0150983
0.19173
0.00842874
0.194082
0.00258155
0.194583
-0.00164728
0.189169
-0.0032613
0.170672
-0.00220756
0.12925
0.0555943
0.0212565
0.189824
-0.0270277
0.0153801
0.192794
0.00944189
0.195165
0.00366637
0.197505
-0.00158345
0.199332
-0.00566695
0.198666
-0.00776707
0.191269
-0.00706823
0.169974
-0.00355151
0.125733
0.0520428
0.00483782
0.194758
-0.00977118
3.65502e-05
0.197595
-0.00468223
0.199884
-0.00908603
0.201909
-0.0127304
0.202977
-0.0149021
0.200838
-0.0145982
0.190965
-0.0110323
0.166408
-0.00484524
0.119546
0.0471975
-0.0135592
0.198595
0.00972216
-0.0171635
0.2012
-0.0205403
0.20326
-0.0234193
0.204788
-0.0252282
0.204786
-0.0250548
0.200664
-0.0218279
0.187738
-0.0149999
0.15958
-0.00599939
0.110546
0.0411981
-0.0336306
0.201315
0.0309106
-0.0360096
0.203579
-0.0379786
0.205229
-0.0391507
0.20596
-0.0387841
0.204419
-0.0358033
0.197683
-0.0291457
0.18108
-0.018698
0.149132
-0.00688673
0.0987346
0.0343114
-0.0557849
0.0542917
-0.0567805
-0.0571016
-0.056209
-0.0531576
-0.0467456
-0.0360797
-0.0217531
-0.00738686
0.108809
0.0396686
-0.120943
-0.0275353
0.0964016
0.0407469
-0.0283391
0.0837075
0.0419141
-0.0292201
0.0707016
0.0431606
-0.0301547
0.0573664
0.044467
-0.0311318
0.0437267
0.0456911
-0.0320514
0.029967
0.0462754
-0.0325157
0.016726
0.0446455
-0.0314044
0.00563246
0.0374231
-0.0263296
0.0189701
-0.0133377
0.107792
0.0517903
-0.119914
0.0954733
0.0530656
0.0828806
0.0545068
0.0699831
0.0560581
0.0567553
0.0576947
0.0432202
0.0592262
0.0295706
0.059925
0.0164586
0.0577575
0.0055138
0.0483679
0.0244839
0.106336
0.0637819
-0.118328
0.0940851
0.0653165
0.0815861
0.0670058
0.0688121
0.0688321
0.0557396
0.0707672
0.0423857
0.0725801
0.0289393
0.0733714
0.0160558
0.070641
0.00534944
0.0590743
0.0298334
0.104247
0.0757934
-0.116259
0.0921247
0.0774388
0.0797464
0.0793841
0.0670908
0.0814877
0.0541561
0.083702
0.0409934
0.0857428
0.0278223
0.0865425
0.0153098
0.0831534
0.00503446
0.0693497
0.0348678
0.101605
0.0875591
-0.11337
0.0896977
0.0893457
0.0776235
0.0914583
0.0653084
0.0938029
0.0527009
0.0963094
0.0398325
0.0986112
0.0269442
0.0994308
0.0147442
0.0953534
0.00481079
0.0792831
0.0396786
0.0977507
0.0993926
-0.109584
0.0859326
0.101164
0.0739647
0.103426
0.0618592
0.105908
0.0496037
0.108565
0.0372218
0.110993
0.0249367
0.111716
0.0134458
0.106844
0.00427068
0.0884582
0.0439493
0.0937333
0.110556
-0.104896
0.082572
0.112325
0.0712111
0.114787
0.0595561
0.117563
0.047622
0.120499
0.035528
0.123087
0.02359
0.123654
0.0125585
0.117876
0.00391458
0.0971021
0.0478639
0.0862875
0.121563
-0.0972949
0.0755261
0.123087
0.0648226
0.125491
0.0540416
0.128344
0.043066
0.131475
0.0319297
0.134223
0.0209489
0.134635
0.0109104
0.127914
0.00325575
0.104757
0.0511196
0.0815314
0.130777
-0.0907457
0.0718854
0.132733
0.061645
0.135731
0.0510475
0.138942
0.0402638
0.142258
0.0294538
0.145033
0.0189809
0.145108
0.00963731
0.137258
0.00275927
0.111635
0.0538789
0.0704236
-0.0771653
0.0624909
0.0540862
0.0450678
0.0355624
0.0258334
0.0163689
0.00804544
0.00215251
0.201626
0.00482291
-0.00845936
0.205585
0.0265693
-0.0305277
0.209306
0.0339856
-0.0377073
0.211825
0.0520471
-0.0545654
0.213577
0.0640289
-0.0657811
0.212666
0.0825339
-0.0816234
0.208049
0.11423
-0.109612
0.196449
0.146356
-0.134756
0.171013
0.200669
-0.175233
0.262001
-0.211931
0.201269
0.00154323
0.204818
0.023021
0.208436
0.0303678
0.21034
0.0501425
0.212136
0.0622327
0.210425
0.0842456
0.205939
0.118716
0.193865
0.15843
0.168696
0.225838
0.310783
0.200874
-0.00134066
0.203876
0.0200188
0.207357
0.0268865
0.208483
0.0490169
0.210312
0.0604039
0.20758
0.0869773
0.203228
0.123068
0.190162
0.171496
0.165723
0.250277
0.358179
0.20042
-0.00377073
0.202767
0.0176719
0.206034
0.0236192
0.206281
0.0487701
0.208087
0.0585974
0.204177
0.0908874
0.199979
0.127266
0.185388
0.186086
0.162153
0.273512
0.404073
0.199886
-0.00566684
0.201503
0.0160551
0.204458
0.0206639
0.203787
0.0494412
0.205435
0.056949
0.200255
0.0960681
0.196128
0.131393
0.179772
0.202442
0.157903
0.295381
0.448606
0.199253
-0.00693008
0.2001
0.0152084
0.202628
0.0181353
0.201028
0.0510415
0.202343
0.055634
0.195814
0.102597
0.191661
0.135546
0.173084
0.221019
0.153274
0.315191
0.492296
0.198508
-0.00744826
0.198577
0.0151394
0.200545
0.0161672
0.198024
0.0535624
0.198781
0.0548773
0.190941
0.110436
0.186351
0.140137
0.165936
0.241434
0.147577
0.33355
0.534976
0.197647
-0.00710582
0.196953
0.0158335
0.198216
0.0149046
0.194784
0.0569947
0.194757
0.054904
0.185615
0.119578
0.180323
0.145429
0.157429
0.264328
0.141696
0.349283
0.579377
0.196681
-0.00579656
0.19524
0.0172742
0.195656
0.0144881
0.191313
0.0613378
0.190229
0.0559879
0.179987
0.129821
0.173573
0.151843
0.150193
0.287709
0.134839
0.364637
0.62347
0.195655
-0.00346201
0.193403
0.0195264
0.192948
0.0149432
0.187522
0.0667632
0.185123
0.0583877
0.173351
0.141592
0.164866
0.160328
0.139729
0.312846
0.128565
0.375801
0.67487
0.304618
-0.00606946
0.30819
0.0159542
0.317517
0.00561563
0.319144
0.0651363
0.331449
0.046083
0.332264
0.140777
0.352291
0.140301
0.358095
0.307042
0.410891
0.323005
0.604627
0.481134
0.304738
-0.00879681
0.30981
0.010882
0.319935
-0.00450942
0.323012
0.0620591
0.336929
0.0321656
0.341253
0.136454
0.362195
0.119359
0.377932
0.291304
0.426631
0.274307
0.537186
0.494072
0.304972
-0.0117586
0.312309
0.00354497
0.321928
-0.0141281
0.327913
0.0560739
0.341973
0.018106
0.350584
0.127843
0.370313
0.0996304
0.392851
0.268765
0.43669
0.230468
0.464505
0.509372
0.305768
-0.0155161
0.31547
-0.00615697
0.323643
-0.022301
0.334192
0.045524
0.346182
0.00611695
0.358869
0.115155
0.376075
0.0824242
0.404085
0.240756
0.445987
0.188565
0.38955
0.520942
0.307459
-0.0209651
0.31905
-0.0177474
0.326356
-0.0296073
0.341523
0.0303571
0.351387
-0.00374705
0.367775
0.0987673
0.382541
0.0676576
0.41583
0.207467
0.451216
0.153179
0.315938
0.524827
0.309951
-0.0289058
0.3231
-0.0308967
0.330532
-0.0370388
0.349294
0.0115948
0.356657
-0.0111098
0.375372
0.0800524
0.388364
0.0546648
0.424659
0.171172
0.456088
0.12175
0.244991
0.527036
0.313223
-0.0401191
0.327392
-0.0450653
0.335384
-0.0450307
0.354775
-0.00779598
0.357885
-0.01422
0.37845
0.0594868
0.390367
0.0427477
0.430238
0.131302
0.459962
0.0920259
0.17846
0.526492
0.316237
-0.0543456
0.328032
-0.0568603
0.332964
-0.0499627
0.345538
-0.0203704
0.343064
-0.0117455
0.364705
0.0378454
0.377296
0.0301572
0.421892
0.0867056
0.452361
0.0615574
0.113866
0.516955
0.309116
-0.0614515
0.30388
-0.0516242
0.292357
-0.0384392
0.28767
-0.0156842
0.281038
-0.00511358
0.302184
0.0166995
0.318047
0.0142942
0.366363
0.0383902
0.400059
0.0278614
0.047862
0.466063
0.240559
0.188935
0.150495
0.134811
0.129698
0.146397
0.160691
0.199081
0.226943
0.274805
0.494669
-0.0976683
0.499193
-0.0834392
0.502836
-0.0740955
0.505876
-0.0608128
0.510615
-0.0482246
0.515072
-0.0314841
0.521176
-0.0158748
0.527294
0.00360378
0.535638
0.0225663
0.0457248
0.495072
-0.0986685
0.495642
-0.0840089
0.495728
-0.0741821
0.495671
-0.0607554
0.497262
-0.0498161
0.499133
-0.0333552
0.503487
-0.0202287
0.50834
-0.00124873
0.5158
0.0151058
0.0372458
0.502658
-0.091955
0.499012
-0.0803628
0.495547
-0.070717
0.49308
-0.0582883
0.491566
-0.0483016
0.492043
-0.0338322
0.49384
-0.0220254
0.497595
-0.00500465
0.50311
0.00959078
0.0286894
0.509797
-0.0808098
0.501666
-0.072232
0.495166
-0.0642171
0.491048
-0.0541705
0.48754
-0.0447932
0.486754
-0.0330465
0.486696
-0.0219668
0.489899
-0.00820794
0.494181
0.00530917
0.0206254
0.512924
-0.0689068
0.503111
-0.0624186
0.494787
-0.0558939
0.488819
-0.0482025
0.483991
-0.039965
0.48172
-0.0307751
0.480716
-0.0209632
0.482775
-0.0102674
0.486547
0.00153731
0.013568
0.51415
-0.0560208
0.502877
-0.0511455
0.493127
-0.0461436
0.485434
-0.0405094
0.479507
-0.034038
0.475914
-0.0271823
0.474298
-0.0193467
0.475332
-0.0113016
0.478737
-0.00186758
0.00728808
0.512253
-0.0417812
0.499523
-0.0384154
0.48846
-0.0350815
0.47941
-0.0314593
0.472497
-0.0271242
0.467853
-0.0225388
0.465556
-0.0170495
0.465756
-0.0115013
0.468704
-0.00481574
0.0016277
0.500919
-0.0257452
0.486638
-0.0241349
0.474246
-0.0226888
0.463884
-0.0210981
0.455749
-0.0189891
0.449799
-0.0165886
0.446289
-0.0135393
0.445147
-0.0103594
0.446841
-0.00650967
-0.00282165
0.449679
-0.00936108
0.435076
-0.00953169
0.422095
-0.00970845
0.410696
-0.00969893
0.401043
-0.00933633
0.393145
-0.00868983
0.387317
-0.00771184
0.383554
-0.0065967
0.382266
-0.00522118
-0.00384235
0.265444
0.255912
0.246203
0.236505
0.227168
0.218478
0.210767
0.20417
0.198949
0.00685053
0.0423446
-0.0491952
0.0163053
0.110025
-0.11948
0.0227448
0.155409
-0.161848
0.0251528
0.180121
-0.182529
0.0244679
0.190802
-0.190117
0.0219235
0.193537
-0.190993
0.0184484
0.191903
-0.188427
0.0146761
0.186926
-0.183154
0.0111835
0.177409
-0.173917
0.160057
0.00853497
-0.157409
0.00819291
0.0341517
0.0217802
0.0964381
0.0333676
0.143821
0.0405356
0.172953
0.0437277
0.18761
0.0442261
0.193039
0.0431347
0.192994
0.041105
0.188956
0.0383456
0.180169
0.163796
0.0346068
0.00873526
0.0254165
0.025788
0.0793853
0.0427827
0.126827
0.0555269
0.160209
0.0634622
0.179675
0.0676333
0.188868
0.0692438
0.191383
0.0689963
0.189203
0.0669102
0.182255
0.168602
0.0621046
0.00835875
0.0170577
0.027393
0.0603511
0.0493255
0.104894
0.0682734
0.141261
0.0820365
0.165912
0.0909295
0.179975
0.0961074
0.186205
0.0984675
0.186843
0.0980295
0.182693
0.172774
0.0938572
0.00717546
0.00988225
0.0260413
0.0414853
0.0511878
0.0797475
0.0761849
0.116264
0.0968753
0.145221
0.111986
0.164864
0.122055
0.176137
0.128043
0.180855
0.130416
0.180321
0.175246
0.127944
0.00549794
0.00438431
0.0220133
0.0249699
0.0472995
0.0544613
0.0763166
0.0872471
0.103908
0.11763
0.126788
0.141984
0.143831
0.159094
0.155332
0.169354
0.161867
0.173786
0.173608
0.163504
0.00373686
0.00064745
0.0165124
0.0121944
0.0386264
0.0323473
0.0676752
0.0581984
0.0994561
0.0858492
0.129811
0.111629
0.15582
0.133085
0.17609
0.149084
0.190495
0.159381
0.165837
0.198266
0.00222395
-0.0015765
0.0109775
0.00344085
0.0278302
0.0154946
0.0527005
0.033328
0.0835621
0.0549877
0.117177
0.078014
0.150204
0.100057
0.179772
0.119517
0.204327
0.134827
0.146077
0.224087
0.00110247
-0.00267897
0.00638505
-0.00184173
0.0176475
0.0042321
0.0360066
0.0149689
0.0613759
0.0296184
0.0923608
0.047029
0.126684
0.0657344
0.161851
0.0843496
0.194542
0.102136
0.11306
0.227559
0.000320683
-0.00299965
0.00290689
-0.00442795
0.00936786
-0.00222886
0.0210989
0.00323787
0.0389804
0.0117369
0.0631074
0.0229021
0.0927
0.0361418
0.126437
0.0506125
0.162313
0.0662603
0.0786045
0.196768
-0.000261197
-0.00273846
0.000410056
-0.0050992
0.00330345
-0.00512225
0.00961879
-0.00307747
0.0203925
0.000963218
0.0363843
0.00691029
0.0578455
0.0146806
0.0844235
0.0240346
0.115736
0.0349475
0.0492933
0.145047
-0.000431177
-0.00230728
-0.000580053
-0.00495032
0.000408511
-0.00611082
0.00328084
-0.0059498
0.00876971
-0.00452565
0.0174927
-0.00181265
0.0299277
0.00224554
0.0462409
0.00772134
0.0662022
0.0149862
0.0255873
0.0899083
6.36164e-05
-0.00237089
0.00055644
-0.00544315
0.00172801
-0.00728239
0.00382734
-0.00804913
0.00713698
-0.00783529
0.0119939
-0.00666962
0.0187692
-0.00452973
0.0278237
-0.00133318
0.0395167
0.00329319
0.00960056
0.0555035
0.000728156
-0.00309905
0.00220832
-0.00692332
0.00421321
-0.00928727
0.00676225
-0.0105982
0.00998905
-0.0110621
0.0140966
-0.0107771
0.0193537
-0.00978685
0.0261123
-0.00809177
0.0350503
-0.0056448
-0.00250787
0.0471587
0.000725193
-0.00382424
0.00178844
-0.00798656
0.00292831
-0.0104271
0.00426368
-0.0119335
0.00603427
-0.0128327
0.00851964
-0.0132625
0.0120217
-0.0132889
0.0168726
-0.0129427
0.0234612
-0.0122334
-0.011316
0.0322693
-0.000262594
-0.00356165
-0.00144498
-0.00680417
-0.00329057
-0.00858156
-0.00535698
-0.00986713
-0.00724866
-0.010941
-0.00865824
-0.0118529
-0.00935008
-0.012597
-0.00914446
-0.0131483
-0.00793675
-0.0134411
-0.0136209
-0.00563186
-0.00206079
-0.00150086
-0.00681905
-0.00204591
-0.012979
-0.00242158
-0.019639
-0.00320714
-0.0262655
-0.0043145
-0.0325599
-0.00555858
-0.0383442
-0.00681266
-0.0435018
-0.00799073
-0.0479104
-0.00903251
-0.0101328
-0.0513985
-0.00415909
0.00265823
-0.0127461
0.00654111
-0.0233785
0.00821076
-0.0348108
0.00822521
-0.0465089
0.00738359
-0.0582678
0.00620036
-0.0699876
0.00490708
-0.0815745
0.00359621
-0.092909
0.00230199
0.000992161
-0.104034
-0.00556565
0.00822389
-0.0167023
0.0176778
-0.0302905
0.0217989
-0.0448781
0.0228128
-0.0599353
0.0224408
-0.0753073
0.0215723
-0.0909244
0.0205242
-0.106701
0.0193729
-0.122529
0.0181304
0.0168723
-0.13841
-0.00557887
-0.0169837
-0.031115
-0.0464437
-0.0623547
-0.0786368
-0.095192
-0.111927
-0.12875
-0.145794
0.200607
0.0934989
-0.149059
0.210766
0.431091
-0.44125
0.193664
0.473793
-0.456691
0.199095
0.181539
-0.186969
0.211392
-0.0721096
0.0598119
0.211466
-0.127313
0.127239
0.20507
-0.0917097
0.098106
0.201101
-0.0510681
0.0550371
0.202043
-0.0308625
0.0299205
-0.0215246
0.0165768
0.159494
0.0239129
0.19998
0.390606
0.202806
0.470967
0.218328
0.166016
0.22246
-0.0762419
0.213243
-0.118095
0.204071
-0.0825377
0.200609
-0.0476061
0.202819
-0.0330728
-0.0266878
0.128014
-0.0485978
0.17553
0.343089
0.19481
0.451688
0.214174
0.146652
0.209038
-0.0711063
0.196359
-0.105416
0.191169
-0.0773485
0.193052
-0.0494888
0.199484
-0.0395047
-0.0332544
0.0963386
-0.0977777
0.133331
0.306097
0.163483
0.421535
0.182599
0.127537
0.173912
-0.0624203
0.167712
-0.0992149
0.173357
-0.0829933
0.183686
-0.0598186
0.195375
-0.051193
-0.0414986
0.046098
-0.111606
0.0736604
0.278535
0.109945
0.385251
0.12805
0.109432
0.130132
-0.0645024
0.140608
-0.109691
0.159318
-0.101703
0.177196
-0.0776968
0.192795
-0.0667922
-0.0507959
-0.025254
-0.0919842
-0.000598034
0.253879
0.0384011
0.346252
0.068789
0.0790442
0.0972352
-0.0929486
0.12552
-0.137976
0.153266
-0.129449
0.175147
-0.0995775
0.192356
-0.0840013
-0.0602554
-0.113861
-0.0295216
-0.0951916
0.235209
-0.0273844
0.278445
0.0310935
0.0205663
0.0836395
-0.145495
0.122193
-0.17653
0.153659
-0.160915
0.176443
-0.122362
0.193525
-0.101083
-0.0692477
-0.192458
0.0589025
-0.16381
0.206561
-0.0607891
0.175424
0.0195876
-0.0598104
0.0826249
-0.208532
0.125287
-0.219192
0.157368
-0.192996
0.179484
-0.144478
0.195595
-0.117194
-0.0774887
-0.234785
0.155278
-0.191992
0.163768
-0.0665018
0.0499338
0.022875
-0.149187
0.0882225
-0.273879
0.131815
-0.262785
0.16285
-0.224031
0.183495
-0.165123
0.198214
-0.131912
-0.0848562
-0.235147
-0.188171
-0.0591171
0.0352176
0.0997576
0.141711
0.17018
0.188516
0.201386
0.0485104
0.0343781
-0.0828885
0.00671638
0.041794
-0.0237216
0.0304379
-0.0363586
0.0126371
-0.0262694
-0.0100892
-0.000629648
-0.0256398
0.0215056
-0.0221352
0.0335739
-0.0120683
0.0389797
-0.00540579
-0.00202677
0.196664
0.106139
-0.268424
0.083947
0.154511
0.000691006
0.113694
-0.0222665
0.0355945
0.00102777
-0.0333834
0.0409608
-0.0655728
0.0747792
-0.0559537
0.0943333
-0.0316224
0.104133
-0.0152052
-0.00619091
0.340649
0.164105
-0.398615
0.201617
0.293543
0.0807081
0.234602
0.0405238
0.0757788
0.0619069
-0.0547665
0.0972266
-0.100892
0.125447
-0.084174
0.142587
-0.0487627
0.152212
-0.0248295
-0.0109678
0.416708
0.179349
-0.431952
0.307099
0.403152
0.180005
0.361696
0.125793
0.129992
0.136353
-0.0653271
0.15745
-0.12199
0.17141
-0.098134
0.179414
-0.0567657
0.184668
-0.0300841
-0.0146408
0.396354
-0.366064
0.358256
0.263261
0.206284
0.200768
0.206018
0.20599
0.204261
0.204097
0.0109817
-0.000152206
-0.0108295
0.0126017
-0.00162003
0.0155739
-0.00297222
0.0199966
-0.00442268
0.0263846
-0.00638797
0.033643
-0.00725843
0.0439409
-0.0102979
0.0547394
-0.0107985
0.0688883
-0.0141488
-0.0140002
0.030174
-0.000867056
-0.0294591
0.0347902
-0.00623631
0.0432007
-0.0113827
0.0563993
-0.0176213
0.0749374
-0.0249261
0.0981103
-0.0304313
0.131008
-0.0431956
0.167207
-0.046997
0.214762
-0.0617046
-0.0676621
0.0466287
-0.00242154
-0.0450742
0.0539777
-0.0135853
0.0672465
-0.0246515
0.0880451
-0.0384198
0.116312
-0.053193
0.154076
-0.0681949
0.202729
-0.0918486
0.257986
-0.102255
0.328641
-0.13236
-0.137636
0.0602587
-0.00496249
-0.0577178
0.0698612
-0.0231879
0.0871228
-0.0419131
0.11324
-0.064537
0.148515
-0.0884683
0.195556
-0.115236
0.249087
-0.14538
0.313955
-0.167123
0.382144
-0.200549
-0.187444
0.0712057
-0.0676332
0.0826246
0.102816
0.132136
0.171612
0.21988
0.272766
0.32973
0.35674
0.0828174
-0.0760944
0.083908
-0.090631
0.0741651
-0.0772177
0.08587
0.0651321
-0.0790016
0.0880347
0.0554793
-0.0809144
0.0905671
0.0451347
-0.0828421
0.0931867
0.0342259
-0.0844858
0.0953946
0.0231219
-0.0847512
0.0958552
0.0125877
-0.0807544
0.0912886
0.0040744
-0.0666774
0.0751907
-0.033185
0.0372594
0.0916237
-0.0665222
-0.101196
0.0816579
-0.0672519
0.0710406
-0.0683843
0.0598371
-0.0697109
0.0482028
-0.0712078
0.0363167
-0.0725997
0.0244736
-0.072908
0.0133445
-0.0696253
0.00434453
-0.0576774
-0.0288405
0.093587
-0.0556844
-0.104425
0.08264
-0.056305
0.071489
-0.0572333
0.0601356
-0.0583575
0.0485485
-0.0596207
0.0367259
-0.0607771
0.0248577
-0.0610398
0.0135964
-0.0583641
0.00442385
-0.0485048
-0.0244167
0.099021
-0.0445095
-0.110196
0.0876937
-0.0449777
0.0761359
-0.0456755
0.0642687
-0.0464902
0.0520407
-0.0473927
0.0394851
-0.0482216
0.0268413
-0.0483959
0.0147989
-0.0463217
0.00489628
-0.0386022
-0.0195204
0.101794
-0.0328519
-0.113452
0.0900027
-0.0331859
0.0779669
-0.0336397
0.0656597
-0.0341831
0.0530692
-0.0348022
0.0402368
-0.0353892
0.027371
-0.0355302
0.0151151
-0.0340657
0.00500525
-0.0284924
-0.0145151
0.104881
-0.0210186
-0.116714
0.0928341
-0.0211395
0.0805391
-0.0213448
0.0679626
-0.0216066
0.0550794
-0.021919
0.0419098
-0.0222196
0.0286435
-0.0222639
0.0159248
-0.021347
0.00533641
-0.017904
-0.00917872
0.106841
-0.00897459
-0.118885
0.0945982
-0.00889675
0.0820986
-0.00884523
0.0693125
-0.00882045
0.0562148
-0.00882133
0.0428235
-0.00882831
0.0293204
-0.0087607
0.0163421
-0.0083687
0.00549393
-0.00705586
-0.00368479
0.108302
0.00316084
-0.120438
0.0959327
0.00347303
0.0832926
0.00379492
0.0703539
0.00411818
0.0570942
0.0044384
0.0435322
0.00473365
0.0298474
0.00492419
0.0166732
0.00480547
0.00562658
0.00399076
0.00194179
0.109077
0.0153429
-0.121259
0.0966471
0.0159031
0.0839387
0.0165033
0.0709246
0.0171322
0.0575821
0.0177809
0.0439285
0.0183873
0.0301406
0.0187121
0.0168521
0.0180939
0.00569336
0.0151495
0.00763514
0.109187
-0.121379
0.0967509
0.0840341
0.0710117
0.0576608
0.0439968
0.0301931
0.0168826
0.00570253
0.0136661
-0.155287
-0.0157883
0.0092259
-0.169476
0.00378382
-0.177712
-0.00180141
-0.182842
-0.00687582
-0.185919
-0.0106769
-0.186316
-0.0121717
-0.181035
-0.010272
-0.163748
-0.00498277
-0.124769
-0.0541779
0.036515
-0.152182
-0.0396199
0.0304673
-0.163429
0.0232159
-0.17046
0.0156841
-0.17531
0.00840585
-0.17864
0.00196418
-0.179875
-0.00268962
-0.176381