/*--------------------------------*- C++ -*----------------------------------*\
  =========                 |
  \\      /  F ield         | OpenFOAM: The Open Source CFD Toolbox
   \\    /   O peration     | Website:  https://openfoam.org
    \\  /    A nd           | Version:  13
     \\/     M anipulation  |
\*---------------------------------------------------------------------------*/
FoamFile
{
    format      ascii;
    class       volVectorField;
    location    "3.4";
    object      U;
}
// * * * * * * * * * * * * * * * * * * * * * * * * * * * * * * * * * * * * * //

dimensions      [0 1 -1 0 0 0 0];

internalField   nonuniform List<vector> 
1800
(
(-0.0312172 0.0243438 1.20513e-20)
(-0.0761983 0.0414326 5.37357e-21)
(-0.0988643 0.0463758 -2.86717e-20)
(-0.0952618 0.0464772 4.65152e-20)
(-0.0591332 0.0459179 1.50083e-19)
(0.0145472 0.0461918 7.64415e-20)
(0.128653 0.0481496 -3.91735e-20)
(0.27971 0.0507502 -3.92682e-20)
(0.481424 0.0828524 9.41856e-20)
(0.573102 0.124862 1.18439e-19)
(-0.0463311 0.0346159 1.00196e-20)
(-0.0876925 0.058523 -2.73007e-20)
(-0.0816125 0.0595275 2.86407e-22)
(-0.0282031 0.0475861 -5.33216e-20)
(0.0757568 0.0292455 2.21741e-20)
(0.23166 0.00807696 1.42817e-19)
(0.436923 -0.0132071 -8.5561e-20)
(0.680853 -0.0366011 4.8539e-20)
(0.971485 -0.0389056 -1.15338e-19)
(1.14314 -0.0422723 1.31836e-19)
(-0.0505261 0.0336084 3.81487e-21)
(-0.0721833 0.0542709 1.42271e-20)
(-0.0209705 0.0506564 -1.75329e-22)
(0.100008 0.0321281 -1.06521e-20)
(0.288839 0.0064859 -1.27409e-19)
(0.537539 -0.0207613 2.75621e-20)
(0.829816 -0.045569 5.83068e-20)
(1.14374 -0.0655561 -2.21813e-20)
(1.45818 -0.0771368 -1.66429e-22)
(1.72951 -0.0979547 -2.81815e-21)
(-0.0445355 0.0255446 -7.38262e-21)
(-0.027232 0.0328258 -2.33846e-20)
(0.0899968 0.0200963 -2.38641e-20)
(0.29915 -0.00378083 2.34893e-20)
(0.586283 -0.0304431 2.12584e-20)
(0.925172 -0.0538752 9.2225e-21)
(1.28122 -0.0709074 -2.97078e-21)
(1.62041 -0.0807157 8.29622e-20)
(1.91935 -0.0858555 7.56781e-20)
(2.15271 -0.0893864 -3.22297e-20)
(-0.0280235 0.0145408 5.802e-20)
(0.0524551 0.00574453 5.38848e-20)
(0.259898 -0.0144775 -3.76052e-20)
(0.572752 -0.0370126 -4.63771e-20)
(0.953094 -0.054295 -1.20502e-19)
(1.35014 -0.0632061 1.97958e-21)
(1.71619 -0.0645446 1.62064e-19)
(2.01959 -0.0613934 8.11295e-20)
(2.24523 -0.0561654 2.51657e-21)
(2.40434 -0.0584579 -7.79895e-20)
(0.00272893 0.00201932 -5.79277e-20)
(0.173943 -0.0197299 -1.21172e-20)
(0.491312 -0.0398686 1.94155e-19)
(0.905802 -0.0505092 -5.21338e-20)
(1.34699 -0.0495675 -1.34105e-19)
(1.7479 -0.0403503 2.76668e-19)
(2.06717 -0.0281199 -2.98356e-19)
(2.29257 -0.0171785 -4.2111e-19)
(2.43566 -0.0101595 3.57836e-19)
(2.51375 -0.00796825 9.06759e-22)
(0.0510912 -0.00984434 6.4927e-20)
(0.33836 -0.0358102 -1.38627e-19)
(0.770396 -0.0440383 -4.66127e-19)
(1.25901 -0.0330532 2.24604e-19)
(1.70965 -0.0111734 5.0632e-19)
(2.06332 0.0121372 -2.00593e-21)
(2.30538 0.0308437 -1.122e-18)
(2.45164 0.0426929 4.40908e-21)
(2.52872 0.0491058 1.38362e-18)
(2.56407 0.047249 3.83812e-19)
(0.117815 -0.0174023 6.40859e-20)
(0.537183 -0.0337763 3.40014e-19)
(1.06818 -0.0180531 3.85206e-19)
(1.58687 0.018322 -1.16583e-19)
(2.00153 0.0565266 -4.71793e-19)
(2.28406 0.0860952 -1.80728e-19)
(2.45135 0.104543 0)
(2.53696 0.11362 5.85722e-19)
(2.57286 0.115953 -8.88915e-21)
(2.57979 0.112713 -5.62141e-19)
(0.199973 -0.0165148 5.72518e-20)
(0.752743 -0.00664944 3.49897e-19)
(1.35096 0.0413453 6.56989e-19)
(1.8584 0.100196 -6.86991e-19)
(2.21347 0.147121 -6.03215e-19)
(2.42485 0.176425 2.48083e-19)
(2.53176 0.190775 -1.19231e-18)
(2.57487 0.194929 -8.99093e-19)
(2.58346 0.193176 1.11599e-18)
(2.57406 0.185801 9.73841e-19)
(0.29153 -0.00366245 -4.56796e-20)
(0.96349 0.0484941 2.76663e-19)
(1.59315 0.131287 1.75618e-19)
(2.06286 0.206151 -1.41301e-18)
(2.3532 0.254847 4.9513e-20)
(2.50338 0.279144 2.87461e-18)
(2.56527 0.286569 -1.67197e-18)
(2.58013 0.284303 -9.89525e-19)
(2.57271 0.276863 3.48242e-19)
(2.55354 0.265442 -7.9945e-19)
(-0.0129865 0.201473 1.28989e-19)
(-0.0628771 0.425106 -9.93608e-20)
(-0.128427 0.525684 1.26395e-21)
(-0.200155 0.558473 -1.79502e-20)
(-0.270473 0.562 3.28239e-21)
(-0.337506 0.555124 2.16282e-19)
(-0.400486 0.544134 1.35563e-19)
(-0.45905 0.530208 -3.39351e-19)
(-0.515444 0.513448 1.14589e-20)
(-0.574733 0.494339 -3.74395e-20)
(-0.0281065 0.235293 -1.11995e-20)
(-0.0769653 0.51382 -2.9629e-21)
(-0.130296 0.649176 3.11462e-20)
(-0.185617 0.698789 4.42441e-20)
(-0.239334 0.707721 -9.42308e-20)
(-0.28997 0.70059 2.18808e-19)
(-0.336582 0.686911 -3.05533e-19)
(-0.378326 0.669043 -3.89925e-19)
(-0.416344 0.647263 3.67597e-19)
(-0.45567 0.621986 -1.16409e-19)
(-0.0415887 0.230924 -4.02193e-20)
(-0.0891135 0.54009 1.80271e-20)
(-0.127347 0.713336 -5.8742e-21)
(-0.161328 0.790108 -2.07092e-19)
(-0.193164 0.812611 -6.74722e-20)
(-0.222542 0.80968 7.22704e-19)
(-0.248586 0.79533 -2.31602e-19)
(-0.270208 0.774465 -4.21437e-19)
(-0.286975 0.748256 5.06873e-19)
(-0.301929 0.717015 3.02415e-19)
(-0.0470605 0.191935 -2.4611e-20)
(-0.0930449 0.496733 -5.57171e-21)
(-0.117943 0.702407 4.95902e-21)
(-0.13176 0.815748 -1.77504e-20)
(-0.141342 0.863625 1.46052e-19)
(-0.14866 0.873455 -2.47454e-19)
(-0.153667 0.863536 -2.05831e-19)
(-0.155561 0.842936 2.44608e-19)
(-0.153075 0.814878 2.42491e-21)
(-0.144144 0.779879 1.01562e-20)
(-0.0414217 0.132539 0)
(-0.0838329 0.393899 -6.68045e-21)
(-0.100052 0.611228 -1.11461e-21)
(-0.0990236 0.761276 8.19112e-20)
(-0.0893717 0.847075 2.85131e-19)
(-0.0754287 0.884463 -2.11067e-19)
(-0.058816 0.890129 8.20125e-20)
(-0.0396413 0.87634 4.91509e-20)
(-0.0172925 0.850091 0)
(0.0142236 0.813835 2.07686e-20)
(-0.0270074 0.071725 -2.89948e-20)
(-0.0616849 0.261113 6.9089e-20)
(-0.0742384 0.456343 4.63556e-20)
(-0.0675047 0.621223 -6.50871e-20)
(-0.0474125 0.74012 6.37932e-20)
(-0.0185925 0.813429 1.30087e-19)
(0.0158496 0.848982 -3.72585e-19)
(0.054356 0.856173 -3.98514e-20)
(0.0948777 0.8425 4.74095e-19)
(0.147243 0.811154 1.08533e-20)
(-0.0103735 0.0253439 8.61566e-21)
(-0.0346664 0.138606 1.18713e-19)
(-0.0473557 0.284429 -6.81801e-20)
(-0.0442297 0.430088 -1.15777e-20)
(-0.0259004 0.55408 -4.95066e-20)
(0.00530804 0.64704 1.91867e-20)
(0.0465753 0.707974 9.73678e-20)
(0.0956556 0.740445 1.0859e-19)
(0.149016 0.749564 -1.41113e-19)
(0.213598 0.732261 -2.08972e-19)
(0.00176308 -0.000555092 2.3344e-20)
(-0.0148889 0.0537102 -5.46854e-20)
(-0.0310255 0.144059 -8.80385e-20)
(-0.0373106 0.247646 3.21376e-20)
(-0.0296766 0.346834 -1.37032e-21)
(-0.00744986 0.430483 1.53226e-19)
(0.0280481 0.493522 1.67634e-19)
(0.0746478 0.535318 -1.54932e-20)
(0.130921 0.558808 4.67323e-21)
(0.195103 0.546341 -8.84387e-20)
(0.00394993 -0.0070411 1.8806e-20)
(-0.0153578 0.0129045 -5.83176e-20)
(-0.0397098 0.0578493 1.11152e-19)
(-0.0582969 0.115325 1.43313e-19)
(-0.0641296 0.175479 -1.20748e-19)
(-0.0545606 0.230403 2.72496e-19)
(-0.0292497 0.27561 -3.31268e-20)
(0.0112366 0.309258 -3.9983e-19)
(0.0685925 0.32995 -5.16118e-20)
(0.143166 0.314074 -3.82367e-20)
(-0.00964913 0.0051953 -3.42149e-21)
(-0.0440816 0.0152516 -2.07518e-20)
(-0.0772122 0.0314203 -1.21888e-20)
(-0.100346 0.052718 6.51064e-20)
(-0.106193 0.0771151 1.39447e-19)
(-0.0901164 0.102068 -1.77099e-19)
(-0.0493592 0.126037 -1.80558e-19)
(0.0166872 0.147991 1.11743e-19)
(0.11049 0.167097 -8.87388e-20)
(0.225657 0.170151 -3.73177e-20)
(-0.878184 0.389613 5.55332e-19)
(-0.963585 0.127217 -1.84455e-18)
(-0.428664 -0.202648 -5.46392e-19)
(0.0729644 -0.408728 2.9376e-19)
(0.456543 -0.515593 -7.44537e-20)
(0.673907 -0.452564 -4.55953e-20)
(0.826369 -0.370467 -1.76334e-20)
(0.933283 -0.267892 -5.44809e-22)
(0.991583 -0.210761 1.41481e-20)
(1.06254 -0.132321 3.40629e-21)
(-0.678594 0.478123 6.90611e-19)
(-0.66365 0.0768091 6.76944e-19)
(-0.212055 -0.351367 -4.7744e-20)
(0.245647 -0.537501 -3.64168e-19)
(0.59125 -0.598614 -4.41387e-19)
(0.780246 -0.504653 0)
(0.90516 -0.403379 -3.38116e-20)
(0.983721 -0.288785 4.86938e-21)
(1.02563 -0.225975 3.02881e-22)
(1.07831 -0.141437 -7.82062e-21)
(-0.432105 0.535547 -3.1978e-20)
(-0.32442 0.0332101 -3.86453e-19)
(0.0753722 -0.46693 3.87525e-19)
(0.46222 -0.64704 1.09954e-19)
(0.746347 -0.669921 3.67152e-20)
(0.895352 -0.548792 -2.64507e-20)
(0.989478 -0.429127 0)
(1.03929 -0.303767 0)
(1.06405 -0.236328 -1.69625e-20)
(1.09612 -0.147904 0)
(-0.17654 0.564822 -5.12045e-20)
(0.0205382 -0.0100793 6.08838e-19)
(0.385315 -0.554908 -1.295e-19)
(0.702636 -0.735382 0)
(0.915418 -0.725692 3.73954e-19)
(1.01401 -0.582887 -6.85862e-20)
(1.07328 -0.447555 0)
(1.09519 -0.313107 6.29691e-20)
(1.10401 -0.241763 0)
(1.11496 -0.1515 8.9494e-21)
(0.0541794 0.573508 2.20075e-19)
(0.34532 -0.0450361 2.60725e-19)
(0.697324 -0.621233 8.39198e-20)
(0.947236 -0.803312 0)
(1.08895 -0.765387 1.54431e-19)
(1.13336 -0.605415 1.57213e-19)
(1.15399 -0.458214 -1.26701e-20)
(1.14802 -0.317203 -1.84557e-21)
(1.14259 -0.242675 -1.47795e-20)
(1.13355 -0.152282 2.10169e-21)
(0.255425 0.566997 1.65299e-18)
(0.639415 -0.0658118 -3.07961e-20)
(0.997185 -0.669523 -4.19347e-20)
(1.18413 -0.85261 3.98776e-19)
(1.25688 -0.79092 -2.66627e-19)
(1.24942 -0.616704 7.71797e-20)
(1.23079 -0.460848 1.60813e-19)
(1.1964 -0.316239 -1.34971e-19)
(1.17779 -0.239572 2.2938e-22)
(1.15068 -0.150491 -2.07165e-20)
(0.404546 0.538991 3.16314e-20)
(0.900008 -0.0815588 -1.07705e-19)
(1.27918 -0.701071 -1.10462e-19)
(1.40754 -0.883733 -1.19855e-20)
(1.41376 -0.804053 -2.09398e-19)
(1.3584 -0.61838 -2.78299e-20)
(1.30307 -0.455942 -6.51242e-20)
(1.24037 -0.310323 5.26493e-21)
(1.20877 -0.232843 1.84889e-20)
(1.16554 -0.146429 -7.67149e-22)
(0.454651 0.472328 -6.94174e-19)
(1.13212 -0.101047 -1.9271e-19)
(1.53956 -0.717984 0)
(1.61189 -0.896835 1.11971e-19)
(1.55658 -0.805837 1.72168e-19)
(1.45787 -0.6122 -1.95524e-20)
(1.37017 -0.444649 -2.13052e-19)
(1.28056 -0.299781 5.68642e-20)
(1.23567 -0.222771 -9.43573e-22)
(1.1778 -0.140365 -1.03432e-20)
(0.427856 0.346041 7.81517e-19)
(1.3614 -0.142373 5.17647e-19)
(1.77755 -0.72215 -3.89734e-20)
(1.79269 -0.892437 -6.91366e-20)
(1.68292 -0.79685 1.7299e-20)
(1.54635 -0.599461 -2.02462e-19)
(1.43122 -0.428362 7.66946e-20)
(1.31749 -0.285326 -8.42914e-22)
(1.25915 -0.209743 1.30785e-21)
(1.18757 -0.132545 1.44962e-20)
(0.454574 0.175506 -4.80494e-19)
(1.60727 -0.208279 4.97257e-19)
(1.9915 -0.718853 2.02313e-19)
(1.94753 -0.875057 -1.46726e-19)
(1.79196 -0.77862 -1.63384e-19)
(1.62343 -0.581199 -1.04006e-19)
(1.48541 -0.408306 -3.64074e-20)
(1.35122 -0.267859 0)
(1.27984 -0.194303 -2.8097e-20)
(1.19528 -0.123219 1.94877e-20)
(1.20933 0.0461765 -5.39669e-19)
(2.04049 -0.328928 -5.5336e-19)
(2.26054 -0.721463 2.37793e-19)
(2.12964 -0.840305 2.368e-20)
(1.91728 -0.742762 2.90456e-20)
(1.70889 -0.548744 -8.512e-20)
(1.54384 -0.375532 -7.27557e-20)
(1.3882 -0.240217 3.71798e-20)
(1.30206 -0.170725 -1.35786e-20)
(1.20318 -0.109652 -1.03669e-20)
(2.08132 -0.00722526 1.91033e-21)
(2.55934 -0.41749 -1.2309e-18)
(2.51404 -0.726919 -9.04741e-19)
(2.21427 -0.780182 5.93316e-20)
(1.94302 -0.648668 2.73847e-20)
(1.72063 -0.454286 1.65457e-19)
(1.55578 -0.295943 1.53297e-19)
(1.39982 -0.182547 -1.9737e-20)
(1.31348 -0.129082 5.96369e-20)
(1.20679 -0.0874397 6.95361e-21)
(2.42602 -0.0919542 7.01455e-20)
(2.62176 -0.414499 1.56807e-20)
(2.44145 -0.6307 3.49954e-20)
(2.18553 -0.667773 1.95394e-35)
(1.98256 -0.562616 -3.7411e-20)
(1.77881 -0.392389 -5.37098e-34)
(1.60275 -0.246061 2.14434e-20)
(1.42843 -0.14261 5.70496e-34)
(1.33091 -0.0948018 -1.92103e-21)
(1.21201 -0.0665906 3.39986e-21)
(2.47233 -0.130426 7.08445e-36)
(2.53875 -0.370178 4.63657e-19)
(2.42759 -0.568217 3.35897e-19)
(2.22983 -0.615023 0)
(2.01178 -0.500687 -4.74782e-20)
(1.77475 -0.314856 -1.04967e-19)
(1.57823 -0.169199 -1.03619e-19)
(1.40072 -0.0837953 1.60029e-33)
(1.30976 -0.0508768 -3.27311e-20)
(1.19915 -0.041903 -4.51006e-21)
(2.43647 -0.15617 4.68043e-20)
(2.47523 -0.344918 -3.61428e-21)
(2.39622 -0.515529 0)
(2.20031 -0.534638 0)
(1.97329 -0.408672 0)
(1.73688 -0.230835 0)
(1.54348 -0.101811 6.28944e-21)
(1.37011 -0.0363273 1.87696e-33)
(1.28446 -0.0158331 -2.86484e-21)
(1.18174 -0.0214854 -6.41711e-34)
(2.3992 -0.176318 7.08365e-20)
(2.42059 -0.32112 0)
(2.3474 -0.458509 0)
(2.12801 -0.461452 0)
(1.86135 -0.326668 0)
(1.60889 -0.152437 0)
(1.4267 -0.0354255 -1.31094e-20)
(1.28015 0.0114486 4.94879e-20)
(1.21768 0.0184753 -3.33197e-21)
(1.14009 -0.00191212 -2.15032e-21)
(2.35479 -0.186813 0)
(2.34893 -0.29743 1.45592e-19)
(2.21192 -0.393897 1.20165e-19)
(1.90473 -0.363497 0)
(1.59293 -0.22141 -4.00469e-20)
(1.35242 -0.0694929 -5.51224e-20)
(1.21266 0.0192632 -5.42032e-20)
(1.12006 0.043083 -2.27231e-20)
(1.09758 0.0378959 1.64262e-20)
(1.05941 0.0102654 -7.78345e-21)
(2.22231 -0.179366 -5.3659e-21)
(2.12521 -0.251223 -4.02458e-21)
(1.84601 -0.287377 1.53686e-22)
(1.43917 -0.230676 -1.61953e-35)
(1.1176 -0.111758 9.42662e-21)
(0.939272 -0.00603761 -2.18515e-34)
(0.884328 0.047429 -1.48395e-20)
(0.87189 0.0532341 -3.40461e-20)
(0.898686 0.0411843 -3.63544e-21)
(0.904553 0.014121 6.82894e-21)
(1.74694 -0.14078 3.44991e-20)
(1.50639 -0.160323 -3.36634e-20)
(1.10594 -0.134074 -1.97706e-20)
(0.711191 -0.079662 0)
(0.49172 -0.0234034 -2.32422e-21)
(0.431675 0.0191883 -1.71748e-21)
(0.471292 0.040226 -1.26731e-20)
(0.529176 0.0377611 5.04489e-21)
(0.590525 0.0271333 -1.08888e-20)
(0.626077 0.00983936 -6.02615e-21)
(0.634423 -0.0262149 0)
(0.418326 -0.00843484 0)
(0.216866 0.000117061 0)
(0.0764787 -0.00280099 0)
(0.00524909 -0.00270961 0)
(0.00570017 0.00227144 0)
(0.0596937 0.00616752 -1.44625e-20)
(0.120951 0.00576532 5.18529e-35)
(0.172342 0.00387203 -4.0391e-21)
(0.204986 0.0012889 -7.16977e-21)
(2.49355 0.240014 7.731e-19)
(2.53248 0.173185 4.69559e-20)
(2.54851 0.106073 -7.54791e-20)
(2.56625 0.0557712 -2.39929e-19)
(2.56784 -0.00407604 -4.30789e-20)
(2.53668 -0.0307815 -6.54175e-20)
(2.51382 -0.0884508 -2.03659e-19)
(2.29994 -0.0782999 2.01553e-20)
(2.17996 -0.122173 0)
(1.53023 -0.0508524 3.4434e-20)
(2.42051 0.199283 2.49034e-19)
(2.42423 0.155695 -2.81061e-19)
(2.49852 0.0905553 -6.12532e-20)
(2.46646 0.057332 -1.18971e-19)
(2.56234 -0.003241 9.73215e-20)
(2.47733 -0.0300908 1.67711e-19)
(2.60044 -0.0808198 -2.00865e-19)
(2.43253 -0.117342 8.82224e-21)
(2.53189 -0.135677 -4.11289e-20)
(2.23582 -0.192201 6.01607e-20)
(2.37415 0.166519 -1.12335e-19)
(2.34507 0.128113 2.55295e-19)
(2.44998 0.0784756 1.5274e-19)
(2.38972 0.0400112 -2.56998e-19)
(2.50644 0.00204446 -4.33298e-20)
(2.42164 -0.0448495 3.50102e-19)
(2.53819 -0.0628718 5.82046e-20)
(2.44783 -0.127487 -5.85662e-20)
(2.5305 -0.116949 -2.97299e-20)
(2.44827 -0.197341 -3.00377e-20)
(2.32342 0.134607 -2.96372e-19)
(2.30751 0.0943567 -5.41817e-20)
(2.3894 0.063355 3.43807e-20)
(2.35785 0.0179933 -9.55549e-21)
(2.43283 -0.000717491 -2.24064e-19)
(2.39862 -0.0546811 -7.8118e-20)
(2.45611 -0.0579996 1.97779e-19)
(2.43597 -0.12021 -1.1877e-20)
(2.46721 -0.1099 3.7189e-20)
(2.46708 -0.174551 1.42552e-20)
(2.27075 0.102218 3.89074e-20)
(2.28216 0.0643867 1.32873e-19)
(2.33028 0.0431026 -1.80637e-20)
(2.33467 0.00113124 1.71806e-19)
(2.37073 -0.0122096 -5.66245e-20)
(2.37549 -0.0581163 -2.19686e-19)
(2.39666 -0.0636575 3.37258e-20)
(2.40787 -0.111135 -7.24354e-20)
(2.41586 -0.111705 -6.36156e-21)
(2.43436 -0.157936 -1.80352e-20)
(2.22383 0.0683339 -1.64184e-19)
(2.25066 0.0373814 -7.04444e-20)
(2.28148 0.0191335 -9.21821e-21)
(2.30304 -0.0135795 1.0778e-19)
(2.32422 -0.0282078 2.67446e-19)
(2.34311 -0.0619855 -6.46372e-20)
(2.35501 -0.0737607 5.8536e-21)
(2.37312 -0.10746 -7.66462e-20)
(2.37777 -0.117626 -1.13549e-19)
(2.39633 -0.150465 -2.89102e-20)
(2.17191 0.0348521 -5.41005e-20)
(2.20338 0.0110893 -1.23188e-19)
(2.22838 -0.00491871 -1.47795e-19)
(2.25562 -0.0293041 -2.65777e-19)
(2.27344 -0.0441353 7.49239e-20)
(2.29771 -0.0692203 6.66107e-20)
(2.30848 -0.0835085 -3.46899e-21)
(2.33147 -0.109317 8.14129e-20)
(2.33536 -0.123281 -8.44742e-20)
(2.35954 -0.149837 -5.08277e-20)
(2.06249 0.00381934 6.1818e-20)
(2.09318 -0.013141 3.0207e-20)
(2.11028 -0.0251863 1.8243e-20)
(2.14045 -0.0427286 -3.83339e-20)
(2.15078 -0.0544614 -3.65165e-20)
(2.18243 -0.0732203 -4.74171e-20)
(2.18533 -0.0853148 -4.92193e-20)
(2.2208 -0.105924 1.01572e-19)
(2.21498 -0.118682 -4.52939e-20)
(2.25737 -0.141553 1.44467e-20)
(1.74517 -0.0209378 -6.65605e-20)
(1.76074 -0.0299023 -1.10536e-20)
(1.76261 -0.0365815 1.21762e-19)
(1.78112 -0.0458295 -1.59353e-20)
(1.77672 -0.0523379 -3.48686e-20)
(1.80159 -0.062868 7.27134e-20)
(1.78841 -0.0699753 -5.47598e-20)
(1.82305 -0.0827001 4.21153e-20)
(1.79718 -0.0912595 -1.5754e-20)
(1.84618 -0.10684 -8.11657e-20)
(0.879358 -0.0124674 5.10325e-20)
(0.866957 -0.0120073 4.29567e-20)
(0.852957 -0.0116273 4.27008e-20)
(0.842772 -0.0115373 7.03531e-20)
(0.828643 -0.01188 -3.5982e-20)
(0.821804 -0.0125849 -4.71253e-20)
(0.80446 -0.013851 2.13121e-20)
(0.803183 -0.0159708 -2.60991e-21)
(0.773851 -0.0172437 3.89867e-21)
(0.788792 -0.0249037 -5.76788e-21)
(1.56801 0.961168 -8.57013e-20)
(1.55187 1.00715 2.6539e-20)
(1.55554 1.0609 -6.41852e-19)
(1.56426 1.12201 2.33155e-19)
(1.57079 1.18637 1.20291e-18)
(1.56644 1.24587 -1.45784e-19)
(1.52919 1.27799 -1.06445e-18)
(1.40867 1.23048 2.88551e-22)
(1.11583 1.00746 -5.22237e-19)
(0.522643 0.483463 1.16952e-19)
(1.73243 0.931311 0)
(1.72107 0.975674 7.4064e-19)
(1.72097 1.02545 1.64011e-18)
(1.72919 1.0839 -1.01194e-18)
(1.73892 1.14664 -2.36178e-18)
(1.73778 1.20397 -1.53413e-19)
(1.69841 1.23211 -1.96672e-19)
(1.56282 1.17951 7.18449e-19)
(1.23205 0.956487 1.08148e-18)
(0.571362 0.451573 4.24207e-19)
(1.88426 0.891007 6.78269e-20)
(1.88167 0.935069 0)
(1.88281 0.981837 -6.69845e-20)
(1.89164 1.0357 1.03141e-18)
(1.90335 1.09353 5.55228e-20)
(1.90335 1.14532 -2.29861e-18)
(1.85923 1.16676 1.45278e-18)
(1.70556 1.10838 8.55811e-19)
(1.33538 0.888265 -9.24602e-19)
(0.610901 0.410565 -2.70394e-19)
(2.01812 0.842719 -1.88284e-19)
(2.02524 0.884647 -1.38156e-19)
(2.03155 0.927631 2.81503e-19)
(2.04313 0.975882 -3.49046e-19)
(2.05667 1.02706 -1.61268e-18)
(2.05602 1.07123 -1.25312e-18)
(2.00407 1.08427 1.31169e-18)
(1.82911 1.01792 8.70751e-19)
(1.41694 0.802223 0)
(0.636391 0.360578 0)
(2.1353 0.77872 -9.21814e-19)
(2.1509 0.818165 -1.69276e-18)
(2.16376 0.857571 -6.49953e-19)
(2.17926 0.900504 -3.33603e-20)
(2.19422 0.944861 0)
(2.19105 0.980157 1.33929e-19)
(2.12768 0.982718 1.54341e-19)
(1.92563 0.910789 1.92526e-19)
(1.46983 0.702762 -2.7487e-19)
(0.6446 0.30286 -6.8754e-20)
(2.23867 0.705687 1.10071e-18)
(2.2607 0.740753 -4.08519e-20)
(2.27912 0.775465 -1.28937e-18)
(2.29792 0.812295 0)
(2.31289 0.848447 0)
(2.30344 0.87395 0)
(2.2224 0.866568 1.46895e-18)
(1.98751 0.788642 -1.61489e-18)
(1.48913 0.59031 -1.01735e-18)
(0.632511 0.240038 1.74375e-20)
(2.32806 0.621372 -1.4271e-18)
(2.35484 0.651978 -2.99203e-18)
(2.37723 0.682018 -5.18969e-21)
(2.39755 0.712684 6.06514e-19)
(2.40939 0.740733 -3.63987e-20)
(2.3884 0.756068 1.27305e-18)
(2.28312 0.738156 -7.03936e-19)
(2.01006 0.654761 -1.84478e-18)
(1.46967 0.469689 9.78747e-20)
(0.598849 0.176169 7.67231e-20)
(2.40586 0.533124 -1.1074e-18)
(2.43398 0.558422 1.52781e-20)
(2.45748 0.582972 4.16917e-19)
(2.4763 0.606794 -4.0322e-19)
(2.48065 0.626003 6.2785e-19)
(2.44177 0.630556 1.65921e-18)
(2.30432 0.602044 -1.39748e-19)
(1.98693 0.51489 -9.61818e-19)
(1.40729 0.34773 2.16372e-19)
(0.544136 0.115874 3.95702e-20)
(2.46891 0.44132 4.03223e-19)
(2.49697 0.462169 7.84872e-20)
(2.51892 0.481144 -4.12312e-19)
(2.53243 0.497816 -9.70098e-19)
(2.52346 0.507878 6.4887e-20)
(2.45838 0.501689 4.72911e-20)
(2.27945 0.463706 -1.17284e-18)
(1.91226 0.37587 5.04236e-19)
(1.30031 0.231885 1.44097e-19)
(0.471074 0.0636393 -5.21622e-20)
(2.51839 0.352088 7.43969e-19)
(2.54323 0.368043 -1.10863e-18)
(2.56034 0.380961 1.62846e-19)
(2.56333 0.390165 2.18522e-18)
(2.53311 0.391021 1.0553e-18)
(2.43151 0.374803 -2.27721e-18)
(2.20128 0.329579 -2.09124e-18)
(1.78151 0.245387 8.7094e-19)
(1.15026 0.129808 -3.96108e-20)
(0.384578 0.0231004 -1.03605e-19)
(0.546405 0.398595 -1.6979e-19)
(0.505601 0.412231 -1.64285e-19)
(0.459674 0.426735 7.40459e-20)
(0.409259 0.442256 -2.40038e-19)
(0.35404 0.458655 -2.06841e-20)
(0.293172 0.47449 2.1609e-19)
(0.225674 0.483843 3.52339e-20)
(0.152002 0.469806 2.77753e-21)
(0.07926 0.395913 1.96267e-20)
(0.0161235 0.201678 1.33306e-20)
(0.58982 0.505927 1.34834e-19)
(0.550077 0.52627 1.72087e-19)
(0.506064 0.548073 4.62586e-20)
(0.457987 0.571489 -5.07684e-20)
(0.405198 0.59626 -2.17907e-19)
(0.346579 0.620406 -1.58128e-20)
(0.280438 0.636081 5.49913e-20)
(0.205356 0.620843 4.02271e-20)
(0.124673 0.525702 -1.23505e-19)
(0.0396445 0.269155 -4.26894e-20)
(0.651006 0.605502 -1.12762e-19)
(0.6126 0.63164 -9.88345e-20)
(0.571043 0.659725 9.69304e-20)
(0.526077 0.690234 6.70311e-20)
(0.476773 0.72303 -7.90751e-20)
(0.421689 0.755677 -2.02733e-20)
(0.358062 0.778318 -1.09818e-19)
(0.281601 0.762832 -8.25517e-20)
(0.189771 0.647842 -6.99248e-20)
(0.0733707 0.332179 3.7362e-22)
(0.729695 0.701468 3.43037e-20)
(0.693187 0.73405 -5.33639e-20)
(0.655002 0.768429 -7.90952e-20)
(0.613899 0.805303 -6.07211e-20)
(0.568522 0.844677 -6.61722e-20)
(0.51725 0.883789 -7.09477e-21)
(0.456278 0.910985 -2.86903e-19)
(0.377853 0.893097 6.21753e-20)
(0.271782 0.758089 -3.25241e-19)
(0.115753 0.388095 4.91437e-20)
(0.821336 0.780706 8.40355e-21)
(0.787479 0.818264 1.49634e-20)
(0.754001 0.85818 -4.96429e-20)
(0.718765 0.901501 -2.71443e-19)
(0.679615 0.947994 1.25909e-19)
(0.63412 0.994207 4.4261e-20)
(0.576855 1.02669 3.80442e-20)
(0.495826 1.00753 -1.8733e-19)
(0.371525 0.854768 3.92913e-19)
(0.166643 0.436251 2.85329e-19)
(0.929297 0.859347 -9.51741e-20)
(0.897014 0.901347 -1.88163e-19)
(0.866782 0.944522 1.45284e-20)
(0.835907 0.991366 1.00367e-19)
(0.802194 1.04221 3.73223e-19)
(0.762677 1.09291 2.77295e-19)
(0.709761 1.12779 6.61266e-19)
(0.626187 1.10455 2.71283e-19)
(0.481863 0.933758 1.4694e-19)
(0.222778 0.47383 2.07209e-19)
(1.0433 0.911195 -1.07867e-19)
(1.01728 0.95798 6.21317e-19)
(0.994964 1.00566 4.09291e-19)
(0.971753 1.0568 -5.31111e-19)
(0.94489 1.11196 -2.66071e-19)
(0.91132 1.16693 6.88377e-19)
(0.861826 1.20453 -1.07095e-19)
(0.773589 1.17852 -4.67867e-19)
(0.604778 0.992992 2.82481e-20)
(0.283911 0.500292 2.58011e-19)
(1.16398 0.964646 3.07739e-19)
(1.13803 1.01177 5.90483e-20)
(1.12054 1.05977 -7.82492e-19)
(1.10553 1.11271 1.73836e-19)
(1.08824 1.17024 6.04787e-19)
(1.06352 1.22678 -3.30813e-19)
(1.01925 1.26345 -1.05113e-19)
(0.926487 1.23135 -1.92154e-19)
(0.731561 1.03116 1.94036e-20)
(0.346062 0.514408 -2.99951e-19)
(1.29408 0.982398 1.81543e-20)
(1.27877 1.03321 -5.73302e-19)
(1.26859 1.08209 -4.86418e-21)
(1.25913 1.13606 4.92451e-19)
(1.2477 1.19603 -5.12778e-19)
(1.229 1.25529 1.00255e-18)
(1.18765 1.29258 6.7241e-19)
(1.08752 1.2563 -9.88829e-19)
(0.86245 1.04564 -7.85814e-20)
(0.408235 0.515822 -3.31121e-19)
(1.39625 0.992451 -3.47919e-19)
(1.39284 1.04421 -3.27583e-19)
(1.40027 1.09477 3.031e-19)
(1.40575 1.14933 8.08358e-19)
(1.40582 1.20851 2.88436e-19)
(1.39563 1.26596 -8.32201e-19)
(1.35762 1.29966 1.10434e-19)
(1.24887 1.2569 2.25015e-19)
(0.991393 1.03784 -3.0156e-19)
(0.46766 0.505332 -2.34183e-19)
(0.996628 0.0106645 5.96746e-22)
(1.01053 0.0410363 -1.73715e-20)
(1.02313 0.0512906 -1.32727e-20)
(1.02683 0.075399 0)
(1.02395 0.0917061 1.54594e-20)
(1.02189 0.115379 2.24823e-20)
(0.999436 0.156922 2.99854e-20)
(0.958898 0.196737 6.89117e-20)
(0.876831 0.262118 -1.07664e-19)
(0.724359 0.330343 -1.51296e-19)
(0.997598 0.00878056 3.57691e-20)
(1.00816 0.038668 -5.60587e-20)
(1.02266 0.0491094 2.07351e-22)
(1.02472 0.075135 -1.6644e-20)
(1.02398 0.092073 7.8585e-21)
(1.02253 0.119871 -1.16652e-20)
(1.00179 0.165827 -6.98614e-20)
(0.968313 0.215432 0)
(0.888822 0.299123 2.24419e-19)
(0.760508 0.400538 -2.60308e-19)
(0.998157 0.00712428 -2.57307e-20)
(1.00685 0.0366033 1.54802e-20)
(1.02208 0.0466978 3.48827e-20)
(1.02441 0.07537 8.88977e-21)
(1.02433 0.0918788 -1.91843e-20)
(1.02603 0.125027 1.16796e-21)
(1.00508 0.173906 -4.94694e-20)
(0.982613 0.234251 -6.55401e-21)
(0.903923 0.334437 2.25025e-22)
(0.811053 0.467868 6.96075e-19)
(0.998383 0.00559128 -2.87597e-20)
(1.00638 0.0348509 2.15424e-21)
(1.02156 0.0439598 2.85433e-20)
(1.02567 0.0761172 1.89577e-20)
(1.02516 0.090981 -9.68488e-21)
(1.03206 0.130923 -1.39921e-20)
(1.00943 0.180833 7.25056e-20)
(1.00164 0.253762 -2.10865e-21)
(0.921683 0.366892 -2.50673e-19)
(0.87581 0.530912 8.55606e-20)
(0.998395 0.00409842 1.98832e-20)
(1.00646 0.0333663 -2.85426e-20)
(1.02136 0.0408599 -2.29428e-20)
(1.02812 0.0772835 1.13065e-20)
(1.02684 0.0893595 0)
(1.04001 0.137483 0)
(1.01563 0.186513 6.20242e-20)
(1.02377 0.273897 8.19771e-22)
(0.944737 0.396424 -1.15682e-19)
(0.950404 0.587825 9.09e-20)
(0.998318 0.00259507 5.57839e-21)
(1.00677 0.032052 2.28486e-20)
(1.0218 0.0374036 -6.29403e-20)
(1.03141 0.0787053 -2.19889e-20)
(1.02972 0.087065 -5.22842e-22)
(1.04947 0.144624 6.03869e-20)
(1.02383 0.190734 9.63287e-20)
(1.04958 0.295229 -3.92009e-22)
(0.969444 0.420775 1.9136e-19)
(1.04208 0.644947 -2.12898e-19)
(0.998245 0.00107302 -2.1372e-20)
(1.00709 0.0307724 1.2018e-20)
(1.02321 0.0336284 -1.74105e-20)
(1.03514 0.080181 -4.70148e-20)
(1.03428 0.0842273 1.67454e-21)
(1.05968 0.152069 -1.54609e-21)
(1.03542 0.193767 -4.99916e-21)
(1.07578 0.316967 -2.10737e-19)
(1.00504 0.44095 1.41788e-19)
(1.12737 0.685701 -5.2647e-19)
(0.998218 -0.000459042 -3.61805e-21)
(1.00729 0.0293648 -3.45267e-20)
(1.02577 0.0295888 3.52513e-20)
(1.03905 0.0815081 2.5117e-20)
(1.04078 0.0810184 8.78807e-22)
(1.07039 0.159381 -7.07448e-20)
(1.05022 0.196003 -5.45994e-20)
(1.10456 0.339179 3.78251e-19)
(1.04013 0.4583 1.40707e-20)
(1.24384 0.744193 8.27912e-19)
(0.998235 -0.00197249 1.45147e-20)
(1.0074 0.0276715 1.56731e-20)
(1.02951 0.0253705 4.1596e-20)
(1.04313 0.0825648 -2.76991e-20)
(1.04919 0.0774992 -7.3337e-20)
(1.08122 0.166713 1.00751e-21)
(1.06925 0.195588 -7.57282e-20)
(1.13315 0.35949 4.92739e-19)
(1.09547 0.45793 -8.69867e-21)
(1.31222 0.761061 -1.1489e-18)
(0.998292 -0.00340318 3.32803e-22)
(1.00755 0.0255466 2.4409e-20)
(1.03417 0.021382 1.36936e-20)
(1.0478 0.0829857 -5.56486e-20)
(1.05824 0.0755841 -7.21396e-20)
(1.09166 0.173729 -6.04835e-20)
(1.08889 0.203408 -1.4015e-19)
(1.15771 0.382912 -4.46341e-19)
(1.15314 0.485853 -2.41337e-19)
(1.44958 0.830938 -1.20715e-18)
(0.998593 -0.00581601 -1.04039e-21)
(1.00726 0.0223565 -5.31913e-21)
(1.04103 0.0134911 -1.5888e-20)
(1.05507 0.0825345 3.07162e-20)
(1.06938 0.0658798 5.48337e-20)
(1.11224 0.17764 -3.9554e-20)
(1.11082 0.187118 1.37513e-19)
(1.20297 0.392409 -4.1206e-19)
(1.21478 0.423763 -1.85723e-19)
(1.46344 0.822078 6.31441e-19)
(0.999487 -0.00937221 9.21254e-22)
(1.00611 0.017289 9.92932e-21)
(1.05259 0.000668978 -1.10707e-20)
(1.06101 0.0797908 5.6441e-20)
(1.08798 0.0487503 9.45296e-20)
(1.13136 0.174206 1.17267e-19)
(1.15012 0.160862 3.15311e-20)
(1.2302 0.377526 1.96726e-19)
(1.31276 0.37182 3.07407e-19)
(1.48185 0.721524 2.72886e-20)
(0.999433 -0.0128114 -1.36132e-21)
(1.0068 0.00980233 -3.83974e-21)
(1.06732 -0.0119873 3.82221e-21)
(1.06351 0.0747918 4.1932e-21)
(1.11457 0.0309856 2.89959e-34)
(1.14304 0.165498 -6.79092e-21)
(1.1967 0.13574 -4.90295e-34)
(1.24506 0.351312 1.80544e-20)
(1.3871 0.315423 -5.49065e-20)
(1.52245 0.629262 -5.57413e-20)
(0.996578 -0.016818 1.461e-20)
(1.01371 -0.00087777 -4.34904e-35)
(1.07968 -0.0232161 -4.34227e-21)
(1.06929 0.0649903 -2.36205e-20)
(1.14214 0.0145815 -4.79482e-20)
(1.1554 0.152776 -3.9881e-20)
(1.23311 0.112494 -6.30009e-34)
(1.26671 0.320379 -7.5604e-20)
(1.42617 0.259642 -1.41806e-19)
(1.56031 0.537184 9.357e-20)
(0.990213 -0.0222418 0)
(1.02949 -0.0145311 1.65122e-35)
(1.08556 -0.0325846 0)
(1.0869 0.0484861 0)
(1.16426 0.000355125 0)
(1.17598 0.134477 0)
(1.25404 0.0922263 -4.45541e-34)
(1.29889 0.281804 0)
(1.44138 0.212204 -1.94212e-20)
(1.58738 0.442265 5.53945e-20)
(0.980986 -0.0298121 2.51398e-21)
(1.05275 -0.0289222 1.78923e-21)
(1.0871 -0.0404294 -5.37473e-21)
(1.11731 0.0284254 0)
(1.17953 -0.00951478 0)
(1.20169 0.112914 5.98e-21)
(1.26751 0.0757915 4.22168e-20)
(1.33114 0.237929 -1.2975e-20)
(1.45546 0.171581 -2.83223e-20)
(1.60908 0.349794 2.13771e-19)
(0.971092 -0.0442298 -8.07895e-20)
(1.08078 -0.0499199 1.98922e-21)
(1.08731 -0.053647 -5.95197e-21)
(1.15223 -0.000413142 -1.45747e-20)
(1.17687 -0.0188643 -2.9308e-20)
(1.21708 0.086299 -1.34514e-20)
(1.26607 0.0598999 -3.54369e-20)
(1.35083 0.189382 -2.91924e-20)
(1.46635 0.133648 -5.3962e-20)
(1.62489 0.263274 6.6507e-20)
(0.963754 -0.0516369 -5.58447e-21)
(1.10336 -0.0588065 -1.79005e-20)
(1.07143 -0.0557878 -6.54115e-21)
(1.15423 -0.0180018 -4.98286e-21)
(1.11095 -0.0169097 -4.59646e-35)
(1.18786 0.0608793 6.30727e-21)
(1.20034 0.0454648 -8.19275e-34)
(1.33306 0.137095 -1.24977e-20)
(1.42535 0.0960681 1.76572e-20)
(1.61494 0.18236 2.53333e-20)
(0.957871 -0.0927783 1.96658e-19)
(1.05836 -0.0888851 -4.94877e-21)
(0.959643 -0.0734818 -7.04235e-21)
(0.996818 -0.0351412 1.34086e-20)
(0.885904 -0.0134018 1.64995e-20)
(1.00175 0.0328026 1.45653e-20)
(0.971943 0.0297554 1.49302e-20)
(1.16858 0.0798124 -8.92458e-21)
(1.2222 0.0593994 -1.93988e-20)
(1.46845 0.103769 1.37432e-19)
(0.826765 -0.0464365 8.15194e-21)
(0.729885 -0.0336948 -9.32181e-35)
(0.534046 -0.0184018 -8.17803e-21)
(0.476975 -0.00280536 0)
(0.400369 0.000500928 0)
(0.47735 0.00929896 6.21668e-21)
(0.472041 0.00548676 -4.94065e-36)
(0.617441 0.0174067 -1.20567e-20)
(0.673719 0.00977831 -2.59216e-20)
(0.859477 0.0184631 5.46441e-20)
(1.67035 0.845788 -1.90212e-19)
(1.771 0.827567 -2.80753e-19)
(1.88801 0.792533 0)
(1.99627 0.749566 1.57142e-19)
(2.09668 0.689866 6.64608e-19)
(2.18663 0.625476 -1.14432e-19)
(2.26627 0.549963 1.69578e-18)
(2.3406 0.474024 -8.37811e-20)
(2.39978 0.39279 -3.66558e-19)
(2.45727 0.316344 3.22382e-19)
(1.69673 0.694297 9.78381e-20)
(1.77001 0.680055 1.11586e-19)
(1.86891 0.64527 -1.42707e-20)
(1.95138 0.608155 2.17674e-19)
(2.04685 0.552363 -1.77442e-19)
(2.11193 0.503096 -4.10752e-19)
(2.19581 0.438157 -1.25033e-19)
(2.24457 0.385646 5.5974e-19)
(2.32057 0.317728 -2.14868e-20)
(2.35058 0.267071 -4.74506e-19)