/*--------------------------------*- C++ -*----------------------------------*\
  =========                 |
  \\      /  F ield         | OpenFOAM: The Open Source CFD Toolbox
   \\    /   O peration     | Website:  https://openfoam.org
    \\  /    A nd           | Version:  13
     \\/     M anipulation  |
\*---------------------------------------------------------------------------*/
FoamFile
{
    format      ascii;
    class       volScalarField;
    location    "57.3";
    object      p;
}
// * * * * * * * * * * * * * * * * * * * * * * * * * * * * * * * * * * * * * //

dimensions      [0 2 -2 0 0 0 0];

internalField   nonuniform List<scalar> 
440
(
-0.818863
-0.804033
-0.7987
-0.761261
-0.811301
-0.890405
-0.871951
-0.849036
-0.820431
-0.796711
-1.00681
-0.97324
-0.931471
-0.877735
-0.817248
-1.14557
-1.09657
-1.00445
-0.8942
-0.782422
-1.23952
-1.17221
-1.0192
-0.860544
-0.715551
-1.04516
-1.08908
-1.1578
-1.21869
-1.26372
-1.01439
-1.01854
-1.03083
-1.04424
-1.0558
-0.935965
-0.925586
-0.918383
-0.914632
-0.907116
-0.855398
-0.83664
-0.808059
-0.772699
-0.738036
-0.77127
-0.759287
-0.734634
-0.684119
-0.664163
-1.3458
-0.651696
-0.119115
0.135129
0.0160458
-1.18609
-1.01475
-0.185444
0.0386036
0.00853812
-1.17039
-1.27015
-0.221033
0.0916172
0.00370526
-0.902219
-1.31528
-0.252033
0.0393048
-0.00158488
-0.694737
-1.27411
-0.274962
-0.0220057
-0.00120638
-0.454822
-1.07917
-0.245775
-0.026274
0.00594824
-0.253286
-0.685272
-0.167627
-0.147332
-0.0298334
-0.177715
-0.418217
-0.145397
0.0375345
-0.00868577
-0.120636
-0.263818
-0.155688
-0.0286134
-0.0236919
0.00181657
-0.241225
-0.181949
0.0146138
-0.00956625
-0.469482
-0.576369
-0.701058
-0.840313
-0.924413
-0.228729
-0.332843
-0.401411
-0.436881
-0.434807
-0.0646539
-0.151818
-0.211631
-0.240558
-0.260281
0.0403295
-0.0414608
-0.101807
-0.13286
-0.15185
0.090193
0.00820089
-0.0456794
-0.0670644
-0.0620086
0.804606
0.653477
0.461896
0.250943
0.025553
0.398631
0.241277
0.0501751
-0.166531
-0.408616
0.000926271
-0.158713
-0.35944
-0.583896
-0.811778
-0.338641
-0.50224
-0.706327
-0.926118
-1.10242
-0.571776
-0.736125
-0.925537
-1.12389
-1.23862
1.84962
1.8801
1.90742
1.92087
1.91725
1.66436
1.68505
1.69979
1.69735
1.67388
1.45529
1.44361
1.40899
1.35187
1.26975
1.21866
1.18529
1.11654
1.01826
0.89345
1.00684
0.903892
0.770254
0.617951
0.43562
1.62913
1.62332
1.59606
1.6709
1.73303
1.62021
1.61349
1.57824
1.65514
1.64727
1.61238
1.60086
1.55766
1.6282
1.53304
1.60574
1.5824
1.53619
1.58515
1.36775
1.60043
1.56914
1.51455
1.54203
1.19046
1.59708
1.54297
1.48735
1.44208
0.983286
1.59716
1.51424
1.48828
1.3223
1.11111
1.60277
1.50002
1.48762
1.25126
1.15943
1.60419
1.47471
1.48162
1.19126
1.17856
1.6384
1.47221
1.48047
1.15291
1.21995
0.778777
0.480734
0.14813
-0.136841
-0.322694
0.673111
0.470053
0.247638
0.0575867
-0.105988
0.656977
0.49212
0.330568
0.185061
0.048124
0.708897
0.553816
0.407934
0.273007
0.148736
0.75868
0.599523
0.4535
0.31949
0.196845
-1.74399
-1.58947
-1.40916
-1.25916
-1.16767
-1.85312
-1.77141
-1.6197
-1.48545
-1.39193
-1.80868
-1.75159
-1.64302
-1.53322
-1.43808
-1.68654
-1.64068
-1.57291
-1.49058
-1.40063
-1.55617
-1.53599
-1.49775
-1.43986
-1.35968
-1.49507
-1.49135
-1.46802
-1.45848
-1.35254
-1.44449
-1.44129
-1.42411
-1.42986
-1.35748
-1.40443
-1.39295
-1.37748
-1.36852
-1.3406
-1.49128
-1.51173
-1.54361
-1.57432
-1.59903
-1.38087
-1.44236
-1.53645
-1.64406
-1.73879
-0.962864
-0.368274
0.257624
0.310663
0.0109687
-1.03927
-0.357026
0.287164
0.328881
0.0117032
-1.21648
-0.545982
0.141588
0.300026
0.0124432
-1.683
-0.676502
-0.0941995
0.243236
0.0157129
-1.73447
-0.585742
-0.125377
0.212947
0.0179534
-0.576676
-0.554604
0.156695
0.278572
0.0177997
-0.820103
-0.426864
0.217887
0.311765
0.0224432
-1.1135
-1.33005
-1.34343
-1.25206
-1.01481
-1.13435
-1.34312
-1.36755
-1.28606
-1.19317
1.45853
1.43503
1.39424
1.33715
1.26158
1.65845
1.67704
1.68134
1.66934
1.6411
1.82648
1.85846
1.88418
1.89821
1.89792
1.92652
1.96508
2.00602
2.03887
2.05369
1.92979
1.96578
2.00543
2.03836
2.05327
-0.709372
-0.818005
-0.986448
-1.18877
-1.42236
-0.104893
-0.239266
-0.419087
-0.635957
-0.906046
0.445862
0.305609
0.137725
-0.0597084
-0.303447
0.887453
0.778859
0.64715
0.488056
0.296535
1.24157
1.16562
1.06777
0.950973
0.813829
1.68773
1.64732
1.62597
1.62603
1.61995
1.67296
1.64532
1.62659
1.6452
1.68978
1.66059
1.64219
1.62608
1.66905
1.76706
1.64919
1.63775
1.62043
1.67918
1.78264
1.63866
1.63188
1.60998
1.68009
1.77596
1.74327
1.65257
1.61205
1.54796
1.47846
1.6978
1.6434
1.60737
1.56954
1.49902
1.12654
0.896656
0.504402
-0.0605201
-0.674896
1.20666
0.929274
0.521954
-0.0397733
-0.668148
)
;

boundaryField
{
    left
    {
        type            zeroGradient;
    }
    right
    {
        type            fixedValue;
        value           uniform 0;
    }
    down
    {
        type            zeroGradient;
    }
    up
    {
        type            zeroGradient;
    }
    cylinder
    {
        type            zeroGradient;
    }
    defaultFaces
    {
        type            empty;
    }
}


// ************************************************************************* //
