/*--------------------------------*- C++ -*----------------------------------*\
  =========                 |
  \\      /  F ield         | OpenFOAM: The Open Source CFD Toolbox
   \\    /   O peration     | Website:  https://openfoam.org
    \\  /    A nd           | Version:  13
     \\/     M anipulation  |
\*---------------------------------------------------------------------------*/
FoamFile
{
    format      ascii;
    class       volScalarField;
    location    "0.6";
    object      p;
}
// * * * * * * * * * * * * * * * * * * * * * * * * * * * * * * * * * * * * * //

dimensions      [0 2 -2 0 0 0 0];

internalField   nonuniform List<scalar>
1800
(
-1.55700079451
-1.57023331256
-1.52128997002
-1.43143505504
-1.3308056233
-1.23553157313
-1.15117896707
-1.07730563819
-1.01251094271
-0.960495356546
-1.75658624274
-1.77088691775
-1.71365436934
-1.61167726483
-1.49861570585
-1.39185712109
-1.29739478251
-1.21513597248
-1.14444474188
-1.08723477113
-1.94809354321
-1.9627382127
-1.89631410056
-1.78202900313
-1.65656854111
-1.53824936251
-1.43322456406
-1.34130594095
-1.26136868409
-1.19407145408
-2.12625321022
-2.14048350496
-2.06443325838
-1.93845434822
-1.80174205465
-1.67329787001
-1.55928520885
-1.45933218175
-1.37215634553
-1.29815130131
-2.28505744202
-2.29801508551
-2.21196764985
-2.07501174138
-1.92801214451
-1.79042437359
-1.66821333147
-1.56082847708
-1.46685372864
-1.38603445391
-2.41928718052
-2.43017599479
-2.33422407322
-2.18747952375
-2.03170181368
-1.88654379919
-1.75766061708
-1.64428411728
-1.54481687005
-1.45861592032
-2.52373420048
-2.53176770376
-2.42630300124
-2.27118985364
-2.10821981332
-1.95709188076
-1.82300934101
-1.70495578009
-1.60119350155
-1.51071398931
-2.59404287007
-2.59851523527
-2.48447357946
-2.32255488191
-2.15423102619
-1.99893128872
-1.86127598989
-1.74000836993
-1.63323463505
-1.53963260995
-2.62673498052
-2.62707568307
-2.50568679648
-2.33860931106
-2.16692418609
-2.00939105867
-1.8697686435
-1.74673679293
-1.63827663269
-1.54272288425
-2.61968875382
-2.61559243405
-2.48761963901
-2.31800625344
-2.14486206165
-1.98683801517
-1.84670202944
-1.72318699722
-1.61420774329
-1.51781964763
-0.134286528845
-0.125507930922
-0.114069567711
-0.100388014866
-0.088925224061
-0.0819705745096
-0.0793766746293
-0.0802720943023
-0.0838401730142
-0.0894487703377
-0.181687727016
-0.174085196659
-0.161759980419
-0.145598569598
-0.13086506676
-0.120572513029
-0.114850917913
-0.112870887384
-0.113799251774
-0.116828125815
-0.255190980751
-0.249310446717
-0.235603617014
-0.215659442236
-0.195968253547
-0.180611567168
-0.170149763332
-0.16381124561
-0.16073817959
-0.159826545028
-0.353865812387
-0.350128303181
-0.334487553396
-0.309460034407
-0.283250591304
-0.261247811543
-0.244573669638
-0.232544743548
-0.224254492991
-0.218187831094
-0.476382240845
-0.475083707551
-0.456894149476
-0.425531864269
-0.391392910367
-0.361349317543
-0.337189312723
-0.31833406106
-0.303812634229
-0.291581729413
-0.620858985123
-0.622184729475
-0.600785058809
-0.561934236481
-0.518654050996
-0.479408543331
-0.44672947129
-0.420156697311
-0.39863663356
-0.379507040932
-0.784726497936
-0.788770981372
-0.763508045374
-0.716193812201
-0.662842254528
-0.613558071763
-0.571633267264
-0.536749910531
-0.507743459515
-0.481349063809
-0.964559390778
-0.971329147799
-0.941583784219
-0.885082287653
-0.821116176486
-0.761409558805
-0.709981833746
-0.666651660714
-0.63004029207
-0.596525561828
-1.15611528783
-1.16545706052
-1.13043328838
-1.06393486554
-0.988779702192
-0.918295006877
-0.857202814306
-0.805408884004
-0.761145531464
-0.721121884728
-1.35503167302
-1.36658175757
-1.32511700229
-1.24734394826
-1.15975625897
-1.07720806339
-1.00501241372
-0.943064341156
-0.889440752876
-0.842865744152
-0.133432082504
-0.2107143
-0.279602768562
-0.329859105106
-0.368317334486
-0.399239601358
-0.4259419778
-0.450293345612
-0.47339728834
-0.495906996939
-0.144779210108
-0.218670724676
-0.283346743801
-0.331944410169
-0.369734208108
-0.400318701311
-0.42676403695
-0.450877215788
-0.473750849437
-0.496035091972
-0.162530755399
-0.231045642681
-0.289117759799
-0.334897119932
-0.371480955373
-0.401506403076
-0.427603938507
-0.451446232994
-0.474086986962
-0.496156836127
-0.187602725126
-0.247375373599
-0.296839241478
-0.338703406475
-0.37356720605
-0.402811986807
-0.42846893817
-0.452006389147
-0.474409188019
-0.496272729129
-0.221352204087
-0.266996750404
-0.306370097792
-0.343337662118
-0.375992924789
-0.404240134987
-0.429364933773
-0.452562910084
-0.474721051148
-0.496383657032
-0.265517764732
-0.289084606624
-0.317485513157
-0.348751182095
-0.378758602018
-0.405795245396
-0.430297395302
-0.453121011465
-0.475025465415
-0.496489787838
-0.322112548059
-0.312772171434
-0.329797011445
-0.354860223329
-0.381856366133
-0.407482060265
-0.431271187129
-0.453685265363
-0.475325368411
-0.496591090854
-0.393239655008
-0.338580095609
-0.342979622119
-0.361572508158
-0.385275034089
-0.409303521605
-0.432290886207
-0.454260332791
-0.47562377461
-0.496687354012
-0.479208291675
-0.368712426597
-0.357313904657
-0.369018367631
-0.389096614591
-0.41130244241
-0.43337678554
-0.454856495455
-0.475924520949
-0.496779477805
-0.572809087894
-0.403293359923
-0.372588501848
-0.377059199544
-0.393284986387
-0.413476511225
-0.43453197723
-0.455478953642
-0.476232747868
-0.496861791681
-0.631562876644
-0.440445539665
-0.39073412659
-0.388427742066
-0.400305321808
-0.41772952922
-0.437115006473
-0.457027229409
-0.477040888133
-0.497059835023
-0.654984037366
-0.477908904214
-0.416416019725
-0.405303147248
-0.411212254606
-0.424674361716
-0.441508916474
-0.459728715811
-0.478499297164
-0.497504558444
-0.66088911146
-0.499699980938
-0.435057290652
-0.41926783611
-0.420997468914
-0.431206572648
-0.445745019911
-0.462365118913
-0.47993720454
-0.497950131605
-0.662902214329
-0.517631759507
-0.452045110789
-0.432139778587
-0.4301704694
-0.437445194501
-0.44984052755
-0.464932255028
-0.481347961543
-0.498393119401
-0.660419500149
-0.530574252651
-0.466373771485
-0.4435487177
-0.438541303273
-0.443260684215
-0.453709529077
-0.467377003983
-0.482702230362
-0.498823665174
-0.656035081253
-0.540453403463
-0.478532551055
-0.453594138622
-0.446062014432
-0.448567867237
-0.457279306191
-0.469650454803
-0.48397299697
-0.499233602423
-0.651797278956
-0.54838421299
-0.488848239521
-0.462332511597
-0.452689253424
-0.453293534198
-0.460485288819
-0.471707154865
-0.485136159738
-0.499616029593
-0.649082044481
-0.55539668535
-0.497748280914
-0.469865238327
-0.458401949447
-0.457379419614
-0.463271134541
-0.473506539002
-0.486169858808
-0.49996286394
-0.646962253906
-0.562079699246
-0.506131696892
-0.476851464949
-0.463645873087
-0.461113287466
-0.465820945252
-0.475167013016
-0.48716177312
-0.500321378273
-0.655016536311
-0.56923016043
-0.512639848245
-0.481823482192
-0.467250372256
-0.463648269123
-0.467542215929
-0.476282145362
-0.487822849276
-0.500557002699
-1.35656946247
-1.38119800911
-1.382628089
-1.36213731729
-1.32187611947
-1.26460227482
-1.19395731449
-1.11116503296
-1.0236018372
-0.927327791121
-1.18418978284
-1.210395601
-1.21774942914
-1.20763994739
-1.1809648837
-1.14133396418
-1.08965488857
-1.03035048479
-0.967135307825
-0.898969223228
-1.05190686404
-1.07760115789
-1.08808990337
-1.08457033166
-1.06707293987
-1.03973162002
-1.00119736822
-0.957550677238
-0.908654627886
-0.855531326336
-0.949384360495
-0.975377236734
-0.988123058957
-0.98879915411
-0.977350275684
-0.95758926083
-0.9277945673
-0.894100929476
-0.854946003197
-0.81283457909
-0.871812408184
-0.897565213207
-0.911693550451
-0.915116560178
-0.907928767735
-0.893210719523
-0.869812334686
-0.843066659854
-0.811249847728
-0.777292126081
-0.812540656585
-0.838365643438
-0.853654120055
-0.859107093568
-0.855066987652
-0.843913780298
-0.825214244671
-0.803327442948
-0.776659627722
-0.748268454373
-0.768521908609
-0.794622004192
-0.810883256098
-0.817868587765
-0.816129054493
-0.807488449904
-0.792089851123
-0.773502604916
-0.750494035376
-0.726059284376
-0.737298373295
-0.76404140785
-0.781355321213
-0.7896407008
-0.789623981675
-0.782746970767
-0.769540601722
-0.752974733767
-0.732262475217
-0.710494505839
-0.721221560425
-0.747565185567
-0.765790219058
-0.775477044041
-0.776930171056
-0.771204413025
-0.758984400975
-0.742663933358
-0.722111146
-0.699058625517
-0.707943885378
-0.738440650621
-0.760033586439
-0.773328375015
-0.778955657965
-0.777554271522
-0.769972128067
-0.757223192123
-0.739398914276
-0.716780496095
-0.0719601500454
-0.125275176649
-0.189935272446
-0.260019484156
-0.335515238877
-0.419405854156
-0.51338082724
-0.613621846203
-0.70168627829
-0.728793380423
-0.260722762821
-0.319120246513
-0.386832475402
-0.461769076065
-0.545404808875
-0.640260200635
-0.747099831518
-0.861234968672
-0.961539584365
-0.990325361921
-0.472865122854
-0.535027571123
-0.605062386111
-0.683814642419
-0.7734091286
-0.876033112854
-0.992192666925
-1.11697972534
-1.22739071335
-1.25625743309
-0.672192478648
-0.739381175408
-0.815119308278
-0.900903997447
-0.998624651904
-1.11033162965
-1.23648154273
-1.37205248526
-1.49262428958
-1.52035693673
-0.849951210414
-0.924005694926
-1.00746928445
-1.10190577675
-1.20911856464
-1.33117667189
-1.46834483107
-1.61524974929
-1.74650040025
-1.77155515866
-1.00999887298
-1.09094140065
-1.18200253005
-1.28483341407
-1.40128100602
-1.53338847529
-1.68097322139
-1.83793617172
-1.98023273266
-1.99923286113
-1.15424642512
-1.24082005323
-1.3383231313
-1.44842384581
-1.57299164548
-1.71392454025
-1.87029708615
-2.03422522497
-2.18861576303
-2.19327881092
-1.2800359899
-1.37098087885
-1.47365895027
-1.5896587441
-1.72097365286
-1.86948690797
-2.03303091928
-2.19930610225
-2.3588218194
-2.35327123762
-1.38337753934
-1.47789635123
-1.58466527021
-1.70505536962
-1.84124805161
-1.99599710644
-2.16758588838
-2.34118769017
-2.467313004
-2.48337402115
-1.46363181296
-1.55973743745
-1.6687634008
-1.79148022998
-1.93046489108
-2.08799409485
-2.26061068064
-2.4308401801
-2.5623582831
-2.57199253512
1.03330424406
1.04760421243
1.06386431451
1.08046016484
1.09596950185
1.10953412336
1.12033937954
1.12782200728
1.13305962913
1.13801827759
0.983492707694
0.995882931635
1.00972809917
1.02347954772
1.03583476409
1.04591932996
1.05288133451
1.05639309169
1.05827870272
1.06147055561
0.914145098727
0.923861739481
0.934208553239
0.94383264836
0.951621748843
0.956657083554
0.958036188457
0.955764015832
0.952881310755
0.953473543664
0.826017980989
0.832313923847
0.838164368964
0.842489900902
0.844405786258
0.842958756251
0.837173430905
0.827431938002
0.818415529624
0.815341850843
0.720001319603
0.722245862958
0.722810731541
0.720850108731
0.715764230903
0.706581588133
0.692240326404
0.673483775875
0.656430565355
0.650122852991
0.596963146008
0.594915567125
0.589704543368
0.580690523767
0.567651709379
0.549605267161
0.525446350629
0.496309240999
0.469876187587
0.46005761044
0.459114309692
0.453011087037
0.441902360159
0.425330168017
0.403520467694
0.375604319242
0.34044499378
0.299689680484
0.262790978953
0.249230580915
0.313021886944
0.302381399704
0.284140551474
0.258531425605
0.226489570999
0.187268950378
0.139744124847
0.0860715587267
0.0376791895421
0.0204564762686
0.167336872356
0.151677539376
0.124931954959
0.0884887936329
0.0443832127284
-0.0079370257539
-0.0695794135548
-0.137791977269
-0.19888199458
-0.219779753507
0.0380568048441
0.00608100953883
-0.0375011556541
-0.0892343241682
-0.147512399776
-0.213951686333
-0.290245378013
-0.373332802573
-0.447264321707
-0.471402147757
0.851692017105
0.944590153065
0.936148287224
0.768601583282
0.783677372702
0.795737085244
0.805470675412
0.827092754194
0.868877589794
0.972036940922
0.845906196748
0.94034600254
0.931368221372
0.762832698048
0.777467126037
0.788116918411
0.795568967775
0.813879454456
0.849558560732
0.938977879189
0.840446179898
0.936376671551
0.926466516005
0.756104308477
0.770779779852
0.779749707892
0.784152561404
0.798168008205
0.824927573592
0.894236354482
0.835302494228
0.932721923231
0.92141266504
0.748444190752
0.76368126858
0.770662917524
0.771220303052
0.77977777596
0.794426127627
0.838264072048
0.830514886147
0.929410327996
0.91620586364
0.73991804629
0.756244888204
0.760843546677
0.756795493841
0.758473139378
0.757488400617
0.771480730416
0.826140447486
0.92645006684
0.91080824377
0.730585563077
0.748546071481
0.750289092252
0.740850082905
0.734149280142
0.715900819874
0.691575866028
0.822249289569
0.923866107284
0.905183269805
0.720532756203
0.740656393773
0.738963513662
0.723352730544
0.706932342065
0.671205729885
0.595651906185
0.818903469397
0.921625369481
0.899297366329
0.709899304023
0.732632030204
0.726805021934
0.704294889477
0.676843907567
0.622424823587
0.485840262748
0.816197814947
0.919707027149
0.893120993346
0.698834831092
0.724490224774
0.71380573403
0.683815994473
0.643779469909
0.567639116958
0.358805347158
0.814445350068
0.918182203893
0.886683261581
0.687559300384
0.716153215641
0.699969169881
0.662267511303
0.609203882844
0.509083009897
0.230640779382
0.812695958968
0.915712800193
0.882307027043
0.676981510415
0.70389803883
0.681765154365
0.633927108649
0.564781407086
0.444127588599
0.110000077098
0.812713009487
0.9125942012
0.881115551238
0.66880328
0.689002042019
0.662058760304
0.605047276448
0.523129486699
0.38587766105
0.0729240351527
0.814786345793
0.910277498491
0.880144337635
0.661596239919
0.675249930991
0.643716547036
0.578887157507
0.487444905993
0.337797179965
0.0458561533174
0.819129597069
0.909009469287
0.879397425784
0.655412863981
0.663006408628
0.627194839886
0.555923863181
0.457434785228
0.298929292977
0.0296134510627
0.826709083291
0.908938742281
0.878932981009
0.650242037521
0.652497143659
0.612835760149
0.536423834623
0.432705285362
0.268975021555
0.0204995060245
0.836978147963
0.910068277515
0.878758136742
0.646128417089
0.643834416557
0.600831354923
0.52048467315
0.412936053076
0.247093422146
0.016048393144
0.856332906179
0.91234856802
0.878752309048
0.643043336551
0.637082733555
0.59130361835
0.508079732724
0.397867017138
0.232040400471
0.0148834606481
0.876694958226
0.915882471878
0.878848678219
0.64097763213
0.632317095706
0.584295646331
0.499152193552
0.387275714716
0.222656041166
0.0164553276352
0.890560040515
0.916404472453
0.876146568468
0.640159281844
0.629763053775
0.580015117297
0.493902608619
0.381314331626
0.218446726661
0.0221152981331
0.949397204463
0.927296177413
0.879701030117
0.638410260422
0.629884056081
0.578284762196
0.491857287961
0.378941835967
0.217866896094
0.0256031626097
-0.108245334082
-0.265372459202
-0.447656973799
-0.61976338997
-0.771994722613
-0.909358431435
-1.03508122168
-1.14624924904
-1.23808517974
-1.30843350068
-0.174031324081
-0.292255070562
-0.42863617861
-0.564002086912
-0.687316851748
-0.79940415236
-0.902994984342
-0.996163467302
-1.07611801236
-1.13932085215
-0.200919099792
-0.294585175529
-0.397975001327
-0.508583378311
-0.614666161531
-0.712309186353
-0.802715456405
-0.884720954062
-0.955178972488
-1.01120246959
-0.205667072049
-0.287281944385
-0.373015198398
-0.466440922997
-0.558760932864
-0.64442450527
-0.72371648163
-0.796054280257
-0.859010729822
-0.910434014176
-0.198944843544
-0.273588509821
-0.348536021892
-0.429627756161
-0.511843762607
-0.589436559163
-0.661531887795
-0.727709842934
-0.786063928107
-0.834569426105
-0.187586055425
-0.257674757735
-0.326033212194
-0.399051671486
-0.474263639773
-0.546216201756
-0.613309849587
-0.67510966845
-0.730070016275
-0.776319763441
-0.175481327245
-0.242348618443
-0.306371713973
-0.374092106428
-0.444566532079
-0.51266201366
-0.57637644753
-0.635225070817
-0.687900310652
-0.732759124128
-0.164087429274
-0.22880152217
-0.289943430818
-0.354408871975
-0.422039438746
-0.487806186367
-0.549508282352
-0.60659736907
-0.657845713815
-0.701757260828
-0.150609317535
-0.213664626491
-0.273501507178
-0.337179117187
-0.404337791577
-0.469915782012
-0.531656001531
-0.588971314046
-0.640675603817
-0.685188485471
-0.132638215744
-0.191362527518
-0.249888871557
-0.314329487497
-0.382126438031
-0.448413733668
-0.511355617821
-0.570128535058
-0.623362564928
-0.669647907187
-3.79526385808
-3.7761384402
-3.59732258274
-3.38442938133
-3.18052229155
-3.00433029975
-2.85696994447
-2.7356237414
-2.63817217222
-2.56393275906
-3.84687585761
-3.83901103406
-3.6738735468
-3.46281706667
-3.2567440051
-3.07694897432
-2.92648889117
-2.802522199
-2.70339568603
-2.62979418642
-3.78440790697
-3.78771748795
-3.63812220353
-3.43092658829
-3.22289848682
-3.0394069418
-2.88566912198
-2.75885527859
-2.65674720706
-2.57990222158
-3.61470390903
-3.62711851126
-3.49498764119
-3.2937965367
-3.08518660077
-2.89860457373
-2.74172563528
-2.61224011995
-2.5072722184
-2.42579265697
-3.35391050032
-3.37277669429
-3.25865349557
-3.06667495309
-2.86065878734
-2.6734539315
-2.51509151974
-2.38416360066
-2.27754541339
-2.19316117029
-3.02532692574
-3.04816961991
-2.95131659522
-2.77259918703
-2.57438359194
-2.39120547149
-2.2349792511
-2.10528689437
-1.99904030505
-1.91511470817
-2.65709755332
-2.68141761805
-2.60057804722
-2.43950991664
-2.25567655072
-2.0830772173
-1.93453549945
-1.81061405523
-1.70806617048
-1.62808047811
-2.2773769569
-2.30080648284
-2.23431452005
-2.09417712026
-1.93064521982
-1.774937496
-1.63971004567
-1.52618799127
-1.431641844
-1.35851910601
-1.91030555381
-1.93099393714
-1.87708163432
-1.7593497127
-1.61989750329
-1.48593666264
-1.36899739377
-1.2705727299
-1.18841889729
-1.12842731254
-1.5715514559
-1.58845119491
-1.54498648279
-1.44861981339
-1.33348380967
-1.22225322615
-1.12459297779
-1.04156405968
-0.969971559081
-0.915917887881
-1.269272224
-1.28213644768
-1.24714185558
-1.17002056503
-1.07790971038
-0.989371590965
-0.91242051374
-0.848189452695
-0.79413245978
-0.747534184431
-1.00610856599
-1.01478693908
-0.98648175619
-0.925541029279
-0.853201560528
-0.784292757379
-0.72498833571
-0.67592672193
-0.635477404556
-0.598292138839
-0.78069255285
-0.785391080539
-0.762161727309
-0.714191187116
-0.657898834831
-0.604960621351
-0.559888384771
-0.522859127923
-0.492802389281
-0.464820092857
-0.590980662579
-0.592115950943
-0.572845936065
-0.535440080366
-0.492482240176
-0.453036066207
-0.420237716515
-0.393904393673
-0.373108947483
-0.354124955486
-0.435135246128
-0.433190192382
-0.417009959871
-0.388135179305
-0.356141153377
-0.327906810468
-0.30542841088
-0.288256187587
-0.275479738715
-0.264473556711
-0.311450330279
-0.306902677044
-0.293000711263
-0.270714643017
-0.247346367773
-0.227978871355
-0.213722769042
-0.203944814707
-0.197759780525
-0.193375884507
-0.21848791812
-0.211835330637
-0.199492115054
-0.181984512801
-0.16502834785
-0.152280611069
-0.144207699994
-0.140050154773
-0.138954409921
-0.139704526884
-0.155107427627
-0.146908775508
-0.135513745356
-0.121146400409
-0.108500646281
-0.100228286266
-0.0963580566248
-0.096056114872
-0.0984903092899
-0.102812175597
-0.120375070238
-0.111288736336
-0.100334008019
-0.0876071866615
-0.0772614538014
-0.0713946412917
-0.0698017900054
-0.0716024375943
-0.0759820269712
-0.0822984407189
-0.113678389794
-0.104374652449
-0.0933743871338
-0.0808429630319
-0.0708738124742
-0.0654251239681
-0.0642355874824
-0.0664184502761
-0.0711612802119
-0.0778889693027
-0.46755223909
-0.347470172657
-0.341247127721
-0.35153898329
-0.369469045722
-0.391989856115
-0.416686880119
-0.442196953581
-0.468047068579
-0.494045581559
-0.37008376425
-0.316464444649
-0.328352283902
-0.346068178148
-0.368256419753
-0.392586474107
-0.417836719436
-0.443289654207
-0.468788846398
-0.494297120271
-0.293472800749
-0.292223617091
-0.317893479293
-0.342162763023
-0.367391870494
-0.393211779399
-0.41892192672
-0.444305026865
-0.469474621742
-0.494530763583
-0.23668055429
-0.272364136294
-0.308094979951
-0.338220384497
-0.366643021222
-0.393830980151
-0.419936988785
-0.445245304212
-0.470107710736
-0.49474766449
-0.195285606762
-0.254636953007
-0.299073380949
-0.334820857412
-0.366107323114
-0.394462100444
-0.420892109371
-0.446117001071
-0.470692294857
-0.494949167629
-0.166058572551
-0.238518981715
-0.291294799189
-0.332071019622
-0.365800969542
-0.395119503055
-0.421797338426
-0.44692716608
-0.471232102473
-0.495136836245
-0.146287015066
-0.225059987756
-0.285096340517
-0.330027281112
-0.365741112101
-0.395813169517
-0.422663185218
-0.447682401953
-0.471731097162
-0.495311668311
-0.134005029687
-0.21461211026
-0.280707900109
-0.328748587475
-0.365948416407
-0.396559306102
-0.423500310583
-0.448389720053
-0.472193234736
-0.495474993642
-0.128152259914
-0.208766102204
-0.278296881877
-0.328275783395
-0.366435907911
-0.397370294674
-0.424319246193
-0.449056174477
-0.472622246708
-0.495627912569
-0.127955242789
-0.207406763455
-0.277918806647
-0.328638900226
-0.367221319638
-0.39825970724
-0.425129947077
-0.449688447087
-0.473022300925
-0.495771575974
-0.67851391606
-0.478210492855
-0.402400650327
-0.380604880486
-0.381563684951
-0.395863505783
-0.417053218934
-0.441374086378
-0.467117714181
-0.493612483477
-0.631217903217
-0.452670465537
-0.392154848676
-0.376523142201
-0.380212548003
-0.395513938962
-0.417065668153
-0.441493085665
-0.467243509829
-0.4936713041
-0.601886969824
-0.433870184633
-0.382654921927
-0.371980761076
-0.378151925545
-0.394824627277
-0.416965379086
-0.441605583674
-0.467396825534
-0.493748600431
-0.568857210756
-0.410288209834
-0.370690053086
-0.366068461425
-0.375625102308
-0.393777115865
-0.416699811624
-0.441641957806
-0.467506805299
-0.49380717975
-0.527583640151
-0.378026490281
-0.354388151686
-0.357821918137
-0.371883440278
-0.392410207003
-0.416297654517
-0.441619735108
-0.467587083114
-0.493852876885
-2.49554204841
-2.56280355159
-2.53249959908
-2.41293559538
-2.21892898328
-1.98680597381
-1.71833278091
-1.47376468144
-1.23903361998
-1.03771051696
-2.49241448762
-2.55808646833
-2.52113850931
-2.3942707226
-2.19512595006
-1.96043473904
-1.69609073625
-1.45569242112
-1.22572109453
-1.01196743294
-2.4946629844
-2.55892356786
-2.5167252831
-2.38178660352
-2.17475583486
-1.92801282976
-1.65573668047
-1.39859134126
-1.16826371149
-0.97796581295
-2.50517745993
-2.57036615804
-2.52416721893
-2.37933497466
-2.15922500053
-1.89535159097
-1.61582990636
-1.35306988685
-1.13133021372
-0.948919018159
-2.52471133387
-2.59102785987
-2.54044230513
-2.38554307478
-2.15246337801
-1.87534177654
-1.59042111295
-1.32485501145
-1.10124556745
-0.908331055999
0.462091784492
0.440888424538
0.409984348591
0.372164832089
0.329411582674
0.280343326368
0.222758530691
0.15876245049
0.101784043475
0.0806810563929
0.582730390346
0.578353378166
0.564989486815
0.543521953229
0.516060508408
0.482201563281
0.440638393623
0.393264455894
0.351124578014
0.335973942416
0.705326161473
0.705336374107
0.699776626084
0.688847422082
0.673375407269
0.652688324089
0.625524800476
0.593232844653
0.56453174446
0.554700958823
0.815006965373
0.819275056191
0.820502532287
0.818244321079
0.812544423549
0.802545352562
0.787127868924
0.767178687129
0.74952413353
0.743928194225
0.907142537742
0.914903915686
0.921325210356
0.925749589375
0.927693680693
0.926252030583
0.920340317057
0.91047155157
0.901831322578
0.89964804395
0.979002930586
0.989943593307
1.00087599113
1.01082299703
1.01896115985
1.02435906158
1.02604906607
1.0241525428
1.02209060757
1.02354032295
1.03040651982
1.04381433415
1.05820953385
1.07233679115
1.08511871569
1.09566209287
1.10304760945
1.1070588644
1.10971683406
1.11382530151
1.06165209953
1.07659960025
1.09326567785
1.11016115236
1.12602141856
1.13994271691
1.15107563853
1.15894831222
1.16471037577
1.17029928093
1.07256789919
1.08816983512
1.10587963533
1.12409832254
1.14142790858
1.15696781094
1.16991204705
1.17962622421
1.1868511559
1.19299690563
1.06305277322
1.07845319511
1.09602701864
1.11411040611
1.13127932784
1.14665576671
1.15946405255
1.1690560784
1.17611115994
1.18204951378
-2.39071651361
-2.46792497178
-2.56480186017
-2.68328221179
-2.82677287599
-2.9986248129
-3.20117868865
-3.4115272229
-3.6052990338
-3.63261259015
-2.13183185951
-2.21024473372
-2.30606580996
-2.42120677926
-2.5598162868
-2.72544630772
-2.91716120694
-3.12310280127
-3.35036789078
-3.37138950836
-1.81183073101
-1.8885476862
-1.98209289173
-2.09366157194
-2.22679799533
-2.38459259407
-2.5686961675
-2.77728654728
-2.98811136056
-3.0303643571
-1.45123893368
-1.52725559987
-1.61908727164
-1.72742388044
-1.85516935067
-2.00569709407
-2.18159976766
-2.3796053737
-2.56861721931
-2.62674841893
-1.07915060832
-1.15634005544
-1.24669952088
-1.35080335819
-1.47144442313
-1.61212484589
-1.77539786307
-1.95723877029
-2.12806659313
-2.18884685019
-0.7302709014
-0.805401375509
-0.890900869146
-0.98725451418
-1.09726385256
-1.22443558523
-1.37124736517
-1.53364587395
-1.68474133219
-1.74179247251
-0.420301956407
-0.487863259917
-0.563771065767
-0.648346031222
-0.744426643971
-0.855444092482
-0.983631204557
-1.1250239047
-1.25529552007
-1.30567393663
-0.138704559466
-0.196161729717
-0.261144287882
-0.333167525793
-0.41515658894
-0.510571227695
-0.621225101893
-0.743027754582
-0.85389052333
-0.896852043787
0.12850935535
0.0802746283203
0.021988997517
-0.0423763300641
-0.114525512106
-0.197896673057
-0.294109671864
-0.399018311416
-0.492832908868
-0.528700133303
0.35528167935
0.314076191306
0.25923985472
0.199597971
0.136055652128
0.0654451925585
-0.0145855079857
-0.100902050954
-0.176988360287
-0.20556206474
0.94388817895
0.993827990842
0.959892928751
0.769203225589
0.824859080407
0.831021861267
0.825070483275
0.822996572564
0.785608618297
0.630802747408
0.929852421667
0.989491245551
0.961248607286
0.773034424239
0.821566139861
0.831089287372
0.828310831342
0.833798076037
0.815091260736
0.71832964738
0.917335754196
0.984716078391
0.961477828581
0.776418860049
0.818189298838
0.830278925861
0.83157950328
0.843530314605
0.841151256233
0.805993876487
0.906229712598
0.979657245436
0.960637573411
0.779096277773
0.814760284591
0.828650129774
0.833264762479
0.8506559449
0.861103482506
0.873575936845
0.896274484329
0.974433134902
0.958854500169
0.780852678474
0.811252859626
0.826176332315
0.833546806461
0.855204229481
0.876496146341
0.925757804359
0.887280063081
0.969153303657
0.956268762985
0.781584298684
0.80757763633
0.822923813605
0.832444381968
0.857043130415
0.88874412709
0.962433882831
0.879060207716
0.963929135919
0.953037405333
0.781189752418
0.803637397424
0.818946075029
0.829958206635
0.856050001553
0.895552201899
0.987215296477
0.871499154618
0.958817961855
0.949293470609
0.779691100812
0.799346289167
0.81424322187
0.826055829492
0.852417450082
0.896585307191
1.00100780294
0.864449186474
0.953871448696
0.945162276069
0.777064054644
0.794608335344
0.808807139818
0.820694590941
0.846342459524
0.892364318547
1.00279451338
0.857860496464
0.94911810696
0.940760884225
0.773355752373
0.789400063865
0.802633576268
0.813837313887
0.837895065023
0.883127955305
0.993302748669
1.07925080849
1.01051578712
0.962734416624
0.766040261412
0.827443797646
0.824611803067
0.804931392931
0.779603732014
0.686878323252
0.499225399251
1.01973997421
1.0031443908
0.962017651155
0.767977509007
0.826561612977
0.825756604281
0.806536763346
0.78264586086
0.693204912255
0.502025114394
1.00088298875
1.00275103966
0.964005048799
0.767766493641
0.826728542143
0.827025842796
0.809558535573
0.788570886423
0.707503022395
0.506946107187
0.978809611297
1.00048477549
0.962453566769
0.767508586214
0.826810313096
0.828373140451
0.813684045381
0.797078997271
0.727202797011
0.523667149586
0.9598516142
0.997445637028
0.960123065959
0.767219886302
0.826691406517
0.829721136129
0.818539000346
0.807917084315
0.751528805514
0.543910454242
0.147585692597
0.00621826080704
-0.191716766099
-0.468089121472
-0.804474607217
-1.15925499987
-1.49843093918
-1.81080833567
-2.096845599
-2.33395320005
0.140328201132
0.00113558435853
-0.18663009859
-0.450056276894
-0.774047828992
-1.12578040917
-1.47233701875
-1.79586019271
-2.08875365975
-2.33025498436
0.167534187876
0.0182330270427
-0.174482931674
-0.431237033452
-0.743714270723
-1.09317421168
-1.45029972961
-1.78552332633
-2.08489361269
-2.33040518663
0.227508305018
0.0541307100705
-0.158089574723
-0.4149042769
-0.718892329804
-1.06638250742
-1.43211759021
-1.77893761826
-2.08593873085
-2.33663317792
0.313211344441
0.110799330952
-0.132082612164
-0.399367309511
-0.702461159683
-1.04929055541
-1.42012945488
-1.77662983937
-2.0927340885
-2.35074618739
)
;

boundaryField
{
    left
    {
        type            zeroGradient;
    }
    right
    {
        type            fixedValue;
        value           uniform 0;
    }
    down
    {
        type            zeroGradient;
    }
    up
    {
        type            zeroGradient;
    }
    cylinder
    {
        type            zeroGradient;
    }
    defaultFaces
    {
        type            empty;
    }
}


// ************************************************************************* //
