/*--------------------------------*- C++ -*----------------------------------*\
  =========                 |
  \\      /  F ield         | OpenFOAM: The Open Source CFD Toolbox
   \\    /   O peration     | Website:  https://openfoam.org
    \\  /    A nd           | Version:  13
     \\/     M anipulation  |
\*---------------------------------------------------------------------------*/
FoamFile
{
    format      ascii;
    class       volVectorField;
    location    "0.995";
    object      U;
}
// * * * * * * * * * * * * * * * * * * * * * * * * * * * * * * * * * * * * * //

dimensions      [0 1 -1 0 0 0 0];

internalField   nonuniform List<vector> 
1800
(
(0.0978001 -0.0883279 -4.4882e-20)
(0.286894 -0.24195 -3.4111e-20)
(0.473972 -0.379043 -4.85007e-19)
(0.657691 -0.500158 1.91467e-19)
(0.836612 -0.607172 7.44042e-20)
(1.00992 -0.70138 -3.90496e-20)
(1.17716 -0.783475 5.54998e-20)
(1.33794 -0.85369 1.97506e-19)
(1.4916 -0.912978 5.92316e-19)
(1.63354 -0.966921 8.10115e-19)
(0.11906 -0.0915021 -7.9109e-20)
(0.34429 -0.247708 -7.70611e-19)
(0.563281 -0.384749 3.78144e-21)
(0.775363 -0.504236 1.25733e-19)
(0.979506 -0.608922 -1.26247e-19)
(1.17522 -0.700697 7.65656e-20)
(1.36232 -0.780792 -2.8074e-19)
(1.54078 -0.850105 -5.03083e-20)
(1.71011 -0.910714 -6.93602e-19)
(1.86786 -0.967058 6.29843e-19)
(0.14165 -0.0923226 4.88225e-20)
(0.403679 -0.24773 2.09287e-19)
(0.653754 -0.382116 5.43302e-19)
(0.892177 -0.497904 -1.90253e-19)
(1.11866 -0.598385 -1.4299e-19)
(1.33321 -0.685813 7.56024e-20)
(1.53606 -0.761708 9.82337e-20)
(1.72743 -0.827301 1.94051e-19)
(1.90721 -0.884808 2.73663e-21)
(2.07422 -0.937878 1.50978e-19)
(0.163906 -0.0897205 -4.57189e-20)
(0.461697 -0.239469 -2.0439e-19)
(0.741427 -0.367618 -1.81257e-19)
(1.00451 -0.476976 -1.4229e-19)
(1.25162 -0.571022 1.81301e-19)
(1.48351 -0.652128 -5.70876e-20)
(1.70093 -0.721907 -4.30994e-21)
(1.90453 -0.781624 2.90529e-21)
(2.09456 -0.833369 -1.60489e-19)
(2.27026 -0.880362 -1.05917e-19)
(0.184657 -0.0833562 -1.14034e-19)
(0.515893 -0.221807 8.76392e-20)
(0.823291 -0.33943 1.79834e-19)
(1.10931 -0.439063 2.43296e-19)
(1.37561 -0.524071 -2.8501e-19)
(1.62371 -0.596778 -3.58067e-21)
(1.85494 -0.658768 4.2495e-19)
(2.07043 -0.711264 -1.85055e-19)
(2.27083 -0.756166 -1.23984e-19)
(2.45578 -0.796401 -5.3538e-20)
(0.203189 -0.0734999 1.73587e-19)
(0.56447 -0.1952 1.02983e-18)
(0.89679 -0.298074 1.43257e-19)
(1.20351 -0.384735 -5.03127e-19)
(1.48719 -0.458226 -1.75496e-19)
(1.75003 -0.520669 6.37664e-19)
(1.9939 -0.573525 -1.45365e-19)
(2.22036 -0.617901 -4.31557e-19)
(2.43047 -0.655446 -3.16673e-19)
(2.6242 -0.688745 2.61586e-19)
(0.218898 -0.0605912 1.16339e-19)
(0.605744 -0.1607 -7.47582e-19)
(0.959312 -0.24503 -1.08559e-18)
(1.2837 -0.315798 3.83777e-19)
(1.58223 -0.375564 4.49928e-19)
(1.85767 -0.426128 -9.02013e-22)
(2.11239 -0.46874 -6.3965e-19)
(2.34829 -0.504326 2.1931e-19)
(2.56683 -0.534214 -3.64522e-19)
(2.76827 -0.560572 -3.11226e-19)
(0.231235 -0.0451722 -3.42481e-19)
(0.638198 -0.119684 -6.92591e-19)
(1.00849 -0.182294 1.21219e-18)
(1.34677 -0.2347 5.98691e-19)
(1.65693 -0.278852 -2.6975e-19)
(1.94224 -0.316136 -2.11491e-19)
(2.20543 -0.347516 0)
(2.44874 -0.37369 1.16797e-19)
(2.67398 -0.395623 -2.95837e-19)
(2.88171 -0.414971 -7.74179e-20)
(0.239766 -0.0278753 -2.04463e-19)
(0.660651 -0.0737557 5.62375e-19)
(1.04249 -0.112198 1.71005e-19)
(1.39031 -0.144289 -5.12484e-19)
(1.7084 -0.171277 -7.8418e-19)
(2.00037 -0.194054 3.66183e-20)
(2.26923 -0.213246 1.67126e-19)
(2.51752 -0.229294 -5.4683e-19)
(2.74731 -0.242785 -2.89766e-19)
(2.95953 -0.254779 -5.6359e-19)
(0.244259 -0.0094024 4.51401e-19)
(0.672451 -0.024704 3.44143e-19)
(1.0603 -0.0373616 -9.38584e-20)
(1.41303 -0.0477885 -1.29776e-20)
(1.73514 -0.0564624 -3.87501e-19)
(2.03041 -0.0637233 -8.57328e-20)
(2.30205 -0.0698104 -2.90573e-19)
(2.55275 -0.0748907 6.4655e-19)
(2.7848 -0.0791717 1.71001e-19)
(2.99945 -0.0830126 2.21989e-21)
(-0.00234127 -0.0217702 -3.54753e-20)
(0.00856853 -0.0693621 -6.9895e-20)
(0.024845 -0.120627 -7.33416e-21)
(0.0492816 -0.171415 -3.39218e-20)
(0.077632 -0.216831 -1.27393e-20)
(0.106458 -0.254966 -3.90091e-19)
(0.135469 -0.288889 -1.95683e-20)
(0.166249 -0.322211 1.19954e-19)
(0.199075 -0.355746 1.09379e-20)
(0.232965 -0.388135 -3.57009e-20)
(0.00085209 -0.0246643 -9.77637e-20)
(0.0149299 -0.0850512 -2.13755e-19)
(0.0393433 -0.160442 -5.28804e-20)
(0.0692649 -0.225426 -1.10216e-19)
(0.0994593 -0.275718 -9.60774e-20)
(0.1304 -0.318143 -2.79186e-19)
(0.164405 -0.359144 2.0014e-19)
(0.202066 -0.400573 1.68824e-19)
(0.241568 -0.440518 -2.57061e-19)
(0.281073 -0.476918 8.14543e-20)
(0.00549736 -0.0314704 -8.54175e-20)
(0.0287722 -0.107401 -8.69524e-19)
(0.0628696 -0.196179 -1.30305e-19)
(0.0974515 -0.269075 9.24205e-20)
(0.131789 -0.327319 6.76412e-20)
(0.169608 -0.380395 -4.47525e-19)
(0.212902 -0.432449 3.5319e-20)
(0.259097 -0.481974 3.67027e-19)
(0.305439 -0.526455 -3.86769e-19)
(0.351379 -0.565864 -2.58716e-19)
(0.0113682 -0.0409665 -1.77394e-21)
(0.0466238 -0.130868 1.90262e-19)
(0.0896524 -0.225371 1.60263e-21)
(0.133079 -0.307092 -1.06909e-20)
(0.177775 -0.377936 -2.99341e-20)
(0.227223 -0.443941 8.55387e-20)
(0.281079 -0.505738 7.25171e-20)
(0.335648 -0.56103 -1.35942e-19)
(0.389703 -0.609527 9.21188e-21)
(0.443865 -0.652107 -1.04426e-20)
(0.0185084 -0.0507595 0)
(0.0672391 -0.152424 5.52186e-21)
(0.121946 -0.253653 -5.11542e-19)
(0.178698 -0.345506 5.17717e-20)
(0.237804 -0.428616 -9.42811e-21)
(0.300511 -0.505147 4.86089e-21)
(0.365305 -0.574456 -2.51452e-20)
(0.429799 -0.635532 -7.76218e-21)
(0.493933 -0.688953 0)
(0.558123 -0.734977 -2.05803e-20)
(0.0273245 -0.0596434 3.18966e-20)
(0.091895 -0.172852 -1.54648e-19)
(0.161769 -0.282529 -4.62376e-20)
(0.234632 -0.383904 -5.82561e-20)
(0.309738 -0.476776 4.95555e-20)
(0.386739 -0.561571 6.10058e-21)
(0.464245 -0.637753 8.8619e-20)
(0.540939 -0.705012 -2.17524e-20)
(0.616909 -0.763528 -6.95839e-19)
(0.692159 -0.812745 -1.00991e-20)
(0.0379735 -0.0676008 6.74246e-22)
(0.121236 -0.192175 5.54582e-20)
(0.209164 -0.310617 -7.83337e-20)
(0.299928 -0.420182 -1.66794e-20)
(0.392139 -0.520681 -7.29065e-20)
(0.484782 -0.612148 -9.23686e-21)
(0.576707 -0.694357 1.02424e-20)
(0.666948 -0.767189 -2.11212e-19)
(0.755534 -0.830324 3.83291e-19)
(0.842327 -0.882392 9.7124e-19)
(0.0503601 -0.0745986 1.50998e-20)
(0.155128 -0.209607 -1.42205e-19)
(0.263462 -0.335963 -2.13639e-19)
(0.373671 -0.452112 8.89619e-20)
(0.484105 -0.55827 -6.43046e-20)
(0.593549 -0.654627 9.85088e-20)
(0.700951 -0.741294 1.96477e-19)
(0.805418 -0.818327 -1.08878e-19)
(0.907032 -0.885152 -3.05823e-19)
(1.00571 -0.939578 7.25151e-19)
(0.0642889 -0.0803582 -2.65186e-20)
(0.193284 -0.224023 -5.78106e-19)
(0.324296 -0.356557 5.24271e-19)
(0.455684 -0.47723 3.37456e-19)
(0.585741 -0.586747 -8.59079e-20)
(0.713228 -0.685665 3.08556e-19)
(0.837136 -0.774444 -1.59934e-19)
(0.956573 -0.853476 -7.72493e-19)
(1.07174 -0.922062 -4.03618e-19)
(1.18269 -0.977316 4.53547e-19)
(0.0795442 -0.084665 -7.98152e-20)
(0.235844 -0.234415 -5.44372e-19)
(0.392391 -0.370523 -8.3223e-21)
(0.547542 -0.492794 6.887e-20)
(0.699596 -0.602464 3.37729e-19)
(0.847395 -0.700436 -1.85371e-19)
(0.990018 -0.787448 -1.69416e-19)
(1.12654 -0.863838 1.88934e-19)
(1.25682 -0.928667 -3.51568e-19)
(1.38008 -0.98038 -5.84473e-19)
(0.40285 -0.532302 9.81533e-19)
(0.684757 -0.618946 -2.38515e-19)
(0.913678 -0.558473 -1.41588e-19)
(1.08775 -0.432302 2.66868e-19)
(1.24054 -0.281447 -2.29403e-19)
(1.36332 -0.141134 -2.98254e-19)
(1.46269 -0.0376651 -2.65905e-19)
(1.52423 0.01585 -3.18289e-20)
(1.54843 0.0330923 -6.04384e-20)
(1.57126 0.0254235 3.08571e-20)
(0.468785 -0.620153 9.63859e-19)
(0.741366 -0.694372 7.07912e-20)
(0.966154 -0.61854 1.09943e-20)
(1.1248 -0.481606 -2.14133e-19)
(1.26579 -0.321911 -7.09639e-19)
(1.38162 -0.174052 0)
(1.48248 -0.0632539 -2.4855e-19)
(1.56194 0.000483824 5.18816e-20)
(1.60356 0.0253301 4.60725e-21)
(1.64265 0.0204797 3.58712e-20)
(0.556132 -0.705783 -9.98364e-19)
(0.810655 -0.767327 -7.13068e-20)
(1.02537 -0.676445 1.56405e-19)
(1.16606 -0.528717 -5.41236e-20)
(1.29121 -0.361145 -3.65962e-20)
(1.39755 -0.206858 6.39115e-20)
(1.49422 -0.0908188 0)
(1.58307 -0.0201329 0)
(1.64286 0.0115729 6.49052e-22)
(1.70626 0.0123874 0)
(0.665642 -0.787498 -2.252e-19)
(0.895485 -0.835863 4.05747e-19)
(1.09178 -0.731124 2.68502e-20)
(1.21227 -0.572641 0)
(1.31774 -0.398245 6.0562e-19)
(1.41219 -0.238487 -1.39224e-19)
(1.50138 -0.118926 0)
(1.59303 -0.042909 1.40279e-19)
(1.65838 -0.00893756 0)
(1.75834 0.000368574 -5.51399e-20)
(0.795709 -0.864148 -1.48774e-19)
(0.997535 -0.897999 4.56599e-19)
(1.16602 -0.781426 -1.46559e-20)
(1.26361 -0.612553 0)
(1.34612 -0.432379 1.80623e-19)
(1.42609 -0.26814 2.63754e-19)
(1.50578 -0.146393 4.66535e-20)
(1.59691 -0.0659709 6.37615e-21)
(1.65737 -0.031465 -1.56333e-20)
(1.79011 -0.0197724 3.79669e-20)
(0.942241 -0.934983 -1.33433e-18)
(1.11641 -0.952387 -9.44811e-19)
(1.2487 -0.82609 4.7523e-21)
(1.31983 -0.647737 5.77047e-19)
(1.37671 -0.462772 -3.08849e-19)
(1.4394 -0.295211 1.45895e-19)
(1.5085 -0.172283 2.26456e-19)
(1.5941 -0.0888286 -1.88288e-19)
(1.65638 -0.0527819 -1.90596e-21)
(1.76455 -0.0415802 -2.94695e-20)
(1.10011 -0.999628 -2.6132e-19)
(1.24996 -0.998842 2.87396e-19)
(1.34005 -0.864003 3.89475e-21)
(1.38061 -0.677515 -1.76597e-20)
(1.40958 -0.488686 -5.95905e-19)
(1.45214 -0.319125 5.34575e-20)
(1.50979 -0.196091 -9.49161e-20)
(1.58692 -0.109517 -2.56391e-20)
(1.65058 -0.073747 1.53412e-20)
(1.71085 -0.0529526 -2.4376e-20)
(1.26435 -1.05698 -1.20017e-18)
(1.39472 -1.03797 2.10488e-19)
(1.43904 -0.894579 0)
(1.44498 -0.701459 3.44659e-20)
(1.44403 -0.509648 5.24064e-19)
(1.46391 -0.339486 -1.95996e-21)
(1.50858 -0.217466 -3.23464e-19)
(1.57972 -0.127735 8.29069e-20)
(1.61441 -0.0876172 -2.43584e-21)
(1.64499 -0.0589423 -7.41959e-20)
(1.43203 -1.10361 3.39083e-18)
(1.54804 -1.07069 2.45516e-19)
(1.54551 -0.918526 4.65531e-19)
(1.51319 -0.719985 -3.17909e-20)
(1.48018 -0.52581 -3.44762e-20)
(1.47419 -0.356557 -4.28006e-19)
(1.50522 -0.235214 9.9993e-20)
(1.55313 -0.143775 3.14276e-21)
(1.55605 -0.0919435 -2.42568e-20)
(1.57126 -0.0617357 8.76135e-20)
(1.59927 -1.12827 -2.99791e-18)
(1.70187 -1.09585 1.27175e-18)
(1.65388 -0.938491 -2.33784e-19)
(1.58136 -0.736585 -7.89951e-19)
(1.51499 -0.540704 -6.53558e-19)
(1.48056 -0.374036 -2.4837e-19)
(1.49471 -0.253506 -7.44439e-20)
(1.49522 -0.149994 0)
(1.48914 -0.0931976 -8.61131e-20)
(1.4924 -0.0629077 1.78165e-19)
(1.88822 -1.17031 -6.7096e-18)
(1.92742 -1.10538 -1.69117e-18)
(1.80479 -0.932662 -5.76952e-20)
(1.67306 -0.728294 1.11564e-19)
(1.56143 -0.535748 1.57079e-19)
(1.48833 -0.374561 -9.76216e-20)
(1.43621 -0.250276 -3.98032e-20)
(1.41058 -0.148126 7.85717e-20)
(1.39601 -0.0919909 -6.88469e-20)
(1.38735 -0.0626953 -8.15094e-20)
(2.28937 -1.13495 4.96011e-19)
(2.17885 -1.0569 -2.93823e-19)
(1.94258 -0.865639 4.8473e-19)
(1.73532 -0.665221 -8.25226e-20)
(1.56064 -0.481982 -1.67634e-20)
(1.4243 -0.334797 -7.7416e-20)
(1.33624 -0.224658 9.03999e-20)
(1.29375 -0.136123 -3.3182e-20)
(1.27175 -0.0858972 2.27706e-19)
(1.25272 -0.0594329 1.05542e-19)
(2.61059 -1.04367 2.27078e-18)
(2.35186 -0.948883 3.25676e-19)
(2.00795 -0.759672 -1.17481e-19)
(1.7319 -0.573217 1.69559e-36)
(1.50391 -0.411589 -2.56907e-20)
(1.33708 -0.287681 1.49007e-33)
(1.22995 -0.194638 -2.19988e-20)
(1.17093 -0.120977 -1.79579e-33)
(1.14132 -0.0773116 7.26169e-21)
(1.1136 -0.0539958 -9.72626e-21)
(2.78699 -0.894015 3.88517e-33)
(2.36929 -0.795706 2.96657e-18)
(1.97329 -0.630625 1.81611e-18)
(1.65297 -0.469585 0)
(1.40559 -0.335411 8.27756e-19)
(1.22823 -0.23423 4.22157e-19)
(1.1112 -0.159461 1.70692e-19)
(1.04167 -0.101796 -3.16166e-33)
(1.00554 -0.0661732 -5.15802e-20)
(0.971078 -0.0467537 4.34741e-21)
(2.7636 -0.705923 3.84238e-18)
(2.2458 -0.629929 -1.46794e-19)
(1.84634 -0.491098 0)
(1.51525 -0.361783 0)
(1.27075 -0.255941 0)
(1.09632 -0.178757 0)
(0.979187 -0.122836 -1.29699e-20)
(0.905678 -0.0803731 -4.42138e-33)
(0.865357 -0.0531526 8.24521e-21)
(0.826324 -0.0382054 2.28188e-34)
(2.55114 -0.517051 3.26539e-18)
(2.02 -0.462934 0)
(1.63846 -0.353677 0)
(1.32661 -0.256762 0)
(1.10067 -0.179798 0)
(0.941115 -0.1257 0)
(0.832565 -0.0872176 3.32275e-20)
(0.761663 -0.0584035 -9.63928e-20)
(0.720599 -0.039169 9.12091e-21)
(0.67989 -0.0289212 2.11436e-20)
(2.1901 -0.342717 0)
(1.7026 -0.30352 1.09792e-18)
(1.36123 -0.227621 1.09011e-18)
(1.09123 -0.16199 0)
(0.898258 -0.112366 6.65921e-19)
(0.76367 -0.0787759 4.01696e-19)
(0.671121 -0.0552579 2.48951e-19)
(0.608663 -0.0378566 8.64757e-20)
(0.570768 -0.0255295 -4.61468e-20)
(0.531961 -0.0196576 -4.62171e-23)
(1.70285 -0.191139 -6.73878e-19)
(1.30017 -0.165597 -2.7418e-19)
(1.02502 -0.121763 1.75656e-19)
(0.815039 -0.0844331 -2.11235e-34)
(0.667641 -0.0580838 -7.71573e-20)
(0.566005 -0.0410693 3.69779e-33)
(0.495359 -0.0292373 4.87805e-20)
(0.446279 -0.0205729 9.90235e-20)
(0.415362 -0.0137384 1.03422e-20)
(0.382494 -0.0113008 -3.21395e-22)
(1.10088 -0.0758225 3.40807e-18)
(0.823153 -0.0626798 -1.86604e-19)
(0.640565 -0.0442962 -5.89049e-19)
(0.506125 -0.0289852 0)
(0.413798 -0.0195647 -6.40211e-19)
(0.350585 -0.0141361 -4.32152e-19)
(0.306038 -0.010403 -2.0456e-19)
(0.274271 -0.00774601 -1.46277e-19)
(0.253676 -0.00509419 1.93534e-19)
(0.231066 -0.00468438 -3.91932e-20)
(0.397351 -0.00331885 0)
(0.287865 0.00159453 0)
(0.220886 0.0040944 0)
(0.173545 0.00624849 0)
(0.142371 0.00585969 0)
(0.121177 0.00472135 0)
(0.105826 0.00370847 5.58735e-20)
(0.0944435 0.00264446 -2.17259e-34)
(0.0867917 0.00245438 1.27828e-20)
(0.0780695 0.00113371 1.14155e-20)
(3.3671 -0.0863126 5.39218e-19)
(3.32642 -0.265088 -8.4188e-20)
(3.24735 -0.430659 8.52084e-19)
(3.13238 -0.582162 -6.04746e-19)
(2.98634 -0.718131 6.664e-19)
(2.81524 -0.836391 2.7525e-19)
(2.62661 -0.934071 -1.92742e-18)
(2.42952 -1.00786 -7.74989e-20)
(2.22469 -1.0537 0)
(1.98487 -1.06659 4.25979e-19)
(3.86191 -0.0750611 7.07367e-18)
(3.79859 -0.234217 1.95629e-18)
(3.70428 -0.387316 -4.86734e-18)
(3.58426 -0.531999 -4.49148e-19)
(3.44239 -0.665904 3.55898e-18)
(3.28186 -0.787334 1.92357e-18)
(3.10651 -0.895086 -5.16891e-18)
(2.92205 -0.987728 -1.95227e-18)
(2.72761 -1.06342 2.20324e-18)
(2.49239 -1.12056 8.52208e-19)
(3.83307 -0.0533026 -1.2626e-19)
(3.82024 -0.17157 4.40352e-18)
(3.78545 -0.299766 -1.08813e-18)
(3.72433 -0.430925 -3.44615e-18)
(3.63617 -0.558738 -6.79978e-18)
(3.52371 -0.678813 1.02787e-17)
(3.39117 -0.788807 4.18059e-18)
(3.2435 -0.888004 -3.91188e-18)
(3.08161 -0.978744 -2.90282e-18)
(2.88723 -1.06304 -3.42515e-18)
(3.62866 -0.0472876 -4.83934e-18)
(3.61961 -0.144934 -4.35337e-18)
(3.59963 -0.243744 5.47204e-18)
(3.56735 -0.343099 1.91183e-18)
(3.5224 -0.442385 -8.97101e-18)
(3.46415 -0.540817 4.92124e-19)
(3.39181 -0.637057 3.88626e-18)
(3.3051 -0.730445 -1.05388e-18)
(3.20497 -0.823082 1.27675e-18)
(3.08303 -0.914794 2.81782e-19)
(3.34405 -0.0365798 -9.1598e-19)
(3.339 -0.111657 3.00406e-18)
(3.3271 -0.188678 1.61956e-18)
(3.30744 -0.267173 -1.89424e-18)
(3.27986 -0.346072 -2.00133e-18)
(3.24465 -0.424141 -2.43389e-18)
(3.20203 -0.50034 3.79641e-19)
(3.15174 -0.574502 1.39048e-19)
(3.09547 -0.64777 -2.1396e-18)
(3.03284 -0.721319 -2.03425e-18)
(2.96257 -0.0265557 -1.82247e-18)
(2.95981 -0.07989 -5.87277e-20)
(2.9533 -0.1346 -1.6375e-18)
(2.9424 -0.190904 3.12134e-19)
(2.92675 -0.248551 5.36776e-18)
(2.90629 -0.306931 -3.66743e-19)
(2.88091 -0.365117 4.43372e-20)
(2.85022 -0.422062 -2.60854e-18)
(2.81643 -0.476887 -3.49556e-18)
(2.78599 -0.52987 3.72872e-19)
(2.48713 -0.0175117 -2.89323e-20)
(2.48578 -0.0519355 -8.143e-19)
(2.48259 -0.0872488 -2.6148e-18)
(2.47707 -0.123772 -3.43097e-18)
(2.4688 -0.161534 2.49651e-18)
(2.45744 -0.200268 1.50223e-18)
(2.44261 -0.239354 -1.38506e-18)
(2.4237 -0.277792 1.62448e-18)
(2.40274 -0.314485 -4.29699e-19)
(2.38952 -0.349543 -9.63758e-19)
(1.91464 -0.00968894 7.72442e-19)
(1.91408 -0.028298 -8.31781e-19)
(1.91278 -0.04744 -3.2768e-20)
(1.91032 -0.0673593 -3.47241e-20)
(1.90624 -0.0881303 -7.27403e-20)
(1.90013 -0.109615 -2.33191e-18)
(1.89151 -0.131405 -6.7867e-19)
(1.87978 -0.152783 2.6261e-18)
(1.86664 -0.172976 -6.03509e-19)
(1.86191 -0.192208 -1.35115e-18)
(1.23989 -0.00373787 -1.64278e-18)
(1.23967 -0.0106958 -8.48893e-19)
(1.23923 -0.0179013 2.33915e-18)
(1.23823 -0.0254786 -8.89758e-19)
(1.23625 -0.0334753 -6.74111e-19)
(1.2329 -0.0418316 1.35201e-18)
(1.22775 -0.05035 -1.29588e-18)
(1.22038 -0.0586655 1.28698e-18)
(1.21202 -0.0663427 -1.21032e-18)
(1.21007 -0.0735086 -4.2483e-18)
(0.454917 -0.000258 6.63065e-19)
(0.454827 -0.000700546 7.03038e-19)
(0.454692 -0.00115912 7.48165e-19)
(0.454325 -0.00164005 1.35394e-18)
(0.453496 -0.00214017 -6.71973e-19)
(0.451984 -0.00263717 -1.2996e-18)
(0.449568 -0.00309908 6.14708e-19)
(0.445993 -0.0035929 2.48375e-20)
(0.441737 -0.0043922 -4.96535e-20)
(0.44035 -0.00504562 1.1057e-19)
(1.65358 0.99731 -2.85851e-19)
(1.51228 0.941887 1.79914e-20)
(1.3588 0.880766 -2.28811e-19)
(1.19768 0.808452 1.76294e-19)
(1.02958 0.723987 -1.91805e-19)
(0.854826 0.627081 -1.01075e-19)
(0.673759 0.516944 2.31967e-19)
(0.487035 0.392147 -3.04865e-19)
(0.29589 0.250642 3.09879e-19)
(0.101429 0.091643 2.38686e-19)
(1.8864 0.992215 0)
(1.72969 0.934757 6.3945e-19)
(1.56084 0.872781 3.32704e-19)
(1.38229 0.801861 1.62623e-19)
(1.19453 0.719883 4.31077e-19)
(0.997534 0.625901 -8.68374e-20)
(0.79136 0.518602 -7.85249e-20)
(0.576345 0.395989 8.87321e-20)
(0.353316 0.255174 -1.04513e-18)
(0.122697 0.0943544 -1.6664e-20)
(2.09105 0.959053 1.568e-19)
(1.92524 0.905079 0)
(1.74614 0.84647 -1.00729e-19)
(1.55494 0.779554 -3.83289e-19)
(1.3517 0.702085 5.37019e-20)
(1.13609 0.61279 3.97057e-19)
(0.907782 0.510088 -6.06832e-19)
(0.666588 0.391637 -2.00885e-19)
(0.412594 0.254043 7.83573e-19)
(0.14525 0.0947344 -1.75919e-19)
(2.28485 0.898364 1.87917e-19)
(2.11045 0.850567 1.19656e-20)
(1.9213 0.797865 2.45302e-20)
(1.71811 0.737003 3.60776e-20)
(1.50058 0.665857 -2.93007e-20)
(1.26792 0.583132 2.73229e-19)
(1.01926 0.487167 -2.06868e-19)
(0.753672 0.375529 -8.55531e-19)
(0.470269 0.244677 0)
(0.167387 0.0916959 0)
(2.46796 0.811824 -1.07087e-18)
(2.28436 0.77084 -6.09281e-19)
(2.08493 0.725063 -1.20691e-19)
(1.87003 0.671523 -6.65688e-20)
(1.6389 0.608295 0)
(1.39031 0.534136 2.40739e-19)
(1.12275 0.447433 2.67763e-19)
(0.834553 0.345834 2.86226e-19)
(0.523838 0.225952 -4.23722e-19)
(0.187907 0.0848976 -8.12305e-20)
(2.634 0.702096 7.66472e-19)
(2.44156 0.668065 -1.39168e-19)
(2.23244 0.62968 -2.21599e-19)
(2.00664 0.584306 0)
(1.76301 0.530279 0)
(1.49987 0.466487 0)
(1.21522 0.391463 -3.89784e-20)
(0.906682 0.303089 3.70271e-19)
(0.571497 0.198347 3.79147e-19)
(0.206082 0.0746239 -3.08558e-19)
(2.7758 0.572357 -1.1936e-18)
(2.5755 0.545261 -1.48142e-18)
(2.35786 0.51453 -3.03378e-22)
(2.1226 0.477946 -1.87647e-19)
(1.86818 0.434181 -9.28773e-20)
(1.59257 0.382317 -1.78829e-19)
(1.29332 0.321124 4.59077e-19)
(0.967487 0.248836 2.14862e-19)
(0.611582 0.162966 5.40011e-19)
(0.221314 0.06134 2.02847e-19)
(2.88707 0.425749 -1.15709e-18)
(2.68027 0.405633 8.47037e-20)
(2.45576 0.38282 1.64527e-19)
(2.21296 0.355611 1.68137e-20)
(1.95004 0.32305 -3.14393e-19)
(1.66465 0.284468 -1.742e-19)
(1.35397 0.238937 -6.21195e-19)
(1.01463 0.18514 1.18529e-19)
(0.642603 0.121236 5.1473e-20)
(0.233065 0.0456125 -6.26925e-21)
(2.96279 0.265187 1.01368e-19)
(2.7512 0.252354 3.96999e-19)
(2.52189 0.237904 -3.3029e-19)
(2.27394 0.22074 3.63004e-19)
(2.00523 0.200296 3.72541e-19)
(1.71322 0.176176 4.91887e-19)
(1.39481 0.147809 -6.35728e-19)
(1.04633 0.114389 -3.24409e-19)
(0.66341 0.0748095 -4.58505e-20)
(0.240915 0.028095 -3.26988e-19)
(3.00052 0.093577 5.81811e-19)
(2.78612 0.0887854 -1.86162e-19)
(2.55425 0.0834437 4.79557e-19)
(2.30366 0.0771499 -3.10657e-19)
(2.03208 0.0697276 2.66476e-19)
(1.73679 0.0610616 6.05398e-19)
(1.41457 0.0509782 3.78878e-19)
(1.06161 0.0392345 3.09336e-19)
(0.673395 0.0255065 2.65857e-19)
(0.244653 0.0095072 5.43605e-19)
(0.239689 0.452358 -4.69362e-19)
(0.204075 0.418626 -1.88039e-19)
(0.168492 0.381523 1.39275e-19)
(0.134944 0.343834 -4.191e-19)
(0.105198 0.30769 -1.19334e-19)
(0.0782985 0.270435 6.92939e-19)
(0.0519242 0.22403 3.35757e-19)
(0.0259975 0.159149 -1.54913e-19)
(0.00706908 0.07977 1.15027e-19)
(-0.0011203 0.0224673 -6.07885e-20)
(0.288686 0.544664 4.11599e-19)
(0.248779 0.50786 4.58671e-19)
(0.208229 0.465798 -1.15056e-20)
(0.167892 0.418746 -1.32952e-19)
(0.131157 0.37059 -3.1405e-19)
(0.10062 0.322965 8.28696e-20)
(0.0734946 0.269623 2.2552e-19)
(0.0459181 0.197141 1.65699e-19)
(0.0183618 0.102012 -5.91555e-19)
(0.00279834 0.0289121 -1.23706e-19)
(0.359648 0.633477 -6.01133e-19)
(0.313787 0.593316 -4.81654e-19)
(0.267996 0.547464 2.57961e-19)
(0.221358 0.494136 1.38557e-19)
(0.175812 0.434344 -6.26626e-21)
(0.136271 0.372096 -1.40349e-19)
(0.10212 0.30579 -2.97371e-20)
(0.0684443 0.225035 -5.54796e-19)
(0.0336875 0.126125 -2.69306e-19)
(0.00764799 0.0378372 -3.90492e-20)
(0.454185 0.718199 5.03512e-19)
(0.400032 0.673986 1.6475e-19)
(0.346345 0.622954 -1.49541e-19)
(0.292216 0.563887 6.32185e-20)
(0.237742 0.495762 -6.35295e-22)
(0.186583 0.42105 1.26854e-21)
(0.140103 0.340794 -1.32603e-19)
(0.0954628 0.25035 3.7796e-19)
(0.0514452 0.147804 -4.19084e-19)
(0.0135892 0.047739 -6.49944e-20)
(0.571978 0.798133 -2.82193e-19)
(0.507835 0.750019 -8.88766e-20)
(0.443559 0.693149 -1.43721e-20)
(0.378955 0.627403 -7.05894e-20)
(0.313712 0.552117 5.87086e-20)
(0.24966 0.468188 5.30019e-20)
(0.18838 0.376806 -2.80219e-20)
(0.129328 0.276715 -2.81896e-19)
(0.0725336 0.167681 2.18245e-19)
(0.0209249 0.0568567 8.72297e-20)
(0.709403 0.871172 6.43198e-19)
(0.634357 0.819769 3.20553e-19)
(0.558123 0.757579 2.02616e-19)
(0.480851 0.68549 4.82338e-20)
(0.402411 0.603629 1.55423e-19)
(0.323871 0.512439 7.87815e-20)
(0.246469 0.412572 1.43663e-19)
(0.170869 0.303947 5.79537e-20)
(0.0980578 0.186821 -1.5799e-20)
(0.0300013 0.0650388 -1.32464e-20)
(0.862023 0.935044 -1.1979e-19)
(0.775545 0.880826 -8.24152e-19)
(0.686706 0.814178 -7.54422e-20)
(0.595728 0.736912 -5.30947e-20)
(0.502565 0.649691 -1.99886e-20)
(0.408128 0.552757 1.51729e-19)
(0.313481 0.446341 -4.38024e-20)
(0.219713 0.330431 6.4932e-20)
(0.128296 0.20509 -1.44626e-19)
(0.0409062 0.0724973 -1.27762e-21)
(1.02674 0.986166 -8.84456e-19)
(0.92848 0.929749 5.94336e-20)
(0.826667 0.859794 -2.34307e-19)
(0.721471 0.778951 -7.22468e-20)
(0.612775 0.688052 -2.37034e-20)
(0.501462 0.587097 -7.52066e-20)
(0.38853 0.475911 5.62397e-20)
(0.275165 0.354205 6.02881e-20)
(0.162983 0.221562 -9.82071e-21)
(0.0535449 0.0791217 -1.03756e-19)
(1.20391 1.01803 1.23814e-19)
(1.09352 0.961023 5.22857e-19)
(0.978266 0.889782 1.54988e-21)
(0.858233 0.807599 -2.94061e-20)
(0.733152 0.71533 1.50716e-19)
(0.603896 0.612568 -3.4711e-19)
(0.471406 0.498761 -2.44311e-19)
(0.336832 0.373214 3.56075e-19)
(0.201772 0.235009 1.44162e-19)
(0.0677022 0.0845326 -3.61949e-20)
(1.40061 1.01554 7.39507e-19)
(1.27807 0.962403 3.23592e-19)
(1.14784 0.895408 5.59644e-20)
(1.01088 0.816434 -1.94739e-19)
(0.867277 0.726543 -1.64156e-20)
(0.717905 0.62535 4.65476e-19)
(0.563586 0.512011 -2.68169e-19)
(0.405341 0.385478 -1.84462e-19)
(0.244705 0.24432 3.35771e-19)
(0.0831135 0.0884404 -6.02996e-21)
(0.977867 0.0991501 8.55491e-21)
(1.14 0.142992 -2.50672e-21)
(1.21339 0.191469 -2.47307e-20)
(1.32593 0.169222 0)
(1.38019 0.154716 -9.33969e-22)
(1.28087 0.233634 -6.04114e-20)
(1.13076 0.38545 -5.4873e-20)
(0.950168 0.543677 -9.06207e-21)
(0.712094 0.648702 -3.09242e-19)
(0.416746 0.595904 4.18656e-19)
(0.983804 0.0805658 2.0169e-19)
(1.13139 0.115328 -3.29273e-20)
(1.21055 0.161038 1.88034e-21)
(1.31666 0.149359 1.02629e-20)
(1.38498 0.156988 3.11641e-21)
(1.30087 0.268457 -5.28055e-22)
(1.16065 0.435818 7.25146e-21)
(0.994611 0.606906 0)
(0.76183 0.727848 8.09924e-19)
(0.479495 0.687147 -5.71922e-19)
(0.989629 0.0622799 -1.15352e-19)
(1.12765 0.0886564 6.28009e-21)
(1.21083 0.131427 7.88002e-20)
(1.31352 0.128129 1.93215e-20)
(1.38896 0.158167 -2.33376e-20)
(1.32074 0.30137 -3.46062e-20)
(1.19353 0.484745 -1.77483e-20)
(1.04449 0.668562 4.49466e-20)
(0.823248 0.804404 -1.29688e-21)
(0.564476 0.774957 -3.57556e-19)
(0.995049 0.0436435 -8.14375e-20)
(1.12848 0.0626003 1.53222e-20)
(1.21451 0.102451 7.53898e-20)
(1.31688 0.106801 3.19575e-20)
(1.39492 0.159036 -2.40709e-20)
(1.34067 0.332303 -2.85393e-20)
(1.22982 0.531488 8.60014e-20)
(1.1004 0.727487 2.70367e-20)
(0.899897 0.876097 -5.52532e-19)
(0.673655 0.857363 -1.77384e-19)
(0.999493 0.0241427 3.59784e-20)
(1.13301 0.0367245 -4.45441e-20)
(1.22104 0.0739843 -6.72152e-20)
(1.32534 0.0861987 2.33271e-20)
(1.40204 0.160507 0)
(1.36046 0.36158 0)
(1.26966 0.575346 8.44015e-20)
(1.16352 0.782274 -2.83476e-20)
(0.994582 0.94043 -1.18682e-19)
(0.805062 0.932722 -5.73475e-20)
(1.00214 0.00357636 3.17353e-21)
(1.14009 0.0106002 5.81183e-20)
(1.22942 0.0459261 -2.06346e-19)
(1.33689 0.0668597 -7.80336e-20)
(1.40919 0.163409 -4.70384e-21)
(1.38004 0.389296 1.34046e-19)
(1.31331 0.615427 1.59511e-19)
(1.23542 0.831193 -1.80672e-20)
(1.10771 0.995605 -4.48221e-20)
(0.953734 1.0004 3.3615e-21)
(1.00208 -0.018002 3.09275e-21)
(1.14873 -0.0161557 3.10113e-20)
(1.2387 0.018299 -6.5418e-20)
(1.34992 0.0492413 -1.59081e-19)
(1.41552 0.167998 1.16144e-20)
(1.39974 0.415083 7.23466e-21)
(1.3614 0.650593 -6.01112e-20)
(1.31721 0.87259 -1.05297e-19)
(1.2372 1.04135 -3.153e-20)
(1.11387 1.06054 -9.79258e-19)
(0.998888 -0.0401914 1.51871e-20)
(1.15841 -0.0438542 -1.48333e-19)
(1.24832 -0.00870778 1.33002e-19)
(1.36317 0.0340547 1.04569e-19)
(1.41996 0.174728 4.98293e-21)
(1.41956 0.438439 -1.39639e-19)
(1.41381 0.679801 1.52744e-21)
(1.40821 0.905545 -1.38639e-19)
(1.37927 1.07855 1.10964e-20)
(1.27989 1.1126 2.88296e-18)
(0.992953 -0.0624678 -8.98688e-20)
(1.1691 -0.0726279 8.27005e-20)
(1.25809 -0.0348942 1.92399e-19)
(1.37598 0.0213931 -1.16611e-19)
(1.4231 0.183364 -2.34652e-19)
(1.44112 0.459038 9.26373e-21)
(1.47183 0.702921 1.72112e-19)
(1.50837 0.930776 -5.82279e-19)
(1.53082 1.10849 -2.68583e-20)
(1.44839 1.15355 -6.4754e-18)
(0.985254 -0.0853741 4.08262e-21)
(1.18113 -0.102473 1.45488e-19)
(1.268 -0.0600691 6.24707e-20)
(1.38732 0.0138962 -2.82946e-19)
(1.42284 0.197987 -2.51885e-19)
(1.46198 0.480438 -7.66411e-20)
(1.53105 0.723754 8.60818e-20)
(1.6115 0.951638 -1.98997e-19)
(1.68373 1.1308 -1.08541e-18)
(1.61567 1.17248 -7.951e-18)
(0.974887 -0.116517 -1.4493e-20)
(1.19591 -0.14212 -3.38278e-20)
(1.27741 -0.0939004 -7.86712e-20)
(1.39801 6.93037e-05 1.50426e-19)
(1.42313 0.197477 2.07439e-19)
(1.49145 0.475794 -6.37305e-20)
(1.6118 0.713053 -1.41881e-19)
(1.75371 0.940743 -1.19786e-18)
(1.9028 1.13277 -1.59849e-18)
(1.89939 1.20881 3.28563e-18)
(0.962314 -0.15534 -4.03647e-19)
(1.21492 -0.191677 2.02093e-20)
(1.28179 -0.139874 -5.95136e-20)
(1.39834 -0.0211696 3.50385e-19)
(1.39941 0.175442 3.49188e-19)
(1.49241 0.430333 1.3605e-20)
(1.66776 0.648515 -6.33676e-20)
(1.88053 0.866259 -2.75584e-19)
(2.13954 1.07158 2.82869e-19)
(2.28457 1.16095 -3.2362e-19)
(0.949537 -0.195994 -2.79277e-20)
(1.24037 -0.241668 -5.50997e-20)
(1.28141 -0.18472 3.11068e-20)
(1.39354 -0.0387686 2.70116e-20)
(1.37143 0.164738 1.71239e-33)
(1.46823 0.372541 2.55947e-21)
(1.67968 0.561781 -2.02459e-33)
(1.94868 0.759856 1.84948e-19)
(2.30179 0.956543 -9.30714e-19)
(2.58734 1.05855 -6.29236e-19)
(0.937071 -0.242866 1.41078e-18)
(1.27187 -0.281862 -7.76447e-34)
(1.25001 -0.22964 -4.09082e-20)
(1.26867 -0.0381602 -2.28662e-19)
(1.25974 0.145467 -4.43436e-19)
(1.38818 0.303305 -8.77358e-19)
(1.61837 0.460392 -5.0509e-33)
(1.9288 0.631297 -1.73681e-18)
(2.32557 0.802202 -3.17774e-18)
(2.75367 0.902651 1.67501e-18)
(0.927329 -0.300519 0)
(1.3169 -0.326978 -1.62578e-33)
(1.11301 -0.207323 0)
(1.10615 -0.0304944 0)
(1.11755 0.115251 0)
(1.25793 0.23331 0)
(1.48911 0.355642 -8.0407e-33)
(1.81472 0.4917 0)
(2.2133 0.634354 -3.3967e-19)
(2.73491 0.712057 1.25737e-18)
(0.916516 -0.360812 1.16141e-19)
(1.25153 -0.326108 -4.67488e-19)
(0.960345 -0.174359 -5.52958e-20)
(0.933132 -0.0263008 0)
(0.955158 0.0827662 0)
(1.08968 0.16573 6.02618e-20)
(1.30601 0.254032 1.1747e-18)
(1.61579 0.354762 -1.95054e-19)
(1.99662 0.466238 -4.95305e-19)
(2.53241 0.5205 4.67324e-18)
(0.883484 -0.405307 -1.52012e-17)
(1.09208 -0.279938 1.086e-18)
(0.792846 -0.130645 -7.28373e-20)
(0.746483 -0.0212632 -7.20822e-20)
(0.772177 0.0525476 -5.13443e-19)
(0.889257 0.104667 -7.73256e-19)
(1.0761 0.161357 -1.04749e-18)
(1.34595 0.229058 -1.38157e-18)
(1.68757 0.306133 -1.60471e-18)
(2.17991 0.344453 3.61202e-18)
(0.809013 -0.394511 -4.13725e-19)
(0.886456 -0.207577 -1.21661e-18)
(0.605662 -0.0829236 -1.25594e-19)
(0.54935 -0.0153657 -8.42747e-20)
(0.571402 0.0276018 -9.91986e-34)
(0.661391 0.0546067 9.3558e-20)
(0.805307 0.0846299 -1.48439e-32)
(1.01616 0.12296 -1.93434e-19)
(1.29245 0.167315 2.98976e-19)
(1.69929 0.192073 7.05794e-19)
(0.664259 -0.28884 3.4255e-17)
(0.618255 -0.108099 -3.13981e-18)
(0.393431 -0.035138 -2.40565e-19)
(0.339209 -0.0073753 -1.59764e-19)
(0.353493 0.00924029 3.94372e-19)
(0.410336 0.0183743 7.84629e-19)
(0.501113 0.0292082 7.95553e-19)
(0.636704 0.0448917 4.59913e-19)
(0.820747 0.0634585 -1.90481e-19)
(1.10156 0.0762259 3.56953e-18)
(0.33684 -0.0768224 5.58849e-19)
(0.261851 -0.00230515 -6.76613e-33)
(0.144396 0.0190758 -3.04776e-19)
(0.120355 0.00338441 0)
(0.123539 -0.00235603 0)
(0.141803 -0.00542185 9.62937e-20)
(0.172342 -0.00624911 9.37062e-35)
(0.220288 -0.00417846 -1.23567e-19)
(0.288129 -0.00161965 -2.8264e-19)
(0.399012 0.00331815 1.00162e-18)
(2.00207 1.09647 -1.78996e-18)
(2.23908 1.0785 -2.30496e-18)
(2.44209 1.02913 0)
(2.63708 0.952524 -7.57956e-19)
(2.82359 0.852523 -1.7825e-18)
(2.99276 0.7324 -2.24949e-18)
(3.13709 0.595048 -4.75731e-19)
(3.25054 0.442702 1.26927e-18)
(3.32824 0.276966 -3.5479e-18)
(3.36764 0.0986983 1.35668e-18)
(2.49869 1.14204 2.67785e-19)
(2.73058 1.08197 1.39745e-18)
(2.92389 1.00424 1.4393e-19)
(3.10675 0.90983 6.75744e-19)
(3.28061 0.800681 -1.10402e-18)
(3.43997 0.678339 -5.00062e-18)
(3.58097 0.544022 2.46813e-18)
(3.70048 0.399327 1.27037e-17)
(3.79428 0.246328 1.04073e-19)