# Selection   : all
# Cells       : 440
# Volume      : 7.374263e+01
# Time        	minMag(U)
3.2           	2.317501e-02
3.25          	2.194065e-02
3.3           	2.075562e-02
