/*--------------------------------*- C++ -*----------------------------------*\
  =========                 |
  \\      /  F ield         | OpenFOAM: The Open Source CFD Toolbox
   \\    /   O peration     | Website:  https://openfoam.org
    \\  /    A nd           | Version:  13
     \\/     M anipulation  |
\*---------------------------------------------------------------------------*/
FoamFile
{
    format      ascii;
    class       surfaceScalarField;
    location    "0.12";
    object      phi;
}
// * * * * * * * * * * * * * * * * * * * * * * * * * * * * * * * * * * * * * //

dimensions      [0 3 -1 0 0 0 0];

internalField   nonuniform List<scalar> 
3485
(
0.00136509
-0.0112614
0.00989633
0.00502853
-0.0319153
0.0282519
0.0107181
-0.0513962
0.0457066
0.0182365
-0.0696959
0.0621776
0.0274332
-0.0868616
0.077665
0.038194
-0.102937
0.0921764
0.0504306
-0.117954
0.105717
0.0641
-0.13193
0.118261
0.0793005
-0.144932
0.129731
-0.156972
0.139642
0.0966307
0.00149579
-0.0127572
0.00542952
-0.0358491
0.0114421
-0.0574088
0.0192662
-0.0775201
0.028687
-0.0962825
0.0395273
-0.113778
0.0516429
-0.130069
0.0649261
-0.145213
0.0792864
-0.159292
-0.172226
0.0945401
0.00147118
-0.0142284
0.00531568
-0.0396936
0.01115
-0.0632431
0.0186786
-0.0850487
0.0276609
-0.105265
0.0378975
-0.124014
0.0492229
-0.141395
0.0614979
-0.157488
0.0745916
-0.172386
-0.186028
0.0883944
0.00133685
-0.0155652
0.00485109
-0.0432078
0.0101932
-0.0685852
0.0170859
-0.0919414
0.0253055
-0.113484
0.0346713
-0.13338
0.0450376
-0.151761
0.0562848
-0.168736
0.0683072
-0.184408
-0.198754
0.0810325
0.00116556
-0.0167308
0.00425039
-0.0462926
0.00896038
-0.0732952
0.0150589
-0.0980399
0.0223559
-0.120781
0.0307011
-0.141725
0.0399769
-0.161037
0.0500911
-0.17885
0.0609667
-0.195283
-0.210344
0.0725567
0.000979102
-0.0177099
0.00358405
-0.0488976
0.00757755
-0.0772887
0.0127675
-0.10323
0.0190001
-0.127014
0.0261551
-0.14888
0.0341407
-0.169022
0.0428878
-0.187597
0.0523418
-0.204738
-0.220474
0.0624722
0.000780127
-0.01849
0.00286236
-0.0509798
0.00606269
-0.080489
0.0102313
-0.107398
0.0152481
-0.132031
0.0210199
-0.154652
0.0274777
-0.17548
0.034573
-0.194692
0.0422718
-0.212436
-0.228763
0.0505608
0.000569323
-0.0190594
0.0020917
-0.0525022
0.00443358
-0.0828309
0.00748464
-0.110449
0.0111557
-0.135702
0.0153778
-0.158874
0.0201015
-0.180204
0.0252955
-0.199886
0.0309437
-0.218085
-0.23487
0.0370509
0.000352259
-0.0194116
0.00129456
-0.0534445
0.00274204
-0.0842784
0.0046227
-0.11233
0.00687734
-0.137957
0.00945966
-0.161456
0.0123368
-0.183081
0.0154901
-0.203039
0.0189143
-0.221509
-0.23858
0.0226241
0.000137607
-0.0195492
0.000501567
-0.0538085
0.00105475
-0.0848316
0.00176537
-0.113041
0.00260697
-0.138798
0.00355849
-0.162408
0.0046045
-0.184127
0.00573551
-0.204171
0.0069481
-0.222721
0.00824735
-0.239879
0.00046883
-0.00199161
0.00152278
0.00212337
-0.00670395
0.00504941
0.00535179
-0.0119954
0.00876695
0.0097291
-0.0166684
0.0122911
0.0148671
-0.0206003
0.0154623
0.0206735
-0.0241139
0.0183074
0.0272018
-0.0274869
0.0209586
0.0344554
-0.0307862
0.0235326
0.042346
-0.0339369
0.0260463
-0.0368689
0.0507647
0.0284502
0.000526059
-0.00251766
0.00226313
-0.00844102
0.00529373
-0.015026
0.00935431
-0.020729
0.0143372
-0.0255832
0.0202924
-0.0300691
0.0272075
-0.034402
0.0349421
-0.0385208
0.0433395
-0.0423343
-0.0458225
0.0522931
0.000712567
-0.00323023
0.00264006
-0.0103685
0.00552186
-0.0179078
0.00945613
-0.0246633
0.0145753
-0.0307024
0.0208937
-0.0363875
0.0282663
-0.0417746
0.0364931
-0.0467476
0.0454422
-0.0512835
-0.0553987
0.0550184
0.000810424
-0.00404065
0.00285801
-0.0124161
0.00587591
-0.0209257
0.0100667
-0.028854
0.0155716
-0.0362073
0.0223224
-0.0431383
0.0301508
-0.0496029
0.0389158
-0.0555126
0.0485217
-0.0608894
-0.0657259
0.0588489
0.000849817
-0.00489047
0.00304208
-0.0146084
0.00639614
-0.0242797
0.011025
-0.0334829
0.0169815
-0.0421638
0.0241782
-0.0503349
0.0325035
-0.0579282
0.0418762
-0.0648854
0.0522032
-0.0712164
-0.0768592
0.0633365
0.000895852
-0.00578632
0.00328042
-0.0169929
0.00700679
-0.0280061
0.0120762
-0.0385524
0.0184687
-0.0485563
0.0261096
-0.0579758
0.0349312
-0.0667498
0.0448752
-0.0748295
0.0558533
-0.0821944
-0.088717
0.0677111
0.000953249
-0.00673957
0.00352768
-0.0195674
0.00756886
-0.0320473
0.0130033
-0.0439869
0.0197656
-0.0553185
0.0277836
-0.0659939
0.0370002
-0.0759663
0.0473641
-0.0851934
0.0588054
-0.0936357
-0.101098
0.0711868
0.00100233
-0.0077419
0.00372737
-0.0222924
0.00800421
-0.0363241
0.0137154
-0.0496981
0.0207628
-0.0623659
0.0290605
-0.0742916
0.0385391
-0.085445
0.0491416
-0.0957959
0.0608145
-0.105309
-0.113748
0.0734638
0.00104388
-0.00878578
0.00390398
-0.0251525
0.00839903
-0.0408192
0.0143816
-0.0556806
0.0217241
-0.0697084
0.0303164
-0.0828839
0.0400629
-0.0951915
0.0508756
-0.106609
0.0626768
-0.11711
-0.126538
0.0754668
0.00111055
0.00420992
0.00909736
0.0155943
0.0235509
0.0328434
0.0433689
0.055021
0.0676423
0.0807461
0.11341
-0.420601
0.357956
0.166398
-0.472248
0.419259
0.206391
-0.410368
0.370375
0.235824
-0.302305
0.272871
0.253629
-0.18578
0.167975
0.261964
-0.105383
0.0970487
0.265545
-0.0631555
0.0595745
0.266565
-0.0382793
0.0372587
0.26586
-0.0215431
0.0222485
-0.00590899
0.0080564
0.115145
-0.483452
0.168317
-0.52542
0.208531
-0.450582
0.237659
-0.331433
0.255257
-0.203379
0.26324
-0.113366
0.266524
-0.06644
0.267382
-0.039137
0.266649
-0.0208102
-0.00385692
0.117116
-0.54555
0.169525
-0.577829
0.209756
-0.490813
0.238536
-0.360212
0.256035
-0.220878
0.263873
-0.121204
0.267046
-0.0696134
0.267917
-0.0400083
0.267329
-0.0202216
-0.00207835
0.119562
-0.606263
0.170172
-0.628439
0.210056
-0.530697
0.238503
-0.38866
0.255977
-0.238351
0.263857
-0.129084
0.267102
-0.072858
0.26816
-0.0410663
0.267885
-0.019947
-0.000753237
0.122392
-0.665318
0.170408
-0.676456
0.209425
-0.569714
0.237572
-0.416807
0.255093
-0.255872
0.263189
-0.137181
0.266686
-0.0763551
0.2681
-0.0424798
0.268307
-0.0201544
-5.86039e-05
0.125107
-0.722715
0.170276
-0.721624
0.207875
-0.607313
0.235716
-0.444648
0.25338
-0.273536
0.261861
-0.145662
0.265796
-0.0802895
0.26773
-0.0444139
0.268582
-0.0210066
-0.000172856
0.126905
-0.778433
0.169643
-0.764362
0.205448
-0.643118
0.232929
-0.472129
0.250859
-0.291466
0.259887
-0.15469
0.264434
-0.0848362
0.267046
-0.047026
0.268701
-0.0226614
-0.00126911
0.126888
-0.831857
0.168089
-0.805563
0.202041
-0.677071
0.229093
-0.499181
0.247438
-0.309811
0.257229
-0.164481
0.262592
-0.0901986
0.266043
-0.0504773
0.268652
-0.02527
-0.00351875
0.124769
-0.881159
0.165259
-0.846053
0.197684
-0.709495
0.224315
-0.525813
0.243248
-0.328743
0.254024
-0.175257
0.260325
-0.0965
0.264732
-0.0548838
0.26843
-0.0289679
-0.00708522
0.121121
-0.921534
0.160399
-0.885332
0.191583
-0.740678
0.217908
-0.552138
0.237679
-0.348514
0.24995
-0.187528
0.257546
-0.104096
0.263089
-0.0604269
0.268023
-0.0339011
-0.0121297
0.582232
-0.922465
-0.581301
0.556593
-0.859693
0.516784
-0.700869
0.479687
-0.515041
0.452353
-0.32118
0.436199
-0.171375
0.427591
-0.0954887
0.422394
-0.0552294
0.419369
-0.0308767
-0.0113386
0.68027
-0.871776
-0.730959
0.614794
-0.794217
0.548332
-0.634407
0.494092
-0.460801
0.458385
-0.285473
0.441232
-0.154221
0.432062
-0.0863187
0.425621
-0.0487881
0.421578
-0.0268342
-0.0103661
0.751796
-0.773965
-0.849608
0.65301
-0.695431
0.564842
-0.546239
0.497743
-0.393703
0.45822
-0.24595
0.440459
-0.13646
0.428203
-0.0740635
0.419068
-0.0396528
0.413055
-0.0208207
-0.00850928
0.778833
-0.640797
-0.912001
0.655493
-0.572091
0.552425
-0.443171
0.475081
-0.316358
0.427798
-0.198668
0.403407
-0.112069
0.388714
-0.0593706
0.379502
-0.0304404
0.373854
-0.0151723
-0.00651226
0.753498
-0.492181
-0.902115
0.619686
-0.438279
0.511317
-0.334802
0.430754
-0.235795
0.380405
-0.148319
0.354026
-0.0856893
0.34004
-0.0453845
0.332002
-0.0224025
0.327401
-0.0105714
-0.00471582
0.685242
-0.345925
-0.831498
0.553801
-0.306838
0.449617
-0.230619
0.373554
-0.159732
0.325627
-0.100392
0.299521
-0.0595831
0.286048
-0.0319122
0.278932
-0.0152864
0.275181
-0.00681985
-0.00315782
0.582411
-0.214041
-0.714294
0.463175
-0.187602
0.371006
-0.13845
0.305062
-0.0937887
0.263443
-0.0587729
0.239872
-0.0360117
0.227643
-0.0196832
0.221584
-0.00922747
0.218653
-0.00388889
-0.00188867
0.448424
-0.105664
-0.556802
0.351057
-0.0902348
0.277851
-0.0652437
0.226905
-0.0428424
0.194913
-0.0267817
0.17603
-0.017128
0.165939
-0.00959261
0.161131
-0.00441949
0.158981
-0.00173882
-0.00091486
0.286294
-0.0302772
-0.361681
0.220672
-0.024613
0.172774
-0.0173457
0.140693
-0.010761
0.120621
-0.00670925
0.108122
-0.0046297
0.101219
-0.00268948
0.0980307
-0.00123118
0.0967307
-0.000438759
-0.000273912
0.101178
-0.131455
0.0765652
0.0592195
0.0484585
0.0417493
0.0371196
0.0344301
0.0331989
0.0327601
0.738549
0.0101829
-0.740485
0.732817
0.0283558
0.723195
0.0466733
0.709939
0.0638169
0.693362
0.0790492
0.673882
0.0920368
0.652089
0.102826
0.628537
0.111946
0.604099
0.118978
0.119429
0.845314
0.0133394
-0.84847
0.837098
0.0365718
0.827067
0.0567038
0.816369
0.0745152
0.805015
0.0904034
0.79264
0.104412
0.778994
0.116472
0.764249
0.12669
0.748716
0.134511
0.137186
0.844777
0.0113942
-0.842832
0.848655
0.0326933
0.852773
0.0525858
0.856201
0.0710874
0.858527
0.088077
0.859562
0.103377
0.859164
0.11687
0.857435
0.128419
0.854638
0.137309
0.142216
0.799995
0.00928393
-0.797885
0.805595
0.0270931
0.814188
0.0439931
0.825404
0.0598711
0.838769
0.0747124
0.853614
0.0885317
0.869167
0.101317
0.884759
0.112827
0.899569
0.122499
0.129784
0.737651
0.00702743
-0.735394
0.743929
0.0208146
0.753888
0.0340344
0.767259
0.0464997
0.783835
0.0581365
0.803418
0.0689483
0.825765
0.0789709
0.85043
0.0881614
0.876389
0.0965406
0.104058
0.653722
0.00484883
-0.651543
0.659995
0.0145414
0.670158
0.0238713
0.683986
0.0326714
0.701275
0.0408481
0.721848
0.0483755
0.745534
0.0552841
0.772063
0.0616331
0.800972
0.0676307
0.0735333
0.548945
0.00291461
-0.547011
0.554638
0.00884827
0.563953
0.0145563
0.576706
0.0199184
0.592697
0.0248568
0.61173
0.029343
0.63361
0.0334035
0.658126
0.0371178
0.685084
0.0406721
0.0443233
0.422671
0.00137586
-0.421132
0.427286
0.00423306
0.434873
0.00696944
0.445275
0.00951595
0.458308
0.0118244
0.473775
0.0138759
0.491491
0.0156873
0.511294
0.0173152
0.533082
0.0188835
0.0206038
0.27376
0.000367004
-0.272752
0.276844
0.00114896
0.281924
0.00189038
0.288872
0.002567
0.297536
0.00316073
0.307748
0.00366367
0.319355
0.00408027
0.332245
0.00442595
0.346382
0.00474605
0.00530497
0.100467
-0.1001
0.101616
0.103507
0.106074
0.109235
0.112898
0.116978
0.121404
0.12615
0.0778711
0.159335
-0.142315
-0.0948917
0.0629643
0.147322
-0.132415
0.0495575
0.134295
-0.120888
0.0375488
0.120246
-0.108237
0.0269813
0.105105
-0.0945378
0.0179436
0.0888478
-0.0798101
0.0105501
0.0714306
-0.064037
0.00495118
0.0527936
-0.0471947
0.00134422
0.0328693
-0.0292623
0.0116396
-0.0102954
0.0778771
0.174277
-0.0928184
0.0638042
0.161395
0.050776
0.147323
0.038882
0.13214
0.0282305
0.115757
0.0189665
0.0981118
0.0112676
0.0791294
0.00534825
0.058713
0.00147377
0.0367437
0.0131134
0.0731247
0.187782
-0.08663
0.060312
0.174208
0.0482949
0.159341
0.0371999
0.143235
0.0271636
0.125793
0.0183502
0.106925
0.010958
0.0865217
0.00522584
0.0644451
0.0014468
0.0405228
0.0145602
0.0667304
0.200216
-0.0791639
0.0549897
0.185948
0.0440076
0.170323
0.0338848
0.153357
0.0247365
0.134941
0.0167049
0.114957
0.00996757
0.0932591
0.00474434
0.0696684
0.00130756
0.0439595
0.0158678
0.0592872
0.211526
-0.0705974
0.0486876
0.196548
0.0388403
0.18017
0.0298169
0.162381
0.0217045
0.143054
0.0146149
0.122046
0.00869298
0.099181
0.00412174
0.0742396
0.0011296
0.0469517
0.0169974
0.0505865
0.221395
-0.0604554
0.0413971
0.205737
0.0329132
0.188654
0.0251841
0.17011
0.0182728
0.149965
0.012264
0.128055
0.00726971
0.104175
0.0034339
0.0780754
0.000936527
0.0494491
0.0179339
0.0404571
0.229442
-0.0485043
0.03301
0.213185
0.0261724
0.195492
0.0199729
0.176309
0.0144534
0.155485
0.00967428
0.132834
0.00571833
0.108131
0.00269269
0.0811011
0.000731533
0.0514102
0.0186654
0.0290633
0.235324
-0.034945
0.0236572
0.218591
0.0187183
0.20043
0.0142571
0.180771
0.0102971
0.159445
0.00687783
0.136253
0.00405564
0.110953
0.00190424
0.0832525
0.000515266
0.0527992
0.0191807
0.0169328
0.238812
-0.0204216
0.0137535
0.22177
0.0108634
0.203321
0.00826076
0.183373
0.00595539
0.16175
0.00396886
0.13824
0.00233345
0.112589
0.0010912
0.0844947
0.000293375
0.053597
0.0194741
0.0048464
-0.00591347
0.00389499
0.00304506
0.00229138
0.00163358
0.00107536
0.000623425
0.000286585
7.51446e-05
0.0430556
0.0407637
-0.0517858
-0.0320336
0.0348422
0.0377972
-0.0295837
0.0272662
0.0345381
-0.0269621
0.0204891
0.0310318
-0.0242546
0.0145963
0.027402
-0.0215092
0.00953187
0.0236608
-0.0185964
0.00526488
0.0194637
-0.0151967
0.00207987
0.0141671
-0.0109821
0.000441638
0.007681
-0.00604277
0.002222
-0.00178037
0.0435584
0.0498882
-0.0526829
0.0349921
0.0463634
0.0270765
0.0424537
0.0199869
0.0381214
0.0139548
0.033434
0.0090835
0.0285321
0.00529906
0.0232481
0.00249683
0.0169694
0.000643267
0.00953456
0.00286527
0.0451994
0.0595261
-0.0548373
0.0362093
0.0553535
0.0279663
0.0506968
0.0205832
0.0455045
0.0142656
0.0397516
0.00921247
0.0335853
0.00544725
0.0270133
0.00273825
0.0196784
0.000781096
0.0114917
0.00364636
0.0479589
0.0698307
-0.0582635
0.0383923
0.0649201
0.029702
0.059387
0.0219777
0.0532287
0.0153256
0.0464038
0.00990262
0.0390082
0.00579508
0.0311209
0.00285013
0.0226233
0.00082182
0.01352
0.00446818
0.0514735
0.080856
-0.0624988
0.0412592
0.0751344
0.032017
0.0686292
0.0238382
0.0614075
0.0167777
0.0534643
0.0109199
0.0448659
0.00634826
0.0356925
0.00302139
0.0259502
0.000844046
0.0156974
0.00531223
0.0550313
0.0925302
-0.0667056
0.0442317
0.0859341
0.0344626
0.0783983
0.0258048
0.0700654
0.0183009
0.0609681
0.012004
0.0511629
0.00698397
0.0407126
0.00327293
0.0296612
0.00089266
0.0180776
0.00620489
0.0579036
0.104672
-0.0700453
0.0466876
0.09715
0.0365293
0.0885567
0.0274878
0.0791069
0.0196056
0.0688503
0.0129355
0.057833
0.00755048
0.0460976
0.00352634
0.0336854
0.000953651
0.0206503
0.00715854
0.0598023
0.117043
-0.0721729
0.0483866
0.108566
0.0380114
0.0989319
0.0287207
0.0883975
0.0205669
0.077004
0.0136195
0.0647804
0.00796798
0.0517491
0.00371894
0.0379344
0.00100192
0.0233673
0.00816045
0.0615015
0.129525
-0.0739842
0.0499811
0.120086
0.0394155
0.109498
0.0298757
0.0979374
0.0214469
0.0854329
0.0142251
0.0720021
0.00832381
0.0576504
0.00387645
0.0423818
0.00103845
0.0262053
0.00919891
0.0662856
-0.0790752
0.0539563
0.0425655
0.0322659
0.023161
0.0153531
0.00896643
0.00415347
0.00109651
0.21441
0.0562821
-0.072702
0.230807
0.106265
-0.122662
0.245407
0.119017
-0.133616
0.25161
0.117827
-0.124029
0.25017
0.132127
-0.130687
0.237439
0.181519
-0.168789
0.210044
0.285382
-0.257987
0.170387
0.402188
-0.362531
0.116459
0.485381
-0.431453
0.454209
-0.389536
0.21314
0.0411319
0.229571
0.0898336
0.244027
0.104561
0.250937
0.110916
0.250374
0.132689
0.238221
0.193673
0.211305
0.312298
0.171361
0.442132
0.117154
0.539588
0.518681
0.212131
0.0269908
0.22866
0.0733041
0.242931
0.0902901
0.250234
0.103614
0.250176
0.132748
0.238262
0.205586
0.211717
0.338843
0.171541
0.482309
0.118028
0.593102
0.581871
0.211406
0.0135742
0.228065
0.0566452
0.242081
0.0762743
0.249492
0.0962031
0.249577
0.132663
0.23762
0.217543
0.211225
0.365238
0.171054
0.522479
0.119369
0.644787
0.642977
0.210966
0.000597552
0.227779
0.039833
0.24143
0.0626233
0.248676
0.0889562
0.248549
0.13279
0.23627
0.229822
0.209771
0.391738
0.170077
0.562172
0.121166
0.693699
0.701644
0.2108
-0.012213
0.227789
0.0228446
0.240919
0.0494927
0.247729
0.0821469
0.247026
0.133492
0.23412
0.242728
0.207342
0.418517
0.168728
0.600787
0.122992
0.739434
0.757931
0.210898
-0.0251208
0.22808
0.0056621
0.240488
0.0370846
0.246591
0.0760445
0.244954
0.135129
0.231106
0.256576
0.204001
0.445622
0.166967
0.63782
0.124082
0.782319
0.811967
0.211247
-0.0383783
0.228642
-0.0117325
0.240073
0.0256538
0.245149
0.0709684
0.242145
0.138132
0.227047
0.271674
0.199679
0.47299
0.164445
0.673055
0.123533
0.823231
0.863327
0.211799
-0.0521877
0.229478
-0.0294116
0.239637
0.0154948
0.243434
0.0671714
0.238699
0.142867
0.222083
0.28829
0.194492
0.500582
0.160857
0.70669
0.121028
0.86306
0.910371
0.212674
-0.0668721
0.230305
-0.0470422
0.239262
0.00653763
0.241173
0.0652604
0.233962
0.150078
0.215436
0.306816
0.187626
0.528391
0.155445
0.738871
0.11712
0.901385
0.948416
0.333851
-0.0987127
0.368003
-0.0811947
0.397525
-0.0229836
0.418717
0.0440676
0.439665
0.129131
0.467391
0.27909
0.504385
0.491397
0.547339
0.695917
0.579836
0.868888
0.942494
0.585758
0.337545
-0.134248
0.374143
-0.117792
0.40488
-0.0537211
0.426223
0.0227247
0.44696
0.108394
0.480886
0.245164
0.533825
0.438459
0.602408
0.627333
0.673459
0.797836
0.883977
0.731976
0.34013
-0.172368
0.379393
-0.157055
0.411617
-0.0859453
0.433257
0.0010844
0.452081
0.0895708
0.487034
0.210211
0.551224
0.374269
0.639426
0.539131
0.741385
0.695878
0.779826
0.845535
0.342075
-0.212432
0.382491
-0.197471
0.412568
-0.116023
0.425797
-0.0121441
0.438682
0.076685
0.473326
0.175567
0.544185
0.30341
0.644994
0.438322
0.768586
0.572286
0.643799
0.904613
0.344844
-0.255266
0.370359
-0.222986
0.372954
-0.118617
0.373227
-0.0124171
0.388302
0.0616096
0.429848
0.134021
0.506005
0.227253
0.612554
0.331773
0.745833
0.439007
0.494039
0.895592
0.342528
-0.295784
0.336802
-0.217259
0.315446
-0.0972611
0.314813
-0.0117839
0.331812
0.0446103
0.373256
0.0925774
0.445968
0.154541
0.548861
0.22888
0.680075
0.307793
0.347115
0.827
0.315302
-0.309077
0.281265
-0.183222
0.253656
-0.0696523
0.251311
-0.00943913
0.267886
0.0280352
0.305237
0.0552263
0.368779
0.0909994
0.460057
0.137603
0.579365
0.188485
0.214769
0.71171
0.274127
-0.281193
0.217867
-0.126962
0.186973
-0.0387587
0.183841
-0.00630666
0.197979
0.0138973
0.227517
0.0256884
0.276863
0.0416534
0.349523
0.064942
0.447177
0.090831
0.106058
0.555888
0.214615
-0.193798
0.142548
-0.0548946
0.115952
-0.0121629
0.112352
-0.00270676
0.122335
0.00391453
0.141431
0.00659217
0.172624
0.0104612
0.220277
0.0172882
0.28627
0.0248388
0.030408
0.36192
0.108212
0.0533175
0.0411546
0.0384479
0.0423624
0.0489546
0.0594158
0.076704
0.101543
0.131951
0.608024
-0.117157
0.631771
-0.116566
0.654661
-0.109519
0.67587
-0.100373
0.694857
-0.0895845
0.711025
-0.0766228
0.723939
-0.0614187
0.733282
-0.0442877
0.73878
-0.0259199
-0.00761807
0.749458
-0.134639
0.764505
-0.131612
0.77883
-0.123844
0.792151
-0.113695
0.80429
-0.101723
0.815481
-0.0878139
0.826076
-0.0720136
0.836094
-0.0543052
0.844565
-0.0343911
-0.0115233
0.850373
-0.139477
0.853005
-0.134244
0.854672
-0.125511
0.855163
-0.114186
0.854389
-0.10095
0.852526
-0.0859509
0.849804
-0.0692915
0.846627
-0.0511281
0.843802
-0.0315659
-0.010553
0.892743
-0.127607
0.87874
-0.120241
0.864023
-0.110795
0.849386
-0.099549
0.835456
-0.0870189
0.82295
-0.0734454
0.812507
-0.0588481
0.804588
-0.0432094
0.799553
-0.0265306
-0.00888515
0.870765
-0.10278
0.845816
-0.0952922
0.822049
-0.0870275
0.800473
-0.0779726
0.781556
-0.0681026
0.765568
-0.0574565
0.752716
-0.0459968
0.743215
-0.0337078
0.737326
-0.0206417
-0.00695332
0.797161
-0.0729414
0.768954
-0.0670847
0.743047
-0.0611206
0.719904
-0.0548303
0.699808
-0.048006
0.682933
-0.0405821
0.669457
-0.0325202
0.659582
-0.0238328
0.653537
-0.0145965
-0.00495994
0.682919
-0.04415
0.656375
-0.0405404
0.632244
-0.0369902
0.610708
-0.0332937
0.591971
-0.0292691
0.576223
-0.0248343
0.563659
-0.0199565
0.554481
-0.0146545
0.54888
-0.00899564
-0.00309038
0.532355
-0.0206168
0.510744
-0.0189291
0.491111
-0.0173577
0.473546
-0.0157286
0.458202
-0.0139246
0.445257
-0.0118898
0.434905
-0.00960437
0.427333
-0.00708198
0.422703
-0.00436557
-0.00151983
0.346644
-0.00534078
0.332513
-0.00479861
0.319631
-0.00447569
0.308028
-0.00412585
0.297811
-0.00370733
0.289127
-0.00320584
0.282139
-0.00261613
0.277001
-0.00194451
0.273843
-0.00120748
-0.000428076
0.12661
0.121811
0.117336
0.11321
0.109503
0.106297
0.103681
0.101736
0.100529
0.000185508
0.011653
-0.0118385
0.000625301
0.0305628
-0.0310026
0.00124007
0.0464161
-0.0470309
0.00198133
0.059682
-0.0604233
0.00278086
0.0702509
-0.0710505
0.00377818
0.0801138
-0.0811111
0.00397547
0.077538
-0.0777353
0.00409947
0.0703271
-0.0704511
0.00396069
0.0613597
-0.0612209
0.0502085
0.00352281
-0.0497706
0.000535127
0.0111179
0.00180955
0.0292884
0.00359541
0.0446302
0.0057554
0.0575221
0.00808824
0.0679181
0.0110609
0.0771411
0.0117084
0.0768905
0.0121216
0.0699138
0.0118185
0.0616628
0.0513304
0.0106967
0.000839269
0.0102786
0.00284327
0.0272844
0.00565915
0.0418144
0.00906861
0.0541126
0.0127695
0.0642172
0.0172771
0.0726335
0.0188385
0.0753291
0.0196341
0.0691183
0.0194562
0.0618406
0.0526845
0.018102
0.00106294
0.00921568
0.00361589
0.0247314
0.00722442
0.0382058
0.0115969
0.0497401
0.0164036
0.0594105
0.0217934
0.0672437
0.0251356
0.071987
0.026436
0.0678179
0.026697
0.0615796
0.0538121
0.0255695
0.00116547
0.00805021
0.00401171
0.0218852
0.00808834
0.0341292
0.0130588
0.0447696
0.0186251
0.0538443
0.0246319
0.061237
0.0300336
0.0665853
0.0321891
0.0656624
0.0331273
0.0606414
0.0543302
0.0326092
0.00114291
0.00690731
0.00402703
0.0190011
0.00825716
0.0298991
0.0134828
0.039544
0.0194363
0.0478908
0.0258909
0.0547824
0.0325277
0.0599486
0.0364335
0.0617566
0.0382611
0.0588139
0.0539366
0.0386547
0.00100135
0.00590596
0.00370066
0.0163018
0.00782411
0.0257757
0.0130054
0.0343627
0.0189664
0.0419298
0.0255357
0.048213
0.0324955
0.0529889
0.0384383
0.0558137
0.0417492
0.0555031
0.0524075
0.0432784
0.000734503
0.00517147
0.00305121
0.0139851
0.00686025
0.0219666
0.0117561
0.0294668
0.0174047
0.0362813
0.0237133
0.0419045
0.0305487
0.0461535
0.0374217
0.0489408
0.0427763
0.0501486
0.049165
0.0460188
0.000364213
0.00480726
0.00216734
0.0121819
0.00550269
0.0186313
0.00994754
0.025022
0.0150617
0.0311672
0.0207998
0.0361664
0.0271369
0.0398165
0.033834
0.0422437
0.0403275
0.0436552
0.0440466
0.045446
2.74735e-05
0.00477979
0.00136435
0.0108451
0.0041303
0.0158654
0.00799515
0.0211572
0.0124755
0.0266868
0.0175479
0.031094
0.0232284
0.034136
0.029368
0.0361041
0.0357983
0.0372248
0.0375931
0.0422518
-5.01865e-05
0.00482999
0.00104888
0.00974604
0.0032414
0.0136728
0.00639196
0.0180066
0.0102022
0.0228766
0.014714
0.0265822
0.019884
0.0289661
0.0254914
0.0304967
0.0313003
0.031416
0.0318648
0.0370286
0.000186013
0.00464399
0.00123266
0.0086994
0.00294352
0.011962
0.00539201
0.0155582
0.0086897
0.0195789
0.0129174
0.0223546
0.0178351
0.0240484
0.0231914
0.0251404
0.0287875
0.0258199
0.0261179
0.0345345
0.000463254
0.00418074
0.00147269
0.00768998
0.00284948
0.0105852
0.00486745
0.0135402
0.0080649
0.0163815
0.0123011
0.0181185
0.0171809
0.0191685
0.0224876
0.0198337
0.0280968
0.0202107
0.0203112
0.0339035
0.00060765
0.0035731
0.0015641
0.00673353
0.00285985
0.00928947
0.0050476
0.0113525
0.00859253
0.0128366
0.0130322
0.0136788
0.0180372
0.0141635
0.0234628
0.0144081
0.0292206
0.014453
0.0143053
0.0352266
0.000657837
0.00291528
0.00162971
0.00576167
0.00334688
0.00757231
0.00627921
0.00842016
0.0103075
0.00880837
0.0150346
0.00895173
0.0202794
0.00891867
0.0259485
0.00873902
0.0319743
0.00842725
0.00799293
0.0382866
0.000578818
0.00233647
0.00195256
0.00438794
0.00462451
0.00490038
0.00831445
0.00473024
0.0127359
0.00438696
0.0177471
0.00394053
0.0232636
0.00340216
0.0292219
0.00278074
0.0355626
0.00208647
0.00132801
0.0422276
0.000603789
0.00173268
0.00282319
0.00216856
0.00621925
0.00150432
0.0103149
0.000634596
0.0150145
-0.000312615
0.0202798
-0.00132474
0.0260668
-0.0023849
0.0323162
-0.00346862
0.0389661
-0.00456344
-0.00567162
0.0459657
0.00107247
0.000660225
0.00381886
-0.000577816
0.00734783
-0.00202464
0.011558
-0.00357555
0.0164282
-0.00518284
0.0219199
-0.00681642
0.0279539
-0.00841888
0.0344499
-0.00996468
0.0413545
-0.011468
-0.0129505
0.0486334
0.00137731
-0.000717076
0.00387478
-0.00307528
0.00728005
-0.00542991
0.0115507
-0.0078462
0.0166014
-0.0102335
0.0222917
-0.0125067
0.028501
-0.0146282
0.0351776
-0.0166413
0.042309
-0.0185994
-0.0205093
0.0498678
0.000805705
0.00277985
0.00611689
0.0105618
0.0157906
0.0215913
0.0279217
0.034813
0.04226
0.0502008
0.0533458
0.0838884
-0.100206
0.0808542
-0.0110214
-0.0164871
0.102318
-0.0530217
0.0315581
0.115094
-0.0457657
0.03299
0.123549
-0.0283007
0.0198455
0.129765
-0.0169122
0.0106956
0.134844
-0.0110855
0.00600726
0.139197
-0.00796881
0.00361537
0.143044
-0.0059402
0.00209341
-0.00456492
0.00125012
0.0614974
0.0569254
0.0957908
-0.0453146
0.121923
-0.079154
0.136554
-0.0603964
0.14579
-0.037537
0.152446
-0.0235675
0.157794
-0.0164345
0.162271
-0.0124458
0.16613
-0.00979843
-0.00762502
0.0699749
0.020854
0.109248
-0.0845874
0.139549
-0.109455
0.157596
-0.0784437
0.167914
-0.0478544
0.174909
-0.0305629
0.180323
-0.021848
0.184663
-0.0167866
0.188248
-0.0133829
-0.0101938
0.078893
-0.0228124
0.121607
-0.127302
0.154956
-0.142804
0.177051
-0.100538
0.189123
-0.0599267
0.196554
-0.0379933
0.20195
-0.0272445
0.205995
-0.0208318
0.209123
-0.0165107
-0.0121117
0.0874741
-0.0719999
0.13246
-0.172288
0.167916
-0.178261
0.193663
-0.126286
0.208378
-0.0746411
0.216596
-0.0462111
0.221997
-0.0326455
0.225669
-0.0245039
0.228217
-0.0190595
-0.0132722
0.0950636
-0.124836
0.141678
-0.218902
0.178534
-0.215116
0.206739
-0.15449
0.224386
-0.0922883
0.234163
-0.0559883
0.239887
-0.0383697
0.243262
-0.0278789
0.245233
-0.0210304
-0.013682
0.101218
-0.180088
0.14923
-0.266914
0.18707
-0.252956
0.216403
-0.183823
0.235814
-0.1117
0.247208
-0.0673821
0.253735
-0.0448964
0.257158
-0.0313025
0.258553
-0.0224249
-0.0132542
0.105853
-0.237308
0.15526
-0.31632
0.193848
-0.291545
0.223525
-0.213501
0.242899
-0.131074
0.253834
-0.0783166
0.259653
-0.0507152
0.262345
-0.0339951
0.26281
-0.0228895
-0.0119263
0.109168
-0.296609
0.159996
-0.367148
0.199179
-0.330728
0.228908
-0.24323
0.247639
-0.149804
0.257444
-0.0881214
0.262232
-0.0555035
0.264132
-0.035895
0.263998
-0.0227551
-0.0101215
0.111547
0.163658
0.203305
0.232947
0.251118
0.260045
0.264116
0.265479
0.264973
0.0132139
0.00616497
-0.0193789
0.0109869
0.002227
0.0116278
-0.000640808
0.0131262
-0.00149841
0.0139003
-0.000774052
0.0142936
-0.000393346
0.0144805
-0.00018688
0.0145968
-0.000116242
0.0146425
-4.56883e-05
-6.21071e-05
0.0371857
0.0235991
-0.0546197
0.03149
0.00792273
0.034447
-0.00359779
0.0385943
-0.00564569
0.0409391
-0.00311884
0.0421432
-0.00159744
0.0427786
-0.000822222
0.0431569
-0.00049457
0.0433582
-0.000247002
-0.000216488
0.0577849
0.0489865
-0.0831722
0.0509632
0.0147444
0.0567188
-0.00935331
0.0633134
-0.0122403
0.0672344
-0.00703983
0.0693009
-0.00366387
0.0704386
-0.00195995
0.0711143
-0.00117024
0.0715028
-0.000635555
-0.000459697
0.0735794
0.076988
-0.101581
0.0683166
0.0200073
0.0777536
-0.0187903
0.0869157
-0.0214025
0.0924935
-0.0126175
0.0955105
-0.00668089
0.0972212
-0.00367069
0.0982479
-0.00219691
0.0988551
-0.00124275
-0.000801269
0.0816084
-0.104826
0.085129
0.0978971
0.109485
0.116713
0.120727
0.123064
0.124482
0.125333
0.00275034
-0.000173778
-0.00257656
0.00328373
-0.000533397
0.0042001
-0.000916372
0.00551688
-0.00131677
0.0072206
-0.00170373
0.00927444
-0.00205383
0.0116429
-0.00236841
0.0142457
-0.00260278
0.0169462
-0.00270051
-0.0024327
0.00783487
-0.000648821
-0.00735983
0.00928844
-0.00198697
0.0117787
-0.0034066
0.0153498
-0.00488785
0.0199823
-0.00633627
0.0256023
-0.00767378
0.0321108
-0.00887693
0.0393327
-0.0098246
0.0469756
-0.0103434
-0.0100768
0.0125527
-0.00139028
-0.0118112
0.0148123
-0.00424659
0.0186611
-0.00725539
0.0241462
-0.010373
0.0312268
-0.0134168
0.0397643
-0.0162113
0.0495415
-0.018654
0.0603051
-0.0205882
0.0717118
-0.0217499
-0.0215373
0.0169045
-0.00235844
-0.0159363
0.019841
-0.00718308
0.0248037
-0.0122181
0.0318063
-0.0173756
0.0407378
-0.0223483
0.0513332
-0.0268067
0.0632061
-0.0305269
0.0760041
-0.0333862
0.0892122
-0.034958
-0.0339059
0.0209072
-0.0197428
0.0244208
0.0303047
0.0384986
0.0487595
0.0606075
0.073359
0.0859916
0.0964797
0.0314998
-0.0315611
0.0373825
-0.0373213
0.025604
-0.0311261
0.0370219
0.0199066
-0.0302486
0.0359459
0.0146413
-0.0288022
0.0340676
0.0100548
-0.0265603
0.0311467
0.00623808
-0.0229831
0.0267999
0.00311087
-0.0180855
0.0212127
0.000955458
-0.0137839
0.0159393
-0.000104992
-0.0099297
0.0109901
-0.00504668
0.00494168
0.0295833
-0.0256512
-0.0354931
0.0238234
-0.0253663
0.0183006
-0.0247258
0.0132013
-0.0237029
0.0087752
-0.0221342
0.00533546
-0.0195434
0.00287101
-0.015621
0.00118217
-0.012095
0.000157598
-0.00890512
-0.00488908
0.0297882
-0.0195995
-0.03584
0.0239282
-0.0195062
0.0183649
-0.0191625
0.0132108
-0.0185488
0.00865644
-0.0175799
0.00511256
-0.0159996
0.00291306
-0.0134215
0.00149086
-0.0106728
0.000469966
-0.00788423
-0.00441911
0.0319246
-0.0132615
-0.0382626
0.0258282
-0.0134098
0.0200559
-0.0133901
0.01469
-0.0131829
0.00986087
-0.0127508
0.00586945
-0.0120081
0.00325103
-0.0108031
0.00172266
-0.00914444
0.000679716
-0.00684128
-0.00373939
0.0355041
-0.00654491
-0.0422207
0.0290719
-0.00697754
0.022994
-0.00731227
0.0173414
-0.00753037
0.0122073
-0.00761667
0.00775804
-0.00755885
0.00430031
-0.00734535
0.0020335
-0.00687762
0.000773487
-0.00558126
-0.00296589
0.0394992
0.000565656
-0.0466097
0.0327125
-0.000190831
0.0263124
-0.000912196
0.0203718
-0.00158973
0.0149633
-0.0022082
0.0101576
-0.00275315
0.00602887
-0.00321656
0.00273558
-0.00358432
0.000717308
-0.00356297
-0.00224857
0.042783
0.00800691
-0.0502243
0.0356895
0.00690273
0.0289906
0.00578673
0.0227575
0.00464331
0.0170748
0.00347451
0.0120061
0.00231563
0.00757644
0.00121307
0.00380841
0.000183724
0.000975755
-0.000730301
-0.0012728
0.0444776
0.015702
-0.0521728
0.0371676
0.0142128
0.0302663
0.012688
0.0238041
0.0111055
0.017863
0.00941567
0.0125728
0.00760585
0.00804564
0.00574022
0.00433967
0.00388971
0.00151387
0.00209552
0.000241074
0.0443907
0.0236851
-0.0523737
0.036863
0.0217405
0.0298278
0.0197232
0.0232699
0.0176633
0.0171774
0.0155082
0.0116467
0.0131366
0.00692261
0.0104643
0.00330405
0.00750827
0.00104878
0.0043508
0.00128985
0.0435229