/*--------------------------------*- C++ -*----------------------------------*\
  =========                 |
  \\      /  F ield         | OpenFOAM: The Open Source CFD Toolbox
   \\    /   O peration     | Website:  https://openfoam.org
    \\  /    A nd           | Version:  13
     \\/     M anipulation  |
\*---------------------------------------------------------------------------*/
FoamFile
{
    format      ascii;
    class       volVectorField;
    location    "0.12";
    object      U;
}
// * * * * * * * * * * * * * * * * * * * * * * * * * * * * * * * * * * * * * //

dimensions      [0 1 -1 0 0 0 0];

internalField   nonuniform List<vector> 
1800
(
(0.0978535 -0.0883877 -4.51212e-20)
(0.286986 -0.242142 -3.42439e-20)
(0.474063 -0.379386 -4.83471e-19)
(0.657765 -0.500679 1.90066e-19)
(0.836667 -0.607905 6.99861e-20)
(1.00996 -0.702355 -4.20311e-20)
(1.17719 -0.784721 5.80041e-20)
(1.33795 -0.85522 2.09392e-19)
(1.49156 -0.914796 5.99408e-19)
(1.63342 -0.968986 8.16538e-19)
(0.119065 -0.0915131 -7.90096e-20)
(0.344274 -0.247767 -7.68032e-19)
(0.563229 -0.384883 3.76555e-21)
(0.77527 -0.504479 1.26553e-19)
(0.979377 -0.609304 -1.26396e-19)
(1.17506 -0.701249 7.1061e-20)
(1.36214 -0.781538 -2.74292e-19)
(1.54059 -0.851064 -5.49691e-20)
(1.70988 -0.911891 -7.04358e-19)
(1.86756 -0.968441 6.36602e-19)
(0.141618 -0.0923062 4.86967e-20)
(0.403576 -0.247707 2.08688e-19)
(0.653577 -0.382115 5.42153e-19)
(0.891931 -0.497956 -1.89597e-19)
(1.11835 -0.598521 -1.39505e-19)
(1.33286 -0.686061 7.45613e-20)
(1.53567 -0.762093 9.5697e-20)
(1.72703 -0.827839 1.9456e-19)
(1.90678 -0.88551 2.78119e-21)
(2.07375 -0.938746 1.51679e-19)
(0.163847 -0.0896908 -4.5616e-20)
(0.461523 -0.239401 -2.03904e-19)
(0.741141 -0.367537 -1.80731e-19)
(1.00412 -0.476911 -1.42413e-19)
(1.25115 -0.571 1.80683e-19)
(1.48298 -0.652175 -5.71941e-20)
(1.70035 -0.722045 -4.24421e-21)
(1.90392 -0.781872 7.9268e-22)
(2.09393 -0.83374 -1.62972e-19)
(2.26963 -0.880866 -1.05218e-19)
(0.184578 -0.0833219 -1.14203e-19)
(0.51566 -0.221719 8.71872e-20)
(0.822914 -0.33931 1.79995e-19)
(1.1088 -0.438935 2.43539e-19)
(1.375 -0.523959 -2.83644e-19)
(1.62301 -0.596702 -3.6002e-21)
(1.85418 -0.658751 4.23558e-19)
(2.06964 -0.711322 -1.86091e-19)
(2.27003 -0.756316 -1.24249e-19)
(2.45499 -0.796655 -5.2844e-20)
(0.203095 -0.0734664 1.73713e-19)
(0.564192 -0.19511 1.02945e-18)
(0.896339 -0.297944 1.42029e-19)
(1.2029 -0.384584 -5.02718e-19)
(1.48645 -0.458074 -1.74777e-19)
(1.74919 -0.520535 6.36665e-19)
(1.993 -0.573426 -1.44104e-19)
(2.21941 -0.617853 -4.30259e-19)
(2.42951 -0.655463 -3.18694e-19)
(2.62326 -0.688842 2.62131e-19)
(0.218792 -0.0605623 1.1615e-19)
(0.605432 -0.160621 -7.46975e-19)
(0.958803 -0.244911 -1.08373e-18)
(1.28302 -0.315654 3.83098e-19)
(1.5814 -0.375411 4.48682e-19)
(1.85673 -0.425982 -8.97501e-22)
(2.11136 -0.468614 -6.37657e-19)
(2.34721 -0.504234 2.19617e-19)
(2.56574 -0.534168 -3.67972e-19)
(2.7672 -0.560585 -3.12839e-19)
(0.231122 -0.0451502 -3.42697e-19)
(0.637861 -0.119622 -6.93811e-19)
(1.00794 -0.1822 1.21184e-18)
(1.34603 -0.234585 5.99434e-19)
(1.65603 -0.278728 -2.69217e-19)
(1.9412 -0.316013 -2.11476e-19)
(2.2043 -0.347406 0)
(2.44756 -0.373603 1.16154e-19)
(2.67278 -0.395568 -2.96271e-19)
(2.88053 -0.414959 -7.65946e-20)
(0.239647 -0.0278617 -2.04672e-19)
(0.660296 -0.073717 5.62107e-19)
(1.0419 -0.11214 1.70191e-19)
(1.38952 -0.144219 -5.12273e-19)
(1.70744 -0.171202 -7.8459e-19)
(1.99927 -0.193981 3.64355e-20)
(2.26803 -0.213184 1.68519e-19)
(2.51626 -0.229248 -5.46769e-19)
(2.74603 -0.242762 -2.91241e-19)
(2.95826 -0.254785 -5.65572e-19)
(0.244138 -0.00939784 4.51859e-19)
(0.672085 -0.0246921 3.44222e-19)
(1.0597 -0.037346 -9.40957e-20)
(1.41221 -0.0477733 -1.21802e-20)
(1.73414 -0.0564516 -3.88081e-19)
(2.02926 -0.0637209 -8.74928e-20)
(2.3008 -0.0698197 -2.89963e-19)
(2.55143 -0.074915 6.48326e-19)
(2.78345 -0.0792138 1.70984e-19)
(2.99811 -0.0830753 3.02694e-21)
(-0.00183097 -0.0221999 -8.31939e-20)
(0.00843965 -0.0733482 -1.48906e-19)
(0.0253037 -0.129163 -4.82399e-21)
(0.0486514 -0.180115 -2.89199e-20)
(0.0748314 -0.223517 -1.08132e-20)
(0.102558 -0.261448 -3.50164e-19)
(0.132028 -0.297127 -1.99399e-20)
(0.1636 -0.33218 1.70757e-19)
(0.196664 -0.366223 1.08385e-20)
(0.230304 -0.398296 -3.56199e-20)
(0.00151636 -0.0270411 -1.24405e-19)
(0.0166622 -0.0918153 -2.99446e-19)
(0.0403586 -0.165963 6.85628e-20)
(0.0677575 -0.228588 -7.11026e-20)
(0.0967419 -0.279604 -9.38036e-20)
(0.128431 -0.325197 -2.71244e-19)
(0.163671 -0.369044 2.39548e-19)
(0.201455 -0.411222 2.10787e-19)
(0.240322 -0.450466 -2.62562e-19)
(0.279417 -0.486224 7.81922e-20)
(0.00613559 -0.0349102 -9.9724e-20)
(0.0303715 -0.113516 -7.85036e-19)
(0.0621199 -0.197747 -1.19879e-19)
(0.0956511 -0.270154 2.79119e-21)
(0.130974 -0.331921 4.89404e-20)
(0.170324 -0.388678 -4.35929e-19)
(0.213747 -0.442053 5.28675e-20)
(0.258897 -0.490969 3.6557e-19)
(0.304505 -0.534871 -3.63026e-19)
(0.350376 -0.574125 -2.45278e-19)
(0.0118056 -0.0438948 -7.80609e-21)
(0.0472373 -0.134586 1.51446e-19)
(0.0886742 -0.226509 1.23168e-21)
(0.132358 -0.309195 -8.6084e-21)
(0.178534 -0.38318 1.08853e-20)
(0.228611 -0.451189 7.4969e-20)
(0.281631 -0.513212 8.00554e-20)
(0.335408 -0.568438 -1.30987e-19)
(0.389423 -0.617266 9.38433e-21)
(0.44374 -0.660107 -1.04284e-20)
(0.0188692 -0.0526033 0)
(0.0675746 -0.154829 4.36626e-21)
(0.121663 -0.255341 -4.04592e-19)
(0.17889 -0.348196 8.55118e-20)
(0.238821 -0.433084 6.21126e-20)
(0.301528 -0.510683 3.04533e-21)
(0.365801 -0.580529 -2.66276e-20)
(0.430187 -0.642294 -5.80769e-21)
(0.494526 -0.696371 0)
(0.55875 -0.742696 -2.06129e-20)
(0.027655 -0.0607048 2.42115e-20)
(0.0922911 -0.174553 -1.07869e-19)
(0.162032 -0.284341 -2.78036e-20)
(0.235198 -0.386451 -5.85081e-20)
(0.310665 -0.480367 5.43066e-20)
(0.387663 -0.566008 9.91785e-21)
(0.465064 -0.642972 6.54257e-20)
(0.541822 -0.711052 -2.29392e-20)
(0.617837 -0.770203 -6.80246e-19)
(0.692947 -0.819702 -9.97847e-21)
(0.0382571 -0.0682249 2.12949e-21)
(0.121677 -0.19342 8.43352e-20)
(0.209649 -0.312235 -8.39166e-20)
(0.300587 -0.422367 -1.68981e-20)
(0.392973 -0.523573 -7.74178e-20)
(0.485665 -0.615744 -1.46638e-21)
(0.577603 -0.698686 2.61798e-20)
(0.667856 -0.772254 -1.89704e-19)
(0.756373 -0.835984 3.75078e-19)
(0.842976 -0.88837 9.71402e-19)
(0.0505899 -0.0749827 1.66095e-20)
(0.155542 -0.210505 -1.48036e-19)
(0.263965 -0.337255 -2.17717e-19)
(0.374272 -0.453856 8.99757e-20)
(0.484793 -0.560536 -6.677e-20)
(0.594278 -0.657458 8.68091e-20)
(0.701691 -0.744732 1.79194e-19)
(0.806131 -0.822386 -9.43158e-20)
(0.907657 -0.889752 -3.01287e-19)
(1.00616 -0.944525 7.21878e-19)
(0.064461 -0.0805945 -2.54599e-20)
(0.193615 -0.224636 -5.8051e-19)
(0.324704 -0.357499 5.26105e-19)
(0.45614 -0.478522 3.36512e-19)
(0.586229 -0.588436 -8.22077e-20)
(0.713728 -0.687789 2.99776e-19)
(0.837627 -0.777046 -1.61169e-19)
(0.957023 -0.856573 -7.46332e-19)
(1.07212 -0.925631 -3.99137e-19)
(1.18293 -0.98122 4.47771e-19)
(0.079656 -0.0847985 -7.99405e-20)
(0.236058 -0.234793 -5.42625e-19)
(0.392645 -0.371138 -7.04031e-21)
(0.547805 -0.49367 6.68657e-20)
(0.699857 -0.603633 3.35128e-19)
(0.847647 -0.701935 -1.7955e-19)
(0.990254 -0.789306 -1.60554e-19)
(1.12674 -0.866085 1.81289e-19)
(1.25697 -0.931287 -3.44854e-19)
(1.38014 -0.983305 -5.78932e-19)
(0.399461 -0.540766 1.06829e-18)
(0.679866 -0.619852 -5.02097e-19)
(0.902408 -0.543528 -2.06082e-19)
(1.06158 -0.401084 3.50637e-19)
(1.18476 -0.247484 -2.4931e-19)
(1.25111 -0.14259 -2.49996e-19)
(1.28681 -0.0872779 -2.63742e-19)
(1.30952 -0.0545007 -5.68777e-20)
(1.32346 -0.0324477 2.67921e-19)
(1.33194 -0.0117246 5.77248e-20)
(0.466375 -0.628267 1.04128e-18)
(0.737523 -0.694248 1.41091e-19)
(0.955926 -0.600708 8.37142e-21)
(1.09982 -0.444066 -2.95516e-19)
(1.21008 -0.274981 -8.4184e-19)
(1.26796 -0.157291 0)
(1.29804 -0.0956571 -2.36753e-19)
(1.31729 -0.0595363 9.20146e-20)
(1.32921 -0.0352604 8.68854e-21)
(1.33641 -0.0126881 -8.32126e-20)
(0.554748 -0.713768 -1.02123e-18)
(0.807691 -0.766472 -9.06345e-20)
(1.01614 -0.656278 1.86264e-19)
(1.1431 -0.485145 -4.74309e-20)
(1.23753 -0.301281 -3.83754e-20)
(1.28594 -0.170875 8.78524e-20)
(1.31005 -0.103121 0)
(1.32563 -0.0639356 0)
(1.33539 -0.0376931 -8.32907e-20)
(1.34122 -0.0135248 0)
(0.664993 -0.795454 -2.21586e-19)
(0.892759 -0.834589 3.89369e-19)
(1.08303 -0.709391 2.08181e-20)
(1.19127 -0.52383 0)
(1.26742 -0.326094 6.71043e-19)
(1.30496 -0.183307 -1.47951e-19)
(1.32274 -0.109641 0)
(1.33444 -0.0676733 1.83499e-19)
(1.34192 -0.039725 0)
(1.34632 -0.0142199 2.02777e-20)
(0.795251 -0.871957 -1.53598e-19)
(0.994301 -0.896621 3.90449e-19)
(1.157 -0.758977 -1.14286e-20)
(1.24389 -0.559738 0)
(1.29987 -0.349111 1.75563e-19)
(1.32497 -0.194547 2.70654e-19)
(1.33601 -0.115199 8.89115e-20)
(1.34365 -0.0707291 1.6638e-20)
(1.34873 -0.0413374 -5.38833e-20)
(1.35164 -0.0147742 5.05844e-20)
(0.941691 -0.942491 -1.22482e-18)
(1.11217 -0.951154 -7.94267e-19)
(1.23866 -0.803734 3.41606e-21)
(1.30044 -0.592451 4.19988e-19)
(1.33462 -0.370041 -2.50144e-19)
(1.34589 -0.204557 1.43158e-19)
(1.34972 -0.119806 2.08958e-19)
(1.35317 -0.0730894 -2.48047e-19)
(1.35574 -0.0425138 -3.59549e-21)
(1.35711 -0.0151815 -2.02228e-21)
(1.09951 -1.0067 -2.38067e-19)
(1.24457 -0.997861 2.28751e-19)
(1.32845 -0.842409 6.02048e-22)
(1.36062 -0.621408 -1.10057e-20)
(1.37132 -0.38855 -4.44677e-19)
(1.36775 -0.213161 6.95377e-20)
(1.3638 -0.123434 -8.90551e-20)
(1.36292 -0.0747347 -6.90825e-20)
(1.36287 -0.0432353 2.30522e-20)
(1.36266 -0.0154325 -3.48931e-20)
(1.26378 -1.06347 -1.241e-18)
(1.38826 -1.03725 1.60988e-19)
(1.42566 -0.874236 0)
(1.42368 -0.646186 1.45781e-20)
(1.40901 -0.404623 3.57463e-19)
(1.39003 -0.220438 7.36391e-21)
(1.37804 -0.126175 -2.94757e-19)
(1.3728 -0.0756739 7.32742e-20)
(1.37003 -0.0434855 -6.22349e-22)
(1.36824 -0.0155254 -2.61017e-21)
(1.43154 -1.10941 3.43771e-18)
(1.5408 -1.07021 3.23472e-19)
(1.53053 -0.899789 3.37903e-19)
(1.49042 -0.667051 -1.78379e-20)
(1.44813 -0.418517 -2.89315e-20)
(1.4132 -0.226208 -3.18053e-19)
(1.39257 -0.12762 6.58317e-20)
(1.38278 -0.075748 8.44961e-21)
(1.37716 -0.0432015 -5.697e-20)
(1.37376 -0.0154247 -6.03746e-20)
(1.59892 -1.13334 -3.04001e-18)
(1.69419 -1.09572 1.36208e-18)
(1.63756 -0.921661 -6.40669e-20)
(1.55708 -0.687208 -4.25152e-19)
(1.48556 -0.433692 -4.04599e-19)
(1.43478 -0.23395 -1.9353e-19)
(1.40642 -0.129756 -7.09462e-20)
(1.39254 -0.0755309 0)
(1.38416 -0.0425709 8.33594e-21)
(1.37917 -0.0151978 2.466e-20)
(1.88732 -1.17426 -6.93834e-18)
(1.91798 -1.10329 -1.93762e-18)
(1.78591 -0.914037 2.96337e-19)
(1.64682 -0.678723 6.74723e-20)
(1.53582 -0.427703 1.51791e-19)
(1.46587 -0.229222 -8.70919e-20)
(1.42706 -0.126179 1.5782e-20)
(1.40604 -0.0727213 4.56113e-20)
(1.3932 -0.0406618 -4.37328e-20)
(1.38594 -0.0147099 1.34424e-20)
(2.28652 -1.13576 5.26873e-19)
(2.16604 -1.04995 -2.67029e-19)
(1.9231 -0.844733 1.03362e-18)
(1.71621 -0.619783 -2.53355e-19)
(1.56287 -0.387226 8.31198e-19)
(1.47955 -0.206576 2.12801e-19)
(1.44234 -0.115598 8.26992e-20)
(1.41881 -0.0666109 -9.21019e-21)
(1.40212 -0.0371121 5.49385e-20)
(1.39264 -0.0137919 5.53639e-20)
(2.60644 -1.04264 2.24567e-18)
(2.34241 -0.94288 3.24632e-19)
(2.00318 -0.744528 -1.31156e-19)
(1.74533 -0.54064 -4.07529e-36)
(1.56432 -0.338401 -2.66284e-20)
(1.47812 -0.185392 9.29932e-34)
(1.43441 -0.101889 -3.87644e-20)
(1.40027 -0.0559722 -3.36822e-33)
(1.37702 -0.0301263 1.63582e-20)
(1.36148 -0.0116261 -5.09562e-20)
(2.7851 -0.893009 3.99753e-33)
(2.37024 -0.791279 2.75916e-18)
(1.984 -0.618337 1.61282e-18)
(1.68375 -0.440882 0)
(1.47448 -0.274231 8.75247e-19)
(1.36241 -0.153283 3.89769e-19)
(1.305 -0.0819561 1.33156e-19)
(1.26806 -0.0426544 -5.5359e-33)
(1.24555 -0.021703 1.99293e-20)
(1.23125 -0.00937997 4.74639e-20)
(2.76383 -0.705116 3.86669e-18)
(2.24895 -0.626109 -1.50213e-19)
(1.85732 -0.481493 0)
(1.53931 -0.340225 0)
(1.32016 -0.213502 0)
(1.20021 -0.122774 0)
(1.14283 -0.0651138 -1.47677e-20)
(1.10909 -0.0326587 -6.23115e-33)
(1.08968 -0.0157739 1.50917e-20)
(1.07815 -0.00699168 5.52974e-33)
(2.55092 -0.516746 3.29029e-18)
(2.02125 -0.461062 0)
(1.64462 -0.348158 0)
(1.34217 -0.243178 0)
(1.13593 -0.152908 0)
(1.02048 -0.0900545 0)
(0.963326 -0.0481104 3.54801e-20)
(0.932095 -0.0233503 -2.23485e-20)
(0.915543 -0.0106915 1.47382e-20)
(0.906074 -0.00489023 5.92802e-20)
(2.18922 -0.342935 0)
(1.70221 -0.302997 1.16298e-18)
(1.36373 -0.22493 1.20668e-18)
(1.10053 -0.153955 0)
(0.922707 -0.0965053 7.40691e-19)
(0.821063 -0.058331 3.38487e-19)
(0.768429 -0.0316747 1.49376e-19)
(0.740803 -0.0149974 2.31383e-20)
(0.7273 -0.00648069 1.54748e-20)
(0.719888 -0.00307192 3.10197e-20)
(1.7018 -0.191415 -6.72958e-19)
(1.29908 -0.165554 -2.7163e-19)
(1.02557 -0.120559 1.73954e-19)
(0.820347 -0.0802467 -2.29564e-34)
(0.684195 -0.0502406 -9.24213e-20)
(0.60514 -0.0315669 3.00858e-33)
(0.561744 -0.0175842 4.87621e-20)
(0.539134 -0.0081859 9.80498e-20)
(0.528807 -0.00332739 1.34136e-20)
(0.523297 -0.00166193 -3.70153e-20)
(1.10005 -0.075966 3.40212e-18)
(0.822098 -0.0627122 -1.92106e-19)
(0.640326 -0.0438825 -5.97803e-19)
(0.508816 -0.0274093 0)
(0.423598 -0.016956 -5.93114e-19)
(0.373273 -0.0113813 -3.38486e-19)
(0.343906 -0.00663673 -1.09607e-19)
(0.328448 -0.00309503 -6.93279e-20)
(0.32175 -0.00118394 6.96371e-20)
(0.318282 -0.000645848 2.83429e-20)
(0.396999 -0.00332058 0)
(0.287366 0.00157596 0)
(0.22068 0.00397411 0)
(0.174553 0.005912 0)
(0.146071 0.0049876 0)
(0.128827 0.00325596 0)
(0.117741 0.00211793 5.24974e-20)
(0.11162 0.00116538 -1.76471e-34)
(0.109015 0.000604769 1.37366e-20)
(0.107669 0.000179112 3.40216e-20)
(3.36584 -0.0864164 5.38101e-19)
(3.32522 -0.265161 -8.44637e-20)
(3.24624 -0.430741 8.53871e-19)
(3.13138 -0.582295 -6.04657e-19)
(2.98544 -0.718364 6.68575e-19)
(2.81444 -0.836787 2.7708e-19)
(2.6259 -0.934706 -1.93215e-18)
(2.42886 -1.00883 -7.87253e-20)
(2.22408 -1.05511 0)
(1.98435 -1.06861 4.33045e-19)
(3.86081 -0.0752583 7.08324e-18)
(3.79757 -0.234385 1.95802e-18)
(3.7033 -0.387479 -4.87567e-18)
(3.5833 -0.532175 -4.51048e-19)
(3.44143 -0.666109 3.56631e-18)
(3.28088 -0.787585 1.93078e-18)
(3.10547 -0.895407 -5.18442e-18)
(2.9209 -0.988138 -1.955e-18)
(2.72627 -1.06395 2.20231e-18)
(2.49092 -1.12125 8.57703e-19)
(3.8322 -0.0535114 -1.26029e-19)
(3.81926 -0.171744 4.40988e-18)
(3.78441 -0.299912 -1.09027e-18)
(3.72323 -0.431048 -3.4484e-18)
(3.63498 -0.558835 -6.80292e-18)
(3.52239 -0.678869 1.02743e-17)
(3.38965 -0.788804 4.17459e-18)
(3.24172 -0.887916 -3.90166e-18)
(3.07949 -0.978524 -2.89282e-18)
(2.88477 -1.06257 -3.41146e-18)
(3.62769 -0.0473667 -4.84623e-18)
(3.61861 -0.14502 -4.36034e-18)
(3.59862 -0.243836 5.48109e-18)
(3.56635 -0.343189 1.91544e-18)
(3.52143 -0.442458 -8.98675e-18)
(3.46321 -0.540862 4.95137e-19)
(3.39089 -0.63706 3.88813e-18)
(3.30412 -0.730376 -1.05594e-18)
(3.20383 -0.822898 1.27637e-18)
(3.0816 -0.914406 2.79788e-19)
(3.34309 -0.0366311 -9.1738e-19)
(3.33801 -0.11173 3.0084e-18)
(3.32608 -0.18877 1.62196e-18)
(3.3064 -0.26728 -1.89707e-18)
(3.27882 -0.34618 -2.00507e-18)
(3.24364 -0.424226 -2.43937e-18)
(3.20111 -0.500374 3.80544e-19)
(3.15096 -0.574452 1.41124e-19)
(3.09485 -0.647613 -2.15086e-18)
(3.0324 -0.721045 -2.04516e-18)
(2.96168 -0.0265759 -1.82489e-18)
(2.95889 -0.079931 -5.86824e-20)
(2.95236 -0.134664 -1.63994e-18)
(2.94142 -0.190994 3.12577e-19)
(2.92573 -0.24867 5.37562e-18)
(2.90524 -0.307079 -3.67829e-19)
(2.87987 -0.365287 4.4511e-20)
(2.84921 -0.422233 -2.61484e-18)
(2.8155 -0.477022 -3.50868e-18)
(2.78521 -0.52992 3.72294e-19)
(2.48638 -0.017514 -2.88366e-20)
(2.48501 -0.0519537 -8.15335e-19)
(2.4818 -0.0872846 -2.61858e-18)
(2.47625 -0.123828 -3.43579e-18)
(2.46792 -0.161615 2.50003e-18)
(2.45652 -0.200379 1.50421e-18)
(2.44164 -0.239502 -1.38669e-18)
(2.42269 -0.277981 1.62688e-18)
(2.40171 -0.314711 -4.31916e-19)
(2.38851 -0.349789 -9.66945e-19)
(1.9141 -0.00968429 7.73442e-19)
(1.91352 -0.0283037 -8.32935e-19)
(1.9122 -0.047457 -3.27869e-20)
(1.90971 -0.0673894 -3.48586e-20)
(1.90559 -0.0881764 -7.29304e-20)
(1.89943 -0.109681 -2.3351e-18)
(1.89075 -0.131498 -6.79588e-19)
(1.87896 -0.152909 2.62936e-18)
(1.86575 -0.17314 -6.04289e-19)
(1.86096 -0.192412 -1.35124e-18)
(1.23958 -0.00373336 -1.64487e-18)
(1.23936 -0.0106961 -8.49919e-19)
(1.23891 -0.0179069 2.34234e-18)
(1.23789 -0.0254904 -8.90816e-19)
(1.23588 -0.0334949 -6.75137e-19)
(1.23249 -0.0418617 1.35418e-18)
(1.22729 -0.050394 -1.29781e-18)
(1.21987 -0.0587274 1.2887e-18)
(1.21144 -0.066426 -1.21145e-18)
(1.20941 -0.0736142 -4.25011e-18)
(0.454842 -0.000257268 6.63853e-19)
(0.454753 -0.000700068 7.03895e-19)
(0.454615 -0.0011589 7.49112e-19)
(0.454241 -0.00164009 1.35571e-18)
(0.453402 -0.00214053 -6.72933e-19)
(0.451875 -0.00263795 -1.30123e-18)
(0.449437 -0.00310039 6.15493e-19)
(0.445834 -0.00359483 2.47906e-20)
(0.44154 -0.00439502 -4.95718e-20)
(0.440108 -0.00504845 1.10426e-19)
(1.6518 0.995996 -2.84204e-19)
(1.51079 0.940904 1.82474e-20)
(1.35758 0.88005 -2.26864e-19)
(1.19671 0.807956 1.78315e-19)
(1.02884 0.723662 -1.93162e-19)
(0.854306 0.626892 -1.02233e-19)
(0.673432 0.516855 2.30869e-19)
(0.486874 0.392132 -3.06577e-19)
(0.295852 0.250668 3.08599e-19)
(0.101449 0.0916691 2.39649e-19)
(1.88463 0.991157 0)
(1.72815 0.933943 6.37661e-19)
(1.55953 0.872161 3.31968e-19)
(1.38121 0.801397 1.63306e-19)
(1.19367 0.719544 4.31068e-19)
(0.996885 0.625661 -8.75246e-20)
(0.79091 0.518445 -7.92789e-20)
(0.576079 0.395898 9.10007e-20)
(0.353201 0.255136 -1.04336e-18)
(0.122683 0.0943499 -1.54092e-20)
(2.08935 0.958192 1.57364e-19)
(1.9237 0.904383 0)
(1.74479 0.845903 -1.01187e-19)
(1.55377 0.779095 -3.84254e-19)
(1.35073 0.701716 5.3957e-20)
(1.13532 0.6125 3.95505e-19)
(0.907216 0.509869 -6.06308e-19)
(0.666218 0.391486 -1.99556e-19)
(0.412402 0.253957 7.82005e-19)
(0.145203 0.0947083 -1.76653e-19)
(2.28323 0.897648 1.90738e-19)
(2.10893 0.849954 1.25905e-20)
(1.91992 0.797335 2.45481e-20)
(1.71688 0.736546 3.59791e-20)
(1.49952 0.665467 -3.07069e-20)
(1.26706 0.582807 2.72659e-19)
(1.0186 0.486909 -2.05732e-19)
(0.753213 0.37534 -8.55593e-19)
(0.470011 0.244562 0)
(0.167312 0.0916574 0)
(2.4664 0.811217 -1.06974e-18)
(2.28286 0.770294 -6.0703e-19)
(2.08353 0.72457 -1.20922e-19)
(1.86876 0.671081 -6.67416e-20)
(1.63778 0.607905 0)
(1.38936 0.533803 2.41322e-19)
(1.122 0.447163 2.68379e-19)
(0.834023 0.345633 2.8687e-19)
(0.523528 0.225828 -4.24601e-19)
(0.18781 0.0848552 -8.13825e-20)
(2.63249 0.701581 7.63955e-19)
(2.44008 0.667587 -1.39487e-19)
(2.23103 0.629236 -2.21842e-19)
(2.00534 0.583899 0)
(1.76184 0.529915 0)
(1.49887 0.466174 0)
(1.21442 0.391207 -3.80693e-20)
(0.906103 0.302899 3.69311e-19)
(0.571151 0.19823 3.78156e-19)
(0.20597 0.0745839 -3.08749e-19)
(2.77431 0.571927 -1.19213e-18)
(2.57403 0.544855 -1.48066e-18)
(2.35645 0.514148 -3.02702e-22)
(2.12128 0.477596 -1.87919e-19)
(1.86698 0.433867 -9.30502e-20)
(1.59154 0.382047 -1.78678e-19)
(1.29249 0.320904 4.59456e-19)
(0.966877 0.248673 2.13966e-19)
(0.611215 0.162866 5.40715e-19)
(0.221193 0.0613066 2.03109e-19)
(2.88561 0.425406 -1.15714e-18)
(2.67881 0.405308 8.48457e-20)
(2.45435 0.382516 1.64715e-19)
(2.21164 0.355333 1.68404e-20)
(1.94883 0.322803 -3.14848e-19)
(1.6636 0.284257 -1.74173e-19)
(1.35312 0.238767 -6.22152e-19)
(1.01401 0.185016 1.18309e-19)
(0.642226 0.121162 5.16789e-20)
(0.23294 0.0455879 -6.24781e-21)
(2.96137 0.264936 1.01081e-19)
(2.74978 0.25212 3.97615e-19)
(2.5205 0.23769 -3.30734e-19)
(2.27262 0.220548 3.63723e-19)
(2.00403 0.200129 3.73144e-19)
(1.71218 0.176036 4.9265e-19)
(1.39396 0.147698 -6.36729e-19)
(1.0457 0.11431 -3.24784e-19)
(0.663032 0.0747631 -4.5871e-20)
(0.240791 0.0280801 -3.27391e-19)
(2.99914 0.0934265 5.82026e-19)
(2.78473 0.0886522 -1.85729e-19)
(2.55289 0.0833281 4.80285e-19)
(2.30237 0.0770518 -3.11909e-19)
(2.0309 0.069647 2.66622e-19)
(1.73576 0.0609983 6.06814e-19)
(1.41373 0.0509316 3.79832e-19)
(1.061 0.0392035 3.09562e-19)
(0.673021 0.0254895 2.66193e-19)
(0.24453 0.00950214 5.44256e-19)
(0.236091 0.445239 -4.37735e-19)
(0.201195 0.412707 -1.8129e-19)
(0.166539 0.377209 1.66585e-19)
(0.133237 0.339877 -5.3605e-19)
(0.102616 0.302068 -1.28446e-19)
(0.0750492 0.262788 6.18736e-19)
(0.0496101 0.21695 2.70073e-19)
(0.0260444 0.157217 -6.76581e-20)
(0.00793954 0.0836746 1.33326e-19)
(-0.000991562 0.0238958 -7.28629e-20)
(0.286651 0.535881 3.64327e-19)
(0.246837 0.499852 4.05515e-19)
(0.207112 0.459524 -1.64066e-20)
(0.167977 0.414702 -1.62699e-19)
(0.131197 0.366784 -3.51055e-19)
(0.0991304 0.316836 7.55628e-20)
(0.0710006 0.26143 1.42164e-19)
(0.0442679 0.191702 1.42983e-19)
(0.0191407 0.105345 -5.18428e-19)
(0.00288567 0.0308981 -1.25964e-19)
(0.359453 0.624792 -5.74145e-19)
(0.313177 0.585052 -4.47359e-19)
(0.267238 0.539953 2.40646e-19)
(0.221474 0.488546 1.66566e-19)
(0.17687 0.430678 5.66677e-22)
(0.136446 0.367975 -8.57028e-20)
(0.100613 0.299703 -2.17797e-20)
(0.066654 0.220063 -4.55566e-19)
(0.0337693 0.127382 -2.20167e-19)
(0.00765293 0.0398174 -3.75674e-20)
(0.455272 0.710589 4.99954e-19)
(0.400727 0.666921 1.63344e-19)
(0.346418 0.616334 -1.41766e-19)
(0.292223 0.558196 1.00436e-19)
(0.238391 0.491718 -7.87959e-21)
(0.187093 0.417809 -1.03494e-20)
(0.139478 0.337063 -1.60725e-19)
(0.094272 0.247224 3.17489e-19)
(0.0511746 0.147931 -3.4001e-19)
(0.0135266 0.0489929 -5.90222e-20)
(0.573074 0.791688 -2.83386e-19)
(0.508805 0.744324 -8.84786e-20)
(0.444144 0.688077 -1.33525e-20)
(0.379201 0.62299 -5.43121e-20)
(0.314031 0.548693 4.86305e-20)
(0.249963 0.465651 5.39395e-20)
(0.188172 0.374586 -4.56547e-20)
(0.128773 0.27511 -2.36622e-19)
(0.0723334 0.167621 1.81512e-19)
(0.0209004 0.0574912 7.68629e-20)
(0.709771 0.865939 6.52263e-19)
(0.634793 0.815305 3.26156e-19)
(0.558496 0.753844 2.09228e-19)
(0.481077 0.682423 4.8004e-20)
(0.402584 0.601271 1.3978e-19)
(0.324008 0.510754 6.91725e-20)
(0.246421 0.411363 1.37044e-19)
(0.170684 0.303249 4.96447e-20)
(0.0980097 0.186849 2.32171e-21)
(0.0300239 0.0653618 -6.48945e-21)
(0.861625 0.931013 -1.20538e-19)
(0.775315 0.877492 -8.45734e-19)
(0.686589 0.81153 -9.11758e-20)
(0.595664 0.734889 -3.09046e-20)
(0.502542 0.648233 -9.74232e-21)
(0.408136 0.551802 1.46171e-19)
(0.313472 0.445789 -4.48207e-20)
(0.219699 0.330237 7.56054e-20)
(0.128349 0.205225 -1.59788e-19)
(0.0409654 0.0726982 -1.32657e-21)
(1.02575 0.98317 -8.9477e-19)
(0.927726 0.927352 5.99054e-20)
(0.826113 0.857985 -2.26759e-19)
(0.721086 0.77766 -7.86465e-20)
(0.612531 0.687205 -3.25634e-20)
(0.501335 0.586616 -7.53224e-20)
(0.38849 0.475722 5.80432e-20)
(0.275198 0.354241 6.2008e-20)
(0.163075 0.221741 -1.00213e-20)
(0.0536203 0.0792674 -1.07946e-19)
(1.20254 1.01583 1.24453e-19)
(1.09241 0.959323 5.28533e-19)
(0.977405 0.888544 1.61259e-21)
(0.857596 0.806764 -3.36419e-20)
(0.732716 0.714822 1.54879e-19)
(0.603634 0.612323 -3.52774e-19)
(0.471291 0.498715 -2.46997e-19)
(0.336835 0.373307 3.57998e-19)
(0.20185 0.235165 1.45487e-19)
(0.0677728 0.0846362 -3.82774e-20)
(1.399 1.01392 7.45654e-19)
(1.27675 0.961162 3.25975e-19)
(1.14678 0.894523 5.63343e-20)
(1.01007 0.815839 -1.98116e-19)
(0.866687 0.726185 -1.6257e-20)
(0.717515 0.625174 4.68323e-19)
(0.563373 0.511974 -2.70401e-19)
(0.405274 0.385534 -1.85073e-19)
(0.244735 0.244416 3.36232e-19)
(0.0831635 0.0885033 -7.14946e-21)
(0.940747 0.090999 1.01561e-20)
(1.17224 0.160712 -3.32542e-20)
(1.15589 0.177144 -5.73942e-20)
(1.2131 0.16983 0)
(1.2188 0.184488 9.27432e-21)
(1.18409 0.245172 -4.93769e-20)
(1.07589 0.379112 -9.55732e-20)
(0.920986 0.532465 -1.52098e-19)
(0.698581 0.637483 -1.34205e-19)
(0.410776 0.58617 6.81362e-19)
(0.937853 0.0715969 1.84693e-19)
(1.16641 0.141106 -8.79291e-20)
(1.15425 0.160033 2.84542e-21)
(1.21543 0.163949 2.58137e-20)
(1.22828 0.189084 -9.39992e-21)
(1.20332 0.265328 3.25668e-22)
(1.10875 0.419211 1.68886e-19)
(0.969948 0.589258 0)
(0.752673 0.713228 4.20138e-19)
(0.476758 0.676131 -3.93511e-19)
(0.935181 0.0535338 -1.02339e-19)
(1.16361 0.120834 6.16588e-21)
(1.1551 0.142546 3.93713e-20)
(1.22104 0.156605 2.25446e-20)
(1.24073 0.191894 2.56269e-20)
(1.22549 0.283983 -5.21066e-20)
(1.14698 0.457289 1.08726e-19)
(1.02543 0.644607 3.26695e-20)
(0.818806 0.786827 4.65562e-23)
(0.564702 0.76334 -7.96714e-19)
(0.933008 0.0363267 -4.03778e-20)
(1.16358 0.0998167 1.7634e-20)
(1.15839 0.124694 3.20565e-22)
(1.22974 0.148078 -1.86397e-20)
(1.25598 0.19323 -1.0462e-20)
(1.25095 0.301205 -1.58836e-20)
(1.19026 0.493122 -1.04869e-19)
(1.08712 0.697872 1.99837e-20)
(0.89936 0.856298 -3.48409e-19)
(0.675249 0.84578 -1.96509e-19)
(0.931467 0.0195101 -1.18889e-20)
(1.16614 0.0780014 5.671e-21)
(1.16406 0.10654 1.81527e-20)
(1.24128 0.138634 -1.88971e-20)
(1.27384 0.19341 0)
(1.27968 0.317026 0)
(1.23785 0.526659 -4.83037e-20)
(1.15529 0.748133 -2.16489e-20)
(0.996232 0.919498 -9.67802e-20)
(0.806424 0.921875 -5.75463e-20)
(0.930645 0.00266098 -1.92981e-20)
(1.17112 0.0553265 -1.01555e-21)
(1.17205 0.0882041 6.29763e-20)
(1.25534 0.128537 -3.12389e-20)
(1.29398 0.192784 -1.65937e-20)
(1.31117 0.331495 1.87369e-21)
(1.28903 0.557791 2.32523e-20)
(1.23068 0.794097 -1.44467e-20)
(1.1097 0.97477 2.41401e-21)
(0.954102 0.990845 -2.03562e-20)
(0.930625 -0.0146321 1.19023e-19)
(1.17838 0.0317053 -2.10551e-20)
(1.18228 0.0698438 1.08648e-20)
(1.27157 0.117985 -1.06676e-20)
(1.31614 0.191472 3.72623e-20)
(1.34488 0.344542 1.37287e-20)
(1.3435 0.586136 -4.48679e-20)
(1.31405 0.834355 -2.29937e-19)
(1.23823 1.0216 2.94456e-20)
(1.11312 1.05252 -1.01916e-18)
(0.93145 -0.0326668 5.00101e-20)
(1.18784 0.00704283 3.0934e-20)
(1.19477 0.0516726 -4.54064e-20)
(1.2896 0.107248 4.65191e-20)
(1.33956 0.189983 1.45796e-20)
(1.37963 0.356496 5.39794e-21)
(1.40058 0.611353 -2.15297e-20)
(1.40503 0.867921 1.89484e-19)
(1.37869 1.06048 1.08546e-20)
(1.27818 1.10606 2.92724e-18)
(0.932902 -0.0514721 -2.48965e-19)
(1.19945 -0.0185664 -2.07126e-20)
(1.20969 0.0339816 -1.04821e-20)
(1.30922 0.0964253 -3.96707e-20)
(1.36446 0.188084 -4.33448e-20)
(1.41609 0.367536 1.28681e-20)
(1.46151 0.633638 9.91431e-20)
(1.50425 0.895237 -1.31677e-19)
(1.52857 1.09244 -2.60817e-20)
(1.446 1.14837 -6.48909e-18)
(0.934505 -0.0715814 5.01194e-21)
(1.21327 -0.0447314 -3.81677e-20)
(1.22685 0.0170792 -2.73037e-20)
(1.33014 0.086862 -1.13315e-19)
(1.38875 0.189491 -5.08312e-20)
(1.4508 0.381891 1.24486e-20)
(1.52231 0.656702 -1.27731e-19)
(1.60609 0.91938 -7.78613e-19)
(1.67998 1.11707 -1.18312e-18)
(1.61291 1.16859 -8.03653e-18)
(0.938034 -0.103023 -1.59745e-20)
(1.23014 -0.0792475 9.61701e-21)
(1.24826 -0.00841022 2.48136e-20)
(1.35527 0.0694989 -9.47654e-20)
(1.42118 0.177755 -1.64744e-20)
(1.49773 0.373687 -3.07147e-20)
(1.60504 0.648238 9.52834e-21)
(1.74655 0.90956 -1.78818e-18)
(1.8971 1.11934 -1.69561e-18)
(1.89598 1.20486 3.35616e-18)
(0.94327 -0.148272 -4.01332e-19)
(1.24936 -0.124249 -8.07069e-20)
(1.2713 -0.0482586 -1.42971e-21)
(1.37939 0.0414944 -6.5056e-20)
(1.44212 0.149247 3.79328e-22)
(1.52395 0.3322 -3.16968e-19)
(1.66872 0.588975 -1.64666e-19)
(1.8746 0.83568 -6.90405e-19)
(2.13215 1.05637 1.98838e-19)
(2.27991 1.15513 -3.41571e-19)
(0.942745 -0.195334 -2.59586e-20)
(1.26764 -0.173263 -4.30817e-20)
(1.29191 -0.086492 3.07422e-20)
(1.40122 0.0159411 4.87503e-20)
(1.46231 0.127052 9.15594e-34)
(1.53776 0.292457 -1.4981e-20)
(1.70387 0.516619 -2.66602e-33)
(1.95501 0.736091 1.9881e-19)
(2.29976 0.944404 -9.362e-19)
(2.58351 1.05263 -6.26359e-19)
(0.93619 -0.24357 1.51253e-18)
(1.28304 -0.22121 -5.86349e-34)
(1.30805 -0.131012 -3.63669e-20)
(1.39319 -0.0113696 -7.59942e-20)
(1.41997 0.102628 -4.02818e-19)
(1.48811 0.239595 -8.6171e-19)
(1.66412 0.422686 -5.29145e-33)
(1.95035 0.612393 -1.58296e-18)
(2.33418 0.792883 -3.01263e-18)
(2.75457 0.898251 1.68248e-18)
(0.925372 -0.298394 0)
(1.29865 -0.261834 -3.67762e-33)
(1.22529 -0.154839 0)
(1.2274 -0.0190089 0)
(1.24334 0.0849896 0)
(1.329 0.189619 0)
(1.52683 0.325668 -9.44561e-33)
(1.83614 0.476308 0)
(2.22317 0.626788 -3.47789e-19)
(2.73874 0.708715 1.26899e-18)
(0.912551 -0.358503 1.09045e-19)
(1.27127 -0.302526 -4.4576e-19)
(1.04114 -0.137519 -6.45447e-20)
(1.03479 -0.0147774 0)
(1.05457 0.0664664 0)
(1.14283 0.139597 7.47211e-20)
(1.3334 0.234334 1.40641e-18)
(1.63043 0.344703 -1.99336e-19)
(2.00293 0.461775 -4.99184e-19)
(2.53492 0.518534 4.67137e-18)
(0.880968 -0.404917 -1.52392e-17)
(1.10156 -0.268492 9.522e-19)
(0.846525 -0.10843 -7.87807e-20)
(0.824373 -0.0139996 -1.60074e-19)
(0.845316 0.0445087 -4.03837e-19)
(0.928312 0.0899091 -7.09242e-19)
(1.09541 0.149169 -1.17567e-18)
(1.35484 0.223266 -1.52775e-18)
(1.69065 0.304049 -1.70169e-18)
(2.18072 0.34381 3.68872e-18)
(0.807516 -0.394458 -4.11564e-19)
(0.88984 -0.202341 -1.21671e-18)
(0.634529 -0.0718659 -1.2758e-19)
(0.601927 -0.0110973 -8.0133e-20)
(0.621246 0.0249118 -3.79921e-34)
(0.689185 0.0478148 1.13463e-19)
(0.818561 0.0780768 -1.6417e-32)
(1.02119 0.119964 -1.95676e-19)
(1.29353 0.166474 2.96422e-19)
(1.69916 0.191968 7.03996e-19)
(0.663518 -0.28881 3.43179e-17)
(0.618647 -0.106119 -3.10434e-18)
(0.405772 -0.0316809 -2.39584e-19)
(0.368434 -0.0060972 -5.53027e-20)
(0.382167 0.00914867 3.16008e-19)
(0.42739 0.0165048 7.16012e-19)
(0.509117 0.0267199 7.70022e-19)
(0.63919 0.0437586 4.62124e-19)
(0.820854 0.0632108 -1.77521e-19)
(1.10113 0.0762448 3.55301e-18)
(0.336603 -0.0768515 5.59031e-19)
(0.261753 -0.00238736 -6.77445e-33)
(0.148005 0.0173998 -3.02385e-19)
(0.128682 0.00213069 0)
(0.132352 -0.00154842 0)
(0.148005 -0.00440753 1.09255e-19)
(0.175466 -0.00578944 6.81307e-35)
(0.22111 -0.00394987 -1.2566e-19)
(0.288001 -0.00153672 -2.79695e-19)
(0.398741 0.00333573 9.98173e-19)
(1.99977 1.0945 -1.78443e-18)
(2.23693 1.07691 -2.30878e-18)
(2.44013 1.02789 0)
(2.63531 0.95155 -7.66139e-19)
(2.82195 0.851756 -1.8027e-18)
(2.99123 0.731793 -2.25298e-18)
(3.13563 0.594568 -4.91453e-19)
(3.24914 0.442327 1.27107e-18)
(3.32688 0.276689 -3.55098e-18)
(3.36632 0.0985194 1.35777e-18)
(2.49553 1.13872 2.58233e-19)
(2.7277 1.07942 1.39268e-18)
(2.92139 1.00229 1.45308e-19)
(3.10458 0.908382 6.68475e-19)
(3.27872 0.799619 -1.09981e-18)
(3.43831 0.677566 -4.99054e-18)
(3.57947 0.543451 2.4647e-18)
(3.6991 0.39889 1.26975e-17)