# Selection   : all
# Cells       : 440
# Volume      : 7.374263e+01
# Time        	min(p)
0             	0.000000e+00
0.05          	-3.025857e+00
0.1           	-3.002128e+00
0.15          	-3.020445e+00
0.2           	-3.037065e+00
0.25          	-3.021262e+00
0.3           	-2.976562e+00
0.35          	-2.910230e+00
0.4           	-2.845916e+00
0.45          	-2.766767e+00
0.5           	-2.669681e+00
0.55          	-2.577755e+00
0.6           	-2.464337e+00
0.65          	-2.363047e+00
0.7           	-2.263640e+00
0.75          	-2.172998e+00
0.8           	-2.069709e+00
0.85          	-1.976865e+00
0.9           	-1.930890e+00
0.95          	-1.924865e+00
1             	-1.917790e+00
1.05          	-1.914840e+00
1.1           	-1.915606e+00
1.15          	-1.906067e+00
1.2           	-1.904542e+00
1.25          	-1.898943e+00
1.3           	-1.898558e+00
1.35          	-1.894814e+00
1.4           	-1.894081e+00
1.45          	-1.892503e+00
1.5           	-1.891715e+00
1.55          	-1.894285e+00
1.6           	-1.892256e+00
1.65          	-1.887380e+00
1.7           	-1.881076e+00
1.75          	-1.876479e+00
1.8           	-1.874753e+00
1.85          	-1.873455e+00
1.9           	-1.877577e+00
1.95          	-1.885014e+00
2             	-1.887483e+00
2.05          	-1.893366e+00
2.1           	-1.898983e+00
2.15          	-1.907387e+00
2.2           	-1.911776e+00
2.25          	-1.915467e+00
2.3           	-1.922656e+00
2.35          	-1.888943e+00
2.4           	-1.887558e+00
2.45          	-1.881982e+00
2.5           	-1.876217e+00
2.55          	-1.869242e+00
2.6           	-1.861814e+00
2.65          	-1.853090e+00
2.7           	-1.844312e+00
2.75          	-1.834364e+00
2.8           	-1.823702e+00
2.85          	-1.808859e+00
2.9           	-1.796166e+00
2.95          	-1.775717e+00
3             	-1.761881e+00
3.05          	-1.746477e+00
3.1           	-1.729260e+00
3.15          	-1.713714e+00
3.2           	-1.696030e+00
3.25          	-1.679100e+00
3.3           	-1.662305e+00
3.35          	-1.645426e+00
3.4           	-1.638205e+00
3.45          	-1.627946e+00
3.5           	-1.612509e+00
3.55          	-1.597191e+00
3.6           	-1.580472e+00
3.65          	-1.574459e+00
3.7           	-1.554191e+00
3.75          	-1.578785e+00
3.8           	-1.592846e+00
3.85          	-1.605254e+00
3.9           	-1.617292e+00
3.95          	-1.630214e+00
4             	-1.635661e+00
4.05          	-1.646375e+00
4.1           	-1.655497e+00
4.15          	-1.664982e+00
4.2           	-1.673485e+00
4.25          	-1.681475e+00
4.3           	-1.683762e+00
4.35          	-1.690450e+00
4.4           	-1.696488e+00
4.45          	-1.701872e+00
4.5           	-1.707134e+00
4.55          	-1.712004e+00
4.6           	-1.716645e+00
4.65          	-1.721409e+00
4.7           	-1.724065e+00
4.75          	-1.730232e+00
4.8           	-1.740511e+00
4.85          	-1.729033e+00
4.9           	-1.730076e+00
4.95          	-1.730966e+00
5             	-1.732993e+00
5.05          	-1.725398e+00
5.1           	-1.716964e+00
5.15          	-1.712608e+00
5.2           	-1.710888e+00
5.25          	-1.701939e+00
5.3           	-1.693011e+00
5.35          	-1.684857e+00
5.4           	-1.676711e+00
5.45          	-1.671471e+00
5.5           	-1.649274e+00
5.55          	-1.640230e+00
5.6           	-1.621893e+00
5.65          	-1.605538e+00
5.7           	-1.587928e+00
5.75          	-1.581616e+00
5.8           	-1.556132e+00
5.85          	-1.538333e+00
5.9           	-1.517637e+00
5.95          	-1.497602e+00
6             	-1.474259e+00
6.05          	-1.449325e+00
6.1           	-1.433290e+00
6.15          	-1.400268e+00
6.2           	-1.377759e+00
6.25          	-1.357721e+00
6.3           	-1.330870e+00
6.35          	-1.294533e+00
6.4           	-1.268250e+00
6.45          	-1.238092e+00
6.5           	-1.205774e+00
6.55          	-1.175628e+00
6.6           	-1.169355e+00
6.65          	-1.131523e+00
6.7           	-1.096491e+00
6.75          	-1.083673e+00
6.8           	-1.094012e+00
6.85          	-1.106292e+00
6.9           	-1.118568e+00
6.95          	-1.113462e+00
7             	-1.151181e+00
7.05          	-1.161958e+00
7.1           	-1.172565e+00
7.15          	-1.175338e+00
7.2           	-1.181837e+00
7.25          	-1.196913e+00
7.3           	-1.208550e+00
7.35          	-1.222867e+00
7.4           	-1.238916e+00
7.45          	-1.263648e+00
7.5           	-1.266490e+00
7.55          	-1.283755e+00
7.6           	-1.309552e+00
7.65          	-1.329323e+00
7.7           	-1.365738e+00
7.75          	-1.359683e+00
7.8           	-1.382003e+00
7.85          	-1.403507e+00
7.9           	-1.436763e+00
7.95          	-1.427360e+00
8             	-1.442549e+00
8.05          	-1.439963e+00
8.1           	-1.448758e+00
8.15          	-1.470910e+00
8.2           	-1.505944e+00
8.25          	-1.572259e+00
8.3           	-1.511733e+00
8.35          	-1.554693e+00
8.4           	-1.617511e+00
8.45          	-1.665807e+00
8.5           	-1.697363e+00
8.55          	-1.706860e+00
8.6           	-1.702428e+00
8.65          	-1.785072e+00
8.7           	-1.689600e+00
8.75          	-1.719136e+00
8.8           	-1.732441e+00
8.85          	-1.742959e+00
8.9           	-1.742990e+00
8.95          	-1.713858e+00
9             	-1.684968e+00
9.05          	-1.654200e+00
9.1           	-1.619897e+00
9.15          	-1.597368e+00
9.2           	-1.596399e+00
9.25          	-1.630826e+00
9.3           	-1.650457e+00
9.35          	-1.679506e+00
9.4           	-1.668904e+00
9.45          	-1.707029e+00
9.5           	-1.727295e+00
9.55          	-1.756580e+00
9.6           	-1.772025e+00
9.65          	-1.779668e+00
9.7           	-1.787742e+00
9.75          	-1.807862e+00
9.8           	-1.809551e+00
9.85          	-1.824087e+00
9.9           	-1.841649e+00
9.95          	-1.848867e+00
10            	-1.842554e+00
10.05         	-1.837763e+00
10.1          	-1.864390e+00
10.15         	-1.870349e+00
10.2          	-1.874505e+00
10.25         	-1.879364e+00
10.3          	-1.904927e+00
10.35         	-1.902808e+00
10.4          	-1.913505e+00
10.45         	-1.923385e+00
10.5          	-1.931613e+00
10.55         	-1.941793e+00
10.6          	-1.932936e+00
10.65         	-1.970505e+00
10.7          	-1.965675e+00
10.75         	-1.979761e+00
10.8          	-1.987628e+00
10.85         	-1.981985e+00
10.9          	-1.958311e+00
10.95         	-1.978548e+00
11            	-1.967500e+00
11.05         	-1.999710e+00
11.1          	-1.985802e+00
11.15         	-1.990972e+00
11.2          	-2.002563e+00
11.25         	-1.983255e+00
11.3          	-1.939842e+00
11.35         	-1.980110e+00
11.4          	-1.969565e+00
11.45         	-1.961995e+00
11.5          	-1.953442e+00
11.55         	-1.949605e+00
11.6          	-1.932691e+00
11.65         	-1.921547e+00
11.7          	-1.910050e+00
11.75         	-1.894130e+00
11.8          	-1.875618e+00
11.85         	-1.864305e+00
11.9          	-1.845978e+00
11.95         	-1.826847e+00
12            	-1.799582e+00
12.05         	-1.776756e+00
12.1          	-1.752547e+00
12.15         	-1.723792e+00
12.2          	-1.693783e+00
12.25         	-1.884090e+00
12.3          	-1.628200e+00
12.35         	-1.646757e+00
12.4          	-1.672774e+00
12.45         	-1.701804e+00
12.5          	-1.788667e+00
12.55         	-1.985550e+00
12.6          	-1.690002e+00
12.65         	-1.699075e+00
12.7          	-1.697202e+00
12.75         	-1.715264e+00
12.8          	-1.707563e+00
12.85         	-1.786998e+00
12.9          	-1.674141e+00
12.95         	-1.676477e+00
13            	-1.674140e+00
13.05         	-1.673110e+00
13.1          	-1.674726e+00
13.15         	-1.676949e+00
13.2          	-1.691076e+00
13.25         	-1.691149e+00
13.3          	-1.679706e+00
13.35         	-1.700493e+00
13.4          	-1.720409e+00
13.45         	-1.639763e+00
13.5          	-1.661332e+00
13.55         	-1.658311e+00
13.6          	-1.649843e+00
13.65         	-1.646562e+00
13.7          	-1.654294e+00
13.75         	-1.626142e+00
13.8          	-1.623458e+00
13.85         	-1.710887e+00
13.9          	-1.809558e+00
13.95         	-2.032091e+00
14            	-1.901040e+00
14.05         	-1.767994e+00
14.1          	-1.786083e+00
14.15         	-1.810675e+00
14.2          	-1.804414e+00
14.25         	-1.799422e+00
14.3          	-1.807297e+00
14.35         	-1.795680e+00
14.4          	-1.752212e+00
14.45         	-1.678325e+00
14.5          	-1.661474e+00
14.55         	-1.620648e+00
14.6          	-1.668242e+00
14.65         	-1.700267e+00
14.7          	-1.709815e+00
14.75         	-1.698147e+00
14.8          	-1.672844e+00
14.85         	-1.623074e+00
14.9          	-1.584679e+00
14.95         	-1.560174e+00
15            	-1.607871e+00
15.05         	-1.649301e+00
15.1          	-1.659724e+00
15.15         	-1.697674e+00
15.2          	-1.698251e+00
15.25         	-1.724249e+00
15.3          	-1.733104e+00
15.35         	-1.762406e+00
15.4          	-1.782880e+00
15.45         	-1.786215e+00
15.5          	-1.796158e+00
15.55         	-1.800003e+00
15.6          	-1.805410e+00
15.65         	-1.821304e+00
15.7          	-1.846197e+00
15.75         	-1.849556e+00
15.8          	-1.837459e+00
15.85         	-1.824832e+00
15.9          	-1.829401e+00
15.95         	-1.825357e+00
16            	-1.831295e+00
16.05         	-1.843000e+00
16.1          	-1.842663e+00
16.15         	-1.848563e+00
16.2          	-1.855034e+00
16.25         	-1.834660e+00
16.3          	-1.818850e+00
16.35         	-1.851727e+00
16.4          	-1.856520e+00
16.45         	-1.862234e+00
16.5          	-1.869608e+00
16.55         	-1.872340e+00
16.6          	-1.856176e+00
16.65         	-1.926717e+00
16.7          	-1.929681e+00
16.75         	-1.942181e+00
16.8          	-1.977784e+00
16.85         	-1.984520e+00
16.9          	-1.967240e+00
16.95         	-1.974627e+00
17            	-1.962816e+00
17.05         	-1.983884e+00
17.1          	-1.990296e+00
17.15         	-1.954774e+00
17.2          	-1.989570e+00
17.25         	-1.951780e+00
17.3          	-1.927958e+00
17.35         	-1.940362e+00
17.4          	-1.902281e+00
17.45         	-1.878177e+00
17.5          	-1.851473e+00
17.55         	-1.832753e+00
17.6          	-1.842618e+00
17.65         	-1.856174e+00
17.7          	-1.842709e+00
17.75         	-1.811760e+00
17.8          	-1.790339e+00
17.85         	-1.770573e+00
17.9          	-1.750598e+00
17.95         	-1.717652e+00
18            	-1.683387e+00
18.05         	-1.642595e+00
18.1          	-1.606357e+00
18.15         	-1.571025e+00
18.2          	-1.544490e+00
18.25         	-1.508267e+00
18.3          	-1.489103e+00
18.35         	-1.516685e+00
18.4          	-1.651958e+00
18.45         	-1.516266e+00
18.5          	-1.542917e+00
18.55         	-1.527801e+00
18.6          	-1.542759e+00
18.65         	-1.549410e+00
18.7          	-1.661460e+00
18.75         	-1.548776e+00
18.8          	-1.573061e+00
18.85         	-1.590966e+00
18.9          	-1.581631e+00
18.95         	-1.596973e+00
19            	-1.603061e+00
19.05         	-1.611454e+00
19.1          	-1.622956e+00
19.15         	-1.628590e+00
19.2          	-1.636730e+00
19.25         	-1.657654e+00
19.3          	-1.604470e+00
19.35         	-1.592079e+00
19.4          	-1.608134e+00
19.45         	-1.595398e+00
19.5          	-1.600004e+00
19.55         	-1.583019e+00
19.6          	-1.572276e+00
19.65         	-1.562157e+00
19.7          	-1.555424e+00
19.75         	-1.557657e+00
19.8          	-1.562953e+00
19.85         	-1.565668e+00
19.9          	-1.597212e+00
19.95         	-1.672531e+00
20            	-1.812206e+00
20.05         	-1.747075e+00
20.1          	-1.708019e+00
20.15         	-1.752366e+00
20.2          	-1.786470e+00
20.25         	-1.841293e+00
20.3          	-1.847916e+00
20.35         	-1.853976e+00
20.4          	-1.848632e+00
20.45         	-1.773335e+00
20.5          	-1.837563e+00
20.55         	-1.864358e+00
20.6          	-1.853962e+00
20.65         	-1.833675e+00
20.7          	-1.765171e+00
20.75         	-1.702422e+00
20.8          	-1.621575e+00
20.85         	-1.658065e+00
20.9          	-1.712525e+00
20.95         	-1.705010e+00
21            	-1.737590e+00
21.05         	-1.758555e+00
21.1          	-1.770301e+00
21.15         	-1.793668e+00
21.2          	-1.806429e+00
21.25         	-1.827701e+00
21.3          	-1.849662e+00
21.35         	-1.875937e+00
21.4          	-1.907133e+00
21.45         	-1.913622e+00
21.5          	-1.931710e+00
21.55         	-1.923776e+00
21.6          	-1.906876e+00
21.65         	-1.909386e+00
21.7          	-1.908472e+00
21.75         	-1.918570e+00
21.8          	-1.894992e+00
21.85         	-1.882415e+00
21.9          	-1.888543e+00
21.95         	-1.890929e+00
22            	-1.893804e+00
22.05         	-1.882044e+00
22.1          	-1.882269e+00
22.15         	-1.890257e+00
22.2          	-1.919433e+00
22.25         	-1.937802e+00
22.3          	-1.940359e+00
22.35         	-1.935355e+00
22.4          	-1.908396e+00
22.45         	-1.926318e+00
22.5          	-1.904098e+00
22.55         	-1.926049e+00
22.6          	-1.943954e+00
22.65         	-1.937993e+00
22.7          	-1.950967e+00
22.75         	-1.997082e+00
22.8          	-2.036409e+00
22.85         	-2.020096e+00
22.9          	-2.032426e+00
22.95         	-2.036249e+00
23            	-2.041254e+00
23.05         	-1.988221e+00
23.1          	-2.034963e+00
23.15         	-2.026782e+00
23.2          	-2.034559e+00
23.25         	-1.992920e+00
23.3          	-1.961202e+00
23.35         	-1.963289e+00
23.4          	-1.954288e+00
23.45         	-1.940063e+00
23.5          	-1.915184e+00
23.55         	-1.889931e+00
23.6          	-1.954384e+00
23.65         	-1.925419e+00
23.7          	-1.904122e+00
23.75         	-1.881845e+00
23.8          	-1.866012e+00
23.85         	-1.842800e+00
23.9          	-1.823972e+00
23.95         	-1.791767e+00
24            	-1.757843e+00
24.05         	-1.719643e+00
24.1          	-1.687513e+00
24.15         	-1.637958e+00
24.2          	-1.609441e+00
24.25         	-1.579021e+00
24.3          	-1.576014e+00
24.35         	-1.629930e+00
24.4          	-1.627932e+00
24.45         	-1.665382e+00
24.5          	-1.651940e+00
24.55         	-1.671577e+00
24.6          	-1.672700e+00
24.65         	-1.696688e+00
24.7          	-1.839790e+00
24.75         	-1.684815e+00
24.8          	-1.677402e+00
24.85         	-1.687905e+00
24.9          	-1.686098e+00
24.95         	-1.680715e+00
25            	-1.672192e+00
25.05         	-1.684268e+00
25.1          	-1.687918e+00
25.15         	-1.700535e+00
25.2          	-1.692695e+00
25.25         	-1.697542e+00
25.3          	-1.685898e+00
25.35         	-1.692242e+00
25.4          	-1.673288e+00
25.45         	-1.649374e+00
25.5          	-1.638033e+00
25.55         	-1.633105e+00
25.6          	-1.629846e+00
25.65         	-1.632207e+00
25.7          	-1.586955e+00
25.75         	-1.581859e+00
25.8          	-1.582840e+00
25.85         	-1.583340e+00
25.9          	-1.647500e+00
25.95         	-1.745412e+00
26            	-1.956775e+00
26.05         	-1.845081e+00
26.1          	-1.725312e+00
26.15         	-1.762428e+00
26.2          	-1.790001e+00
26.25         	-1.826958e+00
26.3          	-1.873192e+00
26.35         	-1.869678e+00
26.4          	-1.874180e+00
26.45         	-1.816379e+00
26.5          	-1.776739e+00
26.55         	-1.848348e+00
26.6          	-1.883502e+00
26.65         	-1.886682e+00
26.7          	-1.863262e+00
26.75         	-1.816880e+00
26.8          	-1.754726e+00
26.85         	-1.689616e+00
26.9          	-1.605419e+00
26.95         	-1.624357e+00
27            	-1.669248e+00
27.05         	-1.666597e+00
27.1          	-1.692784e+00
27.15         	-1.717085e+00
27.2          	-1.809501e+00
27.25         	-1.740172e+00
27.3          	-1.768592e+00
27.35         	-1.790821e+00
27.4          	-1.801335e+00
27.45         	-1.810417e+00
27.5          	-1.831505e+00
27.55         	-1.847262e+00
27.6          	-1.856590e+00
27.65         	-1.845979e+00
27.7          	-1.865937e+00
27.75         	-1.841661e+00
27.8          	-1.834737e+00
27.85         	-1.840917e+00
27.9          	-1.825763e+00
27.95         	-1.828123e+00
28            	-1.841463e+00
28.05         	-1.839373e+00
28.1          	-1.833591e+00
28.15         	-1.868210e+00
28.2          	-1.856385e+00
28.25         	-1.847641e+00
28.3          	-1.869143e+00
28.35         	-1.872492e+00
28.4          	-1.873042e+00
28.45         	-1.878832e+00
28.5          	-1.893523e+00
28.55         	-1.872971e+00
28.6          	-1.890827e+00
28.65         	-1.902699e+00
28.7          	-1.955256e+00
28.75         	-1.945753e+00
28.8          	-1.984612e+00
28.85         	-2.030897e+00
28.9          	-1.995704e+00
28.95         	-1.992867e+00
29            	-1.994777e+00
29.05         	-2.007674e+00
29.1          	-1.988443e+00
29.15         	-1.986302e+00
29.2          	-1.994365e+00
29.25         	-1.948964e+00
29.3          	-1.935325e+00
29.35         	-1.960060e+00
29.4          	-1.914031e+00
29.45         	-1.898009e+00
29.5          	-1.873813e+00
29.55         	-1.861930e+00
29.6          	-1.900092e+00
29.65         	-1.876345e+00
29.7          	-1.853305e+00
29.75         	-1.837866e+00
29.8          	-1.805727e+00
29.85         	-1.789651e+00
29.9          	-1.770959e+00
29.95         	-1.736894e+00
30            	-1.701078e+00
30.05         	-1.666220e+00
30.1          	-1.628538e+00
30.15         	-1.592698e+00
30.2          	-1.562098e+00
30.25         	-1.522753e+00
30.3          	-1.508218e+00
30.35         	-1.573930e+00
30.4          	-1.575720e+00
30.45         	-1.565414e+00
30.5          	-1.582385e+00
30.55         	-1.581005e+00
30.6          	-1.572526e+00
30.65         	-1.584947e+00
30.7          	-1.576089e+00
30.75         	-1.597917e+00
30.8          	-1.609022e+00
30.85         	-1.634733e+00
30.9          	-1.609518e+00
30.95         	-1.617058e+00
31            	-1.637399e+00
31.05         	-1.638821e+00
31.1          	-1.647208e+00
31.15         	-1.655064e+00
31.2          	-1.664151e+00
31.25         	-1.716985e+00
31.3          	-1.627736e+00
31.35         	-1.638919e+00
31.4          	-1.627364e+00
31.45         	-1.625469e+00
31.5          	-1.611862e+00
31.55         	-1.598837e+00
31.6          	-1.584439e+00
31.65         	-1.571185e+00
31.7          	-1.561877e+00
31.75         	-1.565834e+00
31.8          	-1.573661e+00
31.85         	-1.571493e+00
31.9          	-1.609297e+00
31.95         	-1.714184e+00
32            	-1.900029e+00
32.05         	-1.821311e+00
32.1          	-1.732823e+00
32.15         	-1.775755e+00
32.2          	-1.814879e+00
32.25         	-1.851446e+00
32.3          	-1.864258e+00
32.35         	-1.875519e+00
32.4          	-1.811531e+00
32.45         	-1.799573e+00
32.5          	-1.851758e+00
32.55         	-1.870478e+00
32.6          	-1.860867e+00
32.65         	-1.833490e+00
32.7          	-1.757819e+00
32.75         	-1.695370e+00
32.8          	-1.634103e+00
32.85         	-1.656389e+00
32.9          	-1.731666e+00
32.95         	-1.696639e+00
33            	-1.726775e+00
33.05         	-1.764627e+00
33.1          	-1.752750e+00
33.15         	-1.794987e+00
33.2          	-1.798460e+00
33.25         	-1.817349e+00
33.3          	-1.835274e+00
33.35         	-1.861944e+00
33.4          	-1.889846e+00
33.45         	-1.898189e+00
33.5          	-1.916005e+00
33.55         	-1.904707e+00
33.6          	-1.891828e+00
33.65         	-1.873891e+00
33.7          	-1.885908e+00
33.75         	-1.897600e+00
33.8          	-1.867761e+00
33.85         	-1.866720e+00
33.9          	-1.875967e+00
33.95         	-1.880231e+00
34            	-1.870727e+00
34.05         	-1.875883e+00
34.1          	-1.863018e+00
34.15         	-1.888567e+00
34.2          	-1.919725e+00
34.25         	-1.930449e+00
34.3          	-1.938262e+00
34.35         	-1.939603e+00
34.4          	-1.907637e+00
34.45         	-1.906709e+00
34.5          	-1.901196e+00
34.55         	-1.921433e+00
34.6          	-1.939309e+00
34.65         	-1.965361e+00
34.7          	-1.949344e+00
34.75         	-1.990278e+00
34.8          	-2.012763e+00
34.85         	-2.013792e+00
34.9          	-2.017900e+00
34.95         	-2.025448e+00
35            	-2.029989e+00
35.05         	-2.025369e+00
35.1          	-2.022627e+00
35.15         	-1.991232e+00
35.2          	-2.017622e+00
35.25         	-1.974833e+00
35.3          	-1.950537e+00
35.35         	-1.954062e+00
35.4          	-1.929018e+00
35.45         	-1.917972e+00
35.5          	-1.899631e+00
35.55         	-1.860567e+00
35.6          	-1.925392e+00
35.65         	-1.903731e+00
35.7          	-1.877886e+00
35.75         	-1.867946e+00
35.8          	-1.847849e+00
35.85         	-1.819737e+00
35.9          	-1.796430e+00
35.95         	-1.761838e+00
36            	-1.719066e+00
36.05         	-1.689681e+00
36.1          	-1.650383e+00
36.15         	-1.614281e+00
36.2          	-1.583776e+00
36.25         	-1.560776e+00
36.3          	-1.588720e+00
36.35         	-1.683288e+00
36.4          	-1.648778e+00
36.45         	-1.656676e+00
36.5          	-1.652432e+00
36.55         	-1.659810e+00
36.6          	-1.657967e+00
36.65         	-1.666743e+00
36.7          	-1.650028e+00
36.75         	-1.663292e+00
36.8          	-1.669662e+00
36.85         	-1.694519e+00
36.9          	-1.664504e+00
36.95         	-1.670979e+00
37            	-1.675375e+00
37.05         	-1.675318e+00
37.1          	-1.681166e+00
37.15         	-1.680602e+00
37.2          	-1.701745e+00
37.25         	-1.695406e+00
37.3          	-1.685494e+00
37.35         	-1.683351e+00
37.4          	-1.663833e+00
37.45         	-1.628109e+00
37.5          	-1.626627e+00
37.55         	-1.623855e+00
37.6          	-1.622969e+00
37.65         	-1.586722e+00
37.7          	-1.578281e+00
37.75         	-1.579743e+00
37.8          	-1.583815e+00
37.85         	-1.612919e+00
37.9          	-1.714306e+00
37.95         	-1.889005e+00
38            	-1.856830e+00
38.05         	-1.708237e+00
38.1          	-1.746483e+00
38.15         	-1.793774e+00
38.2          	-1.828307e+00
38.25         	-1.868304e+00
38.3          	-1.855837e+00
38.35         	-1.886087e+00
38.4          	-1.866570e+00
38.45         	-1.756183e+00
38.5          	-1.842363e+00
38.55         	-1.883250e+00
38.6          	-1.889053e+00
38.65         	-1.868493e+00
38.7          	-1.822565e+00
38.75         	-1.764994e+00
38.8          	-1.682286e+00
38.85         	-1.605086e+00
38.9          	-1.642098e+00
38.95         	-1.698042e+00
39            	-1.680734e+00
39.05         	-1.706093e+00
39.1          	-1.738975e+00
39.15         	-1.727643e+00
39.2          	-1.760534e+00
39.25         	-1.789524e+00
39.3          	-1.804346e+00
39.35         	-1.821450e+00
39.4          	-1.833139e+00
39.45         	-1.840482e+00
39.5          	-1.873761e+00
39.55         	-1.868535e+00
39.6          	-1.857835e+00
39.65         	-1.861631e+00
39.7          	-1.855263e+00
39.75         	-1.844186e+00
39.8          	-1.863061e+00
39.85         	-1.836733e+00
39.9          	-1.837179e+00
39.95         	-1.852586e+00
40            	-1.852435e+00
40.05         	-1.851263e+00
40.1          	-1.854734e+00
40.15         	-1.843407e+00
40.2          	-1.872263e+00
40.25         	-1.891248e+00
40.3          	-1.915958e+00
40.35         	-1.892038e+00
40.4          	-1.886357e+00
40.45         	-1.904257e+00
40.5          	-1.880750e+00
40.55         	-1.901818e+00
40.6          	-1.919090e+00
40.65         	-1.925625e+00
40.7          	-1.977069e+00
40.75         	-1.970728e+00
40.8          	-2.015583e+00
40.85         	-1.998767e+00
40.9          	-2.004574e+00
40.95         	-2.007312e+00
41            	-2.014877e+00
41.05         	-2.020277e+00
41.1          	-1.989757e+00
41.15         	-1.960592e+00
41.2          	-2.007816e+00
41.25         	-1.951866e+00
41.3          	-1.917446e+00
41.35         	-1.954299e+00
41.4          	-1.917091e+00
41.45         	-1.900306e+00
41.5          	-1.880608e+00
41.55         	-1.850704e+00
41.6          	-1.899135e+00
41.65         	-1.871416e+00
41.7          	-1.845956e+00
41.75         	-1.838827e+00
41.8          	-1.815383e+00
41.85         	-1.802144e+00
41.9          	-1.766600e+00
41.95         	-1.732015e+00
42            	-1.691774e+00
42.05         	-1.654852e+00
42.1          	-1.618039e+00
42.15         	-1.585708e+00
42.2          	-1.556722e+00
42.25         	-1.527712e+00
42.3          	-1.565875e+00
42.35         	-1.674086e+00
42.4          	-1.607261e+00
42.45         	-1.602227e+00
42.5          	-1.616594e+00
42.55         	-1.610509e+00
42.6          	-1.601265e+00
42.65         	-1.743508e+00
42.7          	-1.637484e+00
42.75         	-1.626476e+00
42.8          	-1.636840e+00
42.85         	-1.626285e+00
42.9          	-1.633712e+00
42.95         	-1.653693e+00
43            	-1.647064e+00
43.05         	-1.659314e+00
43.1          	-1.667134e+00
43.15         	-1.674650e+00
43.2          	-1.737121e+00
43.25         	-1.648426e+00
43.3          	-1.657293e+00
43.35         	-1.651778e+00
43.4          	-1.644776e+00
43.45         	-1.622929e+00
43.5          	-1.601544e+00
43.55         	-1.607933e+00
43.6          	-1.583168e+00
43.65         	-1.570694e+00
43.7          	-1.572251e+00
43.75         	-1.574930e+00
43.8          	-1.578436e+00
43.85         	-1.618049e+00
43.9          	-1.694841e+00
43.95         	-1.941959e+00
44            	-1.824045e+00
44.05         	-1.722315e+00
44.1          	-1.767835e+00
44.15         	-1.812071e+00
44.2          	-1.844625e+00
44.25         	-1.856571e+00
44.3          	-1.884727e+00
44.35         	-1.869303e+00
44.4          	-1.803056e+00
44.45         	-1.837512e+00
44.5          	-1.867285e+00
44.55         	-1.877428e+00
44.6          	-1.855753e+00
44.65         	-1.817591e+00
44.7          	-1.733378e+00
44.75         	-1.656909e+00
44.8          	-1.622168e+00
44.85         	-1.672104e+00
44.9          	-1.679312e+00
44.95         	-1.702681e+00
45            	-1.734603e+00
45.05         	-1.833200e+00
45.1          	-1.761941e+00
45.15         	-1.798222e+00
45.2          	-1.799876e+00
45.25         	-1.819572e+00
45.3          	-1.840718e+00
45.35         	-1.869329e+00
45.4          	-1.876402e+00
45.45         	-1.892569e+00
45.5          	-1.904424e+00
45.55         	-1.881327e+00
45.6          	-1.863460e+00
45.65         	-1.876965e+00
45.7          	-1.876528e+00
45.75         	-1.878949e+00
45.8          	-1.861226e+00
45.85         	-1.855815e+00
45.9          	-1.880172e+00
45.95         	-1.866807e+00
46            	-1.867888e+00
46.05         	-1.876959e+00
46.1          	-1.862539e+00
46.15         	-1.901965e+00
46.2          	-1.926051e+00
46.25         	-1.935237e+00
46.3          	-1.936335e+00
46.35         	-1.909562e+00
46.4          	-1.911878e+00
46.45         	-1.890855e+00
46.5          	-1.913164e+00
46.55         	-1.929686e+00
46.6          	-1.944813e+00
46.65         	-1.946858e+00
46.7          	-1.979471e+00
46.75         	-1.995447e+00
46.8          	-2.003953e+00
46.85         	-2.021958e+00
46.9          	-2.022540e+00
46.95         	-2.027132e+00
47            	-1.978568e+00
47.05         	-2.022675e+00
47.1          	-1.994240e+00
47.15         	-2.021620e+00
47.2          	-1.971864e+00
47.25         	-1.957566e+00
47.3          	-1.985673e+00
47.35         	-1.938551e+00
47.4          	-1.928735e+00
47.45         	-1.893505e+00
47.5          	-1.883038e+00
47.55         	-1.940092e+00
47.6          	-1.907853e+00
47.65         	-1.884970e+00
47.7          	-1.854927e+00
47.75         	-1.852078e+00
47.8          	-1.825691e+00
47.85         	-1.801612e+00
47.9          	-1.765580e+00
47.95         	-1.738572e+00
48            	-1.695045e+00
48.05         	-1.657204e+00
48.1          	-1.620321e+00
48.15         	-1.588736e+00
48.2          	-1.562137e+00
48.25         	-1.567778e+00
48.3          	-1.616232e+00
48.35         	-1.627111e+00
48.4          	-1.655841e+00
48.45         	-1.642320e+00
48.5          	-1.651352e+00
48.55         	-1.656474e+00
48.6          	-1.646823e+00
48.65         	-1.633713e+00
48.7          	-1.654389e+00
48.75         	-1.659829e+00
48.8          	-1.676568e+00
48.85         	-1.656212e+00
48.9          	-1.661813e+00
48.95         	-1.674636e+00
49            	-1.669517e+00
49.05         	-1.676958e+00
49.1          	-1.686395e+00
49.15         	-1.692891e+00
49.2          	-1.706253e+00
49.25         	-1.682497e+00
49.3          	-1.679210e+00
49.35         	-1.671285e+00
49.4          	-1.629328e+00
49.45         	-1.625039e+00
49.5          	-1.622454e+00
49.55         	-1.622204e+00
49.6          	-1.587918e+00
49.65         	-1.576884e+00
49.7          	-1.577762e+00
49.75         	-1.582595e+00
49.8          	-1.587546e+00
49.85         	-1.677701e+00
49.9          	-1.795606e+00
49.95         	-1.857694e+00
50            	-1.738217e+00
50.05         	-1.738106e+00
50.1          	-1.787936e+00
50.15         	-1.823428e+00
50.2          	-1.864983e+00
50.25         	-1.858389e+00
50.3          	-1.888798e+00
50.35         	-1.865783e+00
50.4          	-1.780206e+00
50.45         	-1.835614e+00
50.5          	-1.878687e+00
50.55         	-1.888610e+00
50.6          	-1.869631e+00
50.65         	-1.824576e+00
50.7          	-1.766487e+00
50.75         	-1.681365e+00
50.8          	-1.606514e+00
50.85         	-1.650296e+00
50.9          	-1.722285e+00
50.95         	-1.688196e+00
51            	-1.713461e+00
51.05         	-1.763514e+00
51.1          	-1.736638e+00
51.15         	-1.772414e+00
51.2          	-1.799233e+00
51.25         	-1.820437e+00
51.3          	-1.816643e+00
51.35         	-1.839835e+00
51.4          	-1.857249e+00
51.45         	-1.870626e+00
51.5          	-1.874639e+00