/*--------------------------------*- C++ -*----------------------------------*\
  =========                 |
  \\      /  F ield         | OpenFOAM: The Open Source CFD Toolbox
   \\    /   O peration     | Website:  https://openfoam.org
    \\  /    A nd           | Version:  13
     \\/     M anipulation  |
\*---------------------------------------------------------------------------*/
FoamFile
{
    format      ascii;
    class       volScalarField;
    location    "0.03";
    object      strainRateViscosityModel:nu;
}
// * * * * * * * * * * * * * * * * * * * * * * * * * * * * * * * * * * * * * //

dimensions      [0 2 -1 0 0 0 0];

internalField   nonuniform List<scalar> 
440
(
9.5585
9.04454
8.38863
7.55255
6.76983
9.72853
9.35667
8.83081
8.08376
7.1739
9.80995
9.51248
9.04153
8.29203
7.35078
9.84888
9.59346
9.15974
8.42018
7.56337
9.86476
9.62831
9.21203
8.48809
7.74776
3.42918
2.79762
3.12589
3.44948
3.47044
5.73756
4.51894
4.07147
3.95944
3.96848
7.54036
6.31547
5.39912
4.71209
4.62162
8.64441
7.6357
6.62934
5.55995
5.30202
9.22751
8.45973
7.54269
6.38471
6.21233
2.01233
0.273096
0.0485624
0.0161371
0.0104816
2.47828
0.342965
0.059781
0.0173646
0.0105914
3.04018
0.469998
0.0733706
0.0187169
0.0106646
3.40194
0.640284
0.082902
0.0197728
0.010684
3.72472
1.12163
0.122997
0.0217717
0.010671
3.9833
1.34362
0.144806
0.0219583
0.0105602
3.73722
0.883018
0.0866545
0.015632
0.0100549
3.385
0.992591
0.199394
0.128317
0.13066
6.10368
3.68993
2.43878
2.00732
1.85224
8.14342
5.89689
4.53582
3.81027
3.47941
1.42953
2.44386
3.4696
4.35249
5.16992
4.64122
4.55988
4.5323
4.46628
3.8942
7.73407
7.54421
7.1601
6.61033
5.38968
8.79586
8.71255
8.52575
8.19667
7.58035
9.49302
9.44878
9.35085
9.17995
8.93995
6.69941
7.52427
8.39291
9.0672
9.58172
7.08338
8.04998
8.82926
9.36895
9.74059
7.27035
8.26178
9.03792
9.51905
9.81633
7.5039
8.39804
9.15649
9.59689
9.85217
7.7229
8.47956
9.21077
9.6294
9.86581
3.54532
3.53733
3.22774
2.93034
3.68132
4.02024
4.02062
4.16192
4.66985
5.98058
4.64291
4.74203
5.46846
6.4366
7.7028
5.28423
5.55404
6.66829
7.71173
8.73405
6.1659
6.34773
7.5541
8.50087
9.27336
0.125284
0.0558092
0.0442271
0.245894
2.02889
0.116625
0.0706094
0.0537956
0.309754
2.48292
0.10807
0.0899482
0.0696899
0.438036
3.02513
0.099896
0.113463
0.08555
0.616488
3.36707
0.0974681
0.137621
0.131573
1.08886
3.63364
0.0941812
0.194834
0.142654
1.31582
3.93279
0.143626
0.233171
0.0847978
0.88154
3.74538
0.159058
0.276635
0.120934
0.940561
3.33734
1.01119
1.89878
2.24912
3.62277
6.05573
4.81968
4.84956
4.59741
5.95001
8.17008
5.0868
4.23111
3.36452
2.37049
1.4138
3.95458
4.50684
4.62402
4.64671
4.67682
5.33042
6.55771
7.13268
7.52467
7.72709
7.53735
8.17436
8.51654
8.70941
8.79529
8.94465
9.18382
9.35383
9.45084
9.49378
9.85957
9.26898
3.09597
5.55991
9.26682
9.8178
9.13506
5.10057
3.54478
8.71877
9.68801
8.85143
6.29902
2.50262
6.84644
9.32206
8.23244
6.25941
3.0867
3.12749
8.40095
7.01663
5.22173
3.39196
1.19926
6.65957
5.30946
4.07309
3.13086
2.97356
4.1535
3.49963
3.14529
2.89859
2.85549
1.72465
2.18647
2.5852
2.79648
2.79251
0.378658
1.70002
2.44701
2.80742
2.79015
1.39734
1.9367
2.6578
3.06997
3.06835
0.247995
0.141991
0.43939
0.554195
0.55998
0.881725
0.13693
0.0543669
0.0344729
0.0230983
1.02989
0.137527
0.0312263
0.0137323
0.0101981
1.30536
0.179857
0.0344979
0.0141489
0.0102417
1.64779
0.220118
0.0401054
0.0150556
0.0103575
2.60602
1.60208
2.15052
2.58118
2.8229
1.3506
1.11721
1.69328
2.02957
2.18683
9.858
9.78011
9.49088
8.61243
6.72742
9.6969
9.42457
8.55123
6.67882
3.00931
2.97062
3.12784
4.06419
5.3167
6.69995
2.8938
2.93972
3.17959
3.53172
4.21009
2.85808
2.87302
2.66195
2.24845
1.75777
2.87055
2.89897
2.54102
1.77999
0.403103
3.1537
3.16915
2.76016
2.03933
1.58941
9.26629
5.55966
3.09156
9.26831
9.85965
8.71607
3.55387
5.08773
9.13331
9.81813
6.84166
2.51341
6.27907
8.84865
9.689
3.14196
3.07348
6.23638
8.22786
9.32569
1.20993
3.36624
5.19771
7.01243
8.41529
0.405709
0.628769
0.399043
0.148498
0.241679
0.210258
0.0309892
0.0841263
0.148718
0.910647
0.155971
0.0406855
0.0521482
0.142796
1.06351
0.141085
0.0415489
0.044404
0.174809
1.342
0.133419
0.0461098
0.0411646
0.20368
1.67501
5.25679
4.04953
2.28535
1.67338
2.6274
2.05632
2.43806
1.75181
1.14396
1.33084
6.72437
8.61242
9.49113
9.7802
9.85802
3.00193
6.66765
8.54775
9.42366
9.6968
)
;

boundaryField
{
    left
    {
        type            calculated;
        value           nonuniform List<scalar> 
17
(
1.18339
1.26191
1.44218
3.01433
6.49706
1.37477
1.34125
1.30446
1.26234
1.22421
2.15361
1.61878
1.47045
1.42994
1.40406
6.89829
4.13865
)
;
    }
    right
    {
        type            calculated;
        value           nonuniform List<scalar> 
17
(
2.82437
2.18064
0.550477
0.0215312
0.0100825
0.0100901
0.0101311
0.0101742
0.0102118
0.0102358
0.0102407
0.0102386
0.0101955
0.0100104
0.139168
1.86572
3.47507
)
;
    }
    down
    {
        type            calculated;
        value           nonuniform List<scalar> 
20
(
5.80862
4.42409
2.29527
1.57756
3.0758
7.17717
8.87835
9.59607
9.82091
9.88246
9.88242
9.82078
9.59553
8.87741
7.1765
3.05037
1.49594
2.14157
2.6489
2.92932
)
;
    }
    up
    {
        type            calculated;
        value           nonuniform List<scalar> 
20
(
8.48638
6.30302
4.83616
4.0149
3.64191
9.61124
9.57647
9.4985
9.35991
9.16881
9.17687
9.36548
9.50224
9.57883
9.61207
5.5772
5.2833
4.90585
6.36924
8.51794
)
;
    }
    cylinder
    {
        type            calculated;
        value           nonuniform List<scalar> 
40
(
4.03452
6.14507
7.82314
8.83652
9.355
9.63939
9.78301
9.8504
9.88202
9.89481
9.66103
9.79401
9.85614
9.88496
9.89575
4.31727
6.40077
7.98806
8.92445
9.39884
7.02913
4.53807
1.96835
0.255821
2.40216
9.90779
9.87687
9.77747
9.47943
8.66927
9.9077
9.87654
9.77641
9.47552
8.65302
6.98135
4.46768
1.92785
0.240992
2.11653
)
;
    }
    defaultFaces
    {
        type            empty;
    }
}


// ************************************************************************* //
