/*--------------------------------*- C++ -*----------------------------------*\
  =========                 |
  \\      /  F ield         | OpenFOAM: The Open Source CFD Toolbox
   \\    /   O peration     | Website:  https://openfoam.org
    \\  /    A nd           | Version:  13
     \\/     M anipulation  |
\*---------------------------------------------------------------------------*/
FoamFile
{
    format      ascii;
    class       volVectorField;
    location    "9.36";
    object      U;
}
// * * * * * * * * * * * * * * * * * * * * * * * * * * * * * * * * * * * * * //

dimensions      [0 1 -1 0 0 0 0];

internalField   nonuniform List<vector> 
440
(
(-0.0919002 0.0662365 -7.15283e-20)
(-0.118397 0.100324 3.16709e-20)
(0.025616 0.0870995 8.71415e-20)
(0.474087 0.0885023 1.86897e-19)
(0.478233 0.213143 1.73176e-20)
(-0.0970598 0.0537171 3.8786e-20)
(0.0597271 0.0158107 -1.3188e-19)
(0.581073 -0.0341944 -1.1161e-19)
(1.15449 -0.0650603 6.18655e-20)
(1.68497 -0.0862856 9.97958e-21)
(-0.0244041 0.00730614 5.45024e-20)
(0.53869 -0.0441557 7.71875e-19)
(1.35039 -0.0387604 -4.55173e-19)
(1.95787 -0.0162729 -1.43366e-18)
(2.46046 -0.00201084 5.90683e-19)
(0.203355 -0.0468362 -1.79709e-19)
(1.25487 0.00316751 -5.70239e-19)
(2.04036 0.0667643 1.84098e-18)
(2.45468 0.0995504 2.00932e-18)
(2.51012 0.108569 -5.60285e-19)
(0.58531 -0.00400238 -3.05077e-19)
(1.79468 0.18439 -6.52046e-19)
(2.33249 0.255939 1.98594e-18)
(2.4564 0.263486 2.11978e-18)
(2.53724 0.236982 7.11957e-19)
(-0.0236758 0.218253 -7.664e-21)
(-0.113124 0.403591 7.3136e-20)
(-0.199402 0.431472 -1.2229e-19)
(-0.252608 0.425339 3.28852e-20)
(-0.293021 0.429864 5.63459e-19)
(-0.04917 0.248777 1.84986e-20)
(-0.109944 0.523739 6.52788e-20)
(-0.158491 0.583166 -1.02806e-20)
(-0.193606 0.544021 -1.2072e-20)
(-0.208425 0.487263 2.50386e-20)
(-0.0570931 0.171115 4.53099e-20)
(-0.106051 0.473485 -1.23487e-19)
(-0.118567 0.628471 3.52292e-20)
(-0.110055 0.664808 3.39994e-20)
(-0.0589594 0.633404 3.7268e-21)
(-0.0323399 0.0608259 -2.78752e-20)
(-0.0873493 0.257617 7.04536e-20)
(-0.0973519 0.421127 -7.14477e-21)
(-0.0762899 0.507077 -2.5047e-19)
(-0.00459123 0.534725 3.42967e-20)
(-0.0500062 0.0421236 -3.67459e-20)
(-0.13477 0.12964 -5.64294e-20)
(-0.163577 0.223087 -1.49162e-19)
(-0.0742487 0.281345 8.35598e-20)
(0.0220324 0.37715 -1.40402e-19)
(-0.765138 0.644915 4.81656e-19)
(1.57918 -0.608236 1.24274e-18)
(1.5056 -1.2003 -6.00868e-20)
(1.14268 0.0179313 -1.19494e-18)
(0.862469 0.253197 -1.34444e-20)
(-0.619115 0.394982 -6.81579e-19)
(1.66664 -1.03149 -3.42473e-19)
(1.27315 -1.21939 8.76309e-20)
(1.01373 0.1182 7.9128e-19)
(0.77203 0.289294 -1.34105e-20)
(-0.265266 0.240142 -3.95179e-19)
(1.92325 -1.13515 1.72306e-18)
(0.849406 -1.13316 -8.12865e-20)
(0.777398 0.184879 -5.28532e-19)
(0.756641 0.299989 8.28565e-21)
(0.0596828 0.180374 4.70597e-19)
(2.20591 -1.10333 -2.38472e-19)
(0.858405 -0.993119 3.93048e-19)
(0.677543 0.133274 7.43521e-19)
(0.85386 0.286406 -5.48353e-20)
(0.638567 -0.094206 -1.33746e-19)
(2.22051 -1.15512 -1.60453e-19)
(1.24134 -0.829471 0)
(0.218232 0.165212 -4.80531e-19)
(0.994938 0.227719 -7.70349e-21)
(1.83772 -0.103103 -4.44264e-19)
(2.43255 -1.01773 7.20472e-20)
(1.86479 -0.691002 -2.88991e-20)
(0.468892 0.115482 5.51906e-20)
(1.30673 0.0529456 -1.13075e-19)
(2.29395 -0.25125 8.85933e-21)
(2.64918 -1.0051 1.27389e-18)
(1.10803 -0.266698 -1.69934e-20)
(0.807479 0.349352 4.02091e-20)
(1.55392 -0.0469979 0)
(2.29439 -0.292467 -3.75329e-19)
(2.18826 -0.530414 8.06765e-21)
(0.740849 -0.0576238 -1.49113e-19)
(1.36028 0.0605628 -1.19439e-19)
(1.65357 -0.192901 4.94183e-20)
(2.25384 -0.257648 8.48854e-20)
(1.68983 -0.378151 2.01616e-19)
(0.798922 0.0253448 -2.68103e-20)
(1.52558 -0.0611825 -5.36414e-35)
(1.18676 -0.171194 -5.69537e-21)
(1.32401 -0.106553 1.68731e-19)
(0.513718 0.0339575 1.23394e-20)
(0.543368 -0.012796 -1.53756e-20)
(0.540917 -0.0909122 2.98666e-20)
(0.0421274 -0.0154836 -2.56816e-20)
(2.40388 0.239235 -8.77576e-19)
(2.61025 0.0253028 -1.09033e-18)
(2.46961 0.0610227 7.90662e-19)
(2.73785 -0.121291 7.51737e-20)
(2.13394 0.0227075 -1.38421e-20)
(2.1144 0.153628 5.48518e-20)
(2.39902 0.0126579 -3.85168e-20)
(2.25591 -0.0234911 -1.29846e-19)
(2.47215 -0.126909 -2.20138e-19)
(2.36868 -0.234606 -5.82464e-21)
(2.07641 0.068485 6.77395e-20)
(2.19465 -0.0035818 9.81437e-20)
(2.1855 -0.0628649 -1.26396e-19)
(2.23932 -0.110049 4.3236e-20)
(2.26266 -0.188165 1.98882e-20)
(2.06673 0.0134104 1.08184e-19)
(2.11375 -0.0321609 1.25201e-19)
(2.14151 -0.0629077 -1.78302e-20)
(2.1696 -0.101454 -2.70578e-20)
(2.18124 -0.140177 2.82087e-20)
(1.58155 -0.0262665 1.57424e-19)
(1.53232 -0.029672 -1.19457e-20)
(1.56326 -0.0392945 2.45588e-20)
(1.49101 -0.0430642 -1.6233e-20)
(1.51357 -0.05651 2.37114e-20)
(1.55483 0.826188 1.12855e-18)
(1.52238 0.931136 -3.73443e-19)
(1.5287 1.06582 -1.35585e-18)
(1.45684 1.1118 7.27726e-19)
(0.887824 0.791478 -1.66226e-19)
(1.85672 0.799409 -5.72157e-19)
(1.82401 0.876149 -3.02584e-18)
(1.83022 0.98247 -1.1668e-18)
(1.73972 0.994168 -4.02498e-19)
(1.05705 0.691888 -6.55827e-19)
(2.15284 0.666104 7.45502e-19)
(2.14165 0.740241 1.95261e-19)
(2.11947 0.831073 -2.27669e-18)
(1.98148 0.819425 -6.39346e-19)
(1.16678 0.541264 4.70054e-19)
(2.3291 0.557414 2.25315e-18)
(2.31648 0.607673 1.67877e-18)
(2.31368 0.660968 -1.94436e-18)
(2.09881 0.620143 -1.47967e-18)
(1.14603 0.358509 -2.6959e-19)
(2.47502 0.398351 1.1196e-18)
(2.4943 0.424255 -8.05104e-19)
(2.3979 0.450576 5.82242e-19)
(2.05836 0.397363 4.59135e-19)
(0.96194 0.159301 -3.88725e-19)
(0.56911 0.480457 -6.37998e-19)
(0.475525 0.518449 -4.76931e-19)
(0.357402 0.556275 5.04918e-20)
(0.222565 0.556072 -1.89561e-21)
(0.0543909 0.390182 8.00742e-20)
(0.683884 0.63494 7.9773e-20)
(0.617597 0.689887 -2.91597e-19)
(0.527003 0.754872 1.7368e-19)
(0.401265 0.813681 -8.11872e-20)
(0.174655 0.616168 1.15334e-19)
(0.773069 0.851299 1.18684e-19)
(0.703392 0.935343 4.47329e-19)
(0.648308 1.02809 1.12498e-19)
(0.561961 1.05729 -3.01184e-19)
(0.306278 0.770369 2.53924e-19)
(1.04749 0.897003 2.295e-19)
(0.99783 0.978849 -7.25759e-19)
(0.951627 1.08157 -1.92418e-18)
(0.872184 1.15064 7.63056e-19)
(0.511894 0.848521 -1.5699e-19)
(1.13052 0.970332 -9.53778e-20)
(1.16145 1.08559 -1.70494e-19)
(1.18061 1.19246 -3.7352e-19)
(1.12418 1.20784 -4.17611e-19)
(0.687228 0.855208 -6.54496e-21)
(1.01333 0.0488456 -8.36431e-20)
(0.999304 0.033096 -3.02682e-20)
(1.03698 0.141678 -1.44315e-21)
(0.936669 0.137957 -1.84813e-19)
(0.906102 0.291043 2.91232e-19)
(1.0023 0.0465142 5.12816e-20)
(1.01537 0.0291907 1.13645e-19)
(1.01625 0.154958 1.10914e-19)
(0.979011 0.158083 2.5678e-20)
(0.941283 0.376472 -4.0943e-21)
(1.00805 0.045147 6.67293e-20)
(1.00043 0.0228572 -4.48187e-21)
(1.05532 0.172756 -3.42406e-21)
(0.93748 0.159105 1.34281e-19)
(1.14448 0.518527 -4.67179e-19)
(1.00239 0.0444164 -3.48213e-22)
(1.01815 0.0148032 -1.68476e-19)
(1.04193 0.196635 -5.50176e-20)
(1.03559 0.145711 -3.49193e-19)
(1.18112 0.579943 8.09248e-20)
(1.00063 0.0369292 -9.67095e-21)
(1.01496 0.0194616 4.66183e-20)
(1.08693 0.19102 2.54024e-20)
(1.03257 0.176623 4.42046e-19)
(1.37382 0.70625 -4.64181e-19)
(0.961297 0.0396073 -2.84254e-21)
(1.07821 -0.000825295 1.06201e-19)
(1.06242 0.219375 -4.7444e-20)
(1.28921 0.0896593 1.00474e-18)
(1.33835 0.776443 -3.31229e-19)
(0.900921 0.0102362 -1.61226e-21)
(1.17042 -0.000309261 -9.1751e-20)
(0.985581 0.13416 5.19301e-21)
(1.42103 0.0650415 -3.66891e-19)
(1.34778 0.580806 -7.79915e-20)
(0.944491 0.00298919 5.54172e-21)
(1.13021 -0.00195213 1.45007e-35)
(1.08347 0.0819912 -8.05521e-21)
(1.3507 0.0165902 1.10187e-19)
(1.35509 0.424525 1.66411e-19)
(1.05865 -0.0381369 4.48447e-21)
(0.99161 -0.0236733 -3.1954e-20)
(1.2391 0.0111353 2.09725e-20)
(1.08653 0.0152121 2.02824e-20)
(1.45057 0.302933 -2.56914e-19)
(0.983753 -0.0227368 -4.06664e-20)
(0.787636 -0.024072 -1.39938e-21)
(0.950811 0.000189959 2.43304e-20)
(0.6952 0.00282055 -2.27125e-20)
(1.16707 0.0903095 -5.85002e-20)
(1.78475 0.588721 2.77761e-19)
(1.90006 0.635509 7.18016e-19)
(2.14506 0.485234 -1.02906e-18)
(2.22372 0.474804 8.0558e-21)
(2.42354 0.269296 4.36916e-19)
(1.76385 0.380551 8.94292e-20)
(1.7821 0.437397 9.80304e-19)
(2.00833 0.318225 1.15138e-19)
(1.96869 0.323515 -8.56122e-19)
(2.2347 0.163455 -2.71955e-19)
(1.69522 0.286387 -2.35504e-19)
(1.76836 0.294112 -1.47312e-19)
(1.91252 0.213316 1.9396e-19)
(1.93686 0.196273 -2.64717e-19)
(2.08578 0.103316 2.45475e-19)
(1.69325 0.189285 3.99024e-19)
(1.80551 0.169321 -1.11437e-22)
(1.88026 0.114025 2.08112e-19)
(1.95612 0.092183 1.64854e-19)
(2.01744 0.0378841 -1.66846e-19)
(1.3881 0.0429067 -5.29843e-20)
(1.49203 0.0247006 2.47339e-19)
(1.51009 0.00734839 9.7611e-20)
(1.56778 -0.00661504 -1.99054e-19)
(1.54178 -0.0161409 5.04437e-22)
(1.17425 -0.0188429 7.18879e-20)
(2.18306 -0.0345649 -4.61187e-19)
(2.41026 -0.0271463 1.2482e-18)
(2.38367 0.0128434 5.57816e-19)
(2.21916 0.0350867 -3.96702e-19)
(0.762096 0.10255 1.44628e-19)
(1.96606 0.105642 -4.79946e-19)
(2.40734 0.11049 -6.67585e-19)
(2.45083 0.115253 8.52645e-19)
(2.19528 0.104209 -5.91157e-19)
(0.275462 0.0961219 -8.02957e-21)
(1.36494 0.178859 5.40113e-19)
(2.08628 0.204064 7.32722e-20)
(2.43876 0.199773 6.39719e-19)
(2.5631 0.182092 2.93845e-19)
(0.00600329 0.00448825 1.92088e-19)
(0.565864 0.124773 2.05749e-19)
(1.34417 0.205371 -5.40057e-19)
(1.82912 0.237818 4.19479e-20)
(2.35485 0.266362 2.78473e-19)
(-0.0702237 -0.0562 1.30368e-19)
(0.0757254 0.000926494 -1.59172e-19)
(0.533947 0.0988446 -8.63103e-20)
(1.00037 0.150988 1.12927e-19)
(1.4348 0.232291 3.89411e-20)
(-0.0601859 -0.0644278 1.89148e-20)
(-0.0688658 -0.0710074 7.05671e-20)
(0.07092 -0.0305134 8.58958e-20)
(0.29716 0.0412183 -2.29308e-19)
(0.673253 0.127517 3.04061e-22)
(-0.0326421 -0.0530032 -1.12853e-20)
(-0.052425 -0.094168 -1.98528e-20)
(-0.0261071 -0.0929964 -6.20167e-21)
(0.045082 -0.0484993 3.08268e-20)
(0.203748 0.0415588 3.13045e-20)
(-0.0344993 -0.108768 -2.37375e-20)
(-0.0425603 -0.177354 -2.7146e-19)
(-0.0364699 -0.176855 2.14305e-19)
(-0.0247447 -0.13631 5.61516e-19)
(0.0100156 -0.0657776 -7.71572e-20)
(-0.0377046 -0.0999527 3.33011e-20)
(-0.109947 -0.0912432 2.54372e-19)
(-0.176644 -0.0168315 -7.6838e-19)
(-0.23624 0.0749951 -6.45964e-19)
(-0.269063 0.172732 1.263e-19)
(-0.0196361 0.0715828 -1.70241e-20)
(-0.131869 0.179191 6.19693e-20)
(-0.237616 0.236109 -2.27632e-20)
(-0.311969 0.282124 -2.74539e-20)
(-0.369047 0.342069 2.56914e-19)
(1.41845 0.603663 -5.29484e-20)
(0.650825 0.137136 1.37129e-18)
(1.18253 -0.183849 -9.6647e-20)
(1.57985 0.0259944 1.62002e-19)
(1.14454 0.0411178 -3.20612e-21)
(1.23518 0.5621 1.60093e-19)
(-0.0308217 0.103482 -3.58474e-19)
(0.88708 -0.310806 2.1263e-19)
(1.62864 0.0354074 1.05255e-20)
(1.21077 0.0879245 1.45602e-20)
(0.475055 0.565062 -3.28567e-19)
(-0.981273 0.0880371 1.28141e-18)
(0.743691 -0.664422 3.10877e-20)
(1.531 0.0050395 9.71714e-20)
(1.17437 0.138253 1.33867e-20)
(-0.30165 0.736629 8.04216e-19)
(-0.88434 -0.120722 -4.62796e-18)
(0.772904 -1.11538 -6.4391e-19)
(1.35904 -0.0357216 -1.77811e-21)
(1.07309 0.179011 -2.61234e-20)
(-0.644222 0.762204 1.34819e-19)
(0.557475 -0.35676 -2.11041e-19)
(1.06471 -1.24641 9.74337e-20)
(1.19087 -0.0410732 -8.12196e-21)
(0.951209 0.218563 -3.83573e-20)
(0.417469 0.152021 -1.06376e-19)
(-0.299058 -0.0593253 0)
(0.041631 -0.105397 -3.4566e-20)
(0.16404 -0.0631496 3.67433e-20)
(0.357405 -0.0299633 -1.32913e-20)
(1.80233 0.4785 0)
(0.961377 0.196879 0)
(1.18682 -0.0453308 4.71336e-19)
(1.20743 -0.0210071 8.39825e-21)
(0.923312 -0.0292679 2.09359e-20)
(0.713238 0.00117087 -1.30538e-19)
(0.774528 -0.000725024 3.16937e-19)
(0.89337 -0.00410566 -2.6569e-20)
(0.997919 0.0191889 3.1033e-19)
(1.25925 0.0835558 1.99193e-19)
(1.61366 0.0240691 1.25206e-19)
(1.7406 0.0794537 3.85679e-19)
(1.88801 0.0696563 -3.65596e-19)
(2.41883 0.193738 9.84095e-20)
(2.12583 0.193201 2.67795e-19)
(0.90311 -0.473543 -2.0903e-20)
(0.889373 -0.56233 -1.71795e-19)
(0.87713 -0.658115 -1.19399e-19)
(0.806066 -0.725821 7.31567e-20)
(0.492932 -0.572451 1.3198e-19)
(0.794211 -0.374288 1.17266e-19)
(0.738784 -0.439061 2.15903e-19)
(0.667527 -0.51121 -5.92798e-20)
(0.559071 -0.574056 1.44003e-19)
(0.307877 -0.461165 5.2846e-20)
(0.649982 -0.233967 -1.34144e-19)
(0.565692 -0.27372 -5.62246e-20)
(0.465353 -0.322502 9.32647e-20)
(0.344275 -0.366087 -2.05075e-20)
(0.153271 -0.297575 -1.27932e-19)
(0.547296 -0.00277867 -4.27643e-19)
(0.460922 -0.016847 -3.48781e-19)
(0.34988 -0.0382752 2.80345e-19)
(0.223107 -0.0684152 1.59348e-19)
(0.0613485 -0.0794127 1.32116e-20)
(0.5266 0.202245 -1.48826e-19)
(0.441424 0.204086 -1.6042e-19)
(0.324347 0.204406 -5.58564e-20)
(0.185534 0.210346 3.58626e-20)
(0.0279524 0.155289 1.2765e-20)
(1.9796 -0.0376225 8.11804e-19)
(2.24236 -0.101795 2.69723e-19)
(2.32077 -0.183637 -7.1919e-19)
(2.18166 -0.210126 -1.50362e-18)
(1.32043 -0.185026 1.2918e-19)
(1.95877 -0.122347 1.34714e-18)
(2.05026 -0.231499 1.79314e-18)
(2.07701 -0.351178 1.51506e-19)
(2.00125 -0.40796 2.67611e-19)
(1.28624 -0.357247 -1.76739e-19)
(1.67455 -0.281291 -3.47143e-18)
(1.74673 -0.397821 3.73707e-19)
(1.79673 -0.520605 1.09535e-18)
(1.73977 -0.593233 -4.0831e-19)
(1.13261 -0.501434 6.51219e-19)
(1.47117 -0.403274 8.30028e-19)
(1.49249 -0.501385 -2.21322e-18)
(1.48394 -0.617744 -2.51884e-18)
(1.41906 -0.701921 7.67355e-19)
(0.918823 -0.577623 5.28451e-19)
(1.19101 -0.459642 1.76485e-19)
(1.15368 -0.553202 2.5562e-19)
(1.14756 -0.672909 -3.84261e-19)
(1.09409 -0.757413 -4.63113e-19)
(0.695975 -0.603445 -4.30165e-21)
(1.06211 0.0552205 7.25538e-21)
(0.93211 0.0569646 -7.4025e-22)
(1.10505 0.0829994 6.54015e-21)
(0.815492 0.00658011 -2.45258e-19)
(1.07341 -0.195355 -1.74803e-20)
(1.07491 0.0584477 -2.37889e-21)
(0.926779 0.0540393 3.07015e-20)
(1.10631 0.101229 -1.06928e-20)
(0.891329 0.0545126 1.89185e-19)
(0.98032 -0.0820581 -1.81871e-21)
(1.07361 0.0552289 -5.67576e-20)
(0.93271 0.0500747 9.07e-24)
(1.09332 0.105629 -1.09593e-20)
(0.893639 0.0749054 1.07031e-19)
(0.94368 -0.0207266 -2.30348e-19)
(1.05369 0.0534265 6.7192e-20)
(0.960433 0.0447378 3.00001e-21)
(1.06427 0.114634 2.44159e-20)
(0.923961 0.100557 -4.64628e-20)
(0.861099 0.0844388 7.40553e-20)
(1.02701 0.0500935 1.65613e-20)
(0.991722 0.0411055 -2.51721e-20)
(1.03454 0.124272 3.6476e-20)
(0.949813 0.125152 4.01206e-20)
(0.839651 0.187913 -6.39825e-20)
(0.885462 0.0337409 0)
(0.71532 0.0284791 9.38245e-21)
(0.592832 0.022858 6.36212e-21)
(0.341561 -0.00590994 4.35713e-20)
(0.653535 -0.051251 -1.53406e-19)
(1.02627 0.0745693 -6.3864e-20)
(0.946771 0.0728719 -7.18242e-21)
(1.00951 0.0830846 -5.83384e-20)
(0.806587 0.000803287 -1.4512e-19)
(1.01195 -0.181335 -1.6474e-19)
(0.899762 -0.0662032 -3.58729e-20)
(0.987742 -0.0329993 5.3026e-19)
(1.07709 0.0349754 3.12636e-19)
(0.958937 0.0508777 3.25507e-20)
(0.746205 0.0272456 0)
(1.25734 -0.30697 3.44858e-19)
(1.36949 -0.272002 1.49019e-18)
(1.53962 -0.153669 -1.61124e-18)
(1.63995 -0.0227008 -4.96659e-19)
(1.54293 0.0273627 3.82857e-19)
)
;

boundaryField
{
    left
    {
        type            fixedValue;
        value           uniform (1 0 0);
    }
    right
    {
        type            zeroGradient;
    }
    down
    {
        type            noSlip;
    }
    up
    {
        type            noSlip;
    }
    cylinder
    {
        type            noSlip;
    }
    defaultFaces
    {
        type            empty;
    }
}


// ************************************************************************* //
