/*--------------------------------*- C++ -*----------------------------------*\
  =========                 |
  \\      /  F ield         | OpenFOAM: The Open Source CFD Toolbox
   \\    /   O peration     | Website:  https://openfoam.org
    \\  /    A nd           | Version:  13
     \\/     M anipulation  |
\*---------------------------------------------------------------------------*/
FoamFile
{
    format      ascii;
    class       surfaceScalarField;
    location    "0.175";
    object      phi;
}
// * * * * * * * * * * * * * * * * * * * * * * * * * * * * * * * * * * * * * //

dimensions      [0 3 -1 0 0 0 0];

internalField   nonuniform List<scalar> 
823
(
0.0113781
-0.0505533
0.0391752
0.0387571
-0.133437
0.106058
0.0788232
-0.205884
0.165818
0.130144
-0.268884
0.217563
-0.323279
0.259468
0.193955
0.0107041
-0.0612574
0.0361456
-0.158878
0.0726507
-0.242389
0.117971
-0.314205
-0.375615
0.170307
0.00837902
-0.0696365
0.0282906
-0.17879
0.0567348
-0.270833
0.0918224
-0.349293
-0.416067
0.132275
0.00530095
-0.0749374
0.0180004
-0.191489
0.0362379
-0.289071
0.0588953
-0.37195
-0.442434
0.0852619
0.00196261
-0.0769
0.00663148
-0.196158
0.0132914
-0.295731
0.021523
-0.380182
0.0310616
-0.451973
0.00634832
-0.0107875
0.00443915
0.0215415
-0.0310655
0.0158725
0.0444179
-0.0487919
0.0259156
0.0732669
-0.064335
0.0354861
-0.0774866
0.106628
0.0441253
0.00570852
-0.0164959
0.0213151
-0.0466721
0.0463721
-0.0738489
0.0792581
-0.097221
-0.116405
0.118176
0.00640254
-0.0228985
0.0236483
-0.063918
0.0511617
-0.101362
0.0877492
-0.133809
-0.160338
0.131682
0.00753602
-0.0304345
0.0270732
-0.0834553
0.0572598
-0.131549
0.0968933
-0.173442
-0.208032
0.144587
0.00874065
0.0313429
0.0656117
0.109733
0.161169
0.318119
-0.963941
0.75245
0.463408
-0.80394
0.658651
0.531823
-0.32978
0.261365
0.548054
-0.107409
0.0911783
-0.0204023
0.0246834
0.328096
-1.17386
0.463519
-0.939362
0.532516
-0.398777
0.549709
-0.124602
-0.0182031
0.335802
-1.37798
0.458047
-1.06161
0.527841
-0.468571
0.548859
-0.145621
-0.0212482
0.33703
-1.57042
0.449003
-1.17358
0.51882
-0.538388
0.54573
-0.17253
-0.0322291
0.327178
-1.73643
0.431436
-1.27784
0.502025
-0.608977
0.539504
-0.210009
-0.0541797
1.1917
-1.58798
-1.34015
0.999389
-1.08553
0.901639
-0.511227
0.871117
-0.179488
-0.0455488
1.33194
-1.13257
-1.78735
0.999658
-0.753251
0.842115
-0.353684
0.789568
-0.12694
-0.028587
1.19075
-0.608193
-1.71513
0.822211
-0.384711
0.647266
-0.178739
0.58773
-0.0674037
-0.0144978
0.821992
-0.185567
-1.24462
0.547251
-0.10997
0.416468
-0.0479561
0.369277
-0.0202127
-0.00420196
0.306278
-0.491845
0.196307
0.148351
0.128138
1.56265
0.0462307
-1.57782
1.52175
0.126164
1.46271
0.191315
1.39633
0.236686
0.25014
1.67595
0.0356512
-1.66537
1.69944
0.102674
1.73099
0.15977
1.7655
0.202168
0.228293
1.388
0.0184784
-1.37082
1.43709
0.0535794
1.51394
0.082917
1.61031
0.105806
0.123473
0.977702
0.00531544
-0.964539
1.01587
0.015412
1.07577
0.0230176
1.1538
0.0277794
0.0326506
0.392985
-0.38767
0.408397
0.431415
0.459194
0.128848
0.327537
-0.264513
-0.191871
0.0781895
0.273172
-0.222514
0.0385324
0.209785
-0.170128
0.0113405
0.136454
-0.109262
0.0519644
-0.0406239
0.115972
0.378868
-0.167303
0.0714935
0.317651
0.0356087
0.24567
0.0105557
0.161507
0.0625201
0.0888687
0.418267
-0.128267
0.054814
0.351706
0.0272852
0.273199
0.00806292
0.180729
0.070583
0.0552607
0.443543
-0.0805367
0.0337718
0.373195
0.0166576
0.290313
0.00486449
0.192523
0.0754475
0.0174927
-0.0259227
0.0105059
0.00508825
0.00145253
0.0712227
0.0866433
-0.105315
-0.0525514
0.0419617
0.0731039
-0.0438429
0.0192596
0.0564004
-0.0336984
0.00501026
0.0363796
-0.0221303
0.0130794
-0.00806914
0.0761349
0.125165
-0.114657
0.0438617
0.105377
0.0197624
0.0804998
0.00514287
0.0509992
0.0182222
0.0851055
0.168033
-0.127974
0.0495775
0.140905
0.0230018
0.107075
0.00626162
0.0677393
0.0244839
0.0946468
0.214386
-0.140999
0.0561447
0.179407
0.0267176
0.136503
0.00748918
0.0869677
0.0319731
0.107677
-0.157805
0.0645709
0.0309454
0.00865085
0.493511
0.164358
-0.26189
0.518284
0.19293
-0.217702
0.472806
0.315356
-0.269878
0.326213
0.7922
-0.645606
1.0327
-0.811803
0.48841
0.071928
0.514395
0.166944
0.466444
0.363307
0.327558
0.931086
1.2456
0.484959
-0.0170519
0.507086
0.144818
0.454161
0.416232
0.329276
1.05597
1.4469
0.482393
-0.103466
0.498987
0.128224
0.439469
0.47575
0.327346
1.16809
1.63325
0.480249
-0.187735
0.486053
0.122419
0.418694
0.54311
0.31598
1.27081
1.79143
0.770049
-0.353764
0.859147
0.0333215
0.958992
0.443265
1.16742
1.06238
1.61193
1.34691
0.753569
-0.503313
0.846089
-0.0591984
0.980887
0.308468
1.30316
0.740108
1.14072
1.77437
0.629716
-0.529009
0.672893
-0.102375
0.817348
0.164012
1.17572
0.381737
0.611689
1.70475
0.456886
-0.381875
0.42404
-0.0695281
0.543176
0.0448766
0.816288
0.108624
0.186914
1.24106
0.222146
0.152618
0.197494
0.306118
0.493032
1.40223
-0.247191
1.46558
-0.230648
1.52294
-0.185633
1.56316
-0.120756
-0.0405822
1.75318
-0.225996
1.72015
-0.197618
1.69091
-0.156394
1.67102
-0.100868
-0.0349343
1.60191
-0.123161
1.50897
-0.104676
1.43465
-0.0820683
1.38709
-0.053315
-0.0186662
1.15097
-0.0330662
1.07422
-0.027928
1.01525
-0.0231011
0.977557
-0.0156192
-0.00564782
0.459966
0.432038
0.408937
0.393318
0.00250074
0.0429877
-0.0454885
0.00732607
0.101013
-0.105838
0.0160915
0.148347
-0.157112
0.0165736
0.151864
-0.152346
0.113988
0.0148087
-0.112224
0.00682631
0.0361614
0.020172
0.0876671
0.0409474
0.127571
0.048245
0.144566
0.116346
0.0458876
0.00880578
0.0273556
0.0270665
0.0694064
0.0521344
0.102503
0.0730887
0.123612
0.113998
0.0754366
0.00779276
0.0195629
0.02549
0.0517092
0.0497172
0.0782763
0.0774257
0.0959034
0.0991398
0.0922841
0.00508323
0.0144797
0.0179259
0.0388665
0.0367253
0.0594769
0.0600408
0.0725879
0.0765604
0.0826203
0.00340945
0.0110702
0.0125531
0.0297229
0.027542
0.044488
0.0473812
0.0527488
0.0557199
0.0682218
0.00226533
0.00880492
0.00925188
0.0227365
0.0230867
0.0306534
0.042288
0.0335478
0.0339007
0.0641073
0.0018988
0.00690619
0.0109581
0.0136775
0.0274454
0.0141664
0.0483088
0.0126846
0.0103257
0.0718839
0.00410271
0.00280363
0.0179219
-0.000141374
0.0371518
-0.00506321
0.0600646
-0.0102279
-0.0154844
0.0858748
0.00724311
0.0229744
0.0438269
0.0690852
0.0977262
0.158449
0.0104334
-0.10066
0.247322
-0.128135
0.039262
0.272904
-0.0480083
0.0224265
0.288645
-0.0206675
0.00492667
-0.0139697
0.00180288
0.220355
-0.145814
0.329797
-0.237578
0.360782
-0.0789931
0.375944
-0.0358291
-0.0229635
0.262687
-0.336617
0.39363
-0.368521
0.441517
-0.12688
0.456582
-0.0508942
-0.0268465
0.291598
-0.54234
0.434373
-0.511296
0.49995
-0.192457
0.521143
-0.0720871
-0.0275804
0.307835
0.455191
0.524099
0.54319
0.0716756
0.0375871
-0.109263
0.079562
-0.00788641
0.0855528
-0.0059908
0.0864846
-0.000931742
-0.000391918
0.19852
-0.261592
0.229897
0.246333
0.250328
0.0207232
-0.00432956
-0.0163936
0.0342669
-0.0135437
0.0567347
-0.0224678
0.0855834
-0.0288487
-0.0236793
0.0539028
-0.0434237
0.0862467
0.139215
0.202651
0.0482304
-0.0547961
0.0761941
-0.0696283
0.0277483
-0.0517826
0.0722646
0.0123607
-0.0441357
0.0595233
0.00331075
-0.0300148
0.0390647
-0.0112758
0.0145866
0.0467993
-0.0314913
-0.0701042
0.0259651
-0.0309486
0.0103378
-0.0285084
0.00230102
-0.021978
-0.00897487
0.0570591
-0.00575335
-0.0827971
0.0339995
-0.00788909
0.0149563
-0.00946534
0.00283772
-0.00985952
-0.00613719
0.0690866
0.0221184
-0.0969584
0.0441846
0.0170128
0.0230799
0.0116393
0.00690681
0.0063135
0.000769583
0.0720057
-0.102439
0.0451755
0.0231164
0.00729955
0.0165802
-0.113987
-0.014817
0.0160906
-0.151856
0.00730463
-0.148326
0.00248841
-0.101022
-0.043
0.0482613
-0.116336
-0.0459122
0.0409214
-0.144516
0.0201576
-0.127562
0.00681892
-0.0876833
-0.0361811
0.0731245
-0.113931
-0.0755294
0.0521077
-0.1235
0.027054
-0.102509
0.00880221
-0.0694314
-0.0273789
0.0773483
-0.098874
-0.0924052
0.0495988
-0.0957502
0.0254116
-0.0783213
0.00776716
-0.051787
-0.0196118
0.0600313
-0.0827113
0.0365456
0.0177476
0.0050252
0.346849
0.575628
-0.526497
0.293677
0.206803
-0.153631
0.255084
0.0630347
-0.0244418
0.169351
0.122559
-0.036826
0.007236
0.0924866
0.4167
0.554907
0.387864
0.235638
0.343554
0.107345
0.237016
0.229097
0.174148
0.477545
0.473341
0.46933
0.243854
0.412854
0.163821
0.283691
0.358259
0.375042
0.503639
0.365682
0.51135
0.236143
0.45347
0.221701
0.312294
0.499435
0.590377
0.499772
0.518212
0.470035
0.323864
0.159028
0.351023
0.0874663
0.071562
0.0826677
0.00479867
0.0735184
0.0091492
-0.0358246
0.109343
0.334577
0.252508
0.232865
0.205188
0.261849
0.0856394
0.0237037
0.0567671
0.0288722
0.0342778
0.0224893
0.0207266
0.0135512
0.00433302
0.202842
0.139309
0.0862686
0.0539077
)
;

boundaryField
{
    left
    {
        type            calculated;
        value           nonuniform List<scalar> 
17
(
-0.60402
-0.60402
-0.60402
-0.60402
-0.60402
-0.39598
-0.39598
-0.39598
-0.39598
-0.39598
-0.39598
-0.39598
-0.39598
-0.39598
-0.39598
-0.510051
-0.510051
)
;
    }
    right
    {
        type            calculated;
        value           nonuniform List<scalar> 
17
(
0.0868765
0.251739
0.300812
0.384938
0.460465
0.521877
0.540293
0.543773
0.54751
0.551904
0.556711
0.561455
0.862486
0.772606
0.573641
0.358981
0.123936
)
;
    }
    down
    {
        type            calculated;
        value           uniform 0;
    }
    up
    {
        type            calculated;
        value           uniform 0;
    }
    cylinder
    {
        type            calculated;
        value           uniform 0;
    }
    defaultFaces
    {
        type            empty;
    }
}


// ************************************************************************* //
