/*--------------------------------*- C++ -*----------------------------------*\
  =========                 |
  \\      /  F ield         | OpenFOAM: The Open Source CFD Toolbox
   \\    /   O peration     | Website:  https://openfoam.org
    \\  /    A nd           | Version:  13
     \\/     M anipulation  |
\*---------------------------------------------------------------------------*/
FoamFile
{
    format      ascii;
    class       volScalarField;
    location    "4.9";
    object      p;
}
// * * * * * * * * * * * * * * * * * * * * * * * * * * * * * * * * * * * * * //

dimensions      [0 2 -2 0 0 0 0];

internalField   nonuniform List<scalar> 
1800
(
-0.814689
-0.814824
-0.814066
-0.812062
-0.809165
-0.806499
-0.8061
-0.811692
-0.823937
-0.87466
-0.824434
-0.823001
-0.820278
-0.815901
-0.810253
-0.804122
-0.798915
-0.797197
-0.797895
-0.836682
-0.844101
-0.840405
-0.835897
-0.830127
-0.82342
-0.816296
-0.809359
-0.803778
-0.800204
-0.814406
-0.872865
-0.86662
-0.859632
-0.851713
-0.842951
-0.833414
-0.823195
-0.812653
-0.802965
-0.797535
-0.914032
-0.904933
-0.895274
-0.884682
-0.872616
-0.858457
-0.841837
-0.82292
-0.802703
-0.782544
-0.968885
-0.956834
-0.943991
-0.929489
-0.911614
-0.889229
-0.86223
-0.831438
-0.798185
-0.763875
-1.03662
-1.02179
-1.00483
-0.984001
-0.956496
-0.921649
-0.880792
-0.83622
-0.790121
-0.744612
-1.11275
-1.09549
-1.07266
-1.04172
-1.00003
-0.948863
-0.891879
-0.832749
-0.774147
-0.717826
-1.18884
-1.16922
-1.13798
-1.09271
-1.03298
-0.963424
-0.89002
-0.817184
-0.747379
-0.681901
-1.25319
-1.23075
-1.18841
-1.12551
-1.04581
-0.957893
-0.869202
-0.784009
-0.704208
-0.630388
-1.07176
-1.07755
-1.08569
-1.09779
-1.11508
-1.13738
-1.16389
-1.19394
-1.22822
-1.26895
-0.993525
-0.999927
-1.00769
-1.01782
-1.0318
-1.04969
-1.07084
-1.0948
-1.1222
-1.15423
-0.932735
-0.938215
-0.944097
-0.951006
-0.960378
-0.972433
-0.986714
-1.00267
-1.02004
-1.0387
-0.893577
-0.897018
-0.900195
-0.903836
-0.908746
-0.915199
-0.922892
-0.931066
-0.938147
-0.942527
-0.871134
-0.872582
-0.873826
-0.874585
-0.875937
-0.87808
-0.880836
-0.883614
-0.884308
-0.879297
-0.855045
-0.854812
-0.854182
-0.853207
-0.852117
-0.850948
-0.849542
-0.847572
-0.843683
-0.833302
-0.840785
-0.839986
-0.838744
-0.836816
-0.834083
-0.830469
-0.825891
-0.820256
-0.813297
-0.802401
-0.827553
-0.827249
-0.826318
-0.824298
-0.820866
-0.815928
-0.809435
-0.801428
-0.791985
-0.780258
-0.817172
-0.817837
-0.817736
-0.81635
-0.813675
-0.809845
-0.805152
-0.800062
-0.795592
-0.786736
-0.810993
-0.812068
-0.812151
-0.810899
-0.808619
-0.805849
-0.803301
-0.802792
-0.804641
-0.804208
-1.52244
-1.72937
-1.35072
-0.939545
-0.959842
-0.931721
-0.654504
-0.314378
-0.120476
0.0126216
-1.35474
-1.53325
-1.28975
-1.04573
-1.09829
-1.01942
-0.70544
-0.333568
-0.126148
0.00879159
-1.16871
-1.29316
-1.17467
-1.13969
-1.24915
-1.09695
-0.749028
-0.35266
-0.131692
0.00412746
-0.997555
-1.04143
-1.00294
-1.20923
-1.39061
-1.16447
-0.782615
-0.37053
-0.137349
-0.00121227
-0.866273
-0.811713
-0.802597
-1.2407
-1.49133
-1.21868
-0.806112
-0.386392
-0.143422
-0.00710558
-0.779047
-0.620922
-0.62164
-1.23213
-1.53932
-1.25475
-0.820426
-0.400135
-0.150277
-0.0134789
-0.727154
-0.477428
-0.483158
-1.1932
-1.54446
-1.26975
-0.826121
-0.412072
-0.158339
-0.0203316
-0.706133
-0.379472
-0.385992
-1.13213
-1.51445
-1.26267
-0.822993
-0.422261
-0.167989
-0.0277571
-0.714763
-0.325094
-0.304457
-1.05188
-1.45588
-1.23485
-0.811156
-0.430361
-0.179461
-0.035872
-0.73773
-0.313792
-0.231492
-0.956893
-1.3752
-1.19142
-0.793059
-0.436712
-0.192773
-0.0448394
-0.692041
-0.276932
-0.181902
-0.885202
-1.27938
-1.10458
-0.745942
-0.434166
-0.208431
-0.0570388
-0.593856
-0.267431
-0.220999
-0.78973
-1.09501
-0.942225
-0.668524
-0.429838
-0.231054
-0.0722417
-0.522774
-0.287638
-0.251063
-0.654894
-0.881465
-0.784813
-0.601956
-0.436032
-0.261479
-0.0882037
-0.460835
-0.300084
-0.255618
-0.521055
-0.68896
-0.645996
-0.545677
-0.449314
-0.297753
-0.105532
-0.403409
-0.295105
-0.246325
-0.408061
-0.524576
-0.524061
-0.499029
-0.465629
-0.330763
-0.117397
-0.349027
-0.280444
-0.231385
-0.310745
-0.385149
-0.417202
-0.459208
-0.474551
-0.351225
-0.120637
-0.300328
-0.261234
-0.212023
-0.229513
-0.272937
-0.330806
-0.421491
-0.468964
-0.359257
-0.117508
-0.258442
-0.242162
-0.19037
-0.170464
-0.19875
-0.276259
-0.388869
-0.445152
-0.331088
-0.108541
-0.227758
-0.231254
-0.184496
-0.144264
-0.166107
-0.256456
-0.369798
-0.422072
-0.316723
-0.100445
-0.205998
-0.222668
-0.190867
-0.169774
-0.188241
-0.261883
-0.360972
-0.404448
-0.297808
-0.0962695
-0.502448
-0.564803
-0.614355
-0.656913
-0.694629
-0.737639
-0.779222
-0.820984
-0.824704
-0.868223
-0.354786
-0.424411
-0.481553
-0.53365
-0.575798
-0.615545
-0.643282
-0.669309
-0.684603
-0.718063
-0.236944
-0.307916
-0.367314
-0.420686
-0.46223
-0.498226
-0.523985
-0.547237
-0.566315
-0.586821
-0.140528
-0.210152
-0.269979
-0.322322
-0.364702
-0.400431
-0.429109
-0.453938
-0.474892
-0.493245
-0.0621099
-0.129628
-0.188981
-0.240496
-0.284022
-0.320737
-0.351519
-0.377229
-0.398565
-0.416184
0.00101599
-0.064644
-0.123109
-0.174026
-0.217823
-0.254773
-0.285774
-0.311183
-0.33182
-0.34822
0.0505523
-0.0136467
-0.071099
-0.121193
-0.164352
-0.200535
-0.230554
-0.254782
-0.274229
-0.289535
0.0868564
0.0237708
-0.0327741
-0.0817875
-0.123923
-0.158679
-0.187257
-0.209659
-0.227425
-0.240794
0.108597
0.0462426
-0.00980377
-0.0581382
-0.0997525
-0.133457
-0.161022
-0.181371
-0.197066
-0.20674
0.118016
0.0553113
-0.000855278
-0.0495904
-0.091323
-0.125255
-0.15264
-0.172155
-0.186453
-0.191829
0.881856
0.815224
0.738625
0.656293
0.566955
0.468371
0.360773
0.250558
0.158421
0.114347
0.6853
0.613189
0.532469
0.443763
0.345296
0.235596
0.115934
-0.00561607
-0.106042
-0.152843
0.470592
0.395754
0.312583
0.21993
0.115797
-0.000879271
-0.12819
-0.256831
-0.362303
-0.409943
0.264908
0.186875
0.099804
0.00234083
-0.107183
-0.229601
-0.362728
-0.49555
-0.602734
-0.649057
0.0791614
-0.00314801
-0.0950714
-0.197742
-0.312481
-0.439694
-0.577507
-0.711697
-0.815408
-0.861141
-0.0862169
-0.17274
-0.268956
-0.375742
-0.494296
-0.624784
-0.762564
-0.894117
-0.993695
-1.03751
-0.232684
-0.321918
-0.420292
-0.528791
-0.648344
-0.77824
-0.912985
-1.03848
-1.13081
-1.1711
-0.362617
-0.45123
-0.548527
-0.655482
-0.772532
-0.898041
-1.02549
-1.1404
-1.22216
-1.25785
-0.472455
-0.558063
-0.651804
-0.754328
-0.865365
-0.98228
-1.09764
-1.1976
-1.26655
-1.29728
-0.56156
-0.642151
-0.729994
-0.825177
-0.926625
-1.03075
-1.12971
-1.21163
-1.26693
-1.2931
2.16596
2.18402
2.2027
2.2208
2.23737
2.25166
2.26285
2.27073
2.27705
2.28274
2.10053
2.11547
2.13026
2.14382
2.15536
2.16413
2.16932
2.17102
2.17196
2.17439
2.01416
2.025
2.03467
2.04229
2.04728
2.04892
2.04641
2.04017
2.03416
2.03254
1.90883
1.91499
1.9185
1.91883
1.91575
1.90852
1.89641
1.88027
1.86559
1.85925
1.78462
1.78509
1.7815
1.77367
1.76163
1.74461
1.7219
1.69479
1.67039
1.65895
1.64525
1.63988
1.6283
1.61102
1.58851
1.56007
1.52515
1.48561
1.45041
1.43324
1.4909
1.47915
1.4595
1.4328
1.3997
1.35944
1.3116
1.2588
1.21215
1.18905
1.33005
1.31094
1.28127
1.24309
1.19766
1.14429
1.08268
1.01614
0.957949
0.928931
1.16745
1.14091
1.10079
1.0504
0.991581
0.923733
0.846863
0.765345
0.69504
0.660275
1.01646
0.973071
0.916361
0.851015
0.777954
0.695666
0.60402
0.50827
0.426776
0.386958
1.85304
1.8395
1.83045
1.82323
1.82379
1.82996
1.85123
1.89298
1.96579
2.08352
1.84704
1.83433
1.82635
1.81801
1.81856
1.82235
1.84206
1.87874
1.94264
2.0436
1.84164
1.82923
1.82205
1.81234
1.81276
1.81357
1.83141
1.86131
1.91381
1.99202
1.83672
1.82424
1.81757
1.80626
1.80637
1.80361
1.81933
1.84051
1.87983
1.92824
1.83227
1.81943
1.8129
1.79982
1.79935
1.7925
1.80582
1.81621
1.84132
1.85136
1.82826
1.81483
1.80804
1.79306
1.79167
1.78032
1.79081
1.78838
1.79852
1.76066
1.82469
1.81047
1.80298
1.786
1.7833
1.76712
1.77416
1.75705
1.75158
1.65472
1.82157
1.80635
1.79773
1.77869
1.7742
1.75299
1.75574
1.72242
1.70026
1.53501
1.81893
1.8025
1.7923
1.77115
1.76443
1.73807
1.73543
1.68471
1.64295
1.39958
1.81679
1.79892
1.78676
1.7634
1.75417
1.72253
1.71422
1.64555
1.58279
1.25993
1.81466
1.79506
1.77937
1.75375
1.73959
1.70179
1.68301
1.59544
1.50932
1.12432
1.81364
1.79171
1.77105
1.74315
1.72233
1.67967
1.64741
1.55105
1.4364
1.09796
1.81442
1.7896
1.76269
1.73318
1.70468
1.65943
1.61339
1.51475
1.37722
1.08328
1.81765
1.78871
1.7545
1.72399
1.68727
1.64131
1.58164
1.4853
1.32873
1.07471
1.82422
1.78877
1.74638
1.71556
1.66964
1.62554
1.55228
1.46204
1.29086
1.06946
1.83468
1.78991
1.73855
1.70806
1.65242
1.61222
1.52573
1.4439
1.26263
1.06462
1.84894
1.78931
1.72995
1.6982
1.63509
1.60025
1.50253
1.42936
1.24234
1.06086
1.87403
1.79318
1.72463
1.69102
1.61986
1.58981
1.48333
1.41854
1.22879
1.05944
1.88683
1.78499
1.71319
1.67944
1.60693
1.58209
1.47082
1.41291
1.22219
1.06166
1.96365
1.79801
1.71645
1.67693
1.60142
1.5787
1.46489
1.41216
1.21939
1.06632
0.865389
0.704526
0.51429
0.331484
0.167351
0.0206149
-0.111215
-0.230046
-0.335164
-0.426541
0.814941
0.68816
0.543751
0.398624
0.263782
0.139247
0.0244798
-0.0841441
-0.184253
-0.276052
0.797824
0.690478
0.574626
0.455278
0.339588
0.228357
0.12295
0.0218064
-0.0715141
-0.159278
0.807233
0.707938
0.604658
0.501005
0.399008
0.298918
0.20203
0.108149
0.0195755
-0.0643489
0.821837
0.728933
0.633951
0.540402
0.448306
0.356844
0.266504
0.177852
0.0927968
0.0121596
0.83762
0.750614
0.662062
0.575289
0.48976
0.404094
0.318309
0.233351
0.151163
0.0732543
0.853122
0.771479
0.688126
0.60596
0.524398
0.442203
0.359332
0.276999
0.196994
0.121153
0.867593
0.790569
0.711467
0.632273
0.552543
0.471767
0.390202
0.309378
0.230839
0.156433
0.881139
0.807566
0.731519
0.653528
0.573605
0.492295
0.410514
0.329879
0.251584
0.177555
0.892571
0.820375
0.744771
0.665703
0.5843
0.501906
0.419714
0.33899
0.26092
0.18695
-1.83426
-1.78747
-1.68616
-1.55933
-1.43167
-1.31594
-1.21651
-1.1344
-1.06979
-1.02319
-1.905
-1.86466
-1.77995
-1.67023
-1.55597
-1.45009
-1.35792
-1.28118
-1.22087
-1.17848
-1.90116
-1.86643
-1.79999
-1.71151
-1.61501
-1.52225
-1.43929
-1.36855
-1.31162
-1.27027
-1.83784
-1.80763
-1.75826
-1.69232
-1.61652
-1.53986
-1.46858
-1.40582
-1.3538
-1.31465
-1.73772
-1.71152
-1.6759
-1.63013
-1.57511
-1.51596
-1.45777
-1.40386
-1.3565
-1.31701
-1.62481
-1.60256
-1.57685
-1.54615
-1.50855
-1.46552
-1.42022
-1.37521
-1.33331
-1.29651
-1.51802
-1.50001
-1.48113
-1.46029
-1.43531
-1.40575
-1.37265
-1.33804
-1.30339
-1.27107
-1.42772
-1.41416
-1.4003
-1.38548
-1.36843
-1.34806
-1.32418
-1.2967
-1.26842
-1.23942
-1.3566
-1.34726
-1.33741
-1.32665
-1.31454
-1.30036
-1.28353
-1.26397
-1.24154
-1.22527
-1.30233
-1.29656
-1.28996
-1.28207
-1.27304
-1.26268
-1.25036
-1.23634
-1.21658
-1.20432
-1.26126
-1.25826
-1.25381
-1.24769
-1.24039
-1.23229
-1.22355
-1.21421
-1.20156
-1.17028
-1.23245
-1.23082
-1.22729
-1.22159
-1.21463
-1.20707
-1.19927
-1.19112
-1.18107
-1.14278
-1.21666
-1.21484
-1.21052
-1.20342
-1.19419
-1.18409
-1.17385
-1.16333
-1.14992
-1.12176
-1.21631
-1.213
-1.20721
-1.19864
-1.18806
-1.17669
-1.16568
-1.15592
-1.14819
-1.14567
-1.22828
-1.22284
-1.21611
-1.20837
-1.2004
-1.19344
-1.18883
-1.1879
-1.19245
-1.20725
-1.24464
-1.2379
-1.23181
-1.22768
-1.22624
-1.22837
-1.23484
-1.24633
-1.26367
-1.28871
-1.25596
-1.24987
-1.2465
-1.24811
-1.25512
-1.26766
-1.28569
-1.30905
-1.33761
-1.37117
-1.24919
-1.24584
-1.24634
-1.25352
-1.26749
-1.28785
-1.31407
-1.34559
-1.38185
-1.42265
-1.21454
-1.21491
-1.21894
-1.22971
-1.2473
-1.2712
-1.3007
-1.3351
-1.37365
-1.41658
-1.15182
-1.15562
-1.16232
-1.17476
-1.19343
-1.21792
-1.24738
-1.28085
-1.31807
-1.36108
-1.07884
-1.29033
-0.940352
-0.874391
-0.789384
-0.555271
-0.371329
-0.207416
-0.0833429
-0.00534358
-1.14093
-1.42316
-1.01352
-0.855751
-0.735896
-0.53175
-0.370858
-0.208691
-0.0834126
-0.00248625
-1.21723
-1.52192
-1.08115
-0.812236
-0.684127
-0.511005
-0.372455
-0.210789
-0.0832787
0.00175169
-1.31158
-1.58995
-1.14488
-0.752907
-0.628063
-0.499006
-0.379414
-0.215739
-0.0842044
0.00654643
-1.42686
-1.67672
-1.20805
-0.693697
-0.588537
-0.505151
-0.395418
-0.224045
-0.0867808
0.0109517
-1.55022
-1.79142
-1.26572
-0.652671
-0.574501
-0.532205
-0.421583
-0.235027
-0.0908941
0.0143934
-1.6579
-1.89978
-1.31054
-0.643063
-0.593728
-0.580101
-0.457451
-0.247998
-0.0961445
0.0166268
-1.72021
-1.95664
-1.33996
-0.672394
-0.648182
-0.648134
-0.500562
-0.26259
-0.102091
0.0175468
-1.7171
-1.94578
-1.3566
-0.742141
-0.731787
-0.735057
-0.548803
-0.278627
-0.108335
0.0171322
-1.64784
-1.86727
-1.36309
-0.838934
-0.836171
-0.834755
-0.600916
-0.29594
-0.114533
0.0154506
-0.935166
-0.865526
-0.725965
-0.819804
-0.76695
-0.522887
-0.326576
-0.17733
-0.0705602
-0.00602331
-0.922314
-0.8443
-0.713381
-0.821141
-0.783306
-0.53277
-0.331521
-0.180007
-0.0716318
-0.00616604
-0.928352
-0.87241
-0.719601
-0.828716
-0.78885
-0.546632
-0.340195
-0.185254
-0.0737785
-0.00633368
-0.95896
-0.957842
-0.761152
-0.856736
-0.82374
-0.558955
-0.352495
-0.192896
-0.076971
-0.00656146
-1.01914
-1.12801
-0.842695
-0.864553
-0.797224
-0.564401
-0.365634
-0.202158
-0.0810534
-0.00662289
-0.977604
-1.12562
-1.21693
-1.27035
-1.26773
-1.2544
-1.2149
-1.16738
-1.11364
-1.05829
-0.97801
-1.12829
-1.21727
-1.26849
-1.2598
-1.24549
-1.20575
-1.15267
-1.10722
-1.04566
-0.98085
-1.13255
-1.22018
-1.26913
-1.25829
-1.24385
-1.20495
-1.15614
-1.11711
-1.06573
-0.988039
-1.14171
-1.22983
-1.27615
-1.26822
-1.25126
-1.2169
-1.17825
-1.14777
-1.12188
-1.00055
-1.15685
-1.2466
-1.29077
-1.28806
-1.26773
-1.24082
-1.20984
-1.18982
-1.18521
1.65951
1.64554
1.62315
1.59602
1.56528
1.52966
1.48811
1.44253
1.40254
1.38264
1.77748
1.77815
1.77087
1.75789
1.74068
1.71865
1.69107
1.65941
1.63134
1.61793
1.89445
1.90165
1.90299
1.89997
1.89364
1.88347
1.86867
1.85002
1.83321
1.82567
1.99919
2.01171
2.02062
2.02647
2.02965
2.02952
2.02523
2.01716
2.00954
2.00703
2.08919
2.10572
2.11993
2.13195
2.14189
2.14914
2.15285
2.15312
2.15288
2.15458
2.15823
2.17738
2.1957
2.21282
2.22841
2.24182
2.25217
2.25923
2.26484
2.2701
2.20594
2.22689
2.24796
2.26843
2.28768
2.30501
2.31957
2.33098
2.3404
2.34805
2.23036
2.25204
2.27452
2.29683
2.31811
2.33762
2.35453
2.36832
2.37981
2.38876
2.23163
2.25313
2.27571
2.29823
2.31971
2.33941
2.35651
2.37048
2.38212
2.39116
2.20999
2.23029
2.2516
2.27271
2.29262
2.31057
2.32574
2.33773
2.34763
2.35556
-0.806284
-0.859089
-0.92831
-1.01467
-1.1192
-1.24152
-1.37834
-1.51742
-1.63147
-1.68429
-0.534302
-0.593613
-0.668024
-0.758389
-0.866123
-0.991703
-1.13392
-1.28111
-1.40403
-1.46088
-0.224175
-0.289998
-0.369589
-0.463404
-0.572951
-0.699243
-0.841018
-0.988514
-1.11918
-1.17778
0.0994288
0.0286211
-0.0543958
-0.149729
-0.258745
-0.382584
-0.520305
-0.664559
-0.790879
-0.852608
0.411377
0.338724
0.255752
0.162546
0.0578356
-0.0597603
-0.18982
-0.325781
-0.443662
-0.503583
0.693136
0.623536
0.545465
0.459004
0.362858
0.255486
0.137043
0.0133839
-0.0934779
-0.148651
0.940529
0.878615
0.809784
0.73394
0.649686
0.555405
0.451117
0.342071
0.247978
0.199243
1.16264
1.11033
1.0523
0.988421
0.917121
0.836741
0.747263
0.653377
0.572468
0.530769
1.36936
1.32583
1.27653
1.22275
1.16309
1.09582
1.02077
0.941906
0.874107
0.83954
1.54871
1.51392
1.47198
1.42741
1.37956
1.32636
1.26704
1.20437
1.15036
1.12312
1.9654
1.87532
1.85257
1.84238
1.83738
1.84268
1.84842
1.87043
1.85851
1.79434
1.94812
1.87465
1.85286
1.84399
1.83963
1.84679
1.85617
1.88399
1.89309
1.87429
1.93253
1.87297
1.85232
1.84462
1.84097
1.84957
1.86285
1.8979
1.92689
1.95214
1.91853
1.87045
1.8511
1.84437
1.84146
1.85113
1.86776
1.90823
1.95452
2.01535
1.90594
1.86724
1.84933
1.8433
1.84117
1.85157
1.87078
1.91545
1.97568
2.06535
1.89461
1.86346
1.84708
1.8415
1.84013
1.85085
1.87195
1.91945
1.99018
2.1012
1.88443
1.85921
1.84442
1.839
1.83831
1.84897
1.87129
1.92024
1.99798
2.12326
1.87529
1.8546
1.84138
1.83588
1.83573
1.84592
1.86886
1.91788
1.99919
2.13206
1.86707
1.84972
1.838
1.83218
1.83242
1.84174
1.86469
1.91249
1.99409
2.12822
1.85969
1.84465
1.83435
1.82796
1.82843
1.83642
1.8588
1.9042
1.98294
2.11188
2.1318
1.87708
1.844
1.82887
1.82503
1.82473
1.81618
1.81799
1.74118
1.70246
2.05737
1.87118
1.84498
1.83185
1.82695
1.82616
1.81699
1.81931
1.74362
1.69621
2.03446
1.87633
1.8487
1.83486
1.82908
1.8285
1.81999
1.82333
1.75491
1.69063
2.00792
1.87626
1.85058
1.83761
1.83156
1.83199
1.8267
1.83307
1.77741
1.69656
1.98493
1.87569
1.85176
1.84009
1.83434
1.83669
1.83532
1.84836
1.81095
1.71682
1.43294
1.31192
1.14891
0.937829
0.681701
0.390166
0.0779864
-0.234431
-0.525333
-0.775811
1.42617
1.30933
1.1526
0.947576
0.697891
0.410826
0.0992595
-0.21666
-0.514042
-0.771587
1.43492
1.31537
1.15723
0.95505
0.710629
0.427105
0.115278
-0.204241
-0.507173
-0.770464
1.46655
1.33314
1.16412
0.960748
0.719823
0.438648
0.125939
-0.19713
-0.505007
-0.773538
1.52389
1.36632
1.17607
0.964855
0.723757
0.444138
0.131525
-0.194048
-0.506755
-0.781232
)
;

boundaryField
{
    left
    {
        type            zeroGradient;
    }
    right
    {
        type            fixedValue;
        value           uniform 0;
    }
    down
    {
        type            zeroGradient;
    }
    up
    {
        type            zeroGradient;
    }
    cylinder
    {
        type            zeroGradient;
    }
    defaultFaces
    {
        type            empty;
    }
}


// ************************************************************************* //
