/*--------------------------------*- C++ -*----------------------------------*\
  =========                 |
  \\      /  F ield         | OpenFOAM: The Open Source CFD Toolbox
   \\    /   O peration     | Website:  https://openfoam.org
    \\  /    A nd           | Version:  13
     \\/     M anipulation  |
\*---------------------------------------------------------------------------*/
FoamFile
{
    format      ascii;
    class       surfaceScalarField;
    location    "63.3";
    object      phi;
}
// * * * * * * * * * * * * * * * * * * * * * * * * * * * * * * * * * * * * * //

dimensions      [0 3 -1 0 0 0 0];

internalField   nonuniform List<scalar> 
823
(
-0.00536515
0.0181966
-0.0128314
0.00913549
0.00864995
-0.0231506
0.0689265
-0.040728
-0.019063
0.166876
-0.104408
0.00645856
-0.144078
0.00282769
0.308126
0.00658692
0.0116097
0.0580001
-0.0427633
0.155374
-0.138101
0.272574
-0.221608
-0.29518
0.423676
0.0253533
-0.0137436
0.116118
-0.133528
0.229563
-0.251546
0.335894
-0.327939
-0.369556
0.41027
0.0472111
-0.0609547
0.145239
-0.231556
0.226861
-0.333169
0.273881
-0.374959
-0.386704
0.291029
0.0593103
-0.120265
0.12863
-0.300875
0.166159
-0.370698
0.179985
-0.388785
0.187861
-0.39458
-0.0452309
0.023666
0.0215649
-0.114055
0.0519599
0.0168644
-0.173816
0.0549543
0.00480697
-0.219292
0.0577658
-0.0122902
0.0662492
-0.253066
-0.0324753
-0.00246551
0.0261315
-0.0236012
0.0730956
-0.0601893
0.0915424
-0.0966029
0.0941793
0.0926467
-0.123
0.0181555
0.00797602
0.0468087
0.0444423
0.0676395
0.0707117
0.0801893
0.0816295
0.081951
0.090885
0.00692213
0.0010539
0.0310869
0.0202776
0.0625575
0.039241
0.0986061
0.0455809
0.0504751
0.130082
-0.0117775
-0.0146505
0.00552751
0.057567
0.11087
0.139375
1.08666
-1.47911
0.488258
-0.863693
0.51481
0.536728
-1.69759
1.64912
0.560266
0.0300832
-0.0536212
0.258155
-0.207979
0.130311
0.833353
0.362893
-1.09627
0.443933
-1.77863
0.543516
-0.0694996
0.284833
0.331126
0.593112
0.512413
-1.27756
0.478349
-1.74456
0.523229
-0.11438
0.297505
0.424311
0.298883
0.613673
-1.46692
0.529652
-1.66054
0.489979
-0.0747065
0.294139
0.461231
-0.0514782
0.580548
-1.58624
0.472874
-1.55287
0.409876
-0.0117084
0.237932
1.38108
-0.252762
-1.17979
1.32901
-1.53418
0.867987
-1.09184
0.670284
0.185995
0.133177
1.49698
-0.36296
-1.38679
1.09254
-1.12973
0.55531
-0.554612
0.603201
0.138105
-0.0635965
1.38434
-0.405998
-1.3413
0.975017
-0.72041
0.608928
-0.188523
0.755917
-0.00888467
-0.165539
1.21436
-0.309917
-1.31044
0.768949
-0.274999
0.618639
-0.0382121
0.711697
-0.101943
-0.104603
0.571177
-0.881094
0.296178
0.257966
0.156023
1.09601
0.148454
-1.0566
1.16835
0.218689
1.27492
0.3037
1.30261
0.395981
0.430944
1.00914
0.0950641
-0.955753
1.08008
0.147747
1.1727
0.211085
1.28138
0.287302
0.325537
0.95296
0.0505831
-0.908479
1.01291
0.0877956
1.09644
0.127555
1.2145
0.169242
0.198736
0.92126
0.0120488
-0.882726
0.980947
0.028109
1.06545
0.0430491
1.17852
0.0561787
0.0668103
0.686947
-0.674899
0.715056
0.758105
0.814284
0.1345
0.297111
-0.24326
-0.188352
0.0895466
0.301318
-0.256365
0.0501203
0.3111
-0.271674
0.0171765
0.301383
-0.268439
0.192412
-0.175235
0.102779
0.332987
-0.138655
0.0664901
0.337607
0.0342722
0.343318
0.00859975
0.327055
0.201012
0.0675127
0.367787
-0.102312
0.0360053
0.369114
0.00906639
0.370257
-0.00566866
0.34179
0.195343
-0.00750238
0.384375
-0.00908591
-0.0250813
0.386693
-0.0339811
0.379157
-0.0266255
0.334434
0.168717
-0.0883778
0.0781731
-0.0904698
-0.0820117
-0.0484524
0.201339
0.103952
-0.254952
-0.0503383
0.147113
0.107757
-0.0535309
0.0914238
0.112195
-0.0565065
0.0372108
0.111633
-0.0574199
0.078153
-0.0409422
0.194091
0.147893
-0.238033
0.147137
0.154711
0.0952387
0.164093
0.0404487
0.166423
0.118602
0.13644
0.192044
-0.180591
0.0958474
0.195304
0.0568388
0.203102
0.020455
0.202807
0.139057
0.151858
0.223817
-0.183631
0.113447
0.233715
0.0699459
0.246603
0.0272388
0.245514
0.166295
0.0795846
-0.0990268
0.056935
0.0318645
0.00893979
0.407324
0.0433398
-0.0546839
0.427756
0.0274396
-0.0478715
0.409754
0.205233
-0.187231
0.398427
0.188348
-0.177021
0.471589
-0.328115
0.405986
0.0333339
0.420602
0.0128232
0.398739
0.227096
0.387976
0.199111
0.621532
0.40017
0.029143
0.413801
-0.000807375
0.375732
0.265165
0.37407
0.200774
0.815011
0.398108
0.0270148
0.395399
0.00190168
0.363346
0.297218
0.355027
0.209093
0.986406
0.389564
0.0334306
0.379889
0.0115764
0.335838
0.341269
0.324827
0.220104
1.21221
0.625266
0.0121849
0.630531
0.00631189
0.683106
0.288693
0.787187
0.116023
1.01594
0.983452
0.637203
-0.0209976
0.611418
0.0320966
0.713605
0.186507
0.782772
0.0468556
0.770065
1.02865
0.630439
-0.0474166
0.63017
0.0323658
0.747317
0.06936
0.798182
-0.00400968
0.549219
1.01903
0.615245
-0.0586407
0.664443
-0.016833
0.746116
-0.0123124
0.744025
-0.00191931
0.287748
1.0055
0.54538
0.528547
0.516234
0.514315
0.802063
1.02349
-0.228391
1.01201
-0.127178
1.01955
-0.109845
1.0155
-0.00504141
0.0370758
0.981613
-0.181355
0.958327
-0.103893
0.933928
-0.0854458
0.938716
-0.00982972
0.0200393
0.946518
-0.108845
0.917487
-0.074862
0.889717
-0.0576762
0.896654
-0.0167666
0.00821474
0.939044
-0.0423922
0.899455
-0.0352727
0.871284
-0.0295055
0.870528
-0.0160102
-0.00398367
0.759671
0.724398
0.694892
0.678882
0.0472522
0.164769
-0.212022
0.0693652
0.344481
-0.366594
0.0688037
0.395059
-0.394497
0.0597342
0.394181
-0.385112
0.360655
0.047715
-0.348635
0.0716136
0.0931558
0.138111
0.277984
0.167947
0.365223
0.171766
0.390362
0.374842
0.157579
0.0632944
0.0298614
0.171206
0.170072
0.252978
0.283451
0.299857
0.343483
0.378095
0.296604
0.0324684
-0.00260695
0.135315
0.0672255
0.251638
0.167128
0.357732
0.237389
0.311297
0.42453
0.00887113
-0.0114781
0.0661485
0.00994816
0.165494
0.0677832
0.277788
0.125094
0.199155
0.38993
-0.00022536
-0.0112527
0.0172123
-0.0074895
0.0683356
0.0166599
0.141784
0.0516453
0.11131
0.229629
-0.0027454
-0.00850732
-0.00236361
-0.00787127
0.00514877
0.00914753
0.0230115
0.0337826
0.072308
0.0620139
0.0100314
-0.0185387
0.0246571
-0.022497
0.0341155
-0.000310884
0.0326573
0.0352408
0.0720278
0.0329375
0.0207705
-0.0393092
0.0404938
-0.0422202
0.0540793
-0.0138964
0.0692918
0.0200283
0.0543911
0.0869285
-0.0177443
-0.0431
-0.0521895
-0.0444513
-0.0225355
0.0965044
1.25557
-1.12245
0.163163
0.0529638
-0.119623
0.354265
-0.282439
0.0913378
0.280319
0.13275
-0.0588049
-0.0220935
0.0638639
-0.10646
1.42405
0.0274684
-0.0809649
0.440363
-0.695334
0.386842
0.186271
0.0375422
-0.267952
1.72494
-0.0753488
-0.273568
0.482462
-1.25314
0.483026
0.185707
0.10596
0.0108496
1.80102
0.0794469
-0.342166
0.432629
-1.60633
0.523957
0.094379
0.159371
0.299376
0.472021
0.51481
0.555568
-0.129071
0.62071
-0.491639
-0.0832468
-0.0458246
0.0258047
-0.109052
0.0865792
-0.0607745
-0.072247
0.56246
-1.0642
0.397012
0.379299
0.259719
0.0871276
-0.0114301
-0.0756975
0.137644
-0.0505165
0.223494
-0.0858498
0.353921
-0.130427
-0.137718
0.200068
-0.163783
0.30713
0.517884
0.811987
0.142657
-0.142952
0.173307
-0.173012
0.108742
-0.149044
0.18296
0.070005
-0.157099
0.195836
0.0284554
-0.157905
0.199455
-0.112111
0.140567
0.183893
-0.102954
-0.223891
0.139204
-0.104355
0.0888735
-0.106769
0.0369102
-0.105942
-0.0752009
0.191244
-0.0532028
-0.240995
0.140096
-0.0532067
0.0874644
-0.0541374
0.0357253
-0.0542028
-0.0394756
0.203101
-0.00115713
-0.255147
0.150364
-0.000469797
0.0960581
0.000168679
0.0406443
0.00121101
0.00116864
0.206321
-0.257816
0.15232
0.0959825
0.0397736
0.0445431
-0.328318
-0.0648603
0.018499
-0.359067
-0.00463653
-0.371362
-0.0149831
-0.356247
-0.227005
0.12624
-0.296417
-0.158142
0.0835644
-0.316391
0.0412415
-0.329039
0.0089435
-0.323949
-0.218061
0.145078
-0.255625
-0.18587
0.101878
-0.273192
0.0596041
-0.286765
0.0212868
-0.285632
-0.196774
0.163497
-0.219784
-0.199338
0.120279
-0.229974
0.0738278
-0.240313
0.0293381
-0.241142
-0.167436
0.160049
-0.206527
0.113035
0.0685575
0.0268698
0.392723
0.0943387
-0.0910826
0.392145
0.0985697
-0.0979913
0.358009
0.158502
-0.124366
0.302508
0.0509386
0.00456268
-0.213496
0.342991
0.400207
0.0901115
0.407415
0.0913619
0.396542
0.169375
0.350908
0.0965721
-0.0864783
0.405061
0.0810305
0.417052
0.0793702
0.410868
0.175559
0.375379
0.132061
0.0479059
0.408591
0.0684188
0.423253
0.064709
0.419346
0.179465
0.393827
0.15758
0.186586
0.409715
0.426552
0.418786
0.399345
0.416689
0.0933618
0.331764
0.0849251
0.244482
0.087282
0.25289
-0.00840802
-0.187918
0.440808
0.51233
0.499264
0.46218
0.458335
0.613408
0.35447
0.0863379
0.276909
0.0775611
0.185386
0.0915235
0.107795
0.0775911
0.0320971
0.49322
0.371443
0.277097
0.196546
)
;

boundaryField
{
    left
    {
        type            calculated;
        value           nonuniform List<scalar> 
17
(
-0.60402
-0.60402
-0.60402
-0.60402
-0.60402
-0.39598
-0.39598
-0.39598
-0.39598
-0.39598
-0.39598
-0.39598
-0.39598
-0.39598
-0.39598
-0.510051
-0.510051
)
;
    }
    right
    {
        type            calculated;
        value           nonuniform List<scalar> 
17
(
0.158826
0.251336
0.238549
0.327207
0.414608
0.470546
0.506959
0.510091
0.516838
0.510558
0.493344
0.466084
0.775038
0.799974
0.85786
0.650761
0.0514203
)
;
    }
    down
    {
        type            calculated;
        value           uniform 0;
    }
    up
    {
        type            calculated;
        value           uniform 0;
    }
    cylinder
    {
        type            calculated;
        value           uniform 0;
    }
    defaultFaces
    {
        type            empty;
    }
}


// ************************************************************************* //
