# Selection   : all
# Cells       : 440
# Volume      : 7.374263e+01
# Time        	max(p)
0.8           	1.820370e+00
0.85          	1.839418e+00
0.9           	1.860568e+00
