/*--------------------------------*- C++ -*----------------------------------*\
  =========                 |
  \\      /  F ield         | OpenFOAM: The Open Source CFD Toolbox
   \\    /   O peration     | Website:  https://openfoam.org
    \\  /    A nd           | Version:  13
     \\/     M anipulation  |
\*---------------------------------------------------------------------------*/
FoamFile
{
    format      ascii;
    class       surfaceScalarField;
    location    "0.765";
    object      phi;
}
// * * * * * * * * * * * * * * * * * * * * * * * * * * * * * * * * * * * * * //

dimensions      [0 3 -1 0 0 0 0];

internalField   nonuniform List<scalar> 
3485
(
0.00137166
-0.011258
0.00988633
0.00505114
-0.0319068
0.0282273
0.0107642
-0.0513829
0.0456699
0.0183125
-0.0696769
0.0621286
0.0275453
-0.0868351
0.0776023
0.0383483
-0.102901
0.0920981
0.0506329
-0.117906
0.105622
0.0643561
-0.131871
0.118148
0.0796153
-0.144861
0.129602
-0.156895
0.139504
0.0970064
0.00150033
-0.0127583
0.00544581
-0.0358522
0.0114761
-0.0574132
0.0193235
-0.0775243
0.0287727
-0.0962843
0.0396466
-0.113775
0.0518007
-0.13006
0.0651272
-0.145197
0.0795346
-0.159269
-0.172197
0.0948368
0.00147418
-0.0142325
0.00532698
-0.039705
0.0111745
-0.0632607
0.0187208
-0.0850706
0.0277252
-0.105289
0.0379883
-0.124038
0.0493442
-0.141416
0.0616532
-0.157506
0.0747833
-0.172399
-0.186037
0.088623
0.00133886
-0.0155714
0.00485902
-0.0432252
0.0102108
-0.0686125
0.017117
-0.0919768
0.0253538
-0.113526
0.0347401
-0.133424
0.0451299
-0.151806
0.0564033
-0.16878
0.0684535
-0.184449
-0.198791
0.0812071
0.00116693
-0.0167383
0.00425598
-0.0463143
0.00897313
-0.0733297
0.0150817
-0.0980853
0.0223916
-0.120835
0.0307523
-0.141785
0.0400459
-0.1611
0.0501799
-0.178914
0.0610765
-0.195346
-0.210402
0.0726881
0.000980023
-0.0177183
0.00358795
-0.0489222
0.0075866
-0.0773283
0.0127839
-0.103283
0.019026
-0.127078
0.0261924
-0.148951
0.0341912
-0.169099
0.0429531
-0.187676
0.052423
-0.204816
-0.220549
0.0625699
0.000780725
-0.018499
0.002865
-0.0510065
0.00606897
-0.0805323
0.0102428
-0.107456
0.0152665
-0.132101
0.0210466
-0.154732
0.0275141
-0.175566
0.0346203
-0.194782
0.042331
-0.212526
-0.228851
0.0506325
0.000569702
-0.0190687
0.00209346
-0.0525302
0.00443786
-0.0828767
0.00749266
-0.110511
0.0111686
-0.135777
0.0153968
-0.15896
0.0201274
-0.180297
0.0253294
-0.199984
0.0309864
-0.218183
-0.234967
0.0371029
0.000352506
-0.0194212
0.00129576
-0.0534735
0.00274501
-0.084326
0.00462832
-0.112395
0.00688645
-0.138035
0.00947306
-0.161546
0.0123552
-0.183179
0.0155142
-0.203143
0.0189447
-0.221614
-0.238684
0.0226615
0.000137794
-0.019559
0.000502459
-0.0538381
0.00105696
-0.0848805
0.00176953
-0.113107
0.00261371
-0.138879
0.00356839
-0.162501
0.00461809
-0.184229
0.00575329
-0.204278
0.00697056
-0.222831
0.00827496
-0.239988
0.000488466
-0.00186917
0.00138071
0.00208906
-0.00625525
0.00465465
0.00543089
-0.0114228
0.00808099
0.0101196
-0.0161969
0.0115082
0.0155448
-0.0201896
0.0147644
0.021443
-0.0235854
0.0176872
0.0279101
-0.0267664
0.0202993
0.0350944
-0.0299609
0.0227766
0.0429807
-0.0331212
0.0252348
-0.036095
0.0514353
0.0276404
0.00042699
-0.00229616
0.0021111
-0.00793936
0.00543882
-0.0147505
0.00981651
-0.0205746
0.0148891
-0.0252622
0.0207659
-0.0294622
0.0276198
-0.0336203
0.0353991
-0.0377402
0.0438923
-0.0416144
-0.0451372
0.0529345
0.000682784
-0.00297895
0.00271652
-0.0099731
0.00578038
-0.0178144
0.00976318
-0.0245574
0.0148175
-0.0303165
0.021116
-0.0357607
0.0285895
-0.0410938
0.0369584
-0.0461091
0.0460038
-0.0506598
-0.054768
0.0556346
0.00086846
-0.00384741
0.00306114
-0.0121658
0.00607938
-0.0208326
0.0102014
-0.0286794
0.0157001
-0.0358152
0.0225586
-0.0426193
0.0305348
-0.04907
0.0393919
-0.0549662
0.0490347
-0.0603026
-0.0651147
0.0593813
0.000923182
-0.00477059
0.00320081
-0.0144434
0.00651936
-0.0241512
0.0111176
-0.0332776
0.0171361
-0.0418337
0.0244497
-0.0499328
0.0328664
-0.0574868
0.0422889
-0.0643887
0.0526541
-0.0706678
-0.0762902
0.0638297
0.000943993
-0.00571458
0.00337291
-0.0168723
0.00709163
-0.0278699
0.0121748
-0.0383607
0.0186334
-0.0482923
0.0263562
-0.0576556
0.035246
-0.0663766
0.0452558
-0.0743985
0.056307
-0.0817191
-0.088225
0.0682419
0.000980039
-0.00669462
0.00358419
-0.0194765
0.00764145
-0.0319272
0.0131071
-0.0438264
0.0199257
-0.0551109
0.0280108
-0.0657407
0.0373003
-0.0756661
0.0477482
-0.0848463
0.0592814
-0.0932523
-0.100699
0.0717551
0.00101806
-0.00771268
0.00376786
-0.0222263
0.00807118
-0.0362305
0.0138198
-0.049575
0.0209192
-0.0622104
0.0292806
-0.0741021
0.0388343
-0.0852198
0.0495235
-0.0955356
0.0612899
-0.105019
-0.113442
0.0740331
0.00105466
-0.00876735
0.00393679
-0.0251084
0.00846102
-0.0407547
0.014482
-0.055596
0.0218736
-0.0696019
0.0305253
-0.0827538
0.0403419
-0.0950364
0.0512346
-0.106428
0.0631225
-0.116907
-0.12632
0.0760008
0.00111898
0.00423787
0.00915306
0.0156857
0.023686
0.0330304
0.0436156
0.0553349
0.0680305
0.0812143
0.11434
-0.414537
0.351632
0.168147
-0.471795
0.417988
0.210284
-0.42189
0.379752
0.244147
-0.326585
0.292723
0.270925
-0.214205
0.187426
0.291461
-0.109663
0.0891273
0.304729
-0.0303874
0.0171192
0.309559
0.0124717
-0.0173015
0.309812
0.0246756
-0.0249286
0.0197142
-0.0182883
0.115922
-0.477524
0.169709
-0.525582
0.211821
-0.464002
0.245429
-0.360194
0.272355
-0.241131
0.293672
-0.130979
0.309638
-0.0463535
0.318322
0.00378719
0.321629
0.0213688
0.0196055
0.11773
-0.53962
0.170535
-0.578387
0.212243
-0.50571
0.245241
-0.393192
0.272033
-0.267923
0.293648
-0.152594
0.311087
-0.0637928
0.323078
-0.00820332
0.330498
0.0139482
0.0167819
0.12011
-0.600349
0.170903
-0.629179
0.211728
-0.546535
0.24381
-0.425274
0.270203
-0.294316
0.291887
-0.174277
0.310031
-0.0819371
0.323585
-0.0217576
0.335016
0.00251699
0.00936406
0.123008
-0.659527
0.171015
-0.677186
0.210408
-0.585928
0.241325
-0.456191
0.267053
-0.320044
0.288688
-0.195912
0.307248
-0.100497
0.321581
-0.0360905
0.335238
-0.0111406
-0.00149547
0.125865
-0.71715
0.170899
-0.722221
0.208366
-0.623395
0.237924
-0.485749
0.26273
-0.34485
0.284217
-0.217399
0.303098
-0.119379
0.318203
-0.0511956
0.332589
-0.0255262
-0.0129986
0.127803
-0.773198
0.170372
-0.76479
0.205649
-0.658672
0.233726
-0.513826
0.257377
-0.3685
0.278559
-0.238581
0.297722
-0.138541
0.313951
-0.0674251
0.32736
-0.0389356
-0.0220633
0.127884
-0.827049
0.168949
-0.805855
0.202121
-0.691843
0.228699
-0.540405
0.251047
-0.390848
0.271714
-0.259248
0.29124
-0.158068
0.308008
-0.0841927
0.318887
-0.0498154
-0.0283185
0.125805
-0.876853
0.166224
-0.846275
0.197728
-0.723347
0.222929
-0.565606
0.243873
-0.411792
0.263636
-0.279011
0.283348
-0.17778
0.29822
-0.099064
0.305797
-0.0573931
-0.0343641
0.122122
-0.91776
0.161397
-0.88555
0.191599
-0.75355
0.215706
-0.589713
0.235342
-0.431427
0.254316
-0.297986
0.271554
-0.195018
0.283562
-0.111072
0.290677
-0.0645078
-0.0408669
0.58395
-0.920235
-0.581475
0.561182
-0.862781
0.523951
-0.716319
0.487883
-0.553645
0.460512
-0.404057
0.44421
-0.281684
0.433404
-0.184211
0.427751
-0.10542
0.424501
-0.0612577
-0.039323
0.682866
-0.871643
-0.731459
0.619682
-0.799597
0.553878
-0.650515
0.496329
-0.496095
0.450836
-0.358563
0.418947
-0.249796
0.399759
-0.165023
0.391118
-0.0967782
0.386209
-0.0563489
-0.0363988
0.753989
-0.775204
-0.850428
0.655095
-0.700702
0.563386
-0.558806
0.487309
-0.420018
0.429402
-0.300656
0.389239
-0.209633
0.364427
-0.140211
0.352266
-0.0846166
0.345748
-0.0498312
-0.0323532
0.778977
-0.641699
-0.912483
0.653715
-0.575441
0.546222
-0.451312
0.460936
-0.334732
0.39795
-0.237671
0.354207
-0.16589
0.326293
-0.112297
0.311527
-0.0698511
0.303551
-0.0418549
-0.0274183
0.75297
-0.49244
-0.902229
0.617543
-0.440014
0.506151
-0.339919
0.420046
-0.248627
0.357455
-0.17508
0.313904
-0.12234
0.285363
-0.0837552
0.269132
-0.0536198
0.260057
-0.0327804
-0.0218374
0.685099
-0.345838
-0.831701
0.552693
-0.307608
0.446438
-0.233664
0.365969
-0.168158
0.308242
-0.117353
0.268049
-0.082147
0.241151
-0.0568569
0.22493
-0.0373991
0.215425
-0.0232746
-0.0159594
0.582617
-0.213862
-0.714593
0.462887
-0.187877
0.369312
-0.140089
0.299933
-0.098779
0.250881
-0.0683007
0.216722
-0.0479888
0.19345
-0.0335846
0.17873
-0.0226786
0.169692
-0.0142373
-0.0102485
0.448758
-0.105524
-0.557096
0.351178
-0.0902966
0.277055
-0.0659671
0.223524
-0.0452479
0.186257
-0.0310334
0.16026
-0.021992
0.142247
-0.0155714
0.130391
-0.0108224
0.122844
-0.00669036
-0.00526031
0.286591
-0.0302208
-0.361894
0.22091
-0.0246155
0.172489
-0.0175466
0.138711
-0.0114698
0.115475
-0.00779697
0.0991151
-0.00563226
0.0875931
-0.00404944
0.0797358
-0.00296504
0.0747451
-0.0016997
-0.00162559
0.101316
-0.131536
0.0767
0.0591535
0.0476836
0.0398867
0.0342544
0.030205
0.0272399
0.0255402
0.738821
0.0102224
-0.740768
0.733075
0.0284074
0.723436
0.0467417
0.710163
0.0639056
0.69357
0.0791629
0.674076
0.0921818
0.652272
0.103011
0.628712
0.112183
0.604268
0.119281
0.119799
0.845548
0.0133982
-0.848724
0.837321
0.0366347
0.827288
0.0567752
0.816593
0.0746
0.80525
0.0905058
0.792896
0.104536
0.779282
0.116624
0.764587
0.126879
0.749122
0.134746
0.137462
0.844982
0.0114255
-0.84301
0.848882
0.032735
0.853019
0.0526381
0.856471
0.0711486
0.858832
0.0881444
0.859919
0.103449
0.859595
0.116949
0.857966
0.128507
0.855299
0.137413
0.142333
0.800213
0.00930453
-0.798092
0.805821
0.0271271
0.814418
0.0440406
0.825636
0.0599304
0.839001
0.0747796
0.85385
0.0886003
0.869419
0.101379
0.885053
0.112874
0.899938
0.122527
0.129789
0.737866
0.00703881
-0.7356
0.744154
0.0208385
0.754123
0.0340715
0.767504
0.0465502
0.784083
0.0582
0.803661
0.0690226
0.825989
0.0790513
0.850622
0.08824
0.876543
0.0966067
0.104103
0.653921
0.00485402
-0.651736
0.660203
0.0145561
0.670378
0.0238963
0.684221
0.0327074
0.701525
0.040896
0.722111
0.048436
0.745806
0.0553568
0.77233
0.0617161
0.801217
0.067719
0.0736193
0.549112
0.00291612
-0.547174
0.554812
0.00885593
0.564138
0.0145706
0.576905
0.01994
0.592915
0.0248867
0.611968
0.0293827
0.633871
0.033454
0.658407
0.0371802
0.685379
0.0407462
0.044406
0.422793
0.00137574
-0.421252
0.427413
0.00423596
0.435008
0.00697561
0.445422
0.00952586
0.45847
0.0118387
0.473957
0.0138957
0.491697
0.0157138
0.511527
0.0173497
0.533346
0.0189271
0.0206561
0.273828
0.000366664
-0.272819
0.276915
0.00114944
0.281999
0.00189174
0.288955
0.00256941
0.297629
0.00316446
0.307856
0.00366914
0.319482
0.00408804
0.332395
0.00443667
0.346561
0.0047604
0.00532321
0.100484
-0.100117
0.101633
0.103525
0.106094
0.109259
0.112928
0.117016
0.121453
0.126213
0.0779308
0.159503
-0.14249
-0.0949439
0.063027
0.14746
-0.132556
0.0496179
0.134405
-0.120996
0.037603
0.120332
-0.108317
0.0270262
0.10517
-0.0945936
0.0179777
0.0888942
-0.0798457
0.0105728
0.0714605
-0.0640556
0.00496326
0.0528094
-0.0471999
0.001348
0.0328743
-0.0292591
0.011639
-0.010291
0.0779404
0.174433
-0.0928703
0.0638709
0.161529
0.0508396
0.147437
0.038938
0.132233
0.028276
0.115832
0.0190002
0.09817
0.0112896
0.0791712
0.00535958
0.0587394
0.00147721
0.0367567
0.0131162
0.0731795
0.187928
-0.0866743
0.0603701
0.174339
0.0483504
0.159456
0.0372487
0.143335
0.0272032
0.125878
0.0183793
0.106994
0.0109766
0.0865738
0.00523535
0.0644807
0.00144963
0.0405424
0.0145658
0.0667711
0.200353
-0.0791961
0.0550332
0.186076
0.0440494
0.17044
0.0339218
0.153463
0.0247665
0.135033
0.016727
0.115033
0.00998166
0.0933192
0.00475146
0.0697109
0.00130965
0.0439842
0.0158755
0.0593126
0.211657
-0.0706164
0.0487154
0.196674
0.0388675
0.180288
0.0298412
0.162489
0.0217243
0.14315
0.0146296
0.122128
0.00870232
0.0992464
0.00412644
0.0742868
0.00113096
0.0469797
0.0170064
0.0505982
0.221521
-0.0604622
0.0414111
0.205861
0.0329275
0.188772
0.0251972
0.170219
0.0182837
0.150064
0.0122721
0.12814
0.00727495
0.104244
0.00343653
0.0781252
0.000937281
0.049479
0.0179437
0.0404573
0.229564
-0.0485003
0.0330127
0.213305
0.0261764
0.195608
0.0199773
0.176418
0.0144574
0.155584
0.00967744
0.13292
0.00572043
0.108201
0.00269376
0.0811518
0.000731837
0.0514409
0.0186756
0.0290542
0.235441
-0.0349318
0.0236512
0.218708
0.0187147
0.200544
0.0142551
0.180878
0.0102962
0.159542
0.00687751
0.136338
0.00405559
0.111022
0.00190426
0.0833032
0.000515281
0.0528299
0.0191908
0.0169175
0.238926
-0.0204019
0.0137418
0.221884
0.0108549
0.203431
0.0082548
0.183478
0.00595147
0.161846
0.00396648
0.138323
0.00233217
0.112657
0.00109066
0.0845447
0.00029324
0.0536273
0.0194841
0.00482783
-0.00589043
0.00388041
0.00303402
0.00228339
0.00162816
0.001072
0.000621614
0.000285826
7.49706e-05
0.0436644
0.0414062
-0.0525622
-0.0325085
0.0352864
0.0383571
-0.0299791
0.0276152
0.0349572
-0.027286
0.0208778
0.0313419
-0.0246045
0.0150768
0.0277741
-0.021973
0.00997064
0.0242155
-0.0191094
0.00544111
0.0200794
-0.0155499
0.0019753
0.0144674
-0.0110016
0.00038659
0.00739706
-0.00580834
0.0020884
-0.00170181
0.0437641
0.0505795
-0.0529374
0.0351103
0.0470109
0.0270669
0.0430006
0.0199167
0.0384922
0.0139766
0.0337142
0.00925409
0.0289381
0.00550436
0.0238291
0.00257581
0.0173959
0.000621666
0.0093512
0.00271007
0.0449435
0.0601384
-0.0545025
0.0360177
0.0559367
0.0277762
0.0512421
0.0203355
0.0459328
0.0140217
0.040028
0.00909962
0.0338601
0.00551553
0.0274132
0.00289238
0.0200191
0.000809555
0.011434
0.00351962
0.047369
0.0703265
-0.0575571
0.0379318
0.0653739
0.0293606
0.0598134
0.0216931
0.0536003
0.0150545
0.0466666
0.00970377
0.0392108
0.00576292
0.0313541
0.00295933
0.0228227
0.000875112
0.0135183
0.00439474
0.0508345
0.0812537
-0.0617617
0.0407299
0.0754784
0.0316119
0.0689314
0.0235428
0.0616694
0.0165457
0.0536637
0.0107472
0.0450093
0.00628268
0.0358186
0.00306185
0.0260435
0.000880475
0.0156996
0.00527521
0.0545316
0.0928514
-0.0661293
0.0438098
0.0862002
0.034127
0.0786142
0.0255581
0.0702383
0.0181249
0.061097
0.0118835
0.0512507
0.00692906
0.0407731
0.00327879
0.0296938
0.000908605
0.0180698
0.00618382
0.0575851
0.104934
-0.0696674
0.0464251
0.0973603
0.0363216
0.0887177
0.0273347
0.0792251
0.0195004
0.0689313
0.012869
0.0578821
0.00752023
0.0461219
0.00352535
0.0336887
0.000959659
0.0206355
0.00714347
0.0596416
0.117261
-0.071969
0.048264
0.108738
0.0379213
0.0990604
0.028659
0.0884875
0.0205285
0.0770617
0.0135991
0.0648115
0.00796175
0.0517592
0.00372188
0.0379285
0.00100533
0.023352
0.00814881
0.0614551
0.129715
-0.0739092
0.0499572
0.120236
0.0394079
0.10961
0.0298786
0.0980168
0.0214557
0.0854846
0.0142362
0.072031
0.0083346
0.0576609
0.0038846
0.0423785
0.00104191
0.0261947
0.00919072
0.066311
-0.0790858
0.0539911
0.0426045
0.0323044
0.0231954
0.0153807
0.008986
0.00416462
0.00110026
0.213845
0.0618416
-0.0776968
0.236533
0.0900978
-0.112786
0.261061
0.123595
-0.148123
0.276888
0.112801
-0.128627
0.276077
0.109726
-0.108915
0.253102
0.17877
-0.155796
0.218891
0.293664
-0.259453
0.174839
0.412514
-0.368462
0.118415
0.494622
-0.438198
0.461656
-0.395803
0.213202
0.0466297
0.234777
0.0685229
0.258391
0.0999804
0.274805
0.0963871
0.275608
0.108923
0.25348
0.200897
0.219109
0.328035
0.174604
0.45702
0.118089
0.551137
0.526807
0.212948
0.0316719
0.233665
0.0478052
0.256413
0.077233
0.272839
0.0799608
0.273963
0.1078
0.252293
0.222567
0.217884
0.362444
0.173311
0.501593
0.117884
0.606564
0.590189
0.213009
0.0166527
0.233202
0.0276118
0.255195
0.0552402
0.271204
0.0639522
0.271453
0.107551
0.249671
0.244349
0.215373
0.396742
0.171348
0.545618
0.118389
0.659522
0.651022
0.213276
0.00136632
0.233248
0.00764009
0.25454
0.0339483
0.269513
0.0489792
0.267978
0.109085
0.245679
0.266648
0.211768
0.430653
0.169129
0.588258
0.119737
0.708914
0.708997
0.213628
-0.0142716
0.233591
-0.012323
0.254134
0.0134048
0.267408
0.0357058
0.263426
0.113068
0.240419
0.289654
0.207324
0.463749
0.166929
0.628652
0.121465
0.754378
0.764333
0.213905
-0.0301864
0.234029
-0.0324477
0.253699
-0.00626455
0.264659
0.0247455
0.257768
0.119958
0.234098
0.313324
0.202317
0.49553
0.164734
0.666235
0.122681
0.796431
0.817346
0.213971
-0.0461674
0.23443
-0.0529065
0.253007
-0.0248422
0.261034
0.0167183
0.250925
0.130067
0.226836
0.337413
0.196799
0.525568
0.162116
0.700918
0.122362
0.836185
0.867739
0.213806
-0.0619832
0.234757
-0.0738584
0.251925
-0.0420101
0.256559
0.0120842
0.243153
0.143474
0.218997
0.361569
0.190884
0.553681
0.15865
0.733151
0.120113
0.874723
0.913942
0.213677
-0.0776702
0.234968
-0.0951497
0.250436
-0.0574784
0.250888
0.0116323
0.233918
0.160444
0.209945
0.385541
0.183645
0.579982
0.153463
0.763333
0.116436
0.91175
0.951293
0.331898
-0.107558
0.370517
-0.133769
0.406904
-0.0938652
0.424443
-0.0059064
0.438994
0.145893
0.46744
0.357096
0.506598
0.540823
0.549581
0.720351
0.581369
0.879961
0.946162
0.5865
0.333565
-0.139113
0.373063
-0.173267
0.408218
-0.129021
0.422336
-0.0200237
0.435717
0.132511
0.475994
0.316819
0.534305
0.482513
0.604473
0.650183
0.6754
0.809033
0.888578
0.732984
0.336282
-0.173385
0.375257
-0.212241
0.408544
-0.162308
0.417595
-0.0290741
0.427634
0.122472
0.47407
0.270383
0.546527
0.410056
0.638833
0.557877
0.742293
0.705573
0.784456
0.846415
0.340447
-0.211821
0.373282
-0.245077
0.384213
-0.173239
0.380854
-0.0257148
0.399131
0.104195
0.452975
0.216539
0.534174
0.328857
0.640543
0.451508
0.767095
0.579021
0.647052
0.904499
0.348485
-0.258296
0.356492
-0.253084
0.337479
-0.154227
0.334408
-0.0226434
0.358665
0.0799376
0.414072
0.161132
0.497276
0.245653
0.607896
0.340889
0.743747
0.443169
0.495857
0.894942
0.340783
-0.297069
0.321115
-0.233415
0.28787
-0.120982
0.284041
-0.0188145
0.308978
0.0550006
0.361119
0.108991
0.439767
0.167006
0.545766
0.234889
0.678771
0.310165
0.34798
0.826648
0.314271
-0.30933
0.271537
-0.190681
0.233609
-0.0830542
0.228673
-0.0138782
0.251086
0.0325871
0.296184
0.0638933
0.364622
0.0985679
0.458333
0.141178
0.5788
0.189697
0.215102
0.711679
0.273772
-0.281092
0.212868
-0.129777
0.17434
-0.0445263
0.168813
-0.00835126
0.186286
0.0151142
0.220981
0.0291984
0.274181
0.0453679
0.348687
0.0666719
0.447051
0.0913328
0.106138
0.556015
0.214645
-0.193727
0.14047
-0.0556022
0.109371
-0.0134267
0.104101
-0.00308179
0.115376
0.00383978
0.137284
0.00728977
0.1711
0.0115522
0.219972
0.0177997
0.28634
0.0249652
0.0304073
0.362071
0.108283
0.0526812
0.0392545
0.0361727
0.0400125
0.0473023
0.0588544
0.0766541
0.101619
0.132027
0.608656
-0.117099
0.63232
-0.116535
0.655138
-0.109492
0.676289
-0.100348
0.695233
-0.0895601
0.71137
-0.0765992
0.724263
-0.0613935
0.73359
-0.0442585
0.739075
-0.025887
-0.00758339
0.750318
-0.134434
0.765221
-0.131438
0.779424
-0.123695
0.792648
-0.113572
0.804711
-0.101624
0.815847
-0.0877348
0.826402
-0.0719488
0.836392
-0.0542479
0.844841
-0.0343359
-0.0114668
0.851037
-0.139055
0.85348
-0.133881
0.854994
-0.12521
0.855372
-0.113949
0.854524
-0.100775
0.852623
-0.0858343
0.849897
-0.0692225
0.84674
-0.0510908
0.843947
-0.031543
-0.0105297
0.892555
-0.127111
0.878538
-0.119864
0.863857
-0.110529
0.849293
-0.0993841
0.835447
-0.08693
0.82302
-0.0734071
0.812636
-0.0588384
0.804756
-0.043211
0.799745
-0.0265313
-0.00887699
0.870314
-0.102483
0.845551
-0.0951016
0.821946
-0.0869238
0.80049
-0.0779283
0.781655
-0.0680943
0.765714
-0.0574669
0.75289
-0.0460141
0.743403
-0.033724
0.737523
-0.0206516
-0.00695351
0.796999
-0.072834
0.768935
-0.0670371
0.743122
-0.0611118
0.720037
-0.0548429
0.699971
-0.0480286
0.683112
-0.0406073
0.669641
-0.0325436
0.659769
-0.0238514
0.653726
-0.0146084
-0.00496371
0.682984
-0.0441395
0.6565
-0.0405524
0.632401
-0.0370127
0.610878
-0.0333202
0.592145
-0.0292953
0.576395
-0.0248579
0.563828
-0.0199762
0.554646
-0.0146695
0.549043
-0.0090055
-0.0030947
0.53251
-0.0206337
0.510908
-0.0189507
0.491275
-0.0173795
0.473703
-0.0157488
0.45835
-0.0139422
0.445397
-0.0119046
0.435037
-0.00961613
0.427458
-0.00709079
0.422824
-0.00437149
-0.00152286
0.346788
-0.00535163
0.332647
-0.00480903
0.319752
-0.00448482
0.308137
-0.00413354
0.297908
-0.00371361
0.289215
-0.00321083
0.282218
-0.00261999
0.277075
-0.00194737
0.273913
-0.00120944
-0.000429215
0.126675
0.121866
0.117381
0.113248
0.109534
0.106323
0.103703
0.101756
0.100546
0.000185056
0.0116092
-0.0117943
0.000623736
0.0304464
-0.0308851
0.00123716
0.0462417
-0.0468551
0.00197732
0.0594675
-0.0602076
0.00277661
0.0700215
-0.0708208
0.00376953
0.079889
-0.080882
0.00396347
0.0772672
-0.0774612
0.00408485
0.0700424
-0.0701638
0.00394497
0.0610796
-0.0609398
0.049956
0.00350722
-0.0495183
0.000533396
0.0110758
0.00180387
0.029176
0.00358508
0.0444605
0.00574125
0.0573113
0.00807283
0.0676899
0.0110396
0.0769223
0.011676
0.0766309
0.0120809
0.0696375
0.0117737
0.0613869
0.0510784
0.0106513
0.000835499
0.0102403
0.00283183
0.0271796
0.00563912
0.0416532
0.00904157
0.0539089
0.0127395
0.063992
0.0172475
0.0724143
0.0187902
0.0750881
0.0195719
0.0688559
0.0193857
0.0615731
0.0524349
0.0180292
0.00105598
0.00918434
0.00359701
0.0246386
0.00719364
0.0380565
0.0115559
0.0495467
0.0163566
0.0591913
0.0217478
0.0670231
0.0250728
0.0717631
0.0263552
0.0675735
0.0266035
0.0613248
0.0535667
0.0254716
0.00115146
0.00803289
0.00397933
0.0218108
0.00804177
0.0339941
0.012997
0.0445914
0.0185518
0.0536365
0.0245578
0.0610172
0.0299524
0.0663685
0.0320903
0.0654356
0.0330117
0.0604034
0.0540915
0.0324869
0.00111149
0.0069214
0.00396602
0.0189562
0.00818566
0.0297745
0.0133904
0.0393867
0.0193182
0.0477087
0.0257723
0.0545631
0.0324163
0.0597245
0.0363129
0.0615389
0.0381248
0.0585916
0.0537075
0.0385088
0.000926239
0.00599516
0.00357299
0.0163095
0.00771073
0.0256367
0.0128818
0.0342156
0.0187868
0.0418037
0.0253385
0.0480115
0.0323214
0.0527416
0.0382757
0.0555846
0.0415879
0.0552794
0.0521833
0.043112
0.000567827
0.00542733
0.00278662
0.0140907
0.00665751
0.0217659
0.0116214
0.0292517
0.0172044
0.0362206
0.0234475
0.0417684
0.0302863
0.0459028
0.0371845
0.0486865
0.0425618
0.0499021
0.0489244
0.0458207
0.000103759
0.00532358
0.00176849
0.012426
0.0051756
0.0183587
0.00981476
0.0246126
0.0149568
0.0310786
0.0206211
0.0361041
0.0269035
0.0396204
0.0335873
0.0420027
0.0400854
0.043404
0.0437958
0.045214
-0.000175771
0.00549935
0.00108655
0.0111636
0.00385555
0.0155897
0.00788607
0.0205821
0.0125004
0.0264643
0.0175708
0.0310337
0.0231768
0.0340145
0.0292492
0.0359303
0.0356359
0.0370173
0.0373692
0.0420625
-2.15637e-05
0.00552091
0.00113929
0.0100028
0.00327668
0.0134524
0.00641191
0.0174468
0.0102932
0.022583
0.0148347
0.0264922
0.0199547
0.0288945
0.0254871
0.0303979
0.0312249
0.0312795
0.0316951
0.0368989
0.000376778
0.00514414
0.00153043
0.00884915
0.00317878
0.011804
0.0054891
0.0151365
0.00870806
0.019364
0.0128935
0.0223067
0.0177454
0.0240426
0.0230126
0.0251307
0.028504
0.025788
0.0260585
0.0341407
0.000623299
0.00452084
0.00170524
0.0077672
0.00302504
0.0104842
0.0048443
0.0133172
0.00783542
0.0163729
0.011925
0.0182171
0.0166768
0.0192908
0.0218512
0.0199563
0.0273158
0.0203234
0.020405
0.0329693
0.000676414
0.00384442
0.0016418
0.00680181
0.00282142
0.00930458
0.00470468
0.011434
0.00798059
0.013097
0.0122128
0.0139848
0.0170314
0.0144723
0.0222746
0.0147131
0.0278459
0.014752
0.0145912
0.0336597
0.000664354
0.00318007
0.00155544
0.00591072
0.0029996
0.00786042
0.005591
0.00884257
0.00938725
0.00930072
0.0139143
0.00945779
0.0189627
0.00942385
0.0244331
0.00924273
0.0302575
0.00892763
0.00848438
0.0363643
0.000594627
0.00258544
0.00172169
0.00478365
0.00407522
0.00550688
0.00754035
0.00537742
0.0118011
0.00503998
0.0166569
0.00460196
0.0220064
0.00407434
0.0277904
0.00345871
0.0339575
0.00276054
0.00199297
0.0404489
0.000527433
0.002058
0.0024981
0.00281297
0.00577367
0.0022313
0.00977885
0.00137224
0.0143767
0.00044216
0.0195216
-0.000542985
0.0251837
-0.00158775
0.03132
-0.00267765
0.0378697
-0.00378908
-0.00490988
0.0447725
0.00088292
0.00117507
0.00363383
6.20427e-05
0.00720034
-0.00133522
0.0113906
-0.00281806
0.0161918
-0.00435897
0.0216144
-0.00596565
0.0276169
-0.00759021
0.034108
-0.00916876
0.0410045
-0.0106856
-0.012171
0.0482655
0.00150697
-0.000331912
0.00413554
-0.00256653
0.00755874
-0.00475842
0.011777
-0.00703632
0.0167974
-0.00937944
0.0225407
-0.0117089
0.0288388
-0.0138884
0.0355708
-0.0159007
0.0427113
-0.0178261
-0.0197205
0.0502608
0.00104879
0.0031369
0.00645945
0.0109313
0.0163163
0.0222946
0.0287054
0.0355813
0.0429901
0.05091
0.0514164
0.0837276
-0.0982451
0.0773222
-0.00751782
-0.0183879
0.0999623
-0.0511965
0.0285564
0.113647
-0.0471138
0.0334294
0.121605
-0.0268157
0.0188574
0.125212
-0.00792944
0.00432292
0.126214
0.00352354
-0.00452573
0.12631
0.00745179
-0.00754849
0.126269
0.00755505
-0.00751364
0.00504507
-0.00574217
0.0586309
0.0592373
0.0917041
-0.0405911
0.118898
-0.0783905
0.13492
-0.0631357
0.143641
-0.0355372
0.14728
-0.0115683
0.148001
0.00280296
0.14774
0.00771247
0.147369
0.00792597
0.00468202
0.066661
0.0255456
0.105103
-0.079033
0.136135
-0.109422
0.155782
-0.0827832
0.165775
-0.0455303
0.169483
-0.015276
0.169814
0.00247183
0.169032
0.0084944
0.168161
0.00879713
0.00479992
0.0755603
-0.016355
0.117959
-0.121432
0.151887
-0.143351
0.175298
-0.106194
0.187342
-0.0575739
0.191384
-0.0193181
0.191362
0.0024939
0.190004
0.00985177
0.188549
0.0102527
0.00548425
0.0846329
-0.0646236
0.129803
-0.166602
0.165902
-0.17945
0.192626
-0.132918
0.207577
-0.0725247
0.212554
-0.0242954
0.212376
0.00267154
0.210486
0.0117425
0.208436
0.0123023
0.00676235
0.0931043
-0.117279
0.140301
-0.213799
0.178086
-0.217235
0.207375
-0.162207
0.225621
-0.0907705
0.232454
-0.0311283
0.232539
0.00258675
0.23028
0.014001
0.227715
0.0148676
0.00859756
0.10031
-0.172816
0.149175
-0.262664
0.188341
-0.2564
0.219467
-0.193333
0.240778
-0.112081
0.250442
-0.0407924
0.251485
0.00154324
0.249172
0.0163138
0.246265
0.0177747
0.0108863
0.1059
-0.230451
0.156299
-0.313063
0.196609
-0.29671
0.229007
-0.225731
0.252722
-0.135797
0.265786
-0.0538557
0.268771
-0.00144214
0.266909
0.0181761
0.263947
0.0207364
0.0134525
0.109856
-0.290046
0.161706
-0.364914
0.202917
-0.337921
0.236168
-0.258982
0.261505
-0.161133
0.277852
-0.0702027
0.283846
-0.00743624
0.28318
0.0188418
0.280591
0.0233256
0.0160385
0.112496
0.16557
0.207402
0.241142
0.267435
0.28636
0.296043
0.297583
0.29598
0.0132003
0.006078
-0.0192783
0.0109879
0.00221237
0.011506
-0.000518066
0.0129284
-0.0014225
0.0136412
-0.000712727
0.0137551
-0.000113937
0.0135282
0.00022688
0.0131693
0.000358923
0.0129088
0.000260536
0.00034864
0.037248
0.0232159
-0.0543859
0.0314905
0.00796988
0.0339989
-0.00302649
0.0380542
-0.00547775
0.0402213
-0.00287989
0.0406101
-0.000502772
0.0399632
0.00087383
0.0389708
0.00135135
0.0380565
0.00117478
0.00116779
0.0579642
0.0480977
-0.082846
0.0508777
0.0150563
0.0558845
-0.00803327
0.0624613
-0.0120545
0.0661206
-0.00653919
0.0668643
-0.00124649
0.0658641
0.00187407
0.0642898
0.00292559
0.0627263
0.00273826
0.00237682
0.0739033
0.0754045
-0.10121
0.0680735
0.0208861
0.0764366
-0.0163963
0.0857683
-0.0213862
0.0910764
-0.0118473
0.0923167
-0.00248676
0.0910667
0.0031241
0.0889737
0.00501854
0.0868321
0.00487986
0.00392352
0.0813955
-0.104236
0.0838935
0.0960535
0.108097
0.115107
0.116943
0.115541
0.113011
0.110377
0.00273368
-0.000172927
-0.00256075
0.00326455
-0.000530874
0.00417679
-0.000912237
0.00548786
-0.00131107
0.00718428
-0.00169642
0.00922886
-0.00204458
0.0115855
-0.0023566
0.0141738
-0.00258833
0.0168589
-0.00268513
-0.00241937
0.00778745
-0.000645701
-0.00731468
0.00923435
-0.00197777
0.0117137
-0.00339161
0.0152701
-0.00486747
0.0198844
-0.00631071
0.0254824
-0.00764259
0.0319648
-0.00883894
0.0391562
-0.00977977
0.0467676
-0.0102965
-0.0100378
0.0124781
-0.00138376
-0.01174
0.0147278
-0.00422748
0.0185607
-0.0072245
0.0240247
-0.0103314
0.0310793
-0.0133654
0.0395862
-0.0161495
0.0493282
-0.0185809
0.0600515
-0.0205032
0.0714157
-0.0216607
-0.0214681
0.0168075
-0.00234771
-0.0158435
0.0197317
-0.00715172
0.024675
-0.0121677
0.0316515
-0.017308
0.0405501
-0.022264
0.0511063
-0.0267057
0.0629376
-0.0304122
0.0756945
-0.0332601
0.0888611
-0.0348272
-0.0338172
0.020793
-0.0196335
0.0242926
0.0301541
0.0383178
0.0485407
0.0603438
0.0730436
0.0856042
0.095991
0.0314461
-0.0313057
0.0371107
-0.0372511
0.0255856
-0.0309027
0.0367632
0.0199271
-0.0300701
0.0357287
0.0146805
-0.0286741
0.0339206
0.0100605
-0.0264655
0.0310855
0.00620513
-0.0227783
0.0266337
0.00311411
-0.0176475
0.0207386
0.00101764
-0.013622
0.0157185
-8.66066e-05
-0.0101614
0.0112656
-0.00564198
0.00555538
0.0294634
-0.0254422
-0.0353269
0.0237474
-0.0251867
0.0182573
-0.0245799
0.013171
-0.0235878
0.00874173
-0.0220362
0.00535125
-0.0193878
0.00302031
-0.0153166
0.00139692
-0.0119986
0.000298416
-0.00906286
-0.00534356
0.0294354
-0.0194537
-0.0354238
0.0236311
-0.0193824
0.0181135
-0.0190624
0.0129999
-0.0184741
0.00849302
-0.0175293
0.00504398
-0.0159388
0.00300496
-0.0132776
0.00164514
-0.0106388
0.000582765
-0.00800048
-0.00476079
0.0313548
-0.0131906
-0.0376179
0.0253262
-0.0133538
0.0196156
-0.0133518
0.0143095
-0.0131679
0.00954649
-0.0127664
0.00565145
-0.0120437
0.00319713
-0.0108232
0.00176122
-0.00920285
0.000727056
-0.00696632
-0.00403373
0.034954
-0.00653551
-0.0416091
0.0285808
-0.00698054
0.0225615
-0.00733249
0.0169624
-0.00756877
0.0118739
-0.00767791
0.00748083
-0.00765061
0.00413493
-0.00747733
0.00199272
-0.00706063
0.000798372
-0.00577196
-0.00323535
0.0392713
0.000571893
-0.0463787
0.032489
-0.000198247
0.0261043
-0.000947816
0.0201918
-0.00165629
0.0148122
-0.00229824
0.0100284
-0.00286682
0.00592422
-0.00337315
0.00267397
-0.00381038
0.000720609
-0.00381859
-0.00251474
0.043106
0.00808871
-0.0506228
0.0359294
0.00697838
0.0291465
0.00583507
0.0228574
0.00463286
0.0171642
0.00339494
0.0121067
0.00219075
0.00766589
0.00106763
0.00384808
7.44079e-06
0.000979354
-0.000949846
-0.00153538
0.0453821
0.0158925
-0.0531859
0.0379546
0.0144059
0.0309007
0.012889
0.0242566
0.011277
0.0181654
0.00948609
0.0128135
0.00754272
0.00827958
0.00560151
0.0045392
0.00374782
0.00163122
0.00195814
9.5851e-05
0.0455341
0.0239945
-0.0536361
0.0379169
0.0220232
0.0307879
0.020018
0.0240598
0.018005
0.0177004
0.0158455
0.0119038
0.0133393
0.00704734
0.010458
0.00341732
0.00737785
0.00114745
0.00422802
0.0012433
0.0444754
-0.0529894
0.0365195
0.0292515
0.0226519
0.0165244
0.0107544