# Selection   : all
# Cells       : 440
# Volume      : 7.374263e+01
# Time        	maxMag(U)
9.72          	2.917559e+00
9.765         	2.951295e+00
9.815         	2.984836e+00
