/*--------------------------------*- C++ -*----------------------------------*\
  =========                 |
  \\      /  F ield         | OpenFOAM: The Open Source CFD Toolbox
   \\    /   O peration     | Website:  https://openfoam.org
    \\  /    A nd           | Version:  13
     \\/     M anipulation  |
\*---------------------------------------------------------------------------*/
FoamFile
{
    format      ascii;
    class       volScalarField;
    location    "4.55";
    object      p;
}
// * * * * * * * * * * * * * * * * * * * * * * * * * * * * * * * * * * * * * //

dimensions      [0 2 -2 0 0 0 0];

internalField   nonuniform List<scalar> 
1800
(
-0.782869
-0.783241
-0.782572
-0.780426
-0.777214
-0.774118
-0.772896
-0.777529
-0.788654
-0.84047
-0.797025
-0.795628
-0.79302
-0.788875
-0.78348
-0.777528
-0.772703
-0.77141
-0.77249
-0.812929
-0.820568
-0.816677
-0.812106
-0.806488
-0.800291
-0.79401
-0.788237
-0.784108
-0.782179
-0.798198
-0.852864
-0.84629
-0.839123
-0.831436
-0.823439
-0.815251
-0.806906
-0.79866
-0.79157
-0.788943
-0.898165
-0.888733
-0.879048
-0.868914
-0.857975
-0.845624
-0.831365
-0.815185
-0.797926
-0.780812
-0.958011
-0.945721
-0.933064
-0.919349
-0.902966
-0.882692
-0.858246
-0.830269
-0.799965
-0.76864
-1.03163
-1.01663
-1.00008
-0.980355
-0.954591
-0.921955
-0.883589
-0.841641
-0.798207
-0.755353
-1.11431
-1.09701
-1.07481
-1.04517
-1.00528
-0.956211
-0.901456
-0.844596
-0.788252
-0.734132
-1.19747
-1.17796
-1.14748
-1.10354
-1.04548
-0.977714
-0.906143
-0.83513
-0.767114
-0.703377
-1.26916
-1.24696
-1.2054
-1.14371
-1.06537
-0.978848
-0.891538
-0.807698
-0.729205
-0.656632
-1.07166
-1.07974
-1.09078
-1.10577
-1.12601
-1.15135
-1.1809
-1.21412
-1.25211
-1.29673
-0.98282
-0.989945
-0.998705
-1.00979
-1.02463
-1.04387
-1.06626
-1.09131
-1.11974
-1.15247
-0.922466
-0.927268
-0.93279
-0.939682
-0.949405
-0.961426
-0.975619
-0.991322
-1.00825
-1.02654
-0.88711
-0.888799
-0.890731
-0.893441
-0.897965
-0.904378
-0.912234
-0.920713
-0.9284
-0.933935
-0.8636
-0.86211
-0.861159
-0.860697
-0.861402
-0.863284
-0.86607
-0.869241
-0.871187
-0.868023
-0.84199
-0.839046
-0.836094
-0.833255
-0.830644
-0.828295
-0.826109
-0.823856
-0.820652
-0.812518
-0.820808
-0.817746
-0.814205
-0.80988
-0.80449
-0.797954
-0.790275
-0.781489
-0.771487
-0.758752
-0.800834
-0.799247
-0.79658
-0.792133
-0.785482
-0.776425
-0.764955
-0.751295
-0.736259
-0.720895
-0.785646
-0.785681
-0.784428
-0.780942
-0.774982
-0.766515
-0.755756
-0.743333
-0.730144
-0.716072
-0.776162
-0.777282
-0.776786
-0.774062
-0.769301
-0.762897
-0.755602
-0.748664
-0.742899
-0.73567
-1.55739
-1.75446
-1.32313
-1.01135
-0.924195
-0.623797
-0.360878
-0.132336
-0.0283963
0.0207232
-1.35518
-1.55555
-1.33429
-1.16577
-1.07858
-0.688347
-0.387079
-0.143321
-0.0328621
0.0179541
-1.15872
-1.35356
-1.31043
-1.30795
-1.20932
-0.75306
-0.412515
-0.155454
-0.0383225
0.0143282
-0.998146
-1.18136
-1.27632
-1.42845
-1.31075
-0.812977
-0.436767
-0.168514
-0.0448288
0.0100043
-0.880005
-1.05326
-1.25515
-1.52205
-1.38648
-0.864954
-0.459712
-0.1826
-0.0524607
0.0051246
-0.786819
-0.958432
-1.24525
-1.58227
-1.43784
-0.907296
-0.481647
-0.197941
-0.0613081
-0.000204478
-0.71036
-0.873551
-1.22478
-1.60395
-1.4643
-0.938667
-0.502684
-0.214879
-0.071471
-0.00592209
-0.649048
-0.787065
-1.18226
-1.58625
-1.46539
-0.957729
-0.52218
-0.233654
-0.0831599
-0.0119831
-0.620287
-0.694259
-1.11684
-1.53814
-1.44347
-0.964339
-0.539051
-0.25411
-0.0967468
-0.0184033
-0.634819
-0.612768
-1.03781
-1.46498
-1.40508
-0.961589
-0.553402
-0.275868
-0.112544
-0.0253489
-0.586814
-0.537362
-0.97603
-1.40047
-1.32319
-0.922004
-0.552913
-0.298079
-0.13306
-0.0347825
-0.552515
-0.552224
-0.910012
-1.23643
-1.14993
-0.836767
-0.54324
-0.325668
-0.159926
-0.0459445
-0.539405
-0.54211
-0.804204
-1.04131
-0.981024
-0.761842
-0.544203
-0.361241
-0.191165
-0.056894
-0.518588
-0.520709
-0.696493
-0.867623
-0.835347
-0.697947
-0.552185
-0.40476
-0.228197
-0.0692417
-0.48147
-0.484778
-0.60166
-0.720711
-0.710195
-0.643791
-0.566554
-0.450665
-0.263456
-0.0789993
-0.436855
-0.447064
-0.518266
-0.594822
-0.602517
-0.599053
-0.579869
-0.485702
-0.289236
-0.0845811
-0.392644
-0.409491
-0.445955
-0.489781
-0.513904
-0.560961
-0.584201
-0.505488
-0.304037
-0.0864451
-0.352124
-0.375224
-0.387131
-0.412553
-0.453775
-0.532553
-0.572938
-0.50125
-0.303509
-0.0850572
-0.321204
-0.356343
-0.361964
-0.374261
-0.426062
-0.516841
-0.557849
-0.487058
-0.295284
-0.0830298
-0.297886
-0.347043
-0.370234
-0.394902
-0.437684
-0.511127
-0.545338
-0.472643
-0.288051
-0.0821003
-0.531093
-0.589686
-0.635335
-0.673383
-0.706408
-0.743473
-0.778952
-0.812011
-0.80706
-0.832795
-0.386737
-0.453687
-0.508745
-0.557772
-0.597218
-0.632942
-0.656143
-0.675937
-0.681843
-0.704405
-0.27186
-0.341172
-0.399651
-0.451458
-0.491682
-0.526012
-0.549017
-0.569547
-0.583209
-0.599893
-0.177926
-0.246959
-0.306527
-0.358758
-0.400915
-0.43698
-0.465293
-0.490778
-0.511649
-0.53113
-0.101634
-0.169443
-0.229031
-0.28151
-0.325821
-0.364298
-0.396789
-0.425296
-0.449808
-0.471421
-0.0403867
-0.106875
-0.16609
-0.218611
-0.264075
-0.303638
-0.33766
-0.366984
-0.392241
-0.41393
0.00755035
-0.057751
-0.116436
-0.168461
-0.213914
-0.253101
-0.286775
-0.315348
-0.339983
-0.361136
0.042608
-0.0217166
-0.0798374
-0.130921
-0.1757
-0.213563
-0.246083
-0.272887
-0.296042
-0.315164
0.0635586
-0.000180298
-0.0579715
-0.108492
-0.152876
-0.189743
-0.221299
-0.245959
-0.266989
-0.282098
0.0724918
0.00833609
-0.0496091
-0.100621
-0.145093
-0.182296
-0.213544
-0.237434
-0.256797
-0.267597
0.822984
0.755672
0.67833
0.595229
0.505091
0.405665
0.29719
0.186118
0.0933169
0.0490398
0.628624
0.555832
0.474382
0.384917
0.285651
0.175103
0.0545572
-0.0678459
-0.168926
-0.215855
0.41611
0.340656
0.256837
0.163504
0.0586354
-0.0588383
-0.186995
-0.316443
-0.422494
-0.470112
0.212888
0.134311
0.0466782
-0.0513717
-0.161527
-0.284644
-0.418536
-0.552126
-0.659486
-0.70593
0.0298911
-0.0528375
-0.145202
-0.248343
-0.363582
-0.491302
-0.629886
-0.764373
-0.86833
-0.914091
-0.132344
-0.219171
-0.315694
-0.422798
-0.541724
-0.672535
-0.810653
-0.942448
-1.0421
-1.08583
-0.275364
-0.364725
-0.463202
-0.571798
-0.691467
-0.821482
-0.956315
-1.08182
-1.17398
-1.2141
-0.40172
-0.490156
-0.587256
-0.694013
-0.810876
-0.9362
-1.06343
-1.17803
-1.25941
-1.29484
-0.507471
-0.592629
-0.685883
-0.787894
-0.898403
-1.01477
-1.12955
-1.22887
-1.29724
-1.32766
-0.592331
-0.672091
-0.759061
-0.853335
-0.953849
-1.05702
-1.15499
-1.23596
-1.29054
-1.3164
2.08881
2.10648
2.12476
2.14247
2.15865
2.17254
2.18337
2.19093
2.19702
2.20261
2.0253
2.03984
2.05424
2.0674
2.07853
2.08688
2.09167
2.09301
2.09369
2.09601
1.94075
1.95118
1.96045
1.96765
1.97221
1.9734
1.97046
1.96382
1.95752
1.95578
1.83719
1.84294
1.84603
1.84591
1.84236
1.83464
1.82204
1.80544
1.79042
1.78394
1.71467
1.71471
1.71067
1.70237
1.68982
1.67226
1.64902
1.62139
1.5966
1.585
1.57698
1.57116
1.5591
1.54129
1.51822
1.48919
1.45367
1.41355
1.3779
1.36054
1.4243
1.41207
1.39192
1.36466
1.33094
1.29003
1.24152
1.18807
1.14091
1.11758
1.26516
1.24556
1.21533
1.17653
1.13043
1.07636
1.01402
0.94676
0.887995
0.858744
1.10439
1.07733
1.0366
0.985537
0.925996
0.85738
0.779711
0.697407
0.626482
0.591473
0.955439
0.911447
0.854056
0.787979
0.714145
0.631041
0.538545
0.441958
0.359808
0.319754
1.78368
1.77035
1.76085
1.75347
1.7538
1.75918
1.77986
1.82069
1.89228
2.00816
1.77787
1.76541
1.75699
1.74857
1.74897
1.75211
1.77142
1.80739
1.87038
1.96991
1.77265
1.76053
1.75294
1.74323
1.74358
1.74385
1.76152
1.79091
1.84284
1.91996
1.76794
1.75577
1.74872
1.73747
1.7376
1.73441
1.75021
1.77107
1.81018
1.85779
1.7637
1.75118
1.74431
1.73136
1.73101
1.72381
1.73749
1.74772
1.77304
1.78247
1.75991
1.74679
1.73972
1.72493
1.72376
1.71214
1.72327
1.72085
1.73163
1.69328
1.75656
1.74262
1.73493
1.71822
1.71582
1.69944
1.70744
1.69047
1.68611
1.5888
1.75365
1.7387
1.72995
1.71126
1.70716
1.68582
1.68984
1.65678
1.63623
1.47049
1.75122
1.73502
1.72478
1.70408
1.69781
1.67141
1.67035
1.62
1.58034
1.33643
1.7493
1.7316
1.71952
1.69669
1.68796
1.65637
1.64997
1.58181
1.5216
1.1981
1.74743
1.72792
1.71242
1.68749
1.67393
1.63629
1.61972
1.53284
1.44995
1.06426
1.74674
1.72474
1.70441
1.67742
1.6573
1.61484
1.58493
1.48976
1.37857
1.04087
1.74786
1.72278
1.6963
1.66793
1.64025
1.5953
1.55159
1.45468
1.32044
1.02874
1.75141
1.72202
1.68831
1.65916
1.62337
1.57792
1.52038
1.4263
1.27273
1.02216
1.75823
1.72225
1.68038
1.65107
1.60614
1.56285
1.49137
1.40401
1.23559
1.01864
1.76889
1.72359
1.67272
1.64385
1.58924
1.55014
1.46503
1.38684
1.2081
1.01527
1.78324
1.72312
1.66433
1.6342
1.572
1.53855
1.44193
1.37325
1.1886
1.01263
1.80844
1.72704
1.6591
1.62725
1.55701
1.52825
1.42271
1.3634
1.17572
1.01201
1.82128
1.719
1.64762
1.61571
1.54426
1.52065
1.41024
1.35857
1.16963
1.01466
1.89808
1.73208
1.65097
1.61331
1.53879
1.51731
1.40447
1.35835
1.167
1.01949
0.808215
0.649702
0.461573
0.281099
0.119443
-0.0244617
-0.153334
-0.268884
-0.370719
-0.458648
0.760415
0.635703
0.493373
0.350477
0.217738
0.0956215
-0.0168983
-0.122965
-0.220828
-0.310022
0.745678
0.640085
0.526094
0.408789
0.294836
0.185581
0.0818044
-0.0172764
-0.109303
-0.195247
0.757231
0.659417
0.557642
0.455633
0.355089
0.256521
0.160831
0.0682915
-0.0193858
-0.102277
0.773571
0.681874
0.588092
0.495778
0.404875
0.314516
0.225113
0.137234
0.0527814
-0.0275586
0.790638
0.704577
0.616952
0.531089
0.446518
0.361642
0.276576
0.191979
0.110116
0.0320041
0.807026
0.726123
0.643477
0.56199
0.481184
0.399551
0.317174
0.234927
0.154962
0.0786505
0.822126
0.745713
0.667164
0.588481
0.509324
0.428925
0.347646
0.26672
0.187987
0.112955
0.836029
0.763039
0.687488
0.609925
0.530429
0.449353
0.367695
0.286848
0.208214
0.133444
0.847565
0.775958
0.700878
0.622228
0.541152
0.458893
0.376706
0.295713
0.217207
0.142444
-1.93215
-1.88645
-1.78799
-1.6648
-1.54074
-1.4282
-1.33153
-1.25175
-1.18905
-1.14393
-2.01064
-1.97113
-1.88865
-1.78203
-1.67104
-1.5682
-1.47874
-1.40436
-1.34605
-1.30527
-2.01589
-1.98182
-1.91693
-1.83084
-1.7371
-1.6471
-1.56676
-1.49843
-1.44369
-1.40425
-1.96234
-1.9327
-1.88427
-1.8199
-1.74621
-1.67193
-1.60307
-1.54269
-1.49293
-1.45579
-1.87176
-1.84606
-1.81094
-1.766
-1.71236
-1.65505
-1.59898
-1.54733
-1.50227
-1.46506
-1.76735
-1.74555
-1.72007
-1.68968
-1.6528
-1.61104
-1.56752
-1.52469
-1.48518
-1.45086
-1.66762
-1.64997
-1.63123
-1.61039
-1.5856
-1.55671
-1.52491
-1.49212
-1.45973
-1.42983
-1.58278
-1.56957
-1.5558
-1.54088
-1.52371
-1.50355
-1.48046
-1.45452
-1.42838
-1.40212
-1.51602
-1.50688
-1.49708
-1.48616
-1.47383
-1.45963
-1.44331
-1.42496
-1.40449
-1.39077
-1.46555
-1.45977
-1.45304
-1.44492
-1.43569
-1.42538
-1.41363
-1.40093
-1.38337
-1.37446
-1.42874
-1.42543
-1.42065
-1.41427
-1.40695
-1.39926
-1.39148
-1.38375
-1.37338
-1.3457
-1.40463
-1.40246
-1.39848
-1.39275
-1.38625
-1.37975
-1.37364
-1.36782
-1.36058
-1.32827
-1.39256
-1.39002
-1.38553
-1.37914
-1.37178
-1.3644
-1.35777
-1.35167
-1.34385
-1.3249
-1.39215
-1.3881
-1.38273
-1.37625
-1.36943
-1.36322
-1.3584
-1.35546
-1.35481
-1.3591
-1.39792
-1.39247
-1.38717
-1.383
-1.38057
-1.38061
-1.38375
-1.39058
-1.40209
-1.42142
-1.40115
-1.39565
-1.39239
-1.39327
-1.39859
-1.40847
-1.42294
-1.44198
-1.46578
-1.49516
-1.38971
-1.38635
-1.38709
-1.39446
-1.40832
-1.42815
-1.45338
-1.48349
-1.51791
-1.55621
-1.35022
-1.35061
-1.35582
-1.36863
-1.38866
-1.41515
-1.44725
-1.48414
-1.52496
-1.56963
-1.27735
-1.28166
-1.29029
-1.30641
-1.32956
-1.35906
-1.39393
-1.43311
-1.47598
-1.52395
-1.17746
-1.18452
-1.19563
-1.21238
-1.23555
-1.26469
-1.2988
-1.33705
-1.37999
-1.42993
-1.29049
-1.48854
-1.07823
-0.894871
-0.728942
-0.451873
-0.256109
-0.119828
-0.0370029
0.000889439
-1.36499
-1.61264
-1.1161
-0.837565
-0.657545
-0.418798
-0.250226
-0.118669
-0.0360315
0.00203596
-1.45082
-1.70419
-1.14115
-0.758077
-0.588207
-0.388016
-0.243915
-0.115029
-0.0327468
0.00485989
-1.54907
-1.76921
-1.15669
-0.670688
-0.518234
-0.364959
-0.239827
-0.11055
-0.0283691
0.00892074
-1.65908
-1.84464
-1.16823
-0.597502
-0.474568
-0.357833
-0.241671
-0.107289
-0.0244623
0.0133359
-1.76744
-1.93524
-1.17731
-0.559209
-0.462034
-0.369867
-0.250404
-0.106069
-0.0218712
0.0173132
-1.84977
-2.0086
-1.18574
-0.568328
-0.485842
-0.402585
-0.265298
-0.107059
-0.0207636
0.0203919
-1.87697
-2.03488
-1.20203
-0.628178
-0.54646
-0.450855
-0.285127
-0.110215
-0.0210002
0.0223442
-1.83675
-2.00537
-1.23418
-0.73139
-0.640161
-0.50556
-0.308782
-0.115514
-0.0224181
0.0230443
-1.72703
-1.91029
-1.28246
-0.862213
-0.769048
-0.563164
-0.334477
-0.122941
-0.0249061
0.0224721
-1.11458
-1.03936
-0.881986
-0.890673
-0.746035
-0.445311
-0.228017
-0.0966181
-0.0262515
0.00331533
-1.10428
-1.02188
-0.871045
-0.893856
-0.757101
-0.453469
-0.231526
-0.0984324
-0.0269765
0.00318763
-1.11477
-1.05725
-0.883246
-0.904059
-0.767488
-0.4638
-0.237985
-0.102395
-0.0286826
0.00282119
-1.15239
-1.1543
-0.926851
-0.925629
-0.788142
-0.471693
-0.246477
-0.108502
-0.031451
0.00208806
-1.22081
-1.3292
-1.00198
-0.915723
-0.762263
-0.470499
-0.255183
-0.11611
-0.035056
0.00112372
-1.09919
-1.25272
-1.35097
-1.41091
-1.4162
-1.40988
-1.37674
-1.3347
-1.28558
-1.23329
-1.0998
-1.25572
-1.35192
-1.40974
-1.40921
-1.40192
-1.36822
-1.32103
-1.27966
-1.22201
-1.10269
-1.26021
-1.35525
-1.41092
-1.40827
-1.40066
-1.36756
-1.32445
-1.2896
-1.24241
-1.10978
-1.26941
-1.36501
-1.41826
-1.41822
-1.40795
-1.37899
-1.34537
-1.31908
-1.29741
-1.12204
-1.28442
-1.38164
-1.43296
-1.43761
-1.42386
-1.40167
-1.37506
-1.35851
-1.35869
1.56181
1.54795
1.52597
1.49944
1.46941
1.43466
1.39421
1.34994
1.31121
1.29202
1.68229
1.68266
1.67538
1.66264
1.64582
1.62436
1.59753
1.56681
1.53968
1.52676
1.80121
1.808
1.80918
1.80619
1.80003
1.79016
1.7758
1.75776
1.74156
1.73433
1.9078
1.91985
1.92847
1.93418
1.93732
1.93728
1.93321
1.92551
1.91826
1.91594
1.99963
2.01567
2.02953
2.04132
2.05113
2.05834
2.06211
2.06255
2.06249
2.0643
2.0707
2.08937
2.10731
2.12412
2.13946
2.15269
2.16295
2.17001
2.17565
2.18092
2.12046
2.14096
2.16162
2.18174
2.20069
2.21777
2.23217
2.24347
2.25284
2.26046
2.14702
2.16828
2.19036
2.21229
2.23322
2.25243
2.26909
2.28269
2.29406
2.30293
2.15041
2.1715
2.19368
2.21581
2.23693
2.25629
2.27309
2.28681
2.29829
2.30724
2.13085
2.15075
2.17167
2.19239
2.21191
2.22949
2.24433
2.25604
2.26573
2.27357
-0.922111
-0.973545
-1.04096
-1.12507
-1.22685
-1.3459
-1.47891
-1.61398
-1.72473
-1.7762
-0.646686
-0.70471
-0.777371
-0.865513
-0.97052
-1.09281
-1.23107
-1.37408
-1.49332
-1.54864
-0.33437
-0.398914
-0.476761
-0.568371
-0.675226
-0.798279
-0.936222
-1.07957
-1.20604
-1.26305
-0.00943998
-0.0789379
-0.160198
-0.253342
-0.359722
-0.480432
-0.614492
-0.754627
-0.876959
-0.936816
0.303538
0.232238
0.151011
0.0599256
-0.0422822
-0.156936
-0.283556
-0.415634
-0.529847
-0.587863
0.586541
0.518241
0.441801
0.357283
0.263408
0.158696
0.0433628
-0.0767817
-0.180331
-0.233706
0.835424
0.774661
0.707253
0.633092
0.550805
0.458841
0.357279
0.251324
0.160149
0.113027
1.05899
1.00764
0.950816
0.888353
0.818712
0.740306
0.653173
0.561955
0.48357
0.443268
1.26703
1.22428
1.17604
1.12348
1.06523
0.999616
0.926534
0.849911
0.784232
0.750835
1.44811
1.41388
1.37285
1.32931
1.28257
1.23068
1.17289
1.11199
1.05967
1.03336
1.89475
1.80455
1.78117
1.77023
1.76379
1.76686
1.77071
1.78894
1.77273
1.7025
1.87754
1.80396
1.78157
1.77199
1.76639
1.77143
1.77905
1.80348
1.80844
1.78408
1.86205
1.80238
1.78115
1.77281
1.76807
1.7747
1.78631
1.8183
1.8433
1.86333
1.84815
1.79998
1.78008
1.77274
1.76889
1.77675
1.79182
1.82957
1.87212
1.92803
1.83568
1.7969
1.77847
1.77189
1.76895
1.77768
1.79545
1.8377
1.89454
1.97962
1.82448
1.79328
1.77641
1.77032
1.76825
1.77747
1.79723
1.84261
1.91034
2.01716
1.81443
1.78921
1.77393
1.76808
1.76679
1.7761
1.7972
1.8443
1.91944
2.04097
1.80543
1.78479
1.7711
1.76523
1.76459
1.77357
1.79542
1.84283
1.92194
2.05157
1.79737
1.78012
1.76794
1.76182
1.76166
1.76991
1.79192
1.83835
1.9181
2.04946
1.79015
1.77528
1.76451
1.75789
1.75805
1.76511
1.78672
1.83097
1.90819
2.03483
2.06096
1.80617
1.77243
1.7564
1.75072
1.74806
1.73746
1.7347
1.65507
1.60293
1.98655
1.80029
1.77346
1.75945
1.7527
1.7495
1.73835
1.73612
1.65764
1.59763
1.96366
1.80546
1.77719
1.76251
1.75492
1.75193
1.74146
1.74042
1.669
1.59371
1.93716
1.8054
1.77909
1.76531
1.75752
1.75559
1.74834
1.75051
1.69143
1.60153
1.91422
1.80486
1.7803
1.76784
1.76047
1.76052
1.75717
1.76619
1.72483
1.62359
1.32823
1.20515
1.04039
0.828177
0.571532
0.279722
-0.0329165
-0.346409
-0.639305
-0.892986
1.32202
1.20299
1.04445
0.838224
0.587905
0.300472
-0.0115821
-0.328555
-0.627929
-0.888743
1.33185
1.20991
1.04988
0.846382
0.601096
0.317014
0.00463653
-0.315943
-0.620893
-0.887529
1.36464
1.22882
1.05796
0.853141
0.611054
0.329058
0.0156739
-0.308508
-0.618453
-0.8904
1.42295
1.26314
1.07132
0.858597
0.61607
0.335344
0.0218579
-0.304942
-0.619796
-0.897747
)
;

boundaryField
{
    left
    {
        type            zeroGradient;
    }
    right
    {
        type            fixedValue;
        value           uniform 0;
    }
    down
    {
        type            zeroGradient;
    }
    up
    {
        type            zeroGradient;
    }
    cylinder
    {
        type            zeroGradient;
    }
    defaultFaces
    {
        type            empty;
    }
}


// ************************************************************************* //
