/*--------------------------------*- C++ -*----------------------------------*\
  =========                 |
  \\      /  F ield         | OpenFOAM: The Open Source CFD Toolbox
   \\    /   O peration     | Website:  https://openfoam.org
    \\  /    A nd           | Version:  13
     \\/     M anipulation  |
\*---------------------------------------------------------------------------*/
FoamFile
{
    format      ascii;
    class       volVectorField;
    location    "4.55";
    object      U;
}
// * * * * * * * * * * * * * * * * * * * * * * * * * * * * * * * * * * * * * //

dimensions      [0 1 -1 0 0 0 0];

internalField   nonuniform List<vector> 
1800
(
(-0.0271398 0.0229271 7.46275e-21)
(-0.0667832 0.0458089 3.06249e-21)
(-0.089136 0.0572759 -7.13619e-21)
(-0.0921945 0.0637871 1.50864e-20)
(-0.072359 0.0704709 4.36696e-20)
(-0.0262402 0.0802942 1.53781e-20)
(0.0492059 0.0956887 1.6209e-21)
(0.152879 0.117623 9.85107e-20)
(0.294564 0.168445 1.74591e-19)
(0.366526 0.204576 1.66988e-19)
(-0.0359162 0.0270404 5.17897e-21)
(-0.0731853 0.0516212 -2.28666e-20)
(-0.075572 0.059199 2.16865e-22)
(-0.0420229 0.0562338 -2.72578e-20)
(0.0304018 0.048211 8.39572e-21)
(0.144302 0.03872 6.93079e-20)
(0.300477 0.0301599 -2.90499e-20)
(0.493316 0.0204774 8.94183e-22)
(0.733855 0.0389047 -2.41759e-19)
(0.86093 0.0527697 1.95519e-19)
(-0.039244 0.0258617 3.34261e-21)
(-0.0627899 0.0457669 1.23526e-20)
(-0.0318342 0.04863 9.09845e-21)
(0.0536026 0.0403265 -1.16192e-20)
(0.19451 0.0267104 -8.99696e-20)
(0.388436 0.0120289 1.81525e-20)
(0.6274 -0.000463501 2.98582e-20)
(0.896828 -0.0105659 -9.13427e-21)
(1.18996 -0.00859598 4.81485e-22)
(1.42139 -0.0175252 4.98811e-21)
(-0.0360851 0.0202897 -6.15426e-21)
(-0.0300062 0.0287829 -2.00365e-20)
(0.0540707 0.0233598 -2.14258e-20)
(0.213736 0.00998428 1.55937e-20)
(0.443174 -0.00503626 1.95327e-20)
(0.727503 -0.0170265 5.93726e-21)
(1.04313 -0.0234816 -1.87981e-21)
(1.36336 -0.0235659 4.46862e-20)
(1.66582 -0.0191442 2.67229e-20)
(1.91597 -0.0161335 -1.12831e-20)
(-0.0247458 0.0123919 4.47428e-20)
(0.0321336 0.0078895 4.41693e-20)
(0.193135 -0.00407075 -2.77816e-20)
(0.44723 -0.0168937 -3.39337e-20)
(0.771541 -0.0244971 -9.86164e-20)
(1.12996 -0.0242144 1.46192e-21)
(1.48265 -0.0168061 1.13945e-19)
(1.79717 -0.00493913 5.38427e-20)
(2.05231 0.00755459 3.9185e-22)
(2.24793 0.0132332 -5.22821e-20)
(-0.000871253 0.00260101 -4.59447e-20)
(0.132747 -0.0126798 3.04352e-21)
(0.392987 -0.0247148 1.64713e-19)
(0.748824 -0.027505 -4.74308e-20)
(1.14931 -0.0188965 -1.06446e-19)
(1.53748 -0.00167989 2.10504e-19)
(1.86957 0.0188748 -2.2488e-19)
(2.12353 0.037793 -3.19545e-19)
(2.29887 0.0513961 2.7191e-19)
(2.40657 0.0586379 4.16267e-21)
(0.039302 -0.00731701 5.93318e-20)
(0.275705 -0.0264887 -1.29105e-19)
(0.646488 -0.0281649 -4.0052e-19)
(1.08775 -0.0111663 1.8275e-19)
(1.52019 0.0177251 4.00351e-19)
(1.88283 0.0491617 -1.58113e-21)
(2.1491 0.0759324 -8.9162e-19)
(2.32226 0.094494 4.73856e-21)
(2.42176 0.105418 1.13059e-18)
(2.47206 0.10693 3.15296e-19)
(0.0974244 -0.0140868 5.26357e-20)
(0.456179 -0.0252639 2.96187e-19)
(0.930201 -0.00512618 3.19349e-19)
(1.41891 0.0366018 -1.01034e-19)
(1.8335 0.0823004 -3.80635e-19)
(2.13393 0.119994 -1.46993e-19)
(2.32383 0.145353 0)
(2.42906 0.159265 4.92347e-19)
(2.47926 0.164479 -1.0269e-20)
(2.49723 0.163006 -4.82436e-19)
(0.171757 -0.0137465 5.13193e-20)
(0.659552 -0.00161585 3.07932e-19)
(1.21097 0.0490901 5.5054e-19)
(1.70368 0.113673 -5.62724e-19)
(2.06767 0.16845 -4.96372e-19)
(2.29739 0.205142 2.09434e-19)
(2.42235 0.225056 -1.01921e-18)
(2.47927 0.232782 -7.79704e-19)
(2.4973 0.233059 9.69362e-19)
(2.49389 0.227056 8.47117e-19)
(0.25724 -0.00266334 -4.40731e-20)
(0.865242 0.0483743 2.39325e-19)
(1.45942 0.13304 1.50138e-19)
(1.924 0.214133 -1.19519e-18)
(2.22602 0.27044 4.46904e-20)
(2.39206 0.301235 2.49326e-18)
(2.46732 0.313204 -1.46538e-18)
(2.49135 0.31367 -8.6852e-19)
(2.48982 0.30772 3.09646e-19)
(2.47521 0.297228 -7.08785e-19)
(-0.000404348 -0.130987 -2.36164e-19)
(-0.0381189 -0.230127 -1.60854e-20)
(-0.0958596 -0.258438 1.68571e-21)
(-0.1605 -0.264984 2.74235e-20)
(-0.223418 -0.268531 5.11873e-21)
(-0.282157 -0.271945 2.26661e-19)
(-0.335934 -0.273165 -4.36053e-21)
(-0.384599 -0.270096 -2.40355e-19)
(-0.43022 -0.261675 -2.01742e-20)
(-0.477483 -0.247634 5.6652e-20)
(0.00175696 -0.073266 -2.82225e-20)
(-0.0399974 -0.111806 -6.93465e-20)
(-0.102258 -0.113671 8.19592e-20)
(-0.171872 -0.112275 3.83763e-20)
(-0.24043 -0.116647 1.24131e-19)
(-0.305648 -0.124811 1.93228e-19)
(-0.366757 -0.132719 -1.88155e-19)
(-0.423509 -0.137594 -1.58533e-19)
(-0.477327 -0.138061 3.06945e-19)
(-0.531176 -0.133159 -7.44682e-20)
(-0.00145896 -0.019001 2.08436e-20)
(-0.0408274 -0.00182303 -9.02609e-20)
(-0.0962552 0.0245821 -3.21313e-20)
(-0.15806 0.0397727 -1.13621e-19)
(-0.219728 0.0410418 -3.00788e-20)
(-0.279216 0.0334603 2.76333e-19)
(-0.335803 0.0227189 1.39362e-20)
(-0.38899 0.012493 -2.27089e-19)
(-0.438873 0.00480589 2.18725e-19)
(-0.486464 0.00151765 1.18415e-19)
(-0.00664684 0.014227 3.01496e-20)
(-0.0398958 0.0703205 4.6745e-21)
(-0.0810448 0.124647 -1.03951e-20)
(-0.125716 0.161245 5.03424e-20)
(-0.170618 0.177432 -6.11385e-20)
(-0.214455 0.178182 -7.20285e-20)
(-0.256481 0.170299 -2.55931e-20)
(-0.295928 0.158922 7.16465e-21)
(-0.331345 0.147219 -2.03722e-20)
(-0.360443 0.138063 2.87326e-21)
(-0.00836245 0.022469 0)
(-0.033537 0.0927962 -1.60394e-20)
(-0.0602099 0.166201 4.27509e-20)
(-0.0865854 0.226243 9.18072e-22)
(-0.111665 0.265525 4.94898e-20)
(-0.135277 0.284403 -4.72035e-21)
(-0.157125 0.287526 -7.80113e-21)
(-0.176954 0.280273 5.07682e-20)
(-0.193648 0.26717 0)
(-0.199717 0.253899 1.70624e-21)
(-0.00576154 0.0148167 -1.30027e-20)
(-0.023302 0.0755022 2.48379e-20)
(-0.0400698 0.149936 3.69926e-20)
(-0.0540616 0.222012 -4.69501e-20)
(-0.064556 0.28083 3.92666e-20)
(-0.07155 0.321609 -2.71625e-20)
(-0.0752377 0.34422 3.78861e-20)
(-0.0758348 0.350967 -2.31353e-20)
(-0.0732757 0.344728 -1.31652e-19)
(-0.0587227 0.331682 -1.4647e-22)
(-0.000991695 0.00327747 2.89407e-21)
(-0.0130211 0.0427126 5.03825e-20)
(-0.0262024 0.102163 -3.92054e-20)
(-0.036836 0.168207 -6.98348e-21)
(-0.0429627 0.230155 -8.48727e-21)
(-0.0438122 0.280969 -6.29172e-20)
(-0.0393283 0.317146 -5.31463e-20)
(-0.0296986 0.337725 -1.13595e-19)
(-0.0150962 0.342485 1.02109e-19)
(0.010704 0.332309 1.83153e-19)
(0.00181888 -0.00288524 1.21573e-20)
(-0.00950903 0.0177968 -2.17253e-20)
(-0.0255602 0.0567998 -4.3684e-20)
(-0.0409647 0.105206 1.5022e-20)
(-0.0523363 0.155265 1.00285e-20)
(-0.0579595 0.200646 1.4709e-19)
(-0.0570534 0.236911 1.85773e-19)
(-0.0488878 0.261183 -1.18379e-19)
(-0.032261 0.270037 -8.80503e-20)
(-0.00308145 0.25627 1.3328e-19)
(-0.00101037 -0.000778409 1.2878e-20)
(-0.0191272 0.0102084 -7.0518e-21)
(-0.0426813 0.0316547 3.73178e-20)
(-0.0660478 0.0598581 5.77889e-20)
(-0.0851712 0.0913231 -5.77467e-20)
(-0.0977088 0.122123 1.40168e-19)
(-0.102049 0.14851 -5.86012e-21)
(-0.0963918 0.166617 -2.95189e-19)
(-0.0779724 0.170473 -7.87129e-20)
(-0.039046 0.15223 9.98124e-20)
(-0.013477 0.0107343 1.32534e-21)
(-0.0462696 0.0244701 3.55878e-21)
(-0.0777913 0.0367662 -3.64128e-21)
(-0.103924 0.0505093 2.27376e-20)
(-0.120855 0.0674364 4.77974e-20)
(-0.125866 0.08751 -6.44506e-20)
(-0.11671 0.109718 -6.54129e-20)
(-0.0914818 0.131856 4.02835e-20)
(-0.0465428 0.147263 -5.81348e-20)
(0.0284372 0.147037 -3.00542e-20)
(-0.71332 -0.150257 -1.16766e-18)
(-0.695712 0.555142 2.19669e-18)
(-0.420749 1.14763 -1.45577e-19)
(-0.598433 0.709608 5.73155e-19)
(0.121915 -0.0278563 -4.29092e-19)
(0.399378 -0.452745 -2.76306e-19)
(0.746816 -0.666747 -1.47814e-19)
(0.906224 -0.606764 2.22706e-20)
(1.02814 -0.570051 3.55239e-20)
(1.11617 -0.381366 1.44618e-21)
(-0.792567 -0.0846074 -1.12011e-18)
(-0.920093 0.517063 -7.10579e-19)
(-0.580943 1.10746 -1.53963e-20)
(-0.448204 0.611306 -5.61448e-19)
(0.267958 -0.165953 -1.71537e-18)
(0.570787 -0.548077 0)
(0.902762 -0.733039 -1.34354e-19)
(1.0318 -0.648281 -7.76366e-21)
(1.13736 -0.591871 -1.9024e-21)
(1.18071 -0.392717 -1.99814e-20)
(-0.725222 -0.00206961 6.81862e-19)
(-1.00728 0.47383 5.04754e-19)
(-0.618631 0.996333 -7.63443e-20)
(-0.193423 0.488263 1.06398e-20)
(0.463772 -0.286099 4.67644e-20)
(0.770246 -0.639859 -8.86856e-20)
(1.06744 -0.791317 0)
(1.15992 -0.682607 0)
(1.24465 -0.605502 -3.47967e-20)
(1.24264 -0.397931 0)
(-0.519998 0.0856015 1.51324e-19)
(-0.907869 0.440541 -8.11443e-19)
(-0.526707 0.840958 2.33539e-20)
(0.0903722 0.346711 0)
(0.697428 -0.39097 8.20453e-19)
(0.987813 -0.72221 -1.72548e-19)
(1.23711 -0.838856 0)
(1.2865 -0.708295 1.27373e-19)
(1.34719 -0.61069 0)
(1.3003 -0.396918 2.82014e-20)
(-0.237754 0.155781 2.57391e-20)
(-0.627559 0.424703 -5.23661e-19)
(-0.312066 0.688373 -2.90938e-20)
(0.377686 0.206149 0)
(0.950904 -0.482154 2.16175e-19)
(1.21198 -0.792115 3.05993e-19)
(1.40678 -0.874212 -8.4866e-20)
(1.40823 -0.724368 -1.31137e-20)
(1.44246 -0.607471 -2.08974e-20)
(1.35225 -0.389802 -1.89721e-21)
(0.0371831 0.195703 1.11737e-18)
(-0.236607 0.412451 6.84751e-19)
(-0.000916953 0.560851 2.03823e-20)
(0.669434 0.082529 2.37492e-19)
(1.21079 -0.558907 -2.40046e-19)
(1.43251 -0.848026 9.91858e-20)
(1.5706 -0.897302 2.54641e-19)
(1.52225 -0.73058 -2.09336e-19)
(1.52844 -0.5961 1.5848e-21)
(1.39732 -0.376889 -6.15647e-20)
(0.231544 0.188885 1.84605e-19)
(0.163136 0.394655 -2.05729e-19)
(0.347352 0.46421 6.79455e-20)
(0.958375 -0.0151814 1.94087e-22)
(1.46613 -0.61906 -2.60361e-20)
(1.64169 -0.888452 -8.97844e-20)
(1.72348 -0.908484 -7.26256e-20)
(1.62643 -0.727332 4.51261e-20)
(1.60376 -0.576985 3.51821e-20)
(1.43464 -0.358649 3.05062e-21)
(0.290749 0.11831 -2.66888e-19)
(0.494911 0.347398 -2.55447e-19)
(0.666903 0.393051 0)
(1.23034 -0.0870582 -3.64848e-20)
(1.70693 -0.661207 -8.12422e-20)
(1.83282 -0.912202 -3.42096e-20)
(1.8609 -0.90808 -1.44381e-19)
(1.71921 -0.715493 8.0024e-20)
(1.66763 -0.550783 -1.9606e-21)
(1.46365 -0.335677 -2.96155e-20)
(0.268363 0.0107248 8.06401e-20)
(0.702718 0.270225 5.94264e-19)
(0.917489 0.326831 -2.16388e-19)
(1.47865 -0.143207 3.19734e-20)
(1.92699 -0.686248 2.58782e-20)
(2.00124 -0.919429 1.47888e-20)
(1.9796 -0.896432 5.49575e-20)
(1.79941 -0.696085 -5.53778e-21)
(1.71956 -0.518583 1.82842e-20)
(1.48405 -0.308689 5.12995e-20)
(0.412283 -0.1185 -2.79383e-20)
(0.783464 0.136633 4.801e-19)
(1.08825 0.26297 7.09005e-20)
(1.70778 -0.180189 3.48921e-19)
(2.1227 -0.69831 2.44463e-19)
(2.14428 -0.913792 8.09899e-20)
(2.07815 -0.875394 2.01038e-20)
(1.86629 -0.670238 0)
(1.75911 -0.481801 -6.77538e-20)
(1.49588 -0.278671 5.55548e-20)
(1.16095 -0.145409 -1.42322e-19)
(1.15437 0.0188835 -1.9131e-19)
(1.45207 0.108323 5.40346e-19)
(2.04879 -0.29122 -7.07988e-20)
(2.36284 -0.723639 -1.22213e-19)
(2.30444 -0.897891 2.31393e-20)
(2.18156 -0.83886 -8.06734e-20)
(1.93361 -0.628651 4.17867e-20)
(1.79153 -0.428458 -2.32191e-20)
(1.5008 -0.238357 -3.35751e-20)
(2.05577 -0.13213 1.85256e-20)
(1.88591 0.0283601 1.25718e-20)
(2.12685 -0.0250936 -4.54984e-19)
(2.55566 -0.414366 1.62553e-19)
(2.622 -0.752882 -9.06037e-19)
(2.40862 -0.862949 -4.241e-19)
(2.21576 -0.757456 -4.68441e-20)
(1.9378 -0.532644 -2.85867e-20)
(1.77481 -0.329215 1.47096e-19)
(1.47344 -0.173573 1.5174e-20)
(2.35337 -0.122508 -3.22301e-20)
(2.25948 -0.0138218 1.25601e-20)
(2.53567 -0.122071 -3.52921e-20)
(2.69124 -0.445008 -5.08262e-36)
(2.57936 -0.692026 -1.97576e-20)
(2.37184 -0.777471 1.06117e-33)
(2.20537 -0.671946 3.8003e-20)
(1.9322 -0.454789 1.62492e-33)
(1.75616 -0.251704 -7.35533e-21)
(1.44175 -0.119604 1.69809e-20)
(2.3994 -0.107518 -8.32174e-35)
(2.40608 -0.0600395 7.59055e-20)
(2.59312 -0.172889 2.68162e-19)
(2.60977 -0.422948 0)
(2.55755 -0.649438 3.58569e-19)
(2.38945 -0.729814 1.56295e-19)
(2.17747 -0.598296 -4.32336e-20)
(1.86465 -0.36495 3.24593e-33)
(1.65894 -0.155193 -1.03821e-19)
(1.35417 -0.0556113 -2.04627e-20)
(2.39399 -0.108239 8.18095e-21)
(2.42821 -0.104909 -2.79621e-21)
(2.51536 -0.193784 0)
(2.54943 -0.413711 0)
(2.51289 -0.617174 0)
(2.27268 -0.646987 0)
(1.98905 -0.480378 4.66741e-21)
(1.66421 -0.254799 3.07673e-33)
(1.47162 -0.0642669 -8.98227e-21)
(1.22361 -0.00297818 -2.85287e-33)
(2.38351 -0.115288 4.75253e-20)
(2.40229 -0.127817 0)
(2.44291 -0.20547 0)
(2.48808 -0.401735 0)
(2.38228 -0.55626 0)
(2.04598 -0.537831 0)
(1.70457 -0.36333 -5.27419e-21)
(1.38421 -0.159362 7.25843e-20)
(1.21454 0.00725755 -9.69414e-21)
(1.04746 0.0363249 -1.56849e-20)
(2.3639 -0.122568 0)
(2.3445 -0.139472 6.25998e-20)
(2.36268 -0.210991 1.14268e-19)
(2.35396 -0.372772 0)
(2.08337 -0.458937 1.29611e-19)
(1.61084 -0.388134 5.79467e-20)
(1.2323 -0.22381 3.45839e-21)
(0.971435 -0.0657729 -1.35482e-20)
(0.872135 0.057552 1.47475e-20)
(0.823607 0.0560837 -2.69188e-20)
(2.25806 -0.119586 -4.04082e-21)
(2.18371 -0.133154 -1.62889e-21)
(2.15903 -0.1945 1.73691e-21)
(1.96944 -0.292504 -4.23144e-35)
(1.49456 -0.293868 -5.58355e-21)
(0.979492 -0.20778 3.47488e-34)
(0.664426 -0.103944 -1.4565e-21)
(0.514553 -0.0127769 -3.76093e-20)
(0.505445 0.0638274 -9.30696e-21)
(0.566643 0.0499349 2.62893e-20)
(1.83296 -0.0949932 2.78743e-20)
(1.70422 -0.112866 -2.4556e-20)
(1.54898 -0.134207 -1.47243e-20)
(1.1611 -0.1235 0)
(0.688325 -0.0933975 -1.40212e-20)
(0.352835 -0.0731424 -1.867e-20)
(0.176603 -0.0446571 -2.54354e-20)
(0.116258 -0.0037202 -2.49277e-20)
(0.160743 0.0369564 1.71751e-20)
(0.271987 0.0274534 -2.83142e-20)
(0.764684 -0.0243249 0)
(0.606096 -0.0189921 0)
(0.429131 0.00130368 0)
(0.270325 0.00894165 0)
(0.144594 -0.00298512 0)
(0.0236997 -0.0119647 0)
(-0.0807593 -0.0112236 -1.78869e-21)
(-0.125786 -0.00432029 4.63916e-35)
(-0.0999214 0.00437436 -9.42817e-21)
(-0.0227455 0.00348831 -2.5163e-20)
(2.42159 0.272635 6.8846e-19)
(2.4628 0.213946 4.08601e-20)
(2.47531 0.157713 -6.17681e-20)
(2.49899 0.114529 -2.04513e-19)
(2.4864 0.0672114 -2.89811e-20)
(2.46037 0.044987 -4.38503e-20)
(2.38601 -0.00179004 -1.5876e-19)
(2.13599 0.0100438 1.49148e-20)
(1.93682 -0.0399075 0)
(1.21042 0.0488616 6.81162e-20)
(2.34883 0.231827 2.30681e-19)
(2.36664 0.193379 -2.45307e-19)
(2.4288 0.138727 -6.31286e-20)
(2.41257 0.112133 -1.05368e-19)
(2.49841 0.0597677 9.64838e-20)
(2.41781 0.0438516 1.58964e-19)
(2.54232 -0.00933374 -2.07732e-19)
(2.33195 -0.0218417 9.93818e-22)
(2.45311 -0.0664877 -2.02354e-20)
(2.02827 -0.070223 7.16424e-20)
(2.30616 0.198565 -1.00285e-19)
(2.28526 0.162993 2.35681e-19)
(2.38898 0.122405 1.32242e-19)
(2.32896 0.0918437 -2.34494e-19)
(2.45832 0.0562391 -5.12048e-20)
(2.35564 0.0272832 3.33366e-19)
(2.50489 -0.00136468 6.04943e-20)
(2.37226 -0.0325032 -6.33948e-20)
(2.49657 -0.0509961 -3.48791e-20)
(2.35063 -0.0831953 -3.50687e-20)
(2.26146 0.16588 -2.82827e-19)
(2.24558 0.126666 -6.5148e-20)
(2.33488 0.103913 5.17873e-20)
(2.29692 0.0661239 -1.84957e-21)
(2.38775 0.0485427 -2.22565e-19)
(2.34024 0.0123478 -6.62546e-20)
(2.41862 1.00411e-05 1.79589e-19)
(2.38438 -0.0328135 -1.30141e-20)
(2.42954 -0.0422807 3.44723e-20)
(2.4209 -0.0693331 1.34717e-20)
(2.21407 0.130418 2.95506e-20)
(2.22581 0.094217 1.32827e-19)
(2.27943 0.0792697 -6.87293e-21)
(2.28316 0.0450847 1.38161e-19)
(2.32592 0.0324704 -5.81783e-20)
(2.33066 0.00255278 -1.95613e-19)
(2.35688 -0.00911435 2.94427e-20)
(2.37112 -0.032513 -5.96626e-20)
(2.37976 -0.0456188 -1.05706e-20)
(2.40337 -0.0616244 -1.57891e-20)
(2.17296 0.0925876 -1.55913e-19)
(2.20229 0.064902 -6.20568e-20)
(2.23589 0.0506877 -1.87239e-20)
(2.26087 0.0258877 9.42845e-20)
(2.28454 0.0119243 2.60484e-19)
(2.30776 -0.00840511 -5.59768e-20)
(2.3216 -0.0233074 5.06324e-21)
(2.34408 -0.0383683 -7.53799e-20)
(2.35078 -0.0550669 -1.06658e-19)
(2.37152 -0.0648995 -2.30583e-20)
(2.12582 0.0554577 -4.73838e-20)
(2.15989 0.035905 -1.12888e-19)
(2.18844 0.0224355 -1.47014e-19)
(2.21875 0.00541453 -2.52164e-19)
(2.24113 -0.00847784 8.20514e-20)
(2.26798 -0.0226113 6.61505e-20)
(2.28467 -0.0377711 -1.21736e-20)
(2.30826 -0.0491489 7.57378e-20)
(2.31999 -0.0657867 -6.98742e-20)
(2.34129 -0.0745356 -4.35986e-20)
(2.01693 0.02099 5.99355e-20)
(2.05155 0.00749442 1.9e-20)
(2.07346 -0.0023625 1.53279e-20)
(2.10854 -0.014528 -3.27278e-20)
(2.12544 -0.0244944 -3.12029e-20)
(2.16196 -0.0356564 -5.82405e-20)
(2.17327 -0.046576 -4.52931e-20)
(2.21232 -0.0572122 1.00469e-19)
(2.21694 -0.0696159 -4.05949e-20)
(2.26044 -0.0800625 5.46541e-21)
(1.70333 -0.00814076 -7.17738e-20)
(1.72656 -0.0151144 -1.69076e-20)
(1.73496 -0.0201103 1.25216e-19)
(1.76387 -0.0265719 -2.11801e-20)
(1.76738 -0.031243 -3.54878e-20)
(1.80492 -0.0380058 7.25983e-20)
(1.8011 -0.0430862 -5.56318e-20)
(1.84991 -0.0509794 4.37177e-20)
(1.83505 -0.057387 -2.05555e-20)
(1.89843 -0.0672359 -8.23937e-20)
(0.865513 -0.00952365 5.09307e-20)
(0.860939 -0.00876815 4.44362e-20)
(0.854682 -0.00821013 4.456e-20)
(0.854482 -0.00766668 7.43975e-20)
(0.849117 -0.007698 -3.77322e-20)
(0.85473 -0.00764732 -5.23719e-20)
(0.847122 -0.00844131 2.34147e-20)
(0.86102 -0.00944414 -2.08481e-21)
(0.842853 -0.0105193 3.06353e-21)
(0.874043 -0.0154817 -4.65162e-21)
(1.52324 0.929535 -7.73742e-20)
(1.50806 0.975306 2.55686e-20)
(1.5114 1.02842 -5.87372e-19)
(1.51956 1.08856 2.24083e-19)
(1.5255 1.15172 1.1083e-18)
(1.52052 1.20974 -1.4018e-19)
(1.48286 1.24026 -9.92358e-19)
(1.36366 1.19227 -8.24485e-21)
(1.0774 0.97363 -4.85947e-19)
(0.502993 0.465352 1.18065e-19)
(1.68245 0.902767 0)
(1.67208 0.947115 6.82534e-19)
(1.67206 0.996544 1.51685e-18)
(1.67983 1.05413 -9.3542e-19)
(1.68882 1.11561 -2.19193e-18)
(1.68674 1.17123 -1.45535e-19)
(1.64661 1.19732 -1.86124e-19)
(1.51208 1.14363 6.76512e-19)
(1.18844 0.9242 9.97004e-19)
(0.548953 0.434005 3.98546e-19)
(1.82839 0.868045 6.44408e-20)
(1.82683 0.911617 0)
(1.8285 0.957789 -6.39539e-20)
(1.83714 1.01058 9.527e-19)
(1.84805 1.06683 5.26543e-20)
(1.84678 1.11643 -2.14231e-18)
(1.8013 1.13528 1.3501e-18)
(1.64831 1.07498 7.96205e-19)
(1.28552 0.857289 -8.50322e-19)
(0.585295 0.393547 -2.55724e-19)
(1.95783 0.823545 -1.69042e-19)
(1.96534 0.865069 -1.26072e-19)
(1.97207 0.907577 2.61063e-19)
(1.98348 0.954882 -3.24346e-19)
(1.99602 1.00446 -1.50372e-18)
(1.99358 1.04626 -1.16646e-18)
(1.93983 1.0559 1.22212e-18)
(1.76453 0.987448 7.96269e-19)
(1.36042 0.773761 0)
(0.607606 0.344493 0)
(2.07082 0.765509 -8.54608e-19)
(2.08645 0.804115 -1.56156e-18)
(2.09945 0.842777 -6.0281e-19)
(2.11454 0.884628 -3.15994e-20)
(2.12813 0.927111 0)
(2.12253 0.959167 1.26117e-19)
(2.05596 0.958313 1.44717e-19)
(1.85265 0.883549 1.79098e-19)
(1.40645 0.676171 -2.55911e-19)
(0.612471 0.288005 -6.39122e-20)
(2.17084 0.697835 1.01403e-18)
(2.19227 0.732158 -3.90127e-20)
(2.21038 0.766114 -1.19318e-18)
(2.22833 0.801766 0)
(2.24121 0.836036 0)
(2.22812 0.858218 0)
(2.14243 0.846544 1.3479e-18)
(1.90609 0.764663 -1.47315e-18)
(1.4184 0.566227 -9.24931e-19)
(0.597233 0.226938 1.45904e-20)
(2.25745 0.620421 -1.31225e-18)
(2.28308 0.649917 -2.75478e-18)
(2.30445 0.679077 -4.77099e-21)
(2.32313 0.708454 5.56513e-19)
(2.3318 0.734291 -3.38507e-20)
(2.30572 0.745938 1.16435e-18)
(2.19435 0.722999 -6.3897e-19)
(1.91928 0.634726 -1.66452e-18)
(1.39126 0.44907 8.77263e-20)
(0.560953 0.16542 6.86154e-20)
(2.33282 0.53931 -1.01467e-18)
(2.35919 0.563836 1.46181e-20)
(2.38089 0.587394 3.81206e-19)
(2.39705 0.609629 -3.67737e-19)
(2.39678 0.626162 5.70594e-19)
(2.35085 0.626448 1.50217e-18)
(2.20555 0.592218 -1.24938e-19)
(1.8858 0.499507 -8.55598e-19)
(1.32133 0.331406 1.91458e-19)
(0.504574 0.107985 3.5226e-20)
(2.3936 0.455614 3.65168e-19)
(2.41927 0.475686 7.37728e-20)
(2.43861 0.49356 -3.75034e-19)
(2.4481 0.508356 -8.7495e-19)
(2.43243 0.51523 5.90696e-20)
(2.35779 0.504101 4.17323e-20)
(2.16909 0.459687 -1.03225e-18)
(1.79999 0.365778 4.43569e-19)
(1.20764 0.220566 1.26844e-19)
(0.431277 0.0588992 -4.17371e-20)
(2.44131 0.374806 6.70927e-19)
(2.46309 0.389941 -9.95705e-19)
(2.47621 0.401642 1.48516e-19)
(2.47306 0.408669 1.94778e-18)
(2.4333 0.405786 9.34599e-19)
(2.31912 0.383907 -1.9969e-18)
(2.07754 0.331599 -1.81189e-18)
(1.65792 0.241082 7.45177e-19)
(1.05289 0.124006 -3.801e-20)
(0.346434 0.0214543 -1.01117e-19)
(0.553303 0.345526 -2.08944e-19)
(0.51211 0.358349 -1.81541e-19)
(0.465594 0.37197 9.09546e-20)
(0.414413 0.386515 -2.90101e-19)
(0.358288 0.401855 -3.14256e-20)
(0.296382 0.416744 2.46747e-19)
(0.227729 0.426021 5.13459e-20)
(0.152827 0.414777 -1.41497e-20)
(0.0789537 0.350606 1.172e-20)
(0.0154652 0.17934 1.65725e-20)
(0.589196 0.454187 1.61865e-19)
(0.549266 0.473883 2.09661e-19)
(0.504873 0.494995 4.24749e-20)
(0.456263 0.517661 -6.87291e-20)
(0.40284 0.541643 -2.56861e-19)
(0.343517 0.565154 -4.87111e-21)
(0.276672 0.581052 9.59985e-20)
(0.201086 0.568741 2.92692e-20)
(0.120523 0.482966 -1.03375e-19)
(0.0373124 0.248112 -3.54722e-20)
(0.64368 0.555369 -1.55237e-19)
(0.605251 0.581047 -1.42437e-19)
(0.563494 0.608621 1.2023e-19)
(0.518176 0.638536 9.25666e-20)
(0.468422 0.670673 -7.42053e-20)
(0.412862 0.702784 -4.90978e-20)
(0.348882 0.725676 -1.03478e-19)
(0.27254 0.712959 -5.53589e-20)
(0.18199 0.606824 -6.0736e-20)
(0.0694321 0.311864 1.66203e-21)
(0.716134 0.652373 6.82974e-20)
(0.679768 0.684569 -3.30863e-20)
(0.641599 0.71857 -9.45392e-20)
(0.600402 0.755031 -2.09414e-20)
(0.554849 0.793933 -7.22046e-20)
(0.503369 0.832662 3.4098e-21)
(0.442347 0.860183 -2.46868e-19)
(0.364524 0.844954 3.67595e-20)
(0.260692 0.718327 -2.98245e-19)
(0.110269 0.368178 4.92343e-20)
(0.802353 0.733407 -8.80326e-21)
(0.768625 0.770654 5.7004e-21)
(0.73514 0.810224 -4.70968e-20)
(0.699814 0.853155 -2.38974e-19)
(0.660563 0.899218 1.10867e-19)
(0.61503 0.945055 1.62614e-20)
(0.557981 0.977714 6.168e-20)
(0.478001 0.960798 -1.47404e-19)
(0.356831 0.815784 3.64695e-19)
(0.159396 0.41644 2.67239e-19)
(0.905175 0.813009 -5.81373e-20)
(0.873352 0.854796 -1.47967e-19)
(0.843394 0.897754 4.64262e-20)
(0.8126 0.94428 9.5785e-20)
(0.778847 0.994706 3.31867e-19)
(0.739308 1.04501 2.3904e-19)
(0.686674 1.08003 5.99104e-19)
(0.604384 1.05886 2.50704e-19)
(0.463815 0.89542 1.51e-19)
(0.21379 0.454142 2.02193e-19)
(1.01449 0.866927 -1.01313e-19)
(0.988641 0.913497 5.24331e-19)
(0.966462 0.961012 3.51816e-19)
(0.943382 1.01193 -4.55009e-19)
(0.916628 1.06673 -2.30969e-19)
(0.88317 1.12119 6.33766e-19)
(0.834058 1.15858 -1.03032e-19)
(0.747317 1.13407 -4.26183e-19)
(0.582942 0.955244 9.32381e-21)
(0.272975 0.4807 2.4285e-19)
(1.13148 0.921819 2.64271e-19)
(1.10613 0.968752 5.63745e-20)
(1.0887 1.01653 -7.20465e-19)
(1.07353 1.06915 1.50029e-19)
(1.05607 1.12629 5.46645e-19)
(1.03129 1.18235 -3.09435e-19)
(0.987296 1.21878 -9.42124e-20)
(0.896085 1.18796 -1.76836e-19)
(0.70611 0.994099 1.77937e-20)
(0.333204 0.49505 -2.91866e-19)
(1.25698 0.942235 1.85264e-20)
(1.24202 0.993131 -5.21819e-19)
(1.23207 1.04205 -4.41674e-21)
(1.22264 1.09577 4.50208e-19)
(1.21107 1.15514 -4.67178e-19)
(1.1922 1.21353 9.18941e-19)
(1.15101 1.25005 6.2001e-19)
(1.05246 1.21443 -9.17558e-19)
(0.832922 1.00947 -6.91103e-20)
(0.393261 0.49679 -3.15758e-19)
(1.35797 0.954993 -3.10535e-19)
(1.35406 1.00637 -2.97258e-19)
(1.3607 1.05676 2.83715e-19)
(1.36559 1.11108 7.39432e-19)
(1.36519 1.16976 2.6829e-19)
(1.35457 1.22636 -7.63032e-19)
(1.31644 1.25913 9.47991e-20)
(1.20915 1.21665 2.06737e-19)
(0.957716 1.00277 -2.76009e-19)
(0.450495 0.486739 -2.22397e-19)
(0.9972 0.00871858 5.59125e-22)
(1.01276 0.0352159 -1.61511e-20)
(1.01853 0.0449063 -1.14315e-20)
(1.03159 0.0648278 0)
(1.02847 0.0823074 1.26206e-20)
(1.02554 0.104135 1.88827e-20)
(1.00311 0.127631 2.4474e-20)
(0.960951 0.156196 5.85171e-20)
(0.883955 0.214177 -9.52372e-20)
(0.733095 0.281065 -1.05201e-19)
(0.998734 0.00650116 3.27592e-20)
(1.01034 0.033562 -5.18923e-20)
(1.01739 0.0418342 2.06604e-22)
(1.02917 0.0642871 -1.45861e-20)
(1.02736 0.0822 6.58277e-21)
(1.02573 0.108737 -9.9543e-21)
(1.00329 0.136769 -5.74962e-20)
(0.966795 0.174514 0)
(0.88985 0.250388 1.98883e-19)
(0.761214 0.351653 -2.71008e-19)
(0.999618 0.00444778 -2.34357e-20)
(1.00913 0.0324391 1.42399e-20)
(1.01639 0.0384697 3.01009e-20)
(1.02857 0.0643619 7.99089e-21)
(1.02652 0.0815438 -1.63658e-20)
(1.02858 0.114087 1.40468e-21)
(1.00431 0.145131 -4.22676e-20)
(0.977942 0.193403 -7.81802e-21)
(0.899442 0.285369 5.19243e-22)
(0.804704 0.419574 6.48753e-19)
(0.999979 0.00246186 -2.60051e-20)
(1.0089 0.0317479 1.93732e-21)
(1.01561 0.0348046 2.48328e-20)
(1.02947 0.0649974 1.69027e-20)
(1.02621 0.080291 -8.33345e-21)
(1.03375 0.120245 -1.23061e-20)
(1.00638 0.15236 6.31429e-20)
(0.994059 0.213239 -2.83078e-21)
(0.912403 0.317995 -2.27566e-19)
(0.862907 0.483207 7.24025e-20)
(1.00002 0.000447288 1.79012e-20)
(1.00931 0.0313482 -2.56897e-20)
(1.01523 0.0308683 -2.01631e-20)
(1.03148 0.0660746 1.01028e-20)
(1.02683 0.0784756 0)
(1.04064 0.127111 0)
(1.01035 0.158369 5.53317e-20)
(1.01358 0.233838 1.62688e-21)
(0.930845 0.348047 -1.07803e-19)
(0.932139 0.541212 9.02219e-20)
(0.999971 -0.00161462 5.00073e-21)
(1.01003 0.0311012 2.02976e-20)
(1.01549 0.0267153 -5.6067e-20)
(1.03421 0.0674352 -1.99221e-20)
(1.0288 0.0761604 -4.04647e-22)
(1.04882 0.134578 5.49409e-20)
(1.01649 0.162952 8.67732e-20)
(1.03686 0.255632 2.1774e-22)
(0.95191 0.373311 1.75586e-19)
(1.01763 0.598904 -2.03398e-19)
(1.00002 -0.00373156 -1.91505e-20)
(1.01077 0.0308574 1.05042e-20)
(1.01661 0.0224068 -1.57596e-20)
(1.03728 0.0688733 -4.26592e-20)
(1.03259 0.0734763 1.36574e-21)
(1.05757 0.142341 -1.5423e-21)
(1.02622 0.166356 -3.63506e-21)
(1.06089 0.277817 -1.91506e-19)
(0.983515 0.395011 1.32904e-19)
(1.09935 0.641295 -4.9104e-19)
(1.00027 -0.00589684 -3.20239e-21)
(1.01137 0.0304725 -2.97499e-20)
(1.01868 0.0179996 3.21007e-20)
(1.04049 0.0701614 2.29772e-20)
(1.03844 0.0705718 7.40504e-22)
(1.06666 0.14999 -6.54172e-20)
(1.03947 0.168765 -5.00518e-20)
(1.08757 0.300391 3.46658e-19)
(1.0159 0.413487 1.15068e-20)
(1.20918 0.700458 7.7843e-19)
(1.00072 -0.00808055 1.27979e-20)
(1.01189 0.0298315 1.32827e-20)
(1.02157 0.0135239 3.8373e-20)
(1.04397 0.0711498 -2.53905e-20)
(1.04621 0.0674886 -6.69581e-20)
(1.07578 0.157608 8.09353e-22)
(1.05712 0.168863 -7.07028e-20)
(1.11405 0.321313 4.57618e-19)
(1.06883 0.416035 -7.46092e-21)
(1.2765 0.718491 -1.07557e-18)
(1.00132 -0.010233 3.00717e-22)
(1.01256 0.0287901 2.037e-20)
(1.02482 0.00949861 1.26014e-20)
(1.04833 0.0715459 -5.11129e-20)
(1.05452 0.0661931 -6.66858e-20)
(1.08475 0.164496 -5.71014e-20)
(1.07517 0.17593 -1.31097e-19)
(1.13605 0.344877 -4.22157e-19)
(1.1216 0.445248 -2.30778e-19)
(1.40725 0.790266 -1.14348e-18)
(1.00233 -0.013814 -9.21866e-22)
(1.01326 0.0273811 -4.30286e-21)
(1.02933 0.00194586 -1.49396e-20)
(1.05568 0.0708974 2.79533e-20)
(1.0652 0.05745 5.15787e-20)
(1.10335 0.169523 -3.71888e-20)
(1.09738 0.161671 1.33021e-19)
(1.18054 0.356429 -3.91939e-19)
(1.18179 0.388353 -1.77741e-19)
(1.42119 0.780116 6.00809e-19)
(1.00451 -0.019107 4.77307e-22)
(1.01208 0.0251291 6.81035e-21)
(1.03787 -0.0100688 -1.06424e-20)
(1.06288 0.0669697 5.17894e-20)
(1.08364 0.0417762 8.91761e-20)
(1.11933 0.167882 1.11894e-19)
(1.13813 0.138262 3.08349e-20)
(1.20954 0.344455 1.97352e-19)
(1.27797 0.341226 3.11208e-19)
(1.44079 0.682276 1.96296e-20)
(1.0068 -0.0242571 -1.14841e-21)
(1.00883 0.020928 -3.55218e-21)
(1.05247 -0.0220413 3.87742e-21)
(1.06697 0.060231 3.9628e-21)
(1.1099 0.02663 2.74141e-34)
(1.12646 0.160761 -6.26816e-21)
(1.18776 0.114433 -4.38135e-34)
(1.22688 0.322005 1.63413e-20)
(1.35435 0.289964 -4.99315e-20)
(1.47923 0.593877 -5.15129e-20)
(1.00599 -0.0291807 1.47172e-20)
(1.00817 0.0129267 -4.00151e-35)
(1.06974 -0.0328899 -4.44403e-21)
(1.07224 0.0491085 -2.23219e-20)
(1.13563 0.0136716 -4.51557e-20)
(1.13468 0.148702 -3.81662e-20)
(1.22824 0.0912846 -5.85401e-34)
(1.24974 0.294795 -7.86087e-20)
(1.39827 0.240136 -1.40916e-19)
(1.51725 0.505445 8.75853e-20)
(0.998907 -0.033836 0)
(1.01712 -0.000552175 -1.98459e-35)
(1.08437 -0.0423051 0)
(1.08628 0.0330076 0)
(1.15345 0.00304842 0)
(1.15542 0.12963 0)
(1.25213 0.0703687 -4.34954e-34)
(1.28295 0.260094 0)
(1.41935 0.197698 -1.7931e-20)
(1.54618 0.41614 5.18192e-20)
(0.985088 -0.0395342 2.12807e-21)
(1.03892 -0.0167049 -1.1627e-21)
(1.09368 -0.0505121 -5.63708e-21)
(1.11148 0.0166439 0)
(1.16338 -0.00408939 0)
(1.18762 0.105608 5.77951e-21)
(1.26679 0.053185 4.30792e-20)
(1.31621 0.219737 -1.19545e-20)
(1.43725 0.161395 -2.62691e-20)
(1.56783 0.331749 1.95515e-19)
(0.968385 -0.05077 -8.23998e-20)
(1.07265 -0.042078 3.12218e-21)
(1.09412 -0.0622338 -6.28704e-21)
(1.14247 -0.00644332 -1.44685e-20)
(1.15777 -0.0138167 -2.80848e-20)
(1.21477 0.0755348 -1.30184e-20)
(1.26177 0.038458 -3.68732e-20)
(1.33403 0.174782 -3.22096e-20)
(1.44294 0.127653 -5.371e-20)
(1.58306 0.2532 6.92081e-20)
(0.956072 -0.0558533 -5.03398e-21)
(1.10293 -0.0556907 -1.72378e-20)
(1.06959 -0.0611946 -6.87464e-21)
(1.14385 -0.0191552 -4.75029e-21)
(1.09561 -0.0150646 -4.77576e-35)
(1.1941 0.0480645 6.24879e-21)
(1.18241 0.0282767 -8.11069e-34)
(1.30454 0.127296 -1.14922e-20)
(1.38417 0.0935281 1.63502e-20)
(1.56806 0.177498 2.36081e-20)
(0.951573 -0.0955077 1.97928e-19)
(1.05808 -0.0887837 -4.56862e-21)
(0.94998 -0.0741235 -7.3022e-21)
(0.989649 -0.0354054 1.21418e-20)
(0.878759 -0.0159519 1.5873e-20)
(0.998604 0.0228623 1.57733e-20)
(0.933458 0.0212099 1.58939e-20)
(1.11986 0.0756301 -6.79206e-21)
(1.16455 0.0583335 -1.67105e-20)
(1.40877 0.100931 1.27567e-19)
(0.824381 -0.0470215 7.78972e-21)
(0.724438 -0.0335098 -9.16347e-35)
(0.528758 -0.0182155 -8.38755e-21)
(0.472656 -0.00374783 0)
(0.392832 -7.47738e-05 0)
(0.462602 0.00819815 6.24308e-21)
(0.437852 0.00493352 -4.48896e-36)
(0.57683 0.0165933 -1.10374e-20)
(0.629375 0.00949108 -2.39299e-20)
(0.810549 0.0177878 5.11218e-20)
(1.6199 0.817392 -1.79879e-19)
(1.71878 0.801194 -2.68948e-19)
(1.83107 0.772054 0)
(1.93698 0.732151 1.40502e-19)
(2.03346 0.67921 6.01502e-19)
(2.12179 0.619447 -1.12301e-19)
(2.1987 0.551567 1.54368e-18)
(2.27184 0.481702 -7.33503e-20)
(2.32931 0.408503 -3.40171e-19)
(2.38658 0.339644 2.92705e-19)
(1.64553 0.67227 8.91565e-20)
(1.71938 0.658506 1.07197e-19)
(1.8127 0.630938 -1.16093e-20)
(1.89631 0.594789 1.98e-19)
(1.98459 0.54768 -1.63559e-19)
(2.05315 0.500237 -3.83364e-19)
(2.12886 0.444426 -1.09356e-19)
(2.18369 0.394683 5.2414e-19)