# Selection   : all
# Cells       : 440
# Volume      : 7.374263e+01
# Time        	min(p)
9.52          	-3.814900e+00
9.565         	-1.839490e+00
9.615         	-1.765880e+00
