/*--------------------------------*- C++ -*----------------------------------*\
  =========                 |
  \\      /  F ield         | OpenFOAM: The Open Source CFD Toolbox
   \\    /   O peration     | Website:  https://openfoam.org
    \\  /    A nd           | Version:  13
     \\/     M anipulation  |
\*---------------------------------------------------------------------------*/
FoamFile
{
    format      ascii;
    class       volScalarField;
    location    "0.83";
    object      strainRateViscosityModel:nu;
}
// * * * * * * * * * * * * * * * * * * * * * * * * * * * * * * * * * * * * * //

dimensions      [0 2 -1 0 0 0 0];

internalField   nonuniform List<scalar> 
440
(
9.41954
8.96974
8.54453
8.0424
7.5862
9.68995
9.35817
8.98178
8.48005
7.87557
9.80074
9.53084
9.15877
8.58509
7.84825
9.84962
9.61817
9.25861
8.64755
7.86606
9.86917
9.65606
9.30591
8.68093
7.90878
1.30803
1.79072
2.04994
2.29999
2.36408
3.38657
3.30214
3.31601
3.42401
3.49471
5.89257
5.27136
4.92748
4.72715
4.75676
7.76956
6.99346
6.42028
5.90456
5.82688
8.82064
8.15138
7.55212
6.91818
6.87148
1.85121
0.846169
0.423275
0.163835
0.173468
2.61525
0.907229
0.368539
0.134103
0.0610413
3.51139
1.14628
0.302956
0.0980636
0.0167318
4.09096
1.43396
0.276231
0.053811
0.0716247
4.60379
1.75125
0.321736
0.0115082
0.179771
4.22924
1.73968
0.306505
0.0738701
0.284672
3.71178
1.82486
0.632778
0.308907
0.414568
4.91995
3.2083
1.24232
0.557283
0.5273
7.00947
4.28811
1.91779
0.899332
0.647508
8.27284
5.07612
2.49628
1.30374
0.82343
2.8482
3.68252
4.61962
5.50546
6.14869
3.68376
3.69668
3.7723
3.85229
3.36792
8.22648
8.08653
7.7993
7.38544
6.34647
9.0529
8.99236
8.85903
8.62148
8.16014
9.60671
9.56995
9.48702
9.33805
9.1188
7.50321
8.01244
8.55946
9.01088
9.46417
7.794
8.45167
8.98715
9.37788
9.70863
7.779
8.55906
9.15943
9.54077
9.80944
7.81628
8.62756
9.25739
9.62275
9.85359
7.89134
8.67366
9.30535
9.65743
9.87034
2.53401
2.47502
2.27507
2.12068
2.04967
3.4805
3.43258
3.4733
3.69352
4.24717
4.63568
4.659
5.04958
5.59945
6.45202
5.68326
5.82542
6.4972
7.1878
8.04118
6.75301
6.84152
7.58028
8.24267
8.93535
0.211561
0.0617344
0.284024
0.872821
2.028
0.183993
0.0773149
0.229362
0.890474
2.66077
0.164945
0.0798332
0.171606
1.08155
3.44
0.153099
0.0622966
0.156056
1.38554
3.94125
0.155334
0.0674924
0.248163
1.73383
4.36387
0.204119
0.105412
0.272576
1.86881
4.1003
0.336591
0.123229
0.278772
1.81498
3.86194
0.667304
0.24153
0.773669
3.03755
4.90841
2.27518
0.814237
1.50872
4.16242
6.96073
5.0575
2.53704
2.41916
5.03763
8.27915
5.94684
5.2659
4.40222
3.51033
2.77977
3.52247
3.99125
3.97106
3.8764
3.76366
6.32106
7.35232
7.779
8.06767
8.21846
8.1212
8.59992
8.84943
8.98861
9.05202
9.11694
9.33781
9.48741
9.57051
9.60696
9.31089
7.91689
1.39867
3.63024
7.73684
9.08188
7.44084
3.20602
1.64078
6.78909
8.39874
6.57776
4.20855
1.0036
4.14773
6.81572
5.0948
3.45532
1.70073
1.03872
4.50392
3.14532
2.0388
1.378
0.460083
2.59741
1.61864
1.00254
0.797171
0.926765
1.45651
0.779246
0.580167
0.613513
0.686166
0.801225
0.406526
0.591663
0.76045
0.833706
0.305282
0.509029
0.886342
1.05216
1.11354
0.163166
0.935574
1.2817
1.51808
1.57261
0.190538
0.363046
0.710862
0.778085
0.730809
0.39613
0.50193
0.579928
0.637509
0.621886
0.615357
0.64913
0.466014
0.494165
0.509246
0.967523
0.797956
0.419146
0.355285
0.394587
1.3317
0.84779
0.425166
0.238843
0.278425
1.10581
0.858887
1.12429
1.10891
0.995538
0.283608
0.472314
0.866692
0.920912
0.843974
9.19119
8.83869
7.75887
5.73031
3.5598
8.58733
7.72295
5.85164
3.4915
0.865952
0.964545
0.858196
1.02676
1.62021
2.65827
0.813037
0.767023
0.703568
0.824454
1.52674
1.05942
1.01067
0.847419
0.552885
0.744938
1.38478
1.34777
1.14986
0.798146
0.228817
1.85723
1.81056
1.55836
1.24028
0.598467
7.73637
3.62718
1.39995
7.91513
9.31104
6.78528
1.64059
3.20266
7.43775
9.08252
4.13438
1.01086
4.1944
6.57317
8.40031
1.03685
1.70535
3.43373
5.08571
6.82223
0.476016
1.37623
2.01482
3.12773
4.52678
1.31235
0.541275
0.550828
0.45265
0.175767
0.678552
0.290367
0.468669
0.519227
0.485434
0.400815
0.152203
0.381866
0.621177
0.80398
0.291398
0.0684491
0.341825
0.774171
1.22405
0.246862
0.0459191
0.320187
0.86012
1.58961
5.4814
2.46056
1.03477
0.959447
1.14174
2.88796
1.08747
0.724208
0.554557
0.252293
3.56821
5.73583
7.76004
8.83922
9.19134
0.843701
3.47225
5.84506
7.72158
8.58717
)
;

boundaryField
{
    left
    {
        type            calculated;
        value           nonuniform List<scalar> 
17
(
0.459213
1.12467
2.18661
3.91001
6.58054
0.305074
0.189181
0.138418
0.143845
0.214421
2.95949
2.06236
1.34048
0.822291
0.500855
6.97886
4.5798
)
;
    }
    right
    {
        type            calculated;
        value           nonuniform List<scalar> 
17
(
0.995831
0.845425
0.73295
0.624831
0.511721
0.394029
0.271846
0.159538
0.0487043
0.014874
0.0875911
0.231217
0.348618
0.46866
0.560748
0.660426
0.815424
)
;
    }
    down
    {
        type            calculated;
        value           nonuniform List<scalar> 
20
(
5.99527
2.99989
1.14432
1.04198
1.85312
4.27033
6.38392
8.13149
9.01584
9.30929
9.30912
9.01519
8.13
6.37988
4.26419
1.83176
0.933437
1.19074
1.16582
1.04258
)
;
    }
    up
    {
        type            calculated;
        value           nonuniform List<scalar> 
20
(
8.54863
5.40414
2.72573
1.45396
0.889963
9.69562
9.66615
9.59857
9.47421
9.2934
9.2964
9.47647
9.60018
9.66726
9.69603
5.7054
3.14817
2.65923
5.39345
8.56556
)
;
    }
    cylinder
    {
        type            calculated;
        value           nonuniform List<scalar> 
40
(
1.37466
3.59159
6.11885
7.96029
8.95703
9.50511
9.74576
9.84079
9.88145
9.89745
9.54742
9.76283
9.84855
9.88495
9.89848
2.28821
4.52496
6.69896
8.23419
9.06983
3.04371
1.85056
1.09474
0.447086
0.605585
9.51906
9.33191
8.74237
7.26983
4.98628
9.51889
9.33117
8.7403
7.26159
4.9577
2.96603
1.73364
1.07396
0.667319
0.103137
)
;
    }
    defaultFaces
    {
        type            empty;
    }
}


// ************************************************************************* //
