# Selection   : all
# Cells       : 440
# Volume      : 7.374263e+01
# Time        	max(p)
5.715         	2.387360e+00
5.76          	2.397866e+00
5.81          	2.393594e+00
