/*--------------------------------*- C++ -*----------------------------------*\
  =========                 |
  \\      /  F ield         | OpenFOAM: The Open Source CFD Toolbox
   \\    /   O peration     | Website:  https://openfoam.org
    \\  /    A nd           | Version:  13
     \\/     M anipulation  |
\*---------------------------------------------------------------------------*/
FoamFile
{
    format      ascii;
    class       volScalarField;
    location    "0.48";
    object      p;
}
// * * * * * * * * * * * * * * * * * * * * * * * * * * * * * * * * * * * * * //

dimensions      [0 2 -2 0 0 0 0];

internalField   nonuniform List<scalar> 
1800
(
-1.12796
-1.12058
-1.07894
-1.00077
-0.904278
-0.807418
-0.718615
-0.639588
-0.569579
-0.512195
-1.32428
-1.31584
-1.26756
-1.17835
-1.06956
-0.961109
-0.862025
-0.774338
-0.69831
-0.635806
-1.51117
-1.50124
-1.44559
-1.345
-1.22404
-1.10422
-0.994882
-0.897998
-0.813325
-0.741358
-1.68375
-1.67181
-1.6084
-1.49674
-1.36465
-1.23495
-1.11699
-1.01247
-0.920896
-0.842473
-1.83604
-1.82148
-1.74974
-1.62718
-1.48474
-1.34611
-1.22037
-1.10888
-1.01096
-0.926086
-1.96326
-1.94556
-1.86532
-1.73258
-1.58118
-1.43523
-1.30327
-1.18629
-1.08334
-0.993507
-2.06037
-2.03897
-1.95021
-1.80818
-1.64927
-1.49757
-1.36085
-1.2397
-1.13294
-1.03928
-2.12345
-2.09794
-2.00104
-1.85097
-1.6863
-1.53059
-1.39069
-1.26678
-1.15745
-1.06114
-2.14918
-2.11931
-2.01498
-1.85831
-1.68974
-1.53181
-1.39032
-1.26507
-1.15447
-1.05668
-2.13545
-2.10124
-1.9904
-1.82889
-1.65839
-1.49999
-1.35845
-1.2332
-1.12248
-1.02427
0.319782
0.32659
0.337458
0.350989
0.363379
0.372308
0.377328
0.37889
0.377675
0.37424
0.270976
0.277613
0.289253
0.304763
0.320001
0.332086
0.340199
0.344646
0.346081
0.345214
0.194337
0.200798
0.213636
0.232185
0.251776
0.268669
0.281484
0.290309
0.295764
0.298816
0.0912095
0.0976751
0.112146
0.134774
0.160157
0.183406
0.202409
0.216973
0.227679
0.235867
-0.036244
-0.029909
-0.0132369
0.0145259
0.0470562
0.0780681
0.104578
0.126061
0.143071
0.157434
-0.185907
-0.179106
-0.159846
-0.12598
-0.0850854
-0.0450963
-0.00997753
0.0193836
0.0435355
0.0648814
-0.353747
-0.347138
-0.324671
-0.28373
-0.233395
-0.183457
-0.138899
-0.100975
-0.0690977
-0.0402933
-0.536219
-0.52975
-0.503605
-0.454866
-0.394408
-0.333997
-0.279624
-0.232895
-0.193094
-0.156907
-0.728983
-0.722462
-0.692001
-0.634626
-0.563347
-0.491991
-0.427537
-0.371911
-0.324115
-0.281035
-0.927785
-0.92089
-0.885218
-0.81789
-0.734384
-0.650655
-0.574619
-0.508388
-0.450777
-0.400319
0.339575
0.27083
0.213211
0.168835
0.133563
0.104397
0.0787591
0.0551974
0.0327855
0.0109062
0.326862
0.264776
0.210561
0.16731
0.132402
0.103443
0.0779995
0.0546412
0.0324377
0.0107743
0.306177
0.254828
0.206247
0.165104
0.130972
0.102393
0.0772233
0.0540983
0.0321057
0.0106479
0.276977
0.241052
0.200241
0.162179
0.129254
0.101237
0.0764212
0.0535619
0.0317854
0.0105259
0.238519
0.223557
0.192516
0.158495
0.127229
0.099962
0.0755847
0.0530253
0.0314732
0.0104078
0.19002
0.202511
0.183056
0.154007
0.124872
0.0985584
0.0747063
0.052483
0.0311657
0.0102933
0.130858
0.178243
0.171963
0.1487
0.122163
0.0970164
0.0737791
0.051929
0.0308597
0.0101824
0.0598052
0.150608
0.159373
0.142607
0.119102
0.0953339
0.0728004
0.05136
0.0305534
0.0100756
-0.0249633
0.118055
0.144714
0.135467
0.115555
0.0934524
0.0717447
0.0507635
0.0302414
0.009974
-0.118186
0.0812833
0.128332
0.127392
0.111497
0.091333
0.0705857
0.0501228
0.0299141
0.00987754
-0.171826
0.0479143
0.109002
0.115902
0.10467
0.0871952
0.0680297
0.0485686
0.0290899
0.00966307
-0.187263
0.0141007
0.0820733
0.097911
0.0933567
0.0801184
0.0635792
0.0458377
0.0276107
0.00919892
-0.186182
-0.00644734
0.0629153
0.083281
0.0832439
0.0734483
0.0592712
0.0431604
0.0261451
0.0087348
-0.181768
-0.0240711
0.04527
0.0695265
0.0735578
0.0669739
0.0550597
0.0405328
0.024698
0.00827074
-0.173245
-0.0364304
0.0307507
0.0574331
0.0646855
0.0609011
0.0510615
0.0380211
0.0233049
0.00781941
-0.163899
-0.0456379
0.0185491
0.0468359
0.0566956
0.055334
0.047359
0.0356797
0.021995
0.00738986
-0.1558
-0.0527312
0.00833101
0.0376998
0.0496718
0.0503721
0.0440309
0.0335603
0.0207951
0.00698925
-0.150551
-0.0589386
-0.000366695
0.0299449
0.0436817
0.0461134
0.0411579
0.0317189
0.0197372
0.00663128
-0.146471
-0.0644028
-0.00792457
0.0233238
0.0386005
0.0425023
0.038714
0.0301381
0.0187965
0.00629291
-0.152638
-0.0705515
-0.013558
0.0190181
0.0354281
0.0402708
0.0372098
0.0291667
0.0182113
0.00608289
-0.858578
-0.890326
-0.898521
-0.88438
-0.849842
-0.797169
-0.730289
-0.649941
-0.563157
-0.469238
-0.680101
-0.711583
-0.724362
-0.719622
-0.698104
-0.662903
-0.61567
-0.558876
-0.497952
-0.433933
-0.544074
-0.575035
-0.59027
-0.591216
-0.577706
-0.553736
-0.518815
-0.47707
-0.430939
-0.381416
-0.439425
-0.469844
-0.486633
-0.491236
-0.483184
-0.466432
-0.43972
-0.407735
-0.371262
-0.332185
-0.360032
-0.389851
-0.407664
-0.414625
-0.410403
-0.398398
-0.377539
-0.352254
-0.322603
-0.290722
-0.299669
-0.329231
-0.347924
-0.356597
-0.3552
-0.346455
-0.329751
-0.308987
-0.28397
-0.256857
-0.255023
-0.284654
-0.304147
-0.314125
-0.31482
-0.308355
-0.294578
-0.276842
-0.255061
-0.231179
-0.223146
-0.253602
-0.274086
-0.285206
-0.287495
-0.282651
-0.27087
-0.255092
-0.235431
-0.213999
-0.207095
-0.23706
-0.258422
-0.27094
-0.274675
-0.27098
-0.260167
-0.244662
-0.224988
-0.201623
-0.195713
-0.228431
-0.252102
-0.267134
-0.273923
-0.27337
-0.266049
-0.253394
-0.235716
-0.212746
0.461097
0.408202
0.347151
0.281131
0.208356
0.126433
0.0350468
-0.0599173
-0.139766
-0.173656
0.267765
0.210586
0.145818
0.0736927
-0.00787873
-0.100773
-0.204647
-0.312494
-0.403133
-0.440728
0.0597907
-0.00204072
-0.0714967
-0.149556
-0.238379
-0.33977
-0.45324
-0.571227
-0.671434
-0.711247
-0.136599
-0.204977
-0.281646
-0.367832
-0.465545
-0.576578
-0.700231
-0.828214
-0.938734
-0.979172
-0.316969
-0.392857
-0.477662
-0.572804
-0.680305
-0.801974
-0.936707
-1.07456
-1.19517
-1.23446
-0.482845
-0.565629
-0.658007
-0.761619
-0.878543
-1.01054
-1.15651
-1.30457
-1.42975
-1.46901
-0.63357
-0.721901
-0.820622
-0.931514
-1.05665
-1.19766
-1.35286
-1.51254
-1.6346
-1.6761
-0.766012
-0.858626
-0.962406
-1.07917
-1.21093
-1.35912
-1.52353
-1.68516
-1.80797
-1.84982
-0.876306
-0.972279
-1.07996
-1.20118
-1.33803
-1.49189
-1.66035
-1.82405
-1.94477
-1.98573
-0.962859
-1.06084
-1.17083
-1.29488
-1.43494
-1.59212
-1.7626
-1.92658
-2.04293
-2.08111
1.63376
1.64783
1.66368
1.67954
1.69438
1.70758
1.71837
1.72626
1.73251
1.73766
1.58161
1.59366
1.60704
1.62006
1.63177
1.64152
1.64851
1.6525
1.6554
1.65877
1.50926
1.51848
1.52832
1.53728
1.5445
1.54927
1.5508
1.54915
1.54724
1.54809
1.41723
1.42292
1.42827
1.43204
1.43352
1.43193
1.42645
1.41756
1.40947
1.40713
1.30641
1.30803
1.30812
1.30576
1.30041
1.29123
1.27738
1.25982
1.24429
1.23816
1.17849
1.17568
1.16983
1.16044
1.14722
1.12925
1.1057
1.07815
1.05407
1.04373
1.03602
1.02855
1.01636
0.999339
0.977471
0.949769
0.915467
0.876803
0.84316
0.828269
0.885359
0.872449
0.852458
0.826194
0.794111
0.755162
0.708635
0.657545
0.613394
0.593812
0.732117
0.713719
0.685199
0.648587
0.605
0.55334
0.493048
0.428095
0.37238
0.347828
0.588712
0.555774
0.512163
0.461838
0.405057
0.339812
0.265368
0.186449
0.119146
0.0898882
1.4779
1.38849
1.49609
1.38242
1.41137
1.41682
1.42311
1.44772
1.49066
1.57567
1.47214
1.38337
1.49112
1.37649
1.40483
1.40878
1.41281
1.43379
1.47022
1.54176
1.46685
1.37834
1.48641
1.36992
1.39789
1.39999
1.40102
1.41721
1.44446
1.49612
1.462
1.37343
1.48197
1.36275
1.39061
1.39043
1.38774
1.39788
1.41338
1.4383
1.45759
1.36869
1.47778
1.35502
1.38302
1.38008
1.37293
1.37566
1.37695
1.36764
1.45376
1.36417
1.4738
1.34676
1.37517
1.3689
1.35657
1.3504
1.3351
1.28353
1.45026
1.35992
1.46998
1.33805
1.36709
1.35684
1.3386
1.32201
1.28749
1.18495
1.44722
1.35601
1.46619
1.329
1.3588
1.34386
1.31894
1.29036
1.23383
1.07402
1.44466
1.35253
1.46231
1.31981
1.3503
1.32997
1.2976
1.25525
1.17297
0.947851
1.44281
1.34962
1.4581
1.31069
1.3415
1.31524
1.27497
1.21816
1.10817
0.819442
1.44077
1.34638
1.45276
1.30199
1.32875
1.29645
1.24559
1.17107
1.03543
0.699687
1.44075
1.34267
1.44816
1.29394
1.31396
1.27627
1.21503
1.12604
0.97411
0.656695
1.44117
1.33974
1.44447
1.28641
1.30046
1.25756
1.18731
1.08739
0.925294
0.624675
1.44494
1.33805
1.44151
1.27972
1.28832
1.24061
1.16274
1.05485
0.885781
0.603171
1.45112
1.3377
1.43919
1.27401
1.27772
1.22576
1.14171
1.02813
0.85506
0.590626
1.46021
1.33873
1.43747
1.26932
1.2688
1.21323
1.12438
1.00687
0.83217
0.583972
1.47249
1.34075
1.43623
1.2656
1.26167
1.20315
1.11077
0.990665
0.815943
0.581473
1.49243
1.34493
1.43607
1.26286
1.25644
1.19564
1.10087
0.9792
0.805398
0.582421
1.50729
1.34461
1.43352
1.26078
1.2533
1.19076
1.09473
0.972318
0.799518
0.58647
1.56064
1.35466
1.43566
1.25819
1.25289
1.18819
1.09186
0.968951
0.79713
0.589079
0.434358
0.268797
0.0875747
-0.081186
-0.235177
-0.378142
-0.509993
-0.627284
-0.726072
-0.803373
0.375695
0.248384
0.109598
-0.0240409
-0.148904
-0.266511
-0.376412
-0.475566
-0.560997
-0.630061
0.351066
0.248318
0.138333
0.0273387
-0.0793067
-0.180321
-0.275146
-0.361487
-0.43656
-0.49808
0.348599
0.258163
0.164645
0.0689049
-0.0244228
-0.112882
-0.196126
-0.272624
-0.339892
-0.395927
0.355869
0.273153
0.190529
0.105981
0.0221887
-0.0579631
-0.133703
-0.203795
-0.266081
-0.318679
0.367434
0.290134
0.214497
0.137305
0.0598797
-0.0147192
-0.0853258
-0.150908
-0.209609
-0.259634
0.379919
0.306609
0.235655
0.16334
0.0901826
0.0192708
-0.0479872
-0.110652
-0.167076
-0.215611
0.392121
0.321385
0.253499
0.184166
0.11352
0.0447549
-0.0205682
-0.081546
-0.136602
-0.184131
0.406397
0.337364
0.270548
0.201683
0.131277
0.0626065
-0.00273012
-0.0638131
-0.119209
-0.167396
0.419937
0.354441
0.288366
0.218948
0.148385
0.0794582
0.0134466
-0.0485235
-0.104934
-0.154353
-3.22284
-3.16484
-3.01046
-2.81173
-2.6166
-2.44517
-2.30034
-2.18033
-2.08388
-2.01121
-3.30314
-3.25563
-3.11691
-2.92514
-2.72969
-2.55534
-2.40734
-2.2845
-2.18614
-2.11367
-3.28258
-3.24596
-3.12468
-2.9417
-2.74617
-2.56814
-2.41616
-2.28982
-2.18826
-2.11263
-3.16596
-3.13961
-3.03574
-2.86245
-2.66697
-2.48454
-2.32755
-2.19687
-2.09134
-2.01047
-2.9624
-2.94508
-2.85706
-2.6944
-2.50042
-2.31443
-2.15268
-2.01765
-1.90822
-1.8224
-2.68452
-2.6744
-2.59976
-2.44931
-2.26068
-2.07488
-1.9112
-1.77383
-1.66203
-1.57439
-2.35061
-2.34497
-2.28142
-2.14562
-1.96862
-1.78995
-1.63019
-1.49515
-1.38407
-1.29789
-1.98446
-1.98003
-1.92555
-1.80659
-1.64772
-1.4841
-1.33557
-1.20876
-1.10354
-1.02251
-1.61183
-1.60679
-1.56032
-1.45966
-1.32381
-1.18203
-1.05184
-0.939768
-0.845998
-0.777073
-1.25471
-1.2493
-1.20991
-1.12702
-1.01531
-0.897842
-0.788875
-0.69384
-0.611348
-0.548297
-0.930018
-0.923231
-0.890427
-0.823823
-0.735243
-0.642567
-0.557165
-0.483861
-0.421596
-0.367848
-0.644175
-0.636889
-0.609745
-0.556824
-0.487811
-0.416291
-0.350808
-0.294839
-0.247993
-0.205366
-0.398295
-0.390953
-0.368435
-0.326442
-0.272988
-0.218333
-0.168725
-0.126447
-0.0913481
-0.0589766
-0.191022
-0.183766
-0.164985
-0.131849
-0.0910652
-0.0503421
-0.0141071
0.0162568
0.0410067
0.0634759
-0.0203109
-0.0132268
0.00261948
0.0286778
0.0592964
0.0887437
0.114026
0.134436
0.150393
0.164192
0.115877
0.122685
0.136369
0.157026
0.179844
0.200583
0.217338
0.229898
0.238803
0.245585
0.218947
0.225661
0.237806
0.25455
0.271686
0.28605
0.296518
0.303232
0.30681
0.308285
0.290024
0.296826
0.307953
0.32212
0.335498
0.345621
0.351882
0.354651
0.354597
0.352443
0.330046
0.336933
0.34753
0.360354
0.371758
0.379636
0.383641
0.384282
0.382251
0.378099
0.339738
0.346634
0.35715
0.369774
0.380864
0.388358
0.391993
0.392265
0.389874
0.385325
-0.050602
0.117657
0.150648
0.148349
0.132879
0.111416
0.0876638
0.0630452
0.0380371
0.0127742
0.0545245
0.153167
0.165163
0.154303
0.13402
0.110774
0.0865214
0.0619706
0.0373053
0.0125229
0.138438
0.181597
0.176697
0.158138
0.134751
0.110111
0.0854516
0.0609759
0.03663
0.0122894
0.201678
0.205279
0.186744
0.161789
0.135321
0.109466
0.0844589
0.0600584
0.0360077
0.0120728
0.250277
0.225669
0.195371
0.16473
0.135683
0.108822
0.0835306
0.0592104
0.0354338
0.0118713
0.287199
0.24263
0.202337
0.166982
0.135849
0.108172
0.0826578
0.0584252
0.0349046
0.0116836
0.314081
0.255945
0.207686
0.168595
0.135819
0.107505
0.0818299
0.057696
0.034416
0.0115084
0.332156
0.265534
0.211453
0.169584
0.135586
0.106808
0.0810367
0.0570158
0.033964
0.0113443
0.34221
0.2712
0.213635
0.169956
0.13514
0.106066
0.0802674
0.0563774
0.0335444
0.01119
0.34465
0.272969
0.214227
0.16971
0.13447
0.105267
0.0795117
0.0557737
0.033153
0.0110444
-0.26452
-0.00706087
0.0904889
0.12094
0.122024
0.108136
0.0874973
0.0639131
0.0389681
0.0131997
-0.240652
0.0155069
0.0996872
0.12494
0.123187
0.108417
0.0874773
0.0637991
0.0388441
0.0131434
-0.201226
0.033356
0.108315
0.128893
0.1249
0.108971
0.0875331
0.0636831
0.0387019
0.0130752
-0.159948
0.0568663
0.120086
0.134435
0.127332
0.109878
0.0877413
0.0636279
0.0385868
0.0130167
-0.116001
0.087682
0.136537
0.142417
0.13078
0.111102
0.0880848
0.0636274
0.0384968
0.0129679
-1.9462
-2.04613
-2.05566
-1.97823
-1.82234
-1.62508
-1.38039
-1.14884
-0.909602
-0.689536
-1.94362
-2.04098
-2.04518
-1.96233
-1.80358
-1.60381
-1.35649
-1.11889
-0.885643
-0.663792
-1.94565
-2.04308
-2.04363
-1.95433
-1.78815
-1.57602
-1.32106
-1.06708
-0.83102
-0.622204
-1.9554
-2.05489
-2.05334
-1.95652
-1.779
-1.54778
-1.28214
-1.01576
-0.782902
-0.586448
-1.974
-2.07591
-2.07243
-1.9682
-1.77885
-1.53151
-1.25638
-0.98441
-0.745987
-0.537256
1.04977
1.02742
0.99686
0.961307
0.921077
0.874206
0.81935
0.759666
0.708467
0.684719
1.18024
1.1734
1.15863
1.13772
1.11172
1.0795
1.04012
0.996158
0.958475
0.941526
1.30607
1.30449
1.29783
1.28682
1.2719
1.2521
1.22645
1.19673
1.17125
1.16042
1.41672
1.42009
1.42078
1.41853
1.41321
1.40394
1.38983
1.37197
1.35651
1.35071
1.50999
1.51725
1.52339
1.5277
1.52975
1.52872
1.52374
1.51536
1.50806
1.50652
1.58298
1.59352
1.60418
1.61386
1.62187
1.62747
1.62982
1.62902
1.62811
1.62986
1.63503
1.64807
1.66212
1.67579
1.68822
1.69872
1.7065
1.7113
1.71511
1.71926
1.66608
1.68076
1.69707
1.71337
1.72871
1.74243
1.75377
1.76223
1.76909
1.77476
1.67616
1.69157
1.70892
1.72646
1.74316
1.75839
1.7714
1.78159
1.78985
1.79618
1.66536
1.68056
1.69775
1.71513
1.73164
1.74669
1.7595
1.76949
1.77754
1.78369
-1.8148
-1.88994
-1.9856
-2.1029
-2.24443
-2.41261
-2.6063
-2.80895
-2.97584
-3.04231
-1.54108
-1.61885
-1.7142
-1.82883
-1.96638
-2.12941
-2.31757
-2.52312
-2.69863
-2.76872
-1.21245
-1.29117
-1.38584
-1.49782
-1.63075
-1.78755
-1.96843
-2.16263
-2.34784
-2.41741
-0.852225
-0.93089
-1.02424
-1.13289
-1.25994
-1.40839
-1.57893
-1.76409
-1.93881
-2.01306
-0.485904
-0.56439
-0.655314
-0.75894
-0.87814
-1.0161
-1.17431
-1.34598
-1.50318
-1.57524
-0.141589
-0.216933
-0.30215
-0.397408
-0.505589
-0.629976
-0.772211
-0.925928
-1.06424
-1.12987
0.165347
0.0982308
0.0230806
-0.0602025
-0.154505
-0.262999
-0.387159
-0.52102
-0.63992
-0.69706
0.440441
0.384375
0.321308
0.251255
0.171284
0.0784726
-0.0282224
-0.143067
-0.243636
-0.29193
0.698722
0.651701
0.597556
0.537471
0.468722
0.388715
0.296845
0.198616
0.11412
0.0740785
0.925433
0.883987
0.834084
0.780515
0.721461
0.654353
0.578238
0.497565
0.42912
0.397216
1.57126
1.4393
1.54346
1.40043
1.45449
1.45218
1.44809
1.44715
1.40944
1.24611
1.55758
1.43476
1.541
1.4018
1.45172
1.45255
1.4505
1.45769
1.4413
1.33211
1.54523
1.42993
1.53753
1.4027
1.44864
1.45213
1.45332
1.46754
1.46905
1.41788
1.53407
1.4249
1.53326
1.40297
1.44527
1.4508
1.45445
1.47416
1.48996
1.48379
1.52391
1.41976
1.52841
1.40248
1.4416
1.44852
1.45419
1.47811
1.50517
1.53541
1.5146
1.41456
1.52318
1.40117
1.43758
1.44531
1.45258
1.47943
1.51525
1.57278
1.50605
1.40933
1.51773
1.399
1.4332
1.44124
1.44957
1.47813
1.52047
1.59702
1.49816
1.4041
1.51219
1.39601
1.4284
1.43632
1.44514
1.47429
1.52074
1.60899
1.49087
1.39887
1.50668
1.39222
1.42317
1.4306
1.43927
1.46794
1.51585
1.60927
1.48413
1.39366
1.5013
1.38768
1.41749
1.42409
1.43193
1.45909
1.50585
1.59814
1.7053
1.45509
1.54983
1.39803
1.45684
1.44525
1.42903
1.40158
1.31106
1.10088
1.64968
1.44891
1.54779
1.40022
1.4557
1.44675
1.43047
1.4049
1.31787
1.10558
1.62836
1.45019
1.54841
1.401
1.45576
1.44798
1.43336
1.41128
1.33162
1.11637
1.60554
1.44749
1.54707
1.40093
1.45583
1.44929
1.43737
1.42047
1.35028
1.13766
1.58676
1.44361
1.54529
1.40018
1.45581
1.45057
1.44188
1.43185
1.37404
1.16106
0.744514
0.588983
0.383328
0.113763
-0.205375
-0.546745
-0.886446
-1.21342
-1.51478
-1.76548
0.744184
0.589637
0.391205
0.13169
-0.178415
-0.517388
-0.861789
-1.19574
-1.50383
-1.76054
0.763883
0.60485
0.40401
0.151269
-0.151055
-0.490235
-0.842055
-1.18372
-1.49775
-1.75957
0.814523
0.636903
0.422007
0.169519
-0.128408
-0.468299
-0.827294
-1.17725
-1.4975
-1.76479
0.893138
0.686776
0.447692
0.186195
-0.113117
-0.454251
-0.818287
-1.17568
-1.50314
-1.7775
)
;

boundaryField
{
    left
    {
        type            zeroGradient;
    }
    right
    {
        type            fixedValue;
        value           uniform 0;
    }
    down
    {
        type            zeroGradient;
    }
    up
    {
        type            zeroGradient;
    }
    cylinder
    {
        type            zeroGradient;
    }
    defaultFaces
    {
        type            empty;
    }
}


// ************************************************************************* //
