/*--------------------------------*- C++ -*----------------------------------*\
  =========                 |
  \\      /  F ield         | OpenFOAM: The Open Source CFD Toolbox
   \\    /   O peration     | Website:  https://openfoam.org
    \\  /    A nd           | Version:  13
     \\/     M anipulation  |
\*---------------------------------------------------------------------------*/
FoamFile
{
    format      ascii;
    class       surfaceScalarField;
    location    "2.1";
    object      phi;
}
// * * * * * * * * * * * * * * * * * * * * * * * * * * * * * * * * * * * * * //

dimensions      [0 3 -1 0 0 0 0];

internalField   nonuniform List<scalar> 
3485
(
-0.000429839
0.00478021
-0.00435037
0.00121071
0.00892709
-0.0105676
0.006643
0.00803908
-0.0134714
0.0170094
0.00206075
-0.0124272
0.0330774
-0.0088687
-0.00719925
0.0552155
-0.0242793
0.00214113
0.0832863
-0.0431889
0.0151181
0.116526
-0.0642814
0.0310417
0.153615
-0.08648
0.0493913
-0.103704
0.0660856
0.191233
7.65616e-05
0.00470365
0.00299642
0.00600723
0.0108146
0.000220942
0.0248448
-0.0119695
0.0457535
-0.0297774
0.0731568
-0.0516826
0.105624
-0.0756563
0.140934
-0.0995914
0.175985
-0.121531
-0.13968
0.211961
0.000979759
0.00372389
0.00633419
0.000652794
0.0179356
-0.0113805
0.0368883
-0.0309221
0.0628832
-0.0557723
0.0941702
-0.0829696
0.127979
-0.109465
0.161234
-0.132846
0.191472
-0.151769
-0.166174
0.217967
0.00202706
0.00169683
0.0102107
-0.00753084
0.0260716
-0.0272414
0.0496256
-0.0544761
0.0789684
-0.0851151
0.110822
-0.114823
0.141697
-0.14034
0.16892
-0.160069
0.191043
-0.173892
-0.18262
0.207489
0.00320174
-0.00150491
0.0143756
-0.0187047
0.0340925
-0.0469583
0.0606143
-0.080998
0.0902491
-0.11475
0.118951
-0.143525
0.143763
-0.165153
0.163353
-0.179659
0.177763
-0.188302
-0.193078
0.188221
0.0044506
-0.0059555
0.0183848
-0.032639
0.0406789
-0.0692523
0.0675487
-0.107868
0.0942868
-0.141488
0.117393
-0.166631
0.13536
-0.183119
0.148324
-0.192624
0.157352
-0.19733
-0.199025
0.1633
0.00566375
-0.0116193
0.0216116
-0.0485868
0.0445389
-0.0921796
0.0691584
-0.132487
0.0910505
-0.16338
0.108104
-0.183685
0.120236
-0.195251
0.128445
-0.200833
0.133911
-0.202796
-0.202861
0.137746
0.0066446
-0.0182639
0.0234404
-0.0653826
0.0450154
-0.113755
0.0657296
-0.153202
0.0823227
-0.179973
0.0940671
-0.195429
0.101727
-0.202911
0.106506
-0.205613
0.109476
-0.205766
-0.204586
0.111202
0.00724034
-0.0255042
0.0235933
-0.0817356
0.0423814
-0.132543
0.0586206
-0.169441
0.0703632
-0.191716
0.0778397
-0.202906
0.0821755
-0.207247
0.084536
-0.207973
0.085738
-0.206968
-0.205106
0.0862582
0.00736887
-0.0328731
0.0221804
-0.0965471
0.0374738
-0.147836
0.0493447
-0.181312
0.0569358
-0.199307
0.0610101
-0.20698
0.0627491
-0.208986
0.0631246
-0.208349
0.0627262
-0.206569
0.061754
-0.204134
-0.00501971
0.0188094
-0.0137896
-0.0153967
0.0348059
-0.0244289
-0.0280857
0.0393493
-0.0266603
-0.0414115
0.0385635
-0.0252377
-0.0545905
0.0356468
-0.0224678
-0.0672815
0.0319066
-0.0192156
-0.0792971
0.0277082
-0.0156925
-0.090471
0.0230698
-0.0118959
-0.10061
0.0179386
-0.00779973
0.012373
-0.109515
-0.00346806
-0.00335836
0.0221677
-0.0113607
0.0428082
-0.02182
0.0498086
-0.0331797
0.0499232
-0.0445437
0.0470108
-0.0554576
0.0428205
-0.0656788
0.0379294
-0.0750324
0.0324233
-0.083335
0.0262411
0.0193497
-0.0903117
-0.00101804
0.0231857
-0.00535546
0.0471457
-0.0121982
0.0566513
-0.0202956
0.0580206
-0.0286297
0.0553449
-0.0365672
0.050758
-0.0437518
0.045114
-0.0499686
0.0386401
-0.0550561
0.0313286
0.0230015
-0.0587079
0.00150647
0.0216793
0.00169752
0.0469546
-0.000437867
0.0587867
-0.00417304
0.0617557
-0.00848141
0.0596533
-0.0125378
0.0548144
-0.0158018
0.048378
-0.0179402
0.0407786
-0.0187277
0.0321161
0.022006
-0.0177322
0.00361556
0.0180637
0.00831216
0.042258
0.0115329
0.055566
0.0130014
0.0602872
0.0134223
0.0592323
0.0136627
0.0545741
0.0144097
0.0476309
0.0161265
0.0390618
0.0191485
0.0290941
0.0175208
0.0236337
0.00469181
0.0133719
0.0127586
0.0341912
0.0207888
0.0475358
0.0275457
0.0535303
0.0330684
0.0537096
0.0379021
0.0497404
0.042641
0.0428921
0.0477539
0.0339488
0.0535759
0.0232721
0.010741
0.0603557
0.00443983
0.00893208
0.0135341
0.025097
0.0242315
0.0368384
0.0348223
0.0429395
0.0446975
0.0438344
0.0538792
0.0405587
0.0626389
0.0341323
0.0712824
0.0253054
0.0800948
0.0144597
0.00122389
0.0896119
0.0031303
0.00580178
0.0107272
0.0175001
0.0209841
0.0265815
0.0324579
0.0314657
0.0443204
0.0319719
0.0562731
0.028606
0.0683679
0.0220375
0.0808304
0.0128429
0.0938433
0.00144682
-0.0140226
0.10909
0.00141117
0.00439061
0.00612208
0.0127892
0.0138214
0.0188821
0.0238917
0.0213954
0.0358786
0.019985
0.0496736
0.014811
0.0654619
0.00624918
0.0835798
-0.00527496
0.104352
-0.0193256
-0.0372463
0.127576
4.02437e-05
0.00226179
0.00767257
0.0166408
0.0294266
0.0463787
0.067746
0.0935127
0.123578
0.152418
-0.0894321
-0.185927
0.165844
0.0110905
-0.36343
0.262908
0.0959405
-0.290356
0.205506
0.148788
-0.217235
0.164388
0.179986
-0.1598
0.128602
0.196969
-0.11397
0.0969874
0.20576
-0.0863583
0.077567
0.209637
-0.0593964
0.0555193
0.211268
-0.0489067
0.0472758
-0.0322896
0.0324517
-0.068634
-0.207604
0.0197715
-0.451836
0.10078
-0.371364
0.151436
-0.267891
0.181492
-0.189856
0.197974
-0.130452
0.206526
-0.0949108
0.210298
-0.0631683
0.211857
-0.0504654
-0.032117
-0.0324415
-0.233871
0.0387135
-0.522991
0.109895
-0.442546
0.155921
-0.313917
0.183556
-0.217491
0.19901
-0.145906
0.207161
-0.103061
0.21083
-0.0668381
0.212385
-0.0520199
-0.0320438
0.0128537
-0.264457
0.0658511
-0.575988
0.123595
-0.50029
0.162669
-0.35299
0.186483
-0.241305
0.200222
-0.159645
0.207713
-0.110552
0.211246
-0.0703704
0.21285
-0.0536246
-0.0321759
0.0567841
-0.297607
0.0958332
-0.615037
0.139761
-0.544218
0.170958
-0.384188
0.190208
-0.260555
0.201676
-0.171113
0.208232
-0.117108
0.211561
-0.0737
0.213254
-0.0553172
-0.032613
0.09786
-0.335111
0.123979
-0.641156
0.154946
-0.575185
0.179115
-0.408357
0.194137
-0.275577
0.203252
-0.180228
0.208722
-0.122578
0.211793
-0.0767711
0.213599
-0.0571234
-0.0334474
0.13071
-0.376209
0.147454
-0.657901
0.167193
-0.594923
0.185499
-0.426663
0.197346
-0.287424
0.204596
-0.187479
0.209098
-0.127079
0.211934
-0.0796076
0.213888
-0.059077
-0.0347672
0.154544
-0.421663
0.165103
-0.66846
0.175822
-0.605643
0.189321
-0.440162
0.199061
-0.297163
0.205235
-0.193653
0.209166
-0.13101
0.211931
-0.0823733
0.214109
-0.0612543
-0.0366662
0.170575
-0.464662
0.176726
-0.674611
0.180878
-0.609794
0.190584
-0.449869
0.198984
-0.305563
0.204789
-0.199459
0.208671
-0.134891
0.211667
-0.0853692
0.214217
-0.0638041
-0.0392603
0.182256
-0.4945
0.183443
-0.675798
0.18323
-0.609581
0.190017
-0.456655
0.197422
-0.312968
0.203186
-0.205223
0.207418
-0.139123
0.21099
-0.0889406
0.214136
-0.0669502
-0.0426969
0.616764
-0.51411
-0.597154
0.558085
-0.617119
0.481586
-0.533082
0.423615
-0.398685
0.386758
-0.276111
0.364598
-0.183063
0.350744
-0.12527
0.342365
-0.080561
0.336496
-0.0610816
-0.0393835
0.652192
-0.45462
-0.711682
0.558581
-0.523509
0.479917
-0.454419
0.425852
-0.344619
0.391279
-0.241537
0.369047
-0.160831
0.354231
-0.110453
0.344908
-0.0712386
0.338165
-0.054339
-0.0354215
0.656425
-0.385751
-0.725293
0.579309
-0.446393
0.512228
-0.387337
0.454918
-0.287309
0.411525
-0.198145
0.38154
-0.130846
0.361425
-0.0903382
0.348985
-0.0587986
0.340347
-0.0457014
-0.0305062
0.650935
-0.327582
-0.709105
0.579886
-0.375344
0.512481
-0.319932
0.455528
-0.230357
0.413284
-0.1559
0.384179
-0.101741
0.364043
-0.0702031
0.351082
-0.0458372
0.341711
-0.0363304
-0.0249979
0.645654
-0.281816
-0.69142
0.585876
-0.315566
0.523059
-0.257115
0.46518
-0.172477
0.419886
-0.110606
0.388293
-0.0701481
0.366567
-0.0484761
0.352651
-0.0319216
0.342581
-0.0262607
-0.0190086
0.640659
-0.244871
-0.677603
0.584296
-0.259203
0.521101
-0.193921
0.463175
-0.11455
0.418098
-0.0655294
0.386948
-0.0389975
0.365611
-0.0271394
0.351928
-0.0182388
0.341892
-0.0162243
-0.0128787
0.626267
-0.20686
-0.664278
0.565151
-0.198087
0.499641
-0.12841
0.444222
-0.0591317
0.40321
-0.0245171
0.375833
-0.0116211
0.357294
-0.00860027
0.345415
-0.00635935
0.336465
-0.00727433
-0.00715098
0.572624
-0.150506
-0.628978
0.498208
-0.12367
0.432826
-0.0630281
0.387841
-0.014147
0.358998
0.00432613
0.341232
0.00614423
0.329339
0.00329361
0.32165
0.00132927
0.315399
-0.00102344
-0.00267788
0.417014
-0.0676309
-0.49989
0.336039
-0.0426952
0.285563
-0.0125523
0.265066
0.00635054
0.2586
0.0107919
0.256436
0.00830858
0.254675
0.005054
0.253194
0.00281112
0.25104
0.00113016
-0.000303234
0.124821
-0.192452
0.082126
0.0695737
0.0759242
0.0867161
0.0950247
0.100079
0.10289
0.10402
0.556151
0.0508659
-0.545262
0.567574
0.0748347
0.582231
0.0965446
0.597684
0.122293
0.615761
0.145223
0.634462
0.16952
0.648954
0.192996
0.657086
0.209835
0.636236
0.232811
0.230314
0.534389
0.0407807
-0.524304
0.54698
0.0622432
0.561805
0.0817201
0.580126
0.103972
0.600757
0.124592
0.624894
0.145383
0.650378
0.167513
0.675215
0.184998
0.700765
0.207262
0.219397
0.518983
0.032144
-0.510346
0.531256
0.04997
0.545036
0.0679404
0.562879
0.0861291
0.58281
0.104661
0.606107
0.122085
0.63278
0.14084
0.660941
0.156837
0.693866
0.174337
0.18797
0.506471
0.0241366
-0.498464
0.517839
0.0386019
0.531186
0.0545935
0.547991
0.0693236
0.567208
0.085445
0.589554
0.0997382
0.6151
0.115295
0.643374
0.128564
0.675211
0.142499
0.154076
0.495401
0.0164202
-0.487685
0.505949
0.028054
0.519153
0.0413893
0.535254
0.0532227
0.554224
0.0664748
0.576027
0.0779361
0.600895
0.0904261
0.628419
0.10104
0.658817
0.112101
0.121472
0.485319
0.00905604
-0.477955
0.495351
0.0180223
0.508351
0.028389
0.524094
0.03748
0.542919
0.0476497
0.564434
0.0564208
0.589002
0.0658579
0.616028
0.0740139
0.645804
0.0823259
0.0896727
0.473578
0.00233114
-0.466853
0.483086
0.00851382
0.495638
0.0158373
0.511058
0.0220595
0.529594
0.029114
0.55097
0.0350453
0.575386
0.0414418
0.602421
0.0469791
0.632331
0.0524158
0.0577248
0.449104
-0.00293946
-0.443833
0.457089
0.000528985
0.46815
0.00477629
0.482114
0.00809507
0.499228
0.0119995
0.519322
0.0149517
0.54241
0.0183538
0.568468
0.0209216
0.597287
0.0235966
0.0260331
0.377876
-0.00418692
-0.376629
0.381319
-0.00291379
0.387605
-0.00150944
0.39623
-0.00053022
0.407592
0.000637295
0.42121
0.00133423
0.437374
0.00219015
0.455813
0.00248264
0.476448
0.0029616
0.00259094
0.185209
-0.189396
0.182295
0.180785
0.180255
0.180892
0.182227
0.184417
0.186899
0.189861
0.0747264
0.14826
-0.136397
-0.0865893
0.0638062
0.150431
-0.13951
0.0537179
0.153045
-0.142957
0.0439232
0.156573
-0.146778
0.034153
0.160378
-0.150608
0.024474
0.163379
-0.1537
0.0152806
0.162944
-0.15375
0.00737056
0.153149
-0.145239
0.00190814
0.123319
-0.117856
0.0586207
-0.0567125
0.071524
0.158939
-0.0822033
0.0609714
0.160983
0.0507438
0.163273
0.0408572
0.16646
0.0311954
0.17004
0.0218314
0.172743
0.0131755
0.1716
0.00601919
0.160305
0.00137651
0.127961
0.0599972
0.0646542
0.168311
-0.0740258
0.0549027
0.170735
0.0452196
0.172956
0.0358098
0.17587
0.0267023
0.179147
0.0180351
0.18141
0.0102488
0.179386
0.00414023
0.166414
0.000609074
0.131492
0.0606063
0.0542337
0.176417
-0.0623399
0.0457171
0.179251
0.0370731
0.1816
0.0285663
0.184376
0.020363
0.18735
0.0127047
0.189068
0.00614064
0.18595
0.00143799
0.171116
-0.000426675
0.133357
0.0601796
0.0419891
0.183495
-0.0490678
0.0346371
0.186603
0.0271174
0.18912
0.0196655
0.191828
0.0125367
0.194479
0.00611154
0.195493
0.000981969
0.19108
-0.00170295
0.173801
-0.00162928
0.133283
0.0585503
0.0279424
0.189473
-0.0339202
0.0218054
0.19274
0.0155174
0.195407
0.0092943
0.198051
0.00345378
0.20032
-0.00148178
0.200429
-0.00457703
0.194175
-0.00513266
0.174357
-0.00288701
0.131038
0.0556633
0.0130376
0.194629
-0.0181936
0.00788879
0.197889
0.00273485
0.200561
-0.00222748
0.203014
-0.00660384
0.204696
-0.00973856
0.203564
-0.0107767
0.195213
-0.00881563
0.172396
-0.0041328
0.126355
0.0515305
-0.00342134
0.198962
-0.000911589
-0.00752034
0.201988
-0.0114663
0.204507
-0.0150546
0.206602
-0.0178158
0.207457
-0.0189567
0.204705
-0.0174476
0.193704
-0.0125922
0.16754
-0.00530768
0.11907
0.0462228
-0.021504
0.202151
0.0183153
-0.0244421
0.204926
-0.0271038
0.207169
-0.0291892
0.208687
-0.0300829
0.208351
-0.0288284
0.20345
-0.02436
0.189236
-0.016275
0.159455
-0.00631325
0.109109
0.0399096
-0.041535
0.0395515
-0.0431779
-0.0443575
-0.0446557
-0.0432847
-0.0391412
-0.0312171
-0.019598
-0.0070365
0.105926
0.0387248
-0.117768
-0.0268834
0.0938223
0.039817
-0.027713
0.0814425
0.0409959
-0.0286161
0.0687615
0.0422632
-0.0295822
0.055762
0.0436016
-0.030602
0.0424701
0.0448748
-0.0315828
0.0290725
0.0455458
-0.0321483
0.0162015
0.0440808
-0.0312097
0.00544464
0.0371304
-0.0263735
0.0189805
-0.0135359
0.105505
0.0506247
-0.117405
0.0934144
0.051908
0.0810614
0.0533489
0.068418
0.0549066
0.0554606
0.0565589
0.0422123
0.0581231
0.0288632
0.0588949
0.0160534
0.0568905
0.00537412
0.0478096
0.0243546
0.10474
0.0624638
-0.116579
0.0926576
0.0639899
0.0803327
0.0656738
0.0677395
0.0674999
0.0548574
0.069441
0.0417064
0.0712741
0.0284733
0.072128
0.0158004
0.0695635
0.0052686
0.0583414
0.0296232
0.103192
0.0743522
-0.115081
0.0911915
0.0759908
0.0789456
0.0779197
0.06643
0.0800155
0.0536391
0.0822319
0.0406214
0.0842919
0.0275916
0.0851578
0.0152045
0.0819505
0.00501403
0.0685319
0.0346372
0.101105
0.0860739
-0.112827
0.0892507
0.0878455
0.0772337
0.0899367
0.0649875
0.0922617
0.0524618
0.0947576
0.0396824
0.0970713
0.0268789
0.0979612
0.0147421
0.0940874
0.00482985
0.0784442
0.0394671
0.0978414
0.09786
-0.109628
0.086057
0.0996299
0.0741149
0.101879
0.0620267
0.10435
0.0497847
0.106999
0.0374146
0.109442
0.0251296
0.110246
0.0136073
0.10561
0.00435546
0.087696
0.0438225
0.0942484
0.109058
-0.105447
0.0830634
0.110815
0.071688
0.113254
0.0600214
0.116017
0.0480703
0.118951
0.0359466
0.121565
0.0239545
0.122238
0.0128262
0.116738
0.00403847
0.0964838
0.047861
0.0874451
0.120112
-0.0984987
0.076614
0.121646
0.0658309
0.124037
0.0549693
0.126878
0.0439105
0.130009
0.032676
0.1328
0.021562
0.133352
0.0113343
0.126966
0.00344044
0.104378
0.0513015
0.0830856
0.129463
-0.0924364
0.0733293
0.131402
0.062983
0.134384
0.0522737
0.137588
0.0413687
0.140914
0.0304171
0.143751
0.0197588
0.144011
0.0101621
0.136562
0.00297938
0.11156
0.0542808
0.0726577
-0.0795917
0.0645496
0.0559765
0.0467856
0.0370921
0.0271437
0.0174038
0.00872748
0.00243171
0.201473
0.00943278
-0.0129163
0.205119
0.0234106
-0.0270559
0.20872
0.0349497
-0.038551
0.212052
0.0564272
-0.0597595
0.212804
0.0733222
-0.0740738
0.211246
0.0985661
-0.0970079
0.204832
0.120733
-0.114319
0.192044
0.146867
-0.134079
0.166718
0.197164
-0.171838
0.254721
-0.205771
0.201146
0.00627651
0.204473
0.0200839
0.207778
0.0316441
0.210768
0.0534379
0.211537
0.0725527
0.209643
0.10046
0.203504
0.126872
0.190455
0.159916
0.165287
0.222333
0.302602
0.200744
0.00352201
0.203674
0.017154
0.206644
0.0286745
0.209094
0.0509875
0.20981
0.0718369
0.207244
0.103026
0.201355
0.132761
0.187714
0.173557
0.163105
0.246942
0.349128
0.200262
0.00124945
0.202723
0.0146937
0.205295
0.0261019
0.207037
0.049246
0.207629
0.0712447
0.204037
0.106618
0.198463
0.138335
0.183614
0.188406
0.160222
0.270334
0.394269
0.199697
-0.000457257
0.201624
0.0127663
0.203711
0.024015
0.20461
0.0483469
0.204987
0.0708678
0.200128
0.111477
0.194887
0.143576
0.178494
0.2048
0.156593
0.292235
0.438035
0.199045
-0.00151275
0.200388
0.0114236
0.201871
0.0225321
0.201848
0.0483694
0.201858
0.0708579
0.195618
0.117717
0.190657
0.148538
0.172335
0.223122
0.152464
0.312105
0.480871
0.19831
-0.00183262
0.199025
0.0107085
0.199762
0.021795
0.198802
0.0493295
0.198196
0.0714639
0.190599
0.125314
0.185565
0.153572
0.165586
0.2431
0.147272
0.33042
0.522696
0.197492
-0.00133531
0.197542
0.0106593
0.197383
0.0219541
0.195497
0.051215
0.193989
0.0729723
0.185073
0.13423
0.179719
0.158925
0.157485
0.265334
0.141731
0.346175
0.565928
0.196597
5.79476e-05
0.195944
0.0113122
0.194746
0.023152
0.191959
0.0540012
0.189211
0.0757212
0.179244
0.144197
0.173109
0.16506
0.150545
0.287898
0.135229
0.361491
0.608721
0.195661
0.00238655
0.194194
0.0127791
0.191919
0.0254269
0.188126
0.0577951
0.183908
0.0799388
0.172535
0.15557
0.164726
0.17287
0.140324
0.312299
0.129248
0.372567
0.658377
0.304762
-0.000365104
0.309783
0.00775778
0.315584
0.0196257
0.320932
0.0524476
0.331584
0.069287
0.3331
0.154054
0.354085
0.151884
0.359391
0.306993
0.40995
0.322008
0.587581
0.480746
0.30527
-0.00362465
0.311456
0.00157149
0.317735
0.0133462
0.325064
0.0451194
0.336087
0.0582642
0.341033
0.149107
0.364719
0.128198
0.379804
0.291909
0.427533
0.274279
0.521705
0.493409
0.306
-0.00761459
0.313452
-0.00588084
0.320418
0.00638082
0.329904
0.0356328
0.339604
0.0485643
0.349214
0.139498
0.373225
0.104187
0.394965
0.270169
0.437124
0.232119
0.451606
0.507224
0.307038
-0.012642
0.315772
-0.0146156
0.324077
-0.00192336
0.334869
0.0248404
0.343299
0.0401345
0.357151
0.125645
0.379164
0.0821742
0.405763
0.243569
0.444731
0.193152
0.377628
0.518708
0.308411
-0.0190432
0.318645
-0.0248492
0.328843
-0.0121217
0.339944
0.0137403
0.347784
0.0322939
0.365549
0.10788
0.3841
0.0636241
0.416285
0.211384
0.450207
0.15923
0.303484
0.524351
0.310195
-0.0272281
0.322246
-0.0369005
0.33436
-0.0242353
0.345161
0.00293918
0.352637
0.0248179
0.373709
0.0868084
0.387342
0.0499904
0.42386
0.174867
0.456255
0.126834
0.232128
0.527611
0.312801
-0.0380188
0.32654
-0.0506394
0.339047
-0.0367427
0.348261
-0.00627461
0.355319
0.0177597
0.378359
0.0637685
0.388404
0.0399455
0.429172
0.134099
0.461415
0.0945913
0.165525
0.528017
0.31585
-0.0518586
0.327057
-0.061846
0.334768
-0.0444544
0.340263
-0.0117692
0.34741
0.0106127
0.371294
0.0398844
0.3811
0.0301393
0.42643
0.0887691
0.459719
0.061302
0.102495
0.522749
0.309832
-0.0596804
0.30243
-0.0544435
0.29265
-0.0346746
0.290231
-0.00935071
0.297722
0.00312223
0.320419
0.0171873
0.335515
0.0150436
0.38508
0.0392038
0.419809
0.0265731
0.0419162
0.480388
0.24233
0.187886
0.153212
0.143861
0.146983
0.16417
0.179214
0.218418
0.244991
0.286907
0.494065
-0.0999082
0.498886
-0.0870238
0.502284
-0.0774247
0.506003
-0.0660586
0.510645
-0.0537098
0.515907
-0.0391823
0.52221
-0.0244966
0.528444
-0.00714512
0.536749
0.0100096
0.0310385
0.493875
-0.100374
0.494678
-0.0878271
0.494647
-0.0773938
0.495506
-0.0669166
0.497053
-0.0552574
0.500066
-0.0421956
0.503986
-0.0284165
0.509336
-0.0124951
0.51603
0.00331617
0.0227644
0.500973
-0.0941233
0.497668
-0.0845228
0.494949
-0.074675
0.493141
-0.0651082
0.492157
-0.0542735
0.492993
-0.0430318
0.494574
-0.0299972
0.498333
-0.0162545
0.502761
-0.0011111
0.015179
0.508751
-0.0841659
0.501239
-0.0770107
0.495729
-0.0691646
0.4916
-0.06098
0.488502
-0.0511747
0.487013
-0.0415427
0.486752
-0.0297362
0.488714
-0.0182174
0.492103
-0.00449974
0.00881843
0.513221
-0.073036
0.503612
-0.0674016
0.495611
-0.0611642
0.489092
-0.0544605
0.484099
-0.0461818
0.480694
-0.0381374
0.479145
-0.0281874
0.479702
-0.0187743
0.482398
-0.00719582
0.00353127
0.514922
-0.0603467
0.503506
-0.0559851
0.493591
-0.0512494
0.485244
-0.0461134
0.478807
-0.0397448
0.474138
-0.0334686
0.471672
-0.0257214
0.471295
-0.0183968
0.473419
-0.00932017
-0.00100454
0.513866
-0.0461955
0.500953
-0.0430724
0.48956
-0.0398566
0.479847
-0.0364003
0.472189
-0.0320859
0.466433
-0.0277127
0.462989
-0.0222778
0.461685
-0.0170925
0.463039
-0.0106744
-0.00481845
0.506367
-0.029813
0.491438
-0.028143
0.478183
-0.0266022
0.466709
-0.0249257
0.457323
-0.0227003
0.449888
-0.0202778
0.444807
-0.017197
0.441867
-0.0141523
0.441621
-0.0104287
-0.00703022
0.462063
-0.0114882
0.445455
-0.0115352
0.430442
-0.0115893
0.416996
-0.0114801
0.405316
-0.01102
0.395364
-0.010326
0.387477
-0.0093094
0.381549
-0.00822449
0.378015
-0.00689433
-0.00564454
0.275419
0.263884
0.252294
0.240814
0.229794
0.219468
0.210159
0.201934
0.19504
0.00705133
0.0398429
-0.0468943
0.0169331
0.106455
-0.116337
0.0236906
0.15229
-0.159047
0.0262178
0.177659
-0.180187
0.025508
0.188875
-0.188165
0.0228681
0.192052
-0.189412
0.0192645
0.19081
-0.187207
0.0153391
0.186146
-0.182221
0.0116738
0.176764
-0.173098
0.159262
0.00883826
-0.156427
0.00837628
0.0314667
0.0225489
0.0922823
0.0346991
0.14014
0.0421931
0.170165
0.0454857
0.185582
0.0459399
0.191598
0.0447121
0.192038
0.0424609
0.188397
0.0393613
0.179863
0.163477
0.0351467
0.00884443
0.0226222
0.0265739
0.0745529
0.044417
0.122297
0.0577857
0.156797
0.0660239
0.177344
0.0702428
0.187379
0.0717279
0.190553
0.071207
0.188918
0.0687045
0.182366
0.168868
0.0633131
0.00834431
0.0142779
0.0279936
0.0549036
0.0510446
0.0992455
0.0710807
0.136761
0.0855822
0.162843
0.0948448
0.178117
0.100125
0.185272
0.10241
0.186633
0.101669
0.183107
0.173652
0.0968853
0.00700189
0.00727603
0.02618
0.0357255
0.0524399
0.0729856
0.0789532
0.110247
0.101002
0.140794
0.117002
0.162117
0.127473
0.174801
0.133466
0.18064
0.135591
0.180982
0.176807
0.132437
0.00519069
0.00208534
0.0215735
0.0193427
0.0475357
0.0470234
0.0781038
0.0796793
0.107667
0.11123
0.132391
0.137393
0.150803
0.15639
0.163173
0.16827
0.170125
0.17403
0.174842
0.172091
0.00336232
-0.00127698
0.0155851
0.00711993
0.0376297
0.0249787
0.0675703
0.0497387
0.101209
0.0775914
0.133988
0.104614
0.162438
0.12794
0.184656
0.146052
0.200426
0.158259
0.166937
0.208331
0.00177923
-0.00305622
0.0096259
-0.000726741
0.0256524
0.00895223
0.0504171
0.024974
0.0823037
0.0457048
0.118095
0.0688219
0.154161
0.0918743
0.187086
0.113127
0.214736
0.130609
0.143541
0.238132
0.000333711
-0.00338993
0.00401434
-0.00440737
0.0135661
-0.00059952
0.0308199
0.00772021
0.0561686
0.0203561
0.0885169
0.0364736
0.125592
0.0547997
0.16473
0.0739886
0.201424
0.0939147
0.106155
0.23881
-0.0010533
-0.00233662
-0.0007614
-0.00469927
0.00348765
-0.00484857
0.0135468
-0.0023389
0.0307087
0.00319422
0.055452
0.0117302
0.0872746
0.0229772
0.125092
0.0361713
0.16726
0.0517461
0.0642632
0.209152
-0.00118499
-0.00115164
-0.00158013
-0.00430412
0.000720345
-0.00714905
0.00694669
-0.00856524
0.0180454
-0.00790452
0.034704
-0.00492841
0.0574033
0.000277932
0.0860738
0.00750085
0.121125
0.0166949
0.0292795
0.156109
0.000340471
-0.00149211
0.00259071
-0.00655436
0.0072279
-0.0117862
0.0143512
-0.0156886
0.0240349
-0.0175882
0.0365078
-0.0174013
0.0521183
-0.0153325
0.0712688
-0.0116497
0.0944005
-0.00643694
0.00213699
0.121543
0.00186392
-0.00335603
0.00664582
-0.0113363
0.0135249
-0.0186654
0.0218794
-0.024043
0.0314032
-0.027112
0.0420727
-0.0280709
0.0540262
-0.027286
0.0674219
-0.0250453
0.0823663
-0.0213813
-0.0152674
0.0997706
0.00213552
-0.00549155
0.00653997
-0.0157407
0.0118584
-0.0239838
0.0174439
-0.0296285
0.0232317
-0.0328998
0.0295007
-0.0343399
0.0366165
-0.0344018
0.0448445
-0.0332733
0.0542739
-0.0308107
-0.0264823
0.0654888
0.000965006
-0.00645655
0.00223607
-0.0170118
0.00292496
-0.0246727
0.00292706
-0.0296306
0.00260697
-0.0325797
0.00249181
-0.0342247
0.00305885
-0.0349688
0.00467774
-0.0348922
0.00772838
-0.0338614
-0.0316069
0.012853
-0.00104904
-0.00540751
-0.0040159
-0.0140449
-0.00856237
-0.0201262
-0.0141258
-0.0240671
-0.020098
-0.0266075
-0.0259646
-0.0283582
-0.0313218
-0.0296117
-0.0358129
-0.030401
-0.0390606
-0.0306136
-0.030293
-0.0403745
-0.00310476
-0.00230275
-0.00984074
-0.00730894
-0.0185674
-0.0113996
-0.0281982
-0.0144363
-0.0380722
-0.0167335
-0.0477996
-0.0186308
-0.0571149
-0.0202964
-0.0657646
-0.0217513
-0.0734353
-0.0229429
-0.0239064
-0.0798219
-0.00468372
0.00238097
-0.0141189
0.00212619
-0.0256762
0.000157735
-0.0378156
-0.00229686
-0.0499176
-0.00463146
-0.0616764
-0.00687205
-0.0729134
-0.00905942
-0.0834579
-0.0112068
-0.0931104
-0.0132905
-0.0152699
-0.101747
-0.00563311
0.00801408
-0.0166025
0.0130956
-0.0296095
0.0131648
-0.0431606
0.0112541
-0.0565053
0.00871332
-0.0693574
0.00598003
-0.0815583
0.00314143
-0.0929607
0.000195637
-0.103367
-0.00288409
-0.00598424
-0.112653
-0.00577556
-0.0171088
-0.0306043
-0.0445879
-0.0583424
-0.071578
-0.0841291
-0.0958293
-0.106513
-0.115965
0.235043
0.159066
-0.238001
0.25827
0.410577
-0.433804
0.267973
0.227617
-0.23732
0.247779
0.0472273
-0.0270339
0.214616
0.00637519
0.0267886
0.195796
0.000333198
0.0184864
0.192246
-0.0093121
0.0128621
0.19544
-0.0133524
0.010159
0.201273
-0.0168774
0.0110442
-0.0147342
0.00874998
0.21276
0.0678492
0.259134
0.364203
0.270575
0.216176
0.239481
0.0783219
0.207043
0.0388124
0.194167
0.0132097
0.194049
-0.00919418
0.197978
-0.0172814
0.203267
-0.0221668
-0.0196818
0.179873
-0.0122532
0.239657
0.304419
0.244975
0.210859
0.212804
0.110493
0.193043
0.0585736
0.19065
0.0156021
0.194873
-0.0134169
0.199689
-0.0220975
0.20452
-0.0269978
-0.0236695
0.129035
-0.0757994
0.188979
0.244475
0.191221
0.208617
0.177813
0.123901
0.179861
0.056525
0.188258
0.00720493
0.195891
-0.0210495
0.201226
-0.0274325
0.20556
-0.031332
-0.0267759
0.054007
-0.116953
0.109717
0.188765
0.130783
0.18755
0.150811
0.103874
0.17267
0.0346659
0.187965
-0.00809008
0.197346
-0.0304309
0.20274
-0.0328259
0.206531
-0.0351231
-0.0290877
-0.026047
-0.131281
0.0376353
0.125083
0.0926957
0.13249
0.139369
0.0572002
0.171229
0.00280609
0.189195
-0.0260562
0.199048
-0.0402838
0.204205
-0.0379827
0.207455
-0.038373
-0.0307036
-0.0808286
-0.130274
0.00153882
0.0427154
0.0822739
0.051755
0.138632
0.000842537
0.172732
-0.0312946
0.191036
-0.0443598
0.200755
-0.050003
0.20557
-0.0427982
0.208329
-0.0411315
-0.0317327
-0.098575
-0.133446
-0.00232392
-0.0535357
0.0851011
-0.03567
0.141668
-0.055724
0.17499
-0.064617
0.192891
-0.0622606
0.202319
-0.0594312
0.206805
-0.0472843
0.209149
-0.0434758
-0.0322893
-0.0992293
-0.146869
0.00457693
-0.157342
0.0898346
-0.120928
0.144732
-0.110621
0.177017
-0.0969022
0.194511
-0.0797544
0.203678
-0.0685982
0.207895
-0.0515015
0.209914
-0.045494
-0.0324901
-0.0969908
0.00857502
0.0931531
0.146919
0.178619
0.195852
0.20482
0.208838
0.21062
0.0350076
0.0509496
-0.0859571
-0.00211506
0.0371226
-0.0139417
0.0118266
0.00368622
-0.0176279
0.0269864
-0.0233001
0.0402623
-0.013276
0.0455239
-0.00526161
0.0474581
-0.0019342
0.0484331
-0.000974984
-0.000619799
0.169295
0.165059
-0.283405
0.0675762
0.138842
0.0363921
0.0430107
0.0588563
-0.0400921
0.0916264
-0.0560702
0.110914
-0.0325635
0.119502
-0.0138495
0.123237
-0.00566952
0.125574
-0.0033124
-0.00210376
0.322335
0.262675
-0.419951
0.190232
0.270945
0.127538
0.105705
0.128884
-0.0414377
0.147201
-0.0743877
0.160154
-0.0455162
0.167105
-0.0208009
0.170838
-0.0094018
0.173786
-0.00626079
-0.00415785
0.419256
0.293023
-0.449603
0.307609
0.382591
0.232884
0.18043
0.207032
-0.0155863
0.197359
-0.0647146
0.193443
-0.0415998
0.193607
-0.0209652
0.195289
-0.011084
0.197966
-0.00893767
-0.00643598
0.426629
-0.371607
0.375415
0.318525
0.275905
0.237979
0.214866
0.206762
0.205837
0.207944
0.0106265
-0.000161204
-0.0104653
0.0122286
-0.00160205
0.0151571
-0.00292852
0.0196795
-0.00452244
0.0258914
-0.00621189
0.0341347
-0.00824323
0.0437608
-0.00962609
0.056782
-0.0130213
0.070267
-0.0134849
-0.0156902
0.0294987
-0.000917908
-0.028742
0.0341339
-0.00623716
0.0426365
-0.0114311
0.0561661
-0.018052
0.07516
-0.0252058
0.100146
-0.0332292
0.133787
-0.0432669
0.174422
-0.0536565
0.223341
-0.0624037
-0.0757543
0.0458791
-0.00253975
-0.0442572
0.0533248
-0.0136829
0.0668326
-0.0249389
0.088362
-0.0395815
0.117565
-0.0544092
0.157547
-0.0732112
0.209105
-0.0948249
0.26823
-0.112781
0.343876
-0.13805
-0.151829
0.0595752
-0.00516663
-0.0569483
0.0693652
-0.023473
0.0870176
-0.0425913
0.114099
-0.0666624
0.150771
-0.0910814
0.200059
-0.122499
0.257321
-0.152087
0.324761
-0.180221
0.399638
-0.212927
-0.201794
0.0706451
-0.0669734
0.0823187
0.103041
0.133263
0.174619
0.22421
0.280454
0.338365
0.364249
0.0818945
-0.0730072
0.0810145
-0.0899018
0.0732634
-0.0741058
0.0827369
0.064377
-0.0758615
0.0847478
0.0549094
-0.0777201
0.0871878
0.0447405
-0.0795477
0.0897165
0.0339849
-0.0810309
0.0917865
0.0230061
-0.0810667
0.0920454
0.0125562
-0.0768428
0.0872926
0.00407433
-0.0628963
0.0713782
-0.0308422
0.0349166
0.0902504
-0.0635855
-0.099672
0.0804574
-0.0643128
0.0699994
-0.0654035
0.0589441
-0.0666648
0.0474657
-0.0680693
0.0357561
-0.0693213
0.0241036
-0.0694141
0.0131539
-0.0658931
0.0042875
-0.0540299
-0.0265547
0.0907191
-0.0530027
-0.101302
0.0800483
-0.0536421
0.0691985
-0.0545536
0.0581795
-0.0556458
0.0469573
-0.056847
0.0355169
-0.057881
0.0240314
-0.0579287
0.0131322
-0.0549939
0.00426313
-0.0451608
-0.0222916
0.0954942
-0.0422829
-0.106214
0.084614
-0.0427619
0.0735036
-0.0434432
0.0620759
-0.0442181
0.0502746
-0.0450458
0.0381349
-0.0457412
0.0259011
-0.0456949
0.0142589
-0.0433516
0.00470685
-0.0356088
-0.0175847
0.0975154
-0.0311303
-0.108668
0.0862234
-0.0314699
0.0746785
-0.0318983
0.0628577
-0.0323973
0.050756
-0.0329441
0.0384242
-0.0334094
0.0260771
-0.0333479
0.0143491
-0.0316237
0.0047231
-0.0259827
-0.0128616
0.100366
-0.019855
-0.111641
0.0888525
-0.0199566
0.0770834
-0.0201292
0.0650279
-0.0203417
0.0526646
-0.0205809
0.0400202
-0.020765
0.0272925
-0.0206202
0.0151227
-0.0194539
0.00504108
-0.015901
-0.00782056
0.102233
-0.00833558
-0.113753
0.0905111
-0.00823447
0.0785294
-0.00814753
0.0662614
-0.0080737
0.0536862
-0.00800567
0.0408291
-0.00790789
0.0278815
-0.0076727
0.0154784
-0.00705074
0.00517084
-0.00559346
-0.00264972
0.103926
0.00330321
-0.115565
0.0920436
0.00364803
0.0798912
0.00400497
0.067442
0.00437541
0.0546772
0.00475919
0.0416226
0.00514674
0.0284674
0.00548244
0.0158443
0.00557241
0.00531709
0.00493371
0.00266738
0.105073
0.0150553
-0.116825
0.0930764
0.0156451
0.0808063
0.016275
0.0682376
0.0169441
0.0553502
0.0176466
0.0421665
0.0183304
0.0288703
0.0187786
0.0160919
0.0183508
0.00541127
0.0156144
0.00807865
0.1057
-0.117528
0.0936319
0.0812909
0.0686527
0.0556973
0.0424449
0.0290753
0.0162163
0.00545722
0.0134354
-0.154294
-0.0155688
0.00893159
-0.168595
0.00340334
-0.176692
-0.00227478
-0.181529
-0.00744123
-0.184246
-0.0113092
-0.184297
-0.0127969
-0.178699
-0.0107419
-0.161102
-0.00516922
-0.121909
-0.0520635
0.0364978
-0.151352
-0.0394392
0.0304999
-0.162597
0.0232244
-0.169417
0.0156235
-0.173928
0.00824771
-0.17687
0.00170072
-0.17775
-0.00301033
-0.173988
-0.00472719