/*--------------------------------*- C++ -*----------------------------------*\
  =========                 |
  \\      /  F ield         | OpenFOAM: The Open Source CFD Toolbox
   \\    /   O peration     | Website:  https://openfoam.org
    \\  /    A nd           | Version:  13
     \\/     M anipulation  |
\*---------------------------------------------------------------------------*/
FoamFile
{
    format      ascii;
    class       surfaceScalarField;
    location    "2.8";
    object      phi;
}
// * * * * * * * * * * * * * * * * * * * * * * * * * * * * * * * * * * * * * //

dimensions      [0 3 -1 0 0 0 0];

internalField   nonuniform List<scalar> 
3485
(
-0.00161027
0.00387915
-0.00226888
-0.00303436
0.00744287
-0.00601878
-0.00202023
0.00765852
-0.00867265
0.00307912
0.00462423
-0.00972358
0.0135475
-0.00178703
-0.00868139
0.0303241
-0.0115447
-0.00523183
0.0540278
-0.0245011
0.00079738
0.0851793
-0.0401148
0.00896333
0.123688
-0.0581414
0.0196327
-0.0682904
0.0266252
0.165353
-0.000743621
0.00462277
-0.000220792
0.00692004
0.00376727
0.00367046
0.0130023
-0.00461083
0.0287847
-0.0175694
0.051765
-0.0345251
0.0815986
-0.0543347
0.117093
-0.0756087
0.155905
-0.0969534
-0.114107
0.201721
0.000427949
0.00419483
0.00383577
0.00351222
0.0122721
-0.00476583
0.0273637
-0.0197025
0.0498253
-0.040031
0.0791139
-0.0638136
0.113472
-0.0886924
0.150279
-0.112417
0.186741
-0.133415
-0.150671
0.223305
0.0014188
0.00277603
0.00778632
-0.0028553
0.0209803
-0.0179598
0.0419218
-0.040644
0.0699309
-0.0680401
0.102715
-0.0965982
0.137097
-0.123074
0.16998
-0.145299
0.198943
-0.162378
-0.174343
0.222615
0.00252045
0.000255576
0.0120205
-0.0123553
0.0298464
-0.0357857
0.0554495
-0.0662471
0.086128
-0.0987186
0.118037
-0.128507
0.147621
-0.152658
0.172543
-0.170222
0.191855
-0.181689
-0.188752
0.206264
0.00377001
-0.00351444
0.0164242
-0.0250094
0.0379537
-0.0573153
0.065654
-0.0939474
0.0950805
-0.128145
0.12212
-0.155547
0.14431
-0.174848
0.161001
-0.186913
0.172924
-0.193612
-0.196756
0.180929
0.00510396
-0.0086184
0.0203996
-0.040305
0.0437634
-0.0806792
0.070429
-0.120613
0.0955013
-0.153217
0.116007
-0.176052
0.131181
-0.190023
0.141751
-0.197483
0.148916
-0.200777
-0.201784
0.153943
0.0062872
-0.0149056
0.0231412
-0.057159
0.0460648
-0.103603
0.0692623
-0.14381
0.0887328
-0.172688
0.103097
-0.190416
0.11282
-0.199746
0.119091
-0.203754
0.123111
-0.204797
-0.204258
0.125585
0.00712513
-0.0220307
0.0241504
-0.0741844
0.0447351
-0.124187
0.0633581
-0.162433
0.0774249
-0.186755
0.0868015
-0.199793
0.0925356
-0.20548
0.0958824
-0.207101
0.0977872
-0.206701
-0.205293
0.0988218
0.0074868
-0.0295175
0.0233649
-0.0900625
0.0405195
-0.141342
0.0544431
-0.176357
0.0638231
-0.196135
0.0692603
-0.20523
0.0719717
-0.208191
0.0730411
-0.20817
0.0731691
-0.206829
0.0726319
-0.204756
-0.00403209
0.0230399
-0.0190078
-0.0133891
0.0462356
-0.0368786
-0.02563
0.0554066
-0.0431657
-0.0391627
0.0573635
-0.0438308
-0.0531469
0.0562452
-0.0422611
-0.0671931
0.0539622
-0.039916
-0.0811015
0.0511674
-0.037259
-0.0947248
0.0480149
-0.0343915
-0.107921
0.0445309
-0.0313347
0.0410069
-0.120598
-0.0283298
-0.00137334
0.0244133
-0.00668058
0.0515429
-0.0150702
0.0637962
-0.025231
0.0675243
-0.0361297
0.0671439
-0.0471608
0.0649933
-0.0579925
0.061999
-0.068406
0.0584284
-0.0782019
0.0543269
0.0499377
-0.0871326
0.00166803
0.0227452
0.00175766
0.0514532
-0.00115213
0.066706
-0.0063687
0.0727408
-0.0128119
0.0735871
-0.0196441
0.0718256
-0.0263482
0.0687031
-0.0326043
0.0646845
-0.0381756
0.0598982
0.0544002
-0.0426381
0.00424534
0.0184999
0.00989242
0.0458062
0.0135476
0.0630508
0.0146058
0.0716827
0.0137736
0.0744193
0.0119824
0.0736168
0.00993136
0.0707541
0.00805583
0.06656
0.006662
0.0612921
0.0549298
0.0061324
0.00555941
0.0129405
0.0154642
0.0359013
0.0252816
0.0532334
0.0330889
0.0638755
0.0387043
0.0688039
0.0427285
0.0695926
0.0458832
0.0675994
0.0487234
0.0637199
0.0515861
0.0584293
0.0516521
0.0548638
0.00534639
0.0075941
0.0167691
0.0244787
0.0303789
0.0396236
0.0435987
0.0506557
0.0552925
0.05711
0.0653188
0.0595662
0.0740047
0.0589136
0.0817678
0.0559567
0.0889002
0.051297
0.0450034
0.0955489
0.00402853
0.00356557
0.0140495
0.0144577
0.0277319
0.0259412
0.0428875
0.0355
0.0580232
0.0419744
0.0723809
0.0452085
0.0857174
0.0455771
0.0980418
0.0436323
0.109389
0.0399498
0.0345321
0.11986
0.00224809
0.00131748
0.00894477
0.007761
0.0194028
0.0154831
0.032457
0.0224458
0.0469577
0.0274737
0.0620322
0.030134
0.077117
0.0304924
0.091879
0.0288703
0.106188
0.0256405
0.0199811
0.120739
0.000337375
0.000980101
0.00291742
0.00518096
0.00839405
0.0100065
0.0167028
0.014137
0.0274351
0.0167415
0.04017
0.0173991
0.054637
0.0160253
0.0707352
0.0127721
0.0887043
0.00767146
-0.000212413
0.108898
-0.00128878
-0.0021266
-0.000792736
0.00362072
0.0116808
0.0238481
0.0406707
0.0624062
0.0897103
0.116123
-0.159634
0.145706
-0.10667
-0.0862859
-0.246621
0.173273
0.0181252
-0.374758
0.270347
0.0929209
-0.347205
0.27241
0.142755
-0.293957
0.244122
0.174038
-0.21737
0.186088
0.193142
-0.162612
0.143507
0.203742
-0.111801
0.101201
0.209767
-0.0867595
0.0807353
-0.0557144
0.053616
-0.110665
0.169238
-0.0479911
-0.309295
0.0400773
-0.462826
0.108723
-0.415851
0.153017
-0.338252
0.180318
-0.24467
0.196867
-0.179161
0.206065
-0.120998
0.211288
-0.0919832
-0.0574857
-0.0523535
0.178954
0.00105576
-0.362704
0.0698539
-0.531624
0.128373
-0.47437
0.165795
-0.375673
0.188159
-0.267035
0.201407
-0.192409
0.208761
-0.128353
0.212981
-0.0962025
-0.0589265
0.0077614
0.177325
0.0461401
-0.401083
0.101768
-0.587252
0.148684
-0.521286
0.179142
-0.406131
0.1967
-0.284593
0.206495
-0.202204
0.211777
-0.133635
0.214834
-0.0992594
-0.0600346
0.0612129
0.170976
0.0915083
-0.431378
0.132704
-0.628448
0.167709
-0.556291
0.191259
-0.429681
0.204721
-0.298055
0.211552
-0.209035
0.214903
-0.136985
0.216785
-0.101142
-0.0608417
0.107971
0.158553
0.13273
-0.456137
0.160966
-0.656684
0.184774
-0.580098
0.201394
-0.446301
0.211322
-0.307983
0.215936
-0.21365
0.217815
-0.138865
0.218707
-0.102033
-0.0614434
0.144436
0.133978
0.167077
-0.478779
0.18426
-0.673866
0.199186
-0.595025
0.209481
-0.456597
0.216208
-0.31471
0.219213
-0.216655
0.220192
-0.139843
0.220435
-0.102276
-0.0620106
0.171718
0.0829984
0.193526
-0.500586
0.20229
-0.68263
0.210329
-0.603063
0.215615
-0.461883
0.219527
-0.318622
0.221275
-0.218403
0.221818
-0.140385
0.221805
-0.102263
-0.0627722
0.193125
-0.00122892
0.212332
-0.519793
0.214743
-0.685041
0.217954
-0.606274
0.219898
-0.463827
0.221591
-0.320315
0.222278
-0.219091
0.22265
-0.140757
0.22271
-0.102323
-0.0639714
0.211606
-0.0967115
0.223675
-0.531863
0.221687
-0.683053
0.222588
-0.607175
0.222679
-0.463918
0.222778
-0.320414
0.222524
-0.218837
0.222805
-0.141038
0.223139
-0.102657
-0.065817
0.629848
-0.211471
-0.515089
0.640829
-0.542844
0.588939
-0.631162
0.5226
-0.540836
0.46188
-0.403198
0.416804
-0.275337
0.385482
-0.187514
0.365736
-0.121292
0.352203
-0.0891245
-0.05844
0.742062
-0.253938
-0.699594
0.686163
-0.486945
0.600677
-0.545676
0.525515
-0.465674
0.466685
-0.344368
0.423095
-0.231748
0.391048
-0.155467
0.369586
-0.0998305
0.354431
-0.0739693
-0.0499659
0.745288
-0.254783
-0.744444
0.679503
-0.42116
0.610156
-0.476329
0.548399
-0.403917
0.49025
-0.286219
0.440905
-0.182403
0.402587
-0.117149
0.376382
-0.0736259
0.357929
-0.055516
-0.0398018
0.729063
-0.244136
-0.739709
0.677594
-0.369691
0.614279
-0.413015
0.549032
-0.33867
0.487306
-0.224494
0.437343
-0.132439
0.400439
-0.0802447
0.375691
-0.0488777
0.357907
-0.0377319
-0.0294926
0.712841
-0.230591
-0.726386
0.670454
-0.327305
0.613443
-0.356003
0.551519
-0.276747
0.490307
-0.163282
0.438807
-0.080939
0.400421
-0.0418587
0.374991
-0.0234481
0.357049
-0.0197891
-0.0190418
0.699013
-0.215886
-0.713717
0.66075
-0.289042
0.600506
-0.29576
0.532866
-0.209106
0.471243
-0.101659
0.423107
-0.0328031
0.388962
-0.00771462
0.366972
-0.00145726
0.351511
-0.00432808
-0.00962616
0.67838
-0.195001
-0.699265
0.629595
-0.240257
0.555631
-0.221796
0.481525
-0.135
0.424301
-0.0444347
0.386054
0.00544443
0.361642
0.0166972
0.34691
0.0132747
0.336463
0.00611856
-0.00251704
0.617826
-0.152123
-0.660704
0.541126
-0.163556
0.448045
-0.128716
0.374227
-0.0611816
0.33247
-0.00267769
0.314096
0.0238185
0.306265
0.0245276
0.302681
0.0168596
0.299591
0.00920853
0.00111683
0.448621
-0.0744776
-0.526266
0.345515
-0.0604506
0.253108
-0.0363084
0.202314
-0.0103881
0.190884
0.00875266
0.198391
0.0163117
0.20851
0.0144084
0.215876
0.00949291
0.219703
0.00538156
0.00127193
0.133094
-0.207571
0.0726429
0.0363345
0.0259464
0.0346991
0.0510107
0.0654191
0.074912
0.0802936
0.559708
0.0610399
-0.548116
0.571166
0.0873641
0.586781
0.10997
0.602564
0.13816
0.6208
0.162692
0.638282
0.188782
0.645837
0.21506
0.640091
0.229051
0.586864
0.254948
0.237128
0.538563
0.049577
-0.5271
0.551411
0.0745159
0.567896
0.0934853
0.587718
0.118338
0.609835
0.140575
0.63617
0.162447
0.661411
0.189819
0.685251
0.205211
0.70372
0.236479
0.241254
0.522918
0.0399834
-0.513324
0.536301
0.0611326
0.551686
0.0781005
0.571328
0.098696
0.593456
0.118448
0.618955
0.136948
0.648948
0.159826
0.678638
0.175521
0.715598
0.199519
0.212408
0.511556
0.0311495
-0.502722
0.524846
0.0478422
0.539667
0.0632796
0.558524
0.0798391
0.58016
0.0968116
0.60472
0.112387
0.634204
0.130342
0.665105
0.14462
0.702526
0.162097
0.175226
0.503085
0.0222915
-0.494227
0.515745
0.0351824
0.530516
0.048509
0.548816
0.0615387
0.570093
0.0755345
0.594401
0.0880794
0.622717
0.102027
0.653589
0.113748
0.688863
0.126823
0.137703
0.495626
0.013516
-0.48685
0.507558
0.0232499
0.522247
0.0338205
0.540079
0.0437065
0.561112
0.0545018
0.585167
0.0640239
0.612744
0.07445
0.64318
0.0833124
0.677101
0.0929021
0.101086
0.48536
0.00534704
-0.477191
0.496495
0.0121144
0.51072
0.0195955
0.52801
0.0264165
0.548654
0.0338582
0.572343
0.0403347
0.599485
0.0473076
0.62957
0.0532275
0.663102
0.0593705
0.0649224
0.460476
-0.00115423
-0.453974
0.469861
0.00272947
0.482431
0.00702504
0.498095
0.0107524
0.517125
0.0148288
0.539278
0.0181811
0.564851
0.0217347
0.593512
0.0245669
0.625586
0.0272966
0.0298041
0.386641
-0.00341985
-0.384375
0.39138
-0.00201039
0.39901
-0.000604053
0.409209
0.000553335
0.422241
0.00179643
0.437782
0.00263962
0.456066
0.0034511
0.476821
0.00381206
0.50001
0.00410739
0.00354804
0.190278
-0.193698
0.188267
0.187663
0.188217
0.190013
0.192653
0.196104
0.199916
0.204023
0.0738353
0.150095
-0.138184
-0.0857465
0.062901
0.152279
-0.141344
0.0528239
0.154912
-0.144835
0.043058
0.158458
-0.148692
0.0333395
0.162261
-0.152542
0.0237456
0.165212
-0.155618
0.0146848
0.164616
-0.155555
0.00696828
0.15445
-0.146734
0.00174088
0.123991
-0.118764
0.0586124
-0.0568715
0.0700592
0.160738
-0.0807023
0.0595677
0.16277
0.0494218
0.165058
0.0396276
0.168252
0.0300735
0.171815
0.0208491
0.174436
0.0123897
0.173075
0.00550211
0.161338
0.00116287
0.128331
0.0597753
0.0631177
0.170199
-0.0725785
0.053348
0.17254
0.0436928
0.174713
0.0343471
0.177598
0.0253421
0.18082
0.016834
0.182944
0.00927569
0.180634
0.00349593
0.167118
0.000341689
0.131485
0.060117
0.0518919
0.17825
-0.0599423
0.0434502
0.180982
0.0349159
0.183248
0.0265502
0.185963
0.0185155
0.188854
0.0110795
0.19038
0.00484253
0.186871
0.000552591
0.171408
-0.000747802
0.132785
0.0593691
0.0391096
0.185325
-0.0461852
0.0318131
0.188278
0.0243945
0.190666
0.017097
0.193261
0.0101918
0.19576
0.00404007
0.196532
-0.000637589
0.191548
-0.00267305
0.173443
-0.00200928
0.132121
0.0573599
0.0239771
0.191163
-0.0298149
0.0179942
0.194261
0.0118995
0.196761
0.00591538
0.199245
0.000388866
0.201286
-0.00403413
0.200955
-0.00653975
0.194054
-0.00636967
0.173273
-0.00333099
0.129083
0.0540289
0.00813855
0.196228
-0.0132033
0.00316874
0.199231
-0.00174606
0.201676
-0.00639457
0.203894
-0.0103547
0.205246
-0.0129548
0.203555
-0.0132041
0.194303
-0.0102628
0.170332
-0.00462046
0.12344
0.0494084
-0.00974574
0.200205
0.00576849
-0.0135148
0.203
-0.017105
0.205266
-0.0202666
0.207055
-0.0224658
0.207445
-0.0228275
0.203917
-0.0202834
0.191759
-0.0142012
0.164249
-0.00580054
0.11504
0.0436079
-0.0290268
0.203117
0.0261151
-0.0316303
0.205603
-0.0338816
0.207517
-0.0354301
0.208604
-0.0355822
0.207598
-0.0333008
0.201635
-0.0275011
0.185959
-0.0179328
0.154681
-0.00674714
0.103854
0.0368607
-0.0504784
0.0488393
-0.0517044
-0.0523571
-0.0519444
-0.0495768
-0.0440762
-0.0344739
-0.0211349
-0.00734322
0.107336
0.0403649
-0.119326
-0.0283746
0.095079
0.0414751
-0.0292184
0.0825429
0.0426741
-0.030138
0.069702
0.0439575
-0.0311166
0.056539
0.0453065
-0.0321435
0.0430794
0.0465771
-0.0331175
0.029508
0.0472042
-0.0336329
0.0164587
0.0455875
-0.0325381
0.00553762
0.0382749
-0.0273538
0.0194597
-0.0139221
0.106681
0.0523813
-0.118697
0.0944725
0.0536833
0.0819971
0.0551495
0.0692239
0.0567308
0.056128
0.0584024
0.0427327
0.0599725
0.0292297
0.0607072
0.0162648
0.0585524
0.00544773
0.0490919
0.0249075
0.105582
0.0643065
-0.117507
0.0934076
0.0658577
0.0809903
0.0675668
0.0683036
0.0694175
0.0553242
0.0713817
0.0420691
0.0732276
0.0287252
0.0740512
0.0159407
0.0713369
0.00531383
0.0597187
0.0302213
0.103814
0.0762724
-0.11578
0.0917393
0.0779325
0.0794138
0.0798923
0.0668155
0.0820158
0.0539416
0.0842556
0.040842
0.0863271
0.0277326
0.0871605
0.0152732
0.0837963
0.00503073
0.0699612
0.035252
0.101451
0.0880285
-0.113207
0.08956
0.0898234
0.0775057
0.0919467
0.0652154
0.094306
0.0526377
0.0968333
0.0398014
0.0991634
0.0269426
0.100019
0.0147608
0.0959781
0.0048258
0.0798962
0.0400778
0.0979158
0.0998598
-0.109747
0.0860969
0.101642
0.0741265
0.103917
0.0620168
0.106416
0.0497561
0.109094
0.0373673
0.111552
0.0250677
0.112319
0.0135452
0.107501
0.00431801
0.0891234
0.0443958
0.0940936
0.11105
-0.105284
0.082912
0.112824
0.0715344
0.115295
0.0598624
0.118088
0.0479076
0.121049
0.0357851
0.123675
0.0238047
0.124299
0.0127087
0.118597
0.00398019
0.0978519
0.048376
0.0869557
0.122108
-0.0980141
0.0761412
0.123638
0.0653845
0.126051
0.0545518
0.12892
0.0435235
0.132077
0.0323265
0.134872
0.0212675
0.135358
0.0111241
0.12874
0.00334467
0.105631
0.0517207
0.0824269
0.131374
-0.0916926
0.0727261
0.133339
0.0624223
0.136355
0.051753
0.13959
0.04089
0.14294
0.0299887
0.145773
0.0194018
0.145945
0.00991233
0.138229
0.00287014
0.112673
0.0545908
0.0715195
-0.0783295
0.0635141
0.0550342
0.0459319
0.03633
0.0264851
0.0168754
0.00837114
0.00228068
0.201625
0.00729065
-0.0109258
0.20542
0.0270588
-0.0308536
0.208716
0.0343786
-0.0376751
0.211644
0.0533683
-0.0562962
0.213303
0.0670753
-0.0687339
0.212295
0.0927292
-0.0917212
0.207023
0.124972
-0.119701
0.194624
0.153636
-0.141237
0.168902
0.20705
-0.181329
0.267716
-0.21814
0.201275
0.00400586
0.204737
0.0235959
0.207826
0.0312905
0.210247
0.0509466
0.211914
0.0654083
0.210271
0.094372
0.205225
0.130019
0.192527
0.166334
0.167065
0.232512
0.316084
0.200863
0.00113269
0.203872
0.020587
0.206746
0.0284168
0.208502
0.0491906
0.21014
0.0637698
0.207538
0.0969738
0.20271
0.134847
0.189263
0.179781
0.164507
0.257268
0.363083
0.200378
-0.00125565
0.202831
0.0181337
0.205452
0.0257958
0.206399
0.0482441
0.207965
0.0622039
0.204173
0.100765
0.199559
0.139461
0.184737
0.194603
0.161281
0.280725
0.408584
0.199807
-0.00307302
0.201633
0.0163082
0.203928
0.0235009
0.203945
0.0482269
0.205357
0.0607921
0.200244
0.105878
0.195769
0.143936
0.179321
0.211051
0.157328
0.302717
0.452706
0.199139
-0.00422232
0.200298
0.0151498
0.202158
0.0216402
0.201202
0.0491828
0.202295
0.0596995
0.195753
0.11242
0.191325
0.148364
0.172802
0.229575
0.152946
0.322572
0.495905
0.198369
-0.00460132
0.198849
0.0146695
0.200133
0.0203566
0.198219
0.0510961
0.198745
0.0591739
0.190783
0.120382
0.186004
0.153143
0.165779
0.249799
0.147472
0.34088
0.538093
0.197498
-0.00410988
0.197305
0.0148624
0.197847
0.0198155
0.195002
0.0539405
0.194711
0.0594651
0.185315
0.129778
0.179938
0.15852
0.157377
0.27236
0.141794
0.356463
0.581873
0.196538
-0.00265762
0.195677
0.0157231
0.195307
0.0201856
0.191557
0.0576901
0.190154
0.060868
0.179522
0.14041
0.17315
0.164893
0.150254
0.295256
0.135032
0.371686
0.625212
0.195531
-0.000198757
0.193928
0.0173262
0.192592
0.0215215
0.187795
0.0624872
0.184996
0.0636673
0.172759
0.152647
0.164521
0.17313
0.139926
0.31985
0.129038
0.382574
0.675921
0.304469
-0.00265783
0.309356
0.0124396
0.31697
0.0139074
0.319686
0.0597713
0.332605
0.050748
0.333321
0.151932
0.354056
0.152394
0.360751
0.313156
0.413629
0.329696
0.604618
0.484931
0.304755
-0.00540293
0.311142
0.00605283
0.319203
0.00584677
0.323729
0.055245
0.338191
0.0362861
0.341627
0.148495
0.363884
0.130138
0.381144
0.295896
0.429934
0.280906
0.537026
0.497526
0.305302
-0.00869441
0.31344
-0.00208501
0.321342
-0.0020559
0.32902
0.0475675
0.342873
0.0224329
0.349983
0.141385
0.371982
0.108139
0.396177
0.271701
0.439825
0.237259
0.463452
0.513398
0.306355
-0.0130396
0.31597
-0.0116995
0.324014
-0.0101001
0.335448
0.0361333
0.34653
0.0113514
0.357622
0.130292
0.377712
0.0880488
0.4073
0.242113
0.450279
0.19428
0.386908
0.526823
0.308006
-0.019035
0.318709
-0.0224029
0.327828
-0.0192194
0.342772
0.0211895
0.350709
0.00341467
0.366406
0.114595
0.383959
0.0704963
0.419393
0.206679
0.457077
0.156596
0.31371
0.530274
0.310205
-0.0272302
0.322027
-0.0342249
0.332975
-0.030167
0.349879
0.0042857
0.354894
-0.00160012
0.374718
0.0947709
0.389851
0.0553627
0.428221
0.168309
0.460935
0.123882
0.245093
0.529553
0.313189
-0.0384088
0.326251
-0.0472876
0.338135
-0.0420508
0.353992
-0.0115714
0.355772
-0.00337982
0.379521
0.0710222
0.392793
0.0420907
0.432833
0.128269
0.46219
0.0945249
0.179867
0.527416
0.316316
-0.0527142
0.327482
-0.058454
0.334795
-0.0493643
0.343524
-0.0203001
0.342935
-0.00279024
0.369401
0.044556
0.382203
0.0292883
0.424938
0.0855346
0.455225
0.0642374
0.114436
0.520656
0.309763
-0.060467
0.303868
-0.0525587
0.292624
-0.0381207
0.286678
-0.0143544
0.28536
-0.00147225
0.311122
0.0187945
0.326364
0.0140462
0.373346
0.0385523
0.408524
0.0290595
0.0473667
0.475593
0.241543
0.188985
0.150864
0.136509
0.135037
0.153832
0.167878
0.20643
0.23549
0.282856
0.498494
-0.09931
0.503164
-0.0853716
0.506825
-0.0762396
0.510034
-0.0631519
0.514941
-0.0510918
0.51937
-0.0342444
0.525715
-0.0195475
0.531538
-5.47632e-05
0.5401
0.0175528
0.0408238
0.498509
-0.100293
0.499528
-0.0863908
0.499735
-0.0764462
0.500085
-0.0635015
0.50159
-0.0525973
0.503549
-0.036203
0.507744
-0.0237433
0.512006
-0.00431617
0.519416
0.0101424
0.0331396
0.507254
-0.0941487
0.503954
-0.0830903
0.500505
-0.0729979
0.497971
-0.0609667
0.495929
-0.0505554
0.496062
-0.0363362
0.497109
-0.0247898
0.500511
-0.007719
0.505344
0.00530991
0.0251592
0.515676
-0.0830014
0.506972
-0.074386
0.499821
-0.0658475
0.494785
-0.0559305
0.49048
-0.0462499
0.488972
-0.0348285
0.488266
-0.0240842
0.491106
-0.010559
0.494832
0.00158424
0.0172692
0.517359
-0.0700865
0.50636
-0.0633872
0.497157
-0.056644
0.490321
-0.0490941
0.485081
-0.0410099
0.482465
-0.0322124
0.481371
-0.0229905
0.483457
-0.0126449
0.486993
-0.001952
0.0100349
0.515813
-0.0563468
0.503947
-0.0515212
0.493996
-0.0466935
0.486263
-0.0413608
0.480577
-0.0353242
0.477223
-0.0288576
0.475877
-0.0216453
0.477137
-0.0139042
0.480497
-0.00531233
0.00368155
0.513344
-0.0422751
0.500986
-0.0391631
0.490433
-0.0361403
0.481901
-0.0328291
0.475446
-0.0288689
0.471139
-0.0245512
0.468977
-0.0194828
0.469192
-0.0141195
0.471847
-0.00796715
-0.0016622
0.505216
-0.0268346
0.491463
-0.0254106
0.479474
-0.0241513
0.469353
-0.0227075
0.461237
-0.0207535
0.455132
-0.0184459
0.451213
-0.015564
0.449551
-0.0124569
0.450419
-0.00883527
-0.00521786
0.458948
-0.0101889
0.443943
-0.0104058
0.430411
-0.0106198
0.41833
-0.0106265
0.407856
-0.0102787
0.39904
-0.00963047
0.392154
-0.00867752
0.387264
-0.00756676
0.384681
-0.00625213
-0.00491231
0.272667
0.262262
0.251642
0.241015
0.230737
0.221106
0.212429
0.204862
0.19861
0.00666841
0.0399891
-0.0466575
0.0160319
0.1051
-0.114464
0.0225117
0.149561
-0.156041
0.0250105
0.174241
-0.176739
0.0244083
0.185212
-0.18461
0.021921
0.18829
-0.185802
0.0184799
0.186951
-0.18351
0.0147247
0.18219
-0.178435
0.0112301
0.172811
-0.169317
0.155595
0.00854666
-0.152912
0.00795961
0.0320295
0.0213801
0.0916796
0.0329751
0.137966
0.0402345
0.166981
0.0435166
0.18193
0.044066
0.18774
0.0429788
0.188038
0.040906
0.184263
0.0380499
0.175667
0.159487
0.0341576
0.00846287
0.0235666
0.0252553
0.0748872
0.0422155
0.121006
0.0550648
0.154132
0.0631207
0.173874
0.0673587
0.183502
0.0689578
0.186439
0.0686115
0.18461
0.0663408
0.177938
0.164536
0.0612927
0.00806161
0.015505
0.0267186
0.0562303
0.0485408
0.0991838
0.0676255
0.135047
0.0816048
0.159895
0.0906709
0.174436
0.0959328
0.181177
0.0982813
0.182261
0.0977274
0.178492
0.168931
0.0933322
0.00686689
0.0086381
0.0252201
0.0378771
0.0500852
0.0743187
0.0751792
0.109953
0.0962011
0.138873
0.111665
0.158972
0.121972
0.170869
0.128037
0.176197
0.130338
0.17619
0.171614
0.127655
0.00519754
0.00344057
0.0210906
0.021984
0.0458309
0.0495784
0.074713
0.0810711
0.10262
0.110966
0.12608
0.135512
0.143725
0.153224
0.155696
0.164226
0.162489
0.169397
0.169868
0.164236
0.00346849
-2.79242e-05
0.0155848
0.00986773
0.036902
0.0282612
0.0653949
0.0525781
0.0971277
0.0792333
0.127966
0.104674
0.154816
0.126374
0.176017
0.143025
0.191266
0.154148
0.16159
0.199544
0.00200933
-0.00203725
0.0101346
0.00174242
0.0260545
0.0123413
0.0499752
0.0286574
0.0802149
0.0489936
0.113776
0.0711129
0.147377
0.0927729
0.178027
0.112376
0.203882
0.128293
0.140021
0.225451
0.000875495
-0.00291275
0.005469
-0.00285109
0.0156987
0.00211165
0.0328681
0.011488
0.0571694
0.0246924
0.0874972
0.0407851
0.121779
0.0584906
0.15761
0.0765447
0.191461
0.0944424
0.105294
0.226188
-0.000120784
-0.00279196
0.00148169
-0.00445356
0.0066622
-0.00306887
0.0169987
0.00115149
0.0335986
0.00809241
0.056765
0.0176188
0.085974
0.0292816
0.120115
0.0424034
0.157428
0.0571296
0.0688832
0.193839
-0.000880497
-0.00191146
-0.00132154
-0.00401251
0.000316873
-0.00470728
0.0053877
-0.00391934
0.014959
-0.00147893
0.0298857
0.00269215
0.0506156
0.00855162
0.077014
0.0160051
0.108924
0.0252197
0.0382492
0.139558
-0.000635053
-0.00127641
-0.000981049
-0.00366652
-4.17075e-05
-0.00564662
0.00289726
-0.0068583
0.00848459
-0.00706627
0.0173095
-0.00613278
0.0298684
-0.00400729
0.0465127
-0.000639195
0.0672442
0.00448817
0.0133206
0.0921728
0.000311279
-0.00158769
0.00153746
-0.0048927
0.00387052
-0.00797968
0.0074491
-0.0104369
0.0123997
-0.0120169
0.0188946
-0.0126276
0.0271567
-0.0122694
0.0374378
-0.0109203
0.0502561
-0.00833009
-0.00354382
0.0671205
0.00076277
-0.00235046
0.00247707
-0.006607
0.00490535
-0.010408
0.00797104
-0.0135026
0.0116937
-0.0157396
0.0161684
-0.0171023
0.0215449
-0.0176458
0.0280228
-0.0173983
0.0359274
-0.0162346
-0.0142806
0.0466642
7.23434e-05
-0.0024228
-3.72674e-06
-0.00653093
-0.000316077
-0.0100956
-0.000775278
-0.0130434
-0.00122228
-0.0152926
-0.00144859
-0.016876
-0.00122063
-0.0178738
-0.000267447
-0.0183515
0.00188079
-0.0183829
-0.0179924
0.00559253
-0.0014484
-0.000974405
-0.00474656
-0.00323276
-0.00912406
-0.00571811
-0.0140131
-0.00815433
-0.0189582
-0.0103475
-0.0235646
-0.0122696
-0.0274843
-0.0139541
-0.0304151
-0.0154207
-0.0321443
-0.0166537
-0.0179415
-0.0321952
-0.00338576
0.00241135
-0.0104041
0.0037856
-0.0191681
0.0030459
-0.0286213
0.00129885
-0.0381464
-0.000822385
-0.0473468
-0.00306914
-0.0560107
-0.00529027
-0.0639652
-0.00746614
-0.071041
-0.00957788
-0.0118028
-0.0771797
-0.00506787
0.00747922
-0.0150797
0.0137975
-0.0271821
0.0151483
-0.0399666
0.0140833
-0.0528589
0.0120699
-0.0656587
0.0097307
-0.0782262
0.00727717
-0.0904652
0.00477295
-0.102288
0.00224471
-0.000291553
-0.113799
-0.00591455
0.0133938
-0.0175253
0.0254082
-0.0314713
0.0290942
-0.0461846
0.0287966
-0.0610618
0.0269471
-0.0759059
0.0245748
-0.0906366
0.0220079
-0.105189
0.0193249
-0.119491
0.0165467
0.0137606
-0.133543
-0.00561407
-0.0170844
-0.0311559
-0.04619
-0.061504
-0.0768452
-0.0920963
-0.107163
-0.121951
-0.13652
0.210712
0.0630643
-0.134218
0.227308
0.396971
-0.413567
0.230687
0.379684
-0.383063
0.241472
0.104651
-0.115435
0.236132
-0.0535846
0.058924
0.21738
-0.058248
0.0770005
0.203458
-0.0341892
0.0481106
0.19911
-0.0196533
0.0240019
0.201731
-0.0181077
0.0154867
-0.0169363
0.0113335
0.172574
-0.0173365
0.219264
0.35028
0.24207
0.356878
0.256095
0.0906267
0.240117
-0.0376073
0.216316
-0.0344472
0.203057
-0.0209301
0.200287
-0.016883
0.203592
-0.0214122
-0.0220836
0.132423
-0.0826386
0.192542
0.290161
0.23178
0.317639
0.244423
0.0779831
0.223011
-0.0161949
0.202945
-0.0143811
0.196556
-0.0145415
0.198377
-0.0187036
0.203577
-0.0266123
-0.0271476
0.0832148
-0.119189
0.148169
0.225207
0.197503
0.268305
0.205885
0.0696013
0.190076
-0.000385599
0.183906
-0.00821144
0.188709
-0.0193446
0.196082
-0.026076
0.203255
-0.0337853
-0.0321574
0.025595
-0.139192
0.0860152
0.164787
0.136825
0.217496
0.150004
0.0564223
0.155218
-0.00560025
0.168291
-0.0212837
0.183492
-0.0345461
0.194974
-0.037558
0.20333
-0.0421414
-0.0369241
-0.0494125
-0.121974
0.00525875
0.110116
0.0637947
0.15896
0.101854
0.018363
0.133439
-0.037185
0.160957
-0.0488026
0.181995
-0.0555833
0.195288
-0.0508508
0.203906
-0.0507601
-0.0412526
-0.127451
-0.0717034
-0.0726103
0.0552754
0.0150111
0.0713382
0.0789857
-0.0456116
0.126533
-0.0847323
0.160262
-0.0825318
0.183046
-0.0783669
0.196519
-0.0643244
0.204825
-0.059066
-0.0450546
-0.178114
-0.00738874
-0.109622
-0.0132168
4.35565e-06
-0.0382877
0.074738
-0.120345
0.127528
-0.137522
0.1626
-0.117604
0.18517
-0.100936
0.198143
-0.077298
0.205923
-0.0668459
-0.0483413
-0.195262
0.0543304
-0.115862
-0.0926167
0.0013772
-0.155527
0.0772701
-0.196238
0.130971
-0.191223
0.165762
-0.152396
0.18757
-0.122744
0.19989
-0.0896179
0.207116
-0.0740719
-0.0511734
-0.18886
-0.108204
0.00661644
0.082788
0.135688
0.169379
0.190142
0.201725
0.208388
0.0486063
0.0366135
-0.0852198
0.0104365
0.0381698
-0.0181501
0.0285866
-0.0236968
0.00554673
-0.004543
-0.0191538
0.0191502
-0.0236932
0.0338949
-0.0147446
0.040265
-0.00637011
0.0427744
-0.00250945
-0.00107856
0.195207
0.113672
-0.272266
0.0885873
0.14479
0.0173497
0.0998242
0.00917122
0.0137252
0.0391315
-0.0491141
0.0748928
-0.0594544
0.097542
-0.0373938
0.108185
-0.0170132
0.113131
-0.0074557
-0.00348529
0.341223
0.172381
-0.399933
0.209015
0.276998
0.105167
0.203672
0.0812696
0.0376228
0.102612
-0.0704568
0.129185
-0.086027
0.147226
-0.0554354
0.156629
-0.0264156
0.161873
-0.0126995
-0.00651697
0.419143
0.180331
-0.427093
0.315734
0.380407
0.210411
0.308995
0.172354
0.0756795
0.175252
-0.0733548
0.181148
-0.0919228
0.185189
-0.0594762
0.188014
-0.0292406
0.190998
-0.0156837
-0.00926683
0.399189
-0.353076
0.366029
0.29196
0.252204
0.237774
0.222851
0.211486
0.206247
0.20605
0.0105171
-0.000162756
-0.0103543
0.0121097
-0.0015926
0.0150082
-0.00289853
0.0194086
-0.00440044
0.0257421
-0.00633349
0.0332864
-0.00754422
0.0435709
-0.0102845
0.0553465
-0.0117756
0.0698647
-0.0145181
-0.0153551
0.0290251
-0.000898428
-0.0282894
0.0335771
-0.00614459
0.0418346
-0.011156
0.0549842
-0.0175501
0.0734542
-0.0248034
0.096966
-0.0310561
0.130304
-0.0436228
0.167713
-0.0491841
0.216338
-0.0631436
-0.0712826
0.0449933
-0.00246592
-0.0434258
0.0522458
-0.0133971
0.065318
-0.0242283
0.0860432
-0.0382753
0.114183
-0.0529429
0.152287
-0.0691605
0.201502
-0.0928374
0.257479
-0.105161
0.329483
-0.135148
-0.141732
0.0583027
-0.00500189
-0.0557668
0.0677845
-0.0228789
0.0848503
-0.041294
0.110813
-0.0642375
0.146055
-0.0881848
0.193193
-0.116299
0.247024
-0.146668
0.312003
-0.170141
0.380063
-0.203208
-0.188762
0.0690543
-0.0655096
0.080333
0.100332
0.129426
0.168896
0.216833
0.269709
0.325019
0.347999
0.0811488
-0.0728133
0.0806523
-0.0889877
0.0725825
-0.0738875
0.0824538
0.0636969
-0.0755983
0.0844839
0.0542329
-0.0774281
0.0868921
0.044102
-0.0792499
0.0893808
0.0334238
-0.0807498
0.0914279
0.0225621
-0.0808408
0.0917025
0.0122692
-0.0767482
0.0870411
0.00396295
-0.0630143
0.0713206
-0.0310923
0.0350553
0.0896031
-0.0634044
-0.099012
0.0798263
-0.0641107
0.069419
-0.065191
0.0584399
-0.066449
0.0470426
-0.0678527
0.0354089
-0.069116
0.023834
-0.0692659
0.0129772
-0.0658914
0.00421597
-0.0542531
-0.0268763
0.0911309
-0.0528169
-0.101718
0.0804372
-0.053417
0.0695458
-0.0542996
0.0584619
-0.0553651
0.0471584
-0.0565492
0.0356368
-0.0575944
0.0240866
-0.0577157
0.0131489
-0.0549538
0.00426605
-0.0453702
-0.0226103
0.0962356
-0.0419622
-0.10709
0.0852234
-0.0424047
0.0739821
-0.0430583
0.0624339
-0.0438169
0.0505294
-0.0446447
0.0383049
-0.0453698
0.026003
-0.0454138
0.014308
-0.0432588
0.00472043
-0.0357826
-0.0178899
0.098844
-0.0306511
-0.110155
0.0873914
-0.0309521
0.0756917
-0.0313586
0.0637192
-0.0318444
0.051465
-0.0323904
0.0389763
-0.0328812
0.026468
-0.0329055
0.0145799
-0.0313707
0.00480984
-0.0260126
-0.01308
0.101944
-0.0191648
-0.11343
0.0902346
-0.0192427
0.0782734
-0.0193974
0.066029
-0.0196001
0.0534796
-0.0198411
0.0406509
-0.0200524
0.027739
-0.0199936
0.0153861
-0.0190178
0.00513806
-0.0157645
-0.00794197
0.104054
-0.00743704
-0.115782
0.0921239
-0.00731237
0.0799364
-0.00720993
0.0674635
-0.00712712
0.0546824
-0.00706001
0.0416156
-0.00698556
0.0284504
-0.00682847
0.0158221
-0.00638945
0.00530124
-0.00524366
-0.00264073
0.105772
0.00441895
-0.117628
0.093679
0.00478026
0.0813182
0.00515084
0.068662
0.00552911
0.0556895
0.00591249
0.0424233
0.00628061
0.0290478
0.00654703
0.0161948
0.00646355
0.00544916
0.00550197
0.00280843
0.106868
0.0163686
-0.118818
0.0946737
0.0169744
0.0822055
0.017619
0.0694367
0.018298
0.0563457
0.0190035
0.0429527
0.0196736
0.0294382
0.0200615
0.0164334
0.0194684
0.00553911
0.0163962
0.00834754
0.107339
-0.119345
0.0950948
0.0825758
0.0697572
0.0566171
0.0431732
0.0296018
0.0165321
0.00557457
0.0131235
-0.150867
-0.0151686
0.00878336
-0.164977
0.00343726
-0.173089
-0.00205622
-0.178016
-0.00703424
-0.180824
-0.0107272
-0.180917
-0.0121125
-0.175354
-0.0101319
-0.158022
-0.00486222
-0.119733
-0.0515197
0.0355117
-0.147979
-0.038399
0.0296706
-0.159136
0.0225882
-0.166007
0.0151968
-0.170625
0.00804871
-0.173676
0.00173981
-0.174608
-0.00277368