/*--------------------------------*- C++ -*----------------------------------*\
  =========                 |
  \\      /  F ield         | OpenFOAM: The Open Source CFD Toolbox
   \\    /   O peration     | Website:  https://openfoam.org
    \\  /    A nd           | Version:  13
     \\/     M anipulation  |
\*---------------------------------------------------------------------------*/
FoamFile
{
    format      ascii;
    class       volVectorField;
    location    "2.8";
    object      U;
}
// * * * * * * * * * * * * * * * * * * * * * * * * * * * * * * * * * * * * * //

dimensions      [0 1 -1 0 0 0 0];

internalField   nonuniform List<vector> 
1800
(
(-0.0310301 0.0244009 9.88808e-21)
(-0.0752118 0.0461951 4.49733e-21)
(-0.0913819 0.0580986 -5.72076e-20)
(-0.0734646 0.0638157 6.66115e-20)
(-0.014268 0.0654423 1.73067e-19)
(0.0906598 0.0632393 7.12029e-20)
(0.24287 0.0579765 -2.35111e-20)
(0.436615 0.0474553 7.07416e-20)
(0.693781 0.0530267 1.72491e-19)
(0.823491 0.0846101 2.09625e-19)
(-0.044995 0.0333543 9.10075e-21)
(-0.0804913 0.0545653 -4.90766e-20)
(-0.0616602 0.0539882 4.47683e-22)
(0.0128978 0.039919 -6.37728e-20)
(0.146648 0.017904 2.53417e-20)
(0.339036 -0.0088592 1.42117e-19)
(0.583245 -0.0373227 -4.79715e-20)
(0.863891 -0.0685387 8.68065e-21)
(1.18278 -0.0877714 -1.73041e-19)
(1.39208 -0.10681 1.56283e-19)
(-0.0487173 0.0322627 4.97453e-21)
(-0.0582403 0.0466823 1.8519e-20)
(0.0149821 0.0362886 4.20916e-21)
(0.167371 0.0103662 -1.41056e-20)
(0.394291 -0.0231842 -1.51772e-19)
(0.682037 -0.0584315 2.97052e-20)
(1.00715 -0.0911618 5.63099e-20)
(1.34283 -0.118145 -2.28448e-20)
(1.65801 -0.138399 -1.39748e-22)
(1.94251 -0.168957 -4.68251e-22)
(-0.0405469 0.0236049 -8.43559e-21)
(-0.0026876 0.0231003 -2.66254e-20)
(0.146787 0.00133206 -2.74356e-20)
(0.395916 -0.031855 2.76304e-20)
(0.723069 -0.0672465 2.5978e-20)
(1.09246 -0.0984428 1.07149e-20)
(1.4627 -0.122188 -3.6126e-21)
(1.79699 -0.138284 1.02501e-19)
(2.07737 -0.149401 1.01728e-19)
(2.27828 -0.156222 -4.94337e-20)
(-0.0197115 0.011282 6.43798e-20)
(0.0912032 -0.00646297 5.9573e-20)
(0.339475 -0.0362822 -4.23036e-20)
(0.694499 -0.0676832 -5.20337e-20)
(1.106 -0.0927456 -1.50016e-19)
(1.51449 -0.108485 2.37148e-21)
(1.87124 -0.115983 2.12454e-19)
(2.15046 -0.118504 9.79639e-20)
(2.34372 -0.117456 8.85367e-22)
(2.47341 -0.124893 -9.84025e-20)
(0.0168602 -0.00262907 -6.26468e-20)
(0.228019 -0.0337123 -1.34168e-20)
(0.590003 -0.062558 2.17431e-19)
(1.03954 -0.0806065 -7.05044e-20)
(1.49437 -0.0864267 -1.6707e-19)
(1.8864 -0.0837342 3.57126e-19)
(2.18193 -0.0775743 -3.67594e-19)
(2.37859 -0.0717211 -5.1838e-19)
(2.49668 -0.068527 4.27456e-19)
(2.55465 -0.0686595 2.46528e-21)
(0.0715609 -0.0150349 6.75057e-20)
(0.405662 -0.049318 -1.52321e-19)
(0.879263 -0.0646749 -5.44386e-19)
(1.38885 -0.0600608 2.75309e-19)
(1.83599 -0.044894 6.19166e-19)
(2.16994 -0.0282352 -2.41333e-21)
(2.38729 -0.0151335 -1.33555e-18)
(2.51176 -0.00723143 8.47791e-21)
(2.57225 -0.00298419 1.59816e-18)
(2.59618 -0.00631519 4.3936e-19)
(0.143899 -0.0221393 6.3334e-20)
(0.612695 -0.0447631 3.52876e-19)
(1.17653 -0.0346177 4.74597e-19)
(1.70202 -0.00452852 -1.13511e-19)
(2.10371 0.0266625 -5.58605e-19)
(2.36549 0.049953 -2.13989e-19)
(2.51293 0.0638091 0)
(2.58298 0.0700461 6.64482e-19)
(2.60782 0.0708312 -1.24296e-20)
(2.60631 0.0666391 -6.31461e-19)
(0.230132 -0.0198341 5.45799e-20)
(0.830306 -0.0136613 3.94842e-19)
(1.45081 0.0296832 7.50736e-19)
(1.95578 0.0819193 -8.04307e-19)
(2.29539 0.121936 -7.07863e-19)
(2.4889 0.14573 2.79184e-19)
(2.58088 0.156392 -1.32283e-18)
(2.61333 0.15844 -9.99586e-19)
(2.61456 0.155668 1.22642e-18)
(2.59991 0.147791 1.06784e-18)
(0.323763 -0.0048753 -3.11044e-20)
(1.03777 0.0459393 3.15473e-19)
(1.68092 0.124401 1.9363e-19)
(2.14384 0.192506 -1.58281e-18)
(2.41963 0.234767 4.48955e-20)
(2.55565 0.254268 3.15204e-18)
(2.60683 0.258643 -1.82614e-18)
(2.61434 0.254661 -1.06729e-18)
(2.6017 0.246301 3.78265e-19)
(2.57823 0.234258 -8.65495e-19)
(-0.0151654 0.266329 2.62792e-19)
(-0.0673105 0.522699 -1.30457e-19)
(-0.134069 0.615651 1.15879e-21)
(-0.205642 0.627835 -3.48241e-20)
(-0.274285 0.607504 2.74324e-21)
(-0.338465 0.575728 2.16514e-19)
(-0.397905 0.539276 1.83527e-19)
(-0.452047 0.499652 -3.50647e-19)
(-0.500923 0.457122 2.20822e-20)
(-0.546485 0.412125 -6.75387e-20)
(-0.0354191 0.300724 -8.19532e-21)
(-0.0906134 0.61509 1.83104e-20)
(-0.147175 0.742493 1.2997e-20)
(-0.203511 0.769554 4.55635e-20)
(-0.256479 0.75243 -1.75716e-19)
(-0.305207 0.718153 2.16586e-19)
(-0.349338 0.67639 -3.26763e-19)
(-0.38805 0.629622 -4.30586e-19)
(-0.420498 0.5783 3.08655e-19)
(-0.447697 0.522836 -9.7714e-20)
(-0.0540882 0.297143 -7.5307e-20)
(-0.112333 0.648928 4.98988e-20)
(-0.15608 0.816198 6.2366e-21)
(-0.19218 0.868822 -2.32682e-19)
(-0.224223 0.862805 -7.65297e-20)
(-0.252353 0.830455 8.23844e-19)
(-0.276183 0.785616 -3.11883e-19)
(-0.294903 0.732794 -4.18891e-19)
(-0.306943 0.673198 4.90912e-19)
(-0.311308 0.607412 2.69154e-19)
(-0.0640063 0.256434 -6.39023e-20)
(-0.123986 0.61363 -3.89405e-21)
(-0.155492 0.81988 1.62857e-20)
(-0.171418 0.909721 -6.81473e-20)
(-0.180582 0.927332 2.54659e-19)
(-0.185645 0.906152 -2.80191e-19)
(-0.186949 0.864566 -2.51744e-19)
(-0.184039 0.810334 3.01344e-19)
(-0.175979 0.745855 1.6543e-20)
(-0.157466 0.672379 8.53025e-21)
(-0.0611336 0.190556 0)
(-0.120711 0.513089 9.42819e-21)
(-0.144237 0.742515 -5.95342e-20)
(-0.144625 0.874057 1.13243e-19)
(-0.133396 0.928564 3.38808e-19)
(-0.116043 0.932015 -2.76731e-19)
(-0.0946728 0.904182 1.12527e-19)
(-0.0697288 0.856554 1.86267e-20)
(-0.0410861 0.79407 0)
(-0.000326838 0.719167 1.89086e-20)
(-0.0470062 0.11899 -2.51371e-20)
(-0.101717 0.372423 6.84046e-20)
(-0.122656 0.594051 2.84421e-20)
(-0.116574 0.753125 -4.5384e-20)
(-0.0932282 0.846425 5.0834e-20)
(-0.0593099 0.885497 1.97628e-19)
(-0.0188919 0.884795 -5.13598e-19)
(0.025984 0.856139 -3.17608e-20)
(0.0729144 0.806517 6.11389e-19)
(0.131649 0.740389 1.10179e-20)
(-0.0282033 0.0599795 9.9216e-21)
(-0.0735129 0.23132 1.29579e-19)
(-0.0952943 0.413325 -6.66975e-20)
(-0.0919057 0.569294 -1.10532e-20)
(-0.0677539 0.68224 -6.82976e-20)
(-0.0280115 0.750639 9.06027e-20)
(0.0226442 0.78036 1.87311e-19)
(0.0809164 0.779375 2.39443e-19)
(0.142028 0.753933 -2.40378e-19)
(0.211688 0.708941 -3.20386e-19)
(-0.0123369 0.0223665 2.48291e-20)
(-0.0478995 0.121956 -6.81525e-20)
(-0.071878 0.248474 -1.01206e-19)
(-0.0761019 0.37239 3.81278e-20)
(-0.0592423 0.475135 -1.88323e-20)
(-0.0234788 0.549113 5.24022e-20)
(0.0273876 0.59402 2.60308e-20)
(0.0895432 0.613498 1.1679e-19)
(0.15793 0.612057 9.01966e-20)
(0.233425 0.585445 -2.00777e-19)
(-0.00588657 0.0067933 1.47799e-20)
(-0.0387647 0.057597 -1.06521e-19)
(-0.0669963 0.131474 1.5537e-19)
(-0.079612 0.210184 1.64829e-19)
(-0.0715503 0.281135 -1.09566e-19)
(-0.0421062 0.337492 2.09149e-19)
(0.00699785 0.377383 -4.17714e-20)
(0.0733746 0.402415 -5.07544e-20)
(0.154568 0.41336 5.76205e-20)
(0.260825 0.392049 -1.57637e-19)
(-0.013852 0.0109463 -9.47335e-21)
(-0.0535245 0.0381111 -5.19366e-20)
(-0.084232 0.0728773 -1.70704e-20)
(-0.0958903 0.109351 7.62967e-20)
(-0.0813325 0.14313 1.48524e-19)
(-0.0369817 0.171094 -1.42381e-19)
(0.0389438 0.192392 -9.11906e-20)
(0.145661 0.207391 3.22668e-21)
(0.285629 0.216301 7.12828e-20)
(0.452917 0.21161 1.1476e-19)
(-0.765457 0.175921 9.67292e-19)
(-0.64052 -0.300835 -1.84544e-18)
(-0.0991491 -0.456487 -3.24355e-19)
(0.28348 -0.432867 8.78567e-20)
(0.595902 -0.376157 -1.70763e-20)
(0.779484 -0.282416 -1.04787e-20)
(0.903794 -0.214617 -7.74895e-21)
(0.987485 -0.149781 -2.5638e-21)
(1.02811 -0.118107 1.12525e-20)
(1.07008 -0.077669 2.62802e-21)
(-0.582918 0.220926 9.8937e-19)
(-0.374757 -0.394396 7.8023e-19)
(0.0533776 -0.590585 -4.4908e-20)
(0.405542 -0.534532 -1.55132e-19)
(0.677658 -0.443382 -1.67565e-19)
(0.831884 -0.325373 0)
(0.936273 -0.24195 -1.77655e-20)
(1.00598 -0.166314 5.05511e-21)
(1.04048 -0.128792 3.75654e-22)
(1.07611 -0.0833611 -5.24578e-21)
(-0.348137 0.242009 -3.87688e-19)
(-0.0687099 -0.472874 -3.97647e-19)
(0.273122 -0.696419 2.46776e-19)
(0.561545 -0.622753 6.43977e-20)
(0.782133 -0.500514 1.44605e-20)
(0.899465 -0.360987 -5.08608e-21)
(0.977724 -0.264329 0)
(1.02917 -0.179924 0)
(1.05533 -0.137648 -9.63585e-21)
(1.08299 -0.0881043 0)
(-0.0935693 0.245421 -9.39066e-20)
(0.252168 -0.532292 8.16406e-19)
(0.52654 -0.779618 -1.31279e-19)
(0.733084 -0.693721 0)
(0.896417 -0.54637 2.14242e-19)
(0.975704 -0.388415 -3.90491e-20)
(1.02578 -0.280816 0)
(1.05649 -0.189853 3.48241e-20)
(1.07252 -0.144169 0)
(1.09067 -0.0916674 4.64405e-21)
(0.16065 0.236202 7.54256e-20)
(0.577524 -0.574692 3.73707e-19)
(0.792115 -0.840457 8.87539e-20)
(0.910604 -0.745711 0)
(1.01024 -0.580569 9.07438e-20)
(1.0525 -0.408076 9.4805e-20)
(1.07614 -0.291466 1.68297e-22)
(1.08622 -0.195821 -1.66483e-22)
(1.09147 -0.148015 -8.87446e-21)
(1.099 -0.09386 1.8711e-21)
(0.384602 0.222799 8.70106e-19)
(0.890527 -0.605579 -3.26094e-19)
(1.0573 -0.879217 -4.64386e-20)
(1.08926 -0.778754 3.07993e-19)
(1.12012 -0.602617 -1.63023e-19)
(1.12462 -0.420529 5.07177e-20)
(1.12449 -0.296963 9.54924e-20)
(1.11602 -0.198076 -8.11589e-20)
(1.11115 -0.149124 3.43834e-23)
(1.10767 -0.0945815 -1.07095e-20)
(0.561134 0.199918 7.96347e-20)
(1.18281 -0.630092 -2.29224e-20)
(1.30747 -0.899321 -1.29208e-19)
(1.26156 -0.795461 -1.05023e-20)
(1.22536 -0.613001 -1.64709e-19)
(1.19079 -0.426145 -6.82724e-21)
(1.16831 -0.298025 -4.06433e-20)
(1.14373 -0.19716 -1.8964e-22)
(1.13027 -0.147689 1.09443e-20)
(1.11623 -0.0938462 -9.22616e-22)
(0.711881 0.152024 -5.31687e-19)
(1.45098 -0.649992 -4.57373e-20)
(1.53497 -0.902069 0)
(1.42061 -0.798071 8.82922e-20)
(1.32495 -0.613242 1.4226e-19)
(1.252 -0.425522 -9.21256e-21)
(1.20726 -0.295254 -1.36787e-19)
(1.16813 -0.193667 3.49063e-20)
(1.14769 -0.144076 -5.59047e-22)
(1.12413 -0.0917743 -5.80655e-21)
(0.899256 0.0538005 5.94532e-19)
(1.69737 -0.663358 1.72114e-19)
(1.73508 -0.888674 1.10067e-19)
(1.56265 -0.787799 -5.77289e-20)
(1.41762 -0.60483 6.57018e-21)
(1.30965 -0.419461 -1.40481e-19)
(1.24257 -0.289245 4.70121e-20)
(1.18925 -0.188203 -9.49029e-23)
(1.1627 -0.138786 -6.20482e-22)
(1.13091 -0.0885775 7.435e-21)
(1.15283 -0.0647702 -3.92513e-19)
(1.92007 -0.663702 2.0648e-19)
(1.90428 -0.861715 1.34819e-19)
(1.68643 -0.766971 -2.45826e-19)
(1.50246 -0.58868 -1.59009e-19)
(1.36442 -0.40824 -7.88815e-20)
(1.27572 -0.280222 -2.59954e-20)
(1.20806 -0.1812 0)
(1.17533 -0.132363 -1.6038e-20)
(1.13634 -0.0845199 1.15091e-20)
(1.82281 -0.214532 -7.62247e-19)
(2.22864 -0.657499 -5.87991e-19)
(2.10508 -0.811776 -7.70868e-20)
(1.83355 -0.724897 4.25804e-20)
(1.60379 -0.554912 4.08553e-20)
(1.43056 -0.383502 -5.87393e-20)
(1.31557 -0.261163 -3.99572e-20)
(1.22983 -0.168019 2.26459e-20)
(1.1887 -0.12183 -8.71614e-21)
(1.14177 -0.0783852 -5.7507e-21)
(2.37175 -0.308266 9.13694e-20)
(2.45028 -0.661704 -1.08626e-18)
(2.16742 -0.747126 -4.46343e-19)
(1.84573 -0.626274 8.92987e-22)
(1.61754 -0.456541 1.42586e-19)
(1.45199 -0.307456 1.4532e-19)
(1.33744 -0.20898 1.02549e-19)
(1.24473 -0.135873 -1.16306e-20)
(1.19921 -0.101099 3.48196e-20)
(1.14551 -0.0675868 4.83102e-21)
(2.48309 -0.329171 -1.27647e-20)
(2.39426 -0.559341 -1.2651e-20)
(2.15877 -0.621405 4.63172e-20)
(1.91549 -0.535379 1.73205e-35)
(1.70569 -0.397989 -2.67609e-20)
(1.52282 -0.266076 -4.40189e-34)
(1.38575 -0.175689 1.01865e-20)
(1.27293 -0.111334 1.94013e-34)
(1.21606 -0.082449 -6.98928e-22)
(1.1515 -0.056732 1.23494e-21)
(2.44362 -0.3111 -2.46881e-34)
(2.35597 -0.492583 3.27825e-19)
(2.16866 -0.559338 1.47467e-19)
(1.92886 -0.467021 0)
(1.7021 -0.317266 -8.45682e-20)
(1.51047 -0.192588 -7.76608e-20)
(1.37642 -0.119757 -6.00229e-20)
(1.26838 -0.0743468 7.2828e-34)
(1.216 -0.0571356 -1.77263e-20)
(1.15094 -0.0429322 -1.85838e-21)
(2.39592 -0.297231 -7.14595e-21)
(2.31409 -0.436308 4.66016e-21)
(2.15152 -0.476142 0)
(1.93601 -0.380523 0)
(1.71772 -0.241689 0)
(1.5195 -0.134763 0)
(1.37835 -0.0778736 3.40611e-21)
(1.26616 -0.046088 8.51493e-34)
(1.21344 -0.0362702 -1.21674e-21)
(1.14763 -0.0304113 -2.78224e-34)
(2.34985 -0.278957 6.48981e-20)
(2.27791 -0.385127 0)
(2.11511 -0.410102 0)
(1.88205 -0.307977 0)
(1.65418 -0.167557 0)
(1.46179 -0.0698654 0)
(1.33384 -0.028528 -7.46528e-21)
(1.23478 -0.0135834 2.67635e-20)
(1.19146 -0.0137581 -1.46591e-21)
(1.13272 -0.0173265 1.90441e-23)
(2.29666 -0.258387 0)
(2.19784 -0.335976 9.12497e-20)
(1.98063 -0.331035 2.88902e-20)
(1.71421 -0.218763 0)
(1.4885 -0.0895607 -5.64754e-20)
(1.32295 -0.0129538 -4.28195e-20)
(1.22841 0.00939646 -3.3017e-20)
(1.15899 0.0101313 -1.28305e-20)
(1.13402 0.003138 9.53947e-21)
(1.09053 -0.00657095 -4.08126e-21)
(2.14222 -0.223309 -8.48691e-22)
(1.94901 -0.260921 2.37628e-21)
(1.63638 -0.225926 -6.80983e-21)
(1.34171 -0.122604 -8.01337e-36)
(1.15338 -0.0238559 1.47445e-20)
(1.05482 0.0257814 -2.43374e-34)
(1.02122 0.0316418 -9.06663e-21)
(0.999301 0.0226768 -1.68385e-20)
(1.00055 0.0120699 -1.66103e-21)
(0.97994 0.000276093 3.25872e-21)
(1.63846 -0.15869 1.42743e-20)
(1.32467 -0.149388 -1.73802e-20)
(0.963201 -0.0942113 2.08262e-22)
(0.720438 -0.0278256 0)
(0.634115 0.0175741 9.33567e-21)
(0.637227 0.0349186 9.37485e-21)
(0.6737 0.0304141 -1.83766e-21)
(0.700294 0.0200029 4.4127e-21)
(0.724846 0.0112916 -5.91986e-21)
(0.726939 0.00261085 -2.96803e-21)
(0.546329 -0.0234007 0)
(0.323228 -0.00616237 0)
(0.158182 0.000615189 0)
(0.0851407 0.00289211 0)
(0.0925087 0.00575984 0)
(0.14167 0.00695757 0)
(0.195391 0.00534842 -9.3214e-21)
(0.233797 0.00326065 2.77194e-35)
(0.259259 0.0017999 -1.90589e-21)
(0.270057 0.000427745 -3.42738e-21)
(2.51292 0.20851 8.37205e-19)
(2.54862 0.136123 5.14116e-20)
(2.56711 0.0599991 -8.46075e-20)
(2.5801 0.00367453 -2.7247e-19)
(2.59121 -0.0669675 -5.09269e-20)
(2.55482 -0.095737 -7.83377e-20)
(2.56969 -0.169508 -2.57609e-19)
(2.37038 -0.14449 1.22599e-20)
(2.35878 -0.220818 0)
(1.72556 -0.0822049 7.25974e-21)
(2.43894 0.166158 2.66992e-19)
(2.42788 0.126107 -3.08181e-19)
(2.51629 0.0423914 -6.54045e-20)
(2.46206 0.017739 -1.33322e-19)
(2.58157 -0.0707444 1.10997e-19)
(2.46739 -0.0775768 1.9313e-19)
(2.62965 -0.170893 -2.55517e-19)
(2.43533 -0.168124 -1.3693e-20)
(2.59976 -0.249909 -1.55216e-20)
(2.31166 -0.24751 8.99075e-20)
(2.38162 0.134119 -1.21173e-19)
(2.34774 0.104673 2.74991e-19)
(2.45471 0.0308278 1.69904e-19)
(2.38638 0.00929291 -2.86026e-19)
(2.5082 -0.0639818 -4.70044e-20)
(2.4143 -0.0836729 4.09875e-19)
(2.53748 -0.149178 7.68658e-20)
(2.44272 -0.17816 -8.79067e-20)
(2.53233 -0.223751 -5.31545e-20)
(2.46279 -0.268978 -6.21694e-20)
(2.31986 0.10521 -3.08953e-19)
(2.31157 0.0726461 -4.68914e-20)
(2.38284 0.0201343 2.36013e-20)
(2.35829 -0.011451 -1.61911e-20)
(2.42245 -0.0594433 -2.36985e-19)
(2.39454 -0.0946006 -9.46173e-20)
(2.44097 -0.133183 2.36138e-19)
(2.42656 -0.175749 -1.27483e-20)
(2.44732 -0.202715 4.83908e-20)
(2.4534 -0.252284 2.18664e-20)
(2.26805 0.0755665 4.58024e-20)
(2.28785 0.0413669 1.33701e-19)
(2.32525 0.00490455 -2.77341e-20)
(2.33676 -0.0304194 2.07316e-19)
(2.3619 -0.0631328 -5.54769e-20)
(2.37118 -0.100785 -2.54386e-19)
(2.38243 -0.128351 4.05634e-20)
(2.3947 -0.168347 -9.91635e-20)
(2.39459 -0.191781 1.56696e-20)
(2.4104 -0.233227 -2.62925e-21)
(2.22889 0.0438266 -1.70427e-19)
(2.25909 0.013097 -7.76908e-20)
(2.28289 -0.0143479 3.9741e-22)
(2.30617 -0.0461995 1.21613e-19)
(2.31959 -0.0716618 2.71861e-19)
(2.33805 -0.104751 -7.52314e-20)
(2.34222 -0.128172 6.94097e-21)
(2.35772 -0.162216 -6.92529e-20)
(2.3548 -0.184251 -9.94829e-20)
(2.36873 -0.219016 -5.05426e-20)
(2.18257 0.0130284 -5.9733e-20)
(2.2124 -0.0118268 -1.31644e-19)
(2.23203 -0.0332832 -1.46413e-19)
(2.25601 -0.059066 -2.75537e-19)
(2.26739 -0.0797988 6.37332e-20)
(2.28699 -0.106915 6.39143e-20)
(2.2908 -0.127145 1.14753e-20)
(2.30788 -0.15574 8.01759e-20)
(2.30447 -0.175479 -1.02e-19)
(2.32158 -0.205482 -5.20551e-20)
(2.07226 -0.0133894 6.278e-20)
(2.09765 -0.0313988 4.05372e-20)
(2.10868 -0.0465124 2.10094e-20)
(2.13183 -0.065487 -4.34018e-20)
(2.13522 -0.0804214 -4.15227e-20)
(2.15849 -0.1011 -3.12467e-20)
(2.15394 -0.116236 -5.03871e-20)
(2.18006 -0.139167 8.7782e-20)
(2.16632 -0.154507 -4.37976e-20)
(2.19887 -0.179743 3.3553e-20)
(1.74686 -0.0311742 -6.08644e-20)
(1.75488 -0.0407884 -5.4123e-21)
(1.7494 -0.048659 1.15689e-19)
(1.75869 -0.0587459 -1.02514e-20)
(1.74627 -0.0664749 -3.29049e-20)
(1.76046 -0.0781412 6.86638e-20)
(1.73885 -0.086293 -4.8831e-20)
(1.76191 -0.100452 3.37774e-20)
(1.72693 -0.109368 -3.34446e-21)
(1.76484 -0.126559 -4.67998e-20)
(0.870411 -0.0139434 5.02503e-20)
(0.852494 -0.0136127 4.08102e-20)
(0.832971 -0.0133982 3.99832e-20)
(0.816172 -0.0134137 6.42915e-20)
(0.795839 -0.0139071 -3.26698e-20)
(0.781259 -0.0147777 -3.87442e-20)
(0.757667 -0.0162784 1.69364e-20)
(0.747254 -0.0184355 -2.86969e-21)
(0.712264 -0.0199009 4.32626e-21)
(0.717319 -0.0277497 -6.21193e-21)
(1.57986 0.962306 -8.70212e-20)
(1.56328 1.00863 2.75611e-20)
(1.56677 1.06275 -6.52045e-19)
(1.5755 1.12439 2.41658e-19)
(1.58218 1.1895 1.22029e-18)
(1.57822 1.25015 -1.51072e-19)
(1.54172 1.28408 -1.08532e-18)
(1.42214 1.23902 -4.00545e-21)
(1.12922 1.01776 -5.36505e-19)
(0.531084 0.491122 1.21587e-19)
(1.74585 0.931619 0)
(1.73429 0.97645 7.5599e-19)
(1.7341 1.02668 1.67336e-18)
(1.74241 1.08573 -1.02955e-18)
(1.75244 1.14934 -2.40344e-18)
(1.75197 1.20803 -1.58438e-19)
(1.71378 1.23836 -2.03015e-19)
(1.57964 1.18871 7.41192e-19)
(1.2489 0.967667 1.11186e-18)
(0.581956 0.45979 4.41139e-19)
(1.89999 0.889833 7.03146e-20)
(1.89741 0.934463 0)
(1.89845 0.981779 -6.97573e-20)
(1.90732 1.03636 1.04993e-18)
(1.91943 1.09525 5.76431e-20)
(1.92039 1.14872 -2.35118e-18)
(1.87798 1.17269 1.48629e-18)
(1.72627 1.11767 8.81734e-19)
(1.35611 0.899834 -9.54635e-19)
(0.623912 0.419115 -2.83496e-19)
(2.03473 0.840625 -1.91418e-19)
(2.04249 0.883152 -1.40667e-19)
(2.0492 0.926705 2.88681e-19)
(2.06119 0.975667 -3.5776e-19)
(2.07546 1.02794 -1.65622e-18)
(2.07628 1.07385 -1.28394e-18)
(2.02672 1.08969 1.35293e-18)
(1.85462 1.0276 8.93865e-19)
(1.44259 0.814573 0)
(0.652327 0.369451 0)
(2.15411 0.77386 -9.53275e-19)
(2.17029 0.814136 -1.74092e-18)
(2.18371 0.854338 -6.69811e-19)
(2.19987 0.898203 -3.51381e-20)
(2.21595 0.944009 0)
(2.21479 0.981809 1.41977e-19)
(2.15494 0.987069 1.64196e-19)
(1.95667 0.919264 2.04884e-19)
(1.50085 0.71477 -2.94344e-19)
(0.663469 0.311518 -7.37426e-20)
(2.25843 0.699189 1.13925e-18)
(2.28172 0.73491 -4.34004e-20)
(2.30124 0.77033 -1.33374e-18)
(2.3212 0.808055 0)
(2.33799 0.845525 0)
(2.33157 0.873557 0)
(2.25525 0.869668 1.53397e-18)
(2.02484 0.796186 -1.69525e-18)
(1.52622 0.601437 -1.07676e-18)
(0.654478 0.248078 1.43885e-20)
(2.34949 0.610967 -1.48628e-18)
(2.37764 0.642467 -3.11846e-18)
(2.4016 0.67337 -5.4057e-21)
(2.42373 0.70518 6.29563e-19)
(2.43825 0.734868 -3.92689e-20)
(2.42148 0.752985 1.33029e-18)
(2.32228 0.73917 -7.3347e-19)
(2.05481 0.660834 -1.95639e-18)
(1.51365 0.479481 1.14323e-19)
(0.624074 0.183218 8.72672e-20)
(2.42823 0.519474 -1.16367e-18)
(2.45846 0.545175 1.66031e-20)
(2.48408 0.570464 4.38667e-19)
(2.50549 0.595456 -4.23099e-19)
(2.51366 0.616555 6.55984e-19)
(2.48063 0.624249 1.75001e-18)
(2.351 0.600361 -1.60833e-19)
(2.04038 0.518806 -1.03142e-18)
(1.45889 0.35556 2.36024e-19)
(0.572489 0.121431 4.3022e-20)
(2.49254 0.422236 4.26067e-19)
(2.52304 0.443674 8.57582e-20)
(2.54781 0.463521 -4.39253e-19)
(2.56494 0.481557 -1.02367e-18)
(2.56137 0.493869 7.47548e-20)
(2.50428 0.491325 5.9971e-20)
(2.33532 0.458578 -1.28036e-18)
(1.97587 0.376875 5.40869e-19)
(1.36003 0.236968 1.56653e-19)
(0.501973 0.067183 -7.02695e-20)
(2.54285 0.327979 7.95492e-19)
(2.57083 0.344278 -1.18393e-18)
(2.59165 0.357925 1.78833e-19)
(2.59976 0.368524 2.33907e-18)
(2.57718 0.371909 1.14187e-18)
(2.48632 0.359826 -2.4601e-18)
(2.26844 0.32043 -2.28499e-18)
(1.85671 0.242774 9.73794e-19)
(1.21793 0.13139 -3.44562e-20)
(0.416931 0.0242943 -8.80548e-20)
(0.539695 0.408491 -1.53871e-19)
(0.499335 0.422497 -1.59263e-19)
(0.453965 0.437429 6.73535e-20)
(0.404198 0.453442 -2.21551e-19)
(0.349702 0.470397 -1.63262e-20)
(0.289636 0.486829 2.07677e-19)
(0.223036 0.496719 2.96372e-20)
(0.150364 0.482804 9.22803e-21)
(0.0786283 0.407607 2.3015e-20)
(0.0162197 0.20835 1.22098e-20)
(0.585463 0.514538 1.25489e-19)
(0.546052 0.535125 1.58956e-19)
(0.502473 0.557218 4.86754e-20)
(0.454907 0.580983 -4.45871e-20)
(0.402702 0.606166 -2.07391e-19)
(0.344742 0.630774 -1.98156e-20)
(0.279341 0.646866 4.31944e-20)
(0.205049 0.631707 4.41492e-20)
(0.125046 0.535486 -1.31491e-19)
(0.0401868 0.274788 -4.55691e-20)
(0.648824 0.613119 -9.84918e-20)
(0.61067 0.639449 -8.42643e-20)
(0.569444 0.667765 9.03649e-20)
(0.52487 0.698547 5.97669e-20)
(0.476012 0.731657 -8.18638e-20)
(0.421431 0.764639 -1.2672e-20)
(0.358358 0.787566 -1.13165e-19)
(0.28245 0.772107 -9.01286e-20)
(0.19098 0.65624 -7.31035e-20)
(0.0742706 0.33712 4.1575e-23)
(0.729344 0.707985 2.34329e-20)
(0.693019 0.740662 -6.07822e-20)
(0.655071 0.775184 -7.60312e-20)
(0.614255 0.81226 -7.20646e-20)
(0.569218 0.851898 -6.59492e-20)
(0.518335 0.891329 -9.3122e-21)
(0.457784 0.918861 -2.987e-19)
(0.379741 0.901161 6.71972e-20)
(0.27377 0.765612 -3.34712e-19)
(0.117017 0.392713 4.97668e-20)
(0.822738 0.786644 1.33612e-20)
(0.788962 0.824291 1.76348e-20)
(0.755598 0.864332 -5.11659e-20)
(0.720521 0.907823 -2.82896e-19)
(0.681582 0.954534 1.30763e-19)
(0.636348 1.00101 4.88154e-20)
(0.579372 1.0338 3.63377e-20)
(0.498586 1.01489 -1.94381e-19)
(0.374232 0.86183 4.02597e-19)
(0.168303 0.440798 2.92198e-19)
(0.932382 0.86425 -1.05573e-19)
(0.900177 0.906308 -1.99853e-19)
(0.870011 0.949593 1.06139e-20)
(0.839213 0.9966 1.03155e-19)
(0.805609 1.04769 3.84636e-19)
(0.76625 1.09873 2.85121e-19)
(0.713532 1.13411 6.77105e-19)
(0.630105 1.11145 2.77382e-19)
(0.485574 0.94076 1.49555e-19)
(0.22501 0.478579 2.11188e-19)
(1.04779 0.915686 -1.11602e-19)
(1.02177 0.962578 6.48516e-19)
(0.999493 1.01042 4.2328e-19)
(0.976359 1.06176 -5.46167e-19)
(0.949589 1.11717 -2.72364e-19)
(0.916135 1.17249 7.03971e-19)
(0.866793 1.21067 -1.09693e-19)
(0.77868 1.18545 -4.7678e-19)
(0.609609 1.00032 2.85595e-20)
(0.286856 0.505454 2.64075e-19)
(1.1702 0.968124 3.20044e-19)
(1.14413 1.01535 6.0933e-20)
(1.12652 1.06354 -8.03961e-19)
(1.11149 1.11675 1.76914e-19)
(1.09426 1.17469 6.16568e-19)
(1.06969 1.23181 -3.38147e-19)
(1.02564 1.26937 -1.06513e-19)
(0.933088 1.23847 -1.95611e-19)
(0.737891 1.03905 1.98103e-20)
(0.349964 0.520121 -3.07137e-19)
(1.30197 0.985444 1.88934e-20)
(1.28663 1.03647 -5.89125e-19)
(1.27638 1.08557 -4.96679e-21)
(1.26686 1.1398 5.01888e-19)
(1.25542 1.20017 -5.20822e-19)
(1.23682 1.26009 1.01764e-18)
(1.19576 1.29849 6.83003e-19)
(1.09597 1.26379 -1.00712e-18)
(0.870657 1.05427 -7.97664e-20)
(0.413355 0.522178 -3.40124e-19)
(1.40537 0.99444 -3.55734e-19)
(1.40185 1.04652 -3.34387e-19)
(1.40933 1.09748 3.10909e-19)
(1.41492 1.15249 8.21501e-19)
(1.41514 1.21226 2.94154e-19)
(1.40522 1.27061 -8.42542e-19)
(1.36771 1.30576 1.08927e-19)
(1.25957 1.26499 2.28426e-19)
(1.00194 1.04736 -3.07932e-19)
(0.474285 0.512368 -2.4134e-19)
(0.99259 0.0140893 7.27747e-22)
(1.01229 0.0416311 -1.86179e-20)
(1.0229 0.0514954 -1.48926e-20)
(1.02127 0.0775398 0)
(1.02564 0.0958622 1.83607e-20)
(1.02062 0.129531 2.64036e-20)
(0.997358 0.171453 3.57263e-20)
(0.952461 0.206324 7.88497e-20)
(0.866759 0.270814 -1.19181e-19)
(0.71568 0.338662 -1.82344e-19)
(0.993138 0.0121744 3.86248e-20)
(1.01048 0.0394486 -6.02864e-20)
(1.02237 0.0499833 1.93563e-22)
(1.01943 0.0766092 -1.87698e-20)
(1.02604 0.0963724 9.17691e-21)
(1.02209 0.133992 -1.34581e-20)
(1.00187 0.181136 -8.31552e-20)
(0.964395 0.225982 0)
(0.881687 0.308185 2.47687e-19)
(0.75456 0.408214 -2.62293e-19)
(0.993367 0.0104875 -2.81603e-20)
(1.00945 0.0374477 1.67076e-20)
(1.02196 0.0483598 3.96004e-20)
(1.0194 0.0760293 9.87294e-21)
(1.02678 0.0963885 -2.21474e-20)
(1.02633 0.13893 1.12565e-21)
(1.00688 0.189835 -5.76549e-20)
(0.980832 0.245462 -5.871e-21)
(0.899329 0.343851 4.73824e-23)
(0.807516 0.474909 7.35233e-19)
(0.99332 0.00894477 -3.14427e-20)
(1.00906 0.0356181 2.3728e-21)
(1.02179 0.046481 3.23625e-20)
(1.02091 0.0758424 2.10093e-20)
(1.02804 0.0957675 -1.11055e-20)
(1.03303 0.144543 -1.5718e-20)
(1.01258 0.197271 8.3483e-20)
(1.0016 0.265323 -1.70153e-21)
(0.919408 0.37663 -2.72942e-19)
(0.874305 0.537372 9.25242e-20)
(0.993056 0.00748833 2.18913e-20)
(1.00914 0.0339144 -3.12381e-20)
(1.02208 0.0442592 -2.5875e-20)
(1.02358 0.0760523 1.24789e-20)
(1.03016 0.0944354 0)
(1.04158 0.150839 0)
(1.01974 0.203334 7.02251e-20)
(1.02527 0.285593 3.45687e-22)
(0.944381 0.40631 -1.24359e-19)
(0.95093 0.593764 9.34524e-20)
(0.99263 0.00607494 6.16412e-21)
(1.00952 0.0322467 2.52337e-20)
(1.02309 0.0416648 -7.0195e-20)
(1.02701 0.0765839 -2.41694e-20)
(1.03351 0.0924021 -6.02635e-22)
(1.05155 0.157781 6.62826e-20)
(1.02856 0.207808 1.07958e-19)
(1.05238 0.30684 -7.6494e-22)
(0.970938 0.430692 2.06552e-19)
(1.04422 0.650133 -2.205e-19)
(0.992082 0.00467827 -2.38698e-20)
(1.01009 0.0304851 1.3396e-20)
(1.02504 0.0387312 -1.9121e-20)
(1.03078 0.0772567 -5.16424e-20)
(1.03855 0.0897977 1.89903e-21)
(1.06216 0.165137 -1.60184e-21)
(1.04041 0.210934 -6.02833e-21)
(1.07977 0.328255 -2.26531e-19)
(1.00806 0.450798 1.5155e-19)
(1.13138 0.690307 -5.46575e-19)
(0.991421 0.00328916 -4.02762e-21)
(1.01081 0.028481 -3.88467e-20)
(1.02805 0.0355364 3.86614e-20)
(1.03466 0.0778582 2.75436e-20)
(1.04554 0.0868093 9.84705e-22)
(1.07313 0.172509 -7.67979e-20)
(1.05515 0.213116 -5.98171e-20)
(1.1097 0.349988 4.0381e-19)
(1.04435 0.467734 1.53065e-20)
(1.24968 0.747852 8.5662e-19)
(0.990644 0.00190728 1.6456e-20)
(1.01173 0.0260967 1.77787e-20)
(1.03207 0.0321884 4.50121e-20)
(1.03861 0.0782588 -3.03738e-20)
(1.05454 0.0835238 -7.98867e-20)
(1.08401 0.179968 1.18129e-21)
(1.07403 0.212492 -8.22086e-20)
(1.13934 0.369619 5.22316e-19)
(1.10127 0.467302 -9.29131e-21)
(1.31958 0.763928 -1.18932e-18)
(0.989759 0.000612243 3.94761e-22)
(1.01289 0.0232544 2.79059e-20)
(1.03695 0.0290008 1.49044e-20)
(1.04288 0.0780433 -6.10452e-20)
(1.06438 0.0821393 -7.79313e-20)
(1.09422 0.187437 -6.47458e-20)
(1.09396 0.219604 -1.5051e-19)
(1.16529 0.391941 -4.69015e-19)
(1.15964 0.494265 -2.53883e-19)
(1.45907 0.832631 -1.24688e-18)
(0.988717 -0.00159511 -1.23079e-21)
(1.01396 0.0188821 -6.19001e-21)
(1.04428 0.0225998 -1.67761e-20)
(1.04883 0.0765549 3.38568e-20)
(1.0772 0.0722664 5.85684e-20)
(1.11407 0.191347 -4.24596e-20)
(1.11537 0.202656 1.43634e-19)
(1.21147 0.400634 -4.33777e-19)
(1.22342 0.432178 -1.93457e-19)
(1.47452 0.822583 6.57466e-19)
(0.988295 -0.00502504 1.93282e-21)
(1.015 0.0120248 1.25718e-20)
(1.0554 0.0122891 -1.12934e-20)
(1.05313 0.0724337 6.2476e-20)
(1.09879 0.0541421 9.95188e-20)
(1.13079 0.188196 1.2493e-19)
(1.15267 0.175477 3.26062e-20)
(1.23999 0.384308 2.05108e-19)
(1.32374 0.380094 3.12434e-19)
(1.49472 0.72102 2.71899e-20)
(0.987416 -0.00865599 -1.60977e-21)
(1.0183 0.00302217 -4.06667e-21)
(1.06723 0.00232511 3.77764e-21)
(1.05752 0.0653161 4.54882e-21)
(1.12673 0.0359936 3.02226e-34)
(1.13931 0.181288 -7.35388e-21)
(1.19611 0.148102 -5.30135e-34)
(1.25816 0.355935 1.94539e-20)
(1.39567 0.323948 -5.81705e-20)
(1.53593 0.629113 -5.81014e-20)
(0.985156 -0.0132876 1.43288e-20)
(1.02603 -0.00822732 -4.5955e-35)
(1.076 -0.00742442 -4.30584e-21)
(1.06984 0.0535435 -2.72428e-20)
(1.15141 0.0202237 -4.92633e-20)
(1.14926 0.170786 -4.14282e-20)
(1.2307 0.121258 -6.71855e-34)
(1.28089 0.323141 -7.91872e-20)
(1.43292 0.267804 -1.45603e-19)
(1.5818 0.534526 9.77913e-20)
(0.981393 -0.019579 0)
(1.03878 -0.0210358 4.1429e-35)
(1.08109 -0.0179046 0)
(1.09505 0.0362595 0)
(1.16667 0.0076985 0)
(1.16908 0.154168 0)
(1.25234 0.0973219 -4.62521e-34)
(1.31041 0.282381 0)
(1.45341 0.217868 -2.07307e-20)
(1.61369 0.438046 5.79212e-20)
(0.976327 -0.0276072 2.88398e-21)
(1.05592 -0.0339841 3.91808e-21)
(1.08575 -0.0292626 -5.41313e-21)
(1.12935 0.0175575 0)
(1.17375 0.00114306 0)
(1.19567 0.132749 6.38358e-21)
(1.26893 0.0778033 4.20014e-20)
(1.33965 0.235308 -1.39179e-20)
(1.47082 0.174485 -3.0261e-20)
(1.6252 0.348591 2.23888e-19)
(0.970919 -0.0422449 -7.94966e-20)
(1.0778 -0.0532011 7.93135e-22)
(1.09225 -0.0476661 -6.04372e-21)
(1.16053 -0.007418 -1.7026e-20)
(1.16572 -0.00535263 -2.95894e-20)
(1.21446 0.103606 -1.09199e-20)
(1.27529 0.0597614 -3.44988e-20)
(1.35741 0.185047 -3.198e-20)
(1.4776 0.136402 -5.55016e-20)
(1.62776 0.26561 6.5961e-20)
(0.966938 -0.0494098 -6.12723e-21)
(1.098 -0.061036 -1.83426e-20)
(1.08197 -0.0543204 -6.68135e-21)
(1.1509 -0.0203053 -5.20237e-21)
(1.10336 -0.00307144 -4.96799e-35)
(1.19507 0.0728703 6.64574e-21)
(1.22351 0.0442558 -8.91516e-34)
(1.34188 0.134157 -1.34773e-20)
(1.43758 0.0999163 1.87045e-20)
(1.62132 0.184506 2.65923e-20)
(0.961745 -0.0908238 1.96167e-19)
(1.05642 -0.0906886 -4.80148e-21)
(0.968488 -0.0735031 -7.19401e-21)
(0.985798 -0.032519 1.41972e-20)
(0.892259 -0.00438423 1.61969e-20)
(1.02487 0.0375371 1.40246e-20)
(1.00706 0.0289165 1.49855e-20)
(1.18813 0.0799734 -9.04678e-21)
(1.24964 0.062308 -2.14577e-20)
(1.49716 0.103156 1.46068e-19)
(0.829407 -0.0460491 8.55186e-21)
(0.732171 -0.0341448 -9.45235e-35)
(0.53521 -0.0175882 -8.37416e-21)
(0.475464 -0.00231043 0)
(0.414471 0.000833096 0)
(0.499354 0.00934396 6.57386e-21)
(0.498381 0.00544846 -5.77835e-36)
(0.638653 0.0176543 -1.29996e-20)
(0.70152 0.00994657 -2.73288e-20)
(0.888424 0.0176396 5.75183e-20)
(1.68337 0.845853 -1.98201e-19)
(1.78463 0.826765 -2.91313e-19)
(1.90301 0.790393 0)
(2.01147 0.746433 1.60879e-19)
(2.11429 0.683667 6.83593e-19)
(2.20376 0.618167 -1.21473e-19)
(2.28598 0.53796 1.76197e-18)
(2.3588 0.460334 -8.6124e-20)
(2.42003 0.372967 -3.88868e-19)
(2.47524 0.292633 3.44108e-19)
(1.70774 0.694411 1.02444e-19)
(1.78383 0.678015 1.1613e-19)
(1.88318 0.642194 -1.45903e-20)
(1.96786 0.603247 2.25104e-19)
(2.06463 0.544775 -1.84265e-19)
(2.1293 0.494861 -4.29083e-19)
(2.21567 0.424678 -1.29848e-19)
(2.25985 0.372596 5.86414e-19)
(2.33997 0.295946 -2.28205e-20)
(2.36075 0.24674 -5.03964e-19)
(1.74217 0.577519 9.9677e-20)
(1.81094 0.555154 1.87693e-19)