/*--------------------------------*- C++ -*----------------------------------*\
  =========                 |
  \\      /  F ield         | OpenFOAM: The Open Source CFD Toolbox
   \\    /   O peration     | Website:  https://openfoam.org
    \\  /    A nd           | Version:  13
     \\/     M anipulation  |
\*---------------------------------------------------------------------------*/
FoamFile
{
    format      ascii;
    class       volScalarField;
    location    "0.14";
    object      p;
}
// * * * * * * * * * * * * * * * * * * * * * * * * * * * * * * * * * * * * * //

dimensions      [0 2 -2 0 0 0 0];

internalField   nonuniform List<scalar> 
1800
(
-0.924823
-0.866985
-0.770563
-0.665543
-0.569389
-0.485725
-0.413335
-0.350086
-0.294187
-0.24796
-1.09447
-1.03068
-0.922216
-0.803988
-0.695626
-0.600984
-0.518854
-0.447223
-0.385058
-0.334028
-1.25411
-1.18424
-1.06384
-0.932839
-0.812777
-0.707552
-0.61588
-0.535665
-0.465645
-0.40646
-1.39866
-1.32276
-1.19092
-1.04807
-0.9174
-0.802704
-0.7026
-0.61487
-0.538139
-0.472721
-1.52268
-1.44093
-1.29838
-1.14486
-1.00476
-0.881634
-0.773982
-0.679475
-0.596647
-0.525317
-1.62102
-1.53377
-1.38155
-1.21883
-1.07076
-0.940535
-0.826513
-0.726288
-0.638284
-0.56193
-1.68885
-1.59664
-1.43605
-1.2659
-1.1115
-0.975616
-0.856514
-0.751721
-0.65956
-0.579136
-1.72205
-1.62557
-1.45818
-1.28264
-1.12368
-0.983721
-0.860952
-0.752853
-0.657652
-0.574179
-1.71743
-1.61744
-1.4453
-1.26647
-1.10477
-0.962373
-0.837405
-0.727333
-0.630271
-0.544822
-1.67303
-1.57059
-1.39602
-1.21564
-1.05313
-0.910009
-0.78436
-0.673612
-0.575798
-0.489412
0.346529
0.368115
0.386056
0.399385
0.407588
0.41151
0.412211
0.410529
0.407076
0.402421
0.30786
0.330637
0.351164
0.367684
0.379039
0.385833
0.389119
0.389765
0.388417
0.385774
0.24286
0.267467
0.291974
0.31336
0.329515
0.340668
0.347863
0.352026
0.35385
0.35426
0.153011
0.180042
0.209859
0.237682
0.260149
0.277015
0.289314
0.298045
0.303974
0.308335
0.0403445
0.0703479
0.106723
0.142422
0.172551
0.196323
0.214758
0.228948
0.239746
0.248767
-0.0924747
-0.0589904
-0.0149018
0.0299566
0.0689187
0.100617
0.126058
0.146432
0.162692
0.176891
-0.242108
-0.204667
-0.151821
-0.0966813
-0.0478931
-0.0074012
0.0257817
0.0529433
0.0751387
0.094895
-0.404592
-0.362737
-0.300207
-0.233833
-0.174393
-0.12438
-0.0828288
-0.048366
-0.0198092
0.00581897
-0.575499
-0.528765
-0.455697
-0.377224
-0.30637
-0.246136
-0.195598
-0.15332
-0.117878
-0.0861152
-0.750328
-0.698231
-0.613775
-0.522293
-0.43907
-0.367524
-0.306736
-0.255158
-0.211083
-0.172553
0.356936
0.276773
0.224953
0.182939
0.148096
0.117969
0.0903173
0.0639509
0.0381795
0.0126771
0.35317
0.27744
0.226449
0.184388
0.149186
0.11869
0.0907636
0.0642083
0.0383077
0.0127086
0.342756
0.275989
0.227
0.185535
0.150271
0.119503
0.0913213
0.0645614
0.0384982
0.012761
0.324961
0.272465
0.226651
0.186376
0.151334
0.120396
0.091982
0.0650041
0.0387475
0.0128337
0.298855
0.266826
0.225458
0.186908
0.152358
0.121356
0.0927363
0.06553
0.0390522
0.0129261
0.263593
0.258818
0.223445
0.187128
0.153323
0.12237
0.0935739
0.066132
0.0394083
0.0130375
0.218919
0.247904
0.220565
0.18702
0.154207
0.12342
0.0944835
0.0668023
0.0398118
0.0131673
0.165259
0.233052
0.216648
0.186554
0.15499
0.124489
0.0954531
0.0675327
0.0402581
0.0133148
0.10271
0.213199
0.211163
0.185566
0.155611
0.125551
0.0964707
0.068316
0.0407437
0.0134799
0.0356881
0.189964
0.20446
0.184188
0.15612
0.126623
0.0975394
0.0691515
0.0412682
0.0136664
0.00498016
0.173517
0.198681
0.181916
0.155447
0.12664
0.0977823
0.0694027
0.0414679
0.0137955
-0.00397974
0.151778
0.183957
0.173198
0.15052
0.123877
0.0962188
0.068516
0.0410216
0.0136767
0.00313452
0.139099
0.172538
0.165513
0.145779
0.12106
0.0945656
0.0675594
0.0405293
0.0135383
0.0144633
0.12977
0.16246
0.158271
0.141086
0.118171
0.0928293
0.0665401
0.0399967
0.0133836
0.0283777
0.123463
0.153867
0.151616
0.136566
0.115295
0.0910616
0.0654874
0.0394389
0.0132172
0.0419354
0.118962
0.146484
0.14556
0.132302
0.112507
0.0893142
0.0644322
0.0388721
0.013044
0.0530253
0.115322
0.140048
0.140094
0.128356
0.109873
0.0876347
0.0634043
0.0383111
0.012868
0.0603288
0.111678
0.134246
0.135156
0.124755
0.107437
0.086059
0.0624271
0.0377675
0.0126928
0.0630194
0.106965
0.128349
0.130318
0.121239
0.105035
0.0844818
0.061431
0.0371889
0.0124886
0.0606345
0.104262
0.125314
0.127886
0.119475
0.103827
0.0836885
0.0609317
0.0369044
0.012393
-0.3439
-0.397946
-0.430454
-0.442321
-0.435291
-0.411787
-0.374234
-0.325435
-0.268688
-0.207922
-0.186411
-0.240527
-0.277215
-0.297348
-0.302034
-0.293655
-0.273201
-0.245605
-0.210369
-0.175186
-0.0655451
-0.117862
-0.156052
-0.180672
-0.192413
-0.193479
-0.183976
-0.169027
-0.145929
-0.123219
0.0278214
-0.0233426
-0.0623003
-0.0895166
-0.105563
-0.112293
-0.109775
-0.102374
-0.0879016
-0.0737455
0.0990306
0.049018
0.00974684
-0.0191006
-0.0380357
-0.0485258
-0.0509301
-0.0486109
-0.0402979
-0.0318095
0.153247
0.10401
0.0644888
0.0344851
0.0135155
0.00043429
-0.00539985
-0.00648732
-0.00233953
0.00238315
0.193559
0.14471
0.104855
0.0738946
0.0513833
0.0364274
0.0282028
0.0248063
0.0261203
0.0282508
0.222091
0.173157
0.132728
0.100789
0.0769406
0.0604941
0.0505566
0.0456689
0.0452445
0.0458239
0.239408
0.189978
0.148477
0.11517
0.089788
0.0718281
0.0604517
0.0546097
0.0534965
0.0545838
0.250196
0.197593
0.15291
0.116157
0.0871589
0.0656742
0.0509327
0.0427285
0.0398235
0.0421761
1.13097
1.08344
1.02967
0.972438
0.909973
0.839637
0.759256
0.66901
0.579322
0.516528
0.933832
0.880316
0.821745
0.75753
0.685531
0.603712
0.510203
0.40546
0.301635
0.228899
0.719757
0.662775
0.600183
0.529943
0.450107
0.358821
0.254127
0.136526
0.019849
-0.0620236
0.514244
0.452407
0.383664
0.305938
0.217499
0.116397
0.000467653
-0.129871
-0.259031
-0.349389
0.321651
0.253841
0.178145
0.0925456
-0.00468179
-0.115652
-0.242712
-0.385589
-0.526703
-0.624713
0.141383
0.0679067
-0.0142583
-0.107103
-0.2124
-0.33242
-0.469683
-0.624199
-0.776023
-0.880426
-0.0249454
-0.103127
-0.190768
-0.289782
-0.401949
-0.529627
-0.675543
-0.840403
-1.00169
-1.11012
-0.174017
-0.255872
-0.347914
-0.451927
-0.569659
-0.703427
-0.856043
-1.0285
-1.2021
-1.30459
-0.302361
-0.386974
-0.482385
-0.59019
-0.71217
-0.850716
-1.00787
-1.18788
-1.36224
-1.46527
-0.407686
-0.494062
-0.591653
-0.701912
-0.825895
-0.968048
-1.12946
-1.30965
-1.48533
-1.58855
2.34733
2.36519
2.3872
2.41112
2.43471
2.45708
2.47763
2.49575
2.51157
2.52375
2.29391
2.30994
2.32965
2.35092
2.37161
2.39078
2.40781
2.42208
2.43411
2.44348
2.22009
2.23346
2.24974
2.26706
2.28341
2.29781
2.30956
2.31808
2.32445
2.32971
2.1266
2.13653
2.14834
2.1605
2.17118
2.17934
2.18417
2.1851
2.18407
2.18421
2.01455
2.02035
2.02675
2.03265
2.03644
2.03702
2.03342
2.02513
2.01499
2.00904
1.88538
1.88646
1.88666
1.88534
1.88118
1.87299
1.85965
1.84071
1.81998
1.8065
1.74095
1.73708
1.73058
1.72129
1.70823
1.69017
1.66586
1.63495
1.60234
1.5802
1.58452
1.57542
1.5616
1.54347
1.52055
1.49158
1.45516
1.4111
1.3655
1.33389
1.42303
1.40861
1.38634
1.35784
1.32353
1.28218
1.23224
1.17371
1.11406
1.0723
1.26644
1.24044
1.20533
1.16418
1.11724
1.06264
0.998418
0.924699
0.850432
0.798235
2.42241
1.83423
2.32102
2.11374
2.08782
2.08612
2.09403
2.11841
2.17846
2.2817
2.41518
1.82678
2.31502
2.10628
2.0795
2.07627
2.08163
2.10222
2.15457
2.24533
2.40882
1.81877
2.30994
2.09811
2.07033
2.06524
2.06727
2.08293
2.12392
2.19677
2.40323
1.81027
2.30581
2.08924
2.06035
2.05307
2.05102
2.06044
2.08653
2.13586
2.39835
1.80141
2.30262
2.07963
2.0496
2.03981
2.03291
2.03462
2.04223
2.06269
2.39412
1.79235
2.30033
2.06923
2.03817
2.02552
2.01299
2.0053
1.99087
1.97758
2.39049
1.78326
2.29889
2.05796
2.02612
2.01023
1.99128
1.97241
1.9339
1.87897
2.38741
1.77435
2.29819
2.04577
2.01356
1.994
1.96776
1.93609
1.87256
1.76633
2.38485
1.76585
2.29809
2.03258
2.00064
1.97691
1.94254
1.89648
1.80651
1.63797
2.38274
1.75806
2.29842
2.01837
1.98752
1.95905
1.91604
1.85504
1.73881
1.50472
2.3808
1.75002
2.2943
2.00649
1.97148
1.9358
1.88052
1.80011
1.65468
1.3609
2.38185
1.74303
2.28602
1.99877
1.95499
1.91151
1.84463
1.74809
1.58173
1.28615
2.38444
1.73803
2.27867
1.99143
1.94008
1.88927
1.81245
1.70338
1.52307
1.23666
2.38904
1.73498
2.27249
1.98477
1.9269
1.86949
1.78437
1.66568
1.47689
1.2026
2.39618
1.73379
2.2676
1.97899
1.91559
1.85248
1.76066
1.63475
1.44169
1.17896
2.40656
1.73441
2.26401
1.97428
1.90626
1.83841
1.74139
1.61025
1.4159
1.16312
2.42081
1.73671
2.26161
1.97074
1.89899
1.8274
1.72651
1.59181
1.39798
1.15343
2.44069
1.74049
2.26012
1.96839
1.89384
1.81948
1.71597
1.57906
1.38667
1.14893
2.46056
1.74545
2.25885
1.96733
1.89095
1.8148
1.70985
1.57201
1.38164
1.15052
2.51133
1.75295
2.26074
1.96558
1.88958
1.81216
1.70639
1.56792
1.37887
1.15068
1.10277
0.933009
0.741074
0.557617
0.38746
0.227901
0.079491
-0.0547952
-0.171698
-0.26842
1.02377
0.892922
0.743569
0.594585
0.453361
0.319198
0.19273
0.0767134
-0.0263316
-0.114776
0.983054
0.876111
0.754296
0.627444
0.504817
0.387841
0.276935
0.17402
0.0813076
0.000884488
0.961346
0.868003
0.764361
0.654626
0.546619
0.442696
0.343399
0.250351
0.165628
0.0910266
0.952
0.86747
0.775991
0.678404
0.58079
0.486032
0.394992
0.309066
0.23006
0.159597
0.949844
0.871243
0.787825
0.698644
0.608446
0.520251
0.435106
0.354266
0.279367
0.211937
0.951783
0.877282
0.799266
0.715769
0.630675
0.547013
0.46592
0.388569
0.316477
0.251077
0.956219
0.884506
0.810048
0.730162
0.648295
0.567499
0.488937
0.413719
0.343303
0.279077
0.965119
0.895256
0.822617
0.744257
0.663685
0.58395
0.506184
0.431458
0.36119
0.296776
0.977376
0.911602
0.840606
0.762662
0.682276
0.602318
0.52385
0.448029
0.376282
0.309956
-2.91603
-2.77428
-2.54499
-2.32091
-2.12996
-1.97243
-1.84401
-1.74063
-1.65943
-1.59879
-2.988
-2.85293
-2.62668
-2.40249
-2.20992
-2.05085
-1.92133
-1.81708
-1.73529
-1.6753
-2.94351
-2.81663
-2.59766
-2.37568
-2.18335
-2.02398
-1.8939
-1.78877
-1.70552
-1.64311
-2.79612
-2.67817
-2.47065
-2.25479
-2.06548
-1.90766
-1.77813
-1.67266
-1.58806
-1.52255
-2.56809
-2.45976
-2.26714
-2.0618
-1.87925
-1.72585
-1.59898
-1.49464
-1.40971
-1.34262
-2.28592
-2.18773
-2.01285
-1.82242
-1.65093
-1.50563
-1.38452
-1.28391
-1.20078
-1.1347
-1.97576
-1.88793
-1.73272
-1.56102
-1.40475
-1.27143
-1.15959
-1.06599
-0.987694
-0.925679
-1.65947
-1.58185
-1.44706
-1.29651
-1.1585
-1.0402
-0.940508
-0.856659
-0.786097
-0.730626
-1.35282
-1.28493
-1.17014
-1.04162
-0.923442
-0.82204
-0.736522
-0.664526
-0.603783
-0.558137
-1.06525
-1.00627
-0.910089
-0.802862
-0.704341
-0.619925
-0.548688
-0.488344
-0.435939
-0.394826
-0.801753
-0.750723
-0.671349
-0.583963
-0.504379
-0.437072
-0.381401
-0.335812
-0.298197
-0.265425
-0.564069
-0.519936
-0.45511
-0.385089
-0.322115
-0.269611
-0.22684
-0.192349
-0.164654
-0.139416
-0.352576
-0.314258
-0.261681
-0.206321
-0.157332
-0.117137
-0.0848687
-0.0591651
-0.0388694
-0.0203013
-0.167654
-0.134188
-0.0918263
-0.0487589
-0.0115729
0.0181967
0.041498
0.0595686
0.0734129
0.0858573
-0.00984358
0.0196325
0.0536223
0.086563
0.113951
0.135025
0.150789
0.162361
0.170631
0.177694
0.12031
0.1466
0.17395
0.198819
0.218341
0.232404
0.242043
0.248273
0.251883
0.254395
0.222354
0.246223
0.268585
0.287358
0.300903
0.309609
0.314532
0.316602
0.31653
0.315404
0.295991
0.318188
0.337156
0.351753
0.361192
0.366202
0.367848
0.367002
0.364318
0.360579
0.34112
0.36238
0.379505
0.391822
0.399017
0.402003
0.401849
0.399392
0.39525
0.390026
0.357831
0.37891
0.395703
0.407609
0.414404
0.417038
0.416575
0.413842
0.409445
0.403917
-0.0381296
0.124071
0.153693
0.151016
0.13722
0.116923
0.0931582
0.0675579
0.040866
0.0136417
0.0514954
0.159452
0.167896
0.156815
0.138636
0.116567
0.0922462
0.0666523
0.0402448
0.0134325
0.127364
0.187279
0.178752
0.160728
0.139711
0.116264
0.0914663
0.0658702
0.0397058
0.0132496
0.188891
0.20912
0.187939
0.164595
0.140769
0.116067
0.0908295
0.065213
0.0392478
0.0130928
0.238914
0.226546
0.195985
0.168104
0.141798
0.115983
0.0903372
0.0646797
0.0388696
0.0129615
0.278543
0.240745
0.203077
0.171296
0.142819
0.116016
0.089989
0.0642686
0.0385695
0.0128551
0.308795
0.252383
0.209297
0.174199
0.143845
0.11617
0.0897834
0.0639776
0.0383461
0.012773
0.330891
0.261734
0.214635
0.176817
0.144883
0.116445
0.0897177
0.0638038
0.0381975
0.0127146
0.345918
0.268922
0.219042
0.179149
0.145938
0.11684
0.0897882
0.063744
0.0381218
0.0126796
0.354487
0.273939
0.222486
0.181191
0.14701
0.11735
0.08999
0.0637945
0.0381166
0.0126673
-0.230531
0.013377
0.0994769
0.125731
0.126126
0.112967
0.0922888
0.0678245
0.0413535
0.013899
-0.192831
0.0280552
0.105718
0.128403
0.127476
0.113336
0.0923447
0.0677765
0.0412898
0.0138684
-0.165294
0.0465946
0.11524
0.132825
0.129388
0.114026
0.0925062
0.0677407
0.0412063
0.0138222
-0.133314
0.068615
0.126832
0.138404
0.131691
0.115056
0.0928591
0.0678114
0.041184
0.0137995
-0.0936372
0.0958851
0.141035
0.145404
0.13503
0.116409
0.093379
0.0679724
0.041211
0.0137949
-1.53053
-1.6085
-1.59575
-1.50556
-1.35964
-1.18608
-1.00266
-0.835065
-0.676046
-0.537582
-1.53243
-1.61099
-1.594
-1.49689
-1.34301
-1.16009
-0.965343
-0.784608
-0.612178
-0.470535
-1.53752
-1.61537
-1.5929
-1.48731
-1.32349
-1.12968
-0.927966
-0.743822
-0.580073
-0.453713
-1.54861
-1.62578
-1.59756
-1.48299
-1.30977
-1.10814
-0.904063
-0.71848
-0.55782
-0.429676
-1.56645
-1.6436
-1.61027
-1.48772
-1.30653
-1.09886
-0.891957
-0.701774
-0.53559
-0.390192
1.7505
1.73005
1.70158
1.66839
1.63092
1.58734
1.53572
1.4759
1.41554
1.37314
1.88864
1.88166
1.86805
1.84968
1.82704
1.79899
1.76408
1.72211
1.67912
1.64959
2.01804
2.01688
2.0126
2.00572
1.99562
1.98109
1.96087
1.9346
1.90692
1.88858
2.13191
2.13617
2.1395
2.1417
2.1416
2.138
2.12983
2.11662
2.10181
2.09273
2.2258
2.23468
2.24434
2.25401
2.26213
2.26757
2.26939
2.26706
2.26296
2.26124
2.29883
2.31163
2.32655
2.34228
2.35701
2.36968
2.3795
2.38591
2.39034
2.39427
2.35087
2.36664
2.38554
2.40586
2.42557
2.4437
2.45956
2.47255
2.48337
2.4919
2.3818
2.39954
2.42113
2.44454
2.46762
2.48944
2.50937
2.52679
2.54195
2.55368
2.39147
2.41022
2.4332
2.45824
2.48307
2.5068
2.52886
2.5486
2.56604
2.57945
2.37986
2.39868
2.42182
2.44701
2.47201
2.49591
2.51817
2.53813
2.55577
2.56932
-1.40899
-1.4727
-1.55464
-1.6576
-1.78478
-1.93987
-2.12656
-2.34939
-2.58026
-2.72603
-1.11656
-1.18363
-1.26763
-1.37109
-1.49706
-1.64895
-1.83139
-2.04691
-2.28123
-2.42887
-0.742389
-0.814494
-0.90233
-1.00779
-1.13359
-1.28317
-1.46083
-1.6687
-1.88234
-2.04321
-0.32101
-0.400351
-0.492859
-0.600237
-0.725061
-0.870542
-1.04061
-1.23599
-1.43573
-1.58937
0.10145
0.0173983
-0.0768195
-0.182872
-0.303299
-0.441155
-0.600041
-0.780412
-0.963971
-1.10418
0.489441
0.40731
0.31721
0.21763
0.106173
-0.0199624
-0.164025
-0.326314
-0.490482
-0.614488
0.830072
0.755845
0.675191
0.586711
0.488147
0.37703
0.250571
0.108646
-0.0341909
-0.140836
1.12975
1.06564
0.996503
0.92112
0.837069
0.74212
0.634012
0.512837
0.391453
0.302137
1.40095
1.34563
1.28538
1.22105
1.15011
1.07019
0.979377
0.877892
0.776903
0.704037
1.6286
1.58232
1.52923
1.47456
1.41655
1.35224
1.2794
1.19795
1.11716
1.05994
2.54735
1.87817
2.41718
2.13126
2.12181
2.12176
2.11867
2.11501
2.07114
1.95302
2.53004
1.87529
2.40674
2.13609
2.12162
2.12252
2.12233
2.12714
2.10261
2.04636
2.51391
1.87237
2.39589
2.13913
2.12108
2.12259
2.12586
2.1382
2.13307
2.13155
2.49894
1.86925
2.38491
2.14047
2.11998
2.12181
2.12781
2.14654
2.15913
2.19792
2.48506
1.86584
2.37406
2.14023
2.11815
2.12008
2.1282
2.15184
2.1808
2.24807
2.4722
1.86201
2.36357
2.13854
2.11547
2.11732
2.127
2.15397
2.19698
2.28418
2.46034
1.85768
2.3536
2.13558
2.11186
2.11345
2.12411
2.15293
2.20647
2.30803
2.44945
1.85278
2.34428
2.13149
2.10728
2.10843
2.11945
2.14882
2.20947
2.31955
2.4395
1.84725
2.3357
2.12641
2.10174
2.10221
2.11292
2.14169
2.20587
2.31852
2.43051
1.84106
2.32793
2.12047
2.09524
2.09477
2.10446
2.13155
2.19555
2.30607
2.69558
1.90387
2.43153
2.13577
2.12297
2.11528
2.09738
2.06798
1.9647
1.78422
2.6424
1.89723
2.42905
2.13625
2.12268
2.11603
2.099
2.07107
1.97072
1.78671
2.61624
1.89245
2.42952
2.13492
2.12263
2.11712
2.1019
2.07691
1.98345
1.79277
2.59015
1.88727
2.42737
2.13268
2.12243
2.11847
2.10613
2.0858
2.00351
1.81473
2.56667
1.88204
2.42423
2.12969
2.12206
2.11996
2.11139
2.09752
2.03036
1.85232
1.48109
1.3446
1.13158
0.833634
0.466474
0.0493546
-0.379879
-0.774684
-1.10548
-1.36059
1.46515
1.32333
1.11553
0.830041
0.480387
0.0790171
-0.345238
-0.746628
-1.08993
-1.35603
1.48253
1.32829
1.11421
0.834217
0.496242
0.105105
-0.317481
-0.727231
-1.08193
-1.35682
1.52945
1.35341
1.12442
0.844509
0.511882
0.125095
-0.298417
-0.716216
-1.08099
-1.36368
1.60577
1.39897
1.1449
0.856857
0.5236
0.137991
-0.286324
-0.710067
-1.0843
-1.37601
)
;

boundaryField
{
    left
    {
        type            zeroGradient;
    }
    right
    {
        type            fixedValue;
        value           uniform 0;
    }
    down
    {
        type            zeroGradient;
    }
    up
    {
        type            zeroGradient;
    }
    cylinder
    {
        type            zeroGradient;
    }
    defaultFaces
    {
        type            empty;
    }
}


// ************************************************************************* //
