# Selection   : all
# Cells       : 440
# Volume      : 7.374263e+01
# Time        	maxMag(U)
1.3           	2.756733e+00
1.35          	2.725111e+00
1.4           	2.691839e+00
