/*--------------------------------*- C++ -*----------------------------------*\
  =========                 |
  \\      /  F ield         | OpenFOAM: The Open Source CFD Toolbox
   \\    /   O peration     | Website:  https://openfoam.org
    \\  /    A nd           | Version:  13
     \\/     M anipulation  |
\*---------------------------------------------------------------------------*/
FoamFile
{
    format      ascii;
    class       surfaceScalarField;
    location    "3.695";
    object      phi;
}
// * * * * * * * * * * * * * * * * * * * * * * * * * * * * * * * * * * * * * //

dimensions      [0 3 -1 0 0 0 0];

internalField   nonuniform List<scalar> 
823
(
-0.00305321
0.0129231
-0.00986985
0.0157503
0.0100518
-0.0288553
0.0801771
-0.0247257
-0.0397011
0.185317
-0.0889774
-0.0161627
-0.0891523
-0.0568353
0.331305
0.000807193
0.0121159
0.0431408
-0.0322819
0.137069
-0.118654
0.247602
-0.199511
-0.266564
0.425014
0.0219607
-0.0098448
0.110621
-0.120942
0.231058
-0.239091
0.351544
-0.319996
-0.372654
0.457634
0.0460519
-0.0558967
0.150621
-0.225511
0.243876
-0.332347
0.303978
-0.380098
-0.39344
0.324764
0.0622124
-0.118109
0.139552
-0.302851
0.183511
-0.376305
0.199152
-0.395739
0.209229
-0.403518
-0.0263705
0.0578763
-0.0315058
-0.070561
0.0958898
-0.0516993
-0.117334
0.101825
-0.0550521
-0.161707
0.0999163
-0.0555433
0.09663
-0.202029
-0.0563082
-0.00232513
0.0602014
-0.020339
0.113904
-0.0468917
0.128378
-0.07431
0.127335
0.119614
-0.097294
0.0201698
0.0400316
0.0398959
0.0941776
0.049629
0.118645
0.0531562
0.123807
0.11915
0.0536198
0.0230743
0.0169573
0.062664
0.0545879
0.101131
0.0801776
0.138277
0.0866616
0.0996564
0.157771
0.00708741
0.0328201
0.0732965
0.143795
0.186617
-0.15254
0.460079
-0.509568
0.0964441
-0.383366
0.134381
0.230347
-0.698617
0.564713
0.329757
-0.625551
0.526141
-0.329037
0.284175
0.0219206
0.340864
0.247184
-0.608629
0.343675
-0.795107
0.392989
-0.674865
-0.347264
0.196016
0.198468
0.378961
-0.791574
0.453824
-0.86997
0.46561
-0.686652
-0.341187
0.327765
0.0284741
0.455488
-0.919297
0.514743
-0.929225
0.515844
-0.687753
-0.327169
0.400819
-0.185729
0.503506
-1.02198
0.545682
-0.971401
0.538222
-0.680293
-0.314955
1.30365
-0.339526
-1.14985
1.25557
-0.973911
1.09912
-0.814945
0.913569
-0.494744
-0.2174
1.47513
-0.353257
-1.4614
1.28031
-0.779087
1.02575
-0.560381
0.815377
-0.284375
-0.128679
1.38348
-0.316124
-1.42061
1.20312
-0.598725
1.0192
-0.376467
0.845609
-0.11078
-0.032511
1.26135
-0.226665
-1.3508
0.99152
-0.3289
0.765677
-0.150624
0.649275
0.0056226
0.018189
0.711301
-0.937966
0.382402
0.231778
0.2374
1.12382
0.175076
-1.08967
1.21679
0.231795
1.32005
0.354369
1.30876
0.436314
0.49021
1.04207
0.114937
-0.98193
1.12377
0.150091
1.23028
0.24786
1.34978
0.316819
0.378585
0.991636
0.0629425
-0.939641
1.0489
0.0928235
1.14607
0.150694
1.27297
0.189917
0.230942
0.937475
0.0201956
-0.894728
0.995677
0.0346209
1.08873
0.0576431
1.20817
0.070477
0.0883067
0.686918
-0.666723
0.721539
0.779182
0.849659
0.143812
0.301001
-0.24509
-0.199724
0.0963458
0.305223
-0.257757
0.0545472
0.314885
-0.273087
0.0193436
0.30556
-0.270357
0.19608
-0.176736
0.102129
0.337228
-0.138356
0.0660069
0.341345
0.0339112
0.346981
0.00823201
0.33124
0.204312
0.0753412
0.375308
-0.113421
0.0404459
0.376241
0.0108296
0.376597
-0.00536713
0.347436
0.198945
-0.0128751
0.391585
-0.00340203
-0.0294515
0.392817
-0.0371258
0.384272
-0.0287898
0.3391
0.170155
-0.0933394
0.0814067
-0.0962615
-0.0882947
-0.0520458
0.198154
0.108804
-0.250161
-0.0567965
0.145152
0.112787
-0.0597852
0.0905814
0.117434
-0.062863
0.036978
0.117472
-0.0638684
0.0825092
-0.0455312
0.184397
0.150991
-0.226584
0.13962
0.157564
0.0897438
0.16731
0.0377278
0.169488
0.120237
0.137175
0.195475
-0.181659
0.0961178
0.198622
0.0570839
0.206344
0.0207173
0.205854
0.140954
0.147251
0.225207
-0.176983
0.110494
0.235378
0.0682084
0.248629
0.0266006
0.247462
0.167555
0.0789119
-0.0987944
0.0565335
0.0320759
0.00918136
0.409584
0.0340397
-0.0476444
0.423425
0.0447766
-0.0586174
0.417129
0.180451
-0.174155
0.394253
0.247194
-0.224318
0.519725
-0.375633
0.408195
0.0218242
0.416373
0.0365991
0.404921
0.191902
0.381084
0.271032
0.674224
0.401644
0.0161597
0.411364
0.0268797
0.381299
0.221967
0.371747
0.280584
0.864311
0.397092
0.0150468
0.395724
0.0282478
0.369774
0.247917
0.341429
0.308929
1.02876
0.387981
0.0230457
0.383069
0.0331597
0.336083
0.294903
0.318413
0.326598
1.24838
0.618257
0.00880941
0.645344
0.00607242
0.682387
0.25786
0.761471
0.247514
1.01844
0.991406
0.627916
-0.015086
0.644234
-0.0102455
0.714738
0.187356
0.739819
0.222433
0.750343
1.00792
0.630767
-0.0418329
0.646328
-0.0258066
0.721127
0.112558
0.783279
0.160281
0.47384
1.05978
0.620904
-0.0587166
0.636584
-0.0414868
0.714444
0.0346978
0.810032
0.0646934
0.21986
1.06401
0.545304
0.503817
0.538515
0.603208
0.823068
1.03229
-0.240608
1.02396
-0.13002
1.03945
-0.128918
1.03428
0.00177102
0.0260173
0.973496
-0.206186
0.965513
-0.122037
0.947626
-0.111031
0.959492
-0.0100947
0.00357956
0.988855
-0.13526
0.962265
-0.0954469
0.927406
-0.0761727
0.936493
-0.0191814
0.00043132
0.985922
-0.0571697
0.935387
-0.0449116
0.894819
-0.0356046
0.890452
-0.014815
-0.0038443
0.765898
0.720987
0.685382
0.670567
0.0475593
0.146022
-0.193581
0.0721711
0.317552
-0.342164
0.0732204
0.371242
-0.372292
0.0636077
0.37447
-0.364857
0.343001
0.0520419
-0.331435
0.0692285
0.0767932
0.140402
0.246378
0.175327
0.336317
0.18058
0.369217
0.363414
0.160167
0.0583494
0.0184438
0.169782
0.134946
0.262856
0.243243
0.328308
0.303765
0.354227
0.337495
0.028439
-0.00999512
0.125491
0.0378936
0.246602
0.122133
0.364138
0.186229
0.251972
0.466392
0.00694287
-0.016938
0.0558869
-0.0110505
0.152458
0.0255618
0.268969
0.0697185
0.11626
0.404681
-0.000889986
-0.016048
0.0131392
-0.0250797
0.0564904
-0.0177894
0.125232
0.000977274
0.0336934
0.207798
0.00294253
-0.0189905
0.010044
-0.0321812
0.0243668
-0.0321122
0.049411
-0.0240669
-0.00897435
0.0920787
-4.0963e-05
-0.0189496
-0.00328358
-0.0289385
-0.00631231
-0.0290834
-0.00558874
-0.0247905
-0.0174828
0.0029197
-0.0206593
0.0017097
-0.0544645
0.00486674
-0.0897524
0.00620441
-0.122703
0.00816011
0.0115332
-0.151719
-0.0297961
-0.0766287
-0.125476
-0.172859
-0.217634
0.324574
0.568685
-0.685462
0.366379
0.22334
-0.265144
0.360147
-0.0352671
0.0414992
0.371831
-0.0677401
0.0560563
-0.0289265
0.0058547
0.227989
0.432775
0.189293
0.262036
0.212448
-0.0584216
0.292064
-0.147356
-0.0873243
-0.0117304
0.447425
0.0051419
0.245163
0.147187
-0.200466
0.269086
-0.269255
-0.15668
-0.195742
0.491448
-0.0422772
0.0916987
0.145724
-0.388467
0.275725
-0.399256
-0.223736
-0.235754
-0.00967445
0.166572
0.293456
0.183551
0.425984
-0.609535
0.0601066
0.123444
0.123679
-0.0635719
0.198925
-0.0752461
-0.0332607
0.778224
-1.0377
0.636524
0.614451
0.595261
0.0859684
-0.0148578
-0.0711106
0.137262
-0.0512936
0.245749
-0.108487
0.413544
-0.167796
-0.19599
0.192533
-0.155349
0.301406
0.530415
0.829011
0.136947
-0.130007
0.16076
-0.1677
0.103649
-0.135252
0.16855
0.0662973
-0.142405
0.179757
0.0267383
-0.142503
0.182062
-0.100025
0.126763
0.176192
-0.0915206
-0.214678
0.133413
-0.0924734
0.085205
-0.0941972
0.03534
-0.0926381
-0.064685
0.184929
-0.0436347
-0.232815
0.135575
-0.0431194
0.084574
-0.0431963
0.0344374
-0.0425014
-0.0302477
0.197611
0.00664589
-0.247891
0.146283
0.00820874
0.0929748
0.0101115
0.0388743
0.0115991
0.00862666
0.193502
-0.243652
0.141925
0.0891738
0.0369045
0.0393096
-0.311579
-0.0591662
0.0156095
-0.341157
-0.00631766
-0.350364
-0.0153529
-0.333129
-0.208934
0.121042
-0.281376
-0.151245
0.0788244
-0.298939
0.0381509
-0.309691
0.00766341
-0.302641
-0.20127
0.140036
-0.242332
-0.179081
0.0990039
-0.257907
0.058015
-0.268702
0.0206561
-0.265282
-0.180614
0.15987
-0.207386
-0.194816
0.116791
-0.214828
0.0709829
-0.222894
0.0279285
-0.222228
-0.152686
0.155503
-0.202129
0.109225
0.0660882
0.0259226
0.39355
0.0778918
-0.0754624
0.394227
0.121981
-0.122658
0.350007
0.157397
-0.113177
0.293084
0.044858
0.0120647
-0.166643
0.292027
0.397903
0.0759685
0.411243
0.108641
0.394382
0.174258
0.337885
0.101355
-0.0434348
0.401155
0.070793
0.419372
0.0904244
0.414505
0.179124
0.363451
0.152409
0.0872016
0.405724
0.0610486
0.423061
0.0730872
0.425537
0.176648
0.38576
0.192185
0.225071
0.409384
0.423854
0.426347
0.394215
0.425444
0.0846073
0.325451
0.0999929
0.251911
0.0735399
0.267833
-0.0159217
-0.155937
0.423769
0.519196
0.496531
0.456894
0.453037
0.589127
0.337945
0.0858242
0.261486
0.0764585
0.173358
0.0881283
0.100264
0.0730937
0.0291538
0.472822
0.354465
0.263512
0.185361
)
;

boundaryField
{
    left
    {
        type            calculated;
        value           nonuniform List<scalar> 
17
(
-0.60402
-0.60402
-0.60402
-0.60402
-0.60402
-0.39598
-0.39598
-0.39598
-0.39598
-0.39598
-0.39598
-0.39598
-0.39598
-0.39598
-0.39598
-0.510051
-0.510051
)
;
    }
    right
    {
        type            calculated;
        value           nonuniform List<scalar> 
17
(
0.232185
0.567855
0.394903
0.350462
0.338441
0.342782
0.353895
0.374619
0.411216
0.459533
0.501826
0.526008
0.816013
0.726657
0.749441
0.598575
0.255589
)
;
    }
    down
    {
        type            calculated;
        value           uniform 0;
    }
    up
    {
        type            calculated;
        value           uniform 0;
    }
    cylinder
    {
        type            calculated;
        value           uniform 0;
    }
    defaultFaces
    {
        type            empty;
    }
}


// ************************************************************************* //
