/*--------------------------------*- C++ -*----------------------------------*\
  =========                 |
  \\      /  F ield         | OpenFOAM: The Open Source CFD Toolbox
   \\    /   O peration     | Website:  https://openfoam.org
    \\  /    A nd           | Version:  13
     \\/     M anipulation  |
\*---------------------------------------------------------------------------*/
FoamFile
{
    format      ascii;
    class       volVectorField;
    location    "3.695";
    object      U;
}
// * * * * * * * * * * * * * * * * * * * * * * * * * * * * * * * * * * * * * //

dimensions      [0 1 -1 0 0 0 0];

internalField   nonuniform List<vector> 
440
(
(-0.0614704 0.0348588 -7.96321e-20)
(-0.103896 0.0899169 7.14877e-20)
(-0.0262026 0.12058 1.18988e-19)
(0.418471 0.149478 3.32656e-19)
(0.211781 0.419029 5.83593e-22)
(-0.0886227 0.0416484 2.79417e-20)
(0.0213879 0.00777751 -1.47319e-19)
(0.463473 -0.0256826 -1.24315e-19)
(1.04006 -0.0485743 6.49272e-20)
(1.39743 -0.00579595 1.85143e-20)
(-0.0415348 0.014495 5.19653e-20)
(0.43926 -0.0248444 7.13804e-19)
(1.22406 -0.00234027 -3.82826e-19)
(1.80555 0.0442368 -1.15302e-18)
(2.41284 0.0655821 3.44649e-19)
(0.171257 -0.0413801 -1.75554e-19)
(1.17197 0.016595 -5.20396e-19)
(1.97468 0.0994677 1.60935e-18)
(2.4662 0.141717 1.70809e-18)
(2.54407 0.171074 -4.72608e-19)
(0.547209 -0.00473394 -2.84989e-19)
(1.76124 0.201086 -5.99402e-19)
(2.334 0.284796 1.80071e-18)
(2.45179 0.303446 1.88638e-18)
(2.53685 0.269373 6.24412e-19)
(-0.0419236 0.29044 9.01457e-20)
(-0.173317 0.458261 1.2409e-19)
(-0.295308 0.474499 -3.53059e-19)
(-0.395663 0.463017 6.42599e-20)
(-0.466681 0.447253 5.10898e-19)
(-0.0834375 0.392074 -1.09163e-20)
(-0.181864 0.66207 -1.73578e-19)
(-0.257417 0.690202 3.05064e-20)
(-0.320531 0.652838 3.26154e-20)
(-0.355716 0.604032 -6.74063e-20)
(-0.10648 0.325675 -9.22677e-20)
(-0.180635 0.698249 5.23342e-20)
(-0.206544 0.826721 -2.3042e-20)
(-0.208602 0.828707 -4.65611e-19)
(-0.185037 0.773395 7.23096e-21)
(-0.0728507 0.152957 -2.14114e-20)
(-0.139955 0.472935 3.32119e-20)
(-0.147667 0.673678 5.68216e-20)
(-0.114666 0.763356 1.98289e-19)
(-0.077807 0.798066 -5.33314e-20)
(-0.0402473 0.045169 -6.79241e-20)
(-0.117611 0.212817 -8.55646e-20)
(-0.150842 0.386475 -1.33277e-19)
(-0.0664969 0.484281 -6.50053e-20)
(-0.0623143 0.688128 -5.91631e-19)
(-0.704852 0.340124 -9.05942e-19)
(0.036028 -0.192924 1.10894e-18)
(0.450782 -0.450594 9.95065e-20)
(0.683843 -0.410164 -7.10256e-20)
(0.945764 -0.218722 3.15145e-21)
(-0.403916 0.281508 4.75304e-19)
(0.539887 -0.354791 -2.234e-19)
(0.816938 -0.525158 1.15781e-19)
(0.941381 -0.462877 1.66421e-19)
(1.03816 -0.245584 2.58972e-20)
(0.101168 0.175246 -4.75796e-20)
(1.02477 -0.486083 1.07163e-18)
(1.18472 -0.575877 -9.48269e-20)
(1.22882 -0.476252 1.66174e-19)
(1.16019 -0.248915 -2.54188e-21)
(0.57857 0.101577 1.91544e-19)
(1.43655 -0.583974 -1.97487e-19)
(1.44708 -0.615935 -2.12813e-20)
(1.43284 -0.469568 -1.45221e-19)
(1.26704 -0.234527 8.21419e-20)
(1.01857 -0.075305 -1.4481e-19)
(1.80601 -0.643189 -1.20373e-19)
(1.67703 -0.620879 0)
(1.55383 -0.447337 8.62795e-20)
(1.32815 -0.210852 2.98832e-20)
(1.93159 -0.153922 -3.83137e-19)
(2.27983 -0.583767 4.84139e-20)
(1.95814 -0.558456 -2.13165e-20)
(1.65106 -0.390374 8.8269e-20)
(1.35081 -0.177342 -7.29195e-20)
(2.45422 -0.256012 1.27757e-20)
(2.39861 -0.594146 5.78593e-19)
(1.90526 -0.441898 -1.58368e-20)
(1.4773 -0.226257 -1.25791e-19)
(1.20292 -0.0964655 0)
(2.40731 -0.206053 -3.62614e-19)
(2.18934 -0.397539 6.53823e-21)
(1.83175 -0.270773 -5.85127e-20)
(1.54861 -0.127874 6.90204e-20)
(1.24062 -0.0598957 -3.42561e-20)
(2.29502 -0.180727 9.50711e-20)
(1.89386 -0.349417 1.78975e-19)
(1.4025 -0.201926 -2.53146e-20)
(1.15551 -0.0141852 -5.11917e-34)
(0.990868 0.0171165 3.22653e-20)
(1.50305 -0.0852521 1.44005e-19)
(0.837173 -0.0446679 4.46977e-20)
(0.418398 0.0105599 -1.0465e-20)
(0.369369 0.0201587 -1.37462e-20)
(0.423018 0.00627749 5.10107e-21)
(2.42161 0.288901 -7.34809e-19)
(2.67795 0.0613188 -9.58536e-19)
(2.48576 0.169419 5.08451e-19)
(2.80433 -0.0523446 1.27758e-19)
(1.98853 0.223342 4.5276e-21)
(2.13246 0.217148 7.81953e-20)
(2.52016 0.00977066 -3.58144e-20)
(2.27474 0.084592 -1.32037e-19)
(2.60482 -0.101518 -2.04929e-19)
(2.39013 -0.0964158 -6.61272e-21)
(2.12251 0.114073 7.82791e-20)
(2.28222 0.0158944 8.04916e-20)
(2.23548 0.00722469 -9.956e-20)
(2.32967 -0.0612178 3.75601e-20)
(2.34394 -0.106336 -9.12378e-21)
(2.06965 0.0468023 1.1247e-19)
(2.10891 -0.00113356 1.546e-19)
(2.16416 -0.00870275 -1.84816e-20)
(2.18777 -0.0470476 -6.73958e-20)
(2.23806 -0.0695507 3.28447e-20)
(1.54684 -0.00660927 1.7889e-19)
(1.51554 -0.0139337 -1.1075e-20)
(1.57646 -0.0164705 1.8399e-20)
(1.5362 -0.0234889 -3.01681e-20)
(1.58451 -0.0286052 -5.0534e-21)
(1.56776 0.812604 1.11969e-18)
(1.51795 0.911056 -3.69119e-19)
(1.51353 1.04289 -1.3392e-18)
(1.44071 1.09135 7.14711e-19)
(0.876118 0.777891 -1.62094e-19)
(1.85424 0.794208 -5.70251e-19)
(1.81868 0.868944 -2.95958e-18)
(1.82054 0.970968 -1.13108e-18)
(1.72528 0.982233 -3.96443e-19)
(1.04874 0.685999 -6.42552e-19)
(2.17232 0.654623 7.307e-19)
(2.14496 0.727048 1.94669e-19)
(2.10833 0.81985 -2.20549e-18)
(1.97203 0.811614 -6.22867e-19)
(1.1622 0.539011 4.64708e-19)
(2.33545 0.562403 2.15149e-18)
(2.32025 0.614889 1.59744e-18)
(2.31479 0.663833 -1.86851e-18)
(2.08962 0.622058 -1.40756e-18)
(1.14087 0.359963 -2.61486e-19)
(2.50159 0.410915 1.04482e-18)
(2.50156 0.431951 -7.71446e-19)
(2.38431 0.462302 5.47079e-19)
(2.04843 0.408274 4.35497e-19)
(0.946108 0.159193 -3.62628e-19)
(0.570296 0.489864 -5.9186e-19)
(0.481305 0.521046 -4.5115e-19)
(0.364975 0.550474 5.01086e-20)
(0.228085 0.55156 -3.87311e-21)
(0.0574564 0.393763 8.18224e-20)
(0.660147 0.653686 1.08974e-19)
(0.596171 0.710735 -2.62681e-19)
(0.510549 0.777389 1.74988e-19)
(0.389884 0.82795 -8.21595e-20)
(0.170872 0.620901 1.1628e-19)
(0.772517 0.85044 1.2281e-19)
(0.698135 0.926407 4.46796e-19)
(0.641109 1.01688 1.1609e-19)
(0.555868 1.04727 -2.99851e-19)
(0.303195 0.760433 2.53313e-19)
(1.03145 0.908878 2.22943e-19)
(0.986105 0.985935 -7.08626e-19)
(0.939551 1.08079 -1.88636e-18)
(0.860327 1.14254 7.47529e-19)
(0.505145 0.838063 -1.54845e-19)
(1.10287 0.960048 -8.70895e-20)
(1.13724 1.07569 -1.60746e-19)
(1.16226 1.18267 -3.73811e-19)
(1.10693 1.19409 -4.12831e-19)
(0.675443 0.840253 -6.4105e-21)
(0.965739 0.0316312 -9.20884e-20)
(1.03489 0.0373937 -2.77245e-20)
(1.03593 0.127832 -2.00297e-21)
(0.959445 0.160589 -2.22722e-19)
(0.887162 0.3232 2.96532e-19)
(0.962245 0.0261986 6.02312e-20)
(1.04555 0.0378581 1.06199e-19)
(1.02117 0.131373 1.22384e-19)
(1.00346 0.197619 3.42681e-20)
(0.926013 0.395003 -2.0962e-20)
(0.96946 0.0229777 8.02927e-20)
(1.0285 0.0319294 -4.21901e-21)
(1.07073 0.151936 -2.75414e-21)
(0.946282 0.188813 1.25193e-19)
(1.15152 0.553797 -4.99623e-19)
(0.968769 0.0199089 -9.2585e-22)
(1.03847 0.0267097 -1.49242e-19)
(1.06236 0.165152 -6.09938e-20)
(1.04375 0.202157 -3.29949e-19)
(1.13464 0.602149 8.39423e-20)
(0.971101 0.0148218 -1.54876e-20)
(1.03077 0.0273207 4.01943e-20)
(1.10866 0.171235 2.7369e-20)
(1.00198 0.226389 4.20166e-19)
(1.40712 0.7287 -4.84469e-19)
(0.955461 0.0144985 -1.11098e-20)
(1.06138 0.0082305 8.83405e-20)
(1.10143 0.196926 -6.49502e-20)
(1.20886 0.140412 8.59233e-19)
(1.27154 0.794958 -3.22476e-19)
(0.948982 -0.00440365 -1.71938e-21)
(1.09377 -0.00172643 -7.96493e-20)
(1.07604 0.13134 3.92312e-21)
(1.28054 0.161946 -2.47475e-19)
(1.23038 0.544775 -7.82519e-20)
(0.96511 -0.0126378 3.62478e-22)
(1.08309 -0.00963397 1.21341e-35)
(1.09898 0.102721 -2.05751e-20)
(1.25572 0.124032 9.17667e-20)
(1.41908 0.368747 1.74741e-19)
(0.996025 -0.0439284 4.36733e-21)
(1.0158 -0.0250882 -2.29522e-20)
(1.14001 0.038796 1.62349e-20)
(1.17828 0.0701073 2.38459e-20)
(1.59278 0.218255 -2.7494e-19)
(0.923177 -0.022334 -3.81264e-20)
(0.836274 -0.0242683 -2.12037e-21)
(0.877565 0.00298802 2.32235e-20)
(0.859502 0.0069611 -1.84908e-20)
(1.21604 0.0576252 -6.34837e-20)
(1.81745 0.590142 2.65608e-19)
(1.89674 0.644467 7.29697e-19)
(2.19033 0.477136 -1.03627e-18)
(2.23277 0.491989 -4.29516e-20)
(2.48335 0.277411 4.62028e-19)
(1.78697 0.34183 1.02999e-19)
(1.77614 0.413302 9.65691e-19)
(2.06941 0.278561 1.39633e-19)
(1.98041 0.335964 -9.25802e-19)
(2.33349 0.139935 -2.62697e-19)
(1.77898 0.244874 -2.35824e-19)
(1.84265 0.259615 -1.51645e-19)
(1.99255 0.184967 1.22644e-19)
(1.99523 0.203138 -2.90695e-19)
(2.17097 0.0975714 2.62427e-19)
(1.75164 0.13724 3.80759e-19)
(1.84362 0.134717 -6.01575e-21)
(1.88382 0.0930651 2.19784e-19)
(1.95969 0.097923 1.96549e-19)
(2.00436 0.0446477 -1.90127e-19)
(1.35929 0.0362413 -4.66142e-20)
(1.43404 0.0273307 2.43975e-19)
(1.43684 0.015132 1.10442e-19)
(1.49949 0.00856614 -2.22745e-19)
(1.48225 -0.00293724 1.12546e-23)
(1.13424 -0.0185975 6.5854e-20)
(2.1256 -0.0389352 -4.2196e-19)
(2.3549 -0.0308291 1.13939e-18)
(2.33142 0.00836802 5.00501e-19)
(2.17836 0.0332433 -3.56859e-19)
(0.724842 0.0972742 1.22867e-19)
(1.90753 0.0941617 -4.28159e-19)
(2.35408 0.0972519 -5.81824e-19)
(2.41161 0.101945 7.15172e-19)
(2.15332 0.0916551 -4.69423e-19)
(0.248211 0.0856269 -1.66008e-20)
(1.2994 0.158793 4.56252e-19)
(2.02122 0.17795 6.09869e-20)
(2.38314 0.170695 4.19077e-19)
(2.54591 0.155733 1.50856e-19)
(-0.0114486 -0.00737617 1.83046e-19)
(0.507299 0.0961535 1.83819e-19)
(1.26994 0.168309 -4.00696e-19)
(1.75191 0.193255 2.23599e-20)
(2.28507 0.220465 5.26157e-20)
(-0.0834507 -0.068688 1.28604e-19)
(0.0354833 -0.0338311 -1.402e-19)
(0.461468 0.0473438 -2.78438e-20)
(0.928917 0.0882081 5.01273e-20)
(1.31865 0.145699 -9.95633e-21)
(-0.0705197 -0.0764922 1.45233e-20)
(-0.089809 -0.105223 6.23317e-20)
(0.0306893 -0.0811779 5.539e-20)
(0.246683 -0.0242866 -1.03339e-19)
(0.587171 0.044496 4.3813e-21)
(-0.0534408 -0.0927911 -2.18101e-20)
(-0.0839759 -0.168112 -1.29995e-20)
(-0.0614014 -0.179538 9.78764e-21)
(0.00415894 -0.142971 8.27359e-21)
(0.146348 -0.0692519 1.62749e-20)
(-0.0515259 -0.133037 -3.49586e-20)
(-0.0913589 -0.21116 -2.78378e-19)
(-0.101185 -0.208149 2.06981e-19)
(-0.0932498 -0.170192 7.05575e-19)
(-0.0594168 -0.118285 -1.20051e-19)
(-0.0359281 -0.0685841 2.33255e-20)
(-0.129374 -0.0743743 1.96835e-19)
(-0.215421 -0.0483471 -5.88546e-19)
(-0.28553 -0.0106743 -4.00656e-19)
(-0.320208 0.0322562 7.43817e-20)
(-0.018973 0.1021 -9.52161e-21)
(-0.139874 0.183855 4.07626e-20)
(-0.260157 0.208514 -1.77542e-20)
(-0.365567 0.22447 6.40443e-22)
(-0.439983 0.242421 1.43335e-19)
(1.32777 0.446306 -2.02237e-20)
(1.03921 0.149418 7.82092e-19)
(1.00574 -0.0404624 -8.82726e-20)
(0.929131 -0.0317471 -1.2963e-19)
(0.99714 0.00441274 1.69466e-21)
(1.01795 0.322001 9.3724e-20)
(0.494171 0.155904 -1.4118e-19)
(0.509658 0.00763971 -2.09314e-19)
(0.592289 -0.0446074 -1.56354e-20)
(0.884901 -0.0252359 -2.29598e-20)
(0.314831 0.286725 9.7794e-20)
(-0.197883 0.192328 5.43862e-20)
(0.244561 -0.0776755 4.28808e-20)
(0.468923 -0.135476 1.29949e-19)
(0.854531 -0.0715275 1.83097e-22)
(-0.336692 0.331209 1.43029e-19)
(-0.442716 0.132101 -1.33511e-18)
(0.21155 -0.198214 -4.13099e-20)
(0.473831 -0.224719 5.31931e-21)
(0.86546 -0.124222 1.96536e-20)
(-0.682116 0.348467 9.48074e-20)
(-0.328323 -0.00694516 -1.08713e-19)
(0.257705 -0.33865 6.30598e-20)
(0.535446 -0.323165 -2.39134e-20)
(0.893478 -0.174461 3.27138e-20)
(0.651686 0.121225 -7.63762e-20)
(0.0533978 -0.04249 0)
(0.183942 -0.0702765 -3.56437e-20)
(0.315355 -0.0488903 1.845e-20)
(0.455048 -0.0239445 4.14303e-21)
(1.86603 0.370685 0)
(1.24219 0.204846 0)
(1.21362 -0.00134617 3.36336e-19)
(1.21492 -0.0410368 5.50497e-20)
(1.11316 -0.0153501 -4.78927e-21)
(0.699886 0.000468192 -1.26111e-19)
(0.759561 -0.00197098 3.02896e-19)
(0.885649 -0.0112607 -1.22094e-20)
(1.04355 0.0110841 2.43175e-19)
(1.28259 0.0576759 1.5373e-19)
(1.58745 0.0219246 1.20811e-19)
(1.70367 0.0737749 3.3283e-19)
(1.88069 0.0448498 -1.27726e-19)
(2.43049 0.162838 -1.97877e-21)
(2.08957 0.129591 9.76354e-20)
(0.863488 -0.442927 -2.45227e-20)
(0.847539 -0.528872 -1.55291e-19)
(0.835916 -0.623061 -1.00922e-19)
(0.76695 -0.688669 6.12589e-20)
(0.466528 -0.540258 1.22768e-19)
(0.763153 -0.343927 1.14834e-19)
(0.709937 -0.405856 2.30816e-19)
(0.640635 -0.475323 -3.94141e-20)
(0.533323 -0.535991 1.33448e-19)
(0.289929 -0.429495 5.37014e-20)
(0.623036 -0.205237 -1.32254e-19)
(0.541393 -0.242208 -4.96231e-20)
(0.442554 -0.287841 1.1507e-19)
(0.323249 -0.327902 -1.17315e-20)
(0.140058 -0.266123 -1.12636e-19)
(0.53278 0.0194441 -3.98822e-19)
(0.448792 0.00608041 -3.31943e-19)
(0.339294 -0.0142027 2.67651e-19)
(0.21202 -0.0421475 1.6629e-19)
(0.0544323 -0.0556257 1.30542e-20)
(0.497076 0.226092 -1.51243e-19)
(0.410411 0.231221 -1.52466e-19)
(0.29687 0.238393 -6.41543e-20)
(0.167756 0.243184 1.59152e-20)
(0.0220644 0.171726 9.59667e-21)
(1.94117 -0.0368722 7.51102e-19)
(2.20055 -0.0990871 2.43024e-19)
(2.2694 -0.178571 -6.6149e-19)
(2.12511 -0.206025 -1.3904e-18)
(1.28068 -0.17935 1.21947e-19)
(1.92404 -0.114569 1.25759e-18)
(2.00714 -0.220876 1.67822e-18)
(2.02608 -0.337552 1.43145e-19)
(1.9455 -0.395348 2.55071e-19)
(1.24644 -0.345114 -1.68473e-19)
(1.64574 -0.268158 -3.22934e-18)
(1.70971 -0.380217 3.32961e-19)
(1.74983 -0.498686 1.01831e-18)
(1.68614 -0.570959 -3.71764e-19)
(1.09386 -0.482151 5.98964e-19)
(1.44418 -0.382253 7.56771e-19)
(1.45568 -0.47519 -2.03789e-18)
(1.4378 -0.587153 -2.30121e-18)
(1.36751 -0.670334 6.97262e-19)
(0.881495 -0.550983 4.93949e-19)
(1.16328 -0.432686 1.53436e-19)
(1.11637 -0.52151 2.39063e-19)
(1.10331 -0.637445 -3.53679e-19)
(1.04763 -0.720265 -4.24894e-19)
(0.662979 -0.571761 -3.90397e-21)
(0.988966 0.0399911 6.2903e-21)
(1.01205 0.0726442 -1.48907e-21)
(1.08913 0.0777852 -3.09576e-21)
(0.804722 -0.00191837 -2.1009e-19)
(1.04735 -0.175865 -1.48524e-20)
(0.994818 0.0418699 -2.50081e-21)
(0.992979 0.0656516 3.88024e-20)
(1.11275 0.103335 -2.88156e-20)
(0.87863 0.0436872 1.5919e-19)
(0.944843 -0.0635399 -5.35886e-21)
(0.997209 0.0384552 -5.53845e-20)
(0.980878 0.0569444 -6.27602e-23)
(1.10911 0.107109 -1.33444e-20)
(0.892491 0.0771094 6.82168e-20)
(0.905748 -0.00621955 -1.90651e-19)
(0.987758 0.0380715 7.11855e-20)
(0.996739 0.0466433 3.63052e-21)
(1.07635 0.114278 2.7846e-20)
(0.930562 0.110065 -1.41071e-20)
(0.836832 0.103123 8.60853e-20)
(0.973906 0.0348279 1.73588e-20)
(1.02232 0.0430588 -2.65176e-20)
(1.04091 0.11603 3.88195e-20)
(0.964198 0.145839 5.61762e-20)
(0.82016 0.204715 -1.09873e-19)
(0.879156 0.0333142 0)
(0.753063 0.0304748 1.11039e-20)
(0.547725 0.0192452 3.50188e-21)
(0.428175 -0.00923518 4.4644e-20)
(0.66414 -0.0415501 -1.43775e-19)
(0.975199 0.0626622 -6.05477e-20)
(1.02652 0.0882939 -1.05659e-20)
(0.950284 0.0683393 -4.43505e-20)
(0.841315 -0.0119574 -1.21525e-19)
(0.989691 -0.163339 -1.52544e-19)
(0.9028 -0.0604507 -3.15447e-20)
(0.982849 -0.0288846 4.94326e-19)
(1.06221 0.0367775 2.94843e-19)
(0.937261 0.0504203 3.25519e-20)
(0.725126 0.0263971 0)
(1.24654 -0.289517 3.05767e-19)
(1.35576 -0.258569 1.38719e-18)
(1.51906 -0.145066 -1.51116e-18)
(1.61209 -0.0189383 -4.63997e-19)
(1.50736 0.0267991 3.56777e-19)
)
;

boundaryField
{
    left
    {
        type            fixedValue;
        value           uniform (1 0 0);
    }
    right
    {
        type            zeroGradient;
    }
    down
    {
        type            noSlip;
    }
    up
    {
        type            noSlip;
    }
    cylinder
    {
        type            noSlip;
    }
    defaultFaces
    {
        type            empty;
    }
}


// ************************************************************************* //
