/*--------------------------------*- C++ -*----------------------------------*\
  =========                 |
  \\      /  F ield         | OpenFOAM: The Open Source CFD Toolbox
   \\    /   O peration     | Website:  https://openfoam.org
    \\  /    A nd           | Version:  13
     \\/     M anipulation  |
\*---------------------------------------------------------------------------*/
FoamFile
{
    format      ascii;
    class       volScalarField;
    location    "1";
    object      p;
}
// * * * * * * * * * * * * * * * * * * * * * * * * * * * * * * * * * * * * * //

dimensions      [0 2 -2 0 0 0 0];

internalField   nonuniform List<scalar> 
1800
(
-1.33041
-1.32326
-1.31934
-1.31608
-1.30463
-1.27705
-1.22982
-1.16419
-1.08459
-1.00568
-1.44901
-1.44069
-1.43468
-1.42711
-1.40833
-1.37165
-1.31562
-1.24408
-1.16422
-1.08755
-1.56762
-1.55815
-1.54891
-1.53451
-1.50519
-1.45633
-1.38907
-1.30916
-1.22376
-1.14092
-1.68632
-1.67547
-1.66144
-1.63742
-1.59492
-1.53224
-1.45367
-1.36643
-1.27721
-1.19286
-1.8025
-1.78998
-1.76916
-1.73258
-1.67444
-1.59651
-1.50603
-1.41078
-1.31678
-1.22879
-1.91185
-1.89703
-1.86733
-1.81597
-1.74081
-1.64785
-1.54647
-1.44433
-1.34632
-1.25584
-2.00786
-1.98978
-1.94928
-1.88158
-1.78879
-1.68125
-1.56951
-1.4605
-1.3581
-1.26439
-2.08292
-2.06065
-2.00814
-1.92339
-1.81387
-1.6934
-1.5728
-1.45803
-1.35185
-1.25535
-2.12894
-2.10186
-2.03684
-1.93525
-1.81065
-1.67915
-1.55115
-1.4315
-1.32202
-1.22295
-2.13925
-2.10704
-2.02962
-1.9128
-1.77583
-1.63598
-1.50274
-1.37985
-1.26817
-1.16723
-0.191244
-0.192745
-0.19066
-0.182703
-0.16859
-0.148255
-0.122365
-0.0923228
-0.0600099
-0.0280891
-0.242043
-0.243113
-0.240901
-0.233259
-0.219618
-0.199645
-0.173749
-0.143184
-0.105851
-0.0717651
-0.322013
-0.322508
-0.32012
-0.312927
-0.299946
-0.280177
-0.253402
-0.220301
-0.182167
-0.142648
-0.42671
-0.426606
-0.424253
-0.418006
-0.406278
-0.387143
-0.359673
-0.324055
-0.281687
-0.235098
-0.549982
-0.549281
-0.547184
-0.54243
-0.532606
-0.514587
-0.486506
-0.448304
-0.400867
-0.345694
-0.684298
-0.682881
-0.681036
-0.678255
-0.670883
-0.654174
-0.625746
-0.585016
-0.532654
-0.468724
-0.822095
-0.819599
-0.818213
-0.817168
-0.811679
-0.796302
-0.767551
-0.724537
-0.668081
-0.596789
-0.957065
-0.953546
-0.952177
-0.95217
-0.94794
-0.932983
-0.903194
-0.857665
-0.797691
-0.721065
-1.08646
-1.08175
-1.07997
-1.0801
-1.07564
-1.05921
-1.02645
-0.976802
-0.912161
-0.831176
-1.2103
-1.20436
-1.20176
-1.20091
-1.19412
-1.17345
-1.13463
-1.07784
-1.00557
-0.920821
0.129865
0.139032
0.147577
0.123193
0.0968914
0.0752804
0.0567049
0.039688
0.0235257
0.00790136
0.0954566
0.125908
0.141061
0.119559
0.0945531
0.0735831
0.0554432
0.0388094
0.0230071
0.00769933
0.0455348
0.108792
0.132628
0.115
0.0917988
0.0716976
0.0540968
0.037897
0.0224772
0.00749295
-0.0161573
0.0877311
0.12213
0.109493
0.0886252
0.0696161
0.052658
0.036945
0.0219321
0.00728169
-0.0861991
0.0630317
0.10958
0.103026
0.085022
0.0673305
0.0511205
0.0359484
0.021368
0.0070655
-0.163386
0.0350024
0.0950917
0.0956678
0.0809959
0.064837
0.0494806
0.0349031
0.0207817
0.00684483
-0.248852
0.00281139
0.0786963
0.0874691
0.0765715
0.0621467
0.047742
0.0338081
0.0201716
0.00662115
-0.343132
-0.0353733
0.0599025
0.078174
0.0716703
0.0592449
0.0459039
0.0326627
0.019537
0.00639762
-0.442226
-0.07991
0.0381761
0.0673118
0.0660298
0.0560176
0.0439194
0.0314459
0.0188687
0.00617709
-0.536715
-0.128211
0.0143712
0.0550576
0.0596016
0.0523987
0.0417447
0.0301314
0.0181496
0.00595923
-0.557964
-0.15553
-0.00677673
0.0405614
0.0506195
0.0468584
0.0382646
0.0279578
0.0169491
0.005623
-0.504166
-0.166524
-0.0297067
0.0213472
0.0375748
0.0385017
0.0329836
0.0246939
0.0151834
0.00506306
-0.454488
-0.170246
-0.0405396
0.00968598
0.0279985
0.0315949
0.0282999
0.0216891
0.0135194
0.00452541
-0.411293
-0.175863
-0.0549045
-0.0040213
0.0175619
0.0244349
0.0235964
0.0187267
0.0118867
0.00398663
-0.376869
-0.179113
-0.0655964
-0.014745
0.00867382
0.0179722
0.0192292
0.0159457
0.0103423
0.0034692
-0.349869
-0.182686
-0.076589
-0.0250685
0.000349346
0.0119423
0.015159
0.013363
0.00890379
0.00297928
-0.330947
-0.187439
-0.08751
-0.0346048
-0.00714325
0.00651787
0.0114861
0.0110373
0.00759869
0.00252409
-0.320536
-0.194106
-0.0984615
-0.0434813
-0.0137637
0.00181411
0.00831851
0.00904595
0.00646825
0.00212058
-0.319977
-0.202869
-0.108071
-0.0503623
-0.0186547
-0.00166616
0.00594728
0.00755402
0.00559834
0.0018092
-0.319231
-0.211519
-0.117985
-0.057503
-0.0232139
-0.00463681
0.00398223
0.00632675
0.00485624
0.00154858
-0.994728
-1.05091
-1.08664
-1.1012
-1.09913
-1.07969
-1.04963
-1.00595
-0.955451
-0.896489
-0.806259
-0.861419
-0.89909
-0.918539
-0.922723
-0.911448
-0.888751
-0.855724
-0.81637
-0.775174
-0.658968
-0.711602
-0.74918
-0.77178
-0.779944
-0.775149
-0.758685
-0.733637
-0.701052
-0.665531
-0.541668
-0.592708
-0.630139
-0.654616
-0.665418
-0.664971
-0.653151
-0.633263
-0.605513
-0.574127
-0.450136
-0.499526
-0.536539
-0.561939
-0.574709
-0.57718
-0.569019
-0.553168
-0.530067
-0.503215
-0.378693
-0.426655
-0.463373
-0.489415
-0.50389
-0.508642
-0.503621
-0.491252
-0.472138
-0.449011
-0.323494
-0.3706
-0.407387
-0.434151
-0.450188
-0.456883
-0.454522
-0.444965
-0.429051
-0.408815
-0.283262
-0.329898
-0.36713
-0.394722
-0.41225
-0.420592
-0.420559
-0.413197
-0.399952
-0.381506
-0.260331
-0.307428
-0.344956
-0.372721
-0.391449
-0.401234
-0.40308
-0.397373
-0.386159
-0.368971
-0.248671
-0.296852
-0.335796
-0.365607
-0.385858
-0.397342
-0.400667
-0.396375
-0.385856
-0.368226
0.496766
0.434169
0.362439
0.285502
0.202192
0.110323
0.00992559
-0.0933664
-0.180444
-0.223313
0.288211
0.219339
0.142625
0.0585213
-0.0346986
-0.138573
-0.252163
-0.3683
-0.465218
-0.512116
0.0610664
-0.0117032
-0.0921872
-0.181675
-0.282147
-0.394809
-0.518201
-0.643989
-0.748401
-0.797815
-0.157404
-0.23505
-0.321322
-0.417754
-0.526078
-0.647236
-0.779323
-0.912942
-1.02345
-1.07394
-0.35749
-0.441456
-0.534949
-0.639333
-0.756084
-0.885928
-1.02663
-1.167
-1.28182
-1.33114
-0.539075
-0.629587
-0.730269
-0.842298
-0.967066
-1.10512
-1.25326
-1.39943
-1.51173
-1.56144
-0.703569
-0.799658
-0.906387
-1.02471
-1.15572
-1.30107
-1.45334
-1.59949
-1.71007
-1.75883
-0.850069
-0.950338
-1.06147
-1.18438
-1.3199
-1.46748
-1.62122
-1.76537
-1.87177
-1.91789
-0.978407
-1.08063
-1.19364
-1.31848
-1.45565
-1.60359
-1.75532
-1.89405
-1.99299
-2.03521
-1.08548
-1.18744
-1.30028
-1.42494
-1.56129
-1.70674
-1.85292
-1.98241
-2.07145
-2.10885
1.84309
1.85865
1.87511
1.89133
1.90637
1.91953
1.9301
1.93789
1.94439
1.95025
1.77488
1.78778
1.801
1.81349
1.82438
1.83298
1.8386
1.84129
1.84337
1.84652
1.68637
1.6957
1.70458
1.71206
1.71745
1.72002
1.71911
1.71507
1.71125
1.7109
1.57864
1.5839
1.58746
1.58865
1.58703
1.58191
1.57264
1.55997
1.54863
1.54405
1.45158
1.45193
1.44931
1.44334
1.43382
1.42002
1.40132
1.37885
1.35881
1.34963
1.30817
1.30328
1.2935
1.27903
1.26011
1.23606
1.20636
1.17262
1.14269
1.12819
1.14902
1.13833
1.12109
1.09784
1.06906
1.03404
0.992362
0.946268
0.905533
0.885304
0.980989
0.963664
0.937203
0.90325
0.862876
0.81545
0.760655
0.701362
0.64938
0.623221
0.8087
0.784443
0.748134
0.7026
0.649503
0.588261
0.518794
0.44492
0.380904
0.348763
0.644711
0.604749
0.552683
0.492717
0.425762
0.350392
0.266357
0.17824
0.102715
0.0649955
1.60326
1.53686
1.57429
1.54935
1.54948
1.56163
1.57731
1.61274
1.67055
1.77392
1.5965
1.53126
1.56847
1.54255
1.54137
1.55102
1.56352
1.59318
1.64159
1.72929
1.59027
1.52556
1.5626
1.53532
1.5327
1.53946
1.54816
1.57058
1.60703
1.67327
1.58456
1.51981
1.55673
1.52769
1.52349
1.52696
1.53125
1.54482
1.56718
1.60531
1.57933
1.51406
1.55088
1.51968
1.51378
1.5135
1.51279
1.51579
1.52251
1.52436
1.57459
1.50835
1.54508
1.51133
1.50358
1.49909
1.49274
1.48335
1.4735
1.42953
1.57035
1.50274
1.53933
1.50266
1.4929
1.48374
1.47106
1.44749
1.42042
1.31949
1.56661
1.49725
1.53365
1.4937
1.48174
1.46749
1.4477
1.40845
1.363
1.19508
1.56343
1.49194
1.52802
1.48449
1.47012
1.45042
1.42271
1.36639
1.29974
1.05395
1.56084
1.48688
1.52244
1.47507
1.45807
1.43266
1.39668
1.3227
1.2336
0.907647
1.55824
1.48103
1.51526
1.46387
1.4424
1.40964
1.36205
1.26814
1.15435
0.764033
1.55707
1.47499
1.50734
1.45213
1.42509
1.38505
1.32654
1.2188
1.07835
0.724286
1.55783
1.46974
1.49992
1.44105
1.40864
1.36262
1.29457
1.17812
1.01721
0.699283
1.56101
1.46537
1.49299
1.43076
1.3933
1.34266
1.26581
1.14549
0.968334
0.685977
1.56711
1.4619
1.48634
1.42124
1.37932
1.3252
1.24053
1.11986
0.931061
0.681194
1.57675
1.45928
1.48115
1.41271
1.36702
1.31028
1.21919
1.10007
0.904343
0.678917
1.58982
1.45624
1.47372
1.40476
1.35646
1.29793
1.20201
1.08559
0.885538
0.677557
1.61271
1.45733
1.47003
1.39799
1.34811
1.28829
1.18914
1.07551
0.872856
0.677513
1.62485
1.44948
1.45855
1.39141
1.34195
1.28155
1.18079
1.06958
0.865683
0.679218
1.69501
1.46096
1.45982
1.38803
1.33997
1.2779
1.17702
1.06668
0.86232
0.681459
0.473877
0.300288
0.0993699
-0.0933748
-0.268335
-0.426887
-0.572027
-0.703384
-0.818936
-0.916883
0.415598
0.278865
0.125693
-0.0263457
-0.168827
-0.301176
-0.424785
-0.539548
-0.643754
-0.73289
0.394539
0.279831
0.157791
0.0334545
-0.087695
-0.203934
-0.314418
-0.417526
-0.510818
-0.591561
0.401665
0.297326
0.190365
0.08346
-0.0221957
-0.125746
-0.225385
-0.319
-0.403959
-0.478508
0.417873
0.320496
0.22235
0.126368
0.0319471
-0.0616667
-0.153141
-0.240211
-0.319795
-0.390274
0.435652
0.343891
0.252188
0.16349
0.0767345
-0.00975624
-0.0953583
-0.1778
-0.253622
-0.321074
0.452205
0.365216
0.278565
0.194902
0.113084
0.0312548
-0.0502783
-0.129271
-0.202201
-0.267338
0.467416
0.384338
0.301537
0.221049
0.141789
0.0622887
-0.0169201
-0.0936326
-0.164608
-0.228166
0.481779
0.402349
0.32261
0.243488
0.164368
0.0847695
0.00585847
-0.0702035
-0.140836
-0.20459
0.494643
0.418222
0.340156
0.260441
0.179583
0.0986133
0.0192783
-0.0567152
-0.127568
-0.192008
-1.84598
-1.79615
-1.68599
-1.54865
-1.41133
-1.28715
-1.18005
-1.09068
-1.0193
-0.966931
-1.88969
-1.84692
-1.75389
-1.63259
-1.50651
-1.38949
-1.28676
-1.19988
-1.13013
-1.07975
-1.85415
-1.81772
-1.74446
-1.64485
-1.53551
-1.42972
-1.33384
-1.25029
-1.1809
-1.12829
-1.75526
-1.72383
-1.66978
-1.59486
-1.50687
-1.41648
-1.33082
-1.25334
-1.18696
-1.13469
-1.61719
-1.58969
-1.55169
-1.50071
-1.43685
-1.3661
-1.29461
-1.22646
-1.16433
-1.11062
-1.46621
-1.44162
-1.41502
-1.38323
-1.34213
-1.29226
-1.23693
-1.17911
-1.12263
-1.07025
-1.32387
-1.30167
-1.28171
-1.26302
-1.24148
-1.21376
-1.1788
-1.13796
-1.09345
-1.05016
-1.20674
-1.18531
-1.16801
-1.15637
-1.14973
-1.14253
-1.12849
-1.1035
-1.06905
-1.02667
-1.1286
-1.1071
-1.0901
-1.08219
-1.08599
-1.09587
-1.10162
-1.09476
-1.07258
-1.04385
-1.09406
-1.07486
-1.06063
-1.05832
-1.07147
-1.09461
-1.11392
-1.11709
-1.0947
-1.05456
-1.08404
-1.07142
-1.06702
-1.07754
-1.10275
-1.13524
-1.16237
-1.16919
-1.1451
-1.07289
-1.05067
-1.04736
-1.05549
-1.07994
-1.11701
-1.15618
-1.18465
-1.18985
-1.1649
-1.07254
-0.959041
-0.962591
-0.976832
-1.00473
-1.04111
-1.07579
-1.09766
-1.09514
-1.06306
-0.961963
-0.807633
-0.812536
-0.823323
-0.841096
-0.861788
-0.877304
-0.879331
-0.860579
-0.821128
-0.723011
-0.63133
-0.634565
-0.638248
-0.642391
-0.644967
-0.641485
-0.627697
-0.601832
-0.559609
-0.498933
-0.466942
-0.468667
-0.467651
-0.463224
-0.454834
-0.440597
-0.418926
-0.389406
-0.352094
-0.309987
-0.335017
-0.336269
-0.3336
-0.325693
-0.312595
-0.293741
-0.268932
-0.23865
-0.204544
-0.169097
-0.242369
-0.243789
-0.241142
-0.232554
-0.218135
-0.197894
-0.172265
-0.142325
-0.109952
-0.0771922
-0.188969
-0.190629
-0.18837
-0.179956
-0.165391
-0.144853
-0.119108
-0.0895879
-0.0582652
-0.0271863
-0.172682
-0.174361
-0.172332
-0.164192
-0.149797
-0.129299
-0.103515
-0.0739775
-0.0427511
-0.0119075
-0.705348
-0.0381363
0.112388
0.114345
0.100407
0.0849883
0.067098
0.0483382
0.0291876
0.00997837
-0.584952
0.0383932
0.128899
0.11961
0.102298
0.0844284
0.0660394
0.0473407
0.0284934
0.0097363
-0.431748
0.0928233
0.138191
0.12242
0.102637
0.0837206
0.0650178
0.0464044
0.0278503
0.00950992
-0.276994
0.123511
0.144257
0.124752
0.102919
0.0830032
0.0640341
0.0455151
0.0272444
0.00929412
-0.135572
0.140226
0.149942
0.126756
0.102982
0.0822251
0.0630622
0.0446581
0.0266676
0.00908631
-0.022137
0.149472
0.154361
0.128136
0.102772
0.0813685
0.0620881
0.0438244
0.0261149
0.00888453
0.060082
0.154385
0.156554
0.128791
0.102279
0.0804172
0.0610973
0.0430046
0.0255809
0.00868677
0.113322
0.155654
0.156826
0.128674
0.10148
0.0793512
0.0600757
0.0421896
0.0250601
0.00849117
0.141125
0.153679
0.155402
0.12773
0.100337
0.0781508
0.0590107
0.0413706
0.0245474
0.00829604
0.145847
0.148228
0.152328
0.125913
0.0988156
0.0767989
0.0578907
0.0405393
0.0240376
0.00809989
-0.813769
-0.254748
-0.00352391
0.0801744
0.0922869
0.0835864
0.067979
0.0497168
0.0304155
0.0104931
-0.816002
-0.259738
0.00254862
0.0819218
0.0926192
0.0834404
0.0677403
0.0495022
0.0302429
0.0104291
-0.805421
-0.239599
0.01885
0.0864632
0.0936441
0.0834844
0.0675472
0.0492833
0.0300513
0.0103491
-0.770551
-0.187811
0.0443814
0.0932764
0.0955986
0.0839498
0.0675038
0.0491013
0.0298608
0.0102602
-0.748899
-0.102258
0.094001
0.11148
0.100399
0.0850021
0.0676345
0.0489611
0.0296776
0.0101761
-0.920581
-1.02966
-1.0768
-1.094
-1.05357
-1.01819
-0.95824
-0.915355
-0.870098
-0.844537
-0.919698
-1.02941
-1.07285
-1.08628
-1.04008
-1.00116
-0.943205
-0.894345
-0.860742
-0.827102
-0.921407
-1.03149
-1.07275
-1.08291
-1.03666
-0.994315
-0.946942
-0.893066
-0.871502
-0.840873
-0.928429
-1.03951
-1.08113
-1.08818
-1.04761
-1.00279
-0.969434
-0.922014
-0.911249
-0.89035
-0.941493
-1.05446
-1.09831
-1.10337
-1.07115
-1.02766
-1.00606
-0.97533
-0.979822
-0.97684
1.4982
1.48435
1.4624
1.43591
1.40596
1.3713
1.33095
1.28699
1.24926
1.23119
1.59522
1.59507
1.58727
1.57392
1.5564
1.53421
1.50678
1.47586
1.44942
1.43742
1.68851
1.69367
1.69332
1.68886
1.68131
1.67019
1.65486
1.63637
1.62059
1.61401
1.76854
1.7783
1.78503
1.78903
1.79049
1.78879
1.78321
1.77446
1.76696
1.76501
1.83555
1.84893
1.86037
1.86986
1.87738
1.88233
1.88406
1.88294
1.88209
1.88377
1.88412
1.89975
1.91498
1.9293
1.94225
1.95318
1.96136
1.96677
1.97137
1.97629
1.91532
1.93279
1.95061
1.96803
1.98436
1.99893
2.01105
2.0205
2.02858
2.0356
1.92698
1.94525
1.96446
1.98368
2.00203
2.01883
2.03336
2.04525
2.05538
2.0636
1.9191
1.93739
1.95688
1.97649
1.99528
2.01254
2.02757
2.03995
2.05048
2.05892
1.8912
1.90858
1.92715
1.94576
1.96344
1.97949
1.99319
2.00421
2.01352
2.02116
-0.791358
-0.847259
-0.920207
-1.01062
-1.11955
-1.24728
-1.39101
-1.53893
-1.66159
-1.71776
-0.555942
-0.615969
-0.691402
-0.782941
-0.892157
-1.01996
-1.16534
-1.31992
-1.45046
-1.51067
-0.277518
-0.341696
-0.419691
-0.511954
-0.620147
-0.74572
-0.888305
-1.0401
-1.17634
-1.23843
0.0204761
-0.046503
-0.125651
-0.217145
-0.322492
-0.443357
-0.579677
-0.725247
-0.855326
-0.919752
0.313265
0.246076
0.168584
0.0808122
-0.0186109
-0.131549
-0.258329
-0.393399
-0.513004
-0.574607
0.581839
0.518528
0.446687
0.366409
0.276325
0.174464
0.0603776
-0.0608678
-0.167556
-0.223247
0.820203
0.76455
0.701847
0.632121
0.553896
0.465187
0.36557
0.259767
0.16728
0.119119
1.03556
0.988731
0.935962
0.877359
0.811255
0.735692
0.650394
0.559814
0.481308
0.440988
1.23601
1.19648
1.1508
1.10064
1.04457
0.980663
0.908672
0.832578
0.767391
0.734638
1.40644
1.37343
1.33288
1.28981
1.2436
1.19216
1.1347
1.07412
1.02262
0.997317
1.71531
1.57326
1.61561
1.58363
1.59639
1.61574
1.63251
1.66085
1.66708
1.61404
1.69886
1.57259
1.61433
1.58345
1.59442
1.61432
1.6323
1.66516
1.68693
1.67596
1.6839
1.57092
1.61207
1.58251
1.5919
1.61214
1.6319
1.67029
1.7052
1.73503
1.67034
1.56844
1.609
1.58082
1.5888
1.60914
1.63016
1.67183
1.71879
1.77931
1.65804
1.56525
1.60525
1.57837
1.5851
1.60524
1.62703
1.6712
1.72744
1.81211
1.64682
1.56149
1.60094
1.57517
1.58077
1.60039
1.62252
1.66815
1.73122
1.83306
1.63657
1.55723
1.59617
1.57125
1.57579
1.59457
1.61657
1.66251
1.72993
1.84296
1.62717
1.55257
1.59104
1.56666
1.57017
1.58777
1.60911
1.6542
1.72336
1.84194
1.61854
1.54757
1.58564
1.56144
1.5639
1.58001
1.6001
1.64316
1.71135
1.83016
1.61059
1.54232
1.58004
1.55566
1.557
1.5713
1.58951
1.62936
1.69379
1.80751
1.8721
1.57416
1.60602
1.57817
1.59506
1.60865
1.61479
1.62388
1.569
1.52616
1.80172
1.56783
1.60605
1.57964
1.5954
1.60977
1.61577
1.62596
1.57476
1.52325
1.78055
1.57313
1.61127
1.58141
1.59622
1.61131
1.61842
1.63089
1.588
1.52427
1.75551
1.57364
1.614
1.58268
1.59684
1.61319
1.62274
1.63932
1.60778
1.53302
1.73376
1.57347
1.61555
1.58333
1.59715
1.61497
1.62694
1.64954
1.63361
1.54737
1.26875
1.15514
1.00289
0.804421
0.563082
0.290395
0.001895
-0.282658
-0.541975
-0.757683
1.26236
1.152
1.00664
0.814498
0.579203
0.310354
0.0220264
-0.26618
-0.531607
-0.753479
1.27633
1.16194
1.01347
0.822867
0.59194
0.325891
0.0367467
-0.255148
-0.525713
-0.752504
1.31649
1.18701
1.02514
0.830986
0.601987
0.337083
0.0462059
-0.249463
-0.524656
-0.756069
1.38038
1.228
1.04324
0.839011
0.607854
0.342796
0.0508236
-0.24783
-0.527781
-0.764761
)
;

boundaryField
{
    left
    {
        type            zeroGradient;
    }
    right
    {
        type            fixedValue;
        value           uniform 0;
    }
    down
    {
        type            zeroGradient;
    }
    up
    {
        type            zeroGradient;
    }
    cylinder
    {
        type            zeroGradient;
    }
    defaultFaces
    {
        type            empty;
    }
}


// ************************************************************************* //
