/*--------------------------------*- C++ -*----------------------------------*\
  =========                 |
  \\      /  F ield         | OpenFOAM: The Open Source CFD Toolbox
   \\    /   O peration     | Website:  https://openfoam.org
    \\  /    A nd           | Version:  13
     \\/     M anipulation  |
\*---------------------------------------------------------------------------*/
FoamFile
{
    format      ascii;
    class       volVectorField;
    location    "1";
    object      U;
}
// * * * * * * * * * * * * * * * * * * * * * * * * * * * * * * * * * * * * * //

dimensions      [0 1 -1 0 0 0 0];

internalField   nonuniform List<vector> 
1800
(
(-0.0660527 0.0656931 8.49939e-20)
(-0.00951435 0.051958 3.93658e-20)
(0.185433 -0.0573248 3.52828e-20)
(0.466432 -0.218454 4.13728e-20)
(0.781601 -0.39368 3.44606e-19)
(1.08541 -0.554503 2.52172e-19)
(1.34562 -0.684169 -1.97329e-19)
(1.54631 -0.776652 -7.65126e-19)
(1.69016 -0.828278 -4.72397e-19)
(1.75608 -0.858754 -4.07369e-19)
(-0.0426979 0.0384903 3.35294e-20)
(0.069084 -0.00669746 -7.97707e-20)
(0.324589 -0.128197 4.30506e-22)
(0.661535 -0.284654 -1.66895e-19)
(1.01657 -0.441563 7.14253e-20)
(1.33819 -0.575441 5.95697e-19)
(1.59612 -0.675034 -6.57863e-19)
(1.78181 -0.738352 4.48429e-19)
(1.90211 -0.76729 9.05215e-19)
(1.96448 -0.788681 -4.93205e-19)
(-0.0103217 0.0120106 7.36873e-21)
(0.172037 -0.0622266 2.70314e-20)
(0.497129 -0.191465 -3.02948e-20)
(0.88861 -0.336644 -3.5939e-20)
(1.27135 -0.468985 -5.33806e-19)
(1.59277 -0.572563 1.76301e-19)
(1.83039 -0.642692 4.43911e-19)
(1.98581 -0.682169 -3.62678e-20)
(2.07501 -0.696591 -5.67495e-21)
(2.10727 -0.700982 -1.84853e-20)
(0.0321656 -0.0125437 -9.93974e-21)
(0.299854 -0.109778 -3.59735e-20)
(0.699421 -0.238792 -5.45833e-20)
(1.13705 -0.364636 4.9294e-20)
(1.52985 -0.467448 1.5061e-19)
(1.83234 -0.539829 2.08223e-20)
(2.03597 -0.582681 -1.87475e-20)
(2.15494 -0.60149 5.13995e-19)
(2.21183 -0.601565 4.94328e-19)
(2.22295 -0.599936 -1.96773e-19)
(0.0854745 -0.0336091 8.83794e-20)
(0.450579 -0.144394 8.453e-20)
(0.92263 -0.263206 -6.1229e-20)
(1.39055 -0.363143 -6.94731e-20)
(1.77296 -0.435683 -5.74394e-19)
(2.0403 -0.48102 6.73265e-21)
(2.20147 -0.503749 7.7713e-19)
(2.28219 -0.510105 2.78301e-19)
(2.30978 -0.50567 6.10561e-21)
(2.30188 -0.500573 -2.34185e-19)
(0.149189 -0.0490399 -7.04951e-20)
(0.618427 -0.160617 2.73854e-20)
(1.15276 -0.258519 4.2346e-19)
(1.63062 -0.32863 -3.20864e-19)
(1.98456 -0.373236 -4.87178e-19)
(2.20755 -0.397104 1.03984e-18)
(2.32573 -0.40592 -8.72204e-19)
(2.37315 -0.404961 -1.11802e-18)
(2.37837 -0.397822 8.34125e-19)
(2.35816 -0.393048 -1.26395e-20)
(0.221683 -0.0565403 7.01592e-20)
(0.794398 -0.154256 -2.75858e-19)
(1.37417 -0.222712 -1.2335e-18)
(1.84231 -0.263242 6.87678e-19)
(2.15611 -0.285398 1.40456e-18)
(2.33281 -0.29511 -4.87932e-21)
(2.41233 -0.297095 -2.48421e-18)
(2.43291 -0.294585 1.74017e-20)
(2.42165 -0.289754 2.56135e-18)
(2.39269 -0.28771 6.84039e-19)
(0.29972 -0.0536992 2.14012e-20)
(0.967129 -0.122427 3.43714e-19)
(1.5726 -0.156144 1.10278e-18)
(2.01599 -0.169794 -5.95101e-20)
(2.28519 -0.175093 -1.0087e-18)
(2.41919 -0.17638 -3.67287e-19)
(2.4671 -0.175828 0)
(2.46793 -0.174314 9.6204e-19)
(2.4458 -0.172419 -1.22668e-20)
(2.41213 -0.173714 -8.45361e-19)
(0.379002 -0.0390253 1.8209e-20)
(1.12609 -0.0655844 6.40015e-19)
(1.7392 -0.0628259 1.19361e-18)
(2.14894 -0.0540287 -1.33754e-18)
(2.37435 -0.048373 -1.14008e-18)
(2.4715 -0.0466549 3.90014e-19)
(2.49455 -0.0477112 -1.75026e-18)
(2.48098 -0.0501041 -1.29401e-18)
(2.4513 -0.053274 1.53673e-18)
(2.41392 -0.0591564 1.32335e-18)
(0.454665 -0.012104 7.25102e-20)
(1.26256 0.0136743 4.84797e-19)
(1.86853 0.0524818 2.51674e-19)
(2.24056 0.0793041 -2.14315e-18)
(2.42572 0.0910462 1.71371e-20)
(2.49253 0.0920184 3.89087e-18)
(2.49701 0.0870993 -2.20257e-18)
(2.47385 0.0797488 -1.2382e-18)
(2.43993 0.0714165 4.35937e-19)
(2.4013 0.0611541 -9.85914e-19)
(-0.00685437 0.0331824 6.96073e-20)
(-0.0393499 0.03958 -1.8435e-20)
(-0.0690762 0.0117795 -6.73918e-22)
(-0.088976 -0.0343869 -9.33831e-21)
(-0.0942824 -0.0881842 -3.50843e-21)
(-0.0847435 -0.142482 -1.91996e-19)
(-0.0617901 -0.192702 -4.79265e-20)
(-0.0275426 -0.236015 2.49262e-19)
(0.0156959 -0.27031 5.23434e-21)
(0.0635277 -0.292239 -1.10489e-20)
(-0.0135745 0.0724534 -1.55719e-21)
(-0.0464939 0.101895 2.45068e-20)
(-0.0702955 0.0665256 -4.93229e-20)
(-0.081107 -0.00352009 -3.21015e-20)
(-0.0762126 -0.0885021 -9.27667e-20)
(-0.0566299 -0.175792 -2.05021e-19)
(-0.0245624 -0.257462 2.34902e-19)
(0.0173643 -0.328712 2.55915e-19)
(0.0669953 -0.385919 -3.34997e-19)
(0.119473 -0.42421 7.64402e-20)
(-0.0253984 0.106319 -6.56195e-20)
(-0.0610682 0.155929 7.16401e-20)
(-0.0769399 0.113537 3.89252e-20)
(-0.0743442 0.0216209 1.41094e-19)
(-0.0538817 -0.0920525 4.60441e-20)
(-0.0185597 -0.209788 -5.0918e-19)
(0.0280001 -0.320434 4.35244e-20)
(0.0826271 -0.417124 4.48902e-19)
(0.142558 -0.495289 -4.66785e-19)
(0.203026 -0.549057 -2.3968e-19)
(-0.0406722 0.132765 -1.1692e-19)
(-0.0800035 0.198592 -3.52661e-21)
(-0.0853363 0.14998 3.29638e-20)
(-0.06459 0.0390568 -1.46237e-19)
(-0.022884 -0.0997589 1.54888e-19)
(0.0340146 -0.244289 2.27599e-19)
(0.1008 -0.38026 1.3778e-19)
(0.172723 -0.498951 -1.60722e-19)
(0.24644 -0.595233 3.14442e-20)
(0.319126 -0.662885 -1.1824e-20)
(-0.0571879 0.149834 0)
(-0.0995164 0.226604 8.30301e-20)
(-0.0911453 0.172628 -8.57908e-20)
(-0.0473722 0.0463515 -6.29139e-20)
(0.0213547 -0.113192 -3.26453e-19)
(0.10581 -0.279902 1.49004e-19)
(0.198224 -0.436479 -4.94402e-20)
(0.292064 -0.572545 -1.40546e-19)
(0.382995 -0.68262 0)
(0.472284 -0.76154 -2.7813e-20)
(-0.0724299 0.156194 4.4284e-20)
(-0.115359 0.237123 1.38427e-20)
(-0.0894774 0.178296 -1.01792e-19)
(-0.017934 0.0401333 2.4417e-19)
(0.0828928 -0.135286 -1.94216e-19)
(0.200568 -0.318482 -1.69615e-19)
(0.323944 -0.489761 5.87834e-19)
(0.443759 -0.637276 6.76229e-20)
(0.554194 -0.755538 -9.41935e-19)
(0.663421 -0.841527 -1.74262e-20)
(-0.0839565 0.151596 2.32357e-21)
(-0.123352 0.228661 -6.58922e-20)
(-0.0762697 0.164143 1.8534e-19)
(0.0274963 0.0170905 3.47767e-20)
(0.165963 -0.168766 1.89695e-19)
(0.321666 -0.362079 -1.94806e-19)
(0.47949 -0.541414 -3.86096e-19)
(0.627335 -0.693602 -5.36089e-19)
(0.757228 -0.813349 5.71517e-19)
(0.885887 -0.90006 8.01636e-19)
(-0.0897545 0.137655 -9.1402e-20)
(-0.119652 0.20208 7.21981e-20)
(-0.0466927 0.129654 2.94598e-19)
(0.0938778 -0.0237997 -1.35178e-19)
(0.273988 -0.215092 1.51625e-19)
(0.4704 -0.411953 3.19624e-19)
(0.663341 -0.59182 4.18549e-19)
(0.837634 -0.741114 -5.35392e-19)
(0.983541 -0.854943 -3.93668e-19)
(1.1244 -0.933959 6.50099e-19)
(-0.0889965 0.117028 -1.46167e-19)
(-0.101215 0.160706 -9.55143e-20)
(0.00376708 0.0777187 -1.86637e-20)
(0.185775 -0.0805841 -7.32441e-21)
(0.410245 -0.272452 -1.78085e-19)
(0.647208 -0.465519 2.6942e-19)
(0.87173 -0.637403 1.08579e-19)
(1.06605 -0.775599 -1.21451e-18)
(1.22108 -0.875714 -4.18783e-19)
(1.35951 -0.938393 5.59456e-19)
(-0.0812527 0.0923509 3.11182e-20)
(-0.065431 0.109146 -1.27609e-19)
(0.0795932 0.013409 -1.74105e-19)
(0.308328 -0.147826 2.02052e-19)
(0.578492 -0.334633 3.93256e-20)
(0.852458 -0.515724 -2.96538e-19)
(1.10058 -0.670577 -4.35853e-19)
(1.30424 -0.789429 4.05306e-19)
(1.459 -0.867941 -5.27576e-19)
(1.57404 -0.909768 -4.39962e-19)
(0.325452 -0.292639 1.799e-19)
(0.673666 -0.210083 -1.36585e-19)
(0.819926 -0.161225 -1.29982e-20)
(0.912825 -0.125534 1.65431e-20)
(0.966569 -0.0974505 -8.00183e-21)
(0.996991 -0.0747968 -6.0034e-21)
(1.01498 -0.0574799 -7.12769e-21)
(1.02664 -0.0415962 -2.21277e-21)
(1.03323 -0.0344581 8.67385e-21)
(1.04004 -0.0193691 2.08681e-21)
(0.355395 -0.419449 1.93787e-19)
(0.692521 -0.278538 6.06386e-20)
(0.833035 -0.199572 3.37683e-22)
(0.922738 -0.146806 -1.4506e-20)
(0.974312 -0.1095 -2.94643e-20)
(1.00305 -0.0818441 0)
(1.01972 -0.0617495 -7.49098e-21)
(1.03026 -0.0441666 3.3842e-21)
(1.03619 -0.0362631 3.22585e-22)
(1.0421 -0.0203047 -3.21476e-21)
(0.403321 -0.536231 -2.86604e-19)
(0.71991 -0.346967 -5.01139e-20)
(0.851058 -0.237672 2.46746e-20)
(0.935316 -0.167786 -4.56629e-21)
(0.983517 -0.121317 -2.36342e-21)
(1.00994 -0.0886678 4.19503e-21)
(1.02494 -0.0658005 0)
(1.03415 -0.046553 0)
(1.03933 -0.0378893 -3.36121e-21)
(1.04424 -0.0211244 0)
(0.476369 -0.639391 -4.59106e-20)
(0.756774 -0.414067 1.37693e-19)
(0.874335 -0.275173 -2.19968e-21)
(0.950582 -0.188284 0)
(0.994157 -0.132763 3.33849e-20)
(1.01763 -0.0951775 -6.19567e-21)
(1.03062 -0.0695763 0)
(1.03831 -0.0487207 8.3832e-21)
(1.04263 -0.0393114 0)
(1.04645 -0.0218154 1.25689e-21)
(0.580807 -0.725065 -1.65345e-19)
(0.804399 -0.476867 1.18998e-19)
(0.903122 -0.311316 2.58014e-21)
(0.968522 -0.208134 0)
(1.00617 -0.143734 9.89771e-21)
(1.02609 -0.101296 1.30172e-20)
(1.03675 -0.0730259 3.89898e-21)
(1.04272 -0.050637 6.12316e-22)
(1.04607 -0.0405054 -2.6665e-21)
(1.04873 -0.0223662 1.78133e-21)
(0.71996 -0.790991 -1.14002e-18)
(0.865443 -0.531402 -2.21453e-19)
(0.938135 -0.344525 -2.01384e-21)
(0.989245 -0.226926 4.51448e-20)
(1.01951 -0.154094 -1.64851e-20)
(1.03526 -0.106954 7.75096e-21)
(1.04326 -0.0761074 1.34038e-20)
(1.04734 -0.0522734 -1.59669e-20)
(1.04963 -0.0414493 -1.14192e-22)
(1.05105 -0.0227677 -1.59581e-21)
(0.890323 -0.837907 1.40692e-19)
(0.943441 -0.575044 7.4981e-20)
(0.981334 -0.373216 -7.94415e-21)
(1.01344 -0.243924 -1.41953e-21)
(1.03429 -0.163549 -3.10534e-20)
(1.04507 -0.112033 3.57222e-21)
(1.0501 -0.0787651 -6.39444e-21)
(1.05214 -0.0535991 -2.60473e-21)
(1.05326 -0.0421218 2.11773e-21)
(1.05339 -0.0230131 -1.17949e-21)
(1.08016 -0.867124 2.64631e-19)
(1.03852 -0.607983 1.15282e-19)
(1.03469 -0.397228 0)
(1.04268 -0.258699 4.97339e-21)
(1.05116 -0.171828 2.62184e-20)
(1.05571 -0.116397 1.79345e-22)
(1.05728 -0.080933 -2.37598e-20)
(1.0571 -0.0545776 6.65988e-21)
(1.05694 -0.0424987 -9.68364e-23)
(1.05574 -0.0230969 -9.60991e-22)
(1.27386 -0.877519 -3.88629e-19)
(1.14434 -0.630468 -3.31782e-19)
(1.09664 -0.41678 7.29023e-20)
(1.07795 -0.271328 -4.17785e-21)
(1.07122 -0.179018 -1.68721e-21)
(1.06774 -0.120137 -2.31225e-20)
(1.06501 -0.0826758 7.31602e-21)
(1.06227 -0.0552387 3.13079e-22)
(1.06068 -0.0425872 -1.94936e-21)
(1.05809 -0.0230202 -6.16447e-22)
(1.45671 -0.865269 2.72876e-19)
(1.25183 -0.639274 -3.31666e-19)
(1.16069 -0.429953 -3.38958e-20)
(1.11667 -0.280897 -6.37426e-20)
(1.09419 -0.184722 -3.40896e-20)
(1.08152 -0.123154 -1.59157e-20)
(1.07362 -0.0840381 -6.42595e-21)
(1.06784 -0.0556434 0)
(1.06455 -0.0424388 -2.29587e-21)
(1.06046 -0.0227877 2.62715e-21)
(1.69718 -0.809651 2.13902e-19)
(1.39836 -0.621745 1.18414e-19)
(1.24372 -0.428822 -1.57347e-19)
(1.16618 -0.28212 1.17095e-20)
(1.12461 -0.184862 1.20714e-20)
(1.10041 -0.122504 -9.51947e-21)
(1.08553 -0.0830681 -3.88551e-21)
(1.07544 -0.0547044 5.43891e-21)
(1.06966 -0.0414042 -2.98136e-21)
(1.06352 -0.0221932 -7.05505e-22)
(1.70541 -0.66408 4.25394e-20)
(1.39918 -0.495509 3.89677e-20)
(1.25404 -0.349977 8.9402e-20)
(1.18105 -0.240193 -1.3974e-20)
(1.13948 -0.162848 5.98989e-20)
(1.11305 -0.110378 4.04169e-20)
(1.09536 -0.0759241 2.70282e-20)
(1.08257 -0.0504219 -2.83718e-21)
(1.07491 -0.0384739 9.55617e-21)
(1.06672 -0.0207086 2.87559e-21)
(1.74583 -0.549328 -1.73072e-19)
(1.47958 -0.439824 -1.96346e-20)
(1.32126 -0.324114 1.27207e-20)
(1.22683 -0.225113 1.9701e-36)
(1.16805 -0.151987 -1.5489e-21)
(1.13068 -0.102189 -1.08817e-34)
(1.1066 -0.0698345 -9.39719e-22)
(1.08988 -0.0461921 -1.09581e-34)
(1.08002 -0.0352062 4.14804e-22)
(1.0697 -0.0189771 -1.27302e-21)
(1.75541 -0.444262 -3.41859e-34)
(1.51006 -0.356823 -1.17395e-20)
(1.35111 -0.264175 -3.31745e-20)
(1.25235 -0.187378 0)
(1.18755 -0.129377 -2.55853e-20)
(1.14446 -0.0883805 -1.80361e-20)
(1.11608 -0.0609819 -1.17438e-20)
(1.09626 -0.0405207 -8.44303e-35)
(1.08456 -0.0310352 -3.8502e-21)
(1.07232 -0.0168073 1.12037e-21)
(1.76132 -0.351639 -1.04131e-19)
(1.53876 -0.290699 7.24172e-21)
(1.37966 -0.218185 0)
(1.27546 -0.156066 0)
(1.20466 -0.108209 0)
(1.15638 -0.0740694 0)
(1.12422 -0.0512156 -4.89758e-23)
(1.10173 -0.0340795 -9.17858e-35)
(1.08846 -0.0262284 3.01527e-22)
(1.0745 -0.0142885 1.2601e-34)
(1.76476 -0.270821 -2.83202e-20)
(1.55897 -0.224738 0)
(1.40031 -0.167649 0)
(1.29226 -0.120402 0)
(1.2174 -0.0841643 0)
(1.16545 -0.0579854 0)
(1.13048 -0.0403018 -6.61037e-23)
(1.10592 -0.0269029 6.49859e-21)
(1.09145 -0.0208624 2.5095e-22)
(1.07608 -0.011459 2.08555e-21)
(1.76536 -0.197936 0)
(1.56882 -0.161922 -9.95081e-21)
(1.41007 -0.118551 -1.90591e-20)
(1.29977 -0.0846075 0)
(1.22307 -0.059313 -1.22977e-20)
(1.16936 -0.0410541 -8.82549e-21)
(1.1329 -0.0286873 -6.17091e-21)
(1.10717 -0.0192327 -3.76177e-21)
(1.092 -0.0150841 4.45028e-21)
(1.07568 -0.00838557 -6.2047e-23)
(1.73478 -0.126979 1.01754e-20)
(1.54189 -0.0988003 1.03331e-20)
(1.38565 -0.0698087 -7.00853e-21)
(1.27822 -0.0491232 -2.35552e-38)
(1.20474 -0.0344544 2.10758e-21)
(1.15336 -0.0239371 -6.4456e-35)
(1.11826 -0.0168289 -3.36496e-22)
(1.09336 -0.0113623 2.58276e-22)
(1.07859 -0.00909284 1.54866e-22)
(1.06246 -0.0051574 -6.02801e-22)
(1.50812 -0.0605965 -4.91931e-20)
(1.3466 -0.0360896 1.51734e-20)
(1.22058 -0.0203734 1.70126e-20)
(1.13686 -0.0138754 0)
(1.08067 -0.0105247 8.23471e-21)
(1.04129 -0.00781554 5.62118e-21)
(1.01413 -0.00575235 3.34952e-21)
(0.994756 -0.00402569 2.36944e-21)
(0.982993 -0.00348382 -2.6705e-21)
(0.969892 -0.00211681 1.03448e-21)
(0.690498 -0.00128466 0)
(0.631916 0.00265025 0)
(0.600113 0.00354513 0)
(0.583709 0.00227478 0)
(0.571861 0.00114825 0)
(0.56199 0.000604095 0)
(0.554452 0.000324409 -5.09575e-22)
(0.548702 0.000150765 8.46716e-37)
(0.5448 -3.69374e-06 1.15351e-22)
(0.539773 -7.55837e-05 4.46675e-22)
(2.32118 0.0447489 9.30835e-19)
(2.3335 -0.0622535 6.23802e-20)
(2.33967 -0.162502 -1.23329e-19)
(2.32152 -0.263843 -3.77406e-19)
(2.30503 -0.354062 -1.13241e-19)
(2.25383 -0.452825 -1.89336e-19)
(2.21845 -0.532999 -5.73478e-19)
(2.11793 -0.642995 1.64749e-19)
(2.06378 -0.699753 0)
(1.88133 -0.838661 1.50807e-19)
(2.23109 0.0301821 2.65047e-19)
(2.23935 -0.0582051 -3.5688e-19)
(2.25017 -0.129257 -3.52078e-20)
(2.23175 -0.218184 -1.56966e-19)
(2.22462 -0.275901 6.60972e-20)
(2.18139 -0.370711 1.84585e-19)
(2.1583 -0.412186 -1.05977e-19)
(2.09167 -0.526567 7.22279e-20)
(2.04626 -0.544801 -1.07585e-19)
(1.96297 -0.687164 6.92322e-20)
(2.16519 0.0180205 -1.27816e-19)
(2.17048 -0.0577546 2.6172e-19)
(2.17802 -0.109391 2.04426e-19)
(2.16239 -0.186556 -2.82207e-19)
(2.15256 -0.224017 5.74244e-20)
(2.12034 -0.306286 2.55731e-19)
(2.09347 -0.328955 -2.27581e-20)
(2.05057 -0.424532 3.2602e-20)
(2.00255 -0.4333 4.94064e-20)
(1.9542 -0.545715 6.93947e-20)
(2.11155 0.00420291 -2.64845e-19)
(2.11715 -0.0575395 9.04992e-21)
(2.12095 -0.0958489 -6.32305e-20)
(2.10934 -0.158541 -5.34349e-20)
(2.09592 -0.185545 -6.8264e-20)
(2.07151 -0.251292 -1.17952e-19)
(2.04195 -0.267667 1.50297e-19)
(2.00985 -0.341251 2.29369e-20)
(1.96342 -0.349167 1.31953e-21)
(1.9273 -0.432521 1.70523e-20)
(2.0679 -0.00778354 5.48692e-20)
(2.07423 -0.0560631 9.06589e-20)
(2.07577 -0.0855027 -5.42314e-20)
(2.06733 -0.133834 2.45335e-19)
(2.05292 -0.15476 -8.68588e-21)
(2.03305 -0.20421 -1.96366e-19)
(2.00432 -0.2177 3.05291e-20)
(1.97686 -0.271593 -1.10767e-19)
(1.93504 -0.279216 1.19155e-19)
(1.90318 -0.338961 8.58442e-20)
(2.03126 -0.0194388 -1.42693e-19)
(2.03815 -0.0556677 -7.18609e-20)
(2.03912 -0.0781464 2.38129e-20)
(2.03298 -0.113457 1.04378e-19)
(2.01972 -0.129512 1.27233e-19)
(2.00281 -0.164763 -5.67791e-20)
(1.97699 -0.175468 4.726e-21)
(1.95211 -0.213176 3.38351e-20)
(1.91536 -0.219448 7.87292e-20)
(1.88522 -0.261047 -6.6258e-20)
(1.99276 -0.0302316 -5.42898e-20)
(1.99953 -0.0560239 -1.09948e-19)
(2.00104 -0.0722933 -9.71113e-20)
(1.99686 -0.0965953 -1.81172e-19)
(1.98649 -0.107831 8.851e-21)
(1.97286 -0.13157 1.7058e-20)
(1.95169 -0.138632 4.16955e-20)
(1.93058 -0.163771 3.86151e-21)
(1.89902 -0.167121 -5.06846e-20)
(1.87287 -0.195243 1.0914e-21)
(1.91588 -0.0392691 5.07561e-20)
(1.91968 -0.0552398 3.91263e-20)
(1.91997 -0.0648122 1.69849e-20)
(1.91715 -0.0794975 -3.22468e-20)
(1.909 -0.0855596 -2.76852e-20)
(1.90157 -0.0996472 1.2399e-20)
(1.88488 -0.102404 -1.55158e-20)
(1.87531 -0.11724 -1.85777e-20)
(1.84779 -0.116706 2.78357e-21)
(1.83897 -0.133907 5.12496e-20)
(1.66623 -0.0442939 -4.57205e-20)
(1.65816 -0.0511412 -1.19139e-21)
(1.648 -0.0547443 7.88542e-20)
(1.63948 -0.0601996 -3.20235e-21)
(1.62636 -0.0613574 -1.58701e-20)
(1.62227 -0.0661389 2.33103e-20)
(1.60534 -0.0648744 -4.36989e-21)
(1.60919 -0.0700484 -1.10283e-20)
(1.58423 -0.0661727 2.78664e-20)
(1.60083 -0.0733438 9.26322e-20)
(0.870903 -0.015785 4.1534e-20)
(0.845042 -0.0146113 3.09901e-20)
(0.821793 -0.0131296 2.81208e-20)
(0.800874 -0.0117825 3.94562e-20)
(0.782423 -0.0102382 -1.58116e-20)
(0.769017 -0.00909956 -1.09667e-20)
(0.754957 -0.00763161 -1.41771e-22)
(0.751471 -0.00685035 -9.31411e-23)
(0.736907 -0.00462125 -1.2234e-22)
(0.750971 -0.00673759 -1.37355e-22)
(1.47616 0.863161 -6.93831e-20)
(1.45905 0.906884 2.78849e-20)
(1.45978 0.957936 -5.29155e-19)
(1.46607 1.01646 2.42377e-19)
(1.471 1.07884 9.89984e-19)
(1.46622 1.13782 -1.52391e-19)
(1.43157 1.17333 -9.29916e-19)
(1.32117 1.13788 -4.9366e-20)
(1.05207 0.941539 -4.71916e-19)
(0.498964 0.46063 1.44795e-19)
(1.63191 0.836669 0)
(1.62099 0.879446 6.44292e-19)
(1.61919 0.927415 1.42738e-18)
(1.62538 0.983857 -8.61859e-19)
(1.63388 1.04525 -2.03218e-18)
(1.6332 1.10306 -1.52489e-19)
(1.59814 1.136 -1.93767e-19)
(1.47524 1.09704 6.95203e-19)
(1.17132 0.900682 9.58516e-19)
(0.55153 0.434907 4.27065e-19)
(1.77343 0.802037 6.84952e-20)
(1.77312 0.844184 0)
(1.7747 0.889284 -7.01674e-20)
(1.78287 0.941388 8.85173e-19)
(1.79429 0.998261 5.67065e-20)
(1.79604 1.05136 -2.06692e-18)
(1.75839 1.07901 1.28787e-18)
(1.62066 1.03555 7.99109e-19)
(1.28053 0.842112 -8.5137e-19)
(0.59718 0.400166 -2.93304e-19)
(1.89758 0.752368 -1.54751e-19)
(1.90813 0.793143 -1.17529e-19)
(1.91713 0.835466 2.569e-19)
(1.93023 0.883072 -3.19009e-19)
(1.94536 0.934538 -1.50369e-18)
(1.94868 0.981531 -1.14954e-18)
(1.90652 1.00242 1.23144e-18)
(1.75153 0.95434 7.68064e-19)
(1.3744 0.766742 0)
(0.632267 0.356458 0)
(2.00796 0.687155 -8.85838e-19)
(2.02782 0.72529 -1.57147e-18)
(2.04497 0.764253 -6.14263e-19)
(2.06402 0.807136 -3.63678e-20)
(2.08292 0.852676 0)
(2.08651 0.892647 1.50255e-19)
(2.03722 0.906451 1.76605e-19)
(1.86224 0.853251 2.21675e-19)
(1.44605 0.674429 -3.2517e-19)
(0.653254 0.30501 -8.19317e-20)
(2.10475 0.605314 1.06547e-18)
(2.13247 0.640189 -4.60772e-20)
(2.15733 0.675458 -1.25303e-18)
(2.18235 0.71344 0)
(2.20442 0.752821 0)
(2.20669 0.78523 0)
(2.14721 0.79063 1.49709e-18)
(1.94749 0.735798 -1.66751e-18)
(1.49149 0.570528 -1.0727e-18)
(0.659016 0.247908 -1.49464e-20)
(2.19156 0.5121 -1.42529e-18)
(2.22456 0.542435 -2.99056e-18)
(2.25508 0.573108 -5.18579e-21)
(2.28447 0.605557 5.99716e-19)
(2.30796 0.637504 -4.38241e-20)
(2.30551 0.661773 1.30869e-18)
(2.2308 0.660834 -7.02573e-19)
(2.00199 0.605617 -2.00244e-18)
(1.50853 0.456816 1.69296e-19)
(0.648465 0.188154 1.18801e-19)
(2.26431 0.407448 -1.15294e-18)
(2.3015 0.432955 1.85428e-20)
(2.33631 0.458567 4.42915e-19)
(2.36843 0.485058 -4.25061e-19)
(2.39072 0.510076 6.48844e-19)
(2.37953 0.526585 1.79251e-18)
(2.28501 0.519773 -2.21894e-19)
(2.02423 0.466323 -1.10988e-18)
(1.49518 0.338292 2.71369e-19)
(0.62163 0.129111 4.90017e-20)
(2.32576 0.296665 4.35461e-19)
(2.36441 0.316487 9.60901e-20)
(2.40072 0.336488 -4.6722e-19)
(2.43269 0.356633 -1.06197e-18)
(2.45018 0.374476 1.01279e-19)
(2.42585 0.38369 1.02683e-19)
(2.30642 0.372357 -1.49729e-18)
(2.01057 0.323598 5.90466e-19)
(1.44938 0.221045 1.81517e-19)
(0.579041 0.0741038 -1.46252e-19)
(2.37084 0.179293 8.55941e-19)
(2.4105 0.194367 -1.28385e-18)
(2.44679 0.208638 2.08492e-19)
(2.47604 0.222326 2.59324e-18)
(2.48492 0.233328 1.3149e-18)
(2.4423 0.236513 -2.82696e-18)
(2.29265 0.223309 -2.7385e-18)
(1.95924 0.183334 1.27604e-18)
(1.37151 0.110884 6.37823e-22)
(0.522563 0.0261819 1.55822e-20)
(0.521283 0.287688 -1.76625e-19)
(0.482594 0.298308 -1.68658e-19)
(0.438569 0.309664 8.09752e-20)
(0.389983 0.321794 -2.67698e-19)
(0.336706 0.334565 -2.79564e-20)
(0.277971 0.347083 2.42355e-19)
(0.212926 0.355595 5.13028e-20)
(0.142238 0.348545 -1.60579e-20)
(0.0729015 0.298768 1.04014e-20)
(0.0140384 0.15692 1.73861e-20)
(0.557553 0.391089 1.45331e-19)
(0.519592 0.408034 1.9099e-19)
(0.476934 0.426346 4.41237e-20)
(0.430049 0.446084 -6.61618e-20)
(0.378607 0.467047 -2.58517e-19)
(0.321669 0.487837 -3.43486e-21)
(0.257817 0.502731 1.10611e-19)
(0.186189 0.494598 2.4563e-20)
(0.110643 0.424059 -9.3793e-20)
(0.0338552 0.221802 -3.17596e-20)
(0.612283 0.488908 -1.38578e-19)
(0.575569 0.51169 -1.31522e-19)
(0.535013 0.536358 1.21084e-19)
(0.49069 0.563171 9.79061e-20)
(0.442029 0.591978 -7.45572e-20)
(0.387846 0.620941 -6.41307e-20)
(0.32588 0.642398 -1.02065e-19)
(0.252894 0.633668 -3.40084e-20)
(0.167739 0.54336 -5.39617e-20)
(0.0636485 0.283246 2.86538e-21)
(0.682016 0.582438 6.22306e-20)
(0.646788 0.61134 -3.4903e-20)
(0.609131 0.642257 -1.01825e-19)
(0.568343 0.675666 -2.99847e-21)
(0.523448 0.711434 -7.9187e-20)
(0.472986 0.747238 1.2626e-20)
(0.413664 0.773522 -2.14943e-19)
(0.339147 0.762583 6.77267e-21)
(0.241581 0.652513 -2.76265e-19)
(0.102075 0.338694 5.12357e-20)
(0.768644 0.663088 -1.01859e-20)
(0.735644 0.696881 3.28054e-21)
(0.701829 0.733035 -4.82712e-20)
(0.665789 0.772446 -2.25301e-19)
(0.626005 0.814952 1.01628e-19)
(0.580428 0.857661 -1.91741e-20)
(0.524287 0.889209 1.02069e-19)
(0.447319 0.877131 -9.02e-20)
(0.333201 0.749627 3.40603e-19)
(0.149054 0.38746 2.54116e-19)
(0.867183 0.739968 -4.92528e-20)
(0.836248 0.778632 -1.32197e-19)
(0.806259 0.818851 8.52536e-20)
(0.774941 0.862506 9.81599e-20)
(0.74051 0.909829 2.96034e-19)
(0.700485 0.957401 1.91164e-19)
(0.648306 0.991905 5.29095e-19)
(0.568993 0.976534 2.29983e-19)
(0.436421 0.831611 1.72662e-19)
(0.201917 0.427298 2.08373e-19)
(0.974772 0.795623 -1.05592e-19)
(0.948265 0.838564 4.71127e-19)
(0.924785 0.883033 3.0059e-19)
(0.900496 0.931175 -3.64192e-19)
(0.872828 0.983249 -1.83459e-19)
(0.838841 1.03549 5.81964e-19)
(0.790296 1.07301 -1.05684e-19)
(0.707106 1.0551 -3.67949e-19)
(0.55224 0.895443 -3.6063e-20)
(0.260192 0.456924 2.34913e-19)
(1.08997 0.849537 2.43658e-19)
(1.06432 0.893637 5.93154e-20)
(1.04515 0.938872 -6.89355e-19)
(1.02785 0.988983 1.13309e-19)
(1.0086 1.04383 4.71813e-19)
(0.982799 1.09845 -2.9459e-19)
(0.939406 1.13615 -7.48186e-20)
(0.852476 1.1133 -1.56191e-19)
(0.673622 0.939481 1.58047e-20)
(0.320518 0.475087 -3.08085e-19)
(1.21356 0.872273 2.22427e-20)
(1.19759 0.920239 -4.8981e-19)
(1.18609 0.966987 -3.93905e-21)
(1.17471 1.01852 4.01547e-19)
(1.16119 1.07579 -4.02523e-19)
(1.14105 1.13312 7.97432e-19)
(1.1006 1.17178 5.46739e-19)
(1.00723 1.14542 -8.34537e-19)
(0.800538 0.961347 -5.1534e-20)
(0.381931 0.481416 -3.23189e-19)
(1.31245 0.886793 -2.78075e-19)
(1.30658 0.935274 -2.69833e-19)
(1.31113 0.983662 2.78238e-19)
(1.31439 1.03636 6.53305e-19)
(1.31262 1.09373 2.50117e-19)
(1.30132 1.15021 -6.53742e-19)
(1.26479 1.1864 5.0552e-20)
(1.16419 1.15471 1.79471e-19)
(0.927619 0.962405 -2.45326e-19)
(0.441996 0.476569 -2.29975e-19)
(0.908736 0.0135795 2.77804e-21)
(1.07529 0.0378517 -1.81338e-20)
(0.992656 0.0615774 -1.50017e-20)
(1.02748 0.0755059 0)
(1.01883 0.0852843 2.16308e-20)
(0.993415 0.0992746 2.92876e-20)
(0.970756 0.11598 3.87725e-20)
(0.915551 0.144695 8.21918e-20)
(0.846653 0.183837 -1.18817e-19)
(0.68941 0.234223 -1.59847e-19)
(0.908602 0.0113079 3.86853e-20)
(1.07419 0.0351904 -5.98752e-20)
(0.991874 0.0606292 6.21648e-24)
(1.02815 0.0763571 -1.90247e-20)
(1.02116 0.0889426 1.08331e-20)
(0.997936 0.10497 -1.46016e-20)
(0.977288 0.128114 -9.20834e-20)
(0.927093 0.162596 0)
(0.859274 0.220524 2.46351e-19)
(0.719927 0.302316 -2.72237e-19)
(0.908234 0.00925545 -3.211e-20)
(1.0737 0.0326414 1.67194e-20)
(0.991201 0.0595774 4.20736e-20)
(1.02944 0.0769288 1.12249e-20)
(1.02383 0.0921541 -2.58761e-20)
(1.00355 0.110445 1.14098e-21)
(0.984469 0.139584 -6.39043e-20)
(0.942374 0.180468 -5.62938e-21)
(0.874552 0.256178 1.41728e-22)
(0.764471 0.367824 7.0861e-19)
(0.907651 0.00740014 -2.91316e-20)
(1.07375 0.0301943 2.69446e-21)
(0.990615 0.0584245 3.44509e-20)
(1.03133 0.0772418 2.11917e-20)
(1.02695 0.0948894 -1.24954e-20)
(1.01017 0.115758 -1.63203e-20)
(0.992578 0.150199 9.33464e-20)
(0.961029 0.19844 -1.67085e-21)
(0.892819 0.289847 -2.74326e-19)
(0.822299 0.429762 8.10774e-20)
(0.906874 0.00571194 2.07227e-20)
(1.07426 0.0278348 -3.25183e-20)
(0.990097 0.0571665 -2.71894e-20)
(1.03378 0.0772972 1.21605e-20)
(1.03058 0.0971378 0)
(1.01764 0.120935 0)
(1.00199 0.159804 7.85852e-20)
(0.982428 0.216778 3.89939e-22)
(0.914716 0.320601 -1.26707e-19)
(0.892484 0.487143 9.56296e-20)
(0.905937 0.00414136 5.39825e-21)
(1.07515 0.0255415 2.68464e-20)
(0.989633 0.0557963 -7.07346e-20)
(1.03676 0.0770785 -2.61851e-20)
(1.0348 0.0989099 -3.83899e-22)
(1.02581 0.125969 6.72091e-20)
(1.01315 0.16824 1.21122e-19)
(1.00583 0.23588 -6.82054e-22)
(0.940674 0.347005 2.07421e-19)
(0.974817 0.541621 -2.15353e-19)
(0.904866 0.00266906 -2.49783e-20)
(1.07635 0.0232921 1.43183e-20)
(0.98922 0.0543034 -1.8024e-20)
(1.04025 0.0765538 -5.35114e-20)
(1.03968 0.10024 1.36583e-21)
(1.03453 0.130786 -1.50264e-21)
(1.02654 0.175475 -7.05999e-21)
(1.03011 0.255354 -2.26103e-19)
(0.973481 0.368877 1.53791e-19)
(1.06006 0.586067 -5.16098e-19)
(0.903647 0.00127909 -2.33551e-21)
(1.07785 0.0210478 -4.22803e-20)
(0.988896 0.0526678 3.65341e-20)
(1.04425 0.0756809 3.03162e-20)
(1.04522 0.101177 7.58393e-22)
(1.04375 0.135276 -7.75704e-20)
(1.0423 0.181515 -6.56991e-20)
(1.05533 0.275019 4.01289e-19)
(1.00979 0.386832 1.3114e-20)
(1.16466 0.640177 8.18654e-19)
(0.902136 -1.06652e-05 1.48731e-20)
(1.07978 0.018776 1.93853e-20)
(0.988785 0.0508724 3.9582e-20)
(1.04887 0.0744374 -3.29024e-20)
(1.05147 0.101784 -8.24526e-20)
(1.05344 0.139234 1.40419e-21)
(1.06081 0.186211 -8.96465e-20)
(1.07927 0.292263 5.20949e-19)
(1.06596 0.390837 -8.19942e-21)
(1.23828 0.661559 -1.13301e-18)
(0.89992 -0.00107529 1.25311e-21)
(1.08263 0.0166382 3.04455e-20)
(0.988997 0.0490699 1.42633e-20)
(1.05432 0.0730316 -6.72257e-20)
(1.05809 0.102522 -7.80561e-20)
(1.06314 0.143269 -6.50095e-20)
(1.07851 0.194522 -1.60405e-19)
(1.10188 0.311639 -4.74164e-19)
(1.11425 0.417271 -2.57336e-19)
(1.36105 0.72859 -1.21631e-18)
(0.896081 -0.00310547 -3.63258e-21)
(1.0872 0.0131502 -6.8295e-21)
(0.990332 0.044994 -1.50094e-20)
(1.06093 0.0690504 3.01345e-20)
(1.06851 0.0995319 5.59126e-20)
(1.07786 0.142268 -4.37569e-20)
(1.10852 0.188317 1.44033e-19)
(1.13464 0.319104 -4.45426e-19)
(1.18847 0.366212 -1.93362e-19)
(1.38575 0.719757 6.58751e-19)
(0.894795 -0.00704697 4.38014e-21)
(1.09161 0.00780473 1.49484e-20)
(0.995869 0.0375103 -8.55732e-21)
(1.06862 0.0617381 6.04459e-20)
(1.08094 0.0923543 8.93984e-20)
(1.09431 0.133682 1.29091e-19)
(1.14167 0.176078 3.0541e-20)
(1.15653 0.302211 2.26826e-19)
(1.28448 0.315378 3.28192e-19)
(1.41943 0.632314 1.09937e-20)
(0.893912 -0.0115165 -4.03246e-21)
(1.09673 0.0015876 -3.98924e-21)
(1.00311 0.0295959 2.02863e-21)
(1.07721 0.0536586 6.45341e-21)
(1.09275 0.0839587 2.56538e-34)
(1.11228 0.122031 -8.0643e-21)
(1.16445 0.161957 -5.6996e-34)
(1.18934 0.276108 1.9609e-20)
(1.34118 0.260793 -5.61329e-20)
(1.44888 0.557628 -5.51297e-20)
(0.893029 -0.0171599 1.64279e-20)
(1.10306 -0.00607899 -4.46052e-35)
(1.0114 0.0210218 -2.44691e-21)
(1.08625 0.044905 -2.62247e-20)
(1.1037 0.0741314 -3.88206e-20)
(1.13052 0.108584 -4.36016e-20)
(1.17877 0.145192 -7.0198e-34)
(1.23098 0.244608 -9.09728e-20)
(1.36295 0.213274 -1.4654e-19)
(1.47521 0.479801 9.54227e-20)
(0.892102 -0.0241714 0)
(1.11111 -0.0151159 7.68366e-35)
(1.02092 0.0112018 0)
(1.09549 0.0355577 0)
(1.11394 0.0629259 0)
(1.14708 0.0940288 0)
(1.18975 0.12523 -4.354e-34)
(1.26907 0.210169 0)
(1.37065 0.173343 -2.04112e-20)
(1.50111 0.394986 5.66587e-20)
(0.891067 -0.0325875 5.51854e-21)
(1.12112 -0.0254573 7.49096e-21)
(1.03192 0.00367816 -3.29197e-21)
(1.10505 0.0270593 0)
(1.12352 0.0511362 0)
(1.16089 0.0785041 6.87836e-21)
(1.20019 0.103187 3.35678e-20)
(1.29648 0.173498 -1.46499e-20)
(1.3782 0.138056 -2.97744e-20)
(1.52081 0.310118 2.17129e-19)
(0.890344 -0.0459004 -7.12055e-20)
(1.13404 -0.0404017 -1.76034e-21)
(1.04405 -0.00875986 -3.63958e-21)
(1.11281 0.0170315 -1.28304e-20)
(1.13098 0.0383585 -1.64742e-20)
(1.171 0.0617432 -1.19747e-20)
(1.20933 0.0803529 -2.61851e-20)
(1.31357 0.134363 -3.61229e-20)
(1.38747 0.106068 -5.62842e-20)
(1.53201 0.22965 7.41826e-20)
(0.891506 -0.0523328 -9.60819e-21)
(1.1415 -0.0480635 -1.64686e-20)
(1.04701 -0.011455 -4.08831e-21)
(1.11182 0.0113968 -5.67263e-21)
(1.12794 0.0265958 2.96182e-35)
(1.16987 0.0442933 7.3969e-21)
(1.20838 0.0574258 -9.48726e-34)
(1.319 0.0930891 -1.47167e-20)
(1.38683 0.0758944 1.85189e-20)
(1.53828 0.15352 2.66248e-20)
(0.894902 -0.0878129 1.85557e-19)
(1.09296 -0.0744099 -3.28314e-21)
(0.971698 -0.0267904 -4.10525e-21)
(1.03148 0.00209878 8.68168e-21)
(1.0464 0.0129638 7.09273e-21)
(1.09231 0.0261502 1.65537e-20)
(1.13241 0.0338941 1.05661e-20)
(1.25392 0.0532334 -6.96633e-21)
(1.30424 0.0461856 -1.84164e-20)
(1.49133 0.0837987 1.38249e-19)
(0.79717 -0.0446508 1.09834e-20)
(0.767692 -0.0333384 -8.62092e-35)
(0.579247 -0.00832662 -5.15061e-21)
(0.616244 -0.00116767 0)
(0.613143 0.00223421 0)
(0.648521 0.00551421 7.57409e-21)
(0.687694 0.00585507 -8.07211e-36)
(0.776469 0.0108215 -1.46268e-20)
(0.824168 0.0077742 -2.72046e-20)
(0.967964 0.01533 5.73453e-20)
(1.57335 0.758736 -1.94846e-19)
(1.6679 0.74186 -2.9093e-19)
(1.77323 0.711811 0)
(1.87256 0.665123 1.34896e-19)
(1.9648 0.604222 6.06441e-19)
(2.04725 0.528411 -1.29382e-19)
(2.12455 0.444551 1.67108e-18)
(2.18932 0.350293 -7.99331e-20)
(2.24755 0.253639 -3.90581e-19)
(2.2885 0.149072 3.59657e-19)
(1.59468 0.625492 9.34222e-20)
(1.66628 0.609306 1.16531e-19)
(1.75089 0.578429 -1.04691e-20)
(1.83496 0.53223 2.03875e-19)
(1.91601 0.47654 -1.72442e-19)
(1.98737 0.410532 -4.13856e-19)
(2.05613 0.342635 -1.20065e-19)
(2.11136 0.265973 5.75637e-19)