/*--------------------------------*- C++ -*----------------------------------*\
  =========                 |
  \\      /  F ield         | OpenFOAM: The Open Source CFD Toolbox
   \\    /   O peration     | Website:  https://openfoam.org
    \\  /    A nd           | Version:  13
     \\/     M anipulation  |
\*---------------------------------------------------------------------------*/
FoamFile
{
    format      ascii;
    class       volVectorField;
    location    "63.5";
    object      U;
}
// * * * * * * * * * * * * * * * * * * * * * * * * * * * * * * * * * * * * * //

dimensions      [0 1 -1 0 0 0 0];

internalField   nonuniform List<vector> 
440
(
(-0.0979905 0.0716693 -6.09644e-20)
(-0.124386 0.0871431 2.77395e-21)
(0.0253558 0.0523078 1.05143e-19)
(0.429583 0.0588608 6.51136e-20)
(0.468554 0.155539 2.47447e-20)
(-0.0999138 0.0582083 4.209e-20)
(0.0488101 0.023839 -1.14398e-19)
(0.556469 -0.0302035 -1.11718e-19)
(1.11178 -0.0608764 6.63995e-20)
(1.64621 -0.0889754 1.36492e-20)
(-0.0243655 0.00874473 5.35709e-20)
(0.516145 -0.040103 7.14516e-19)
(1.30374 -0.0361669 -4.32398e-19)
(1.90453 -0.01851 -1.42462e-18)
(2.38971 -0.00181108 6.05026e-19)
(0.195425 -0.0441886 -1.72516e-19)
(1.20732 0.00395778 -5.31677e-19)
(1.97663 0.0664318 1.72541e-18)
(2.38425 0.101723 1.88895e-18)
(2.44791 0.110109 -5.37812e-19)
(0.56403 -0.00458036 -2.89286e-19)
(1.73711 0.178207 -6.1319e-19)
(2.26864 0.249164 1.86226e-18)
(2.39911 0.256333 2.00811e-18)
(2.48322 0.231886 6.80797e-19)
(-0.0174841 -0.157201 -1.35906e-19)
(-0.16265 -0.182395 5.19296e-19)
(-0.292244 -0.154063 -8.51808e-19)
(-0.353896 -0.0422185 1.57374e-19)
(-0.361779 0.110917 1.10963e-18)
(-0.0199528 0.0605145 -1.82383e-20)
(-0.128733 0.209398 -3.53778e-21)
(-0.239598 0.18871 -1.10521e-19)
(-0.331229 0.134807 -1.05045e-19)
(-0.40261 0.158823 1.95132e-19)
(-0.00813646 0.0301076 2.63985e-19)
(-0.0560337 0.253493 -2.05621e-19)
(-0.0950723 0.392398 1.64329e-19)
(-0.125511 0.430166 5.4288e-19)
(-0.116651 0.420159 -1.55782e-21)
(0.014621 -0.03489 -3.30556e-20)
(-0.0373471 0.0815237 9.94271e-20)
(-0.0696883 0.230719 -1.81339e-20)
(-0.0794958 0.322872 -7.69233e-19)
(-0.0402762 0.372606 1.76275e-19)
(-0.0339512 0.0108269 -3.22629e-20)
(-0.130533 0.0481445 -5.38488e-20)
(-0.181481 0.113321 -1.97182e-19)
(-0.119159 0.169462 2.41021e-19)
(-0.0410051 0.256952 3.96311e-19)
(-0.0758017 1.07824 2.91317e-18)
(1.09943 -0.249682 3.7263e-19)
(0.879212 -1.30237 -1.00069e-20)
(1.36123 -0.161691 -2.13286e-19)
(1.32711 0.124467 -3.11483e-20)
(-0.686788 0.715718 -1.36397e-18)
(1.4037 -0.421133 -3.33453e-19)
(1.01604 -1.30163 1.68672e-19)
(1.29866 -0.263142 1.01896e-19)
(1.32847 0.122444 6.60322e-20)
(-0.501818 0.54956 -7.66157e-19)
(1.98494 -0.558169 1.00991e-18)
(1.76915 -1.23766 -1.39012e-19)
(1.30279 -0.295254 6.78771e-19)
(1.31079 0.132398 -8.90995e-21)
(-0.280489 0.40048 6.48555e-19)
(2.22364 -0.790409 -7.46201e-20)
(1.99872 -1.17648 1.54884e-19)
(1.27833 -0.260972 -6.24811e-19)
(1.26066 0.128674 5.4148e-20)
(0.330954 0.0870615 -1.37497e-19)
(2.3793 -0.927127 2.86307e-19)
(1.96914 -1.06612 0)
(1.01489 -0.149261 2.64755e-19)
(1.15886 0.143738 -8.70245e-21)
(1.53251 -0.0393042 -3.15408e-19)
(2.64634 -0.85306 -1.05756e-19)
(1.9247 -0.912102 -2.72622e-20)
(1.03154 -0.11535 1.96037e-19)
(1.23345 0.0960817 -2.17754e-20)
(2.09961 -0.0988207 -7.4543e-21)
(2.7227 -0.920486 1.20697e-18)
(1.27086 -0.580227 -1.39375e-20)
(0.671758 0.100854 1.18509e-19)
(1.22892 0.0610151 0)
(2.21352 -0.212263 -2.02765e-19)
(2.33265 -0.500404 -2.26198e-21)
(1.19742 -0.245022 2.54541e-20)
(0.966059 -0.0466571 -1.15318e-19)
(1.34068 -0.104538 1.07752e-20)
(2.26836 -0.19557 9.76844e-20)
(1.83857 -0.439527 1.80944e-19)
(0.900169 -0.0865104 -1.7435e-20)
(1.1637 -0.00534654 -2.12702e-34)
(1.04121 -0.0816378 1.337e-20)
(1.37108 -0.122353 1.58394e-19)
(0.589662 0.0420509 3.75302e-20)
(0.438899 0.000532545 1.32232e-20)
(0.38274 -0.096891 2.22846e-20)
(0.0881187 -0.028964 -1.354e-20)
(2.36845 0.228771 -8.5767e-19)
(2.55167 0.0413481 -1.0404e-18)
(2.42008 0.0441873 7.91812e-19)
(2.62716 -0.102373 3.87891e-20)
(2.08484 -0.0248806 -2.91272e-20)
(2.13978 0.14829 4.63358e-20)
(2.35941 0.054243 -3.73429e-20)
(2.2604 -0.0397097 -1.16767e-19)
(2.39923 -0.0811762 -2.12793e-19)
(2.33177 -0.250996 -3.11417e-21)
(2.07862 0.0757997 6.26859e-20)
(2.15464 0.0329597 9.72607e-20)
(2.17914 -0.0479954 -1.16743e-19)
(2.20284 -0.0687806 3.85176e-20)
(2.23891 -0.162531 1.99093e-20)
(2.01151 0.0266664 1.03342e-19)
(2.06439 -0.0051413 1.21354e-19)
(2.0986 -0.0438726 -1.68217e-20)
(2.14033 -0.0699429 -3.68736e-20)
(2.15334 -0.116876 2.71654e-20)
(1.53765 -0.0204535 1.52807e-19)
(1.50321 -0.0213533 -1.08681e-20)
(1.54335 -0.0320142 2.1763e-20)
(1.48721 -0.0375505 -1.86505e-20)
(1.5163 -0.0478416 1.45074e-20)
(1.52756 0.831707 1.09859e-18)
(1.48416 0.92557 -3.57623e-19)
(1.48608 1.05193 -1.29239e-18)
(1.41076 1.08801 6.89961e-19)
(0.857183 0.764636 -1.6008e-19)
(1.82383 0.783242 -5.51936e-19)
(1.78397 0.853467 -2.89239e-18)
(1.78242 0.954988 -1.10973e-18)
(1.68738 0.964456 -3.82399e-19)
(1.02012 0.66453 -6.15161e-19)
(2.11306 0.663174 7.23767e-19)
(2.09177 0.728355 1.8612e-19)
(2.0626 0.811263 -2.14283e-18)
(1.91977 0.796276 -5.95979e-19)
(1.12496 0.520558 4.4156e-19)
(2.28984 0.543403 2.16855e-18)
(2.26544 0.590578 1.59314e-18)
(2.25259 0.640969 -1.83912e-18)
(2.0346 0.600718 -1.38719e-18)
(1.10601 0.344228 -2.51788e-19)
(2.41957 0.392656 1.05966e-18)
(2.43122 0.415665 -7.56934e-19)
(2.33206 0.437707 5.47902e-19)
(1.99435 0.385385 4.29081e-19)
(0.926924 0.151961 -3.61504e-19)
(0.579574 0.449428 -6.8028e-19)
(0.48794 0.484723 -5.35494e-19)
(0.3691 0.519589 6.48943e-20)
(0.229485 0.517453 -1.52882e-20)
(0.0559619 0.361969 7.15691e-20)
(0.678092 0.608117 6.41076e-20)
(0.610704 0.659881 -3.09236e-19)
(0.519131 0.722914 1.71542e-19)
(0.393548 0.781805 -7.98313e-20)
(0.170462 0.595155 1.14014e-19)
(0.761818 0.829112 1.40769e-19)
(0.69138 0.910937 4.26718e-19)
(0.63452 1.0013 9.18237e-20)
(0.547776 1.02937 -2.84501e-19)
(0.298549 0.749258 2.35079e-19)
(1.03284 0.880992 2.10653e-19)
(0.982238 0.958722 -6.60021e-19)
(0.932956 1.05579 -1.81544e-18)
(0.850497 1.12035 7.22734e-19)
(0.49841 0.824488 -1.59674e-19)
(1.09874 0.94745 -9.82084e-20)
(1.13291 1.06218 -1.7232e-19)
(1.15382 1.16775 -3.46221e-19)
(1.09721 1.18238 -3.84901e-19)
(0.670652 0.833335 -6.11862e-21)
(1.00944 0.037817 -7.87181e-20)
(1.00868 0.0228919 -2.6482e-20)
(1.0446 0.138263 -1.56375e-21)
(0.942444 0.120714 -1.37552e-19)
(0.90739 0.272661 2.84934e-19)
(0.997229 0.034455 4.81402e-20)
(1.03008 0.0170442 1.02752e-19)
(1.02092 0.152897 1.09659e-19)
(0.981379 0.140932 1.71337e-20)
(0.939767 0.361188 2.42549e-21)
(1.00702 0.0323907 6.26384e-20)
(1.01346 0.00924653 -4.18736e-21)
(1.06097 0.173135 -2.43576e-21)
(0.9317 0.140055 1.21749e-19)
(1.13183 0.500571 -4.50255e-19)
(1.00661 0.0304212 -2.79084e-22)
(1.03054 -0.000837415 -1.51166e-19)
(1.03723 0.200149 -5.48966e-20)
(1.02541 0.129134 -3.16113e-19)
(1.15587 0.568205 8.07118e-20)
(1.01458 0.0212789 -9.41169e-21)
(1.01738 0.00692739 4.46263e-20)
(1.07191 0.198509 2.4781e-20)
(1.01746 0.156358 4.27267e-19)
(1.36952 0.694566 -4.53072e-19)
(0.99382 0.0211763 -1.69123e-21)
(1.06565 -0.0100307 9.23661e-20)
(1.02636 0.227547 -4.45895e-20)
(1.28529 0.0681979 9.18559e-19)
(1.27036 0.762229 -3.29125e-19)
(0.952955 -0.0088482 -1.33152e-21)
(1.13704 0.00657531 -7.24963e-20)
(0.921761 0.145555 4.51544e-21)
(1.39704 0.0567848 -3.2498e-19)
(1.22546 0.550202 -6.90861e-20)
(0.987793 -0.0224042 6.87738e-21)
(1.07209 0.0287472 1.29904e-35)
(1.04464 0.0988549 -9.06825e-23)
(1.34568 0.0017283 1.13881e-19)
(1.37008 0.374929 1.60253e-19)
(1.04568 -0.0506493 3.85235e-21)
(0.939061 0.00887071 -2.5298e-20)
(1.29227 0.00313458 1.96148e-20)
(1.12051 -0.0172835 2.18034e-20)
(1.44989 0.275623 -2.43108e-19)
(0.946365 -0.0208739 -3.77472e-20)
(0.800815 -0.0235259 -1.70253e-21)
(0.998729 -0.0105265 2.26768e-20)
(0.668315 0.00247772 -2.20164e-20)
(1.10805 0.0867457 -5.45013e-20)
(1.79353 0.63036 2.76123e-19)
(1.88196 0.641697 7.27009e-19)
(2.14472 0.510872 -1.02321e-18)
(2.20279 0.466913 1.90542e-20)
(2.40144 0.283589 4.17529e-19)
(1.77298 0.402686 7.82251e-20)
(1.76784 0.433274 9.25867e-19)
(2.02393 0.343196 1.05922e-19)
(1.98219 0.321697 -8.34906e-19)
(2.23086 0.19701 -2.69758e-19)
(1.69514 0.271159 -2.17986e-19)
(1.7649 0.275766 -1.39149e-19)
(1.89129 0.220687 1.88872e-19)
(1.93567 0.193985 -2.57719e-19)
(2.05032 0.129926 2.38502e-19)
(1.65877 0.186112 3.64327e-19)
(1.75111 0.17187 -4.82476e-22)
(1.81941 0.128067 1.97246e-19)
(1.89297 0.102529 1.56984e-19)
(1.95518 0.0606956 -1.598e-19)
(1.31301 0.0482755 -4.85088e-20)
(1.40908 0.0299381 2.28537e-19)
(1.43585 0.0148291 9.06995e-20)
(1.49805 -0.000838056 -1.91643e-19)
(1.48946 -0.00786407 4.72597e-22)
(1.29031 -0.0216774 8.31141e-20)
(2.33583 -0.0151291 -5.61682e-19)
(2.55382 -0.00663108 1.51525e-18)
(2.5254 0.0367736 7.03171e-19)
(2.30159 0.049129 -4.8425e-19)
(0.874981 0.113058 1.93179e-19)
(2.12914 0.139853 -6.27639e-19)
(2.5395 0.15079 -9.00073e-19)
(2.54152 0.156803 1.22669e-18)
(2.32583 0.145541 -9.08448e-19)
(0.348641 0.122005 4.37903e-21)
(1.57111 0.236742 7.82779e-19)
(2.28138 0.286414 1.15331e-19)
(2.57873 0.295064 1.31078e-18)
(2.56291 0.265986 7.21671e-19)
(0.0348314 0.0258813 2.29737e-19)
(0.754031 0.200285 2.76283e-19)
(1.58579 0.315025 -9.44751e-19)
(2.09238 0.374904 9.87453e-20)
(2.53155 0.404567 9.2597e-19)
(-0.0588652 -0.0470952 1.66918e-19)
(0.188948 0.0750713 -2.10364e-19)
(0.780023 0.242157 -2.02452e-19)
(1.28631 0.355659 2.90175e-19)
(1.86082 0.507598 1.79892e-19)
(-0.0634215 -0.0751387 5.97944e-20)
(-0.0304023 -0.0398134 8.98021e-20)
(0.223042 0.0616124 1.12257e-19)
(0.505948 0.221225 -5.20414e-19)
(1.10056 0.414768 7.15033e-21)
(-0.0424002 -0.0673448 -4.29817e-20)
(-0.0512882 -0.0520247 -4.05908e-20)
(0.0346179 0.0298941 3.34024e-20)
(0.146894 0.194081 -7.39025e-20)
(0.440646 0.416392 -2.45017e-21)
(-0.0200567 -0.0478346 -3.27393e-20)
(-0.0012434 -0.0558848 2.64462e-19)
(0.0570325 0.0395751 -1.73531e-19)
(0.107406 0.192124 -5.53148e-19)
(0.198137 0.401528 2.16046e-19)
(-0.0149143 -0.146276 -1.86545e-21)
(0.0358159 -0.207396 -1.19706e-20)
(0.119592 -0.0624292 1.36482e-20)
(0.217625 0.172022 -3.19351e-19)
(0.318874 0.428201 -4.53279e-21)
(-0.00490266 -0.28467 -3.28519e-20)
(-0.00145263 -0.337738 1.14715e-19)
(0.0287221 -0.209185 -4.4208e-20)
(0.0934587 -0.0265207 -4.29719e-22)
(0.178162 0.174283 4.18475e-19)
(1.32835 0.739693 -8.84222e-20)
(-0.229565 0.103398 4.7597e-19)
(0.934907 -0.119834 -1.00325e-19)
(0.865001 0.038295 -9.5784e-20)
(0.662978 -0.0157528 1.9588e-21)
(1.05689 0.941126 1.79088e-19)
(-1.21538 0.134981 9.65013e-19)
(0.905945 -0.328156 7.15892e-19)
(1.12381 0.0650345 2.58641e-21)
(0.892929 0.0198865 -1.61028e-20)
(0.391767 1.08954 -1.07577e-18)
(-1.65863 -0.022545 3.96745e-18)
(0.692373 -0.84194 1.18395e-19)
(1.27021 0.048543 -2.50856e-19)
(1.10626 0.0619229 2.07446e-20)
(0.57982 1.25478 1.1033e-18)
(-0.459817 -0.122619 -2.2393e-18)
(0.578074 -1.18009 -4.15787e-19)
(1.24516 -0.0224917 4.9874e-21)
(1.22455 0.0938281 -1.47244e-21)
(0.870721 1.36762 -1.27457e-19)
(0.922287 -0.0353907 9.72675e-19)
(1.03124 -1.15302 -5.38043e-20)
(1.32654 -0.128031 -2.98541e-20)
(1.31378 0.0954999 -2.22879e-20)
(-0.213463 0.0887056 -8.30005e-20)
(-0.406646 -0.172278 0)
(0.0337135 -0.0960215 -7.17095e-20)
(0.0365214 -0.0522658 6.94429e-20)
(0.322296 -0.0235238 -1.73532e-20)
(1.64569 0.629185 0)
(0.581908 0.140581 0)
(0.919095 -0.0492692 3.25668e-19)
(0.553647 -0.0339018 9.52825e-20)
(0.530594 -0.0547647 1.58244e-20)
(0.734941 0.00522863 -1.29993e-19)
(0.775394 0.000841904 3.23216e-19)
(0.910316 0.0312909 -4.26821e-20)
(0.82114 0.0266322 3.94139e-19)
(1.1647 0.175432 2.30674e-19)
(1.66214 0.0406252 1.25358e-19)
(1.8154 0.0887036 4.95587e-19)
(1.90792 0.164322 -8.94518e-19)
(2.3019 0.262548 3.80031e-19)
(2.20078 0.419988 6.56216e-19)
(0.940885 -0.505497 3.65287e-21)
(0.931606 -0.600765 -1.98725e-19)
(0.925842 -0.703757 -1.54883e-19)
(0.858751 -0.777638 9.39316e-20)
(0.52949 -0.617869 1.44257e-19)
(0.835191 -0.408411 1.11137e-19)
(0.780154 -0.477166 1.71626e-19)
(0.707999 -0.553293 -9.02704e-20)
(0.597467 -0.621324 1.54684e-19)
(0.332587 -0.501915 4.85988e-20)
(0.672652 -0.269745 -1.18854e-19)
(0.586889 -0.313959 -6.14668e-20)
(0.486862 -0.368272 3.86396e-20)
(0.366498 -0.416029 -3.79593e-20)
(0.168181 -0.336776 -1.40618e-19)
(0.56442 -0.0376803 -4.3124e-19)
(0.47797 -0.0560193 -3.47452e-19)
(0.366394 -0.0823969 2.83101e-19)
(0.238051 -0.115401 1.48142e-19)
(0.0706014 -0.114687 1.30116e-20)
(0.534726 0.171495 -1.37835e-19)
(0.447989 0.169719 -1.54243e-19)
(0.329564 0.165068 -4.33782e-20)
(0.190186 0.165169 4.67019e-20)
(0.0309075 0.120035 1.34085e-20)
(2.09965 -0.0289601 9.30802e-19)
(2.3395 -0.0970779 3.29749e-19)
(2.43605 -0.185422 -8.42226e-19)
(2.31561 -0.211946 -1.7788e-18)
(1.42729 -0.2015 1.45558e-19)
(2.05023 -0.12515 1.50432e-18)
(2.1649 -0.238788 1.98607e-18)
(2.19645 -0.363442 1.67381e-19)
(2.12697 -0.424505 2.94551e-19)
(1.38433 -0.387231 -1.96636e-19)
(1.77167 -0.293237 -3.84049e-18)
(1.83344 -0.41393 4.22854e-19)
(1.8852 -0.544226 1.22204e-18)
(1.83999 -0.623574 -4.70509e-19)
(1.21164 -0.539742 7.50193e-19)
(1.54225 -0.420828 9.30804e-19)
(1.56942 -0.524756 -2.46798e-18)
(1.56879 -0.648542 -2.82449e-18)
(1.50963 -0.741135 8.74522e-19)
(0.984886 -0.620636 5.89388e-19)
(1.2541 -0.48493 2.07166e-19)
(1.21391 -0.583312 2.80556e-19)
(1.20806 -0.710144 -4.36294e-19)
(1.158 -0.802171 -5.2763e-19)
(0.742484 -0.647108 -4.98592e-21)
(1.06722 0.0499278 6.89737e-21)
(0.946669 0.0543798 1.465e-21)
(1.11736 0.0800588 1.06993e-20)
(0.834826 -0.00286743 -2.6443e-19)
(1.11585 -0.214661 -2.15299e-20)
(1.07642 0.050999 -2.2879e-21)
(0.940983 0.0503865 2.19207e-20)
(1.1189 0.0984514 3.97189e-21)
(0.909091 0.0426272 2.37676e-19)
(1.0153 -0.10068 6.17616e-21)
(1.07336 0.0458678 -5.38592e-20)
(0.943659 0.0445528 -1.65627e-22)
(1.10292 0.102872 -6.77842e-21)
(0.910474 0.0604847 1.3951e-19)
(0.973318 -0.0387082 -2.67579e-19)
(1.05329 0.0432038 6.35799e-20)
(0.967169 0.0375998 2.68192e-21)
(1.07126 0.111236 2.12684e-20)
(0.938534 0.0859525 -7.5834e-20)
(0.8794 0.0678191 5.81858e-20)
(1.02541 0.0390963 1.56157e-20)
(0.998314 0.0332774 -2.19457e-20)
(1.04044 0.120096 3.38315e-20)
(0.959096 0.108551 2.49921e-20)
(0.852748 0.172462 -3.49537e-20)
(0.889925 0.0337126 0)
(0.718936 0.0279118 8.71009e-21)
(0.604148 0.0213337 7.37945e-21)
(0.35922 -0.00746371 5.439e-20)
(0.697723 -0.054874 -1.75335e-19)
(1.0349 0.0721301 -6.26993e-20)
(0.955523 0.0714033 -4.03174e-22)
(1.02478 0.0803879 -6.85131e-20)
(0.820487 -0.00747664 -1.57761e-19)
(1.05648 -0.199096 -1.87207e-19)
(0.967259 -0.0686591 -4.06983e-20)
(1.05874 -0.0362728 5.85866e-19)
(1.15909 0.035586 3.44032e-19)
(1.03096 0.0560327 3.05533e-20)
(0.801323 0.0304255 0)
(1.32321 -0.320909 3.94558e-19)
(1.44306 -0.282798 1.65464e-18)
(1.62767 -0.161144 -1.77829e-18)
(1.72864 -0.0201239 -5.59699e-19)
(1.64853 0.0335658 4.30795e-19)
)
;

boundaryField
{
    left
    {
        type            fixedValue;
        value           uniform (1 0 0);
    }
    right
    {
        type            zeroGradient;
    }
    down
    {
        type            noSlip;
    }
    up
    {
        type            noSlip;
    }
    cylinder
    {
        type            noSlip;
    }
    defaultFaces
    {
        type            empty;
    }
}


// ************************************************************************* //
