/*--------------------------------*- C++ -*----------------------------------*\
  =========                 |
  \\      /  F ield         | OpenFOAM: The Open Source CFD Toolbox
   \\    /   O peration     | Website:  https://openfoam.org
    \\  /    A nd           | Version:  13
     \\/     M anipulation  |
\*---------------------------------------------------------------------------*/
FoamFile
{
    format      ascii;
    class       surfaceScalarField;
    location    "14.5";
    object      phi;
}
// * * * * * * * * * * * * * * * * * * * * * * * * * * * * * * * * * * * * * //

dimensions      [0 3 -1 0 0 0 0];

internalField   nonuniform List<scalar> 
823
(
-0.00209202
0.0176866
-0.0155946
0.0203348
0.00528876
-0.0277156
0.0905326
-0.0486992
-0.0214986
0.199734
-0.119146
0.00994365
-0.165221
0.0141121
0.350843
0.00766437
0.0100222
0.065674
-0.0527208
0.171986
-0.155011
0.294735
-0.241894
-0.315962
0.445475
0.0277893
-0.0177671
0.124369
-0.1493
0.24094
-0.271583
0.346169
-0.347123
-0.386894
0.417101
0.0507008
-0.0684678
0.150395
-0.248994
0.229149
-0.350337
0.271879
-0.389853
-0.399998
0.284983
0.0617629
-0.130231
0.129998
-0.31723
0.166031
-0.386369
0.180004
-0.403826
0.18992
-0.409913
0.0131425
0.109984
-0.123126
-0.000373598
0.18074
-0.167224
-0.0185334
0.181479
-0.16332
-0.0300862
0.158557
-0.147004
0.128898
-0.0286371
-0.130347
0.0538989
0.0560848
0.106759
0.127881
0.139176
0.149062
0.159265
0.138468
0.109773
0.178391
0.0366396
0.0194452
0.0966431
0.067877
0.151222
0.0944834
0.19424
0.0954496
0.0853994
0.218613
0.01144
0.0080052
0.0458975
0.0334195
0.0896374
0.0507435
0.135133
0.0499543
0.0499503
0.170582
-0.00758936
-0.00188542
0.0273596
0.0872575
0.15132
-0.00854584
0.230478
-0.25057
0.180696
-1.69515
1.5059
0.490194
-0.316359
0.00686108
0.433397
0.730465
-0.673668
-0.0132659
0.0327656
0.393389
0.0154803
0.424169
-1.72593
0.493212
-0.385402
0.474309
0.749368
-0.00701522
0.502328
-0.268235
0.634896
-1.85849
0.519226
-0.269732
0.49575
0.772844
-0.0288417
0.479153
-0.576806
0.665875
-2.04522
0.567818
-0.171675
0.530481
0.810181
-0.0821426
0.342538
-0.768024
0.405856
-2.10853
0.491365
-0.257184
0.543167
0.758379
-0.183131
1.29745
-0.774531
-1.29094
0.805235
-1.61632
0.705931
-0.157879
0.939467
0.524843
-0.319194
1.38123
-0.722136
-1.43363
0.673228
-0.908314
0.494268
0.0210803
0.969765
0.049346
-0.407381
1.26967
-0.618554
-1.37325
0.805938
-0.444586
0.738078
0.0889405
1.05316
-0.265738
-0.361976
1.03081
-0.341775
-1.30759
0.735755
-0.149535
0.840368
-0.0156722
0.805795
-0.231165
-0.14999
0.499226
-0.841002
0.349691
0.334019
0.102854
1.12793
0.157147
-1.09515
1.21449
0.198422
1.32339
0.308195
1.37516
0.393712
0.435055
1.01355
0.0933413
-0.949744
1.08823
0.123737
1.19317
0.203259
1.31635
0.270529
0.31778
0.976296
0.0408294
-0.923784
1.03207
0.067962
1.11863
0.1167
1.24138
0.147783
0.18591
0.947875
0.00558059
-0.912626
0.997751
0.0180863
1.07783
0.0366186
1.18012
0.0454993
0.0584401
0.682357
-0.676777
0.700444
0.737062
0.782561
0.139782
0.308911
-0.252198
-0.196496
0.092845
0.313548
-0.26661
0.0519818
0.324157
-0.283294
0.0178202
0.315448
-0.281286
0.203303
-0.185483
0.103151
0.345267
-0.139506
0.0664604
0.350238
0.0339242
0.356693
0.00832446
0.341047
0.211628
0.0714282
0.381632
-0.107794
0.0387148
0.382952
0.0107828
0.384625
-0.00519781
0.357028
0.20643
-0.00949158
0.396777
-0.00565335
-0.0262877
0.399748
-0.0348173
0.393155
-0.0271816
0.349392
0.179249
-0.0838875
0.0707514
-0.0879655
-0.0811802
-0.0490179
0.19734
0.111776
-0.251153
-0.057963
0.143125
0.116211
-0.0619964
0.0883674
0.120949
-0.0661909
0.0357573
0.120462
-0.067852
0.0850168
-0.0492595
0.196985
0.154817
-0.240026
0.15032
0.162876
0.097729
0.17354
0.0415771
0.176614
0.126594
0.13486
0.200444
-0.180488
0.0940102
0.203726
0.0555941
0.211956
0.0198907
0.212317
0.146485
0.159436
0.233051
-0.192043
0.119223
0.243939
0.0738067
0.257372
0.0291478
0.256976
0.175633
0.0827529
-0.1019
0.0600818
0.0341605
0.00985079
0.408034
0.0530319
-0.0650864
0.424172
0.0516355
-0.0677733
0.406861
0.213605
-0.196294
0.396968
0.218789
-0.208897
0.510157
-0.364342
0.40602
0.0429916
0.416772
0.0408839
0.396779
0.233598
0.385413
0.230154
0.655544
0.399533
0.0394384
0.409788
0.0306289
0.374095
0.269291
0.374793
0.229456
0.84985
0.395762
0.0396556
0.392213
0.0341786
0.366492
0.295011
0.357572
0.238377
1.01538
0.38629
0.0493455
0.380197
0.0402708
0.339179
0.33603
0.327848
0.249708
1.24133
0.619887
0.0334787
0.635899
0.0242588
0.696308
0.275621
0.801215
0.144801
1.02421
1.01833
0.627712
0.00978743
0.627534
0.0244369
0.750866
0.152289
0.807711
0.0879557
0.810689
1.02123
0.628437
-0.0146289
0.659547
-0.0066737
0.771081
0.0407549
0.77841
0.0806274
0.583871
1.00523
0.634731
-0.0453395
0.672364
-0.0443069
0.717459
-0.00433963
0.74607
0.0520162
0.287878
1.04206
0.558681
0.514374
0.510034
0.562051
0.849929
1.05771
-0.235869
1.04109
-0.122891
1.05053
-0.117236
1.04031
0.0045664
0.0159116
0.960703
-0.175342
0.937084
-0.0992721
0.916591
-0.0967435
0.929929
-0.00877189
-0.00390256
0.940081
-0.110195
0.924152
-0.0833432
0.898854
-0.0714461
0.91755
-0.0274674
-0.0101371
0.982167
-0.0502994
0.94406
-0.0452357
0.911979
-0.0393655
0.909288
-0.0247766
-0.013475
0.79963
0.754394
0.715028
0.690252
0.0463892
0.141734
-0.188123
0.070691
0.311354
-0.335656
0.0716434
0.365245
-0.366197
0.062108
0.368332
-0.358796
0.337274
0.0495912
-0.324758
0.0670611
0.0746729
0.136914
0.241501
0.170901
0.331258
0.175492
0.363741
0.355933
0.156834
0.0563842
0.0182887
0.16507
0.132815
0.256399
0.239929
0.319104
0.301036
0.350203
0.324834
0.0270686
-0.00877989
0.121608
0.0382757
0.239642
0.121895
0.355217
0.185461
0.256085
0.449335
0.0061247
-0.0149046
0.0542047
-0.00980438
0.149429
0.0266704
0.265635
0.0692548
0.116273
0.405448
0.00147455
-0.0163791
0.016104
-0.0244338
0.0585315
-0.0157571
0.124379
0.00340731
0.0347028
0.205949
0.00432919
-0.0207083
0.011832
-0.0319367
0.0239452
-0.0278703
0.0468398
-0.0194872
-0.00519682
0.0867394
0.0298141
-0.0505224
0.0500506
-0.0521732
0.0460293
-0.023849
0.0362342
-0.00969204
-0.00521125
0.0362486
-0.0596173
0.00909489
-0.140803
0.0290126
-0.224728
0.0600758
-0.302443
0.0680232
0.0612209
-0.368875
-0.114031
-0.252243
-0.355487
-0.434468
-0.503594
0.270095
0.954048
-1.01819
0.408394
-0.0709347
-0.0673639
0.291013
0.423357
-0.305976
0.164328
0.213079
-0.0863939
-0.221072
0.235747
0.28246
0.758327
0.44362
-0.232094
0.377449
0.489528
0.248946
0.341582
-0.183886
0.173575
0.621
0.417382
-0.475901
0.437364
0.469546
0.309955
0.468992
-0.135329
-0.156052
0.408177
0.348372
-0.980326
0.485065
0.332854
0.375261
0.578796
-0.0837492
-0.345986
0.179592
0.519307
0.424434
-0.0440694
0.62026
-0.576191
-0.0320603
-0.0120091
-0.051562
0.0195016
0.0186459
-0.0702079
-0.155934
0.632733
-1.03067
0.55336
0.266885
0.110283
0.0823845
-0.0132288
-0.0691556
0.133528
-0.0511431
0.237898
-0.104371
0.384638
-0.14674
-0.191552
0.188023
-0.151661
0.293714
0.514177
0.816771
0.136877
-0.131534
0.161315
-0.166658
0.103856
-0.136659
0.169679
0.0664573
-0.143465
0.180864
0.0267557
-0.142996
0.182698
-0.0998544
0.12661
0.176322
-0.0928761
-0.21498
0.133272
-0.0936077
0.0848246
-0.0950181
0.034985
-0.0931564
-0.0648694
0.187086
-0.0442178
-0.235745
0.136828
-0.04335
0.085037
-0.0432267
0.0344953
-0.0426146
-0.0303742
0.200078
0.0071445
-0.25144
0.148009
0.00871842
0.0944018
0.0103809
0.0397658
0.0120213
0.00939161
0.204787
-0.255605
0.151509
0.0956986
0.0398679
0.0375292
-0.305509
-0.0567779
0.0139578
-0.335225
-0.00714203
-0.345097
-0.0152949
-0.327503
-0.203418
0.116049
-0.275959
-0.145599
0.0753499
-0.294526
0.0360112
-0.305759
0.00680755
-0.298299
-0.196611
0.134201
-0.238218
-0.171942
0.0942875
-0.254612
0.0548181
-0.266289
0.0192015
-0.262683
-0.177409
0.151605
-0.204759
-0.185065
0.110764
-0.213771
0.0671084
-0.222634
0.0260748
-0.221649
-0.151334
0.149537
-0.19298
0.105445
0.0636755
0.024724
0.390641
0.101809
-0.0964701
0.388298
0.10837
-0.106027
0.353478
0.166592
-0.131772
0.293769
0.0770149
-0.0173061
-0.177542
0.304653
0.398565
0.099223
0.403613
0.103323
0.392389
0.177816
0.343566
0.125838
-0.0489563
0.40382
0.0913821
0.41376
0.0933828
0.407587
0.183989
0.370128
0.163296
0.0854273
0.408217
0.0791447
0.420275
0.081325
0.415893
0.188371
0.389738
0.189451
0.223726
0.410038
0.42359
0.415667
0.396221
0.414221
0.0958304
0.325552
0.0886689
0.234322
0.0912301
0.231809
0.00251282
-0.167997
0.399806
0.509411
0.492053
0.451511
0.436718
0.573374
0.321261
0.0785443
0.250389
0.0708724
0.166703
0.0836857
0.0967974
0.069906
0.0276418
0.458939
0.344746
0.25649
0.180797
)
;

boundaryField
{
    left
    {
        type            calculated;
        value           nonuniform List<scalar> 
17
(
-0.60402
-0.60402
-0.60402
-0.60402
-0.60402
-0.39598
-0.39598
-0.39598
-0.39598
-0.39598
-0.39598
-0.39598
-0.39598
-0.39598
-0.39598
-0.510051
-0.510051
)
;
    }
    right
    {
        type            calculated;
        value           nonuniform List<scalar> 
17
(
0.174579
0.190097
0.149653
0.211759
0.261398
0.323681
0.373451
0.413898
0.468059
0.517576
0.583782
0.644156
1.07553
1.05795
1.00776
0.593808
-0.047136
)
;
    }
    down
    {
        type            calculated;
        value           uniform 0;
    }
    up
    {
        type            calculated;
        value           uniform 0;
    }
    cylinder
    {
        type            calculated;
        value           uniform 0;
    }
    defaultFaces
    {
        type            empty;
    }
}


// ************************************************************************* //
