# Selection   : all
# Cells       : 440
# Volume      : 7.374263e+01
# Time        	max(p)
9.72          	2.002900e+00
9.765         	2.024939e+00
9.815         	2.042934e+00
