# Selection   : all
# Cells       : 440
# Volume      : 7.374263e+01
# Time        	max(p)
1.5           	1.978360e+00
1.55          	1.978318e+00
1.6           	1.981818e+00
