/*--------------------------------*- C++ -*----------------------------------*\
  =========                 |
  \\      /  F ield         | OpenFOAM: The Open Source CFD Toolbox
   \\    /   O peration     | Website:  https://openfoam.org
    \\  /    A nd           | Version:  13
     \\/     M anipulation  |
\*---------------------------------------------------------------------------*/
FoamFile
{
    format      ascii;
    class       surfaceScalarField;
    location    "78";
    object      phi;
}
// * * * * * * * * * * * * * * * * * * * * * * * * * * * * * * * * * * * * * //

dimensions      [0 3 -1 0 0 0 0];

internalField   nonuniform List<scalar> 
823
(
0.0159383
0.0211654
-0.0371036
0.0413491
0.0176171
-0.043028
0.0908478
-0.0298086
-0.0196901
0.172775
-0.0963596
0.0144326
-0.137564
0.0286198
0.281719
0.0162423
0.00492311
0.0739155
-0.040056
0.168502
-0.124396
0.276948
-0.204805
-0.278668
0.418052
0.0210422
-0.0161191
0.104933
-0.123947
0.216603
-0.236066
0.32461
-0.312811
-0.360093
0.406035
0.0423609
-0.05848
0.139103
-0.220688
0.22683
-0.323793
0.283116
-0.369097
-0.381614
0.304636
0.056602
-0.115082
0.129724
-0.29381
0.172032
-0.366102
0.187605
-0.384669
0.195559
-0.389568
0.021456
-0.0534644
0.0320084
0.0491374
-0.113827
0.0861453
0.0630088
-0.122453
0.108582
0.0613684
-0.103718
0.105359
-0.0812235
0.0516672
0.0909246
0.0169038
-0.0703683
0.0215947
-0.118518
0.00801674
-0.108875
-0.0116086
-0.0840929
-0.0661265
-0.0267055
-0.00248836
-0.0678799
-0.0298267
-0.0911792
-0.0660488
-0.072653
-0.0936015
-0.0565402
-0.0500298
-0.109698
-0.0554076
-0.0124723
-0.131415
-0.0151714
-0.192581
-0.011487
-0.235443
-0.0136791
-0.0211819
-0.26429
-0.0495759
-0.107775
-0.138952
-0.138199
-0.130761
0.358987
-0.470578
0.163258
0.467482
1.52528
-1.63377
0.389769
1.08744
-1.00972
0.464997
-1.37027
1.29504
-1.0223
1.0105
0.291912
-0.789196
0.453187
1.36401
0.4393
1.10132
0.526356
-1.45732
-1.02328
0.0583122
-0.957206
0.26381
1.15851
0.520073
0.845059
0.599795
-1.53704
-1.01047
-0.174142
-1.04735
0.168929
0.815436
0.617559
0.39643
0.649498
-1.56898
-0.994676
-0.127864
-1.05025
0.141245
0.546326
0.661111
-0.123435
0.66119
-1.56906
-0.979036
0.742945
-0.64597
-1.14723
0.767044
0.522227
1.29474
-0.651127
1.15036
-1.42469
-0.800057
1.08433
-0.391563
-1.33874
1.26395
0.342609
1.44319
-0.830368
1.12625
-1.10774
-0.535765
1.15224
-0.214853
-1.32895
1.42895
0.0659022
1.33455
-0.735968
0.949353
-0.722542
-0.299411
1.17953
-0.105143
-1.28924
1.34343
-0.0979971
1.02796
-0.420496
0.594176
-0.288761
-0.0880428
0.777577
-0.882719
0.67958
0.259084
-0.0296775
1.08626
0.144806
-1.03551
1.15406
0.23684
1.26155
0.298536
1.27074
0.408861
0.405237
1.01242
0.0806088
-0.948226
1.07426
0.175007
1.16333
0.209464
1.26702
0.305169
0.33352
0.946565
0.0400764
-0.906032
1.01047
0.111103
1.08972
0.130207
1.21099
0.183907
0.215552
0.889702
0.0102002
-0.859825
0.959201
0.0416038
1.04172
0.0476924
1.1554
0.0702175
0.0817158
0.64149
-0.63129
0.683094
0.730786
0.801004
0.13191
0.298485
-0.248581
-0.181814
0.087522
0.305288
-0.260901
0.0477896
0.315808
-0.276075
0.0153237
0.307696
-0.27523
0.199683
-0.18436
0.0977211
0.335758
-0.134994
0.0619381
0.341071
0.0299824
0.347763
0.00507435
0.332604
0.204758
0.0533691
0.365828
-0.0834394
0.0244748
0.369966
0.000364726
0.371873
-0.00971438
0.342683
0.195043
-0.0191602
0.382683
0.00230505
-0.0345261
0.385332
-0.0408044
0.378152
-0.0301297
0.332008
0.164914
-0.100742
0.0938571
-0.100079
-0.0880297
-0.0498315
0.203491
0.095771
-0.256261
-0.043001
0.149366
0.100025
-0.0459008
0.093288
0.104771
-0.0486923
0.0381558
0.105014
-0.0498821
0.0749689
-0.036813
0.196362
0.140508
-0.241099
0.149482
0.146905
0.0973619
0.156891
0.0415
0.160876
0.116469
0.151596
0.18601
-0.197097
0.108077
0.190425
0.0656024
0.199365
0.0249965
0.201482
0.141465
0.156544
0.220899
-0.191434
0.116271
0.230698
0.0713785
0.244257
0.0276596
0.245201
0.169125
0.107284
-0.134966
0.0770814
0.0452635
0.0152347
0.404963
0.0691026
-0.0780858
0.420798
0.0196844
-0.0355199
0.416243
0.148335
-0.143779
0.39092
0.20295
-0.177628
0.405468
-0.270809
0.402268
0.0628139
0.415415
0.00653777
0.405975
0.157775
0.375187
0.233738
0.539556
0.396351
0.0624422
0.411188
-0.00829885
0.38502
0.183943
0.361713
0.257046
0.704171
0.393512
0.0649101
0.399853
-0.0146398
0.369985
0.21381
0.335808
0.291223
0.848545
0.387123
0.0737664
0.38971
-0.0172267
0.33944
0.26408
0.310401
0.320262
1.02398
0.624809
0.0529774
0.663812
-0.0562291
0.681864
0.246028
0.73404
0.268086
0.773173
0.984847
0.641675
0.0153225
0.673819
-0.0883732
0.695614
0.224234
0.767572
0.196128
0.513694
1.02705
0.653249
-0.0339059
0.654058
-0.0891828
0.691458
0.186834
0.796259
0.0913269
0.303867
1.00609
0.638296
-0.0681812
0.606085
-0.0569726
0.713442
0.0794778
0.790945
0.0138233
0.14142
0.953393
0.535839
0.478867
0.558344
0.572168
0.713587
1.00513
-0.202097
1.00217
-0.132031
0.996135
-0.0774072
1.00709
-0.00865172
0.0654432
0.965003
-0.140048
0.949238
-0.116266
0.918861
-0.0470301
0.938357
-0.0281476
0.0555737
0.944076
-0.0780391
0.908522
-0.0807114
0.885373
-0.0238815
0.888604
-0.0313782
0.0381452
0.90451
-0.029157
0.858361
-0.0345618
0.846146
-0.0116664
0.833726
-0.0189586
0.0120461
0.68443
0.649869
0.638202
0.619244
0.0550372
0.168135
-0.223172
0.079284
0.363567
-0.387814
0.0781237
0.418469
-0.417309
0.0679619
0.419867
-0.409706
0.387848
0.0539323
-0.373818
0.0844028
0.0837322
0.161165
0.286805
0.19458
0.385054
0.198311
0.416136
0.404743
0.181417
0.0713988
0.0123334
0.199372
0.158832
0.296586
0.28784
0.353847
0.358875
0.408335
0.350255
0.0336346
-0.0213012
0.15193
0.0405367
0.2883
0.15147
0.41996
0.227215
0.32124
0.507054
0.00530901
-0.0266102
0.0651268
-0.019281
0.182665
0.0339321
0.327742
0.0821378
0.170955
0.478027
-0.00645874
-0.0201515
0.00989937
-0.0356392
0.0719225
-0.028091
0.170525
-0.016465
0.0491472
0.292333
-0.00677962
-0.0133719
-0.0066186
-0.0358002
0.0136675
-0.0483771
0.0481938
-0.0509913
-0.0237393
0.12108
-0.00124478
-0.0121271
0.00445415
-0.0414991
0.0191541
-0.0630771
0.0393705
-0.0712078
-0.0666627
0.0822939
0.00684835
-0.0189754
0.0261933
-0.060844
0.0513468
-0.0882306
0.0767552
-0.0966161
-0.094069
0.104161
0.013033
0.0383343
0.0586853
0.0674278
0.0642834
0.409304
1.00575
-1.12273
0.269327
0.735157
-0.59518
-0.0315838
0.672576
-0.371665
0.0998393
-0.509981
0.378558
-0.694458
0.493053
0.418454
0.708382
0.166251
0.987359
-0.0448674
0.883695
0.172522
-0.72737
-0.827331
0.435826
0.35485
0.0829411
1.34024
-0.0242293
0.990866
0.23368
-0.98528
-0.921777
0.398336
0.0606756
0.133596
1.60498
0.0989508
1.02551
0.294761
-1.18109
-0.986096
0.288217
0.259426
0.275213
0.389162
-0.116631
0.730078
-0.613447
-0.260695
0.144063
-0.225658
-0.035037
0.0205275
-0.246185
-0.205018
0.822661
-1.21531
0.371545
-0.0351577
0.0972144
0.0945184
-0.0128213
-0.0816971
0.154959
-0.0604405
0.261724
-0.106765
0.419052
-0.157327
-0.194395
0.217484
-0.176373
0.33846
0.58195
0.931676
0.145422
-0.150363
0.181902
-0.176961
0.111249
-0.156661
0.190834
0.0723786
-0.165056
0.203927
0.029882
-0.165505
0.208002
-0.116409
0.146291
0.189681
-0.110348
-0.229696
0.144227
-0.111207
0.0920478
-0.112877
0.038199
-0.111657
-0.0782104
0.185517
-0.0592627
-0.236602
0.133703
-0.0593934
0.0822215
-0.0613952
0.0332165
-0.0626514
-0.0449939
0.203414
-0.00809847
-0.254579
0.151435
-0.00741389
0.0971083
-0.00706865
0.0411089
-0.00665202
-0.00388501
0.206308
-0.257407
0.152993
0.0972322
0.0406981
0.0469009
-0.35034
-0.0703796
0.018032
-0.380837
-0.00675751
-0.392519
-0.0175587
-0.377013
-0.240731
0.135362
-0.316252
-0.169449
0.0900841
-0.335559
0.0443527
-0.346788
0.00938765
-0.342048
-0.231343
0.157538
-0.272171
-0.201618
0.110331
-0.288352
0.0648451
-0.301303
0.023443
-0.300646
-0.2079
0.176931
-0.233053
-0.216049
0.130689
-0.24211
0.0810863
-0.2517
0.0328843
-0.252444
-0.175016
0.172215
-0.223367
0.12094
0.0731664
0.0287247
0.38826
0.105707
-0.0979871
0.390255
0.0826234
-0.0846183
0.358297
0.138893
-0.106935
0.309958
0.035377
0.0129619
-0.262413
0.39541
0.39623
0.105456
0.404421
0.0744325
0.396977
0.146338
0.351581
0.0807722
-0.140528
0.401559
0.099877
0.413985
0.0620059
0.411561
0.148762
0.374261
0.118073
-0.00286923
0.406263
0.0895932
0.419015
0.0492547
0.422311
0.145465
0.391108
0.149276
0.133661
0.407487
0.421222
0.422908
0.394556
0.414792
0.0952594
0.336466
0.0783253
0.257059
0.079407
0.268551
-0.0114916
-0.212801
0.481352
0.507323
0.50103
0.473502
0.474973
0.657581
0.385101
0.0962511
0.299981
0.0851194
0.2011
0.0988816
0.116969
0.0841308
0.0352719
0.530466
0.399536
0.296799
0.211481
)
;

boundaryField
{
    left
    {
        type            calculated;
        value           nonuniform List<scalar> 
17
(
-0.60402
-0.60402
-0.60402
-0.60402
-0.60402
-0.39598
-0.39598
-0.39598
-0.39598
-0.39598
-0.39598
-0.39598
-0.39598
-0.39598
-0.39598
-0.510051
-0.510051
)
;
    }
    right
    {
        type            calculated;
        value           nonuniform List<scalar> 
17
(
0.225545
0.38525
0.301244
0.305396
0.328125
0.35908
0.413567
0.476799
0.527335
0.586979
0.633709
0.645549
0.97138
0.861955
0.712998
0.382809
-0.11772
)
;
    }
    down
    {
        type            calculated;
        value           uniform 0;
    }
    up
    {
        type            calculated;
        value           uniform 0;
    }
    cylinder
    {
        type            calculated;
        value           uniform 0;
    }
    defaultFaces
    {
        type            empty;
    }
}


// ************************************************************************* //
