/*--------------------------------*- C++ -*----------------------------------*\
  =========                 |
  \\      /  F ield         | OpenFOAM: The Open Source CFD Toolbox
   \\    /   O peration     | Website:  https://openfoam.org
    \\  /    A nd           | Version:  13
     \\/     M anipulation  |
\*---------------------------------------------------------------------------*/
FoamFile
{
    format      ascii;
    class       volVectorField;
    location    "78";
    object      U;
}
// * * * * * * * * * * * * * * * * * * * * * * * * * * * * * * * * * * * * * //

dimensions      [0 1 -1 0 0 0 0];

internalField   nonuniform List<vector> 
440
(
(-0.176529 0.179959 5.37646e-20)
(-0.192162 0.263965 -2.22697e-19)
(-0.00776774 0.181299 -1.72955e-19)
(0.406813 0.137815 2.75093e-19)
(0.522527 0.123551 -2.65835e-20)
(-0.0435653 0.0352425 -1.16597e-20)
(0.104693 0.050848 -4.26091e-20)
(0.554801 0.0123712 4.8415e-20)
(1.09252 -0.0184194 -1.01526e-19)
(1.58327 -0.0457658 -8.33069e-20)
(0.00320169 -0.00290988 2.99633e-20)
(0.488567 -0.0509563 7.08364e-19)
(1.22907 -0.0403029 -4.04117e-19)
(1.81242 -0.0174035 -1.17527e-18)
(2.34394 0.000745299 6.18526e-19)
(0.203583 -0.0475062 -1.63122e-19)
(1.15371 -0.00389287 -5.56767e-19)
(1.92298 0.0693491 1.69819e-18)
(2.36569 0.1177 1.96375e-18)
(2.45308 0.137872 -5.14138e-19)
(0.545401 -0.00889888 -2.91905e-19)
(1.70723 0.177957 -6.31609e-19)
(2.2628 0.261631 1.95045e-18)
(2.39745 0.277173 2.06193e-18)
(2.46131 0.25152 6.97819e-19)
(0.0399559 -0.262193 -2.05874e-20)
(0.167237 -0.632582 -2.18765e-19)
(0.219301 -0.742144 3.41502e-19)
(0.213533 -0.679615 -6.50989e-20)
(0.185075 -0.559954 -5.73483e-19)
(0.124665 -0.39376 5.18934e-20)
(0.257071 -0.736157 1.71479e-19)
(0.219985 -0.724094 1.76277e-20)
(0.128671 -0.565155 1.95898e-20)
(0.0533548 -0.424721 -4.00637e-20)
(0.206821 -0.441111 2.10933e-19)
(0.24189 -0.683084 2.91415e-19)
(0.113134 -0.625486 1.11085e-20)
(-0.00770828 -0.524338 -2.26775e-19)
(-0.0614294 -0.46977 8.28159e-22)
(0.113188 -0.287736 1.51027e-19)
(-0.0731213 -0.441642 -3.13739e-19)
(-0.280424 -0.423733 1.83344e-19)
(-0.382775 -0.426608 6.77477e-19)
(-0.405596 -0.42417 -8.63342e-20)
(-0.145755 0.0785021 2.50121e-19)
(-0.291673 -0.059613 3.27504e-19)
(-0.311044 -0.19569 5.22996e-19)
(-0.243638 -0.257137 -3.16923e-19)
(-0.142559 -0.291516 -2.72698e-19)
(-0.152286 -0.271743 -1.67068e-18)
(1.71156 1.07241 -5.78412e-19)
(0.488212 0.736874 -4.35236e-19)
(1.29729 -0.921988 3.97677e-19)
(1.20039 -0.713061 -6.07711e-20)
(-0.167514 -0.418699 7.84249e-19)
(1.48016 1.03382 2.41316e-19)
(0.49118 0.800135 -9.69756e-20)
(1.55238 -0.986194 -6.08377e-19)
(1.32841 -0.718991 1.22039e-19)
(-0.0327034 -0.629303 -4.74303e-19)
(0.278538 0.853625 -2.91085e-18)
(0.665176 0.690773 7.45082e-20)
(1.85708 -1.02169 -1.31245e-18)
(1.47958 -0.705098 4.65055e-20)
(-0.227142 -0.58613 4.09539e-19)
(-0.697812 0.680533 1.48715e-19)
(1.14085 0.43256 2.44901e-19)
(2.07423 -1.02604 1.19211e-18)
(1.59833 -0.675337 2.1367e-19)
(0.714626 -0.77736 -4.39797e-19)
(-1.1768 0.445558 1.71927e-18)
(1.67677 0.0599968 0)
(2.19594 -1.01953 -9.25908e-19)
(1.62889 -0.632811 3.64542e-20)
(2.21531 -0.405216 -5.40198e-19)
(0.311554 0.183465 -1.3449e-19)
(2.09382 -0.340006 1.68864e-20)
(2.2781 -0.966615 -3.74045e-19)
(1.6074 -0.577455 -4.14108e-20)
(2.1291 -0.389648 5.70866e-20)
(1.48332 0.396137 2.96641e-20)
(2.56268 -0.431455 1.00056e-20)
(2.31355 -0.782807 7.22908e-19)
(1.42678 -0.409239 0)
(1.91368 -0.137694 2.28427e-21)
(2.02515 0.0745289 7.01113e-22)
(2.55374 -0.563213 5.62985e-19)
(1.94896 -0.58488 -2.01025e-19)
(1.18056 -0.262132 -1.3687e-20)
(1.86416 -0.1157 -4.9542e-20)
(2.176 0.00308814 1.55781e-19)
(2.13358 -0.381765 3.72918e-20)
(1.32407 -0.342382 1.76109e-34)
(0.634064 -0.108075 4.79473e-20)
(1.27761 -0.00905802 5.48556e-20)
(1.40348 -0.12851 1.98607e-20)
(0.764863 -0.109059 -1.28927e-19)
(0.0918554 -9.31849e-05 4.69402e-20)
(-0.194414 -0.00393719 2.26187e-21)
(2.35235 0.246752 -8.58614e-19)
(2.54539 0.0799899 -1.16167e-18)
(2.38966 0.0579001 9.18196e-19)
(2.65899 -0.0808461 2.76991e-20)
(1.94382 -0.0282392 -1.04967e-19)
(2.11454 0.123077 6.23681e-20)
(2.3823 0.0980948 -4.10298e-20)
(2.20673 -0.0345726 -1.33404e-19)
(2.4327 -0.0850347 -2.61369e-19)
(2.24752 -0.231139 -2.60396e-21)
(2.09356 0.0472262 7.4369e-20)
(2.12746 0.0852105 9.64489e-20)
(2.20381 -0.0533331 -1.23001e-19)
(2.15922 -0.0330601 3.84589e-20)
(2.27984 -0.147212 3.13944e-20)
(2.0199 0.00766482 1.16559e-19)
(1.96622 0.0380618 1.45266e-19)
(2.13514 -0.0403744 -1.80659e-20)
(2.02945 -0.0286061 -4.00427e-20)
(2.20711 -0.0831523 1.94974e-20)
(1.44054 -0.0147711 1.79352e-19)
(1.43624 -0.00416707 -1.16446e-20)
(1.48428 -0.0242027 2.01628e-20)
(1.43311 -0.0124979 -2.65854e-20)
(1.51288 -0.0369556 4.00383e-21)
(1.5653 0.849908 1.04409e-18)
(1.52314 0.945688 -3.04849e-19)
(1.51761 1.07013 -1.25927e-18)
(1.44991 1.11487 7.07621e-19)
(0.897087 0.807947 -1.79291e-19)
(1.83603 0.792338 -5.50392e-19)
(1.81394 0.876927 -2.86942e-18)
(1.82175 0.986742 -1.1175e-18)
(1.73535 0.999371 -4.09395e-19)
(1.06225 0.699705 -6.51213e-19)
(2.1193 0.69732 7.35914e-19)
(2.10506 0.763071 1.94186e-19)
(2.08804 0.844677 -2.22622e-18)
(1.9558 0.829282 -6.14875e-19)
(1.14983 0.542895 4.59978e-19)
(2.27813 0.566073 2.26738e-18)
(2.28177 0.619191 1.66016e-18)
(2.27892 0.668536 -1.91404e-18)
(2.05558 0.623453 -1.42959e-18)
(1.11173 0.351447 -2.62198e-19)
(2.42622 0.423639 1.09215e-18)
(2.43109 0.444143 -7.98306e-19)
(2.33485 0.461302 5.60161e-19)
(1.99028 0.399133 4.50483e-19)
(0.909686 0.147729 -3.77435e-19)
(0.575149 0.403192 -7.03957e-19)
(0.487154 0.4351 -5.72037e-19)
(0.368568 0.466908 7.52956e-20)
(0.228806 0.474461 -2.50603e-20)
(0.0562 0.345659 7.32761e-20)
(0.671193 0.580591 8.2866e-20)
(0.607629 0.638997 -3.1851e-19)
(0.519547 0.707073 1.7863e-19)
(0.392505 0.761635 -8.22439e-20)
(0.168124 0.582788 1.17333e-19)
(0.776832 0.769648 2.09838e-19)
(0.703094 0.846818 4.21314e-19)
(0.643135 0.944367 5.46877e-20)
(0.557172 0.999468 -2.7988e-19)
(0.304824 0.75093 2.26813e-19)
(1.03526 0.865685 2.20613e-19)
(0.989358 0.953818 -6.27192e-19)
(0.93882 1.05411 -1.8124e-18)
(0.855284 1.1217 7.42516e-19)
(0.505871 0.841004 -1.82392e-19)
(1.15662 0.894618 -1.36653e-19)
(1.16809 1.01631 -2.1291e-19)
(1.18409 1.13775 -3.27792e-19)
(1.13015 1.17978 -3.83009e-19)
(0.697009 0.860473 -6.33059e-21)
(1.01634 0.0540645 -9.33881e-20)
(0.981256 0.0214235 -3.60741e-20)
(1.04615 0.105144 -1.3801e-21)
(0.94614 0.130934 -2.98892e-19)
(0.883129 0.2421 3.09754e-19)
(1.00519 0.0529519 5.86206e-20)
(0.992282 0.017856 1.2787e-19)
(1.03928 0.110709 1.14134e-19)
(0.974725 0.16429 3.61842e-20)
(0.922065 0.316813 1.17372e-20)
(1.00969 0.0525221 7.93651e-20)
(0.977448 0.0108244 -4.89537e-21)
(1.08979 0.125825 -6.23832e-21)
(0.920731 0.170954 1.6531e-19)
(1.11832 0.45156 -4.43241e-19)
(1.00197 0.0531126 -4.56255e-22)
(0.998692 -0.000620525 -1.80503e-19)
(1.09408 0.142384 -6.31302e-20)
(0.984825 0.188963 -4.01117e-19)
(1.16102 0.490453 9.48126e-20)
(0.99659 0.0459322 -1.41017e-20)
(1.00954 -0.000830318 5.40811e-20)
(1.13904 0.150908 3.13485e-20)
(0.956516 0.211133 4.71063e-19)
(1.41709 0.614964 -4.29332e-19)
(0.954449 0.0474808 -8.06781e-21)
(1.08807 -0.0290325 1.13553e-19)
(1.13667 0.180073 -8.78802e-20)
(1.15349 0.161533 8.27277e-19)
(1.32807 0.628691 -4.02239e-19)
(0.89192 0.0170541 -1.68039e-21)
(1.19728 -0.0441986 -1.02364e-19)
(1.07237 0.131455 4.56548e-21)
(1.20674 0.164607 -2.65405e-19)
(1.40756 0.383008 2.845e-20)
(0.96094 0.00396478 -5.90893e-21)
(1.16187 -0.0619127 1.32526e-35)
(1.04547 0.143512 -4.8664e-20)
(1.21376 0.0855863 8.18837e-20)
(1.48823 0.23729 1.57653e-19)
(1.10857 -0.0509809 4.25534e-21)
(0.962517 -0.052833 -2.57804e-20)
(1.08837 0.0911315 1.70649e-20)
(1.23873 0.0290997 3.43638e-20)
(1.43175 0.133824 -2.24695e-19)
(1.00839 -0.0257258 -4.30151e-20)
(0.720006 -0.0172364 -4.63163e-21)
(0.908977 0.0106304 1.97648e-20)
(0.906257 -0.0127463 -1.10609e-20)
(1.02513 0.0442113 -4.97389e-20)
(1.76452 0.660071 3.23019e-19)
(1.87615 0.640794 7.46107e-19)
(2.11089 0.548805 -1.04992e-18)
(2.1838 0.483289 1.67099e-20)
(2.37589 0.321732 4.63517e-19)
(1.73716 0.492588 5.00786e-20)
(1.79416 0.415225 9.87958e-19)
(1.98559 0.419679 9.68201e-20)
(1.98342 0.284596 -9.01597e-19)
(2.21391 0.261598 -2.91653e-19)
(1.67608 0.380688 -2.06137e-19)
(1.7708 0.270909 -1.44466e-19)
(1.855 0.315075 2.50521e-19)
(1.94574 0.159115 -2.98005e-19)
(2.02125 0.204447 2.69067e-19)
(1.60952 0.224389 2.95882e-19)
(1.68647 0.143569 -1.38256e-21)
(1.74353 0.175671 2.22146e-19)
(1.86178 0.0707387 1.9907e-19)
(1.87404 0.109498 -1.91497e-19)
(1.23648 0.0516266 -3.38357e-20)
(1.25834 0.0295856 2.06953e-19)
(1.33757 0.0287643 1.06703e-19)
(1.3678 0.00287171 -2.31904e-19)
(1.41244 0.0090094 2.15631e-22)
(1.32077 -0.0370819 6.00693e-20)
(2.42016 -0.0363078 -5.21712e-19)
(2.64825 -0.0266556 1.43236e-18)
(2.64358 0.0219209 6.58528e-19)
(2.42985 0.0416662 -4.35953e-19)
(0.833828 0.0954155 1.11509e-19)
(2.19814 0.101848 -5.38032e-19)
(2.66062 0.106834 -7.45738e-19)
(2.67153 0.122352 9.73191e-19)
(2.46867 0.116163 -6.67623e-19)
(0.232691 0.0835318 -3.98645e-20)
(1.54178 0.173849 5.83618e-19)
(2.35097 0.216379 9.80455e-20)
(2.73834 0.219475 8.40806e-19)
(2.782 0.211582 4.83863e-19)
(-0.0694432 -0.0360509 2.43306e-19)
(0.595255 0.10359 2.51759e-19)
(1.52952 0.205981 -6.3236e-19)
(2.10122 0.270087 4.94734e-20)
(2.72716 0.307976 3.37346e-19)
(-0.137961 -0.113622 1.8965e-19)
(0.00331515 -0.0479704 -2.03394e-19)
(0.615887 0.0862122 -3.52297e-20)
(1.13564 0.153053 8.30002e-20)
(1.78898 0.302095 8.5969e-21)
(-0.104876 -0.112971 4.83947e-20)
(-0.165983 -0.136598 1.36948e-19)
(0.0352598 -0.121379 8.16963e-20)
(0.226026 -0.0903462 -6.904e-20)
(0.901559 0.082238 1.58824e-20)
(-0.0613772 -0.0843403 -1.84176e-20)
(-0.152665 -0.182594 -9.74585e-20)
(-0.143794 -0.244222 -4.14371e-20)
(-0.0895216 -0.252404 -3.07659e-20)
(0.172951 -0.0865355 1.10998e-21)
(-0.0309399 -0.0629111 1.77129e-21)
(-0.0881829 -0.206895 2.61111e-19)
(-0.101366 -0.320478 -2.25423e-19)
(-0.0737146 -0.377378 -4.65008e-19)
(-0.0230398 -0.328187 9.57851e-20)
(-0.0191186 -0.0856074 -2.31732e-20)
(-0.0304872 -0.309319 -1.40655e-19)
(-0.00687137 -0.484262 3.52995e-19)
(0.0368912 -0.566691 1.95878e-19)
(0.0524601 -0.584226 -2.83183e-20)
(-0.00608224 -0.149768 1.82957e-20)
(0.0411605 -0.461139 -6.02694e-20)
(0.0908796 -0.634374 2.11505e-20)
(0.112983 -0.658976 -7.19422e-24)
(0.10704 -0.600085 -2.30956e-19)
(1.47735 0.739232 -3.79059e-20)
(1.72823 0.408169 3.50029e-19)
(0.0866157 0.339576 1.40414e-19)
(-0.255094 -0.252512 3.64343e-19)
(0.757903 -0.376618 -1.61328e-20)
(1.30068 0.592602 3.03854e-20)
(1.53969 0.552431 4.12028e-19)
(-0.334326 0.518834 1.03264e-18)
(0.0982762 -0.418788 1.85545e-20)
(0.768174 -0.505127 8.30081e-20)
(1.29066 0.416481 3.37103e-19)
(1.24943 0.815186 1.87115e-18)
(-0.503772 0.622235 -4.23979e-20)
(0.36605 -0.588334 -2.01282e-18)
(0.825121 -0.583611 -3.02578e-20)
(0.933561 0.0798522 -1.49097e-19)
(1.09553 0.97856 -3.16847e-18)
(-0.199285 0.686824 -3.88113e-19)
(0.626223 -0.767316 1.55417e-20)
(0.902917 -0.65943 -8.61635e-20)
(0.189459 0.0255931 5.39749e-20)
(1.14692 1.19916 -3.79859e-19)
(0.227926 0.707246 -1.51518e-20)
(1.01636 -0.845717 -1.16256e-19)
(1.04045 -0.6941 -2.12375e-19)
(-0.133364 0.156423 -6.02956e-20)
(-0.374926 -0.19056 0)
(-0.606799 -0.103924 -2.66017e-21)
(-0.331166 -0.105235 -9.85619e-21)
(0.439239 -0.0477254 4.89821e-21)
(1.80951 0.665233 0)
(1.32905 0.363481 0)
(0.151748 0.0708075 -1.31943e-19)
(-0.311569 -0.189152 -1.45059e-19)
(0.75244 -0.212237 4.78775e-20)
(0.780957 0.00486032 -1.29457e-19)
(0.819524 -0.00748678 1.51771e-19)
(1.08481 0.0315494 -4.61271e-20)
(0.927573 -0.00134195 3.90823e-19)
(1.46824 0.162414 2.65328e-19)
(1.75695 0.0370457 1.22427e-19)
(1.95927 0.078236 2.933e-19)
(2.11056 0.102987 -6.17386e-19)
(2.6029 0.241819 1.26941e-19)
(2.51187 0.253877 3.19737e-19)
(0.95933 -0.520863 3.46034e-20)
(0.948315 -0.617482 -1.96269e-19)
(0.946601 -0.722721 -1.86512e-19)
(0.880319 -0.796828 1.10619e-19)
(0.538228 -0.627825 1.3611e-19)
(0.861118 -0.432627 1.13343e-19)
(0.805834 -0.501574 1.67666e-19)
(0.729505 -0.575222 -9.58812e-20)
(0.611802 -0.638966 1.37351e-19)
(0.336271 -0.507283 3.31872e-20)
(0.672118 -0.297591 -1.34703e-19)
(0.579102 -0.340702 -5.2474e-20)
(0.478184 -0.396125 2.0019e-20)
(0.364466 -0.445034 -4.49773e-20)
(0.169503 -0.351046 -1.24304e-19)
(0.568059 -0.0641618 -4.48223e-19)
(0.484657 -0.0842296 -3.64426e-19)
(0.377394 -0.116319 2.93235e-19)
(0.250119 -0.155877 1.66445e-19)
(0.0770101 -0.139507 1.39851e-20)
(0.533769 0.139163 -1.59959e-19)
(0.448616 0.139559 -1.70558e-19)
(0.332414 0.137668 -5.60886e-20)
(0.195212 0.139143 4.39625e-20)
(0.0332683 0.104784 1.44741e-20)
(2.20509 -0.0333355 9.17562e-19)
(2.43922 -0.10694 3.39875e-19)
(2.53419 -0.20013 -8.63523e-19)
(2.40228 -0.225299 -1.82015e-18)
(1.4714 -0.216959 1.29206e-19)
(2.14362 -0.130284 1.53897e-18)
(2.25794 -0.245889 1.9986e-18)
(2.27525 -0.373985 1.63547e-19)
(2.20394 -0.437897 2.79539e-19)
(1.43355 -0.40519 -1.86014e-19)
(1.86378 -0.303017 -3.96302e-18)
(1.90969 -0.424735 4.72491e-19)
(1.95209 -0.556747 1.24139e-18)
(1.90356 -0.63913 -5.04045e-19)
(1.25062 -0.559572 7.91042e-19)
(1.60938 -0.431278 9.635e-19)
(1.6277 -0.534314 -2.50867e-18)
(1.62067 -0.659038 -2.93195e-18)
(1.55823 -0.756303 9.22719e-19)
(1.01269 -0.637662 5.88188e-19)
(1.31233 -0.498964 2.19823e-19)
(1.25811 -0.596665 2.6335e-19)
(1.24325 -0.724549 -4.46724e-19)
(1.18831 -0.818407 -5.41925e-19)
(0.756173 -0.65949 -5.23956e-21)
(1.06352 0.0561397 7.41204e-21)
(0.924452 0.0469563 -2.80481e-21)
(1.13733 0.0692957 -1.87701e-21)
(0.81256 -0.00635724 -2.2142e-19)
(1.1843 -0.242247 -1.29448e-20)
(1.07314 0.0600078 -2.49598e-21)
(0.920961 0.0425635 4.37362e-20)
(1.13041 0.0865604 -2.88479e-20)
(0.894383 0.0357878 1.40837e-19)
(1.0379 -0.126003 -1.31688e-20)
(1.07115 0.0579169 -6.0547e-20)
(0.924229 0.0360408 4.24217e-22)
(1.11532 0.0871522 -1.31073e-20)
(0.88687 0.0568373 3.7931e-20)
(0.999589 -0.0677886 -2.08335e-19)
(1.05262 0.0570532 7.32353e-20)
(0.9513 0.0302387 3.13526e-21)
(1.07449 0.0918579 2.74762e-20)
(0.931041 0.08349 1.77366e-20)
(0.879061 0.0457142 9.66216e-20)
(1.02894 0.0546442 1.82475e-20)
(0.977029 0.0273128 -2.89875e-20)
(1.04402 0.0957096 3.80055e-20)
(0.952666 0.112623 7.82107e-20)
(0.844235 0.136783 -5.96571e-20)
(0.887888 0.0336117 0)
(0.710319 0.0272602 9.12534e-21)
(0.62799 0.0218047 4.25928e-21)
(0.366763 -0.00940125 4.72452e-20)
(0.732964 -0.0620276 -1.43453e-19)
(1.03185 0.0749164 -6.39461e-20)
(0.935472 0.0657137 -1.02741e-20)
(1.04872 0.0717812 -4.48451e-20)
(0.826516 -0.00630966 -1.23246e-19)
(1.09487 -0.2195 -1.48535e-19)
(1.03124 -0.0665187 -3.34047e-20)
(1.11946 -0.0361936 5.4034e-19)
(1.22609 0.0378466 3.35847e-19)
(1.09044 0.0622043 2.38107e-20)
(0.84752 0.0335751 0)
(1.39806 -0.331233 3.36985e-19)
(1.52202 -0.291447 1.60117e-18)
(1.7165 -0.168883 -1.80583e-18)
(1.81377 -0.0212418 -5.74591e-19)
(1.74543 0.0350951 4.16643e-19)
)
;

boundaryField
{
    left
    {
        type            fixedValue;
        value           uniform (1 0 0);
    }
    right
    {
        type            zeroGradient;
    }
    down
    {
        type            noSlip;
    }
    up
    {
        type            noSlip;
    }
    cylinder
    {
        type            noSlip;
    }
    defaultFaces
    {
        type            empty;
    }
}


// ************************************************************************* //
