/*--------------------------------*- C++ -*----------------------------------*\
  =========                 |
  \\      /  F ield         | OpenFOAM: The Open Source CFD Toolbox
   \\    /   O peration     | Website:  https://openfoam.org
    \\  /    A nd           | Version:  13
     \\/     M anipulation  |
\*---------------------------------------------------------------------------*/
FoamFile
{
    format      ascii;
    class       volScalarField;
    location    "0.625";
    object      strainRateViscosityModel:nu;
}
// * * * * * * * * * * * * * * * * * * * * * * * * * * * * * * * * * * * * * //

dimensions      [0 2 -1 0 0 0 0];

internalField   nonuniform List<scalar> 
1800
(
9.40488
9.1976
9.01006
8.80094
8.57613
8.34412
8.11545
7.89817
7.62424
7.37932
9.58523
9.41878
9.2669
9.09732
8.91116
8.71141
8.50355
8.28866
8.02731
7.70212
9.70219
9.56269
9.42803
9.27096
9.08867
8.87898
8.6409
8.36902
8.03058
7.61063
9.77539
9.65614
9.53324
9.38287
9.20049
8.98171
8.7228
8.41596
8.02878
7.55458
9.82168
9.7183
9.60558
9.46166
9.2807
9.05695
8.78549
8.45888
8.04776
7.55616
9.85185
9.76081
9.6573
9.52059
9.34355
9.11896
8.84034
8.50016
8.07152
7.57021
9.87179
9.78991
9.69398
9.56396
9.39147
9.16769
8.8842
8.53252
8.08735
7.57568
9.88475
9.80924
9.71888
9.59395
9.42494
9.20146
8.91309
8.55005
8.08853
7.56355
9.8926
9.82107
9.73416
9.6122
9.44467
9.21963
8.92484
8.54923
8.07121
7.52871
9.89646
9.82686
9.74153
9.6207
9.4531
9.22573
8.92512
8.53953
8.05038
7.49285
1.78861
1.40535
1.21218
1.32228
1.73025
2.24942
2.49506
2.44925
2.36011
2.33635
3.71662
1.78338
1.49436
1.98143
2.69293
2.97111
2.81888
2.67431
2.68984
2.74267
4.69415
2.57225
2.43757
3.17506
3.59432
3.34752
3.08483
3.12098
3.26001
3.34026
5.26493
3.88332
3.81598
4.21227
4.18007
3.83116
3.7235
3.85654
3.95871
4.00777
6.05424
5.27586
5.11807
5.1208
4.91492
4.65422
4.57912
4.61316
4.61365
4.65353
6.95934
6.46008
6.22685
6.03804
5.7882
5.54562
5.38961
5.29397
5.2231
5.27578
7.7716
7.37776
7.11676
6.86017
6.58729
6.32052
6.08737
5.90127
5.77077
5.82442
8.4001
8.05531
7.79198
7.51569
7.22639
6.93112
6.64218
6.38644
6.19256
6.22966
8.84934
8.54537
8.29097
8.01025
7.70562
7.37939
7.03557
6.70115
6.4159
6.42199
9.16164
8.90153
8.66631
8.39663
8.09566
7.7657
7.40641
7.03566
6.70863
6.75258
2.19394
1.72974
1.33228
0.936478
0.617984
0.344837
0.172111
0.117171
0.129273
0.18803
2.52888
1.84965
1.40837
0.933176
0.593123
0.329019
0.158255
0.0794174
0.0695073
0.127486
2.94974
1.97923
1.48148
0.931829
0.559205
0.303227
0.14433
0.0591755
0.0347593
0.0494229
3.44222
2.14926
1.55311
0.935581
0.521528
0.27113
0.127181
0.0458621
0.0287466
0.0152259
3.98434
2.38718
1.63055
0.94494
0.48377
0.235391
0.107789
0.0371381
0.0273757
0.0129891
4.52963
2.69816
1.7267
0.961337
0.448953
0.197651
0.087141
0.031506
0.0263069
0.0132922
4.99789
3.05777
1.84848
0.984022
0.417602
0.159046
0.0658927
0.0273946
0.0236775
0.0211409
5.31359
3.44069
2.01551
1.02678
0.396598
0.123082
0.0446188
0.0234218
0.0174706
0.0779278
5.34404
3.72403
2.165
1.05869
0.373829
0.0894569
0.0282554
0.0160527
0.0465867
0.160719
5.20272
3.99021
2.40061
1.16244
0.39093
0.0729181
0.0130072
0.0228902
0.120638
0.224695
4.94516
3.94364
2.45742
1.17595
0.365242
0.0508709
0.0164594
0.101533
0.186548
0.304234
5.33127
3.34887
2.14025
0.99712
0.354795
0.128504
0.109992
0.176728
0.275522
0.39169
4.90514
3.04484
2.24552
1.20048
0.584837
0.285441
0.193968
0.24891
0.34634
0.46207
4.54606
3.63023
2.67903
1.63699
0.888456
0.488174
0.328166
0.338236
0.41931
0.522258
5.1136
4.74693
3.34172
2.16266
1.23614
0.725021
0.487202
0.44086
0.49184
0.571681
6.25433
5.66937
4.05709
2.67365
1.59819
0.979087
0.667001
0.558267
0.567847
0.613316
7.26271
6.37376
4.71396
3.15498
1.95768
1.23972
0.855572
0.684351
0.646006
0.648684
8.00013
6.9121
5.26011
3.58948
2.30066
1.50099
1.04917
0.816605
0.727122
0.680601
8.51877
7.33078
5.69756
3.97049
2.62095
1.7547
1.23788
0.945064
0.804142
0.707326
8.93101
7.69122
6.04992
4.28335
2.92559
2.02579
1.45096
1.09472
0.898731
0.741572
6.51282
6.43966
6.43044
6.44877
6.48739
6.53
6.58207
6.71064
6.89536
6.82645
0.260699
1.05719
2.00781
2.92291
3.70389
4.31656
4.73337
4.98296
5.22211
5.72831
3.85074
3.54381
3.28454
3.11126
3.10632
3.24997
3.47226
3.71349
4.16512
4.84514
6.6442
6.62726
6.53714
6.34468
6.04322
5.65771
5.24935
4.89571
4.73903
4.54896
7.69186
7.67655
7.63214
7.54131
7.39615
7.18986
6.92706
6.61944
6.28584
5.65613
8.44952
8.43313
8.39436
8.32773
8.22958
8.09673
7.92838
7.71684
7.42792
6.9078
8.93968
8.92394
8.89029
8.83679
8.76167
8.66291
8.53816
8.37893
8.15468
7.80863
9.27299
9.25981
9.23246
9.18985
9.13052
9.05245
8.95269
8.82482
8.65282
8.43092
9.50446
9.49417
9.47307
9.44024
9.39426
9.33319
9.25424
9.15287
9.02289
8.87535
9.6899
9.68285
9.66852
9.64604
9.61405
9.5707
9.51361
9.43975
9.34638
9.2441
7.24825
7.52631
7.83696
8.08765
8.34477
8.59958
8.84135
9.06156
9.25458
9.46026
7.58321
7.9481
8.24096
8.48109
8.70932
8.92479
9.12228
9.29899
9.45391
9.61806
7.49856
7.95739
8.32594
8.62048
8.87573
9.09772
9.28804
9.44951
9.58536
9.72226
7.44693
7.95762
8.37375
8.70198
8.97657
9.20595
9.39471
9.54806
9.67131
9.78824
7.45636
7.98067
8.4186
8.76488
9.05053
9.28355
9.46977
9.61591
9.72868
9.83022
7.48243
8.01168
8.46401
8.82146
9.11233
9.34474
9.52606
9.66446
9.76796
9.85764
7.50364
8.03786
8.50277
8.86862
9.16197
9.39189
9.56764
9.6989
9.79479
9.8757
7.51114
8.05246
8.52871
8.90209
9.19746
9.42521
9.5964
9.72213
9.81243
9.88729
7.49836
8.05045
8.53742
8.91898
9.21768
9.44503
9.61371
9.73606
9.8229
9.89404
7.48288
8.04359
8.53593
8.92344
9.22525
9.4533
9.62123
9.74217
9.82746
9.89693
2.55535
2.51225
2.53068
2.74183
2.92491
2.55056
1.69653
1.18114
1.52204
4.18982
2.96338
2.87511
2.71591
2.71451
3.10381
3.42931
2.81931
1.90505
2.1232
5.13268
3.45279
3.40904
3.25105
3.06505
3.26554
3.82385
3.80239
3.15927
3.2863
5.45398
3.94551
3.93454
3.90778
3.79834
3.89109
4.31835
4.58909
4.46653
4.65872
5.91157
4.49881
4.47131
4.5464
4.61761
4.78106
5.11429
5.43823
5.6183
5.89539
6.63022
5.10213
5.05959
5.19897
5.39699
5.65747
5.98062
6.30856
6.59505
6.90029
7.40601
5.65429
5.618
5.81862
6.0909
6.40791
6.74089
7.06844
7.37794
7.67849
8.08633
6.06715
6.05251
6.31538
6.64244
6.99499
7.33973
7.66718
7.97408
8.25885
8.611
6.26067
6.2795
6.63111
7.02592
7.42007
7.78433
8.11664
8.41662
8.68279
8.98796
6.60035
6.57011
6.95609
7.37948
7.78128
8.14305
8.46648
8.7504
8.99299
9.25187
0.109794
0.155525
0.117728
0.0583187
0.0142733
0.384459
0.921971
1.47755
1.94647
2.4296
0.0760135
0.14055
0.113357
0.0590849
0.0143598
0.374852
0.927059
1.54219
2.02739
2.69748
0.0541811
0.132304
0.111741
0.0623907
0.0230789
0.375573
0.935988
1.59464
2.10024
3.00972
0.0412648
0.130673
0.114059
0.0704371
0.0411167
0.385411
0.945593
1.63425
2.20554
3.39754
0.0349958
0.134436
0.118819
0.0808732
0.0644732
0.397899
0.952369
1.67179
2.38434
3.86805
0.0341866
0.142148
0.124276
0.090895
0.0889065
0.409066
0.959702
1.73024
2.65096
4.36507
0.0390442
0.153585
0.129038
0.0983455
0.109606
0.415939
0.972378
1.82614
2.98259
4.79557
0.0504567
0.169536
0.132751
0.103354
0.125966
0.426943
1.01432
1.98494
3.34906
5.08001
0.0705014
0.190167
0.135484
0.10218
0.129842
0.428099
1.05147
2.13579
3.62725
5.08304
0.101856
0.212461
0.138841
0.104577
0.145805
0.475229
1.18778
2.39379
3.87709
4.89158
0.159291
0.240332
0.145271
0.102057
0.134868
0.475611
1.25089
2.5064
3.88626
4.67399
0.262865
0.270687
0.134672
0.0777461
0.0722827
0.378871
1.12048
2.30379
3.4313
5.19329
0.427774
0.268888
0.103694
0.0159155
0.0147751
0.33213
1.14295
2.34763
3.25518
4.93848
0.68085
0.255077
0.022635
0.0807397
0.106589
0.530281
1.42617
2.61967
3.7124
4.69727
1.06448
0.048044
0.258476
0.242266
0.321119
0.886912
1.93108
3.20364
4.7054
5.17639
1.51473
0.119822
0.535367
0.422672
0.603431
1.30645
2.47317
3.91606
5.59821
6.22304
2.19468
0.684606
0.852695
0.695754
0.949299
1.73851
2.99234
4.59322
6.30241
7.21637
3.79208
1.70584
1.27289
1.04264
1.3249
2.15186
3.46203
5.16522
6.85418
7.96882
6.86011
3.57596
1.9624
1.42652
1.68565
2.52652
3.87469
5.63144
7.29523
8.50726
9.04905
6.3838
2.84323
2.00603
2.12138
2.90016
4.22574
6.0195
7.68655
8.93808
6.62495
6.6879
6.51111
6.38928
6.34885
6.32262
6.3056
6.31736
6.36196
6.47626
5.52919
5.0103
4.7664
4.52521
4.12696
3.54091
2.79891
1.93231
1.0448
0.284272
4.85026
4.23697
3.82731
3.61661
3.4297
3.31018
3.31508
3.45742
3.65524
3.87426
4.71162
4.88507
5.02768
5.33739
5.70179
6.05223
6.3339
6.52143
6.61658
6.64163
5.68729
6.28556
6.61215
6.91129
7.17237
7.3815
7.53184
7.62817
7.67673
7.69242
6.86579
7.38859
7.68445
7.90235
8.07662
8.21487
8.31783
8.38858
8.43056
8.4489
7.76514
8.12052
8.35199
8.51793
8.64798
8.751
8.82957
8.88583
8.92165
8.939
8.40456
8.63269
8.80888
8.94093
9.04401
9.12466
9.18596
9.23006
9.25855
9.2726
8.86615
9.01619
9.14761
9.25059
9.33082
9.39282
9.43944
9.47267
9.494
9.50442
9.24867
9.35044
9.44301
9.5163
9.57293
9.61588
9.64748
9.66956
9.68348
9.69012
9.50945
8.98531
8.23585
6.92822
5.59793
0.131167
3.36079
5.96035
7.21405
8.15183
9.4654
8.92153
8.16809
6.89055
5.54935
0.563763
2.62218
5.70598
6.91639
7.91392
9.36566
8.78279
8.02024
6.80957
5.36632
1.60347
1.41354
5.2066
6.30931
7.40326
9.18253
8.54509
7.77445
6.65507
5.18641
2.74001
0.723084
4.23835
5.42153
6.57144
8.86808
8.17354
7.40396
6.37689
5.02648
3.368
0.970945
2.63161
4.31692
5.39376
8.35048
7.62967
6.87335
5.91723
4.76507
3.44002
1.71922
1.30191
3.04929
3.98812
7.53599
6.89654
6.15547
5.22751
4.29963
3.26953
2.14307
1.17244
1.65628
2.55747
6.32533
6.0375
5.28126
4.23186
3.53348
2.91265
2.1184
1.43506
1.06848
1.23549
4.63165
5.23216
4.47426
2.99959
2.43719
2.27457
1.85599
1.38466
1.12249
0.659089
2.67271
4.53941
4.02155
1.9668
1.39687
1.48842
1.40986
1.21148
1.06378
0.844939
1.27666
3.78861
3.6665
1.33746
0.816278
0.897571
0.970835
0.955925
0.971393
1.01953
0.613416
2.96908
3.08183
0.956834
0.575318
0.639623
0.758865
0.819423
0.843472
0.876518
0.355325
2.18865
2.28481
0.68827
0.492236
0.594547
0.725504
0.809902
0.847776
0.872622
0.265298
1.54997
1.4886
0.521005
0.533498
0.672973
0.786467
0.857537
0.881033
0.891369
0.239676
1.01905
0.84506
0.512802
0.668071
0.801725
0.902955
0.966489
0.982271
0.979254
0.242951
0.494127
0.499074
0.63476
0.815722
0.953187
1.05099
1.10876
1.11938
1.11126
0.177991
0.20396
0.506906
0.754663
0.972976
1.11878
1.20866
1.25582
1.2726
1.27315
0.0455259
0.250815
0.648377
0.921267
1.13478
1.2525
1.32872
1.39829
1.45453
1.47618
0.0599976
0.491736
0.821398
1.09556
1.22992
1.33862
1.48833
1.64618
1.73321
1.74886
0.691442
0.863398
1.04068
1.18509
1.3244
1.59669
1.90821
2.07791
2.08043
2.0478
0.362954
0.0802546
0.223124
0.549123
0.792183
0.888555
0.881791
0.829372
0.780172
0.7597
0.46182
0.201613
0.318145
0.519883
0.721729
0.808192
0.803223
0.757137
0.714726
0.707883
0.525217
0.371047
0.438673
0.512067
0.651548
0.728559
0.726363
0.685639
0.649271
0.654938
0.63796
0.586304
0.593762
0.55372
0.585692
0.641833
0.644378
0.611692
0.583001
0.600933
0.804653
0.801641
0.739983
0.636016
0.54059
0.554974
0.560429
0.536905
0.516472
0.545844
1.00791
0.997435
0.873122
0.735198
0.529414
0.47355
0.474988
0.461306
0.449803
0.489648
1.22588
1.16905
0.988039
0.823145
0.551106
0.407548
0.39083
0.385727
0.383375
0.432251
1.45074
1.32351
1.08707
0.885735
0.58755
0.366504
0.312142
0.311237
0.317403
0.373622
1.68371
1.46757
1.17404
0.921243
0.617119
0.351325
0.245371
0.239454
0.252634
0.31345
1.9259
1.60336
1.25442
0.935351
0.627619
0.349589
0.19787
0.173397
0.18873
0.252398
2.00902
0.747157
0.716425
0.963062
1.19392
1.27934
1.25306
1.17721
1.10808
1.02272
1.3944
0.482756
0.57802
0.872519
1.10608
1.19353
1.1719
1.10158
1.03579
0.963894
0.751666
0.287859
0.480264
0.79571
1.03207
1.12185
1.10425
1.03829
0.976106
0.915823
0.253532
0.170174
0.404718
0.724117
0.957286
1.04597
1.03083
0.969087
0.910975
0.863729
0.435924
0.0327399
0.266681
0.611518
0.861691
0.962192
0.955306
0.899435
0.845725
0.811649
9.35463
9.29004
9.14098
8.87307
8.43752
7.77885
6.87131
5.75926
4.58193
3.53702
9.19246
9.09563
8.88108
8.51163
7.94147
7.13642
6.10959
4.95504
3.84472
2.78677
9.02386
8.90024
8.62659
8.16101
7.46171
6.5161
5.37137
4.16859
3.08124
1.94237
8.81629
8.66218
8.32147
7.74788
6.90612
5.81419
4.55493
3.29479
2.22587
1.09011
8.58747
8.37936
7.9258
7.17741
6.11247
4.79205
3.35064
2.08519
0.994066
0.302037
1.06053
1.02476
1.01667
1.02022
0.915532
0.7999
1.29359
3.68282
3.85928
1.32323
0.949538
0.934143
0.926629
0.871208
0.719262
0.588921
0.911233
3.14111
3.10902
0.647578
0.986271
0.982748
0.965911
0.893132
0.747766
0.584949
0.698875
2.37134
2.34512
0.377537
1.05347
1.06532
1.06114
1.00134
0.890048
0.741073
0.656202
1.55583
1.6324
0.277331
1.18562
1.20969
1.21532
1.16762
1.07662
0.951673
0.789063
0.908474
0.917504
0.246228
1.35005
1.36994
1.37817
1.35292
1.28291
1.14965
0.928456
0.668695
0.357494
0.216615
1.55343
1.54938
1.51711
1.47475
1.42357
1.31673
1.07674
0.752245
0.272112
0.0663369
1.82022
1.81366
1.73116
1.57878
1.43935
1.34251
1.2069
0.898693
0.492947
0.0467515
2.0999
2.14683
2.14459
1.95072
1.60848
1.32065
1.18517
1.05399
0.853223
0.674132
2.30847
2.35539
2.47945
2.53006
2.2271
1.62772
1.18044
1.06543
1.30162
2.03334
8.15164
7.21369
5.95999
3.36029
0.131423
5.59647
6.92773
8.23566
8.98533
9.50955
7.91324
6.91529
5.70498
2.62158
0.563633
5.5455
6.88909
8.16751
8.92158
9.46571
7.40181
6.30742
5.20481
1.41543
1.59975
5.36183
6.8073
8.01936
8.78291
9.36625
6.56879
5.41864
4.23618
0.72625
2.73172
5.18168
6.65223
7.77347
8.54542
9.18355
5.38938
4.31243
2.63257
0.971039
3.35668
5.02053
6.37344
7.40303
8.17429
8.86984
3.97974
3.04137
1.31011
1.7133
3.42676
4.75618
5.91242
6.87247
7.63115
8.35346
2.54092
1.6533
1.18725
2.13297
3.25087
4.28294
5.21876
6.15456
6.89942
7.54133
1.21732
1.08764
1.45191
2.10736
2.88044
3.503
4.21743
5.28195
6.04342
6.33605
0.671573
1.15309
1.4073
1.84247
2.23204
2.40026
2.98382
4.47918
5.24335
4.65567
0.885098
1.10264
1.24739
1.41293
1.46397
1.36912
1.94334
4.02615
4.56484
2.71685
2.08967
0.543231
1.06053
0.631182
0.664012
0.759292
0.632545
0.300048
0.0623868
0.356619
1.62977
0.236924
0.869058
0.481117
0.570072
0.681838
0.593211
0.356628
0.266228
0.488695
1.33375
0.0581664
0.640845
0.343063
0.481398
0.602209
0.561646
0.459477
0.473388
0.591287
1.09737
0.0147985
0.392662
0.234847
0.396471
0.518293
0.561693
0.625925
0.732273
0.758339
0.847084
0.0898512
0.189094
0.161169
0.318291
0.441458
0.608038
0.804434
0.973623
0.976971
0.634803
0.154679
0.0525396
0.104152
0.245887
0.3855
0.693327
0.973311
1.19184
1.22339
0.462447
0.209909
0.0500896
0.0531588
0.181658
0.363989
0.786076
1.11563
1.38277
1.47839
0.32988
0.211391
0.106712
0.0105783
0.122573
0.371943
0.858122
1.23076
1.55323
1.73208
0.231006
0.197331
0.11902
0.0362962
0.0632987
0.387174
0.899424
1.32444
1.70611
1.97235
0.159709
0.175477
0.123092
0.0536632
0.0267419
0.392757
0.91657
1.40494
1.83909
2.19578
9.33656
6.7703
2.6654
1.70061
1.20385
1.12261
0.966963
0.783032
0.797042
2.03327
8.21091
4.63638
2.2153
1.41874
1.07156
1.03757
0.892986
0.652171
0.528499
1.39868
6.12011
3.06387
1.78548
1.21155
0.966873
0.973041
0.833614
0.562149
0.329245
0.740994
4.13305
1.87579
1.49738
1.00518
0.861058
0.905615
0.776832
0.488319
0.229054
0.22483
2.83534
1.06122
1.24601
0.804774
0.758073
0.827642
0.68651
0.356532
0.0444353
0.397978
3.54772
4.58911
5.76317
6.87347
7.78039
8.43866
8.87385
9.14145
9.2903
9.35472
2.7809
3.841
4.95228
6.10781
7.13581
7.94148
8.51184
8.88131
9.0958
9.19252
1.92837
3.07184
4.16211
5.36662
6.51355
7.46057
8.16058
8.6265
8.90027
9.02388
1.05532
2.20294
3.28151
4.54669
5.80998
6.9039
7.74676
8.321
8.66203
8.81627
0.300408
0.96238
2.06378
3.33739
4.78508
6.10888
7.17543
7.92485
8.37899
8.58738
)
;

boundaryField
{
    left
    {
        type            calculated;
        value           nonuniform List<scalar> 
35
(
0.298939
0.568754
0.988621
1.62621
2.52417
3.69531
5.06604
6.47613
8.15853
9.4418
0.208947
0.128962
0.0774005
0.0471018
0.0318543
0.0270843
0.0320411
0.0508763
0.0909797
0.159653
4.9334
4.06152
3.23461
2.51279
1.91696
1.42683
1.03007
0.723158
0.493634
0.326635
9.61572
8.97908
7.92208
6.84782
5.85944
)
;
    }
    right
    {
        type            calculated;
        value           nonuniform List<scalar> 
35
(
1.0223
0.96384
0.9163
0.865253
0.814534
0.764256
0.714165
0.66278
0.610173
0.556293
0.501022
0.444128
0.385407
0.324361
0.261494
0.194344
0.129984
0.0477253
0.0136768
0.0119039
0.0122784
0.0211099
0.0855169
0.17865
0.247851
0.330731
0.419362
0.489289
0.5472
0.592579
0.628884
0.658518
0.685404
0.708697
0.739649
)
;
    }
    down
    {
        type            calculated;
        value           nonuniform List<scalar> 
40
(
9.4543
7.2663
2.8963
1.7897
1.24445
1.15104
0.992582
0.824631
0.898118
2.26048
3.83289
4.8824
6.03389
7.0928
7.94455
8.55498
8.95444
9.19923
9.33562
9.39486
9.39476
9.33534
9.19871
8.95357
8.55364
7.94262
7.08989
6.0287
4.87312
3.8188
2.23214
0.847252
0.76028
0.994954
1.22553
1.30881
1.27993
1.20159
1.13127
1.04162
)
;
    }
    up
    {
        type            calculated;
        value           nonuniform List<scalar> 
40
(
9.0341
7.80885
6.16777
4.39506
3.03368
2.12066
1.52373
1.14358
0.929054
0.753151
9.72927
9.72305
9.71045
9.69064
9.66234
9.62377
9.57263
9.50586
9.42076
9.32814
9.33504
9.42655
9.51039
9.57622
9.62664
9.66461
9.69238
9.71168
9.72379
9.72951
9.27073
7.09631
3.23923
2.15745
2.24045
3.01989
4.34798
6.14911
7.81369
9.04494
)
;
    }
    cylinder
    {
        type            calculated;
        value           nonuniform List<scalar> 
80
(
1.98465
4.55202
5.52656
5.77286
6.30242
7.08978
7.86161
8.47474
8.91246
9.21291
9.44581
9.61872
9.72982
9.7983
9.84096
9.86846
9.8865
9.89817
9.90522
9.90869
9.50041
9.65061
9.74903
9.81047
9.849
9.87389
9.89016
9.90054
9.90657
9.90913
5.31489
6.22984
6.20963
6.31391
6.83314
7.52598
8.17597
8.68594
9.05067
9.30252
0.994567
0.471719
0.264288
0.183273
0.159676
0.165641
0.0828841
0.0422023
0.748832
2.41985
9.59444
9.55587
9.46743
9.30184
9.00976
8.51133
7.68623
6.3666
4.38747
2.23915
9.59434
9.55555
9.46681
9.30076
9.00789
8.50815
7.68048
6.35445
4.35811
2.19124
0.95272
0.442199
0.244285
0.170808
0.150278
0.165463
0.161614
0.0843125
0.0433592
0.730178
)
;
    }
    defaultFaces
    {
        type            empty;
    }
}


// ************************************************************************* //
