/*--------------------------------*- C++ -*----------------------------------*\
  =========                 |
  \\      /  F ield         | OpenFOAM: The Open Source CFD Toolbox
   \\    /   O peration     | Website:  https://openfoam.org
    \\  /    A nd           | Version:  13
     \\/     M anipulation  |
\*---------------------------------------------------------------------------*/
FoamFile
{
    format      ascii;
    class       volScalarField;
    location    "0.52";
    object      p;
}
// * * * * * * * * * * * * * * * * * * * * * * * * * * * * * * * * * * * * * //

dimensions      [0 2 -2 0 0 0 0];

internalField   nonuniform List<scalar> 
440
(
7.83949
10.5959
12.9588
13.1416
10.1673
20.7324
24.1157
27.1112
27.8121
25.925
41.2699
44.3013
47.0044
47.7972
46.6365
67.4033
69.5011
71.4146
72.0712
71.3839
96.6801
97.497
98.294
98.6941
98.6606
-0.427075
-0.5263
-0.054512
0.50508
0.84637
-1.67823
-2.34032
-2.07592
-1.37815
-0.740252
-2.0307
-2.90995
-2.82729
-2.06864
-0.94949
-0.681225
-0.812812
-0.404919
0.56221
2.42887
3.09111
4.40283
5.83313
7.26636
9.5178
2.10446
2.28778
1.36945
0.702536
0.238167
1.07051
2.09121
1.24724
0.64466
0.224804
-0.0822988
1.67529
1.11029
0.597032
0.21483
-0.38729
1.07247
0.898758
0.554177
0.209126
1.52471
0.487651
0.611845
0.505649
0.20639
4.39823
0.261182
0.339297
0.45369
0.192506
6.73693
0.717243
0.43403
0.449879
0.131532
9.99938
2.45901
1.08665
0.572317
0.093391
13.8904
4.76761
2.14385
0.838587
0.0924844
16.6272
7.13231
3.46717
1.30665
0.180562
100.705
75.856
53.3406
33.1662
12.3639
102.4
78.9582
57.553
39.0729
23.4992
104.301
82.7181
62.4908
45.2501
32.9033
105.184
85.0377
66.5198
51.201
40.6749
105.103
84.7602
66.3456
51.2685
40.9146
219.886
216.408
216.116
218.233
220.966
202.705
200.24
200.5
203.241
206.532
180.557
178.785
179.149
181.571
184.45
154.758
153.415
153.621
155.214
157.111
126.877
126.164
126.103
126.563
127.156
235.578
236.007
236.644
237.068
236.812
236.163
236.799
237.355
237.332
236.378
234.967
235.943
236.36
236.088
235.1
230.082
231.683
232.249
232.387
232.296
221.592
223.457
224.471
225.682
227.037
235.761
234.73
234.908
234.113
234.268
235.732
234.715
234.854
234.073
234.806
235.722
234.677
234.798
234.194
235.336
235.723
234.616
234.796
234.453
234.927
235.726
234.536
234.87
234.653
232.235
235.735
234.4
234.923
234.431
228.737
235.916
234.263
234.811
233.948
226.372
236.808
234.03
234.174
232.258
223.35
240.84
234.014
232.99
229.789
219.672
249.809
234.737
231.772
227.242
216.918
217.775
196.249
175.043
151.749
126.463
207.383
191.387
172.341
150.438
126.668
198.895
186.214
168.631
148.104
126.35
191.758
180.798
165.115
146.277
125.936
191.539
180.779
165.37
146.677
126.166
96.409
95.5321
95.0844
94.3175
94.1609
57.3298
55.3828
53.6775
51.7558
50.9899
29.5011
27.1578
24.3951
22.0962
20.7719
15.0501
12.6337
10.1683
8.14813
7.17771
9.22128
7.33368
5.94675
4.97118
4.38411
5.99227
4.89007
4.30976
4.2206
4.30877
4.08654
3.62627
3.553
3.70785
3.86119
2.78315
2.7673
2.99919
3.30158
3.4597
1.68303
1.98651
2.43619
2.78628
2.93098
0.636762
1.03382
1.60533
2.00617
2.1798
3.63064
3.19899
2.08768
0.988041
0.290364
3.68435
3.02853
1.99562
0.932789
0.27879
3.4874
2.76902
1.86717
0.880742
0.268529
3.16912
2.52793
1.70591
0.826375
0.258857
2.75216
2.38074
1.5265
0.767235
0.250921
4.49856
3.18375
2.00075
1.02621
0.320057
3.76156
3.27685
2.09033
1.02238
0.303305
94.9165
54.16
27.5241
14.5014
9.48172
93.6953
51.1507
23.001
9.48629
5.27628
232.146
232.227
232.178
231.663
230.585
232.736
232.909
233.139
233.178
232.804
233.297
233.469
233.856
234.253
234.424
233.891
234.042
234.445
235.046
235.463
234.629
234.865
235.367
235.977
236.234
141.99
141.798
140.97
140.46
139.549
185.223
184.414
182.435
180.668
178.691
215.52
214.149
211.8
208.986
206.612
229.154
228.147
226.097
223.599
221.154
232.002
231.387
230.416
229.034
227.135
238.825
234.454
234.56
233.511
232.902
237.126
234.494
234.649
233.682
232.921
236.367
234.581
234.752
233.905
233.25
236.004
234.662
234.854
234.1
233.623
235.833
234.714
234.914
234.172
233.933
252.263
235.791
234.916
233.447
231.987
243.17
234.7
234.497
233.39
232.704
226.941
221.867
208.76
182.045
141.24
231.137
226.895
213.314
185.069
142.463
)
;

boundaryField
{
    left
    {
        type            zeroGradient;
    }
    right
    {
        type            fixedValue;
        value           uniform 0;
    }
    down
    {
        type            zeroGradient;
    }
    up
    {
        type            zeroGradient;
    }
    cylinder
    {
        type            zeroGradient;
    }
    defaultFaces
    {
        type            empty;
    }
}


// ************************************************************************* //
