/*--------------------------------*- C++ -*----------------------------------*\
  =========                 |
  \\      /  F ield         | OpenFOAM: The Open Source CFD Toolbox
   \\    /   O peration     | Website:  https://openfoam.org
    \\  /    A nd           | Version:  13
     \\/     M anipulation  |
\*---------------------------------------------------------------------------*/
FoamFile
{
    format      ascii;
    class       surfaceScalarField;
    location    "0.52";
    object      phi;
}
// * * * * * * * * * * * * * * * * * * * * * * * * * * * * * * * * * * * * * //

dimensions      [0 3 -1 0 0 0 0];

internalField   nonuniform List<scalar> 
823
(
0.0113774
-0.050555
0.0391776
0.0387582
-0.133436
0.106056
0.0788326
-0.205878
0.165803
0.130175
-0.268868
0.217526
-0.323254
0.259405
0.194024
0.0107028
-0.0612578
0.0361427
-0.158876
0.0726482
-0.242383
0.117974
-0.314193
-0.375599
0.170319
0.00837698
-0.0696348
0.0282851
-0.178785
0.0567261
-0.270824
0.0918121
-0.349279
-0.416051
0.132264
0.00529933
-0.0749341
0.0179959
-0.191481
0.0362303
-0.289058
0.0588854
-0.371934
-0.442416
0.0852509
0.00196202
-0.0768962
0.0066302
-0.196149
0.01329
-0.295718
0.0215225
-0.380167
0.0310631
-0.451957
0.00667707
-0.0107307
0.00405362
0.0222319
-0.0308652
0.0153104
0.0454464
-0.0484382
0.0252236
0.074601
-0.0638662
0.0347117
-0.0769464
0.108259
0.0432889
0.00576696
-0.0164978
0.0215125
-0.0466108
0.046747
-0.0736727
0.0798121
-0.0969313
-0.116038
0.118904
0.00639739
-0.0228952
0.0236701
-0.0638835
0.0512619
-0.101264
0.0879584
-0.133628
-0.160086
0.132007
0.00753702
-0.0304322
0.0270914
-0.0834378
0.0573276
-0.131501
0.0970443
-0.173345
-0.207881
0.144839
0.00874545
0.0313634
0.0656659
0.109847
0.161371
0.322469
-0.956348
0.742138
0.473652
-0.819965
0.668782
0.570431
-0.350762
0.253983
0.609722
-0.072443
0.0331518
-0.00294252
-0.00222663
0.330662
-1.16811
0.471025
-0.960327
0.57206
-0.451797
0.621053
-0.121436
-0.01512
0.336925
-1.37302
0.461878
-1.08528
0.560733
-0.550652
0.614931
-0.175634
-0.0337853
0.337711
-1.5659
0.449296
-1.19687
0.540068
-0.641424
0.602307
-0.237873
-0.0632234
0.327852
-1.73238
0.428999
-1.29801
0.509437
-0.721863
0.577734
-0.306171
-0.099965
1.19763
-1.58975
-1.34026
1.00803
-1.10841
0.896963
-0.610797
0.855152
-0.26436
-0.0807609
1.33015
-1.13276
-1.78713
0.982964
-0.761229
0.777728
-0.405561
0.695938
-0.18257
-0.0578434
1.18966
-0.607564
-1.71486
0.816584
-0.388151
0.612506
-0.201484
0.524343
-0.0944064
-0.0313987
0.82244
-0.18527
-1.24473
0.545357
-0.111069
0.397104
-0.0532309
0.328745
-0.026047
-0.00948151
0.306732
-0.492002
0.195664
0.142433
0.116386
1.5626
0.0462516
-1.57779
1.52169
0.126162
1.46265
0.191297
1.39631
0.236658
0.250078
1.67587
0.0356525
-1.66527
1.69934
0.102697
1.73083
0.159801
1.76531
0.202182
0.228257
1.38797
0.0184776
-1.3708
1.43706
0.0536067
1.51389
0.0829757
1.61018
0.105893
0.123575
0.9777
0.00531455
-0.964537
1.01588
0.0154226
1.07582
0.0230437
1.15388
0.0278268
0.0327222
0.392987
-0.387672
0.408409
0.431453
0.45928
0.128778
0.327617
-0.264651
-0.191744
0.0781603
0.273211
-0.222593
0.0385241
0.209794
-0.170157
0.0113397
0.136446
-0.109262
0.0519551
-0.0406154
0.115952
0.378902
-0.167237
0.0714956
0.317667
0.0356166
0.245673
0.0105602
0.161502
0.0625153
0.0888499
0.418274
-0.128221
0.0548102
0.351707
0.0272869
0.273196
0.00806455
0.180725
0.0705799
0.0552419
0.443535
-0.0805025
0.0337634
0.373186
0.016655
0.290304
0.0048642
0.192515
0.0754441
0.0174811
-0.0259033
0.0105
0.00508598
0.00145207
0.0724988
0.0872279
-0.107075
-0.0526518
0.0427993
0.0736187
-0.0439191
0.0196894
0.0568627
-0.0337528
0.00512409
0.0367525
-0.0221873
0.013269
-0.00814492
0.0760494
0.125807
-0.114628
0.0437443
0.105924
0.0196586
0.0809485
0.00509582
0.0513153
0.0183649
0.0844978
0.168495
-0.127186
0.0491546
0.141267
0.0227681
0.107335
0.00618443
0.0678989
0.0245494
0.0941409
0.214648
-0.140294
0.0558223
0.179586
0.0265521
0.136605
0.00743645
0.0870146
0.0319858
0.107436
-0.157439
0.0644287
0.0308765
0.00862954
0.511795
0.171863
-0.287678
0.557896
0.166666
-0.212768
0.494329
0.312557
-0.248989
0.333945
0.803933
-0.643549
1.04019
-0.813315
0.510661
0.0571821
0.554204
0.123122
0.484885
0.381876
0.330895
0.957923
1.25645
0.509744
-0.0565825
0.541248
0.0916184
0.465116
0.458009
0.328324
1.09471
1.45759
0.506082
-0.166685
0.522165
0.0755349
0.441657
0.538518
0.324399
1.21197
1.64169
0.497034
-0.267739
0.494601
0.0779677
0.413521
0.619598
0.312531
1.31296
1.79679
0.767758
-0.431477
0.850461
-0.00473559
0.957178
0.51288
1.16946
1.10068
1.61874
1.3475
0.712202
-0.539659
0.789806
-0.0823396
0.957155
0.345532
1.29832
0.759518
1.14323
1.77383
0.603109
-0.538747
0.63537
-0.114601
0.804408
0.176494
1.17275
0.39117
0.611992
1.70399
0.44859
-0.383317
0.406652
-0.0726631
0.536608
0.0465385
0.816042
0.111736
0.186912
1.24112
0.220704
0.14804
0.194579
0.306315
0.493227
1.40256
-0.246798
1.46573
-0.230409
1.52299
-0.185485
1.56316
-0.120669
-0.0405303
1.75271
-0.225681
1.71978
-0.197475
1.69064
-0.156352
1.67085
-0.100879
-0.0349514
1.6015
-0.123189
1.50878
-0.104748
1.43457
-0.0821422
1.38706
-0.0533677
-0.0186928
1.15106
-0.0331284
1.0743
-0.027984
1.01529
-0.0231404
0.97757
-0.0156431
-0.00565923
0.460099
0.432115
0.408974
0.393331
0.00250141
0.0430063
-0.0455077
0.00732798
0.101051
-0.105878
0.0160953
0.148396
-0.157163
0.0165786
0.151911
-0.152394
0.114029
0.0148142
-0.112264
0.00682843
0.0361779
0.020178
0.0877018
0.0409583
0.127616
0.0482555
0.144613
0.116382
0.0459019
0.00880932
0.0273686
0.0270768
0.0694343
0.0521511
0.102542
0.0730924
0.123672
0.114036
0.0754384
0.00780132
0.0195672
0.0255137
0.0517219
0.0497488
0.0783066
0.0774307
0.0959902
0.0992449
0.0922218
0.00509905
0.0144682
0.0179736
0.0388473
0.0367668
0.0595134
0.0600075
0.0727495
0.076748
0.0825043
0.00342455
0.0110436
0.0125823
0.0296896
0.0274431
0.0446526
0.0470522
0.0531404
0.0561613
0.067639
0.00222585
0.00881779
0.0089322
0.0229832
0.0222593
0.0313255
0.0409991
0.0344005
0.0347865
0.0623738
0.00166635
0.00715145
0.0100928
0.0145568
0.0261217
0.0152965
0.0466512
0.013871
0.0115634
0.0698744
0.00369985
0.0034516
0.0174655
0.000791149
0.0367747
-0.00401275
0.0597671
-0.00912159
-0.0143149
0.0856453
0.00750516
0.0236067
0.0448176
0.0704076
0.0993815
0.153707
0.019977
-0.106045
0.243117
-0.129961
0.0405514
0.264516
-0.0380287
0.01663
0.270735
0.000974606
-0.00719431
-0.00354942
-0.00357251
0.214577
-0.132227
0.32489
-0.240274
0.351107
-0.0642449
0.355056
-0.00297437
-0.00714656
0.259764
-0.322116
0.390816
-0.371327
0.433059
-0.106488
0.43571
-0.00562592
-0.00603457
0.292929
-0.5294
0.437904
-0.516302
0.501563
-0.170147
0.508754
-0.0128163
-0.00151087
0.312119
0.464599
0.548436
0.568771
0.0706464
0.0386949
-0.109341
0.0785835
-0.00793704
0.0828774
-0.00429392
0.0807131
0.00216432
0.000902464
0.194029
-0.26138
0.226643
0.238979
0.233949
0.0207318
-0.00433147
-0.0164003
0.034282
-0.0135502
0.0567605
-0.0224785
0.0856196
-0.0288591
-0.0237218
0.0539232
-0.0434405
0.086275
0.139235
0.202598
0.0478494
-0.0551248
0.0763387
-0.0690633
0.0275671
-0.0521445
0.0724268
0.0123386
-0.0443633
0.0595919
0.00331755
-0.030038
0.0390591
-0.0112611
0.0145787
0.0454626
-0.0322227
-0.0683647
0.0250147
-0.0316966
0.00985119
-0.0291998
0.00219626
-0.0223831
-0.00906483
0.0561117
-0.00663489
-0.0816996
0.0331722
-0.00875708
0.0143172
-0.0103448
0.00260444
-0.0106703
-0.00646037
0.07002
0.0215779
-0.0982328
0.0447779
0.0164851
0.023341
0.0110921
0.00691916
0.00575153
0.00045877
0.0742165
-0.10529
0.0467826
0.0241219
0.0076862
0.0165854
-0.114027
-0.0148226
0.0160947
-0.151903
0.00730677
-0.148376
0.00248918
-0.10106
-0.0430185
0.048272
-0.116372
-0.0459268
0.0409326
-0.144564
0.0201642
-0.127607
0.00682131
-0.0877175
-0.0361972
0.0731269
-0.113966
-0.0755326
0.0521241
-0.123561
0.0270654
-0.102548
0.00880632
-0.0694585
-0.0273909
0.0773424
-0.0989632
-0.0923455
0.0496215
-0.0958401
0.025433
-0.0783599
0.0077754
-0.0518008
-0.0196155
0.05996
-0.0825844
0.0365467
0.0177786
0.00503685
0.342045
0.583193
-0.529259
0.280928
0.224493
-0.163376
0.248188
0.0535895
-0.0208494
0.165518
0.115253
-0.0325821
-0.000561623
0.0970162
0.408218
0.570955
0.372093
0.260618
0.336378
0.0893048
0.233751
0.21788
0.164824
0.460645
0.50629
0.452239
0.269024
0.409731
0.131813
0.283782
0.343829
0.366907
0.497699
0.404571
0.516134
0.250588
0.461264
0.186683
0.317466
0.487626
0.586141
0.512872
0.550693
0.488387
0.332465
0.158668
0.351383
0.0848204
0.0738473
0.080406
0.00441432
0.0724811
0.00792492
-0.0369204
0.109402
0.332176
0.242647
0.226212
0.201555
0.261651
0.0856711
0.0237305
0.0567921
0.0288789
0.0342929
0.0224992
0.0207353
0.0135576
0.00433494
0.202797
0.139331
0.0862974
0.0539282
)
;

boundaryField
{
    left
    {
        type            calculated;
        value           nonuniform List<scalar> 
17
(
-0.60402
-0.60402
-0.60402
-0.60402
-0.60402
-0.39598
-0.39598
-0.39598
-0.39598
-0.39598
-0.39598
-0.39598
-0.39598
-0.39598
-0.39598
-0.510051
-0.510051
)
;
    }
    right
    {
        type            calculated;
        value           nonuniform List<scalar> 
17
(
0.0798106
0.231279
0.277857
0.358653
0.434598
0.50423
0.565034
0.614891
0.633231
0.633596
0.631745
0.614476
0.835948
0.673021
0.497898
0.306828
0.106904
)
;
    }
    down
    {
        type            calculated;
        value           uniform 0;
    }
    up
    {
        type            calculated;
        value           uniform 0;
    }
    cylinder
    {
        type            calculated;
        value           uniform 0;
    }
    defaultFaces
    {
        type            empty;
    }
}


// ************************************************************************* //
