/*--------------------------------*- C++ -*----------------------------------*\
  =========                 |
  \\      /  F ield         | OpenFOAM: The Open Source CFD Toolbox
   \\    /   O peration     | Website:  https://openfoam.org
    \\  /    A nd           | Version:  13
     \\/     M anipulation  |
\*---------------------------------------------------------------------------*/
FoamFile
{
    format      ascii;
    class       volVectorField;
    location    "0.52";
    object      U;
}
// * * * * * * * * * * * * * * * * * * * * * * * * * * * * * * * * * * * * * //

dimensions      [0 1 -1 0 0 0 0];

internalField   nonuniform List<vector> 
440
(
(0.218263 -0.176697 -1.81099e-19)
(0.613081 -0.436662 1.07886e-18)
(0.984291 -0.640907 4.23377e-19)
(1.32753 -0.795384 1.24242e-18)
(1.63256 -0.916732 -2.60003e-19)
(0.304894 -0.177685 -5.44508e-19)
(0.819135 -0.428703 -1.01958e-18)
(1.27997 -0.618903 1.14511e-19)
(1.6919 -0.761637 -1.21517e-18)
(2.05374 -0.875105 -1.02099e-18)
(0.38488 -0.152407 -6.98078e-19)
(1.00468 -0.363016 1.58978e-18)
(1.53976 -0.518386 -1.93467e-18)
(2.00471 -0.632633 1.3793e-18)
(2.40594 -0.721474 1.42993e-18)
(0.445868 -0.102746 5.62395e-19)
(1.1461 -0.243084 -1.29952e-18)
(1.73744 -0.344812 -7.50806e-19)
(2.24294 -0.418221 1.96658e-18)
(2.67446 -0.474462 2.50017e-18)
(0.479257 -0.0361583 6.8691e-19)
(1.22364 -0.0847544 1.69139e-19)
(1.8459 -0.119363 2.53133e-18)
(2.37403 -0.143864 -1.06202e-18)
(2.82296 -0.162494 -4.83734e-19)
(-0.000872777 -0.0516496 2.77437e-19)
(0.050187 -0.144292 -3.85653e-19)
(0.106117 -0.222335 1.108e-18)
(0.171657 -0.292192 -1.76339e-19)
(0.239824 -0.353796 -1.59658e-18)
(0.0137116 -0.0843105 -2.61984e-19)
(0.0893426 -0.227812 -4.22029e-19)
(0.174174 -0.350125 1.11042e-19)
(0.26848 -0.450017 5.98669e-20)
(0.364768 -0.530099 -3.63302e-20)
(0.0433356 -0.114265 7.04758e-20)
(0.165465 -0.303161 5.24322e-19)
(0.296174 -0.46735 9.48437e-20)
(0.43288 -0.598772 1.46165e-18)
(0.567943 -0.697297 -2.49986e-20)
(0.0866187 -0.141 6.69091e-20)
(0.276372 -0.367822 -3.45903e-20)
(0.469493 -0.56299 2.17639e-19)
(0.661407 -0.718472 -2.03815e-18)
(0.844115 -0.830374 9.5771e-19)
(0.142126 -0.161725 -2.35929e-19)
(0.420083 -0.412853 -4.42773e-19)
(0.6914 -0.621468 -7.70836e-19)
(0.950142 -0.782389 9.53944e-19)
(1.1852 -0.892797 3.45585e-18)
(0.592884 -0.591512 -4.07218e-18)
(0.962226 -0.516248 1.04169e-18)
(1.29231 -0.21128 3.71361e-19)
(1.48115 -0.0395329 -6.08435e-19)
(1.55281 -0.00317976 -8.34843e-20)
(0.785675 -0.742976 4.84157e-18)
(1.0441 -0.622541 -3.15417e-19)
(1.31885 -0.282644 -1.41184e-19)
(1.51823 -0.0785449 3.93154e-19)
(1.59909 -0.0193948 1.57482e-19)
(1.03658 -0.877677 1.53812e-18)
(1.17883 -0.708551 4.05317e-18)
(1.34429 -0.351466 6.72284e-20)
(1.52705 -0.116261 4.24811e-19)
(1.59997 -0.0337526 -4.9959e-20)
(1.33058 -0.988429 1.22351e-18)
(1.35937 -0.770373 -4.19143e-19)
(1.38974 -0.410379 -7.76009e-19)
(1.51405 -0.147587 -2.96048e-19)
(1.59524 -0.0463599 2.205e-20)
(1.62985 -1.04731 2.75494e-21)
(1.55528 -0.8107 -1.69901e-18)
(1.44944 -0.45894 0)
(1.48526 -0.191756 2.67645e-19)
(1.55155 -0.0603613 4.09425e-20)
(2.15623 -1.11516 -1.57864e-18)
(1.83392 -0.800777 -4.94651e-19)
(1.55974 -0.452822 -1.02957e-20)
(1.4241 -0.194056 5.64679e-20)
(1.38373 -0.0608033 -2.02128e-19)
(2.63271 -0.889697 -1.61228e-18)
(1.9004 -0.591013 2.97461e-18)
(1.43412 -0.317206 5.95729e-21)
(1.16917 -0.143377 2.03001e-19)
(1.11434 -0.0451336 0)
(2.47866 -0.522773 -6.92767e-18)
(1.60576 -0.338865 -1.49311e-19)
(1.14922 -0.177692 1.99521e-18)
(0.898699 -0.0862802 -3.15548e-19)
(0.824874 -0.0288796 -4.83928e-20)
(1.76239 -0.219978 6.83589e-18)
(1.08886 -0.135726 1.24933e-18)
(0.751762 -0.0674934 2.24245e-19)
(0.574263 -0.0346773 2.8808e-33)
(0.509047 -0.012976 -8.03013e-20)
(0.683158 0.000160055 1.55243e-18)
(0.395304 0.0235358 7.13229e-19)
(0.267584 0.0240384 -5.17908e-19)
(0.206368 0.0142625 2.18817e-19)
(0.178357 0.00494797 -6.71149e-20)
(3.58189 -0.168158 1.25616e-17)
(3.41717 -0.502933 -1.04434e-17)
(3.13668 -0.786986 7.10864e-18)
(2.7806 -0.996076 2.32068e-18)
(2.33312 -1.10177 -4.14364e-19)
(3.78455 -0.103586 1.03948e-17)
(3.71749 -0.324458 -6.63908e-19)
(3.57775 -0.551818 -4.27e-18)
(3.37831 -0.785751 2.69001e-18)
(3.10035 -1.01976 -6.62792e-19)
(3.11484 -0.0605668 3.65445e-18)
(3.09866 -0.181684 -2.51878e-18)
(3.05962 -0.309665 5.01274e-18)
(2.99893 -0.444852 -1.5292e-19)
(2.92438 -0.593608 -4.79055e-18)
(2.19087 -0.0276238 2.78877e-18)
(2.18384 -0.083371 8.43034e-18)
(2.16463 -0.144008 -6.5326e-19)
(2.13408 -0.207283 -6.60851e-18)
(2.11307 -0.269438 1.94593e-18)
(0.879439 -0.00184246 5.21224e-18)
(0.87649 -0.0052392 -1.16438e-19)
(0.86737 -0.00956836 -4.25796e-20)
(0.850508 -0.0162549 -2.00937e-18)
(0.841156 -0.0229072 -3.60539e-18)
(1.65312 0.940059 2.27501e-18)
(1.3483 0.816701 -7.85397e-20)
(1.00338 0.658652 -3.50718e-20)
(0.627872 0.449484 -1.96288e-19)
(0.22523 0.182298 -1.34124e-19)
(2.0705 0.892509 -1.2184e-18)
(1.71067 0.777735 -1.20261e-18)
(1.29832 0.63259 7.32036e-19)
(0.834044 0.438727 -4.84127e-19)
(0.312143 0.182089 -4.08581e-21)
(2.4186 0.735852 -5.89344e-19)
(2.01967 0.645357 5.2525e-19)
(1.555 0.528764 2.43664e-18)
(1.01754 0.3702 8.08318e-19)
(0.391339 0.155286 5.26077e-19)
(2.68202 0.48672 1.53143e-20)
(2.25239 0.428295 -2.71651e-19)
(1.74744 0.352327 -6.46755e-19)
(1.15477 0.247647 2.05642e-18)
(0.450326 0.104145 -3.26834e-19)
(2.82548 0.173873 -1.17058e-18)
(2.37729 0.152648 -1.6065e-18)
(1.84941 0.125348 -7.28697e-19)
(1.22672 0.087835 7.96283e-19)
(0.480858 0.0366871 -3.25831e-19)
(0.240907 0.416964 -2.146e-18)
(0.170771 0.353445 -1.82012e-18)
(0.103321 0.277019 3.16176e-19)
(0.0457051 0.183625 -4.6543e-20)
(-0.00163918 0.0675533 3.41435e-20)
(0.371095 0.594517 -8.02101e-19)
(0.274163 0.510123 -6.70117e-19)
(0.178815 0.399456 1.16293e-20)
(0.0925934 0.259545 -2.53888e-20)
(0.0168509 0.0965195 2.59906e-20)
(0.581701 0.753728 2.18342e-18)
(0.446229 0.649843 -1.52885e-19)
(0.307951 0.507291 -1.44695e-19)
(0.1744 0.328601 -2.15267e-19)
(0.0483982 0.123976 1.67533e-19)
(0.86206 0.87501 -1.29575e-18)
(0.679173 0.75843 1.9774e-18)
(0.485287 0.594177 3.05501e-19)
(0.28834 0.388425 1.01998e-19)
(0.0925372 0.149187 -1.18344e-19)
(1.20368 0.925199 -4.41424e-19)
(0.969111 0.811821 -4.5807e-19)
(0.708597 0.645094 3.60374e-19)
(0.433331 0.42918 3.59469e-19)
(0.148464 0.16854 1.89673e-21)
(0.935026 0.164892 -4.16002e-19)
(1.49084 0.134975 5.26376e-20)
(1.32355 0.196181 1.97345e-20)
(1.01205 0.500217 -5.00168e-19)
(0.598568 0.645369 4.90904e-20)
(0.939116 0.0873682 1.60572e-19)
(1.49826 0.111075 2.90883e-19)
(1.35023 0.244502 2.55481e-19)
(1.05991 0.615269 -6.28707e-20)
(0.784653 0.803069 7.59984e-19)
(0.941767 0.0108345 5.43736e-20)
(1.51276 0.0877028 -2.05061e-20)
(1.35138 0.29304 -5.69575e-20)
(1.16567 0.712139 -4.3612e-19)
(1.03731 0.937304 1.1718e-19)
(0.942899 -0.0633261 -1.96212e-20)
(1.52022 0.0678203 -6.87577e-19)
(1.35826 0.341814 8.98825e-20)
(1.32727 0.778841 1.20867e-18)
(1.33494 1.04178 9.44822e-19)
(0.941036 -0.13594 -2.71809e-20)
(1.50876 0.0577763 1.98682e-19)
(1.38173 0.390206 -6.48616e-20)
(1.51092 0.820443 -3.87604e-19)
(1.636 1.09187 -2.73638e-18)
(0.929071 -0.230687 2.30594e-19)
(1.4734 0.0242895 4.80086e-19)
(1.46283 0.388762 -3.07595e-20)
(1.76776 0.799626 3.07696e-18)
(2.15301 1.14325 -5.52078e-18)
(0.883211 -0.344025 -2.51159e-20)
(1.33806 -0.0279898 -6.45859e-19)
(1.40747 0.280033 7.24611e-21)
(1.84371 0.594494 -3.06578e-18)
(2.59453 0.900606 1.66917e-18)
(0.785927 -0.411976 5.51086e-18)
(1.08321 -0.0892003 6.82162e-35)
(1.1366 0.149481 -2.13827e-18)
(1.57687 0.339622 2.64192e-18)
(2.45675 0.529596 5.03202e-18)
(0.634157 -0.291676 1.50385e-19)
(0.714585 -0.0716261 5.27341e-19)
(0.733294 0.0519708 2.4909e-19)
(1.07557 0.134988 6.23173e-19)
(1.75836 0.220497 -8.6436e-18)
(0.322507 -0.0431725 -4.30665e-18)
(0.293968 0.00555686 2.82978e-19)
(0.265451 -0.0132462 1.10995e-18)
(0.393517 -0.0240256 -7.70777e-19)
(0.686168 -0.000448884 -1.46597e-18)
(2.3486 1.12116 4.69005e-18)
(2.78728 1.01254 3.4725e-18)
(3.14087 0.803378 -5.69141e-18)
(3.41899 0.519599 -1.46158e-17)
(3.5824 0.185879 1.57635e-17)
(3.07891 1.01883 5.00876e-18)
(3.35409 0.795221 2.56362e-17)
(3.55698 0.560667 7.24273e-18)
(3.70112 0.331823 -3.08296e-17)
(3.77795 0.111137 -5.1734e-18)
(2.90575 0.591995 -7.2288e-18)
(2.98599 0.4481 -3.3805e-18)
(3.05218 0.312115 -6.29777e-18)
(3.09525 0.181728 -6.88931e-18)
(3.11401 0.0584304 6.5228e-18)
(2.10626 0.265911 5.41522e-18)
(2.13012 0.205757 -4.04646e-19)
(2.16254 0.143047 4.87113e-18)
(2.18312 0.082138 6.28919e-18)
(2.19077 0.025999 -5.88785e-18)
(0.842529 0.0220597 -5.74608e-19)
(0.851928 0.0156561 3.52091e-18)
(0.868631 0.00913273 2.44312e-18)
(0.877491 0.00479316 -5.16935e-18)
(0.879838 0.00136175 -3.84283e-20)
(0.281973 0.0207596 5.52119e-19)
(0.656758 0.040472 -7.43581e-19)
(0.973251 0.0440727 -8.18497e-19)
(0.944422 0.0274353 -1.51802e-18)
(0.697934 0.0163881 -6.63731e-19)
(0.245612 0.0554677 7.45734e-19)
(0.591344 0.107089 1.44151e-18)
(0.864781 0.125159 -6.97358e-19)
(0.940049 0.0970117 1.96081e-18)
(0.724258 0.0532485 -2.70088e-18)
(0.185646 0.0742748 4.96236e-19)
(0.47645 0.145914 -1.39891e-18)
(0.707853 0.184784 -9.13918e-19)
(0.857403 0.175435 -1.81023e-18)
(0.741639 0.101244 -2.86229e-18)
(0.12332 0.0774837 -7.72674e-19)
(0.344803 0.160373 -1.37664e-18)
(0.534593 0.214903 4.39911e-18)
(0.677794 0.23334 -3.66696e-19)
(0.713121 0.180049 2.25506e-18)
(0.0752797 0.0723736 -6.22985e-19)
(0.230734 0.160116 1.56425e-18)
(0.37231 0.224546 6.12353e-19)
(0.482861 0.2578 -1.29588e-18)
(0.561371 0.258495 -1.74884e-19)
(0.0451471 0.0637763 8.42983e-20)
(0.149954 0.14876 -1.22235e-18)
(0.24775 0.212151 -9.45816e-19)
(0.325464 0.234124 -8.67204e-20)
(0.371254 0.223878 -5.00144e-20)
(0.0264594 0.0556916 3.12112e-19)
(0.0950703 0.134287 5.95049e-19)
(0.160892 0.184856 -2.08183e-19)
(0.213776 0.195526 2.59483e-19)
(0.253624 0.185485 1.71367e-19)
(0.0133294 0.0488557 2.49943e-19)
(0.0586016 0.111507 1.30849e-18)
(0.103696 0.121385 -1.23696e-18)
(0.14266 0.10762 -2.78662e-18)
(0.178832 0.0862076 4.08374e-19)
(0.00615488 0.0393898 -2.37437e-19)
(0.0424967 0.0492074 -1.80796e-18)
(0.0797749 0.022231 3.2181e-18)
(0.119798 -0.00951723 1.31534e-18)
(0.161265 -0.0432738 -2.69673e-19)
(0.0100079 0.00234015 2.1005e-19)
(0.0421231 -0.0495868 -4.52358e-19)
(0.0821958 -0.0957583 8.98736e-20)
(0.130868 -0.143713 1.05298e-19)
(0.181549 -0.189912 3.26242e-21)
(0.338652 0.0720591 -7.50721e-20)
(0.613142 -0.0420891 -1.22368e-18)
(0.702471 -0.0132891 2.53956e-19)
(0.714978 0.00570434 3.98227e-19)
(0.701896 0.00312054 1.28702e-20)
(0.30275 -0.0340719 -1.00174e-19)
(0.749534 -0.114607 1.46276e-18)
(0.88614 -0.0229351 9.18283e-19)
(0.913889 0.00859703 7.58456e-20)
(0.905913 0.00533228 -3.49955e-20)
(0.319401 -0.149341 -8.08432e-19)
(0.834007 -0.197761 3.14158e-18)
(1.04736 -0.0421941 -1.8145e-19)
(1.10036 0.0100955 -3.6387e-19)
(1.09768 0.00742961 7.27293e-20)
(0.37563 -0.28797 1.10562e-18)
(0.883197 -0.297129 -2.70763e-18)
(1.16944 -0.0828651 -5.32053e-19)
(1.26552 0.00609199 -3.22354e-20)
(1.27348 0.00801442 6.46673e-23)
(0.462765 -0.436306 5.0279e-19)
(0.918611 -0.404352 -5.51409e-19)
(1.24735 -0.142468 4.7764e-19)
(1.39777 -0.0084948 1.18639e-19)
(1.42696 0.00599252 -1.06533e-20)
(0.182962 -0.0449837 9.54853e-19)
(0.144894 -0.00526216 0)
(0.162369 0.00100397 1.16459e-19)
(0.161959 -0.00032225 -4.28513e-21)
(0.156586 -0.000672972 -7.3128e-20)
(0.399674 0.070023 0)
(0.408291 -0.000433291 0)
(0.46593 -0.0040911 5.10719e-20)
(0.467515 0.00310465 -2.49451e-20)
(0.453642 0.00129829 4.29134e-20)
(0.162688 -0.000821278 -3.68462e-19)
(0.186405 -0.0017921 3.10764e-18)
(0.213216 -0.00502094 -6.86297e-19)
(0.229814 -0.0149895 -3.11697e-18)
(0.245708 -0.0170125 -7.97008e-19)
(0.432035 0.00444132 6.09922e-19)
(0.484565 0.0196959 4.11555e-18)
(0.53646 0.0466977 -6.73001e-18)
(0.56763 0.0806174 2.20942e-18)
(0.598318 0.16222 3.79762e-18)
(0.37071 -0.22059 -3.32731e-19)
(0.324336 -0.231578 -9.28605e-20)
(0.24838 -0.212647 -3.30156e-19)
(0.150765 -0.150737 3.88033e-19)
(0.0458659 -0.0645784 1.14077e-19)
(0.257529 -0.169554 4.22115e-19)
(0.215075 -0.181648 1.41362e-18)
(0.162385 -0.177009 2.59698e-19)
(0.0967193 -0.135059 2.36351e-19)
(0.0268975 -0.0571893 -1.85853e-20)
(0.193188 -0.054727 -3.10898e-19)
(0.151614 -0.0772893 -1.05105e-19)
(0.108773 -0.0948447 1.63343e-18)
(0.0623213 -0.0970964 2.86407e-19)
(0.0132303 -0.0479804 -3.13353e-19)
(0.178612 0.0869133 -6.35804e-19)
(0.132599 0.0530717 -7.05922e-19)
(0.0877195 0.0193825 1.30901e-18)
(0.0494517 -0.0106846 1.60064e-18)
(0.0112317 -0.0298208 1.98972e-19)
(0.18858 0.244103 1.23639e-19)
(0.134206 0.197816 -1.20258e-19)
(0.0818353 0.14803 2.483e-19)
(0.0381651 0.0969506 6.21796e-19)
(-0.0022868 0.0356025 9.22749e-20)
(0.697931 -0.0163433 1.53154e-18)
(0.944428 -0.0274123 -1.80083e-18)
(0.97306 -0.0441986 2.27001e-18)
(0.65677 -0.0405344 3.64605e-19)
(0.282007 -0.0207683 5.36674e-19)
(0.724248 -0.053141 1.77256e-18)
(0.939907 -0.0970261 7.9468e-18)
(0.864579 -0.125262 1.03367e-18)
(0.591396 -0.107129 1.34949e-18)
(0.245708 -0.0554888 -4.78503e-19)
(0.741558 -0.100997 -1.22153e-18)
(0.856798 -0.17527 -2.2964e-18)
(0.707773 -0.184845 2.92444e-18)
(0.476517 -0.145983 -1.08286e-19)
(0.185768 -0.0743104 3.39525e-19)
(0.712598 -0.179867 1.78266e-20)
(0.677088 -0.233285 -7.68569e-18)
(0.534628 -0.215233 -5.99932e-18)
(0.344938 -0.160709 1.09163e-18)
(0.123502 -0.0775879 5.08042e-19)
(0.558947 -0.256956 4.68436e-19)
(0.481831 -0.257206 5.3341e-19)
(0.37238 -0.225265 -8.99336e-19)
(0.230989 -0.16099 -8.88227e-19)
(0.0756281 -0.0726322 -5.14415e-21)
(0.72745 0.373099 1.17542e-18)
(0.8813 0.127543 -1.91413e-19)
(0.677792 0.0192981 2.52356e-19)
(0.645668 0.0364914 -7.57236e-19)
(0.362666 -0.0617908 -1.00819e-19)
(0.827142 0.398003 -1.70299e-19)
(1.09023 0.157417 -5.64957e-19)
(0.869313 0.0377696 8.34817e-19)
(0.805399 0.099806 1.68004e-18)
(0.340596 0.0542046 1.03635e-19)
(0.891619 0.372572 -2.24141e-18)
(1.27103 0.171464 -3.73592e-20)
(1.03986 0.0620333 2.49302e-19)
(0.908942 0.179293 1.69133e-18)
(0.364818 0.176775 -1.43405e-18)
(0.921998 0.316879 1.47939e-18)
(1.41785 0.173578 1.63954e-20)
(1.17597 0.100063 -2.11504e-19)
(0.963929 0.277888 -7.28541e-19)
(0.41539 0.323358 -5.84782e-19)
(0.930607 0.242964 1.7259e-19)
(1.48854 0.156906 3.64348e-20)
(1.26791 0.146427 -7.33134e-20)
(0.991558 0.38562 -8.13835e-20)
(0.485354 0.480573 1.35923e-18)
(0.27563 0.04837 0)
(0.244345 -0.0112167 6.4895e-19)
(0.157756 -0.0159134 1.27295e-19)
(0.150614 0.0055245 -1.10554e-19)
(0.184394 0.0440869 -1.80758e-18)
(0.573276 0.266327 -1.01977e-17)
(0.609699 0.0751459 -2.5605e-18)
(0.445657 0.0130029 4.99498e-19)
(0.424519 0.000590467 -6.59052e-19)
(0.407667 -0.0683148 -6.62013e-19)
(0.245845 0.0169752 -9.65874e-22)
(0.229909 0.0150778 1.92874e-18)
(0.213293 0.0050643 5.24466e-19)
(0.186455 0.00180199 3.2303e-19)
(0.162703 0.000825138 0)
(0.599218 -0.162112 -1.14013e-19)
(0.568194 -0.0803207 2.54741e-18)
(0.536569 -0.046474 -1.37501e-19)
(0.484625 -0.0196428 -2.70459e-19)
(0.432059 -0.00441906 7.60487e-19)
)
;

boundaryField
{
    left
    {
        type            fixedValue;
        value           uniform (1 0 0);
    }
    right
    {
        type            zeroGradient;
    }
    down
    {
        type            noSlip;
    }
    up
    {
        type            noSlip;
    }
    cylinder
    {
        type            noSlip;
    }
    defaultFaces
    {
        type            empty;
    }
}


// ************************************************************************* //
