/*--------------------------------*- C++ -*----------------------------------*\
  =========                 |
  \\      /  F ield         | OpenFOAM: The Open Source CFD Toolbox
   \\    /   O peration     | Website:  https://openfoam.org
    \\  /    A nd           | Version:  13
     \\/     M anipulation  |
\*---------------------------------------------------------------------------*/
FoamFile
{
    format      ascii;
    class       volVectorField;
    location    "0.5";
    object      U;
}
// * * * * * * * * * * * * * * * * * * * * * * * * * * * * * * * * * * * * * //

dimensions      [0 1 -1 0 0 0 0];

internalField   nonuniform List<vector> 
1800
(
(0.0511132 -0.0450458 1.29527e-19)
(0.359155 -0.293486 5.99656e-20)
(0.729703 -0.565298 -1.92886e-19)
(1.05507 -0.781559 3.35104e-19)
(1.28952 -0.917964 1.06658e-18)
(1.43492 -0.981506 5.31082e-19)
(1.51273 -0.992319 -3.02202e-19)
(1.54651 -0.970537 -8.37668e-19)
(1.55596 -0.928071 -4.44538e-19)
(1.5303 -0.8851 -3.62056e-19)
(0.0825394 -0.0624759 5.25961e-20)
(0.45634 -0.317002 -2.13357e-19)
(0.878911 -0.57754 2.70479e-21)
(1.23367 -0.775308 -3.57704e-19)
(1.4775 -0.893646 1.09256e-19)
(1.61984 -0.943186 1.20873e-18)
(1.68913 -0.944877 -9.69716e-19)
(1.71374 -0.917939 5.18007e-19)
(1.71456 -0.875287 8.75367e-19)
(1.69532 -0.838666 -4.47472e-19)
(0.121969 -0.0786176 8.41155e-21)
(0.566918 -0.332307 6.72639e-20)
(1.03876 -0.5739 1.50694e-19)
(1.4159 -0.747777 -1.93484e-19)
(1.66176 -0.845585 -1.26982e-18)
(1.79516 -0.881246 3.24022e-19)
(1.85162 -0.875881 6.25036e-19)
(1.86314 -0.847507 -6.78848e-20)
(1.85198 -0.807604 -5.65632e-21)
(1.8212 -0.772398 -3.15225e-20)
(0.169321 -0.0917057 -1.26178e-20)
(0.689182 -0.336117 -8.19445e-20)
(1.20544 -0.551362 -1.72179e-19)
(1.59683 -0.697185 6.32143e-20)
(1.83774 -0.773109 3.31362e-19)
(1.95818 -0.795278 3.26776e-20)
(2.00081 -0.783747 -2.50915e-20)
(2.00079 -0.754173 5.91122e-19)
(1.98076 -0.716158 5.02945e-19)
(1.94689 -0.684847 -1.75056e-19)
(0.223958 -0.0999862 1.05844e-19)
(0.820058 -0.325707 1.41762e-19)
(1.37349 -0.508397 -7.29156e-20)
(1.76978 -0.624206 -8.44708e-20)
(1.99844 -0.679203 -1.02503e-18)
(2.10161 -0.690414 9.96607e-21)
(2.12835 -0.67577 9.71108e-19)
(2.11577 -0.648172 3.31502e-19)
(2.08615 -0.61543 1.73974e-20)
(2.04616 -0.588835 -2.23591e-19)
(0.284511 -0.101534 -7.42211e-20)
(0.955017 -0.298132 1.78878e-19)
(1.53663 -0.443073 7.75182e-19)
(1.92883 -0.52833 -6.23972e-19)
(2.1398 -0.564216 -7.60039e-19)
(2.22395 -0.566886 1.40275e-18)
(2.23564 -0.551033 -1.05769e-18)
(2.2127 -0.526386 -1.2215e-18)
(2.17627 -0.498681 8.78843e-19)
(2.13347 -0.477066 -2.53833e-20)
(0.349239 -0.0949391 9.89134e-20)
(1.08917 -0.25238 -4.92437e-19)
(1.68872 -0.35652 -2.12458e-18)
(2.06836 -0.412876 1.08994e-18)
(2.2571 -0.433232 1.96359e-18)
(2.32098 -0.431078 -6.13249e-21)
(2.31809 -0.41712 -2.86571e-18)
(2.28577 -0.397888 8.03094e-21)
(2.2434 -0.377312 2.65456e-18)
(2.19747 -0.361872 6.96627e-19)
(0.415572 -0.0789069 -9.77923e-21)
(1.21642 -0.18761 4.14253e-19)
(1.82307 -0.249418 1.72247e-18)
(2.1832 -0.279557 -5.44585e-20)
(2.34744 -0.288135 -1.29004e-18)
(2.39191 -0.284248 -4.30759e-19)
(2.37665 -0.274083 0)
(2.33733 -0.261108 1.02047e-18)
(2.29112 -0.247631 -8.80712e-22)
(2.24379 -0.238323 -8.43301e-19)
(0.480841 -0.0529652 3.83824e-21)
(1.33148 -0.10513 8.98997e-19)
(1.93473 -0.125316 1.61934e-18)
(2.26997 -0.13336 -1.72053e-18)
(2.4088 -0.134591 -1.35571e-18)
(2.43537 -0.132344 4.36688e-19)
(2.40996 -0.128143 -1.88194e-18)
(2.36564 -0.122743 -1.3262e-18)
(2.31704 -0.117155 1.55824e-18)
(2.26876 -0.114463 1.32527e-18)
(0.541824 -0.0170939 1.21682e-19)
(1.42862 -0.00682807 6.35318e-19)
(2.01867 0.0123759 3.13043e-19)
(2.32551 0.0219061 -2.55169e-18)
(2.43977 0.0239858 2.02635e-20)
(2.45118 0.0220194 4.17463e-18)
(2.41848 0.0189856 -2.28044e-18)
(2.37144 0.016365 -1.26758e-18)
(2.32208 0.0141116 4.28985e-19)
(2.27385 0.0102662 -9.65e-19)
(-0.00218216 -0.000687573 8.66965e-20)
(-0.00410621 -0.046003 4.86425e-20)
(0.0142226 -0.105995 -1.68095e-21)
(0.049302 -0.161786 -8.09405e-21)
(0.0968563 -0.204218 -3.49433e-21)
(0.151707 -0.2315 -1.35364e-19)
(0.209487 -0.245832 -1.7003e-20)
(0.26707 -0.250723 7.61968e-20)
(0.32252 -0.249648 3.38176e-21)
(0.373801 -0.246441 -7.94473e-21)
(-0.00296484 0.00746239 2.45547e-20)
(0.00232412 -0.0605139 6.57015e-20)
(0.0310236 -0.157234 -9.62155e-20)
(0.0760698 -0.248746 -5.17096e-20)
(0.131232 -0.318405 -7.62936e-20)
(0.190889 -0.362675 -1.65868e-19)
(0.251026 -0.385086 1.34316e-19)
(0.309158 -0.391563 8.55601e-20)
(0.36391 -0.388129 -9.74542e-20)
(0.414762 -0.382333 1.47706e-20)
(-0.00467942 0.0139102 -4.03434e-20)
(0.0119048 -0.0768787 1.47808e-19)
(0.057258 -0.20892 6.18001e-20)
(0.118385 -0.334142 2.65017e-19)
(0.185828 -0.429044 6.26549e-20)
(0.253222 -0.488648 -4.94957e-19)
(0.317137 -0.517915 2.43036e-20)
(0.376141 -0.525152 2.296e-19)
(0.429788 -0.51887 -1.72941e-19)
(0.480116 -0.510074 -6.97142e-20)
(-0.00677681 0.0180953 -1.07423e-19)
(0.0255914 -0.0955237 -2.2776e-20)
(0.0939001 -0.260737 3.01925e-20)
(0.176997 -0.416711 -1.30971e-19)
(0.261047 -0.534 6.01739e-20)
(0.338749 -0.606624 2.56275e-19)
(0.40756 -0.641088 1.16908e-19)
(0.467536 -0.648027 -8.57439e-20)
(0.519523 -0.638319 2.1979e-20)
(0.569116 -0.625982 -5.01331e-21)
(-0.00846287 0.0193401 0)
(0.0446561 -0.116944 8.19585e-20)
(0.142147 -0.312423 1.26499e-19)
(0.252679 -0.495212 -2.08815e-19)
(0.357083 -0.631143 -5.60647e-19)
(0.447095 -0.713814 2.49205e-19)
(0.521455 -0.751424 -5.90439e-20)
(0.582174 -0.756843 -1.05457e-19)
(0.631755 -0.743108 0)
(0.68016 -0.726553 -1.38865e-20)
(-0.00869142 0.0171718 3.8253e-20)
(0.0707929 -0.141602 7.75559e-20)
(0.203331 -0.363682 -1.89633e-20)
(0.346056 -0.568344 2.39075e-19)
(0.47366 -0.71831 -1.90427e-19)
(0.577127 -0.807468 -3.30749e-19)
(0.657013 -0.845893 6.86558e-19)
(0.717782 -0.848545 5.53377e-20)
(0.763962 -0.83029 -5.40722e-19)
(0.810173 -0.808734 -9.87313e-21)
(-0.00647888 0.011133 5.72951e-21)
(0.105567 -0.169758 6.70909e-21)
(0.278779 -0.413879 1.62462e-19)
(0.45728 -0.634611 2.99524e-20)
(0.60962 -0.79333 2.96266e-19)
(0.726551 -0.88505 -4.25188e-19)
(0.811103 -0.921902 -4.90491e-19)
(0.870687 -0.920748 -4.89786e-19)
(0.912242 -0.897778 3.76706e-19)
(0.954328 -0.870512 4.35517e-19)
(-0.000440148 0.00106138 -1.18469e-19)
(0.150584 -0.200897 5.53231e-20)
(0.369078 -0.461772 3.2168e-19)
(0.585373 -0.692096 -1.6881e-19)
(0.762349 -0.853871 2.97201e-19)
(0.891421 -0.944109 8.03553e-19)
(0.978891 -0.977143 6.6956e-19)
(1.03557 -0.971489 -5.42571e-19)
(1.0712 -0.943966 -2.84477e-19)
(1.10609 -0.910602 4.07626e-19)
(0.0105811 -0.0123031 -2.06863e-19)
(0.207154 -0.233356 -2.56778e-19)
(0.474225 -0.504995 3.30875e-19)
(0.728529 -0.737951 4.62334e-19)
(0.928248 -0.896905 -6.23085e-19)
(1.06668 -0.981675 8.21565e-19)
(1.15431 -1.00883 1.32339e-19)
(1.20581 -0.998182 -1.28744e-18)
(1.23411 -0.966179 -3.24817e-19)
(1.25742 -0.926774 4.11696e-19)
(0.0274073 -0.0279569 4.97397e-20)
(0.27625 -0.264908 -2.75388e-19)
(0.594339 -0.540398 -3.41137e-19)
(0.88547 -0.768647 5.70646e-19)
(1.10468 -0.918981 4.72644e-19)
(1.24863 -0.994638 -7.2977e-19)
(1.33285 -1.01422 -6.90368e-19)
(1.37635 -0.998161 4.46371e-19)
(1.39566 -0.961123 -4.66481e-19)
(1.40045 -0.916909 -3.06035e-19)
(0.579772 -0.20099 4.80683e-20)
(0.783996 -0.147742 -5.87621e-20)
(0.882566 -0.116024 7.08126e-21)
(0.938915 -0.0909465 7.49575e-21)
(0.972202 -0.0705388 -3.57767e-21)
(0.991877 -0.0539425 -9.19644e-22)
(1.00392 -0.0405217 -2.54954e-21)
(1.0116 -0.0292781 -2.73919e-21)
(1.01627 -0.021502 5.71536e-21)
(1.01991 -0.00991127 2.58952e-21)
(0.598489 -0.28901 1.00618e-19)
(0.797793 -0.19071 1.35399e-20)
(0.891757 -0.139743 3.55069e-21)
(0.946031 -0.104282 -3.24144e-21)
(0.977832 -0.0782716 -7.62732e-21)
(0.996363 -0.0585661 0)
(1.00751 -0.0433495 -2.8463e-21)
(1.01449 -0.0310161 3.15083e-21)
(1.01869 -0.0226298 4.21594e-22)
(1.02186 -0.0104013 -3.03091e-21)
(0.628295 -0.372772 -8.793e-20)
(0.817667 -0.233068 -3.67576e-20)
(0.903945 -0.163245 1.29328e-20)
(0.954755 -0.117456 -7.62483e-21)
(0.984341 -0.0858665 -3.43354e-21)
(1.00135 -0.0630579 5.40558e-21)
(1.01141 -0.0460542 0)
(1.01757 -0.0326483 0)
(1.02124 -0.0236648 -1.32601e-21)
(1.0239 -0.0108422 0)
(0.670012 -0.450214 -3.12702e-20)
(0.843152 -0.274386 7.11037e-20)
(0.919141 -0.186273 6.25725e-21)
(0.965086 -0.130331 0)
(0.991723 -0.0932411 1.45735e-20)
(1.00684 -0.067367 -1.92209e-21)
(1.0156 -0.0486043 0)
(1.02083 -0.0341546 2.26102e-21)
(1.0239 -0.0245934 0)
(1.02601 -0.0112276 4.09778e-22)
(0.724304 -0.519181 -5.38879e-20)
(0.873572 -0.314209 9.22716e-20)
(0.937301 -0.208587 -3.16576e-21)
(0.977004 -0.142782 0)
(0.999967 -0.100319 2.76012e-21)
(1.01282 -0.071445 3.79979e-21)
(1.02007 -0.0509687 5.28237e-21)
(1.02426 -0.035515 9.96654e-22)
(1.02666 -0.0254021 -1.66647e-21)
(1.02818 -0.011552 2.39255e-21)
(0.791403 -0.577404 -7.17768e-19)
(0.907921 -0.351757 -1.64573e-19)
(0.958193 -0.229956 1.12932e-21)
(0.99043 -0.154724 2.49821e-20)
(1.00904 -0.107039 -4.34473e-21)
(1.01926 -0.0752492 3.28461e-21)
(1.0248 -0.0531186 2.00261e-21)
(1.02783 -0.03671 -5.89801e-21)
(1.02951 -0.0260776 -1.93085e-22)
(1.0304 -0.01181 3.72911e-22)
(0.871865 -0.623602 1.80982e-20)
(0.945192 -0.38575 6.20552e-20)
(0.981193 -0.249969 1.65043e-21)
(1.00512 -0.166013 -7.21115e-22)
(1.01885 -0.113327 -1.82068e-20)
(1.02612 -0.0787352 4.68271e-21)
(1.02977 -0.0550259 -2.15656e-21)
(1.03153 -0.0377207 -3.85557e-21)
(1.03242 -0.0266074 6.69035e-22)
(1.03265 -0.0119971 -1.66881e-21)
(0.967792 -0.659363 2.77682e-19)
(0.98666 -0.415976 7.43458e-20)
(1.0059 -0.268574 0)
(1.02067 -0.176573 -3.91635e-22)
(1.02915 -0.119105 1.47404e-20)
(1.03327 -0.0818476 1.12376e-21)
(1.03491 -0.0566567 -1.07976e-20)
(1.03532 -0.0385264 3.04285e-21)
(1.03536 -0.0269791 -2.23604e-23)
(1.03491 -0.0121101 -1.54537e-22)
(1.08049 -0.687206 -4.19008e-19)
(1.03813 -0.443601 -2.0317e-19)
(1.03454 -0.286913 4.60576e-20)
(1.03759 -0.18716 -2.60165e-22)
(1.03994 -0.124759 -1.95412e-21)
(1.04062 -0.0847448 -1.08375e-20)
(1.04015 -0.0580645 2.58829e-21)
(1.03917 -0.0391391 4.77662e-22)
(1.03831 -0.0271909 -2.90219e-21)
(1.03718 -0.0121486 -2.67869e-21)
(1.2039 -0.703493 2.97835e-19)
(1.10356 -0.464822 -2.03848e-19)
(1.07094 -0.303072 -3.20547e-20)
(1.05817 -0.197429 -3.50951e-20)
(1.05225 -0.130512 -1.83489e-20)
(1.04857 -0.0876964 -8.76066e-21)
(1.04563 -0.0594302 -4.44461e-21)
(1.0431 -0.0396501 0)
(1.04129 -0.0272868 -1.82673e-23)
(1.03945 -0.0121131 1.62996e-21)
(1.38139 -0.679427 4.5662e-19)
(1.21081 -0.46579 1.26646e-19)
(1.13376 -0.306215 -1.0154e-19)
(1.09494 -0.199646 6.41515e-21)
(1.07385 -0.131579 7.51016e-21)
(1.06169 -0.0879373 -3.85838e-21)
(1.05402 -0.0592075 9.37908e-22)
(1.04871 -0.0392468 3.67609e-21)
(1.04528 -0.0268278 -2.69621e-21)
(1.04236 -0.0118855 1.85936e-22)
(1.42769 -0.554677 -2.44403e-21)
(1.23948 -0.386191 1.14022e-19)
(1.15789 -0.264495 9.55399e-20)
(1.11605 -0.178999 -1.19764e-20)
(1.09024 -0.120864 4.68873e-20)
(1.07351 -0.081851 3.00378e-20)
(1.06237 -0.055473 2.04862e-20)
(1.05465 -0.0368901 -1.9993e-21)
(1.04967 -0.0252735 7.16984e-21)
(1.04559 -0.0111981 3.41282e-21)
(1.48549 -0.473848 -1.46061e-19)
(1.29866 -0.346564 -1.17437e-20)
(1.19941 -0.242475 5.63786e-21)
(1.14372 -0.165449 4.30113e-37)
(1.10846 -0.111993 8.03444e-22)
(1.0856 -0.0758562 -8.17483e-35)
(1.07058 -0.0513768 -2.75716e-21)
(1.06035 -0.0341343 -1.95987e-34)
(1.05385 -0.0233748 7.85745e-22)
(1.04861 -0.010358 -2.31991e-21)
(1.51856 -0.386849 -2.31368e-34)
(1.33591 -0.290962 -3.25528e-20)
(1.22919 -0.208115 -3.28587e-20)
(1.16585 -0.144942 0)
(1.12409 -0.0994286 -1.97131e-20)
(1.09636 -0.0677887 -1.35532e-20)
(1.078 -0.046037 -7.7124e-21)
(1.06553 -0.0306105 -2.47889e-34)
(1.05765 -0.0209785 -2.36122e-21)
(1.05133 -0.00930534 2.21044e-21)
(1.53957 -0.309708 -8.71914e-20)
(1.3649 -0.240641 4.66883e-21)
(1.25377 -0.174735 0)
(1.18446 -0.123202 0)
(1.13749 -0.0852552 0)
(1.10572 -0.0584009 0)
(1.0845 -0.0397512 -5.57373e-22)
(1.0701 -0.0264534 -2.77455e-34)
(1.061 -0.0181516 7.01705e-22)
(1.05371 -0.00806329 2.65147e-34)
(1.55217 -0.239057 -3.08093e-20)
(1.38625 -0.190346 0)
(1.27302 -0.139868 0)
(1.19938 -0.0996605 0)
(1.14845 -0.0695332 0)
(1.11349 -0.047858 0)
(1.08995 -0.0326549 9.5042e-22)
(1.07393 -0.0217542 5.00236e-21)
(1.06382 -0.0149505 6.63061e-22)
(1.05569 -0.00665292 2.94861e-21)
(1.55923 -0.174454 0)
(1.40094 -0.141207 -1.01752e-20)
(1.28699 -0.104503 -1.49602e-20)
(1.2104 -0.0750007 0)
(1.15666 -0.0526858 -9.59127e-21)
(1.11936 -0.0364203 -6.85748e-21)
(1.09407 -0.024912 -3.81289e-21)
(1.07681 -0.0166166 -2.98501e-21)
(1.0659 -0.0114396 4.06024e-21)
(1.05709 -0.00510123 1.28819e-21)
(1.55932 -0.114074 8.70143e-21)
(1.40508 -0.0933497 6.75086e-21)
(1.29141 -0.0689257 -3.74478e-21)
(1.2137 -0.0495 2.67375e-36)
(1.15877 -0.034905 4.206e-22)
(1.12035 -0.0242032 -5.43554e-35)
(1.09415 -0.0165891 7.43638e-22)
(1.07623 -0.0110799 3.03599e-21)
(1.06488 -0.00763549 5.52108e-22)
(1.05567 -0.00340426 -1.81087e-21)
(1.50172 -0.048576 -4.40494e-20)
(1.35243 -0.044371 1.12932e-20)
(1.24469 -0.0344407 1.29507e-20)
(1.17166 -0.0254253 0)
(1.12012 -0.0182257 7.31297e-21)
(1.08399 -0.0127362 5.12018e-21)
(1.05924 -0.00876483 4.12667e-21)
(1.04229 -0.005874 2.23561e-21)
(1.03152 -0.00405809 -2.13817e-21)
(1.02281 -0.0018056 2.24366e-21)
(0.974524 0.00153881 0)
(0.905508 -0.00275363 0)
(0.848842 -0.00326142 0)
(0.807825 -0.00281247 0)
(0.7776 -0.00214143 0)
(0.755973 -0.00153579 0)
(0.740994 -0.00107305 5.88964e-22)
(0.730667 -0.000735246 -3.45941e-36)
(0.723989 -0.000498208 5.4799e-22)
(0.718647 -0.00020987 1.65666e-21)
(2.18503 0.00583839 8.9304e-19)
(2.18211 -0.101888 6.13832e-20)
(2.16343 -0.20837 -1.28917e-19)
(2.12309 -0.315449 -3.61493e-19)
(2.07406 -0.413368 -1.20383e-19)
(1.99575 -0.513144 -1.86333e-19)
(1.92456 -0.591397 -4.76777e-19)
(1.80879 -0.681631 1.47178e-19)
(1.72772 -0.719291 0)
(1.57242 -0.815732 6.2781e-20)
(2.09399 0.0061755 2.36651e-19)
(2.09182 -0.076216 -3.41771e-19)
(2.08165 -0.154639 -1.52543e-20)
(2.04773 -0.240554 -1.42451e-19)
(2.01625 -0.309573 3.41683e-20)
(1.95055 -0.397139 1.40361e-19)
(1.90203 -0.447573 -1.34094e-20)
(1.81156 -0.53762 9.05666e-20)
(1.74893 -0.553507 -1.15114e-19)
(1.64458 -0.656732 3.29313e-20)
(2.01865 0.00415781 -1.18082e-19)
(2.01662 -0.0614509 2.27441e-19)
(2.01034 -0.121055 1.93235e-19)
(1.98246 -0.19171 -2.43733e-19)
(1.95867 -0.241741 8.70057e-20)
(1.90664 -0.316418 1.61573e-19)
(1.86681 -0.351066 -5.20619e-20)
(1.79854 -0.428843 6.58536e-20)
(1.74396 -0.439574 7.00557e-20)
(1.66806 -0.526741 9.12233e-20)
(1.95946 -0.000701328 -2.19178e-19)
(1.95855 -0.0517366 3.03026e-20)
(1.9535 -0.0965747 -8.85898e-20)
(1.93134 -0.152528 -5.98703e-20)
(1.91022 -0.189507 -3.59449e-21)
(1.86952 -0.249881 -1.07058e-19)
(1.83362 -0.275772 1.01077e-19)
(1.78065 -0.338823 2.71784e-20)
(1.73238 -0.348044 -9.96561e-21)
(1.6741 -0.418133 1.0971e-20)
(1.91437 -0.00436725 5.17911e-20)
(1.91415 -0.0430841 6.43678e-20)
(1.90912 -0.0767053 -5.7239e-20)
(1.89138 -0.119456 2.26879e-19)
(1.87155 -0.147194 6.47979e-21)
(1.83878 -0.193653 -1.51532e-19)
(1.80587 -0.21364 2.30911e-20)
(1.76282 -0.262096 -9.17323e-20)
(1.72008 -0.270734 1.11291e-19)
(1.67295 -0.323981 8.00162e-20)
(1.87989 -0.00863022 -1.16982e-19)
(1.88046 -0.0369869 -6.07892e-20)
(1.87554 -0.0614344 2.8754e-20)
(1.86096 -0.092456 8.53186e-20)
(1.84226 -0.112738 6.84419e-20)
(1.81461 -0.146642 -4.40616e-20)
(1.78428 -0.161699 3.52936e-21)
(1.74738 -0.197192 4.64916e-20)
(1.70897 -0.204791 9.04345e-20)
(1.66826 -0.243696 -5.45494e-20)
(1.85296 -0.0130007 -4.51565e-20)
(1.85444 -0.0323609 -8.76946e-20)
(1.8501 -0.0488713 -6.72845e-20)
(1.83795 -0.069662 -1.25727e-19)
(1.82068 -0.0833156 -9.35943e-21)
(1.79651 -0.106295 2.48562e-21)
(1.76854 -0.116803 4.31389e-20)
(1.73538 -0.141367 -9.7997e-21)
(1.70025 -0.147407 -3.62462e-20)
(1.66298 -0.174716 6.79128e-21)
(1.81745 -0.0167024 4.08326e-20)
(1.82015 -0.0276336 3.21182e-20)
(1.81765 -0.0368289 1.32701e-20)
(1.80885 -0.0486593 -2.39516e-20)
(1.79508 -0.0557683 -1.95902e-20)
(1.77538 -0.0691495 2.50523e-20)
(1.75167 -0.0742818 -5.02728e-21)
(1.72312 -0.0898391 -3.76647e-20)
(1.69146 -0.0929482 8.60925e-21)
(1.65889 -0.111932 4.74132e-20)
(1.68077 -0.0251841 -3.61009e-20)
(1.6806 -0.0284355 3.95659e-22)
(1.67826 -0.0302089 5.52189e-20)
(1.67367 -0.0331675 -5.25069e-22)
(1.66687 -0.0331031 -7.23282e-21)
(1.65816 -0.036713 3.64522e-21)
(1.64468 -0.0354197 1.11526e-20)
(1.63313 -0.0403129 -2.24977e-20)
(1.60919 -0.0390333 3.17634e-20)
(1.60024 -0.046614 1.08167e-19)
(1.02491 -0.0122784 3.4739e-20)
(1.01001 -0.010203 2.41276e-20)
(0.99827 -0.00775871 2.0462e-20)
(0.989818 -0.00554881 2.54469e-20)
(0.984303 -0.00305194 -7.4054e-21)
(0.983082 -0.00132616 -4.18963e-22)
(0.981435 0.00138191 -5.77417e-21)
(0.988275 0.00232314 1.27193e-21)
(0.98451 0.00517576 -2.16392e-21)
(1.00299 0.00385288 2.40365e-21)
(1.38756 0.788376 -5.89472e-20)
(1.37556 0.832077 2.55958e-20)
(1.38041 0.883254 -4.60217e-19)
(1.39088 0.942228 2.23279e-19)
(1.40022 1.00557 8.72015e-19)
(1.4009 1.06734 -1.41587e-19)
(1.37432 1.10984 -8.4694e-19)
(1.27534 1.0868 -5.01303e-20)
(1.01998 0.906807 -4.39414e-19)
(0.483491 0.445458 1.3842e-19)
(1.54009 0.756811 0)
(1.53278 0.800526 5.663e-19)
(1.53452 0.849546 1.26401e-18)
(1.54478 0.907291 -7.64625e-19)
(1.55839 0.97075 -1.82486e-18)
(1.56482 1.03291 -1.41587e-19)
(1.54037 1.07493 -1.8095e-19)
(1.43192 1.05065 6.54127e-19)
(1.14381 0.872053 9.06869e-19)
(0.539367 0.424239 4.06749e-19)
(1.68433 0.716286 6.41353e-20)
(1.68647 0.760439 0)
(1.69063 0.807729 -6.61925e-20)
(1.70188 0.86219 7.8785e-19)
(1.71807 0.922318 5.32475e-20)
(1.72798 0.981461 -1.90618e-18)
(1.70363 1.02051 1.20331e-18)
(1.58388 0.994565 7.61267e-19)
(1.26189 0.820639 -8.21217e-19)
(0.590979 0.394749 -2.83945e-19)
(1.81378 0.663262 -1.25565e-19)
(1.82655 0.706945 -1.00479e-19)
(1.83779 0.752404 2.31376e-19)
(1.85326 0.803267 -2.90098e-19)
(1.87264 0.859015 -1.38989e-18)
(1.8849 0.913566 -1.07065e-18)
(1.85877 0.9482 1.17059e-18)
(1.72582 0.920054 7.40151e-19)
(1.36892 0.753263 0)
(0.634895 0.356629 0)
(1.92688 0.599383 -8.05888e-19)
(1.94986 0.640947 -1.40703e-18)
(1.97018 0.683456 -5.61346e-19)
(1.99224 0.729987 -3.55078e-20)
(2.01598 0.780455 0)
(2.03017 0.829224 1.47651e-19)
(2.00053 0.858072 1.74456e-19)
(1.85187 0.827343 2.20402e-19)
(1.45901 0.669905 -3.30395e-19)
(0.666866 0.309768 -8.34941e-20)
(2.02419 0.526309 9.67377e-19)
(2.0559 0.563758 -4.58269e-20)
(2.08516 0.601742 -1.15716e-18)
(2.11464 0.642825 0)
(2.14348 0.686919 0)
(2.15916 0.728567 0)
(2.12388 0.75087 1.4657e-18)
(1.95661 0.716357 -1.70771e-18)
(1.52521 0.570625 -1.13357e-18)
(0.683649 0.255943 -1.8181e-20)
(2.10652 0.443559 -1.31509e-18)
(2.1449 0.475239 -2.77042e-18)
(2.18175 0.507308 -4.83913e-21)
(2.2182 0.541813 5.63088e-19)
(2.25185 0.578581 -4.37618e-20)
(2.26811 0.611995 1.27125e-18)
(2.22453 0.625706 -7.07171e-19)
(2.03403 0.590651 -2.10503e-18)
(1.56338 0.461297 1.83176e-19)
(0.684421 0.197592 1.29458e-19)
(2.17363 0.350006 -1.07608e-18)
(2.21668 0.374835 1.8031e-20)
(2.25932 0.40002 4.20939e-19)
(2.30149 0.427146 -4.07908e-19)
(2.33884 0.455106 6.31046e-19)
(2.35318 0.479659 1.79518e-18)
(2.2972 0.487135 -2.37208e-19)
(2.07951 0.45317 -1.19675e-18)
(1.5726 0.343441 3.00926e-19)
(0.669133 0.137914 5.47907e-20)
(2.22501 0.245301 4.11623e-19)
(2.27091 0.262802 9.02916e-20)
(2.31746 0.280624 -4.51436e-19)
(2.36342 0.299743 -1.04408e-18)
(2.40201 0.319413 1.024e-19)
(2.41103 0.335422 1.08173e-19)
(2.33895 0.337318 -1.61311e-18)
(2.09236 0.30729 6.59994e-19)
(1.55232 0.222249 2.09583e-19)
(0.638826 0.0803114 -1.77984e-19)
(2.25887 0.130954 8.18801e-19)
(2.30643 0.141441 -1.25044e-18)
(2.35518 0.151584 2.00485e-19)
(2.40276 0.162554 2.61687e-18)
(2.43985 0.173778 1.3567e-18)
(2.44043 0.182102 -3.02792e-18)
(2.34874 0.180505 -3.07613e-18)
(2.07202 0.158369 1.51239e-18)
(1.50355 0.103717 7.67506e-21)
(0.595519 0.0278415 4.10919e-20)
(0.517593 0.224949 -1.85478e-19)
(0.480863 0.23275 -1.675e-19)
(0.437646 0.241145 9.17867e-20)
(0.389336 0.250151 -3.02531e-19)
(0.336244 0.259737 -3.77425e-20)
(0.27765 0.269416 2.58519e-19)
(0.212594 0.276567 6.54813e-20)
(0.141584 0.272279 -3.42515e-20)
(0.0716594 0.234768 8.93103e-23)
(0.012947 0.124128 2.06723e-20)
(0.547238 0.326291 1.49794e-19)
(0.511242 0.340526 2.06081e-19)
(0.469324 0.356161 3.76183e-20)
(0.42259 0.373164 -8.13926e-20)
(0.371211 0.391404 -2.85878e-19)
(0.314365 0.409975 8.73762e-21)
(0.25065 0.424427 1.49439e-19)
(0.179251 0.420134 1.08549e-20)
(0.104373 0.362359 -6.49664e-20)
(0.0303234 0.190304 -2.11402e-20)
(0.594299 0.423291 -1.55152e-19)
(0.55955 0.443752 -1.57164e-19)
(0.519788 0.46627 1.3758e-19)
(0.475672 0.490863 1.20607e-19)
(0.427138 0.517332 -6.58057e-20)
(0.373183 0.544351 -9.2809e-20)
(0.311672 0.565662 -9.02155e-20)
(0.239605 0.561103 -2.14871e-21)
(0.156496 0.483548 -4.08554e-20)
(0.0577027 0.252697 4.36709e-21)
(0.657633 0.514214 7.92498e-20)
(0.624609 0.540631 -1.73042e-20)
(0.58782 0.569494 -1.13692e-19)
(0.547304 0.600999 4.21695e-20)
(0.502661 0.634948 -8.35281e-20)
(0.452633 0.669598 2.44481e-20)
(0.394091 0.696924 -1.60665e-19)
(0.321029 0.691559 -2.26206e-20)
(0.226476 0.594973 -2.34603e-19)
(0.094141 0.309422 4.97774e-20)
(0.735928 0.596115 -2.14007e-20)
(0.705147 0.627855 -4.8054e-21)
(0.672187 0.662359 -4.40296e-20)
(0.636371 0.700132 -1.80125e-19)
(0.596816 0.740955 8.0421e-20)
(0.551837 0.782636 -5.2944e-20)
(0.497006 0.815439 1.27559e-19)
(0.422547 0.809094 -4.08039e-20)
(0.313191 0.69467 2.97937e-19)
(0.138831 0.359331 2.25994e-19)
(0.825183 0.670704 -1.67278e-20)
(0.796628 0.707308 -8.75627e-20)
(0.767833 0.74624 1.23066e-19)
(0.7372 0.788798 9.02379e-20)
(0.703477 0.834992 2.36014e-19)
(0.664577 0.882111 1.38582e-19)
(0.614426 0.918585 4.40326e-19)
(0.538642 0.909708 1.99884e-19)
(0.412172 0.778188 1.71398e-19)
(0.189506 0.399943 1.96362e-19)
(0.928289 0.727188 -9.61629e-20)
(0.904243 0.767714 3.43831e-19)
(0.881827 0.810639 2.14649e-19)
(0.858078 0.857529 -2.48183e-19)
(0.831002 0.908484 -1.30895e-19)
(0.798118 0.960548 4.97393e-19)
(0.751848 1.00075 -9.8088e-20)
(0.672835 0.990388 -3.11356e-19)
(0.524998 0.844723 -5.41085e-20)
(0.24614 0.431169 2.12346e-19)
(1.02739 0.781573 1.88904e-19)
(1.00522 0.824135 5.42519e-20)
(0.988672 0.868569 -5.89144e-19)
(0.973539 0.917947 7.87042e-20)
(0.956434 0.972027 3.8374e-19)
(0.933248 1.02678 -2.60031e-19)
(0.893695 1.0675 -6.01366e-20)
(0.812646 1.0524 -1.35777e-19)
(0.642624 0.892192 1.38197e-20)
(0.304712 0.451135 -2.90576e-19)
(1.14651 0.80151 2.18039e-20)
(1.1326 0.847197 -4.05095e-19)
(1.12293 0.893192 -3.22709e-21)
(1.11339 0.944427 3.3619e-19)
(1.10203 1.00167 -3.36546e-19)
(1.08501 1.06026 6.81522e-19)
(1.04953 1.10347 4.78174e-19)
(0.963638 1.08644 -7.46472e-19)
(0.767302 0.916871 -4.31442e-20)
(0.365038 0.459398 -2.99755e-19)
(1.23694 0.817279 -2.2975e-19)
(1.23386 0.863337 -2.28628e-19)
(1.24102 0.910664 2.46207e-19)
(1.24692 0.96295 5.57375e-19)
(1.24795 1.02032 2.2026e-19)
(1.24045 1.07839 -5.64981e-19)
(1.21003 1.12003 3.66412e-20)
(1.11859 1.09904 1.60803e-19)
(0.893933 0.922165 -2.21898e-19)
(0.425126 0.457553 -2.1423e-19)
(0.829611 0.0179368 6.15518e-21)
(1.13598 0.0418457 -1.73528e-20)
(0.948254 0.0534893 -1.21595e-20)
(1.02827 0.0578795 0)
(1.00194 0.0650656 1.86603e-20)
(0.979211 0.0761528 2.46109e-20)
(0.955945 0.0917269 3.21774e-20)
(0.904627 0.113387 6.71206e-20)
(0.839583 0.143234 -9.87407e-20)
(0.673299 0.184791 -1.15644e-19)
(0.829178 0.0150797 3.59555e-20)
(1.1355 0.040557 -5.75159e-20)
(0.948332 0.0547265 -2.18412e-22)
(1.02975 0.059514 -1.50671e-20)
(1.0045 0.0687152 9.694e-21)
(0.983339 0.0821253 -1.24115e-20)
(0.961526 0.102846 -7.88143e-20)
(0.913512 0.130705 0)
(0.849985 0.180153 2.10971e-19)
(0.697649 0.25072 -2.52304e-19)
(0.828541 0.0124117 -3.61334e-20)
(1.13534 0.0392152 1.60185e-20)
(0.948348 0.055737 3.54854e-20)
(1.03172 0.0608742 1.18712e-20)
(1.0074 0.0720939 -2.34201e-20)
(0.98827 0.0878972 8.20032e-22)
(0.968079 0.113639 -5.58388e-20)
(0.925551 0.147984 -5.12106e-21)
(0.863726 0.216479 2.45733e-22)
(0.735415 0.314256 6.31438e-19)
(0.827705 0.00996705 -2.14115e-20)
(1.13544 0.0378296 2.70722e-21)
(0.948304 0.0564915 2.89538e-20)
(1.03419 0.061954 1.77267e-20)
(1.01066 0.0751839 -1.08742e-20)
(0.993984 0.0934461 -1.40743e-20)
(0.975738 0.123986 8.30236e-20)
(0.940558 0.165159 -1.53929e-21)
(0.881065 0.251374 -2.4652e-19)
(0.786019 0.374621 6.9383e-20)
(0.826677 0.00777339 1.56027e-20)
(1.13573 0.036388 -3.13913e-20)
(0.948208 0.0569539 -2.24775e-20)
(1.03717 0.0627455 9.59946e-21)
(1.01431 0.0779715 0)
(1.00045 0.098749 0)
(0.984662 0.133816 7.07356e-20)
(0.958199 0.182183 3.70191e-22)
(0.902465 0.283896 -1.16397e-19)
(0.848537 0.430902 9.06166e-20)
(0.825468 0.00589244 3.09469e-21)
(1.13613 0.0348774 2.58871e-20)
(0.948075 0.0570869 -5.55322e-20)
(1.04065 0.0632403 -2.6498e-20)
(1.01837 0.0804467 1.15271e-22)
(1.00763 0.103777 5.82963e-20)
(0.995009 0.143096 1.10163e-19)
(0.978035 0.199078 -6.34845e-22)
(0.928484 0.313088 1.9207e-19)
(0.921598 0.484201 -2.01648e-19)
(0.824086 0.00434367 -2.23865e-20)
(1.13654 0.0332728 1.37119e-20)
(0.947926 0.0568523 -1.2926e-20)
(1.04463 0.0634316 -5.03809e-20)
(1.02283 0.0825992 7.73982e-23)
(1.01552 0.108493 -1.19515e-21)
(1.00692 0.15175 -6.58916e-21)
(0.999546 0.215912 -2.01085e-19)
(0.960178 0.337957 1.44294e-19)
(1.00185 0.52981 -4.76469e-19)
(0.822534 0.00314643 1.51955e-21)
(1.13689 0.0315237 -3.99691e-20)
(0.947805 0.0562086 2.69883e-20)
(1.04911 0.0633141 3.19248e-20)
(1.0277 0.0844161 1.8369e-22)
(1.0241 0.112849 -6.81698e-20)
(1.02052 0.159645 -6.05197e-20)
(1.02238 0.232598 3.60579e-19)
(0.99765 0.359254 1.18323e-20)
(1.09027 0.581361 7.59211e-19)
(0.820767 0.00228951 7.54195e-21)
(1.13732 0.0295751 1.79426e-20)
(0.947793 0.0550922 2.65021e-20)
(1.0541 0.0628932 -3.41345e-20)
(1.03296 0.0858936 -6.99553e-20)
(1.03332 0.116785 1.42054e-21)
(1.03573 0.166475 -8.31504e-20)
(1.04636 0.246541 4.67316e-19)
(1.04691 0.369898 -7.50444e-21)
(1.16528 0.60674 -1.04197e-18)
(0.818563 0.00218429 2.66655e-21)
(1.13869 0.0277019 2.7427e-20)
(0.947844 0.0535704 1.14011e-20)
(1.05976 0.0622768 -7.14708e-20)
(1.03836 0.0872586 -6.66465e-20)
(1.04238 0.12111 -5.76855e-20)
(1.04993 0.175483 -1.48735e-19)
(1.06666 0.265577 -4.30566e-19)
(1.09021 0.395973 -2.45521e-19)
(1.27621 0.667788 -1.12488e-18)
(0.815559 0.0012397 -7.54921e-21)
(1.14235 0.0246646 -5.92478e-21)
(0.94893 0.0501216 -1.13748e-20)
(1.06636 0.0600661 2.0518e-20)
(1.04758 0.0857421 4.99898e-20)
(1.05744 0.120562 -3.977e-20)
(1.0749 0.17465 1.32172e-19)
(1.10155 0.264896 -4.15869e-19)
(1.16895 0.362664 -1.79618e-19)
(1.2766 0.668858 5.9773e-19)
(0.815303 -0.00197912 5.45732e-21)
(1.1466 0.0202502 1.21523e-20)
(0.953706 0.0438961 -4.93076e-21)
(1.07266 0.0556328 4.93921e-20)
(1.05866 0.0806121 7.8932e-20)
(1.07398 0.114421 1.165e-19)
(1.0999 0.165365 2.78598e-20)
(1.13914 0.245217 2.14662e-19)
(1.22916 0.33077 2.81559e-19)
(1.31968 0.583593 4.40601e-21)
(0.815054 -0.00554898 -7.85307e-21)
(1.15137 0.0152859 -3.48887e-21)
(0.959272 0.0374482 7.7457e-23)
(1.07916 0.0502743 9.3668e-21)
(1.06943 0.0740854 2.21383e-34)
(1.08963 0.105882 -7.91159e-21)
(1.12165 0.152271 -5.36753e-34)
(1.17503 0.222023 1.81424e-20)
(1.26244 0.29059 -5.3077e-20)
(1.3844 0.505817 -4.99403e-20)
(0.814922 -0.0103757 2.22328e-20)
(1.15663 0.00937931 -3.85975e-35)
(0.965098 0.0306311 -4.31878e-22)
(1.08561 0.0440197 -1.9884e-20)
(1.07952 0.0661925 -3.23949e-20)
(1.10388 0.0952627 -3.92986e-20)
(1.14064 0.136048 -6.59102e-34)
(1.20567 0.196354 -8.94901e-20)
(1.28609 0.248942 -1.33482e-19)
(1.43673 0.425137 8.94435e-20)
(0.814979 -0.0163857 0)
(1.16261 0.00253673 3.55863e-35)
(0.971175 0.0235464 0)
(1.09182 0.0370643 0)
(1.08867 0.0571213 0)
(1.11636 0.0828744 0)
(1.15709 0.117383 -3.95371e-34)
(1.22992 0.168617 0)
(1.30646 0.206878 -1.97262e-20)
(1.46894 0.344969 5.38705e-20)
(0.81523 -0.0236258 9.30362e-21)
(1.16973 -0.00487659 1.65417e-21)
(0.977642 0.0165387 -1.1464e-21)
(1.09766 0.029696 0)
(1.09672 0.0471266 0)
(1.12691 0.069058 6.68576e-21)
(1.17093 0.0970514 2.82755e-20)
(1.24818 0.139014 -1.36353e-20)
(1.32409 0.165585 -2.89757e-20)
(1.48591 0.268776 2.05291e-19)
(0.815859 -0.0340884 -6.42848e-20)
(1.17828 -0.0141218 1.84578e-21)
(0.984431 0.00863054 -1.46978e-21)
(1.10284 0.0219499 -7.48717e-21)
(1.10338 0.0364134 -1.19923e-20)
(1.13535 0.0541415 -9.57841e-21)
(1.18197 0.0756011 -2.15616e-20)
(1.26139 0.107928 -3.77784e-20)
(1.33808 0.125753 -5.31534e-20)
(1.49388 0.197674 7.62141e-20)
(0.81657 -0.040163 -1.42508e-20)
(1.187 -0.0205945 -1.40063e-20)
(0.990044 0.00530556 -1.84955e-21)
(1.10576 0.0148993 -7.67078e-21)
(1.10677 0.025252 3.51443e-35)
(1.13998 0.0384119 7.19674e-21)
(1.18861 0.0533383 -9.31743e-34)
(1.26927 0.0756318 -1.38212e-20)
(1.34644 0.0872798 1.80057e-20)
(1.49753 0.130192 2.61704e-20)
(0.814194 -0.0682745 1.73818e-19)
(1.1661 -0.0365538 -6.7171e-21)
(0.964331 -0.00427755 -1.86107e-21)
(1.07729 0.00830332 4.31293e-21)
(1.07883 0.0140001 3.99285e-21)
(1.11354 0.0227875 1.4533e-20)
(1.1638 0.0314869 8.45429e-21)
(1.246 0.0446336 -4.75856e-21)
(1.32105 0.0509689 -1.94041e-20)
(1.4784 0.0715731 1.37779e-19)
(0.733812 -0.0395535 1.39991e-20)
(0.889271 -0.0234826 -7.49557e-35)
(0.680544 -0.00103971 -2.76953e-21)
(0.779202 -7.12177e-05 0)
(0.769152 0.00269033 0)
(0.799109 0.00451779 7.42685e-21)
(0.84192 0.00592953 -8.63505e-36)
(0.907446 0.00894175 -1.37434e-20)
(0.972554 0.00948522 -2.62873e-20)
(1.09084 0.0131042 5.66632e-20)
(1.47106 0.684795 -1.75516e-19)
(1.57172 0.660682 -2.72363e-19)
(1.6831 0.62322 0)
(1.7878 0.572595 1.10684e-19)
(1.88084 0.513194 5.20704e-19)
(1.96214 0.44813 -1.30136e-19)
(2.03268 0.3765 1.52306e-18)
(2.09205 0.296628 -7.30941e-20)
(2.13849 0.207773 -3.6024e-19)
(2.16955 0.109825 3.35844e-19)
(1.51895 0.552709 7.67505e-20)
(1.59769 0.529297 1.08982e-19)
(1.68485 0.492562 -6.87211e-21)
(1.76848 0.445932 1.79957e-19)
(1.84313 0.395094 -1.56302e-19)
(1.90778 0.342717 -3.82608e-19)
(1.96419 0.287136 -1.05616e-19)
(2.01263 0.225947 5.29399e-19)
(2.05214 0.157897 -2.16293e-20)