# Selection   : all
# Cells       : 440
# Volume      : 7.374263e+01
# Time        	minMag(U)
1             	2.431000e-02
1.05          	3.526335e-02
1.1           	1.470331e-02
