/*--------------------------------*- C++ -*----------------------------------*\
  =========                 |
  \\      /  F ield         | OpenFOAM: The Open Source CFD Toolbox
   \\    /   O peration     | Website:  https://openfoam.org
    \\  /    A nd           | Version:  13
     \\/     M anipulation  |
\*---------------------------------------------------------------------------*/
FoamFile
{
    format      ascii;
    class       volScalarField;
    location    "6.87";
    object      p;
}
// * * * * * * * * * * * * * * * * * * * * * * * * * * * * * * * * * * * * * //

dimensions      [0 2 -2 0 0 0 0];

internalField   nonuniform List<scalar> 
440
(
-0.775807
-0.760385
-0.775582
-0.756976
-0.856731
-0.801692
-0.783506
-0.766323
-0.748982
-0.744131
-0.895129
-0.863015
-0.825415
-0.782057
-0.735026
-1.00913
-0.958655
-0.875048
-0.77533
-0.6745
-1.08833
-1.02176
-0.877082
-0.727843
-0.59171
-0.578334
-0.578953
-0.583908
-0.593551
-0.604559
-0.556599
-0.56209
-0.57312
-0.587508
-0.601688
-0.583098
-0.591565
-0.607195
-0.627298
-0.644801
-0.669984
-0.681654
-0.705772
-0.74284
-0.782189
-0.749415
-0.755089
-0.775339
-0.792706
-0.847902
-0.669301
-0.515186
-0.70213
-0.335086
-0.2254
-0.655131
-0.325363
-0.807919
-0.373281
-0.190809
-0.620707
-0.00665734
-0.785445
-0.549807
-0.152989
-0.605984
0.332561
-0.613273
-0.705047
-0.13154
-0.621663
0.503533
-0.396813
-0.762186
-0.125391
-0.421605
0.574682
-0.173014
-0.709883
-0.128656
-0.138101
0.380418
0.025896
-0.432758
-0.134622
-0.141506
0.413908
0.233679
-0.158133
-0.124635
-0.048942
0.476028
0.34367
-0.0513616
-0.120907
-0.00476875
0.508089
0.485162
0.0900505
-0.116818
-0.359654
-0.47909
-0.663787
-0.836212
-0.973308
-0.111537
-0.233723
-0.320522
-0.365941
-0.368903
0.0619481
-0.0475248
-0.113939
-0.162814
-0.187727
0.162708
0.0573706
-0.0153528
-0.0640145
-0.0859906
0.205109
0.100288
0.0268387
-0.0195401
-0.0323519
1.04007
0.895422
0.710516
0.501761
0.269629
0.613288
0.456652
0.265433
0.0471104
-0.202736
0.196661
0.0372945
-0.164933
-0.392692
-0.621581
-0.171698
-0.335337
-0.535467
-0.752426
-0.925488
-0.421118
-0.582334
-0.767955
-0.962453
-1.07253
2.22084
2.25171
2.2803
2.29534
2.29319
2.02452
2.04526
2.06084
2.05963
2.03751
1.79246
1.78334
1.75231
1.69873
1.61887
1.5322
1.49972
1.43305
1.33557
1.20817
1.28993
1.19067
1.06098
0.908697
0.722377
1.98038
1.969
1.95926
2.01702
2.10497
1.96975
1.95553
1.93915
1.98965
2.01144
1.96012
1.9388
1.91661
1.95011
1.89404
1.95177
1.91945
1.89163
1.90021
1.723
1.94464
1.89943
1.86526
1.84401
1.54474
1.93908
1.86719
1.8309
1.74156
1.34203
1.93638
1.83307
1.81171
1.63863
1.40721
1.94481
1.81476
1.79778
1.5748
1.38567
1.93615
1.79173
1.79175
1.5215
1.33574
1.97469
1.78216
1.78978
1.49683
1.31683
1.00077
0.690015
0.338852
0.0287469
-0.175542
0.901695
0.677735
0.436533
0.220134
0.0397164
0.881409
0.701468
0.518865
0.350467
0.191227
0.909087
0.747845
0.58622
0.43248
0.286819
0.932846
0.778708
0.624442
0.473936
0.330544
-1.04087
-0.903865
-0.742022
-0.610378
-0.533143
-1.07726
-1.01799
-0.898512
-0.802055
-0.746646
-0.977478
-0.930186
-0.864163
-0.812056
-0.782458
-0.810238
-0.770992
-0.731608
-0.702392
-0.686083
-0.680173
-0.659563
-0.633752
-0.615753
-0.639031
-0.602381
-0.591466
-0.563695
-0.550539
-0.53279
-0.601002
-0.588325
-0.564988
-0.546756
-0.54789
-0.635432
-0.623059
-0.607526
-0.596219
-0.597038
-0.651777
-0.643608
-0.638223
-0.641451
-0.649598
-0.628956
-0.624315
-0.62291
-0.629755
-0.638506
-0.642441
-0.610091
-0.214407
-0.151109
-0.0152059
-0.62028
-0.576125
-0.210894
-0.169165
-0.0327929
-0.607504
-0.597036
-0.260485
-0.21909
-0.0868868
-0.665787
-0.633932
-0.377631
-0.280897
-0.161328
-0.677648
-0.607994
-0.535767
-0.325128
-0.216125
-0.185224
-0.701008
-0.337776
-0.183379
-0.0126808
-0.542359
-0.701013
-0.26086
-0.142793
-0.00636535
-0.489214
-0.731027
-0.757496
-0.7168
-0.49109
-0.508239
-0.727027
-0.770742
-0.698022
-0.698682
1.94594
1.92235
1.88097
1.82282
1.74609
2.11665
2.13673
2.14051
2.12668
2.09636
2.25856
2.29152
2.31597
2.32786
2.32561
2.33417
2.37385
2.41538
2.44911
2.46459
2.31991
2.3575
2.3991
2.43407
2.45021
-0.0953272
-0.198056
-0.360795
-0.557591
-0.787302
0.489721
0.354266
0.173038
-0.0450426
-0.322255
1.01182
0.869811
0.700774
0.501419
0.250165
1.42805
1.31959
1.18651
1.02384
0.826284
1.75796
1.6816
1.58154
1.46157
1.3203
2.04765
2.00596
2.00338
2.022
2.05675
2.03161
2.00145
2.00024
2.03431
2.10788
2.01747
1.99577
1.9971
2.04773
2.17133
2.0042
1.98894
1.98849
2.04766
2.17338
1.99182
1.98044
1.97556
2.03758
2.15636
2.10324
2.01454
1.99458
1.95302
1.94617
2.05874
2.00437
1.9884
1.97098
1.95181
1.64549
1.4439
1.07854
0.536516
-0.065317
1.72574
1.47334
1.09218
0.555437
-0.0566201
)
;

boundaryField
{
    left
    {
        type            zeroGradient;
    }
    right
    {
        type            fixedValue;
        value           uniform 0;
    }
    down
    {
        type            zeroGradient;
    }
    up
    {
        type            zeroGradient;
    }
    cylinder
    {
        type            zeroGradient;
    }
    defaultFaces
    {
        type            empty;
    }
}


// ************************************************************************* //
