/*--------------------------------*- C++ -*----------------------------------*\
  =========                 |
  \\      /  F ield         | OpenFOAM: The Open Source CFD Toolbox
   \\    /   O peration     | Website:  https://openfoam.org
    \\  /    A nd           | Version:  13
     \\/     M anipulation  |
\*---------------------------------------------------------------------------*/
FoamFile
{
    format      ascii;
    class       volScalarField;
    location    "25.1";
    object      p;
}
// * * * * * * * * * * * * * * * * * * * * * * * * * * * * * * * * * * * * * //

dimensions      [0 2 -2 0 0 0 0];

internalField   nonuniform List<scalar> 
440
(
-1.29894
-1.28336
-1.27868
-1.2763
-1.30795
-1.35994
-1.33864
-1.3139
-1.28469
-1.25125
-1.49219
-1.45224
-1.39402
-1.3151
-1.22512
-1.6184
-1.56015
-1.44043
-1.29628
-1.15077
-1.68792
-1.60455
-1.41993
-1.22907
-1.05583
-0.687642
-0.6869
-0.692119
-0.704883
-0.715501
-0.967339
-0.987899
-1.03509
-1.11475
-1.2071
-1.18392
-1.20295
-1.24664
-1.32241
-1.43219
-1.24399
-1.2435
-1.24812
-1.26387
-1.30035
-1.2562
-1.24637
-1.23894
-1.23569
-1.23548
-0.612628
0.382154
-0.785269
-0.642143
-0.20096
-0.928431
0.55779
-0.98441
-0.736544
-0.204339
-1.24593
0.396897
-1.10684
-0.662422
-0.196173
-1.26708
0.250948
-0.96512
-0.517725
-0.173062
-1.14319
0.388248
-0.393192
-0.450917
-0.145292
-0.860629
0.678768
0.36084
-0.493424
-0.123216
-0.432806
0.393222
0.286581
-0.356893
-0.102325
-0.263851
0.483331
0.528687
-0.100659
-0.0889693
-0.149722
0.381207
0.535193
0.0442269
-0.0841885
-0.107117
0.426892
0.607487
0.188049
-0.0683494
-0.76191
-0.877831
-1.03093
-1.16875
-1.3161
-0.459669
-0.577774
-0.652859
-0.697676
-0.7027
-0.26208
-0.36178
-0.41132
-0.436109
-0.433448
-0.145939
-0.232167
-0.280981
-0.297336
-0.286802
-0.0931376
-0.177141
-0.223931
-0.237342
-0.216834
0.672414
0.515668
0.317121
0.0912165
-0.162322
0.219997
0.0505911
-0.155926
-0.393051
-0.668837
-0.219172
-0.397271
-0.62098
-0.869315
-1.13268
-0.605035
-0.790574
-1.02095
-1.26781
-1.47538
-0.873479
-1.06485
-1.28446
-1.51402
-1.65366
1.91628
1.94476
1.97087
1.98295
1.97758
1.70571
1.72256
1.73242
1.72455
1.6947
1.46433
1.45144
1.41458
1.35328
1.26374
1.18743
1.14973
1.07554
0.968299
0.82788
0.934581
0.826437
0.685883
0.520895
0.318226
1.70194
1.6872
1.67752
1.73215
1.81457
1.69024
1.67342
1.65476
1.70103
1.71385
1.67959
1.65706
1.62967
1.65777
1.58621
1.67015
1.63876
1.60194
1.60468
1.4038
1.66198
1.61896
1.57271
1.54606
1.21279
1.65465
1.59094
1.53539
1.44389
0.998375
1.64786
1.55319
1.50518
1.35175
1.06129
1.65516
1.53019
1.47496
1.29942
1.03084
1.64387
1.5063
1.45565
1.26252
0.991811
1.68353
1.50167
1.44717
1.24413
0.97041
0.643694
0.313713
-0.0462691
-0.367399
-0.574699
0.553578
0.33054
0.0874286
-0.130462
-0.316247
0.551244
0.37729
0.192569
0.0224697
-0.139991
0.583228
0.428072
0.268996
0.116921
-0.0295378
0.59894
0.455448
0.308325
0.161689
0.019943
-0.866811
-0.749815
-0.602136
-0.481699
-0.41004
-0.902212
-0.848008
-0.737295
-0.647203
-0.592687
-0.811786
-0.766764
-0.704818
-0.651699
-0.615542
-0.660956
-0.624265
-0.5876
-0.559379
-0.539617
-0.549476
-0.530069
-0.506612
-0.49746
-0.520522
-0.494108
-0.488067
-0.466367
-0.47768
-0.456492
-0.476055
-0.473156
-0.462942
-0.462721
-0.453305
-0.482347
-0.478151
-0.468501
-0.455068
-0.442371
-0.507174
-0.499207
-0.487391
-0.470971
-0.44867
-0.549194
-0.542622
-0.530342
-0.513705
-0.495997
-0.51848
-0.100115
-0.0457841
-0.521975
-0.0270491
-0.477595
-0.0742133
-0.132211
-0.510966
-0.0844803
-0.355178
-0.0493516
-0.240516
-0.52743
-0.134846
-0.387791
-0.00956194
-0.385874
-0.546206
-0.17075
-0.477191
0.0534273
-0.570192
-0.547632
-0.190708
-0.00934922
-0.225538
-0.0162193
-0.48706
0.0794157
-0.412436
-0.205061
0.0361068
-0.500945
0.031844
-0.370078
-0.578692
-0.568301
-0.541598
-0.307603
-0.386962
-0.57204
-0.591523
-0.535013
-0.54115
1.73886
1.72171
1.68897
1.64207
1.58025
1.88591
1.90847
1.91702
1.91025
1.88925
2.00678
2.04051
2.06643
2.08075
2.08191
2.06254
2.10141
2.14222
2.17576
2.19178
2.03371
2.06951
2.1086
2.14057
2.15458
-0.0324746
-0.125153
-0.270538
-0.447048
-0.64011
0.47579
0.356266
0.196176
0.00374152
-0.230109
0.931498
0.806829
0.657822
0.48271
0.270152
1.2906
1.196
1.08042
0.940236
0.773923
1.5752
1.51133
1.42669
1.32484
1.20664
1.77211
1.72987
1.73326
1.76247
1.8156
1.75567
1.72456
1.72787
1.77006
1.85271
1.74118
1.7177
1.72211
1.77776
1.90455
1.72737
1.70941
1.71125
1.77285
1.89863
1.71425
1.69945
1.69602
1.75769
1.87377
1.83008
1.73982
1.72881
1.70224
1.71661
1.78363
1.72912
1.72127
1.71962
1.72361
1.47671
1.30713
0.991157
0.517283
-0.00454478
1.54481
1.33066
1.00187
0.533859
0.00269605
)
;

boundaryField
{
    left
    {
        type            zeroGradient;
    }
    right
    {
        type            fixedValue;
        value           uniform 0;
    }
    down
    {
        type            zeroGradient;
    }
    up
    {
        type            zeroGradient;
    }
    cylinder
    {
        type            zeroGradient;
    }
    defaultFaces
    {
        type            empty;
    }
}


// ************************************************************************* //
