/*--------------------------------*- C++ -*----------------------------------*\
  =========                 |
  \\      /  F ield         | OpenFOAM: The Open Source CFD Toolbox
   \\    /   O peration     | Website:  https://openfoam.org
    \\  /    A nd           | Version:  13
     \\/     M anipulation  |
\*---------------------------------------------------------------------------*/
FoamFile
{
    format      ascii;
    class       volScalarField;
    location    "79.7";
    object      p;
}
// * * * * * * * * * * * * * * * * * * * * * * * * * * * * * * * * * * * * * //

dimensions      [0 2 -2 0 0 0 0];

internalField   nonuniform List<scalar> 
440
(
-1.17122
-1.14925
-1.13863
-1.1287
-1.1859
-1.23283
-1.20717
-1.18127
-1.15593
-1.1317
-1.36197
-1.31922
-1.26376
-1.19219
-1.11603
-1.49746
-1.4399
-1.32048
-1.18214
-1.04304
-1.57383
-1.49033
-1.30564
-1.11719
-0.948124
-0.971229
-1.01862
-1.15036
-1.36118
-1.61448
-1.21826
-1.23377
-1.28397
-1.36121
-1.46782
-1.1972
-1.17838
-1.15786
-1.14578
-1.15644
-1.1813
-1.16354
-1.15057
-1.15439
-1.19368
-1.15968
-1.14041
-1.12428
-1.11498
-1.13647
-0.71097
-0.0868319
-0.350319
0.0928806
-0.120856
-0.904829
-0.224518
-0.22162
0.127885
-0.134428
-1.04428
-0.164859
0.168765
0.159918
-0.173227
-1.27447
-0.102724
0.661555
0.193757
-0.194518
-1.29156
-0.157413
0.720734
0.259945
-0.161019
-0.974413
-0.0933796
0.397714
0.313457
-0.083717
-0.500304
0.170724
0.177438
0.249357
0.0100028
-0.303609
0.277652
0.537019
0.23752
0.0363102
-0.138472
0.215408
0.550402
0.27251
0.023319
-0.0581574
0.178635
0.624791
0.390484
0.0541996
-0.662852
-0.784447
-0.95142
-1.11109
-1.29373
-0.382788
-0.503706
-0.595261
-0.654839
-0.694468
-0.19374
-0.299463
-0.354998
-0.390804
-0.406346
-0.0805706
-0.171079
-0.220203
-0.241779
-0.23827
-0.0274402
-0.114507
-0.160433
-0.174132
-0.154281
0.797176
0.634502
0.426696
0.194421
-0.0597844
0.344209
0.170501
-0.0397011
-0.280243
-0.559143
-0.0957359
-0.274593
-0.499797
-0.749149
-1.02046
-0.492695
-0.674107
-0.907073
-1.15352
-1.36711
-0.758392
-0.951408
-1.1723
-1.40258
-1.54611
1.98093
2.00798
2.03087
2.03877
2.02924
1.76601
1.78201
1.79099
1.78192
1.75041
1.53471
1.51633
1.47299
1.40539
1.30948
1.26554
1.22678
1.14957
1.03923
0.897452
1.03548
0.919954
0.771848
0.602533
0.396914
1.78153
1.77059
1.75043
1.81666
1.88231
1.76969
1.7577
1.72655
1.78932
1.77738
1.75896
1.74221
1.7006
1.74897
1.64814
1.74945
1.72495
1.67262
1.69662
1.46275
1.74124
1.70619
1.64347
1.64131
1.26764
1.73436
1.67952
1.60717
1.53177
1.05263
1.72787
1.64755
1.58629
1.42378
1.18226
1.73462
1.62972
1.5588
1.37816
1.19784
1.72801
1.60106
1.543
1.32723
1.20633
1.76482
1.59859
1.53396
1.30017
1.21446
0.759531
0.436109
0.0746687
-0.251534
-0.461447
0.644567
0.416387
0.171771
-0.0466197
-0.233331
0.632013
0.446705
0.26175
0.0942537
-0.0696202
0.693856
0.511827
0.338781
0.182859
0.0363254
0.718831
0.538067
0.374482
0.227047
0.0869486
-0.693109
-0.58789
-0.450694
-0.339803
-0.273588
-0.746811
-0.693988
-0.591902
-0.510254
-0.462314
-0.67542
-0.632327
-0.576535
-0.531256
-0.503469
-0.543892
-0.510706
-0.476243
-0.451188
-0.434507
-0.449538
-0.431332
-0.412366
-0.402125
-0.423984
-0.398958
-0.391985
-0.3774
-0.37574
-0.357102
-0.394458
-0.393489
-0.391465
-0.399271
-0.405469
-0.370577
-0.375066
-0.39001
-0.416454
-0.438587
-0.361761
-0.359407
-0.362386
-0.364236
-0.34984
-0.361586
-0.407133
-0.522665
-0.679139
-0.760888
-0.493889
0.713304
0.258902
0.0253968
-0.0491893
-0.424494
0.827136
0.166518
0.0162269
-0.0756508
-0.296956
0.9135
0.0563988
0.0234888
-0.0941174
-0.196975
0.774465
-0.0555443
0.0444991
-0.106318
-0.402844
0.338467
-0.229057
0.0686977
-0.112257
-0.0238755
0.462917
0.260443
0.0400595
0.00712165
-0.372273
0.527482
0.317278
0.0535611
-0.0149103
-0.235221
-0.451339
-0.461877
-0.451192
-0.234606
-0.25158
-0.446028
-0.485893
-0.438968
-0.454739
1.79937
1.78601
1.75802
1.71685
1.66222
1.94929
1.9724
1.98298
1.97958
1.96288
2.0707
2.10487
2.1328
2.15002
2.15402
2.12714
2.16543
2.20561
2.23839
2.25404
2.09665
2.13095
2.16812
2.19808
2.21069
0.0916321
0.00632475
-0.126845
-0.290417
-0.461684
0.579823
0.469163
0.320534
0.14324
-0.0661337
1.01599
0.900185
0.762168
0.60104
0.41018
1.36029
1.27276
1.16588
1.03732
0.886919
1.63394
1.5757
1.49932
1.4079
1.30224
1.85162
1.81045
1.80834
1.83623
1.88163
1.83518
1.80543
1.80361
1.84471
1.92047
1.82076
1.79902
1.79736
1.85393
1.9712
1.80701
1.7913
1.78613
1.8515
1.96697
1.79388
1.78207
1.77
1.83936
1.94129
1.90999
1.82065
1.80389
1.77619
1.77472
1.86323
1.80971
1.79663
1.79209
1.7882
1.53955
1.37333
1.06862
0.615889
0.117301
1.60344
1.39591
1.08038
0.632697
0.124366
)
;

boundaryField
{
    left
    {
        type            zeroGradient;
    }
    right
    {
        type            fixedValue;
        value           uniform 0;
    }
    down
    {
        type            zeroGradient;
    }
    up
    {
        type            zeroGradient;
    }
    cylinder
    {
        type            zeroGradient;
    }
    defaultFaces
    {
        type            empty;
    }
}


// ************************************************************************* //
