# Selection   : all
# Cells       : 1800
# Volume      : 7.372328e+01
# Time        	max(p)
4.65          	1.196698e+00
4.675         	1.799721e+00
4.7           	1.852414e+00
