# Selection   : all
# Cells       : 440
# Volume      : 7.374263e+01
# Time        	minMag(U)
1.9           	5.569048e-02
1.95          	4.655627e-02
2             	2.534279e-02
