/*--------------------------------*- C++ -*----------------------------------*\
  =========                 |
  \\      /  F ield         | OpenFOAM: The Open Source CFD Toolbox
   \\    /   O peration     | Website:  https://openfoam.org
    \\  /    A nd           | Version:  13
     \\/     M anipulation  |
\*---------------------------------------------------------------------------*/
FoamFile
{
    format      ascii;
    class       volScalarField;
    location    "0.875";
    object      p;
}
// * * * * * * * * * * * * * * * * * * * * * * * * * * * * * * * * * * * * * //

dimensions      [0 2 -2 0 0 0 0];

internalField   nonuniform List<scalar> 
1800
(
5.75032
7.85742
10.0102
11.4386
12.273
12.6835
12.8143
12.6566
11.41
7.31737
9.59911
12.0748
14.5797
16.2637
17.3202
17.9829
18.4374
18.6763
17.9515
15.2733
15.9908
18.6155
21.2882
23.1514
24.4116
25.2932
25.9439
26.3271
25.8557
24.0244
24.9854
27.5548
30.2032
32.1176
33.4829
34.4919
35.2542
35.7061
35.2999
33.615
36.0436
38.4044
40.8566
42.6682
43.9925
44.9887
45.7431
46.1924
45.8421
44.2864
48.7201
50.7726
52.9163
54.5225
55.7135
56.6157
57.2979
57.7084
57.4272
56.0677
62.6683
64.341
66.0967
67.4287
68.4307
69.2003
69.7917
70.1686
69.9935
68.9047
77.5938
78.8354
80.1464
81.1557
81.9316
82.5454
83.0396
83.3944
83.361
82.6245
93.2117
93.9914
94.8229
95.4778
96.0006
96.438
96.8208
97.1442
97.2544
96.9199
109.24
109.545
109.877
110.151
110.389
110.61
110.827
111.041
111.202
111.229
-0.603089
-0.856244
-0.633245
-0.218342
0.254685
0.72305
1.08274
1.29348
1.43863
1.58563
-0.470108
-0.987116
-1.09835
-0.893243
-0.469477
-0.0458794
0.246055
0.488299
0.7688
1.04269
0.535285
-0.434228
-1.26984
-1.43694
-1.11004
-0.805327
-0.593254
-0.288505
0.119006
0.505021
0.929742
-0.213477
-1.41505
-1.75456
-1.5344
-1.3824
-1.25937
-0.955178
-0.49845
0.00928819
0.497513
-0.471916
-1.41487
-1.70675
-1.65
-1.6624
-1.62793
-1.36742
-0.876817
-0.182946
-0.208514
-0.726349
-1.12833
-1.25841
-1.2796
-1.3463
-1.34033
-1.13321
-0.609623
0.322301
-0.546407
-0.509119
-0.333376
-0.187781
-0.103672
-0.0841038
-0.0469164
0.121666
0.698372
1.92785
-0.065187
0.520943
1.24158
1.74577
2.07504
2.28776
2.43645
2.65217
3.38187
5.0435
1.38036
2.48825
3.73655
4.65791
5.32777
5.81986
6.15949
6.4981
7.48429
9.77124
3.62097
5.26384
7.08197
8.45785
9.48053
10.2406
10.7628
11.2155
12.2761
14.4388
2.3045
2.44374
2.33606
2.09004
1.58465
1.18183
0.866232
0.595213
0.353437
0.138338
1.95662
2.4214
2.23306
2.00813
1.50237
1.10305
0.81517
0.578953
0.360714
0.149582
1.47951
2.39238
2.13249
1.91726
1.42839
1.03762
0.769092
0.55939
0.364779
0.160062
0.854592
2.30964
2.03244
1.81189
1.35402
0.980499
0.729906
0.541593
0.361334
0.169473
0.159835
2.13313
1.92136
1.6897
1.2731
0.92701
0.696219
0.526463
0.350484
0.17546
-0.413677
1.85352
1.78213
1.54938
1.18212
0.873848
0.666414
0.512842
0.35428
0.175882
-0.563905
1.50445
1.60169
1.38868
1.07932
0.818947
0.638785
0.500581
0.35802
0.170167
0.164153
1.17463
1.37109
1.19882
0.961345
0.760486
0.6116
0.489206
0.349981
0.158996
2.42025
1.03791
1.06969
0.955199
0.819993
0.696091
0.5844
0.472872
0.331542
0.141563
6.65496
1.40658
0.711769
0.637529
0.648114
0.62557
0.555101
0.450926
0.307568
0.121386
9.97964
2.57577
0.68734
0.395243
0.472617
0.549613
0.516521
0.417473
0.27411
0.094485
11.7644
2.57246
0.267822
0.064207
0.362529
0.517652
0.481515
0.371989
0.228594
0.0593085
12.8639
2.78075
0.400718
0.161675
0.477492
0.579263
0.48335
0.341142
0.188033
0.0251285
14.1864
4.36962
1.2861
0.73529
0.796217
0.72568
0.526266
0.329287
0.156323
-0.00566345
16.3631
7.1128
2.70468
1.59671
1.24523
0.939935
0.609877
0.339768
0.137185
-0.0301744
19.2525
9.87666
4.33585
2.56006
1.77336
1.20384
0.725916
0.371873
0.132592
-0.0460589
21.7561
11.9375
5.85278
3.519
2.33836
1.49806
0.864077
0.422279
0.142524
-0.0519838
23.0351
13.1204
7.04991
4.41879
2.91153
1.80879
1.01682
0.487523
0.165932
-0.0474835
22.975
13.4995
7.91082
5.2661
3.50077
2.14372
1.1908
0.571906
0.206548
-0.0309879
22.4222
13.7246
8.68231
6.12727
4.12722
2.52269
1.40825
0.693277
0.285128
0.00347828
111.785
97.8399
84.0753
71.0701
59.1308
48.3507
38.7694
30.0929
20.0819
4.97729
112.765
99.4775
85.9769
72.9705
60.9275
50.0467
40.5136
32.2555
23.5905
11.4776
113.297
100.212
87.3321
75.006
63.4674
52.8756
43.4459
35.2572
27.4708
18.3369
114.51
102.769
90.811
78.9805
67.6243
57.0294
47.3966
38.7964
31.0898
23.8269
115.087
104.076
93.1553
82.4645
72.1177
62.1936
52.7316
43.8215
36.0037
29.8251
115.436
104.709
94.2029
84.0413
74.3209
65.0917
56.3326
48.0913
41.0499
36.0331
115.668
105.109
94.7977
84.8657
75.4232
66.5429
58.2342
50.5668
44.2129
40.0934
115.768
105.247
94.9807
85.1095
75.7556
67.0099
58.9063
51.513
45.3963
41.4366
115.718
105.032
94.6063
84.5874
75.1085
66.2761
58.1461
50.7768
44.553
40.1002
115.594
104.648
93.9604
83.6831
73.9579
64.9079
56.6132
49.1186
42.6097
37.4148
234.119
229.755
228.187
227.745
227.653
227.905
228.639
230.019
232.171
234.31
225.557
222.537
221.488
221.448
221.674
222.158
223.089
224.696
227.168
229.644
216.044
213.869
213.096
213.22
213.651
214.354
215.479
217.249
219.863
222.461
205.738
203.71
203.006
203.202
203.746
204.575
205.799
207.607
210.176
212.695
194.415
192.505
191.85
192.038
192.57
193.382
194.558
196.252
198.607
200.898
182.049
180.324
179.73
179.872
180.325
181.036
182.071
183.549
185.579
187.544
168.703
167.24
166.747
166.849
167.205
167.778
168.617
169.81
171.437
173.008
154.569
153.453
153.098
153.175
153.431
153.843
154.45
155.312
156.483
157.611
139.961
139.247
139.04
139.089
139.234
139.469
139.819
140.321
141.003
141.659
125.436
125.092
124.952
124.904
124.892
124.914
124.98
125.1
125.277
125.453
246.555
246.794
247.047
247.265
247.563
248.064
248.617
248.953
248.958
248.444
246.627
246.958
247.361
247.668
247.868
248.204
248.629
248.544
247.726
246.705
246.635
247.031
247.476
247.788
247.871
248.002
248.284
247.924
246.535
245.28
246.512
247.014
247.444
247.675
247.608
247.493
247.528
247.105
245.811
244.654
246.019
246.673
247.062
247.167
246.988
246.71
246.533
246.172
245.364
244.575
244.812
245.654
245.99
245.953
245.721
245.435
245.238
245.066
244.827
244.541
242.466
243.563
243.899
243.783
243.571
243.406
243.371
243.502
243.809
244.049
238.582
240.068
240.536
240.468
240.384
240.434
240.671
241.166
241.979
242.718
233.109
235.163
235.871
235.937
236.062
236.408
236.996
237.9
239.205
240.417
227.755
229.62
230.364
230.53
230.837
231.453
232.395
233.746
235.593
237.301
246.936
246.717
246.677
246.489
246.421
246.308
245.933
245.676
245.574
245.72
246.894
246.716
246.672
246.492
246.42
246.32
245.941
245.657
245.379
245.738
246.865
246.712
246.663
246.487
246.413
246.321
245.94
245.6
245.14
245.819
246.847
246.705
246.65
246.474
246.398
246.316
245.926
245.506
244.92
246.004
246.835
246.696
246.634
246.455
246.378
246.301
245.897
245.396
244.785
246.241
246.829
246.685
246.616
246.431
246.353
246.272
245.859
245.302
244.76
246.35
246.827
246.67
246.595
246.403
246.322
246.232
245.822
245.252
244.807
246.017
246.83
246.651
246.574
246.373
246.286
246.188
245.806
245.257
244.83
244.781
246.84
246.629
246.549
246.34
246.249
246.156
245.839
245.334
244.652
242.006
246.857
246.604
246.52
246.305
246.215
246.152
245.942
245.461
243.974
237.29
246.895
246.577
246.479
246.246
246.149
246.08
245.873
245.135
242.442
233.741
247.011
246.556
246.439
246.193
246.093
246.115
246.067
245.333
242.177
231.799
247.251
246.561
246.401
246.114
246.016
246.076
246.056
245.233
241.882
230.533
247.701
246.617
246.371
246.028
245.88
245.811
245.608
244.528
240.475
229.312
248.54
246.683
246.394
245.937
245.669
245.306
244.739
243.223
238.005
227.457
250.377
246.75
246.503
245.868
245.377
244.644
243.655
241.567
235.372
224.912
254.257
247.061
246.658
245.811
245.022
243.931
242.559
239.957
233.31
222.583
262.562
248.198
246.934
245.769
244.647
243.241
241.557
238.668
232.072
221.327
280.122
250.933
247.584
245.805
244.294
242.588
240.649
237.737
231.63
221.357
306.092
254.979
249.09
246.019
244.002
241.966
239.764
236.92
231.358
221.884
236.415
221.066
210.444
201.129
190.969
179.665
167.27
153.897
139.852
125.722
230.027
217.733
208.581
199.86
189.923
178.684
166.338
153.087
139.363
125.89
223.494
214.129
205.95
197.422
187.708
176.868
165.115
152.615
139.597
126.42
218.378
210.87
202.878
194.029
184.186
173.422
161.93
149.987
137.925
126.091
212.98
206.587
198.594
189.501
179.832
169.694
159.144
148.277
137.221
126.129
207.384
202.088
194.828
186.357
177.359
167.904
157.984
147.662
137.042
126.255
203.589
199.149
192.559
184.663
176.129
167.043
157.423
147.348
136.938
126.328
202.308
198.049
191.703
184.091
175.778
166.842
157.323
147.319
136.961
126.392
203.634
198.919
192.469
184.884
176.552
167.536
157.899
147.753
137.238
126.507
206.308
200.873
194.136
186.425
177.929
168.698
158.815
148.412
137.636
126.643
112.189
112.359
112.444
112.295
111.788
111.427
111.242
111.527
111.52
111.27
89.6144
90.0777
90.2964
89.8628
88.4308
87.3444
86.7235
87.3852
87.4228
86.8363
68.7713
69.3991
69.6604
68.9937
67.0543
65.3426
64.3223
64.8711
65.1755
64.6203
50.6536
51.2601
51.4498
50.6267
48.6476
46.4815
45.1515
45.1869
45.9253
45.6919
36.0084
36.4169
36.4672
35.5859
33.794
31.478
29.8342
29.269
30.0766
30.2643
24.9561
25.0597
24.9377
24.0145
22.4369
20.4075
18.6167
17.6751
17.9301
18.4302
17.0697
16.9194
16.7046
15.7137
14.2992
12.7958
11.3084
10.2434
9.90362
10.2701
11.5827
11.4058
11.3574
10.358
9.03906
8.03718
7.14564
6.30283
5.71435
5.6305
7.90862
7.82043
8.11649
7.24861
6.08253
5.49208
5.1634
4.77893
4.295
3.91517
6.03965
5.83477
6.22031
5.48242
4.61305
4.33715
4.3614
4.35224
4.19973
3.80367
5.27223
5.03548
5.11799
4.42362
3.89147
3.83555
3.98564
4.12857
4.24976
4.30641
4.84473
4.73567
4.45843
3.79213
3.50649
3.59411
3.7976
3.96534
4.08514
4.17139
4.46587
4.42114
3.9894
3.43896
3.31928
3.48248
3.70747
3.88633
4.00434
4.06468
4.01111
3.95614
3.55008
3.19894
3.20923
3.41281
3.6259
3.78331
3.88193
3.92324
3.46273
3.36945
3.09655
2.97716
3.09428
3.3113
3.50154
3.63925
3.72057
3.7443
2.81105
2.71707
2.65825
2.74909
2.94606
3.15059
3.31647
3.43597
3.50293
3.51636
2.08759
2.10469
2.24023
2.47527
2.71115
2.90978
3.06512
3.17891
3.24528
3.26079
1.41502
1.53335
1.78505
2.07838
2.33461
2.54919
2.72526
2.86415
2.95184
2.97999
0.738265
0.872786
1.14787
1.47745
1.7879
2.06014
2.29811
2.48332
2.58827
2.62593
0.0657044
-0.0195985
0.216134
0.628662
1.05001
1.43312
1.75804
1.97342
2.07668
2.14
3.66028
3.70382
3.57328
3.24682
2.59495
1.90365
1.30899
0.834639
0.45058
0.0851577
3.7328
3.67728
3.52257
3.23078
2.55549
1.84774
1.25755
0.797784
0.426998
0.0826669
3.759
3.57083
3.41043
3.17647
2.51145
1.79515
1.20924
0.763604
0.405867
0.0822151
3.71957
3.39405
3.25721
3.07366
2.45409
1.74417
1.1641
0.732238
0.387392
0.0833863
3.61133
3.18548
3.08853
2.91975
2.3715
1.69025
1.1214
0.70366
0.371771
0.0863106
3.44759
2.98751
2.92764
2.73522
2.25734
1.62945
1.08091
0.678248
0.359371
0.0911081
3.25401
2.82023
2.78385
2.55216
2.1145
1.55802
1.04194
0.65635
0.350574
0.0977781
3.047
2.6836
2.65782
2.39489
1.95829
1.4732
1.00303
0.637958
0.345645
0.106185
2.82508
2.57307
2.54521
2.27059
1.81018
1.37619
0.961965
0.622552
0.344669
0.116051
2.58122
2.49139
2.4397
2.17312
1.68495
1.27515
0.916476
0.608958
0.347477
0.126951
5.42164
3.97513
3.27627
2.89613
2.41383
1.88944
1.38569
0.929451
0.54112
0.128491
4.6178
3.75461
3.31267
2.95761
2.45476
1.89844
1.37302
0.910503
0.518351
0.116181
3.94781
3.66272
3.37366
3.02735
2.49439
1.90654
1.36179
0.893612
0.500915
0.105586
3.62794
3.6633
3.45936
3.10797
2.53589
1.91442
1.35115
0.878044
0.485763
0.0970502
3.61324
3.7066
3.5614
3.20071
2.58212
1.92255
1.33978
0.862214
0.47106
0.0904246
112.02
88.953
67.9019
50.1301
36.1152
25.7947
18.6245
13.7489
10.5669
8.75263
111.799
88.3906
67.1956
49.3956
35.3128
24.7904
17.3207
12.2154
9.07246
7.57222
111.613
87.9102
66.5572
48.6549
34.4015
23.6176
15.9003
10.6804
7.53568
6.07756
111.403
87.3364
65.7167
47.59
33.0767
22.0234
14.1286
8.89565
5.81006
4.43434
111.148
86.6083
64.5873
46.1167
31.2764
19.9554
11.9596
6.92319
4.4401
3.62432
243.769
243.807
243.927
244.098
244.311
244.32
243.815
243.113
243.217
242.993
243.981
244.053
244.167
244.356
244.627
244.802
244.583
243.933
243.676
243.569
244.177
244.226
244.339
244.535
244.821
245.083
245.057
244.55
244.122
244.072
244.42
244.452
244.55
244.725
244.982
245.272
245.379
245.109
244.722
244.655
244.695
244.713
244.794
244.944
245.159
245.425
245.629
245.632
245.466
245.376
244.988
245
245.07
245.192
245.366
245.597
245.868
246.111
246.217
246.206
245.262
245.281
245.363
245.498
245.675
245.905
246.207
246.569
246.874
246.997
245.549
245.566
245.663
245.855
246.11
246.411
246.772
247.186
247.553
247.734
245.931
245.96
246.036
246.259
246.631
247.085
247.592
248.113
248.459
248.421
246.324
246.435
246.536
246.726
247.125
247.696
248.3
248.852
249.206
249.001
136.502
136.243
136.221
136.483
136.265
135.867
135.326
135.154
135.226
135.39
160.953
160.356
160.378
161.015
160.363
159.24
157.776
157.32
157.526
157.984
183.198
182.631
182.919
183.441
182.391
180.646
178.677
177.988
178.237
178.86
202.164
201.918
202.637
202.647
201.289
199.092
197.084
196.24
196.418
197.021
217.636
217.81
218.594
218.007
216.338
213.994
212.173
211.27
211.309
211.714
229.516
229.997
230.227
229.268
227.46
225.404
223.794
222.847
222.715
222.816
237.715
238.051
237.689
236.615
235.123
233.595
232.144
231.127
230.902
230.751
242.37
242.251
241.641
240.808
239.929
238.911
237.557
236.532
236.473
236.296
244.095
243.676
243.183
242.825
242.527
241.941
240.751
239.856
240.142
240.057
244.234
243.809
243.655
243.676
243.748
243.505
242.631
241.87
242.255
242.066
254.846
246.871
247.499
246.284
246.034
245.527
244.996
244.634
244.504
244.542
252.012
246.807
247.313
246.262
246.087
245.59
245.012
244.667
244.58
244.514
250.09
246.814
247.09
246.258
246.143
245.658
245.055
244.76
244.749
244.546
248.902
246.842
246.878
246.277
246.2
245.733
245.136
244.914
244.979
244.652
248.216
246.845
246.739
246.315
246.257
245.816
245.264
245.106
245.222
244.822
247.768
246.804
246.701
246.365
246.31
245.909
245.431
245.294
245.43
245.03
247.453
246.749
246.7
246.409
246.356
246.012
245.608
245.45
245.585
245.241
247.237
246.721
246.693
246.444
246.389
246.117
245.756
245.561
245.685
245.435
247.093
246.715
246.683
246.469
246.405
246.21
245.855
245.63
245.724
245.594
246.998
246.716
246.679
246.482
246.415
246.274
245.909
245.666
245.69
245.689
317.35
253.755
249.909
246.971
246.139
245.567
245.251
244.931
244.238
242.721
295.617
251.366
248.787
246.739
246.057
245.539
245.206
244.901
244.451
243.522
277.176
249.21
248.19
246.565
246.016
245.52
245.156
244.844
244.533
244.195
265.773
247.865
247.866
246.435
245.998
245.509
245.099
244.761
244.524
244.524
259.002
247.134
247.644
246.326
245.995
245.501
245.03
244.659
244.478
244.556
239.301
237.451
234.236
229.328
222.125
211.771
197.72
179.916
158.839
135.758
240.483
238.947
235.773
230.636
223.134
212.577
198.458
180.624
159.403
135.98
241.996
240.499
237.318
232.064
224.313
213.493
199.201
181.264
159.884
136.166
243.658
242.252
239.125
233.85
225.915
214.822
200.269
182.105
160.458
136.376
244.447
243.61
241.107
236.036
227.994
216.627
201.744
183.235
161.185
136.629
)
;

boundaryField
{
    left
    {
        type            zeroGradient;
    }
    right
    {
        type            fixedValue;
        value           uniform 0;
    }
    down
    {
        type            zeroGradient;
    }
    up
    {
        type            zeroGradient;
    }
    cylinder
    {
        type            zeroGradient;
    }
    defaultFaces
    {
        type            empty;
    }
}


// ************************************************************************* //
