/*--------------------------------*- C++ -*----------------------------------*\
  =========                 |
  \\      /  F ield         | OpenFOAM: The Open Source CFD Toolbox
   \\    /   O peration     | Website:  https://openfoam.org
    \\  /    A nd           | Version:  13
     \\/     M anipulation  |
\*---------------------------------------------------------------------------*/
FoamFile
{
    format      ascii;
    class       surfaceScalarField;
    location    "0.875";
    object      phi;
}
// * * * * * * * * * * * * * * * * * * * * * * * * * * * * * * * * * * * * * //

dimensions      [0 3 -1 0 0 0 0];

internalField   nonuniform List<scalar> 
3485
(
0.00137167
-0.011258
0.00988629
0.00505116
-0.0319067
0.0282272
0.0107642
-0.0513829
0.0456698
0.0183125
-0.0696769
0.0621286
0.0275453
-0.0868351
0.0776023
0.0383482
-0.102901
0.0920983
0.0506328
-0.117907
0.105622
0.0643559
-0.131871
0.118148
0.0796148
-0.144862
0.129603
-0.156896
0.139505
0.0970057
0.00150034
-0.0127583
0.00544582
-0.0358522
0.0114762
-0.0574132
0.0193235
-0.0775242
0.0287727
-0.0962843
0.0396465
-0.113775
0.0518006
-0.130061
0.065127
-0.145198
0.0795343
-0.159269
-0.172198
0.0948363
0.00147418
-0.0142325
0.00532699
-0.039705
0.0111745
-0.0632607
0.0187208
-0.0850706
0.0277252
-0.105289
0.0379883
-0.124038
0.0493441
-0.141416
0.061653
-0.157507
0.074783
-0.172399
-0.186037
0.0886226
0.00133887
-0.0155713
0.00485903
-0.0432252
0.0102109
-0.0686125
0.017117
-0.0919767
0.0253538
-0.113525
0.03474
-0.133424
0.0451299
-0.151806
0.0564032
-0.16878
0.0684533
-0.184449
-0.198791
0.0812067
0.00116693
-0.0167383
0.00425599
-0.0463142
0.00897313
-0.0733296
0.0150817
-0.0980853
0.0223916
-0.120835
0.0307522
-0.141785
0.0400458
-0.1611
0.0501797
-0.178914
0.0610763
-0.195346
-0.210402
0.0726878
0.000980024
-0.0177183
0.00358795
-0.0489221
0.00758659
-0.0773283
0.0127839
-0.103283
0.019026
-0.127077
0.0261924
-0.148951
0.0341912
-0.169099
0.042953
-0.187676
0.0524228
-0.204816
-0.220549
0.0625696
0.000780725
-0.018499
0.002865
-0.0510064
0.00606896
-0.0805323
0.0102428
-0.107456
0.0152665
-0.132101
0.0210466
-0.154732
0.0275141
-0.175566
0.0346202
-0.194782
0.0423308
-0.212526
-0.228851
0.0506323
0.000569701
-0.0190687
0.00209345
-0.0525302
0.00443785
-0.0828767
0.00749264
-0.110511
0.0111686
-0.135777
0.0153967
-0.15896
0.0201274
-0.180297
0.0253293
-0.199984
0.0309862
-0.218183
-0.234967
0.0371027
0.000352505
-0.0194212
0.00129575
-0.0534734
0.002745
-0.0843259
0.0046283
-0.112395
0.00688642
-0.138035
0.00947302
-0.161546
0.0123552
-0.183179
0.0155141
-0.203143
0.0189446
-0.221614
-0.238684
0.0226613
0.000137793
-0.019559
0.000502454
-0.0538381
0.00105695
-0.0848804
0.00176951
-0.113107
0.00261368
-0.138879
0.00356835
-0.162501
0.00461804
-0.184229
0.00575324
-0.204278
0.00697049
-0.222831
0.00827488
-0.239988
0.000487363
-0.00186862
0.00138126
0.00208614
-0.00625518
0.00465639
0.00542742
-0.0114265
0.0080852
0.0101158
-0.0162028
0.0115144
0.01554
-0.0201959
0.0147716
0.0214368
-0.0235914
0.0176946
0.0279026
-0.0267722
0.0203064
0.0350861
-0.0299673
0.0227839
0.0429718
-0.0331283
0.0252425
-0.0361027
0.0514259
0.0276486
0.000426835
-0.00229545
0.00211039
-0.00793873
0.00543733
-0.0147534
0.00981346
-0.0205789
0.014884
-0.0252664
0.0207591
-0.0294664
0.0276119
-0.0336251
0.0353904
-0.0377459
0.0438829
-0.0416207
-0.0451439
0.0529242
0.000682835
-0.00297829
0.00271673
-0.00997263
0.00577952
-0.0178162
0.00976053
-0.0245599
0.0148132
-0.030319
0.0211104
-0.0357637
0.028583
-0.0410977
0.036951
-0.0461139
0.0459953
-0.050665
-0.0547735
0.0556249
0.000868614
-0.0038469
0.00306148
-0.0121655
0.00607879
-0.0208335
0.0101995
-0.0286807
0.0156972
-0.0358167
0.0225548
-0.0426213
0.0305301
-0.049073
0.039386
-0.0549698
0.0490276
-0.0603066
-0.065119
0.0593731
0.000923366
-0.00477027
0.00320107
-0.0144432
0.00651904
-0.0241515
0.0111165
-0.0332782
0.0171344
-0.0418346
0.0244473
-0.0499342
0.0328631
-0.0574888
0.0422846
-0.0643912
0.0526488
-0.0706708
-0.0762936
0.0638235
0.000944118
-0.00571439
0.00337307
-0.0168721
0.00709151
-0.0278699
0.0121743
-0.038361
0.0186325
-0.0482928
0.0263548
-0.0576565
0.035244
-0.066378
0.045253
-0.0744002
0.0563035
-0.0817213
-0.0882277
0.0682376
0.00098011
-0.0066945
0.00358429
-0.0194763
0.00764145
-0.0319271
0.013107
-0.0438265
0.0199254
-0.0551112
0.0280101
-0.0657413
0.0372992
-0.075667
0.0477465
-0.0848476
0.0592792
-0.093254
-0.100701
0.0717523
0.0010181
-0.0077126
0.00376794
-0.0222262
0.00807124
-0.0362304
0.0138198
-0.049575
0.0209191
-0.0622105
0.0292803
-0.0741024
0.0388337
-0.0852204
0.0495226
-0.0955365
0.0612885
-0.10502
-0.113444
0.0740313
0.00105469
-0.00876729
0.00393685
-0.0251083
0.00846108
-0.0407546
0.014482
-0.055596
0.0218735
-0.069602
0.0305251
-0.082754
0.0403416
-0.0950368
0.0512341
-0.106429
0.0631216
-0.116907
-0.126322
0.0759996
0.001119
0.0042379
0.0091531
0.0156857
0.023686
0.0330303
0.0436154
0.0553345
0.0680299
0.0812134
0.114328
-0.414629
0.351727
0.168135
-0.471938
0.418131
0.210281
-0.4221
0.379954
0.244166
-0.326903
0.293018
0.270977
-0.21459
0.18778
0.291582
-0.110181
0.0895765
0.305101
-0.0317329
0.0182138
0.310321
0.01103
-0.0162508
0.310874
0.0251393
-0.0256921
0.0205463
-0.0193982
0.115905
-0.47761
0.169689
-0.525722
0.211804
-0.464216
0.245429
-0.360528
0.272387
-0.241548
0.29379
-0.131585
0.31006
-0.048003
0.319228
0.00186232
0.323014
0.0213532
0.0199894
0.117712
-0.539697
0.170511
-0.578521
0.212215
-0.50592
0.245222
-0.393535
0.272039
-0.268365
0.293751
-0.153297
0.311603
-0.0658552
0.324197
-0.0107313
0.332384
0.0131666
0.0165423
0.120093
-0.600417
0.170877
-0.629304
0.211694
-0.546738
0.243775
-0.425617
0.27018
-0.294769
0.291948
-0.175066
0.310628
-0.0845347
0.325062
-0.0251652
0.33756
0.000667724
0.00828728
0.122992
-0.659586
0.170989
-0.677301
0.210371
-0.58612
0.24128
-0.456526
0.267008
-0.320497
0.288676
-0.196734
0.307893
-0.103752
0.323238
-0.0405097
0.338651
-0.0147454
-0.00473688
0.125851
-0.717199
0.170875
-0.722324
0.208328
-0.623572
0.237874
-0.486072
0.262678
-0.345301
0.284131
-0.218187
0.303672
-0.123293
0.319902
-0.0567398
0.335376
-0.0302198
-0.0171977
0.127792
-0.773239
0.17035
-0.764882
0.205612
-0.658835
0.233671
-0.514131
0.25733
-0.36896
0.278435
-0.239292
0.298156
-0.143014
0.315386
-0.0739699
0.329249
-0.0440826
-0.025981
0.127875
-0.827083
0.16893
-0.805937
0.202085
-0.69199
0.228639
-0.540685
0.251012
-0.391333
0.271587
-0.259867
0.291643
-0.163071
0.308356
-0.0906827
0.319045
-0.0547713
-0.0325859
0.125798
-0.876881
0.166207
-0.846346
0.197696
-0.723479
0.222863
-0.565852
0.243835
-0.412305
0.263625
-0.279657
0.283206
-0.182651
0.297461
-0.104939
0.305065
-0.0623746
-0.0390409
0.122116
-0.917783
0.161381
-0.885612
0.191571
-0.753668
0.215638
-0.58992
0.235296
-0.431963
0.254435
-0.298796
0.270915
-0.199131
0.282035
-0.116059
0.289475
-0.0698145
-0.0458437
0.583955
-0.920261
-0.581478
0.561182
-0.862839
0.523943
-0.716429
0.487845
-0.553821
0.460471
-0.404589
0.443799
-0.282124
0.431678
-0.187009
0.425523
-0.109903
0.42223
-0.0665221
-0.0443575
0.682869
-0.871668
-0.731462
0.619674
-0.799644
0.553844
-0.650599
0.496228
-0.496205
0.450533
-0.358894
0.418531
-0.250121
0.398435
-0.166913
0.388953
-0.100422
0.383666
-0.061235
-0.0411661
0.753984
-0.775223
-0.850429
0.655071
-0.700732
0.563328
-0.558855
0.487197
-0.420074
0.429151
-0.300849
0.388874
-0.209843
0.363424
-0.141463
0.350401
-0.0873988
0.343188
-0.0540219
-0.0365932
0.778965
-0.641709
-0.912479
0.653689
-0.575456
0.546173
-0.451339
0.460858
-0.334759
0.397786
-0.237777
0.353961
-0.166019
0.325598
-0.113101
0.310024
-0.071825
0.301174
-0.0451721
-0.0309462
0.752961
-0.492445
-0.902225
0.617528
-0.440022
0.506123
-0.339934
0.420002
-0.248638
0.357357
-0.175132
0.313749
-0.122411
0.284899
-0.0842502
0.267993
-0.0549193
0.257994
-0.0351732
-0.0245561
0.685095
-0.345841
-0.831699
0.552685
-0.307612
0.446423
-0.233672
0.365946
-0.168161
0.308188
-0.117374
0.267961
-0.0821835
0.240855
-0.0571442
0.224115
-0.0381796
0.213751
-0.0248083
-0.0178612
0.582615
-0.213864
-0.714592
0.462883
-0.187879
0.369304
-0.140093
0.299921
-0.0987789
0.250854
-0.0683067
0.216677
-0.0480064
0.193269
-0.0337363
0.178181
-0.0230912
0.168436
-0.0150633
-0.0114088
0.448757
-0.105525
-0.557096
0.351175
-0.0902975
0.277051
-0.065969
0.223519
-0.045247
0.186246
-0.0310335
0.160239
-0.0219995
0.14214
-0.0156373
0.130047
-0.0109984
0.121998
-0.0070145
-0.00582389
0.28659
-0.0302209
-0.361894
0.220909
-0.0246157
0.172487
-0.0175471
0.138709
-0.0114694
0.115472
-0.00779629
0.0991071
-0.00563471
0.0875367
-0.00406702
0.0795497
-0.00301136
0.0742875
-0.00175226
-0.00178595
0.101315
-0.131536
0.0766997
0.0591527
0.0476833
0.039887
0.0342523
0.0301853
0.0271739
0.0254217
0.73882
0.0102223
-0.740768
0.733074
0.0284073
0.723436
0.0467415
0.710163
0.0639053
0.69357
0.0791624
0.674077
0.0921812
0.652273
0.10301
0.628713
0.112182
0.60427
0.11928
0.119798
0.845548
0.0133981
-0.848724
0.837321
0.0366344
0.827288
0.0567748
0.816594
0.0745995
0.805251
0.0905051
0.792897
0.104535
0.779284
0.116623
0.764588
0.126878
0.749124
0.134744
0.137459
0.844982
0.0114253
-0.843009
0.848882
0.0327348
0.853019
0.0526378
0.85647
0.0711482
0.858831
0.0881437
0.859918
0.103448
0.859594
0.116947
0.857966
0.128505
0.8553
0.137411
0.14233
0.800213
0.00930441
-0.798092
0.80582
0.027127
0.814418
0.0440405
0.825636
0.0599302
0.839
0.0747793
0.853848
0.0885998
0.869417
0.101379
0.88505
0.112872
0.899935
0.122526
0.129787
0.737865
0.00703871
-0.7356
0.744154
0.0208384
0.754123
0.0340714
0.767503
0.0465501
0.784083
0.0581999
0.80366
0.0690224
0.825988
0.079051
0.850621
0.0882394
0.876541
0.0966058
0.104102
0.653921
0.00485394
-0.651736
0.660203
0.0145561
0.670378
0.0238963
0.684221
0.0327074
0.701525
0.040896
0.722111
0.0484359
0.745805
0.0553567
0.772329
0.0617159
0.801216
0.0677186
0.0736187
0.549112
0.00291607
-0.547174
0.554812
0.00885589
0.564138
0.0145705
0.576905
0.01994
0.592915
0.0248867
0.611968
0.0293826
0.633871
0.033454
0.658406
0.0371801
0.685379
0.0407461
0.0444058
0.422793
0.00137571
-0.421252
0.427413
0.00423594
0.435008
0.00697561
0.445422
0.00952586
0.45847
0.0118388
0.473957
0.0138957
0.491697
0.0157138
0.511527
0.0173497
0.533346
0.0189271
0.0206561
0.273828
0.000366656
-0.272819
0.276915
0.00114943
0.281999
0.00189174
0.288955
0.00256941
0.29763
0.00316447
0.307856
0.00366915
0.319482
0.00408805
0.332395
0.00443667
0.346561
0.00476039
0.00532319
0.100484
-0.100117
0.101633
0.103525
0.106094
0.109259
0.112928
0.117016
0.121453
0.126213
0.0779293
0.159504
-0.142492
-0.094942
0.0630259
0.147461
-0.132557
0.0496172
0.134406
-0.120997
0.0376025
0.120332
-0.108318
0.0270259
0.105171
-0.0945941
0.0179775
0.0888944
-0.079846
0.0105727
0.0714606
-0.0640557
0.00496322
0.0528094
-0.0472
0.001348
0.0328743
-0.0292591
0.0116389
-0.010291
0.0779394
0.174434
-0.0928688
0.0638701
0.16153
0.0508391
0.147437
0.0389377
0.132234
0.0282758
0.115833
0.0190001
0.0981701
0.0112895
0.0791712
0.00535956
0.0587393
0.00147721
0.0367566
0.0131162
0.0731787
0.187928
-0.0866732
0.0603695
0.174339
0.0483501
0.159457
0.0372485
0.143335
0.0272031
0.125878
0.0183792
0.106994
0.0109766
0.0865738
0.00523535
0.0644806
0.00144963
0.0405424
0.0145658
0.0667705
0.200353
-0.0791952
0.0550328
0.186077
0.0440492
0.17044
0.0339216
0.153463
0.0247664
0.135033
0.016727
0.115033
0.00998166
0.0933191
0.00475147
0.0697108
0.00130965
0.0439842
0.0158754
0.0593122
0.211657
-0.0706158
0.0487152
0.196674
0.0388673
0.180288
0.0298411
0.162489
0.0217243
0.14315
0.0146295
0.122128
0.00870233
0.0992463
0.00412645
0.0742867
0.00113097
0.0469797
0.0170064
0.0505979
0.221521
-0.0604618
0.0414109
0.205861
0.0329274
0.188772
0.0251972
0.170219
0.0182837
0.150064
0.0122721
0.12814
0.00727495
0.104243
0.00343653
0.0781251
0.000937284
0.0494789
0.0179437
0.0404571
0.229564
-0.0485
0.0330126
0.213305
0.0261764
0.195608
0.0199772
0.176418
0.0144573
0.155583
0.00967743
0.13292
0.00572043
0.1082
0.00269376
0.0811518
0.000731839
0.0514408
0.0186755
0.0290541
0.235441
-0.0349316
0.0236512
0.218708
0.0187146
0.200544
0.0142551
0.180878
0.0102962
0.159542
0.00687751
0.136338
0.0040556
0.111022
0.00190427
0.0833031
0.000515282
0.0528298
0.0191908
0.0169174
0.238926
-0.0204019
0.0137418
0.221884
0.0108549
0.203431
0.0082548
0.183478
0.00595148
0.161846
0.00396649
0.138323
0.00233218
0.112657
0.00109066
0.0845446
0.000293242
0.0536272
0.0194841
0.00482785
-0.00589045
0.00388044
0.00303404
0.00228342
0.00162818
0.00107202
0.000621624
0.000285831
7.49723e-05
0.0436726
0.0414153
-0.052572
-0.032516
0.035293
0.0383658
-0.0299862
0.0276202
0.0349654
-0.0272925
0.0208813
0.0313492
-0.0246103
0.0150795
0.0277804
-0.0219785
0.00997309
0.0242213
-0.0191149
0.00544328
0.0200849
-0.0155551
0.00197663
0.014472
-0.0110054
0.000386926
0.00739962
-0.00580991
0.00208918
-0.00170225
0.0437651
0.0505888
-0.0529386
0.035111
0.0470198
0.0270673
0.0430092
0.0199164
0.0385
0.0139759
0.033721
0.00925341
0.0289438
0.00550432
0.023834
0.00257641
0.0173999
0.000621952
0.00935408
0.00271113
0.0449378
0.0601471
-0.0544961
0.0360128
0.0559449
0.0277721
0.0512498
0.0203322
0.0459399
0.0140189
0.0400343
0.00909732
0.0338653
0.00551404
0.0274173
0.00289183
0.0200221
0.000809525
0.0114364
0.00352066
0.04736
0.0703341
-0.057547
0.037924
0.0653809
0.0293541
0.0598198
0.021688
0.0536061
0.0150506
0.0466716
0.009701
0.0392149
0.00576107
0.0313572
0.00295831
0.0228249
0.000874826
0.0135199
0.00439549
0.0508254
0.08126
-0.0617513
0.0407221
0.0754842
0.0316054
0.0689365
0.0235377
0.0616737
0.0165419
0.0536674
0.0107447
0.0450122
0.00628104
0.0358208
0.00306093
0.026045
0.000880169
0.0157006
0.00527566
0.054524
0.0928565
-0.0661205
0.0438034
0.0862047
0.0341218
0.0786181
0.0255541
0.0702415
0.018122
0.0610995
0.0118815
0.0512527
0.00692783
0.0407745
0.00327813
0.0296947
0.000908384
0.0180704
0.00618404
0.0575794
0.104938
-0.0696605
0.0464204
0.0973637
0.0363178
0.0887206
0.0273319
0.0792274
0.0194983
0.068933
0.0128677
0.0578833
0.00751942
0.0461228
0.00352494
0.0336892
0.000959527
0.0206358
0.00714357
0.0596374
0.117264
-0.071964
0.0482606
0.108741
0.0379188
0.0990625
0.0286571
0.0884891
0.0205272
0.0770629
0.0135982
0.0648123
0.00796126
0.0517597
0.00372164
0.0379288
0.00100526
0.0233522
0.00814883
0.0614522
0.129718
-0.0739055
0.049955
0.120238
0.0394062
0.109611
0.0298774
0.0980179
0.0214549
0.0854854
0.0142358
0.0720315
0.00833433
0.0576612
0.00388448
0.0423787
0.00104188
0.0261948
0.00919071
0.0663089
-0.0790831
0.0539895
0.0426034
0.0323036
0.0231949
0.0153804
0.00898584
0.00416455
0.00110024
0.213756
0.0620868
-0.0778533
0.236434
0.0903714
-0.113049
0.260973
0.123887
-0.148426
0.277088
0.112197
-0.128311
0.276253
0.109425
-0.10859
0.253241
0.178576
-0.155564
0.218984
0.293636
-0.259379
0.174891
0.412579
-0.368485
0.11844
0.494721
-0.43827
0.46175
-0.395882
0.213107
0.04697
0.234693
0.0687855
0.258331
0.100249
0.27509
0.0954379
0.275867
0.108648
0.253632
0.200811
0.219191
0.328076
0.174639
0.457131
0.1181
0.55126
0.526911
0.212872
0.0320878
0.233608
0.0480492
0.256394
0.077463
0.273152
0.0786801
0.274255
0.107544
0.252435
0.222632
0.217944
0.362567
0.173327
0.501748
0.117882
0.606705
0.590297
0.212983
0.0170948
0.233181
0.027851
0.255226
0.0554184
0.271512
0.0623935
0.271741
0.107315
0.249786
0.244587
0.215404
0.396948
0.171343
0.545809
0.118376
0.659673
0.651126
0.213309
0.00177535
0.233258
0.00790182
0.254617
0.0340598
0.269809
0.0472015
0.268235
0.108889
0.245756
0.267066
0.211772
0.430932
0.16911
0.588471
0.119718
0.709065
0.709092
0.21369
-0.0139249
0.233616
-0.0120242
0.254243
0.0134332
0.267685
0.033759
0.263631
0.112943
0.240455
0.290242
0.207304
0.464084
0.166902
0.628874
0.121445
0.754521
0.764417
0.213953
-0.029888
0.234049
-0.0321201
0.253818
-0.00633589
0.264906
0.0226705
0.257909
0.11994
0.234095
0.314057
0.202283
0.495895
0.164704
0.666453
0.122662
0.796563
0.817419
0.21399
-0.0458883
0.234434
-0.052564
0.253122
-0.0250238
0.261238
0.0145541
0.250994
0.130184
0.226799
0.338252
0.196757
0.525937
0.162087
0.701123
0.122346
0.836303
0.867801
0.213811
-0.0617091
0.234753
-0.0735061
0.252031
-0.042302
0.25671
0.00987477
0.243148
0.143747
0.218935
0.362464
0.19084
0.554032
0.158622
0.733341
0.120099
0.874827
0.913994
0.213683
-0.0774021
0.23497
-0.0947936
0.250536
-0.0578679
0.250987
0.00942359
0.233841
0.160893
0.209869
0.386437
0.183603
0.580298
0.153439
0.763506
0.116425
0.911841
0.951336
0.331936
-0.107328
0.370562
-0.133419
0.406959
-0.0942654
0.424375
-0.00799249
0.43885
0.146418
0.467406
0.357881
0.506591
0.541113
0.549579
0.720517
0.581374
0.880047
0.946205
0.586504
0.333632
-0.138949
0.373179
-0.172967
0.408335
-0.129421
0.422057
-0.0217146
0.435413
0.133062
0.475899
0.317394
0.534273
0.48274
0.604465
0.650325
0.675403
0.809108
0.88862
0.732988
0.336355
-0.173294
0.375445
-0.212056
0.408743
-0.162719
0.416984
-0.0299557
0.427204
0.122843
0.473906
0.270692
0.546454
0.410192
0.638804
0.557975
0.742285
0.705627
0.784489
0.846416
0.340513
-0.211797
0.373418
-0.244962
0.384179
-0.17348
0.3804
-0.026177
0.398899
0.104343
0.452855
0.216736
0.5341
0.328948
0.640503
0.451571
0.767076
0.579054
0.647072
0.904493
0.348515
-0.258301
0.356581
-0.253028
0.337453
-0.154351
0.33417
-0.0228945
0.358516
0.0799966
0.413997
0.161255
0.497226
0.245719
0.607867
0.34093
0.743732
0.443189
0.495868
0.894936
0.340774
-0.297065
0.321141
-0.233395
0.287847
-0.121057
0.283891
-0.0189382
0.308874
0.055013
0.361067
0.109063
0.439734
0.167052
0.545748
0.234916
0.678762
0.310176
0.347986
0.826644
0.314272
-0.309327
0.271551
-0.190674
0.233589
-0.0830942
0.228581
-0.0139309
0.251013
0.0325815
0.296145
0.0639303
0.3646
0.0985968
0.458323
0.141193
0.578796
0.189703
0.215104
0.711678
0.273773
-0.28109
0.212874
-0.129776
0.174324
-0.0445444
0.16876
-0.00836703
0.186236
0.0151055
0.220954
0.0292131
0.274168
0.0453828
0.348682
0.066679
0.44705
0.0913354
0.106139
0.556015
0.214646
-0.193726
0.140473
-0.0556023
0.10936
-0.0134317
0.104076
-0.00308256
0.115346
0.00383503
0.137267
0.00729264
0.171093
0.0115568
0.21997
0.0178016
0.286339
0.0249659
0.0304074
0.362071
0.108284
0.0526818
0.0392501
0.0361676
0.0400026
0.0472952
0.058852
0.0766536
0.10162
0.132027
0.608658
-0.117097
0.632322
-0.116532
0.655139
-0.10949
0.67629
-0.100346
0.695234
-0.0895592
0.71137
-0.0765985
0.724263
-0.061393
0.73359
-0.0442582
0.739075
-0.0258868
-0.00758338
0.750322
-0.13443
0.765224
-0.131435
0.779426
-0.123692
0.792649
-0.11357
0.804712
-0.101622
0.815848
-0.0877338
0.826403
-0.0719481
0.836392
-0.0542473
0.844841
-0.0343356
-0.0114667
0.851037
-0.139051
0.853479
-0.133877
0.854993
-0.125207
0.855371
-0.113947
0.854522
-0.100774
0.852622
-0.0858333
0.849895
-0.0692219
0.846739
-0.0510906
0.843946
-0.0315429
-0.0105298
0.89255
-0.127107
0.878533
-0.119861
0.863854
-0.110527
0.84929
-0.0993828
0.835446
-0.0869293
0.823019
-0.0734068
0.812635
-0.0588383
0.804756
-0.0432111
0.799744
-0.0265314
-0.0088771
0.870309
-0.102481
0.845548
-0.0951002
0.821944
-0.086923
0.800489
-0.0779279
0.781654
-0.0680942
0.765714
-0.0574669
0.75289
-0.0460142
0.743403
-0.0337241
0.737523
-0.0206517
-0.00695363
0.796997
-0.0728331
0.768933
-0.0670366
0.743122
-0.0611115
0.720037
-0.0548429
0.699971
-0.0480286
0.683112
-0.0406075
0.669641
-0.0325437
0.659769
-0.0238515
0.653726
-0.0146085
-0.00496381
0.682984
-0.0441392
0.656499
-0.0405524
0.632401
-0.0370128
0.610878
-0.0333203
0.592145
-0.0292954
0.576395
-0.024858
0.563828
-0.0199764
0.554646
-0.0146696
0.549043
-0.00900559
-0.00309477
0.53251
-0.0206337
0.510908
-0.0189508
0.491275
-0.0173796
0.473704
-0.0157489
0.458351
-0.0139423
0.445397
-0.0119047
0.435037
-0.00961621
0.427458
-0.00709086
0.422824
-0.00437154
-0.0015229
0.346789
-0.00535165
0.332647
-0.00480906
0.319753
-0.00448486
0.308137
-0.00413358
0.297909
-0.00371365
0.289215
-0.00321086
0.282219
-0.00262002
0.277075
-0.0019474
0.273913
-0.00120946
-0.000429227
0.126675
0.121866
0.117381
0.113248
0.109534
0.106323
0.103703
0.101756
0.100546
0.000185057
0.0116092
-0.0117943
0.000623737
0.0304465
-0.0308852
0.00123716
0.0462418
-0.0468552
0.00197733
0.0594676
-0.0602078
0.00277662
0.0700217
-0.070821
0.00376954
0.0798892
-0.0808822
0.00396348
0.0772674
-0.0774614
0.00408486
0.0700426
-0.0701639
0.00394498
0.0610798
-0.0609399
0.0499562
0.00350723
-0.0495184
0.000533397
0.0110759
0.00180387
0.0291761
0.00358509
0.0444606
0.00574126
0.0573114
0.00807285
0.0676901
0.0110397
0.0769224
0.011676
0.0766311
0.0120809
0.0696377
0.0117737
0.061387
0.0510785
0.0106513
0.0008355
0.0102404
0.00283184
0.0271797
0.00563913
0.0416533
0.00904159
0.053909
0.0127395
0.0639922
0.0172475
0.0724145
0.0187903
0.0750883
0.0195719
0.068856
0.0193857
0.0615732
0.052435
0.0180293
0.00105598
0.00918437
0.00359702
0.0246387
0.00719366
0.0380566
0.0115559
0.0495468
0.0163567
0.0591914
0.0217479
0.0670233
0.0250729
0.0717633
0.0263552
0.0675737
0.0266035
0.0613249
0.0535668
0.0254717
0.00115146
0.00803291
0.00397935
0.0218108
0.00804179
0.0339942
0.0129971
0.0445915
0.0185518
0.0536366
0.0245578
0.0610173
0.0299525
0.0663687
0.0320904
0.0654358
0.0330117
0.0604036
0.0540916
0.032487
0.0011115
0.00692142
0.00396603
0.0189563
0.00818569
0.0297746
0.0133904
0.0393868
0.0193183
0.0477088
0.0257723
0.0545633
0.0324163
0.0597247
0.0363131
0.061539
0.0381249
0.0585918
0.0537076
0.0385089
0.000926238
0.00599518
0.00357299
0.0163095
0.00771073
0.0256368
0.0128819
0.0342157
0.0187869
0.0418038
0.0253385
0.0480116
0.0323215
0.0527417
0.0382758
0.0555847
0.0415881
0.0552795
0.0521835
0.0431122
0.000567818
0.00542737
0.00278659
0.0140908
0.00665747
0.0217659
0.0116213
0.0292518
0.0172043
0.0362208
0.0234475
0.0417685
0.0302863
0.0459029
0.0371846
0.0486864
0.0425621
0.049902
0.0489244
0.0458212
0.000103736
0.00532363
0.00176843
0.0124261
0.0051755
0.0183589
0.00981461
0.0246127
0.0149566
0.0310788
0.0206209
0.0361042
0.0269034
0.0396204
0.0335873
0.0420025
0.0400856
0.0434037
0.0437956
0.0452145
-0.000175832
0.00549947
0.00108643
0.0111638
0.00385536
0.0155899
0.0078858
0.0205823
0.0125
0.0264645
0.0175705
0.0310337
0.0231767
0.0340142
0.0292493
0.0359299
0.0356362
0.0370167
0.0373686
0.0420631
-2.16937e-05
0.00552116
0.00113905
0.0100031
0.00327636
0.0134526
0.00641151
0.0174471
0.0102927
0.0225833
0.0148344
0.026492
0.0199547
0.0288939
0.0254874
0.0303971
0.0312256
0.0312786
0.0316942
0.0369
0.000376617
0.00514454
0.00153014
0.00884954
0.00317842
0.0118043
0.00548872
0.0151368
0.00870797
0.0193641
0.0128939
0.0223061
0.0177463
0.0240416
0.023014
0.0251294
0.028506
0.0257866
0.0260569
0.0341433
0.00062321
0.00452134
0.00170509
0.00776766
0.0030249
0.0104845
0.0048445
0.0133172
0.00783654
0.016372
0.0119271
0.0182155
0.0166797
0.019289
0.0218549
0.0199542
0.0273203
0.0203211
0.0204026
0.0329747
0.000676514
0.00384482
0.00164201
0.00680217
0.00282205
0.00930449
0.0047065
0.0114328
0.00798385
0.0130947
0.0122173
0.0139821
0.017037
0.0144693
0.0222813
0.0147099
0.0278538
0.0147486
0.0145877
0.0336687
0.000664706
0.00318011
0.00155632
0.00591055
0.00300192
0.00785888
0.00559513
0.00883956
0.00939282
0.00929697
0.0139212
0.00945373
0.0189709
0.00941955
0.0244426
0.00923821
0.0302683
0.00892289
0.00847945
0.0363765
0.000594887
0.00258522
0.00172362
0.00478181
0.00407935
0.00550315
0.00754603
0.00537287
0.0118079
0.00503505
0.0166649
0.00459673
0.0220157
0.00406883
0.027801
0.0034529
0.0339694
0.00275444
0.00198661
0.0404622
0.000528205
0.00205701
0.00250108
0.00280892
0.005778
0.00222622
0.0097841
0.00136677
0.0143827
0.000436392
0.0195286
-0.000549107
0.0251917
-0.0015943
0.0313292
-0.00268462
0.03788
-0.0037964
-0.00491749
0.0447841
0.000884879
0.00117212
0.00363635
5.74357e-05
0.00720305
-0.00134049
0.0113935
-0.00282374
0.0161951
-0.00436515
0.0216184
-0.00597247
0.0276218
-0.00759762
0.0341137
-0.00917655
0.0410109
-0.0106936
-0.0121793
0.0482727
0.00150692
-0.000334807
0.00413462
-0.00257028
0.00755736
-0.00476324
0.0117757
-0.00704205
0.0167967
-0.00938615
0.0225405
-0.0117163
0.0288391
-0.0138962
0.0355711
-0.0159086
0.0427117
-0.0178342
-0.019729
0.0502613
0.00104644
0.00313255
0.00645452
0.0109269
0.0163123
0.0222906
0.0287008
0.0355761
0.0429844
0.0509041
0.0514277
0.0837057
-0.0982334
0.0773478
-0.00757097
-0.0183491
0.100001
-0.0512523
0.0285992
0.113702
-0.0471752
0.0334737
0.121682
-0.0268983
0.0189189
0.125309
-0.00801503
0.0043879
0.126337
0.00344646
-0.00447492
0.126443
0.00747052
-0.00757634
0.126307
0.00786673
-0.00773005
0.00551176
-0.00608313
0.0586476
0.0592013
0.0917343
-0.0406577
0.118943
-0.0784608
0.134986
-0.0632182
0.143731
-0.0356431
0.147392
-0.0116766
0.148148
0.00269057
0.147904
0.00771405
0.147424
0.00834664
0.00528723
0.0666817
0.0254942
0.105137
-0.0791128
0.136184
-0.109508
0.155856
-0.0828904
0.165876
-0.0456623
0.169608
-0.0154095
0.169986
0.00231277
0.169233
0.0084676
0.168243
0.00933626
0.00555179
0.0755834
-0.0164205
0.117994
-0.121524
0.15194
-0.143453
0.175377
-0.106328
0.18745
-0.0577351
0.191521
-0.01948
0.191559
0.00227394
0.190246
0.00978144
0.188668
0.0109139
0.00638431
0.0846566
-0.0647006
0.129839
-0.166706
0.165954
-0.179569
0.192706
-0.13308
0.207689
-0.0727179
0.2127
-0.0244905
0.2126
0.00237312
0.210773
0.0116084
0.208606
0.0130811
0.00780336
0.093126
-0.117364
0.140333
-0.213913
0.178136
-0.217372
0.207453
-0.162397
0.225732
-0.0909975
0.232605
-0.0313631
0.23279
0.00218832
0.230622
0.0137765
0.227954
0.0157483
0.0097608
0.100327
-0.172907
0.149202
-0.262788
0.188385
-0.256555
0.219539
-0.19355
0.240883
-0.112342
0.250594
-0.0410739
0.251763
0.00101847
0.249576
0.0159644
0.246597
0.0187267
0.0121384
0.10591
-0.230544
0.156318
-0.313197
0.196645
-0.296882
0.229069
-0.225975
0.252817
-0.136089
0.265932
-0.0541895
0.269076
-0.00212489
0.267383
0.0176571
0.2644
0.0217098
0.0147415
0.109858
-0.290141
0.161715
-0.365054
0.202942
-0.338109
0.236219
-0.259252
0.261586
-0.161456
0.277989
-0.0705924
0.284174
-0.00830987
0.283737
0.0180943
0.2812
0.0242463
0.0172896
0.11249
0.165568
0.207413
0.241179
0.267502
0.286486
0.29639
0.298234
0.296788
0.0132007
0.0060777
-0.0192784
0.0109898
0.00221085
0.01151
-0.000520198
0.0129343
-0.00142432
0.0136501
-0.000715794
0.0137676
-0.000117467
0.0135421
0.000225478
0.0131755
0.000366623
0.0129128
0.00026267
0.000365798
0.0372493
0.0232146
-0.0543862
0.0314966
0.00796357
0.034011
-0.0030346
0.0380718
-0.00548512
0.0402472
-0.00289129
0.0406452
-0.000515409
0.0400025
0.000868194
0.0389994
0.00136972
0.0380641
0.00119793
0.00122885
0.057967
0.0480942
-0.0828466
0.0508883
0.0150422
0.0559042
-0.00805052
0.0624901
-0.012071
0.0661624
-0.00656356
0.0669198
-0.00127284
0.0659279
0.00186009
0.0643447
0.00295291
0.0627378
0.00280483
0.00250671
0.0739077
0.0753976
-0.101211
0.0680883
0.0208616
0.0764633
-0.0164255
0.0858074
-0.0214152
0.0911324
-0.0118886
0.0923903
-0.00253075
0.0911547
0.00309566
0.0890576
0.00505003
0.0868511
0.00501132
0.00414715
0.0814005
-0.104237
0.0839129
0.0960864
0.108145
0.115175
0.117032
0.115653
0.113127
0.110408
0.00273369
-0.000172927
-0.00256076
0.00326456
-0.000530876
0.00417681
-0.000912239
0.00548787
-0.00131107
0.0071843
-0.00169642
0.00922888
-0.00204458
0.0115855
-0.00235661
0.0141738
-0.00258834
0.016859
-0.00268515
-0.00241942
0.00778748
-0.000645703
-0.0073147
0.00923438
-0.00197778
0.0117138
-0.00339162
0.0152702
-0.00486748
0.0198845
-0.00631072
0.0254825
-0.0076426
0.0319648
-0.00883896
0.0391563
-0.00977981
0.0467677
-0.0102966
-0.0100379
0.0124781
-0.00138377
-0.0117401
0.0147278
-0.00422749
0.0185607
-0.00722452
0.0240247
-0.0103315
0.0310794
-0.0133654
0.0395863
-0.0161495
0.0493283
-0.018581
0.0600517
-0.0205033
0.071416
-0.0216609
-0.0214685
0.0168075
-0.00234772
-0.0158436
0.0197318
-0.00715174
0.024675
-0.0121678
0.0316516
-0.017308
0.0405502
-0.022264
0.0511064
-0.0267057
0.0629377
-0.0304123
0.0756948
-0.0332604
0.0888617
-0.0348278
-0.0338179
0.0207931
-0.0196336
0.0242927
0.0301542
0.0383179
0.0485408
0.060344
0.0730439
0.0856047
0.0959914
0.0314442
-0.0313067
0.0371113
-0.0372489
0.025584
-0.0309037
0.0367639
0.0199257
-0.030071
0.0357293
0.0146795
-0.028675
0.0339212
0.0100598
-0.0264664
0.031086
0.00620473
-0.0227789
0.026634
0.00311382
-0.0176477
0.0207386
0.00101742
-0.0136221
0.0157185
-8.67446e-05
-0.0101616
0.0112658
-0.00564233
0.00555559
0.0294604
-0.0254434
-0.0353237
0.0237448
-0.025188
0.018255
-0.0245812
0.0131691
-0.0235891
0.0087403
-0.0220375
0.00535038
-0.019389
0.00301974
-0.015317
0.00139652
-0.0119989
0.000298191
-0.00906326
-0.00534414
0.0294319
-0.0194553
-0.03542
0.0236279
-0.019384
0.0181107
-0.019064
0.0129973
-0.0184758
0.00849089
-0.0175311
0.00504241
-0.0159405
0.00300394
-0.0132786
0.00164447
-0.0106394
0.000582411
-0.00800119
-0.00476172
0.0313522
-0.0131923
-0.0376151
0.0253237
-0.0133555
0.0196132
-0.0133535
0.0143072
-0.0131697
0.00954433
-0.0127682
0.00564946
-0.0120456
0.0031957
-0.0108248
0.00176033
-0.00920404
0.00072661
-0.00696746
-0.00403511
0.0349541
-0.00653698
-0.0416094
0.0285806
-0.00698197
0.0225611
-0.00733395
0.0169616
-0.00757027
0.0118729
-0.00767945
0.00747949
-0.00765219
0.00413367
-0.00747897
0.00199198
-0.00706234
0.000798136
-0.00577361
-0.00323697
0.0392756
0.000571265
-0.0463839
0.0324925
-0.000198827
0.026107
-0.00094844
0.0201938
-0.00165703
0.0148134
-0.00229911
0.010029
-0.00286781
0.00592438
-0.00337431
0.00267391
-0.00381186
0.000720604
-0.00382029
-0.00251636
0.0431154
0.00808956
-0.0506337
0.0359374
0.00697927
0.029153
0.00583594
0.0228624
0.00463355
0.017168
0.00339527
0.0121096
0.00219067
0.007668
0.00106725
0.00384929
6.85659e-06
0.000979717
-0.000950706
-0.00153663
0.0453957
0.0158953
-0.0532014
0.0379664
0.0144086
0.0309106
0.0128917
0.0242646
0.0112796
0.0181715
0.00948841
0.0128178
0.00754437
0.00828268
0.00560237
0.00454132
0.00374822
0.00163231
0.00195832
9.56815e-05
0.0455491
0.0239996
-0.0536535
0.0379298
0.022028
0.0307989
0.0200225
0.0240692
0.0180093
0.0177078
0.0158498
0.0119088
0.0133434
0.00705
0.0104612
0.00341854
0.00737968
0.00114798
0.00422889
0.00124366
0.0444886
-0.0530049
0.0365304
0.0292604
0.0226594
0.0165307
0.0107592
0.00566528
0.00203961
0.000458589