/*--------------------------------*- C++ -*----------------------------------*\
  =========                 |
  \\      /  F ield         | OpenFOAM: The Open Source CFD Toolbox
   \\    /   O peration     | Website:  https://openfoam.org
    \\  /    A nd           | Version:  13
     \\/     M anipulation  |
\*---------------------------------------------------------------------------*/
FoamFile
{
    format      ascii;
    class       volScalarField;
    location    "0.085";
    object      p;
}
// * * * * * * * * * * * * * * * * * * * * * * * * * * * * * * * * * * * * * //

dimensions      [0 2 -2 0 0 0 0];

internalField   nonuniform List<scalar> 
1800
(
8.08489
10.1686
12.2934
13.6929
14.4909
14.8529
14.9194
14.6804
13.3489
9.21244
12.011
14.4597
16.9321
18.5827
19.6008
20.2169
20.6157
20.7887
19.9917
17.2529
18.4607
21.06
23.7021
25.5343
26.7602
27.6031
28.2099
28.544
28.0181
26.1326
27.5109
30.0588
32.6813
34.5694
35.9064
36.8843
37.6128
38.0275
37.5807
35.8533
38.6305
40.9742
43.4054
45.1954
46.4968
47.4681
48.196
48.617
48.2364
46.6476
51.3775
53.4167
55.5438
57.1327
58.3052
59.1878
59.8495
60.2388
59.9356
58.5508
65.4055
67.0681
68.8109
70.1291
71.1166
71.8709
72.4466
72.8081
72.6173
71.5101
80.4195
81.6532
82.9544
83.9532
84.718
85.3202
85.8028
86.1465
86.1023
85.3533
96.1325
96.9064
97.7305
98.3778
98.8926
99.3218
99.6964
100.012
100.115
99.7725
112.261
112.561
112.888
113.157
113.39
113.606
113.817
114.025
114.181
114.203
0.326465
0.000430779
0.0109865
0.298115
0.738035
1.19354
1.59422
1.93162
2.20775
2.41441
0.77747
0.145086
-0.224071
-0.194734
0.108341
0.495348
0.896448
1.29536
1.65484
1.94089
1.24699
0.419688
-0.245331
-0.463664
-0.353134
-0.109341
0.228079
0.638957
1.05985
1.44571
1.36257
0.533099
-0.161629
-0.501629
-0.580488
-0.521742
-0.312879
0.0414857
0.498427
1.02334
1.14896
0.512234
0.0239756
-0.283356
-0.464351
-0.549463
-0.485096
-0.239893
0.22653
0.932482
0.874795
0.587764
0.458819
0.332591
0.192984
0.0719372
0.0374849
0.166083
0.631774
1.55915
0.953093
1.11091
1.41871
1.57898
1.61015
1.57461
1.53508
1.60449
2.10846
3.31881
1.75392
2.38765
3.15714
3.66534
3.96132
4.1204
4.19083
4.31161
4.96399
6.59135
3.42788
4.54315
5.79614
6.7068
7.34565
7.78745
8.05497
8.30534
9.20903
11.443
5.83503
7.46455
9.26553
10.6196
11.6086
12.3179
12.7677
13.1271
14.0913
16.1826
3.24069
3.46125
3.51752
3.34814
2.82416
2.31468
1.81566
1.307
0.787863
0.263611
2.92603
3.43852
3.41481
3.27741
2.76738
2.26636
1.77929
1.28239
0.773931
0.259205
2.49419
3.42536
3.32411
3.20573
2.71719
2.2244
1.74796
1.26138
0.762092
0.255465
1.93701
3.38352
3.25136
3.13305
2.67114
2.18813
1.72139
1.24386
0.752298
0.252381
1.32992
3.2772
3.19336
3.06071
2.62686
2.15673
1.69931
1.2297
0.744497
0.249943
0.857739
3.09848
3.14027
2.99063
2.5827
2.12915
1.68148
1.21879
0.738633
0.248143
0.814925
2.87758
3.0816
2.92338
2.53787
2.10438
1.66772
1.21101
0.734654
0.246979
1.64514
2.69096
3.00127
2.84885
2.48894
2.0813
1.65783
1.20627
0.732498
0.246448
3.98573
2.69053
2.85925
2.73297
2.42585
2.05842
1.65173
1.20455
0.732113
0.246582
8.27917
3.18249
2.66527
2.54956
2.33625
2.0322
1.64805
1.20543
0.733306
0.247381
11.7309
4.70206
3.06891
2.60237
2.27575
1.98802
1.62738
1.19336
0.726741
0.246548
13.8168
4.97124
2.72456
2.17778
2.05832
1.90658
1.58658
1.16593
0.710514
0.242677
15.0993
5.07088
2.43971
1.83422
1.92771
1.87874
1.57112
1.15056
0.700425
0.241648
16.2901
6.24547
2.80059
2.03112
2.09692
1.97815
1.611
1.16293
0.70358
0.241712
18.3212
8.76677
4.13243
2.93344
2.58804
2.18119
1.68852
1.19688
0.716742
0.238563
21.2489
11.7042
6.08346
4.20975
3.22652
2.41158
1.76568
1.22776
0.727552
0.232085
23.8831
14.0326
7.95544
5.45844
3.86419
2.64532
1.83975
1.25236
0.733235
0.225322
25.2524
15.3812
9.3607
6.51261
4.44605
2.88283
1.92408
1.2818
0.741858
0.223206
25.2412
15.8348
10.3
7.38861
4.9804
3.13373
2.0304
1.325
0.758759
0.227237
24.72
16.086
11.0659
8.18969
5.49971
3.41505
2.17681
1.39484
0.792165
0.238396
114.755
100.681
86.7863
73.6518
61.5865
50.6829
40.9773
32.1715
22.0569
6.96535
115.733
102.327
88.7117
75.5927
63.4429
52.4603
42.8289
34.4749
25.7305
13.6034
116.274
103.076
90.0862
77.6591
66.03
55.3567
45.8523
37.5952
29.7518
20.5849
117.48
105.646
93.5924
81.6641
70.2102
59.5224
49.804
41.1261
33.352
26.0428
118.055
106.947
95.9294
85.1415
74.6974
64.6745
55.1115
46.0994
38.1847
31.9307
118.403
107.582
96.9834
86.731
76.9219
67.6054
58.7584
50.4256
43.2864
38.174
118.633
107.984
97.5846
87.5655
78.0381
69.0761
60.689
52.945
46.5125
42.3142
118.732
108.126
97.7756
87.8209
78.3851
69.5601
61.3807
53.9153
47.7281
43.7032
118.682
107.916
97.4105
87.3123
77.7554
68.8472
60.6444
53.2058
46.9165
42.407
118.559
107.536
96.7728
86.4203
76.6211
67.4991
59.1356
51.576
45.0077
39.7648
238.33
233.983
232.392
231.917
231.793
232.015
232.723
234.08
236.206
238.321
229.661
226.636
225.561
225.49
225.685
226.141
227.044
228.625
231.067
233.517
220.019
217.831
217.035
217.134
217.54
218.218
219.319
221.064
223.651
226.226
209.583
207.544
206.822
206.997
207.521
208.329
209.533
211.321
213.868
216.369
198.136
196.217
195.549
195.721
196.236
197.032
198.193
199.871
202.21
204.487
185.646
183.914
183.312
183.442
183.883
184.583
185.606
187.073
189.092
191.049
172.177
170.71
170.211
170.306
170.655
171.219
172.051
173.237
174.858
176.425
157.919
156.801
156.444
156.518
156.769
157.177
157.78
158.639
159.807
160.934
143.186
142.472
142.265
142.315
142.459
142.693
143.042
143.544
144.226
144.883
128.534
128.193
128.056
128.012
128.002
128.026
128.095
128.217
128.397
128.576
251.276
251.504
251.82
252.203
252.642
253.139
253.61
253.845
253.687
253.166
251.429
251.73
252.125
252.562
252.975
253.348
253.616
253.521
252.907
252.089
251.518
251.914
252.351
252.766
253.066
253.235
253.261
252.933
252.121
251.21
251.442
251.965
252.407
252.715
252.835
252.774
252.584
252.172
251.453
250.652
250.947
251.627
252.032
252.176
252.11
251.892
251.611
251.27
250.837
250.306
249.662
250.531
250.888
250.869
250.682
250.434
250.215
250.083
250.042
249.898
247.192
248.308
248.665
248.56
248.361
248.207
248.173
248.338
248.736
249.039
243.184
244.676
245.152
245.085
244.996
245.043
245.278
245.787
246.631
247.39
237.605
239.649
240.347
240.399
240.506
240.836
241.412
242.312
243.616
244.825
232.158
234.004
234.719
234.853
235.128
235.717
236.637
237.971
239.8
241.492
252.263
252.013
251.973
251.631
251.268
250.889
250.462
250.29
250.314
250.445
252.218
251.996
251.955
251.622
251.264
250.885
250.462
250.309
250.201
250.525
252.191
251.983
251.944
251.613
251.256
250.873
250.459
250.305
250.049
250.668
252.178
251.975
251.939
251.604
251.243
250.856
250.451
250.267
249.894
250.882
252.178
251.971
251.938
251.595
251.228
250.835
250.435
250.196
249.772
251.094
252.19
251.971
251.942
251.585
251.21
250.81
250.406
250.098
249.694
251.123
252.215
251.974
251.95
251.575
251.19
250.783
250.363
249.982
249.627
250.678
252.251
251.982
251.96
251.564
251.169
250.755
250.314
249.866
249.497
249.326
252.3
251.987
251.971
251.553
251.147
250.733
250.292
249.795
249.164
246.456
252.36
252.006
251.982
251.542
251.126
250.732
250.329
249.769
248.343
241.669
252.45
252.044
252.001
251.545
251.109
250.671
250.067
249.045
246.438
237.901
252.597
252.096
252.05
251.58
251.135
250.753
250.28
249.148
245.938
235.697
252.827
252.157
252.113
251.619
251.142
250.804
250.517
249.344
245.763
234.343
253.262
252.267
252.193
251.647
251.08
250.649
250.354
249.078
244.751
233.313
254.123
252.467
252.318
251.631
250.883
250.166
249.473
247.836
242.455
231.598
255.873
252.65
252.439
251.478
250.59
249.488
248.131
245.842
239.581
228.95
259.692
252.891
252.491
251.333
250.294
248.811
246.799
243.847
237.18
226.422
267.963
253.846
252.572
251.178
249.994
248.199
245.687
242.331
235.728
225.04
285.534
256.439
252.994
251.093
249.709
247.651
244.786
241.323
235.195
225.011
311.541
260.411
254.295
251.19
249.469
247.143
243.984
240.532
234.906
225.51
240.477
225.1
214.375
204.942
194.666
183.248
170.737
157.247
143.077
128.819
233.922
221.574
212.349
203.549
193.529
182.203
169.763
156.41
142.575
128.979
227.292
217.878
209.651
201.068
191.286
180.368
168.529
155.933
142.808
129.514
222.27
214.712
206.656
197.731
187.798
176.93
165.327
153.271
141.098
129.16
216.99
210.506
202.397
193.184
183.399
173.153
162.502
151.537
140.385
129.195
211.275
205.87
198.505
189.939
180.854
171.315
161.312
150.903
140.194
129.314
207.338
202.825
196.163
188.197
179.593
170.433
160.733
150.576
140.079
129.381
205.99
201.68
195.275
187.599
179.219
170.21
160.615
150.533
140.093
129.441
207.272
202.514
196.009
188.364
179.967
170.883
161.173
150.952
140.361
129.55
209.904
204.431
197.645
189.878
181.321
172.025
162.074
151.599
140.75
129.683
114.927
115.118
115.223
115.084
114.559
114.191
114.001
114.299
114.29
114.022
92.0324
92.5553
92.8271
92.4135
90.9497
89.8382
89.2094
89.891
89.9323
89.3018
70.8693
71.5921
71.9292
71.2873
69.3273
67.5701
66.5394
67.1006
67.4296
66.8269
52.4728
53.2037
53.4845
52.693
50.6972
48.4612
47.0966
47.1397
47.919
47.6455
37.6192
38.1559
38.2852
37.4348
35.6206
33.2133
31.4992
30.927
31.7808
31.9444
26.5051
26.6722
26.552
25.6562
24.0545
21.9002
19.9982
19.0191
19.3079
19.812
18.8447
18.558
18.1317
17.1748
15.7719
14.0913
12.4355
11.2938
10.9385
11.3278
13.976
13.3088
12.6346
11.6514
10.4421
9.21137
8.09045
7.14435
6.49351
6.39467
10.9102
10.0784
9.32619
8.4167
7.43287
6.59715
6.00407
5.53719
4.98154
4.54306
8.71942
7.95122
7.29658
6.56133
5.84318
5.34911
5.13983
5.08478
4.90434
4.43638
6.97561
6.38174
5.89325
5.36303
4.91353
4.70036
4.70899
4.83352
4.97224
5.02678
5.63779
5.20846
4.85072
4.49781
4.29004
4.30587
4.46216
4.63726
4.77853
4.88046
4.66464
4.3461
4.06864
3.87262
3.87305
4.05572
4.30715
4.52295
4.671
4.7496
3.89943
3.6427
3.44457
3.41722
3.58971
3.87767
4.15969
4.37138
4.50645
4.56874
3.20749
3.00397
2.94379
3.09127
3.38845
3.71513
3.98813
4.18656
4.31002
4.35843
2.52086
2.44559
2.56491
2.85936
3.21258
3.52908
3.78172
3.96853
4.08534
4.12859
1.90364
2.0126
2.27701
2.63892
2.99214
3.29732
3.54584
3.73487
3.85461
3.90164
1.45584
1.63474
1.9584
2.32641
2.67773
2.99065
3.25538
3.45924
3.58916
3.64849
0.99762
1.09533
1.38858
1.7734
2.16891
2.53048
2.83622
3.06746
3.21868
3.3054
0.471404
0.386023
0.603191
0.998944
1.45866
1.89604
2.25974
2.53511
2.73401
2.87209
4.31552
4.49947
4.43722
4.13613
3.52503
2.87587
2.22324
1.58121
0.941816
0.327364
4.40773
4.47647
4.42234
4.12337
3.47751
2.8251
2.18427
1.55472
0.926415
0.322294
4.44367
4.33908
4.34775
4.08494
3.43171
2.77991
2.15002
1.53156
0.912945
0.315239
4.40125
4.15238
4.22952
4.01131
3.38228
2.74087
2.12191
1.51286
0.90253
0.307596
4.29403
3.97323
4.09976
3.90305
3.31773
2.70111
2.0971
1.49722
0.894033
0.300593
4.15333
3.83972
3.98945
3.78223
3.23396
2.64627
2.06163
1.47454
0.881553
0.293905
4.00566
3.74443
3.89822
3.67256
3.1414
2.57735
2.01282
1.44186
0.864046
0.287847
3.85297
3.66394
3.81238
3.57856
3.04968
2.503
1.95728
1.40364
0.842538
0.280911
3.68128
3.58437
3.72145
3.49562
2.96471
2.4327
1.90452
1.36756
0.822158
0.274456
3.48111
3.51171
3.62229
3.41987
2.8895
2.36994
1.85732
1.33536
0.80393
0.268693
6.26103
4.77897
4.10705
3.81801
3.3417
2.76772
2.14877
1.53257
0.913386
0.318094
5.38497
4.52721
4.1491
3.8864
3.4005
2.80866
2.17625
1.54948
0.924158
0.322338
4.65253
4.42458
4.20993
3.95382
3.44803
2.8414
2.19914
1.56436
0.932947
0.325818
4.29525
4.42605
4.29252
4.02314
3.48891
2.86844
2.21909
1.57807
0.940845
0.328205
4.26887
4.48762
4.39902
4.099
3.52646
2.89053
2.23593
1.59022
0.947796
0.329799
114.733
91.2902
69.8811
51.7832
37.4818
26.93
19.6037
14.6501
11.4525
9.65325
114.524
90.7695
69.251
51.1577
36.8096
26.0531
18.3899
13.1392
9.92308
8.42902
114.353
90.3352
68.6932
50.526
36.0199
24.9907
17.0447
11.6307
8.36753
6.8862
114.147
89.7801
67.8934
49.5186
34.7536
23.4402
15.2924
9.83822
6.59827
5.14485
113.889
89.0496
66.7711
48.06
32.9646
21.3714
13.0941
7.79067
5.1226
4.23785
248.884
248.925
249.059
249.197
249.236
249.053
248.61
248.079
247.614
247.044
249.088
249.179
249.314
249.501
249.692
249.754
249.578
249.237
248.9
248.486
249.282
249.351
249.492
249.716
250.001
250.239
250.293
250.126
249.861
249.542
249.527
249.579
249.707
249.921
250.226
250.566
250.805
250.832
250.654
250.386
249.786
249.824
249.94
250.138
250.422
250.782
251.142
251.364
251.36
251.169
250.034
250.068
250.179
250.365
250.623
250.96
251.358
251.731
251.933
251.932
250.246
250.286
250.401
250.594
250.855
251.182
251.573
252.001
252.359
252.53
250.469
250.524
250.652
250.868
251.164
251.525
251.94
252.384
252.782
252.996
250.758
250.852
251.01
251.262
251.623
252.075
252.582
253.064
253.388
253.408
251.054
251.209
251.433
251.74
252.155
252.679
253.238
253.69
253.887
253.693
139.547
139.268
139.243
139.517
139.292
138.884
138.323
138.159
138.25
138.435
164.285
163.644
163.668
164.323
163.66
162.51
161.012
160.574
160.832
161.349
186.791
186.176
186.486
187.02
185.957
184.163
182.172
181.507
181.83
182.548
206.013
205.725
206.483
206.499
205.104
202.836
200.81
199.996
200.265
200.991
221.76
221.908
222.737
222.141
220.4
217.963
216.119
215.248
215.366
215.899
233.939
234.423
234.688
233.689
231.767
229.584
227.952
227.036
226.906
227.071
242.464
242.827
242.452
241.298
239.629
237.922
236.489
235.511
235.077
234.792
247.423
247.298
246.632
245.685
244.562
243.311
242.071
241.067
240.391
239.731
249.298
248.835
248.271
247.813
247.23
246.386
245.376
244.447
243.703
242.885
249.439
248.953
248.768
248.724
248.536
248.05
247.317
246.569
245.932
245.185
259.976
252.315
253.004
251.564
251.115
250.533
249.992
249.659
249.554
249.68
257.167
252.276
252.823
251.584
251.156
250.577
250.01
249.679
249.614
249.624
255.3
252.277
252.59
251.602
251.189
250.617
250.051
249.754
249.792
249.633
254.203
252.258
252.367
251.62
251.207
250.655
250.121
249.875
250.01
249.719
253.515
252.2
252.236
251.638
251.211
250.699
250.216
250.006
250.2
249.858
253.057
252.151
252.17
251.642
251.211
250.749
250.311
250.105
250.318
250.006
252.753
252.116
252.116
251.648
251.225
250.796
250.379
250.165
250.373
250.132
252.553
252.086
252.069
251.649
251.245
250.837
250.421
250.202
250.394
250.233
252.42
252.059
252.029
251.645
251.259
250.866
250.445
250.232
250.397
250.319
252.327
252.034
251.997
251.638
251.267
250.884
250.458
250.262
250.377
250.387
322.505
259.018
255.17
252.055
251.328
250.718
250.286
249.983
249.267
247.69
300.775
256.643
254.117
251.861
251.221
250.651
250.217
249.94
249.512
248.567
282.319
254.507
253.589
251.727
251.159
250.601
250.152
249.879
249.609
249.303
270.897
253.201
253.319
251.636
251.12
250.561
250.088
249.797
249.604
249.666
264.121
252.527
253.131
251.565
251.094
250.527
250.02
249.693
249.545
249.703
244.219
242.387
239.156
234.167
226.802
216.21
201.869
183.736
162.301
138.843
245.448
243.921
240.672
235.386
227.683
216.886
202.498
184.368
162.822
139.052
247.008
245.492
242.192
236.739
228.752
217.681
203.133
184.928
163.257
139.224
248.759
247.28
244.001
238.503
230.31
218.952
204.143
185.729
163.813
139.429
249.653
248.744
246.05
240.71
232.386
220.745
205.603
186.851
164.542
139.685
)
;

boundaryField
{
    left
    {
        type            zeroGradient;
    }
    right
    {
        type            fixedValue;
        value           uniform 0;
    }
    down
    {
        type            zeroGradient;
    }
    up
    {
        type            zeroGradient;
    }
    cylinder
    {
        type            zeroGradient;
    }
    defaultFaces
    {
        type            empty;
    }
}


// ************************************************************************* //
