/*--------------------------------*- C++ -*----------------------------------*\
  =========                 |
  \\      /  F ield         | OpenFOAM: The Open Source CFD Toolbox
   \\    /   O peration     | Website:  https://openfoam.org
    \\  /    A nd           | Version:  13
     \\/     M anipulation  |
\*---------------------------------------------------------------------------*/
FoamFile
{
    format      ascii;
    class       surfaceScalarField;
    location    "0.085";
    object      phi;
}
// * * * * * * * * * * * * * * * * * * * * * * * * * * * * * * * * * * * * * //

dimensions      [0 3 -1 0 0 0 0];

internalField   nonuniform List<scalar> 
3485
(
0.00135234
-0.0112691
0.00991673
0.0049831
-0.0319284
0.0282976
0.0106232
-0.0514088
0.0457687
0.0180767
-0.0697049
0.0622513
0.0271945
-0.0868661
0.0777484
0.0378632
-0.102937
0.0922688
0.0499957
-0.11795
0.105818
0.06355
-0.131923
0.118369
0.0786273
-0.144919
0.129842
-0.156949
0.139746
0.09583
0.00148558
-0.0127546
0.00539225
-0.0358351
0.011363
-0.0573795
0.0191319
-0.0774739
0.0284852
-0.0962194
0.0392464
-0.113699
0.0512723
-0.129976
0.0644571
-0.145108
0.0787125
-0.159175
-0.172097
0.0938603
0.00146353
-0.0142182
0.00528686
-0.0396584
0.0110877
-0.0631803
0.0185713
-0.0849575
0.0274981
-0.105146
0.0376699
-0.12387
0.0489224
-0.141229
0.0611184
-0.157304
0.0741297
-0.172186
-0.185817
0.0878502
0.00133133
-0.0155495
0.00482961
-0.0431567
0.0101457
-0.0684964
0.0170032
-0.0918149
0.0251791
-0.113322
0.0344938
-0.133185
0.0448029
-0.151538
0.0559887
-0.16849
0.0679474
-0.184145
-0.198479
0.0806093
0.00116169
-0.0167112
0.00423478
-0.0462298
0.00892524
-0.0731869
0.0149968
-0.0978865
0.0222603
-0.120586
0.0305663
-0.141491
0.0397983
-0.16077
0.0498654
-0.178557
0.0606919
-0.194971
-0.21002
0.0722324
0.000976367
-0.0176876
0.0035727
-0.0488261
0.00755156
-0.0771658
0.0127211
-0.103056
0.0189282
-0.126793
0.0260531
-0.148616
0.0340052
-0.168722
0.0427162
-0.187268
0.0521323
-0.204387
-0.220111
0.0622242
0.000778108
-0.0184657
0.00285384
-0.0509018
0.00604299
-0.0803549
0.0101959
-0.107209
0.015193
-0.13179
0.0209416
-0.154365
0.0273736
-0.175154
0.0344409
-0.194335
0.0421105
-0.212057
-0.228371
0.0503696
0.000567721
-0.0190334
0.00208497
-0.0524191
0.00441807
-0.082688
0.00745684
-0.110248
0.0111125
-0.135445
0.0153165
-0.158569
0.02002
-0.179857
0.0251923
-0.199507
0.0308178
-0.217682
-0.234454
0.0369017
0.000350922
-0.0193843
0.0012891
-0.0533573
0.00272964
-0.0841285
0.00460071
-0.112119
0.0068434
-0.137688
0.0094118
-0.161137
0.0122735
-0.182719
0.0154102
-0.202644
0.0188171
-0.221089
-0.238147
0.0225091
0.000136514
-0.0195208
0.000497275
-0.053718
0.00104527
-0.0846765
0.00174889
-0.112822
0.00258196
-0.138521
0.0035237
-0.162079
0.00455896
-0.183754
0.00567854
-0.203764
0.00687919
-0.22229
0.00816616
-0.239434
0.000496715
-0.00233998
0.00184326
0.00220584
-0.00741959
0.00571046
0.00531992
-0.0126304
0.00951633
0.00955941
-0.0172459
0.0130064
0.0146897
-0.0212499
0.0161197
0.0206288
-0.0248997
0.0189606
0.0273414
-0.0283616
0.0216491
0.034756
-0.0316589
0.0242443
0.042777
-0.034763
0.026742
-0.037658
0.0513158
0.0291192
0.000564527
-0.0029045
0.0022502
-0.00910526
0.00509068
-0.0154709
0.00904011
-0.0211954
0.0140672
-0.0262771
0.0201303
-0.0309628
0.0271224
-0.0353537
0.0348983
-0.0394348
0.043338
-0.0432028
-0.0466653
0.0523454
0.00065698
-0.00356148
0.00242889
-0.0108772
0.0052244
-0.0182664
0.00915285
-0.0251238
0.0142934
-0.0314176
0.0205986
-0.0372679
0.027927
-0.0426821
0.0361272
-0.0476349
0.0450831
-0.0521588
-0.0562633
0.0546811
0.000711694
-0.00427318
0.00261751
-0.012783
0.00561688
-0.0212658
0.0098089
-0.0293158
0.0152559
-0.0368646
0.0219043
-0.0439163
0.0296447
-0.0504226
0.0383641
-0.0563543
0.0479496
-0.0617443
-0.0665746
0.058261
0.000769514
-0.00504269
0.00286815
-0.0148816
0.00620099
-0.0245986
0.0107934
-0.0339082
0.0166524
-0.0427236
0.0237278
-0.0509918
0.0319524
-0.0586471
0.0412478
-0.0656497
0.0515069
-0.0720034
-0.0776412
0.0625734
0.00084547
-0.00588816
0.00316681
-0.017203
0.0068529
-0.0282847
0.0118609
-0.0389162
0.0181514
-0.0490141
0.0256729
-0.0585132
0.0343769
-0.0673511
0.0442066
-0.0754794
0.055073
-0.0828698
-0.08939
0.0668218
0.000922557
-0.00681072
0.00344799
-0.0197284
0.00743716
-0.0322739
0.0127997
-0.0442787
0.0194623
-0.0556768
0.0273619
-0.0664128
0.0364489
-0.0764381
0.0466764
-0.085707
0.0579803
-0.0941736
-0.101637
0.0702269
0.000981598
-0.00779232
0.00366462
-0.0224114
0.00788559
-0.0364948
0.013522
-0.0499151
0.0204726
-0.0626274
0.0286542
-0.0745944
0.0380011
-0.085785
0.0484607
-0.0961666
0.059986
-0.105699
-0.114139
0.0724887
0.00102782
-0.00882013
0.00384999
-0.0252336
0.00828965
-0.0409345
0.0141988
-0.0558243
0.0214491
-0.0698777
0.0299316
-0.0830769
0.0395527
-0.0954061
0.0502278
-0.106842
0.0618838
-0.117355
-0.126783
0.0745271
0.00109659
0.00416063
0.00899483
0.0154219
0.0232926
0.0324845
0.0428961
0.0544231
0.0669102
0.0798735
0.114751
-0.426538
0.363103
0.167645
-0.472792
0.419898
0.206451
-0.399117
0.360312
0.233004
-0.282093
0.25554
0.247239
-0.1753
0.161064
0.253993
-0.109232
0.102479
0.256995
-0.06976
0.0667579
0.257722
-0.0431186
0.0423914
0.256864
-0.0237606
0.0246187
-0.00628538
0.00844747
0.115871
-0.490064
0.168967
-0.525888
0.208151
-0.438301
0.234762
-0.308704
0.248972
-0.18951
0.255419
-0.115679
0.258156
-0.0724973
0.258735
-0.0436982
0.257854
-0.0228793
-0.00421696
0.117288
-0.552671
0.169622
-0.578221
0.208964
-0.477643
0.235575
-0.335315
0.249905
-0.20384
0.25623
-0.122004
0.258872
-0.0751393
0.259472
-0.0442975
0.258734
-0.0221421
-0.00241465
0.119255
-0.613665
0.169798
-0.628764
0.208937
-0.516782
0.235498
-0.361876
0.250044
-0.218385
0.256426
-0.128386
0.259136
-0.0778496
0.259918
-0.0450795
0.259489
-0.0217135
-0.0010535
0.121675
-0.672767
0.169652
-0.676741
0.208102
-0.555232
0.234585
-0.388359
0.249403
-0.233204
0.256004
-0.134987
0.258942
-0.0807869
0.260064
-0.0462017
0.260107
-0.0217567
-0.000305412
0.124045
-0.72999
0.169212
-0.721908
0.206478
-0.592498
0.232859
-0.41474
0.247991
-0.248336
0.254963
-0.141959
0.258286
-0.0841099
0.2599
-0.0478159
0.260572
-0.0224289
-0.000344273
0.125564
-0.785327
0.168326
-0.76467
0.204086
-0.628258
0.230358
-0.441012
0.245848
-0.263826
0.253313
-0.149424
0.25717
-0.0879671
0.25942
-0.0500659
0.260875
-0.0238835
-0.00133833
0.125349
-0.838187
0.166563
-0.805884
0.200777
-0.662472
0.226957
-0.467191
0.242911
-0.279779
0.251031
-0.157545
0.255591
-0.0925264
0.258619
-0.0530946
0.261002
-0.0262665
-0.00345416
0.123119
-0.886779
0.163575
-0.846339
0.196558
-0.695455
0.22277
-0.493404
0.239375
-0.296384
0.248262
-0.166432
0.253585
-0.0978493
0.257502
-0.0570119
0.260949
-0.0297136
-0.00684953
0.119467
-0.926372
0.158631
-0.885504
0.190602
-0.727426
0.21701
-0.519812
0.234653
-0.314027
0.244765
-0.176544
0.251095
-0.10418
0.256049
-0.0619658
0.260703
-0.0343677
-0.0116775
0.579294
-0.925301
-0.580365
0.550558
-0.856768
0.509196
-0.686064
0.472235
-0.482851
0.444509
-0.286302
0.427241
-0.159275
0.417288
-0.0942274
0.411414
-0.0560918
0.408195
-0.0311483
-0.0107614
0.675941
-0.87195
-0.729292
0.607835
-0.788662
0.540812
-0.619041
0.488019
-0.430058
0.453075
-0.251357
0.433753
-0.139953
0.422231
-0.0827057
0.414915
-0.0487758
0.410807
-0.0270405
-0.00967238
0.746863
-0.771853
-0.84696
0.646996
-0.688795
0.560003
-0.532048
0.495996
-0.366052
0.458779
-0.21414
0.43913
-0.120304
0.426037
-0.0696136
0.417215
-0.0399534
0.412095
-0.0219207
-0.00834756
0.775499
-0.638337
-0.909015
0.653301
-0.566597
0.553576
-0.432322
0.483192
-0.295669
0.444382
-0.175329
0.422378
-0.0983
0.407486
-0.0547221
0.397891
-0.0303585
0.392049
-0.0160781
-0.00645368
0.751412
-0.490342
-0.899407
0.619241
-0.434427
0.513765
-0.326846
0.438805
-0.220709
0.395438
-0.131961
0.371827
-0.0746897
0.357872
-0.0407668
0.349406
-0.0218926
0.344495
-0.0111667
-0.00470694
0.683269
-0.344772
-0.828839
0.553197
-0.304355
0.451474
-0.225123
0.380372
-0.149606
0.3386
-0.0901891
0.315974
-0.0520644
0.303344
-0.0281366
0.296074
-0.0146227
0.292067
-0.0071598
-0.0031532
0.580465
-0.213438
-0.711799
0.462287
-0.186176
0.372225
-0.135062
0.310427
-0.0878082
0.273598
-0.0533606
0.253201
-0.0316667
0.242154
-0.0170901
0.236163
-0.00863122
0.233053
-0.00405052
-0.00188004
0.44677
-0.105441
-0.554768
0.350171
-0.0895769
0.278669
-0.0635603
0.230908
-0.0400473
0.202206
-0.0246582
0.185747
-0.015208
0.176875
-0.00821732
0.172287
-0.00404372
0.170036
-0.00179978
-0.00090603
0.285183
-0.0302466
-0.360378
0.220039
-0.0244325
0.17332
-0.0168414
0.143283
-0.0100101
0.124963
-0.00633828
0.113938
-0.00418328
0.107992
-0.00227129
0.105046
-0.00109783
0.103696
-0.000449353
-0.000266793
0.100787
-0.131034
0.0763549
0.0595134
0.0495033
0.043165
0.0389817
0.0367104
0.0356126
0.0351632
0.737312
0.0100792
-0.739225
0.731608
0.028213
0.722017
0.0464928
0.708795
0.0635914
0.692254
0.0787657
0.672805
0.0916807
0.651039
0.102376
0.627515
0.111374
0.603116
0.11826
0.11858
0.843975
0.0132006
-0.847096
0.835771
0.0364167
0.825731
0.0565324
0.815018
0.074305
0.803646
0.0901378
0.791246
0.10408
0.77756
0.116063
0.762753
0.126181
0.747141
0.133872
0.13643
0.842492
0.011282
-0.840573
0.846381
0.0325277
0.850542
0.0523706
0.854017
0.0708306
0.856367
0.0877879
0.857388
0.103058
0.856936
0.116515
0.855109
0.128007
0.852167
0.136814
0.141637
0.797728
0.0091948
-0.79564
0.803301
0.0269541
0.811864
0.0438073
0.82305
0.059645
0.836382
0.0744562
0.851185
0.0882555
0.866672
0.101028
0.882158
0.112522
0.896803
0.122168
0.129425
0.735301
0.00696059
-0.733067
0.741551
0.0207037
0.751477
0.0338814
0.764813
0.046309
0.781355
0.0579145
0.800908
0.0687026
0.823226
0.0787091
0.847858
0.0878907
0.873761
0.0962651
0.103779
0.651482
0.00480357
-0.649325
0.657722
0.0144636
0.667841
0.0237622
0.681617
0.0325332
0.698848
0.0406836
0.719362
0.0481879
0.742995
0.0550763
0.769477
0.0614089
0.798348
0.067394
0.0732878
0.546987
0.0028883
-0.545072
0.552649
0.00880221
0.56192
0.0144911
0.574618
0.019835
0.590545
0.0247562
0.609508
0.0292257
0.631315
0.0332693
0.655757
0.0369662
0.682649
0.0405024
0.0441377
0.421169
0.00136418
-0.419644
0.425758
0.00421255
0.433309
0.00694036
0.443665
0.00947868
0.456642
0.0117791
0.472046
0.0138221
0.489692
0.0156237
0.509418
0.0172396
0.531128
0.0187928
0.0204977
0.272842
0.000364277
-0.271843
0.275911
0.00114434
0.280967
0.00188394
0.287887
0.00255883
0.296515
0.00315079
0.306686
0.00365161
0.318244
0.00406527
0.331077
0.00440656
0.34515
0.00471986
0.00526998
0.100183
-0.0998185
0.101327
0.103211
0.10577
0.108921
0.112572
0.116638
0.121044
0.125764
0.0773374
0.159106
-0.142177
-0.0942669
0.0625205
0.147119
-0.132302
0.0492005
0.134116
-0.120796
0.0372729
0.120092
-0.108164
0.0267793
0.104977
-0.0944833
0.0178067
0.0887464
-0.0797737
0.0104678
0.0713568
-0.0640179
0.00491146
0.0527469
-0.0471906
0.00133299
0.0328468
-0.0292683
0.0116354
-0.0103024
0.0774128
0.173974
-0.0922808
0.0634163
0.161115
0.0504633
0.147069
0.0386405
0.131914
0.028054
0.115563
0.0188474
0.097953
0.0111965
0.0790077
0.0053143
0.0586292
0.00146434
0.0366967
0.0130997
0.0727568
0.187425
-0.0862075
0.0600025
0.17387
0.0480442
0.159028
0.037006
0.142952
0.0270223
0.125547
0.0182553
0.10672
0.0109018
0.0863612
0.00519941
0.0643316
0.00143962
0.0404565
0.0145393
0.0664613
0.199819
-0.0788551
0.0547629
0.185568
0.0438238
0.169967
0.0337428
0.153034
0.0246333
0.134657
0.0166362
0.114717
0.00992736
0.0930699
0.00472576
0.0695332
0.00130266
0.0438796
0.015842
0.0591065
0.211101
-0.0703888
0.0485362
0.196139
0.0387182
0.179785
0.0297232
0.162029
0.021637
0.142743
0.0145705
0.121784
0.0086675
0.098973
0.00411029
0.0740904
0.00112672
0.0468632
0.0169687
0.0504776
0.220952
-0.0603282
0.041307
0.205309
0.0328415
0.18825
0.0251298
0.16974
0.0182344
0.149638
0.0122393
0.127779
0.00725608
0.103956
0.00342809
0.0779184
0.000935198
0.0493561
0.0179039
0.0404037
0.228989
-0.0484409
0.0329666
0.212746
0.0261386
0.195078
0.0199481
0.175931
0.0144365
0.15515
0.00966412
0.132551
0.00571321
0.107907
0.00269084
0.0809407
0.000731255
0.0513157
0.0186351
0.029051
0.234868
-0.0349298
0.0236479
0.21815
0.0187118
0.200014
0.0142531
0.180389
0.0102952
0.159108
0.00687747
0.135969
0.00405612
0.110728
0.00190489
0.083092
0.000515607
0.0527049
0.0191508
0.0169506
0.238359
-0.0204421
0.0137688
0.221331
0.0108763
0.202907
0.00827137
0.182994
0.00596378
0.161415
0.00397506
0.137958
0.00233752
0.112366
0.00109336
0.0843361
0.000294049
0.0535042
0.0194448
0.00488895
-0.00596335
0.0039305
0.00307385
0.00231383
0.00165015
0.00108664
0.000630184
0.000289798
7.60211e-05
0.0437719
0.040768
-0.0525967
-0.0319432
0.035463
0.0378445
-0.0295356
0.0277633
0.0346707
-0.0269709
0.0207955
0.0312466
-0.0242788
0.0146798
0.0275992
-0.0214835
0.00948291
0.0237219
-0.0185251
0.00526449
0.019419
-0.0152006
0.00219943
0.014306
-0.0112409
0.000505365
0.00832712
-0.00663307
0.00260142
-0.00209606
0.0439469
0.0499772
-0.0531561
0.0353099
0.0464815
0.0273441
0.0426364
0.0201806
0.0384101
0.0140018
0.033778
0.00896102
0.0287627
0.00510039
0.0232796
0.00235561
0.0170508
0.000628597
0.0100541
0.00323002
0.0453283
0.0596946
-0.0550457
0.036262
0.0555478
0.0279718
0.0509266
0.020579
0.0458029
0.0142398
0.0401172
0.00910676
0.0338958
0.00522927
0.0271571
0.0024834
0.0197966
0.000691278
0.0118462
0.00392129
0.0479086
0.0700442
-0.0582583
0.0382911
0.0651653
0.0295603
0.0596575
0.0218344
0.0535288
0.0152156
0.046736
0.00979809
0.0393132
0.00562935
0.0313259
0.0026402
0.0227858
0.000723845
0.0137626
0.00464514
0.0512663
0.0810698
-0.0622919
0.0410489
0.0753827
0.0318052
0.0689012
0.0236422
0.0616917
0.016625
0.0537532
0.0108052
0.0451331
0.0062268
0.0359042
0.00288849
0.0261241
0.000776879
0.0158742
0.00542202
0.0546837
0.0927086
-0.0663225
0.0439211
0.0861452
0.0341916
0.0786307
0.025578
0.0703053
0.018127
0.0612042
0.0118788
0.0513813
0.00688408
0.0408989
0.00319023
0.0298179
0.000853728
0.0182107
0.00627574
0.0574487
0.10479
-0.0695296
0.046297
0.0972969
0.0362055
0.0887222
0.027231
0.0792798
0.0194137
0.0690215
0.012801
0.057994
0.0074587
0.0462412
0.00346784
0.0338088
0.000930458
0.0207481
0.0072062
0.0592813
0.117082
-0.0715739
0.0479467
0.108632
0.0376539
0.0990151
0.0284428
0.0884909
0.0203626
0.0771017
0.0134791
0.0648775
0.00787928
0.0518411
0.0036709
0.0380172
0.000985876
0.0234331
0.00819208
0.0609559
0.129478
-0.0733519
0.0495244
0.120063
0.0390466
0.109493
0.0295906
0.097947
0.0212382
0.0854541
0.0140833
0.0720324
0.00823729
0.0576871
0.00383314
0.0424213
0.00102549
0.0262408
0.00921757
0.0657425
-0.0784413
0.0535035
0.0422
0.031983
0.0229537
0.0152124
0.00888163
0.00411231
0.00108479
0.213564
0.0590271
-0.074601
0.228574
0.107908
-0.122919
0.240693
0.116615
-0.128733
0.245634
0.118834
-0.123775
0.243865
0.136435
-0.134666
0.233288
0.180908
-0.170331
0.209013
0.272484
-0.248209
0.171084
0.391996
-0.354067
0.117751
0.481971
-0.428638
0.453191
-0.388037
0.212301
0.0447158
0.227495
0.0927136
0.239636
0.104474
0.245247
0.113222
0.244295
0.137387
0.23421
0.190993
0.21008
0.296614
0.171753
0.430322
0.118125
0.535599
0.518161
0.211355
0.0313508
0.226691
0.0773773
0.238778
0.0923872
0.244763
0.107237
0.244293
0.137857
0.234381
0.200905
0.210323
0.320672
0.171671
0.468974
0.118703
0.588568
0.581817
0.210703
0.0186372
0.226152
0.0619291
0.238089
0.0804501
0.244179
0.101147
0.24387
0.138167
0.23386
0.210915
0.209752
0.34478
0.171004
0.507722
0.119775
0.639796
0.643334
0.210319
0.00630803
0.225869
0.0463791
0.237531
0.0687876
0.243475
0.0952034
0.243017
0.138625
0.23267
0.221262
0.208357
0.369093
0.169928
0.546151
0.12132
0.688405
0.702362
0.210177
-0.00587914
0.225833
0.030723
0.237062
0.0575585
0.242608
0.0896575
0.241696
0.139537
0.230784
0.232174
0.206133
0.393744
0.168529
0.583756
0.1229
0.734033
0.75894
0.210257
-0.018146
0.226028
0.0149515
0.23663
0.0469562
0.241536
0.0847519
0.239893
0.14118
0.228194
0.243872
0.203115
0.418823
0.166728
0.620143
0.123752
0.777009
0.813162
0.210543
-0.030699
0.226441
-0.000946414
0.236182
0.0372154
0.240175
0.0807587
0.237469
0.143886
0.224723
0.256618
0.199174
0.444372
0.164148
0.655169
0.122989
0.818168
0.864577
0.211014
-0.0437235
0.227077
-0.0170087
0.235684
0.0286079
0.23857
0.0778724
0.234575
0.147882
0.220513
0.27068
0.194378
0.470507
0.160483
0.689064
0.120315
0.858336
0.911541
0.211861
-0.0575944
0.227661
-0.0328089
0.235213
0.0210559
0.236545
0.0765406
0.230604
0.153822
0.214695
0.28659
0.187857
0.497344
0.154997
0.721925
0.116309
0.897024
0.949408
0.333311
-0.0888953
0.36433
-0.0638274
0.391571
-0.00618551
0.412161
0.0559506
0.433722
0.132261
0.462191
0.258121
0.499154
0.460381
0.542729
0.678349
0.57707
0.862684
0.94212
0.584357
0.338037
-0.124922
0.370996
-0.096787
0.399356
-0.0345454
0.420872
0.0344342
0.44342
0.109713
0.477456
0.224086
0.528961
0.408876
0.597161
0.610149
0.669605
0.79024
0.881793
0.729933
0.342013
-0.164924
0.377946
-0.13272
0.407067
-0.0636673
0.42888
0.0126216
0.45104
0.0875531
0.486358
0.188768
0.548114
0.347119
0.634923
0.52334
0.737244
0.687919
0.776222
0.842815
0.344655
-0.207569
0.383247
-0.171312
0.41341
-0.0938306
0.431933
-0.00590118
0.449905
0.069581
0.481398
0.157275
0.546273
0.282244
0.643778
0.425834
0.766039
0.565658
0.640304
0.901956
0.346599
-0.252157
0.378497
-0.20321
0.388014
-0.103347
0.390065
-0.00795284
0.40375
0.0558966
0.439853
0.121172
0.509943
0.212154
0.6132
0.322578
0.744562
0.434296
0.491481
0.893384
0.344358
-0.294505
0.346184
-0.205036
0.328781
-0.0859439
0.329003
-0.00817521
0.344607
0.0402928
0.381459
0.0843193
0.44913
0.144484
0.54924
0.222468
0.678836
0.3047
0.345496
0.824822
0.316304
-0.308799
0.288462
-0.177194
0.264924
-0.0624064
0.263637
-0.0068877
0.278405
0.0255241
0.311855
0.0508697
0.371158
0.0851807
0.459987
0.133639
0.578014
0.186674
0.2139
0.70961
0.274425
-0.281213
0.221863
-0.124632
0.194796
-0.0353394
0.19279
-0.00488207
0.205536
0.0127778
0.232412
0.0239941
0.27859
0.0390032
0.34926
0.0629677
0.445959
0.0899754
0.105712
0.554146
0.214633
-0.193836
0.14434
-0.0543396
0.12036
-0.0113593
0.11778
-0.00230151
0.126898
0.00365916
0.144566
0.00632572
0.17378
0.00978932
0.220049
0.016699
0.285427
0.024598
0.0303441
0.360795
0.108174
0.0538349
0.0424756
0.040174
0.0438332
0.0501589
0.0599483
0.0766472
0.101245
0.131589
0.60663
-0.11654
0.630391
-0.116042
0.653306
-0.109122
0.67454
-0.100089
0.693543
-0.0893914
0.709718
-0.0765035
0.722639
-0.0613618
0.731992
-0.0442822
0.737504
-0.0259543
-0.00768453
0.747532
-0.134138
0.7627
-0.131211
0.777132
-0.123554
0.790536
-0.113494
0.802736
-0.101591
0.813975
-0.0877419
0.824609
-0.0719957
0.83466
-0.0543339
0.84316
-0.0344539
-0.0116209
0.847862
-0.139186
0.85068
-0.134029
0.852489
-0.125363
0.853074
-0.114079
0.852348
-0.100865
0.850484
-0.0858777
0.847719
-0.0692304
0.844475
-0.0510904
0.841588
-0.0315667
-0.010606
0.890307
-0.127537
0.876459
-0.12018
0.861828
-0.110733
0.847223
-0.0994732
0.833288
-0.0869309
0.820766
-0.0733549
0.810304
-0.0587693
0.802372
-0.0431577
0.797324
-0.026519
-0.00892243
0.868579
-0.102731
0.843619
-0.0952208
0.819821
-0.0869343
0.798213
-0.0778651
0.779274
-0.0679918
0.763273
-0.0573536
0.750416
-0.0459126
0.74091
-0.0336519
0.735013
-0.0206222
-0.00697577
0.794942
-0.072852
0.766703
-0.0669816
0.74078
-0.0610114
0.717638
-0.0547229
0.697553
-0.0479066
0.680695
-0.040496
0.667235
-0.0324523
0.657371
-0.0237878
0.651328
-0.0145789
-0.00497286
0.680813
-0.0440551
0.654278
-0.0404469
0.630171
-0.0369041
0.608665
-0.0332168
0.589961
-0.0292024
0.574243
-0.0247787
0.561704
-0.0199135
0.552543
-0.014626
0.546948
-0.00898385
-0.0030971
0.530643
-0.0205523
0.509069
-0.0188728
0.489476
-0.0173115
0.47195
-0.0156907
0.456641
-0.0138934
0.443727
-0.0118647
0.433399
-0.00958522
0.425842
-0.00706934
0.421219
-0.00436032
-0.00152278
0.345559
-0.00531672
0.331468
-0.00478117
0.31862
-0.00446368
0.307046
-0.00411727
0.296854
-0.00370094
0.28819
-0.00320094
0.281217
-0.00261246
0.27609
-0.00194213
0.272936
-0.0012066
-0.000428925
0.126273
0.121491
0.117028
0.11291
0.10921
0.106009
0.103396
0.101454
0.100247
0.000187694
0.0120011
-0.0121888
0.000633775
0.031467
-0.0319131
0.00125755
0.0477454
-0.0483692
0.00200935
0.0613101
-0.0620619
0.00281709
0.0720669
-0.0728746
0.00385193
0.0820515
-0.0830863
0.004066
0.0797491
-0.0799632
0.00420628
0.0725072
-0.0726475
0.00407772
0.0634694
-0.0633409
0.0521233
0.00364161
-0.0516872
0.000543806
0.0114573
0.00184045
0.0301704
0.00365657
0.0459293
0.00584947
0.0591172
0.00820986
0.0697065
0.0112439
0.0790175
0.0119558
0.0790372
0.0124178
0.0720451
0.0121507
0.0637366
0.0532322
0.0110418
0.000856538
0.0106007
0.00290126
0.0281256
0.0057699
0.0430607
0.00923267
0.0556545
0.0129802
0.0659589
0.0175224
0.0744753
0.0192048
0.0773547
0.0200783
0.0711716
0.0199653
0.0638496
0.0545524
0.0186451
0.00108925
0.0095115
0.00370006
0.0255148
0.00737985
0.0393809
0.0118229
0.0512114
0.0166933
0.0610885
0.0221228
0.0690458
0.0255892
0.0738882
0.0269894
0.0697715
0.0273388
0.0635002
0.0556221
0.0262691
0.00120614
0.00830536
0.0041318
0.0225891
0.00829867
0.035214
0.0133611
0.046149
0.0190139
0.0554357
0.0250873
0.0629724
0.0305644
0.0684111
0.0328227
0.0675132
0.0338632
0.0624596
0.0560633
0.0334221
0.00121021
0.00709514
0.00420438
0.019595
0.00854059
0.0308778
0.0138787
0.0408109
0.0199487
0.0493657
0.0264952
0.0564259
0.0331901
0.0617162
0.0371538
0.0635495
0.0390766
0.0605368
0.0555853
0.0395545
0.00112023
0.00597492
0.00397443
0.0167408
0.00820204
0.0266502
0.0134973
0.0355156
0.019609
0.043254
0.0263089
0.049726
0.0333511
0.0546739
0.0393199
0.0575807
0.0426566
0.0572001
0.0539916
0.0442503
0.000954313
0.0050206
0.00349707
0.014198
0.00737764
0.0227696
0.0123374
0.0305558
0.0181503
0.0374411
0.0246366
0.0432397
0.0315981
0.0477125
0.0385406
0.0506382
0.0438714
0.0518693
0.0507838
0.0470792
0.00074437
0.00427623
0.00286168
0.0120807
0.00621909
0.0194122
0.0106054
0.0261695
0.0158265
0.0322201
0.0217475
0.0373187
0.0282396
0.0412204
0.0350536
0.0438243
0.0415945
0.0453284
0.0456938
0.0466845
0.000541007
0.00373522
0.00221514
0.0104065
0.00498596
0.0166414
0.00868587
0.0224695
0.0131625
0.0277435
0.0183512
0.0321299
0.0241689
0.0354027
0.0304381
0.0375551
0.0369847
0.0387817
0.0391634
0.0435152
0.000388191
0.00334703
0.00169612
0.00909862
0.00393568
0.0144018
0.00698636
0.0194189
0.010777
0.0239528
0.0153479
0.027559
0.0206347
0.0301158
0.026385
0.0318048
0.032338
0.0328287
0.0333212
0.0381801
0.000302674
0.00304435
0.00135885
0.00804244
0.0031838
0.0125769
0.00574304
0.0168596
0.00912672
0.0205691
0.0134224
0.0232633
0.0184643
0.0250739
0.0239822
0.0262869
0.0297521
0.0270589
0.0274076
0.0356657
0.000274858
0.00276949
0.00117077
0.00714653
0.00270701
0.0110406
0.00504178
0.0145249
0.00843799
0.0171729
0.0128072
0.018894
0.017851
0.0200301
0.0233483
0.0207897
0.0291619
0.0212452
0.021394
0.0351756
0.000290773
0.00247872
0.001117
0.0063203
0.00261893
0.00953868
0.0052322
0.0119116
0.00903567
0.0133695
0.0136735
0.0142562
0.0188811
0.0148225
0.0245228
0.0151481
0.0305092
0.0152588
0.0151515
0.0367517
0.00032231
0.00215641
0.00123421
0.0054084
0.00323478
0.0075381
0.00656953
0.00857684
0.0108763
0.00906272
0.015837
0.00929546
0.021312
0.00934743
0.0272206
0.00923952
0.0334972
0.00898221
0.00858027
0.0400684
0.000343355
0.00181305
0.00176595
0.0039858
0.00468946
0.00461459
0.00867157
0.00459474
0.0133614
0.00437289
0.0186306
0.00402621
0.0244072
0.00357085
0.0306295
0.00301722
0.0372385
0.00237328
0.00164304
0.0441757
0.000524089
0.00128896
0.00285607
0.00165382
0.00640318
0.00106747
0.0107109
0.000286971
0.0156593
-0.000575467
0.0211892
-0.00150374
0.0272421
-0.00248198
0.0337549
-0.00349564
0.04067
-0.0045418
-0.00562546
0.0479385
0.00111655
0.000172404
0.00391734
-0.00114697
0.00756492
-0.00258012
0.0119601
-0.00410825
0.0170474
-0.00566277
0.0227593
-0.00721559
0.0290138
-0.0087365
0.0357429
-0.0102247
0.0428977
-0.0116966
-0.0131632
0.0504354
0.00128326
-0.00111086
0.00381825
-0.00368196
0.00736438
-0.00612625
0.0117998
-0.00854371
0.0169989
-0.0108618
0.022836
-0.0130527
0.0292268
-0.0151273
0.0361285
-0.0171264
0.0435078
-0.0190759
-0.020973
0.0513176
0.000732403
0.0027609
0.00615098
0.0106137
0.0158715
0.0217794
0.0283011
0.035419
0.0430851
0.0512314
0.054689
0.0907927
-0.107302
0.0829714
-0.0084441
-0.0198383
0.103826
-0.0527267
0.0318716
0.116607
-0.0476333
0.0348523
0.126097
-0.0329565
0.0234666
0.133659
-0.0224137
0.0148521
0.139832
-0.0155234
0.00935053
0.144946
-0.0108972
0.00578351
0.149264
-0.00755102
0.00323221
-0.00511272
0.00157874
0.0637124
0.062746
0.0991236
-0.0438553
0.124387
-0.0779902
0.138464
-0.06171
0.148733
-0.0432257
0.156813
-0.0304941
0.163298
-0.022008
0.168547
-0.016146
0.172874
-0.0118785
-0.00836701
0.0728079
0.0251137
0.113216
-0.084263
0.142912
-0.107686
0.159854
-0.078652
0.171072
-0.0544439
0.179527
-0.0389491
0.186091
-0.0285721
0.191195
-0.0212501
0.195238
-0.0159214
-0.0111009
0.0821741
-0.0203088
0.125767
-0.127856
0.158585
-0.140504
0.179426
-0.099493
0.192113
-0.0671303
0.200913
-0.0477493
0.207406
-0.0350654
0.212165
-0.0260092
0.215689
-0.0194446
-0.0131199
0.090952
-0.0711924
0.136424
-0.173328
0.171111
-0.175192
0.195493
-0.123875
0.210632
-0.0822684
0.220279
-0.0573965
0.226795
-0.0415818
0.23117
-0.0303842
0.234096
-0.0223703
-0.0143664
0.0985237
-0.12554
0.145271
-0.220075
0.180959
-0.21088
0.207069
-0.149985
0.224075
-0.0992751
0.234914
-0.0682348
0.241774
-0.0484419
0.245866
-0.0344761
0.24794
-0.0244452
-0.014594
0.104493
-0.182094
0.152418
-0.268001
0.188809
-0.24727
0.215202
-0.176378
0.231871
-0.115944
0.241982
-0.0783465
0.247924
-0.0543838
0.25104
-0.0375916
0.251979
-0.0253848
-0.0137863
0.108807
-0.240466
0.158051
-0.317244
0.1951
-0.28432
0.221447
-0.202726
0.237158
-0.131654
0.246069
-0.0872572
0.250941
-0.0592565
0.253155
-0.0398058
0.253367
-0.0255969
-0.0123673
0.111679
-0.300827
0.162348
-0.367914
0.200045
-0.322016
0.226407
-0.229088
0.241353
-0.1466
0.249319
-0.095223
0.253379
-0.0633164
0.254918
-0.0413452
0.254608
-0.0252863
-0.0105314
0.113507
0.165491
0.203786
0.230238
0.244701
0.251957
0.255399
0.256445
0.255777
0.0133349
0.00657556
-0.0199105
0.0108454
0.0024895
0.011474
-0.000628557
0.0131681
-0.00169414
0.0141315
-0.000963352
0.0147077
-0.000576259
0.0150475
-0.00033979
0.0152641
-0.000216609
0.0153645
-0.000100448
-8.00669e-05
0.0374958
0.0251668
-0.0560871
0.031133
0.00885238
0.0341829
-0.00367849
0.0387777
-0.006289
0.041656
-0.00384162
0.0433995
-0.00231973
0.0444692
-0.00140958
0.0451314
-0.000878835
0.0454833
-0.000452332
-0.000280177
0.0581332
0.0523988
-0.0853652
0.050557
0.0164285
0.0565346
-0.00965601
0.0636894
-0.0134438
0.0684267
-0.0085789
0.0713659
-0.00525894
0.0731991
-0.00324279
0.0743271
-0.00200687
0.0749534
-0.0010787
-0.000593284
0.074271
0.0824159
-0.104288
0.0683317
0.0223678
0.0779389
-0.0192632
0.0875696
-0.0230745
0.0941454
-0.0151547
0.098324
-0.00943753
0.100964
-0.00588334
0.102593
-0.00363559
0.103515
-0.00200055
-0.00102444
0.0835485
-0.108434
0.086078
0.0986863
0.110464
0.118776
0.124191
0.127658
0.129805
0.131037
0.00287846
-0.000180395
-0.00269806
0.00343136
-0.000552897
0.00437936
-0.000948001
0.00573785
-0.00135849
0.0074898
-0.00175195
0.00959451
-0.00210471
0.0120135
-0.00241896
0.0146645
-0.00265103
0.017414
-0.00274949
-0.00249647
0.00819843
-0.000672911
-0.00770592
0.00970346
-0.00205792
0.0122765
-0.00352109
0.0159565
-0.00503847
0.0207164
-0.00651187
0.026476
-0.00786428
0.0331324
-0.00907536
0.0405055
-0.0100241
0.0482992
-0.0105433
-0.0102843
0.0131235
-0.00144046
-0.012356
0.0154594
-0.00439378
0.0194292
-0.00749092
0.0250714
-0.0106807
0.0323354
-0.0137759
0.0410775
-0.0166064
0.0510769
-0.0190747
0.0620717
-0.0210189
0.0737068
-0.0221784
-0.0219427
0.0176457
-0.0024408
-0.0166454
0.0206754
-0.00742349
0.0257842
-0.0125997
0.0329743
-0.0178708
0.0421246
-0.0229262
0.0529652
-0.0274469
0.0651024
-0.0312119
0.078165
-0.0340816
0.0916465
-0.0356599
-0.0345841
0.021777
-0.0205762
0.0253952
0.0314407
0.039839
0.0503349
0.0624424
0.0754808
0.0884785
0.0995031
0.0323725
-0.0331159
0.0390124
-0.038269
0.0263696
-0.0326475
0.0386504
0.0205671
-0.0316685
0.037471
0.0152267
-0.0300528
0.0353933
0.0106237
-0.0275974
0.0322003
0.00684356
-0.024071
0.0278512
0.00382285
-0.0195463
0.022567
0.00161859
-0.0145247
0.016729
0.000354217
-0.00923269
0.0104971
-0.00343936
0.00379357
0.0302246
-0.0270918
-0.0362488
0.0243432
-0.0267661
0.0187099
-0.0260352
0.0135421
-0.024885
0.00911884
-0.0231741
0.0056554
-0.0206076
0.00308596
-0.0169768
0.00128431
-0.0127231
0.000267059
-0.00821544
-0.0031723
0.0303366
-0.0209005
-0.0365278
0.0243406
-0.0207701
0.0186558
-0.0203505
0.013411
-0.0196401
0.00881382
-0.0185769
0.00518565
-0.0169794
0.00270967
-0.0145009
0.00113873
-0.0111521
0.000253319
-0.00733003
-0.00291898
0.0325111
-0.0144088
-0.0390028
0.026271
-0.0145301
0.0203713
-0.0144508
0.0148967
-0.0141655
0.00996952
-0.0136498
0.0058326
-0.0128425
0.00288672
-0.011555
0.00119001
-0.00945541
0.000304826
-0.00644485
-0.00261416
0.036201
-0.00752702
-0.0430828
0.0296118
-0.00794091
0.0233886
-0.00822757
0.017598
-0.0083749
0.0123181
-0.00836987
0.00767299
-0.0081974
0.00393659
-0.00781861
0.00151565
-0.00703448
0.000379703
-0.0053089
-0.00223446
0.0403265
-0.000241874
-0.0476117
0.0333686
-0.00098297
0.026797
-0.00165596
0.0206769
-0.0022548
0.0150761
-0.00276911
0.0100648
-0.00318614
0.00574136
-0.00349514
0.00237106
-0.00366419
0.000471561
-0.00340941
-0.00176291
0.0437318
0.00738152
-0.0513552
0.0364611
0.00628767
0.0295913
0.00521389
0.0231841
0.0041524
0.0173149
0.00310001
0.0120573
0.0020715
0.00746803
0.00109412
0.00362232
0.000181508
0.000822685
-0.000609778
-0.000940226
0.0454967
0.0152736
-0.0533888
0.0379936
0.0137907
0.0309217
0.0122859
0.0243219
0.0107522
0.018261
0.00916092
0.0128411
0.00749134
0.00817053
0.00576469
0.00432936
0.00402267
0.00140346
0.00231611
0.000463234
0.0454308
0.0234498
-0.0536069
0.0376962
0.0215253
0.0304569
0.0195252
0.0237417
0.0174674
0.0175704
0.0153322
0.0120113
0.0130505
0.00723368
0.0105423
0.00349264
0.0077637
0.00106832
0.00474042
0.00153155
0.0444861
-0.0529795
0.0364758
0.0290301
0.0222187