/*--------------------------------*- C++ -*----------------------------------*\
  =========                 |
  \\      /  F ield         | OpenFOAM: The Open Source CFD Toolbox
   \\    /   O peration     | Website:  https://openfoam.org
    \\  /    A nd           | Version:  13
     \\/     M anipulation  |
\*---------------------------------------------------------------------------*/
FoamFile
{
    format      ascii;
    class       volVectorField;
    location    "1.865";
    object      U;
}
// * * * * * * * * * * * * * * * * * * * * * * * * * * * * * * * * * * * * * //

dimensions      [0 1 -1 0 0 0 0];

internalField   nonuniform List<vector> 
440
(
(-0.139779 0.125396 -1.08874e-19)
(-0.066293 0.153089 5.59335e-20)
(0.382841 0.0272643 -2.3302e-20)
(0.97977 -0.141252 4.97858e-20)
(1.5676 -0.322945 -1.067e-20)
(-0.0920746 0.0570458 5.55691e-20)
(0.30286 -0.036419 -1.5695e-19)
(1.05203 -0.165331 -1.35553e-19)
(1.69457 -0.254784 6.05472e-20)
(2.14284 -0.33113 -5.57245e-21)
(0.0567721 -0.0257682 7.20842e-20)
(0.914718 -0.125551 1.05151e-18)
(1.7295 -0.173114 -7.82735e-19)
(2.20023 -0.193988 -2.58598e-18)
(2.40604 -0.20082 1.12559e-18)
(0.356461 -0.0691399 -1.91626e-19)
(1.5078 -0.051481 -7.37052e-19)
(2.16133 -0.0389125 2.48574e-18)
(2.40849 -0.0305441 2.67153e-18)
(2.46043 -0.0468338 -7.46564e-19)
(0.739543 1.69436e-05 -3.7524e-19)
(1.90682 0.125746 -8.00105e-19)
(2.36213 0.164012 2.41836e-18)
(2.48138 0.154389 2.5337e-18)
(2.49849 0.13851 8.45898e-19)
(-0.0451018 0.220746 1.64296e-19)
(-0.169845 0.236844 7.30689e-20)
(-0.248898 0.125706 -1.47641e-19)
(-0.280809 -0.00368574 -1.84173e-20)
(-0.263605 -0.0993151 -4.90813e-19)
(-0.102261 0.376656 -2.0591e-20)
(-0.219635 0.440917 -2.5635e-19)
(-0.267649 0.272765 9.93191e-20)
(-0.261372 0.0607272 8.99591e-20)
(-0.19245 -0.11966 -1.24161e-19)
(-0.161937 0.434877 -4.57739e-19)
(-0.245894 0.587222 2.13228e-19)
(-0.20799 0.426638 -2.1095e-19)
(-0.136285 0.141699 -4.88097e-20)
(0.0516645 -0.154522 -1.38262e-20)
(-0.175445 0.345929 -3.37665e-20)
(-0.239522 0.56156 -4.62971e-21)
(-0.125674 0.492705 3.17071e-20)
(0.0358579 0.229866 9.78865e-20)
(0.478928 -0.137967 1.25731e-19)
(-0.158507 0.212231 -2.15107e-20)
(-0.204209 0.366219 -2.43542e-20)
(0.00888755 0.30381 1.12929e-19)
(0.343518 0.0862762 -4.81624e-20)
(1.00648 -0.205399 4.45978e-19)
(-0.0561356 -0.317966 -4.76021e-19)
(0.574246 -0.28359 1.7661e-20)
(0.81847 -0.163317 1.47127e-20)
(0.958373 -0.103984 -2.53284e-20)
(1.02543 -0.0472961 -5.49385e-21)
(0.0880715 -0.468357 1.34831e-18)
(0.611824 -0.412305 -6.79702e-20)
(0.847986 -0.224104 1.36688e-20)
(0.975916 -0.13001 2.29693e-20)
(1.03307 -0.0560942 1.1326e-20)
(0.503038 -0.603335 5.65841e-19)
(0.741161 -0.515767 5.44758e-19)
(0.906144 -0.278507 -1.35574e-20)
(1.00266 -0.152875 3.60581e-20)
(1.04307 -0.0633755 -3.17859e-21)
(1.05529 -0.678503 -4.42415e-19)
(1.00144 -0.567751 -2.11253e-19)
(1.00884 -0.314896 -3.37428e-20)
(1.04344 -0.168977 -3.33945e-20)
(1.05612 -0.0681486 9.14092e-21)
(1.54962 -0.70187 -1.80107e-19)
(1.30977 -0.567899 -5.44634e-19)
(1.15086 -0.320383 0)
(1.10177 -0.172333 4.00997e-20)
(1.07377 -0.0690671 6.04957e-21)
(2.11567 -0.669667 -2.79918e-19)
(1.6501 -0.526836 1.76567e-19)
(1.33224 -0.291468 -5.84706e-21)
(1.18413 -0.152336 3.62236e-20)
(1.10054 -0.0615355 -2.52189e-20)
(2.01261 -0.527296 5.18738e-20)
(1.48851 -0.331705 2.74126e-20)
(1.24751 -0.164262 -5.44465e-21)
(1.15612 -0.0910963 -5.52625e-20)
(1.09353 -0.0407706 0)
(2.01654 -0.365388 -3.21515e-19)
(1.57404 -0.246275 1.2725e-20)
(1.30769 -0.134153 -5.78888e-20)
(1.18752 -0.0736665 1.87267e-20)
(1.10263 -0.0311746 -8.70267e-21)
(1.89856 -0.240225 7.36793e-21)
(1.47861 -0.118592 5.91051e-20)
(1.23843 -0.0369247 -1.54235e-20)
(1.1351 -0.0180299 -1.21482e-34)
(1.06195 -0.010196 4.31638e-21)
(1.17697 -0.0517715 7.5523e-20)
(0.858544 -0.0113556 -2.85754e-21)
(0.77818 0.00177059 -1.59001e-21)
(0.764221 0.00091352 -4.45768e-21)
(0.741808 -0.000401988 1.74905e-21)
(2.3413 0.0963708 -1.03685e-18)
(2.49165 -0.0354462 -1.2515e-18)
(2.33685 -0.188433 1.08649e-18)
(2.48754 -0.299951 -7.431e-20)
(2.13308 -0.405302 -7.45847e-20)
(2.2003 0.0179436 5.72948e-20)
(2.29559 0.00372898 -4.00272e-20)
(2.26692 -0.182288 -1.17219e-19)
(2.29443 -0.21252 -1.64062e-19)
(2.25205 -0.383524 -2.92616e-21)
(2.16078 -0.00511643 7.38528e-20)
(2.17807 -0.00966609 1.03343e-19)
(2.21275 -0.14607 -1.3154e-19)
(2.18034 -0.157358 4.44481e-20)
(2.1909 -0.284844 4.2604e-20)
(2.06855 -0.0301635 1.1945e-19)
(2.06414 -0.0356608 1.29225e-19)
(2.11321 -0.114521 -1.84091e-20)
(2.06675 -0.119621 -9.42373e-21)
(2.10328 -0.195547 2.09882e-20)
(1.57047 -0.030617 1.73767e-19)
(1.5367 -0.0276954 -1.30711e-20)
(1.53483 -0.0474453 2.45123e-20)
(1.45657 -0.0407416 -1.99042e-20)
(1.46392 -0.0671735 1.18312e-20)
(1.57645 0.918234 1.18756e-18)
(1.53869 1.00665 -3.43051e-19)
(1.54056 1.12614 -1.33419e-18)
(1.47375 1.15389 7.49198e-19)
(0.914366 0.82908 -1.87908e-19)
(1.86334 0.806241 -5.96723e-19)
(1.84766 0.890838 -3.18131e-18)
(1.85223 1.00082 -1.23274e-18)
(1.76826 1.01227 -4.27138e-19)
(1.08536 0.712534 -6.96296e-19)
(2.12385 0.69924 8.66906e-19)
(2.11614 0.763768 2.02432e-19)
(2.11747 0.847121 -2.45556e-18)
(1.98964 0.826405 -6.84103e-19)
(1.18297 0.550667 5.02052e-19)
(2.31182 0.526714 2.55634e-18)
(2.32232 0.574057 1.85954e-18)
(2.31213 0.631915 -2.14367e-18)
(2.11577 0.597245 -1.67557e-18)
(1.17843 0.358684 -3.07138e-19)
(2.42143 0.341144 1.2599e-18)
(2.44167 0.374941 -8.96714e-19)
(2.40046 0.399009 6.5601e-19)
(2.09629 0.354685 5.42501e-19)
(1.03291 0.16192 -4.9297e-19)
(0.536884 0.472692 -4.56988e-19)
(0.452205 0.510215 -3.38666e-19)
(0.342548 0.551198 3.57602e-20)
(0.215767 0.568804 4.83503e-21)
(0.0553642 0.417881 9.6567e-20)
(0.667294 0.653196 2.04297e-19)
(0.600549 0.713668 -2.1845e-19)
(0.512217 0.781866 1.93041e-19)
(0.390247 0.82705 -8.97386e-20)
(0.170978 0.623911 1.24277e-19)
(0.808771 0.818355 1.121e-19)
(0.73786 0.89457 5.11919e-19)
(0.675144 0.989828 9.49472e-20)
(0.586361 1.04778 -3.14546e-19)
(0.321968 0.787596 2.5821e-19)
(1.05682 0.934515 3.13615e-19)
(1.01101 1.02498 -8.29066e-19)
(0.959957 1.12245 -2.09674e-18)
(0.873627 1.17297 8.30839e-19)
(0.518056 0.872192 -1.8517e-19)
(1.19936 0.92925 -1.51253e-19)
(1.21224 1.05003 -2.2948e-19)
(1.22687 1.17091 -3.53017e-19)
(1.17276 1.21636 -4.10726e-19)
(0.724049 0.890537 -6.73753e-21)
(0.894404 0.0263474 -1.12341e-19)
(1.09736 0.0634186 -4.12254e-20)
(0.973982 0.128711 -2.58731e-21)
(0.957113 0.156738 -3.77969e-19)
(0.841962 0.28984 2.86243e-19)
(0.894297 0.0208947 7.80059e-20)
(1.09827 0.0653075 1.40847e-19)
(0.982356 0.136636 1.3739e-19)
(0.976437 0.190414 5.57943e-20)
(0.922754 0.372958 -4.13111e-20)
(0.895675 0.0163529 1.06743e-19)
(1.09559 0.0649713 -4.96621e-21)
(1.00555 0.149163 -4.26512e-21)
(0.966454 0.202085 1.77776e-19)
(1.1237 0.497321 -4.95327e-19)
(0.896187 0.0122484 -1.91987e-21)
(1.09758 0.0640747 -1.78953e-19)
(1.01244 0.15979 -6.99188e-20)
(1.03085 0.209416 -4.43183e-19)
(1.17965 0.540671 1.28363e-19)
(0.895059 0.00913518 -2.39594e-20)
(1.09903 0.0647165 4.67856e-20)
(1.03754 0.165054 3.34871e-20)
(1.02349 0.234646 4.96137e-19)
(1.4345 0.678526 -4.70922e-19)
(0.88114 0.00513204 -1.83095e-20)
(1.12502 0.0559345 8.77852e-20)
(1.02879 0.176018 -9.58781e-20)
(1.18397 0.166055 8.94114e-19)
(1.40182 0.654136 -4.45334e-19)
(0.879374 -0.00965959 -2.50322e-21)
(1.13217 0.046123 -8.28046e-20)
(1.05676 0.129207 4.9009e-21)
(1.26019 0.139274 -2.72928e-19)
(1.398 0.478965 7.11589e-21)
(0.880984 -0.0152647 -8.25159e-21)
(1.1321 0.0313102 1.26365e-35)
(1.10878 0.0923713 -4.66382e-20)
(1.26716 0.0898892 8.75358e-20)
(1.40718 0.350856 1.64705e-19)
(0.884727 -0.0388891 5.68477e-21)
(1.1116 -0.00359663 -2.14881e-20)
(1.13778 0.0403012 1.86364e-20)
(1.22029 0.0626579 3.47247e-20)
(1.46918 0.214152 -2.52595e-19)
(0.841332 -0.0238731 -3.47063e-20)
(0.922869 -0.0185565 -2.45634e-21)
(0.886321 0.00709434 2.7956e-20)
(0.946944 0.0112933 -1.58599e-20)
(1.21101 0.059253 -5.81662e-20)
(1.78369 0.765306 3.73875e-19)
(1.89386 0.65784 8.9287e-19)
(2.12364 0.59719 -1.22361e-18)
(2.19755 0.416326 8.30342e-20)
(2.37964 0.291115 4.84257e-19)
(1.71107 0.510606 1.45132e-20)
(1.79444 0.403801 9.8661e-19)
(1.95967 0.403648 9.62615e-20)
(2.03927 0.223401 -9.79889e-19)
(2.18524 0.213768 -3.0809e-19)
(1.706 0.339617 -2.11442e-19)
(1.81014 0.256713 -1.57813e-19)
(1.9235 0.260083 1.95714e-19)
(2.02302 0.134716 -3.13783e-19)
(2.09599 0.136409 2.76422e-19)
(1.71525 0.192201 3.61204e-19)
(1.80169 0.140146 -4.80754e-21)
(1.88294 0.133369 2.38583e-19)
(1.96376 0.0589007 1.99478e-19)
(2.00355 0.0521736 -1.88318e-19)
(1.42306 0.0404138 -4.35977e-20)
(1.48194 0.0218192 2.45393e-19)
(1.53182 0.0130207 1.13232e-19)
(1.55994 -0.00736865 -2.26304e-19)
(1.56517 -0.0115389 5.81731e-22)
(1.12078 -0.0259986 4.7581e-20)
(2.13246 -0.0495217 -3.77553e-19)
(2.37362 -0.0393654 1.03671e-18)
(2.3733 0.0106607 4.46394e-19)
(2.21639 0.0288955 -2.98167e-19)
(0.673985 0.0846728 7.35234e-20)
(1.90839 0.067031 -3.8065e-19)
(2.37985 0.0704009 -4.83876e-19)
(2.45457 0.0752637 5.53779e-19)
(2.22321 0.0812931 -3.22859e-19)
(0.167295 0.0605059 -3.6321e-20)
(1.24689 0.12194 4.104e-19)
(2.02972 0.138376 6.21227e-20)
(2.43099 0.132695 2.27184e-19)
(2.63151 0.122174 5.72267e-20)
(-0.0691379 -0.032863 2.27538e-19)
(0.39773 0.0538069 2.13243e-19)
(1.19627 0.114291 -3.18746e-19)
(1.75124 0.145412 -5.6252e-21)
(2.36441 0.168078 -3.26112e-19)
(-0.0895591 -0.0617169 8.08634e-20)
(-0.0529427 -0.0865024 -1.83291e-19)
(0.392616 -0.0471646 -1.96958e-20)
(0.786472 -0.0656632 -1.86726e-19)
(1.37686 0.02734 -1.27666e-19)
(-0.0800362 -0.119741 -1.11029e-19)
(-0.172104 -0.320084 1.04803e-19)
(-0.0292516 -0.405509 -1.3173e-19)
(0.0499801 -0.422324 2.5011e-19)
(0.595398 -0.273237 -2.66467e-20)
(-0.136047 -0.28098 4.38504e-21)
(-0.228974 -0.541842 1.04513e-19)
(-0.185187 -0.550085 1.29798e-19)
(-0.122043 -0.403489 2.85106e-20)
(0.107708 -0.17712 5.91818e-21)
(-0.127551 -0.285667 -3.49339e-20)
(-0.261747 -0.392308 -5.2172e-19)
(-0.312928 -0.283017 3.56326e-19)
(-0.315249 -0.148889 6.39601e-19)
(-0.251499 -0.0419448 6.18381e-20)
(-0.060112 -0.126167 2.25879e-20)
(-0.205554 -0.194462 1.40556e-19)
(-0.292434 -0.179443 -3.00577e-19)
(-0.324532 -0.129814 -6.40825e-21)
(-0.307796 -0.0837808 -2.30405e-20)
(-0.02472 0.0471202 -9.18074e-21)
(-0.144765 0.026597 2.92637e-20)
(-0.231692 -0.0144196 -8.78982e-21)
(-0.276932 -0.0532717 2.12237e-20)
(-0.272454 -0.0806674 -8.40837e-20)
(1.50304 0.276267 -1.15289e-20)
(1.18896 0.163532 7.72661e-19)
(0.955263 0.103706 -3.3669e-20)
(0.957375 0.041032 4.96276e-20)
(1.00992 0.0065813 -4.73916e-22)
(0.681284 0.282643 1.14844e-19)
(0.676648 0.197487 -3.60345e-19)
(0.808338 0.0711313 -8.46515e-20)
(0.935135 -0.0019444 2.01972e-21)
(1.01346 -0.010828 -2.88633e-21)
(0.0223871 0.166739 5.49282e-19)
(0.527654 0.0912851 -5.68613e-19)
(0.784703 0.0181226 1.05996e-20)
(0.93548 -0.0156043 -2.33492e-20)
(1.01328 -0.0153637 4.97963e-21)
(-0.0829537 0.0123926 -2.17033e-19)
(0.542303 -0.0378703 1.73781e-19)
(0.789425 -0.0478471 1.10344e-20)
(0.938268 -0.052489 -1.41004e-21)
(1.01577 -0.0284666 -5.87799e-22)
(-0.0532448 -0.151564 -2.35453e-20)
(0.565759 -0.157457 1.14042e-19)
(0.803479 -0.103085 1.60768e-22)
(0.946982 -0.0763471 6.27409e-21)
(1.01977 -0.0374082 -2.59487e-21)
(0.52035 0.0786683 -3.48302e-20)
(0.387879 -0.0999443 0)
(0.460803 -0.0794699 -2.38556e-20)
(0.577894 -0.0399263 4.90706e-20)
(0.634091 -0.0102913 -4.30334e-21)
(2.1182 0.415375 0)
(1.81801 0.142072 0)
(1.31177 0.0109439 2.00848e-19)
(1.07469 -0.00319902 1.08318e-20)
(1.01108 -0.0026562 4.01427e-21)
(0.671943 0.00201739 -1.0868e-19)
(0.81506 -0.010218 2.34665e-19)
(0.917865 0.0148777 9.86126e-21)
(1.08044 -0.0384496 2.50085e-19)
(1.42728 0.0869381 1.67673e-19)
(1.56789 0.0206539 1.04793e-19)
(1.80384 0.062283 2.34484e-19)
(1.95402 0.0366668 1.20545e-19)
(2.57011 0.139038 -1.66658e-19)
(2.24131 0.0533091 -2.26189e-20)
(0.853676 -0.415971 -2.03304e-20)
(0.833717 -0.500055 -1.31166e-19)
(0.824672 -0.594528 -8.83265e-20)
(0.75235 -0.657972 5.27219e-20)
(0.446845 -0.51009 1.07786e-19)
(0.761069 -0.32469 1.16677e-19)
(0.707971 -0.382757 2.57451e-19)
(0.630673 -0.444366 -1.76473e-20)
(0.509813 -0.49337 1.06639e-19)
(0.265693 -0.38463 4.25112e-20)
(0.587113 -0.19551 -1.38652e-19)
(0.497193 -0.228743 -3.58552e-20)
(0.397874 -0.272752 1.01488e-19)
(0.289013 -0.309218 -1.12007e-20)
(0.1229 -0.239918 -8.42899e-20)
(0.512351 0.0385355 -3.8585e-19)
(0.433427 0.0269031 -3.33621e-19)
(0.330541 0.00171423 2.66839e-19)
(0.208624 -0.0356877 1.85356e-19)
(0.0525986 -0.0475176 1.34981e-20)
(0.49916 0.227593 -1.76199e-19)
(0.419104 0.238019 -1.70535e-19)
(0.309563 0.24938 -9.13075e-20)
(0.177806 0.259307 6.59899e-22)
(0.0233193 0.193713 9.9597e-21)
(1.99234 -0.0260913 6.79052e-19)
(2.21483 -0.100485 2.35206e-19)
(2.2747 -0.179408 -6.38903e-19)
(2.12493 -0.211133 -1.33124e-18)
(1.26931 -0.182298 1.05446e-19)
(1.93743 -0.108954 1.18772e-18)
(2.02647 -0.210107 1.56413e-18)
(2.03299 -0.328833 1.31757e-19)
(1.94533 -0.390261 2.31096e-19)
(1.23908 -0.34363 -1.52512e-19)
(1.67975 -0.254131 -3.02129e-18)
(1.7105 -0.3661 3.3181e-19)
(1.73245 -0.484078 9.60804e-19)
(1.66855 -0.560982 -3.65808e-19)
(1.07689 -0.474651 5.79685e-19)
(1.43413 -0.368341 7.16674e-19)
(1.44368 -0.458666 -1.88057e-18)
(1.43168 -0.571865 -2.14375e-18)
(1.36025 -0.657966 6.56342e-19)
(0.868819 -0.540591 4.57225e-19)
(1.16749 -0.417405 1.34755e-19)
(1.112 -0.50206 2.10525e-19)
(1.08461 -0.611999 -3.20281e-19)
(1.02088 -0.692722 -3.90347e-19)
(0.639569 -0.549874 -3.62827e-21)
(0.905087 0.0456164 5.45229e-21)
(1.07781 0.0629644 -5.91495e-21)
(0.989723 0.0403285 -2.29649e-20)
(0.804754 0.0112326 -1.29646e-19)
(1.07683 -0.162023 -5.69472e-21)
(0.905464 0.0463256 -2.76711e-21)
(1.07854 0.064265 5.50893e-20)
(0.998604 0.0709059 -8.55921e-20)
(0.850679 0.0334269 3.693e-20)
(0.926762 -0.0590348 -2.42005e-20)
(0.903878 0.0413804 -5.89667e-20)
(1.07793 0.0632614 6.47189e-22)
(1.0026 0.0867194 -2.79373e-20)
(0.850418 0.0652938 -5.37981e-20)
(0.89599 -0.00909551 -9.42961e-20)
(0.89988 0.0370654 8.25761e-20)
(1.08612 0.0611386 4.00258e-21)
(0.983903 0.106526 4.18633e-20)
(0.905869 0.0887451 8.31864e-20)
(0.801306 0.105843 1.30212e-19)
(0.896322 0.0318096 2.02697e-20)
(1.09337 0.0621856 -3.5289e-20)
(0.973545 0.11716 5.11694e-20)
(0.938423 0.128545 1.02401e-19)
(0.789301 0.185078 -1.44657e-19)
(0.826262 0.0326518 0)
(0.794945 0.0270209 9.56195e-21)
(0.597237 0.0128563 -2.08694e-21)
(0.586591 -0.0112924 3.9664e-20)
(0.69502 -0.0345092 -1.10329e-19)
(0.898323 0.0637441 -5.58309e-20)
(1.06574 0.0689502 -2.10694e-20)
(0.910492 0.0285592 -4.13331e-21)
(0.917783 0.00623418 -6.75305e-20)
(0.931768 -0.163906 -1.1023e-19)
(0.988659 -0.0333718 -2.20086e-20)
(1.05815 -0.00428998 4.18448e-19)
(1.12943 0.055076 2.65762e-19)
(0.969027 0.0614705 2.95553e-20)
(0.750083 0.0290548 0)
(1.24903 -0.284946 2.4334e-19)
(1.37095 -0.249105 1.24501e-18)
(1.56088 -0.136035 -1.39731e-18)
(1.63511 -0.00887274 -4.37798e-19)
(1.57231 0.0360363 3.14897e-19)
)
;

boundaryField
{
    left
    {
        type            fixedValue;
        value           uniform (1 0 0);
    }
    right
    {
        type            zeroGradient;
    }
    down
    {
        type            noSlip;
    }
    up
    {
        type            noSlip;
    }
    cylinder
    {
        type            noSlip;
    }
    defaultFaces
    {
        type            empty;
    }
}


// ************************************************************************* //
