# Selection   : all
# Cells       : 440
# Volume      : 7.374263e+01
# Time        	minMag(U)
7.615         	1.002561e-02
7.66          	1.025396e-02
7.71          	1.058665e-02
