/*--------------------------------*- C++ -*----------------------------------*\
  =========                 |
  \\      /  F ield         | OpenFOAM: The Open Source CFD Toolbox
   \\    /   O peration     | Website:  https://openfoam.org
    \\  /    A nd           | Version:  13
     \\/     M anipulation  |
\*---------------------------------------------------------------------------*/
FoamFile
{
    format      ascii;
    class       surfaceScalarField;
    location    "26.3";
    object      phi;
}
// * * * * * * * * * * * * * * * * * * * * * * * * * * * * * * * * * * * * * //

dimensions      [0 3 -1 0 0 0 0];

internalField   nonuniform List<scalar> 
823
(
-0.00155557
0.0157996
-0.0142441
0.0230473
0.00170894
-0.0263118
0.0959945
-0.0539388
-0.0190084
0.206795
-0.124857
0.0140564
-0.174396
0.0202761
0.360915
0.00777625
0.00802337
0.0675422
-0.058057
0.175945
-0.162342
0.300548
-0.24946
-0.323653
0.449805
0.0287011
-0.0206777
0.127366
-0.156722
0.244603
-0.279579
0.34924
-0.354097
-0.392075
0.417662
0.0522251
-0.0729028
0.151998
-0.256495
0.228815
-0.356395
0.268778
-0.39406
-0.403275
0.279978
0.0622575
-0.13516
0.12843
-0.322668
0.161776
-0.389742
0.173779
-0.406063
0.182174
-0.41167
0.0166727
0.106594
-0.123267
0.0141014
0.176362
-0.173791
0.0075331
0.182018
-0.175449
0.00616386
0.160963
-0.159593
0.131411
0.0157845
-0.141032
0.04984
0.0567543
0.100955
0.125247
0.136934
0.146039
0.162359
0.135538
0.111564
0.182206
0.0341643
0.02259
0.0888505
0.0705609
0.139987
0.0949026
0.181441
0.0940832
0.0857793
0.207226
0.0133572
0.00923281
0.0484893
0.0354289
0.092989
0.0504029
0.140619
0.0464532
0.0449717
0.181427
-0.00501125
0.00410576
0.0355003
0.0960099
0.161258
-0.0193983
0.00114332
0.0340396
0.178683
-1.84374
1.64566
0.511561
-0.00926118
-0.323617
0.4224
0.881407
-0.792246
-0.0529122
0.074229
0.286165
-0.102816
0.318711
-1.87629
0.528634
-0.219184
0.449857
0.960183
-0.0494927
0.446374
-0.341964
0.481967
-1.91188
0.428541
-0.165758
0.4347
0.954025
-0.111162
0.557017
-0.717554
0.585832
-1.94069
0.385967
0.034107
0.459688
0.880304
-0.231498
0.42426
-0.980556
0.461888
-1.97832
0.417323
0.0786721
0.537079
0.760548
-0.361715
1.27576
-0.943848
-1.31246
0.851081
-1.55365
0.732919
0.196834
1.01999
0.473481
-0.462132
1.32109
-0.806106
-1.45883
0.647869
-0.880429
0.600744
0.243959
1.07395
0.00027662
-0.493186
1.20714
-0.639156
-1.37409
0.716373
-0.38966
0.792252
0.16808
1.111
-0.318467
-0.398205
0.985935
-0.337941
-1.28715
0.714885
-0.11861
0.889246
-0.00628018
0.828595
-0.257817
-0.157781
0.484629
-0.822571
0.366019
0.359739
0.101922
1.13211
0.148092
-1.09802
1.22491
0.187178
1.33276
0.309807
1.40049
0.382075
0.448941
1.02032
0.0856864
-0.95791
1.09669
0.110807
1.20397
0.20252
1.32766
0.25839
0.317771
0.98356
0.0362641
-0.934138
1.03284
0.06153
1.12165
0.113704
1.23796
0.142085
0.181637
0.941838
0.00400718
-0.909581
0.98672
0.0166475
1.065
0.0354289
1.16296
0.0441168
0.0574506
0.668927
-0.66492
0.685574
0.721003
0.76512
0.142987
0.307361
-0.251204
-0.199145
0.0958168
0.312513
-0.265342
0.0544038
0.32325
-0.281837
0.0192451
0.315007
-0.279848
0.203689
-0.184444
0.104559
0.343486
-0.140683
0.0679574
0.349114
0.0351801
0.356027
0.00912895
0.341058
0.212818
0.0758701
0.381131
-0.113515
0.0423629
0.382621
0.0133153
0.385075
-0.004113
0.358487
0.208705
-0.00318023
0.396868
-0.0125569
-0.0214318
0.400872
-0.0313051
0.394948
-0.02549
0.352672
0.183215
-0.0780744
0.0632724
-0.0832646
-0.0780587
-0.0480548
0.196943
0.112469
-0.250445
-0.0589667
0.142901
0.11692
-0.0628777
0.0881725
0.121615
-0.0668874
0.0356687
0.121005
-0.0685012
0.0854377
-0.0497691
0.194293
0.15473
-0.236554
0.148476
0.162737
0.0966323
0.17346
0.041093
0.176544
0.126531
0.135798
0.200162
-0.18123
0.0948865
0.203648
0.0563286
0.212017
0.0202767
0.212596
0.146807
0.154932
0.231719
-0.186489
0.115929
0.242651
0.0715454
0.256401
0.028055
0.256087
0.174862
0.0814706
-0.100955
0.0587792
0.0333434
0.00958163
0.408791
0.0496238
-0.0624353
0.422981
0.0638183
-0.078008
0.40812
0.20302
-0.188159
0.395956
0.232323
-0.220159
0.519623
-0.374112
0.406582
0.0390209
0.41569
0.0547113
0.398576
0.220133
0.382679
0.24822
0.665747
0.399562
0.0354386
0.408952
0.0453216
0.375651
0.253434
0.373622
0.250249
0.85814
0.394954
0.036464
0.391588
0.0486873
0.368727
0.276295
0.351059
0.267917
1.02271
0.384572
0.0478718
0.380258
0.0530014
0.33904
0.317513
0.323318
0.283638
1.24507
0.614926
0.0369663
0.636813
0.0311141
0.699355
0.254972
0.794741
0.188252
1.02792
1.0119
0.621141
0.0198457
0.634393
0.0178618
0.757591
0.131774
0.795751
0.150092
0.816562
1.00711
0.627379
-0.00351242
0.668585
-0.0233447
0.769288
0.031071
0.783675
0.135704
0.57276
1.02748
0.641666
-0.0411578
0.672616
-0.0542953
0.705293
-0.00160585
0.766175
0.0748221
0.272262
1.06667
0.562863
0.508567
0.506961
0.581783
0.854045
1.04733
-0.234582
1.03362
-0.126965
1.0449
-0.124797
1.03933
-0.00699347
0.00458285
0.953553
-0.181028
0.938745
-0.112157
0.922402
-0.108454
0.937704
-0.0222955
-0.0156233
0.965563
-0.119113
0.947844
-0.0944384
0.919062
-0.0796722
0.932418
-0.0356516
-0.0173429
1.00203
-0.0544707
0.95716
-0.0495678
0.91958
-0.0420918
0.911334
-0.0274058
-0.0155896
0.799574
0.750007
0.707915
0.680509
0.0461363
0.13811
-0.184246
0.0705782
0.306369
-0.330811
0.0716134
0.360758
-0.361793
0.0619847
0.36437
-0.354742
0.33351
0.0495098
-0.321035
0.0663201
0.0717901
0.136313
0.236376
0.17059
0.326481
0.175151
0.35981
0.352753
0.155908
0.0553732
0.0164168
0.16381
0.127939
0.255679
0.234612
0.319395
0.296094
0.346622
0.325526
0.0263616
-0.00994476
0.119478
0.034822
0.236978
0.117112
0.352927
0.180145
0.249993
0.449556
0.00568789
-0.0156327
0.052006
-0.0114961
0.146669
0.022449
0.263488
0.063326
0.109545
0.403936
-0.00148201
-0.0141506
0.0113449
-0.024323
0.0536774
-0.0198835
0.120729
-0.00372605
0.0272314
0.203043
0.000948788
-0.0150994
0.00466358
-0.0280378
0.0150729
-0.0302928
0.0375795
-0.0262327
-0.0137054
0.0785163
0.0131295
-0.0282289
0.0230475
-0.0379558
0.0191485
-0.0263938
0.00882418
-0.0159083
-0.0136616
0.00878033
-0.0540437
0.0258148
-0.134902
0.0429025
-0.226499
0.0652034
-0.315891
0.0734833
0.0660093
-0.395562
-0.0974523
-0.228341
-0.338587
-0.424697
-0.499719
0.305467
0.889361
-0.991785
0.437644
-0.0317208
-0.100456
0.265046
0.534375
-0.361777
0.128929
0.208963
-0.072847
-0.278522
0.273888
0.31457
0.653307
0.484737
-0.201888
0.381223
0.637889
0.236687
0.353499
-0.244509
0.170973
0.491114
0.482461
-0.513376
0.473513
0.646838
0.318638
0.508374
-0.188668
-0.120493
0.216045
0.470965
-1.10483
0.537574
0.580229
0.383594
0.662354
-0.126762
-0.249634
0.291191
0.547803
0.417911
-0.0372922
0.615033
-0.577741
-0.042644
0.00535178
-0.0629961
0.0203521
0.0075305
-0.0705266
-0.15022
0.647441
-1.02419
0.552337
0.210912
0.0675384
0.081241
-0.0133367
-0.0679043
0.131982
-0.0507411
0.236605
-0.104623
0.384115
-0.147509
-0.193626
0.185767
-0.149594
0.290934
0.511837
0.813883
0.136165
-0.129661
0.159381
-0.165885
0.103299
-0.134583
0.167449
0.0661011
-0.141106
0.178304
0.0266122
-0.140294
0.179782
-0.0974663
0.124079
0.175094
-0.0911899
-0.213565
0.132271
-0.0917596
0.084103
-0.0929385
0.0346215
-0.0908121
-0.0628448
0.185609
-0.0427
-0.234098
0.135569
-0.0417199
0.084122
-0.0414916
0.0340814
-0.0407715
-0.0287634
0.199349
0.00840267
-0.250451
0.14752
0.0101089
0.094033
0.0119955
0.0395264
0.0137351
0.010763
0.201433
-0.251997
0.148664
0.0937723
0.0390061
0.0366105
-0.301911
-0.0557342
0.0133611
-0.331492
-0.00747978
-0.340952
-0.0153436
-0.322947
-0.19959
0.114775
-0.272872
-0.143814
0.0744122
-0.29113
0.0354779
-0.302018
0.00661327
-0.294083
-0.192977
0.132524
-0.235503
-0.169894
0.0930479
-0.251653
0.053997
-0.262967
0.0188326
-0.258918
-0.174144
0.150129
-0.202472
-0.18316
0.10967
-0.211194
0.0663967
-0.219694
0.0257524
-0.218274
-0.148392
0.14794
-0.19103
0.104195
0.0628044
0.0243132
0.390853
0.101827
-0.0967004
0.386971
0.112106
-0.108224
0.353271
0.164535
-0.130835
0.292998
0.0830723
-0.0227991
-0.172473
0.299586
0.399129
0.0986773
0.402435
0.1088
0.392608
0.174361
0.34271
0.132971
-0.0433283
0.404474
0.0901827
0.412933
0.100341
0.408258
0.179036
0.369403
0.171825
0.0919766
0.408921
0.0772415
0.419427
0.0898349
0.416446
0.182018
0.389012
0.19926
0.230537
0.410786
0.422613
0.416472
0.395572
0.414106
0.0959449
0.324669
0.0894367
0.233484
0.0911852
0.228405
0.0050792
-0.165327
0.393732
0.509295
0.490509
0.450859
0.433139
0.567399
0.316217
0.0775146
0.246257
0.0699605
0.163707
0.0825493
0.0949422
0.0687653
0.0270379
0.453883
0.340683
0.253339
0.17829
)
;

boundaryField
{
    left
    {
        type            calculated;
        value           nonuniform List<scalar> 
17
(
-0.60402
-0.60402
-0.60402
-0.60402
-0.60402
-0.39598
-0.39598
-0.39598
-0.39598
-0.39598
-0.39598
-0.39598
-0.39598
-0.39598
-0.39598
-0.510051
-0.510051
)
;
    }
    right
    {
        type            calculated;
        value           nonuniform List<scalar> 
17
(
0.157751
0.191206
0.133563
0.202675
0.262797
0.321688
0.365378
0.401084
0.446438
0.496368
0.580024
0.667296
1.1204
1.105
1.01602
0.588171
-0.0558588
)
;
    }
    down
    {
        type            calculated;
        value           uniform 0;
    }
    up
    {
        type            calculated;
        value           uniform 0;
    }
    cylinder
    {
        type            calculated;
        value           uniform 0;
    }
    defaultFaces
    {
        type            empty;
    }
}


// ************************************************************************* //
