/*--------------------------------*- C++ -*----------------------------------*\
  =========                 |
  \\      /  F ield         | OpenFOAM: The Open Source CFD Toolbox
   \\    /   O peration     | Website:  https://openfoam.org
    \\  /    A nd           | Version:  13
     \\/     M anipulation  |
\*---------------------------------------------------------------------------*/
FoamFile
{
    format      ascii;
    class       volVectorField;
    location    "16.2";
    object      U;
}
// * * * * * * * * * * * * * * * * * * * * * * * * * * * * * * * * * * * * * //

dimensions      [0 1 -1 0 0 0 0];

internalField   nonuniform List<vector> 
440
(
(-0.0966607 0.0689962 -6.64592e-20)
(-0.128525 0.0908586 -2.26065e-20)
(-0.0107503 0.0507163 1.18717e-19)
(0.362078 0.0764997 2.33205e-20)
(0.303448 0.209538 2.49109e-20)
(-0.0911045 0.0518495 3.19018e-20)
(0.0331389 0.0259845 -1.06971e-19)
(0.494473 -0.0240165 -1.03364e-19)
(1.02844 -0.0497322 5.84617e-20)
(1.5084 -0.063255 1.30049e-20)
(-0.0277104 0.0109769 4.81591e-20)
(0.458138 -0.0306484 6.54123e-19)
(1.20556 -0.0203074 -3.82199e-19)
(1.79315 0.00485127 -1.24463e-18)
(2.28997 0.0278377 5.12662e-19)
(0.177643 -0.0404197 -1.65209e-19)
(1.12848 0.00592941 -4.91221e-19)
(1.89106 0.0733909 1.56791e-18)
(2.32028 0.115912 1.71618e-18)
(2.41736 0.126434 -4.83324e-19)
(0.524576 -0.00602847 -2.74976e-19)
(1.66267 0.176594 -5.75316e-19)
(2.20649 0.257506 1.74744e-18)
(2.35156 0.272814 1.9042e-18)
(2.43822 0.253789 6.53776e-19)
(0.0389372 -0.261036 -4.0756e-20)
(0.0721259 -0.378519 1.43194e-19)
(0.0885806 -0.337355 -3.69245e-19)
(0.131373 -0.212517 9.12897e-20)
(0.172166 -0.0179722 6.89921e-19)
(0.0630763 -0.253123 -9.74637e-20)
(0.0534434 -0.333641 -3.66541e-19)
(0.0163842 -0.362583 -1.07148e-19)
(-0.0104034 -0.34735 -6.87351e-20)
(-0.0409626 -0.227524 6.84399e-20)
(0.0782096 -0.20021 4.88484e-19)
(0.0451077 -0.208617 -2.89405e-20)
(-0.0205386 -0.179804 2.84961e-19)
(-0.0873402 -0.197493 1.80462e-20)
(-0.157544 -0.1752 7.23817e-21)
(0.0800969 -0.161121 4.1295e-20)
(0.0223239 -0.191283 -4.55013e-22)
(-0.0607567 -0.147489 1.29255e-19)
(-0.132113 -0.122957 -7.52341e-19)
(-0.205438 -0.0743741 2.5162e-19)
(-0.0247478 -0.0194329 -4.4937e-20)
(-0.150233 -0.035975 -6.60014e-20)
(-0.243433 -0.0153333 -2.41709e-19)
(-0.235215 0.0144223 3.59335e-19)
(-0.247745 0.0846572 7.98824e-19)
(0.874494 1.25319 1.33701e-18)
(0.465017 0.302436 -1.30384e-18)
(1.21949 -1.26763 6.22615e-20)
(0.946393 -0.594726 -5.65281e-19)
(1.26712 -0.0853046 3.40568e-21)
(0.338909 1.02092 -1.64169e-18)
(0.851643 0.231443 2.7392e-19)
(1.88798 -1.20206 1.75286e-19)
(1.1765 -0.607431 1.22546e-18)
(1.30545 -0.110795 3.83556e-20)
(-0.434187 0.684656 -1.11071e-18)
(1.43072 0.0142473 -1.38657e-18)
(2.1266 -1.19285 -1.0128e-19)
(1.4769 -0.566449 1.15367e-18)
(1.3684 -0.0923046 -9.72145e-21)
(-0.84276 0.503144 4.93484e-19)
(1.86588 -0.302279 9.90301e-21)
(1.93448 -1.18874 4.87289e-19)
(1.42325 -0.524166 -5.62958e-19)
(1.36928 -0.0733225 1.07688e-19)
(-0.566557 0.181919 -1.27364e-19)
(2.10958 -0.530145 -2.38249e-19)
(2.06265 -1.08742 0)
(1.3607 -0.477023 2.45218e-19)
(1.31434 -0.0561769 1.31267e-20)
(1.06293 0.102065 -2.47056e-19)
(2.51801 -0.606326 -1.13706e-19)
(2.07318 -0.951698 -2.53492e-20)
(1.3616 -0.459132 1.17987e-19)
(1.32111 -0.0655415 -2.3612e-20)
(1.93762 0.0945414 -2.07062e-20)
(2.81605 -0.723228 9.96168e-19)
(1.93083 -0.708688 -1.83848e-20)
(0.914138 -0.194304 -3.57191e-20)
(1.12715 -0.0175323 0)
(2.24182 -0.0243936 -1.87145e-19)
(2.39616 -0.533189 -7.27604e-21)
(1.74193 -0.36456 1.08e-19)
(1.19934 -0.161808 2.90987e-20)
(1.2384 -0.119172 -7.07793e-21)
(2.27881 -0.0351168 1.07184e-19)
(2.17172 -0.44518 2.53021e-19)
(1.16824 -0.268308 -1.81686e-20)
(1.08185 -0.0379841 -2.4069e-34)
(0.926827 -0.0397189 2.13626e-20)
(1.56049 -0.121826 1.04662e-19)
(0.874736 -0.0117543 9.36719e-20)
(0.384449 0.0171091 -1.58249e-21)
(0.228144 -0.0820528 -7.01303e-21)
(0.0294319 -0.0327058 -9.99654e-21)
(2.38575 0.26389 -8.28765e-19)
(2.53239 0.0768137 -9.90956e-19)
(2.42891 0.0747884 7.29832e-19)
(2.54239 -0.0557085 4.60127e-20)
(2.04933 0.0069322 -3.40824e-20)
(2.15942 0.129659 6.14115e-20)
(2.33727 0.109325 -3.69578e-20)
(2.30883 -0.0371136 -1.15753e-19)
(2.37539 -0.0200728 -2.16078e-19)
(2.35478 -0.241166 -2.50727e-21)
(2.07038 0.0399194 6.78395e-20)
(2.1469 0.0662339 9.07407e-20)
(2.18323 -0.0668981 -1.05742e-19)
(2.20938 -0.016521 3.54683e-20)
(2.24893 -0.163516 1.14502e-20)
(1.96508 0.0148714 1.03091e-19)
(2.052 0.0292466 1.31123e-19)
(2.05408 -0.0477356 -1.59966e-20)
(2.12489 -0.0165843 -4.80803e-20)
(2.1284 -0.103207 2.42506e-20)
(1.47541 -0.0140541 1.62377e-19)
(1.48802 -0.0176865 -1.04924e-20)
(1.49265 -0.0187163 1.70721e-20)
(1.50297 -0.0307401 -2.56621e-20)
(1.49298 -0.0230739 -4.39051e-21)
(1.52967 0.845037 1.06077e-18)
(1.49356 0.94103 -3.34502e-19)
(1.49456 1.06492 -1.26116e-18)
(1.41979 1.10037 6.84164e-19)
(0.867143 0.77767 -1.64499e-19)
(1.8085 0.797363 -5.44625e-19)
(1.77751 0.872715 -2.88308e-18)
(1.78273 0.976705 -1.10882e-18)
(1.68778 0.97962 -3.83793e-19)
(1.019 0.667194 -6.11161e-19)
(2.09953 0.686988 7.30275e-19)
(2.07773 0.749093 1.84809e-19)
(2.05004 0.825898 -2.16902e-18)
(1.90422 0.805607 -5.86931e-19)
(1.10509 0.515516 4.23469e-19)
(2.26171 0.563162 2.20282e-18)
(2.24373 0.610097 1.58458e-18)
(2.22864 0.654285 -1.80686e-18)
(1.99796 0.604745 -1.34374e-18)
(1.07 0.334393 -2.38788e-19)
(2.41204 0.414046 1.03428e-18)
(2.40182 0.433018 -7.38786e-19)
(2.28966 0.447312 5.27642e-19)
(1.93774 0.385134 4.07377e-19)
(0.881465 0.142685 -3.38134e-19)
(0.580443 0.421929 -7.06037e-19)
(0.489152 0.456426 -5.67451e-19)
(0.369824 0.49111 7.20165e-20)
(0.23001 0.491136 -2.14668e-20)
(0.0556504 0.344956 6.70906e-20)
(0.685015 0.588782 5.06281e-20)
(0.619069 0.642298 -3.25123e-19)
(0.527091 0.70536 1.70007e-19)
(0.398025 0.763425 -7.87739e-20)
(0.170464 0.584215 1.1306e-19)
(0.764615 0.799125 1.61452e-19)
(0.691289 0.880628 4.20031e-19)
(0.633853 0.976313 7.64633e-20)
(0.548854 1.01723 -2.78982e-19)
(0.300144 0.749904 2.27684e-19)
(1.04039 0.878198 2.07459e-19)
(0.989771 0.960591 -6.33768e-19)
(0.935256 1.0574 -1.796e-18)
(0.848801 1.11908 7.24766e-19)
(0.49808 0.825543 -1.64823e-19)
(1.12185 0.927275 -1.11489e-19)
(1.14828 1.04422 -1.85652e-19)
(1.16577 1.15388 -3.36378e-19)
(1.10701 1.17679 -3.79927e-19)
(0.677262 0.838635 -6.1113e-21)
(1.00591 0.0445681 -7.88415e-20)
(1.00449 0.0102187 -2.70371e-20)
(1.0494 0.133472 -1.4945e-21)
(0.940218 0.110965 -1.59546e-19)
(0.903661 0.250139 2.86124e-19)
(0.991787 0.042903 4.78451e-20)
(1.02635 0.0017902 1.05357e-19)
(1.02997 0.14916 1.04164e-19)
(0.970159 0.132093 1.73663e-20)
(0.938974 0.335731 1.63551e-20)
(0.998124 0.0413108 6.28883e-20)
(1.0155 -0.00739184 -4.35436e-21)
(1.06753 0.168988 -3.11823e-21)
(0.92182 0.134385 1.3539e-19)
(1.13696 0.471002 -4.23231e-19)
(0.994034 0.0399321 -2.76638e-22)
(1.03912 -0.0190459 -1.62585e-19)
(1.04739 0.198 -5.60989e-20)
(1.00974 0.126713 -3.33482e-19)
(1.15299 0.528159 8.27827e-20)
(0.997688 0.0301602 -9.38999e-21)
(1.03884 -0.0138196 4.63346e-20)
(1.07914 0.199815 2.6417e-20)
(0.996188 0.156828 4.55144e-19)
(1.37534 0.662566 -4.1871e-19)
(0.966846 0.0276837 -1.12152e-21)
(1.10904 -0.0349244 9.25911e-20)
(1.02216 0.236149 -5.50332e-20)
(1.27845 0.0675307 9.22104e-19)
(1.31899 0.696872 -3.48833e-19)
(0.927162 -0.0056551 -1.38448e-21)
(1.18982 -0.0200348 -7.4797e-20)
(0.902437 0.158389 4.7731e-21)
(1.39901 0.0533513 -3.06906e-19)
(1.19926 0.522379 -3.76059e-20)
(0.98956 -0.0266153 2.48045e-21)
(1.10495 0.00340198 1.33332e-35)
(0.995342 0.128081 3.23077e-21)
(1.31664 0.0067516 9.98921e-20)
(1.32202 0.378366 1.58557e-19)
(1.08288 -0.0619288 3.88114e-21)
(0.89876 0.00361107 -2.93314e-20)
(1.2467 0.0399697 1.91584e-20)
(1.15122 -0.0236276 2.2743e-20)
(1.43446 0.248687 -2.40336e-19)
(0.968678 -0.0219874 -4.04604e-20)
(0.742048 -0.0196817 -3.17254e-21)
(1.01869 -0.00846739 2.10415e-20)
(0.713496 -0.00534932 -1.96093e-20)
(1.08801 0.0803307 -5.37763e-20)
(1.75535 0.637287 2.81733e-19)
(1.8671 0.648941 7.10389e-19)
(2.10806 0.534624 -1.01537e-18)
(2.19842 0.490373 2.55801e-20)
(2.39101 0.314827 4.31398e-19)
(1.66352 0.405314 6.34309e-20)
(1.71982 0.401948 9.06365e-19)
(1.9276 0.3467 1.01711e-19)
(1.95992 0.282921 -8.40617e-19)
(2.17304 0.22707 -2.66733e-19)
(1.65747 0.270873 -2.21874e-19)
(1.75389 0.239022 -1.42135e-19)
(1.86581 0.209613 1.52023e-19)
(1.9274 0.147436 -2.59908e-19)
(2.03193 0.138043 2.38418e-19)
(1.68244 0.180208 3.67924e-19)
(1.75339 0.149267 -2.12849e-21)
(1.83571 0.127825 2.03213e-19)
(1.86788 0.0839775 1.6679e-19)
(1.95374 0.0752027 -1.66661e-19)
(1.29123 0.048334 -4.70621e-20)
(1.36771 0.029312 2.32529e-19)
(1.40244 0.0170041 9.50553e-20)
(1.43991 0.000943713 -1.99032e-19)
(1.45623 -0.00487631 3.27285e-22)
(1.35653 -0.0278491 8.32963e-20)
(2.43367 -0.0122615 -5.99033e-19)
(2.65175 -0.00532585 1.60374e-18)
(2.62052 0.0421786 7.4578e-19)
(2.37905 0.0503702 -5.08878e-19)
(0.920536 0.112664 1.92904e-19)
(2.22684 0.143623 -6.62246e-19)
(2.63698 0.155148 -9.47254e-19)
(2.6362 0.161554 1.29645e-18)
(2.43342 0.15552 -9.6307e-19)
(0.350611 0.121566 -6.57934e-21)
(1.65417 0.242367 8.14667e-19)
(2.3863 0.29605 1.25453e-19)
(2.6757 0.309975 1.40071e-18)
(2.63855 0.276024 7.76823e-19)
(0.0167801 0.0166892 2.48654e-19)
(0.797031 0.201776 2.92593e-19)
(1.67943 0.327114 -9.65364e-19)
(2.21389 0.392966 9.94303e-20)
(2.65223 0.429593 9.32658e-19)
(-0.0845529 -0.0695356 1.92532e-19)
(0.17651 0.0536218 -2.22223e-19)
(0.827512 0.236902 -1.6493e-19)
(1.37366 0.36578 2.72197e-19)
(2.00316 0.532357 1.68972e-19)
(-0.0868745 -0.105786 7.03757e-20)
(-0.0566651 -0.0823976 1.0185e-19)
(0.240591 0.0214686 7.87868e-20)
(0.532399 0.181939 -3.84219e-19)
(1.24749 0.423183 1.0881e-20)
(-0.0689114 -0.115504 -4.82853e-20)
(-0.0920262 -0.140208 -3.91135e-20)
(0.0134862 -0.0714578 5.14897e-20)
(0.147401 0.0997764 -6.58738e-20)
(0.538116 0.380676 -2.84396e-21)
(-0.0500025 -0.123008 -5.53365e-20)
(-0.0670949 -0.173934 3.7167e-21)
(-0.0245123 -0.112876 -2.90761e-20)
(0.0240157 0.0197767 -7.18691e-20)
(0.15318 0.226452 2.54073e-19)
(-0.0309985 -0.122119 -3.51297e-20)
(-0.034648 -0.183577 -1.33591e-19)
(0.000989077 -0.0900278 2.64989e-19)
(0.0524531 0.101691 4.35297e-19)
(0.105334 0.33434 -4.30339e-20)
(-0.000675454 -0.175781 1.18688e-20)
(0.0312197 -0.286198 -3.16743e-20)
(0.0736625 -0.215456 7.47806e-21)
(0.140326 -0.0317184 1.89197e-20)
(0.218649 0.223703 1.00035e-19)
(1.47263 0.726501 -1.09132e-20)
(0.239786 0.25522 1.38179e-19)
(0.420998 -0.0826759 -1.57045e-19)
(0.849931 -0.0960449 -3.34244e-19)
(0.785613 -0.0244364 1.07882e-21)
(1.34592 0.801701 1.51139e-19)
(-0.536029 0.363865 9.20883e-19)
(0.30674 -0.201181 4.2081e-19)
(1.0001 -0.173043 -2.40042e-20)
(0.995099 -0.0114478 1.64449e-20)
(0.884908 0.926107 -2.12762e-19)
(-1.54306 0.442817 3.08238e-18)
(0.404902 -0.608563 1.73529e-19)
(0.953687 -0.283841 3.9983e-19)
(1.12182 0.000433918 2.65936e-20)
(0.191109 1.07105 7.55907e-19)
(-1.39264 0.312341 -5.52608e-18)
(0.479315 -0.987661 -9.93569e-19)
(0.780491 -0.402339 1.69315e-20)
(1.16378 -0.017098 -1.18193e-20)
(0.493109 1.28893 2.12621e-19)
(-0.052517 0.335563 -2.16246e-19)
(0.765169 -1.08831 3.87561e-19)
(0.830886 -0.515202 -8.89435e-20)
(1.22136 -0.061285 2.68038e-20)
(-0.208158 0.0804737 -5.38462e-20)
(-0.375439 -0.172483 0)
(-0.17469 -0.0923611 -8.66096e-20)
(0.0150754 -0.0691981 6.27385e-20)
(0.345242 -0.0309135 -1.72936e-20)
(1.74175 0.626943 0)
(0.805295 0.209794 0)
(0.606681 -0.0348805 2.88573e-19)
(0.609067 -0.0940231 1.88282e-19)
(0.600085 -0.0604568 1.27424e-20)
(0.756672 0.00651241 -1.33641e-19)
(0.821717 0.0011495 3.52652e-19)
(0.933638 0.0391366 -3.3078e-20)
(0.851416 0.0235109 3.90216e-19)
(1.18989 0.196913 2.24303e-19)
(1.71145 0.0437748 1.29458e-19)
(1.91114 0.0919981 5.30682e-19)
(1.97768 0.183943 -9.04503e-19)
(2.37147 0.270103 3.86872e-19)
(2.30959 0.455332 6.44932e-19)
(0.968448 -0.525866 2.17732e-20)
(0.96145 -0.624416 -2.13851e-19)
(0.95975 -0.731095 -1.78817e-19)
(0.894095 -0.808608 1.07728e-19)
(0.552331 -0.645002 1.50307e-19)
(0.864033 -0.433067 1.08773e-19)
(0.808385 -0.503773 1.46002e-19)
(0.733612 -0.580856 -1.10571e-19)
(0.619692 -0.649536 1.58203e-19)
(0.346009 -0.524568 4.29062e-20)
(0.685404 -0.29466 -1.13421e-19)
(0.597138 -0.340564 -6.33307e-20)
(0.496791 -0.397813 4.78116e-21)
(0.378153 -0.448398 -4.93443e-20)
(0.176802 -0.361008 -1.45911e-19)
(0.574124 -0.0631025 -4.3878e-19)
(0.488052 -0.0836399 -3.50625e-19)
(0.37692 -0.113505 2.8623e-19)
(0.24818 -0.149808 1.41906e-19)
(0.0769207 -0.140449 1.29107e-20)
(0.542882 0.147057 -1.35035e-19)
(0.456644 0.144652 -1.55313e-19)
(0.337812 0.137911 -3.74586e-20)
(0.196934 0.135055 5.62102e-20)
(0.0340197 0.0980683 1.4569e-20)
(2.19236 -0.0253791 9.87137e-19)
(2.42319 -0.0980421 3.57558e-19)
(2.52107 -0.190092 -9.067e-19)
(2.4077 -0.216779 -1.93284e-18)
(1.49482 -0.214405 1.50956e-19)
(2.12131 -0.129446 1.60607e-18)
(2.2433 -0.245754 2.10324e-18)
(2.27791 -0.374583 1.76094e-19)
(2.212 -0.437384 3.07961e-19)
(1.44905 -0.40828 -2.06181e-19)
(1.84546 -0.302283 -4.07925e-18)
(1.9017 -0.425353 4.56442e-19)
(1.95045 -0.55932 1.29827e-18)
(1.91012 -0.643272 -5.12401e-19)
(1.26483 -0.565665 8.16429e-19)
(1.59819 -0.433571 9.98068e-19)
(1.62465 -0.540189 -2.63167e-18)
(1.62618 -0.668433 -3.02799e-18)
(1.56951 -0.766322 9.47953e-19)
(1.02778 -0.648864 6.26406e-19)
(1.30112 -0.502459 2.26843e-19)
(1.25606 -0.60342 2.93071e-19)
(1.24863 -0.734194 -4.68505e-19)
(1.19993 -0.830723 -5.68441e-19)
(0.771998 -0.675141 -5.43798e-21)
(1.06127 0.0511721 6.93832e-21)
(0.947637 0.0485162 1.71218e-21)
(1.12389 0.0768 1.08206e-20)
(0.841724 -0.00926315 -2.69566e-19)
(1.15585 -0.231198 -2.24436e-20)
(1.07127 0.0531348 -2.28869e-21)
(0.940571 0.0431796 2.21588e-20)
(1.12346 0.0952411 7.36691e-21)
(0.912539 0.0325147 2.39058e-19)
(1.04092 -0.117568 7.10912e-21)
(1.06867 0.0492007 -5.43643e-20)
(0.943157 0.0354202 -8.97362e-23)
(1.10652 0.100185 -4.94614e-21)
(0.909369 0.049021 1.32782e-19)
(0.99524 -0.0560355 -2.79434e-19)
(1.04934 0.0474396 6.39839e-20)
(0.966337 0.027514 2.62896e-21)
(1.07341 0.107932 1.93971e-20)
(0.939867 0.0743478 -6.91622e-20)
(0.889229 0.0510661 5.62793e-20)
(1.02199 0.0446874 1.57685e-20)
(0.99577 0.0215633 -2.28975e-20)
(1.04355 0.11745 3.11743e-20)
(0.957578 0.0958575 3.16698e-20)
(0.857296 0.151992 -1.20742e-20)
(0.887316 0.0336252 0)
(0.721504 0.027604 8.37327e-21)
(0.614259 0.0209069 7.43309e-21)
(0.371039 -0.00970254 5.67526e-20)
(0.73014 -0.0579253 -1.83142e-19)
(1.02944 0.0724148 -6.23487e-20)
(0.957223 0.0676195 1.02549e-21)
(1.03519 0.0779397 -7.04952e-20)
(0.831797 -0.0114767 -1.59708e-19)
(1.08722 -0.213336 -1.93968e-19)
(1.01777 -0.0690526 -4.23641e-20)
(1.1107 -0.0378757 6.12282e-19)
(1.21876 0.0363296 3.61932e-19)
(1.08533 0.06012 2.96521e-20)
(0.845972 0.0328396 0)
(1.37676 -0.331665 4.14524e-19)
(1.50147 -0.291628 1.74576e-18)
(1.69618 -0.167582 -1.88597e-18)
(1.7971 -0.0201608 -5.99724e-19)
(1.73255 0.0375782 4.54524e-19)
)
;

boundaryField
{
    left
    {
        type            fixedValue;
        value           uniform (1 0 0);
    }
    right
    {
        type            zeroGradient;
    }
    down
    {
        type            noSlip;
    }
    up
    {
        type            noSlip;
    }
    cylinder
    {
        type            noSlip;
    }
    defaultFaces
    {
        type            empty;
    }
}


// ************************************************************************* //
