# Selection   : all
# Cells       : 440
# Volume      : 7.374263e+01
# Time        	min(p)
7.915         	-1.391720e+00
7.96          	-1.412934e+00
8.01          	-1.448432e+00
