# Selection   : all
# Cells       : 440
# Volume      : 7.374263e+01
# Time        	maxMag(U)
9.015         	2.768006e+00
9.06          	2.765661e+00
9.11          	2.762606e+00
