/*--------------------------------*- C++ -*----------------------------------*\
  =========                 |
  \\      /  F ield         | OpenFOAM: The Open Source CFD Toolbox
   \\    /   O peration     | Website:  https://openfoam.org
    \\  /    A nd           | Version:  13
     \\/     M anipulation  |
\*---------------------------------------------------------------------------*/
FoamFile
{
    format      ascii;
    class       volVectorField;
    location    "7";
    object      U;
}
// * * * * * * * * * * * * * * * * * * * * * * * * * * * * * * * * * * * * * //

dimensions      [0 1 -1 0 0 0 0];

internalField   nonuniform List<vector> 
440
(
(-0.0720041 0.0602077 -5.33527e-20)
(-0.0743501 0.117548 7.42881e-21)
(0.0407175 0.104172 1.33648e-20)
(0.46405 0.112435 3.59344e-19)
(0.391933 0.250463 -1.27175e-20)
(-0.0623898 0.0336633 2.18845e-20)
(0.0736061 0.00606135 -1.13938e-19)
(0.50907 -0.0317272 -7.81565e-20)
(1.05815 -0.0532931 1.72829e-20)
(1.45038 -0.046336 -1.97535e-20)
(-0.00507767 0.000232846 3.97405e-20)
(0.482849 -0.0463512 7.16121e-19)
(1.23861 -0.0293975 -4.37413e-19)
(1.80409 0.00733646 -1.2848e-18)
(2.38113 0.0293117 5.33845e-19)
(0.199895 -0.0469441 -1.67682e-19)
(1.17258 0.00230614 -5.58972e-19)
(1.95192 0.0804621 1.71399e-18)
(2.42499 0.126298 1.93623e-18)
(2.50378 0.152253 -5.17027e-19)
(0.558038 -0.00721881 -2.90855e-19)
(1.74734 0.189809 -6.29658e-19)
(2.31436 0.275592 1.93325e-18)
(2.43638 0.294901 2.01701e-18)
(2.51174 0.267259 6.77005e-19)
(0.000431259 -0.153559 2.80523e-20)
(-0.0591483 -0.314357 2.27093e-20)
(-0.137659 -0.36237 -7.3819e-20)
(-0.207416 -0.375006 1.16925e-20)
(-0.260492 -0.384099 9.05497e-20)
(-0.00771549 -0.0400598 -2.75703e-20)
(-0.0740118 -0.133309 -1.59696e-19)
(-0.15361 -0.177392 3.44345e-20)
(-0.225924 -0.209167 3.61301e-20)
(-0.274891 -0.251296 -6.52685e-20)
(-0.0507235 0.0808624 -2.77804e-19)
(-0.125888 0.0614733 2.12282e-19)
(-0.19732 0.0214935 -1.4591e-19)
(-0.260321 -0.026311 -3.36568e-19)
(-0.289538 -0.0898702 -1.8157e-21)
(-0.0836776 0.139312 9.38988e-21)
(-0.13773 0.191888 -8.00564e-20)
(-0.167775 0.180021 1.00862e-20)
(-0.183876 0.140253 8.57347e-19)
(-0.171945 0.079554 -2.01179e-19)
(-0.0877394 0.115098 3.71231e-20)
(-0.137066 0.211887 4.01988e-20)
(-0.144068 0.253737 9.48232e-20)
(-0.0627689 0.272909 -1.99224e-19)
(-0.0292939 0.340365 -5.37726e-19)
(-0.482059 -0.45651 -1.57473e-19)
(0.777195 0.0368205 -5.98383e-19)
(0.570589 0.97993 4.76119e-19)
(0.13496 0.336335 1.28756e-19)
(1.10354 -0.465956 -5.20369e-20)
(-0.395969 -0.561645 1.66802e-19)
(0.50088 -0.124439 2.17142e-19)
(0.231 1.05781 1.37653e-20)
(0.622109 0.223664 2.47277e-20)
(1.39416 -0.565857 -2.62367e-19)
(-0.170389 -0.60188 -1.25941e-20)
(-0.0448007 -0.211392 -3.06023e-18)
(-0.35145 1.00605 5.17371e-20)
(1.21057 -0.0254101 7.84668e-19)
(1.65968 -0.639757 4.46697e-20)
(0.353239 -0.602866 -2.61617e-19)
(-0.430877 -0.195746 1.23186e-19)
(-0.579515 0.795047 7.56743e-19)
(1.7405 -0.328285 -8.43518e-19)
(1.87099 -0.679077 -2.80948e-19)
(1.18572 -0.570794 -2.52205e-19)
(-0.129121 -0.181203 9.94054e-19)
(-0.0936592 0.443246 0)
(2.12716 -0.565505 4.60348e-19)
(2.00784 -0.690603 -7.70341e-20)
(2.16969 -0.387891 -4.75736e-19)
(1.23632 -0.0267969 4.9878e-20)
(1.08429 0.140965 3.15212e-20)
(2.52489 -0.734782 -1.20183e-19)
(2.08561 -0.67303 1.22186e-19)
(2.30967 -0.451156 6.09984e-20)
(1.73114 0.077168 -3.73394e-19)
(2.02665 0.0184987 1.83262e-20)
(2.75542 -0.767755 8.70515e-19)
(1.92938 -0.575397 0)
(2.2322 -0.193532 -2.60285e-19)
(1.78475 0.0426099 1.39043e-20)
(2.31262 -0.22208 3.87893e-19)
(2.39802 -0.631346 -3.2748e-19)
(1.37121 -0.376846 2.5488e-20)
(2.01599 -0.155008 -1.22605e-20)
(1.90614 -0.0334707 1.55734e-19)
(2.12293 -0.271994 3.04991e-20)
(1.73613 -0.454023 1.02358e-33)
(0.70915 -0.211 1.85979e-20)
(1.30912 -0.0194852 7.20272e-20)
(1.32549 -0.0558821 1.38257e-20)
(0.961031 -0.124237 -7.11844e-20)
(0.179308 -0.00187851 9.1632e-20)
(-0.301416 0.0259549 -5.34665e-21)
(2.39443 0.279457 -8.25225e-19)
(2.63547 0.0663831 -1.11496e-18)
(2.4277 0.122869 7.68098e-19)
(2.7442 -0.0876224 7.34343e-20)
(1.92361 0.110675 -3.89316e-20)
(2.11036 0.205998 6.80988e-20)
(2.47879 0.0374173 -3.99856e-20)
(2.22851 0.0650368 -1.41099e-19)
(2.54048 -0.114492 -2.35236e-19)
(2.30672 -0.127964 -5.15213e-21)
(2.07575 0.0969292 7.77338e-20)
(2.2182 0.0431577 9.05046e-20)
(2.18794 -0.00591498 -1.15662e-19)
(2.25853 -0.0492144 4.06921e-20)
(2.28582 -0.113616 1.61355e-20)
(2.00484 0.0411431 1.15743e-19)
(2.00012 0.0216426 1.56106e-19)
(2.1166 -0.00802942 -1.85001e-20)
(2.07143 -0.0308588 -4.86541e-20)
(2.19757 -0.055618 2.37608e-20)
(1.4763 -0.00590695 1.82956e-19)
(1.44293 -0.00222353 -1.13783e-20)
(1.5324 -0.0170333 1.91464e-20)
(1.45785 -0.00937801 -2.80937e-20)
(1.56924 -0.0287719 1.90768e-21)
(1.57669 0.826255 1.09528e-18)
(1.52724 0.925742 -3.44116e-19)
(1.52363 1.05808 -1.33436e-18)
(1.45713 1.1096 7.29456e-19)
(0.896741 0.802072 -1.75902e-19)
(1.85439 0.796718 -5.74434e-19)
(1.82568 0.876489 -2.95629e-18)
(1.83339 0.983729 -1.13792e-18)
(1.74373 0.997095 -4.15799e-19)
(1.06748 0.701112 -6.64659e-19)
(2.16608 0.676066 7.22411e-19)
(2.13892 0.745093 2.02e-19)
(2.11122 0.835221 -2.22097e-18)
(1.98123 0.825464 -6.26971e-19)
(1.1719 0.547829 4.81244e-19)
(2.3231 0.5731 2.21169e-18)
(2.31744 0.623506 1.64014e-18)
(2.31426 0.672475 -1.91956e-18)
(2.09114 0.628586 -1.43162e-18)
(1.14325 0.36146 -2.72652e-19)
(2.4822 0.420908 1.08037e-18)
(2.4814 0.44121 -8.06156e-19)
(2.37384 0.466014 5.58572e-19)
(2.0382 0.407652 4.58968e-19)
(0.942261 0.155733 -3.84439e-19)
(0.568561 0.448441 -6.78893e-19)
(0.478017 0.483761 -5.24625e-19)
(0.36024 0.519027 6.21832e-20)
(0.224166 0.524311 -1.22527e-20)
(0.0551635 0.377782 8.24415e-20)
(0.677944 0.613055 9.20002e-20)
(0.614221 0.670311 -3.16874e-19)
(0.525128 0.736786 1.8465e-19)
(0.398283 0.793962 -8.51321e-20)
(0.172949 0.607153 1.20794e-19)
(0.767927 0.814762 1.73211e-19)
(0.696634 0.8958 4.46297e-19)
(0.641863 0.992412 8.1535e-20)
(0.558465 1.03459 -2.95068e-19)
(0.306557 0.766241 2.43395e-19)
(1.04643 0.884008 2.14362e-19)
(0.999559 0.967859 -6.49779e-19)
(0.948137 1.06684 -1.85668e-18)
(0.865875 1.13619 7.55251e-19)
(0.511334 0.848086 -1.73598e-19)
(1.12149 0.932216 -1.14232e-19)
(1.15289 1.05463 -1.91371e-19)
(1.17894 1.17081 -3.52339e-19)
(1.12624 1.19743 -4.0248e-19)
(0.693423 0.861169 -6.49876e-21)
(1.00478 0.0595448 -9.87901e-20)
(0.993365 0.0164036 -3.86761e-20)
(1.04362 0.127114 -1.49015e-21)
(0.936603 0.133496 -2.91872e-19)
(0.890214 0.270708 3.25989e-19)
(0.990578 0.0583618 6.23021e-20)
(1.00957 0.0102512 1.38449e-19)
(1.03494 0.138794 1.28068e-19)
(0.970686 0.16146 4.00443e-20)
(0.927812 0.350172 -1.2445e-21)
(0.994657 0.0573821 8.4783e-20)
(0.99856 0.00191446 -5.24134e-21)
(1.07907 0.156809 -5.92575e-21)
(0.925075 0.163464 1.58348e-19)
(1.12711 0.489597 -4.91487e-19)
(0.988746 0.0572725 -4.17068e-22)
(1.02101 -0.0102215 -1.95154e-19)
(1.07522 0.179484 -6.71228e-20)
(1.00408 0.173838 -4.0436e-19)
(1.1533 0.536471 8.95546e-20)
(0.987113 0.0487787 -1.45948e-20)
(1.03079 -0.00868079 5.70631e-20)
(1.11611 0.185316 3.205e-20)
(0.983026 0.196704 4.83128e-19)
(1.39379 0.666998 -4.69068e-19)
(0.953293 0.048634 -7.62007e-21)
(1.10923 -0.0365285 1.13339e-19)
(1.08614 0.219596 -7.85047e-20)
(1.22226 0.128464 9.09289e-19)
(1.30334 0.6974 -3.74352e-19)
(0.911657 0.0132975 -1.66871e-21)
(1.20081 -0.034289 -9.80733e-20)
(0.994563 0.155778 4.82932e-21)
(1.31526 0.129576 -3.01881e-19)
(1.28727 0.461169 -2.54394e-20)
(0.96429 -0.00461191 -4.19004e-21)
(1.1564 -0.0339549 1.40635e-35)
(1.01653 0.1449 -2.41255e-20)
(1.27196 0.0704123 1.01781e-19)
(1.44258 0.288829 1.75245e-19)
(1.07782 -0.053519 4.33927e-21)
(0.964389 -0.0282278 -2.9622e-20)
(1.14145 0.0808557 1.92927e-20)
(1.22353 0.00743832 3.19039e-20)
(1.50702 0.165082 -2.61002e-19)
(0.987205 -0.0239961 -4.15853e-20)
(0.73839 -0.0186212 -5.5478e-21)
(0.957118 0.00852476 2.30949e-20)
(0.876098 -0.017173 -1.73279e-20)
(1.04715 0.0557519 -5.84981e-20)
(1.81754 0.608415 3.01178e-19)
(1.90488 0.641115 7.32442e-19)
(2.17939 0.509033 -1.05031e-18)
(2.22469 0.498074 -3.76749e-20)
(2.45736 0.301771 4.75539e-19)
(1.77454 0.402945 9.23715e-20)
(1.78135 0.426982 1.04984e-18)
(2.04919 0.341786 1.3166e-19)
(1.97442 0.339107 -9.36587e-19)
(2.30025 0.190689 -2.84909e-19)
(1.73166 0.304652 -2.48242e-19)
(1.80166 0.270145 -1.57835e-19)
(1.93355 0.245768 1.75757e-19)
(1.95218 0.194854 -2.96479e-19)
(2.10645 0.143909 2.67278e-19)
(1.65802 0.179963 3.56117e-19)
(1.74252 0.145636 -4.51932e-21)
(1.78587 0.13775 2.24688e-19)
(1.87764 0.0954327 1.95941e-19)
(1.90334 0.0789452 -1.90266e-19)
(1.23582 0.0567359 -4.25661e-20)
(1.2986 0.0391583 2.3681e-19)
(1.33967 0.0330538 1.08956e-19)
(1.40028 0.013337 -2.27228e-19)
(1.40667 0.0103336 1.34448e-22)
(1.21134 -0.0317025 5.27183e-20)
(2.27722 -0.0514204 -4.41863e-19)
(2.51289 -0.0429812 1.22584e-18)
(2.49156 0.00149182 5.47254e-19)
(2.355 0.0328324 -3.69052e-19)
(0.73371 0.0898112 8.81995e-20)
(2.04402 0.0768493 -4.43729e-19)
(2.52713 0.0781677 -5.89537e-19)
(2.59122 0.0921357 7.15455e-19)
(2.31015 0.0810753 -4.41081e-19)
(0.189864 0.0687063 -3.83564e-20)
(1.36094 0.13744 4.5022e-19)
(2.16875 0.158167 6.86574e-20)
(2.57467 0.150491 3.77534e-19)
(2.78586 0.150848 1.61449e-19)
(-0.0732915 -0.04231 2.09588e-19)
(0.451187 0.0578794 2.04745e-19)
(1.32457 0.135697 -4.24519e-19)
(1.8538 0.168226 2.09197e-20)
(2.48055 0.199313 -3.02944e-20)
(-0.126408 -0.102016 1.53464e-19)
(-0.0487812 -0.0761247 -1.64777e-19)
(0.426527 0.0108778 -2.05272e-20)
(0.933695 0.0428573 4.33021e-20)
(1.3699 0.0997406 -5.11175e-20)
(-0.0874674 -0.08263 3.1474e-21)
(-0.162039 -0.120487 1.09533e-19)
(-0.0665169 -0.125517 1.45472e-19)
(0.141653 -0.111992 -1.37932e-19)
(0.508237 -0.0576307 9.12124e-21)
(-0.0367152 -0.0490445 -1.1394e-21)
(-0.102405 -0.158363 -9.92293e-20)
(-0.112423 -0.258022 -7.90562e-20)
(-0.0656298 -0.322723 2.98077e-20)
(0.0337676 -0.315973 1.96584e-20)
(-0.0309617 -0.0918234 5.40589e-21)
(-0.0563083 -0.299854 2.20884e-19)
(-0.0470254 -0.449735 -9.77693e-20)
(-0.0160993 -0.525451 -1.69185e-19)
(0.0101389 -0.554775 -9.71603e-21)
(-0.0335644 -0.188823 -1.13996e-20)
(-0.0492276 -0.463643 -4.24157e-20)
(-0.0526985 -0.595134 2.579e-20)
(-0.0520725 -0.623512 -7.32624e-20)
(-0.0399419 -0.594632 6.70326e-21)
(-0.0157597 -0.222759 2.6955e-21)
(-0.0538045 -0.454955 -3.97519e-21)
(-0.105529 -0.514387 -7.88242e-22)
(-0.156595 -0.499095 1.6834e-21)
(-0.195303 -0.465989 3.56556e-20)
(1.64233 0.45381 -3.89023e-20)
(1.65109 0.348146 5.07433e-19)
(1.31601 0.175077 -7.2356e-20)
(0.401607 0.11885 3.42897e-20)
(0.367021 -0.0322478 -7.84105e-21)
(1.31773 0.221467 -1.54851e-20)
(1.5574 0.38478 2.54759e-20)
(1.25381 0.332054 -2.35983e-20)
(0.156594 0.226348 4.55228e-21)
(0.332748 -0.0456179 9.44114e-20)
(0.666033 -0.0474268 -1.09402e-19)
(1.32529 0.384618 1.28629e-19)
(1.06949 0.496868 4.33493e-20)
(-0.126483 0.325618 -4.55985e-19)
(0.419778 -0.094818 -3.39871e-21)
(0.0643802 -0.182265 1.20597e-19)
(1.07682 0.349531 3.67666e-19)
(0.851919 0.673623 -2.93711e-19)
(-0.28025 0.378243 -2.13658e-21)
(0.592191 -0.205366 -2.49764e-19)
(-0.349457 -0.293745 1.81184e-20)
(0.888882 0.239957 1.92084e-19)
(0.686929 0.858256 4.09212e-19)
(-0.186555 0.383546 -7.89289e-21)
(0.82732 -0.338859 -4.80002e-19)
(0.633656 0.184893 -2.22346e-20)
(-0.218277 -0.0869538 0)
(-0.195531 -0.114351 -3.1729e-20)
(-0.118482 -0.0621859 6.17359e-20)
(0.146631 -0.0244411 5.01313e-21)
(2.12713 0.45602 0)
(1.54689 0.36037 0)
(1.12918 0.0770152 3.78579e-19)
(0.49071 -0.0335655 7.07946e-20)
(0.473795 -0.0555462 5.266e-21)
(0.757879 0.000764116 -1.25198e-19)
(0.816345 -0.00332843 1.7814e-19)
(1.00765 -0.0152798 -2.15225e-20)
(1.11965 0.0113205 3.20685e-19)
(1.46661 0.0588955 2.08499e-19)
(1.71561 0.0219486 1.1826e-19)
(1.86274 0.0752142 2.33601e-19)
(2.0513 0.027808 -1.17797e-19)
(2.69323 0.17609 -4.72798e-20)
(2.31374 0.0929067 4.21486e-20)
(0.929534 -0.490946 1.43564e-21)
(0.91833 -0.582615 -1.67582e-19)
(0.910043 -0.68106 -1.45197e-19)
(0.837001 -0.750066 8.87161e-20)
(0.507036 -0.587968 1.255e-19)
(0.823813 -0.397248 1.22537e-19)
(0.765827 -0.462741 2.18578e-19)
(0.689295 -0.533993 -6.57234e-20)
(0.575505 -0.59542 1.2849e-19)
(0.313861 -0.471421 3.79004e-20)
(0.656292 -0.258161 -1.55882e-19)
(0.566125 -0.298503 -4.81972e-20)
(0.465871 -0.350258 9.03134e-20)
(0.349424 -0.396419 -2.37135e-20)
(0.157111 -0.313865 -1.13882e-19)
(0.554175 -0.0253597 -4.51034e-19)
(0.468779 -0.0417168 -3.6935e-19)
(0.359961 -0.0679801 2.89959e-19)
(0.233534 -0.101671 1.76661e-19)
(0.0664822 -0.0981908 1.38382e-20)
(0.529023 0.178143 -1.74821e-19)
(0.44438 0.180008 -1.79238e-19)
(0.328205 0.179722 -7.07848e-20)
(0.189903 0.184152 3.18767e-20)
(0.0298657 0.140717 1.39164e-20)
(2.06771 -0.0423463 8.09966e-19)
(2.34657 -0.109155 2.88671e-19)
(2.42064 -0.197243 -7.57714e-19)
(2.27296 -0.223268 -1.57441e-18)
(1.36872 -0.199815 1.15142e-19)
(2.06345 -0.125639 1.38448e-18)
(2.14262 -0.239086 1.81649e-18)
(2.15938 -0.363387 1.48481e-19)
(2.08539 -0.423243 2.53702e-19)
(1.33937 -0.376044 -1.67286e-19)
(1.74981 -0.293001 -3.62009e-18)
(1.81725 -0.41104 4.29537e-19)
(1.86763 -0.536795 1.1235e-18)
(1.80996 -0.61283 -4.46184e-19)
(1.17608 -0.523531 6.97459e-19)
(1.54445 -0.415275 8.62664e-19)
(1.56025 -0.513692 -2.26086e-18)
(1.543 -0.632117 -2.65013e-18)
(1.47511 -0.722048 8.26118e-19)
(0.951805 -0.598432 5.31372e-19)
(1.24283 -0.476264 1.91996e-19)
(1.19136 -0.570215 2.4039e-19)
(1.18325 -0.693869 -3.98028e-19)
(1.13058 -0.781882 -4.81951e-19)
(0.715339 -0.622323 -4.60535e-21)
(1.03926 0.0565231 7.88479e-21)
(0.935367 0.0447399 -5.27285e-21)
(1.12616 0.0810321 -4.19178e-21)
(0.811976 0.00268199 -1.98753e-19)
(1.13746 -0.218191 -9.43407e-21)
(1.05827 0.062628 -2.59253e-21)
(0.920966 0.0380479 5.13236e-20)
(1.1193 0.0983873 -4.33441e-20)
(0.893776 0.0482918 1.19311e-19)
(1.01026 -0.102423 -2.04243e-20)
(1.06287 0.0622785 -6.39288e-20)
(0.924282 0.0315874 5.11814e-22)
(1.0996 0.0991975 -1.83867e-20)
(0.888089 0.0684656 2.92607e-20)
(0.975935 -0.0418827 -1.74117e-19)
(1.0465 0.062404 7.67755e-20)
(0.95541 0.0262358 3.3289e-21)
(1.0607 0.105243 3.24527e-20)
(0.924841 0.0928546 2.25256e-20)
(0.870654 0.0692333 1.12803e-19)
(1.02076 0.059943 1.92264e-20)
(0.986105 0.0237669 -3.09062e-20)
(1.03413 0.112968 4.46414e-20)
(0.946285 0.118137 7.75779e-20)
(0.840101 0.166841 -1.0817e-19)
(0.875874 0.0334858 0)
(0.729723 0.0289805 1.00964e-20)
(0.605854 0.0225334 3.57328e-21)
(0.354525 -0.00854614 3.89062e-20)
(0.686483 -0.0554358 -1.23508e-19)
(1.00206 0.0732295 -6.45103e-20)
(0.96255 0.0661682 -1.84212e-20)
(1.02974 0.0817204 -3.70793e-20)
(0.823534 -0.00105641 -1.06046e-19)
(1.03644 -0.200381 -1.28312e-19)
(0.959138 -0.0640202 -2.86635e-20)
(1.04592 -0.0336015 4.8763e-19)
(1.14257 0.0375773 3.05506e-19)
(1.01756 0.0568048 2.41454e-20)
(0.784955 0.0303546 0)
(1.3271 -0.318348 2.90691e-19)
(1.44096 -0.281535 1.44495e-18)
(1.6217 -0.161234 -1.64636e-18)
(1.72831 -0.0231829 -5.12293e-19)
(1.6233 0.0295712 3.71744e-19)
)
;

boundaryField
{
    left
    {
        type            fixedValue;
        value           uniform (1 0 0);
    }
    right
    {
        type            zeroGradient;
    }
    down
    {
        type            noSlip;
    }
    up
    {
        type            noSlip;
    }
    cylinder
    {
        type            noSlip;
    }
    defaultFaces
    {
        type            empty;
    }
}


// ************************************************************************* //
