/*--------------------------------*- C++ -*----------------------------------*\
  =========                 |
  \\      /  F ield         | OpenFOAM: The Open Source CFD Toolbox
   \\    /   O peration     | Website:  https://openfoam.org
    \\  /    A nd           | Version:  13
     \\/     M anipulation  |
\*---------------------------------------------------------------------------*/
FoamFile
{
    format      ascii;
    class       volVectorField;
    location    "3.9";
    object      U;
}
// * * * * * * * * * * * * * * * * * * * * * * * * * * * * * * * * * * * * * //

dimensions      [0 1 -1 0 0 0 0];

internalField   nonuniform List<vector>
440
(
(-0.0523083782977 0.0308956632498 -1.75445319023e-15)
(-0.0927019682283 0.0682159609052 -2.11477053067e-16)
(-0.015565544444 0.0943894209285 3.3434346576e-18)
(0.452278550729 0.0977979691372 -9.07126817973e-19)
(0.237386020572 0.389444348747 3.08854080946e-19)
(-0.0828895633008 0.0443676454565 6.73312893309e-19)
(0.0249917852201 -0.000770630756174 -3.52280994423e-19)
(0.467381399 -0.0338758433153 -7.91240501856e-19)
(1.06193612643 -0.0675150603763 1.26280593001e-18)
(1.37835866062 -0.0177596669529 6.86680609922e-19)
(-0.0330133077608 0.018094754711 7.66130644324e-19)
(0.448172453862 -0.0315917410613 2.14908416232e-18)
(1.23089366971 -0.00277298465553 1.45050942252e-20)
(1.79344385634 0.043186298631 -3.31101137027e-18)
(2.38771301661 0.066004018804 -1.68808510627e-19)
(0.182218933733 -0.0368177733628 -1.02024182634e-18)
(1.18096141217 0.0101481525283 -3.13896623906e-19)
(1.96236234113 0.097231028304 3.5530634432e-18)
(2.44717163451 0.134869469006 6.39932218846e-19)
(2.5274484223 0.15900470121 -1.93969493861e-18)
(0.558173232004 0.00179336859072 -1.20804134201e-18)
(1.75445254657 0.189930515898 -9.529986096e-19)
(2.30881814852 0.274776424323 1.2753317464e-19)
(2.41984264984 0.28682287443 2.88546432494e-18)
(2.4974961358 0.25250404264 9.4822279397e-19)
(-0.0394170931059 0.205450728637 1.01854578579e-19)
(-0.177056990193 0.348875612331 -3.58561047075e-19)
(-0.303616928963 0.372051776103 6.81171421536e-19)
(-0.400063648508 0.380353639209 -1.6731992159e-19)
(-0.471064744153 0.392113161254 -1.67114756671e-18)
(-0.0737235308001 0.334797212951 1.48843487267e-19)
(-0.185809598143 0.578023412174 3.60827775987e-19)
(-0.274913721637 0.58851156714 1.95839954103e-19)
(-0.341512439758 0.55134185972 1.35610202415e-19)
(-0.387799609454 0.524696007947 -1.73923730861e-19)
(-0.0929953443385 0.295808063816 -1.24220898463e-18)
(-0.174543356432 0.653466562695 -7.01092999333e-19)
(-0.206455798702 0.767427739856 -5.74907600091e-19)
(-0.215277923583 0.764821498499 1.22325539658e-18)
(-0.208752446126 0.712013587738 -3.28062818592e-20)
(-0.0563490063898 0.133407387271 -3.73192167287e-19)
(-0.129607537899 0.44201529139 4.76014729099e-19)
(-0.138524599821 0.649145854532 -9.18101711165e-19)
(-0.131660899131 0.754974786986 -8.64081423625e-19)
(-0.0918458368796 0.79212051252 6.0934453935e-20)
(-0.0245871964213 0.0325646312687 3.91172678093e-19)
(-0.105420885403 0.183049978063 1.95591115316e-19)
(-0.1410445524 0.371189210325 -1.49801201901e-19)
(-0.0726921481401 0.475377224795 3.0484018704e-19)
(-0.0266227584096 0.695767160477 8.02777415189e-19)
(-0.745535959972 0.424105817397 -3.56653371123e-19)
(0.0320565739323 -0.0348148637427 1.10351544652e-18)
(0.468940521839 -0.445417475614 2.75268927027e-19)
(0.679049221088 -0.465429691385 8.91918276772e-21)
(0.936266211857 -0.26336201379 1.81115613147e-19)
(-0.559558851417 0.365606471408 2.58537038744e-18)
(0.537513662643 -0.225417500484 -6.39074422588e-19)
(0.886223163538 -0.516247859239 6.98707352561e-19)
(1.01548300866 -0.510632376596 1.03817227279e-18)
(1.06468951879 -0.286705979669 -3.00694828428e-19)
(-0.124478155994 0.248332935968 1.00511087869e-18)
(0.971050885905 -0.40157973568 4.0637521444e-18)
(1.21837839466 -0.586633930923 -5.4157747522e-19)
(1.33171393486 -0.52149676423 7.80799521498e-19)
(1.21876692107 -0.283143315386 2.57984927398e-19)
(0.306038630917 0.220667294092 -1.36718932592e-18)
(1.4248875234 -0.515557655619 -1.17594201008e-18)
(1.45278266087 -0.648232030339 -9.50817047438e-20)
(1.50814434473 -0.524227439687 -7.74611817879e-19)
(1.33239321463 -0.265339396162 3.43621344319e-19)
(0.738257941015 0.0498076270345 -2.56292529656e-19)
(1.86005734952 -0.592058696936 -3.04774554633e-18)
(1.73658307825 -0.652901355161 0)
(1.61589393305 -0.507246632825 2.13383252248e-19)
(1.38413887231 -0.24157145789 -6.27400151332e-20)
(1.77076518237 -0.0600359270649 -1.92088306451e-19)
(2.36227187764 -0.55355247678 1.04337347016e-18)
(2.09111493843 -0.578667073634 -1.43414878246e-19)
(1.73208198831 -0.438473319761 6.14201998705e-19)
(1.39657029354 -0.206825848985 2.18250166652e-19)
(2.40405750601 -0.156584703211 4.07154208323e-19)
(2.51350298537 -0.601653843584 4.24119727903e-19)
(2.09180462246 -0.499789747796 -1.39617707691e-19)
(1.58935043508 -0.259690555153 -2.42416541326e-19)
(1.23561096264 -0.110791482592 0)
(2.42032296487 -0.157029000429 2.00083665049e-19)
(2.23473972787 -0.414301147758 1.3110014585e-19)
(1.88306368589 -0.308244226232 -2.62600637385e-19)
(1.61833236053 -0.136026878435 1.1173085853e-19)
(1.26977810173 -0.0612384964121 -5.7113216676e-20)
(2.30924535391 -0.132336180717 -1.05063903857e-18)
(1.97647153589 -0.361319355222 1.13638863686e-18)
(1.42780400392 -0.257894685702 -3.91299033826e-19)
(1.147417532 -0.0343621604772 -5.91647087223e-33)
(0.965037250817 0.0193118008876 6.1797975743e-19)
(1.54040913191 -0.0818147981925 3.66891218931e-20)
(0.902464698267 -0.052570741863 3.57094988149e-20)
(0.391011219813 0.0105316098044 -3.68222493733e-19)
(0.303288517286 0.0247216347035 -2.12453383922e-20)
(0.36190694305 0.00860798007024 9.23839381522e-21)
(2.39161973572 0.269974863725 -2.70868856423e-18)
(2.6385761071 0.0555076881153 3.38455107822e-19)
(2.46278710806 0.162389276453 -1.79724244422e-19)
(2.75053011314 -0.04397250091 -4.31294450498e-19)
(1.97630075554 0.211561605109 7.16640344158e-20)
(2.11713199767 0.191845992725 -1.24936493858e-18)
(2.49505018757 0.013861663851 4.87719421214e-20)
(2.2637336377 0.0702735365283 4.93771443903e-19)
(2.57283621693 -0.0860135285268 -6.89378141965e-19)
(2.37296463636 -0.105565879397 1.02118455163e-19)
(2.13064941943 0.092429908494 -6.73358624563e-19)
(2.28799319126 0.0177861810074 6.59571364942e-19)
(2.23628448354 -0.00605428326054 -1.30245193251e-18)
(2.33054388974 -0.0530054395684 1.29711191988e-19)
(2.33462303092 -0.113477630049 1.22801291771e-18)
(2.06764827202 0.0303179378054 -5.54919643431e-19)
(2.11829043614 -0.00273841013523 -1.89975358992e-18)
(2.15392936033 -0.020450710005 1.51402873827e-19)
(2.19339380447 -0.0403831112719 2.04776092708e-18)
(2.23094110987 -0.0737181270868 -4.80178624066e-19)
(1.52799365834 -0.00700582904484 -1.31784761994e-18)
(1.50725300403 -0.014244954678 3.43213000785e-20)
(1.54826931344 -0.0146465892663 -4.66080319593e-21)
(1.53033028108 -0.0222608110604 7.4206807742e-19)
(1.55863307326 -0.0232550229612 1.2846780052e-18)
(1.53343307137 0.804877594234 2.41234086445e-19)
(1.4854693729 0.898025264636 -5.1632605179e-19)
(1.48148546266 1.02741209782 -5.59784062075e-19)
(1.41064611014 1.07047071663 3.47911840108e-19)
(0.848759633018 0.756527078381 1.64876841471e-19)
(1.8115447897 0.781801105797 1.2412156014e-19)
(1.7775751685 0.852859704335 -1.8720384036e-18)
(1.78248366927 0.95277932028 -1.03091431303e-18)
(1.68844668942 0.958998204279 2.3921262027e-19)
(1.01581922871 0.666840794626 -2.29825992974e-19)
(2.14047598083 0.634413058779 1.05245467429e-18)
(2.10496184104 0.704501297843 -2.27370268343e-19)
(2.06312005998 0.795896516684 -2.90652638746e-18)
(1.93132888962 0.784881321335 -8.4856213953e-19)
(1.13084545903 0.52560369816 -3.0211641141e-19)
(2.29514675869 0.537509169063 2.25324289561e-18)
(2.28152005247 0.591331614075 1.73499343136e-18)
(2.27463317119 0.641868555298 -7.68237396162e-19)
(2.0530840996 0.596229172393 -2.28533768897e-18)
(1.12104919777 0.355318129677 1.7209891051e-19)
(2.47618082458 0.389074753017 1.72506231695e-18)
(2.46487276721 0.410120139722 4.05632324127e-19)
(2.34448964425 0.445030312912 1.03272907655e-18)
(2.02347552417 0.38919866736 -2.62762126519e-19)
(0.944518051693 0.162681779631 1.96350208324e-20)
(0.570172375805 0.492067898018 -3.40539465227e-18)
(0.479797915466 0.523981297746 -2.59427367222e-18)
(0.363151042041 0.553147094487 3.31384497086e-19)
(0.226396568862 0.548698535143 -1.71614892976e-19)
(0.0563942542284 0.38633579481 -1.71408834357e-20)
(0.658816948042 0.648971606925 -1.27344144359e-18)
(0.593329843173 0.701649250891 -9.25945551288e-19)
(0.506732669586 0.764509682893 -5.97409449543e-20)
(0.387349632077 0.815889556406 1.72667028154e-20)
(0.169319495397 0.611347923753 -3.06276453453e-22)
(0.76318484492 0.85549449689 9.90034285285e-19)
(0.6876661735 0.930981564647 -7.91339423944e-19)
(0.629343028645 1.01650049644 -6.66520750655e-20)
(0.544889419515 1.03759026053 -1.2917176744e-21)
(0.29512702619 0.746322253192 1.26737275388e-19)
(1.02833437499 0.908267425212 -6.04920141686e-19)
(0.982555989976 0.979177795501 4.2168522715e-19)
(0.933256699702 1.06756519274 -2.91029854014e-20)
(0.851793383562 1.12550834463 2.5857315245e-19)
(0.494685430356 0.821531498485 2.52475282368e-19)
(1.06840926565 0.964288370849 4.11170504267e-19)
(1.1116303911 1.07677036153 4.33022976264e-19)
(1.14089442709 1.17758837064 -3.56545058595e-19)
(1.08705416594 1.18071950602 -4.93290474583e-19)
(0.657426620335 0.823676228328 -5.15333617731e-21)
(0.977869984924 0.0328620213804 5.59007339942e-20)
(1.03791147438 0.0325857423597 -2.06748783317e-19)
(1.03825165302 0.124889046384 -1.41709941896e-19)
(0.964839620268 0.145786928703 8.843485838e-19)
(0.894371818306 0.322223980022 1.18559163068e-18)
(0.973037859452 0.0273998647862 -1.90473403711e-19)
(1.05143782449 0.0328422692718 -8.1370443677e-19)
(1.01907526978 0.129018040476 -2.15745567285e-19)
(1.01037610609 0.178816429599 -1.06048717676e-18)
(0.929029981752 0.404043155835 1.12942070503e-18)
(0.981161556037 0.0243355977238 -1.93749473975e-19)
(1.03263701678 0.0260500006347 6.25064046326e-20)
(1.06795518715 0.151406247011 5.48827545291e-19)
(0.956590168989 0.167420023972 4.684874766e-20)
(1.14897058673 0.557044266168 4.9561728254e-19)
(0.980169190322 0.0213932818226 4.60978835112e-20)
(1.04331558217 0.0206318153437 1.17093925795e-18)
(1.05712553048 0.163721999407 4.408493359e-19)
(1.06065298807 0.173195092856 1.8322367855e-18)
(1.12113715998 0.624364483312 -6.45427190634e-19)
(0.98311408858 0.0161767710118 1.35886446674e-19)
(1.03400240685 0.0209622963948 1.65826346158e-20)
(1.10398203245 0.16646908001 -3.25974064064e-19)
(1.01545239553 0.209223441137 -9.0696401609e-19)
(1.36406560153 0.743561327575 6.43793562444e-19)
(0.968133918458 0.0162937235643 -5.3545074927e-20)
(1.06364291842 0.00206066451079 -5.97768814635e-19)
(1.09298026733 0.193351544968 3.29987701627e-19)
(1.24317636385 0.108149358895 -2.06940840435e-18)
(1.26111636726 0.831320722529 1.54877223797e-18)
(0.959586472692 -0.00292671812108 4.30012562109e-20)
(1.0996844913 -0.00490009062801 2.20558574284e-20)
(1.06788690495 0.116301675943 -1.20307471103e-19)
(1.31849647323 0.135625144166 2.03615876651e-19)
(1.14728404033 0.602443102247 -3.38379535444e-19)
(0.97671557108 -0.0108458926577 9.51486015348e-20)
(1.0909241181 -0.0138579988339 2.27178405364e-35)
(1.09710413532 0.085306177817 -1.71729843155e-20)
(1.24858278577 0.118321252867 -7.39223647017e-20)
(1.33439705513 0.415125349734 -7.77868836324e-19)
(1.01119912764 -0.0437192099554 -7.85726550369e-20)
(1.02049365759 -0.0278750999504 1.2680586544e-20)
(1.13910644941 0.0288518047879 -3.57439230285e-19)
(1.12919313831 0.0737467489397 -3.75948661732e-19)
(1.58879766931 0.247553776476 1.36590240716e-18)
(0.934628053107 -0.0222921933494 8.50968713351e-20)
(0.83986875216 -0.0244216766781 3.98442783338e-21)
(0.874027871823 0.00142742329671 -3.71221011085e-19)
(0.819730375535 0.00835543471499 2.606535787e-21)
(1.24139168649 0.0614292884489 3.43463060848e-19)
(1.79364000202 0.59615666683 -7.69276317614e-19)
(1.87078634255 0.642515289856 -1.58500085587e-19)
(2.16736847086 0.467623263004 2.10467910147e-19)
(2.20590896274 0.466024846114 2.1466205845e-18)
(2.45842036341 0.261680151691 -1.70982260669e-18)
(1.76100409 0.333249432651 -3.1655809309e-19)
(1.74333030074 0.404440295184 -3.19275817598e-18)
(2.05639338395 0.264457181592 -9.48626765349e-19)
(1.96027089179 0.309998606809 3.14269975575e-18)
(2.32210771956 0.13246132084 3.58580903843e-19)
(1.76948332351 0.232044259383 1.09294571832e-18)
(1.84368319403 0.251350855205 6.60180570481e-19)
(2.00372092476 0.167326614168 1.27283997548e-18)
(2.00441412535 0.182738612491 1.13024338447e-18)
(2.18246912178 0.0874646824929 -1.06419793953e-18)
(1.77745660066 0.121453620619 -1.22343413777e-18)
(1.87513468184 0.119768330692 9.89313270688e-20)
(1.91465757748 0.0716096207623 -1.02856645818e-18)
(1.97535295719 0.0792004863221 -1.32841773512e-18)
(2.02323063271 0.0332699570474 1.2074359534e-18)
(1.38376492488 0.0301604971094 1.41946600851e-19)
(1.460194446 0.023266903519 -1.03638839895e-18)
(1.45167546364 0.0105147233455 -6.97783608316e-19)
(1.50009043479 0.00739177924349 1.30790788742e-18)
(1.48035805514 -0.00457407195663 1.19930745913e-20)
(1.16201858063 -0.0262916082836 -3.97902687248e-19)
(2.16424415437 -0.0276169491155 -9.29366822744e-20)
(2.38778270962 -0.0310665597203 1.34179008253e-18)
(2.36607326923 0.00818755750662 1.00413455276e-18)
(2.23519347505 0.0324629516777 -1.01926414042e-19)
(0.760079059335 0.0942523099713 -6.68542689937e-19)
(1.95319275212 0.114100642368 -1.03599549998e-18)
(2.38549207642 0.108392864405 -2.7125076673e-19)
(2.43472412296 0.115535835123 3.92998425952e-19)
(2.16468128756 0.101654813596 3.77265040062e-19)
(0.270509823244 0.0874500299181 -7.47982667637e-19)
(1.34614060069 0.175017669551 5.88644150725e-19)
(2.06301315365 0.187741287005 3.98578660951e-19)
(2.42123238057 0.178863142894 7.90729426714e-19)
(2.56861491523 0.167113052392 1.83976486801e-18)
(-0.00327003068062 -0.0119687475819 1.03497461459e-18)
(0.534166374387 0.106634829181 9.39317494923e-19)
(1.31854708919 0.171171621312 -1.88633290077e-18)
(1.7979908901 0.203594409249 1.30354861985e-19)
(2.34434950009 0.235765768957 -1.76301339338e-19)
(-0.0795768619298 -0.080335617655 1.37536750922e-18)
(0.0350449486956 -0.0308987089907 -8.96510383886e-19)
(0.503945168858 0.0558184129335 5.7914692548e-19)
(0.983783142417 0.108434635833 1.12606185318e-18)
(1.37387537391 0.163047301317 1.25527059801e-19)
(-0.0697521928071 -0.0893111480351 6.35380346617e-19)
(-0.102478527938 -0.118827911554 5.49843263229e-19)
(0.0447673500412 -0.0718521870035 1.04084950738e-18)
(0.3084581192 0.00354644901452 -8.56090098785e-19)
(0.632796634755 0.0715583786716 2.5314300496e-19)
(-0.0521922824072 -0.0979922440353 -4.64721508124e-19)
(-0.0938242881685 -0.182245019453 -3.56172859581e-19)
(-0.0660734153471 -0.171024302121 -2.90682697334e-20)
(0.0385794393824 -0.11339348952 -6.38352046641e-19)
(0.183438544473 -0.0330452194519 -3.14412671378e-19)
(-0.0505571276675 -0.152806372876 -3.56656464359e-19)
(-0.083256352732 -0.252190854022 4.6411739471e-19)
(-0.0761468304955 -0.248270127061 -1.10565692212e-18)
(-0.0450354229312 -0.200806228585 -2.09948439677e-18)
(0.00164888732563 -0.141121736051 1.02186591779e-18)
(-0.0417980662413 -0.129312828979 -6.19458255163e-20)
(-0.120075151463 -0.165292592257 -1.74128228692e-19)
(-0.189237436373 -0.131305911117 5.88156162568e-19)
(-0.242163258104 -0.0751545708346 1.97361435804e-18)
(-0.261185362527 -0.00866450743179 -2.42355081271e-19)
(-0.0233863918603 0.0163837496118 2.98337592999e-20)
(-0.137439244763 0.0734270245258 -9.48479376689e-20)
(-0.252800072701 0.109532536438 4.63473468104e-20)
(-0.351072948146 0.145856459653 -5.064763905e-20)
(-0.418816160748 0.191746507768 -8.00415527256e-19)
(1.37361534009 0.473615814608 5.93844049394e-19)
(0.984906850749 0.195429766493 3.49036522105e-18)
(0.892778788576 -0.0374694009605 -7.53886489478e-19)
(0.861256613866 -0.0613124926543 -1.15721689668e-18)
(0.977145323434 -0.0119298976394 -6.48254468379e-20)
(1.13898170998 0.368310594042 7.94088069863e-19)
(0.500999497819 0.208830890207 -1.32543824633e-18)
(0.42242043508 0.00253971409159 -1.9884952983e-18)
(0.506463644018 -0.0794135245238 -2.26353838814e-19)
(0.845010171661 -0.0436041661943 1.7045326182e-19)
(0.495583336382 0.311005415645 1.19140548534e-18)
(-0.232578158621 0.278170491694 -2.77087199899e-18)
(0.160281659306 -0.0640123784243 5.13831551697e-19)
(0.36931296074 -0.176172225269 4.48732512994e-19)
(0.808636907245 -0.0989814985486 -3.1548506216e-19)
(-0.197152771217 0.388505438476 -1.40337443639e-19)
(-0.561529899374 0.25230303652 -4.73683141154e-19)
(0.135225601055 -0.193792797482 3.05908750997e-19)
(0.377624769285 -0.271396738899 9.8552074874e-20)
(0.82317433838 -0.158299074182 -4.43828857532e-20)
(-0.631533950795 0.427559779699 -1.09622797904e-19)
(-0.41732102386 0.143010191135 9.13376354936e-19)
(0.208669933307 -0.340611364418 -8.86447261072e-20)
(0.465608112493 -0.377471239716 -4.15019267364e-19)
(0.86133343343 -0.216084505377 -1.62361303135e-19)
(0.606078453012 0.13167071436 -7.94060870428e-19)
(-0.00279929221097 -0.0455596949666 0)
(0.136863068163 -0.0731028338335 -3.58902985895e-19)
(0.280826225399 -0.0457729144512 1.79234143995e-20)
(0.433397519007 -0.0221883433569 3.25568996988e-19)
(1.91487505652 0.38979790147 0)
(1.21307390502 0.216718008088 0)
(1.09270343769 -0.0034987024328 1.01957730911e-18)
(1.13614386259 -0.050887976924 4.25279876013e-20)
(1.09864252302 -0.0213508858157 -7.83418834357e-20)
(0.706176542653 -0.000589173127426 4.50167698032e-19)
(0.774151895498 -0.00503773610722 -3.17060747685e-18)
(0.906551867613 -0.0106564412237 3.10198338721e-19)
(1.04781462387 0.0223066900201 2.4982878356e-18)
(1.28992053582 0.0558851356752 8.71701199543e-19)
(1.64894046797 0.0185638347687 -4.65325442096e-19)
(1.74436174872 0.0815964662223 -2.57889546549e-18)
(1.87789477467 0.0438423316172 1.45265470255e-18)
(2.44262575699 0.180854581022 -1.38870451478e-20)
(2.11542577055 0.162296076118 -2.35142807263e-19)
(0.875116536497 -0.453174393138 -2.55473732838e-19)
(0.86238240724 -0.541142750952 4.11034460486e-19)
(0.855190815819 -0.639007385246 1.94919787288e-20)
(0.790080067775 -0.708646568141 1.15186553809e-19)
(0.477171016988 -0.557196899687 -1.28523706501e-19)
(0.78116785865 -0.355574508484 6.32871880703e-19)
(0.727709534373 -0.418104237831 2.03175795975e-18)
(0.656492245569 -0.486631188495 5.85491465721e-19)
(0.547868343599 -0.548509443432 -1.64712515171e-19)
(0.29566869119 -0.440776073017 -6.27298326686e-20)
(0.632380497432 -0.217028210475 -1.2239493944e-18)
(0.549497835146 -0.255850879789 5.62249618692e-20)
(0.450456543316 -0.303481886927 1.65197160344e-18)
(0.331750763118 -0.343867452972 2.88128200869e-19)
(0.143333638796 -0.275991192908 1.08746528548e-19)
(0.541259467036 0.0113294716105 -2.00774338182e-18)
(0.456393886679 -0.00333368424949 -1.53129600319e-18)
(0.346090585694 -0.0245828958435 9.93928381292e-19)
(0.218080132654 -0.052721845953 8.1689630853e-19)
(0.0567289918736 -0.0620285508796 5.82981674243e-20)
(0.503620944209 0.217701300659 -5.59612942531e-19)
(0.415421198263 0.220399909467 -5.66478123513e-19)
(0.299706708098 0.224945770602 -1.00563337791e-19)
(0.168681488394 0.230131638837 1.99243396425e-19)
(0.0222031146223 0.164765274537 5.87911571276e-20)
(1.97848377194 -0.0425116106298 -3.64456765612e-20)
(2.24294421998 -0.103879647225 7.0757715623e-19)
(2.31296258024 -0.186108511867 -1.19938840298e-18)
(2.17048138799 -0.20290132265 -1.73552021958e-18)
(1.30711040848 -0.19080067165 -3.24161660038e-19)
(1.95552921427 -0.115834334467 1.07432784428e-19)
(2.03810681553 -0.222907915242 -3.43031394581e-19)
(2.05855741538 -0.341679526812 -1.51429762821e-19)
(1.98278911051 -0.394860596374 -4.60679498369e-19)
(1.26865105793 -0.359236853885 2.84722286438e-19)
(1.68204470139 -0.272461575033 -9.18502288049e-19)
(1.74689019893 -0.387973285917 1.15888607119e-18)
(1.78467815203 -0.508577768171 1.29068705641e-19)
(1.72163759114 -0.577391300392 -6.15703907234e-19)
(1.10952054108 -0.496272510041 5.58105019368e-19)
(1.46583796633 -0.38881976608 1.56218296504e-19)
(1.47538885143 -0.48289355643 3.48111802042e-19)
(1.46000435544 -0.598771000109 -1.34079587922e-18)
(1.39640493908 -0.683108863 7.62527393063e-19)
(0.894992404126 -0.566392570537 -2.31873955232e-19)
(1.18142478372 -0.445023846455 2.27926162633e-21)
(1.13485304458 -0.535179460455 -4.6385278268e-19)
(1.12230095232 -0.653453291176 9.26450664633e-20)
(1.07014373881 -0.736704492999 -3.34285876074e-20)
(0.673517246209 -0.587604272626 -2.90435745764e-21)
(1.00142859638 0.0394708618876 6.70884175432e-20)
(1.0149473274 0.0693100239863 -1.71342008957e-19)
(1.09624641053 0.0813187533886 -1.1492707897e-18)
(0.815622184376 -0.00477500362398 9.1371405789e-19)
(1.06102336684 -0.183839050492 2.61074974599e-19)
(1.00965554643 0.0416677469507 6.20326018297e-21)
(0.991882730014 0.061789159283 9.59496173755e-19)
(1.1189124927 0.10459253476 -1.78044597176e-18)
(0.891859829458 0.0397812262399 -1.93680143097e-18)
(0.959646322689 -0.0704107152632 -7.12192157623e-19)
(1.01317168971 0.0386108926353 -1.44677666365e-19)
(0.978855623135 0.0527417654196 9.24213730026e-20)
(1.11252966696 0.106610287115 -8.58830775025e-20)
(0.906282871446 0.0717314968753 -1.68769989062e-18)
(0.920418655674 -0.0117533846528 6.63559511209e-19)
(1.00327509247 0.0386396187283 -6.35987092493e-20)
(0.995421961526 0.0427445001701 -1.45413386897e-19)
(1.07944596694 0.11134572394 2.99525071963e-19)
(0.941507918054 0.102690050627 -4.69369647793e-20)
(0.849037791557 0.100342846956 9.78745063447e-19)
(0.987439325676 0.035644112965 1.41343099734e-20)
(1.02402247325 0.0392459909404 2.71329323725e-19)
(1.04246457819 0.112023389552 5.22766172205e-20)
(0.972697557054 0.135935557011 3.18717261351e-19)
(0.832040891993 0.203084502825 4.65813868958e-19)
(0.885616735437 0.0332579360125 0)
(0.764078594659 0.0303708711999 5.91921309343e-21)
(0.551412460082 0.01910688234 -3.22450908503e-19)
(0.419049520749 -0.0106090951304 1.12808434402e-22)
(0.676509461865 -0.0420817578028 1.18939851337e-18)
(0.984643792523 0.0621712035333 -1.671154027e-19)
(1.03459390069 0.0862911543767 -7.41854480458e-19)
(0.958860635293 0.072687509063 1.09247242033e-18)
(0.838157190938 -0.0148537310158 1.65504175922e-18)
(0.999941552758 -0.171442193018 1.20618018638e-18)
(0.92109629066 -0.0599475610085 1.97014100268e-19)
(1.00198534093 -0.0295741060726 -1.30833283082e-18)
(1.08250297456 0.035822297931 -3.3932719859e-19)
(0.952743332336 0.0521332267235 -2.92865597089e-19)
(0.727002220569 0.02938083398 0)
(1.26628823211 -0.29805572633 -1.62010528403e-18)
(1.38080600781 -0.264494240806 -2.12422448428e-18)
(1.55028978148 -0.147565932645 3.27311366029e-19)
(1.64271420397 -0.0189980708565 -1.07086057729e-19)
(1.54394913875 0.0276575335685 -3.53521777873e-19)
)
;

boundaryField
{
    left
    {
        type            fixedValue;
        value           uniform (1 0 0);
    }
    right
    {
        type            zeroGradient;
    }
    down
    {
        type            noSlip;
    }
    up
    {
        type            noSlip;
    }
    cylinder
    {
        type            noSlip;
    }
    defaultFaces
    {
        type            empty;
    }
}


// ************************************************************************* //
