/*--------------------------------*- C++ -*----------------------------------*\
  =========                 |
  \\      /  F ield         | OpenFOAM: The Open Source CFD Toolbox
   \\    /   O peration     | Website:  https://openfoam.org
    \\  /    A nd           | Version:  13
     \\/     M anipulation  |
\*---------------------------------------------------------------------------*/
FoamFile
{
    format      ascii;
    class       volVectorField;
    location    "0.97";
    object      U;
}
// * * * * * * * * * * * * * * * * * * * * * * * * * * * * * * * * * * * * * //

dimensions      [0 1 -1 0 0 0 0];

internalField   nonuniform List<vector> 
440
(
(0.218255 -0.176689 -1.81148e-19)
(0.613074 -0.43665 1.07862e-18)
(0.984294 -0.640903 4.23045e-19)
(1.32755 -0.795401 1.2434e-18)
(1.63259 -0.916787 -2.59961e-19)
(0.30489 -0.177681 -5.44451e-19)
(0.81913 -0.428695 -1.01955e-18)
(1.27997 -0.618897 1.14524e-19)
(1.69191 -0.76164 -1.21508e-18)
(2.05375 -0.875126 -1.02099e-18)
(0.384877 -0.152406 -6.98055e-19)
(1.00468 -0.363013 1.58978e-18)
(1.53975 -0.518384 -1.93457e-18)
(2.00471 -0.632634 1.37979e-18)
(2.40594 -0.721483 1.42951e-18)
(0.445865 -0.102745 5.62385e-19)
(1.14609 -0.243083 -1.29949e-18)
(1.73743 -0.344812 -7.50797e-19)
(2.24293 -0.418222 1.96645e-18)
(2.67445 -0.474467 2.50024e-18)
(0.479253 -0.0361581 6.86899e-19)
(1.22363 -0.0847542 1.69138e-19)
(1.84589 -0.119363 2.53128e-18)
(2.37401 -0.143865 -1.062e-18)
(2.82294 -0.162496 -4.83733e-19)
(-0.000946439 -0.0519025 2.7259e-19)
(0.0499437 -0.144919 -3.83497e-19)
(0.105845 -0.223182 1.11095e-18)
(0.171347 -0.293155 -1.77136e-19)
(0.239483 -0.354851 -1.60458e-18)
(0.0137146 -0.0844191 -2.63751e-19)
(0.0892418 -0.228138 -4.31123e-19)
(0.174008 -0.350695 1.09997e-19)
(0.268247 -0.450772 5.94528e-20)
(0.364477 -0.53099 -3.55577e-20)
(0.043347 -0.114283 7.03192e-20)
(0.165444 -0.303267 5.32363e-19)
(0.296124 -0.467605 9.50781e-20)
(0.432801 -0.599192 1.45477e-18)
(0.567845 -0.69785 -2.49378e-20)
(0.0866149 -0.140986 6.69824e-20)
(0.276364 -0.367829 -3.56193e-20)
(0.469487 -0.563063 2.18534e-19)
(0.661408 -0.718645 -2.03234e-18)
(0.84413 -0.830643 9.56389e-19)
(0.142116 -0.161712 -2.35626e-19)
(0.420074 -0.412838 -4.42279e-19)
(0.691403 -0.621477 -7.6966e-19)
(0.950162 -0.782448 9.52501e-19)
(1.18524 -0.892916 3.45088e-18)
(0.592411 -0.593026 -4.02235e-18)
(0.962602 -0.518688 9.7672e-19)
(1.29652 -0.215182 3.64241e-19)
(1.50181 -0.0347343 -5.73453e-19)
(1.57963 0.00113176 -5.16689e-20)
(0.785077 -0.744481 4.83084e-18)
(1.04286 -0.625629 -3.07424e-19)
(1.31945 -0.289022 -1.44117e-19)
(1.54293 -0.0832969 3.85805e-19)
(1.69214 -0.0167495 1.19277e-19)
(1.03631 -0.878877 1.54841e-18)
(1.17734 -0.711665 4.05756e-18)
(1.34094 -0.361019 6.88499e-20)
(1.54634 -0.13596 3.60205e-19)
(1.73988 -0.0493459 -5.08828e-20)
(1.33059 -0.989235 1.21619e-18)
(1.35862 -0.772695 -4.22675e-19)
(1.3852 -0.422943 -7.7011e-19)
(1.53423 -0.182165 -2.94823e-19)
(1.65411 -0.077306 1.3054e-19)
(1.62997 -1.04784 5.8226e-21)
(1.55525 -0.812058 -1.72468e-18)
(1.44878 -0.47113 0)
(1.499 -0.234418 3.41487e-19)
(1.52004 -0.0888086 9.54053e-20)
(2.15644 -1.11561 -1.57979e-18)
(1.83398 -0.801101 -4.89982e-19)
(1.55984 -0.457507 -9.39966e-21)
(1.37469 -0.219657 8.04136e-20)
(1.32609 -0.0844752 -2.85789e-19)
(2.6325 -0.889989 -1.61182e-18)
(1.89889 -0.591249 2.98174e-18)
(1.43156 -0.320509 6.74886e-21)
(1.14847 -0.158317 2.21285e-19)
(1.06183 -0.0625808 0)
(2.47847 -0.522954 -6.92606e-18)
(1.60482 -0.33908 -1.48919e-19)
(1.14903 -0.179351 1.96311e-18)
(0.888189 -0.0932189 -3.39801e-19)
(0.78326 -0.0388603 -2.60672e-20)
(1.76238 -0.220013 6.83492e-18)
(1.08845 -0.135719 1.2426e-18)
(0.752194 -0.0678718 2.23621e-19)
(0.571023 -0.0368187 2.96732e-33)
(0.484862 -0.0168527 -7.16292e-20)
(0.683168 0.000176696 1.55181e-18)
(0.395172 0.0235673 7.12284e-19)
(0.267721 0.0240804 -5.17137e-19)
(0.205529 0.0153857 2.30119e-19)
(0.171192 0.00631 -8.3832e-20)
(3.58188 -0.168162 1.2562e-17)
(3.41717 -0.502947 -1.04437e-17)
(3.13669 -0.787015 7.1086e-18)
(2.78064 -0.996134 2.32115e-18)
(2.33319 -1.10188 -4.14162e-19)
(3.78451 -0.10359 1.03945e-17)
(3.71744 -0.324465 -6.63888e-19)
(3.5777 -0.551831 -4.26981e-18)
(3.37825 -0.785777 2.6895e-18)
(3.10028 -1.01981 -6.62781e-19)
(3.11483 -0.06057 3.65447e-18)
(3.09865 -0.181683 -2.51886e-18)
(3.0596 -0.309669 5.01276e-18)
(2.99888 -0.444871 -1.52978e-19)
(2.9243 -0.593651 -4.79032e-18)
(2.19087 -0.0276241 2.7888e-18)
(2.18384 -0.0833663 8.43054e-18)
(2.16463 -0.143999 -6.53262e-19)
(2.13408 -0.207273 -6.60889e-18)
(2.11306 -0.269436 1.94585e-18)
(0.879441 -0.0018424 5.21228e-18)
(0.876492 -0.00523855 -1.16442e-19)
(0.867374 -0.00956707 -4.25728e-20)
(0.850513 -0.016253 -2.00946e-18)
(0.841162 -0.0229044 -3.60555e-18)
(1.65318 0.940156 2.27764e-18)
(1.34832 0.816736 -7.94568e-20)
(1.00337 0.658645 -3.58277e-20)
(0.627851 0.44946 -1.96225e-19)
(0.225213 0.182282 -1.33985e-19)
(2.07053 0.892538 -1.21884e-18)
(1.71069 0.777735 -1.20458e-18)
(1.29832 0.632575 7.31625e-19)
(0.83403 0.438709 -4.83985e-19)
(0.312131 0.182081 -4.03747e-21)
(2.4186 0.735862 -5.88883e-19)
(2.01967 0.645355 5.25242e-19)
(1.555 0.528757 2.43639e-18)
(1.01753 0.370192 8.08282e-19)
(0.391333 0.155283 5.26033e-19)
(2.68202 0.486724 1.57234e-20)
(2.25238 0.428294 -2.71543e-19)
(1.74743 0.352324 -6.46736e-19)
(1.15476 0.247644 2.05638e-18)
(0.450322 0.104144 -3.26824e-19)
(2.82546 0.173874 -1.1705e-18)
(2.37727 0.152648 -1.60647e-18)
(1.84939 0.125347 -7.28683e-19)
(1.22671 0.0878342 7.96265e-19)
(0.480854 0.0366867 -3.25825e-19)
(0.241545 0.417674 -2.15487e-18)
(0.171243 0.354109 -1.82714e-18)
(0.103636 0.277604 3.18361e-19)
(0.0458716 0.184064 -4.91115e-20)
(-0.00158428 0.0677541 3.4237e-20)
(0.371247 0.595548 -8.0001e-19)
(0.274285 0.511035 -6.76648e-19)
(0.178912 0.4002 1.46404e-20)
(0.0926688 0.260046 -2.65225e-20)
(0.0169228 0.0967253 2.6973e-20)
(0.581635 0.754688 2.18864e-18)
(0.446189 0.650616 -1.50478e-19)
(0.307947 0.507847 -1.45527e-19)
(0.174431 0.328936 -2.15618e-19)
(0.0484578 0.124096 1.66941e-19)
(0.862017 0.875604 -1.29408e-18)
(0.67913 0.758858 1.97245e-18)
(0.48526 0.594436 2.98567e-19)
(0.288335 0.388552 1.0277e-19)
(0.0925586 0.149218 -1.18492e-19)
(1.2037 0.92545 -4.40784e-19)
(0.969103 0.811974 -4.5755e-19)
(0.708574 0.645155 3.5926e-19)
(0.433307 0.429186 3.58813e-19)
(0.148454 0.168527 1.89522e-21)
(0.948661 0.170064 -4.86622e-19)
(1.49484 0.130416 4.89145e-20)
(1.34194 0.196554 1.87215e-20)
(1.01638 0.498444 -4.88238e-19)
(0.600096 0.646104 6.66687e-20)
(0.956583 0.0905539 1.81452e-19)
(1.51281 0.102866 3.13484e-19)
(1.37233 0.246887 2.77631e-19)
(1.06205 0.614938 -4.92214e-20)
(0.785046 0.804451 7.53677e-19)
(0.963075 0.010176 6.21237e-20)
(1.5314 0.0779316 -2.16037e-20)
(1.37178 0.298897 -5.74815e-20)
(1.16462 0.714659 -4.03627e-19)
(1.03717 0.939069 9.15824e-20)
(0.966 -0.0688858 -1.85973e-20)
(1.535 0.0563428 -7.61904e-19)
(1.37005 0.352541 7.0275e-20)
(1.32537 0.783217 1.17849e-18)
(1.33494 1.0433 9.47578e-19)
(0.963144 -0.145146 -1.54584e-20)
(1.50246 0.0492895 2.25584e-19)
(1.38731 0.403977 -5.91951e-20)
(1.50941 0.824724 -3.69174e-19)
(1.63623 1.09282 -2.72594e-18)
(0.944805 -0.23884 2.58514e-19)
(1.43958 0.0177363 5.08902e-19)
(1.4621 0.397274 -4.06198e-20)
(1.76662 0.802517 3.12788e-18)
(2.15344 1.14383 -5.51888e-18)
(0.889336 -0.345247 -2.51511e-20)
(1.30787 -0.0301897 -6.46013e-19)
(1.3985 0.284491 6.88877e-21)
(1.84082 0.596377 -3.0722e-18)
(2.59417 0.900832 1.67033e-18)
(0.788154 -0.411448 5.54591e-18)
(1.07668 -0.0921769 6.97854e-35)
(1.13425 0.150668 -2.11488e-18)
(1.5757 0.340882 2.62533e-18)
(2.45647 0.529767 5.032e-18)
(0.635178 -0.291793 1.51328e-19)
(0.712014 -0.0720158 5.26976e-19)
(0.731646 0.0519299 2.46767e-19)
(1.07515 0.135346 6.22447e-19)
(1.75837 0.220514 -8.64577e-18)
(0.322817 -0.0431041 -4.30819e-18)
(0.293566 0.00573939 2.85632e-19)
(0.264922 -0.0133825 1.1125e-18)
(0.393395 -0.0240317 -7.69877e-19)
(0.686215 -0.000477242 -1.46656e-18)
(2.34872 1.12134 4.69197e-18)
(2.78734 1.01263 3.47427e-18)
(3.1409 0.80342 -5.69313e-18)
(3.41899 0.51962 -1.46168e-17)
(3.58239 0.185886 1.5764e-17)
(3.07876 1.01887 5.00929e-18)
(3.35397 0.795236 2.56321e-17)
(3.55689 0.560671 7.24214e-18)
(3.70106 0.331823 -3.08275e-17)
(3.77791 0.111137 -5.17324e-18)
(2.90564 0.592026 -7.22764e-18)
(2.98594 0.448105 -3.38023e-18)
(3.05216 0.312104 -6.29649e-18)
(3.09523 0.181713 -6.88932e-18)
(3.114 0.05842 6.52288e-18)
(2.10628 0.265882 5.41662e-18)
(2.13014 0.205726 -4.04555e-19)
(2.16255 0.143024 4.87145e-18)
(2.18313 0.082124 6.2894e-18)
(2.19077 0.0259928 -5.88797e-18)
(0.842561 0.0220513 -5.74761e-19)
(0.851951 0.0156511 3.52135e-18)
(0.868644 0.00912999 2.4433e-18)
(0.877498 0.00479178 -5.16951e-18)
(0.879841 0.00136122 -3.84297e-20)
(0.281991 0.0207608 5.52156e-19)
(0.656795 0.0404741 -7.43633e-19)
(0.973299 0.0440746 -8.18472e-19)
(0.944468 0.0274365 -1.51804e-18)
(0.697972 0.016389 -6.6375e-19)
(0.245628 0.0554707 7.45801e-19)
(0.591377 0.107095 1.44152e-18)
(0.864824 0.125164 -6.97422e-19)
(0.940094 0.0970161 1.96083e-18)
(0.724297 0.0532512 -2.70094e-18)
(0.185658 0.0742786 4.96275e-19)
(0.476476 0.145922 -1.39886e-18)
(0.707889 0.184792 -9.13944e-19)
(0.857442 0.175441 -1.81042e-18)
(0.741679 0.101248 -2.86254e-18)
(0.123328 0.0774875 -7.72697e-19)
(0.344822 0.160383 -1.37667e-18)
(0.534621 0.214914 4.39909e-18)
(0.677822 0.233347 -3.66692e-19)
(0.713158 0.180054 2.25463e-18)
(0.0752853 0.0723779 -6.23086e-19)
(0.230745 0.160129 1.56427e-18)
(0.372327 0.224559 6.11884e-19)
(0.482872 0.257794 -1.2956e-18)
(0.561369 0.258475 -1.7501e-19)
(0.0451563 0.0637859 8.37973e-20)
(0.149963 0.148789 -1.22153e-18)
(0.247764 0.212165 -9.43982e-19)
(0.325459 0.23409 -8.87589e-20)
(0.37125 0.223826 -5.00694e-20)
(0.0264685 0.0557193 3.12319e-19)
(0.095086 0.134327 5.91018e-19)
(0.160899 0.184789 -2.11188e-19)
(0.213771 0.195359 2.60438e-19)
(0.253644 0.185275 1.71996e-19)
(0.0133327 0.0488565 2.49518e-19)
(0.0586806 0.111326 1.33336e-18)
(0.10381 0.120965 -1.24389e-18)
(0.142845 0.107107 -2.79056e-18)
(0.179111 0.0856353 4.08269e-19)
(0.0062393 0.0392768 -2.38626e-19)
(0.0427458 0.0485285 -1.81012e-18)
(0.0800217 0.0214851 3.21955e-18)
(0.120144 -0.0103363 1.31365e-18)
(0.161694 -0.0441499 -2.69199e-19)
(0.00987352 0.00125301 2.09334e-19)
(0.0421033 -0.0505556 -4.51516e-19)
(0.0822114 -0.0967248 9.00718e-20)
(0.130915 -0.1447 1.04762e-19)
(0.181633 -0.190947 -3.41251e-22)
(0.33879 0.0718177 -7.54466e-20)
(0.614126 -0.0424349 -1.23087e-18)
(0.704978 -0.0135362 2.54605e-19)
(0.716079 0.00748587 4.02722e-19)
(0.696767 0.00446888 1.19456e-20)
(0.303187 -0.0345552 -1.00242e-19)
(0.750854 -0.115194 1.48169e-18)
(0.889398 -0.0232117 9.19909e-19)
(0.915625 0.0115711 7.52248e-20)
(0.900894 0.00754096 -3.82642e-20)
(0.320264 -0.150198 -8.16024e-19)
(0.835793 -0.198701 3.17484e-18)
(1.05147 -0.0425591 -1.81772e-19)
(1.10338 0.0143554 -3.36204e-19)
(1.09466 0.0105735 6.7821e-20)
(0.376529 -0.289114 1.10361e-18)
(0.885314 -0.298561 -2.71224e-18)
(1.17456 -0.0835442 -5.37157e-19)
(1.27119 0.0114694 -3.13467e-20)
(1.27516 0.0120732 1.27622e-20)
(0.46304 -0.437651 4.96806e-19)
(0.920392 -0.406278 -5.40206e-19)
(1.25309 -0.144255 4.82307e-19)
(1.40831 -0.00283645 1.14621e-19)
(1.43901 0.00981935 2.55519e-20)
(0.182986 -0.0449723 9.55232e-19)
(0.145082 -0.0051849 0)
(0.162885 0.000955255 1.16637e-19)
(0.162116 -0.000565008 -9.35195e-21)
(0.155179 -0.000904029 -7.0495e-20)
(0.399798 0.0699723 0)
(0.408979 -0.000530691 0)
(0.467561 -0.00418869 5.1752e-20)
(0.468118 0.00377742 -3.79893e-20)
(0.449722 0.00183913 4.95164e-20)
(0.162698 -0.000821318 -3.68485e-19)
(0.186417 -0.00179194 3.1078e-18)
(0.213228 -0.00502009 -6.86355e-19)
(0.229826 -0.0149881 -3.11716e-18)
(0.245721 -0.0170087 -7.97116e-19)
(0.432061 0.0044416 6.09955e-19)
(0.484593 0.0196971 4.11572e-18)
(0.536491 0.0466993 -6.73029e-18)
(0.567669 0.0806156 2.2094e-18)
(0.598371 0.162221 3.79727e-18)
(0.370773 -0.220757 -3.32752e-19)
(0.324406 -0.23173 -9.33505e-20)
(0.248415 -0.212732 -3.33312e-19)
(0.150774 -0.150751 3.89094e-19)
(0.0458721 -0.0645742 1.13993e-19)
(0.257466 -0.169998 4.23352e-19)
(0.215057 -0.182061 1.41447e-18)
(0.162384 -0.177339 2.57321e-19)
(0.0967083 -0.13519 2.36553e-19)
(0.0269245 -0.0572055 -1.89338e-20)
(0.193173 -0.055248 -3.12537e-19)
(0.151613 -0.0778053 -1.05972e-19)
(0.108794 -0.0953617 1.63409e-18)
(0.0623154 -0.0975257 2.85092e-19)
(0.0132765 -0.048092 -3.14605e-19)
(0.179028 0.0866508 -6.37769e-19)
(0.132915 0.0527773 -7.06377e-19)
(0.087952 0.01902 1.31199e-18)
(0.0496008 -0.0111254 1.60304e-18)
(0.0112325 -0.0300817 1.98971e-19)
(0.189404 0.244324 1.24653e-19)
(0.134833 0.198 -1.19856e-19)
(0.0822765 0.148153 2.49061e-19)
(0.0384476 0.0970148 6.26107e-19)
(-0.00219092 0.0356278 9.36231e-20)
(0.697969 -0.0163445 1.53164e-18)
(0.944473 -0.0274143 -1.80087e-18)
(0.973108 -0.0442015 2.27012e-18)
(0.656807 -0.0405368 3.64669e-19)
(0.282025 -0.0207695 5.3671e-19)
(0.724285 -0.053146 1.77275e-18)
(0.93995 -0.0970325 7.9469e-18)
(0.864624 -0.12527 1.03371e-18)
(0.59143 -0.107135 1.34957e-18)
(0.245724 -0.0554921 -4.78536e-19)
(0.741586 -0.10101 -1.22118e-18)
(0.856842 -0.175284 -2.29683e-18)
(0.707813 -0.184857 2.9246e-18)
(0.476546 -0.145992 -1.08248e-19)
(0.185781 -0.0743148 3.39508e-19)
(0.712616 -0.179888 1.65808e-20)
(0.677141 -0.233314 -7.68719e-18)
(0.534662 -0.215251 -6.00069e-18)
(0.344961 -0.160717 1.09175e-18)
(0.123511 -0.0775914 5.08047e-19)
(0.559031 -0.257055 4.6705e-19)
(0.481892 -0.257287 5.33699e-19)
(0.372412 -0.225301 -9.00033e-19)
(0.231006 -0.160998 -8.88516e-19)
(0.0756333 -0.072634 -5.14511e-21)
(0.728112 0.373155 1.17639e-18)
(0.8797 0.127851 -1.89194e-19)
(0.676436 0.020707 2.50266e-19)
(0.64343 0.0351024 -7.46103e-19)
(0.362649 -0.0620952 -1.00642e-19)
(0.828284 0.398167 -1.71053e-19)
(1.08607 0.15807 -5.88623e-19)
(0.868224 0.0395709 8.40659e-19)
(0.803581 0.0977576 1.67069e-18)
(0.340346 0.0537185 1.02903e-19)
(0.893626 0.372792 -2.28061e-18)
(1.26412 0.172258 -3.80762e-20)
(1.04001 0.0639917 2.5296e-19)
(0.908251 0.17675 1.72328e-18)
(0.365 0.176303 -1.45662e-18)
(0.927199 0.318802 1.53372e-18)
(1.39918 0.174106 1.60327e-20)
(1.17968 0.100884 -2.21286e-19)
(0.964971 0.275282 -8.20755e-19)
(0.416521 0.323203 -6.01122e-19)
(0.940613 0.247613 1.88962e-19)
(1.47295 0.157657 4.06929e-20)
(1.27893 0.146648 -9.74103e-20)
(0.994794 0.383359 -1.2263e-19)
(0.487256 0.480838 1.37159e-18)
(0.275729 0.0483753 0)
(0.244302 -0.0113095 6.51109e-19)
(0.157423 -0.0159171 1.26947e-19)
(0.150031 0.00552827 -1.1074e-19)
(0.18439 0.0441329 -1.80813e-18)
(0.573615 0.266369 -1.01989e-17)
(0.609223 0.0751511 -2.56644e-18)
(0.444552 0.0137703 5.02969e-19)
(0.422679 3.1583e-05 -6.48017e-19)
(0.407541 -0.0683444 -6.62252e-19)
(0.245848 0.0169752 -7.80339e-22)
(0.229919 0.0150777 1.92878e-18)
(0.213306 0.00506438 5.24645e-19)
(0.186467 0.00180206 3.22987e-19)
(0.162714 0.000825197 0)
(0.599183 -0.162147 -1.17211e-19)
(0.568195 -0.0803467 2.54631e-18)
(0.536592 -0.0464819 -1.38221e-19)
(0.484651 -0.0196443 -2.70641e-19)
(0.432084 -0.00441929 7.60549e-19)
)
;

boundaryField
{
    left
    {
        type            fixedValue;
        value           uniform (1 0 0);
    }
    right
    {
        type            zeroGradient;
    }
    down
    {
        type            noSlip;
    }
    up
    {
        type            noSlip;
    }
    cylinder
    {
        type            noSlip;
    }
    defaultFaces
    {
        type            empty;
    }
}


// ************************************************************************* //
