/*--------------------------------*- C++ -*----------------------------------*\
  =========                 |
  \\      /  F ield         | OpenFOAM: The Open Source CFD Toolbox
   \\    /   O peration     | Website:  https://openfoam.org
    \\  /    A nd           | Version:  13
     \\/     M anipulation  |
\*---------------------------------------------------------------------------*/
FoamFile
{
    format      ascii;
    class       surfaceScalarField;
    location    "55.4";
    object      phi;
}
// * * * * * * * * * * * * * * * * * * * * * * * * * * * * * * * * * * * * * //

dimensions      [0 3 -1 0 0 0 0];

internalField   nonuniform List<scalar> 
823
(
0.00434171
0.0157029
-0.0200446
0.0351317
-0.00434706
-0.026443
0.10843
-0.0658424
-0.00745597
0.215209
-0.139389
0.0326104
-0.203017
0.0652108
0.353015
0.0106608
0.00504201
0.0725426
-0.0662288
0.179153
-0.172453
0.299518
-0.259754
-0.331879
0.42838
0.0292998
-0.0242578
0.125875
-0.162804
0.238145
-0.284723
0.335535
-0.357144
-0.391467
0.395123
0.0517996
-0.0760574
0.149073
-0.260077
0.223817
-0.359467
0.262934
-0.396261
-0.405263
0.27673
0.0618025
-0.13786
0.128211
-0.326485
0.162307
-0.393564
0.175632
-0.409586
0.185385
-0.415016
-0.0325256
0.0776847
-0.0451592
-0.0877781
0.110682
-0.0554294
-0.146624
0.11745
-0.0586031
-0.200004
0.114737
-0.0613581
0.100892
-0.248197
-0.0526984
0.0207044
0.0569803
0.0381991
0.0931873
0.0564451
0.0992035
0.0793732
0.0918092
0.0791509
0.101114
0.0244824
0.0324979
0.0576007
0.0600689
0.0922491
0.0645552
0.129189
0.0548693
0.0394068
0.168933
0.00970949
0.0227884
0.0287503
0.0410281
0.0525296
0.0407758
0.0830565
0.0243424
0.000324339
0.122139
0.00274387
0.017329
0.0506489
0.107602
0.173137
0.237018
-1.05063
0.565416
0.598142
-1.33286
0.97174
0.401554
1.72609
-1.5295
0.387605
0.535912
-0.521963
-0.669722
0.624763
0.456985
-1.4065
0.482957
-1.35884
0.360754
1.84829
0.438625
0.458041
-0.732204
0.296099
-1.53367
0.175765
-1.2385
0.308364
1.71569
0.499605
0.266801
-0.802244
-0.00232045
-1.40921
0.0187517
-1.25957
0.422333
1.31211
0.591929
0.0972043
-0.864144
0.128361
-1.36443
0.0977149
-1.22893
0.447919
0.961907
0.677187
-0.132064
-0.918482
1.27668
-1.34394
-1.29717
0.724354
-0.676604
0.813231
0.87303
1.22196
-0.540793
-0.877702
1.04039
-0.950755
-1.43357
0.600821
-0.237034
0.927894
0.545956
1.22215
-0.835047
-0.756855
1.0059
-0.598922
-1.35773
0.795818
-0.0269495
1.20804
0.133729
1.14087
-0.76787
-0.504015
0.92471
-0.275049
-1.24858
0.901934
-0.00417334
1.1428
-0.107141
0.772595
-0.397661
-0.178042
0.531949
-0.806998
0.527775
0.420634
0.0229733
1.14382
0.152564
-1.11099
1.22001
0.200536
1.3108
0.304336
1.36997
0.369202
0.425816
1.04045
0.0918063
-0.979697
1.11418
0.126813
1.20902
0.209496
1.32137
0.256848
0.313615
0.97432
0.0417016
-0.924215
1.02635
0.0747826
1.11763
0.118217
1.22544
0.149038
0.181319
0.899499
0.00889052
-0.866688
0.950274
0.0240082
1.02921
0.0392841
1.12907
0.0491731
0.0618079
0.632725
-0.623834
0.656733
0.696017
0.74519
0.147183
0.311541
-0.252223
-0.206501
0.0979029
0.315056
-0.265776
0.0552531
0.325495
-0.282845
0.0193947
0.318245
-0.282387
0.2076
-0.188205
0.109923
0.349111
-0.147493
0.0717171
0.353262
0.0373305
0.359881
0.00988075
0.345695
0.21748
0.0771734
0.386874
-0.114936
0.0431158
0.38732
0.0135122
0.389485
-0.00436335
0.36357
0.213117
-0.00438343
0.402065
-0.0108081
-0.0224594
0.405396
-0.0325245
0.39955
-0.0264633
0.357509
0.186654
-0.0816136
0.0686635
-0.0858042
-0.0798178
-0.0487939
0.19978
0.109662
-0.252646
-0.0567956
0.145943
0.114356
-0.0605189
0.0906664
0.119599
-0.064323
0.0368221
0.120005
-0.0661606
0.0855909
-0.0487688
0.191666
0.152709
-0.234713
0.145996
0.160025
0.0946763
0.17092
0.0401036
0.174578
0.125694
0.141208
0.198648
-0.187146
0.0989261
0.202307
0.0591628
0.210683
0.0218501
0.21189
0.147545
0.158937
0.230508
-0.190798
0.119155
0.242089
0.0736149
0.256223
0.0289877
0.256517
0.176532
0.0878513
-0.109566
0.0641642
0.037542
0.0116728
0.408274
0.058733
-0.0710274
0.419203
0.0667491
-0.0776779
0.410779
0.174312
-0.165888
0.39389
0.238086
-0.221197
0.496827
-0.355582
0.405522
0.0491903
0.412554
0.0597172
0.401266
0.1856
0.379716
0.259636
0.64183
0.398051
0.047119
0.406492
0.0512764
0.380929
0.211162
0.371533
0.269032
0.826216
0.392698
0.0504001
0.392815
0.0511597
0.373241
0.230736
0.343639
0.298634
0.979058
0.383153
0.0632265
0.383179
0.0511337
0.342462
0.271453
0.32206
0.319036
1.19155
0.612859
0.0543877
0.649704
0.0142887
0.702517
0.218641
0.762537
0.259016
0.913465
1.04062
0.620017
0.0383914
0.668019
-0.0337133
0.753194
0.133466
0.752452
0.259758
0.645621
1.0203
0.63669
0.00572159
0.685089
-0.082112
0.735281
0.0832733
0.781762
0.213277
0.394846
1.03254
0.653004
-0.0432619
0.646636
-0.075744
0.687983
0.0419266
0.810943
0.0903168
0.171526
1.03426
0.560758
0.485015
0.526941
0.617258
0.788784
1.07471
-0.24059
1.06107
-0.133846
1.06853
-0.1224
1.06292
-0.00520217
0.0205939
0.971759
-0.192054
0.96156
-0.123646
0.942808
-0.103648
0.959486
-0.0218797
0.000382545
0.96699
-0.126507
0.942841
-0.0994972
0.91006
-0.0708682
0.920251
-0.0320705
-0.0035815
0.963231
-0.055475
0.911331
-0.047597
0.874379
-0.0339165
0.863791
-0.0214828
-0.00647831
0.733309
0.685712
0.651795
0.630312
0.0488938
0.138481
-0.187375
0.0740624
0.312874
-0.338043
0.0747595
0.369118
-0.369815
0.0644778
0.373644
-0.363363
0.342747
0.0517555
-0.330025
0.0704913
0.0679897
0.144353
0.239013
0.179938
0.333533
0.184309
0.369273
0.363881
0.163175
0.0573415
0.0106481
0.172508
0.123846
0.269443
0.236598
0.33702
0.301696
0.357746
0.343155
0.02605
-0.0154019
0.123476
0.0264207
0.247477
0.112596
0.371433
0.177741
0.253472
0.475707
0.00405013
-0.019452
0.0500409
-0.0195701
0.149107
0.0135297
0.273519
0.0533288
0.104289
0.422702
-0.00497396
-0.0144781
0.00418281
-0.0287268
0.0472975
-0.0295849
0.121134
-0.0205079
0.0114764
0.213947
-0.0049989
-0.00947919
-0.00721078
-0.026515
0.00376663
-0.0405624
0.0307206
-0.0474619
-0.0391912
0.0813881
-0.00558946
-0.00388973
-0.0111547
-0.0209497
-0.0138266
-0.0378905
-0.0126432
-0.0486453
-0.0509547
-0.000879668
-0.0128884
0.00899868
-0.0331898
-0.000648321
-0.0599933
-0.011087
-0.0943612
-0.0142774
-0.0180217
-0.127294
-0.0361605
-0.0922382
-0.161928
-0.237564
-0.308284
0.380574
0.754131
-0.920758
0.400192
0.384215
-0.403833
0.164058
0.641684
-0.40555
0.0618877
0.044679
0.0574914
-0.489897
0.396186
0.402975
0.432544
0.513912
0.273278
0.289858
0.865738
0.138284
0.196253
-0.534554
0.312736
0.118928
0.566456
0.0195587
0.352086
1.08011
0.202319
0.34602
-0.56878
0.164714
-0.17308
0.606615
-0.422342
0.384716
1.30201
0.275206
0.455529
-0.595809
0.0840516
0.633449
0.405954
0.33952
-0.019006
0.63061
-0.611604
-0.13166
0.112654
-0.139604
0.00794414
-0.018987
-0.120617
-0.176567
0.778183
-1.06833
0.487004
0.0893983
0.0262729
0.0834599
-0.0138592
-0.0696007
0.137058
-0.0535977
0.246969
-0.109911
0.405507
-0.158538
-0.206097
0.191736
-0.15384
0.301313
0.534557
0.851726
0.137439
-0.13202
0.162082
-0.167501
0.104683
-0.136963
0.169719
0.0674495
-0.143452
0.180685
0.0273854
-0.142257
0.182321
-0.0981564
0.125542
0.177405
-0.0935127
-0.215912
0.134201
-0.0937591
0.0852487
-0.0944993
0.0350241
-0.0920324
-0.0631323
0.18319
-0.0445383
-0.232165
0.132915
-0.0434837
0.081953
-0.0435375
0.0330585
-0.0431379
-0.0300738
0.198597
0.00622042
-0.249355
0.147053
0.00805953
0.0937385
0.00977751
0.0393807
0.0112199
0.00930694
0.201407
-0.251983
0.148948
0.0944025
0.0394618
0.0371591
-0.309696
-0.0574873
0.0132211
-0.339425
-0.00823443
-0.34836
-0.0163837
-0.329893
-0.203758
0.118789
-0.280104
-0.148381
0.0770717
-0.297708
0.0366721
-0.30796
0.00682567
-0.300047
-0.196933
0.136521
-0.241344
-0.17528
0.0957987
-0.256986
0.0557508
-0.267912
0.019492
-0.263788
-0.177441
0.155935
-0.207354
-0.189926
0.114173
-0.215224
0.0694084
-0.223147
0.027172
-0.221552
-0.150269
0.151925
-0.197197
0.10642
0.0639578
0.0247269
0.389023
0.106494
-0.0995375
0.385694
0.106715
-0.103386
0.353073
0.155486
-0.122866
0.295779
0.0782025
-0.0209077
-0.190029
0.318307
0.397585
0.104889
0.400672
0.103628
0.392935
0.163223
0.343026
0.128112
-0.0629154
0.40321
0.0976583
0.411085
0.0957535
0.408381
0.165927
0.369023
0.16747
0.0739424
0.40828
0.0853577
0.417018
0.0870156
0.418218
0.164727
0.3884
0.197288
0.212987
0.41031
0.419648
0.418487
0.394578
0.413335
0.0967158
0.326336
0.0869995
0.238457
0.0878791
0.2342
0.00425637
-0.173405
0.407606
0.507229
0.490843
0.455856
0.439205
0.584107
0.326436
0.0811696
0.253846
0.0725899
0.168714
0.0851322
0.097629
0.0710851
0.0280283
0.468079
0.350743
0.260595
0.183299
)
;

boundaryField
{
    left
    {
        type            calculated;
        value           nonuniform List<scalar> 
17
(
-0.60402
-0.60402
-0.60402
-0.60402
-0.60402
-0.39598
-0.39598
-0.39598
-0.39598
-0.39598
-0.39598
-0.39598
-0.39598
-0.39598
-0.39598
-0.510051
-0.510051
)
;
    }
    right
    {
        type            calculated;
        value           nonuniform List<scalar> 
17
(
0.15758
0.245893
0.155599
0.182941
0.236545
0.302236
0.368474
0.432564
0.501107
0.569645
0.65383
0.731524
1.18118
1.1013
0.888028
0.446622
-0.155069
)
;
    }
    down
    {
        type            calculated;
        value           uniform 0;
    }
    up
    {
        type            calculated;
        value           uniform 0;
    }
    cylinder
    {
        type            calculated;
        value           uniform 0;
    }
    defaultFaces
    {
        type            empty;
    }
}


// ************************************************************************* //
