/*--------------------------------*- C++ -*----------------------------------*\
  =========                 |
  \\      /  F ield         | OpenFOAM: The Open Source CFD Toolbox
   \\    /   O peration     | Website:  https://openfoam.org
    \\  /    A nd           | Version:  13
     \\/     M anipulation  |
\*---------------------------------------------------------------------------*/
FoamFile
{
    format      ascii;
    class       volVectorField;
    location    "51.8";
    object      U;
}
// * * * * * * * * * * * * * * * * * * * * * * * * * * * * * * * * * * * * * //

dimensions      [0 1 -1 0 0 0 0];

internalField   nonuniform List<vector> 
440
(
(-0.0974249 0.0717253 -5.88659e-20)
(-0.12776 0.0918293 1.55909e-22)
(0.00840347 0.0577933 1.07872e-19)
(0.396064 0.0731158 5.32324e-20)
(0.40562 0.180717 2.51003e-20)
(-0.0962556 0.0558236 3.41357e-20)
(0.0409891 0.0264526 -1.15466e-19)
(0.527023 -0.0241365 -1.06375e-19)
(1.07201 -0.0522073 5.7318e-20)
(1.59024 -0.0763412 1.07542e-20)
(-0.0253072 0.00955457 4.92383e-20)
(0.490634 -0.0358867 6.91087e-19)
(1.26009 -0.0288515 -4.10116e-19)
(1.85561 -0.00942082 -1.33659e-18)
(2.34612 0.0117532 5.6492e-19)
(0.187708 -0.0424615 -1.68985e-19)
(1.17171 0.0049378 -5.12878e-19)
(1.93668 0.068882 1.64743e-18)
(2.35204 0.107386 1.79956e-18)
(2.42845 0.115671 -5.09315e-19)
(0.546362 -0.00519005 -2.81724e-19)
(1.70124 0.176238 -5.93898e-19)
(2.23512 0.249925 1.80162e-18)
(2.3706 0.259096 1.95262e-18)
(2.45494 0.236439 6.66316e-19)
(0.0282566 -0.272997 -9.13454e-20)
(0.00328029 -0.355294 4.09945e-19)
(-0.02812 -0.31158 -8.08985e-19)
(-0.00301514 -0.191007 2.17361e-19)
(0.0305355 -0.0137225 1.85219e-18)
(0.0222315 -0.149807 -3.21006e-20)
(-0.0654343 -0.138069 -7.46102e-20)
(-0.162663 -0.185119 -1.24589e-19)
(-0.247412 -0.219589 -1.07655e-19)
(-0.306178 -0.142298 1.98498e-19)
(0.0339837 -0.0905147 3.58413e-19)
(-0.0174298 0.00998814 -2.5941e-20)
(-0.0802492 0.0917712 2.08728e-19)
(-0.141693 0.0969674 3.71244e-19)
(-0.18597 0.0961438 1.47706e-21)
(0.0391403 -0.0873988 1.09618e-20)
(-0.0246504 -0.0422127 4.73558e-20)
(-0.0885618 0.053582 5.73815e-20)
(-0.13779 0.10716 -8.00018e-19)
(-0.143569 0.140016 2.22749e-19)
(-0.0340012 0.00370863 -4.15562e-20)
(-0.143385 0.0197496 -6.5152e-20)
(-0.21081 0.0660877 -2.30507e-19)
(-0.175387 0.10889 3.48153e-19)
(-0.119096 0.182526 7.63308e-19)
(0.629329 1.24503 2.54838e-18)
(0.880146 0.0392537 -1.26719e-18)
(0.95692 -1.36777 -1.20806e-19)
(1.17365 -0.428745 -3.91318e-19)
(1.3458 0.0387565 -3.45578e-20)
(-0.276374 0.899964 -1.99418e-18)
(1.29766 -0.0189543 5.96211e-20)
(1.67723 -1.27123 1.69838e-19)
(1.23493 -0.50107 9.94481e-19)
(1.34105 0.0225568 6.17136e-20)
(-0.666053 0.603523 -1.05528e-18)
(1.74611 -0.330087 -2.56326e-19)
(2.12415 -1.2606 -1.11576e-19)
(1.40925 -0.467695 1.23295e-18)
(1.33565 0.0363482 -7.92097e-21)
(-0.59462 0.464187 4.88544e-19)
(2.0395 -0.62753 -5.75645e-20)
(1.97147 -1.21386 3.23981e-19)
(1.33144 -0.406052 -5.70095e-19)
(1.27083 0.0474986 9.05784e-20)
(-0.0711872 0.153595 -1.22047e-19)
(2.27186 -0.779689 -6.43589e-20)
(2.01296 -1.10798 0)
(1.12045 -0.315817 2.0678e-19)
(1.14932 0.0685234 -1.93712e-20)
(1.33545 0.0350851 -2.97296e-19)
(2.62455 -0.761991 -1.00359e-19)
(1.97951 -0.950167 -2.63158e-20)
(1.16078 -0.282804 1.12999e-19)
(1.20556 0.0450109 1.42075e-20)
(2.02015 -0.00258477 -1.47781e-20)
(2.79798 -0.8514 1.12578e-18)
(1.53468 -0.666988 -1.71503e-20)
(0.722096 -0.0389374 3.95984e-20)
(1.14407 0.050342 0)
(2.21748 -0.132668 -2.04368e-19)
(2.38257 -0.522025 -4.50337e-21)
(1.42561 -0.292195 5.22565e-20)
(0.959579 -0.0923981 -1.93e-20)
(1.25541 -0.0981453 1.34759e-20)
(2.27452 -0.128845 1.04661e-19)
(1.97886 -0.456097 2.01963e-19)
(1.00648 -0.153826 -1.90054e-20)
(1.09442 -0.0128988 -1.60206e-34)
(0.990814 -0.0653927 1.47238e-20)
(1.45492 -0.127356 1.34642e-19)
(0.687985 0.0226923 5.7035e-20)
(0.406711 0.0158822 1.75059e-20)
(0.340053 -0.0884241 4.02785e-21)
(0.0812207 -0.0310331 -1.23446e-20)
(2.36838 0.237472 -8.43056e-19)
(2.53368 0.0549052 -1.01197e-18)
(2.41547 0.0513766 7.64987e-19)
(2.58446 -0.0797432 4.14571e-20)
(2.06689 -0.014337 -3.21638e-20)
(2.15164 0.136116 5.28769e-20)
(2.35123 0.0843248 -3.72011e-20)
(2.27797 -0.0470241 -1.16228e-19)
(2.38455 -0.0510296 -2.11602e-19)
(2.34205 -0.24967 -3.0252e-21)
(2.07452 0.0622107 6.48014e-20)
(2.1526 0.0484945 9.54467e-20)
(2.17859 -0.0555456 -1.11344e-19)
(2.20187 -0.046651 3.73196e-20)
(2.24023 -0.161334 1.70171e-20)
(1.98851 0.0261245 1.0324e-19)
(2.05256 0.00914043 1.25973e-19)
(2.07705 -0.0413343 -1.64629e-20)
(2.12926 -0.0477115 -4.31319e-20)
(2.13897 -0.108116 2.60357e-20)
(1.51303 -0.0176839 1.56567e-19)
(1.49452 -0.0198578 -1.06262e-20)
(1.52561 -0.0259763 1.95851e-20)
(1.49383 -0.0348911 -2.22068e-20)
(1.50969 -0.0364533 5.45151e-21)
(1.52345 0.841931 1.08622e-18)
(1.48354 0.935932 -3.46686e-19)
(1.48576 1.06078 -1.27385e-18)
(1.41066 1.09454 6.84655e-19)
(0.859025 0.768823 -1.62034e-19)
(1.81302 0.791416 -5.48431e-19)
(1.77596 0.862706 -2.88804e-18)
(1.77649 0.964221 -1.1081e-18)
(1.68066 0.969066 -3.8113e-19)
(1.01422 0.661818 -6.0971e-19)
(2.10079 0.673964 7.28536e-19)
(2.07768 0.736036 1.84747e-19)
(2.04837 0.815057 -2.14605e-18)
(1.90341 0.796633 -5.87868e-19)
(1.10948 0.514443 4.29653e-19)
(2.27358 0.549801 2.17775e-18)
(2.24966 0.595841 1.58158e-18)
(2.23336 0.642978 -1.81294e-18)
(2.0093 0.598407 -1.35827e-18)
(1.08495 0.33761 -2.43906e-19)
(2.40839 0.399384 1.04278e-18)
(2.40877 0.419829 -7.42964e-19)
(2.30366 0.438061 5.35374e-19)
(1.96148 0.382446 4.16024e-19)
(0.904268 0.147329 -3.48111e-19)
(0.580684 0.436585 -6.92228e-19)
(0.489368 0.471577 -5.51466e-19)
(0.370443 0.50628 6.87336e-20)
(0.230477 0.504509 -1.86971e-20)
(0.0560507 0.353233 6.93518e-20)
(0.682501 0.598135 5.93797e-20)
(0.615234 0.650095 -3.17621e-19)
(0.522941 0.712766 1.71704e-19)
(0.395615 0.77186 -7.96971e-20)
(0.170522 0.589929 1.14032e-19)
(0.762756 0.816627 1.49063e-19)
(0.691403 0.898605 4.25421e-19)
(0.634123 0.991243 8.38978e-20)
(0.547874 1.02451 -2.81819e-19)
(0.299194 0.749639 2.3097e-19)
(1.03547 0.880832 2.11533e-19)
(0.98477 0.960257 -6.51373e-19)
(0.933134 1.05654 -1.80977e-18)
(0.848613 1.11863 7.23683e-19)
(0.497481 0.823696 -1.62283e-19)
(1.10795 0.93704 -1.05695e-19)
(1.13888 1.05237 -1.80063e-19)
(1.15842 1.15961 -3.39888e-19)
(1.101 1.17883 -3.80044e-19)
(0.673475 0.83533 -6.08526e-21)
(1.0078 0.0390869 -7.89748e-20)
(1.00804 0.0172791 -2.72376e-20)
(1.04649 0.136164 -1.56314e-21)
(0.942487 0.114694 -1.46044e-19)
(0.906162 0.261913 2.84887e-19)
(0.994964 0.0362091 4.81825e-20)
(1.02993 0.0104349 1.05663e-19)
(1.02373 0.151312 1.08296e-19)
(0.977412 0.134695 1.65824e-20)
(0.941619 0.349768 8.14969e-21)
(1.00409 0.0341793 6.27655e-20)
(1.01504 0.00223109 -4.26915e-21)
(1.06226 0.171367 -2.60329e-21)
(0.929786 0.134815 1.28356e-19)
(1.13259 0.486534 -4.37461e-19)
(1.00306 0.0323347 -2.87087e-22)
(1.03413 -0.00835641 -1.57193e-19)
(1.0396 0.198954 -5.54693e-20)
(1.01962 0.124819 -3.24779e-19)
(1.15327 0.552036 8.28203e-20)
(1.01078 0.0227204 -9.42554e-21)
(1.02469 -0.000861041 4.37611e-20)
(1.07093 0.198645 2.53689e-20)
(1.0103 0.153024 4.43964e-19)
(1.37405 0.68088 -4.38564e-19)
(0.9891 0.0213577 -1.64817e-21)
(1.07808 -0.0182989 8.98313e-20)
(1.0209 0.229441 -4.83171e-20)
(1.2848 0.0628964 9.18865e-19)
(1.28425 0.736189 -3.39746e-19)
(0.947941 -0.00983548 -1.34317e-21)
(1.15391 -0.00061474 -7.42459e-20)
(0.910447 0.148303 4.59732e-21)
(1.39396 0.0529937 -3.12401e-19)
(1.20082 0.540239 -5.50923e-20)
(0.989673 -0.0269299 5.446e-21)
(1.0817 0.0233014 1.29532e-35)
(1.02411 0.109849 1.92501e-21)
(1.32891 0.00135587 1.09162e-19)
(1.35321 0.374771 1.59575e-19)
(1.05666 -0.0564489 3.83762e-21)
(0.918932 0.0104899 -2.6558e-20)
(1.28277 0.0154953 1.94788e-20)
(1.13096 -0.0240825 2.2217e-20)
(1.44809 0.262339 -2.42176e-19)
(0.951198 -0.0211292 -3.85046e-20)
(0.778754 -0.0217838 -2.23586e-21)
(1.01335 -0.0111573 2.25141e-20)
(0.678712 -0.00117564 -2.10617e-20)
(1.09372 0.0856949 -5.40797e-20)
(1.77447 0.642642 2.82017e-19)
(1.87502 0.65055 7.27689e-19)
(2.12843 0.526869 -1.02652e-18)
(2.20142 0.477371 2.19672e-20)
(2.39356 0.298747 4.20542e-19)
(1.72552 0.403117 6.95568e-20)
(1.75064 0.420304 9.14201e-19)
(1.98479 0.346555 1.04106e-19)
(1.98146 0.305859 -8.38748e-19)
(2.21065 0.217238 -2.69416e-19)
(1.68391 0.267506 -2.1952e-19)
(1.76333 0.259171 -1.4019e-19)
(1.88259 0.217273 1.7098e-19)
(1.93373 0.176013 -2.58316e-19)
(2.04431 0.136304 2.37737e-19)
(1.66397 0.183607 3.64824e-19)
(1.74745 0.163722 -1.19137e-21)
(1.8174 0.130767 1.98945e-19)
(1.87737 0.0976501 1.59561e-19)
(1.94596 0.0689613 -1.61766e-19)
(1.2963 0.0494724 -4.78975e-20)
(1.38531 0.0309298 2.29461e-19)
(1.41531 0.0168748 9.18518e-20)
(1.47104 0.000357751 -1.94257e-19)
(1.47102 -0.00610911 3.91736e-22)
(1.32907 -0.0242612 8.42533e-20)
(2.39062 -0.0110945 -5.8885e-19)
(2.6078 -0.00344794 1.58368e-18)
(2.57543 0.0421637 7.38843e-19)
(2.33759 0.0509332 -5.05119e-19)
(0.907098 0.114333 1.99805e-19)
(2.18596 0.146323 -6.62724e-19)
(2.59096 0.15868 -9.50869e-19)
(2.58975 0.164517 1.30616e-18)
(2.38206 0.156219 -9.72706e-19)
(0.359809 0.125226 1.18404e-21)
(1.62905 0.247251 8.30762e-19)
(2.34419 0.301356 1.25516e-19)
(2.6261 0.314481 1.43921e-18)
(2.58674 0.279896 8.00144e-19)
(0.0329254 0.0258378 2.41567e-19)
(0.799566 0.212322 2.92289e-19)
(1.65663 0.3369 -1.01126e-18)
(2.17524 0.401857 1.06825e-19)
(2.59383 0.436473 1.01132e-18)
(-0.0691049 -0.0564517 1.83932e-19)
(0.199167 0.0741506 -2.23415e-19)
(0.830989 0.257479 -2.0124e-19)
(1.3626 0.386333 3.08457e-19)
(1.96344 0.546569 1.94228e-19)
(-0.0733483 -0.087593 6.22828e-20)
(-0.0308966 -0.0489309 9.83173e-20)
(0.260305 0.0651859 1.02001e-19)
(0.55995 0.238521 -5.06421e-19)
(1.23325 0.472983 7.56543e-21)
(-0.0579894 -0.0994294 -4.77076e-20)
(-0.0718339 -0.103311 -1.60943e-20)
(0.0290174 -0.0238356 5.32275e-20)
(0.15866 0.154584 -7.55402e-20)
(0.524855 0.410709 -2.48222e-21)
(-0.0366725 -0.0753128 -4.96028e-20)
(-0.04858 -0.0812231 1.24622e-19)
(-0.0018642 0.0110782 -1.37453e-19)
(0.0445525 0.16994 -3.84393e-19)
(0.153134 0.389954 2.52353e-19)
(-0.0141901 -0.0917314 -3.03808e-20)
(0.0168744 -0.142977 -1.41783e-19)
(0.0833939 -0.0269927 2.89677e-19)
(0.166217 0.186158 1.76265e-19)
(0.259953 0.457141 -3.33448e-20)
(0.0066398 -0.218419 -6.49875e-21)
(0.0520686 -0.320749 2.43874e-20)
(0.106017 -0.227141 -1.45599e-20)
(0.188992 -0.0321332 3.64957e-20)
(0.290627 0.218466 4.08755e-19)
(1.41438 0.741467 -5.93954e-20)
(-0.154313 0.177114 2.482e-19)
(0.695682 -0.130628 -1.13167e-19)
(0.899607 -0.0269607 -2.72594e-19)
(0.736397 -0.0103973 1.92023e-21)
(1.24667 0.903842 1.58932e-19)
(-1.20216 0.263871 1.15159e-18)
(0.608213 -0.34427 1.15056e-18)
(1.10996 -0.0457374 -1.41743e-20)
(0.972707 0.0183454 2.23434e-21)
(0.487652 1.08736 -8.65876e-19)
(-1.83632 0.203306 3.84387e-18)
(0.487388 -0.910032 1.57034e-19)
(1.14055 -0.115506 2.13016e-19)
(1.16181 0.046737 2.68679e-20)
(0.260946 1.25681 1.0583e-18)
(-0.654396 0.0858508 -4.17167e-18)
(0.508337 -1.18422 -5.97947e-19)
(1.05691 -0.226715 1.50343e-20)
(1.25146 0.0526027 -1.73717e-20)
(0.853441 1.39493 6.29957e-20)
(0.686285 0.0939418 4.81169e-19)
(0.892936 -1.21051 2.63441e-20)
(1.15899 -0.35404 -6.71064e-20)
(1.33422 0.0320547 -4.41378e-20)
(-0.24118 0.0745292 -5.28993e-20)
(-0.420696 -0.181186 0)
(-0.0669672 -0.0981468 -8.73371e-20)
(0.0688698 -0.0622625 7.67913e-20)
(0.336843 -0.0237794 -1.85886e-20)
(1.68999 0.633365 0)
(0.641057 0.176207 0)
(0.760993 -0.0622091 3.02471e-19)
(0.615503 -0.0620837 1.95944e-19)
(0.577324 -0.049185 1.49607e-20)
(0.742214 0.00623684 -1.30049e-19)
(0.797475 0.00183902 3.42256e-19)
(0.906202 0.0373626 -3.62346e-20)
(0.820752 0.0280601 3.97913e-19)
(1.14462 0.193397 2.25109e-19)
(1.68199 0.0433901 1.25856e-19)
(1.86231 0.0924432 5.27451e-19)
(1.92864 0.184995 -9.44723e-19)
(2.31227 0.27315 4.15263e-19)
(2.23869 0.465477 6.95769e-19)
(0.95555 -0.516267 1.26487e-20)
(0.947516 -0.613416 -2.06597e-19)
(0.943992 -0.71859 -1.67075e-19)
(0.877868 -0.79462 1.01139e-19)
(0.541992 -0.63287 1.47667e-19)
(0.850652 -0.420891 1.10273e-19)
(0.795279 -0.490683 1.59808e-19)
(0.721899 -0.567427 -1.00235e-19)
(0.60977 -0.636201 1.56839e-19)
(0.340036 -0.51427 4.59878e-20)
(0.679922 -0.282551 -1.16469e-19)
(0.593057 -0.327789 -6.24979e-20)
(0.492931 -0.383669 2.27014e-20)
(0.373151 -0.43267 -4.34826e-20)
(0.172757 -0.34918 -1.4337e-19)
(0.56988 -0.0508856 -4.35035e-19)
(0.483515 -0.0704465 -3.49054e-19)
(0.371959 -0.09854 2.84478e-19)
(0.243168 -0.132838 1.44881e-19)
(0.0737389 -0.127526 1.29116e-20)
(0.538871 0.159294 -1.36386e-19)
(0.452072 0.156963 -1.5451e-19)
(0.333186 0.151004 -4.05368e-20)
(0.1931 0.149374 5.08753e-20)
(0.0323407 0.108383 1.38819e-20)
(2.14899 -0.0258444 9.65202e-19)
(2.38294 -0.0962683 3.48656e-19)
(2.48069 -0.186788 -8.83098e-19)
(2.36578 -0.213632 -1.87249e-18)
(1.4652 -0.208153 1.49205e-19)
(2.08665 -0.127176 1.56063e-18)
(2.20656 -0.242318 2.05068e-18)
(2.24085 -0.369175 1.72178e-19)
(2.17338 -0.431156 3.02013e-19)
(1.41993 -0.398701 -2.02206e-19)
(1.81066 -0.297743 -3.96757e-18)
(1.86938 -0.419665 4.4126e-19)
(1.91968 -0.55204 1.26389e-18)
(1.87774 -0.634095 -4.93505e-19)
(1.24059 -0.553815 7.86424e-19)
(1.57176 -0.427444 9.66499e-19)
(1.59908 -0.532972 -2.55511e-18)
(1.60005 -0.659242 -2.93326e-18)
(1.54227 -0.754742 9.14009e-19)
(1.00825 -0.635963 6.09469e-19)
(1.27911 -0.494139 2.17411e-19)
(1.23637 -0.593915 2.87337e-19)
(1.22964 -0.722946 -4.53648e-19)
(1.18048 -0.817568 -5.49726e-19)
(0.758486 -0.662337 -5.23068e-21)
(1.06499 0.049873 6.89926e-21)
(0.948589 0.0518044 1.63851e-21)
(1.12086 0.0783303 1.06365e-20)
(0.839747 -0.00645508 -2.67669e-19)
(1.13641 -0.22294 -2.20453e-20)
(1.07429 0.0510997 -2.28698e-21)
(0.942384 0.0472056 2.17174e-20)
(1.12164 0.0967612 5.17591e-21)
(0.912022 0.0370302 2.39513e-19)
(1.02941 -0.109014 6.70343e-21)
(1.07123 0.0461923 -5.4017e-20)
(0.944966 0.0405292 -1.39767e-22)
(1.10491 0.101442 -6.12839e-21)
(0.911591 0.0540928 1.37224e-19)
(0.984844 -0.0472843 -2.74623e-19)
(1.05145 0.0437423 6.37319e-20)
(0.967925 0.0330579 2.65616e-21)
(1.07257 0.109586 2.07406e-20)
(0.940352 0.079494 -7.40628e-20)
(0.885162 0.0594806 5.67761e-20)
(1.02376 0.0399692 1.5689e-20)
(0.998258 0.0281185 -2.22177e-20)
(1.04198 0.118729 3.30781e-20)
(0.95924 0.101261 2.74922e-20)
(0.856082 0.162884 -2.35783e-20)
(0.88904 0.0336471 0)
(0.720799 0.0277448 8.52656e-21)
(0.609387 0.0210717 7.38214e-21)
(0.366067 -0.0085901 5.57828e-20)
(0.715143 -0.0563959 -1.79518e-19)
(1.03302 0.0719482 -6.24888e-20)
(0.957404 0.069683 4.47689e-22)
(1.03007 0.0790715 -6.94199e-20)
(0.827089 -0.00981169 -1.5905e-19)
(1.0736 -0.20626 -1.90972e-19)
(0.993699 -0.0691169 -4.16053e-20)
(1.08598 -0.0373495 6.00044e-19)
(1.19038 0.0358568 3.53628e-19)
(1.05891 0.0581479 2.95495e-20)
(0.824071 0.0316859 0)
(1.35149 -0.326405 4.04981e-19)
(1.47371 -0.287252 1.70336e-18)
(1.6635 -0.164338 -1.83555e-18)
(1.76388 -0.0198259 -5.81985e-19)
(1.69261 0.0361802 4.44417e-19)
)
;

boundaryField
{
    left
    {
        type            fixedValue;
        value           uniform (1 0 0);
    }
    right
    {
        type            zeroGradient;
    }
    down
    {
        type            noSlip;
    }
    up
    {
        type            noSlip;
    }
    cylinder
    {
        type            noSlip;
    }
    defaultFaces
    {
        type            empty;
    }
}


// ************************************************************************* //
