/*--------------------------------*- C++ -*----------------------------------*\
  =========                 |
  \\      /  F ield         | OpenFOAM: The Open Source CFD Toolbox
   \\    /   O peration     | Website:  https://openfoam.org
    \\  /    A nd           | Version:  13
     \\/     M anipulation  |
\*---------------------------------------------------------------------------*/
FoamFile
{
    format      ascii;
    class       surfaceScalarField;
    location    "49.6";
    object      phi;
}
// * * * * * * * * * * * * * * * * * * * * * * * * * * * * * * * * * * * * * //

dimensions      [0 3 -1 0 0 0 0];

internalField   nonuniform List<scalar> 
823
(
0.00359128
0.0168271
-0.0204184
0.0338172
-0.000689563
-0.0295364
0.108309
-0.0610382
-0.0134535
0.217331
-0.134499
0.0254768
-0.197042
0.0528452
0.361528
0.0103101
0.00651701
0.0728848
-0.0632643
0.181544
-0.169698
0.304854
-0.257808
-0.331221
0.439032
0.029466
-0.022949
0.127642
-0.16144
0.242226
-0.284282
0.342174
-0.357757
-0.393294
0.404248
0.0525527
-0.0755017
0.151664
-0.260552
0.227936
-0.360553
0.268041
-0.397863
-0.407264
0.282011
0.0626645
-0.138166
0.129527
-0.327415
0.163507
-0.394532
0.176405
-0.410761
0.185741
-0.416601
-0.0224567
0.0881609
-0.0657042
-0.0667852
0.131064
-0.0867351
-0.110894
0.137815
-0.0937061
-0.145395
0.130028
-0.0955269
0.111524
-0.17396
-0.0829581
0.0297094
0.0584515
0.0585035
0.102269
0.0861555
0.110163
0.116165
0.100018
0.0861715
0.141517
0.0253221
0.0331294
0.061077
0.0665144
0.0960631
0.0751768
0.128407
0.0676747
0.0545387
0.16004
0.00961435
0.0235151
0.0304729
0.0456559
0.0565708
0.0490788
0.0881689
0.0360766
0.0184442
0.124263
0.00309668
0.0192162
0.0548415
0.116395
0.187684
0.261489
-1.00168
0.566232
0.565008
-1.51963
1.21611
0.43981
1.54044
-1.41525
0.385038
0.67277
-0.617998
-0.525682
0.493111
0.397504
-1.25767
0.426321
-1.54844
0.417637
1.54913
0.414713
0.675695
-0.59123
0.130063
-1.22769
0.0671615
-1.48554
0.317234
1.29906
0.46179
0.531138
-0.682314
0.0146499
-1.11808
0.0220944
-1.49299
0.38654
0.93461
0.56624
0.351439
-0.76396
0.307076
-1.23747
0.241491
-1.4274
0.431827
0.744273
0.66834
0.114926
-0.826916
1.37494
-1.30538
-1.30703
0.889823
-0.94229
0.816005
0.818091
1.20005
-0.269119
-0.810023
1.09282
-0.944006
-1.45419
0.578566
-0.42804
0.831837
0.564819
1.19999
-0.637267
-0.717878
1.05064
-0.62493
-1.36972
0.735514
-0.112911
1.1124
0.18793
1.15293
-0.677797
-0.492179
0.925904
-0.295091
-1.25574
0.843836
-0.0308429
1.09907
-0.0673016
0.791934
-0.370662
-0.178205
0.512034
-0.807124
0.481191
0.413889
0.0432272
1.1493
0.151921
-1.11548
1.23131
0.200001
1.32436
0.311197
1.38816
0.375236
0.442659
1.03798
0.0895321
-0.975595
1.11534
0.122643
1.21508
0.211461
1.3326
0.257717
0.321069
0.975641
0.0391924
-0.925302
1.0272
0.0710806
1.12088
0.117785
1.2311
0.147492
0.182456
0.906607
0.00745696
-0.874872
0.955394
0.022294
1.03458
0.0385995
1.13412
0.0479506
0.0608324
0.637448
-0.629991
0.659742
0.698341
0.746292
0.147269
0.31103
-0.251952
-0.206347
0.0981957
0.314807
-0.265734
0.0556235
0.325381
-0.282809
0.0196407
0.318056
-0.282073
0.20723
-0.18759
0.109013
0.348572
-0.146555
0.0709993
0.352821
0.0369462
0.359434
0.00982154
0.34518
0.217052
0.0795277
0.387308
-0.118264
0.0448502
0.387498
0.0147058
0.389578
-0.00378634
0.363672
0.213266
-0.00284308
0.402696
-0.012545
-0.0213134
0.405969
-0.0316545
0.39992
-0.0260421
0.35806
0.187224
-0.0802979
0.0663933
-0.0850898
-0.0797027
-0.0490573
0.199103
0.11082
-0.25208
-0.0578438
0.145255
0.115476
-0.0616274
0.0901449
0.120607
-0.0654969
0.0365885
0.120826
-0.0672693
0.0860142
-0.0494257
0.192363
0.153488
-0.235031
0.146779
0.16106
0.0952845
0.172101
0.0403855
0.175725
0.1264
0.138307
0.19946
-0.18428
0.0964341
0.202933
0.057344
0.211191
0.0209128
0.212156
0.147312
0.158639
0.231128
-0.190306
0.118914
0.242658
0.073501
0.256604
0.0289975
0.256659
0.17631
0.0859728
-0.106797
0.0628975
0.0366932
0.0112798
0.408565
0.056373
-0.068958
0.419865
0.0686978
-0.0799981
0.409836
0.181563
-0.171534
0.394382
0.238526
-0.223072
0.505791
-0.363488
0.405925
0.0464274
0.413045
0.0615784
0.400331
0.194277
0.380265
0.258593
0.651025
0.398471
0.0439357
0.406725
0.0533247
0.379419
0.221583
0.372436
0.265576
0.83918
0.393096
0.0468195
0.392215
0.0542051
0.372406
0.241392
0.345021
0.292962
0.993895
0.383191
0.0596078
0.382556
0.0548406
0.341899
0.282048
0.323612
0.311249
1.21071
0.612567
0.0510612
0.64642
0.0209876
0.703511
0.224957
0.769825
0.244935
0.944953
1.03558
0.618922
0.0361596
0.661166
-0.0212563
0.75768
0.128444
0.759095
0.24352
0.692893
1.01115
0.633968
0.00621158
0.683864
-0.0711523
0.744761
0.0675475
0.780928
0.207353
0.441058
1.03276
0.651868
-0.0416357
0.653682
-0.0729663
0.689073
0.032156
0.804084
0.0923417
0.195875
1.04927
0.562385
0.489418
0.521574
0.613916
0.809791
1.07081
-0.241579
1.05893
-0.134668
1.06827
-0.127607
1.06353
-0.0078093
0.0144475
0.963818
-0.194243
0.954948
-0.125798
0.937235
-0.109893
0.955249
-0.0258235
-0.00589898
0.968425
-0.129905
0.945582
-0.102956
0.912475
-0.0767861
0.922698
-0.0360468
-0.00850243
0.97753
-0.058167
0.925064
-0.0504897
0.885938
-0.0376603
0.874148
-0.0242568
-0.0092266
0.751624
0.701135
0.663474
0.639217
0.0479736
0.137133
-0.185106
0.0729714
0.309245
-0.334243
0.0737989
0.365097
-0.365925
0.0636718
0.369537
-0.35941
0.33872
0.0510278
-0.326076
0.0689855
0.0681473
0.141751
0.236479
0.177078
0.329771
0.181547
0.365067
0.359489
0.160778
0.0564177
0.0117297
0.169445
0.123452
0.265063
0.234153
0.331885
0.298245
0.353064
0.33831
0.0259144
-0.0141847
0.121642
0.0277248
0.243665
0.11213
0.365436
0.176474
0.250267
0.468234
0.00445217
-0.0186369
0.0502206
-0.0180436
0.147802
0.0145481
0.270159
0.0541175
0.103341
0.417084
-0.00418315
-0.0144538
0.00568445
-0.0279112
0.0484366
-0.028204
0.120954
-0.0183999
0.0128365
0.211458
-0.00353699
-0.0109168
-0.00393074
-0.0275175
0.00805201
-0.0401868
0.0353785
-0.0457264
-0.036704
0.084919
-0.00630129
-0.00461549
-0.013616
-0.0202027
-0.0189583
-0.0348445
-0.0209246
-0.0437601
-0.0449347
-0.0126939
-0.0179653
0.0133498
-0.0473327
0.00916471
-0.0883724
0.00619517
-0.138341
0.00620861
0.00241158
-0.185687
-0.0523544
-0.129925
-0.217436
-0.306754
-0.387301
0.366419
0.783149
-0.93811
0.415401
0.288378
-0.33736
0.188549
0.62881
-0.401958
0.0734624
0.0806732
0.0344129
-0.449101
0.381575
0.384131
0.483937
0.517661
0.154848
0.317843
0.828628
0.159276
0.23924
-0.470335
0.282158
0.189085
0.571342
-0.134337
0.387347
1.01262
0.226274
0.400313
-0.479221
0.115046
-0.111648
0.620973
-0.640264
0.42011
1.21349
0.29489
0.525533
-0.483146
0.0672828
0.643127
0.441368
0.348903
-0.0230698
0.625975
-0.602905
-0.115697
0.0926273
-0.127452
0.0117554
-0.0140766
-0.113376
-0.177096
0.74092
-1.05305
0.496188
0.105985
0.0270223
0.0823678
-0.013716
-0.0686518
0.135037
-0.0526696
0.243568
-0.10853
0.399359
-0.155791
-0.203546
0.189186
-0.151874
0.297294
0.527074
0.839517
0.136753
-0.130677
0.160608
-0.166684
0.104029
-0.135553
0.168278
0.0668917
-0.141966
0.179103
0.0270876
-0.140777
0.180582
-0.0971636
0.124251
0.176328
-0.0922668
-0.214738
0.133332
-0.0925579
0.0847104
-0.0933446
0.0348023
-0.0908693
-0.0623613
0.183483
-0.0434833
-0.232267
0.133324
-0.0423994
0.082297
-0.0423171
0.0332176
-0.0417899
-0.0291437
0.198519
0.00730051
-0.249303
0.146928
0.00919196
0.0936041
0.0110067
0.0392932
0.012521
0.0101494
0.20095
-0.251493
0.148515
0.0940246
0.0392763
0.0366737
-0.306159
-0.0565907
0.0130549
-0.335791
-0.00812472
-0.344745
-0.0160925
-0.326275
-0.201199
0.117151
-0.276896
-0.146414
0.0759488
-0.294589
0.0361171
-0.304914
0.00668856
-0.296846
-0.19451
0.134772
-0.238683
-0.172984
0.0945648
-0.254382
0.0549535
-0.265302
0.0191673
-0.26106
-0.175343
0.15366
-0.205111
-0.187232
0.112414
-0.213136
0.0682308
-0.221119
0.0266175
-0.219447
-0.148726
0.150214
-0.194717
0.105356
0.0633397
0.0244744
0.389414
0.105633
-0.0990674
0.385689
0.109031
-0.105306
0.352886
0.158046
-0.125243
0.294525
0.0812603
-0.0228986
-0.183037
0.310878
0.397959
0.103653
0.400801
0.106189
0.392675
0.166172
0.342517
0.131419
-0.0552579
0.403551
0.0960817
0.411288
0.0984523
0.408233
0.169227
0.368793
0.170859
0.081269
0.408523
0.0835385
0.417384
0.0895914
0.417581
0.16903
0.388322
0.200117
0.220288
0.41056
0.420153
0.417649
0.394694
0.413413
0.0966376
0.325489
0.0879243
0.236552
0.0889368
0.231351
0.00520148
-0.16998
0.401331
0.507621
0.490239
0.453933
0.436236
0.577133
0.32161
0.0797201
0.250139
0.0714717
0.166172
0.0839667
0.0961689
0.0700032
0.0275171
0.462137
0.346376
0.257359
0.180947
)
;

boundaryField
{
    left
    {
        type            calculated;
        value           nonuniform List<scalar> 
17
(
-0.60402
-0.60402
-0.60402
-0.60402
-0.60402
-0.39598
-0.39598
-0.39598
-0.39598
-0.39598
-0.39598
-0.39598
-0.39598
-0.39598
-0.39598
-0.510051
-0.510051
)
;
    }
    right
    {
        type            calculated;
        value           nonuniform List<scalar> 
17
(
0.16302
0.231502
0.140988
0.18051
0.235159
0.298815
0.358868
0.417609
0.480261
0.552874
0.647886
0.731296
1.18316
1.10784
0.927233
0.47796
-0.134978
)
;
    }
    down
    {
        type            calculated;
        value           uniform 0;
    }
    up
    {
        type            calculated;
        value           uniform 0;
    }
    cylinder
    {
        type            calculated;
        value           uniform 0;
    }
    defaultFaces
    {
        type            empty;
    }
}


// ************************************************************************* //
