# Selection   : all
# Cells       : 440
# Volume      : 7.374263e+01
# Time        	min(p)
4.61          	-2.640540e+00
