/*--------------------------------*- C++ -*----------------------------------*\
  =========                 |
  \\      /  F ield         | OpenFOAM: The Open Source CFD Toolbox
   \\    /   O peration     | Website:  https://openfoam.org
    \\  /    A nd           | Version:  13
     \\/     M anipulation  |
\*---------------------------------------------------------------------------*/
FoamFile
{
    format      ascii;
    class       volScalarField;
    location    "0.125";
    object      p;
}
// * * * * * * * * * * * * * * * * * * * * * * * * * * * * * * * * * * * * * //

dimensions      [0 2 -2 0 0 0 0];

internalField   nonuniform List<scalar> 
1800
(
6.63963
8.7409
10.8875
12.3099
13.1361
13.5347
13.6482
13.4664
12.1912
8.07888
10.494
12.9631
15.4605
17.1371
18.1848
18.8363
19.2767
19.4974
18.7506
16.0517
16.886
19.5048
22.1706
24.027
25.2796
26.1524
26.7927
27.1635
26.6769
24.8298
25.8812
28.4458
31.0885
32.9974
34.3567
35.3592
36.1143
36.5577
36.1412
34.4452
36.9421
39.2992
41.747
43.5541
44.8739
45.8651
46.6144
47.0577
46.7004
45.1369
49.6237
51.6734
53.8136
55.4164
56.6038
57.5023
58.1807
58.5871
58.3011
56.9362
63.5791
65.2498
67.0029
68.3322
69.3315
70.0982
70.6867
71.0607
70.8824
69.7899
78.514
79.7541
81.0633
82.0706
82.8443
83.4559
83.9478
84.3005
84.2648
83.5258
94.1432
94.9219
95.7521
96.4054
96.9266
97.3623
97.7433
98.0649
98.1733
97.8369
110.185
110.489
110.82
111.093
111.33
111.549
111.765
111.977
112.136
112.162
0.250933
-0.0275292
0.0872033
0.427527
0.863485
1.2801
1.60347
1.8417
2.04086
2.21165
0.597915
-0.0179358
-0.314569
-0.208386
0.143729
0.495214
0.78717
1.08161
1.38724
1.6523
1.27605
0.331636
-0.495689
-0.691674
-0.47345
-0.236783
0.000955864
0.332034
0.717189
1.0809
1.3793
0.356079
-0.62312
-0.957773
-0.891376
-0.803814
-0.655897
-0.348784
0.0801855
0.578596
0.920346
0.0987857
-0.625601
-0.930601
-0.997745
-1.04306
-0.990084
-0.747242
-0.286535
0.401472
0.326984
-0.0845685
-0.355756
-0.489418
-0.564761
-0.64193
-0.643863
-0.478202
0.00746534
0.930463
0.118864
0.211228
0.450597
0.604463
0.672236
0.681232
0.693643
0.818557
1.36014
2.57964
0.699782
1.30782
2.05405
2.56486
2.88795
3.08866
3.21318
3.39425
4.09454
5.74382
2.21018
3.3231
4.57782
5.50038
6.16494
6.64555
6.96493
7.27574
8.23485
10.505
4.49034
6.13052
7.94637
9.31917
10.3354
11.0837
11.5867
12.0119
13.0426
15.1826
2.94543
3.11752
3.07516
2.86673
2.36719
1.89818
1.47435
1.05942
0.638516
0.21381
2.5629
3.05521
2.93529
2.75459
2.28058
1.8343
1.43005
1.03072
0.622638
0.208812
2.06024
2.99935
2.80446
2.63599
2.19583
1.77442
1.38937
1.00482
0.608443
0.204383
1.43145
2.91153
2.69059
2.51404
2.11149
1.71758
1.35214
0.981679
0.595938
0.200524
0.751798
2.75205
2.58885
2.39275
2.02697
1.66293
1.3182
0.961295
0.585131
0.197241
0.204362
2.50716
2.48431
2.27481
1.94264
1.60992
1.28745
0.943673
0.576035
0.194549
0.0844355
2.20408
2.36085
2.15915
1.85905
1.55855
1.25982
0.928853
0.568665
0.192462
0.840579
1.92339
2.20131
2.03349
1.7728
1.50857
1.23535
0.91689
0.563041
0.19101
3.11815
1.82973
1.97334
1.86328
1.67163
1.4584
1.21422
0.907933
0.5592
0.190251
7.36794
2.23743
1.69019
1.62036
1.5405
1.40457
1.1957
0.901734
0.557046
0.190222
10.7431
3.55531
1.86918
1.5476
1.43416
1.33942
1.16548
0.886155
0.549011
0.189102
12.6439
3.64153
1.42031
1.07203
1.18338
1.25429
1.1313
0.864851
0.536404
0.18688
13.7822
3.73584
1.25695
0.834589
1.09496
1.26235
1.14567
0.868601
0.53599
0.187144
15.0131
5.10527
1.86685
1.20878
1.33533
1.38355
1.18506
0.879779
0.537991
0.182795
17.1263
7.77111
3.28483
2.15432
1.85437
1.58234
1.23397
0.889079
0.537943
0.173981
20.0442
10.639
5.10147
3.33066
2.49469
1.82263
1.29288
0.895821
0.533244
0.1639
22.6011
12.8157
6.78667
4.46384
3.14262
2.08299
1.36528
0.906999
0.529381
0.156329
23.9031
14.0523
8.06841
5.45446
3.74984
2.35221
1.45537
0.928906
0.531002
0.153379
23.8466
14.4447
8.95522
6.32521
4.32594
2.63461
1.5704
0.968593
0.542678
0.156064
23.2949
14.6702
9.72068
7.1634
4.90153
2.94522
1.72654
1.03949
0.57356
0.165789
112.717
98.7547
84.9738
71.9519
59.9954
49.1971
39.5954
30.8942
20.861
5.76145
113.697
100.394
86.8788
73.8586
61.8028
50.9105
41.3672
33.0992
24.4249
12.3116
114.233
101.133
88.238
75.899
64.3498
53.7504
44.3167
36.128
28.3437
19.2093
115.44
103.686
91.7146
79.8704
68.5004
57.893
48.2502
39.6435
31.9321
24.6646
116.017
104.995
94.0629
83.36
73
63.0607
53.581
44.6511
36.8132
30.6178
116.366
105.628
95.1112
84.9394
75.2094
65.9709
57.202
48.9491
41.8926
36.8574
116.597
106.027
95.7056
85.7635
76.3116
67.4231
59.1075
51.4341
45.0743
40.9485
116.697
106.165
95.8887
86.0075
76.6441
67.8898
59.7787
52.3795
46.2585
42.297
116.646
105.95
95.5144
85.4856
75.9973
67.1562
59.0187
51.6431
45.4149
40.9605
116.522
105.566
94.8686
84.5815
74.8469
65.7883
57.4864
49.9859
43.4733
38.2774
235.272
230.926
229.365
228.927
228.837
229.087
229.82
231.198
233.346
235.482
226.679
223.671
222.626
222.588
222.814
223.297
224.225
225.829
228.296
230.768
217.136
214.97
214.199
214.324
214.754
215.456
216.579
218.345
220.955
223.548
206.804
204.783
204.08
204.276
204.819
205.647
206.869
208.674
211.24
213.755
195.458
193.554
192.9
193.087
193.619
194.429
195.604
197.296
199.648
201.936
183.071
181.35
180.757
180.899
181.352
182.062
183.097
184.573
186.601
188.564
169.706
168.247
167.754
167.857
168.213
168.785
169.624
170.816
172.442
174.013
155.555
154.441
154.086
154.164
154.42
154.833
155.44
156.302
157.472
158.6
140.929
140.217
140.01
140.061
140.206
140.441
140.792
141.294
141.976
142.633
126.387
126.044
125.905
125.859
125.847
125.87
125.937
126.058
126.236
126.412
247.47
247.686
247.949
248.223
248.544
248.982
249.46
249.735
249.638
249.108
247.671
247.964
248.328
248.662
248.921
249.22
249.543
249.448
248.687
247.741
247.806
248.181
248.585
248.909
249.063
249.182
249.322
248.965
247.809
246.685
247.78
248.277
248.683
248.924
248.935
248.844
248.768
248.335
247.278
246.254
247.342
248
248.382
248.493
248.373
248.142
247.926
247.565
246.907
246.212
246.131
246.988
247.334
247.31
247.114
246.87
246.681
246.528
246.367
246.131
243.75
244.863
245.223
245.13
244.945
244.806
244.789
244.942
245.289
245.551
239.831
241.331
241.822
241.778
241.714
241.782
242.032
242.542
243.374
244.122
234.331
236.396
237.121
237.204
237.341
237.696
238.291
239.203
240.513
241.728
228.952
230.827
231.582
231.756
232.067
232.686
233.629
234.981
236.828
238.535
248.417
248.163
248.129
247.834
247.551
247.228
246.835
246.624
246.554
246.681
248.379
248.154
248.119
247.832
247.554
247.242
246.872
246.676
246.464
246.81
248.353
248.147
248.112
247.829
247.554
247.252
246.912
246.706
246.335
247.003
248.339
248.143
248.109
247.824
247.552
247.262
246.949
246.698
246.202
247.267
248.335
248.14
248.109
247.818
247.549
247.27
246.974
246.652
246.11
247.534
248.34
248.139
248.111
247.811
247.544
247.275
246.981
246.582
246.079
247.627
248.355
248.139
248.115
247.803
247.539
247.275
246.969
246.507
246.08
247.254
248.378
248.141
248.119
247.794
247.533
247.271
246.948
246.446
246.037
245.975
248.411
248.145
248.124
247.785
247.526
247.274
246.956
246.441
245.796
243.168
248.453
248.154
248.127
247.775
247.522
247.299
247.027
246.487
245.06
238.428
248.515
248.172
248.128
247.772
247.509
247.251
246.833
245.952
243.354
234.764
248.633
248.196
248.15
247.785
247.524
247.347
247.097
246.158
243.021
232.725
248.859
248.232
248.184
247.788
247.503
247.389
247.304
246.298
242.861
231.482
249.324
248.328
248.234
247.812
247.401
247.18
247.023
245.843
241.685
230.401
250.223
248.498
248.308
247.729
247.181
246.659
246.084
244.524
239.269
228.61
252.01
248.627
248.399
247.596
246.904
245.978
244.807
242.654
236.481
225.992
255.852
248.853
248.477
247.481
246.6
245.279
243.559
240.842
234.249
223.563
264.138
249.891
248.628
247.367
246.283
244.629
242.488
239.447
232.922
222.26
281.71
252.559
249.144
247.329
245.978
244.032
241.578
238.486
232.452
222.28
307.703
256.58
250.539
247.468
245.726
243.473
240.732
237.687
232.184
222.807
237.505
222.139
211.496
202.163
191.986
180.669
168.262
154.877
140.818
126.671
231.046
218.73
209.574
200.854
190.916
179.674
167.323
154.063
140.327
126.837
224.492
215.119
206.949
198.43
188.716
177.871
166.109
153.598
140.566
127.372
219.455
211.942
203.947
195.091
185.234
174.449
162.934
150.969
138.887
127.036
214.109
207.689
199.664
190.539
180.844
170.686
160.12
149.241
138.175
127.071
208.428
203.106
195.827
187.344
178.338
168.876
158.951
148.621
137.993
127.196
204.565
200.123
193.533
185.637
177.102
168.013
158.387
148.306
137.887
127.267
203.267
199.017
192.675
185.063
176.749
167.809
158.285
148.275
137.908
127.33
204.591
199.884
193.438
185.854
177.521
168.502
158.86
148.708
138.185
127.444
207.263
201.835
195.103
187.393
178.897
169.663
159.776
149.366
138.582
127.581
113.057
113.229
113.315
113.167
112.658
112.297
112.113
112.398
112.39
112.139
90.468
90.9363
91.1584
90.726
89.2916
88.2045
87.5844
88.2482
88.2829
87.6913
69.612
70.247
70.512
69.8458
67.9057
66.1918
65.1723
65.7227
66.0245
65.4619
51.4894
52.1031
52.2943
51.4712
49.4927
47.322
45.9889
46.0247
46.7622
46.5191
36.8556
37.2637
37.3067
36.4248
34.6328
32.3081
30.6566
30.0892
30.8977
31.074
25.8502
25.925
25.7709
24.8529
23.2739
21.2232
19.4188
18.4724
18.7257
19.2176
18.0785
17.8284
17.5165
16.5538
15.1553
13.604
12.09
11.016
10.6657
11.0262
12.7905
12.4031
12.1292
11.175
9.92
8.84414
7.90692
7.0628
6.45836
6.35914
9.17443
8.87051
8.85086
8.02429
6.94337
6.27242
5.88166
5.51507
5.03056
4.63034
6.95175
6.7006
6.87665
6.21972
5.39994
5.06159
5.03468
5.04463
4.9093
4.50252
5.89289
5.61742
5.69014
5.12048
4.59934
4.51195
4.64833
4.80401
4.93926
4.99744
5.35105
5.16152
4.96249
4.42253
4.1566
4.24361
4.45651
4.63286
4.7566
4.84302
4.92901
4.81975
4.45034
3.99879
3.91955
4.10634
4.35033
4.53786
4.65712
4.71571
4.4655
4.36337
3.99332
3.71808
3.77456
4.00833
4.23971
4.40605
4.50717
4.54771
3.90773
3.78253
3.55078
3.49447
3.65371
3.89059
4.0923
4.2374
4.32305
4.34835
3.24381
3.15204
3.1414
3.28588
3.51367
3.7305
3.90353
4.02969
4.10303
4.12046
2.54786
2.5944
2.76491
3.0262
3.28038
3.49317
3.66174
3.78763
3.86235
3.88228
1.95176
2.0813
2.33974
2.63871
2.91036
3.14528
3.34207
3.49261
3.58217
3.61267
1.33365
1.43446
1.69948
2.03547
2.36497
2.66103
2.91229
3.09529
3.19877
3.24713
0.682982
0.595071
0.82025
1.2115
1.63197
2.01817
2.32781
2.53617
2.66484
2.75724
4.31859
4.38891
4.26726
3.91028
3.22318
2.532
1.89872
1.32242
0.777162
0.270614
4.3817
4.34095
4.22401
3.88922
3.17179
2.47595
1.85757
1.29674
0.763934
0.268021
4.39396
4.20765
4.11753
3.83588
3.11762
2.42247
1.81915
1.27316
0.751888
0.263591
4.33723
4.02245
3.96767
3.74041
3.05408
2.37056
1.78347
1.25168
0.740966
0.257348
4.21863
3.82803
3.80663
3.60226
2.97267
2.3169
1.74951
1.23178
0.731047
0.250372
4.06119
3.66204
3.66444
3.44514
2.87206
2.25813
1.71631
1.21361
0.722428
0.244042
3.88877
3.5296
3.54638
3.30026
2.76069
2.19001
1.67617
1.19093
0.710984
0.237943
3.70531
3.41587
3.44106
3.17934
2.65233
2.11571
1.62721
1.16021
0.694765
0.231994
3.49598
3.30664
3.33256
3.07391
2.55185
2.0402
1.57427
1.12521
0.675269
0.225555
3.24665
3.20311
3.21066
2.97214
2.45725
1.96686
1.52245
1.09094
0.656077
0.219387
6.11968
4.64559
3.94984
3.58226
3.05719
2.47018
1.86868
1.30345
0.76252
0.262195
5.30786
4.42358
3.99189
3.64516
3.10405
2.49625
1.8835
1.31152
0.768326
0.264752
4.63082
4.33462
4.05594
3.71302
3.14532
2.51795
1.89616
1.31931
0.773374
0.267266
4.30605
4.33838
4.14189
3.78761
3.18438
2.53651
1.9074
1.32696
0.778347
0.269419
4.28565
4.39423
4.24618
3.87134
3.22352
2.55178
1.91634
1.33365
0.782953
0.271409
112.884
89.7967
68.724
50.9312
36.8941
26.551
19.3611
14.4723
11.2834
9.46533
112.665
89.2383
68.0247
50.2065
36.1034
25.5583
18.066
12.9417
9.78647
8.28118
112.48
88.7622
67.3936
49.4755
35.2033
24.3964
16.6554
11.4143
8.25208
6.78416
112.27
88.1902
66.5567
48.4152
33.8828
22.8058
14.8881
9.63519
6.52865
5.13508
112.016
87.4618
65.4274
46.942
32.0825
20.7387
12.7177
7.65601
5.14993
4.31665
244.822
244.863
244.99
245.163
245.351
245.32
244.817
244.223
244.323
244.065
245.039
245.111
245.226
245.414
245.678
245.837
245.621
245.073
244.879
244.705
245.238
245.284
245.396
245.592
245.88
246.143
246.132
245.7
245.323
245.217
245.482
245.513
245.61
245.783
246.043
246.337
246.464
246.244
245.887
245.781
245.745
245.763
245.845
245.993
246.205
246.47
246.691
246.726
246.581
246.469
246.003
246.015
246.086
246.211
246.385
246.615
246.892
247.145
247.261
247.248
246.233
246.249
246.326
246.463
246.649
246.888
247.188
247.538
247.833
247.956
246.482
246.507
246.596
246.773
247.023
247.329
247.687
248.08
248.422
248.593
246.819
246.874
246.976
247.184
247.515
247.94
248.42
248.894
249.2
249.173
247.184
247.308
247.461
247.684
248.046
248.545
249.091
249.569
249.826
249.622
137.384
137.123
137.099
137.363
137.145
136.746
136.204
136.033
136.105
136.272
161.848
161.246
161.265
161.904
161.252
160.129
158.663
158.208
158.417
158.88
184.105
183.532
183.817
184.342
183.292
181.544
179.575
178.887
179.14
179.77
203.086
202.831
203.549
203.56
202.199
199.997
197.991
197.147
197.328
197.938
218.574
218.738
219.524
218.935
217.259
214.906
213.085
212.183
212.218
212.625
230.475
230.95
231.18
230.216
228.394
226.319
224.709
223.77
223.611
223.69
238.704
239.038
238.667
237.583
236.064
234.495
233.061
232.072
231.767
231.532
243.389
243.26
242.637
241.797
240.873
239.791
238.496
237.513
237.265
236.911
245.13
244.699
244.204
243.853
243.494
242.835
241.719
240.864
240.89
240.63
245.284
244.853
244.711
244.738
244.755
244.452
243.616
242.931
243.151
242.927
256.151
248.333
249.007
247.692
247.315
246.742
246.139
245.723
245.57
245.599
253.335
248.287
248.829
247.702
247.362
246.796
246.165
245.763
245.657
245.575
251.445
248.301
248.618
247.722
247.407
246.85
246.217
245.864
245.838
245.611
250.326
248.31
248.41
247.75
247.446
246.909
246.304
246.015
246.061
245.718
249.64
248.279
248.296
247.781
247.475
246.976
246.427
246.184
246.27
245.876
249.183
248.234
248.242
247.805
247.489
247.046
246.56
246.325
246.424
246.048
248.879
248.208
248.212
247.818
247.497
247.109
246.667
246.419
246.518
246.206
248.683
248.195
248.185
247.827
247.513
247.152
246.733
246.477
246.57
246.344
248.556
248.184
248.162
247.832
247.531
247.184
246.772
246.521
246.595
246.469
248.473
248.173
248.144
247.834
247.544
247.209
246.803
246.569
246.594
246.578
318.67
255.143
251.294
248.237
247.484
246.875
246.42
246.041
245.314
243.752
296.939
252.759
250.206
248.032
247.389
246.825
246.363
246.001
245.528
244.562
278.49
250.608
249.643
247.886
247.337
246.787
246.303
245.936
245.609
245.242
267.077
249.278
249.345
247.784
247.306
246.756
246.238
245.851
245.599
245.573
260.302
248.571
249.14
247.702
247.288
246.729
246.168
245.747
245.543
245.606
240.326
238.476
235.256
230.336
223.115
212.739
198.667
180.842
159.745
136.643
241.513
239.976
236.791
231.636
224.112
213.533
199.395
181.543
160.304
136.863
243.028
241.526
238.33
233.056
225.281
214.438
200.129
182.176
160.781
137.048
244.693
243.275
240.13
234.837
226.88
215.763
201.192
183.014
161.353
137.257
245.495
244.643
242.117
237.022
228.957
217.568
202.667
184.144
162.081
137.511
)
;

boundaryField
{
    left
    {
        type            zeroGradient;
    }
    right
    {
        type            fixedValue;
        value           uniform 0;
    }
    down
    {
        type            zeroGradient;
    }
    up
    {
        type            zeroGradient;
    }
    cylinder
    {
        type            zeroGradient;
    }
    defaultFaces
    {
        type            empty;
    }
}


// ************************************************************************* //
