/*--------------------------------*- C++ -*----------------------------------*\
  =========                 |
  \\      /  F ield         | OpenFOAM: The Open Source CFD Toolbox
   \\    /   O peration     | Website:  https://openfoam.org
    \\  /    A nd           | Version:  13
     \\/     M anipulation  |
\*---------------------------------------------------------------------------*/
FoamFile
{
    format      ascii;
    class       volVectorField;
    location    "0.125";
    object      U;
}
// * * * * * * * * * * * * * * * * * * * * * * * * * * * * * * * * * * * * * //

dimensions      [0 1 -1 0 0 0 0];

internalField   nonuniform List<vector> 
1800
(
(0.0978472 -0.0883802 -4.5063e-20)
(0.286978 -0.242119 -3.4209e-20)
(0.474061 -0.379346 -4.8368e-19)
(0.657771 -0.500618 1.90271e-19)
(0.836682 -0.607819 7.06711e-20)
(1.00998 -0.702238 -4.15875e-20)
(1.17722 -0.784569 5.76488e-20)
(1.33799 -0.85503 2.07927e-19)
(1.49161 -0.914566 5.98513e-19)
(1.63348 -0.96872 8.15688e-19)
(0.119066 -0.0915127 -7.90144e-20)
(0.344283 -0.247763 -7.68439e-19)
(0.56325 -0.384873 3.768e-21)
(0.775304 -0.504457 1.2637e-19)
(0.979423 -0.609267 -1.26339e-19)
(1.17512 -0.701191 7.18726e-20)
(1.36221 -0.781455 -2.75143e-19)
(1.54066 -0.850952 -5.43507e-20)
(1.70996 -0.911749 -7.02957e-19)
(1.86766 -0.968268 6.35669e-19)
(0.141625 -0.09231 4.87167e-20)
(0.403599 -0.247715 2.08784e-19)
(0.653618 -0.382124 5.42297e-19)
(0.89199 -0.497962 -1.89687e-19)
(1.11843 -0.598519 -1.40075e-19)
(1.33295 -0.686046 7.47148e-20)
(1.53577 -0.76206 9.60628e-20)
(1.72714 -0.827787 1.94455e-19)
(1.9069 -0.885435 2.77503e-21)
(2.07388 -0.938646 1.51569e-19)
(0.163858 -0.0896966 -4.56329e-20)
(0.461558 -0.239416 -2.03983e-19)
(0.741201 -0.367558 -1.80817e-19)
(1.00421 -0.476933 -1.42372e-19)
(1.25126 -0.571019 1.80771e-19)
(1.4831 -0.652188 -5.71688e-20)
(1.70048 -0.722048 -4.25417e-21)
(1.90407 -0.781861 1.10093e-21)
(2.09408 -0.833712 -1.62618e-19)
(2.26978 -0.880818 -1.05319e-19)
(0.184592 -0.0833283 -1.14157e-19)
(0.515705 -0.221736 8.7274e-20)
(0.822989 -0.339336 1.79946e-19)
(1.10891 -0.438965 2.43469e-19)
(1.37513 -0.52399 -2.8387e-19)
(1.62316 -0.596732 -3.59635e-21)
(1.85435 -0.658774 4.23746e-19)
(2.06981 -0.711336 -1.85907e-19)
(2.27022 -0.756318 -1.24193e-19)
(2.45517 -0.796641 -5.29497e-20)
(0.203112 -0.0734725 1.73674e-19)
(0.564244 -0.195127 1.02946e-18)
(0.896426 -0.29797 1.42267e-19)
(1.20302 -0.384616 -5.0276e-19)
(1.4866 -0.45811 -1.74899e-19)
(1.74936 -0.52057 6.36793e-19)
(1.99319 -0.573458 -1.44311e-19)
(2.21961 -0.617879 -4.30414e-19)
(2.42972 -0.655481 -3.18367e-19)
(2.62347 -0.688848 2.62017e-19)
(0.218811 -0.0605675 1.16184e-19)
(0.60549 -0.160636 -7.47061e-19)
(0.958901 -0.244934 -1.08405e-18)
(1.28315 -0.315683 3.83207e-19)
(1.58156 -0.375444 4.48889e-19)
(1.85692 -0.426015 -8.98274e-22)
(2.11157 -0.468646 -6.37961e-19)
(2.34744 -0.504262 2.19542e-19)
(2.56597 -0.53419 -3.67442e-19)
(2.76744 -0.560598 -3.1255e-19)
(0.231142 -0.0451542 -3.42638e-19)
(0.637924 -0.119634 -6.93527e-19)
(1.00804 -0.182218 1.21185e-18)
(1.34617 -0.234607 5.99255e-19)
(1.6562 -0.278753 -2.69301e-19)
(1.94141 -0.316039 -2.11463e-19)
(2.20453 -0.347431 0)
(2.44781 -0.373625 1.16249e-19)
(2.67303 -0.395586 -2.96167e-19)
(2.88079 -0.41497 -7.67048e-20)
(0.239669 -0.0278641 -2.04622e-19)
(0.660363 -0.0737241 5.62148e-19)
(1.04201 -0.112151 1.70348e-19)
(1.38967 -0.144232 -5.12287e-19)
(1.70763 -0.171216 -7.84464e-19)
(1.99949 -0.193996 3.64653e-20)
(2.26828 -0.213197 1.68264e-19)
(2.51652 -0.229259 -5.4672e-19)
(2.7463 -0.242769 -2.90996e-19)
(2.95853 -0.254788 -5.65219e-19)
(0.24416 -0.00939865 4.51755e-19)
(0.672154 -0.024694 3.442e-19)
(1.05981 -0.0373483 -9.40461e-20)
(1.41237 -0.0477753 -1.23213e-20)
(1.73433 -0.0564527 -3.87953e-19)
(2.02949 -0.0637205 -8.72029e-20)
(2.30105 -0.0698173 -2.90026e-19)
(2.5517 -0.0749102 6.47982e-19)
(2.78373 -0.0792062 1.7096e-19)
(2.99839 -0.0830646 2.92449e-21)
(-0.00186995 -0.0217964 -7.89633e-20)
(0.00833828 -0.0723916 -1.3938e-19)
(0.0252157 -0.128186 -5.1641e-21)
(0.0487423 -0.179326 -2.95136e-20)
(0.0750689 -0.222804 -1.09508e-20)
(0.1028 -0.260591 -3.49174e-19)
(0.132176 -0.296055 -1.79461e-20)
(0.163673 -0.330993 1.6386e-19)
(0.196715 -0.36504 1.09457e-20)
(0.230354 -0.397155 -3.59769e-20)
(0.00144147 -0.0264559 -1.21932e-19)
(0.0164278 -0.0906416 -2.9853e-19)
(0.0403763 -0.165402 6.09914e-20)
(0.0679908 -0.228225 -7.51191e-20)
(0.0969742 -0.278971 -9.41572e-20)
(0.128535 -0.324177 -2.66944e-19)
(0.163692 -0.367808 2.31885e-19)
(0.201495 -0.409984 2.05798e-19)
(0.240407 -0.449301 -2.61897e-19)
(0.279514 -0.485102 7.82196e-20)
(0.00605787 -0.0342997 -9.92639e-20)
(0.03021 -0.112615 -8.08845e-19)
(0.0622951 -0.197486 -1.23087e-19)
(0.0958878 -0.269871 1.42106e-20)
(0.13105 -0.331182 5.07217e-20)
(0.170266 -0.387584 -4.27166e-19)
(0.213725 -0.44088 4.93007e-20)
(0.258965 -0.489851 3.63481e-19)
(0.304611 -0.533782 -3.63107e-19)
(0.350477 -0.573036 -2.45023e-19)
(0.0117453 -0.0434477 -7.68196e-21)
(0.0471769 -0.134024 1.57358e-19)
(0.0888198 -0.226251 1.37838e-21)
(0.132471 -0.308811 -9.37586e-21)
(0.178491 -0.382443 7.80477e-21)
(0.228524 -0.450242 7.43523e-20)
(0.281628 -0.512223 7.80215e-20)
(0.335461 -0.567428 -1.30246e-19)
(0.389471 -0.616215 9.40991e-21)
(0.443782 -0.659031 -1.03907e-20)
(0.0188147 -0.0523346 0)
(0.0675306 -0.154461 4.7772e-21)
(0.121705 -0.255051 -4.19683e-19)
(0.178893 -0.347792 8.21879e-20)
(0.238741 -0.432468 5.40916e-20)
(0.301445 -0.509924 2.97775e-21)
(0.365765 -0.579684 -2.62462e-20)
(0.430164 -0.641367 -6.16524e-21)
(0.494496 -0.695379 0)
(0.558729 -0.741674 -2.05638e-20)
(0.0276073 -0.0605534 2.52648e-20)
(0.0922373 -0.174302 -1.13931e-19)
(0.162004 -0.28407 -3.06278e-20)
(0.235143 -0.38609 -5.8091e-20)
(0.310572 -0.479873 5.34987e-20)
(0.387566 -0.565396 9.08538e-21)
(0.464982 -0.642258 6.78381e-20)
(0.541745 -0.710243 -2.27245e-20)
(0.617767 -0.769323 -6.80668e-19)
(0.692899 -0.818788 -9.97743e-21)
(0.0382176 -0.0681375 1.94982e-21)
(0.121619 -0.193244 8.05737e-20)
(0.20959 -0.312009 -8.29938e-20)
(0.300513 -0.42207 -1.68451e-20)
(0.39288 -0.523183 -7.66685e-20)
(0.485568 -0.61526 -2.64076e-21)
(0.577509 -0.698108 2.43244e-20)
(0.66777 -0.771586 -1.91789e-19)
(0.756301 -0.835244 3.75719e-19)
(0.842928 -0.887589 9.70809e-19)
(0.0505588 -0.0749301 1.63827e-20)
(0.155488 -0.210383 -1.47263e-19)
(0.263903 -0.337082 -2.17036e-19)
(0.374202 -0.453625 8.97843e-20)
(0.484715 -0.560238 -6.63439e-20)
(0.594198 -0.657086 8.84404e-20)
(0.701614 -0.744282 1.81221e-19)
(0.806062 -0.821858 -9.60577e-20)
(0.907602 -0.889156 -3.01776e-19)
(1.00613 -0.943883 7.2215e-19)
(0.0644381 -0.0805627 -2.56484e-20)
(0.193573 -0.224556 -5.80296e-19)
(0.324654 -0.357377 5.25897e-19)
(0.456088 -0.478356 3.3668e-19)
(0.586176 -0.588219 -8.28029e-20)
(0.713678 -0.687517 3.0096e-19)
(0.837582 -0.776713 -1.60939e-19)
(0.956987 -0.856176 -7.49616e-19)
(1.07209 -0.925172 -3.99691e-19)
(1.18292 -0.980718 4.4853e-19)
(0.0796414 -0.0847809 -7.9919e-20)
(0.236033 -0.234745 -5.42947e-19)
(0.392618 -0.371061 -7.29597e-21)
(0.547781 -0.493562 6.7238e-20)
(0.699838 -0.603487 3.35471e-19)
(0.847634 -0.701748 -1.80366e-19)
(0.990247 -0.789072 -1.61733e-19)
(1.12674 -0.865801 1.82287e-19)
(1.25698 -0.930954 -3.45756e-19)
(1.38016 -0.98293 -5.79581e-19)
(0.399448 -0.539756 1.07365e-18)
(0.679703 -0.61943 -5.06727e-19)
(0.902503 -0.544475 -2.0642e-19)
(1.06233 -0.403431 3.53866e-19)
(1.18742 -0.249133 -2.52078e-19)
(1.25581 -0.14178 -2.53342e-19)
(1.29209 -0.0858437 -2.64865e-19)
(1.31503 -0.053444 -5.56308e-20)
(1.32917 -0.0319514 2.66597e-19)
(1.33782 -0.0116385 5.64927e-20)
(0.466463 -0.627217 1.04736e-18)
(0.737531 -0.693842 1.41695e-19)
(0.956296 -0.601777 8.63898e-21)
(1.10086 -0.446734 -2.99796e-19)
(1.21288 -0.277214 -8.6026e-19)
(1.27254 -0.156818 0)
(1.30315 -0.0943563 -2.38325e-19)
(1.32264 -0.0585556 9.09193e-20)
(1.33476 -0.0348151 8.48165e-21)
(1.34213 -0.0126259 -8.21231e-20)
(0.554871 -0.712688 -1.02228e-18)
(0.807832 -0.766085 -9.21602e-20)
(1.01675 -0.65746 1.87958e-19)
(1.14442 -0.488099 -4.7548e-20)
(1.24045 -0.304044 -3.75016e-20)
(1.29039 -0.170732 8.61116e-20)
(1.315 -0.101953 0)
(1.33082 -0.0630309 0)
(1.3408 -0.0372977 -8.36193e-20)
(1.3468 -0.0134846 0)
(0.665117 -0.794369 -2.22773e-19)
(0.893011 -0.834227 3.92712e-19)
(1.08383 -0.71067 2.15169e-20)
(1.19284 -0.527039 0)
(1.27048 -0.329326 6.87262e-19)
(1.30928 -0.183488 -1.51834e-19)
(1.32753 -0.108609 0)
(1.33949 -0.0668456 1.85758e-19)
(1.34719 -0.0393786 0)
(1.35176 -0.0142003 2.0466e-20)
(0.795373 -0.870896 -1.52331e-19)
(0.994661 -0.896285 3.96176e-19)
(1.15797 -0.760329 -1.1866e-20)
(1.24565 -0.56317 0)
(1.30302 -0.352757 1.80853e-19)
(1.32917 -0.195047 2.79217e-19)
(1.34062 -0.114309 8.63542e-20)
(1.34855 -0.069981 1.6068e-20)
(1.35388 -0.0410392 -5.36611e-20)
(1.35695 -0.0147739 4.9385e-20)
(0.941808 -0.941478 -1.23574e-18)
(1.11264 -0.950838 -8.06935e-19)
(1.23977 -0.805129 3.61195e-21)
(1.30233 -0.596064 4.29094e-19)
(1.33778 -0.374056 -2.57795e-19)
(1.34999 -0.205369 1.46909e-19)
(1.35417 -0.119065 2.17191e-19)
(1.35793 -0.072425 -2.5123e-19)
(1.36076 -0.0422632 -3.48517e-21)
(1.36229 -0.0151993 -2.87357e-21)
(1.09962 -1.00575 -2.40573e-19)
(1.24516 -0.997559 2.34109e-19)
(1.32972 -0.843805 1.02842e-21)
(1.36261 -0.625146 -1.13117e-20)
(1.3744 -0.392904 -4.51968e-19)
(1.37173 -0.214277 6.7733e-20)
(1.36807 -0.122854 -9.17639e-20)
(1.36754 -0.0741599 -6.69283e-20)
(1.36777 -0.0430319 2.33733e-20)
(1.36773 -0.0154675 -3.4033e-20)
(1.26387 -1.06261 -1.23588e-18)
(1.38895 -1.03696 1.66022e-19)
(1.42709 -0.875588 0)
(1.42576 -0.649973 1.54772e-20)
(1.41193 -0.409278 3.63284e-19)
(1.39384 -0.221853 6.36995e-21)
(1.38212 -0.125772 -3.01439e-19)
(1.37729 -0.0751977 7.39213e-20)
(1.37482 -0.0433295 -6.41513e-22)
(1.37321 -0.0155775 -2.76273e-21)
(1.43162 -1.10865 3.43133e-18)
(1.54157 -1.06993 3.14648e-19)
(1.5321 -0.90105 3.47228e-19)
(1.49256 -0.670792 -1.85568e-20)
(1.45079 -0.423435 -2.88513e-20)
(1.41676 -0.227963 -3.25378e-19)
(1.39646 -0.127414 6.84088e-20)
(1.38715 -0.0753742 8.16661e-21)
(1.38186 -0.0430904 -5.5387e-20)
(1.37864 -0.0154946 -5.87171e-20)
(1.59898 -1.13268 -3.03505e-18)
(1.69501 -1.09544 1.35249e-18)
(1.63926 -0.92278 -7.67532e-20)
(1.55929 -0.690796 -4.44687e-19)
(1.48793 -0.43881 -4.15124e-19)
(1.43795 -0.236064 -1.96703e-19)
(1.41009 -0.129836 -7.04312e-20)
(1.39679 -0.0752885 0)
(1.38877 -0.0425059 7.66376e-21)
(1.38396 -0.0152849 2.39912e-20)
(1.88744 -1.17372 -6.91378e-18)
(1.91899 -1.1032 -1.91327e-18)
(1.78785 -0.915269 2.60533e-19)
(1.64908 -0.682319 7.15851e-20)
(1.53769 -0.4331 1.55058e-19)
(1.46834 -0.231767 -8.98773e-20)
(1.43045 -0.126592 1.2771e-20)
(1.41018 -0.0726569 4.40251e-20)
(1.39772 -0.0406675 -4.22902e-20)
(1.39064 -0.0148289 1.34642e-20)
(2.28686 -1.13551 5.22783e-19)
(2.16741 -1.05033 -2.54224e-19)
(1.92521 -0.84622 1.01839e-18)
(1.71828 -0.623345 -2.48381e-19)
(1.56397 -0.39281 8.1664e-19)
(1.48093 -0.209577 1.99875e-19)
(1.44521 -0.116567 7.02209e-20)
(1.4227 -0.0668649 -7.91435e-21)
(1.4063 -0.037228 5.06461e-20)
(1.39683 -0.0139231 5.37787e-20)
(2.60701 -1.04263 2.24703e-18)
(2.34374 -0.943323 3.24867e-19)
(2.00449 -0.745701 -1.3029e-19)
(1.74581 -0.543327 -3.63475e-36)
(1.56271 -0.342785 -2.78505e-20)
(1.47565 -0.187891 9.72045e-34)
(1.43182 -0.102448 -3.63645e-20)
(1.3974 -0.0557646 -3.2431e-33)
(1.37392 -0.0298495 1.58864e-20)
(1.35797 -0.0116753 -4.95766e-20)
(2.78559 -0.893061 3.98947e-33)
(2.37073 -0.791618 2.77777e-18)
(1.98387 -0.619292 1.63311e-18)
(1.68222 -0.443215 0)
(1.46968 -0.27801 8.81163e-19)
(1.35472 -0.156077 3.90393e-19)
(1.29729 -0.0831469 1.28229e-19)
(1.26074 -0.0428658 -5.34102e-33)
(1.23843 -0.0216104 1.75092e-20)
(1.22433 -0.00940744 4.61185e-20)
(2.76411 -0.70518 3.86412e-18)
(2.24906 -0.626449 -1.49894e-19)
(1.85682 -0.482343 0)
(1.5379 -0.342165 0)
(1.31658 -0.216279 0)
(1.19398 -0.124934 0)
(1.1361 -0.0662057 -1.43498e-20)
(1.10247 -0.0329232 -6.04385e-33)
(1.08318 -0.0157525 1.46788e-20)
(1.07168 -0.00701617 5.37735e-33)
(2.55117 -0.516791 3.2879e-18)
(2.02139 -0.461273 0)
(1.64432 -0.348726 0)
(1.34116 -0.24447 0)
(1.13308 -0.15463 0)
(1.01509 -0.0914753 0)
(0.957043 -0.0489488 3.4935e-20)
(0.925695 -0.0235709 -1.92293e-20)
(0.909214 -0.0106607 1.43389e-20)
(0.899791 -0.00489314 5.86137e-20)
(2.18948 -0.342936 0)
(1.70241 -0.303087 1.15675e-18)
(1.36363 -0.225253 1.19641e-18)
(1.09985 -0.15475 0)
(0.920592 -0.097504 7.41472e-19)
(0.816966 -0.0591979 3.44418e-19)
(0.76342 -0.0322886 1.51083e-19)
(0.73552 -0.015201 2.2389e-20)
(0.722024 -0.00648379 1.71813e-20)
(0.714624 -0.00308099 2.96333e-20)
(1.70203 -0.191401 -6.72892e-19)
(1.29929 -0.165583 -2.717e-19)
(1.02557 -0.120724 1.73797e-19)
(0.819898 -0.0806649 -2.29243e-34)
(0.682678 -0.0507037 -9.12983e-20)
(0.602253 -0.0319827 3.05997e-33)
(0.558099 -0.0179421 4.86958e-20)
(0.535149 -0.00832473 9.66555e-20)
(0.524777 -0.0033378 1.30873e-20)
(0.519264 -0.00166898 -3.58712e-20)
(1.1002 -0.0759559 3.40192e-18)
(0.822256 -0.062719 -1.90888e-19)
(0.64036 -0.0439455 -5.96511e-19)
(0.508546 -0.0275639 0)
(0.422671 -0.0170846 -5.98203e-19)
(0.371589 -0.0115013 -3.43883e-19)
(0.341743 -0.00677957 -1.12109e-19)
(0.325999 -0.00316214 -7.00061e-20)
(0.319238 -0.00119544 6.89667e-20)
(0.315759 -0.000651355 2.73513e-20)
(0.397053 -0.00332107 0)
(0.287427 0.00157742 0)
(0.220691 0.00398363 0)
(0.174436 0.00594092 0)
(0.14573 0.00506277 0)
(0.128283 0.00332491 0)
(0.11705 0.00215593 5.27624e-20)
(0.110803 0.00118987 -1.75978e-34)
(0.108157 0.000614621 1.34941e-20)
(0.106799 0.000181517 3.31165e-20)
(3.36611 -0.0863996 5.38204e-19)
(3.32549 -0.265153 -8.44046e-20)
(3.24649 -0.430737 8.5345e-19)
(3.13161 -0.582288 -6.04656e-19)
(2.98565 -0.718347 6.68091e-19)
(2.81463 -0.836748 2.76646e-19)
(2.62607 -0.934633 -1.93167e-18)
(2.42902 -1.00871 -7.83832e-20)
(2.22422 -1.05492 0)
(1.98446 -1.06833 4.3222e-19)
(3.86107 -0.0752291 7.08041e-18)
(3.79782 -0.234363 1.95731e-18)
(3.70354 -0.387463 -4.87331e-18)
(3.58354 -0.53216 -4.50586e-19)
(3.44166 -0.666092 3.5642e-18)
(3.2811 -0.787559 1.92904e-18)
(3.10568 -0.895364 -5.18023e-18)
(2.92112 -0.988071 -1.95382e-18)
(2.7265 -1.06385 2.2017e-18)
(2.49114 -1.12111 8.56909e-19)
(3.83251 -0.0534812 -1.26052e-19)
(3.81958 -0.171724 4.40898e-18)
(3.78474 -0.299903 -1.09007e-18)
(3.72355 -0.431049 -3.4477e-18)
(3.63531 -0.558842 -6.80195e-18)
(3.52272 -0.67888 1.02726e-17)
(3.38999 -0.788816 4.17417e-18)
(3.24207 -0.887926 -3.90142e-18)
(3.07987 -0.97853 -2.893e-18)
(2.88517 -1.06257 -3.4117e-18)
(3.62801 -0.0473486 -4.84461e-18)
(3.61893 -0.145008 -4.35881e-18)
(3.59894 -0.24383 5.47918e-18)
(3.56667 -0.343188 1.91473e-18)
(3.52175 -0.442464 -8.98394e-18)
(3.46354 -0.540875 4.94686e-19)
(3.39122 -0.637079 3.88758e-18)
(3.30447 -0.730401 -1.05564e-18)
(3.20419 -0.822931 1.2763e-18)
(3.082 -0.914452 2.79934e-19)
(3.34341 -0.0366176 -9.17019e-19)
(3.33833 -0.111722 3.00729e-18)
(3.3264 -0.188768 1.62129e-18)
(3.30672 -0.267284 -1.89604e-18)
(3.27915 -0.34619 -2.00426e-18)
(3.24397 -0.424244 -2.43877e-18)
(3.20143 -0.5004 3.80471e-19)
(3.15127 -0.574486 1.4061e-19)
(3.09515 -0.647655 -2.14927e-18)
(3.0327 -0.721092 -2.04375e-18)
(2.96198 -0.0265672 -1.82424e-18)
(2.95919 -0.0799261 -5.86703e-20)
(2.95266 -0.134663 -1.63932e-18)
(2.94172 -0.190997 3.12453e-19)
(2.92604 -0.248676 5.37349e-18)
(2.90556 -0.307088 -3.67654e-19)
(2.88018 -0.365299 4.44878e-20)
(2.84952 -0.42225 -2.61348e-18)
(2.8158 -0.477044 -3.50632e-18)
(2.78551 -0.529949 3.71939e-19)
(2.48663 -0.017509 -2.88393e-20)
(2.48527 -0.0519514 -8.1504e-19)
(2.48206 -0.0872848 -2.61761e-18)
(2.47651 -0.12383 -3.43445e-18)
(2.46819 -0.161619 2.49908e-18)
(2.45679 -0.200384 1.50361e-18)
(2.44192 -0.239507 -1.38616e-18)
(2.42297 -0.277985 1.6261e-18)
(2.40199 -0.314714 -4.31545e-19)
(2.38879 -0.349791 -9.66286e-19)
(1.91428 -0.0096819 7.73183e-19)
(1.91371 -0.0283028 -8.32677e-19)
(1.91239 -0.0474575 -3.27922e-20)
(1.90991 -0.0673911 -3.48001e-20)
(1.90579 -0.0881788 -7.28503e-20)
(1.89964 -0.109684 -2.33426e-18)
(1.89096 -0.1315 -6.79265e-19)
(1.87918 -0.152908 2.62818e-18)
(1.86597 -0.173137 -6.03902e-19)
(1.86119 -0.192405 -1.35089e-18)
(1.23969 -0.00373261 -1.64435e-18)
(1.23947 -0.0106959 -8.49684e-19)
(1.23902 -0.0179072 2.34156e-18)
(1.23801 -0.0254911 -8.90579e-19)
(1.236 -0.0334958 -6.74865e-19)
(1.23261 -0.0418623 1.35356e-18)
(1.22742 -0.0503938 -1.29723e-18)
(1.22 -0.0587256 1.28813e-18)
(1.21157 -0.0664219 -1.211e-18)
(1.20955 -0.0736074 -4.24856e-18)
(0.454872 -0.000257252 6.63663e-19)
(0.454783 -0.000700153 7.03694e-19)
(0.454646 -0.00115909 7.48889e-19)
(0.454273 -0.00164039 1.35529e-18)
(0.453434 -0.00214093 -6.72686e-19)
(0.451908 -0.00263844 -1.30081e-18)
(0.449472 -0.00310094 6.15267e-19)
(0.445871 -0.00359538 2.48101e-20)
(0.441581 -0.00439542 -4.96026e-20)
(0.440154 -0.00504865 1.10478e-19)
(1.65199 0.995957 -2.84178e-19)
(1.51096 0.94087 1.82136e-20)
(1.35773 0.880026 -2.26394e-19)
(1.19684 0.807941 1.78099e-19)
(1.02895 0.723655 -1.93599e-19)
(0.854387 0.62689 -1.02124e-19)
(0.67349 0.516857 2.31157e-19)
(0.486908 0.392134 -3.06469e-19)
(0.295866 0.250669 3.0884e-19)
(0.10145 0.0916687 2.39606e-19)
(1.88485 0.991157 0)
(1.72835 0.93395 6.37174e-19)
(1.55971 0.872176 3.3101e-19)
(1.38137 0.801418 1.63734e-19)
(1.19381 0.719569 4.31846e-19)
(0.996997 0.625688 -8.74477e-20)
(0.790995 0.518471 -7.91941e-20)
(0.576136 0.39592 9.07223e-20)
(0.353231 0.25515 -1.04381e-18)
(0.122691 0.094355 -1.55645e-20)
(2.08958 0.958223 1.57266e-19)
(1.92392 0.904421 0)
(1.745 0.845947 -1.01127e-19)
(1.55396 0.779143 -3.84503e-19)
(1.3509 0.701765 5.39254e-20)
(1.13546 0.612548 3.96038e-19)
(0.907325 0.509912 -6.06571e-19)
(0.666295 0.39152 -1.99788e-19)
(0.412447 0.25398 7.82333e-19)
(0.145216 0.0947166 -1.76582e-19)
(2.28348 0.897701 1.90651e-19)
(2.10918 0.850013 1.25951e-20)
(1.92015 0.797399 2.44691e-20)
(1.7171 0.736611 3.60585e-20)
(1.49971 0.665532 -3.03183e-20)
(1.26722 0.582867 2.72868e-19)
(1.01872 0.486962 -2.05978e-19)
(0.753307 0.375382 -8.55683e-19)
(0.470067 0.244589 0)
(0.16733 0.0916671 0)
(2.46667 0.811283 -1.06928e-18)
(2.28312 0.770366 -6.06752e-19)
(2.08378 0.724644 -1.20778e-19)
(1.86899 0.671155 -6.67149e-20)
(1.63799 0.607976 0)
(1.38954 0.533868 2.41237e-19)
(1.12215 0.447218 2.68292e-19)
(0.834129 0.345676 2.8678e-19)
(0.523593 0.225855 -4.24482e-19)
(0.187831 0.0848647 -8.13625e-20)
(2.63276 0.701652 7.63744e-19)
(2.44036 0.667661 -1.39431e-19)
(2.23129 0.629311 -2.21658e-19)
(2.00559 0.583973 0)
(1.76206 0.529985 0)
(1.49907 0.466236 0)
(1.21458 0.391259 -3.82621e-20)
(0.906218 0.302938 3.69502e-19)
(0.571221 0.198255 3.78329e-19)
(0.205993 0.0745924 -3.08721e-19)
(2.7746 0.571995 -1.19184e-18)
(2.57432 0.544924 -1.48031e-18)
(2.35672 0.514218 -3.02426e-22)
(2.12153 0.477662 -1.87903e-19)
(1.86721 0.433928 -9.30183e-20)
(1.59174 0.382101 -1.78745e-19)
(1.29265 0.320948 4.59406e-19)
(0.966997 0.248707 2.14146e-19)
(0.611288 0.162887 5.40591e-19)
(0.221217 0.0613134 2.03063e-19)
(2.8859 0.425464 -1.15686e-18)
(2.6791 0.405367 8.48161e-20)
(2.45463 0.382573 1.64656e-19)
(2.2119 0.355387 1.68504e-20)
(1.94907 0.322852 -3.14779e-19)
(1.66381 0.284299 -1.74216e-19)
(1.35329 0.238802 -6.21967e-19)
(1.01413 0.185041 1.18358e-19)
(0.6423 0.121177 5.16402e-20)
(0.232965 0.0455928 -6.25149e-21)
(2.96166 0.264981 1.01088e-19)
(2.75007 0.252164 3.97479e-19)
(2.52078 0.237731 -3.30624e-19)
(2.27288 0.220586 3.63605e-19)
(2.00427 0.200163 3.73019e-19)
(1.71238 0.176064 4.92493e-19)
(1.39412 0.147721 -6.36509e-19)
(1.04583 0.114327 -3.24711e-19)
(0.663105 0.0747725 -4.58661e-20)
(0.240815 0.028083 -3.27309e-19)
(2.99943 0.0934542 5.81904e-19)
(2.78502 0.0886777 -1.85754e-19)
(2.55317 0.083351 4.8012e-19)
(2.30263 0.0770718 -3.11715e-19)
(2.03113 0.0696639 2.66562e-19)
(1.73596 0.0610118 6.06561e-19)
(1.41389 0.0509417 3.79663e-19)
(1.06112 0.0392102 3.09505e-19)
(0.673093 0.0254932 2.66121e-19)
(0.244553 0.00950315 5.44115e-19)
(0.23604 0.445155 -4.39721e-19)
(0.201136 0.412547 -1.80641e-19)
(0.166454 0.376932 1.63302e-19)
(0.133172 0.33958 -5.18388e-19)
(0.10267 0.30196 -1.26128e-19)
(0.0752334 0.262977 6.22457e-19)
(0.0497837 0.217231 2.78196e-19)
(0.0260216 0.157044 -7.75662e-20)
(0.00777255 0.0825992 1.32941e-19)
(-0.00100371 0.0234163 -7.13598e-20)
(0.286668 0.53582 3.66299e-19)
(0.246869 0.499749 4.07751e-19)
(0.207107 0.459303 -1.64194e-20)
(0.167893 0.414317 -1.5705e-19)
(0.131125 0.366419 -3.37678e-19)
(0.0992434 0.316798 7.60397e-20)
(0.071277 0.261777 1.53474e-19)
(0.0444686 0.191847 1.4658e-19)
(0.0189778 0.104353 -5.32602e-19)
(0.00284822 0.0303211 -1.25842e-19)
(0.359473 0.624678 -5.73302e-19)
(0.31323 0.584928 -4.47666e-19)
(0.267307 0.539791 2.39472e-19)
(0.221469 0.488258 1.60237e-19)
(0.176773 0.430283 5.43767e-22)
(0.136449 0.367745 -9.06295e-20)
(0.100823 0.29984 -2.15783e-20)
(0.0668907 0.220185 -4.72413e-19)
(0.0337119 0.126776 -2.2831e-19)
(0.00761827 0.0393061 -3.80478e-20)
(0.455262 0.710406 4.98075e-19)
(0.400736 0.666725 1.62893e-19)
(0.346464 0.616138 -1.40999e-19)
(0.292255 0.557967 9.49711e-20)
(0.238347 0.491422 -6.46078e-21)
(0.187065 0.417563 -8.92236e-21)
(0.139582 0.337014 -1.56551e-19)
(0.0944235 0.247204 3.29154e-19)
(0.0511698 0.147583 -3.51921e-19)
(0.0134963 0.0486598 -6.06292e-20)
(0.573062 0.791479 -2.82596e-19)
(0.508789 0.744095 -8.83271e-20)
(0.444143 0.687847 -1.33076e-20)
(0.379206 0.622765 -5.52266e-20)
(0.314007 0.54846 4.90447e-20)
(0.249935 0.465444 5.27682e-20)
(0.188202 0.374465 -4.42278e-20)
(0.128831 0.275009 -2.45619e-19)
(0.0723239 0.167404 1.86962e-19)
(0.0208699 0.0573054 7.83308e-20)
(0.709785 0.865735 6.51031e-19)
(0.63479 0.815083 3.25903e-19)
(0.558487 0.753621 2.09083e-19)
(0.481064 0.682212 4.78265e-20)
(0.402561 0.601073 1.39962e-19)
(0.323981 0.510579 6.88573e-20)
(0.246414 0.411229 1.36833e-19)
(0.170687 0.30313 5.07996e-20)
(0.0979867 0.186705 -1.25289e-21)
(0.0299961 0.0652619 -7.9872e-21)
(0.861673 0.930827 -1.20286e-19)
(0.775341 0.877295 -8.45599e-19)
(0.686598 0.811337 -9.16327e-20)
(0.595661 0.734708 -3.0597e-20)
(0.502529 0.648068 -9.8248e-21)
(0.408116 0.551658 1.45666e-19)
(0.313455 0.445668 -4.46843e-20)
(0.219681 0.330131 7.42149e-20)
(0.128321 0.205126 -1.57348e-19)
(0.0409422 0.0726425 -1.30397e-21)
(1.02584 0.983013 -8.94527e-19)
(0.927786 0.927191 5.97951e-20)
(0.826153 0.85783 -2.25704e-19)
(0.721109 0.777519 -7.87162e-20)
(0.612539 0.687078 -3.27976e-20)
(0.501332 0.586506 -7.50961e-20)
(0.388478 0.475628 5.79438e-20)
(0.275179 0.354161 6.18437e-20)
(0.16305 0.221675 -9.99648e-21)
(0.0536024 0.0792352 -1.07397e-19)
(1.20266 1.01571 1.24379e-19)
(1.09251 0.959204 5.29085e-19)
(0.977481 0.888435 1.61761e-21)
(0.857651 0.806667 -3.40344e-20)
(0.732753 0.714738 1.55067e-19)
(0.603655 0.612251 -3.52903e-19)
(0.471297 0.498654 -2.4698e-19)
(0.336828 0.373257 3.57992e-19)
(0.201835 0.235126 1.45385e-19)
(0.0677607 0.0846183 -3.80391e-20)
(1.39915 1.01384 7.45936e-19)
(1.27688 0.961087 3.26293e-19)
(1.14689 0.894458 5.59734e-20)
(1.01016 0.815785 -1.98735e-19)
(0.866757 0.726141 -1.64297e-20)
(0.717565 0.625139 4.68435e-19)
(0.563403 0.511946 -2.70266e-19)
(0.405286 0.385511 -1.85073e-19)
(0.244733 0.244399 3.36294e-19)
(0.0831579 0.0884954 -7.02031e-21)
(0.942075 0.0907387 1.01752e-20)
(1.17201 0.160323 -3.12938e-20)
(1.15782 0.177701 -5.57491e-20)
(1.21657 0.169693 0)
(1.223 0.183616 8.95654e-21)
(1.18777 0.245051 -5.08005e-20)
(1.07736 0.380432 -9.80818e-20)
(0.921466 0.533309 -1.5311e-19)
(0.698553 0.637722 -1.35203e-19)
(0.410689 0.586213 6.80633e-19)
(0.939269 0.0711961 1.84444e-19)
(1.1661 0.140504 -8.41158e-20)
(1.15604 0.160177 2.79976e-21)
(1.21868 0.163589 2.51732e-20)
(1.23225 0.18814 -9.21569e-21)
(1.2069 0.26559 1.95499e-21)
(1.11034 0.420932 1.77255e-19)
(0.970559 0.590326 0)
(0.752706 0.713557 4.23178e-19)
(0.476716 0.676155 -3.92575e-19)
(0.93664 0.0530054 -1.03543e-19)
(1.1632 0.120045 5.74975e-21)
(1.15678 0.142304 4.00114e-20)
(1.22413 0.156019 2.23174e-20)
(1.24451 0.190879 2.51402e-20)
(1.22899 0.28461 -5.07925e-20)
(1.1487 0.459373 1.14003e-19)
(1.02614 0.645894 3.34238e-20)
(0.818869 0.787245 6.52103e-24)
(0.564675 0.763337 -7.95745e-19)
(0.934497 0.03569 -4.37345e-20)
(1.16309 0.098848 1.75819e-20)
(1.15999 0.124092 2.46559e-21)
(1.23273 0.147269 -1.70978e-20)
(1.2596 0.192154 -9.95358e-21)
(1.25441 0.302173 -1.34888e-20)
(1.19206 0.495544 -1.10616e-19)
(1.08789 0.699368 2.04269e-20)
(0.899439 0.856798 -3.50568e-19)
(0.675248 0.845755 -1.95981e-19)
(0.932997 0.0187786 -8.46056e-21)
(1.16557 0.0768528 4.0617e-21)
(1.16562 0.105603 1.53389e-20)
(1.2442 0.137611 -1.75253e-20)
(1.27732 0.192296 0)
(1.28307 0.318314 0)
(1.23967 0.529404 -5.12447e-20)
(1.15608 0.749816 -2.21161e-20)
(0.996339 0.92006 -9.5995e-20)
(0.80647 0.921827 -5.86116e-20)
(0.932238 0.00184842 -1.78462e-20)
(1.17051 0.0539939 1.03153e-21)
(1.17361 0.0869588 5.33001e-20)
(1.25821 0.127315 -3.23679e-20)
(1.29735 0.191665 -1.59352e-20)
(1.31443 0.333099 -2.29145e-21)
(1.29081 0.560841 2.08017e-20)
(1.23148 0.795928 -1.47421e-20)
(1.10987 0.975361 -1.53542e-21)
(0.954198 0.990769 -1.82178e-20)
(0.932306 -0.0155182 1.11474e-19)
(1.17777 0.0301847 -1.91833e-20)
(1.18387 0.0683145 7.9949e-21)
(1.27441 0.11658 -1.51627e-20)
(1.31938 0.190382 3.56667e-20)
(1.3479 0.346477 1.33453e-20)
(1.34518 0.589459 -4.50276e-20)
(1.31489 0.836277 -2.23312e-19)
(1.2385 1.02218 2.50558e-20)
(1.11326 1.05241 -1.01532e-18)
(0.933242 -0.0336304 4.7853e-20)
(1.18725 0.00533164 2.4785e-20)
(1.19641 0.049891 -3.84946e-20)
(1.2924 0.105693 4.76945e-20)
(1.34262 0.188975 1.39212e-20)
(1.38232 0.358776 6.71174e-21)
(1.40214 0.614888 -2.02386e-20)
(1.40593 0.869862 1.73254e-19)
(1.37907 1.06103 1.08866e-20)
(1.27836 1.10594 2.9213e-18)
(0.934803 -0.0525159 -2.38109e-19)
(1.19892 -0.0204657 -1.69849e-20)
(1.2114 0.0319844 -2.85982e-21)
(1.31197 0.0947618 -4.14749e-20)
(1.36728 0.187241 -4.09544e-20)
(1.41836 0.370181 1.24332e-20)
(1.46294 0.637304 1.01814e-19)
(1.50523 0.897116 -1.55682e-19)
(1.52906 1.09293 -2.6111e-20)
(1.4462 1.14824 -6.4825e-18)
(0.936471 -0.0727692 4.94284e-21)
(1.21275 -0.0468373 -3.07346e-20)
(1.2286 0.014909 -2.27972e-20)
(1.33279 0.085164 -1.16919e-19)
(1.39121 0.188919 -5.12942e-20)
(1.45259 0.384899 1.15329e-20)
(1.52364 0.660393 -1.18691e-19)
(1.60716 0.921113 -7.42572e-19)
(1.68055 1.11748 -1.17497e-18)
(1.61312 1.16846 -8.02581e-18)
(0.939926 -0.104433 -1.57674e-20)
(1.22955 -0.0816834 7.50629e-21)
(1.24997 -0.0108102 1.92939e-20)
(1.35771 0.0677641 -8.35187e-20)
(1.4231 0.177413 -1.02739e-20)
(1.49885 0.376999 -2.97909e-20)
(1.60622 0.651972 -2.54047e-21)
(1.74777 0.911291 -1.74027e-18)
(1.89786 1.11981 -1.68658e-18)
(1.89626 1.20478 3.34673e-18)
(0.944639 -0.149586 -3.99657e-19)
(1.24834 -0.127195 -7.46377e-20)
(1.27278 -0.0511114 -3.56405e-21)
(1.38139 0.0399056 -4.10122e-20)
(1.44302 0.149237 1.49672e-20)
(1.52404 0.335771 -3.12547e-19)
(1.66956 0.592683 -1.63051e-19)
(1.87588 0.8375 -6.85175e-19)
(2.13315 1.05711 1.87527e-19)
(2.28035 1.15525 -3.38628e-19)
(0.943458 -0.196171 -2.5895e-20)
(1.26605 -0.176671 -4.32004e-20)
(1.29272 -0.0896246 3.06435e-20)
(1.40266 0.0138777 4.72341e-20)
(1.46242 0.127262 9.68039e-34)
(1.53664 0.295835 -1.31349e-20)
(1.70377 0.5197 -2.61437e-33)
(1.95572 0.737605 1.98033e-19)
(2.30064 0.945097 -9.36237e-19)
(2.58406 1.05287 -6.26562e-19)
(0.936518 -0.244047 1.51605e-18)
(1.28111 -0.224539 -5.92006e-34)
(1.30762 -0.134687 -3.57421e-20)
(1.39034 -0.0129062 -7.47896e-20)
(1.41435 0.103388 -4.07709e-19)
(1.48304 0.242332 -8.69766e-19)
(1.66204 0.425166 -5.28349e-33)
(1.94982 0.613585 -1.59843e-18)
(2.33428 0.793423 -3.02706e-18)
(2.75491 0.898474 1.68192e-18)
(0.925547 -0.298704 0)
(1.2975 -0.26527 -3.58472e-33)
(1.2197 -0.157505 0)
(1.22182 -0.0194578 0)
(1.23744 0.0862538 0)
(1.32456 0.191838 0)
(1.52477 0.327778 -9.39331e-33)
(1.8352 0.477369 0)
(2.22293 0.627278 -3.47088e-19)
(2.73881 0.708907 1.26803e-18)
(0.912788 -0.35868 1.09471e-19)
(1.26983 -0.304857 -4.40919e-19)
(1.03661 -0.139337 -6.38221e-20)
(1.03001 -0.0152611 0)
(1.04951 0.0672486 0)
(1.13928 0.14096 7.39309e-20)
(1.33184 0.235743 1.39448e-18)
(1.62972 0.345453 -1.98838e-19)
(2.00278 0.462099 -4.98613e-19)
(2.53499 0.518667 4.66971e-18)
(0.881157 -0.404946 -1.52347e-17)
(1.10072 -0.269214 9.57945e-19)
(0.843109 -0.109641 -7.81119e-20)
(0.820242 -0.0143722 -1.56917e-19)
(0.841261 0.0449879 -4.07745e-19)
(0.925603 0.0906754 -7.14361e-19)
(1.09427 0.150019 -1.16808e-18)
(1.35441 0.223715 -1.51661e-18)
(1.69063 0.304212 -1.69407e-18)
(2.18084 0.343861 3.68242e-18)
(0.807623 -0.394456 -4.11761e-19)
(0.889585 -0.202725 -1.21704e-18)
(0.632514 -0.0725212 -1.27334e-19)
(0.598969 -0.0113487 -7.99954e-20)
(0.618368 0.0251325 -4.06987e-34)
(0.687252 0.0481577 1.12492e-19)
(0.817753 0.0785144 -1.63028e-32)
(1.02095 0.120201 -1.95266e-19)
(1.29358 0.166543 2.96431e-19)
(1.69929 0.191977 7.03933e-19)
(0.663572 -0.288815 3.43142e-17)
(0.618597 -0.10625 -3.10836e-18)
(0.404849 -0.0318904 -2.39692e-19)
(0.366685 -0.0061897 -6.02224e-20)
(0.380462 0.00920524 3.19507e-19)
(0.426212 0.0165859 7.21035e-19)
(0.508609 0.0268736 7.71921e-19)
(0.639061 0.0438501 4.6172e-19)
(0.820914 0.0632322 -1.78815e-19)
(1.10123 0.0762428 3.55405e-18)
(0.33662 -0.0768496 5.59014e-19)
(0.261757 -0.00237855 -6.77478e-33)
(0.147734 0.0175158 -3.02699e-19)
(0.128159 0.00218573 0)
(0.131819 -0.00157483 0)
(0.147592 -0.00447737 1.08708e-19)
(0.17526 -0.00582593 6.99866e-35)
(0.221058 -0.00396268 -1.25313e-19)
(0.288027 -0.00154153 -2.79719e-19)
(0.398777 0.00333498 9.98116e-19)
(2.00002 1.09448 -1.78411e-18)
(2.23718 1.07692 -2.30775e-18)
(2.44039 1.02792 0)
(2.63557 0.951597 -7.6565e-19)
(2.82222 0.851813 -1.80157e-18)
(2.9915 0.731855 -2.25199e-18)
(3.1359 0.594628 -4.90867e-19)
(3.24942 0.442381 1.27063e-18)
(3.32716 0.276734 -3.54987e-18)
(3.3666 0.0985498 1.35739e-18)
(2.49586 1.13881 2.5885e-19)
(2.72803 1.07951 1.39237e-18)
(2.9217 1.00238 1.44999e-19)
(3.10488 0.908464 6.69128e-19)
(3.27901 0.799694 -1.09985e-18)
(3.43859 0.677635 -4.98949e-18)
(3.57974 0.543512 2.46364e-18)
(3.69937 0.398944 1.26938e-17)