/*--------------------------------*- C++ -*----------------------------------*\
  =========                 |
  \\      /  F ield         | OpenFOAM: The Open Source CFD Toolbox
   \\    /   O peration     | Website:  https://openfoam.org
    \\  /    A nd           | Version:  13
     \\/     M anipulation  |
\*---------------------------------------------------------------------------*/
FoamFile
{
    format      ascii;
    class       volVectorField;
    location    "0.595";
    object      U;
}
// * * * * * * * * * * * * * * * * * * * * * * * * * * * * * * * * * * * * * //

dimensions      [0 1 -1 0 0 0 0];

internalField   nonuniform List<vector> 
440
(
(0.21826 -0.176695 -1.81112e-19)
(0.613079 -0.436659 1.07878e-18)
(0.984292 -0.640908 4.23274e-19)
(1.32754 -0.795391 1.24273e-18)
(1.63257 -0.916751 -2.59993e-19)
(0.304893 -0.177684 -5.4449e-19)
(0.819133 -0.4287 -1.01957e-18)
(1.27997 -0.618901 1.14518e-19)
(1.6919 -0.761639 -1.21514e-18)
(2.05374 -0.875113 -1.02099e-18)
(0.384879 -0.152406 -6.98069e-19)
(1.00468 -0.363014 1.58977e-18)
(1.53975 -0.518385 -1.93463e-18)
(2.00471 -0.632633 1.37947e-18)
(2.40594 -0.721477 1.42979e-18)
(0.445867 -0.102745 5.62391e-19)
(1.14609 -0.243083 -1.29951e-18)
(1.73744 -0.344812 -7.50806e-19)
(2.24293 -0.418221 1.96653e-18)
(2.67445 -0.474464 2.50019e-18)
(0.479255 -0.0361582 6.86905e-19)
(1.22363 -0.0847542 1.69138e-19)
(1.8459 -0.119363 2.53131e-18)
(2.37402 -0.143864 -1.06201e-18)
(2.82295 -0.162495 -4.83733e-19)
(-0.000890536 -0.0517284 2.75777e-19)
(0.0501255 -0.144479 -3.85555e-19)
(0.106053 -0.222583 1.10948e-18)
(0.171589 -0.292469 -1.76614e-19)
(0.239753 -0.354095 -1.59906e-18)
(0.0137142 -0.0843469 -2.62394e-19)
(0.0893141 -0.227917 -4.24135e-19)
(0.174128 -0.350302 1.10692e-19)
(0.268415 -0.450245 5.97016e-20)
(0.364685 -0.530365 -3.60006e-20)
(0.04334 -0.114273 7.05638e-20)
(0.165459 -0.303198 5.26592e-19)
(0.296158 -0.467433 9.49813e-20)
(0.432855 -0.598904 1.45977e-18)
(0.567911 -0.697467 -2.49812e-20)
(0.0866184 -0.140997 6.69394e-20)
(0.27637 -0.367827 -3.49195e-20)
(0.469492 -0.563016 2.17946e-19)
(0.661408 -0.718527 -2.03638e-18)
(0.844119 -0.830457 9.57301e-19)
(0.142124 -0.161722 -2.35842e-19)
(0.420081 -0.41285 -4.42625e-19)
(0.691402 -0.621473 -7.70472e-19)
(0.950148 -0.782409 9.53481e-19)
(1.18521 -0.892835 3.45416e-18)
(0.592799 -0.59192 -4.05414e-18)
(0.962622 -0.516938 1.0167e-18)
(1.29416 -0.211935 3.72019e-19)
(1.48839 -0.0362852 -6.00607e-19)
(1.55932 -0.000276962 -7.76222e-20)
(0.785501 -0.743409 4.83625e-18)
(1.04391 -0.623501 -3.11424e-19)
(1.31941 -0.284313 -1.42059e-19)
(1.52901 -0.0776428 3.87788e-19)
(1.62904 -0.017824 1.51683e-19)
(1.03649 -0.878033 1.54097e-18)
(1.1785 -0.709586 4.04544e-18)
(1.34308 -0.354598 6.80294e-20)
(1.53882 -0.120114 4.06379e-19)
(1.63377 -0.0361632 -4.93089e-20)
(1.33057 -0.988666 1.22075e-18)
(1.35929 -0.771166 -4.19926e-19)
(1.38796 -0.414918 -7.72208e-19)
(1.52245 -0.155774 -2.90775e-19)
(1.62215 -0.05167 3.43366e-20)
(1.62987 -1.04746 3.81678e-21)
(1.55548 -0.81113 -1.70761e-18)
(1.4487 -0.463618 0)
(1.48927 -0.202897 2.80066e-19)
(1.54852 -0.0668242 5.17607e-20)
(2.15627 -1.11531 -1.57922e-18)
(1.83421 -0.800813 -4.93241e-19)
(1.55922 -0.455062 -1.00249e-20)
(1.41127 -0.20213 6.47112e-20)
(1.36633 -0.0672618 -2.31159e-19)
(2.63261 -0.889807 -1.61209e-18)
(1.9 -0.591013 2.97642e-18)
(1.43282 -0.318725 6.26105e-21)
(1.1613 -0.14753 2.04836e-19)
(1.10061 -0.0486962 0)
(2.47858 -0.522841 -6.92728e-18)
(1.6055 -0.338906 -1.49197e-19)
(1.14909 -0.178478 1.98638e-18)
(0.894483 -0.088623 -3.22093e-19)
(0.813025 -0.031451 -4.12519e-20)
(1.76237 -0.219993 6.83553e-18)
(1.08875 -0.135708 1.2464e-18)
(0.751922 -0.0676886 2.24182e-19)
(0.572549 -0.035355 2.90304e-33)
(0.50211 -0.0139595 -7.70968e-20)
(0.683158 0.000163998 1.5522e-18)
(0.395269 0.0235484 7.12796e-19)
(0.267644 0.0240634 -5.17752e-19)
(0.205897 0.0146265 2.22766e-19)
(0.176219 0.0052733 -7.15212e-20)
(3.58188 -0.168159 1.25617e-17)
(3.41717 -0.502937 -1.04435e-17)
(3.13668 -0.786995 7.10864e-18)
(2.78061 -0.996095 2.32084e-18)
(2.33314 -1.10181 -4.14284e-19)
(3.78453 -0.103587 1.03947e-17)
(3.71747 -0.324459 -6.639e-19)
(3.57773 -0.551821 -4.26993e-18)
(3.37829 -0.785758 2.68986e-18)
(3.10032 -1.01978 -6.62792e-19)
(3.11484 -0.0605676 3.65446e-18)
(3.09866 -0.181683 -2.51881e-18)
(3.05962 -0.309665 5.01276e-18)
(2.99891 -0.444857 -1.52946e-19)
(2.92435 -0.593622 -4.79053e-18)
(2.19087 -0.0276237 2.78878e-18)
(2.18384 -0.083369 8.43041e-18)
(2.16463 -0.144004 -6.53262e-19)
(2.13408 -0.207279 -6.60868e-18)
(2.11307 -0.269436 1.94592e-18)
(0.87944 -0.00184243 5.21226e-18)
(0.87649 -0.00523894 -1.16439e-19)
(0.867372 -0.00956784 -4.25779e-20)
(0.850511 -0.0162541 -2.00942e-18)
(0.84116 -0.0229058 -3.60549e-18)
(1.65315 0.940099 2.27597e-18)
(1.3483 0.816717 -7.887e-20)
(1.00338 0.658652 -3.53467e-20)
(0.627866 0.449477 -1.96264e-19)
(0.225225 0.182293 -1.34076e-19)
(2.07051 0.892522 -1.21857e-18)
(1.71068 0.777737 -1.20335e-18)
(1.29832 0.632586 7.31881e-19)
(0.834039 0.438721 -4.84077e-19)
(0.312139 0.182086 -4.06978e-21)
(2.4186 0.735857 -5.89165e-19)
(2.01967 0.645357 5.25247e-19)
(1.555 0.528762 2.43653e-18)
(1.01754 0.370197 8.08302e-19)
(0.391337 0.155285 5.2606e-19)
(2.68202 0.486722 1.548e-20)
(2.25239 0.428295 -2.71604e-19)
(1.74743 0.352326 -6.46752e-19)
(1.15476 0.247646 2.0564e-18)
(0.450325 0.104145 -3.2683e-19)
(2.82547 0.173873 -1.17055e-18)
(2.37728 0.152649 -1.60649e-18)
(1.8494 0.125348 -7.2869e-19)
(1.22671 0.0878347 7.96276e-19)
(0.480856 0.0366869 -3.25829e-19)
(0.241123 0.417239 -2.14937e-18)
(0.17093 0.353701 -1.82275e-18)
(0.103426 0.277245 3.1696e-19)
(0.04576 0.183792 -4.74429e-20)
(-0.00161935 0.0676292 3.42154e-20)
(0.371141 0.5949 -8.01321e-19)
(0.2742 0.51046 -6.7236e-19)
(0.178845 0.399729 1.27107e-20)
(0.0926178 0.259727 -2.58009e-20)
(0.0168766 0.0965936 2.63461e-20)
(0.581681 0.754077 2.18503e-18)
(0.446217 0.650123 -1.51949e-19)
(0.307951 0.507492 -1.44883e-19)
(0.174412 0.328721 -2.15418e-19)
(0.0484196 0.124019 1.67335e-19)
(0.86205 0.875227 -1.29507e-18)
(0.679163 0.758587 1.9755e-18)
(0.485281 0.594272 3.02898e-19)
(0.28834 0.388472 1.02286e-19)
(0.0925455 0.149199 -1.18392e-19)
(1.20369 0.925296 -4.41214e-19)
(0.969111 0.811881 -4.57898e-19)
(0.708592 0.645119 3.59982e-19)
(0.433324 0.429184 3.59242e-19)
(0.148461 0.168536 1.89623e-21)
(0.938911 0.166503 -4.34943e-19)
(1.49393 0.133502 5.2074e-20)
(1.32987 0.195966 1.93661e-20)
(1.01363 0.499616 -5.03456e-19)
(0.599085 0.645662 5.6235e-20)
(0.944323 0.0882501 1.648e-19)
(1.50358 0.108504 2.98406e-19)
(1.35755 0.245201 2.67052e-19)
(1.06063 0.615221 -5.78333e-20)
(0.784769 0.803591 7.58043e-19)
(0.948352 0.0104591 5.66377e-20)
(1.51877 0.0845611 -2.08631e-20)
(1.35787 0.294918 -5.70835e-20)
(1.16532 0.713057 -4.25411e-19)
(1.03726 0.937947 1.0875e-19)
(0.949977 -0.0652882 -1.92706e-20)
(1.52467 0.0643092 -7.10828e-19)
(1.3619 0.34517 8.43548e-20)
(1.32666 0.780342 1.1997e-18)
(1.33494 1.04233 9.45804e-19)
(0.947512 -0.139055 -2.4974e-20)
(1.50767 0.0551067 2.07491e-19)
(1.38332 0.394526 -6.35523e-20)
(1.51041 0.82191 -3.82121e-19)
(1.63608 1.09222 -2.73302e-18)
(0.933506 -0.233578 2.38085e-19)
(1.46455 0.0220635 4.89856e-19)
(1.46253 0.391751 -3.36909e-20)
(1.76738 0.800639 3.09481e-18)
(2.15316 1.14348 -5.52022e-18)
(0.88493 -0.344807 -2.50972e-20)
(1.32798 -0.0286882 -6.45777e-19)
(1.40411 0.281753 7.11201e-21)
(1.84269 0.59515 -3.06818e-18)
(2.59439 0.900697 1.66961e-18)
(0.786524 -0.411889 5.52284e-18)
(1.08042 -0.0902307 6.86145e-35)
(1.13563 0.149999 -2.13109e-18)
(1.57645 0.34007 2.6358e-18)
(2.45664 0.529664 5.03197e-18)
(0.634455 -0.291735 1.50646e-19)
(0.71352 -0.0717817 5.27097e-19)
(0.732675 0.0519846 2.48268e-19)
(1.07543 0.135113 6.22928e-19)
(1.75836 0.220505 -8.64434e-18)
(0.322602 -0.0431501 -4.30721e-18)
(0.293776 0.00563181 2.83828e-19)
(0.26525 -0.0133018 1.1111e-18)
(0.393476 -0.0240304 -7.7043e-19)
(0.686183 -0.00045847 -1.46618e-18)
(2.34864 1.12123 4.69077e-18)
(2.7873 1.01258 3.47317e-18)
(3.14088 0.803395 -5.69207e-18)
(3.41899 0.519608 -1.46161e-17)
(3.5824 0.185882 1.57637e-17)
(3.07885 1.01885 5.00893e-18)
(3.35404 0.795227 2.56346e-17)
(3.55695 0.560668 7.24251e-18)
(3.7011 0.331823 -3.08288e-17)
(3.77793 0.111137 -5.17334e-18)
(2.90571 0.592007 -7.22837e-18)
(2.98597 0.448102 -3.3804e-18)
(3.05217 0.312111 -6.29728e-18)
(3.09524 0.181723 -6.88931e-18)
(3.114 0.0584266 6.52283e-18)
(2.10627 0.2659 5.41577e-18)
(2.13013 0.205746 -4.04611e-19)
(2.16254 0.143038 4.87125e-18)
(2.18312 0.0821327 6.28927e-18)
(2.19077 0.0259967 -5.88789e-18)
(0.842541 0.0220565 -5.74667e-19)
(0.851936 0.0156542 3.52108e-18)
(0.868636 0.00913169 2.44319e-18)
(0.877494 0.00479263 -5.16941e-18)
(0.879839 0.00136155 -3.84288e-20)
(0.281981 0.0207601 5.52135e-19)
(0.656774 0.0404729 -7.43603e-19)
(0.973272 0.0440736 -8.18485e-19)
(0.944441 0.0274359 -1.51803e-18)
(0.69795 0.0163885 -6.63737e-19)
(0.245619 0.055469 7.45763e-19)
(0.591358 0.107092 1.44152e-18)
(0.8648 0.125161 -6.97391e-19)
(0.940068 0.0970138 1.96083e-18)
(0.724274 0.0532499 -2.7009e-18)
(0.185651 0.0742765 4.96254e-19)
(0.476461 0.145918 -1.39888e-18)
(0.707868 0.184788 -9.13931e-19)
(0.85742 0.175439 -1.81026e-18)
(0.741655 0.101247 -2.86237e-18)
(0.123323 0.0774853 -7.7268e-19)
(0.344811 0.160377 -1.37665e-18)
(0.534605 0.214908 4.39917e-18)
(0.677809 0.233345 -3.66702e-19)
(0.713135 0.180053 2.25506e-18)
(0.0752819 0.0723751 -6.23002e-19)
(0.230739 0.16012 1.56428e-18)
(0.372319 0.224552 6.12328e-19)
(0.48287 0.257805 -1.29588e-18)
(0.561382 0.258499 -1.74892e-19)
(0.0451498 0.0637785 8.42062e-20)
(0.149957 0.148768 -1.22225e-18)
(0.247757 0.21216 -9.45596e-19)
(0.325471 0.234128 -8.6936e-20)
(0.371263 0.223882 -5.00122e-20)
(0.0264636 0.0556993 3.12174e-19)
(0.0950735 0.134304 5.94175e-19)
(0.160893 0.184861 -2.08833e-19)
(0.213776 0.195517 2.59727e-19)
(0.253629 0.185473 1.71512e-19)
(0.0133346 0.0488622 2.4991e-19)
(0.0586224 0.111485 1.31505e-18)
(0.103728 0.121316 -1.23875e-18)
(0.142712 0.107531 -2.78801e-18)
(0.178908 0.0861073 4.08347e-19)
(0.00618014 0.0393688 -2.37804e-19)
(0.0425747 0.0490547 -1.80909e-18)
(0.0798609 0.0220613 3.21911e-18)
(0.119918 -0.00970658 1.31477e-18)
(0.161415 -0.0434767 -2.69567e-19)
(0.00998021 0.00204031 2.09969e-19)
(0.0421358 -0.0498489 -4.52316e-19)
(0.0822277 -0.0960174 8.9953e-20)
(0.130918 -0.143975 1.0513e-19)
(0.181621 -0.190185 2.26215e-21)
(0.338697 0.0720531 -7.49844e-20)
(0.613229 -0.0421545 -1.22482e-18)
(0.702986 -0.0132691 2.54083e-19)
(0.714656 0.00644256 4.02274e-19)
(0.699039 0.00361912 1.23699e-20)
(0.302841 -0.0341191 -1.00137e-19)
(0.749762 -0.114708 1.46762e-18)
(0.886851 -0.0228481 9.1904e-19)
(0.913599 0.00982312 7.56194e-20)
(0.902667 0.00617523 -3.47842e-20)
(0.319642 -0.149498 -8.11198e-19)
(0.834512 -0.197946 3.15253e-18)
(1.04838 -0.0420135 -1.81369e-19)
(1.10036 0.0119495 -3.59329e-19)
(1.09452 0.00869062 7.10197e-20)
(0.375951 -0.28823 1.10604e-18)
(0.883965 -0.297461 -2.71365e-18)
(1.17101 -0.082614 -5.34437e-19)
(1.26643 0.00858149 -3.1962e-20)
(1.27154 0.00964417 1.52664e-21)
(0.462938 -0.436641 5.01043e-19)
(0.91941 -0.40485 -5.4799e-19)
(1.24946 -0.142438 4.80852e-19)
(1.40068 -0.00532908 1.17233e-19)
(1.4273 0.00785336 -2.25906e-21)
(0.182966 -0.0449843 9.54935e-19)
(0.144904 -0.00525168 0)
(0.162462 0.000977458 1.16372e-19)
(0.161857 -0.000419045 -6.38082e-21)
(0.155908 -0.000758849 -7.22989e-20)
(0.399685 0.070018 0)
(0.408343 -0.000444533 0)
(0.466248 -0.00408285 4.99976e-20)
(0.467261 0.00337856 -3.12224e-20)
(0.451655 0.00148725 4.57499e-20)
(0.162692 -0.000821296 -3.68472e-19)
(0.18641 -0.00179205 3.1077e-18)
(0.213221 -0.00502068 -6.86302e-19)
(0.229819 -0.0149891 -3.11704e-18)
(0.245713 -0.017012 -7.97031e-19)
(0.432046 0.00444144 6.09936e-19)
(0.484577 0.0196964 4.1156e-18)
(0.536472 0.046699 -6.73002e-18)
(0.567642 0.0806193 2.20944e-18)
(0.598331 0.162223 3.7977e-18)
(0.370732 -0.220653 -3.32709e-19)
(0.324362 -0.231636 -9.3047e-20)
(0.248393 -0.21268 -3.31297e-19)
(0.150769 -0.150743 3.88412e-19)
(0.0458685 -0.0645771 1.14049e-19)
(0.257507 -0.169717 4.22563e-19)
(0.21507 -0.1818 1.41399e-18)
(0.162386 -0.177132 2.58903e-19)
(0.0967161 -0.13511 2.36469e-19)
(0.0269082 -0.0571964 -1.86794e-20)
(0.193191 -0.0549095 -3.11414e-19)
(0.15162 -0.0774711 -1.05434e-19)
(0.108785 -0.0950285 1.63381e-18)
(0.062322 -0.097251 2.86022e-19)
(0.013248 -0.0480221 -3.13862e-19)
(0.178776 0.0868345 -6.36369e-19)
(0.132724 0.0529803 -7.06036e-19)
(0.0878107 0.0192656 1.31014e-18)
(0.0495103 -0.0108304 1.60173e-18)
(0.0112353 -0.0299097 1.99022e-19)
(0.18888 0.244204 1.23867e-19)
(0.134433 0.197903 -1.20191e-19)
(0.0819943 0.148094 2.48479e-19)
(0.038265 0.096991 6.23225e-19)
(-0.00225428 0.0356213 9.27258e-20)
(0.697947 -0.0163438 1.53158e-18)
(0.944447 -0.0274131 -1.80084e-18)
(0.97308 -0.0441997 2.27005e-18)
(0.656786 -0.0405354 3.64632e-19)
(0.282015 -0.0207688 5.36689e-19)
(0.724264 -0.053143 1.77264e-18)
(0.939926 -0.0970288 7.94685e-18)
(0.864598 -0.125266 1.03368e-18)
(0.59141 -0.107131 1.34952e-18)
(0.245715 -0.0554902 -4.78517e-19)
(0.741571 -0.101002 -1.22142e-18)
(0.856817 -0.175275 -2.29655e-18)
(0.70779 -0.18485 2.9245e-18)
(0.476529 -0.145987 -1.0827e-19)
(0.185774 -0.0743122 3.39518e-19)
(0.712607 -0.179875 1.73695e-20)
(0.67711 -0.233296 -7.68626e-18)
(0.534642 -0.21524 -5.99984e-18)
(0.344948 -0.160712 1.09167e-18)
(0.123506 -0.0775894 5.08044e-19)
(0.558979 -0.256992 4.67937e-19)
(0.481855 -0.257236 5.33513e-19)
(0.372393 -0.225279 -8.99597e-19)
(0.230996 -0.160993 -8.88337e-19)
(0.0756302 -0.072633 -5.14452e-21)
(0.727674 0.373139 1.17582e-18)
(0.880445 0.127773 -1.90927e-19)
(0.677013 0.0196257 2.51212e-19)
(0.644957 0.0360298 -7.53816e-19)
(0.362648 -0.0619062 -1.00747e-19)
(0.827511 0.398109 -1.70592e-19)
(1.08831 0.15787 -5.72125e-19)
(0.868589 0.0381295 8.36126e-19)
(0.804869 0.0990846 1.67728e-18)
(0.340502 0.0540263 1.03314e-19)
(0.892264 0.372742 -2.25517e-18)
(1.26815 0.172004 -3.75456e-20)
(1.03961 0.062305 2.51159e-19)
(0.908857 0.178385 1.70348e-18)
(0.364898 0.176615 -1.44296e-18)
(0.923787 0.317809 1.4981e-18)
(1.41073 0.174259 1.6017e-20)
(1.17721 0.0998424 -2.16167e-19)
(0.964489 0.276969 -7.60797e-19)
(0.41582 0.323324 -5.90614e-19)
(0.933588 0.244663 1.77904e-19)
(1.48606 0.157528 3.96617e-20)
(1.27195 0.146068 -8.19077e-20)
(0.992887 0.384824 -9.41588e-20)
(0.486042 0.480693 1.36247e-18)
(0.275669 0.0483701 0)
(0.244294 -0.0112591 6.49957e-19)
(0.157577 -0.0159232 1.27123e-19)
(0.150422 0.00553775 -1.09776e-19)
(0.18439 0.0441038 -1.80768e-18)
(0.573401 0.266349 -1.01982e-17)
(0.60939 0.0751864 -2.56423e-18)
(0.445069 0.0132145 5.00162e-19)
(0.423924 0.000410511 -6.55818e-19)
(0.407611 -0.0683317 -6.62016e-19)
(0.245847 0.016976 -9.08003e-22)
(0.229914 0.0150778 1.92877e-18)
(0.213298 0.0050643 5.24533e-19)
(0.18646 0.00180201 3.23015e-19)
(0.162708 0.000825161 0)
(0.599207 -0.162124 -1.15099e-19)
(0.568196 -0.0803303 2.54702e-18)
(0.536579 -0.046477 -1.37771e-19)
(0.484636 -0.0196435 -2.70529e-19)
(0.43207 -0.00441916 7.60512e-19)
)
;

boundaryField
{
    left
    {
        type            fixedValue;
        value           uniform (1 0 0);
    }
    right
    {
        type            zeroGradient;
    }
    down
    {
        type            noSlip;
    }
    up
    {
        type            noSlip;
    }
    cylinder
    {
        type            noSlip;
    }
    defaultFaces
    {
        type            empty;
    }
}


// ************************************************************************* //
