# Selection   : all
# Cells       : 1800
# Volume      : 7.372328e+01
# Time        	maxMag(U)
0.55          	3.135547e+00
0.575         	3.127341e+00
0.6           	3.119220e+00
