# Selection   : all
# Cells       : 440
# Volume      : 7.374263e+01
# Time        	min(p)
8.915         	-1.744420e+00
8.96          	-1.746968e+00
9.01          	-1.740067e+00
