/*--------------------------------*- C++ -*----------------------------------*\
  =========                 |
  \\      /  F ield         | OpenFOAM: The Open Source CFD Toolbox
   \\    /   O peration     | Website:  https://openfoam.org
    \\  /    A nd           | Version:  13
     \\/     M anipulation  |
\*---------------------------------------------------------------------------*/
FoamFile
{
    format      ascii;
    class       surfaceScalarField;
    location    "0.645";
    object      phi;
}
// * * * * * * * * * * * * * * * * * * * * * * * * * * * * * * * * * * * * * //

dimensions      [0 3 -1 0 0 0 0];

internalField   nonuniform List<scalar> 
823
(
0.0231386
-0.0385348
0.0153962
0.0683685
-0.189653
0.144423
0.113554
-0.27359
0.228404
0.151548
-0.302271
0.264278
-0.302688
0.268178
0.186058
0.0321141
-0.0706489
0.0815111
-0.23905
0.12478
-0.316859
0.160596
-0.338087
-0.337263
0.19517
0.0374809
-0.10813
0.0830506
-0.28462
0.116037
-0.349845
0.139166
-0.361216
-0.3536
0.155502
0.0390981
-0.147228
0.0767463
-0.322268
0.0995766
-0.372675
0.113734
-0.375373
-0.365915
0.126048
0.0336773
-0.180905
0.0570267
-0.345617
0.0652071
-0.380855
0.067756
-0.377922
0.0681614
-0.36632
-0.00717969
0.00536484
0.00181486
0.00618952
-0.0269279
0.0135587
0.0394867
-0.055797
0.0224999
0.0837806
-0.0709484
0.0266545
-0.0803019
0.135819
0.0282638
-0.00391252
0.00927735
0.0142761
-0.0451165
0.0513994
-0.0929203
0.0983841
-0.117933
-0.133022
0.151104
0.00164555
0.0076318
0.0274138
-0.0708847
0.0698915
-0.135398
0.120092
-0.168133
-0.184762
0.171832
0.00820093
-0.000569129
0.0421138
-0.104798
0.088701
-0.181985
0.13936
-0.218792
-0.230625
0.185223
0.014827
0.0544525
0.100871
0.146357
0.183909
0.329947
-0.405012
0.210883
0.385299
-0.196
0.140647
0.402355
-0.108464
0.0914079
0.404205
-0.0575606
0.0557101
-0.0156612
0.0209868
0.320069
-0.573977
0.380622
-0.256553
0.400376
-0.128217
0.404142
-0.0613265
-0.0123221
0.304143
-0.706288
0.370618
-0.323027
0.394623
-0.152223
0.40223
-0.068933
-0.0130242
0.286257
-0.807322
0.35507
-0.39184
0.384946
-0.182099
0.398423
-0.0824097
-0.0198012
0.271028
-0.89444
0.335605
-0.456418
0.371815
-0.218309
0.392726
-0.10332
-0.0345713
0.778118
-0.700364
-0.972195
0.683337
-0.361636
0.645682
-0.180654
0.631493
-0.0891313
-0.0303569
0.793957
-0.486981
-1.00734
0.697218
-0.264897
0.656193
-0.139628
0.637937
-0.0708757
-0.0243217
0.813681
-0.298915
-1.00175
0.716411
-0.167628
0.667351
-0.0905678
0.64374
-0.047265
-0.0164036
0.817968
-0.118474
-0.998409
0.720394
-0.0700545
0.669597
-0.0397705
0.644015
-0.0216833
-0.00761705
0.697151
-0.815625
0.627096
0.587326
0.565642
0.94853
0.0469376
-0.927306
0.955344
0.119235
0.980136
0.130711
0.968114
0.207192
0.181977
0.881465
0.0276515
-0.862179
0.909993
0.0907067
0.93954
0.101163
0.982085
0.164647
0.156723
0.838897
0.013403
-0.824649
0.871909
0.0576952
0.904123
0.0689489
0.956674
0.112096
0.11165
0.805476
0.000451513
-0.792525
0.841813
0.0213591
0.880803
0.0299584
0.94126
0.0516397
0.0545009
0.658167
-0.657715
0.679526
0.709484
0.761124
0.131448
0.271625
-0.225521
-0.177552
0.0899536
0.28075
-0.239255
0.052061
0.293067
-0.255174
0.018482
0.290635
-0.257056
0.193427
-0.174945
0.122701
0.309995
-0.161071
0.08449
0.318962
0.0479311
0.329626
0.0163295
0.322237
0.209757
0.0875699
0.338689
-0.116264
0.0572483
0.349283
0.0276567
0.359217
0.00453173
0.345362
0.214289
0.0360734
0.357642
-0.0550269
0.0160974
0.369259
-0.00137561
0.37669
-0.00972559
0.353712
0.204563
-0.0189251
0.0102476
-0.0275874
-0.0317522
-0.0236578
0.190623
0.0778037
-0.237622
-0.030805
0.141591
0.0811451
-0.0321127
0.0900054
0.0853304
-0.0337451
0.0374414
0.0871959
-0.034632
0.0635132
-0.0260718
0.183889
0.1239
-0.229986
0.13636
0.128674
0.086244
0.135446
0.0357404
0.137699
0.0992536
0.158301
0.166473
-0.200874
0.115653
0.171322
0.0718512
0.179248
0.0285488
0.181002
0.127802
0.156208
0.201867
-0.191602
0.116591
0.210939
0.0727717
0.223067
0.0290089
0.224765
0.156811
0.110849
-0.134503
0.0825324
0.0504255
0.0181341
0.409031
0.026666
-0.0397177
0.411392
0.06937
-0.0717302
0.401811
0.113744
-0.104164
0.355415
0.177683
-0.131288
0.329521
-0.211728
0.406345
0.0163006
0.406875
0.0688398
0.394519
0.1261
0.351372
0.22083
0.450908
0.401274
0.0110065
0.397983
0.0721303
0.380813
0.14327
0.342136
0.259507
0.59217
0.394001
0.0129854
0.38472
0.0814114
0.363632
0.164358
0.329051
0.294088
0.729619
0.384941
0.0240244
0.367607
0.0987451
0.339404
0.192561
0.296797
0.336695
0.891913
0.612246
0.0157989
0.626012
0.0849793
0.651083
0.167489
0.700349
0.28743
0.711525
0.880737
0.616321
0.00349804
0.637338
0.0639627
0.672449
0.132378
0.737971
0.221907
0.527278
0.922219
0.620237
-0.0127188
0.646994
0.0372056
0.688652
0.0907206
0.762648
0.147911
0.340095
0.949831
0.621536
-0.0302344
0.65171
0.00703167
0.69785
0.0445804
0.775166
0.0705945
0.161102
0.954159
0.573786
0.580818
0.625398
0.695993
0.857094
0.912832
-0.209647
0.913711
-0.16195
0.91148
-0.114033
0.916228
-0.0597744
-0.000831226
0.896384
-0.183812
0.874696
-0.140262
0.857806
-0.0971437
0.855088
-0.0570563
-0.00792178
0.895849
-0.12983
0.858525
-0.102938
0.833594
-0.0722124
0.821399
-0.0448611
-0.0111715
0.888443
-0.064114
0.839608
-0.0541032
0.808182
-0.0407862
0.791494
-0.0281734
-0.0122023
0.79298
0.738877
0.698091
0.669917
0.0487057
0.216587
-0.265292
0.0628742
0.418667
-0.432836
0.055167
0.459488
-0.451781
0.0429618
0.453453
-0.441247
0.414358
0.0352968
-0.406693
0.0874359
0.129151
0.146988
0.359116
0.170628
0.435848
0.175107
0.448974
0.429409
0.160056
0.0911065
0.0380444
0.196155
0.254067
0.262473
0.36953
0.30431
0.407137
0.426567
0.307152
0.0591407
-0.0210963
0.170113
0.143095
0.268157
0.271487
0.345643
0.32965
0.359659
0.412551
0.0229472
-0.0440435
0.0968131
0.0692287
0.18663
0.18167
0.267907
0.248373
0.275633
0.351933
-0.00117892
-0.0428646
0.0340767
0.0339731
0.096619
0.119128
0.170961
0.174031
0.205636
0.240958
-0.0101302
-0.0327344
0.00624281
0.0176001
0.0503073
0.0750631
0.112244
0.112095
0.138935
0.178945
-0.0114373
-0.0212971
-0.000903658
0.00706643
0.0337851
0.0403744
0.0843849
0.0614947
0.0786606
0.14466
-0.0104711
-0.0108259
-0.000628926
-0.00277577
0.0307653
0.00898018
0.0755504
0.0167096
0.023973
0.130238
-0.00901107
0.00177182
0.0332519
0.076616
0.128853
0.283043
0.462107
-0.504192
0.327818
0.0832248
-0.128
0.356711
-0.014543
-0.0143493
0.377585
-0.0305909
0.00971683
-0.0210063
0.00568352
0.292002
0.349049
0.351575
0.0236519
0.374357
-0.0373248
0.386653
-0.0428872
-0.0281834
0.308476
0.185233
0.365776
-0.0336482
0.386232
-0.0577809
0.393578
-0.0502331
-0.0292842
0.323822
-0.00835059
0.377848
-0.0876745
0.395223
-0.0751566
0.398875
-0.0538844
-0.0262152
0.331386
0.384359
0.40061
0.402435
0.388218
0.0965789
-0.484797
0.398639
-0.0104213
0.408917
-0.0102776
0.416714
-0.00779731
-0.00301387
0.660735
-1.06835
0.522314
0.497687
0.499607
0.0957108
-0.00444096
-0.0912699
0.139426
-0.0437153
0.220747
-0.0813206
0.363168
-0.142422
-0.121628
0.225743
-0.194887
0.342083
0.567915
0.838044
0.131299
-0.150151
0.180637
-0.161786
0.0998019
-0.159483
0.190979
0.064304
-0.171593
0.207091
0.0258853
-0.175846
0.214265
-0.125245
0.151131
0.191111
-0.111717
-0.229545
0.14662
-0.114992
0.0949673
-0.11994
0.0402769
-0.121156
-0.0849684
0.180441
-0.063422
-0.228736
0.132282
-0.0668329
0.0832222
-0.0708804
0.0343622
-0.072296
-0.0506062
0.193127
-0.0163617
-0.240187
0.143804
-0.0175101
0.0916042
-0.0186809
0.0383159
-0.0190077
-0.0122903
0.194051
-0.241217
0.144428
0.0920018
0.038362
0.0732612
-0.384054
-0.0959003
0.0410722
-0.409058
0.00957063
-0.42028
-0.011247
-0.412018
-0.276539
0.162692
-0.34112
-0.205626
0.11071
-0.357076
0.0593261
-0.368896
0.0169221
-0.369614
-0.259617
0.193827
-0.291527
-0.243419
0.139834
-0.303084
0.0853092
-0.314371
0.03377
-0.318075
-0.225847
0.206627
-0.242132
-0.256023
0.151681
-0.248137
0.0961252
-0.258815
0.0411154
-0.263065
-0.184732
0.191283
-0.252778
0.134126
0.0824014
0.0336013
0.385731
0.068433
-0.0581846
0.366022
0.060526
-0.0408169
0.33599
0.0399202
-0.00988789
0.308676
-0.0151356
0.0424497
-0.239351
0.386241
0.394761
0.069652
0.384609
0.0706776
0.361427
0.0631021
0.336461
0.0098301
-0.132434
0.401912
0.0637197
0.398207
0.0743823
0.379548
0.081761
0.346011
0.0433673
-0.0151587
0.406779
0.05292
0.407127
0.0740348
0.394366
0.094522
0.352655
0.085078
0.0973097
0.409182
0.411486
0.401845
0.355635
0.452928
0.0571233
0.421356
0.0315719
0.418005
0.00335095
0.446002
-0.0279975
-0.187941
0.633943
0.50899
0.499745
0.493208
0.50766
0.70596
0.499903
0.13404
0.381478
0.118425
0.252065
0.129413
0.141616
0.110449
0.0503459
0.587222
0.449624
0.335618
0.240441
)
;

boundaryField
{
    left
    {
        type            calculated;
        value           nonuniform List<scalar> 
17
(
-0.60402
-0.60402
-0.60402
-0.60402
-0.60402
-0.39598
-0.39598
-0.39598
-0.39598
-0.39598
-0.39598
-0.39598
-0.39598
-0.39598
-0.39598
-0.510051
-0.510051
)
;
    }
    right
    {
        type            calculated;
        value           nonuniform List<scalar> 
17
(
0.419728
0.502277
0.392907
0.39383
0.394679
0.395806
0.397207
0.39888
0.400803
0.402932
0.4052
0.407496
0.627278
0.631902
0.635822
0.635229
0.558025
)
;
    }
    down
    {
        type            calculated;
        value           uniform 0;
    }
    up
    {
        type            calculated;
        value           uniform 0;
    }
    cylinder
    {
        type            calculated;
        value           uniform 0;
    }
    defaultFaces
    {
        type            empty;
    }
}


// ************************************************************************* //
