# Selection   : all
# Cells       : 440
# Volume      : 7.374263e+01
# Time        	min(p)
8.815         	-1.703360e+00
8.86          	-1.728148e+00
8.91          	-1.743728e+00
