/*--------------------------------*- C++ -*----------------------------------*\
  =========                 |
  \\      /  F ield         | OpenFOAM: The Open Source CFD Toolbox
   \\    /   O peration     | Website:  https://openfoam.org
    \\  /    A nd           | Version:  13
     \\/     M anipulation  |
\*---------------------------------------------------------------------------*/
FoamFile
{
    format      ascii;
    class       volScalarField;
    object      p;
}
// * * * * * * * * * * * * * * * * * * * * * * * * * * * * * * * * * * * * * //

dimensions      [0 2 -2 0 0 0 0];

internalField   nonuniform List<scalar>
440
(
-922.058254747
-918.667165859
-912.418136787
-905.355998452
-900.55864439
-983.188408337
-979.59075112
-973.620386111
-967.256574571
-962.593191527
-1046.09525503
-1043.10258758
-1038.34053022
-1033.5642699
-1030.05128966
-1110.84246964
-1108.96825052
-1105.98441336
-1103.11278988
-1101.09862278
-1176.84603742
-1176.38716396
-1175.4579479
-1174.55086933
-1173.91686034
-708.772789974
-704.912607239
-700.255532174
-694.962373168
-687.689131436
-733.83376926
-729.472159798
-723.383247363
-716.825704496
-709.278403367
-768.516827094
-765.524738282
-759.177426011
-751.688443743
-743.732924252
-811.368865947
-809.13811156
-803.278589257
-795.776405993
-787.673571398
-862.628542489
-859.995788376
-854.107569845
-846.587376774
-838.718992598
-640.175804522
-510.656083685
-369.872306774
-223.855330616
-74.9645090445
-654.256948613
-520.369798818
-376.011647665
-227.152500839
-75.9167207075
-676.859026457
-535.981845185
-385.983128391
-232.583260385
-77.5396385129
-707.583926627
-557.331449662
-399.795316779
-240.046570047
-79.8021878668
-745.688631389
-583.883647942
-417.054139477
-249.46700209
-82.6693912509
-783.037573529
-606.424538879
-430.12296966
-256.491771655
-85.2458903945
-802.336905939
-614.83896419
-434.08572458
-258.459411676
-86.0675752862
-814.414096542
-620.537105118
-436.787682372
-259.852302634
-86.6839928052
-823.620269737
-626.329787315
-438.741047091
-260.633260529
-87.0431685122
-829.455474122
-629.601451739
-438.834110823
-260.53575806
-87.136099692
-1175.16066893
-1105.17472336
-1036.85778049
-972.905020315
-917.597190427
-1177.83923195
-1113.6604051
-1051.21949323
-991.889778849
-937.36287017
-1179.28009525
-1118.93364447
-1059.95254224
-1002.98111752
-948.348222882
-1180.72795804
-1123.27212744
-1066.5640992
-1010.79276378
-956.000857249
-1182.30950865
-1127.90937504
-1073.61350916
-1019.27990524
-964.43213409
-1519.99856838
-1515.69101608
-1509.0240866
-1502.76797462
-1498.94854754
-1458.01103089
-1453.63148454
-1447.36809329
-1441.22437538
-1437.14265825
-1390.82674566
-1387.42746158
-1382.59127444
-1377.57562318
-1374.04906432
-1319.91946538
-1317.94979468
-1314.98282923
-1311.69878527
-1309.25195131
-1247.14853004
-1246.50775563
-1245.49047515
-1244.27112762
-1243.22747388
-1729.67875617
-1722.11458339
-1716.60983919
-1712.08851492
-1708.49336339
-1709.22547295
-1701.59606759
-1695.40802955
-1690.15163441
-1686.64333531
-1676.22347258
-1668.52650198
-1661.91666124
-1656.59505589
-1653.95401057
-1633.24328273
-1625.58333673
-1618.95028949
-1613.71371918
-1611.30250077
-1582.41399437
-1575.0236402
-1568.09951721
-1562.45044021
-1559.45852588
-2377.71421116
-2197.57230584
-2049.33919095
-1908.09509411
-1777.85455105
-2375.56557403
-2193.78027875
-2043.47958588
-1898.67426913
-1764.32525839
-2373.30695864
-2187.8745637
-2033.8640974
-1883.45282837
-1742.28334964
-2370.9098564
-2179.99004117
-2020.49151768
-1862.50451339
-1711.94713363
-2368.22541432
-2170.36377708
-2003.65703552
-1836.3272063
-1674.10124865
-2365.04923346
-2163.88163786
-1990.68596306
-1814.10970612
-1636.70185873
-2363.44201231
-2162.31954059
-1985.83869528
-1804.7285855
-1617.0211934
-2360.82125936
-2160.75254067
-1982.69960156
-1798.38101386
-1604.4315855
-2356.29539911
-2158.44671569
-1981.00028321
-1792.75367736
-1594.69550723
-2351.72883725
-2155.93105191
-1981.07819227
-1789.76731657
-1588.73200981
-1502.83959865
-1447.4258175
-1383.67543572
-1315.50499639
-1245.57031616
-1482.66013011
-1428.17923287
-1368.91118605
-1306.57674015
-1242.55496731
-1471.20159969
-1416.61724971
-1359.58105449
-1300.50585196
-1240.08118928
-1462.7029813
-1408.08519095
-1352.42325136
-1295.82153535
-1238.42097688
-1454.12567514
-1399.45945174
-1345.26354884
-1291.07214988
-1236.73646604
-1157.69249244
-1158.4701261
-1157.72112711
-1156.32673002
-1154.18048588
-1066.64091041
-1068.08268128
-1066.13333124
-1062.10306438
-1057.30787441
-983.738267141
-985.754179293
-983.409050004
-978.074011953
-972.41604895
-909.134329903
-910.477959599
-906.942274745
-900.202851246
-893.098672534
-847.389156568
-846.780301438
-842.595384275
-835.490329052
-827.890937686
-794.83443189
-792.398366019
-788.363791297
-783.203258874
-776.940273102
-752.631728884
-749.77006135
-745.91306273
-741.198682823
-734.853650272
-722.710930915
-720.293613765
-716.862502875
-711.929028786
-704.780797139
-705.59354992
-703.214694079
-699.992521994
-694.762533189
-687.091263409
-700.594630855
-697.050003062
-693.270863253
-688.248088067
-680.765134314
-689.340023194
-542.855121715
-394.22813447
-239.550849104
-80.1441460383
-664.005547909
-526.331845611
-382.573859776
-232.60158005
-77.9484439696
-646.233552576
-514.618797895
-373.933530949
-227.320762207
-76.2578682856
-636.443216619
-508.08195286
-368.803526859
-223.974369954
-75.1517099785
-634.382240689
-506.691099778
-367.456157364
-222.787980052
-74.7062372949
-719.355457301
-554.87680569
-400.394156251
-242.872229722
-81.453802826
-711.113442095
-553.702982358
-401.000838934
-243.638031483
-81.8017355295
-1158.41730262
-1064.99716275
-981.476514191
-911.157350075
-851.534606451
-1154.54482893
-1057.64986697
-972.924528324
-898.036411306
-835.28522633
-1640.8080821
-1634.42609229
-1629.01530898
-1624.65749536
-1621.91386901
-1683.3367931
-1676.86333254
-1671.90214667
-1667.72783798
-1664.59606839
-1713.35727977
-1706.09859131
-1700.924804
-1697.08888386
-1694.07569963
-1730.85271244
-1723.15014281
-1717.88792275
-1714.41884158
-1711.85220356
-1736.71819109
-1729.07554558
-1723.9197916
-1720.2353499
-1717.28869028
-1259.64608998
-1257.17795599
-1255.33708137
-1253.84459163
-1253.54619681
-1356.9261205
-1351.82349091
-1347.37458167
-1344.79527509
-1345.3231792
-1442.71931441
-1436.74305458
-1430.99758108
-1428.12616491
-1429.40315813
-1523.11459985
-1515.72337613
-1508.60754421
-1504.6125271
-1505.37327928
-1589.17910313
-1581.38704775
-1573.96415657
-1569.38994978
-1568.35269937
-2378.20184477
-2182.11457674
-2025.04294471
-1875.87594631
-1729.23652111
-2380.9488832
-2189.99721775
-2036.5853587
-1892.51870653
-1754.8377207
-2381.74847517
-2195.48192018
-2045.09003279
-1904.31269843
-1772.26971809
-2381.14214234
-2198.49885534
-2050.08250718
-1910.7553155
-1781.59713772
-2379.65442329
-2199.16970266
-2051.50539661
-1912.00242682
-1783.42926105
-2371.36762128
-2176.62246846
-2019.23126343
-1864.15301512
-1698.80532465
-2373.8253658
-2176.76754164
-2018.60626327
-1865.06875655
-1707.2628613
-1565.2331984
-1505.12857198
-1433.93519314
-1349.49520802
-1255.56178391
-1581.69884349
-1518.28254051
-1442.44089095
-1356.80009073
-1259.39710203
)
;

boundaryField
{
    left
    {
        type            zeroGradient;
    }

    right
    {
        type            fixedValue;
        value           uniform 0;
    }

    down
    {
        type            zeroGradient;
    }

    up
    {
        type            zeroGradient;
    }

    cylinder
    {
        type            zeroGradient;
    }

    defaultFaces
    {
        type            empty;
    }
}

// ************************************************************************* //
