/*--------------------------------*- C++ -*----------------------------------*\
  =========                 |
  \\      /  F ield         | OpenFOAM: The Open Source CFD Toolbox
   \\    /   O peration     | Website:  https://openfoam.org
    \\  /    A nd           | Version:  13
     \\/     M anipulation  |
\*---------------------------------------------------------------------------*/
FoamFile
{
    format      ascii;
    class       surfaceScalarField;
    location    "3.25";
    object      phi;
}
// * * * * * * * * * * * * * * * * * * * * * * * * * * * * * * * * * * * * * //

dimensions      [0 3 -1 0 0 0 0];

internalField   nonuniform List<scalar> 
3485
(
-0.00191327
0.00394827
-0.00203499
-0.00436916
0.00760077
-0.00514488
-0.00509389
0.00814097
-0.00741624
-0.00237388
0.00587762
-0.00859762
0.00520796
0.000732686
-0.00831453
0.0186973
-0.00723363
-0.00625573
0.0389488
-0.0180846
-0.00216684
0.0666526
-0.0314343
0.00373046
0.102107
-0.0466601
0.0112061
-0.0540125
0.0156493
0.14047
-0.000827991
0.00477626
-0.000916722
0.0076895
0.00176415
0.0054601
0.00898591
-0.00134414
0.0221193
-0.0124007
0.0421168
-0.0272312
0.0690234
-0.0449912
0.102156
-0.0645666
0.140266
-0.0847706
-0.100237
0.186491
0.00034814
0.00442812
0.00318457
0.00485306
0.0103733
-0.00172868
0.023576
-0.0145468
0.0437657
-0.0325903
0.0708819
-0.0543474
0.103713
-0.0778224
0.140109
-0.100962
0.17758
-0.122242
-0.139872
0.217215
0.00120535
0.00322277
0.00680566
-0.000747248
0.0186669
-0.0135899
0.0379183
-0.0337982
0.0644016
-0.0590736
0.096414
-0.0863599
0.131201
-0.11261
0.165778
-0.135539
0.197479
-0.153942
-0.167537
0.225143
0.00219219
0.00103057
0.0108061
-0.00936117
0.0273846
-0.0301684
0.0518901
-0.0583037
0.0822337
-0.0894172
0.114939
-0.119065
0.146408
-0.14408
0.173931
-0.163061
0.196061
-0.176073
-0.184434
0.212959
0.00341387
-0.0023833
0.0152272
-0.0211745
0.0359181
-0.0508593
0.0634205
-0.0858062
0.0936723
-0.119669
0.122455
-0.147848
0.146865
-0.16849
0.165758
-0.181954
0.179495
-0.189809
-0.193833
0.188893
0.00475446
-0.00713776
0.0194484
-0.0358684
0.0425931
-0.074004
0.0698954
-0.113108
0.0964023
-0.146176
0.118717
-0.170163
0.135628
-0.1854
0.147595
-0.193922
0.155789
-0.198003
-0.19957
0.161526
0.00601244
-0.0131502
0.0226145
-0.0524705
0.0458947
-0.0972841
0.0701674
-0.137381
0.091092
-0.167101
0.106889
-0.18596
0.117794
-0.196305
0.124952
-0.20108
0.129616
-0.202667
-0.202538
0.132585
0.00696063
-0.0201108
0.0240806
-0.0695905
0.04537
-0.118574
0.0651228
-0.157134
0.0803922
-0.18237
0.0908002
-0.196368
0.0973129
-0.202817
0.101206
-0.204973
0.103486
-0.204947
-0.203821
0.104768
0.00743971
-0.0275505
0.0236653
-0.0858161
0.0416308
-0.136539
0.0565542
-0.172057
0.0668599
-0.192676
0.0730266
-0.202535
0.0762641
-0.206055
0.077707
-0.206416
0.078113
-0.205353
0.0778093
-0.203517
-0.00383337
0.0197529
-0.0159195
-0.0128025
0.0416577
-0.0326886
-0.0247063
0.0516618
-0.0397581
-0.0380518
0.0550643
-0.0417188
-0.0520211
0.0555171
-0.0415478
-0.066239
0.0548626
-0.0406447
-0.0805293
0.0537484
-0.0394582
-0.0947713
0.0523069
-0.038065
-0.108856
0.0505544
-0.03647
0.048848
-0.122735
-0.0349691
-0.00108093
0.0208338
-0.00565327
0.0462301
-0.0132552
0.0592638
-0.0227289
0.064538
-0.0330676
0.0658558
-0.0436544
0.0654494
-0.0541733
0.0642673
-0.0644462
0.0625799
-0.074325
0.0604331
0.0581255
-0.0836024
0.00191894
0.0189149
0.0029231
0.0452259
0.00123385
0.0609531
-0.0027987
0.0685705
-0.00817373
0.0712308
-0.0140352
0.0713109
-0.0198687
0.0701008
-0.0254148
0.068126
-0.0305093
0.0655276
0.0624853
-0.0348691
0.00422509
0.0146898
0.0105905
0.0388605
0.0155046
0.056039
0.0179493
0.0661258
0.0183833
0.0707968
0.0177069
0.0719873
0.016678
0.0711297
0.0157664
0.0690376
0.0152231
0.0660709
0.062389
0.0153194
0.00520513
0.00948465
0.0153076
0.0287581
0.0261334
0.0452132
0.0354136
0.0568456
0.0425675
0.063643
0.0479955
0.0665593
0.0524224
0.0667027
0.0565116
0.0649483
0.0607213
0.0618612
0.0574763
0.065634
0.0047386
0.00474606
0.0156655
0.0178311
0.0295699
0.0313087
0.0438833
0.0425322
0.0571537
0.0503726
0.0689208
0.0547922
0.0793406
0.0562829
0.088823
0.0554659
0.0977431
0.0529411
0.0485925
0.106627
0.00331684
0.00142922
0.0122043
0.00894368
0.0251047
0.0184083
0.0401853
0.0274516
0.055933
0.034625
0.0713964
0.0393289
0.0861372
0.0415421
0.100055
0.0415479
0.113189
0.0398071
0.0358341
0.125948
0.00156397
-0.000134746
0.00678892
0.00371873
0.0155425
0.00965476
0.0271203
0.0158738
0.0405798
0.0211654
0.0550554
0.0248533
0.0698872
0.0267102
0.0846368
0.0267982
0.0991746
0.0252694
0.0210267
0.113982
-0.00030324
0.000168495
0.000677625
0.00273786
0.00394147
0.00639092
0.00973691
0.0100783
0.0178866
0.0130157
0.0280573
0.0146827
0.0399126
0.0148549
0.0532166
0.0134942
0.0680056
0.0104803
0.00456975
0.0844625
-0.0018665
-0.00427351
-0.00529884
-0.00381814
0.000883027
0.00930995
0.0219981
0.0392227
0.0609091
0.0811282
-0.188001
0.296534
-0.231268
-0.138372
-0.0143264
-0.0353025
-0.0255581
-0.271068
0.158253
0.0643717
-0.360242
0.270313
0.122396
-0.380545
0.322521
0.158882
-0.311745
0.275259
0.182412
-0.244868
0.221337
0.196868
-0.172943
0.158487
0.206456
-0.134029
0.124441
-0.0835591
0.07917
-0.129424
0.342356
-0.0863972
-0.0573536
0.00643543
-0.3639
0.0881269
-0.441934
0.140441
-0.432859
0.172221
-0.343525
0.191369
-0.264015
0.202591
-0.184164
0.209917
-0.141355
-0.0869085
-0.0624721
0.369959
-0.0250311
-0.0947946
0.0467608
-0.435692
0.115343
-0.510516
0.159774
-0.47729
0.186377
-0.370128
0.20114
-0.278778
0.209008
-0.192033
0.213835
-0.146182
-0.0891164
0.00337829
0.3819
0.0337799
-0.125196
0.0893005
-0.491213
0.143894
-0.56511
0.178923
-0.512319
0.199867
-0.391072
0.210639
-0.28955
0.21554
-0.196934
0.217974
-0.148616
-0.0902033
0.0643334
0.383201
0.0866441
-0.147507
0.129804
-0.534372
0.171647
-0.606953
0.19716
-0.537832
0.212027
-0.40594
0.219076
-0.296599
0.221571
-0.199428
0.222005
-0.14905
-0.0903355
0.115694
0.374134
0.132881
-0.164694
0.165425
-0.566917
0.196298
-0.637826
0.213575
-0.555108
0.222653
-0.415019
0.226146
-0.300091
0.226679
-0.199961
0.225613
-0.147983
-0.0897872
0.154012
0.346069
0.171065
-0.181746
0.19496
-0.590813
0.216519
-0.659384
0.227319
-0.565908
0.231618
-0.419318
0.23187
-0.300343
0.230718
-0.198809
0.228586
-0.145852
-0.0888723
0.175158
0.284894
0.200848
-0.207436
0.218012
-0.607976
0.231833
-0.673205
0.237945
-0.572021
0.238819
-0.420192
0.236402
-0.297926
0.233757
-0.196164
0.230852
-0.142946
-0.0878759
0.183199
0.186157
0.22306
-0.247298
0.234529
-0.619444
0.242095
-0.680772
0.245274
-0.575199
0.244158
-0.419076
0.239868
-0.293636
0.235973
-0.19227
0.232458
-0.139431
-0.0870164
0.189751
0.0775345
0.23771
-0.295257
0.244129
-0.625864
0.24822
-0.684863
0.249735
-0.576714
0.247732
-0.417073
0.242364
-0.288267
0.237544
-0.18745
0.233534
-0.135422
-0.0864448
0.551862
-0.0196337
-0.454694
0.645882
-0.389277
0.641374
-0.621355
0.590888
-0.634377
0.528612
-0.514439
0.47296
-0.361422
0.427162
-0.242469
0.394352
-0.15464
0.370447
-0.111517
-0.07349
0.73866
-0.0852017
-0.673092
0.741887
-0.392504
0.679821
-0.559289
0.601379
-0.555935
0.532348
-0.445408
0.476611
-0.305685
0.43159
-0.197448
0.398343
-0.121392
0.373022
-0.0861959
-0.0591791
0.778853
-0.125129
-0.738926
0.736036
-0.349686
0.669261
-0.492515
0.608084
-0.494758
0.549728
-0.387052
0.493184
-0.249141
0.443295
-0.147559
0.405569
-0.0836662
0.376784
-0.0574106
-0.0429399
0.764382
-0.146371
-0.74314
0.728367
-0.313672
0.676202
-0.440349
0.615949
-0.434505
0.550269
-0.321372
0.487794
-0.186665
0.436396
-0.0961617
0.400069
-0.0473388
0.373406
-0.0307479
-0.0275309
0.745424
-0.159284
-0.732511
0.718492
-0.286741
0.669418
-0.391274
0.608168
-0.373255
0.542224
-0.255428
0.480548
-0.124989
0.429954
-0.0455668
0.394451
-0.0118367
0.368968
-0.00526447
-0.0128269
0.728565
-0.166243
-0.721606
0.705955
-0.26413
0.653658
-0.338978
0.582158
-0.301756
0.508754
-0.182024
0.448519
-0.0647538
0.404423
-0.00147098
0.375702
0.0168836
0.356071
0.014367
-0.00109405
0.707559
-0.163425
-0.710377
0.674794
-0.231365
0.602054
-0.266237
0.513044
-0.212746
0.436481
-0.105461
0.385964
-0.014237
0.356128
0.0283649
0.340081
0.0329311
0.330285
0.0241623
0.00575105
0.649537
-0.136323
-0.676639
0.584643
-0.166472
0.480915
-0.162509
0.378745
-0.110576
0.312319
-0.0390343
0.284034
0.0140476
0.277532
0.034867
0.27889
0.031573
0.281216
0.0218362
0.00679764
0.48149
-0.0711678
-0.546646
0.379734
-0.0647159
0.265449
-0.0482244
0.182247
-0.027373
0.148371
-0.00515896
0.150622
0.0117971
0.167129
0.0183594
0.183058
0.0156441
0.194361
0.0105333
0.00353775
0.152914
-0.224081
0.0881977
0.0399732
0.0126003
0.00744131
0.0192384
0.0375978
0.0532419
0.0637752
0.557254
0.0663618
-0.545807
0.569279
0.0927436
0.584591
0.117273
0.600734
0.145384
0.61772
0.171907
0.633573
0.197106
0.634151
0.224565
0.616933
0.234434
0.544652
0.258771
0.230428
0.537226
0.0548342
-0.525699
0.550985
0.0789853
0.567253
0.101004
0.588356
0.12428
0.609576
0.150687
0.636912
0.169771
0.658899
0.202578
0.680118
0.213215
0.688552
0.250337
0.245888
0.522946
0.0448937
-0.513005
0.536908
0.0650229
0.552483
0.0854296
0.57295
0.103813
0.595075
0.128562
0.621267
0.143578
0.650935
0.17291
0.680104
0.184046
0.715578
0.214863
0.22254
0.512371
0.0356888
-0.503166
0.52566
0.0517343
0.541122
0.0699675
0.559957
0.084978
0.582641
0.105878
0.607016
0.119203
0.638125
0.141801
0.668537
0.153634
0.707645
0.175755
0.187045
0.503196
0.02652
-0.494027
0.5157
0.0392298
0.531299
0.0543691
0.549415
0.0668621
0.572089
0.0832041
0.596247
0.0950449
0.626453
0.111595
0.657335
0.122752
0.694696
0.138393
0.149231
0.494586
0.0173408
-0.485407
0.506665
0.0271512
0.52224
0.0387932
0.540349
0.048753
0.562735
0.0608189
0.58726
0.07052
0.616558
0.0822967
0.647772
0.0915383
0.683697
0.102468
0.111321
0.483981
0.00847898
-0.475119
0.495729
0.0154039
0.510991
0.0235306
0.529144
0.0305999
0.551182
0.0387814
0.576026
0.0456755
0.604906
0.0534167
0.636513
0.0599313
0.672168
0.0668134
0.0731126
0.459881
0.000961959
-0.452364
0.47029
0.00499403
0.484198
0.00962317
0.501207
0.0135911
0.521896
0.0180916
0.545768
0.0218039
0.573392
0.0257925
0.604215
0.0291082
0.638818
0.0322104
0.0352923
0.387668
-0.00253443
-0.384171
0.39374
-0.00107794
0.402906
0.000457191
0.414717
0.00178016
0.429642
0.00316649
0.447257
0.00418909
0.46787
0.00517954
0.49121
0.00576781
0.517219
0.00620177
0.00586527
0.192552
-0.195086
0.191474
0.191931
0.193711
0.196878
0.201067
0.206247
0.212014
0.218216
0.0727498
0.14966
-0.137837
-0.0845725
0.0619058
0.151834
-0.14099
0.0519172
0.154458
-0.14447
0.0422413
0.157983
-0.148307
0.0326205
0.161747
-0.152126
0.0231403
0.164628
-0.155147
0.0142193
0.16391
-0.154989
0.00667311
0.153576
-0.14603
0.00162712
0.12301
-0.117964
0.0579248
-0.0562977
0.0688335
0.160214
-0.0793878
0.0584353
0.162232
0.0483869
0.164507
0.0386933
0.167676
0.0292491
0.171191
0.020156
0.173721
0.0118645
0.172201
0.00517768
0.160263
0.00103952
0.127148
0.0589643
0.0616652
0.169604
-0.0710553
0.0519934
0.171904
0.042453
0.174047
0.0332329
0.176896
0.0243663
0.180058
0.0160141
0.182073
0.00864221
0.179573
0.00311167
0.165794
0.000196398
0.130063
0.0591607
0.0503616
0.177595
-0.0583522
0.0419942
0.180271
0.0335524
0.182489
0.0252977
0.185151
0.0173986
0.187957
0.010139
0.189333
0.00410353
0.185609
7.51661e-05
0.169822
-0.000914701
0.131053
0.058246
0.0372282
0.184565
-0.0441985
0.0300483
0.187451
0.0227603
0.189777
0.0156112
0.1923
0.00887819
0.19469
0.00295024
0.195261
-0.00139213
0.189951
-0.00311151
0.171541
-0.00215922
0.130101
0.0560868
0.0219533
0.190355
-0.0277438
0.0160463
0.193358
0.0100625
0.195761
0.00422795
0.198135
-0.00109772
0.200015
-0.00526912
0.199432
-0.00747483
0.192157
-0.00690696
0.170973
-0.00350391
0.126698
0.0525829
0.00565482
0.195329
-0.0106285
0.000805465
0.198208
-0.00396523
0.200532
-0.00843331
0.202603
-0.0121602
0.203742
-0.0144441
0.201716
-0.0142794
0.191992
-0.0108642
0.167558
-0.00480104
0.120634
0.0477819
-0.0126351
0.199207
0.00875726
-0.0162854
0.201858
-0.0197212
0.203967
-0.0226761
0.205558
-0.0245871
0.205653
-0.024549
0.201678
-0.0214895
0.188933
-0.0148359
0.160905
-0.00596529
0.111764
0.0418166
-0.0325576
0.201979
0.029786
-0.034995
0.204295
-0.0370365
0.206009
-0.0383046
0.206826
-0.0380686
0.205417
-0.0352596
0.198869
-0.0288056
0.182479
-0.0185554
0.150654
-0.00687041
0.100079
0.0349462
-0.0545765
0.053038
-0.0556346
-0.0560417
-0.0552705
-0.0523882
-0.046195
-0.0357737
-0.0216584
-0.00739564
0.108436
0.0400059
-0.120535
-0.0279071
0.0960651
0.0410952
-0.0287244
0.0834103
0.0422736
-0.0296187
0.0704458
0.0435325
-0.0305681
0.0571543
0.0448528
-0.0315613
0.0435606
0.0460909
-0.0324973
0.0298494
0.0466851
-0.0329739
0.0166577
0.0450482
-0.0318565
0.00560836
0.0377717
-0.0267223
0.0191576
-0.0135492
0.107518
0.0521034
-0.119616
0.0952258
0.0533877
0.0826614
0.054838
0.0697941
0.0563998
0.0565988
0.0580481
0.0430983
0.0595914
0.0294854
0.060298
0.0164102
0.0581234
0.00549742
0.0486845
0.024655
0.106153
0.0640809
-0.11813
0.0939188
0.0656216
0.0814387
0.0673182
0.0686854
0.0691531
0.0556355
0.071098
0.042306
0.0729208
0.0288853
0.0737188
0.0160268
0.0709819
0.00534047
0.0593708
0.0299954
0.104151
0.0760835
-0.116153
0.0920382
0.077734
0.0796713
0.0796851
0.0670284
0.081796
0.0541074
0.0840189
0.0409594
0.0860689
0.0278026
0.0868755
0.0153023
0.0834821
0.00503411
0.069639
0.0350296
0.101573
0.0878477
-0.113337
0.0896694
0.0896372
0.0776004
0.0917542
0.0652916
0.0941048
0.0526913
0.0966192
0.0398299
0.0989302
0.0269476
0.0997579
0.0147505
0.0956793
0.0048152
0.0795743
0.0398448
0.0977824
0.0996849
-0.10962
0.0859613
0.101458
0.0739913
0.103724
0.0618849
0.106211
0.0496294
0.108875
0.0372479
0.111312
0.0249615
0.112044
0.0134652
0.107176
0.00427989
0.0887596
0.0441247
0.0938308
0.110852
-0.104998
0.0826653
0.112624
0.0712994
0.11509
0.059638
0.117873
0.0476963
0.120816
0.0355933
0.123415
0.0236435
0.123994
0.0125953
0.118224
0.0039304
0.0974244
0.048055
0.086411
0.121871
-0.0974298
0.0756414
0.123393
0.0649317
0.1258
0.0541446
0.12866
0.0431615
0.131799
0.0320144
0.134562
0.0210177
0.134991
0.0109566
0.128285
0.00327469
0.105106
0.0513297
0.0817444
0.131093
-0.0909661
0.072087
0.133051
0.0618313
0.136056
0.0512165
0.139275
0.0404138
0.142602
0.0295818
0.145394
0.0190813
0.145491
0.00970251
0.137664
0.00278528
0.112024
0.054115
0.0706501
-0.0773942
0.0627106
0.0542965
0.0452642
0.0357403
0.0259867
0.016489
0.00812276
0.00218269
0.201627
0.00536288
-0.00900003
0.205577
0.0269966
-0.0309465
0.209154
0.0343186
-0.0378961
0.211723
0.0525088
-0.0550778
0.213484
0.0645086
-0.066269
0.212585
0.0848343
-0.0839353
0.207854
0.11773
-0.112999
0.196059
0.149328
-0.137534
0.170506
0.203495
-0.177941
0.26476
-0.214788
0.201269
0.00208359
0.204834
0.0234319
0.20828
0.0308723
0.210262
0.0505266
0.212055
0.0627163
0.210384
0.0865053
0.205808
0.122306
0.193593
0.161543
0.168316
0.228771
0.31346
0.200867
-0.000794038
0.20391
0.0203896
0.207204
0.0275782
0.208437
0.0492935
0.210244
0.060909
0.207559
0.0891904
0.203135
0.12673
0.189989
0.17469
0.165449
0.253311
0.360779
0.200405
-0.00320916
0.202813
0.0179815
0.205891
0.0245006
0.206254
0.0489307
0.208037
0.0591258
0.204168
0.0930592
0.199904
0.130995
0.185266
0.189327
0.161962
0.276615
0.406588
0.19986
-0.00507966
0.201558
0.0162836
0.20433
0.0217289
0.203769
0.0494915
0.205403
0.0574924
0.20025
0.0982121
0.196062
0.135182
0.179687
0.205702
0.15778
0.298522
0.451031
0.199217
-0.00630645
0.200164
0.0153357
0.202519
0.0193748
0.201021
0.0509891
0.202328
0.0561851
0.195805
0.104735
0.191595
0.139392
0.173023
0.224274
0.153207
0.318338
0.494619
0.198462
-0.0067788
0.198653
0.0151445
0.200454
0.0175738
0.19803
0.0534138
0.198783
0.0554322
0.190919
0.112599
0.186273
0.144038
0.165892
0.244654
0.147556
0.336674
0.537176
0.197595
-0.00638386
0.197045
0.0156947
0.198141
0.0164774
0.194801
0.0567537
0.194773
0.0554605
0.185567
0.121805
0.180223
0.149382
0.157388
0.26749
0.141712
0.35235
0.581459
0.196624
-0.00501846
0.195351
0.016968
0.195593
0.0162354
0.191342
0.0610045
0.190258
0.0565451
0.179908
0.132154
0.173448
0.155842
0.150156
0.290782
0.134874
0.367632
0.625367
0.195598
-0.00262654
0.193538
0.0190277
0.192891
0.0168829
0.187561
0.0663341
0.185154
0.0589521
0.17324
0.144069
0.164738
0.164344
0.139732
0.315787
0.128701
0.378663
0.676673
0.304529
-0.00514542
0.308503
0.0150538
0.317498
0.0078883
0.319219
0.0646126
0.331797
0.0463738
0.332667
0.143199
0.352882
0.144129
0.35896
0.309709
0.411872
0.325752
0.606011
0.482534
0.304677
-0.00781191
0.310185
0.00954575
0.319883
-0.00180958
0.323102
0.0613936
0.337375
0.0321003
0.341547
0.139027
0.362667
0.123009
0.378838
0.293538
0.427944
0.276646
0.53835
0.495605
0.304993
-0.0107952
0.31266
0.00187888
0.321876
-0.011025
0.3281
0.0551692
0.342457
0.0177435
0.350654
0.13083
0.370655
0.103008
0.393903
0.27029
0.438035
0.232514
0.465719
0.510667
0.305886
-0.0146714
0.315658
-0.00789307
0.323716
-0.0190825
0.334513
0.044372
0.346606
0.00565061
0.358718
0.118718
0.376414
0.0853114
0.405103
0.241602
0.44706
0.190557
0.390306
0.522472
0.307618
-0.0202796
0.318962
-0.0192369
0.326596
-0.0267166
0.342034
0.0289348
0.351567
-0.00388233
0.367512
0.102773
0.382849
0.0699747
0.416669
0.207782
0.452617
0.154609
0.315835
0.527088
0.310082
-0.0283519
0.322732
-0.0318865
0.331016
-0.0350005
0.349833
0.0101176
0.356478
-0.0105273
0.375147
0.0841036
0.388694
0.056428
0.425546
0.170929
0.457922
0.122233
0.244622
0.529135
0.313295
-0.0396366
0.326969
-0.0455611
0.336033
-0.0440636
0.355069
-0.00891912
0.357416
-0.0128736
0.378516
0.0630034
0.391097
0.0438471
0.43134
0.130686
0.461474
0.0920999
0.178472
0.527623
0.316306
-0.0539322
0.327831
-0.0570862
0.333541
-0.0497733
0.345387
-0.0207658
0.342745
-0.0102312
0.365611
0.0401378
0.378874
0.0305836
0.423323
0.0862365
0.453603
0.0618197
0.114145
0.51793
0.309285
-0.0612073
0.303949
-0.0517503
0.292607
-0.0384306
0.28741
-0.0155688
0.281571
-0.00439227
0.304218
0.01749
0.320414
0.0143877
0.368339
0.0383118
0.402063
0.0280955
0.047955
0.468254
0.240803
0.189053
0.150622
0.135053
0.130661
0.148151
0.162539
0.200851
0.228946
0.276901
0.496177
-0.0982159
0.500732
-0.0839431
0.504399
-0.074722
0.507416
-0.0613689
0.512231
-0.0490141
0.516644
-0.0321564
0.522869
-0.0168535
0.528905
0.00272173
0.537365
0.0213255
0.0445964
0.496515
-0.0991257
0.497083
-0.0845113
0.497146
-0.0747855
0.497136
-0.0613582
0.498786
-0.0506646
0.500685
-0.0340552
0.505149
-0.0213171
0.509853
-0.00198227
0.517445
0.0137333
0.0363425
0.503961
-0.0924201
0.500425
-0.0809755
0.497055
-0.0714155
0.494741
-0.0590442
0.493269
-0.0491924
0.493798
-0.0345843
0.495543
-0.0230619
0.499241
-0.00568078
0.50466
0.00831524
0.0279967
0.511541
-0.0814887
0.503566
-0.0730005
0.497143
-0.0649924
0.49303
-0.0549315
0.489398
-0.0455599
0.488489
-0.0336757
0.488188
-0.022761
0.49124
-0.00873263
0.495252
0.00430366
0.0200818
0.515192
-0.069593
0.50525
-0.063058
0.496725
-0.056467
0.49049
-0.0486967
0.485367
-0.0404376
0.48285
-0.0311581
0.481563
-0.0214743
0.483483
-0.0106524
0.486999
0.00078762
0.0130537
0.515947
-0.0564048
0.504344
-0.0514545
0.494289
-0.0464129
0.486329
-0.0407367
0.480194
-0.0343025
0.476475
-0.0274386
0.474739
-0.0197386
0.475775
-0.0116882
0.479058
-0.00249572
0.00670533
0.513157
-0.0419384
0.500263
-0.0385607
0.489102
-0.0352518
0.480016
-0.0316505
0.473103
-0.02739
0.468506
-0.0228413
0.466233
-0.0174662
0.466497
-0.0119523
0.469423
-0.0054211
0.00100861
0.501907
-0.0259154
0.487676
-0.0243295
0.47535
-0.0229254
0.465067
-0.0213678
0.456988
-0.0193108
0.451085
-0.0169384
0.447568
-0.0139493
0.446409
-0.0107932
0.448002
-0.00701387
-0.00335322
0.451848
-0.0095099
0.437215
-0.00969648
0.424182
-0.0098922
0.412709
-0.00989481
0.402945
-0.0095468
0.394912
-0.00890577
0.388906
-0.00794279
0.384945
-0.00683251
0.38341
-0.00547873
-0.00411465
0.267391
0.257695
0.247803
0.237908
0.228361
0.219455
0.211512
0.20468
0.199201
0.00676554
0.0416127
-0.0483782
0.0161545
0.108375
-0.117764
0.0225866
0.153369
-0.159802
0.0250206
0.178021
-0.180455
0.0243691
0.188773
-0.188121
0.0218535
0.191606
-0.189091
0.0184009
0.190056
-0.186604
0.0146467
0.185142
-0.181388
0.0111665
0.175672
-0.172191
0.158386
0.00851915
-0.155738
0.00808918
0.0335235
0.0215702
0.0948942
0.0331199
0.14182
0.0402989
0.170842
0.0435173
0.185555
0.0440374
0.191086
0.0429562
0.191138
0.0409244
0.187174
0.0381508
0.178445
0.162151
0.0343855
0.00862149
0.024902
0.0255252
0.0779904
0.0424454
0.1249
0.0551838
0.158103
0.0631415
0.177597
0.0673329
0.186895
0.0689469
0.189524
0.0686817
0.187439
0.0665577
0.180569
0.167002
0.0617068
0.00824443
0.0166576
0.0270893
0.0591455
0.0488998
0.103089
0.0678215
0.139182
0.0816125
0.163806
0.0905429
0.177964
0.0957434
0.184323
0.0981026
0.18508
0.0976393
0.181033
0.17122
0.0934215
0.00706819
0.00958937
0.025714
0.0404997
0.0506738
0.0781293
0.0755997
0.114256
0.0963169
0.143089
0.111494
0.162788
0.121618
0.174199
0.127628
0.17907
0.129986
0.178675
0.173729
0.127477
0.00540391
0.00418546
0.0216892
0.0242144
0.0467196
0.053099
0.0755777
0.0853977
0.103151
0.115515
0.12612
0.139819
0.143291
0.157027
0.154907
0.167454
0.161511
0.172071
0.172064
0.163176
0.00366065
0.00052481
0.0162206
0.0116544
0.0380348
0.0312848
0.0668119
0.0566205
0.0984488
0.0838785
0.12882
0.109448
0.154973
0.130874
0.175447
0.146981
0.190055
0.157463
0.164143
0.197976
0.00216874
-0.00164393
0.0107396
0.00308362
0.0272916
0.0147327
0.0518117
0.0321005
0.0823764
0.0533138
0.115834
0.0759899
0.148883
0.0978249
0.178639
0.117225
0.203477
0.132624
0.143952
0.223668
0.00105763
-0.00270155
0.00617483
-0.00203359
0.0171532
0.00375435
0.0351392
0.0141144
0.060116
0.028337
0.0907762
0.0453297
0.124916
0.0636851
0.160082
0.0820583
0.192945
0.0997619
0.110593
0.226304
0.000245251
-0.0029468
0.00262145
-0.00440978
0.0087667
-0.00239091
0.0201118
0.00276934
0.0375771
0.0108717
0.0613181
0.0215887
0.0906285
0.0343747
0.124253
0.0484341
0.160258
0.0637561
0.0758105
0.195041
-0.000404437
-0.00254237
-2.05567e-05
-0.00479366
0.00251386
-0.00492533
0.00842927
-0.00314606
0.0187697
0.000531312
0.0343471
0.00601136
0.0554445
0.0132773
0.0817603
0.0221183
0.112951
0.0325657
0.046464
0.142297
-0.000539965
-0.0020024
-0.000886933
-0.0044467
-0.000123599
-0.00568866
0.00251545
-0.00578511
0.00777001
-0.00472326
0.0162387
-0.0024573
0.0284192
0.00109681
0.0445082
0.0060293
0.0643369
0.012737
0.022815
0.0879859
4.48764e-05
-0.00204728
0.000524998
-0.00492682
0.00171913
-0.00688279
0.00388367
-0.00794965
0.00729017
-0.00812976
0.0122413
-0.00740845
0.0190896
-0.00575152
0.0281881
-0.00306918
0.0400415
0.000883592
0.00677014
0.0560864
0.000658226
-0.00270551
0.00201238
-0.00628097
0.00388822
-0.00875864
0.0063261
-0.0103875
0.00945271
-0.0112564
0.0134473
-0.011403
0.0185467
-0.0108509
0.0250748
-0.00959726
0.03355
-0.00759162
-0.00494303
0.0452631
0.000450418
-0.00315592
0.00100069
-0.00683125
0.00151792
-0.00927586
0.00215852
-0.0110281
0.00315899
-0.0122568
0.00478459
-0.0130287
0.00732468
-0.013391
0.0111056
-0.0133782
0.0165112
-0.0129972
-0.0124412
0.0240093
-0.000704069
-0.00245186
-0.00267925
-0.00485607
-0.00544081
-0.0065143
-0.00847112
-0.00799781
-0.0113454
-0.00938256
-0.0137385
-0.0106356
-0.015389
-0.0117404
-0.0160901
-0.0126771
-0.0156901
-0.0133972
-0.0140844
-0.0140468
-0.00259702
0.000145162
-0.00821968
0.000766598
-0.0153658
0.000631841
-0.0231098
-0.000253829
-0.0308017
-0.00169067
-0.03818
-0.00325732
-0.0450709
-0.00484946
-0.0513521
-0.00639587
-0.0569016
-0.0078478
-0.00938163
-0.0616044
-0.00454779
0.00469296
-0.0137858
0.0100046
-0.0250868
0.0119328
-0.0371188
0.0117783
-0.0494601
0.0106506
-0.0618786
0.00916118
-0.0742762
0.00754813
-0.086565
0.00589293
-0.0986325
0.00421966
0.002473
-0.110487
-0.00571148
0.0104044
-0.0170656
0.0213588
-0.0308536
0.0257207
-0.0456003
0.026525
-0.0607766
0.0258269
-0.0762283
0.0246129
-0.0918923
0.0232122
-0.107693
0.0216941
-0.123537
0.0200635
0.0184163
-0.139481
-0.00551509
-0.0168449
-0.0308823
-0.046076
-0.0617969
-0.0778287
-0.0940747
-0.110446
-0.126852
-0.143405
0.200507
0.0827538
-0.140964
0.213969
0.414603
-0.428065
0.202594
0.449035
-0.437661
0.211303
0.163142
-0.171851
0.220708
-0.0693814
0.0599765
0.216105
-0.110468
0.115071
0.206645
-0.0753656
0.0848256
0.201431
-0.0407054
0.045919
0.202218
-0.0258054
0.0250188
-0.0196848
0.0147172
0.160358
0.0103814
0.203298
0.371664
0.212215
0.440118
0.229859
0.145498
0.230762
-0.0702847
0.217677
-0.097383
0.206038
-0.0637264
0.201509
-0.0361759
0.203399
-0.0276955
-0.0246792
0.128119
-0.0616515
0.177842
0.321941
0.202964
0.414996
0.224062
0.124401
0.216669
-0.0628919
0.201647
-0.0823609
0.194698
-0.056778
0.195506
-0.0369835
0.201103
-0.0332926
-0.0306717
0.0903146
-0.106703
0.133119
0.279137
0.1699
0.378215
0.190745
0.103556
0.181542
-0.0536897
0.174679
-0.0754972
0.179076
-0.0611758
0.188028
-0.0459348
0.198164
-0.0434286
-0.0378643
0.0358511
-0.118545
0.0712411
0.243747
0.114948
0.334508
0.135158
0.0833465
0.138614
-0.057146
0.14934
-0.0862235
0.166845
-0.0786805
0.182932
-0.0620217
0.196393
-0.0568898
-0.0457527
-0.0384239
-0.0941676
-0.00683079
0.212154
0.0425614
0.285116
0.0773918
0.0485161
0.107105
-0.0868591
0.135291
-0.11441
0.161604
-0.104994
0.181433
-0.0818499
0.196238
-0.0716952
-0.0536456
-0.126108
-0.0296635
-0.0981435
0.184189
-0.0194235
0.206396
0.0430647
-0.0139721
0.0944058
-0.1382
0.132161
-0.152165
0.161942
-0.134774
0.1826
-0.102508
0.197282
-0.0863772
-0.0610717
-0.197741
0.0575901
-0.157821
0.144269
-0.0469166
0.0954911
0.0332596
-0.0941483
0.0935763
-0.198517
0.13483
-0.193419
0.16505
-0.164994
0.185113
-0.122571
0.198988
-0.100252
-0.0678381
-0.230995
0.149104
-0.177655
0.0909302
-0.0502841
-0.0318801
0.0359271
-0.18036
0.098374
-0.260964
0.14016
-0.235205
0.169427
-0.194261
0.188289
-0.141433
0.201074
-0.113038
-0.0738902
-0.225569
-0.169941
-0.0435675
0.0463854
0.107943
0.147996
0.175072
0.192126
0.203529
0.0492622
0.034272
-0.0835342
0.00844797
0.0408143
-0.0216562
0.0301041
-0.0332451
0.011589
-0.0212693
-0.0119759
0.00415318
-0.0254224
0.024695
-0.0205418
0.035354
-0.010659
0.0399188
-0.0045648
-0.00172164
0.197605
0.105433
-0.268766
0.0867322
0.151687
0.006114
0.110722
-0.01443
0.0321329
0.00992013
-0.036326
0.0492374
-0.0647397
0.0806221
-0.0519266
0.0979571
-0.027994
0.106348
-0.0129558
-0.00533249
0.341468
0.16157
-0.397606
0.205198
0.287957
0.0883363
0.227585
0.0512544
0.0692149
0.0724038
-0.0574753
0.105447
-0.0977832
0.131185
-0.0776639
0.146321
-0.0431307
0.154648
-0.0212827
-0.00955858
0.416461
0.174092
-0.428983
0.310619
0.393799
0.18923
0.348974
0.138578
0.119866
0.14761
-0.0665073
0.164671
-0.114845
0.17565
-0.0886422
0.181953
-0.049434
0.186354
-0.0256835
-0.0128885
0.394015
-0.360887
0.359749
0.271063
0.219078
0.212548
0.212773
0.208957
0.205442
0.204777
0.0108279
-0.000156152
-0.0106718
0.0124378
-0.00160985
0.015386
-0.00294822
0.0197955
-0.00440951
0.0261613
-0.00636577
0.0334822
-0.00732094
0.0437889
-0.0103067
0.0548336
-0.0110447
0.0691274
-0.0142938
-0.0144068
0.0297786
-0.000876879
-0.0290579
0.0343659
-0.00619711
0.0427156
-0.0112979
0.0558625
-0.0175565
0.0743325
-0.0248357
0.0975329
-0.0305213
0.130464
-0.043238
0.166883
-0.0474632
0.214641
-0.0620522
-0.0685314
0.0460502
-0.00243218
-0.0444949
0.0533518
-0.0134987
0.0665313
-0.0244773
0.087238
-0.0382632
0.115391
-0.0529886
0.153119
-0.0682491
0.201738
-0.0918571
0.257037
-0.102763
0.327766
-0.132781
-0.138371
0.0595509
-0.00496504
-0.0570181
0.0690917
-0.0230395
0.0862472
-0.0416328
0.112235
-0.0642514
0.14739
-0.0881437
0.194287
-0.115146
0.247713
-0.145282
0.312382
-0.167432
0.380149
-0.200549
-0.187205
0.070413
-0.0668589
0.081759
0.101833
0.131003
0.170336
0.218366
0.271059
0.327296
0.353051
0.0822383
-0.0750253
0.0828381
-0.090051
0.0736174
-0.0761305
0.0847513
0.064632
-0.0778874
0.0868728
0.0550403
-0.0797712
0.0893629
0.0447666
-0.0816648
0.0919385
0.0339363
-0.0832644
0.0940947
0.0229168
-0.0834791
0.0944986
0.0124692
-0.0794623
0.08991
0.00403259
-0.0655114
0.0739479
-0.0325322
0.0365648
0.0909413
-0.0655059
-0.100461
0.0810367
-0.0662259
0.0704893
-0.0673399
0.0593617
-0.0686437
0.0478076
-0.0701107
0.0360064
-0.0714631
0.0242534
-0.0717262
0.0132167
-0.0684257
0.00429906
-0.0565937
-0.0282332
0.0928247
-0.0547481
-0.103582
0.0819574
-0.0553586
0.070887
-0.0562695
0.0596161
-0.0573727
0.048115
-0.0586097
0.0363841
-0.0597322
0.024614
-0.059956
0.0134541
-0.0572658
0.00437355
-0.0475131
-0.0238596
0.0981711
-0.0436676
-0.109252
0.0869372
-0.0441246
0.0754734
-0.0448058
0.0637017
-0.0456011
0.0515718
-0.0464797
0.0391177
-0.0472781
0.0265794
-0.0474178
0.014645
-0.0453314
0.00484095
-0.0377091
-0.0190187
0.100932
-0.032112
-0.112488
0.0892395
-0.0324323
0.0773026
-0.0328689
0.065094
-0.0333924
0.0526022
-0.033988
0.0398703
-0.0345462
0.0271086
-0.0346561
0.0149597
-0.0331825
0.00494875
-0.0276981
-0.0140699
0.104036
-0.0203767
-0.115772
0.0920859
-0.0204818
0.0798862
-0.0206691
0.0674046
-0.0209109
0.0546171
-0.0212004
0.0415454
-0.0214745
0.0283813
-0.021492
0.0157685
-0.0205696
0.00527884
-0.0172084
-0.00879108
0.106063
-0.00842048
-0.118019
0.0939069
-0.00832569
0.0814942
-0.00825641
0.0687954
-0.00821211
0.0557862
-0.00819119
0.0424856
-0.00817393
0.0290771
-0.00808347
0.0161969
-0.0076894
0.00544031
-0.0064519
-0.00335077
0.107611
0.00364007
-0.119672
0.0953164
0.0039693
0.082752
0.00430795
0.0698904
0.00464955
0.0567092
0.00498997
0.0432284
0.00530692
0.0296284
0.00551648
0.0165424
0.00539663
0.00557821
0.00451227
0.00222744
0.108488
0.0157616
-0.12061
0.0961203
0.0163374
0.0834754
0.0169529
0.0705265
0.0175985
0.057251
0.0182654
0.0436671
0.0188908
0.0299526
0.019231
0.0167402
0.018609
0.00565228
0.0156002
0.00787972
0.108707
-0.120852
0.0963197
0.0836539
0.0706843
0.0573884
0.0437819
0.0300391
0.0167916
0.00566948
0.0134747
-0.153647
-0.015566
0.00907746
-0.167794
0.00367823
-0.175989
-0.00186515
-0.18106
-0.00689591
-0.18406
-0.0106507
-0.184367
-0.0121041
-0.179001
-0.0101844
-0.161721
-0.00492286
-0.123026
-0.0533011
0.0361298
-0.150614
-0.0391631
0.0301571
-0.161821
0.022972
-0.168804
0.0154995
-0.173588
0.00827896
-0.176839
0.00189634
-0.177984