/*--------------------------------*- C++ -*----------------------------------*\
  =========                 |
  \\      /  F ield         | OpenFOAM: The Open Source CFD Toolbox
   \\    /   O peration     | Website:  https://openfoam.org
    \\  /    A nd           | Version:  13
     \\/     M anipulation  |
\*---------------------------------------------------------------------------*/
FoamFile
{
    format      ascii;
    class       volVectorField;
    location    "3.25";
    object      U;
}
// * * * * * * * * * * * * * * * * * * * * * * * * * * * * * * * * * * * * * //

dimensions      [0 1 -1 0 0 0 0];

internalField   nonuniform List<vector> 
1800
(
(-0.0309731 0.0240053 1.17367e-20)
(-0.075662 0.0412133 5.27152e-21)
(-0.0971182 0.047015 -3.58815e-20)
(-0.0908499 0.0480082 5.30672e-20)
(-0.0501234 0.0480179 1.63038e-19)
(0.0300431 0.048162 8.0329e-20)
(0.152397 0.0489997 -3.92072e-20)
(0.313175 0.0491249 -2.65015e-20)
(0.528183 0.0763449 1.06799e-19)
(0.625462 0.119832 1.37125e-19)
(-0.0463056 0.0345065 1.01314e-20)
(-0.0864822 0.0574663 -3.14704e-20)
(-0.0777031 0.0576937 3.21875e-22)
(-0.0198138 0.0449985 -5.69785e-20)
(0.0905527 0.025738 2.36585e-20)
(0.254522 0.00340934 1.49427e-19)
(0.46871 -0.0191585 -8.25097e-20)
(0.721383 -0.0439607 4.30726e-20)
(1.0198 -0.0498026 -1.2421e-19)
(1.19949 -0.0559888 1.373e-19)
(-0.0505802 0.0336088 4.01897e-21)
(-0.0697338 0.052878 1.50485e-20)
(-0.0136273 0.0475804 7.25421e-23)
(0.114469 0.0272346 -1.13015e-20)
(0.312125 -0.000294472 -1.34937e-19)
(0.570172 -0.0293733 2.87224e-20)
(0.870741 -0.0559357 5.9569e-20)
(1.19076 -0.0773677 -2.33219e-20)
(1.50647 -0.0909273 -1.72101e-22)
(1.78276 -0.11401 -2.90355e-21)
(-0.0441421 0.0253978 -7.60867e-21)
(-0.0224582 0.0310796 -2.40186e-20)
(0.102105 0.0162887 -2.45412e-20)
(0.320638 -0.00977527 2.46978e-20)
(0.617569 -0.0384965 2.22164e-20)
(0.964498 -0.0637589 9.70456e-21)
(1.32511 -0.0823668 -3.13309e-21)
(1.66447 -0.0936385 8.76949e-20)
(1.9602 -0.10021 8.1534e-20)
(2.18703 -0.104495 -3.56277e-20)
(-0.0266106 0.0140251 5.98059e-20)
(0.0605648 0.00334245 5.53133e-20)
(0.277526 -0.0190406 -3.89471e-20)
(0.600703 -0.0436166 -4.80342e-20)
(0.989342 -0.062713 -1.26775e-19)
(1.3904 -0.0732297 2.07576e-21)
(1.75557 -0.0760294 1.73127e-19)
(2.05424 -0.0742643 8.53669e-20)
(2.27272 -0.0700683 2.3379e-21)
(2.4248 -0.0736791 -8.26128e-20)
(0.00552731 0.00113295 -5.93467e-20)
(0.185798 -0.0226316 -1.32498e-20)
(0.513913 -0.0447286 1.99524e-19)
(0.93756 -0.0570501 -5.55283e-20)
(1.38328 -0.0576467 -1.41253e-19)
(1.78334 -0.0499364 2.94198e-19)
(2.09783 -0.0391518 -3.14231e-19)
(2.31674 -0.0294621 -4.43306e-19)
(2.45384 -0.0234242 3.74191e-19)
(2.52702 -0.0218596 1.10184e-21)
(0.0554296 -0.0109204 6.56115e-20)
(0.353645 -0.0387216 -1.41408e-19)
(0.796168 -0.0485308 -4.82923e-19)
(1.29096 -0.0389367 2.3561e-19)
(1.74198 -0.0185496 5.31646e-19)
(2.09178 0.00321813 -2.09985e-21)
(2.3283 0.0205635 -1.17182e-18)
(2.46941 0.0314007 5.20018e-21)
(2.54249 0.0372289 1.43483e-18)
(2.57506 0.0349582 3.97182e-19)
(0.123602 -0.0184331 6.44472e-20)
(0.554915 -0.0361811 3.44243e-19)
(1.09471 -0.0216373 4.04508e-19)
(1.61622 0.0134073 -1.16618e-19)
(2.02866 0.0500414 -4.91942e-19)
(2.30667 0.078127 -1.8846e-19)
(2.46935 0.0954423 0)
(2.55124 0.103795 6.04624e-19)
(2.58445 0.105718 -9.57871e-21)
(2.58936 0.102217 -5.78719e-19)
(0.206913 -0.0172596 5.69986e-20)
(0.771561 -0.00814981 3.60159e-19)
(1.37623 0.0389327 6.79161e-19)
(1.88408 0.0963747 -7.14495e-19)
(2.23601 0.141718 -6.27756e-19)
(2.44332 0.169697 2.55657e-19)
(2.54668 0.183124 -1.22454e-18)
(2.5872 0.186723 -9.23553e-19)
(2.594 0.18468 1.14341e-18)
(2.58336 0.177142 9.97248e-19)
(0.299196 -0.00393225 -4.29447e-20)
(0.982104 0.0480804 2.8571e-19)
(1.6161 0.130067 1.80144e-19)
(2.08493 0.203459 -1.45484e-18)
(2.37211 0.25065 4.87599e-20)
(2.51897 0.273775 2.94418e-18)
(2.57826 0.280427 -1.71049e-18)
(2.59134 0.277712 -1.00944e-18)
(2.58269 0.270025 3.55703e-19)
(2.56251 0.258431 -8.16012e-19)
(-0.0135548 0.226979 1.71062e-19)
(-0.0629546 0.469056 -1.07986e-19)
(-0.127803 0.572359 1.21901e-21)
(-0.198571 0.60181 -2.32391e-20)
(-0.267637 0.600253 3.14672e-21)
(-0.33318 0.587941 2.1926e-19)
(-0.394495 0.571437 1.5254e-19)
(-0.451188 0.551875 -3.52466e-19)
(-0.505244 0.52925 1.49048e-20)
(-0.56146 0.503928 -4.75684e-20)
(-0.0303459 0.258498 -9.90349e-21)
(-0.0799763 0.555418 3.76854e-21)
(-0.133077 0.693814 2.57139e-20)
(-0.187524 0.740002 4.49691e-20)
(-0.240004 0.743477 -1.16754e-19)
(-0.289162 0.730392 2.22268e-19)
(-0.334134 0.710568 -3.17518e-19)
(-0.374045 0.686327 -4.10863e-19)
(-0.409836 0.657862 3.67759e-19)
(-0.446275 0.625505 -1.17464e-19)
(-0.0451763 0.251582 -4.78459e-20)
(-0.0948855 0.579561 2.7108e-20)
(-0.133682 0.756684 -3.03936e-21)
(-0.167235 0.830128 -2.15781e-19)
(-0.198128 0.846828 -7.07949e-20)
(-0.226241 0.837473 7.60839e-19)
(-0.250804 0.816464 -2.54486e-19)
(-0.270733 0.788661 -4.32294e-19)
(-0.28549 0.755134 5.21327e-19)
(-0.297916 0.716128 3.09208e-19)
(-0.0515213 0.209705 -3.20818e-20)
(-0.100881 0.534097 -5.65292e-21)
(-0.127001 0.745553 7.10422e-21)
(-0.140762 0.856372 -2.73571e-20)
(-0.149654 0.898282 1.70578e-19)
(-0.155895 0.901199 -2.61319e-19)
(-0.159545 0.884122 -2.21137e-19)
(-0.159841 0.856055 2.63717e-19)
(-0.155472 0.820064 5.37842e-21)
(-0.144223 0.776646 1.0341e-20)
(-0.0460908 0.146727 0)
(-0.0926949 0.427693 -4.48898e-21)
(-0.110499 0.65376 -1.19834e-20)
(-0.109429 0.803728 9.14437e-20)
(-0.0989556 0.884444 3.07597e-19)
(-0.0837911 0.914752 -2.31928e-19)
(-0.0656968 0.912836 9.10484e-20)
(-0.0448224 0.891344 4.51984e-20)
(-0.0205505 0.857133 0)
(0.0133453 0.812431 2.14896e-20)
(-0.0311687 0.0818435 -2.95782e-20)
(-0.0704408 0.288858 7.11524e-20)
(-0.0848646 0.495277 4.48784e-20)
(-0.0779942 0.663815 -6.51956e-20)
(-0.0566801 0.780492 6.491e-20)
(-0.0261287 0.848097 1.4942e-19)
(0.0102576 0.876325 -4.17358e-19)
(0.0508004 0.875604 -4.02186e-20)
(0.0933513 0.853813 5.23599e-19)
(0.148072 0.814466 1.1488e-20)
(-0.013613 0.0317675 9.15837e-21)
(-0.0423843 0.158866 1.25217e-19)
(-0.0571515 0.316136 -7.11594e-20)
(-0.0539254 0.468417 -1.2074e-20)
(-0.0340381 0.593958 -5.58723e-20)
(-0.000480141 0.684514 3.4046e-20)
(0.0434231 0.740481 1.19661e-19)
(0.0951559 0.766546 1.38695e-19)
(0.150671 0.768418 -1.65878e-19)
(0.217947 0.744676 -2.41526e-19)
(-0.000467748 0.00304986 2.45898e-20)
(-0.0209365 0.0668363 -5.95566e-20)
(-0.0388676 0.166695 -9.45998e-20)
(-0.0449134 0.2776 3.47844e-20)
(-0.0353811 0.380841 -4.66643e-21)
(-0.010151 0.465421 1.4194e-19)
(0.028847 0.52696 1.49619e-19)
(0.0789448 0.565638 7.62829e-21)
(0.137579 0.58505 1.79009e-20)
(0.205388 0.569655 -1.11302e-19)
(0.00265241 -0.00510514 1.88416e-20)
(-0.0191679 0.0206171 -7.1352e-20)
(-0.0445147 0.0722259 1.26488e-19)
(-0.0621621 0.135831 1.54331e-19)
(-0.0654778 0.200487 -1.25557e-19)
(-0.0520843 0.258183 2.75268e-19)
(-0.0222239 0.304845 -3.58552e-20)
(0.0228902 0.339294 -3.59879e-19)
(0.0840119 0.360729 -3.79466e-20)
(0.166122 0.344555 -5.93612e-20)
(-0.00994516 0.00567539 -4.88035e-21)
(-0.0450208 0.0183924 -2.82033e-20)
(-0.0776329 0.0383905 -1.36481e-20)
(-0.0985773 0.0634695 6.97333e-20)
(-0.10048 0.0909336 1.48375e-19)
(-0.0786719 0.118203 -1.78982e-19)
(-0.0305194 0.143767 -1.69408e-19)
(0.04412 0.166744 9.32081e-20)
(0.148005 0.186629 -5.76439e-20)
(0.276635 0.189383 -4.68559e-21)
(-0.848626 0.365856 7.22665e-19)
(-0.867174 0.0112245 -1.99995e-18)
(-0.350915 -0.310168 -5.01157e-19)
(0.12766 -0.44195 2.38375e-19)
(0.487337 -0.491123 -5.4691e-20)
(0.695359 -0.410266 -3.2227e-20)
(0.841264 -0.326401 -1.3442e-20)
(0.945302 -0.232561 -1.39973e-21)
(1.00103 -0.181701 1.3123e-20)
(1.06492 -0.114956 3.20185e-21)
(-0.65358 0.444082 8.17488e-19)
(-0.568414 -0.0520026 7.50459e-19)
(-0.141524 -0.451998 -4.95203e-20)
(0.290794 -0.564017 -3.12969e-19)
(0.611455 -0.569491 -3.57865e-19)
(0.789751 -0.459391 0)
(0.907683 -0.358133 -2.858e-20)
(0.985757 -0.252941 5.12534e-21)
(1.02752 -0.196215 3.47376e-22)
(1.07714 -0.123307 -6.98166e-21)
(-0.414265 0.493878 -1.15476e-19)
(-0.236865 -0.108667 -4.06109e-19)
(0.136547 -0.561821 3.50939e-19)
(0.492438 -0.66755 1.01334e-19)
(0.75346 -0.637057 3.10113e-20)
(0.894188 -0.500663 -1.93937e-20)
(0.981926 -0.382744 0)
(1.03238 -0.267847 0)
(1.05839 -0.206662 -1.47219e-20)
(1.09117 -0.129551 0)
(-0.165752 0.517834 -6.43016e-20)
(0.100145 -0.157112 6.8149e-19)
(0.44103 -0.64668 -1.37174e-19)
(0.717959 -0.749315 0)
(0.9064 -0.690236 3.33354e-19)
(1.00077 -0.532996 -6.03788e-20)
(1.05714 -0.400385 0)
(1.08114 -0.277296 5.50841e-20)
(1.09173 -0.212726 0)
(1.10642 -0.133396 7.53636e-21)
(0.0632816 0.521555 2.02249e-19)
(0.423854 -0.192725 2.90348e-19)
(0.74735 -0.709832 8.99618e-20)
(0.950839 -0.810069 0)
(1.06492 -0.727255 1.39076e-19)
(1.10648 -0.555009 1.40727e-19)
(1.12908 -0.411191 -8.10498e-21)
(1.12818 -0.2818 -1.26288e-21)
(1.12506 -0.214599 -1.31698e-20)
(1.12195 -0.134777 2.07068e-21)
(0.264403 0.514759 1.55773e-18)
(0.721676 -0.216372 -9.96282e-20)
(1.04123 -0.755125 -4.55656e-20)
(1.17632 -0.852518 3.75612e-19)
(1.22075 -0.749443 -2.42518e-19)
(1.2095 -0.566271 7.08553e-20)
(1.19645 -0.41504 1.42377e-19)
(1.17122 -0.281829 -1.20113e-19)
(1.1562 -0.212759 1.64343e-22)
(1.13674 -0.13384 -1.76704e-20)
(0.409101 0.489966 3.57096e-20)
(0.991188 -0.234069 -8.511e-20)
(1.31603 -0.783734 -1.22168e-19)
(1.38693 -0.878037 -1.17892e-20)
(1.367 -0.759201 -2.0279e-19)
(1.30752 -0.567881 -2.1112e-20)
(1.25936 -0.412082 -5.83661e-20)
(1.20974 -0.277642 3.29872e-21)
(1.18384 -0.207681 1.63716e-20)
(1.14991 -0.130847 -8.37608e-22)
(0.463651 0.429953 -6.85942e-19)
(1.2377 -0.255999 -1.46999e-19)
(1.56821 -0.796919 0)
(1.57865 -0.887153 1.08944e-19)
(1.50021 -0.758271 1.70005e-19)
(1.39851 -0.5616 -1.6594e-20)
(1.31814 -0.403056 -1.92649e-19)
(1.24439 -0.269489 5.04174e-20)
(1.20767 -0.199732 -8.31567e-22)
(1.16094 -0.126074 -8.99048e-21)
(0.481802 0.310128 7.84828e-19)
(1.4803 -0.29441 4.07715e-19)
(1.79595 -0.795626 5.87123e-21)
(1.74785 -0.880467 -6.83852e-20)
(1.6184 -0.747698 1.43119e-20)
(1.48095 -0.54894 -1.90163e-19)
(1.37277 -0.389078 6.86541e-20)
(1.27616 -0.257861 -5.80591e-22)
(1.22819 -0.189295 5.99978e-22)
(1.16975 -0.119785 1.23115e-20)
(0.585968 0.152358 -4.90012e-19)
(1.72713 -0.348268 4.20582e-19)
(1.99696 -0.784201 1.9004e-19)
(1.89293 -0.861443 -1.84038e-19)
(1.72105 -0.728826 -1.72002e-19)
(1.55396 -0.530978 -1.00684e-19)
(1.42268 -0.371157 -3.41383e-20)
(1.30571 -0.243359 0)
(1.24616 -0.176807 -2.43126e-20)
(1.17663 -0.112218 1.70118e-20)
(1.35398 0.0077353 -5.98362e-19)
(2.13251 -0.43368 -5.92885e-19)
(2.24487 -0.768066 1.35666e-19)
(2.06361 -0.823174 3.12362e-20)
(1.83918 -0.692537 3.5751e-20)
(1.63558 -0.498903 -8.01857e-20)
(1.47815 -0.34074 -6.3792e-20)
(1.33929 -0.21939 3.29881e-20)
(1.26583 -0.157279 -1.21003e-20)
(1.1837 -0.101104 -8.90003e-21)
(2.16701 -0.0648796 1.75528e-20)
(2.57114 -0.499171 -1.27982e-18)
(2.43824 -0.754872 -7.92905e-19)
(2.1211 -0.750734 4.06106e-20)
(1.85649 -0.59438 7.81146e-20)
(1.64741 -0.407248 1.68938e-19)
(1.49383 -0.267296 1.41565e-19)
(1.35379 -0.168312 -1.7381e-20)
(1.27817 -0.121798 5.17843e-20)
(1.18774 -0.0825 6.31758e-21)
(2.4588 -0.141523 5.68974e-20)
(2.57791 -0.465677 9.15236e-21)
(2.36699 -0.643522 4.03596e-20)
(2.11697 -0.640996 1.9578e-35)
(1.9125 -0.514576 -3.5383e-20)
(1.71111 -0.350822 -5.3058e-34)
(1.54245 -0.22174 1.83269e-20)
(1.38361 -0.132161 4.53494e-34)
(1.29663 -0.091794 -1.51982e-21)
(1.19381 -0.0646285 2.69482e-21)
(2.47281 -0.171268 -4.30023e-35)
(2.50121 -0.410879 4.5481e-19)
(2.36821 -0.581884 2.8952e-19)
(2.15592 -0.587029 0)
(1.93116 -0.447427 -6.74445e-20)
(1.70137 -0.271832 -1.0092e-19)
(1.51975 -0.149256 -9.13542e-20)
(1.36191 -0.0790912 1.33616e-33)
(1.28236 -0.0531187 -2.77613e-20)
(1.18537 -0.0431463 -3.65189e-21)
(2.4315 -0.189877 3.66247e-20)
(2.445 -0.377486 -1.72562e-21)
(2.33885 -0.519348 0)
(2.13155 -0.501386 0)
(1.90711 -0.358427 0)
(1.67953 -0.194368 0)
(1.49828 -0.088899 5.57356e-21)
(1.34154 -0.0372702 1.57113e-33)
(1.26525 -0.0224274 -2.32855e-21)
(1.173 -0.0250957 -5.23666e-34)
(2.3931 -0.203952 7.06256e-20)
(2.39444 -0.344694 0)
(2.2929 -0.457704 0)
(2.06231 -0.427753 0)
(1.80498 -0.279138 0)
(1.56917 -0.119905 0)
(1.40213 -0.0266742 -1.17894e-20)
(1.26956 0.0066422 4.25144e-20)
(1.21289 0.00867474 -2.72737e-21)
(1.14013 -0.00727877 -1.60132e-21)
(2.34724 -0.208121 0)
(2.31984 -0.313678 1.3648e-19)
(2.15209 -0.387141 9.88541e-20)
(1.84772 -0.329828 0)
(1.56087 -0.181241 -4.97351e-20)
(1.34358 -0.045181 -5.37554e-20)
(1.21855 0.0226156 -4.97686e-20)
(1.13423 0.0356693 -1.97909e-20)
(1.11171 0.027551 1.39294e-20)
(1.07093 0.00470904 -6.42541e-21)
(2.20777 -0.193979 -4.46477e-21)
(2.08423 -0.258271 -2.70552e-21)
(1.78414 -0.276921 -1.21974e-21)
(1.39987 -0.204916 -1.33111e-35)
(1.11779 -0.0845753 1.16225e-20)
(0.96711 0.00916919 -2.37511e-34)
(0.922686 0.0478142 -1.3603e-20)
(0.910205 0.0461386 -2.91956e-20)
(0.930528 0.0326563 -3.00672e-21)
(0.927648 0.00969109 5.66868e-21)
(1.72089 -0.14754 3.06622e-20)
(1.45631 -0.159542 -3.01996e-20)
(1.0554 -0.125714 -1.52249e-20)
(0.696439 -0.0672532 0)
(0.515947 -0.0109603 1.11046e-21)
(0.48023 0.0271469 1.90248e-21)
(0.525463 0.0405872 -8.78228e-21)
(0.57762 0.0336307 5.21938e-21)
(0.629262 0.0224972 -9.4632e-21)
(0.654313 0.00753705 -5.03984e-21)
(0.609538 -0.0257175 0)
(0.389179 -0.00757254 0)
(0.194437 -0.000144495 0)
(0.0675166 -0.00185205 0)
(0.0166402 -0.000645218 0)
(0.0359465 0.00425178 0)
(0.0952997 0.00661231 -1.34112e-20)
(0.152487 0.00515372 4.54351e-35)
(0.197065 0.00323116 -3.3706e-21)
(0.222845 0.000992138 -5.95651e-21)
(2.50103 0.232944 7.89254e-19)
(2.53989 0.16458 4.80678e-20)
(2.55585 0.0956328 -7.77551e-20)
(2.57327 0.0436181 -2.47648e-19)
(2.57636 -0.0184323 -4.49991e-20)
(2.54483 -0.0459559 -6.84022e-20)
(2.53054 -0.106882 -2.13579e-19)
(2.32109 -0.0935667 1.75101e-20)
(2.22572 -0.143468 0)
(1.57844 -0.0567239 2.32338e-20)
(2.42907 0.191445 2.53564e-19)
(2.42825 0.148941 -2.87851e-19)
(2.5072 0.079332 -6.21603e-20)
(2.46831 0.0481753 -1.22345e-19)
(2.57168 -0.0188395 1.00412e-19)
(2.47748 -0.0412004 1.73168e-19)
(2.61267 -0.101315 -2.12342e-19)
(2.43547 -0.129428 4.06373e-21)
(2.5541 -0.160845 -3.59132e-20)
(2.25538 -0.205445 6.52278e-20)
(2.38168 0.158191 -1.14705e-19)
(2.3484 0.12336 2.60292e-19)
(2.45695 0.0667836 1.5715e-19)
(2.39088 0.0335783 -2.63967e-19)
(2.5129 -0.0136898 -4.44087e-20)
(2.42131 -0.0534216 3.64087e-19)
(2.54438 -0.0829453 6.27273e-20)
(2.44793 -0.139316 -6.52368e-20)
(2.53777 -0.141074 -3.53005e-20)
(2.45368 -0.214203 -3.76232e-20)
(2.32702 0.127162 -2.99773e-19)
(2.31026 0.0907169 -5.23624e-20)
(2.39174 0.052947 3.18956e-20)
(2.35892 0.0126668 -1.10056e-20)
(2.43403 -0.0144933 -2.28023e-19)
(2.39838 -0.0627604 -8.17971e-20)
(2.45611 -0.0753503 2.07041e-19)
(2.43485 -0.132457 -1.23035e-20)
(2.46613 -0.131075 3.99715e-20)
(2.46613 -0.192209 1.59028e-20)
(2.27146 0.0963125 4.0656e-20)
(2.28361 0.0608844 1.33248e-19)
(2.33011 0.0345768 -2.02733e-20)
(2.33496 -0.00428218 1.80172e-19)
(2.36975 -0.0236946 -5.67155e-20)
(2.37441 -0.0663973 -2.28117e-19)
(2.39466 -0.0783998 3.53354e-20)
(2.40517 -0.123267 -7.81783e-20)
(2.41258 -0.130134 -2.71957e-21)
(2.4299 -0.174724 -1.57909e-20)
(2.22477 0.0635253 -1.65956e-19)
(2.25236 0.0333094 -7.2344e-20)
(2.28206 0.0120575 -7.12487e-21)
(2.304 -0.0196926 1.11276e-19)
(2.32416 -0.0379333 2.69812e-19)
(2.34279 -0.0708089 -6.72971e-20)
(2.35383 -0.0865234 6.12243e-21)
(2.37107 -0.119595 -7.61233e-20)
(2.37502 -0.133835 -1.12638e-19)
(2.39215 -0.166433 -3.33945e-20)
(2.17494 0.0304914 -5.56072e-20)
(2.20661 0.00650596 -1.25521e-19)
(2.23077 -0.0111087 -1.4796e-19)
(2.25781 -0.0358101 -2.6916e-19)
(2.27457 -0.0525191 7.27742e-20)
(2.29821 -0.0780796 6.64759e-20)
(2.30784 -0.0944617 -2.48915e-22)
(2.32981 -0.120894 8.2123e-20)
(2.33251 -0.137123 -8.93145e-20)
(2.35529 -0.164422 -5.1941e-20)
(2.06698 3.05279e-05 6.21957e-20)
(2.09692 -0.0173295 3.28246e-20)
(2.11298 -0.0302602 1.89973e-20)
(2.14194 -0.0484046 -3.97598e-20)
(2.15086 -0.0611096 -3.79445e-20)
(2.18096 -0.0806298 -4.38317e-20)
(2.18213 -0.0937838 -4.99713e-20)
(2.21583 -0.115253 9.96484e-20)
(2.20803 -0.129146 -4.56293e-20)
(2.2485 -0.152833 1.89112e-20)
(1.74852 -0.0235041 -6.52202e-20)
(1.76243 -0.0327144 -9.60691e-21)
(1.76265 -0.0398103 1.20613e-19)
(1.7789 -0.0494007 -1.45443e-20)
(1.77265 -0.0563387 -3.4581e-20)
(1.79479 -0.0673195 7.22332e-20)
(1.7794 -0.0748407 -5.38284e-20)
(1.81108 -0.0881341 4.06404e-20)
(1.78255 -0.0970007 -1.31278e-20)
(1.82873 -0.113214 -7.47595e-20)
(0.878608 -0.0129012 5.09395e-20)
(0.864799 -0.01249 4.24997e-20)
(0.84929 -0.0121314 4.21376e-20)
(0.837305 -0.0120852 6.91089e-20)
(0.821486 -0.0125033 -3.53645e-20)
(0.812436 -0.0132746 -4.5359e-20)
(0.793314 -0.0146218 2.04337e-20)
(0.789368 -0.0167946 -2.70423e-21)
(0.758244 -0.018142 4.05561e-21)
(0.770313 -0.0259775 -5.94157e-21)
(1.57248 0.962688 -8.63597e-20)
(1.55618 1.00877 2.67943e-20)
(1.55983 1.06266 -6.46654e-19)
(1.56859 1.12396 2.35311e-19)
(1.5752 1.18855 1.21115e-18)
(1.57097 1.24838 -1.47115e-19)
(1.5339 1.28096 -1.07222e-18)
(1.41351 1.23399 -1.28624e-22)
(1.12035 1.01111 -5.26872e-19)
(0.525269 0.485855 1.17813e-19)
(1.73754 0.932652 0)
(1.72606 0.977109 7.46501e-19)
(1.72592 1.02699 1.65271e-18)
(1.73418 1.08561 -1.01913e-18)
(1.74401 1.1486 -2.37827e-18)
(1.74305 1.2063 -1.54813e-19)
(1.70397 1.23499 -1.9846e-19)
(1.56862 1.18304 7.25041e-19)
(1.23752 0.96026 1.09171e-18)
(0.574562 0.454063 4.28848e-19)
(1.8902 0.891703 6.85191e-20)
(1.88752 0.935928 0)
(1.88859 0.982852 -6.77128e-20)
(1.89741 1.03693 1.03875e-18)
(1.90923 1.09507 5.60967e-20)
(1.90948 1.14734 -2.31648e-18)
(1.86578 1.16942 1.46417e-18)
(1.71246 1.11182 8.63949e-19)
(1.34197 0.892084 -9.34432e-19)
(0.614758 0.413108 -2.73746e-19)
(2.02445 0.843217 -1.89664e-19)
(2.03168 0.885281 -1.3916e-19)
(2.03802 0.928391 2.83863e-19)
(2.04966 0.976827 -3.51914e-19)
(2.06337 1.0283 -1.62649e-18)
(2.06309 1.07295 -1.26336e-18)
(2.0117 1.08676 1.32381e-18)
(1.83735 1.02128 8.79011e-19)
(1.42484 0.806009 0)
(0.64097 0.363129 0)
(2.14222 0.778349 -9.31245e-19)
(2.15796 0.818028 -1.70837e-18)
(2.17092 0.857638 -6.56109e-19)
(2.18655 0.90082 -3.38126e-20)
(2.20179 0.945571 0)
(2.19913 0.98153 1.35945e-19)
(2.13661 0.984827 1.56798e-19)
(1.9354 0.913837 1.95698e-19)
(1.4791 0.706444 -2.7965e-19)
(0.649911 0.305307 -6.9985e-20)
(2.24597 0.704835 1.1123e-18)
(2.26828 0.740081 -4.14708e-20)
(2.28693 0.774978 -1.30269e-18)
(2.30599 0.812036 0)
(2.32141 0.848539 0)
(2.31272 0.874721 0)
(2.23281 0.868258 1.48747e-18)
(1.99889 0.791386 -1.63739e-18)
(1.49991 0.593725 -1.03338e-18)
(0.63856 0.24227 1.69138e-20)
(2.33578 0.619455 -1.44379e-18)
(2.36293 0.650298 -3.02896e-18)
(2.38569 0.680572 -5.25304e-21)
(2.40644 0.711562 6.13147e-19)
(2.41894 0.740038 -3.71015e-20)
(2.399 0.756105 1.28919e-18)
(2.29518 0.739242 -7.1268e-19)
(2.02329 0.657042 -1.87517e-18)
(1.4821 0.472672 1.01633e-19)
(0.605615 0.178077 7.92012e-20)
(2.41398 0.530334 -1.12252e-18)
(2.44259 0.555762 1.55997e-20)
(2.46658 0.580517 4.2278e-19)
(2.48602 0.604662 -4.08678e-19)
(2.49131 0.624371 6.35825e-19)
(2.45388 0.629741 1.684e-18)
(2.31828 0.602387 -1.44658e-19)
(2.00227 0.516538 -9.80308e-19)
(1.42147 0.350112 2.21375e-19)
(0.551526 0.117338 4.04487e-20)
(2.47739 0.437204 4.09325e-19)
(2.50605 0.458228 8.02193e-20)
(2.52867 0.477437 -4.19271e-19)
(2.54305 0.494471 -9.84589e-19)
(2.53542 0.505117 6.71582e-20)
(2.47229 0.499854 5.01128e-20)
(2.29568 0.46315 -1.20011e-18)
(1.92997 0.376715 5.14042e-19)
(1.31624 0.233482 1.47319e-19)
(0.478891 0.0645522 -5.61732e-20)
(2.52721 0.346699 7.57227e-19)
(2.55276 0.362782 -1.12818e-18)
(2.57075 0.375916 1.66703e-19)
(2.57499 0.385501 2.22525e-18)
(2.54665 0.387014 1.07737e-18)
(2.44762 0.37183 -2.32466e-18)
(2.22019 0.328001 -2.14079e-18)
(1.80181 0.245268 8.96323e-19)
(1.16776 0.130459 -3.86767e-20)
(0.392517 0.0234114 -1.00704e-19)
(0.54479 0.403097 -1.64787e-19)
(0.504091 0.416867 -1.62567e-19)
(0.4583 0.431519 7.19196e-20)
(0.408047 0.447207 -2.34035e-19)
(0.353012 0.463788 -1.92899e-20)
(0.292348 0.479805 2.13076e-19)
(0.225079 0.489284 3.33412e-20)
(0.151656 0.47515 4.92166e-21)
(0.0791601 0.400534 2.07242e-20)
(0.0161776 0.20416 1.29473e-20)
(0.589001 0.510118 1.31742e-19)
(0.549333 0.53056 1.67743e-19)
(0.505427 0.552474 4.69678e-20)
(0.457477 0.576016 -4.86882e-20)
(0.404836 0.600927 -2.14069e-19)
(0.346381 0.625215 -1.71603e-20)
(0.28042 0.640982 5.06802e-20)
(0.205518 0.625635 4.15783e-20)
(0.124961 0.529831 -1.26189e-19)
(0.0398737 0.271371 -4.36568e-20)
(0.650901 0.609432 -1.07948e-19)
(0.612548 0.635649 -9.38875e-20)
(0.571069 0.663826 9.45571e-20)
(0.526202 0.694439 6.43879e-20)
(0.477013 0.727349 -7.99188e-20)
(0.422056 0.760106 -1.73747e-20)
(0.358562 0.782805 -1.10859e-19)
(0.282211 0.7672 -8.54363e-20)
(0.190397 0.651603 -7.1049e-20)
(0.0737502 0.334213 2.42954e-22)
(0.730249 0.705123 3.05543e-20)
(0.693779 0.737758 -5.5837e-20)
(0.655652 0.772201 -7.78074e-20)
(0.614621 0.809154 -6.48929e-20)
(0.56933 0.848621 -6.58824e-20)
(0.518153 0.887831 -8.03677e-21)
(0.457272 0.915092 -2.91298e-19)
(0.378897 0.897123 6.44278e-20)
(0.272737 0.761602 -3.28568e-19)
(0.116286 0.390036 4.92807e-20)
(0.822454 0.784159 1.01944e-20)
(0.788616 0.821761 1.59344e-20)
(0.755175 0.861734 -5.00899e-20)
(0.719992 0.905126 -2.75364e-19)
(0.680907 0.951703 1.27631e-19)
(0.635483 0.998005 4.64775e-20)
(0.578279 1.03056 3.66327e-20)
(0.497257 1.01135 -1.90678e-19)
(0.372799 0.858151 3.9633e-19)
(0.167341 0.438168 2.87667e-19)
(0.930958 0.862559 -9.89568e-20)
(0.898671 0.904591 -1.92404e-19)
(0.868446 0.947811 1.22807e-20)
(0.837596 0.994717 1.01169e-19)
(0.803925 1.04565 3.77556e-19)
(0.764462 1.09645 2.80748e-19)
(0.711594 1.13144 6.67558e-19)
(0.628007 1.10821 2.73552e-19)
(0.483475 0.937069 1.47287e-19)
(0.223666 0.475759 2.08281e-19)
(1.04551 0.914184 -1.08945e-19)
(1.0195 0.961006 6.31187e-19)
(0.997198 1.00874 4.14747e-19)
(0.974003 1.05993 -5.37689e-19)
(0.947158 1.11517 -2.6901e-19)
(0.913615 1.17025 6.94205e-19)
(0.864145 1.208 -1.07824e-19)
(0.775874 1.18208 -4.7174e-19)
(0.606803 0.996307 2.92533e-20)
(0.285034 0.50228 2.59987e-19)
(1.16656 0.967409 3.12203e-19)
(1.14059 1.01457 5.95533e-20)
(1.12311 1.06263 -7.89749e-19)
(1.10814 1.11565 1.75592e-19)
(1.09091 1.1733 6.09956e-19)
(1.06625 1.22997 -3.33326e-19)
(1.02202 1.26683 -1.05928e-19)
(0.929242 1.23489 -1.93601e-19)
(0.734035 1.03453 1.95645e-20)
(0.347455 0.51648 -3.01784e-19)
(1.29732 0.984835 1.82823e-20)
(1.28199 1.03569 -5.78802e-19)
(1.27178 1.08462 -4.90602e-21)
(1.26233 1.13866 4.96399e-19)
(1.25093 1.19877 -5.16651e-19)
(1.23228 1.25823 1.00975e-18)
(1.191 1.29579 6.77152e-19)
(1.09088 1.2598 -9.96032e-19)
(0.865495 1.04909 -7.92927e-20)
(0.409969 0.517995 -3.33662e-19)
(1.39972 0.994598 -3.51349e-19)
(1.39634 1.04645 -3.30485e-19)
(1.40385 1.0971 3.05613e-19)
(1.40941 1.15176 8.14445e-19)
(1.40956 1.21109 2.90576e-19)
(1.39946 1.26876 -8.37736e-19)
(1.36158 1.30281 1.10933e-19)
(1.25289 1.26043 2.26608e-19)
(0.995098 1.04141 -3.04097e-19)
(0.469796 0.507618 -2.36181e-19)
(0.995995 0.0114142 6.19572e-22)
(1.01076 0.0416335 -1.77142e-20)
(1.0234 0.0516419 -1.36987e-20)
(1.02532 0.0760789 0)
(1.02391 0.0923742 1.61786e-20)
(1.02164 0.118593 2.34659e-20)
(0.999063 0.161721 3.14611e-20)
(0.957794 0.200743 7.15274e-20)
(0.874596 0.265971 -1.1073e-19)
(0.72228 0.334255 -1.6007e-19)
(0.996851 0.00952518 3.65213e-20)
(1.00851 0.0392596 -5.72096e-20)
(1.02296 0.0496823 2.05402e-22)
(1.02327 0.0757208 -1.71996e-20)
(1.02404 0.0927369 8.1883e-21)
(1.02241 0.123037 -1.21194e-20)
(1.00194 0.170745 -7.32491e-20)
(0.967888 0.219661 0)
(0.88744 0.303119 2.30621e-19)
(0.759315 0.404319 -2.60448e-19)
(0.99733 0.00786286 -2.63465e-20)
(1.00725 0.0371538 1.58165e-20)
(1.02244 0.0475195 3.60949e-20)
(1.02304 0.0758215 9.13687e-21)
(1.0245 0.0925592 -1.99347e-20)
(1.02606 0.128115 1.14814e-21)
(1.00565 0.178908 -5.15357e-20)
(0.982758 0.238617 -6.36081e-21)
(0.903286 0.338554 1.74772e-22)
(0.810638 0.47151 7.06943e-19)
(0.997501 0.0063344 -2.94696e-20)
(1.00678 0.0353277 2.2071e-21)
(1.022 0.0450394 2.95197e-20)
(1.02439 0.0764078 1.94943e-20)
(1.02545 0.0916892 -1.00439e-20)
(1.03225 0.133926 -1.44289e-20)
(1.01036 0.185898 7.52641e-20)
(1.00225 0.258188 -1.99343e-21)
(0.921707 0.371101 -2.56525e-19)
(0.876079 0.534429 8.76598e-20)
(0.997464 0.00486293 2.04086e-20)
(1.00682 0.0337415 -2.92623e-20)
(1.0219 0.042188 -2.36936e-20)
(1.02694 0.0774137 1.16218e-20)
(1.02726 0.0900895 0)
(1.04038 0.140409 0)
(1.01684 0.191622 6.40779e-20)
(1.02478 0.278329 6.8598e-22)
(0.945329 0.400673 -1.1791e-19)
(0.951306 0.591196 9.15281e-20)
(0.997323 0.0033922 5.7325e-21)
(1.0071 0.0323006 2.34742e-20)
(1.02248 0.0389594 -6.48209e-20)
(1.03031 0.078689 -2.2563e-20)
(1.03027 0.0878054 -5.42572e-22)
(1.05002 0.147493 6.18508e-20)
(1.02523 0.19587 9.92586e-20)
(1.05095 0.299625 -4.96604e-22)
(0.970542 0.425017 1.95321e-19)
(1.04357 0.64816 -2.15036e-19)
(0.997157 0.0019147 -2.20046e-20)
(1.00742 0.0308702 1.23794e-20)
(1.02403 0.0353902 -1.78648e-20)
(1.0341 0.0800332 -4.82477e-20)
(1.03496 0.0849666 1.7292e-21)
(1.06041 0.154912 -1.55628e-21)
(1.03693 0.198909 -5.2832e-21)
(1.07744 0.321277 -2.15042e-19)
(1.0066 0.445128 1.44268e-19)
(1.12938 0.688712 -5.32458e-19)
(0.996995 0.000435634 -3.72984e-21)
(1.00768 0.0292871 -3.56372e-20)
(1.02674 0.0315418 3.61576e-20)
(1.03805 0.0812434 2.57516e-20)
(1.04159 0.0817457 9.04313e-22)
(1.07129 0.162239 -7.22385e-20)
(1.05175 0.201148 -5.59457e-20)
(1.1065 0.343368 3.85214e-19)
(1.04202 0.462367 1.4448e-20)
(1.24644 0.747016 8.36319e-19)
(0.996835 -0.00102189 1.50191e-20)
(1.00791 0.0273945 1.6209e-20)
(1.03063 0.0275092 4.2538e-20)
(1.04212 0.0821976 -2.84035e-20)
(1.05016 0.0782082 -7.49774e-20)
(1.08227 0.16961 1.05508e-21)
(1.07075 0.200701 -7.73828e-20)
(1.13534 0.36352 5.00714e-19)
(1.09771 0.46187 -8.88026e-21)
(1.31528 0.763648 -1.16072e-18)
(0.996678 -0.00239403 3.44699e-22)
(1.00823 0.0250595 2.52928e-20)
(1.03545 0.0236821 1.40145e-20)
(1.04669 0.0825009 -5.7051e-20)
(1.05941 0.0763325 -7.36031e-20)
(1.09278 0.176798 -6.1517e-20)
(1.09046 0.208464 -1.42861e-19)
(1.16026 0.386683 -4.5238e-19)
(1.15586 0.48948 -2.44443e-19)
(1.45342 0.833154 -1.21837e-18)
(0.996677 -0.0047127 -1.07804e-21)
(1.00816 0.0215164 -5.53657e-21)
(1.04259 0.0160851 -1.61421e-20)
(1.05364 0.0819154 3.15792e-20)
(1.07092 0.0664676 5.58391e-20)
(1.11341 0.180692 -4.02758e-20)
(1.11219 0.191995 1.39069e-19)
(1.20576 0.395872 -4.17598e-19)
(1.21776 0.427294 -1.87695e-19)
(1.46698 0.824307 6.38008e-19)
(0.997238 -0.00815865 1.15936e-21)
(1.00746 0.0158915 1.05722e-20)
(1.05429 0.00375937 -1.11672e-20)
(1.05902 0.0790998 5.80144e-20)
(1.0902 0.0489071 9.60832e-20)
(1.1325 0.177202 1.19137e-19)
(1.15083 0.165536 3.17748e-20)
(1.23282 0.380685 1.9842e-19)
(1.31616 0.375055 3.08717e-19)
(1.4873 0.722878 2.76154e-20)
(0.996925 -0.0115575 -1.41327e-21)
(1.00888 0.0078609 -3.90117e-21)
(1.06845 -0.0083042 3.82846e-21)
(1.06159 0.0738756 4.27442e-21)
(1.11742 0.0306735 2.9427e-34)
(1.14393 0.168856 -6.9318e-21)
(1.19619 0.140194 -5.01324e-34)
(1.24809 0.353727 1.84304e-20)
(1.39107 0.318083 -5.58181e-20)
(1.52757 0.630739 -5.64239e-20)
(0.99416 -0.015656 1.45156e-20)
(1.01626 -0.0031239 -4.41673e-35)
(1.07967 -0.0191336 -4.35047e-21)
(1.06875 0.063716 -2.43861e-20)
(1.14501 0.0139702 -4.85256e-20)
(1.15566 0.156838 -4.03942e-20)
(1.23178 0.116422 -6.40914e-34)
(1.27045 0.321808 -7.62055e-20)
(1.42922 0.26223 -1.42426e-19)
(1.56432 0.538825 9.4723e-20)
(0.988457 -0.0212922 0)
(1.03161 -0.0166238 2.23139e-35)
(1.08467 -0.0286299 0)
(1.08855 0.0468237 0)
(1.16624 -0.000187474 0)
(1.17533 0.139249 0)
(1.25295 0.0954409 -4.49304e-34)
(1.30208 0.282534 0)
(1.4438 0.214539 -1.97583e-20)
(1.59422 0.442562 5.61058e-20)
(0.980353 -0.0290366 2.59279e-21)
(1.05357 -0.0305267 2.2782e-21)
(1.08623 -0.037206 -5.3903e-21)
(1.12072 0.0265021 0)
(1.17994 -0.00931546 0)
(1.2002 0.118138 6.05811e-21)
(1.26748 0.0783649 4.20418e-20)
(1.33336 0.237995 -1.32232e-20)
(1.45912 0.172693 -2.88251e-20)
(1.61758 0.349119 2.16631e-19)
(0.971631 -0.043619 -8.04333e-20)
(1.08011 -0.0507973 1.71557e-21)
(1.0877 -0.0517866 -5.97453e-21)
(1.15555 -0.00209926 -1.50788e-20)
(1.17572 -0.0175683 -2.95337e-20)
(1.21527 0.091299 -1.29788e-20)
(1.26827 0.0617546 -3.50751e-20)
(1.3534 0.188714 -2.97912e-20)
(1.4711 0.133751 -5.47559e-20)
(1.63014 0.263126 6.72044e-20)
(0.965002 -0.0510591 -5.69902e-21)
(1.10201 -0.0591604 -1.80403e-20)
(1.07368 -0.0552322 -6.57536e-21)
(1.15516 -0.0190746 -5.04598e-21)
(1.10925 -0.0148588 -4.73795e-35)
(1.18768 0.0647657 6.35401e-21)
(1.20643 0.0464168 -8.34737e-34)
(1.33731 0.136201 -1.27813e-20)
(1.43063 0.0962367 1.79625e-20)
(1.61788 0.182879 2.56705e-20)
(0.95898 -0.0922968 1.96471e-19)
(1.0579 -0.0890989 -4.90458e-21)
(0.962211 -0.0735731 -7.0805e-21)
(0.995372 -0.0350427 1.36437e-20)
(0.885766 -0.0116106 1.65514e-20)
(1.00573 0.0346366 1.43305e-20)
(0.981287 0.0299173 1.48795e-20)
(1.1748 0.079541 -8.90288e-21)
(1.22912 0.0599239 -1.98582e-20)
(1.47489 0.104084 1.39677e-19)
(0.827357 -0.0463379 8.23523e-21)
(0.730587 -0.033786 -9.35651e-35)
(0.534765 -0.0182766 -8.22869e-21)
(0.476686 -0.00266881 0)
(0.402357 0.000610758 0)
(0.482001 0.00940393 6.25789e-21)
(0.478845 0.00548774 -5.15451e-36)
(0.62284 0.0174564 -1.23411e-20)
(0.680034 0.0098751 -2.63298e-20)
(0.866535 0.018374 5.53727e-20)
(1.67542 0.846835 -1.92304e-19)
(1.77631 0.828528 -2.83594e-19)
(1.89388 0.792831 0)
(2.00218 0.749766 1.58557e-19)
(2.1032 0.689009 6.71112e-19)
(2.19315 0.624351 -1.16114e-19)
(2.2734 0.547513 1.71539e-18)
(2.34777 0.471086 -8.45569e-20)
(2.40727 0.388412 -3.72255e-19)
(2.4648 0.310915 3.27925e-19)
(1.7018 0.69491 9.9088e-20)
(1.77515 0.680598 1.12763e-19)
(1.87432 0.645066 -1.44284e-20)
(1.95674 0.607957 2.20037e-19)
(2.05319 0.550751 -1.79455e-19)
(2.1178 0.501753 -4.15793e-19)
(2.20336 0.434857 -1.265e-19)
(2.2507 0.382908 5.6709e-19)
(2.32887 0.312422 -2.18411e-20)
(2.35607 0.262534 -4.82042e-19)