/*--------------------------------*- C++ -*----------------------------------*\
  =========                 |
  \\      /  F ield         | OpenFOAM: The Open Source CFD Toolbox
   \\    /   O peration     | Website:  https://openfoam.org
    \\  /    A nd           | Version:  13
     \\/     M anipulation  |
\*---------------------------------------------------------------------------*/
FoamFile
{
    format      ascii;
    class       volVectorField;
    location    "38.6";
    object      U;
}
// * * * * * * * * * * * * * * * * * * * * * * * * * * * * * * * * * * * * * //

dimensions      [0 1 -1 0 0 0 0];

internalField   nonuniform List<vector> 
440
(
(-0.0916036 0.0654655 -7.27154e-20)
(-0.105694 0.0841821 5.10553e-20)
(0.0825937 0.0580722 1.11279e-19)
(0.55639 0.0412323 1.01108e-19)
(0.661507 0.125836 1.79683e-20)
(-0.0947095 0.0526999 4.59757e-20)
(0.106678 9.73166e-05 -1.45228e-19)
(0.692009 -0.0606861 -1.29366e-19)
(1.28942 -0.100354 6.84788e-20)
(1.85632 -0.130493 1.23859e-20)
(-0.00650198 -0.00184438 5.62694e-20)
(0.639227 -0.0641941 8.84962e-19)
(1.48443 -0.0703011 -5.64996e-19)
(2.09107 -0.053772 -1.75095e-18)
(2.5477 -0.0556073 7.36792e-19)
(0.243632 -0.0543738 -1.85026e-19)
(1.36367 -0.0073233 -6.41424e-19)
(2.13522 0.0440501 2.08968e-18)
(2.50381 0.0630665 2.28668e-18)
(2.52828 0.0670732 -6.40519e-19)
(0.644608 -0.00143484 -3.29532e-19)
(1.8713 0.175803 -7.11541e-19)
(2.38082 0.233317 2.17109e-18)
(2.49822 0.235924 2.28407e-18)
(2.58519 0.206934 7.59567e-19)
(-0.0162209 0.834419 4.75119e-19)
(-0.0926271 1.20506 8.76357e-19)
(-0.16189 1.15805 -1.85995e-18)
(-0.21286 1.03847 2.90637e-19)
(-0.217029 0.946499 2.0573e-18)
(-0.05587 0.517387 -4.79433e-20)
(-0.00266175 1.06966 -2.23535e-19)
(0.0442165 1.18865 -6.07254e-20)
(0.112916 1.09761 -6.93568e-20)
(0.168378 0.899142 1.30674e-19)
(-0.047101 0.168061 1.4512e-19)
(-0.0387196 0.60166 -3.72936e-19)
(0.00464079 0.83529 1.20238e-19)
(0.0916848 0.881396 2.64467e-19)
(0.170455 0.798086 1.50678e-21)
(-0.0232351 0.0360807 -5.71645e-20)
(-0.0741979 0.248161 1.228e-19)
(-0.0677933 0.44835 -5.00967e-20)
(-0.00393798 0.54904 -2.21855e-19)
(0.0404691 0.607003 7.35531e-21)
(-0.0482399 0.0371958 -3.54758e-20)
(-0.133236 0.119252 -5.25917e-20)
(-0.142796 0.209442 -1.29081e-19)
(-0.0137734 0.264397 -1.38017e-20)
(0.0732193 0.369114 -4.4627e-19)
(0.0272618 0.445598 -7.55197e-19)
(0.908351 -1.17563 1.40532e-18)
(1.12897 -0.503189 1.94776e-19)
(1.28285 0.549 -6.08986e-19)
(1.07453 0.0948542 4.08105e-20)
(0.789136 0.176702 -2.20688e-18)
(2.16377 -1.26089 -2.26278e-19)
(1.26625 -0.571168 1.68194e-19)
(1.31806 0.534296 5.10746e-19)
(1.16048 0.115077 -7.00626e-20)
(0.496514 -0.119694 -1.29823e-18)
(2.25954 -1.37562 1.02407e-18)
(1.29465 -0.445041 -1.02269e-19)
(1.18247 0.59351 4.25887e-19)
(1.20789 0.130608 -5.22498e-21)
(0.871451 -0.182231 2.21972e-20)
(1.84147 -1.42263 -1.89223e-19)
(1.21347 -0.426475 -5.2471e-20)
(0.902905 0.586527 -1.48595e-21)
(1.30931 0.0960485 1.04552e-19)
(1.66113 -0.397072 -6.88033e-20)
(1.71371 -1.35192 5.88159e-19)
(1.00447 -0.366717 0)
(0.69122 0.572935 -2.67101e-19)
(1.46787 0.0267929 5.59617e-20)
(2.37744 -0.313007 -5.04791e-19)
(2.24986 -1.04175 3.46614e-20)
(1.06847 -0.406669 -1.24694e-20)
(1.00081 0.434704 -2.07743e-19)
(1.67345 -0.0922493 -2.07647e-20)
(2.51935 -0.556343 4.4772e-20)
(2.24994 -0.876922 8.71981e-19)
(0.463465 -0.0229838 -9.24056e-21)
(1.25941 0.348112 2.48294e-19)
(1.73219 -0.166037 0)
(2.22114 -0.418845 -4.40487e-19)
(2.00291 -0.385474 1.28156e-20)
(0.527283 0.0167142 -1.70334e-20)
(1.66891 -0.0587905 -2.37395e-20)
(1.67695 -0.262845 5.09175e-21)
(2.1349 -0.350383 6.21671e-20)
(1.33158 -0.238768 7.73717e-20)
(0.939489 0.0899629 -1.6194e-20)
(1.61265 -0.135638 7.10708e-35)
(1.07269 -0.158715 -2.1355e-20)
(1.12276 -0.0736999 1.61538e-19)
(0.438732 0.0414014 -2.6542e-20)
(0.68775 -0.0762014 -4.95515e-20)
(0.447457 -0.0995561 2.07842e-20)
(-0.0130008 -0.0158191 -1.2705e-20)
(2.42209 0.226182 -9.30512e-19)
(2.65174 -0.0280449 -1.19203e-18)
(2.46371 0.0231018 9.0933e-19)
(2.8384 -0.197705 6.99478e-20)
(2.18427 -0.0218031 -9.53775e-21)
(2.07397 0.151041 5.05199e-20)
(2.44266 -0.0624804 -3.97462e-20)
(2.19002 -0.0375059 -1.36709e-19)
(2.52266 -0.222781 -2.29228e-19)
(2.33112 -0.258863 -5.98727e-21)
(2.10673 0.0559254 6.71785e-20)
(2.24411 -0.0495984 1.11067e-19)
(2.20261 -0.0872792 -1.51827e-19)
(2.25563 -0.172499 5.00033e-20)
(2.28087 -0.234523 3.34194e-20)
(2.11211 -0.00626 1.11812e-19)
(2.12337 -0.0696474 1.08768e-19)
(2.16343 -0.0860333 -1.77689e-20)
(2.14894 -0.146418 1.72745e-21)
(2.17443 -0.17063 2.57619e-20)
(1.56418 -0.0302523 1.52658e-19)
(1.4816 -0.0287662 -1.30738e-20)
(1.52582 -0.0457512 2.76799e-20)
(1.41049 -0.0403768 -8.68184e-21)
(1.45697 -0.0685766 3.91226e-20)
(1.57496 0.835643 1.16709e-18)
(1.53787 0.941194 -3.86807e-19)
(1.54644 1.07876 -1.40355e-18)
(1.47646 1.12597 7.53402e-19)
(0.901914 0.804253 -1.71878e-19)
(1.88442 0.814835 -5.91603e-19)
(1.84714 0.888101 -3.12559e-18)
(1.84965 0.991719 -1.20401e-18)
(1.76173 1.00394 -4.16137e-19)
(1.07476 0.703759 -6.8278e-19)
(2.17673 0.663494 7.86544e-19)
(2.16743 0.739561 2.01999e-19)
(2.1476 0.833504 -2.35305e-18)
(2.01153 0.822491 -6.68913e-19)
(1.1929 0.550964 4.95754e-19)
(2.36581 0.557559 2.36776e-18)
(2.34618 0.60532 1.75919e-18)
(2.34147 0.65897 -2.03477e-18)
(2.13709 0.620492 -1.56395e-18)
(1.18054 0.367082 -2.89974e-19)
(2.49446 0.376013 1.21548e-18)
(2.52652 0.404886 -8.60244e-19)
(2.44089 0.436855 6.22851e-19)
(2.11003 0.38925 4.98444e-19)
(1.01117 0.167229 -4.31953e-19)
(0.573478 0.504344 -6.14076e-19)
(0.479759 0.542193 -4.50724e-19)
(0.360368 0.578565 4.51189e-20)
(0.224515 0.577083 3.81073e-21)
(0.0553886 0.407598 8.70574e-20)
(0.685254 0.659341 1.08868e-19)
(0.622046 0.716465 -2.79449e-19)
(0.533292 0.782163 1.81473e-19)
(0.407695 0.840395 -8.49681e-20)
(0.178608 0.637147 1.20259e-19)
(0.779462 0.870431 9.09356e-20)
(0.708013 0.955731 4.78746e-19)
(0.654607 1.05126 1.29261e-19)
(0.570223 1.08081 -3.1722e-19)
(0.31203 0.787918 2.69167e-19)
(1.06094 0.917046 2.4831e-19)
(1.0108 0.997641 -7.72186e-19)
(0.963611 1.09923 -2.0129e-18)
(0.884959 1.16876 7.95073e-19)
(0.520668 0.864138 -1.59169e-19)
(1.13661 0.985345 -9.80143e-20)
(1.17352 1.10322 -1.74824e-19)
(1.19524 1.21095 -3.89279e-19)
(1.14007 1.22622 -4.33931e-19)
(0.698668 0.870581 -6.79209e-21)
(1.01806 0.039737 -9.29831e-20)
(1.00386 0.0462968 -3.02969e-20)
(1.034 0.143364 -1.38254e-21)
(0.941621 0.149376 -2.16227e-19)
(0.907205 0.311416 2.97462e-19)
(1.00847 0.0352036 5.83745e-20)
(1.02079 0.0447483 1.13467e-19)
(1.01355 0.154477 1.26028e-19)
(0.988869 0.17458 3.05738e-20)
(0.934459 0.391379 -1.77209e-20)
(1.01916 0.0331341 7.88364e-20)
(0.999177 0.0375575 -4.41044e-21)
(1.05983 0.175977 -5.02215e-21)
(0.931195 0.169683 1.40847e-19)
(1.16553 0.538626 -4.85288e-19)
(1.01896 0.0312731 -2.28228e-22)
(1.00918 0.0320152 -1.58379e-19)
(1.04163 0.19668 -6.29946e-20)
(1.04703 0.162191 -3.57162e-19)
(1.17123 0.59475 9.02146e-20)
(1.02375 0.0248718 -1.28276e-20)
(0.99053 0.0369689 4.41013e-20)
(1.09656 0.190994 2.90237e-20)
(1.01988 0.191493 4.42261e-19)
(1.39904 0.722082 -4.72641e-19)
(0.999176 0.0295566 -8.58358e-21)
(1.02939 0.0135872 9.41268e-20)
(1.06893 0.22071 -5.97782e-20)
(1.2797 0.101886 9.90719e-19)
(1.32189 0.787589 -3.51558e-19)
(0.953203 0.00430152 -1.23236e-21)
(1.08912 0.0220118 -7.6795e-20)
(1.00455 0.124762 5.59472e-21)
(1.45131 0.0870034 -3.27251e-19)
(1.31458 0.573919 -7.82052e-20)
(0.970922 0.0071636 5.28661e-21)
(1.06982 0.0211389 1.44813e-35)
(1.14261 0.0512663 -2.51063e-20)
(1.37538 0.0480713 9.76194e-20)
(1.34287 0.426572 1.78779e-19)
(1.02536 -0.0267145 3.77371e-21)
(1.03605 -0.0211278 -2.72992e-20)
(1.25197 -0.0170727 2.11118e-20)
(1.07114 0.0486435 2.00558e-20)
(1.50488 0.308367 -2.63469e-19)
(0.950811 -0.0219575 -3.75442e-20)
(0.86245 -0.027766 6.04634e-22)
(0.896083 -0.0010205 2.75057e-20)
(0.714892 0.0143462 -2.11815e-20)
(1.21986 0.0745617 -6.0523e-20)
(1.8186 0.592378 2.88446e-19)
(1.92048 0.652 7.38315e-19)
(2.17189 0.477437 -1.07093e-18)
(2.24451 0.485242 2.80811e-20)
(2.44704 0.235697 4.59321e-19)
(1.74832 0.367471 8.64249e-20)
(1.76188 0.443534 1.00423e-18)
(1.99857 0.289994 1.13142e-19)
(1.94999 0.329041 -8.72631e-19)
(2.24646 0.110891 -2.7738e-19)
(1.71049 0.308856 -2.25853e-19)
(1.7924 0.302752 -1.45922e-19)
(1.94628 0.211358 2.45949e-19)
(1.97339 0.191597 -2.78763e-19)
(2.13844 0.0775443 2.55159e-19)
(1.73156 0.180696 4.07431e-19)
(1.85839 0.154208 1.28707e-21)
(1.91847 0.0931653 2.19197e-19)
(2.0131 0.0740092 1.73966e-19)
(2.04892 0.00996658 -1.71033e-19)
(1.41098 0.0343351 -5.27608e-20)
(1.508 0.0161561 2.54464e-19)
(1.51181 0.00294613 1.05162e-19)
(1.56947 -0.0108734 -2.04651e-19)
(1.51878 -0.016512 6.59211e-22)
(1.11245 -0.0150626 6.69385e-20)
(2.09624 -0.0363762 -4.2434e-19)
(2.32458 -0.0263021 1.16675e-18)
(2.30757 0.0109622 5.21938e-19)
(2.13312 0.0348012 -3.68349e-19)
(0.717352 0.0990213 1.32144e-19)
(1.88114 0.0999527 -4.42851e-19)
(2.32533 0.103912 -6.13624e-19)
(2.36578 0.110498 7.78783e-19)
(2.13185 0.0964134 -5.28861e-19)
(0.257213 0.0904286 -5.64658e-21)
(1.29434 0.167897 4.96259e-19)
(2.00124 0.193774 6.64405e-20)
(2.36642 0.187106 5.78768e-19)
(2.47153 0.177123 2.80016e-19)
(0.00114213 0.000986304 1.83272e-19)
(0.522363 0.111926 1.92287e-19)
(1.27382 0.186918 -4.78459e-19)
(1.74586 0.222729 3.60578e-20)
(2.29402 0.249538 2.38762e-19)
(-0.0620827 -0.0490064 9.51128e-20)
(0.0705774 -0.00340073 -1.26613e-19)
(0.505136 0.0852079 -7.6405e-20)
(0.961284 0.131713 5.33585e-20)
(1.37962 0.211801 1.33394e-20)
(-0.0716102 -0.0868045 4.00434e-20)
(-0.091523 -0.114936 5.94419e-20)
(0.0305172 -0.0884791 8.52638e-20)
(0.228375 -0.0216888 -2.5976e-19)
(0.596706 0.0511375 4.5694e-21)
(-0.0250636 -0.0396922 2.08752e-21)
(-0.0258265 -0.0707649 -3.50444e-20)
(0.00934354 -0.0484496 -4.00074e-20)
(0.0779668 0.00958415 9.90363e-20)
(0.230755 0.115093 7.17698e-20)
(-0.0513288 -0.214609 -1.40386e-20)
(-0.0147272 -0.330184 -9.13543e-19)
(0.0155003 -0.306091 4.78744e-19)
(0.00939308 -0.234448 6.84472e-19)
(0.0168357 -0.1522 -5.82318e-20)
(-0.11763 -0.253237 9.47743e-20)
(-0.291071 -0.0896502 7.06283e-19)
(-0.388979 0.231111 -1.8252e-18)
(-0.522282 0.390241 -1.36133e-18)
(-0.581844 0.439211 1.386e-19)
(-0.0991872 0.407646 -1.35696e-19)
(-0.49573 0.587922 4.46848e-19)
(-0.76604 0.636517 -1.47145e-19)
(-0.911132 0.62793 1.00585e-19)
(-0.964636 0.57456 9.81017e-19)
(1.12353 0.68226 -3.07123e-20)
(0.808958 -0.0379315 1.01042e-18)
(1.36809 0.195195 -5.5862e-22)
(0.453089 0.122517 3.55624e-20)
(0.403779 -0.126541 -5.58783e-21)
(1.11258 0.670069 1.60689e-19)
(0.44135 -0.142502 -6.09607e-19)
(1.51683 0.246636 -2.3123e-19)
(0.809816 0.216424 1.06648e-20)
(0.591927 -0.0971062 -9.51378e-21)
(0.621096 0.530853 4.47971e-20)
(-0.219771 -0.217864 2.0414e-19)
(1.62789 0.176609 -4.25915e-20)
(1.08842 0.317452 -3.77975e-20)
(0.76833 -0.0554113 6.01204e-21)
(-0.559425 0.687441 9.56801e-19)
(-0.61673 -0.534539 -7.72405e-18)
(1.61224 0.0117134 4.52144e-19)
(1.28096 0.425552 -1.37786e-20)
(0.925035 -0.00156221 5.72958e-20)
(-1.04128 0.366 5.56579e-19)
(-0.38965 -1.07617 -9.67049e-19)
(1.38501 -0.318003 -2.59815e-19)
(1.37888 0.473939 6.85952e-20)
(1.03441 0.0562464 1.13956e-19)
(0.0660102 0.156523 -1.29954e-19)
(-0.258214 -0.138646 0)
(0.126534 -0.0853835 -3.49412e-21)
(-0.178983 -0.0424453 2.65339e-20)
(0.298046 -0.0288744 -1.04329e-20)
(1.54105 0.552586 0)
(0.95301 0.111218 0)
(1.09395 0.0732662 1.57969e-19)
(0.0769884 -0.0146641 2.36e-20)
(0.39738 -0.118007 3.97385e-20)
(0.687096 0.00116223 -1.24194e-19)
(0.703804 -0.0036947 2.09751e-19)
(0.928501 0.00148028 -5.2699e-20)
(0.875969 0.013037 2.89172e-19)
(1.28749 0.0944867 2.08285e-19)
(1.55022 0.0264548 1.17718e-19)
(1.66174 0.0691235 2.96552e-19)
(1.84664 0.0599054 -4.76475e-19)
(2.31206 0.201613 7.25768e-20)
(2.12069 0.166871 2.5337e-19)
(0.873639 -0.453654 -3.17294e-20)
(0.858527 -0.539282 -1.54602e-19)
(0.845535 -0.632028 -9.93749e-20)
(0.774142 -0.696123 6.11851e-20)
(0.470096 -0.544393 1.23465e-19)
(0.771355 -0.354131 1.22366e-19)
(0.716852 -0.416794 2.46465e-19)
(0.645863 -0.485932 -3.96699e-20)
(0.536881 -0.544692 1.35648e-19)
(0.292221 -0.434667 5.39947e-20)
(0.635078 -0.212079 -1.45721e-19)
(0.550004 -0.249436 -5.1884e-20)
(0.448917 -0.295472 1.20171e-19)
(0.328552 -0.33674 -1.20892e-20)
(0.143151 -0.27327 -1.17674e-19)
(0.541682 0.0200814 -4.28788e-19)
(0.455229 0.00759198 -3.53455e-19)
(0.3442 -0.0122842 2.81467e-19)
(0.216785 -0.0412932 1.71056e-19)
(0.0562644 -0.0572202 1.34691e-20)
(0.519234 0.225782 -1.58092e-19)
(0.432782 0.229675 -1.63186e-19)
(0.315887 0.2339 -6.64975e-20)
(0.179054 0.242473 2.23268e-20)
(0.0246327 0.178542 1.12436e-20)
(1.91609 -0.0383644 7.59711e-19)
(2.16585 -0.0999524 2.5225e-19)
(2.24274 -0.178942 -6.72954e-19)
(2.09738 -0.204926 -1.37906e-18)
(1.25638 -0.174138 1.2007e-19)
(1.88622 -0.118541 1.25309e-18)
(1.9817 -0.224546 1.67032e-18)
(2.00473 -0.339977 1.40839e-19)
(1.92366 -0.395099 2.49173e-19)
(1.2249 -0.337827 -1.64159e-19)
(1.62141 -0.272803 -3.2326e-18)
(1.68842 -0.385648 3.5147e-19)
(1.73437 -0.50433 1.01929e-18)
(1.67206 -0.57265 -3.74268e-19)
(1.07954 -0.475913 5.93473e-19)
(1.41748 -0.390594 7.71503e-19)
(1.43915 -0.485809 -2.05325e-18)
(1.43076 -0.598305 -2.33145e-18)
(1.3633 -0.677227 7.02671e-19)
(0.876257 -0.549301 4.87896e-19)
(1.15135 -0.444895 1.57906e-19)
(1.11556 -0.535257 2.37129e-19)
(1.10726 -0.65022 -3.52873e-19)
(1.05088 -0.72908 -4.24541e-19)
(0.664054 -0.574399 -3.90766e-21)
(1.07432 0.0530882 7.49578e-21)
(0.930688 0.0632965 -2.49324e-21)
(1.10623 0.0858469 2.53262e-21)
(0.806256 0.0164639 -2.2467e-19)
(1.04378 -0.184436 -1.40563e-20)
(1.08336 0.0546416 -2.46208e-21)
(0.928222 0.0618116 3.77075e-20)
(1.10766 0.104204 -2.6124e-20)
(0.889583 0.0647717 1.60477e-19)
(0.956623 -0.0701097 -8.85758e-21)
(1.08062 0.0498251 -5.94697e-20)
(0.932182 0.0591204 1.13836e-22)
(1.09552 0.107532 -1.64935e-20)
(0.89323 0.0894312 7.60632e-20)
(0.9312 -0.00815816 -2.02104e-19)
(1.06007 0.0470192 7.17233e-20)
(0.959493 0.0547344 3.16905e-21)
(1.0634 0.116465 2.99509e-20)
(0.925132 0.113929 -2.28228e-20)
(0.855947 0.100761 8.75763e-20)
(1.03288 0.0423072 1.7991e-20)
(0.992582 0.0531968 -2.60771e-20)
(1.03199 0.124495 4.27935e-20)
(0.952693 0.140269 5.30089e-20)
(0.838219 0.203209 -8.94482e-20)
(0.892328 0.0340356 0)
(0.707165 0.0285978 9.97823e-21)
(0.586429 0.0228462 5.27248e-21)
(0.327262 -0.00515486 3.97276e-20)
(0.623525 -0.0490637 -1.35628e-19)
(1.04086 0.0743536 -6.53351e-20)
(0.939782 0.0771642 -1.24607e-20)
(1.00637 0.0847545 -4.5931e-20)
(0.787369 0.00713471 -1.27505e-19)
(0.981495 -0.172619 -1.46849e-19)
(0.858978 -0.0635877 -3.23814e-20)
(0.943286 -0.0303879 4.88608e-19)
(1.02594 0.034635 2.90938e-19)
(0.90882 0.0480966 3.10075e-20)
(0.70807 0.025236 0)
(1.21209 -0.298278 3.0704e-19)
(1.32161 -0.26366 1.37749e-18)
(1.48512 -0.148322 -1.4978e-18)
(1.57592 -0.0215394 -4.60503e-19)
(1.4819 0.0237148 3.57133e-19)
)
;

boundaryField
{
    left
    {
        type            fixedValue;
        value           uniform (1 0 0);
    }
    right
    {
        type            zeroGradient;
    }
    down
    {
        type            noSlip;
    }
    up
    {
        type            noSlip;
    }
    cylinder
    {
        type            noSlip;
    }
    defaultFaces
    {
        type            empty;
    }
}


// ************************************************************************* //
