# Selection   : all
# Cells       : 440
# Volume      : 7.374263e+01
# Time        	maxMag(U)
3.8           	2.789839e+00
3.85          	2.781712e+00
3.9           	2.773038e+00
