# Selection   : all
# Cells       : 440
# Volume      : 7.374263e+01
# Time        	max(p)
0.2           	1.887470e+00
0.25          	1.806068e+00
0.3           	1.771197e+00
