/*--------------------------------*- C++ -*----------------------------------*\
  =========                 |
  \\      /  F ield         | OpenFOAM: The Open Source CFD Toolbox
   \\    /   O peration     | Website:  https://openfoam.org
    \\  /    A nd           | Version:  13
     \\/     M anipulation  |
\*---------------------------------------------------------------------------*/
FoamFile
{
    format      ascii;
    class       volScalarField;
    location    "72.3";
    object      p;
}
// * * * * * * * * * * * * * * * * * * * * * * * * * * * * * * * * * * * * * //

dimensions      [0 2 -2 0 0 0 0];

internalField   nonuniform List<scalar> 
440
(
-1.39091
-1.39446
-1.4144
-1.42227
-1.45074
-1.3477
-1.328
-1.31749
-1.31062
-1.29951
-1.44532
-1.40408
-1.35606
-1.29671
-1.2267
-1.55138
-1.49558
-1.39465
-1.27183
-1.14661
-1.61506
-1.53947
-1.3749
-1.20392
-1.04727
-0.948244
-0.928911
-0.899935
-0.866657
-0.823212
-1.00136
-0.98968
-0.974039
-0.953573
-0.927788
-1.09576
-1.10721
-1.12484
-1.14057
-1.15403
-1.14855
-1.19693
-1.26941
-1.34154
-1.40066
-1.32885
-1.36499
-1.42546
-1.47769
-1.51314
-0.656845
-0.665042
-1.17731
-1.39394
-0.00270398
-0.840773
-0.430387
-1.09584
-1.32023
-0.0243234
-1.05141
-0.178969
-1.0053
-1.24323
-0.0460238
-1.16201
0.0867004
-0.848832
-1.17172
-0.0655074
-1.12453
0.309884
-0.603234
-1.02708
-0.0842823
-0.750503
0.443253
-0.356671
-0.816076
-0.107089
-0.327771
0.137634
-0.275103
-0.517603
-0.120488
-0.362096
0.308282
-0.0916046
-0.286962
-0.12875
-0.27816
0.384761
0.0435068
-0.183936
-0.130079
-0.251261
0.397008
0.190347
-0.0675854
-0.127698
-0.782126
-0.903147
-1.06735
-1.2231
-1.37147
-0.506364
-0.618806
-0.693053
-0.718559
-0.699353
-0.317843
-0.416904
-0.472439
-0.50305
-0.505285
-0.204368
-0.299958
-0.35786
-0.387426
-0.38815
-0.154111
-0.249036
-0.306081
-0.334537
-0.327468
0.57673
0.433028
0.252058
0.0444862
-0.19378
0.15618
-0.00164284
-0.197263
-0.421752
-0.680086
-0.258233
-0.425547
-0.63652
-0.8728
-1.11139
-0.618143
-0.793554
-1.00803
-1.23924
-1.42483
-0.874174
-1.04981
-1.2518
-1.4626
-1.5852
1.83817
1.86883
1.89853
1.91524
1.91449
1.639
1.65806
1.67216
1.66988
1.64653
1.39968
1.39079
1.36015
1.30654
1.22615
1.12726
1.0919
1.02256
0.921996
0.790001
0.86149
0.764983
0.636302
0.482152
0.292615
1.59538
1.58115
1.57596
1.62575
1.72764
1.58443
1.56768
1.55566
1.59454
1.63562
1.57442
1.55165
1.53286
1.55145
1.51895
1.56556
1.5323
1.50719
1.4991
1.3518
1.55784
1.5137
1.47978
1.4408
1.17062
1.55076
1.47861
1.44361
1.34133
0.971779
1.54629
1.44228
1.41306
1.25036
0.984501
1.55272
1.41983
1.38384
1.19577
0.925605
1.54275
1.39842
1.3673
1.15911
0.868844
1.58215
1.39133
1.36316
1.1405
0.841882
0.55091
0.242808
-0.10171
-0.398023
-0.602494
0.483513
0.268762
0.0322713
-0.179805
-0.356832
0.489789
0.322004
0.141833
-0.0297147
-0.189213
0.521728
0.381715
0.226376
0.0667367
-0.0829816
0.542034
0.412006
0.265517
0.109171
-0.0354655
-1.35527
-1.21248
-1.04449
-0.905252
-0.822704
-1.38664
-1.32485
-1.19577
-1.08713
-1.01754
-1.28345
-1.23584
-1.1582
-1.08564
-1.03041
-1.11337
-1.07169
-1.0276
-0.987209
-0.952729
-0.972939
-0.952292
-0.923246
-0.907404
-0.91933
-0.890891
-0.886123
-0.853917
-0.875272
-0.8411
-0.856424
-0.850149
-0.829445
-0.82601
-0.798715
-0.865395
-0.857436
-0.839239
-0.813282
-0.796516
-0.89414
-0.884
-0.868536
-0.851152
-0.841789
-0.914408
-0.898903
-0.875299
-0.851013
-0.827073
-0.847854
-0.593087
-0.564271
-0.776155
0.121278
-0.803244
-0.597951
-0.693932
-0.824789
0.0893266
-0.649279
-0.620303
-0.867619
-0.975401
0.062701
-0.670116
-0.742938
-1.04955
-1.19632
0.0403435
-0.680591
-0.823039
-1.1719
-1.36019
0.0189711
-0.280729
-0.712078
-0.527211
-0.738238
0.170644
-0.736326
-0.684255
-0.460999
-0.75348
0.153261
-0.776719
-0.990633
-0.967889
-0.920986
-0.66288
-0.79557
-0.987244
-0.990666
-0.925741
-0.911282
1.5903
1.56596
1.52405
1.46593
1.38971
1.75171
1.77195
1.77611
1.76285
1.73335
1.88834
1.9209
1.94414
1.9545
1.95101
1.95781
1.9972
2.03872
2.07293
2.08895
1.94312
1.98039
2.02142
2.05548
2.07103
-0.399068
-0.505288
-0.672313
-0.872363
-1.10623
0.168854
0.0332224
-0.147926
-0.366498
-0.644632
0.681493
0.540456
0.371496
0.171835
-0.0793772
1.08793
0.979609
0.847427
0.686155
0.490507
1.40986
1.33474
1.23523
1.11517
0.974462
1.66302
1.62074
1.62319
1.6469
1.6895
1.64696
1.61616
1.61879
1.65605
1.7352
1.63291
1.61
1.6149
1.6668
1.79715
1.6196
1.60239
1.60561
1.66372
1.79717
1.60706
1.59297
1.59229
1.65017
1.78005
1.71986
1.62887
1.61589
1.57992
1.58626
1.67405
1.61901
1.60914
1.59697
1.58855
1.30053
1.10574
0.749393
0.217866
-0.366778
1.37811
1.134
0.761321
0.235748
-0.359265
)
;

boundaryField
{
    left
    {
        type            zeroGradient;
    }
    right
    {
        type            fixedValue;
        value           uniform 0;
    }
    down
    {
        type            zeroGradient;
    }
    up
    {
        type            zeroGradient;
    }
    cylinder
    {
        type            zeroGradient;
    }
    defaultFaces
    {
        type            empty;
    }
}


// ************************************************************************* //
