# Selection   : all
# Cells       : 1800
# Volume      : 7.372328e+01
# Time        	minMag(U)
1.15          	5.226240e-03
1.175         	3.584773e-03
1.2           	3.102349e-03
