# Selection   : all
# Cells       : 440
# Volume      : 7.374263e+01
# Time        	max(p)
2             	1.952540e+00
2.05          	1.939447e+00
2.1           	1.924729e+00
