/*--------------------------------*- C++ -*----------------------------------*\
  =========                 |
  \\      /  F ield         | OpenFOAM: The Open Source CFD Toolbox
   \\    /   O peration     | Website:  https://openfoam.org
    \\  /    A nd           | Version:  13
     \\/     M anipulation  |
\*---------------------------------------------------------------------------*/
FoamFile
{
    format      ascii;
    class       volScalarField;
    location    "4.79";
    object      p;
}
// * * * * * * * * * * * * * * * * * * * * * * * * * * * * * * * * * * * * * //

dimensions      [0 2 -2 0 0 0 0];

internalField   nonuniform List<scalar> 
440
(
-0.720677
-0.702271
-0.706467
-0.666574
-0.763384
-0.775321
-0.755248
-0.734573
-0.709444
-0.702836
-0.881186
-0.849704
-0.816968
-0.781789
-0.747481
-1.0175
-0.972716
-0.900516
-0.816993
-0.735558
-1.12122
-1.06341
-0.934298
-0.802603
-0.682385
-0.904759
-0.91824
-0.944035
-0.975862
-1.00179
-0.784376
-0.795759
-0.816271
-0.840419
-0.864244
-0.766645
-0.76618
-0.77012
-0.778274
-0.789295
-0.755022
-0.74671
-0.740089
-0.733609
-0.728662
-0.701066
-0.688131
-0.667328
-0.637862
-0.63348
-1.07587
-0.987528
-0.727166
-0.210332
0.0211816
-1.01899
-1.057
-0.785732
-0.243019
0.0155508
-0.963829
-1.13943
-0.824447
-0.278427
0.00317842
-0.879664
-1.18709
-0.831351
-0.305695
-0.0104407
-0.755484
-1.21042
-0.818344
-0.325836
-0.0260941
-0.543655
-1.17216
-0.772136
-0.332594
-0.052993
-0.468149
-0.925463
-0.690468
-0.35835
-0.090145
-0.411805
-0.686572
-0.609871
-0.398682
-0.12709
-0.337906
-0.524082
-0.558916
-0.396303
-0.130823
-0.280847
-0.379087
-0.498111
-0.422348
-0.147869
-0.471297
-0.584216
-0.711099
-0.850751
-0.922348
-0.254224
-0.380718
-0.457201
-0.515114
-0.525194
-0.111811
-0.225733
-0.303415
-0.356574
-0.393042
-0.0243679
-0.130905
-0.214254
-0.266592
-0.30942
0.0170159
-0.0898803
-0.175871
-0.228087
-0.263137
0.764174
0.610046
0.416277
0.209112
-0.006705
0.368095
0.208351
0.0163501
-0.194007
-0.419432
-0.00743138
-0.16589
-0.358826
-0.581331
-0.77523
-0.334381
-0.49142
-0.678466
-0.878896
-1.02991
-0.54279
-0.692383
-0.862601
-1.03834
-1.13725
1.88796
1.91779
1.94451
1.95674
1.95146
1.6921
1.71059
1.7234
1.71933
1.6936
1.46816
1.44992
1.40849
1.34604
1.25849
1.20756
1.17158
1.09946
0.996935
0.86854
0.971921
0.865856
0.729789
0.578409
0.39759
1.61878
1.61736
1.62262
1.70852
1.77728
1.60861
1.60772
1.60383
1.68933
1.68903
1.59955
1.5957
1.58214
1.65846
1.57609
1.59174
1.58184
1.55967
1.60145
1.39913
1.58516
1.56834
1.53607
1.56617
1.21579
1.57956
1.54534
1.50467
1.45377
1.01529
1.57423
1.52066
1.49877
1.31842
1.10742
1.58087
1.5073
1.49244
1.29738
1.17845
1.57738
1.48139
1.49086
1.23798
1.23957
1.6135
1.48121
1.49147
1.19907
1.29284
0.749879
0.465958
0.147111
-0.124292
-0.31344
0.666784
0.46797
0.251363
0.0671434
-0.112576
0.661865
0.490668
0.322779
0.173598
0.0188276
0.735274
0.54468
0.389572
0.247576
0.105567
0.7794
0.582323
0.4293
0.28519
0.149652
-1.68101
-1.54038
-1.37679
-1.24348
-1.16467
-1.77278
-1.70201
-1.57006
-1.45659
-1.38345
-1.69649
-1.64336
-1.55781
-1.48345
-1.43171
-1.52999
-1.4834
-1.43984
-1.40541
-1.38305
-1.40473
-1.37845
-1.35906
-1.34888
-1.34502
-1.34698
-1.3338
-1.32579
-1.33607
-1.30369
-1.30623
-1.29669
-1.28952
-1.29071
-1.28487
-1.29047
-1.28656
-1.28689
-1.29577
-1.31014
-1.23035
-1.24004
-1.26228
-1.29489
-1.3318
-1.07725
-1.09205
-1.12094
-1.15743
-1.19028
-1.23137
-0.732185
-0.31538
-0.103988
-0.0120827
-1.22892
-0.690323
-0.290053
-0.0994175
-0.0036499
-1.21068
-0.719337
-0.310609
-0.11576
0.00533164
-1.18977
-0.810052
-0.408119
-0.143095
0.0125556
-1.13215
-0.90764
-0.599121
-0.175728
0.018861
-0.890341
-0.846871
-0.426498
-0.130938
-0.0167379
-1.139
-0.793654
-0.355779
-0.110566
-0.0138904
-1.11537
-1.34
-1.40787
-1.36695
-1.16891
-1.13637
-1.34887
-1.41235
-1.36633
-1.3144
1.51738
1.49475
1.45448
1.39843
1.32377
1.71501
1.73474
1.7406
1.73058
1.70456
1.8816
1.91379
1.93913
1.95269
1.95256
1.97929
2.01884
2.06129
2.09562
2.11141
1.98071
2.01654
2.05601
2.08729
2.10058
-0.682704
-0.786041
-0.948621
-1.14481
-1.37322
-0.0664166
-0.200204
-0.379818
-0.596221
-0.870236
0.488582
0.34603
0.178628
-0.0166941
-0.2611
0.937865
0.831414
0.701012
0.541554
0.348548
1.29412
1.21891
1.12333
1.00916
0.873853
1.67934
1.65069
1.66243
1.67267
1.67586
1.66477
1.64557
1.66103
1.69232
1.74336
1.65245
1.64001
1.65821
1.71367
1.8195
1.64068
1.6334
1.65067
1.72122
1.83105
1.62933
1.62645
1.63827
1.72026
1.8236
1.73296
1.65963
1.65012
1.59738
1.53469
1.68976
1.64806
1.64751
1.61806
1.5556
1.17317
0.943106
0.547931
-0.0234577
-0.654083
1.26013
0.977918
0.566826
-0.00199158
-0.644635
)
;

boundaryField
{
    left
    {
        type            zeroGradient;
    }
    right
    {
        type            fixedValue;
        value           uniform 0;
    }
    down
    {
        type            zeroGradient;
    }
    up
    {
        type            zeroGradient;
    }
    cylinder
    {
        type            zeroGradient;
    }
    defaultFaces
    {
        type            empty;
    }
}


// ************************************************************************* //
