/*--------------------------------*- C++ -*----------------------------------*\
  =========                 |
  \\      /  F ield         | OpenFOAM: The Open Source CFD Toolbox
   \\    /   O peration     | Website:  https://openfoam.org
    \\  /    A nd           | Version:  13
     \\/     M anipulation  |
\*---------------------------------------------------------------------------*/
FoamFile
{
    format      ascii;
    class       surfaceScalarField;
    location    "7.81";
    object      phi;
}
// * * * * * * * * * * * * * * * * * * * * * * * * * * * * * * * * * * * * * //

dimensions      [0 3 -1 0 0 0 0];

internalField   nonuniform List<scalar> 
823
(
0.00455574
0.0126563
-0.0172121
0.0315091
0.0013984
-0.0283518
0.0979711
-0.0451198
-0.0213422
0.197244
-0.112072
0.0127998
-0.145113
0.00833532
0.334021
0.00704016
0.00561615
0.0597917
-0.0513532
0.15983
-0.145158
0.274503
-0.226745
-0.298724
0.428114
0.0252861
-0.0196699
0.117262
-0.14333
0.233515
-0.26141
0.344234
-0.337465
-0.381099
0.426609
0.0485528
-0.0682227
0.148703
-0.24348
0.232486
-0.345193
0.281651
-0.386629
-0.396769
0.297321
0.0611243
-0.129347
0.131701
-0.314057
0.169559
-0.383051
0.182993
-0.400063
0.192587
-0.406363
-0.0268566
0.043266
-0.0164094
-0.0692463
0.0517072
-0.00931751
-0.113122
0.0472954
-0.00341926
-0.154157
0.0400523
0.00098197
0.0273978
-0.190725
0.00917073
-0.0106351
0.0539012
-0.0346757
0.0757478
-0.0621432
0.0747629
-0.0888027
0.0667118
0.0525931
-0.113998
0.00792553
0.0459757
0.0101856
0.0734877
0.00981648
0.075132
0.0106614
0.0658668
0.0506624
0.0125922
0.0199002
0.0260754
0.0455021
0.0478858
0.070099
0.0505351
0.0967533
0.0392125
0.0347963
0.112619
0.00886339
0.0283974
0.0575903
0.109603
0.152734
-0.0284555
-0.767675
0.605405
0.293943
-0.971874
0.649475
0.156384
1.07661
-0.939054
0.142463
0.922679
-0.908758
-0.272231
0.0839961
-0.110076
-0.771597
0.141049
-1.223
0.181019
1.03664
0.215279
0.888419
-0.47822
-0.103306
-0.655699
0.0949204
-1.42123
0.276618
0.854945
0.338538
0.8265
-0.681983
0.127615
-0.670695
0.109946
-1.40356
0.290314
0.674577
0.507915
0.608898
-0.851704
0.340603
-0.858563
0.0938536
-1.15681
0.222744
0.545686
0.689158
0.142484
-0.948507
1.274
-0.920565
-1.212
0.745274
-0.628084
0.700311
0.59065
1.30084
-0.458048
-0.938139
1.26563
-0.744878
-1.44132
0.913998
-0.276449
1.1117
0.392951
1.40316
-0.749514
-0.797488
1.16128
-0.510829
-1.39533
0.96789
-0.0830599
1.29033
0.0705118
1.25493
-0.714118
-0.526169
1.03123
-0.239543
-1.30252
0.984569
-0.0363945
1.18497
-0.129892
0.876216
-0.405361
-0.196086
0.619358
-0.858901
0.582963
0.453071
0.0477095
1.12434
0.158831
-1.09058
1.21008
0.211577
1.3099
0.326794
1.34101
0.397002
0.463036
1.03298
0.0999951
-0.974145
1.11185
0.132705
1.21026
0.228385
1.32771
0.279552
0.349429
0.989006
0.0488487
-0.93786
1.0432
0.0785087
1.13789
0.133693
1.25373
0.163711
0.207834
0.929476
0.0125122
-0.89314
0.980528
0.027457
1.06603
0.0481906
1.17104
0.0587055
0.0763512
0.648197
-0.635685
0.675654
0.723845
0.78255
0.142976
0.304925
-0.248208
-0.199692
0.0953812
0.309573
-0.261978
0.0536463
0.320068
-0.278333
0.0187463
0.31166
-0.27676
0.201776
-0.183029
0.103526
0.341192
-0.139794
0.0672646
0.345835
0.034879
0.352453
0.00885633
0.337682
0.210632
0.0741519
0.378305
-0.111265
0.0403327
0.379654
0.0114314
0.381354
-0.00494492
0.354059
0.205687
-0.00782042
0.394219
-0.00809383
-0.0250781
0.396912
-0.03384
0.390116
-0.0268842
0.347103
0.178803
-0.0864154
0.0742715
-0.0895669
-0.0825015
-0.0494558
0.195704
0.109242
-0.248548
-0.0563975
0.142348
0.113695
-0.0603393
0.0881511
0.118567
-0.0643699
0.0356975
0.118546
-0.0660928
0.0844611
-0.0487636
0.19326
0.152334
-0.236352
0.147217
0.159738
0.0955305
0.170253
0.0405051
0.173572
0.124966
0.135279
0.197199
-0.180144
0.0944341
0.200582
0.0560227
0.208665
0.0202229
0.209372
0.145189
0.156224
0.228707
-0.187731
0.116939
0.239867
0.0720719
0.253532
0.0282559
0.253188
0.173445
0.0800683
-0.0995698
0.0579569
0.0331564
0.00958438
0.404869
0.0782089
-0.0870985
0.421868
0.0311844
-0.0481829
0.410688
0.188099
-0.176919
0.394336
0.2201
-0.203748
0.49817
-0.352382
0.402049
0.0721399
0.416351
0.0168815
0.402123
0.202327
0.383317
0.238906
0.645135
0.396066
0.0720539
0.411484
0.00146361
0.38206
0.231751
0.371518
0.249448
0.836509
0.393271
0.0747623
0.398876
-0.00414108
0.37281
0.257816
0.347366
0.274892
0.996144
0.386523
0.0842187
0.390561
-0.00817863
0.342785
0.305592
0.319363
0.298314
1.21594
0.625972
0.062267
0.660674
-0.0428806
0.700807
0.26546
0.779663
0.219457
0.984172
1.01143
0.643022
0.0232655
0.664093
-0.0639517
0.731902
0.19765
0.758636
0.192724
0.723943
1.01887
0.65159
-0.0243042
0.660057
-0.072419
0.713189
0.144518
0.76341
0.142503
0.457999
1.02935
0.640215
-0.0604991
0.624937
-0.0571412
0.701059
0.0683973
0.795177
0.0483845
0.199616
1.05356
0.543521
0.48638
0.554777
0.603162
0.802778
1.0482
-0.236466
1.03532
-0.126915
1.04573
-0.121667
1.03944
-0.00181005
0.02313
0.970575
-0.188176
0.95738
-0.11372
0.938905
-0.103192
0.951822
-0.0147266
0.000806862
0.965481
-0.124302
0.947891
-0.09613
0.917793
-0.0730947
0.93217
-0.0291036
-0.00488258
0.984724
-0.0554675
0.93656
-0.0479658
0.89926
-0.0357939
0.891308
-0.0211524
-0.00671394
0.747311
0.699345
0.663551
0.642399
0.0507068
0.138723
-0.189429
0.0769878
0.316051
-0.342332
0.0781198
0.373284
-0.374416
0.0672875
0.37845
-0.367618
0.34702
0.0549835
-0.334716
0.0726634
0.0660592
0.14943
0.239284
0.18678
0.335935
0.191544
0.373686
0.371509
0.167055
0.0580766
0.0079826
0.177297
0.120063
0.278073
0.235159
0.351491
0.300267
0.360335
0.362666
0.0258092
-0.0178266
0.124684
0.0211883
0.252534
0.10731
0.378914
0.173888
0.243094
0.496154
0.00317479
-0.0210014
0.0469879
-0.0226248
0.145263
0.00903495
0.269776
0.0493746
0.0906903
0.42218
-0.0091307
-0.0118707
-0.00577029
-0.0259852
0.0330769
-0.0298123
0.105489
-0.0230371
-0.00298917
0.199168
-0.0039911
-0.00787963
-0.00189721
-0.0280791
0.0129276
-0.044637
0.0433799
-0.0534894
-0.0532593
0.09365
0.00357762
-0.0114572
0.0134898
-0.0379913
0.0249062
-0.0560535
0.0356766
-0.0642598
-0.0658417
0.048259
-0.00446598
-0.00699127
-0.0127403
-0.0297169
-0.0275491
-0.0412447
-0.0468468
-0.044962
-0.0472844
-0.0654041
-0.0234007
-0.0624351
-0.107099
-0.151079
-0.189193
0.476854
0.346783
-0.624469
0.531094
0.414124
-0.468364
0.424051
0.310018
-0.202975
0.240338
0.277256
-0.0935426
0.0520827
0.0114152
0.445309
-0.00487612
0.556207
0.303226
0.429051
0.437174
0.21423
0.492077
0.110063
0.271284
-0.227901
0.505992
0.0685172
0.367411
0.575755
0.171606
0.687881
0.119706
0.105508
-0.398813
0.445205
-0.271179
0.277451
0.743509
0.135825
0.829507
0.0549796
0.0173992
0.395695
0.20015
0.1209
0.160909
0.493176
-0.654085
-0.0664472
0.227356
-0.0533229
-0.0131243
0.0323507
-0.0856736
-0.0605434
0.944855
-1.07615
0.703847
0.487748
0.308531
0.0865879
-0.0158061
-0.0707818
0.140157
-0.0535695
0.258368
-0.118211
0.436821
-0.178453
-0.217263
0.195589
-0.156412
0.309075
0.55353
0.871231
0.140799
-0.133656
0.164033
-0.171177
0.107473
-0.138489
0.171815
0.0693053
-0.144887
0.183055
0.0281594
-0.143825
0.184971
-0.0993923
0.127552
0.178968
-0.0943099
-0.218314
0.135004
-0.0945239
0.0856299
-0.0955136
0.0352063
-0.0934012
-0.064186
0.185258
-0.0451161
-0.234452
0.134828
-0.0440941
0.0834977
-0.0441832
0.0338198
-0.0437233
-0.0303662
0.198842
0.00596965
-0.249927
0.147156
0.00759122
0.0938528
0.0091203
0.0395004
0.0106291
0.00913421
0.203091
-0.253519
0.150343
0.0950931
0.0396294
0.0365236
-0.313519
-0.0577205
0.0127876
-0.343882
-0.00905377
-0.352575
-0.0171286
-0.334257
-0.206558
0.120221
-0.283209
-0.150531
0.0771747
-0.300836
0.0364126
-0.311813
0.00647854
-0.304323
-0.200079
0.137162
-0.244102
-0.176269
0.0968349
-0.260509
0.0565475
-0.271526
0.0197694
-0.267545
-0.18031
0.15894
-0.210002
-0.19304
0.116202
-0.217771
0.0704597
-0.225783
0.0275497
-0.224635
-0.15276
0.153557
-0.199526
0.107601
0.0648733
0.0252087
0.385375
0.111363
-0.100759
0.387426
0.089976
-0.0920265
0.355043
0.159763
-0.127381
0.299939
0.0717434
-0.0166386
-0.192221
0.320983
0.393718
0.113625
0.400549
0.0831447
0.393432
0.16688
0.346298
0.118878
-0.064238
0.400432
0.109173
0.410638
0.0729388
0.407238
0.17028
0.370995
0.155121
0.0723057
0.406184
0.0989684
0.417598
0.061525
0.415609
0.172269
0.388972
0.181758
0.21135
0.407849
0.421192
0.416541
0.394551
0.414491
0.09556
0.330686
0.0838053
0.239939
0.0907469
0.238511
0.00142769
-0.174903
0.413414
0.504852
0.496631
0.459997
0.444786
0.590867
0.330876
0.0825381
0.257475
0.0734011
0.171522
0.0859523
0.0993098
0.0722127
0.028528
0.473879
0.35424
0.263923
0.185604
)
;

boundaryField
{
    left
    {
        type            calculated;
        value           nonuniform List<scalar> 
17
(
-0.60402
-0.60402
-0.60402
-0.60402
-0.60402
-0.39598
-0.39598
-0.39598
-0.39598
-0.39598
-0.39598
-0.39598
-0.39598
-0.39598
-0.39598
-0.510051
-0.510051
)
;
    }
    right
    {
        type            calculated;
        value           nonuniform List<scalar> 
17
(
0.0928941
0.259403
0.176841
0.15625
0.161964
0.200551
0.259876
0.330698
0.421268
0.542301
0.677636
0.785962
1.29047
1.26251
0.983615
0.546133
-0.148377
)
;
    }
    down
    {
        type            calculated;
        value           uniform 0;
    }
    up
    {
        type            calculated;
        value           uniform 0;
    }
    cylinder
    {
        type            calculated;
        value           uniform 0;
    }
    defaultFaces
    {
        type            empty;
    }
}


// ************************************************************************* //
