/*--------------------------------*- C++ -*----------------------------------*\
  =========                 |
  \\      /  F ield         | OpenFOAM: The Open Source CFD Toolbox
   \\    /   O peration     | Website:  https://openfoam.org
    \\  /    A nd           | Version:  13
     \\/     M anipulation  |
\*---------------------------------------------------------------------------*/
FoamFile
{
    format      ascii;
    class       surfaceScalarField;
    location    "0.1125";
    object      phi;
}
// * * * * * * * * * * * * * * * * * * * * * * * * * * * * * * * * * * * * * //

dimensions      [0 3 -1 0 0 0 0];

internalField   nonuniform List<scalar> 
3485
(
0.00451967
-0.0556616
0.051142
0.0133334
-0.122154
0.113341
0.0231632
-0.142773
0.132944
0.0329293
-0.144808
0.135042
0.0424107
-0.141821
0.132339
0.0515861
-0.137964
0.128788
0.0604506
-0.134204
0.12534
0.0689731
-0.130695
0.122172
0.0770569
-0.127356
0.119272
-0.123848
0.116216
0.0846897
0.00441898
-0.0600806
0.0127456
-0.130481
0.0219024
-0.15193
0.0309593
-0.153865
0.0397611
-0.150623
0.0483204
-0.146523
0.0566686
-0.142552
0.0648405
-0.138867
0.0729073
-0.135423
-0.132102
0.0811614
0.00429537
-0.064376
0.0120739
-0.138259
0.0204817
-0.160338
0.0287454
-0.162129
0.0367679
-0.158645
0.0445778
-0.154333
0.0522077
-0.150182
0.0596847
-0.146344
0.0670384
-0.142776
-0.139379
0.0743147
0.00413912
-0.0685151
0.0112968
-0.145417
0.018874
-0.167915
0.0262655
-0.16952
0.033433
-0.165813
0.0404213
-0.161321
0.0472654
-0.157026
0.0539902
-0.153068
0.0606215
-0.149408
-0.146015
0.0672578
0.00393588
-0.072451
0.010386
-0.151867
0.0170406
-0.17457
0.023471
-0.175951
0.0296928
-0.172034
0.0357639
-0.167392
0.0417196
-0.162982
0.0475825
-0.158931
0.0533797
-0.155205
-0.151808
0.0591728
0.00367355
-0.0761245
0.00932085
-0.157515
0.0149612
-0.18021
0.0203458
-0.181335
0.0255374
-0.177226
0.0306063
-0.172461
0.035587
-0.167963
0.0404998
-0.163844
0.0453673
-0.160072
-0.156671
0.0502304
0.00334294
-0.0794675
0.0080902
-0.162262
0.0126354
-0.184755
0.0168988
-0.185599
0.0209853
-0.181313
0.0249765
-0.176453
0.0289053
-0.171891
0.032789
-0.167728
0.0366463
-0.16393
-0.160522
0.0404973
0.00293739
-0.0824048
0.00669577
-0.16602
0.0100819
-0.188142
0.0131554
-0.188672
0.016073
-0.18423
0.0189232
-0.179303
0.0217353
-0.174704
0.024522
-0.170515
0.0272968
-0.166704
-0.163288
0.0300622
0.00246004
-0.0848649
0.00516174
-0.168722
0.00732403
-0.190304
0.00915595
-0.190504
0.0108602
-0.185934
0.012522
-0.180965
0.0141667
-0.176348
0.0158034
-0.172151
0.0174407
-0.168342
-0.164915
0.0190678
0.00192108
-0.086786
0.00350178
-0.170303
0.00437681
-0.191179
0.00497615
-0.191104
0.00542808
-0.186386
0.00586709
-0.181404
0.00630991
-0.176791
0.00675742
-0.172599
0.00721038
-0.168795
0.00765508
-0.165359
0.00463532
-0.009006
0.00437068
0.0156101
-0.0204591
0.00948436
0.0287562
-0.0242777
0.0111315
0.0422106
-0.0247938
0.0113394
0.0554135
-0.0243368
0.0111339
0.0682439
-0.0236771
0.0108467
0.0806969
-0.0230153
0.0105623
0.0927926
-0.0223929
0.0102972
0.104551
-0.0218106
0.0100519
-0.0213869
0.116107
0.00983139
0.00464129
-0.0136473
0.0155631
-0.0313809
0.0286204
-0.037335
0.0419753
-0.0381487
0.0550805
-0.037442
0.0678201
-0.0364166
0.0801909
-0.0353861
0.0922138
-0.0344157
0.103911
-0.0335078
-0.0328891
0.115413
0.00465412
-0.0183014
0.0155066
-0.0422333
0.0284432
-0.0502716
0.0416609
-0.0513664
0.0546301
-0.0504113
0.0672416
-0.0490282
0.0794949
-0.0476394
0.0914117
-0.0463325
0.103017
-0.0451134
-0.0443086
0.114437
0.00467298
-0.0229744
0.0154337
-0.052994
0.0282089
-0.0630468
0.0412425
-0.0644001
0.0540281
-0.0631969
0.0664655
-0.0614655
0.078557
-0.0597309
0.0903258
-0.0581013
0.101801
-0.0565888
-0.0556063
0.113099
0.00469551
-0.0276699
0.0153347
-0.0636332
0.0278985
-0.0756105
0.0406913
-0.0771928
0.0532358
-0.0757415
0.0654428
-0.0736724
0.077318
-0.0716062
0.088886
-0.0696693
0.100181
-0.0678836
-0.0667284
0.111303
0.00471692
-0.0323868
0.0151962
-0.0741125
0.0274893
-0.0879037
0.0399755
-0.089679
0.0522125
-0.0879785
0.0641232
-0.0855832
0.0757172
-0.0832001
0.0870196
-0.0809718
0.0980684
-0.0789324
-0.0776003
0.10894
0.00472929
-0.0371161
0.0150005
-0.0843837
0.0269562
-0.0998593
0.0390635
-0.101786
0.0509205
-0.0998355
0.0624636
-0.0971264
0.0737055
-0.094442
0.084671
-0.0919372
0.0953976
-0.0896591
-0.0881222
0.10592
0.00472263
-0.0418387
0.0147291
-0.0943901
0.0262751
-0.111405
0.0379284
-0.11344
0.0493318
-0.111239
0.0604371
-0.108232
0.0712609
-0.105266
0.0818278
-0.102504
0.0921674
-0.0999988
-0.0981784
0.102224
0.00468715
-0.0465259
0.0143638
-0.104067
0.0254219
-0.122463
0.0365409
-0.124559
0.0474133
-0.122111
0.0580098
-0.118828
0.0683552
-0.115611
0.0784778
-0.112627
0.0883884
-0.109909
-0.107608
0.0978179
0.00461605
0.0138898
0.02437
0.0348536
0.0450817
0.0550418
0.0647703
0.0743159
0.0836785
0.0922861
0.160535
-0.12405
0.0796215
0.183594
-0.0902176
0.0671582
0.194925
-0.0670392
0.0557084
0.200258
-0.0505146
0.0451814
0.202447
-0.0379054
0.0357164
0.202885
-0.0278663
0.0274282
0.202298
-0.0196895
0.0202765
0.201077
-0.0128771
0.0140986
0.199436
-0.00708429
0.00872472
-0.00114194
0.00313135
0.159449
-0.168086
0.182576
-0.113345
0.194158
-0.0786207
0.199739
-0.056096
0.202132
-0.0402979
0.202737
-0.0284712
0.202293
-0.0192463
0.201203
-0.0117869
0.199689
-0.00557011
0.000720895
0.157604
-0.211253
0.180662
-0.136403
0.192538
-0.0904962
0.198468
-0.0620263
0.201182
-0.0430115
0.202078
-0.0293681
0.201907
-0.0190754
0.20108
-0.0109594
0.199825
-0.00431502
0.00232271
0.15496
-0.253114
0.177837
-0.15928
0.190062
-0.102721
0.196446
-0.0684105
0.1996
-0.0461654
0.200913
-0.0306813
0.201142
-0.0193044
0.200707
-0.010524
0.199842
-0.00345056
0.0035299
0.151452
-0.293262
0.174089
-0.181917
0.186733
-0.115366
0.19368
-0.0753573
0.197394
-0.0498797
0.199247
-0.0325343
0.200001
-0.0200587
0.200085
-0.0106082
0.199741
-0.00310617
0.00421053
0.146917
-0.331239
0.1694
-0.204399
0.182556
-0.128522
0.190179
-0.0829798
0.194574
-0.0542753
0.197088
-0.0350487
0.198491
-0.0214609
0.199219
-0.0113363
0.199521
-0.00340834
0.00423519
0.140947
-0.366266
0.163724
-0.227177
0.177535
-0.142332
0.185956
-0.0914006
0.191154
-0.0594734
0.194449
-0.0383439
0.196619
-0.0236301
0.198111
-0.0128284
0.199182
-0.00447976
0.00347783
0.13423
-0.398273
0.157026
-0.249974
0.171663
-0.156969
0.181026
-0.100763
0.18715
-0.0655981
0.191344
-0.0425375
0.194395
-0.0266816
0.196768
-0.0152005
0.198726
-0.0064386
0.00181667
0.126466
-0.42692
0.149059
-0.272567
0.164818
-0.172728
0.175349
-0.111294
0.182559
-0.0728088
0.18778
-0.0477581
0.191831
-0.0307321
0.195195
-0.0185652
0.198155
-0.0093985
-0.00086521
0.117345
-0.451979
0.140456
-0.295678
0.15731
-0.189582
0.169052
-0.123036
0.177442
-0.0811991
0.183792
-0.0541072
0.188943
-0.0358836
0.193404
-0.0230259
0.197471
-0.0134657
-0.0046796
0.355652
-0.401466
-0.406165
0.32994
-0.269965
0.319126
-0.178768
0.314382
-0.118292
0.311908
-0.0787249
0.310358
-0.0525577
0.309285
-0.0348108
0.308545
-0.0222854
0.308081
-0.0130017
-0.00450611
0.369652
-0.344907
-0.426211
0.341491
-0.241804
0.327426
-0.164704
0.319995
-0.110861
0.315659
-0.0743891
0.312907
-0.0498057
0.311081
-0.0329849
0.309884
-0.0210881
0.309166
-0.0122842
-0.00425018
0.382901
-0.289852
-0.437955
0.352229
-0.211132
0.335103
-0.147578
0.325223
-0.10098
0.319189
-0.0683557
0.315322
-0.0459386
0.312787
-0.0304493
0.311154
-0.0194558
0.310193
-0.0113227
-0.00391335
0.392462
-0.237976
-0.444339
0.36086
-0.179529
0.341684
-0.128402
0.329879
-0.0891755
0.322402
-0.060879
0.317545
-0.0410814
0.314363
-0.0272672
0.312329
-0.0174217
0.31114
-0.0101338
-0.00350016
0.399423
-0.189937
-0.447463
0.367734
-0.14784
0.347191
-0.10786
0.333903
-0.0758867
0.325233
-0.0522097
0.319525
-0.0353729
0.315774
-0.0235161
0.313381
-0.015029
0.311987
-0.00874013
-0.00301754
0.404388
-0.145702
-0.448622
0.373071
-0.116524
0.351658
-0.0864468
0.337259
-0.0614875
0.327637
-0.0425874
0.321223
-0.0289587
0.31699
-0.0192829
0.314289
-0.0123288
0.312718
-0.00716908
-0.00247429
0.407816
-0.104797
-0.448721
0.377067
-0.0857747
0.355131
-0.0645099
0.339931
-0.0462879
0.329579
-0.0322354
0.322607
-0.0219866
0.317985
-0.0146613
0.315034
-0.00937782
0.313317
-0.00545218
-0.00188072
0.410023
-0.0664701
-0.44835
0.379857
-0.0556083
0.357634
-0.0422876
0.341894
-0.0305476
0.331021
-0.0213621
0.323639
-0.0146048
0.318728
-0.00974985
0.315588
-0.0062382
0.31376
-0.00362443
-0.00124851
0.410117
-0.0293729
-0.447214
0.380532
-0.0260234
0.358293
-0.0200481
0.342311
-0.0145656
0.331166
-0.0102174
0.323559
-0.00699797
0.318485
-0.00467588
0.31524
-0.00299289
0.313351
-0.00173555
-0.000594796
0.372793
-0.402166
0.34677
0.326721
0.312156
0.301938
0.29494
0.290265
0.287272
0.285536
0.438684
0.00738721
-0.438416
0.438259
0.0194927
0.437111
0.0312102
0.435189
0.042419
0.432428
0.0529915
0.428804
0.0627968
0.423981
0.0720804
0.418878
0.0794181
0.409332
0.0907071
0.0878569
0.420974
0.0070241
-0.420611
0.421601
0.0188656
0.422418
0.0303935
0.423367
0.0414705
0.424364
0.0519945
0.425382
0.061779
0.426198
0.0712637
0.427192
0.0784244
0.427893
0.0900058
0.0895388
0.406618
0.00639672
-0.405991
0.407983
0.0175009
0.410039
0.0283379
0.412741
0.0387687
0.416029
0.0487057
0.419843
0.0579648
0.424144
0.0669635
0.428561
0.0740069
0.434128
0.0844386
0.0857118
0.395335
0.00562999
-0.394569
0.397173
0.0156628
0.400051
0.0254606
0.403925
0.0348945
0.408748
0.0438822
0.414441
0.0522725
0.421039
0.0603657
0.428078
0.0669678
0.436731
0.0757849
0.0781045
0.386495
0.00476434
-0.38563
0.388666
0.013492
0.392112
0.0220145
0.396794
0.0302134
0.402667
0.0380086
0.409655
0.0452846
0.417796
0.052225
0.426704
0.0580596
0.437266
0.0652227
0.0679082
0.37971
0.00382697
-0.378772
0.382113
0.0110882
0.385954
0.0181741
0.391189
0.0249782
0.397774
0.0314236
0.405636
0.0374226
0.414788
0.0430731
0.424943
0.0479039
0.436701
0.0534654
0.0559866
0.374687
0.00283393
-0.373694
0.377258
0.00851658
0.381376
0.0140565
0.386993
0.019361
0.394057
0.0243597
0.402496
0.0289838
0.412293
0.0332761
0.423241
0.0369551
0.435724
0.0409829
0.0429895
0.371155
0.00178244
-0.370103
0.373865
0.0058065
0.378196
0.00972561
0.384092
0.0134647
0.391487
0.0169644
0.400301
0.0201706
0.410482
0.0230947
0.421881
0.0255557
0.434719
0.0281452
0.0293582
0.366617
0.000597311
-0.365432
0.369582
0.00284176
0.374267
0.00504004
0.380597
0.00713501
0.388472
0.00908964
0.397774
0.0108682
0.408404
0.0124645
0.420192
0.0137681
0.433211
0.0151267
0.0153544
0.310478
-0.30988
0.313319
0.318359
0.325494
0.334584
0.345452
0.357917
0.371685
0.386811
0.0799769
0.122901
-0.112377
-0.0905009
0.0703295
0.125226
-0.115579
0.0609977
0.128191
-0.118859
0.0517044
0.131598
-0.122305
0.0423099
0.135347
-0.125953
0.032741
0.139403
-0.129834
0.0229774
0.143502
-0.133739
0.0132111
0.145401
-0.135635
0.00448862
0.133572
-0.12485
0.074116
-0.0696274
0.0755449
0.131524
-0.084168
0.0667212
0.13405
0.0578186
0.137094
0.0488657
0.140551
0.0398366
0.144376
0.0306902
0.14855
0.021416
0.152777
0.0122091
0.154608
0.00408081
0.141701
0.0781968
0.0678939
0.138899
-0.0752695
0.0601903
0.141754
0.05229
0.144994
0.044243
0.148598
0.0360548
0.152564
0.027711
0.156893
0.0192271
0.161261
0.0108272
0.163008
0.00351122
0.149017
0.081708
0.0594576
0.145331
-0.0658892
0.052763
0.148448
0.0458709
0.151886
0.0388083
0.155661
0.0315789
0.159794
0.0241773
0.164295
0.0166354
0.168803
0.0091996
0.170443
0.00284596
0.15537
0.084554
0.0509597
0.150983
-0.0566116
0.0451394
0.154268
0.0391731
0.157852
0.0330638
0.16177
0.0268043
0.166053
0.0203883
0.170711
0.0138558
0.175335
0.00746653
0.176833
0.00215195
0.160685
0.0867059
0.0422226
0.155837
-0.0470764
0.0372727
0.159218
0.0322295
0.162896
0.0270829
0.166917
0.0218191
0.171317
0.0164303
0.1761
0.0109585
0.180807
0.00567023
0.182121
0.00144818
0.164907
0.0881541
0.0330383
0.159793
-0.0369948
0.0290339
0.163223
0.024972
0.166957
0.0208386
0.17105
0.016621
0.175535
0.0123167
0.180404
0.00796118
0.185162
0.00381151
0.186271
0.000706177
0.168012
0.0888603
0.0233769
0.162743
-0.026327
0.0204076
0.166192
0.0173996
0.169965
0.0143381
0.174111
0.0112101
0.178663
0.0080355
0.183578
0.00488393
0.188314
0.00194645
0.189208
-5.55634e-05
0.170014
0.0888047
0.0133386
0.164602
-0.0151967
0.0114738
0.168057
0.00958111
0.171858
0.0076529
0.17604
0.00567381
0.180642
0.00361929
0.185633
0.00166948
0.190264
-2.56765e-05
0.190903
-0.000697967
0.170687
0.0881068
0.00315548
-0.00391325
0.00241752
0.00167683
0.000925469
0.000163778
-0.000589441
-0.00142909
-0.00170486
-0.0013208
0.108796
0.0213312
-0.120054
-0.0100736
0.0971661
0.0219176
-0.0102872
0.0852041
0.0224807
-0.0105187
0.0728994
0.0230741
-0.0107694
0.0602293
0.0237135
-0.0110434
0.0471658
0.0244074
-0.0113439
0.0336962
0.0251312
-0.0116616
0.019988
0.0255717
-0.0118636
0.007254
0.0238621
-0.0111281
0.0138817
-0.00662765
0.107903
0.0325463
-0.119118
0.0963327
0.0334876
0.0844433
0.0343701
0.0722227
0.0352947
0.0596477
0.0362885
0.0466899
0.0373652
0.0333363
0.0384848
0.0197547
0.0391533
0.00715313
0.0364636
0.0210348
0.106628
0.043694
-0.117776
0.0951522
0.0449636
0.0833719
0.0461505
0.0712748
0.0473918
0.0588369
0.0487264
0.0460291
0.050173
0.0328385
0.0516754
0.0194341
0.0525578
0.00701651
0.0488812
0.0280513
0.104879
0.0547345
-0.11592
0.0935436
0.0562991
0.0819214
0.0577726
0.0699988
0.0593144
0.0577513
0.060974
0.0451493
0.062775
0.0321806
0.0646441
0.0190181
0.0657203
0.00685607
0.0610432
0.0349074
0.102549
0.0656091
-0.113424
0.0914174
0.0674311
0.0800174
0.0691726
0.0683343
0.0709975
0.0563425
0.0729658
0.0440119
0.0751055
0.0313312
0.0773248
0.0184777
0.0785739
0.00663526
0.0728857
0.0415426
0.0995453
0.0762496
-0.110186
0.0886916
0.0782848
0.0775914
0.0802728
0.0662262
0.0823627
0.0545681
0.0846239
0.0425857
0.0870879
0.0302687
0.0896417
0.0177994
0.0910432
0.00635099
0.0843341
0.0478936
0.0957749
0.0865761
-0.106102
0.085305
0.0887547
0.0746112
0.0909667
0.0636634
0.0933105
0.0524297
0.0958576
0.0408788
0.0986387
0.0290043
0.101516
0.0169962
0.103051
0.00601702
0.0953133
0.0539106
0.0910462
0.0964353
-0.100905
0.0811093
0.0986916
0.0709651
0.101111
0.0605658
0.10371
0.0498751
0.106548
0.0388628
0.109651
0.0275268
0.112852
0.0160674
0.114511
0.00563452
0.105746
0.0595452
0.0860066
0.105442
-0.0950135
0.0768511
0.107847
0.0673318
0.11063
0.057484
0.113558
0.0473209
0.116711
0.0368328
0.120139
0.026031
0.123654
0.0151279
0.125414
0.00525472
0.115619
0.0647999
0.078008
-0.0849425
0.0702763
0.0620472
0.0533001
0.0440588
0.0343637
0.024279
0.014058
0.00482751
0.200751
0.0153151
-0.0180766
0.203037
0.0214056
-0.0236916
0.202922
0.0261484
-0.026033
0.203604
0.0284381
-0.0291202
0.203192
0.0343425
-0.0339299
0.201089
0.0425605
-0.0404574
0.195988
0.0537058
-0.0486054
0.185431
0.0687894
-0.0582327
0.162869
0.0915835
-0.0690212
0.124132
-0.0813172
0.200594
0.012711
0.202758
0.0192415
0.202585
0.0263213
0.203182
0.0278413
0.202647
0.034877
0.200376
0.044832
0.195055
0.0590263
0.184229
0.0796162
0.161602
0.11421
0.166617
0.200308
0.0103927
0.202185
0.0173648
0.201862
0.0266444
0.20225
0.0274529
0.201463
0.0356638
0.198899
0.0473964
0.193249
0.0646764
0.182075
0.0907903
0.159468
0.136816
0.208309
0.19989
0.00849252
0.201323
0.0159318
0.200764
0.0272036
0.200819
0.0273979
0.199649
0.0368335
0.196666
0.0503791
0.190568
0.0707743
0.178953
0.102406
0.156357
0.159413
0.248746
0.199332
0.00715076
0.200177
0.0150862
0.199307
0.0280741
0.1989
0.0278047
0.197217
0.038516
0.19369
0.0539065
0.187016
0.0774483
0.174843
0.114578
0.151963
0.182292
0.287285
0.198623
0.00651784
0.198755
0.0149544
0.197509
0.0293193
0.196506
0.028808
0.194183
0.0408389
0.189984
0.0581056
0.182596
0.0848363
0.169722
0.127453
0.146257
0.205757
0.323357
0.197751
0.00675646
0.197065
0.0156411
0.195394
0.0309894
0.193651
0.0305513
0.190565
0.043925
0.185566
0.0631045
0.177315
0.0930869
0.163593
0.141175
0.140515
0.228836
0.35777
0.196703
0.00804306
0.19512
0.0172245
0.192986
0.0331233
0.190347
0.03319
0.186385
0.0478874
0.180459
0.0690306
0.171209
0.102336
0.156512
0.155873
0.134413
0.250934
0.391278
0.195467
0.0105659
0.19294
0.0197511
0.19031
0.0357532
0.186605
0.0368958
0.18167
0.0528219
0.17471
0.0759909
0.164445
0.112601
0.149057
0.171261
0.12838
0.271611
0.424645
0.194133
0.0144227
0.190538
0.0233457
0.187426
0.038866
0.182459
0.0418624
0.176505
0.0587761
0.168399
0.084097
0.156802
0.124197
0.139856
0.188207
0.117389
0.294078
0.457091
0.302738
0.0136951
0.304136
0.0219472
0.307436
0.0355665
0.308633
0.0406651
0.310523
0.0568859
0.312944
0.0816762
0.317068
0.120073
0.326012
0.179264
0.35063
0.26946
0.401117
0.406603
0.30347
0.0122356
0.305217
0.0202002
0.308735
0.0320486
0.310966
0.0384337
0.314076
0.0537757
0.318525
0.0772271
0.32585
0.112748
0.339427
0.165687
0.368344
0.240543
0.345571
0.42389
0.304097
0.0101485
0.306347
0.0179502
0.31004
0.0283559
0.313166
0.0353077
0.317418
0.0495241
0.323618
0.0710265
0.333476
0.10289
0.350269
0.148895
0.381253
0.209558
0.291318
0.435506
0.304689
0.00747001
0.307416
0.0152225
0.31132
0.024452
0.315204
0.0314237
0.320488
0.04424
0.328191
0.0633242
0.340061
0.09102
0.359115
0.129841
0.390771
0.177902
0.239907
0.442182
0.305275
0.00420563
0.308425
0.0120716
0.31253
0.0203475
0.31704
0.0269131
0.323216
0.0380644
0.332164
0.0543766
0.345586
0.0775972
0.366148
0.109279
0.397644
0.146406
0.191992
0.445559
0.305885
0.000330468
0.309383
0.00857414
0.313633
0.0160976
0.318638
0.0219079
0.325549
0.0311537
0.335493
0.0444328
0.350077
0.0630124
0.371588
0.0877693
0.402529
0.115464
0.147636
0.446885
0.306546
-0.00420553
0.3103
0.00482071
0.314598
0.0117996
0.319963
0.0165421
0.327448
0.023669
0.338154
0.0337267
0.353577
0.0475895
0.375645
0.0657015
0.40591
0.0851997
0.106468
0.447077
0.307323
-0.0095183
0.311193
0.000950889
0.315386
0.00760599
0.320978
0.0109507
0.328878
0.0157691
0.340131
0.0224737
0.356126
0.0315943
0.378491
0.0433363
0.408116
0.0555751
0.0678592
0.446725
0.307625
-0.0151328
0.311379
-0.00280387
0.315318
0.00366728
0.321008
0.00526085
0.329171
0.00760632
0.340775
0.01087
0.357125
0.0152438
0.379622
0.0208396
0.408737
0.0264601
0.0316108
0.444985
0.286877
0.284074
0.287741
0.293002
0.300608
0.311478
0.326722
0.347561
0.374022
0.405632
0.41614
-0.100038
0.418538
-0.0865658
0.421215
-0.0779469
0.424679
-0.0693535
0.42823
-0.060162
0.43144
-0.0502866
0.434127
-0.0396815
0.436222
-0.0284228
0.437666
-0.0166402
-0.00466336
0.423286
-0.0994342
0.423079
-0.0863588
0.422715
-0.0775821
0.422371
-0.0690099
0.421911
-0.0597015
0.421366
-0.0497421
0.420868
-0.0391837
0.420523
-0.0280777
0.420429
-0.0165455
-0.00484607
0.429475
-0.0934024
0.424913
-0.0817976
0.420596
-0.0732651
0.416685
-0.0650984
0.413318
-0.0563346
0.41053
-0.0469545
0.408368
-0.0370209
0.406881
-0.0265909
0.406105
-0.0157697
-0.00473198
0.432567
-0.0837875
0.424811
-0.0740408
0.417884
-0.0663385
0.411723
-0.0589371
0.406426
-0.0510378
0.402045
-0.0425736
0.398629
-0.0336047
0.396226
-0.0241878
0.394869
-0.014413
-0.00443169
0.433714
-0.071942
0.423764
-0.064091
0.414976
-0.0575505
0.407223
-0.0511843
0.400575
-0.0443893
0.39509
-0.0370891
0.390817
-0.0293314
0.387798
-0.0211687
0.386066
-0.0126813
-0.00399552
0.433675
-0.0587323
0.422289
-0.0527046
0.412238
-0.0474999
0.403409
-0.0423546
0.395846
-0.036827
0.389609
-0.0308518
0.384745
-0.0244678
0.381299
-0.017722
0.379303
-0.0106857
-0.00346461
0.433054
-0.0447091
0.42077
-0.0404203
0.409908
-0.0366381
0.400376
-0.0328226
0.392209
-0.0286603
0.385466
-0.0241091
0.380201
-0.0192028
0.376462
-0.0139825
0.374286
-0.00850974
-0.00287228
0.432212
-0.0301959
0.419412
-0.0276211
0.408086
-0.0253117
0.398129
-0.0228657
0.389577
-0.0201082
0.3825
-0.0170316
0.376962
-0.0136655
0.373023
-0.0100435
0.370728
-0.00621394
-0.00224809
0.429919
-0.0151301
0.41681
-0.0145119
0.405155
-0.0136562
0.394832
-0.0125432
0.385904
-0.0111798
0.378471
-0.00959855
0.372632
-0.00782652
0.368474
-0.00588622
0.366065
-0.00380462
-0.00161491
0.390502
0.37599
0.362334
0.349791
0.338611
0.329013
0.321186
0.3153
0.311495
0.00520138
0.104278
-0.10948
0.00898543
0.206584
-0.210368
0.0106142
0.233085
-0.234714
0.0114738
0.234117
-0.234977
0.0121436
0.229771
-0.230441
0.0129008
0.225202
-0.225959
0.0137949
0.221291
-0.222186
0.014805
0.218068
-0.219078
0.0158261
0.215302
-0.216323
0.211816
0.016397
-0.212387
0.00677957
0.0974988
0.0137882
0.199575
0.0191101
0.227764
0.0235964
0.229631
0.0279709
0.225396
0.0325245
0.220649
0.0373548
0.216461
0.0424895
0.212933
0.0478528
0.209939
0.206923
0.0527456
0.00770225
0.0897965
0.0173438
0.189934
0.0259053
0.219202
0.033759
0.221777
0.0415069
0.217648
0.0494703
0.212685
0.0577922
0.208139
0.0665524
0.204173
0.0757725
0.200719
0.197613
0.0850828
0.0079636
0.0818329
0.019488
0.17841
0.0306491
0.208041
0.0412963
0.21113
0.0518348
0.20711
0.0625581
0.201962
0.0736296
0.197068
0.0851595
0.192643
0.097236
0.188642
0.184939
0.10991
0.00771545
0.0741175
0.020321
0.165804
0.0333266
0.195035
0.0460274
0.198429
0.0585928
0.194545
0.0712448
0.18931
0.0841347
0.184178
0.0973721
0.179406
0.111051
0.174963
0.17059
0.1254
0.00717821
0.0669393
0.0201847
0.152798
0.0342762
0.180944
0.0482634
0.184442
0.0620702
0.180738
0.0758219
0.175558
0.0896341
0.170366
0.103595
0.165445
0.117775
0.160783
0.155968
0.132398
0.00655918
0.0603801
0.0195069
0.13985
0.0340602
0.166391
0.0486734
0.169829
0.063059
0.166352
0.0772466
0.161371
0.0913086
0.156304
0.105307
0.151447
0.119276
0.146814
0.14185
0.133393
0.00600152
0.0543786
0.0186514
0.1272
0.0332416
0.1518
0.0480041
0.155066
0.0624981
0.151858
0.0766763
0.147192
0.0905743
0.142406
0.104233
0.137788
0.117701
0.133346
0.128549
0.131001
0.00557158
0.048807
0.0178528
0.114919
0.0322518
0.137402
0.0468871
0.140431
0.0612274
0.137518
0.0751767
0.133243
0.088749
0.128833
0.101985
0.124552
0.114923
0.120409
0.115508
0.127964
0.00527164
0.0435354
0.0172079
0.102982
0.0313236
0.123286
0.0456914
0.126063
0.0597241
0.123485
0.073277
0.11969
0.086308
0.115802
0.0987739
0.112086
0.110544
0.108639
0.104671
0.121382
0.00509146
0.0384439
0.0167761
0.0912978
0.0306584
0.109403
0.0448184
0.111903
0.0586708
0.109633
0.0720862
0.106275
0.0850661
0.102823
0.0976546
0.0994973
0.109926
0.0963672
0.0937711
0.120826
0.00497814
0.0334658
0.0164821
0.0797938
0.0301775
0.095708
0.0441583
0.0979223
0.0578409
0.0959501
0.0710913
0.0930243
0.0838973
0.0900165
0.0962718
0.0871228
0.108248
0.0843914
0.0825455
0.119473
0.00489407
0.0285717
0.0162645
0.0684235
0.0298157
0.0821568
0.0436508
0.0840872
0.0571891
0.0824118
0.0702947
0.0799187
0.0829516
0.0773596
0.0951696
0.0749048
0.106973
0.0725884
0.0711653
0.118353
0.00482556
0.0237461
0.0161007
0.0571483
0.0295554
0.0687021
0.0432973
0.0703452
0.0567496
0.0689595
0.0697791
0.0668891
0.0823724
0.0647663
0.0945429
0.0627344
0.106316
0.0608149
0.0596885
0.117793
0.00476822
0.0189779
0.0159753
0.0459412
0.0293696
0.0553079
0.0430583
0.0566565
0.0564665
0.0555513
0.069464
0.0538916
0.0820402
0.0521901
0.0942119
0.0505626
0.106006
0.0490207
0.0481423
0.117552
0.00472159
0.0142563
0.0158784
0.0347844
0.0292328
0.0419535
0.0428898
0.0429995
0.0562745
0.0421666
0.0692579
0.0409082
0.0818311
0.039617
0.0940121
0.0383816
0.105826
0.0372072
0.0365592
0.117409
0.00468585
0.00957046
0.0158032
0.023667
0.0291267
0.02863
0.0427598
0.0293664
0.0561269
0.0287995
0.0690996
0.0279355
0.0816694
0.0270471
0.0938549
0.0261961
0.105678
0.025384
0.0249599
0.117277
0.0046605
0.00490996
0.0157441
0.0125834
0.0290375
0.0153367
0.0426451
0.0157587
0.0559916
0.015453
0.0689493
0.0149779
0.0815101
0.0144862
0.0936929
0.0140133
0.105518
0.0135591
0.0133546
0.117123
0.00464438
0.000265579
0.0156957
0.00153208
0.0289533
0.00207906
0.0425268
0.00218523
0.0558431
0.00213665
0.0687756
0.00204539
0.081317
0.00194487
0.0934861
0.00184422
0.105302
0.001743
0.00175636
0.1169
0.00463626
0.0156527
0.0288633
0.0423879
0.0556585
0.0685506
0.0810577
0.0931992
0.104994
0.116582
0.136393
0.245953
-0.26152
0.149606
0.110282
-0.123494
0.159223
0.0378371
-0.0474542
0.166455
0.00563363
-0.0128655
0.172404
-0.00716357
0.00121483
0.17766
-0.0110692
0.00581308
0.182463
-0.0111338
0.00633036
0.186925
-0.00963345
0.0051722
0.19108
-0.00759367
0.00343849
-0.00507905
0.00127075
0.141573
0.223853
0.156395
0.0954601
0.166065
0.0281662
0.172791
-0.00109153
0.17791
-0.0122828
0.182187
-0.015346
0.185933
-0.0148802
0.189295
-0.0129949
0.192336
-0.0106351
-0.00777893
0.145382
0.196824
0.162226
0.0786162
0.172107
0.0182855
0.178433
-0.00741732
0.182885
-0.016735
0.186305
-0.0187664
0.189104
-0.0176794
0.191475
-0.0153651
0.19351
-0.0126707
-0.00947563
0.149075
0.165542
0.16748
0.0602115
0.177548
0.00821727
0.183517
-0.0133864
0.187347
-0.0205654
0.190006
-0.0214248
0.191964
-0.019638
0.193456
-0.0168562
0.194598
-0.0138134
-0.01028
0.15302
0.130074
0.172094
0.0411377
0.182309
-0.00199753
0.187976
-0.0190543
0.191273
-0.0238622
0.193271
-0.0234229
0.194501
-0.0208675
0.195229
-0.0175842
0.195595
-0.0141799
-0.0103077
0.155882
0.0916007
0.175971
0.0210492
0.186357
-0.0123837
0.191785
-0.0244818
0.194638
-0.0267159
0.196084
-0.0248682
0.1967
-0.0214843
0.196785
-0.0176691
0.196497
-0.0138913
-0.00967891
0.158032
0.0508459
0.179104
-2.28965e-05
0.189663
-0.0229427
0.194914
-0.0297329
0.197422
-0.0292235
0.198427
-0.0258733
0.198552
-0.0216088
0.198118
-0.017235
0.197299
-0.0130725
-0.00851799
0.159605
0.00836436
0.18146
-0.0218781
0.192197
-0.0336796
0.197343
-0.0348792
0.199607
-0.0314876
0.200288
-0.0265548
0.200044
-0.0213645
0.199218
-0.0164088
0.197997
-0.0118514
-0.00695251
0.160572
-0.0353072
0.183015
-0.0443206
0.193931
-0.0445962
0.199052
-0.04
0.201179
-0.033615
0.201657
-0.0270323
0.20117
-0.0208778
0.200081
-0.0153198
0.198588
-0.0103581
-0.00511282
0.160896
0.183734
0.194846
0.200027
0.202129
0.202524
0.201923
0.200702
0.199069
0.191898
0.0338545
-0.225752
0.171826
0.0200721
0.163034
0.00879217
0.160258
0.00277586
0.160145
0.000112765
0.160986
-0.000840745
0.161996
-0.00101002
0.162846
-0.000850051
0.163413
-0.000567234
-0.000207377
0.237392
0.0966152
-0.300153
0.209236
0.0482287
0.197945
0.0200828
0.194459
0.00626155
0.194289
0.000283412
0.195293
-0.00184491
0.196513
-0.00223024
0.197544
-0.00188124
0.19824
-0.00126312
-0.000466531
0.237194
0.15651
-0.297089
0.209725
0.0756978
0.199038
0.03077
0.195956
0.00934311
0.196012
0.000228006
0.197132
-0.00296486
0.198412
-0.00351028
0.199474
-0.00294382
0.200187
-0.00197612
-0.000731863
0.231843
0.212142
-0.287475
0.206834
0.100707
0.197654
0.0399494
0.195391
0.0116061
0.19584
-0.000220518
0.197149
-0.00427362
0.198509
-0.00487035
0.199603
-0.00403845
0.200328
-0.00270046
-0.000999805
0.22611
-0.275488
0.203323
0.195818
0.194558
0.195553
0.197092
0.198552
0.199686
0.200424
0.0212618
-0.000835107
-0.0204267
0.0253755
-0.00411376
0.0334664
-0.00809084
0.046749
-0.0132826
0.0663649
-0.0196159
0.0923563
-0.0259914
0.123716
-0.0313595
0.157548
-0.0338322
0.194168
-0.0366204
-0.031584
0.0577225
-0.00345033
-0.0551073
0.0681124
-0.0145036
0.0867055
-0.026684
0.113245
-0.0398216
0.145734
-0.0521057
0.180685
-0.0609425
0.2148
-0.0654737
0.245622
-0.0646542
0.274737
-0.0657362
-0.0569998
0.0834209
-0.00737769
-0.0794936
0.0965393
-0.027622
0.117878
-0.0480224
0.1448
-0.0667436
0.173507
-0.0808126
0.201032
-0.0884682
0.226413
-0.0908545
0.250265
-0.0885057
0.27445
-0.0899214
-0.079639
0.0984154
-0.0118677
-0.0939254
0.111475
-0.0406817
0.131099
-0.0676467
0.154079
-0.0897229
0.177581
-0.104315
0.200432
-0.111319
0.222471
-0.112894
0.244752
-0.110787
0.266738
-0.111907
-0.100376
0.105862
-0.101333
0.117926
0.135362
0.155549
0.176634
0.197713
0.218212
0.238426
0.254482
0.101496
-0.0903558
0.0989899
-0.11013
0.091975
-0.0930968
0.102618
0.0817821
-0.0962132
0.106406
0.0708012
-0.0993888
0.11037
0.0590459
-0.102705
0.11446
0.0465761
-0.106222
0.118692
0.0334698
-0.109812
0.122919
0.019964
-0.111971
0.125477
0.00730346
-0.104087
0.116748
-0.0592492
0.0665526
0.105856
-0.079872
-0.11634
0.0951209
-0.0823613
0.0838116
-0.084904
0.0719785
-0.0875557
0.0596548
-0.0903811
0.0468414
-0.0934086
0.0335451
-0.096516
0.0199519
-0.0983774
0.00727959
-0.0914149
-0.0519696
0.106852
-0.068836
-0.117888
0.0956091
-0.0711185
0.0840224
-0.0733173
0.0720491
-0.0755825
0.0596549
-0.0779869
0.0468083
-0.0805621
0.0334993
-0.0832071
0.0199056
-0.0847837
0.0072466
-0.0787558
-0.044723
0.10809
-0.0576528
-0.119273
0.0966332
-0.0596614
0.0848345
-0.0615186
0.0726695
-0.0634174
0.0601089
-0.0654263
0.0471226
-0.0675758
0.0336995
-0.0697839
0.0200136
-0.0710979
0.00728452
-0.0660267
-0.0374385
0.108922
-0.0464113
-0.120164
0.0973455
-0.0480849
0.0854208
-0.0495939
0.0731362
-0.0511328
0.0604678
-0.0527579
0.0473862
-0.0544943
0.0338787
-0.0562764
0.0201165
-0.0573357
0.00732132
-0.0532315
-0.0301172
0.109482
-0.0351251
-0.120768
0.0978372
-0.0364401
0.0858419
-0.0375986
0.0734863
-0.0387772
0.0607481
-0.0400198
0.0475993
-0.0413455
0.034027
-0.042704
0.0201998
-0.0435086
0.00733967
-0.0403714
-0.0227775
0.109795
-0.0238176
-0.121102
0.0981121
-0.0247576
0.0860791
-0.0255656
0.0736857
-0.0263838
0.0609102
-0.0272443
0.0477249
-0.0281602
0.0341169
-0.0290961
0.0202539
-0.0296456
0.00735795
-0.0274754
-0.0154195
0.109879
-0.0125072
-0.121189
0.0981832
-0.0130617
0.0861381
-0.0135204
0.0737337
-0.0139794
0.0609482
-0.0144588
0.0477542
-0.0149662
0.034139
-0.0154809
0.0202701
-0.0157767
0.00736908
-0.0145744
-0.00805046
0.109737
-0.00121994
-0.121025
0.0980501
-0.00137463
0.0860158
-0.00148612
0.0736244
-0.00158796
0.060854
-0.00168843
0.0476774
-0.00178958
0.0340823
-0.00188574
0.0202359
-0.00193032
0.0073576
-0.00169607
-0.000692864
0.109375
-0.120669
0.0977134
0.0857086
0.0733512
0.0606194
0.0474859
0.0339385
0.0201446
0.00732052
0.017628
-0.209082
-0.0209325
0.0142565
-0.212951
0.0110079
-0.215829
0.00784765
-0.219025
0.00472385
-0.222836
0.00160499
-0.227322
-0.00147721
-0.231895
-0.0033378
-0.232854
-0.00311804
-0.210588
-0.112598
0.0495762
-0.20185
-0.056809
0.0420423
-0.205418
0.0347843
-0.208571
0.027819
-0.21206
0.0210632
-0.21608
0.0144565
-0.220715
0.00818938
-0.225627
0.00252663
-0.227191
-0.000898751
-0.207163
-0.113497
0.0767019
-0.190792
-0.0877595
0.0656905
-0.194406
0.0551633
-0.198044
0.0450944