/*--------------------------------*- C++ -*----------------------------------*\
  =========                 |
  \\      /  F ield         | OpenFOAM: The Open Source CFD Toolbox
   \\    /   O peration     | Website:  https://openfoam.org
    \\  /    A nd           | Version:  13
     \\/     M anipulation  |
\*---------------------------------------------------------------------------*/
FoamFile
{
    format      ascii;
    class       volScalarField;
    location    "68";
    object      p;
}
// * * * * * * * * * * * * * * * * * * * * * * * * * * * * * * * * * * * * * //

dimensions      [0 2 -2 0 0 0 0];

internalField   nonuniform List<scalar> 
440
(
-1.09738
-1.07676
-1.06795
-1.05272
-1.11531
-1.16849
-1.14363
-1.11706
-1.09072
-1.06724
-1.30349
-1.26105
-1.20699
-1.13818
-1.0668
-1.44328
-1.3863
-1.26833
-1.1326
-0.996331
-1.52517
-1.44304
-1.26103
-1.07525
-0.90893
-1.081
-1.13934
-1.29707
-1.51507
-1.76118
-1.23888
-1.24665
-1.27789
-1.32979
-1.40465
-1.18722
-1.16863
-1.15421
-1.157
-1.18964
-1.13587
-1.11314
-1.09148
-1.08079
-1.10282
-1.07305
-1.05237
-1.02448
-0.99444
-0.994057
-1.004
-0.198136
0.11906
0.131423
-0.0281278
-1.2376
-0.236581
0.405353
0.114257
-0.0143212
-1.32297
-0.25538
0.677492
0.0946517
-0.0342429
-1.2821
-0.304693
0.781323
0.127554
-0.0867955
-1.16995
-0.377369
0.485414
0.201934
-0.105036
-0.911271
-0.286883
0.250321
0.284861
-0.0748283
-0.46775
0.0685785
0.18453
0.309366
0.0240357
-0.293489
0.222164
0.405687
0.299459
0.0550727
-0.139203
0.18923
0.405452
0.294593
0.0391615
-0.0472311
0.137971
0.465983
0.382357
0.0657928
-0.629079
-0.745002
-0.916657
-1.07554
-1.26581
-0.359384
-0.47547
-0.568065
-0.623488
-0.658046
-0.173158
-0.276266
-0.334468
-0.369571
-0.386304
-0.0593584
-0.149669
-0.201555
-0.224725
-0.224776
-0.00487564
-0.0929699
-0.14078
-0.155512
-0.137679
0.800427
0.638109
0.430312
0.198869
-0.052872
0.352621
0.180176
-0.0286956
-0.267246
-0.542262
-0.0791192
-0.256405
-0.480253
-0.728026
-0.99518
-0.464711
-0.645279
-0.876731
-1.12185
-1.33271
-0.723879
-0.91481
-1.13352
-1.36171
-1.5034
1.96091
1.98776
2.00991
2.01696
2.00672
1.74923
1.76525
1.77438
1.76547
1.73442
1.52237
1.50387
1.4605
1.39297
1.29735
1.25802
1.2188
1.14122
1.031
0.889854
1.03266
0.917121
0.768764
0.599728
0.394973
1.76257
1.75315
1.72977
1.79805
1.86203
1.75109
1.74085
1.70659
1.77253
1.75956
1.74072
1.72591
1.68131
1.73416
1.63165
1.73156
1.70923
1.65429
1.6822
1.45005
1.72364
1.69118
1.62612
1.63032
1.2569
1.71735
1.66506
1.59135
1.52125
1.04403
1.71103
1.63457
1.57475
1.40239
1.18191
1.71935
1.61619
1.55073
1.35895
1.20898
1.71084
1.58724
1.53758
1.30251
1.22983
1.74836
1.5856
1.52955
1.27124
1.25085
0.760937
0.441657
0.0883625
-0.22775
-0.43147
0.647431
0.419441
0.181357
-0.0312491
-0.21178
0.63499
0.451592
0.271759
0.109644
-0.0505064
0.709716
0.52873
0.355762
0.201416
0.0564775
0.742312
0.559018
0.392441
0.245762
0.108477
-0.794052
-0.687608
-0.549487
-0.437701
-0.370916
-0.858968
-0.80464
-0.70101
-0.617852
-0.56839
-0.796609
-0.753141
-0.69548
-0.647746
-0.617385
-0.671829
-0.638506
-0.602632
-0.575083
-0.554942
-0.581696
-0.563407
-0.543879
-0.530996
-0.546411
-0.53422
-0.527492
-0.514083
-0.511582
-0.48681
-0.526541
-0.524765
-0.52018
-0.520722
-0.513987
-0.530156
-0.551043
-0.595044
-0.65572
-0.70333
-0.404487
-0.409732
-0.432484
-0.466779
-0.470091
-0.377825
-0.47605
-0.687683
-0.932596
-1.06519
-0.590876
0.764604
0.191142
0.0983775
-0.0304399
-0.503909
0.849523
0.110732
0.0996724
-0.0486221
-0.354519
0.93308
0.0397287
0.110022
-0.0538794
-0.256263
0.703213
0.015076
0.126177
-0.0492481
-0.563114
0.131773
-0.0238432
0.13249
-0.03604
-0.140715
0.532172
0.184253
0.10046
0.0129887
-0.475958
0.593578
0.243053
0.11533
-0.00195344
-0.331577
-0.555242
-0.571031
-0.564075
-0.34925
-0.348364
-0.551055
-0.596588
-0.553632
-0.565798
1.75193
1.7383
1.71003
1.66854
1.61351
1.90867
1.93134
1.94171
1.93824
1.92141
2.03597
2.06993
2.09805
2.11559
2.11983
2.09817
2.13627
2.17632
2.20893
2.22442
2.07115
2.10519
2.14221
2.17209
2.18469
0.00380316
-0.0818613
-0.215287
-0.37931
-0.550994
0.50151
0.39055
0.24156
0.0640755
-0.145295
0.94667
0.830471
0.692065
0.530659
0.339827
1.299
1.21088
1.10349
0.974613
0.823976
1.57956
1.5208
1.44418
1.35263
1.24684
1.83117
1.79035
1.78442
1.80826
1.84536
1.81494
1.78578
1.78053
1.81819
1.88851
1.80079
1.7799
1.77487
1.82943
1.94221
1.78735
1.77273
1.76425
1.82898
1.94126
1.77456
1.76409
1.74868
1.81888
1.91808
1.88931
1.80001
1.77885
1.74597
1.73236
1.84262
1.78923
1.77195
1.76206
1.74824
1.48362
1.31041
0.997891
0.536886
0.0295482
1.5484
1.33408
1.01073
0.554376
0.0366843
)
;

boundaryField
{
    left
    {
        type            zeroGradient;
    }
    right
    {
        type            fixedValue;
        value           uniform 0;
    }
    down
    {
        type            zeroGradient;
    }
    up
    {
        type            zeroGradient;
    }
    cylinder
    {
        type            zeroGradient;
    }
    defaultFaces
    {
        type            empty;
    }
}


// ************************************************************************* //
