/*--------------------------------*- C++ -*----------------------------------*\
  =========                 |
  \\      /  F ield         | OpenFOAM: The Open Source CFD Toolbox
   \\    /   O peration     | Website:  https://openfoam.org
    \\  /    A nd           | Version:  13
     \\/     M anipulation  |
\*---------------------------------------------------------------------------*/
FoamFile
{
    format      ascii;
    class       volScalarField;
    location    "1.595";
    object      p;
}
// * * * * * * * * * * * * * * * * * * * * * * * * * * * * * * * * * * * * * //

dimensions      [0 2 -2 0 0 0 0];

internalField   nonuniform List<scalar> 
440
(
-1.37307
-1.35184
-1.35444
-1.34112
-1.28942
-1.49813
-1.4724
-1.44502
-1.38946
-1.30645
-1.67425
-1.63395
-1.55187
-1.43608
-1.30516
-1.82188
-1.76125
-1.61464
-1.44565
-1.28677
-1.89255
-1.79139
-1.58651
-1.381
-1.19788
-0.554828
-0.56143
-0.568591
-0.557556
-0.52299
-0.751419
-0.75476
-0.762794
-0.75084
-0.699387
-1.00068
-1.00407
-1.01581
-1.03424
-0.948655
-1.19341
-1.1922
-1.20666
-1.24324
-1.15666
-1.29088
-1.27801
-1.28349
-1.30704
-1.23968
-0.195269
-0.00433717
0.077274
0.0456248
0.0140903
-0.310379
-0.0146775
0.0710795
0.0429675
0.0132272
-0.45809
-0.0345634
0.0624804
0.0396957
0.0122916
-0.596288
-0.0679045
0.0502921
0.0355544
0.0112079
-0.707917
-0.112256
0.0347562
0.0303824
0.00984527
-0.706968
-0.141398
0.0136996
0.0212347
0.00744853
-0.573408
-0.159531
-0.0283074
-0.000437446
0.00151418
-0.49187
-0.158576
-0.0334791
-0.00567328
-0.000450695
-0.445713
-0.183201
-0.0589753
-0.0188992
-0.00436698
-0.412106
-0.191717
-0.0722186
-0.0258375
-0.00629732
-0.898896
-1.00764
-1.06503
-1.09711
-1.10523
-0.640266
-0.739379
-0.797139
-0.822673
-0.823973
-0.465007
-0.554807
-0.612066
-0.63469
-0.636524
-0.350145
-0.438572
-0.494253
-0.516409
-0.51717
-0.293529
-0.382824
-0.439036
-0.462278
-0.461771
0.382289
0.233545
0.0527481
-0.152197
-0.387883
-0.010907
-0.175696
-0.377526
-0.607647
-0.869276
-0.421888
-0.597293
-0.817499
-1.05843
-1.31648
-0.769441
-0.952882
-1.18653
-1.436
-1.65396
-1.03593
-1.22493
-1.44987
-1.68701
-1.84866
1.70527
1.72606
1.74585
1.75484
1.74923
1.49943
1.50922
1.51322
1.50109
1.47009
1.23994
1.22561
1.19171
1.13625
1.05573
0.959249
0.916761
0.841735
0.737416
0.603138
0.672659
0.577596
0.4498
0.296371
0.111022
1.56169
1.44252
1.53411
1.53084
1.6391
1.54905
1.42765
1.51153
1.4946
1.54264
1.53703
1.41103
1.48689
1.44749
1.41567
1.52576
1.39328
1.46016
1.39133
1.23657
1.51573
1.37461
1.43264
1.32828
1.04252
1.50456
1.35057
1.39514
1.22483
0.82651
1.49513
1.32448
1.36348
1.13258
0.828757
1.4948
1.30494
1.34027
1.07595
0.829749
1.49121
1.28637
1.32496
1.03271
0.838067
1.51869
1.2825
1.31667
1.00572
0.844746
0.393442
0.106204
-0.236944
-0.523147
-0.746702
0.356539
0.154782
-0.0849618
-0.30758
-0.497134
0.376239
0.196135
0.0054794
-0.179195
-0.335218
0.416246
0.245034
0.0737047
-0.0883065
-0.227305
0.438983
0.272949
0.111931
-0.0398966
-0.173331
-1.03001
-0.911096
-0.767365
-0.655198
-0.589748
-1.04803
-0.995608
-0.891204
-0.804838
-0.755015
-0.934443
-0.88803
-0.824622
-0.77791
-0.74946
-0.760078
-0.707774
-0.679753
-0.677196
-0.702753
-0.65739
-0.614992
-0.598415
-0.632059
-0.710941
-0.731978
-0.722262
-0.700914
-0.802801
-0.811233
-0.75601
-0.770451
-0.796041
-0.890436
-0.840485
-0.589396
-0.604795
-0.64055
-0.673407
-0.642527
-0.47117
-0.481029
-0.495815
-0.497333
-0.477845
-0.462957
-0.473178
-0.484262
-0.479637
-0.455846
-0.572124
-0.0962584
0.0694767
0.0489009
0.0172404
-0.503992
-0.0499826
0.0796446
0.0572892
0.0181146
-0.340245
-0.0169383
0.0822365
0.0504024
0.016332
-0.197808
-0.00289995
0.0832966
0.0499738
0.0157975
-0.148477
0.000227569
0.0810646
0.0477278
0.0148763
-0.409117
-0.257478
0.0167032
0.0426813
0.0182939
-0.541907
-0.162418
0.0776225
0.0727113
0.0240939
-0.560896
-0.714332
-0.769669
-0.722198
-0.543367
-0.57122
-0.729944
-0.750616
-0.728295
-0.706624
1.58573
1.5684
1.53782
1.49467
1.43739
1.71877
1.73939
1.7488
1.7449
1.72846
1.82539
1.85235
1.87213
1.88166
1.88043
1.86374
1.8973
1.93432
1.96593
1.98141
1.82562
1.85583
1.89004
1.91849
1.93102
-0.203483
-0.291732
-0.434883
-0.607706
-0.808718
0.310066
0.193375
0.0395662
-0.148584
-0.385272
0.778034
0.658542
0.514397
0.34263
0.129426
1.1394
1.0488
0.939315
0.804557
0.64211
1.42363
1.36419
1.28436
1.1868
1.07291
1.62947
1.48738
1.60154
1.58016
1.67828
1.61473
1.48253
1.59278
1.58661
1.70188
1.60126
1.47556
1.58388
1.58596
1.74538
1.5879
1.46668
1.57028
1.57707
1.7271
1.57469
1.4556
1.55372
1.55844
1.69851
1.67939
1.49667
1.59989
1.53451
1.58799
1.64006
1.4875
1.5959
1.55259
1.59067
1.31212
1.14517
0.830984
0.350337
-0.181322
1.39388
1.17674
0.844768
0.368021
-0.172792
)
;

boundaryField
{
    left
    {
        type            zeroGradient;
    }
    right
    {
        type            fixedValue;
        value           uniform 0;
    }
    down
    {
        type            zeroGradient;
    }
    up
    {
        type            zeroGradient;
    }
    cylinder
    {
        type            zeroGradient;
    }
    defaultFaces
    {
        type            empty;
    }
}


// ************************************************************************* //
