/*--------------------------------*- C++ -*----------------------------------*\
  =========                 |
  \\      /  F ield         | OpenFOAM: The Open Source CFD Toolbox
   \\    /   O peration     | Website:  https://openfoam.org
    \\  /    A nd           | Version:  13
     \\/     M anipulation  |
\*---------------------------------------------------------------------------*/
FoamFile
{
    format      ascii;
    class       volVectorField;
    location    "7.085";
    object      U;
}
// * * * * * * * * * * * * * * * * * * * * * * * * * * * * * * * * * * * * * //

dimensions      [0 1 -1 0 0 0 0];

internalField   nonuniform List<vector> 
440
(
(-0.0702941 0.0584284 -5.23868e-20)
(-0.0707634 0.114852 5.43353e-21)
(0.0439502 0.100044 1.2039e-20)
(0.470513 0.106109 3.51626e-19)
(0.395151 0.246123 -1.41386e-20)
(-0.0600191 0.0321731 2.19991e-20)
(0.0778332 0.00354245 -1.12536e-19)
(0.512573 -0.0343573 -7.816e-20)
(1.06132 -0.0566788 1.61619e-20)
(1.44749 -0.0493303 -2.01624e-20)
(-0.00293187 -0.000696585 3.86373e-20)
(0.486227 -0.0473255 7.17529e-19)
(1.23982 -0.0306125 -4.41765e-19)
(1.80099 0.00694809 -1.29323e-18)
(2.37517 0.0280062 5.39216e-19)
(0.20342 -0.0475025 -1.6604e-19)
(1.17552 0.00158313 -5.59068e-19)
(1.94974 0.0787054 1.70865e-18)
(2.42009 0.12312 1.92943e-18)
(2.49775 0.148025 -5.14339e-19)
(0.56109 -0.00692183 -2.8948e-19)
(1.74458 0.187747 -6.26956e-19)
(2.30646 0.271589 1.92402e-18)
(2.42624 0.290429 2.00169e-18)
(2.50288 0.262601 6.72088e-19)
(0.00555748 -0.194859 1.35156e-20)
(-0.0516619 -0.378399 2.01222e-20)
(-0.133376 -0.422235 -7.07413e-20)
(-0.206249 -0.424856 1.24378e-20)
(-0.260135 -0.422972 9.79709e-20)
(-0.00110974 -0.0734783 -2.35921e-20)
(-0.0689245 -0.186887 -1.5088e-19)
(-0.153001 -0.23165 3.103e-20)
(-0.229552 -0.257356 3.35738e-20)
(-0.283413 -0.291459 -6.22433e-20)
(-0.0419019 0.0559323 -2.7023e-19)
(-0.114836 0.017883 2.22284e-19)
(-0.18997 -0.0241621 -1.4442e-19)
(-0.25913 -0.0676102 -3.51058e-19)
(-0.293768 -0.126678 -1.35843e-21)
(-0.0780778 0.125025 1.14258e-20)
(-0.133505 0.161461 -8.68397e-20)
(-0.173104 0.14579 1.39386e-20)
(-0.20058 0.105889 8.8147e-19)
(-0.192152 0.0447812 -2.05949e-19)
(-0.0868398 0.113288 4.24685e-20)
(-0.13623 0.205358 4.7616e-20)
(-0.146854 0.244496 1.09691e-19)
(-0.0662002 0.263651 -2.13082e-19)
(-0.0302466 0.329381 -5.65526e-19)
(-0.484469 -0.437912 -1.48479e-19)
(0.849046 0.0900164 -5.70934e-19)
(0.506315 1.00603 5.0754e-19)
(0.225262 0.29211 1.33528e-19)
(1.14286 -0.495649 -1.18368e-20)
(-0.439142 -0.561507 1.90015e-19)
(0.605677 -0.0696241 2.19313e-19)
(0.175248 1.0856 1.43779e-20)
(0.710842 0.170093 1.34444e-19)
(1.40714 -0.588317 -2.86334e-19)
(-0.200618 -0.619794 2.8454e-21)
(0.0691599 -0.158621 -3.22112e-18)
(-0.395081 1.03501 5.61897e-20)
(1.26284 -0.0894008 9.57325e-19)
(1.6261 -0.659364 4.46436e-20)
(0.338191 -0.635993 -2.34685e-19)
(-0.423631 -0.140689 1.38294e-19)
(-0.567966 0.839774 7.47301e-19)
(1.78561 -0.373268 -8.92761e-19)
(1.84468 -0.686929 -2.50625e-19)
(1.19019 -0.606358 -2.75082e-19)
(-0.257734 -0.138327 1.03555e-18)
(-0.0415317 0.482555 0)
(2.17704 -0.595402 4.26689e-19)
(2.01383 -0.69083 -7.11053e-20)
(2.187 -0.390227 -5.00188e-19)
(1.1087 0.00342242 4.15211e-20)
(1.11001 0.13973 3.40714e-20)
(2.55077 -0.769671 -1.44847e-19)
(2.09608 -0.674958 1.03147e-19)
(2.32139 -0.460143 6.37807e-20)
(1.6915 0.109425 -3.87279e-19)
(2.05879 0.00597265 2.02038e-20)
(2.75838 -0.792166 9.27228e-19)
(1.92959 -0.57575 0)
(2.2306 -0.184578 -2.49556e-19)
(1.76185 0.0726516 1.33392e-20)
(2.34362 -0.236162 4.132e-19)
(2.38738 -0.650063 -3.49055e-19)
(1.35207 -0.378464 2.50106e-20)
(1.98153 -0.140001 -2.0295e-20)
(1.91144 -0.018707 1.61842e-19)
(2.14661 -0.287083 3.4623e-20)
(1.73132 -0.460016 1.04192e-33)
(0.693185 -0.208686 2.18855e-20)
(1.29903 -0.0148473 6.3712e-20)
(1.36073 -0.0562184 1.49979e-20)
(0.97411 -0.127556 -7.70013e-20)
(0.17033 -0.0026086 9.46515e-20)
(-0.307192 0.0251244 -6.15377e-21)
(2.39445 0.278256 -8.19541e-19)
(2.63448 0.0624689 -1.11296e-18)
(2.42297 0.122806 7.73169e-19)
(2.74015 -0.089848 7.07927e-20)
(1.91034 0.108533 -4.048e-20)
(2.11918 0.202757 6.87229e-20)
(2.49319 0.0311631 -4.00403e-20)
(2.23488 0.0638293 -1.40789e-19)
(2.55493 -0.11595 -2.37425e-19)
(2.30863 -0.127145 -4.82414e-21)
(2.09685 0.0880501 7.67254e-20)
(2.23162 0.0391321 9.29822e-20)
(2.20401 -0.012719 -1.20239e-19)
(2.27072 -0.049033 4.13904e-20)
(2.30399 -0.115722 1.94686e-20)
(1.98871 0.0385295 1.14449e-19)
(1.97715 0.0239553 1.5215e-19)
(2.09754 -0.00872255 -1.81027e-20)
(2.04554 -0.0258633 -4.42998e-20)
(2.18237 -0.0517169 2.21235e-20)
(1.44597 -0.00430339 1.80744e-19)
(1.41594 -0.00107741 -1.1116e-20)
(1.5043 -0.0152521 1.85121e-20)
(1.43449 -0.00736623 -2.69239e-20)
(1.54716 -0.025243 3.53046e-21)
(1.57486 0.826679 1.09008e-18)
(1.52488 0.925311 -3.40887e-19)
(1.52 1.05646 -1.32733e-18)
(1.45294 1.10709 7.2563e-19)
(0.894269 0.799704 -1.75886e-19)
(1.84477 0.797509 -5.73711e-19)
(1.81714 0.876539 -2.9485e-18)
(1.82621 0.983084 -1.13208e-18)
(1.73662 0.994948 -4.14674e-19)
(1.06292 0.698098 -6.61159e-19)
(2.16144 0.674485 7.23509e-19)
(2.13227 0.742687 2.015e-19)
(2.10297 0.832103 -2.21282e-18)
(1.97266 0.821758 -6.23194e-19)
(1.16626 0.544448 4.78869e-19)
(2.31388 0.57107 2.21102e-18)
(2.30751 0.62097 1.63091e-18)
(2.30414 0.668874 -1.90935e-18)
(2.08118 0.624443 -1.42227e-18)
(1.13819 0.359036 -2.71679e-19)
(2.47697 0.415419 1.07793e-18)
(2.47303 0.435693 -8.03845e-19)
(2.36357 0.46075 5.55555e-19)
(2.03034 0.403364 4.57767e-19)
(0.941599 0.155231 -3.84114e-19)
(0.56837 0.443737 -6.77021e-19)
(0.478029 0.47871 -5.25409e-19)
(0.360389 0.513775 6.30259e-20)
(0.224212 0.519593 -1.34679e-20)
(0.0552241 0.374893 8.17458e-20)
(0.676904 0.610793 9.36843e-20)
(0.612672 0.66758 -3.15055e-19)
(0.523179 0.733425 1.84381e-19)
(0.396325 0.789452 -8.49804e-20)
(0.171967 0.603475 1.2053e-19)
(0.769827 0.809991 1.7808e-19)
(0.697667 0.890403 4.45342e-19)
(0.641759 0.986724 7.81716e-20)
(0.55753 1.02938 -2.93069e-19)
(0.305839 0.762958 2.40793e-19)
(1.04568 0.885263 2.12805e-19)
(0.999612 0.968537 -6.38761e-19)
(0.947137 1.06565 -1.83955e-18)
(0.863766 1.13329 7.49904e-19)
(0.510121 0.845986 -1.75495e-19)
(1.11652 0.92852 -1.15249e-19)
(1.14887 1.0517 -1.92207e-19)
(1.17603 1.16833 -3.4983e-19)
(1.12324 1.19463 -3.99014e-19)
(0.691717 0.859049 -6.45577e-21)
(1.00146 0.0593282 -9.90085e-20)
(0.993607 0.0155616 -3.81617e-20)
(1.04605 0.124552 -1.51969e-21)
(0.937546 0.132893 -2.94609e-19)
(0.889378 0.267934 3.2367e-19)
(0.98713 0.0584867 6.23402e-20)
(1.01006 0.00867907 1.3789e-19)
(1.03725 0.136174 1.27662e-19)
(0.971642 0.161374 4.01987e-20)
(0.928729 0.349185 -1.29748e-21)
(0.991034 0.0576548 8.46098e-20)
(0.99933 -0.000100404 -5.22956e-21)
(1.08146 0.154221 -5.91666e-21)
(0.927985 0.163155 1.596e-19)
(1.12754 0.48623 -4.90479e-19)
(0.984943 0.0577532 -4.41057e-22)
(1.02238 -0.0127284 -1.94599e-19)
(1.07896 0.175408 -6.71821e-20)
(1.00607 0.175452 -4.01867e-19)
(1.14407 0.534162 9.09851e-20)
(0.983152 0.0492969 -1.46107e-20)
(1.03368 -0.012007 5.71946e-20)
(1.11971 0.182666 3.20751e-20)
(0.977483 0.200425 4.82073e-19)
(1.39018 0.665685 -4.63557e-19)
(0.949318 0.049071 -7.48742e-21)
(1.11312 -0.0408322 1.13165e-19)
(1.08996 0.218137 -8.00226e-20)
(1.21959 0.131241 9.01944e-19)
(1.3027 0.688691 -3.7734e-19)
(0.907635 0.0135453 -1.68635e-21)
(1.20706 -0.0395346 -9.71507e-20)
(0.996053 0.154207 4.76517e-21)
(1.3087 0.137219 -2.8923e-19)
(1.25936 0.460062 -2.48874e-20)
(0.964219 -0.00509597 -4.42128e-21)
(1.15893 -0.0401126 1.36784e-35)
(1.00871 0.14925 -2.43398e-20)
(1.25764 0.0843837 9.6883e-20)
(1.43073 0.286621 1.76936e-19)
(1.07884 -0.054358 4.33407e-21)
(0.962736 -0.0309543 -2.87517e-20)
(1.12437 0.0879542 1.87859e-20)
(1.23201 0.0136638 3.16994e-20)
(1.5308 0.15043 -2.64733e-19)
(0.987063 -0.024008 -4.18827e-20)
(0.736065 -0.0186211 -5.54244e-21)
(0.949881 0.00920117 2.23485e-20)
(0.896399 -0.018281 -1.72532e-20)
(1.04966 0.05103 -5.95657e-20)
(1.81307 0.609804 3.02475e-19)
(1.89816 0.645124 7.3467e-19)
(2.17565 0.508648 -1.05402e-18)
(2.22152 0.499922 -3.49376e-20)
(2.45714 0.297295 4.79274e-19)
(1.75138 0.401671 8.90782e-20)
(1.77007 0.423091 1.04633e-18)
(2.04201 0.334215 1.3231e-19)
(1.97642 0.334226 -9.40634e-19)
(2.30785 0.181101 -2.8435e-19)
(1.73697 0.293554 -2.50818e-19)
(1.82157 0.255219 -1.5907e-19)
(1.94811 0.233496 1.62816e-19)
(1.97765 0.182404 -2.97125e-19)
(2.1225 0.135178 2.66793e-19)
(1.67527 0.164949 3.5771e-19)
(1.75407 0.134413 -5.55496e-21)
(1.78792 0.12979 2.24765e-19)
(1.87391 0.0905104 1.96445e-19)
(1.8901 0.0764084 -1.88572e-19)
(1.22055 0.0573002 -4.22691e-20)
(1.27777 0.0402887 2.37292e-19)
(1.31396 0.0350502 1.09658e-19)
(1.37203 0.0154495 -2.25767e-19)
(1.37764 0.0115317 1.3066e-22)
(1.22167 -0.0326657 5.28644e-20)
(2.29193 -0.0512066 -4.46705e-19)
(2.52709 -0.0427493 1.23763e-18)
(2.50651 0.00196834 5.53088e-19)
(2.3693 0.0333921 -3.72228e-19)
(0.739832 0.0898417 8.81986e-20)
(2.05872 0.0771872 -4.47677e-19)
(2.54271 0.0784623 -5.9536e-19)
(2.60501 0.0930743 7.23335e-19)
(2.32425 0.0816819 -4.4614e-19)
(0.189837 0.0688385 -3.90195e-20)
(1.37238 0.137906 4.53973e-19)
(2.18413 0.159135 6.96018e-20)
(2.59181 0.151398 3.86471e-19)
(2.80073 0.152478 1.6915e-19)
(-0.0751734 -0.0433193 2.11612e-19)
(0.454203 0.0578728 2.06926e-19)
(1.33571 0.136527 -4.31173e-19)
(1.86733 0.170078 2.15736e-20)
(2.49977 0.201354 -2.56592e-20)
(-0.128429 -0.103834 1.55429e-19)
(-0.0507762 -0.0774217 -1.66569e-19)
(0.431102 0.0112917 -2.08833e-20)
(0.940959 0.0433563 4.4023e-20)
(1.38284 0.101823 -5.19647e-20)
(-0.0887034 -0.0834094 3.73535e-21)
(-0.164911 -0.12036 1.11631e-19)
(-0.0680151 -0.125209 1.4945e-19)
(0.140781 -0.112108 -1.43366e-19)
(0.51344 -0.0573318 9.43628e-21)
(-0.0361146 -0.0469775 -2.60049e-22)
(-0.104095 -0.155781 -1.02348e-19)
(-0.115539 -0.258492 -8.32448e-20)
(-0.0686319 -0.326827 2.96078e-20)
(0.0313955 -0.32138 1.97323e-20)
(-0.0291899 -0.0864221 6.99426e-21)
(-0.0533641 -0.298497 2.46096e-19)
(-0.0418525 -0.457369 -1.17065e-19)
(-0.00699027 -0.539262 -2.16958e-19)
(0.0192895 -0.572999 -3.12765e-21)
(-0.032775 -0.191924 -1.36876e-20)
(-0.0405442 -0.486237 -5.38542e-20)
(-0.0358253 -0.6328 4.50562e-20)
(-0.0276107 -0.667058 -7.61408e-20)
(-0.0101062 -0.637842 5.12573e-21)
(-0.0136705 -0.250329 4.9873e-21)
(-0.0405278 -0.512482 -7.39495e-21)
(-0.0843081 -0.579562 -6.27209e-22)
(-0.130813 -0.558191 2.77162e-23)
(-0.166605 -0.512702 2.98263e-20)
(1.65527 0.475053 -3.73291e-20)
(1.64725 0.341913 5.73057e-19)
(1.31606 0.17215 -6.91261e-20)
(0.34998 0.124829 6.04344e-20)
(0.357687 -0.0371659 -9.37489e-21)
(1.34345 0.243764 -1.43697e-20)
(1.56507 0.377 -9.46083e-21)
(1.21672 0.336764 1.63698e-20)
(0.0730846 0.232444 7.41576e-21)
(0.330103 -0.0606101 1.12654e-19)
(0.718631 -0.0237618 -1.00558e-19)
(1.33602 0.391127 1.28119e-19)
(0.996174 0.515399 3.96922e-20)
(-0.201012 0.321985 -5.17298e-19)
(0.427807 -0.125425 -5.31749e-21)
(0.140752 -0.163797 1.32341e-19)
(1.09004 0.37016 3.40431e-19)
(0.786125 0.700296 -3.33644e-19)
(-0.289757 0.364263 -2.39789e-21)
(0.612887 -0.24341 -2.47164e-19)
(-0.303825 -0.268695 1.58425e-20)
(0.933156 0.281439 2.10843e-19)
(0.626515 0.886054 4.41291e-19)
(-0.132644 0.358675 -9.76998e-21)
(0.862437 -0.374299 -4.22668e-19)
(0.606914 0.187672 -2.36518e-20)
(-0.233619 -0.0949924 0)
(-0.19235 -0.114727 -3.18756e-20)
(-0.12357 -0.061894 5.9553e-20)
(0.147968 -0.0252501 5.57896e-21)
(2.12885 0.468771 0)
(1.52582 0.359203 0)
(1.13127 0.0726952 3.82149e-19)
(0.470093 -0.0319042 6.14998e-20)
(0.4682 -0.0569487 5.91123e-21)
(0.763792 0.000899405 -1.26295e-19)
(0.819807 -0.00357169 1.70667e-19)
(1.0195 -0.0144606 -2.39896e-20)
(1.11866 0.0110519 3.25952e-19)
(1.48017 0.061217 2.1361e-19)
(1.72662 0.0225177 1.19181e-19)
(1.87547 0.0756002 2.30219e-19)
(2.0633 0.0282097 -1.36231e-19)
(2.70711 0.179419 -4.62199e-20)
(2.33253 0.0941135 4.61612e-20)
(0.932896 -0.493675 4.03438e-21)
(0.922169 -0.585763 -1.6976e-19)
(0.914652 -0.684688 -1.48207e-19)
(0.84192 -0.754216 9.03659e-20)
(0.510273 -0.591744 1.2642e-19)
(0.828022 -0.400703 1.21953e-19)
(0.76993 -0.466426 2.14151e-19)
(0.69302 -0.537713 -6.86683e-20)
(0.578699 -0.599077 1.28983e-19)
(0.315711 -0.474317 3.72213e-20)
(0.657956 -0.261759 -1.5424e-19)
(0.567458 -0.302384 -4.84293e-20)
(0.467204 -0.354591 8.39853e-20)
(0.350936 -0.400901 -2.55367e-20)
(0.158187 -0.316975 -1.14443e-19)
(0.555205 -0.0290069 -4.50654e-19)
(0.469777 -0.0456281 -3.69244e-19)
(0.36095 -0.0722345 2.89142e-19)
(0.234521 -0.10612 1.74073e-19)
(0.0672115 -0.101324 1.36681e-20)
(0.52901 0.174322 -1.73781e-19)
(0.444338 0.175848 -1.78034e-19)
(0.328392 0.175097 -7.03198e-20)
(0.190327 0.179165 3.24431e-20)
(0.0301456 0.137223 1.39527e-20)
(2.0806 -0.0422392 8.18239e-19)
(2.35957 -0.109321 2.91966e-19)
(2.43427 -0.198067 -7.65345e-19)
(2.28669 -0.22395 -1.59438e-18)
(1.3789 -0.201729 1.16051e-19)
(2.07628 -0.126006 1.39926e-18)
(2.15545 -0.239862 1.83374e-18)
(2.17134 -0.364673 1.49834e-19)
(2.09783 -0.425042 2.55893e-19)
(1.34905 -0.37908 -1.68819e-19)
(1.76101 -0.294472 -3.65828e-18)
(1.82746 -0.412766 4.33993e-19)
(1.87757 -0.539048 1.13421e-18)
(1.82017 -0.615665 -4.51634e-19)
(1.18387 -0.527267 7.06444e-19)
(1.55402 -0.41705 8.72041e-19)
(1.56915 -0.515615 -2.28375e-18)
(1.55124 -0.63452 -2.6777e-18)
(1.48354 -0.725431 8.3602e-19)
(0.95803 -0.60243 5.36826e-19)
(1.24998 -0.478608 1.94863e-19)
(1.19698 -0.572714 2.42347e-19)
(1.1886 -0.696993 -4.02656e-19)
(1.13639 -0.785816 -4.87633e-19)
(0.719585 -0.626334 -4.66653e-21)
(1.03585 0.0559762 7.79092e-21)
(0.938308 0.0449457 -5.22193e-21)
(1.12788 0.0809379 -4.44918e-21)
(0.812863 0.000841778 -2.10508e-19)
(1.14369 -0.221013 -9.71631e-21)
(1.05461 0.0620861 -2.59631e-21)
(0.923504 0.0383604 5.09818e-20)
(1.12138 0.0978113 -4.09477e-20)
(0.895022 0.0458147 1.17227e-19)
(1.01409 -0.105047 -1.98873e-20)
(1.05923 0.0617336 -6.38679e-20)
(0.925914 0.0317577 4.86991e-22)
(1.10214 0.097858 -1.77249e-20)
(0.888563 0.0666361 2.71665e-20)
(0.978994 -0.0445067 -1.76914e-19)
(1.04295 0.0619668 7.70267e-20)
(0.956616 0.0260124 3.27255e-21)
(1.06268 0.103669 3.22536e-20)
(0.925722 0.0913065 2.38769e-20)
(0.872032 0.0668034 1.11364e-19)
(1.01728 0.0596347 1.92709e-20)
(0.986966 0.0231805 -3.03752e-20)
(1.03566 0.110972 4.43927e-20)
(0.947655 0.117063 7.82619e-20)
(0.840431 0.164521 -1.05523e-19)
(0.875389 0.0334243 0)
(0.73147 0.0292452 1.01398e-20)
(0.604485 0.022345 3.61513e-21)
(0.357435 -0.00942983 3.76918e-20)
(0.692112 -0.0557852 -1.24884e-19)
(0.999346 0.0727608 -6.41382e-20)
(0.965872 0.0664893 -1.81226e-20)
(1.02927 0.081376 -3.85028e-20)
(0.824729 -0.00243155 -1.13094e-19)
(1.04194 -0.202296 -1.29547e-19)
(0.967003 -0.0643432 -2.89209e-20)
(1.05411 -0.0340903 4.91929e-19)
(1.15194 0.0375277 3.08396e-19)
(1.02644 0.0573522 2.39495e-20)
(0.791618 0.0307386 0)
(1.33671 -0.320017 2.93658e-19)
(1.45108 -0.28303 1.45931e-18)
(1.63303 -0.162357 -1.66401e-18)
(1.74007 -0.0232549 -5.18391e-19)
(1.6352 0.0299829 3.75432e-19)
)
;

boundaryField
{
    left
    {
        type            fixedValue;
        value           uniform (1 0 0);
    }
    right
    {
        type            zeroGradient;
    }
    down
    {
        type            noSlip;
    }
    up
    {
        type            noSlip;
    }
    cylinder
    {
        type            noSlip;
    }
    defaultFaces
    {
        type            empty;
    }
}


// ************************************************************************* //
