# Selection   : all
# Cells       : 1800
# Volume      : 7.372328e+01
# Time        	minMag(U)
1.45          	5.226240e-03
1.475         	3.584773e-03
1.5           	3.102349e-03
