/*--------------------------------*- C++ -*----------------------------------*\
  =========                 |
  \\      /  F ield         | OpenFOAM: The Open Source CFD Toolbox
   \\    /   O peration     | Website:  https://openfoam.org
    \\  /    A nd           | Version:  13
     \\/     M anipulation  |
\*---------------------------------------------------------------------------*/
FoamFile
{
    format      ascii;
    class       volScalarField;
    location    "0.38";
    object      p;
}
// * * * * * * * * * * * * * * * * * * * * * * * * * * * * * * * * * * * * * //

dimensions      [0 2 -2 0 0 0 0];

internalField   nonuniform List<scalar> 
1800
(
5.77907
7.88624
10.0392
11.4677
12.3023
12.7132
12.8448
12.6884
11.4437
7.35346
9.63143
12.1072
14.6123
16.2964
17.3533
18.0163
18.4715
18.7114
17.988
15.3117
16.026
18.6508
21.3237
23.1871
24.4476
25.3296
25.9808
26.3647
25.8942
24.0643
25.0229
27.5924
30.2409
32.1556
33.5211
34.5304
35.2931
35.7454
35.3398
33.6559
36.0828
38.4438
40.8961
42.7079
44.0324
45.0288
45.7835
46.2331
45.8832
44.3283
48.7608
50.8134
52.9572
54.5636
55.7547
56.6571
57.3395
57.7502
57.4693
56.1103
62.7101
64.383
66.1388
67.4709
68.473
69.2427
69.8343
70.2114
70.0364
68.9479
77.6367
78.8783
80.1895
81.1989
81.9749
82.5888
83.083
83.438
83.4046
82.6683
93.2556
94.0353
94.867
95.5219
96.0448
96.4823
96.8651
97.1885
97.2988
96.9644
109.285
109.59
109.922
110.196
110.434
110.655
110.872
111.086
111.247
111.274
-0.534622
-0.785667
-0.566384
-0.155215
0.312565
0.775927
1.13463
1.34664
1.49091
1.63538
-0.453917
-0.96154
-1.06348
-0.854194
-0.431964
-0.00753417
0.288627
0.531654
0.808616
1.07941
0.512502
-0.44345
-1.25702
-1.41699
-1.09224
-0.782462
-0.562449
-0.255947
0.149143
0.533805
0.894696
-0.236888
-1.4159
-1.75032
-1.53155
-1.37094
-1.23708
-0.928625
-0.471616
0.0363583
0.465935
-0.494979
-1.42206
-1.70996
-1.65148
-1.65443
-1.60933
-1.34333
-0.850385
-0.155322
-0.226457
-0.739279
-1.13256
-1.25939
-1.2777
-1.33719
-1.32312
-1.11014
-0.58258
0.351395
-0.549327
-0.509708
-0.329881
-0.181997
-0.095559
-0.0715588
-0.0287894
0.145318
0.726623
1.9586
-0.0557629
0.531276
1.25363
1.75913
2.08983
2.30502
2.45729
2.67733
3.41112
5.07523
1.39869
2.50689
3.75585
4.67787
5.34849
5.84185
6.18354
6.52502
7.51427
9.80356
3.64535
5.28833
7.1067
8.48286
9.50586
10.2665
10.7898
11.2444
12.3074
14.4724
2.34737
2.48539
2.38291
2.14676
1.65499
1.24293
0.90181
0.635326
0.396096
0.145485
1.98957
2.45439
2.26972
2.05311
1.56402
1.16528
0.858516
0.613959
0.384485
0.139675
1.50712
2.42113
2.16214
1.95149
1.47768
1.0941
0.817869
0.592996
0.37214
0.133978
0.881984
2.33898
2.0601
1.83978
1.39199
1.02726
0.778866
0.57359
0.36172
0.129422
0.190259
2.16618
1.95164
1.71683
1.30444
0.964239
0.742118
0.556359
0.353277
0.12629
-0.37923
1.8912
1.81767
1.58036
1.2127
0.904889
0.708552
0.541454
0.346877
0.124525
-0.52592
1.54639
1.64316
1.42635
1.11423
0.84857
0.678813
0.529036
0.342611
0.124158
0.204484
1.22
1.418
1.24447
1.0041
0.793366
0.653164
0.519358
0.340646
0.12535
2.4616
1.08566
1.1212
1.00912
0.871523
0.73531
0.631143
0.512807
0.341278
0.128135
6.69719
1.45646
0.76757
0.698797
0.704952
0.669847
0.611697
0.50949
0.344581
0.132231
10.0317
2.63617
0.754235
0.465932
0.52953
0.590165
0.588436
0.504412
0.342023
0.129533
11.82
2.62907
0.318277
0.103144
0.378406
0.539332
0.564894
0.478813
0.317401
0.112519
12.9108
2.81813
0.421756
0.166755
0.469652
0.589144
0.561816
0.448065
0.290588
0.0947807
14.2212
4.39165
1.29512
0.73364
0.793911
0.736879
0.591671
0.42724
0.261665
0.0741578
16.3966
7.13936
2.72767
1.61456
1.26597
0.962493
0.658495
0.420175
0.235744
0.0537781
19.2929
9.91736
4.37917
2.60089
1.81767
1.24217
0.762291
0.432038
0.217171
0.036152
21.8019
11.9865
5.90727
3.57403
2.39913
1.54984
0.892025
0.462532
0.209112
0.0238395
23.0819
13.171
7.10697
4.47961
2.98082
1.86767
1.03767
0.509759
0.213247
0.0186518
23.0215
13.5494
7.96717
5.32808
3.57247
2.20306
1.2032
0.577182
0.233405
0.0224925
22.4684
13.7738
8.73758
6.18784
4.19648
2.57718
1.4083
0.680094
0.284581
0.0398401
111.831
97.8844
84.1195
71.1142
59.175
48.3948
38.8134
30.1367
20.1251
5.01888
112.811
99.5222
86.0212
73.0147
60.972
50.0917
40.5594
32.3025
23.6382
11.5239
113.342
100.256
87.3755
75.0489
63.51
52.9181
43.4887
35.3009
27.5156
18.3815
114.554
102.814
90.8544
79.0227
67.665
57.0688
47.435
38.8342
31.1273
23.8639
115.131
104.12
93.1996
82.5084
72.1612
62.2362
52.7727
43.8608
36.0409
29.8605
115.481
104.754
94.2472
84.0855
74.3651
65.1358
56.3766
48.1352
41.0932
36.0754
115.712
105.153
94.842
84.9099
75.4673
66.587
58.2785
50.6113
44.2577
40.1388
115.813
105.292
95.0251
85.1538
75.7998
67.054
58.9504
51.5573
45.441
41.4819
115.763
105.077
94.6508
84.6317
75.1527
66.3203
58.1904
50.8212
44.5977
40.1453
115.639
104.692
94.0049
83.7275
74.0021
64.9521
56.6575
49.163
42.6544
37.4599
234.178
229.819
228.256
227.817
227.727
227.98
228.715
230.096
232.248
234.388
225.612
222.597
221.551
221.514
221.741
222.226
223.158
224.766
227.238
229.714
216.097
213.925
213.154
213.28
213.713
214.417
215.542
217.312
219.927
222.525
205.79
203.764
203.062
203.258
203.803
204.633
205.857
207.666
210.235
212.754
194.465
192.557
191.903
192.092
192.624
193.436
194.613
196.308
198.662
200.953
182.098
180.374
179.781
179.923
180.376
181.088
182.124
183.602
185.631
187.596
168.751
167.289
166.796
166.899
167.255
167.828
168.667
169.86
171.488
173.059
154.616
153.5
153.146
153.223
153.479
153.892
154.499
155.361
156.532
157.66
140.007
139.293
139.086
139.136
139.281
139.516
139.866
140.368
141.05
141.706
125.482
125.138
124.998
124.95
124.938
124.96
125.027
125.146
125.323
125.499
246.545
246.779
247.025
247.241
247.54
248.036
248.579
248.914
248.927
248.425
246.645
246.973
247.37
247.67
247.869
248.2
248.616
248.534
247.735
246.727
246.68
247.074
247.516
247.824
247.907
248.038
248.316
247.955
246.574
245.32
246.576
247.077
247.506
247.738
247.673
247.565
247.604
247.182
245.883
244.72
246.091
246.746
247.138
247.248
247.076
246.805
246.636
246.279
245.466
244.669
244.882
245.728
246.07
246.043
245.819
245.542
245.351
245.183
244.942
244.651
242.535
243.635
243.98
243.873
243.67
243.512
243.482
243.616
243.923
244.161
238.649
240.139
240.615
240.556
240.478
240.534
240.774
241.271
242.085
242.823
233.175
235.233
235.947
236.02
236.15
236.499
237.088
237.995
239.3
240.512
227.818
229.688
230.437
230.608
230.918
231.536
232.479
233.831
235.679
237.387
247.018
246.781
246.752
246.54
246.442
246.278
245.913
245.665
245.573
245.717
246.98
246.78
246.747
246.541
246.44
246.285
245.935
245.666
245.405
245.762
246.953
246.775
246.738
246.536
246.433
246.292
245.954
245.635
245.193
245.868
246.934
246.767
246.726
246.524
246.421
246.298
245.963
245.563
244.992
246.07
246.921
246.757
246.711
246.507
246.406
246.297
245.954
245.468
244.865
246.312
246.914
246.746
246.695
246.487
246.388
246.284
245.928
245.379
244.837
246.416
246.912
246.734
246.677
246.464
246.365
246.259
245.896
245.323
244.876
246.077
246.916
246.719
246.658
246.439
246.34
246.227
245.875
245.316
244.889
244.834
246.925
246.702
246.637
246.411
246.313
246.203
245.898
245.379
244.704
242.055
246.941
246.682
246.612
246.382
246.288
246.207
245.993
245.493
244.019
237.337
246.977
246.66
246.575
246.337
246.233
246.141
245.901
245.144
242.468
233.772
247.092
246.645
246.545
246.298
246.189
246.199
246.119
245.356
242.204
231.824
247.34
246.657
246.52
246.233
246.113
246.176
246.147
245.295
241.933
230.572
247.805
246.718
246.501
246.159
245.971
245.906
245.705
244.612
240.55
229.37
248.656
246.794
246.525
246.063
245.756
245.385
244.81
243.292
238.075
227.518
250.476
246.865
246.623
245.983
245.469
244.713
243.697
241.608
235.419
224.96
254.352
247.166
246.767
245.915
245.121
243.997
242.585
239.978
233.339
222.62
262.655
248.301
247.032
245.862
244.754
243.31
241.578
238.681
232.094
221.36
280.217
251.034
247.672
245.888
244.405
242.662
240.669
237.748
231.65
221.389
306.189
255.081
249.171
246.091
244.118
242.045
239.789
236.933
231.379
221.917
236.464
221.112
210.489
201.174
191.014
179.71
167.316
153.944
139.898
125.768
230.068
217.772
208.621
199.902
189.966
178.729
166.383
153.133
139.409
125.935
223.538
214.172
205.995
197.47
187.756
176.916
165.163
152.662
139.644
126.466
218.434
210.927
202.934
194.084
184.24
173.473
161.979
150.034
137.971
126.136
213.039
206.643
198.647
189.55
179.879
169.741
159.19
148.322
137.267
126.174
207.43
202.132
194.871
186.401
177.403
167.948
158.029
147.707
137.087
126.3
203.628
199.189
192.601
184.705
176.173
167.088
157.468
147.393
136.983
126.373
202.345
198.089
191.745
184.133
175.821
166.886
157.367
147.364
137.006
126.437
203.672
198.958
192.51
184.926
176.595
167.581
157.944
147.798
137.283
126.552
206.346
200.912
194.177
186.467
177.973
168.742
158.86
148.457
137.681
126.688
112.223
112.393
112.477
112.328
111.822
111.461
111.276
111.561
111.553
111.304
89.6515
90.1147
90.3332
89.8997
88.4678
87.3815
86.7607
87.4223
87.4599
86.8735
68.8117
69.4392
69.7003
69.0335
67.0944
65.3828
64.3627
64.9114
65.2158
64.6608
50.6969
51.3031
51.4925
50.6694
48.6905
46.5247
45.1948
45.2303
45.9687
45.7354
36.0544
36.4625
36.5125
35.6311
33.8394
31.5238
29.8802
29.3151
30.1226
30.3104
25.0044
25.1075
24.9851
24.0619
22.4846
20.4555
18.6649
17.7234
17.9785
18.4785
17.1197
16.969
16.7538
15.7629
14.3487
12.8457
11.3584
10.2935
9.95372
10.3202
11.6341
11.4568
11.4078
10.4086
9.0901
8.08847
7.19688
6.35394
5.76548
5.68171
7.96121
7.87247
8.16783
7.30028
6.13484
5.54445
5.21536
4.83047
4.34646
3.9668
6.09322
5.88787
6.27252
5.5352
4.66643
4.39022
4.41371
4.4039
4.25116
3.85528
5.32738
5.09012
5.1715
4.47771
3.94571
3.88897
4.038
4.18018
4.30101
4.35757
4.90243
4.79273
4.51424
3.84797
3.56161
3.64786
3.85007
4.01708
4.13655
4.2227
4.52663
4.48122
4.04842
3.49723
3.37587
3.53713
3.76066
3.93874
4.05641
4.11667
4.07518
4.01969
3.61283
3.26027
3.26831
3.46954
3.68107
3.83761
3.93582
3.97706
3.53123
3.43753
3.16308
3.04155
3.15625
3.37112
3.55994
3.69674
3.77763
3.8013
2.88582
2.79036
2.72824
2.81571
3.01039
3.21344
3.37833
3.49719
3.56379
3.57709
2.16767
2.18166
2.31276
2.54419
2.778
2.97547
3.13018
3.24337
3.30907
3.32423
1.4971
1.61327
1.86104
2.15087
2.40466
2.61773
2.79234
2.9296
3.01612
3.04401
0.825969
0.96175
1.23339
1.55722
1.86249
2.13027
2.36415
2.54685
2.6515
2.68947
0.157348
0.0753367
0.305693
0.710143
1.12375
1.49919
1.81878
2.03313
2.13741
2.20029
3.71177
3.75451
3.62408
3.29655
2.65039
1.96507
1.37461
0.89719
0.487309
0.138563
3.78454
3.72856
3.57373
3.28062
2.61069
1.90729
1.32135
0.86157
0.470833
0.139785
3.8114
3.62388
3.46261
3.22686
2.5663
1.85205
1.27018
0.828099
0.456628
0.141515
3.77355
3.45018
3.31132
3.12521
2.5086
1.79773
1.22115
0.796799
0.444525
0.143227
3.66805
3.24519
3.14565
2.97345
2.42601
1.74018
1.17353
0.767534
0.434251
0.144812
3.50766
3.05046
2.98848
2.79251
2.31275
1.67604
1.12744
0.740515
0.425618
0.146143
3.3169
2.88514
2.84804
2.61429
2.17251
1.60248
1.08267
0.715939
0.418419
0.147
3.11076
2.74797
2.72343
2.46164
2.02112
1.51783
1.03845
0.693803
0.412269
0.147143
2.88618
2.63317
2.60862
2.33919
1.87893
1.4243
0.993814
0.673924
0.407021
0.146398
2.6349
2.54326
2.49647
2.23851
1.75739
1.32985
0.94791
0.655477
0.403149
0.14822
5.47244
4.0271
3.33071
2.95049
2.47373
1.95554
1.44732
0.973304
0.536455
0.150572
4.66884
3.80646
3.3662
3.01093
2.51391
1.96474
1.43764
0.959281
0.52423
0.145061
3.99913
3.71437
3.4263
3.07964
2.55266
1.97247
1.42827
0.947044
0.515016
0.141316
3.67936
3.71464
3.511
3.1592
2.59321
1.97944
1.41853
0.935535
0.507562
0.13925
3.66461
3.75736
3.6122
3.25092
2.63839
1.98608
1.40705
0.923051
0.500615
0.138759
112.054
88.9898
67.9417
50.1728
36.1603
25.8418
18.673
13.7983
10.6167
8.80282
111.833
88.4276
67.2356
49.4385
35.3581
24.8375
17.3692
12.2648
9.12253
7.62262
111.647
87.9473
66.5974
48.6979
34.4469
23.6648
15.949
10.7302
7.58621
6.12852
111.436
87.3736
65.757
47.6331
33.1223
22.0709
14.1777
8.94595
5.86122
4.48589
111.182
86.6456
64.6278
46.1601
31.3223
20.0034
12.0094
6.97411
4.49164
3.67607
243.78
243.818
243.937
244.108
244.322
244.332
243.829
243.128
243.23
243.005
243.994
244.065
244.178
244.368
244.638
244.813
244.596
243.947
243.688
243.579
244.191
244.239
244.351
244.547
244.832
245.093
245.067
244.56
244.13
244.078
244.432
244.465
244.562
244.735
244.99
245.277
245.382
245.113
244.726
244.656
244.703
244.72
244.801
244.949
245.162
245.424
245.626
245.628
245.462
245.37
244.988
245
245.068
245.19
245.362
245.59
245.858
246.097
246.201
246.189
245.253
245.271
245.353
245.487
245.663
245.892
246.191
246.547
246.844
246.965
245.53
245.549
245.646
245.836
246.088
246.386
246.744
247.15
247.507
247.684
245.903
245.934
246.013
246.236
246.602
247.048
247.546
248.057
248.393
248.355
246.296
246.404
246.505
246.698
247.097
247.658
248.25
248.793
249.138
248.933
136.533
136.274
136.251
136.514
136.296
135.898
135.357
135.185
135.256
135.421
160.98
160.383
160.405
161.042
160.39
159.267
157.803
157.347
157.553
158.011
183.221
182.655
182.942
183.465
182.415
180.67
178.701
178.013
178.261
178.884
202.185
201.939
202.658
202.668
201.31
199.113
197.106
196.262
196.44
197.041
217.654
217.828
218.613
218.025
216.357
214.013
212.192
211.289
211.328
211.732
229.532
230.014
230.243
229.284
227.476
225.42
223.811
222.864
222.731
222.831
237.73
238.066
237.702
236.628
235.137
233.609
232.159
231.142
230.916
230.764
242.383
242.262
241.652
240.819
239.941
238.924
237.571
236.545
236.485
236.307
244.106
243.686
243.192
242.834
242.538
241.953
240.765
239.87
240.154
240.068
244.245
243.818
243.664
243.686
243.759
243.517
242.645
241.885
242.268
242.078
254.888
246.927
247.551
246.343
246.089
245.582
245.028
244.656
244.523
244.557
252.056
246.864
247.365
246.326
246.141
245.644
245.045
244.691
244.601
244.529
250.136
246.871
247.144
246.327
246.197
245.709
245.09
244.788
244.77
244.562
248.956
246.899
246.936
246.349
246.253
245.781
245.172
244.943
244.997
244.667
248.274
246.9
246.803
246.39
246.308
245.861
245.302
245.132
245.232
244.833
247.825
246.855
246.768
246.438
246.358
245.951
245.467
245.312
245.43
245.033
247.511
246.803
246.765
246.476
246.398
246.05
245.634
245.454
245.575
245.233
247.3
246.778
246.759
246.504
246.42
246.146
245.766
245.55
245.664
245.417
247.163
246.774
246.756
246.522
246.43
246.222
245.846
245.609
245.699
245.57
247.075
246.778
246.754
246.533
246.437
246.263
245.888
245.644
245.671
245.669
317.392
253.81
249.959
247.01
246.194
245.63
245.289
244.957
244.258
242.737
295.66
251.421
248.838
246.781
246.112
245.6
245.244
244.926
244.47
243.538
277.219
249.265
248.243
246.611
246.071
245.58
245.193
244.867
244.551
244.211
265.815
247.92
247.919
246.484
246.053
245.567
245.134
244.784
244.541
244.539
259.044
247.19
247.696
246.38
246.05
245.557
245.064
244.68
244.495
244.571
239.314
237.465
234.249
229.343
222.142
211.79
197.742
179.94
158.867
135.789
240.497
238.961
235.786
230.651
223.151
212.596
198.479
180.648
159.43
136.01
242.009
240.512
237.331
232.079
224.329
213.511
199.222
181.288
159.911
136.196
243.673
242.267
239.138
233.865
225.932
214.841
200.289
182.129
160.485
136.406
244.46
243.623
241.122
236.052
228.01
216.645
201.764
183.259
161.212
136.659
)
;

boundaryField
{
    left
    {
        type            zeroGradient;
    }
    right
    {
        type            fixedValue;
        value           uniform 0;
    }
    down
    {
        type            zeroGradient;
    }
    up
    {
        type            zeroGradient;
    }
    cylinder
    {
        type            zeroGradient;
    }
    defaultFaces
    {
        type            empty;
    }
}


// ************************************************************************* //
