/*--------------------------------*- C++ -*----------------------------------*\
  =========                 |
  \\      /  F ield         | OpenFOAM: The Open Source CFD Toolbox
   \\    /   O peration     | Website:  https://openfoam.org
    \\  /    A nd           | Version:  13
     \\/     M anipulation  |
\*---------------------------------------------------------------------------*/
FoamFile
{
    format      ascii;
    class       surfaceScalarField;
    location    "0.38";
    object      phi;
}
// * * * * * * * * * * * * * * * * * * * * * * * * * * * * * * * * * * * * * //

dimensions      [0 3 -1 0 0 0 0];

internalField   nonuniform List<scalar> 
3485
(
0.00137162
-0.0112583
0.00988672
0.00505113
-0.0319073
0.0282278
0.0107644
-0.0513832
0.04567
0.0183132
-0.0696766
0.0621278
0.0275468
-0.0868339
0.0776002
0.0383512
-0.102899
0.0920943
0.0506376
-0.117902
0.105616
0.0643633
-0.131865
0.118139
0.0796256
-0.144853
0.12959
-0.156884
0.139489
0.0970205
0.00150031
-0.0127586
0.00544581
-0.0358528
0.0114763
-0.0574137
0.019324
-0.0775243
0.0287739
-0.0962837
0.0396487
-0.113773
0.0518043
-0.130058
0.0651329
-0.145193
0.079543
-0.159263
-0.172189
0.0948487
0.00147415
-0.0142328
0.00532696
-0.0397056
0.0111746
-0.0632613
0.0187212
-0.0850709
0.0277261
-0.105289
0.03799
-0.124037
0.0493471
-0.141415
0.0616577
-0.157504
0.0747901
-0.172395
-0.186032
0.0886327
0.00133885
-0.0155716
0.00485903
-0.0432258
0.010211
-0.0686132
0.0171174
-0.0919774
0.0253546
-0.113526
0.0347416
-0.133424
0.0451325
-0.151806
0.0564072
-0.168779
0.0684592
-0.184447
-0.198788
0.081215
0.00116693
-0.0167386
0.00425603
-0.0463149
0.00897331
-0.0733305
0.0150821
-0.0980862
0.0223925
-0.120836
0.0307537
-0.141786
0.0400482
-0.1611
0.0501833
-0.178914
0.0610813
-0.195345
-0.210401
0.0726946
0.000980036
-0.0177186
0.00358803
-0.0489229
0.00758683
-0.0773293
0.0127844
-0.103284
0.0190269
-0.127079
0.0261938
-0.148953
0.0341933
-0.1691
0.0429561
-0.187676
0.0524271
-0.204816
-0.220549
0.0625753
0.000780749
-0.0184994
0.00286511
-0.0510072
0.00606924
-0.0805334
0.0102434
-0.107458
0.0152674
-0.132103
0.021048
-0.154733
0.027516
-0.175568
0.0346229
-0.194783
0.0423344
-0.212528
-0.228852
0.050637
0.000569733
-0.0190691
0.00209358
-0.0525311
0.00443815
-0.082878
0.00749318
-0.110513
0.0111695
-0.135779
0.015398
-0.158962
0.0201291
-0.180299
0.0253316
-0.199986
0.0309892
-0.218185
-0.234969
0.0371065
0.00035254
-0.0194216
0.00129588
-0.0534744
0.00274528
-0.0843274
0.00462879
-0.112396
0.00688717
-0.138037
0.00947406
-0.161549
0.0123566
-0.183181
0.0155159
-0.203145
0.0189469
-0.221616
-0.238686
0.0226641
0.000137828
-0.0195595
0.00050258
-0.0538392
0.00105721
-0.084882
0.00176993
-0.113109
0.00261427
-0.138882
0.00356913
-0.162503
0.00461902
-0.184231
0.00575441
-0.20428
0.00697186
-0.222834
0.00827645
-0.239991
0.000503512
-0.00187771
0.0013742
0.00212639
-0.00625665
0.00463377
0.0054668
-0.0113671
0.00802672
0.0101498
-0.0161088
0.0114258
0.0155812
-0.0200991
0.0146677
0.0214939
-0.0235031
0.0175904
0.027973
-0.0266864
0.0202073
0.0351619
-0.029874
0.0226851
0.0430483
-0.0330245
0.025138
-0.0359909
0.0515025
0.0275367
0.000428688
-0.0023064
0.00211825
-0.00794622
0.00545296
-0.0147018
0.00984994
-0.0205058
0.0149485
-0.0251977
0.0208461
-0.0294006
0.0277106
-0.0335509
0.035495
-0.0376584
0.0439943
-0.0415239
-0.0450417
0.0530451
0.000681283
-0.00298768
0.00271174
-0.00997668
0.00579184
-0.0177819
0.00980052
-0.0245145
0.014878
-0.0302751
0.0211912
-0.0357138
0.028674
-0.0410338
0.0370539
-0.0460382
0.0461136
-0.0505836
-0.054688
0.0557599
0.000866058
-0.00385374
0.00305641
-0.012167
0.00608971
-0.0208152
0.0102306
-0.0286553
0.0157438
-0.0357884
0.0226137
-0.0425837
0.0306027
-0.0490228
0.0394756
-0.0549112
0.0491348
-0.0602427
-0.0650502
0.059497
0.000920669
-0.00477441
0.00319789
-0.0144443
0.00652587
-0.0241432
0.0111352
-0.0332647
0.0171631
-0.0418163
0.0244871
-0.0499077
0.0329173
-0.0574529
0.0423541
-0.064348
0.0527327
-0.0706213
-0.0762383
0.0639208
0.000942339
-0.00571675
0.00337136
-0.0168733
0.00709482
-0.0278667
0.012184
-0.0383538
0.0186489
-0.0482813
0.02638
-0.0576387
0.0352801
-0.0663531
0.0453006
-0.0743685
0.0563621
-0.0816829
-0.0881832
0.068307
0.000979144
-0.0066959
0.00358326
-0.0194774
0.00764257
-0.031926
0.0131114
-0.0438226
0.019934
-0.0551039
0.0280246
-0.0657294
0.0373211
-0.0756496
0.0477768
-0.0848241
0.0593183
-0.0932243
-0.100665
0.0718005
0.00101758
-0.00771347
0.0037672
-0.022227
0.00807128
-0.0362301
0.0138215
-0.0495728
0.0209233
-0.0622057
0.0292882
-0.0740943
0.0388466
-0.085208
0.0495417
-0.0955192
0.0613147
-0.104997
-0.113416
0.0740651
0.00105439
-0.00876786
0.00393634
-0.025109
0.00846085
-0.0407546
0.0144826
-0.0555946
0.0218757
-0.0695988
0.0305298
-0.0827483
0.0403497
-0.095028
0.0512468
-0.106416
0.06314
-0.116891
-0.1263
0.0760243
0.00111886
0.00423768
0.00915308
0.0156863
0.0236877
0.0330338
0.0436214
0.055344
0.0680436
0.0812322
0.114392
-0.413324
0.350434
0.168103
-0.469954
0.416243
0.20995
-0.41929
0.377443
0.243204
-0.323487
0.290233
0.2689
-0.21115
0.185454
0.28753
-0.105727
0.0870971
0.298266
-0.0307644
0.0200282
0.302879
-0.00208184
-0.00253183
0.304274
0.00184853
-0.00324326
0.00265838
-0.00176112
0.116079
-0.476357
0.169842
-0.523718
0.211765
-0.461213
0.244816
-0.356538
0.270513
-0.236847
0.289162
-0.124375
0.300112
-0.0417145
0.305196
-0.00716597
0.307493
-0.000448357
0.00289722
0.117945
-0.538542
0.170793
-0.576566
0.212437
-0.502856
0.245023
-0.389124
0.270613
-0.262438
0.289043
-0.142805
0.299669
-0.0523404
0.304713
-0.0122105
0.307151
-0.00288635
0.00296368
0.120335
-0.599381
0.171223
-0.627454
0.212098
-0.543731
0.243964
-0.420991
0.269342
-0.287815
0.287608
-0.161071
0.298146
-0.0628788
0.30357
-0.0176341
0.306445
-0.00576156
0.00260216
0.123215
-0.658675
0.171347
-0.675586
0.21087
-0.583254
0.241764
-0.451885
0.266769
-0.312821
0.285028
-0.179329
0.29585
-0.0737007
0.302027
-0.0238113
0.30562
-0.00935521
0.00152923
0.126045
-0.716413
0.171217
-0.720757
0.208853
-0.620891
0.238533
-0.481565
0.262955
-0.337242
0.281355
-0.197729
0.292865
-0.0852105
0.300124
-0.0310708
0.304693
-0.0139238
-0.000526121
0.127957
-0.772569
0.170663
-0.763464
0.206125
-0.656353
0.234399
-0.509839
0.257988
-0.360831
0.276609
-0.216351
0.289215
-0.0978163
0.297877
-0.0397326
0.303669
-0.0197161
-0.00382634
0.128015
-0.826519
0.169214
-0.804663
0.20257
-0.689708
0.229365
-0.536633
0.251905
-0.383371
0.270756
-0.235201
0.284873
-0.111933
0.295278
-0.0501379
0.30254
-0.0269779
-0.00864209
0.125917
-0.876412
0.166465
-0.845211
0.198153
-0.721397
0.223552
-0.562033
0.244856
-0.404674
0.263833
-0.254179
0.27979
-0.12789
0.292264
-0.0626112
0.301134
-0.0358484
-0.0151345
0.122216
-0.917396
0.161613
-0.884608
0.192003
-0.751787
0.216291
-0.586321
0.236401
-0.424785
0.255477
-0.273255
0.273732
-0.146145
0.288079
-0.0769586
0.296655
-0.044424
-0.0217314
0.583878
-0.919837
-0.581437
0.561135
-0.861865
0.523933
-0.714584
0.487641
-0.550029
0.459678
-0.396823
0.446977
-0.260553
0.448014
-0.147181
0.447157
-0.0761019
0.441512
-0.0387791
-0.0193939
0.682806
-0.871228
-0.731415
0.619728
-0.798786
0.554208
-0.649064
0.497483
-0.493303
0.454632
-0.353972
0.429947
-0.235868
0.41877
-0.136005
0.411302
-0.0686343
0.406175
-0.0336514
-0.0172139
0.754064
-0.774878
-0.850414
0.655427
-0.700149
0.564245
-0.557882
0.489211
-0.418269
0.432804
-0.297566
0.396841
-0.199905
0.37993
-0.119093
0.372066
-0.0607705
0.367051
-0.0286359
-0.0146939
0.77918
-0.641515
-0.912543
0.654169
-0.575138
0.547073
-0.450786
0.46249
-0.333686
0.40053
-0.235606
0.359906
-0.159281
0.3387
-0.0978876
0.329108
-0.0511779
0.324104
-0.0236321
-0.0121397
0.753135
-0.492351
-0.902299
0.61786
-0.439864
0.50671
-0.339636
0.421061
-0.248037
0.359199
-0.173744
0.317883
-0.117964
0.294584
-0.0745891
0.283776
-0.0403696
0.278678
-0.0185345
-0.00954279
0.685187
-0.345797
-0.831741
0.552862
-0.307538
0.44675
-0.233523
0.366573
-0.16786
0.309368
-0.11654
0.270821
-0.0794173
0.24777
-0.0515375
0.236375
-0.0289747
0.231208
-0.0133674
-0.00696292
0.58266
-0.213845
-0.714611
0.46297
-0.187849
0.369475
-0.140028
0.300267
-0.098652
0.251574
-0.0678471
0.218597
-0.0464407
0.197966
-0.0309063
0.18707
-0.0180779
0.182102
-0.00839977
-0.00450389
0.448777
-0.105519
-0.557104
0.351216
-0.0902876
0.277134
-0.0659457
0.223691
-0.0452095
0.18667
-0.0308255
0.161497
-0.0212676
0.14513
-0.0145392
0.135918
-0.00886645
0.131615
-0.00409703
-0.00234021
0.286598
-0.0302198
-0.361896
0.220924
-0.0246143
0.172521
-0.0175418
0.138776
-0.0114647
0.115689
-0.0077383
0.0998422
-0.00542106
0.0891547
-0.00385176
0.0827924
-0.00250412
0.0798171
-0.00112175
-0.000746922
0.101316
-0.131536
0.0767019
0.0591601
0.0476954
0.0399571
0.0345361
0.0306843
0.0281802
0.0270584
0.738827
0.0102241
-0.740775
0.73308
0.0284111
0.723439
0.0467471
0.710164
0.0639126
0.693568
0.0791715
0.67407
0.0921925
0.652261
0.103024
0.628694
0.112199
0.604241
0.119301
0.119824
0.845553
0.0134005
-0.84873
0.837324
0.0366402
0.827288
0.0567829
0.816591
0.0746097
0.805245
0.090518
0.792885
0.104552
0.779266
0.116644
0.764562
0.126903
0.749087
0.134776
0.137497
0.844994
0.0114282
-0.843021
0.848895
0.032739
0.853034
0.0526438
0.856487
0.071157
0.858848
0.0881568
0.859933
0.103467
0.859605
0.116972
0.85797
0.128538
0.855295
0.137451
0.142378
0.800219
0.00930706
-0.798098
0.805828
0.0271298
0.814428
0.0440437
0.825651
0.0599344
0.839022
0.0747856
0.853879
0.0886097
0.869458
0.101394
0.8851
0.112895
0.899993
0.122558
0.129828
0.73787
0.00704103
-0.735604
0.744159
0.0208405
0.75413
0.0340734
0.767512
0.0465523
0.784095
0.0582027
0.803678
0.0690265
0.826014
0.0790575
0.85066
0.0882497
0.876596
0.0966217
0.104125
0.653923
0.00485576
-0.651738
0.660206
0.0145575
0.670382
0.0238974
0.684226
0.0327085
0.701531
0.0408971
0.72212
0.0484375
0.745819
0.0553593
0.772348
0.0617199
0.801245
0.0677251
0.0736287
0.549113
0.0029173
-0.547175
0.554814
0.00885678
0.56414
0.0145712
0.576908
0.0199405
0.592918
0.0248871
0.611973
0.0293831
0.633877
0.0334548
0.658416
0.0371814
0.685392
0.0407484
0.0444095
0.422792
0.00137636
-0.421252
0.427413
0.00423637
0.435008
0.00697585
0.445423
0.00952596
0.458471
0.0118388
0.473958
0.0138957
0.491699
0.0157139
0.511531
0.0173499
0.533352
0.0189277
0.0206571
0.273828
0.000366853
-0.272818
0.276915
0.00114955
0.281999
0.00189179
0.288955
0.00256941
0.29763
0.00316442
0.307856
0.00366907
0.319482
0.00408797
0.332395
0.00443662
0.346563
0.0047604
0.00532331
0.100484
-0.100117
0.101633
0.103525
0.106094
0.109259
0.112928
0.117016
0.121452
0.126213
0.0779603
0.159477
-0.142455
-0.0949822
0.0630489
0.147439
-0.132528
0.0496335
0.13439
-0.120975
0.0376136
0.120322
-0.108302
0.027033
0.105164
-0.0945835
0.0179817
0.0888909
-0.0798396
0.0105748
0.0714594
-0.0640525
0.0049641
0.0528097
-0.047199
0.00134819
0.0328753
-0.0292594
0.0116397
-0.0102915
0.0779623
0.174415
-0.0929002
0.0638863
0.161515
0.05085
0.147427
0.0389447
0.132227
0.0282801
0.115829
0.0190024
0.0981685
0.0112906
0.0791712
0.00535994
0.0587404
0.00147727
0.0367579
0.0131169
0.0731956
0.187916
-0.0866968
0.0603811
0.17433
0.0483575
0.15945
0.037253
0.143331
0.0272055
0.125876
0.0183804
0.106994
0.010977
0.0865746
0.0052354
0.064482
0.0014496
0.0405437
0.0145665
0.066783
0.200346
-0.0792128
0.0550413
0.186071
0.0440546
0.170437
0.0339247
0.153461
0.024768
0.135033
0.0167276
0.115034
0.00998179
0.0933204
0.00475141
0.0697124
0.0013096
0.0439856
0.0158761
0.0593213
0.211653
-0.0706286
0.0487213
0.196671
0.0388712
0.180287
0.0298433
0.162489
0.0217254
0.143151
0.0146299
0.122129
0.00870237
0.099248
0.00412637
0.0742884
0.00113091
0.046981
0.017007
0.0506043
0.22152
-0.0604708
0.0414152
0.20586
0.0329301
0.188772
0.0251987
0.17022
0.0182844
0.150065
0.0122723
0.128142
0.00727496
0.104245
0.00343646
0.0781269
0.000937242
0.0494802
0.0179443
0.0404613
0.229564
-0.048506
0.0330154
0.213306
0.0261781
0.19561
0.0199782
0.17642
0.0144578
0.155586
0.00967754
0.132922
0.00572039
0.108203
0.00269369
0.0811536
0.000731804
0.0514421
0.0186761
0.0290565
0.235443
-0.0349352
0.0236527
0.21871
0.0187155
0.200547
0.0142555
0.18088
0.0102963
0.159545
0.00687748
0.136341
0.00405551
0.111025
0.00190419
0.0833049
0.00051525
0.0528311
0.0191913
0.0169183
0.238928
-0.0204034
0.0137423
0.221886
0.010855
0.203434
0.00825476
0.183481
0.00595133
0.161848
0.00396631
0.138326
0.00233203
0.112659
0.00109057
0.0845463
0.000293209
0.0536284
0.0194845
0.00482747
-0.00589021
0.00387998
0.00303356
0.00228296
0.00162777
0.0010717
0.000621411
0.000285717
7.49368e-05
0.0435322
0.0412251
-0.0524031
-0.0323541
0.0351826
0.0381827
-0.0298331
0.0275414
0.0347944
-0.0271533
0.0208283
0.0311978
-0.0244847
0.015038
0.0276483
-0.021858
0.00993124
0.0240986
-0.0189918
0.005403
0.0199654
-0.0154372
0.00195162
0.0143714
-0.01092
0.000380374
0.00735167
-0.00578043
0.00207563
-0.00169525
0.0437686
0.0503968
-0.0529403
0.0351163
0.0468351
0.0270783
0.0428324
0.0199377
0.0383384
0.0140037
0.0335823
0.00927543
0.0288268
0.00550828
0.0237326
0.00256386
0.0173158
0.000616213
0.00929933
0.00269185
0.045065
0.0599706
-0.0546388
0.0361224
0.0557777
0.0278628
0.051092
0.0204073
0.0457939
0.0140825
0.0399071
0.00914834
0.033761
0.00554577
0.0273352
0.00290191
0.0199597
0.000809886
0.0113914
0.00350173
0.0475446
0.0701806
-0.0577546
0.0380842
0.0652381
0.029487
0.0596892
0.0217921
0.0534887
0.015129
0.0465703
0.00975745
0.0391325
0.00579793
0.0312947
0.00297744
0.0227802
0.000879972
0.0134888
0.00438171
0.0510078
0.0811318
-0.061959
0.0408787
0.0753672
0.031735
0.068833
0.0236391
0.0615847
0.0166161
0.0535932
0.0107953
0.0449534
0.00631277
0.0357772
0.00307805
0.0260149
0.000885703
0.0156812
0.00526741
0.0546761
0.0927527
-0.066297
0.0439312
0.086112
0.0342255
0.0785387
0.0256342
0.070176
0.01818
0.0610474
0.0119204
0.0512129
0.00695151
0.0407461
0.00329046
0.0296759
0.000912409
0.0180592
0.00617982
0.0576953
0.104855
-0.0697981
0.0465152
0.0972922
0.0363926
0.0886613
0.0273882
0.0791803
0.0195384
0.0688972
0.0128941
0.0578573
0.00753512
0.0461051
0.00353277
0.0336783
0.00096197
0.02063
0.00714179
0.0597218
0.1172
-0.0720666
0.0483275
0.108686
0.0379697
0.0990191
0.0286942
0.0884558
0.0205529
0.0770385
0.0136147
0.0647955
0.00797071
0.051749
0.00372613
0.0379229
0.00100657
0.0233496
0.00814835
0.0615126
0.129669
-0.0739811
0.0500014
0.120198
0.0394405
0.10958
0.0299016
0.0979947
0.021471
0.0854691
0.0142457
0.0720208
0.00833978
0.0576549
0.0038869
0.0423758
0.00104252
0.026194
0.00919087
0.0663521
-0.0791384
0.0540221
0.042627
0.03232
0.0232056
0.0153868
0.00898924
0.00416599
0.00110059
0.214786
0.0584796
-0.0752755
0.236296
0.0914809
-0.112991
0.259098
0.123914
-0.146716
0.27126
0.114632
-0.126794
0.271199
0.113204
-0.113143
0.250303
0.18107
-0.160174
0.217195
0.294051
-0.260943
0.173937
0.411224
-0.367966
0.117993
0.492673
-0.436729
0.459787
-0.394197
0.214059
0.04241
0.234459
0.0710817
0.256475
0.101898
0.269223
0.101884
0.270479
0.111948
0.250758
0.200792
0.21771
0.327098
0.174026
0.454908
0.11793
0.548769
0.524777
0.213464
0.0269358
0.233191
0.0513544
0.254471
0.0806182
0.267593
0.0887625
0.269029
0.110512
0.249903
0.219917
0.21692
0.360082
0.173099
0.498729
0.117976
0.603891
0.588114
0.212988
0.0119373
0.232479
0.031864
0.25307
0.0600266
0.26626
0.0755731
0.266959
0.109813
0.247785
0.239091
0.214892
0.392975
0.171466
0.542155
0.118662
0.656696
0.649021
0.212721
-0.00279351
0.23228
0.0123045
0.252168
0.0401389
0.264901
0.0628397
0.264155
0.110558
0.244412
0.258834
0.211746
0.425641
0.169494
0.584406
0.120098
0.706092
0.70716
0.212748
-0.0175522
0.23252
-0.00746712
0.251603
0.0210559
0.263231
0.0512115
0.260461
0.113329
0.23982
0.279475
0.207675
0.457787
0.167437
0.624644
0.121841
0.751688
0.762704
0.213055
-0.032617
0.233074
-0.0274862
0.251189
0.0029407
0.261062
0.0413381
0.255793
0.118599
0.234142
0.301126
0.202923
0.489006
0.165294
0.662273
0.123031
0.793951
0.815937
0.213459
-0.0480862
0.233773
-0.0478
0.250715
-0.0140011
0.258175
0.033878
0.250005
0.126768
0.227432
0.323699
0.197541
0.518897
0.162668
0.697145
0.12267
0.83395
0.866541
0.213682
-0.0637786
0.234457
-0.0685746
0.249994
-0.029538
0.254573
0.0292988
0.243286
0.138056
0.220013
0.346971
0.191665
0.547245
0.159163
0.729648
0.120376
0.872737
0.912935
0.2138
-0.0795887
0.234923
-0.0896973
0.248946
-0.0435611
0.249859
0.0283851
0.235056
0.152859
0.211241
0.370786
0.184411
0.574074
0.153923
0.760135
0.116656
0.910005
0.950453
0.33228
-0.109859
0.371284
-0.128702
0.406938
-0.0792147
0.425582
0.00974101
0.440878
0.137564
0.468003
0.34366
0.506753
0.535325
0.549611
0.717277
0.581289
0.878327
0.945315
0.586426
0.33359
-0.141439
0.373754
-0.168865
0.409348
-0.114809
0.426126
-0.00703727
0.43991
0.123779
0.477446
0.306124
0.534805
0.477966
0.604604
0.647479
0.675346
0.807585
0.88776
0.732901
0.335783
-0.175212
0.37531
-0.208392
0.410361
-0.14986
0.425274
-0.0219497
0.434247
0.114806
0.476803
0.263568
0.547772
0.406997
0.639339
0.555912
0.742436
0.704488
0.783801
0.846395
0.339391
-0.212592
0.373491
-0.242492
0.388982
-0.165351
0.389064
-0.0220319
0.403894
0.0999764
0.455359
0.212103
0.53559
0.326766
0.641295
0.450207
0.767453
0.57833
0.646642
0.904612
0.347211
-0.257794
0.356224
-0.251505
0.341178
-0.150305
0.339642
-0.0204957
0.361867
0.0777514
0.415691
0.158279
0.498312
0.244145
0.608495
0.340024
0.744069
0.442757
0.495632
0.89508
0.341161
-0.296945
0.322198
-0.232542
0.290438
-0.118544
0.287607
-0.0176651
0.311256
0.0541024
0.36227
0.107265
0.440452
0.165963
0.546136
0.234339
0.678961
0.309932
0.347867
0.826726
0.314348
-0.309282
0.272076
-0.19027
0.23533
-0.0817973
0.230986
-0.0133214
0.252719
0.0323696
0.297021
0.0629627
0.365066
0.0979176
0.458542
0.140864
0.578895
0.189579
0.215052
0.71171
0.273825
-0.281097
0.213169
-0.129614
0.17537
-0.0439992
0.170215
-0.00816591
0.187413
0.0151715
0.221578
0.0287979
0.274457
0.0450382
0.348794
0.0665271
0.447089
0.0912835
0.106122
0.55602
0.214645
-0.193732
0.140586
-0.055555
0.109896
-0.013309
0.104806
-0.00307638
0.116058
0.00392018
0.137661
0.00719435
0.171248
0.0114514
0.220016
0.0177596
0.286347
0.0249525
0.0304047
0.362063
0.108278
0.052723
0.039414
0.0363377
0.0402578
0.0474522
0.0589036
0.0766632
0.101616
0.13202
0.608602
-0.117157
0.632281
-0.11658
0.655111
-0.109527
0.676273
-0.100375
0.695225
-0.0895802
0.711367
-0.0766136
0.724265
-0.0614034
0.733594
-0.0442648
0.739081
-0.0258901
-0.00758375
0.750251
-0.134508
0.765171
-0.131499
0.779388
-0.123744
0.792623
-0.11361
0.804696
-0.101653
0.815838
-0.0877561
0.826399
-0.071964
0.836392
-0.0542583
0.844844
-0.0343423
-0.011469
0.851033
-0.139146
0.85349
-0.133956
0.855016
-0.125269
0.8554
-0.113994
0.854554
-0.100807
0.852653
-0.0858547
0.849922
-0.0692338
0.84676
-0.0510958
0.843962
-0.0315442
-0.0105286
0.892658
-0.127193
0.878627
-0.119925
0.86393
-0.110572
0.849347
-0.0994111
0.835485
-0.0869453
0.823045
-0.0734143
0.812652
-0.0588406
0.804766
-0.0432106
0.799752
-0.0265296
-0.00887475
0.870416
-0.102529
0.845623
-0.0951324
0.821993
-0.0869419
0.80052
-0.0779376
0.781673
-0.068098
0.765725
-0.0574671
0.752897
-0.0460125
0.743408
-0.0337216
0.737528
-0.020649
-0.00695106
0.797051
-0.0728537
0.768966
-0.067048
0.743141
-0.0611167
0.720048
-0.0548441
0.699977
-0.0480275
0.683115
-0.0406051
0.669643
-0.0325409
0.65977
-0.0238486
0.653727
-0.0146059
-0.00496157
0.683001
-0.0441454
0.656508
-0.0405546
0.632404
-0.0370125
0.610878
-0.0333186
0.592144
-0.029293
0.576394
-0.0248553
0.563827
-0.0199737
0.554645
-0.0146673
0.549043
-0.00900357
-0.00309315
0.532509
-0.0206343
0.510904
-0.0189501
0.49127
-0.0173781
0.473698
-0.0157471
0.458345
-0.0139403
0.445393
-0.0119028
0.435034
-0.00961452
0.427456
-0.00708942
0.422823
-0.00437037
-0.001522
0.34678
-0.00535123
0.332639
-0.00480839
0.319745
-0.00448406
0.30813
-0.00413275
0.297903
-0.00371286
0.28921
-0.00321015
0.282215
-0.00261941
0.277073
-0.0019469
0.273911
-0.00120908
-0.000428941
0.126669
0.121861
0.117377
0.113244
0.109531
0.106321
0.103702
0.101755
0.100546
0.000185043
0.011608
-0.011793
0.000623689
0.0304434
-0.030882
0.00123707
0.0462374
-0.0468507
0.00197718
0.0594623
-0.0602024
0.0027764
0.0700155
-0.0708147
0.00376923
0.0798823
-0.0808751
0.00396315
0.0772607
-0.0774547
0.00408451
0.0700365
-0.0701578
0.00394462
0.0610743
-0.0609344
0.0499515
0.00350689
-0.0495137
0.000533354
0.0110746
0.00180373
0.029173
0.00358481
0.0444563
0.00574081
0.0573063
0.00807219
0.0676841
0.0110387
0.0769157
0.011675
0.0766245
0.0120799
0.0696316
0.0117726
0.0613816
0.0510738
0.0106503
0.00083543
0.0102392
0.0028316
0.0271769
0.00563868
0.0416492
0.00904086
0.0539041
0.0127385
0.0639865
0.0172461
0.0724081
0.0187887
0.0750819
0.0195703
0.0688501
0.019384
0.0615678
0.0524303
0.0180276
0.00105589
0.00918329
0.0035967
0.024636
0.00719305
0.0380529
0.0115549
0.0495422
0.0163553
0.0591862
0.0217461
0.0670174
0.0250709
0.0717571
0.0263531
0.0675679
0.0266013
0.0613196
0.0535621
0.0254694
0.00115135
0.00803195
0.00397896
0.0218084
0.00804106
0.0339908
0.0129959
0.0445873
0.0185503
0.0536318
0.0245558
0.0610119
0.0299501
0.0663628
0.0320879
0.0654301
0.0330091
0.0603984
0.0540869
0.0324843
0.00111138
0.00692056
0.00396564
0.0189542
0.00818491
0.0297715
0.0133892
0.0393831
0.0193167
0.0477044
0.0257703
0.0545582
0.0324139
0.0597192
0.0363103
0.0615337
0.038122
0.0585867
0.053703
0.0385059
0.000926185
0.00599438
0.00357271
0.0163076
0.00771008
0.0256342
0.0128808
0.0342123
0.0187855
0.0417997
0.0253368
0.048007
0.0323193
0.0527367
0.0382732
0.0555798
0.041585
0.0552749
0.052179
0.0431089
0.000567932
0.00542645
0.00278663
0.0140889
0.00665722
0.0217636
0.0116208
0.0292488
0.0172036
0.0362168
0.0234466
0.041764
0.030285
0.0458983
0.0371826
0.0486821
0.0425594
0.0498981
0.0489206
0.0458178
0.000104192
0.00532226
0.00176908
0.0124241
0.00517604
0.0183566
0.00981501
0.0246098
0.0149572
0.0310747
0.0206215
0.0360997
0.0269035
0.0396163
0.0335866
0.041999
0.040084
0.0434008
0.0437927
0.0452119
-0.000174762
0.00549702
0.00108807
0.0111612
0.00385719
0.0155875
0.00788775
0.0205792
0.0125027
0.0264597
0.0175733
0.0310291
0.0231787
0.0340108
0.0292502
0.0359275
0.0356361
0.0370149
0.0373669
0.0420619
-1.96823e-05
0.0055167
0.00114223
0.00999932
0.00328019
0.0134495
0.00641594
0.0174435
0.0102985
0.0225771
0.0148401
0.0264875
0.0199592
0.0288917
0.0254905
0.0303962
0.0312273
0.0312782
0.0316937
0.0369004
0.000379571
0.00513713
0.00153512
0.00884377
0.00318481
0.0117998
0.00549632
0.015132
0.00871619
0.0193572
0.0129009
0.0223028
0.0177512
0.0240414
0.0230167
0.0251307
0.0285064
0.0257885
0.0260589
0.0341412
0.000626498
0.00451063
0.00171113
0.00775914
0.00303289
0.0104781
0.00485277
0.0133121
0.0078413
0.0163687
0.0119276
0.0182166
0.0166761
0.0192929
0.021847
0.0199598
0.0273079
0.0203276
0.0204093
0.0329574
0.000678773
0.00383186
0.00164649
0.00679142
0.00282619
0.00929837
0.00470447
0.0114338
0.00797178
0.0131014
0.0121963
0.013992
0.0170077
0.0144815
0.0222436
0.0147238
0.0278075
0.0147638
0.0146033
0.0336135
0.000663693
0.00316816
0.00155332
0.00590178
0.00298869
0.00786301
0.00556682
0.00885567
0.00934976
0.00931844
0.0138642
0.00947763
0.0189003
0.00944534
0.0243585
0.0092657
0.0301703
0.00895198
0.00850953
0.0362641
0.000592126
0.00257603
0.00170445
0.00478945
0.0040379
0.00552954
0.00748613
0.00540743
0.0117314
0.00507316
0.0165718
0.00463723
0.0219055
0.00411161
0.0276729
0.00349838
0.0338222
0.00280263
0.00203671
0.040295
0.000517334
0.00205869
0.00246165
0.00284511
0.00571804
0.00227315
0.00970789
0.00141758
0.0142911
0.000489924
0.0194203
-0.000491929
0.0250641
-0.00153219
0.03118
-0.00261754
0.0377082
-0.0037256
-0.00484418
0.0445891
0.000856534
0.00120215
0.00359291
0.000108726
0.00714972
-0.00128367
0.0113307
-0.00276339
0.0161195
-0.00429886
0.0215247
-0.0058972
0.0275067
-0.00751413
0.0339774
-0.00908826
0.0408546
-0.0106029
-0.012086
0.0480965
0.00150037
-0.000298224
0.0041331
-0.00252402
0.00755441
-0.00470499
0.0117633
-0.00697224
0.016766
-0.00930159
0.0224894
-0.0116206
0.0287718
-0.0137965
0.0354923
-0.0158088
0.0426221
-0.0177327
-0.0196233
0.0501594
0.00107597
0.00318571
0.00650743
0.010961
0.0163271
0.0222969
0.0287076
0.0355839
0.0429893
0.0509026
0.0514015
0.0837312
-0.0982323
0.0772234
-0.00731814
-0.0185038
0.0997491
-0.0508015
0.0282758
0.113326
-0.0466297
0.0330524
0.121246
-0.0265994
0.0186794
0.124879
-0.00801775
0.00438491
0.126279
0.00208963
-0.00348969
0.127332
0.00405216
-0.00510468
0.128785
0.00273282
-0.00418631
0.000152038
-0.00217108
0.0585617
0.0593106
0.0915214
-0.040278
0.118607
-0.0778868
0.134529
-0.0625523
0.143214
-0.0352843
0.14688
-0.0116832
0.148058
0.00091187
0.148915
0.00319474
0.150262
0.00138605
-0.00165008
0.0665236
0.0257444
0.104823
-0.0785776
0.135743
-0.108806
0.155312
-0.0821214
0.165274
-0.045246
0.168998
-0.015408
0.16983
8.00454e-05
0.170313
0.00271173
0.171345
0.000354109
-0.0030504
0.0753473
-0.0159894
0.117583
-0.120814
0.151384
-0.142608
0.174728
-0.105465
0.186752
-0.0572706
0.190791
-0.0194464
0.191291
-0.000419927
0.191319
0.00268337
0.191904
-0.000231057
-0.00391877
0.0843493
-0.0640747
0.129343
-0.165807
0.165286
-0.178551
0.19193
-0.132108
0.206874
-0.0722153
0.211817
-0.0243888
0.212147
-0.000750337
0.211724
0.00310654
0.211795
-0.000302442
-0.00418041
0.0927718
-0.116551
0.139778
-0.212813
0.17737
-0.216143
0.206532
-0.16127
0.224759
-0.0904427
0.231517
-0.0311465
0.232047
-0.00128025
0.231285
0.00386808
0.230853
0.000129628
-0.00382003
0.0999671
-0.17193
0.148631
-0.261477
0.187554
-0.255065
0.218469
-0.192186
0.239692
-0.111665
0.249219
-0.0406736
0.250575
-0.00263697
0.249719
0.00472446
0.248881
0.000967787
-0.00288749
0.105598
-0.229431
0.155792
-0.31167
0.195805
-0.295079
0.227878
-0.224258
0.251348
-0.135135
0.264144
-0.0534693
0.267218
-0.00571152
0.266692
0.00525032
0.265643
0.00201681
-0.00149582
0.109648
-0.28892
0.161304
-0.363326
0.202178
-0.335953
0.234975
-0.257055
0.259811
-0.159971
0.275609
-0.0692677
0.281286
-0.0113882
0.281724
0.0048123
0.280813
0.00292834
0.000135835
0.112417
0.165333
0.206823
0.240001
0.265484
0.283313
0.291954
0.294234
0.293919
0.0131987
0.00607823
-0.0192769
0.0109803
0.00221833
0.0114917
-0.000511356
0.0128941
-0.0014024
0.0135995
-0.000705479
0.0137265
-0.00012699
0.0135493
0.000177282
0.0133126
0.000236677
0.013105
0.000207647
0.000152323
0.0372438
0.0232162
-0.0543818
0.031472
0.00799011
0.0339519
-0.00299121
0.0379552
-0.0054058
0.040101
-0.00285119
0.0405116
-0.000537663
0.0400081
0.000680844
0.039327
0.000917841
0.0387423
0.00079237
0.000495736
0.0579586
0.0480971
-0.0828394
0.0508496
0.015099
0.0558032
-0.00794473
0.0623014
-0.0119041
0.0659253
-0.006475
0.0666909
-0.00130326
0.0659145
0.00145723
0.0648308
0.00200153
0.0639215
0.00170175
0.000979225
0.0738997
0.0754002
-0.101203
0.0680396
0.0209591
0.076322
-0.0162271
0.0855506
-0.0211327
0.0908087
-0.0117332
0.0920608
-0.00255533
0.0910966
0.00242146
0.0896749
0.0034233
0.0885166
0.00286001
0.00155435
0.0813985
-0.104231
0.0838536
0.0959022
0.107822
0.114768
0.116598
0.11553
0.113849
0.112522
0.00273339
-0.000172907
-0.00256049
0.00326421
-0.000530815
0.00417634
-0.000912135
0.00548727
-0.00131092
0.00718351
-0.00169625
0.00922791
-0.00204439
0.0115843
-0.00235644
0.0141725
-0.00258821
0.0168576
-0.00268505
-0.00241931
0.00778666
-0.000645633
-0.00731393
0.0092334
-0.00197756
0.0117125
-0.00339126
0.0152686
-0.00486697
0.0198824
-0.00631011
0.02548
-0.00764196
0.0319619
-0.00883834
0.0391529
-0.00977923
0.0467639
-0.010296
-0.0100373
0.0124769
-0.00138362
-0.0117389
0.0147263
-0.00422705
0.0185589
-0.00722378
0.0240223
-0.0103305
0.0310764
-0.0133642
0.0395827
-0.0161482
0.049324
-0.0185797
0.0600466
-0.0205019
0.0714099
-0.0216593
-0.0214668
0.0168059
-0.00234748
-0.015842
0.0197298
-0.00715102
0.0246726
-0.0121666
0.0316486
-0.0173064
0.0405465
-0.0222621
0.051102
-0.0267037
0.0629324
-0.0304101
0.0756884
-0.0332579
0.0888541
-0.034825
-0.0338156
0.0207911
-0.0196317
0.0242903
0.0301514
0.0383144
0.0485366
0.0603388
0.0730377
0.0855976
0.0959844
0.0314832
-0.0312856
0.0370973
-0.0372949
0.0256171
-0.0308825
0.0367485
0.0199533
-0.0300499
0.0357136
0.0147012
-0.0286543
0.0339064
0.0100747
-0.0264475
0.031074
0.00621325
-0.0227653
0.0266268
0.00312022
-0.0176436
0.0207366
0.00102236
-0.0136189
0.0157168
-8.35752e-05
-0.0101564
0.0112623
-0.0056344
0.00555083
0.0295206
-0.0254154
-0.0353908
0.0237984
-0.0251602
0.0183022
-0.0245537
0.0132091
-0.0235612
0.00877068
-0.022009
0.00536928
-0.0193639
0.0030325
-0.0153068
0.00140553
-0.0119919
0.000303335
-0.00905418
-0.00533106
0.0295024
-0.0194213
-0.0354965
0.0236928
-0.0193505
0.0181697
-0.0190306
0.0130498
-0.0184413
0.00853522
-0.0174944
0.00507581
-0.0159045
0.00302603
-0.013257
0.00165926
-0.0106252
0.000590281
-0.0079852
-0.00474078
0.0314013
-0.0131563
-0.0376664
0.0253711
-0.0133203
0.0196587
-0.0133183
0.014351
-0.0131335
0.0095868
-0.0127302
0.0056897
-0.0120074
0.00322548
-0.0107928
0.00177912
-0.00917879
0.000736139
-0.0069422
-0.00400463
0.0349397
-0.00650769
-0.0415883
0.0285733
-0.0069538
0.0225605
-0.0073055
0.0169682
-0.00754117
0.0118877
-0.00764969
0.00750214
-0.00762183
0.00415645
-0.00744708
0.0020059
-0.00702823
0.00080273
-0.00573902
-0.0032019
0.0391646
0.000580418
-0.0462527
0.0324018
-0.000191019
0.0260362
-0.000939836
0.020141
-0.00164595
0.0147765
-0.00228523
0.0100061
-0.00285147
0.00591362
-0.00335455
0.00267069
-0.00378529
0.000719432
-0.00378776
-0.00248246
0.0428977
0.00806542
-0.0503827
0.035753
0.00695375
0.0290026
0.00581057
0.0227447
0.00461194
0.0170778
0.00338169
0.01204
0.00218634
0.00761619
0.00106924
0.00381786
1.30432e-05
0.00096878
-0.000938663
-0.00151367
0.0450991
0.0158293
-0.052863
0.0377093
0.0143436
0.0306927
0.0128272
0.0240888
0.0112158
0.0180397
0.00943077
0.0127246
0.00750149
0.00821664
0.00557719
0.0044961
0.00373359
0.00160825
0.0019492
9.45807e-05
0.0452419
0.0238853
-0.0532978
0.0376657
0.0219198
0.0305717
0.0199212
0.023877
0.0179105
0.0175581
0.0157497
0.0118114
0.0132481
0.00700268
0.0103859
0.0034014
0.00733488
0.00114129
0.00420932
0.00123587
0.0442383
-0.0527071
0.036325