/*--------------------------------*- C++ -*----------------------------------*\
  =========                 |
  \\      /  F ield         | OpenFOAM: The Open Source CFD Toolbox
   \\    /   O peration     | Website:  https://openfoam.org
    \\  /    A nd           | Version:  13
     \\/     M anipulation  |
\*---------------------------------------------------------------------------*/
FoamFile
{
    format      ascii;
    class       volScalarField;
    location    "2.7";
    object      p;
}
// * * * * * * * * * * * * * * * * * * * * * * * * * * * * * * * * * * * * * //

dimensions      [0 2 -2 0 0 0 0];

internalField   nonuniform List<scalar> 
1800
(
-1.45255
-1.44999
-1.44379
-1.43307
-1.41968
-1.407
-1.39898
-1.40104
-1.41369
-1.46935
-1.47849
-1.47491
-1.46907
-1.46011
-1.44932
-1.43849
-1.43014
-1.42739
-1.43043
-1.45883
-1.52238
-1.51617
-1.50902
-1.50044
-1.49083
-1.48086
-1.47127
-1.46288
-1.45757
-1.45876
-1.57934
-1.57006
-1.56056
-1.5505
-1.53934
-1.52634
-1.511
-1.49355
-1.47463
-1.45581
-1.65088
-1.63866
-1.6264
-1.61331
-1.59731
-1.57654
-1.55036
-1.5194
-1.48526
-1.45033
-1.73747
-1.72249
-1.70657
-1.68765
-1.66198
-1.62791
-1.58626
-1.53935
-1.4897
-1.43984
-1.83511
-1.81794
-1.79649
-1.76742
-1.72672
-1.67477
-1.6151
-1.55188
-1.48836
-1.4272
-1.93589
-1.91655
-1.88669
-1.84253
-1.78215
-1.70959
-1.63124
-1.55222
-1.47564
-1.40331
-2.02815
-2.00604
-1.9645
-1.90127
-1.81863
-1.72525
-1.62952
-1.53658
-1.44894
-1.36768
-2.09848
-2.0724
-2.01674
-1.93218
-1.82735
-1.71498
-1.60412
-1.49921
-1.40187
-1.31235
-1.15261
-1.15745
-1.16412
-1.17552
-1.19344
-1.21719
-1.24518
-1.27559
-1.30677
-1.33819
-1.29703
-1.29991
-1.30472
-1.3165
-1.33654
-1.36382
-1.39657
-1.43269
-1.4698
-1.50651
-1.42837
-1.42885
-1.4312
-1.44321
-1.46482
-1.49472
-1.53103
-1.57161
-1.61355
-1.65415
-1.52256
-1.51915
-1.51983
-1.5309
-1.55244
-1.58297
-1.62039
-1.66252
-1.7068
-1.74822
-1.56847
-1.56109
-1.55881
-1.56685
-1.5854
-1.6132
-1.64831
-1.68862
-1.73157
-1.77236
-1.57049
-1.56033
-1.55452
-1.55708
-1.56866
-1.58891
-1.61669
-1.65032
-1.68785
-1.72458
-1.54465
-1.53407
-1.52551
-1.5214
-1.52291
-1.53111
-1.54634
-1.56807
-1.59538
-1.6251
-1.50884
-1.50021
-1.4908
-1.48137
-1.47325
-1.4687
-1.46977
-1.47762
-1.49298
-1.51581
-1.47491
-1.4692
-1.46051
-1.44827
-1.43388
-1.42039
-1.41128
-1.4096
-1.41808
-1.43838
-1.4515
-1.4483
-1.44096
-1.42819
-1.41225
-1.39629
-1.38455
-1.38169
-1.39046
-1.4132
-1.47339
-0.954061
-0.304066
-0.0116011
0.05956
0.0817618
0.0679389
0.0480336
0.027996
0.00981188
-1.64707
-1.11526
-0.381201
-0.0415271
0.0504878
0.0779514
0.0657853
0.0466679
0.0271269
0.0094399
-1.80407
-1.27846
-0.468521
-0.0792132
0.0361093
0.0708089
0.0619441
0.0444502
0.0258609
0.00893683
-1.91499
-1.41733
-0.561598
-0.122879
0.0169902
0.0604401
0.0563762
0.0413374
0.0241844
0.00829937
-1.96182
-1.5255
-0.652451
-0.170831
-0.00593575
0.0472064
0.0491209
0.0373112
0.0220913
0.00752763
-1.9423
-1.599
-0.736369
-0.221875
-0.0317777
0.0316992
0.0403605
0.0324115
0.0195894
0.00662677
-1.86197
-1.63897
-0.810965
-0.275294
-0.0601311
0.0144589
0.0303768
0.0267477
0.0167116
0.00561125
-1.74927
-1.64906
-0.875259
-0.329632
-0.0908336
-0.00424953
0.0193895
0.0204436
0.0135055
0.00450692
-1.64467
-1.63445
-0.928809
-0.382957
-0.123356
-0.0242806
0.00746867
0.0135478
0.0099884
0.00333784
-1.54672
-1.60206
-0.973312
-0.434245
-0.156658
-0.0452348
-0.00525704
0.00608808
0.00614614
0.00210763
-1.43586
-1.50296
-0.952293
-0.457386
-0.184898
-0.0684072
-0.0210979
-0.00379144
0.000904938
0.000457496
-1.29369
-1.29293
-0.872309
-0.460005
-0.212599
-0.0954534
-0.0404886
-0.0160645
-0.00548847
-0.00157363
-1.17585
-1.12741
-0.810216
-0.467188
-0.239463
-0.12027
-0.0583861
-0.0274183
-0.0113868
-0.00339137
-1.07388
-1.00053
-0.757597
-0.475719
-0.26887
-0.148455
-0.0787959
-0.0400327
-0.0177471
-0.00532304
-0.978905
-0.905873
-0.722291
-0.492522
-0.301758
-0.174744
-0.0959516
-0.0503611
-0.0229795
-0.00680486
-0.894182
-0.834592
-0.698404
-0.513134
-0.336748
-0.203431
-0.11444
-0.0609305
-0.027997
-0.00810594
-0.820015
-0.779383
-0.685884
-0.539822
-0.372054
-0.228736
-0.129185
-0.0688166
-0.0315796
-0.00885561
-0.758586
-0.741234
-0.681569
-0.563688
-0.400057
-0.248616
-0.140188
-0.0745036
-0.0339887
-0.0092206
-0.71916
-0.723654
-0.680988
-0.57434
-0.411268
-0.257917
-0.145995
-0.0774802
-0.0351553
-0.00926522
-0.697647
-0.724369
-0.685718
-0.576352
-0.411874
-0.260453
-0.148551
-0.0792269
-0.0361364
-0.00962327
-1.15768
-1.22369
-1.27246
-1.31351
-1.34359
-1.37921
-1.41162
-1.46183
-1.49052
-1.54058
-0.981383
-1.05418
-1.11095
-1.1627
-1.20304
-1.24346
-1.27486
-1.30698
-1.33254
-1.36664
-0.841822
-0.914349
-0.975049
-1.02835
-1.07173
-1.10894
-1.139
-1.16559
-1.18982
-1.21585
-0.727473
-0.797724
-0.859218
-0.911275
-0.955188
-0.991146
-1.02152
-1.04786
-1.07218
-1.09656
-0.633887
-0.701621
-0.761593
-0.812257
-0.855465
-0.891245
-0.921593
-0.947848
-0.970875
-0.992347
-0.557887
-0.623214
-0.6808
-0.729977
-0.771739
-0.806643
-0.835803
-0.860365
-0.881041
-0.898927
-0.497459
-0.560536
-0.615794
-0.663072
-0.702861
-0.735798
-0.762765
-0.784654
-0.80259
-0.817276
-0.452026
-0.51323
-0.566572
-0.611701
-0.649287
-0.679554
-0.703847
-0.722492
-0.7374
-0.748399
-0.424813
-0.48486
-0.536873
-0.580547
-0.616698
-0.644956
-0.667113
-0.682716
-0.69481
-0.701672
-0.412667
-0.473015
-0.525379
-0.569471
-0.605513
-0.633735
-0.655188
-0.669691
-0.67964
-0.682105
0.335717
0.260917
0.175294
0.0836294
-0.0154045
-0.124296
-0.242922
-0.364608
-0.466892
-0.516753
0.124158
0.0433497
-0.046711
-0.145229
-0.25414
-0.375153
-0.507115
-0.641602
-0.753505
-0.806708
-0.107624
-0.19144
-0.284232
-0.387179
-0.502487
-0.631466
-0.772322
-0.915354
-1.03383
-1.08828
-0.331272
-0.418795
-0.516005
-0.62444
-0.745998
-0.881636
-1.02929
-1.17839
-1.30041
-1.35366
-0.533137
-0.625659
-0.728671
-0.843429
-0.971594
-1.11388
-1.26686
-1.42118
-1.53996
-1.59298
-0.714441
-0.81199
-0.920281
-1.04032
-1.17356
-1.32119
-1.47771
-1.62905
-1.74505
-1.79653
-0.874123
-0.975645
-1.08775
-1.21128
-1.34743
-1.49603
-1.65159
-1.79843
-1.90829
-1.95626
-1.01635
-1.11874
-1.23112
-1.35459
-1.48992
-1.63595
-1.78615
-1.92412
-2.02374
-2.06674
-1.1381
-1.23817
-1.34786
-1.46811
-1.59902
-1.73832
-1.87819
-2.00215
-2.08839
-2.12557
-1.23745
-1.333
-1.4375
-1.5514
-1.67401
-1.80192
-1.92634
-2.03191
-2.10297
-2.13422
1.72609
1.74012
1.75455
1.76822
1.78028
1.79004
1.7968
1.80061
1.80372
1.80757
1.65073
1.66147
1.67182
1.68073
1.68748
1.69137
1.69171
1.68886
1.68615
1.68655
1.55442
1.5609
1.56599
1.56879
1.56879
1.56528
1.5576
1.54641
1.53636
1.53257
1.43885
1.44055
1.43936
1.43472
1.42643
1.41378
1.39614
1.37463
1.35548
1.34682
1.30376
1.29964
1.29123
1.27829
1.26086
1.23817
1.20961
1.17672
1.14741
1.13333
1.15302
1.143
1.12644
1.1038
1.07559
1.04113
0.999909
0.95407
0.913453
0.893262
0.986639
0.970126
0.945356
0.913086
0.87397
0.827262
0.772594
0.712848
0.660133
0.633589
0.81385
0.78984
0.75467
0.71041
0.658404
0.597969
0.528828
0.454547
0.389519
0.356574
0.639533
0.607858
0.561787
0.504689
0.438563
0.362817
0.277467
0.187161
0.109056
0.0697989
0.479045
0.429162
0.365082
0.291819
0.210384
0.119154
0.0179173
-0.0878208
-0.178194
-0.223124
1.47282
1.45467
1.44634
1.44348
1.44172
1.44854
1.4693
1.50642
1.56786
1.66377
1.46597
1.44891
1.44099
1.43709
1.4347
1.43867
1.45651
1.48748
1.53816
1.61603
1.4597
1.44317
1.4355
1.43026
1.42709
1.42768
1.44233
1.46543
1.50286
1.55651
1.45396
1.43748
1.42988
1.42303
1.41888
1.41554
1.42684
1.44009
1.46248
1.4845
1.44873
1.43188
1.42414
1.41543
1.41007
1.40226
1.41005
1.41122
1.4177
1.39885
1.444
1.42642
1.41828
1.4075
1.40065
1.38789
1.39189
1.37875
1.36875
1.29875
1.43978
1.42111
1.4123
1.39928
1.39058
1.37252
1.37224
1.34267
1.31577
1.18257
1.43608
1.41597
1.40621
1.3908
1.37985
1.35622
1.3509
1.3032
1.2585
1.05173
1.43294
1.41103
1.40001
1.38209
1.36848
1.33917
1.32767
1.26053
1.19515
0.904402
1.43039
1.40629
1.39372
1.37316
1.35669
1.32157
1.30357
1.21644
1.12844
0.752183
1.42784
1.40087
1.38567
1.36199
1.34043
1.29853
1.26995
1.16248
1.05203
0.608336
1.42662
1.39546
1.37669
1.34969
1.32162
1.2744
1.23276
1.11641
0.97861
0.587948
1.42735
1.39105
1.36788
1.33811
1.30277
1.25248
1.1975
1.07996
0.919599
0.580302
1.43059
1.38768
1.35924
1.32725
1.28426
1.23319
1.16489
1.05144
0.871572
0.578568
1.43691
1.38532
1.3507
1.31703
1.26582
1.21692
1.13508
1.02981
0.834219
0.580302
1.44702
1.38404
1.34239
1.30763
1.24799
1.20377
1.10884
1.01378
0.807152
0.582171
1.46052
1.38205
1.3325
1.2965
1.22943
1.19273
1.08675
1.00142
0.788976
0.584621
1.48555
1.38465
1.3263
1.28749
1.21375
1.18394
1.06927
0.992708
0.777607
0.588063
1.49768
1.3769
1.3133
1.27494
1.20071
1.17795
1.05775
0.988434
0.772706
0.593057
1.57395
1.38992
1.31693
1.27107
1.1956
1.17546
1.05203
0.988034
0.770572
0.59823
0.322628
0.150219
-0.054958
-0.253314
-0.43139
-0.591291
-0.734143
-0.863899
-0.977769
-1.07723
0.27599
0.140036
-0.0152439
-0.172233
-0.318246
-0.453361
-0.577139
-0.694691
-0.800948
-0.899229
0.265618
0.150482
0.0258201
-0.102908
-0.228146
-0.347986
-0.461388
-0.569355
-0.668692
-0.760787
0.284336
0.177427
0.0657531
-0.0460528
-0.156322
-0.263662
-0.367685
-0.467037
-0.56104
-0.648053
0.307814
0.207277
0.104221
0.00313309
-0.096312
-0.194266
-0.290968
-0.384537
-0.47425
-0.557306
0.331566
0.23679
0.140346
0.0463353
-0.0459761
-0.13767
-0.229097
-0.318527
-0.404525
-0.484463
0.354052
0.264311
0.172987
0.0836737
-0.00432174
-0.0921672
-0.180038
-0.266351
-0.349308
-0.426727
0.374274
0.28884
0.20157
0.115204
0.0292861
-0.0568342
-0.142913
-0.227293
-0.308083
-0.383303
0.391759
0.309841
0.22568
0.140545
0.0545118
-0.0320399
-0.118117
-0.202042
-0.282193
-0.356837
0.40507
0.325048
0.24191
0.155876
0.0682056
-0.0196389
-0.106269
-0.190303
-0.270281
-0.344806
-1.24751
-1.21441
-1.14387
-1.05417
-0.962305
-0.878101
-0.805472
-0.745631
-0.698976
-0.665974
-1.30466
-1.27527
-1.21659
-1.14051
-1.06022
-0.985126
-0.919634
-0.865416
-0.823467
-0.79493
-1.30415
-1.27785
-1.23184
-1.17202
-1.10654
-1.0433
-0.986873
-0.939337
-0.902146
-0.876647
-1.25807
-1.23427
-1.19969
-1.15623
-1.10723
-1.05805
-1.01284
-0.973869
-0.942848
-0.921148
-1.18437
-1.16299
-1.13729
-1.10743
-1.07361
-1.03842
-1.0047
-0.974353
-0.948904
-0.928966
-1.10183
-1.08338
-1.06394
-1.04341
-1.02097
-0.997342
-0.97404
-0.952239
-0.933402
-0.918552
-1.02514
-1.01033
-0.99546
-0.980556
-0.965153
-0.949444
-0.934055
-0.919753
-0.90716
-0.896327
-0.962129
-0.951395
-0.940387
-0.929024
-0.917337
-0.905606
-0.894482
-0.884075
-0.876566
-0.871741
-0.914111
-0.907437
-0.899956
-0.891354
-0.881858
-0.872107
-0.863092
-0.856243
-0.851144
-0.858132
-0.878091
-0.874742
-0.870072
-0.86341
-0.855174
-0.846454
-0.838739
-0.834828
-0.833202
-0.85134
-0.853838
-0.852261
-0.848629
-0.842076
-0.834082
-0.825405
-0.817844
-0.813815
-0.813085
-0.808814
-0.845815
-0.844158
-0.84046
-0.834253
-0.826329
-0.817859
-0.810489
-0.805855
-0.804522
-0.799876
-0.85125
-0.849006
-0.845997
-0.842162
-0.837831
-0.833741
-0.830805
-0.829827
-0.831043
-0.833383
-0.857496
-0.855938
-0.854939
-0.854872
-0.856045
-0.858874
-0.863733
-0.870762
-0.879521
-0.888707
-0.85818
-0.858658
-0.860024
-0.862955
-0.867865
-0.874836
-0.883704
-0.894194
-0.906814
-0.911988
-0.854927
-0.857965
-0.862121
-0.867831
-0.875959
-0.886626
-0.899432
-0.913545
-0.928417
-0.946473
-0.854516
-0.859953
-0.866374
-0.874073
-0.884238
-0.896878
-0.911375
-0.926928
-0.944266
-0.96753
-0.874324
-0.881063
-0.888809
-0.897899
-0.909774
-0.924449
-0.940913
-0.958396
-0.977962
-1.00265
-0.92873
-0.935778
-0.944058
-0.954287
-0.968067
-0.98515
-1.00439
-1.02475
-1.04663
-1.07155
-1.02331
-1.02962
-1.03746
-1.04836
-1.06411
-1.08425
-1.10742
-1.13219
-1.15793
-1.18495
-0.879011
-0.942697
-0.59505
-0.365084
-0.176061
-0.0317769
0.0260824
0.034568
0.0246789
0.0094589
-0.961616
-0.964798
-0.516639
-0.270178
-0.120981
-0.0129215
0.0304789
0.0351659
0.0245691
0.00937973
-1.05382
-0.95566
-0.427188
-0.180852
-0.0731863
0.00438944
0.0359209
0.0367528
0.0249788
0.00946425
-1.12918
-0.919313
-0.346252
-0.106332
-0.0339232
0.0208132
0.0422753
0.0389942
0.0256924
0.00963505
-1.17982
-0.870749
-0.285115
-0.0512644
-0.00409737
0.0363416
0.0488972
0.0414918
0.0265248
0.00983428
-1.1906
-0.817892
-0.243072
-0.0157935
0.0199541
0.0510913
0.0552547
0.043922
0.0273345
0.010019
-1.17615
-0.761564
-0.215659
0.00621802
0.0392956
0.0636987
0.0606683
0.0459891
0.0280044
0.0101549
-1.17228
-0.728813
-0.201625
0.0175973
0.0531167
0.0732335
0.0647638
0.0475166
0.0284546
0.0102181
-1.21686
-0.748019
-0.210821
0.0186712
0.0610072
0.0794122
0.0673818
0.0484065
0.0286296
0.0101908
-1.31994
-0.824467
-0.245387
0.00889066
0.0630971
0.082245
0.0684558
0.0485963
0.028488
0.0100591
-0.717854
-0.707066
-0.635088
-0.512734
-0.258075
-0.0628891
0.0202253
0.0358541
0.0265547
0.0103278
-0.711335
-0.698188
-0.634576
-0.518889
-0.262461
-0.0637418
0.020587
0.035975
0.0264614
0.0102443
-0.724586
-0.725927
-0.642114
-0.519342
-0.266067
-0.0637701
0.0206948
0.0356103
0.0260865
0.010083
-0.75947
-0.789168
-0.64739
-0.504241
-0.257453
-0.0594994
0.0212177
0.0349933
0.0255506
0.00986114
-0.814436
-0.882385
-0.635999
-0.441753
-0.22391
-0.0487603
0.0227198
0.0345665
0.0251028
0.00966867
-0.633495
-0.756789
-0.840588
-0.893107
-0.906479
-0.907586
-0.893496
-0.863017
-0.833913
-0.794096
-0.63416
-0.759355
-0.841733
-0.893171
-0.901163
-0.903706
-0.886387
-0.853193
-0.829766
-0.786497
-0.636288
-0.762826
-0.844232
-0.894321
-0.898902
-0.902992
-0.880185
-0.853908
-0.832745
-0.80056
-0.641445
-0.769655
-0.851106
-0.89913
-0.904009
-0.904869
-0.880864
-0.862476
-0.844422
-0.840057
-0.650361
-0.780649
-0.862613
-0.908409
-0.915026
-0.909
-0.888197
-0.870018
-0.854919
-0.876094
1.42205
1.41452
1.40087
1.38383
1.36417
1.34098
1.31369
1.28403
1.25931
1.24827
1.51403
1.51725
1.5146
1.50792
1.49827
1.48517
1.46817
1.44863
1.43237
1.42566
1.60208
1.61009
1.61386
1.6146
1.61306
1.6088
1.60126
1.59121
1.58287
1.58026
1.67855
1.6906
1.70015
1.70764
1.7133
1.71662
1.71694
1.71464
1.71274
1.71378
1.74219
1.75731
1.77093
1.78314
1.7939
1.80269
1.80886
1.81249
1.81567
1.81965
1.78867
1.80575
1.82246
1.83843
1.8533
1.86652
1.87737
1.88567
1.89276
1.89911
1.81716
1.83543
1.85405
1.87235
1.88971
1.90553
1.91913
1.93019
1.93965
1.94745
1.82575
1.8443
1.86369
1.88298
1.9014
1.9183
1.93299
1.94509
1.95542
1.96376
1.8137
1.83167
1.85064
1.86951
1.88741
1.90366
1.91758
1.92885
1.93844
1.94632
1.78055
1.79705
1.81437
1.83138
1.84715
1.86102
1.8723
1.8808
1.88798
1.89435
-0.491006
-0.529956
-0.581263
-0.645412
-0.722996
-0.813247
-0.913019
-1.01256
-1.09233
-1.12893
-0.276732
-0.32131
-0.377025
-0.444562
-0.524909
-0.618067
-0.722607
-0.828511
-0.914581
-0.953382
-0.0353914
-0.0850836
-0.144784
-0.214886
-0.296551
-0.390293
-0.49454
-0.600994
-0.692221
-0.731736
0.214129
0.161011
0.0991079
0.028317
-0.0524787
-0.143956
-0.244869
-0.348716
-0.436881
-0.477629
0.453776
0.400032
0.338877
0.270364
0.19344
0.107222
0.012516
-0.0848763
-0.166785
-0.205893
0.670493
0.619864
0.563149
0.500406
0.430575
0.352629
0.267105
0.179173
0.10553
0.0699352
0.861531
0.817418
0.768316
0.714145
0.653781
0.586135
0.5116
0.434795
0.370673
0.339687
1.03369
0.997314
0.956833
0.912086
0.86183
0.804956
0.741794
0.676457
0.622115
0.596103
1.19487
1.16519
1.13152
1.09459
1.05325
1.00633
0.95403
0.899846
0.855061
0.833996
1.33579
1.31241
1.28415
1.25405
1.22146
1.18499
1.14434
1.10202
1.06715
1.05111
1.59094
1.49655
1.4794
1.4728
1.47276
1.491
1.51202
1.54378
1.55421
1.52066
1.5732
1.49524
1.4791
1.4737
1.4733
1.49139
1.51451
1.55029
1.57561
1.57783
1.55718
1.4929
1.47775
1.47349
1.47295
1.49066
1.51584
1.55651
1.59665
1.63331
1.54274
1.48971
1.47557
1.47231
1.47173
1.48886
1.51567
1.55996
1.61247
1.67629
1.52969
1.48585
1.47271
1.47028
1.4697
1.48609
1.51387
1.56068
1.62313
1.70861
1.51787
1.48143
1.46928
1.46746
1.46689
1.48234
1.5104
1.55864
1.62834
1.72969
1.50714
1.47659
1.46537
1.4639
1.4633
1.47759
1.50532
1.55378
1.62786
1.73951
1.49737
1.4714
1.46106
1.45967
1.45895
1.47185
1.49865
1.54609
1.62156
1.738
1.48845
1.46597
1.45641
1.45482
1.45389
1.4651
1.49042
1.53563
1.60951
1.72488
1.48029
1.46037
1.45149
1.44941
1.44813
1.45734
1.48062
1.52242
1.59163
1.70009
1.75872
1.50076
1.47131
1.46017
1.46386
1.47966
1.48991
1.50358
1.46288
1.42581
1.68426
1.49468
1.47218
1.46272
1.46511
1.4806
1.4906
1.50488
1.46543
1.4231
1.66127
1.49935
1.47592
1.46563
1.46675
1.48244
1.49321
1.50904
1.47561
1.42496
1.63438
1.49873
1.47782
1.46843
1.46879
1.48513
1.49832
1.51743
1.494
1.43701
1.61096
1.49755
1.47891
1.47088
1.47095
1.48831
1.50468
1.52914
1.51972
1.45841
1.22388
1.13291
1.00958
0.850132
0.656671
0.435436
0.196641
-0.0446241
-0.271736
-0.469917
1.21874
1.13078
1.01247
0.857624
0.668892
0.450946
0.212665
-0.0310913
-0.263033
-0.466654
1.22957
1.13772
1.01735
0.864083
0.678753
0.463146
0.224734
-0.0215392
-0.257578
-0.4656
1.26089
1.15598
1.02561
0.870285
0.686623
0.472184
0.233011
-0.0157924
-0.255488
-0.467527
1.31272
1.18743
1.03923
0.876369
0.691257
0.477191
0.237826
-0.0128511
-0.256203
-0.472787
)
;

boundaryField
{
    left
    {
        type            zeroGradient;
    }
    right
    {
        type            fixedValue;
        value           uniform 0;
    }
    down
    {
        type            zeroGradient;
    }
    up
    {
        type            zeroGradient;
    }
    cylinder
    {
        type            zeroGradient;
    }
    defaultFaces
    {
        type            empty;
    }
}


// ************************************************************************* //
