/*--------------------------------*- C++ -*----------------------------------*\
  =========                 |
  \\      /  F ield         | OpenFOAM: The Open Source CFD Toolbox
   \\    /   O peration     | Website:  https://openfoam.org
    \\  /    A nd           | Version:  13
     \\/     M anipulation  |
\*---------------------------------------------------------------------------*/
FoamFile
{
    format      ascii;
    class       surfaceScalarField;
    location    "2.7";
    object      phi;
}
// * * * * * * * * * * * * * * * * * * * * * * * * * * * * * * * * * * * * * //

dimensions      [0 3 -1 0 0 0 0];

internalField   nonuniform List<scalar> 
3485
(
-0.00149429
0.00390727
-0.00241298
-0.00259206
0.00749566
-0.0063979
-0.00107213
0.00763515
-0.00915508
0.0046649
0.00437977
-0.0101168
0.0158631
-0.00240711
-0.00879114
0.0334188
-0.0126863
-0.00486935
0.0579127
-0.0262321
0.00173819
0.0897165
-0.0424523
0.0106485
0.128647
-0.0611238
0.0221934
-0.0721553
0.0300889
0.170713
-0.000689732
0.004597
4.83296e-05
0.0067576
0.00443089
0.0032526
0.014224
-0.00541331
0.0306844
-0.0188675
0.054364
-0.036366
0.0848124
-0.0566805
0.120706
-0.0783459
0.159483
-0.0999009
-0.117401
0.204729
0.000463493
0.00413351
0.00404721
0.00317389
0.0128264
-0.00552656
0.0284029
-0.0209899
0.0514035
-0.0418681
0.0811502
-0.0661127
0.115748
-0.0912784
0.152478
-0.115076
0.188511
-0.135934
-0.152997
0.224107
0.00147829
0.00265522
0.00804437
-0.00339219
0.0215713
-0.0190535
0.0429055
-0.0423241
0.0712268
-0.0701894
0.1041
-0.0989856
0.13826
-0.125438
0.170608
-0.147424
0.198808
-0.164134
-0.175687
0.221498
0.00260745
4.77675e-05
0.0123191
-0.0131039
0.0304269
-0.0371613
0.0562445
-0.0681417
0.086924
-0.100869
0.118552
-0.130613
0.147607
-0.154494
0.171865
-0.171682
0.190503
-0.182773
-0.189531
0.204347
0.00384997
-0.0038022
0.0166965
-0.0259504
0.0383901
-0.0588548
0.0660733
-0.0958249
0.0952304
-0.130026
0.121798
-0.157181
0.143431
-0.176128
0.159599
-0.187849
0.171102
-0.194276
-0.197216
0.178787
0.00518202
-0.00898422
0.020597
-0.0413654
0.0439627
-0.0822206
0.0704152
-0.122277
0.0950969
-0.154708
0.115146
-0.17723
0.129902
-0.190884
0.140143
-0.19809
0.147067
-0.201199
-0.202076
0.151927
0.00634382
-0.015328
0.0232242
-0.0582457
0.0460113
-0.105008
0.0689058
-0.145172
0.0880011
-0.173803
0.102012
-0.19124
0.111451
-0.200323
0.117512
-0.204151
0.121379
-0.205067
-0.204431
0.123734
0.00715135
-0.0224794
0.0241163
-0.0752107
0.0444888
-0.12538
0.0628098
-0.163493
0.076573
-0.187566
0.085698
-0.200365
0.0912462
-0.205871
0.0944635
-0.207368
0.0962778
-0.206881
-0.205404
0.0972501
0.00748228
-0.0299617
0.0232415
-0.0909699
0.0401685
-0.142307
0.0538322
-0.177157
0.0629823
-0.196716
0.0682437
-0.205627
0.07083
-0.208458
0.0718103
-0.208348
0.0718706
-0.206941
0.0712745
-0.204808
-0.00415509
0.0231594
-0.0190043
-0.0136837
0.0459973
-0.0364686
-0.0260653
0.054741
-0.0423594
-0.0396936
0.0563417
-0.0427135
-0.0537336
0.0549114
-0.0408713
-0.0677966
0.0523042
-0.0382412
-0.0816755
0.0491484
-0.0352695
-0.0952128
0.0456044
-0.0320671
-0.108252
0.0417134
-0.0286739
0.0377637
-0.120683
-0.0253333
-0.00155731
0.0247167
-0.00716811
0.0516081
-0.0158308
0.0634037
-0.0262154
0.0667263
-0.0373008
0.0659969
-0.0484981
0.0635014
-0.059479
0.0601293
-0.0700166
0.056142
-0.0798941
0.051591
0.0467065
-0.0888369
0.00146709
0.0232496
0.00116823
0.0519069
-0.00214764
0.0667196
-0.0077006
0.0722793
-0.0144247
0.0727209
-0.0215164
0.0705932
-0.0284779
0.0670908
-0.0349844
0.0626485
-0.0407931
0.0573997
0.0513659
-0.0454525
0.00408516
0.0191645
0.00930589
0.0466862
0.0124703
0.0635551
0.0131065
0.0716431
0.0119616
0.0738658
0.00994258
0.0726123
0.00770872
0.0693246
0.0056732
0.064684
0.0041775
0.0588954
0.0518792
0.00366427
0.00547931
0.0136852
0.0150083
0.0371572
0.0242546
0.0543088
0.0314689
0.0644289
0.0365826
0.0687521
0.0402246
0.0689702
0.0430898
0.0664594
0.0456877
0.0620861
0.048305
0.056278
0.0488977
0.0512865
0.00537335
0.0083118
0.0166086
0.025922
0.0297586
0.0411588
0.0423502
0.0518372
0.0533857
0.0577167
0.0628193
0.0595366
0.0710138
0.0582649
0.0783753
0.0547246
0.0851643
0.049489
0.0426138
0.0914482
0.00414334
0.00416846
0.0142353
0.01583
0.0277833
0.0276108
0.0425847
0.0370358
0.0572217
0.0430797
0.0710297
0.0457286
0.0838355
0.0454591
0.0956817
0.0428784
0.106609
0.0385614
0.0325635
0.11666
0.00239633
0.00177213
0.00934647
0.00887987
0.0200065
0.0169508
0.0331228
0.0239195
0.047538
0.0286645
0.0624222
0.0308444
0.0772723
0.030609
0.0918156
0.0283351
0.105966
0.0244106
0.0180947
0.120435
0.000489617
0.00128251
0.00341313
0.00595635
0.00931597
0.011048
0.0180477
0.0151878
0.0291521
0.0175601
0.0422145
0.017782
0.0570035
0.01582
0.0734822
0.0118564
0.091948
0.00594482
-0.00272356
0.112766
-0.00113047
-0.00157201
0.000320878
0.00539185
0.0141608
0.0270734
0.0446317
0.0671366
0.0952747
0.12264
-0.153193
0.0995674
-0.0670569
-0.0744867
-0.286217
0.20751
0.028522
-0.376494
0.273485
0.100218
-0.331995
0.260299
0.148111
-0.272174
0.224281
0.177828
-0.198334
0.168617
0.195524
-0.147841
0.130144
0.205044
-0.101427
0.0919067
0.210268
-0.0791542
0.0739302
-0.0512292
0.0495664
-0.107063
0.117794
-0.0399931
-0.353287
0.047686
-0.464173
0.113747
-0.398056
0.156535
-0.314962
0.182826
-0.224624
0.19848
-0.163495
0.206932
-0.10988
0.211555
-0.0837773
-0.0526501
-0.0505339
0.122875
0.00487191
-0.408693
0.0748238
-0.534125
0.131422
-0.454654
0.167506
-0.351046
0.189234
-0.246352
0.202087
-0.176348
0.209084
-0.116877
0.212956
-0.0876492
-0.0538522
0.00836038
0.118179
0.0480286
-0.448361
0.104335
-0.590431
0.150244
-0.500563
0.179502
-0.380304
0.196513
-0.263363
0.206227
-0.186062
0.211493
-0.122143
0.214472
-0.0906287
-0.054852
0.0608081
0.108657
0.091129
-0.478682
0.132719
-0.632021
0.167754
-0.535598
0.190649
-0.403199
0.203627
-0.276341
0.210487
-0.192922
0.214034
-0.125689
0.216072
-0.0926665
-0.055682
0.106986
0.0931193
0.130683
-0.502379
0.158668
-0.660005
0.183073
-0.560003
0.199855
-0.419981
0.209599
-0.286085
0.214301
-0.197623
0.216465
-0.127854
0.21767
-0.0938713
-0.0564184
0.143373
0.066406
0.164013
-0.523019
0.180446
-0.676439
0.195818
-0.575375
0.206914
-0.431077
0.213944
-0.293116
0.21719
-0.200869
0.218496
-0.12916
0.219138
-0.0945127
-0.0572003
0.170823
0.0160184
0.189817
-0.542013
0.197277
-0.683899
0.205618
-0.583716
0.211996
-0.437455
0.216681
-0.297801
0.218939
-0.203127
0.219891
-0.130113
0.220327
-0.0949483
-0.0582271
0.191643
-0.0628581
0.208086
-0.558457
0.208954
-0.684767
0.212307
-0.587069
0.215336
-0.440483
0.218104
-0.300569
0.219611
-0.204633
0.220546
-0.131048
0.221115
-0.0955168
-0.0597276
0.210305
-0.150523
0.218991
-0.567143
0.215783
-0.681559
0.216411
-0.587698
0.21738
-0.441452
0.21865
-0.301839
0.219472
-0.205455
0.220518
-0.132094
0.221459
-0.0964576
-0.0619148
0.63817
-0.260383
-0.528309
0.633731
-0.562704
0.574614
-0.622442
0.506583
-0.519667
0.448137
-0.383006
0.406603
-0.260305
0.378583
-0.177435
0.361185
-0.114697
0.349264
-0.0845365
-0.0553735
0.734763
-0.290768
-0.704378
0.670129
-0.49807
0.582784
-0.535096
0.509349
-0.446232
0.453477
-0.327134
0.413024
-0.219852
0.383926
-0.148337
0.364795
-0.0955658
0.35137
-0.0711111
-0.0478246
0.734206
-0.28039
-0.744584
0.666482
-0.430346
0.596978
-0.465592
0.534741
-0.383995
0.477547
-0.26994
0.430579
-0.172885
0.395047
-0.112805
0.371249
-0.0717676
0.35468
-0.0545425
-0.0386889
0.719216
-0.261468
-0.738138
0.665035
-0.376165
0.600066
-0.400623
0.534485
-0.318414
0.474696
-0.210151
0.427913
-0.126102
0.393915
-0.0788073
0.371295
-0.0491469
0.355074
-0.038322
-0.0292678
0.704139
-0.241685
-0.723922
0.659043
-0.331069
0.601203
-0.342783
0.539199
-0.25641
0.479179
-0.150131
0.430325
-0.0772487
0.394623
-0.0431048
0.371196
-0.0257198
0.354666
-0.0217918
-0.0196031
0.691357
-0.222721
-0.71032
0.650175
-0.289887
0.589239
-0.281846
0.522932
-0.190103
0.463305
-0.0905047
0.417603
-0.0315467
0.385462
-0.010963
0.364812
-0.00506977
0.350211
-0.00719135
-0.0106906
0.671186
-0.198834
-0.695073
0.619895
-0.238597
0.546887
-0.208838
0.476146
-0.119362
0.42187
-0.0362283
0.385397
0.00492606
0.361837
0.0125969
0.347389
0.00937794
0.336993
0.00320494
-0.00367716
0.610902
-0.153601
-0.656135
0.533098
-0.160793
0.443739
-0.11948
0.375647
-0.0512698
0.337415
0.00200449
0.319629
0.0227115
0.311049
0.0211771
0.306512
0.0139145
0.302605
0.00711182
0.000274696
0.442626
-0.0743851
-0.521842
0.340773
-0.0589399
0.254331
-0.0330378
0.209879
-0.00681823
0.201313
0.0105705
0.208123
0.0159016
0.216324
0.0129761
0.221996
0.00824278
0.224581
0.00452654
0.000934304
0.130202
-0.204587
0.0712617
0.0382239
0.0314057
0.0419762
0.0578779
0.070854
0.0790968
0.0836233
0.559572
0.0596957
-0.547993
0.570942
0.0858794
0.586581
0.108095
0.602291
0.136217
0.620766
0.160313
0.638555
0.186558
0.647628
0.212425
0.644313
0.227422
0.595799
0.253243
0.238203
0.538138
0.0483104
-0.526752
0.550902
0.0731155
0.567354
0.0916426
0.586959
0.116612
0.609169
0.138103
0.635281
0.160446
0.661066
0.186641
0.68541
0.203078
0.70583
0.232823
0.239654
0.522461
0.0387498
-0.5129
0.535834
0.059742
0.55114
0.0763367
0.570675
0.0970773
0.592682
0.116095
0.618063
0.135065
0.647885
0.156818
0.677703
0.173261
0.714609
0.195917
0.209679
0.511404
0.0299129
-0.502567
0.524671
0.0464748
0.539353
0.0616552
0.558162
0.0782683
0.579512
0.0947454
0.604043
0.110534
0.633056
0.127805
0.663965
0.142352
0.700806
0.159075
0.172348
0.503142
0.0211298
-0.494359
0.515673
0.0339442
0.530237
0.0470905
0.548397
0.0601083
0.569335
0.0738081
0.593494
0.0863747
0.621342
0.0999569
0.652016
0.111678
0.686719
0.124373
0.135144
0.495543
0.0125425
-0.486955
0.507241
0.0222462
0.521657
0.0326744
0.539226
0.042539
0.559899
0.0531352
0.583649
0.0626244
0.61078
0.0728258
0.640836
0.0816216
0.674215
0.0909934
0.099039
0.484928
0.00464399
-0.47703
0.495783
0.0113909
0.509689
0.0187692
0.526655
0.0255722
0.546918
0.0328728
0.570222
0.0393198
0.596912
0.0461361
0.626526
0.0520077
0.659512
0.0580073
0.0634787
0.459718
-0.00156642
-0.453507
0.468817
0.00229091
0.48105
0.0065363
0.496387
0.0102356
0.515023
0.0142366
0.536786
0.0175571
0.561894
0.0210282
0.590081
0.0238208
0.621602
0.0264861
0.0289456
0.385732
-0.0035774
-0.383721
0.390199
-0.00217599
0.397518
-0.000783328
0.407413
0.000340547
0.420085
0.00156519
0.435257
0.00238456
0.453114
0.00317099
0.473425
0.00350976
0.49612
0.00379199
0.00322356
0.189559
-0.193137
0.187384
0.1866
0.186941
0.188506
0.19089
0.194061
0.197571
0.201363
0.0740173
0.150029
-0.138118
-0.0859278
0.0630765
0.152216
-0.141275
0.0529887
0.154851
-0.144763
0.0432098
0.158398
-0.148619
0.0334758
0.162205
-0.152471
0.0238624
0.165168
-0.155555
0.0147762
0.164597
-0.155511
0.00702731
0.154475
-0.146726
0.0017642
0.124068
-0.118805
0.0586967
-0.0569325
0.0702892
0.160686
-0.0809468
0.0597832
0.162722
0.0496208
0.165013
0.0398086
0.16821
0.0302346
0.171779
0.0209861
0.174416
0.0124952
0.173088
0.00556913
0.161401
0.00118927
0.128448
0.059886
0.0633671
0.17015
-0.0728311
0.0535882
0.172501
0.0439191
0.174682
0.0345558
0.177573
0.0255296
0.180805
0.0169956
0.18295
0.00940393
0.180679
0.0035764
0.167228
0.000373135
0.131651
0.0602591
0.0521952
0.178213
-0.0602583
0.0437403
0.180956
0.03519
0.183233
0.026804
0.185959
0.0187444
0.188865
0.011276
0.190419
0.00500224
0.186953
0.000655054
0.171575
-0.000710557
0.133017
0.0595485
0.0394792
0.185298
-0.0465639
0.0321679
0.188267
0.0247304
0.19067
0.0174085
0.193281
0.0104697
0.195804
0.0042793
0.196609
-0.000470339
0.191703
-0.00256773
0.173673
-0.00197074
0.13242
0.0575778
0.0244128
0.19114
-0.0302543
0.0184202
0.19426
0.0123085
0.196782
0.00630161
0.199288
0.000743575
0.201362
-0.00373957
0.201092
-0.00630881
0.194272
-0.00623248
0.173596
-0.00328343
0.129471
0.0542944
0.00869684
0.196211
-0.0137681
0.00370928
0.199247
-0.0012312
0.201722
-0.00591661
0.203973
-0.00992708
0.205372
-0.0125891
0.203754
-0.0129309
0.194614
-0.0101022
0.170768
-0.00456797
0.123936
0.0497264
-0.00905906
0.200204
0.00506611
-0.0128492
0.203037
-0.0164692
0.205342
-0.0196727
0.207177
-0.0219332
0.207633
-0.0223852
0.204206
-0.0199624
0.192191
-0.0140224
0.164828
-0.00574849
0.115663
0.0439779
-0.0281494
0.203143
0.0252097
-0.0307876
0.205675
-0.0330839
0.207639
-0.0346941
0.208787
-0.0349343
0.207873
-0.0327765
0.202049
-0.0271371
0.186552
-0.017746
0.155437
-0.00670218
0.104619
0.0372757
-0.0494199
0.0477558
-0.0506855
-0.0513952
-0.0510658
-0.0488198
-0.0434872
-0.0340925
-0.0209628
-0.00731405
0.107109
0.0402956
-0.119076
-0.0283288
0.0948765
0.0414072
-0.0291748
0.0823655
0.0426073
-0.0300963
0.0695504
0.0438927
-0.0310776
0.0564138
0.0452447
-0.0321082
0.0429815
0.0465199
-0.0330875
0.0294385
0.0471543
-0.0336113
0.0164181
0.0455502
-0.0325298
0.00552309
0.0382574
-0.0273624
0.019463
-0.0139399
0.106502
0.0522938
-0.1185
0.0943124
0.0535969
0.0818562
0.0550635
0.0691032
0.0566458
0.0560285
0.0583193
0.0426555
0.0598929
0.0291756
0.0606341
0.0162339
0.058492
0.00543712
0.0490541
0.0249001
0.105456
0.0642072
-0.117369
0.0932949
0.065758
0.0808913
0.0674671
0.0682188
0.0693183
0.0552545
0.0712837
0.0420154
0.073132
0.0286883
0.0739612
0.0159205
0.0712598
0.00530747
0.0596671
0.0302076
0.103735
0.0761639
-0.115691
0.0916685
0.0778241
0.0793524
0.0797833
0.066764
0.0819067
0.0539006
0.0841471
0.040812
0.0862205
0.0277138
0.0870594
0.0152646
0.0837091
0.00502905
0.0699027
0.0352366
0.101427
0.0879161
-0.113179
0.0895401
0.0897108
0.0774898
0.0918336
0.0652038
0.0941926
0.0526307
0.0967202
0.0397992
0.099052
0.0269446
0.099914
0.0147651
0.0958886
0.00482907
0.0798387
0.0400657
0.097934
0.0997441
-0.109762
0.0861178
0.101527
0.0741497
0.103802
0.0620417
0.106301
0.0497819
0.10898
0.0373929
0.111441
0.0250911
0.112216
0.0135632
0.107416
0.00432674
0.0890751
0.0443924
0.0941473
0.110941
-0.105344
0.0829603
0.112714
0.0715786
0.115183
0.0599038
0.117976
0.0479466
0.120937
0.0358211
0.123566
0.0238357
0.124201
0.012731
0.118521
0.00399027
0.0978159
0.0483827
0.0870841
0.122004
-0.098147
0.0762608
0.123537
0.0654927
0.125951
0.0546477
0.12882
0.0436071
0.131978
0.0323975
0.134776
0.0213238
0.135275
0.011162
0.128683
0.00336085
0.105617
0.0517435
0.0825445
0.13128
-0.0918207
0.0728371
0.133245
0.0625276
0.136261
0.0518513
0.139497
0.0409791
0.14285
0.0300661
0.145689
0.0194637
0.145877
0.0099536
0.138193
0.00288719
0.112683
0.0546307
0.0717302
-0.0785683
0.0636998
0.0551979
0.0460759
0.0364547
0.0265893
0.0169559
0.0084233
0.00230176
0.201616
0.00772327
-0.0113499
0.205364
0.0267703
-0.0305183
0.208651
0.0342829
-0.0375693
0.211679
0.0536016
-0.0566298
0.213267
0.0679237
-0.0695119
0.212203
0.0943582
-0.0932941
0.206779
0.125599
-0.120175
0.194264
0.153598
-0.141083
0.168553
0.206778
-0.181068
0.267176
-0.217699
0.201269
0.00444388
0.204692
0.0233474
0.207754
0.0312213
0.210296
0.0510597
0.211889
0.0663301
0.21023
0.0960171
0.205045
0.130784
0.192248
0.166395
0.166786
0.23224
0.315462
0.200857
0.00157657
0.203839
0.0203652
0.206669
0.0283912
0.208563
0.0491666
0.210121
0.0647714
0.207529
0.0986096
0.202574
0.135739
0.189064
0.179905
0.164292
0.257012
0.362385
0.200369
-0.000803108
0.202814
0.017921
0.205376
0.0258288
0.206472
0.0480702
0.207949
0.0632947
0.204171
0.102388
0.19945
0.14046
0.18459
0.194765
0.161123
0.28048
0.407817
0.199795
-0.00260862
0.201631
0.0160849
0.203854
0.0236066
0.204028
0.0478963
0.205341
0.061981
0.200238
0.107491
0.195679
0.145018
0.179219
0.211225
0.157224
0.302474
0.451862
0.199125
-0.00374387
0.200314
0.0148964
0.202087
0.0218335
0.201282
0.048701
0.202275
0.060988
0.195735
0.114031
0.191252
0.149502
0.172746
0.229731
0.152886
0.322335
0.494986
0.198355
-0.00410916
0.198882
0.0143693
0.200062
0.0206538
0.198294
0.0504693
0.198713
0.0605683
0.190746
0.121998
0.185945
0.154303
0.165761
0.249914
0.14746
0.340636
0.537101
0.197488
-0.00360755
0.197354
0.0145036
0.197774
0.0202337
0.195071
0.0531723
0.19466
0.0609792
0.185251
0.131407
0.179892
0.159661
0.157401
0.272406
0.141815
0.356222
0.58077
0.196534
-0.0021514
0.195738
0.0152992
0.195229
0.0207426
0.191622
0.0567794
0.190078
0.0625233
0.179432
0.142053
0.173121
0.165973
0.150308
0.295219
0.135056
0.371474
0.624005
0.195535
0.000302982
0.193999
0.016836
0.192505
0.0222364
0.187859
0.0614252
0.184896
0.0654862
0.172657
0.154292
0.164522
0.174107
0.139998
0.319743
0.129123
0.382348
0.67456
0.304494
-0.00218034
0.309497
0.0118325
0.316781
0.0149525
0.319845
0.0583608
0.332672
0.0526594
0.333348
0.153616
0.354216
0.153239
0.360971
0.312989
0.413615
0.329703
0.603283
0.484893
0.304815
-0.00498555
0.311286
0.00536195
0.318982
0.00725604
0.323933
0.0534105
0.338174
0.0384184
0.341525
0.150265
0.364159
0.130605
0.381387
0.295761
0.429829
0.281261
0.535548
0.497563
0.305403
-0.00837794
0.313533
-0.00276861
0.321187
-0.000397636
0.329248
0.0453496
0.342671
0.0249956
0.349759
0.143177
0.372301
0.108063
0.396367
0.271694
0.440115
0.237513
0.461831
0.513832
0.306467
-0.0128348
0.315988
-0.0122893
0.324069
-0.00847911
0.335567
0.0338518
0.34622
0.0143424
0.357373
0.132025
0.378035
0.0874011
0.407717
0.242013
0.450943
0.194286
0.385946
0.526829
0.308074
-0.0188984
0.318679
-0.0228942
0.328145
-0.0179458
0.342675
0.0193222
0.350298
0.00671898
0.366202
0.116121
0.38428
0.0693228
0.419939
0.206354
0.457262
0.156963
0.313789
0.529419
0.310199
-0.0270872
0.321981
-0.0346763
0.333417
-0.0293818
0.349528
0.00321119
0.354451
0.0017956
0.374718
0.0958544
0.390049
0.0539917
0.428381
0.168022
0.460458
0.124887
0.245521
0.528726
0.313127
-0.0382041
0.326216
-0.047765
0.338523
-0.0416889
0.353366
-0.0116317
0.355535
-0.000373195
0.3798
0.0715892
0.392783
0.0410087
0.432488
0.128318
0.461723
0.0956516
0.179835
0.527409
0.316285
-0.0524784
0.327433
-0.0589131
0.334924
-0.0491803
0.342944
-0.0196515
0.343338
-0.000767411
0.370206
0.0447217
0.382402
0.0288121
0.424852
0.0858678
0.455629
0.0648748
0.11387
0.521594
0.309847
-0.060315
0.303755
-0.0528211
0.292506
-0.0379318
0.286713
-0.0138583
0.286688
-0.000742514
0.31262
0.0187901
0.327454
0.0139775
0.374564
0.0387585
0.410268
0.0291707
0.0469078
0.47723
0.241695
0.188874
0.150942
0.137084
0.136341
0.155132
0.169109
0.207868
0.237038
0.283946
0.498435
-0.0994699
0.503176
-0.0856876
0.506833
-0.0764879
0.510109
-0.0635347
0.51496
-0.0514153
0.519417
-0.0347104
0.525739
-0.0200909
0.531472
-0.000666883
0.540022
0.0166598
0.0397852
0.498632
-0.100538
0.499723
-0.0867791
0.499867
-0.0766316
0.500192
-0.0638601
0.501528
-0.0527506
0.503458
-0.036641
0.50746
-0.0240927
0.511776
-0.00498305
0.519066
0.00937018
0.0320986
0.507606
-0.0943129
0.504084
-0.0832571
0.50042
-0.0729669
0.497677
-0.0611173
0.495487
-0.0505611
0.495562
-0.0367159
0.496561
-0.0250912
0.500043
-0.00846494
0.504852
0.00456103
0.0240502
0.515385
-0.082869
0.506393
-0.0742656
0.499123
-0.0656967
0.494004
-0.0559978
0.489802
-0.0463593
0.488369
-0.0352831
0.487847
-0.0245694
0.490778
-0.0113953
0.494634
0.000704213
0.0161178
0.516429
-0.0698795
0.505465
-0.0633013
0.496444
-0.0566754
0.489791
-0.0493448
0.484822
-0.0413905
0.482363
-0.0328239
0.481474
-0.0236813
0.483607
-0.0135276
0.487193
-0.00288211
0.00895172
0.515222
-0.0563759
0.503626
-0.0517054
0.493958
-0.0470075
0.486442
-0.0418284
0.480936
-0.0358843
0.477645
-0.029533
0.476334
-0.022371
0.477509
-0.0147019
0.480785
-0.00615848
0.00278145
0.513605
-0.0425717
0.501456
-0.039557
0.491051
-0.0366018
0.482579
-0.0333569
0.476118
-0.0294235
0.471728
-0.0251427
0.469439
-0.0200818
0.469474
-0.0147375
0.471924
-0.00860795
-0.00232423
0.506232
-0.0272104
0.492486
-0.0258103
0.480443
-0.0245588
0.470205
-0.0231192
0.461935
-0.0211537
0.455635
-0.0188428
0.451502
-0.0159485
0.449606
-0.0128418
0.450222
-0.00922319
-0.00560975
0.46041
-0.0103902
0.4452
-0.0106007
0.431446
-0.0108042
0.419128
-0.0108012
0.408415
-0.010441
0.399357
-0.00978499
0.392232
-0.00882337
0.3871
-0.00770989
0.384272
-0.00639491
-0.00505864
0.273556
0.262955
0.252151
0.24135
0.230909
0.221124
0.2123
0.20459
0.198196
0.00668206
0.0397814
-0.0464635
0.0160775
0.104789
-0.114184
0.0225825
0.149276
-0.155781
0.025092
0.174006
-0.176515
0.0244893
0.185023
-0.18442
0.0219958
0.188139
-0.185646
0.0185455
0.186834
-0.183384
0.0147791
0.182099
-0.178332
0.0112713
0.172729
-0.169221
0.155501
0.00857255
-0.152802
0.00797158
0.0318098
0.0214354
0.0913251
0.0330747
0.137636
0.0403616
0.166719
0.0436543
0.18173
0.0442026
0.187591
0.0431067
0.18793
0.0410179
0.184188
0.0381358
0.175611
0.159431
0.0342055
0.00846879
0.023341
0.0253104
0.0744835
0.0423365
0.12061
0.0552373
0.153818
0.0633206
0.173647
0.0675655
0.183346
0.0691565
0.186339
0.0687883
0.184556
0.0664819
0.177918
0.16453
0.0613832
0.00805764
0.0152834
0.026757
0.0557841
0.0486642
0.0987031
0.0678365
0.134646
0.0818789
0.159605
0.0909797
0.174245
0.0962543
0.181065
0.0986004
0.18221
0.0980258
0.178492
0.16897
0.0935852
0.00685042
0.00843299
0.0252205
0.037414
0.0501665
0.0737572
0.0753796
0.109432
0.0965147
0.138469
0.112058
0.158702
0.122406
0.170716
0.128478
0.176138
0.130764
0.176206
0.171706
0.128028
0.00517101
0.00326198
0.0210445
0.0215405
0.0458263
0.0489754
0.0748228
0.0804359
0.102886
0.110406
0.126501
0.135088
0.144266
0.152951
0.156316
0.164089
0.163147
0.169375
0.169933
0.16492
0.0034405
-0.000178523
0.0155037
0.00947724
0.0368004
0.0276787
0.0653475
0.0518889
0.0972164
0.078537
0.128247
0.104058
0.155303
0.125895
0.17668
0.142711
0.192066
0.153989
0.161613
0.200387
0.00197276
-0.00215128
0.0100266
0.00142342
0.0258698
0.0118355
0.0497608
0.0279978
0.0800558
0.048242
0.113767
0.0703465
0.147595
0.0920663
0.17851
0.111796
0.20462
0.127879
0.139731
0.226502
0.000824962
-0.00297625
0.0052972
-0.00304882
0.0153863
0.00174641
0.0324459
0.0109382
0.056713
0.0239749
0.0871122
0.0399473
0.12158
0.0575988
0.157703
0.0756732
0.191869
0.0937132
0.104638
0.226961
-0.000229786
-0.00274646
0.00118239
-0.00446099
0.00616061
-0.00323182
0.016319
0.000779878
0.0328211
0.00747276
0.0559926
0.0167758
0.085338
0.0282533
0.119768
0.0412435
0.157548
0.055933
0.0677138
0.194472
-0.000972869
-0.00177359
-0.00154836
-0.0038855
-2.20763e-05
-0.0047581
0.00497762
-0.00421982
0.0145192
-0.00206884
0.0294492
0.00184579
0.0502513
0.00745128
0.0768236
0.0146712
0.109078
0.0236787
0.0365715
0.14022
-0.000588064
-0.00118553
-0.000777077
-0.00369649
0.000412369
-0.00594755
0.0036655
-0.00747295
0.00956943
-0.00797277
0.0187094
-0.00729415
0.0315615
-0.00540082
0.0484947
-0.00226208
0.0696285
0.00254492
0.0111965
0.0950034
0.000446099
-0.00163163
0.00200872
-0.00525911
0.00481441
-0.00875324
0.00893877
-0.0115973
0.0144602
-0.0134942
0.0215137
-0.0143476
0.0302919
-0.014179
0.0410293
-0.0129995
0.0541624
-0.0105882
-0.00590697
0.0712659
0.000868727
-0.00250035
0.0028375
-0.00722788
0.0055849
-0.0115006
0.00897922
-0.0149916
0.0130051
-0.0175201
0.0177476
-0.0190901
0.0233528
-0.0197843
0.0300019
-0.0196486
0.0379649
-0.0185512
-0.0165907
0.0486487
0.000109689
-0.00261004
0.000113665
-0.00723186
-0.00012785
-0.0112591
-0.000579297
-0.0145402
-0.00108698
-0.0170124
-0.00143562
-0.0187415
-0.00138899
-0.0198309
-0.000691456
-0.0203461
0.00110268
-0.0203454
-0.0197886
0.00430052
-0.0014866
-0.00112344
-0.00486199
-0.00385647
-0.00938223
-0.00673889
-0.0144864
-0.00943596
-0.0197068
-0.011792
-0.0246332
-0.0138151
-0.0289016
-0.0155625
-0.0321914
-0.0170563
-0.0342626
-0.0182742
-0.0195147
-0.0345365
-0.003434
0.00231056
-0.0105491
0.00325864
-0.0194565
0.00216846
-0.0291233
0.000230897
-0.0388136
-0.00210177
-0.048206
-0.00442262
-0.0570598
-0.00670867
-0.0651819
-0.00893419
-0.0723786
-0.0110775
-0.0133163
-0.078577
-0.0050905
0.00740106
-0.0151371
0.0133052
-0.0272747
0.0143061
-0.0400508
0.013007
-0.0529749
0.0108223
-0.0657366
0.00833899
-0.078194
0.00574879
-0.0902454
0.00311721
-0.101822
0.0004988
-0.00221396
-0.112924
-0.00593378
0.0133348
-0.0175623
0.0249338
-0.031507
0.0282508
-0.0461824
0.0276824
-0.0609705
0.0256105
-0.0756481
0.0230165
-0.0901131
0.0202139
-0.104284
0.0172885
-0.118062
0.014276
0.0112575
-0.131533
-0.00566947
-0.0172043
-0.031313
-0.046344
-0.0616049
-0.0768296
-0.0918853
-0.106664
-0.121062
-0.135138
0.214746
0.0632695
-0.137796
0.230986
0.399228
-0.415467
0.237105
0.363382
-0.369501
0.246334
0.0912001
-0.100429
0.236507
-0.0477926
0.0576195
0.215423
-0.0468024
0.0678868
0.201812
-0.0273093
0.0409203
0.198396
-0.0170757
0.0204912
0.201619
-0.0174934
0.0142709
-0.0166089
0.0108649
0.176807
-0.018534
0.223688
0.352347
0.248758
0.338312
0.259003
0.0809547
0.238458
-0.0272475
0.213675
-0.0220198
0.201506
-0.0151401
0.199794
-0.0153632
0.20356
-0.0212596
-0.0217952
0.13542
-0.0826884
0.197705
0.290063
0.238476
0.29754
0.245393
0.074038
0.220645
-0.00249932
0.201172
-0.0025465
0.196158
-0.0101259
0.198641
-0.0178467
0.203879
-0.0264973
-0.0267045
0.0849839
-0.119024
0.154926
0.220121
0.20302
0.249446
0.205596
0.0714616
0.189045
0.0140516
0.184478
0.00202047
0.190027
-0.015675
0.197241
-0.0250605
0.203924
-0.0331797
-0.0313562
0.027518
-0.142241
0.0924699
0.155169
0.139906
0.20201
0.150884
0.060484
0.157522
0.0074133
0.171563
-0.0120206
0.186276
-0.0303877
0.196791
-0.0355756
0.204249
-0.0406379
-0.0356213
-0.0472084
-0.129569
0.0106944
0.0972659
0.0679728
0.144732
0.106616
0.0218411
0.138962
-0.0249328
0.165991
-0.0390502
0.185539
-0.0499356
0.197401
-0.0474369
0.204923
-0.0481609
-0.0393814
-0.122704
-0.0854419
-0.0625652
0.0371268
0.0234988
0.0586678
0.0870727
-0.0417328
0.133718
-0.071578
0.165911
-0.0712437
0.186757
-0.0707812
0.19866
-0.0593401
0.205831
-0.0553313
-0.0426025
-0.168997
-0.0293693
-0.0949664
-0.0369035
0.0119509
-0.0482495
0.0843023
-0.114084
0.135151
-0.122427
0.168207
-0.104299
0.188744
-0.0913188
0.200175
-0.0707703
0.206856
-0.0620123
-0.0453237
-0.184006
0.0231035
-0.0994231
-0.121486
0.0139906
-0.161663
0.0870968
-0.18719
0.138409
-0.17374
0.171042
-0.136931
0.190881
-0.111158
0.201746
-0.0816356
0.20794
-0.0682058
-0.0476192
-0.179091
-0.093067
0.0187549
0.0918633
0.142405
0.17409
0.193076
0.203347
0.209072
0.0478617
0.0376862
-0.0855479
0.0100622
0.0377995
-0.0179241
0.0279862
-0.02106
0.00313593
-0.000299198
-0.0207608
0.0225302
-0.0228294
0.0357988
-0.0132686
0.0413016
-0.00550276
0.0434692
-0.00216759
-0.000982418
0.193444
0.117781
-0.273539
0.0871039
0.144139
0.0192502
0.0958399
0.0148112
0.00757501
0.0463061
-0.0522557
0.0805878
-0.0571112
0.101062
-0.0337431
0.11036
-0.0148003
0.114734
-0.00654148
-0.00320082
0.340249
0.179109
-0.401577
0.208041
0.276348
0.107828
0.196052
0.0878148
0.0275885
0.109323
-0.0737641
0.134222
-0.0820102
0.150493
-0.0500137
0.158774
-0.0230819
0.163515
-0.0112821
-0.00604262
0.420054
0.187288
-0.428233
0.315918
0.380484
0.214015
0.297956
0.178877
0.0627262
0.180171
-0.0750584
0.183843
-0.0856816
0.186789
-0.0529598
0.189167
-0.02546
0.192016
-0.0141312
-0.00871552
0.402649
-0.353157
0.367666
0.29612
0.258417
0.240978
0.223183
0.211144
0.206175
0.206315
0.0104867
-0.000163491
-0.0103232
0.0120788
-0.00159211
0.0149732
-0.00289439
0.0193819
-0.00440864
0.0257107
-0.00632886
0.0333242
-0.00761348
0.043583
-0.0102587
0.0555281
-0.0119452
0.0700421
-0.014514
-0.0155057
0.0289656
-0.000902762
-0.0282264
0.0335213
-0.00614778
0.041783
-0.0111561
0.0549677
-0.0175934
0.0734802
-0.0248414
0.0971288
-0.0312621
0.130586
-0.0437159
0.168303
-0.0496624
0.217136
-0.0633469
-0.0719082
0.0449246
-0.00247608
-0.0433512
0.0521868
-0.01341
0.0652749
-0.0242442
0.0860676
-0.0383861
0.114277
-0.0530506
0.152566
-0.0695517
0.202049
-0.0931988
0.258292
-0.105905
0.330777
-0.135832
-0.142708
0.0582365
-0.00501947
-0.0556931
0.0677338
-0.0229072
0.0848308
-0.0413412
0.110868
-0.0644238
0.146224
-0.0884064
0.193552
-0.11688
0.247641
-0.147287
0.312858
-0.171122
0.381354
-0.204329
-0.189587
0.0689958
-0.0654427
0.080294
0.100336
0.129497
0.169119
0.217159
0.270259
0.325639
0.348272
0.0810589
-0.0725608
0.0804123
-0.0889104
0.0724961
-0.0736334
0.0821962
0.0636233
-0.0753421
0.0842148
0.0541752
-0.0771673
0.0866154
0.0440597
-0.0789805
0.0890959
0.0333956
-0.0804663
0.0911304
0.0225461
-0.0805375
0.091387
0.0122625
-0.0764263
0.0867099
0.00396125
-0.0627045
0.0710057
-0.0309019
0.0348631
0.0894759
-0.0631653
-0.0988714
0.0797143
-0.0638718
0.0693215
-0.0649493
0.0583563
-0.0662021
0.0469737
-0.0675979
0.0353563
-0.0688488
0.0237989
-0.0689801
0.0129586
-0.065586
0.00421023
-0.0539561
-0.0266917
0.0908942
-0.0525992
-0.10146
0.0802236
-0.0532012
0.0693571
-0.0540828
0.0583006
-0.0551456
0.0470269
-0.0563241
0.0355365
-0.0573584
0.0240177
-0.0574613
0.0131101
-0.0546784
0.00425253
-0.0450986
-0.0224391
0.0959514
-0.0417809
-0.10677
0.0849747
-0.0422246
0.0737689
-0.042877
0.0622557
-0.0436324
0.0503852
-0.0444536
0.038194
-0.0451672
0.0259254
-0.0451927
0.0142633
-0.0430162
0.00470472
-0.03554
-0.0177344
0.0985016
-0.0305096
-0.109773
0.0870882
-0.0308112
0.0754271
-0.0312159
0.0634928
-0.0316982
0.0512773
-0.0322381
0.0388286
-0.0327185
0.0263622
-0.0327262
0.0145171
-0.0311711
0.00478667
-0.0258096
-0.0129477
0.101587
-0.019067
-0.113029
0.0899193
-0.0191437
0.0779993
-0.019296
0.0657959
-0.0194947
0.0532874
-0.0197296
0.0405002
-0.0199313
0.0276311
-0.0198571
0.015322
-0.018862
0.00511447
-0.0156021
-0.00783327
0.103692
-0.00738066
-0.115378
0.0918026
-0.00725428
0.0796558
-0.00714919
0.0672236
-0.00706251
0.0544836
-0.00698968
0.0414588
-0.00690643
0.0283373
-0.00673569
0.0157543
-0.00627898
0.00527591
-0.0051237
-0.00255736
0.105428
0.00443624
-0.117245
0.0933734
0.00479999
0.0810509
0.00517325
0.0684331
0.00555528
0.0554995
0.00594394
0.0422732
0.00631985
0.0289394
0.00659814
0.0161297
0.0065307
0.00542489
0.00558113
0.00286752
0.106554
0.0163518
-0.118469
0.0943936
0.01696
0.0819599
0.0176069
0.069226
0.0182892
0.0561707
0.0189993
0.0428145
0.019676
0.0293387
0.020074
0.0163738
0.0194956
0.00551702
0.0164379
0.00838455
0.107064
-0.119041
0.0948495
0.0823602
0.0695718
0.0564628
0.0430513
0.029514
0.0164798
0.00555533
0.0130989
-0.150756
-0.0151447
0.00875498
-0.164877
0.00340366
-0.172981
-0.00209565
-0.177885
-0.00707952
-0.180662
-0.0107763
-0.180723
-0.0121598
-0.175132
-0.0101664
-0.157774
-0.00487524
-0.119475
-0.0513387
0.0355005
-0.147884
-0.0383726
0.0296667
-0.159043
0.022585
-0.165899