/*--------------------------------*- C++ -*----------------------------------*\
  =========                 |
  \\      /  F ield         | OpenFOAM: The Open Source CFD Toolbox
   \\    /   O peration     | Website:  https://openfoam.org
    \\  /    A nd           | Version:  13
     \\/     M anipulation  |
\*---------------------------------------------------------------------------*/
FoamFile
{
    format      ascii;
    class       volVectorField;
    location    "2.7";
    object      U;
}
// * * * * * * * * * * * * * * * * * * * * * * * * * * * * * * * * * * * * * //

dimensions      [0 1 -1 0 0 0 0];

internalField   nonuniform List<vector> 
1800
(
(-0.0316178 0.0251558 9.53753e-21)
(-0.0760106 0.0489373 4.32621e-21)
(-0.0907255 0.0626848 -6.1643e-20)
(-0.0693043 0.0695146 6.8076e-20)
(-0.00468265 0.0710138 1.69217e-19)
(0.107165 0.0672809 6.58288e-20)
(0.267427 0.0594183 -1.7735e-20)
(0.469576 0.0453076 9.92578e-20)
(0.735807 0.0446 1.87199e-19)
(0.876574 0.0692489 2.22269e-19)
(-0.0449061 0.0333055 8.69606e-21)
(-0.0793277 0.0545795 -5.35248e-20)
(-0.0577649 0.0541328 4.73981e-22)
(0.021385 0.0398187 -6.47764e-20)
(0.161484 0.0169164 2.54104e-20)
(0.361293 -0.0113793 1.34924e-19)
(0.612971 -0.0419123 -3.56895e-20)
(0.900192 -0.075334 -8.98717e-22)
(1.22262 -0.0982249 -1.83124e-19)
(1.43955 -0.121158 1.5763e-19)
(-0.0482548 0.0319519 5.26335e-21)
(-0.0553233 0.0453391 1.94834e-20)
(0.0223256 0.0338211 5.37407e-21)
(0.180932 0.0065604 -1.4617e-20)
(0.415132 -0.0285501 -1.53529e-19)
(0.709914 -0.0654808 2.92004e-20)
(1.04038 -0.099925 5.41379e-20)
(1.37877 -0.128532 -2.22124e-20)
(1.69282 -0.150483 -1.34717e-22)
(1.97692 -0.18278 3.83853e-22)
(-0.0395522 0.0231161 -8.66181e-21)
(0.00242772 0.0210885 -2.73427e-20)
(0.158136 -0.00238178 -2.81682e-20)
(0.414693 -0.0373087 2.82744e-20)
(0.748789 -0.0743428 2.66855e-20)
(1.1228 -0.107006 1.08905e-20)
(1.49422 -0.132026 -3.70957e-21)
(1.82613 -0.149299 1.05942e-19)
(2.10168 -0.161457 1.06886e-19)
(2.29576 -0.16895 -5.30673e-20)
(-0.0179052 0.0105825 6.53848e-20)
(0.0989808 -0.00893306 6.05732e-20)
(0.354847 -0.0406177 -4.3045e-20)
(0.717177 -0.0736941 -5.28957e-20)
(1.13333 -0.100199 -1.55526e-19)
(1.54247 -0.117185 2.43709e-21)
(1.89614 -0.125785 2.21654e-19)
(2.16994 -0.129266 1.00716e-19)
(2.35694 -0.128933 4.92082e-22)
(2.48136 -0.137114 -1.02038e-19)
(0.0197353 -0.00360908 -6.33269e-20)
(0.238467 -0.0365342 -1.31186e-20)
(0.608359 -0.067028 2.21735e-19)
(1.06335 -0.0864768 -7.43679e-20)
(1.51928 -0.0935693 -1.73303e-19)
(1.9084 -0.0920761 3.72017e-19)
(2.19879 -0.0869849 -3.79765e-19)
(2.38996 -0.0819896 -5.35264e-19)
(2.50358 -0.0793855 4.39179e-19)
(2.55808 -0.0798719 2.77397e-21)
(0.0756077 -0.016082 6.78955e-20)
(0.418258 -0.0519682 -1.55043e-19)
(0.898717 -0.0687062 -5.59646e-19)
(1.41085 -0.0653505 2.84994e-19)
(1.8561 -0.051482 6.39807e-19)
(2.18565 -0.0360459 -2.48487e-21)
(2.39818 -0.0239173 -1.37192e-18)
(2.51866 -0.0166509 9.22158e-21)
(2.5762 -0.01274 1.63279e-18)
(2.59809 -0.0162724 4.48199e-19)
(0.148848 -0.0230535 6.28618e-20)
(0.626285 -0.0468892 3.54412e-19)
(1.19501 -0.0378839 4.91753e-19)
(1.72047 -0.00908878 -1.12513e-19)
(2.11889 0.0207396 -5.73844e-19)
(2.37646 0.042883 -2.19691e-19)
(2.52017 0.0559429 0)
(2.58741 0.061706 6.77178e-19)
(2.61031 0.0622491 -1.30598e-20)
(2.60731 0.0579139 -6.42343e-19)
(0.235639 -0.020457 5.38459e-20)
(0.843663 -0.0150589 4.03003e-19)
(1.46696 0.0272469 7.67181e-19)
(1.97043 0.0781068 -8.24757e-19)
(2.30662 0.116794 -7.25756e-19)
(2.49667 0.139588 2.84229e-19)
(2.58593 0.149613 -1.34336e-18)
(2.6165 0.151319 -1.01535e-18)
(2.61643 0.148391 1.24314e-18)
(2.60079 0.140447 1.08188e-18)
(0.329407 -0.00510588 -2.80501e-20)
(1.04993 0.0452862 3.22278e-19)
(1.69428 0.122714 1.96542e-19)
(2.15514 0.189426 -1.61054e-18)
(2.42793 0.230468 4.38866e-20)
(2.5613 0.249111 3.19508e-18)
(2.61057 0.252968 -1.8498e-18)
(2.61679 0.248705 -1.07871e-18)
(2.60321 0.2402 3.82783e-19)
(2.57893 0.228063 -8.75185e-19)
(-0.0153962 0.266866 2.74696e-19)
(-0.0684778 0.518295 -1.3489e-19)
(-0.135922 0.606092 1.16899e-21)
(-0.207905 0.614133 -3.63715e-20)
(-0.276686 0.590136 2.65934e-21)
(-0.340796 0.554502 2.13437e-19)
(-0.400092 0.513759 1.85911e-19)
(-0.454002 0.46953 -3.41152e-19)
(-0.501758 0.42234 2.29241e-20)
(-0.544031 0.372913 -6.94684e-20)
(-0.0359887 0.303153 -8.47334e-21)
(-0.0924787 0.613377 1.971e-20)
(-0.150026 0.73505 1.16284e-20)
(-0.207082 0.75725 4.55005e-20)
(-0.260449 0.735918 -1.85631e-19)
(-0.309365 0.697356 2.11995e-19)
(-0.353634 0.650839 -3.22764e-19)
(-0.392543 0.598869 -4.24326e-19)
(-0.424544 0.542139 2.81127e-19)
(-0.44888 0.481371 -8.831e-20)
(-0.0552976 0.301972 -8.16248e-20)
(-0.11529 0.651269 5.27314e-20)
(-0.16023 0.812459 7.93185e-21)
(-0.197062 0.859397 -2.34916e-19)
(-0.229584 0.848589 -7.67522e-20)
(-0.257924 0.811709 8.24738e-19)
(-0.281839 0.761991 -3.20352e-19)
(-0.300729 0.703704 -4.05825e-19)
(-0.31266 0.638177 4.65058e-19)
(-0.31449 0.56627 2.46925e-19)
(-0.0660944 0.263464 -7.17798e-20)
(-0.128149 0.620829 -2.97108e-21)
(-0.160934 0.821103 1.85626e-20)
(-0.177508 0.90413 -7.81342e-20)
(-0.186837 0.915983 2.72369e-19)
(-0.191615 0.889916 -2.79283e-19)
(-0.192238 0.84357 -2.54623e-19)
(-0.188312 0.784147 3.05431e-19)
(-0.179306 0.713697 1.90481e-20)
(-0.158556 0.633622 7.7852e-21)
(-0.0642128 0.19903 0)
(-0.126498 0.525343 1.35735e-20)
(-0.151458 0.750034 -7.1706e-20)
(-0.152504 0.873709 1.15653e-19)
(-0.141404 0.920488 3.36275e-19)
(-0.123713 0.917361 -2.80716e-19)
(-0.101573 0.883814 1.15068e-19)
(-0.0754876 0.83061 1.07286e-20)
(-0.0455603 0.761859 0)
(-0.00224322 0.680038 1.74305e-20)
(-0.0508372 0.127694 -2.29236e-20)
(-0.109028 0.388526 6.58802e-20)
(-0.131524 0.608723 2.27529e-20)
(-0.125863 0.761021 -3.72984e-20)
(-0.102346 0.845614 4.43976e-20)
(-0.0678648 0.876132 2.04504e-19)
(-0.0265386 0.867783 -5.23473e-19)
(0.0195778 0.832281 -2.806e-20)
(0.0680193 0.775952 6.13801e-19)
(0.128963 0.703193 1.04242e-20)
(-0.0321901 0.0675482 9.86952e-21)
(-0.081474 0.248084 1.27086e-19)
(-0.104788 0.432516 -6.29457e-20)
(-0.101263 0.585133 -1.03192e-20)
(-0.0760673 0.691151 -6.91174e-20)
(-0.0348133 0.751145 1.03619e-19)
(0.0176194 0.772334 2.00183e-19)
(0.0778415 0.76329 2.60966e-19)
(0.141076 0.730107 -2.5527e-19)
(0.212537 0.678321 -3.33653e-19)
(-0.0159053 0.0280847 2.41133e-20)
(-0.055392 0.136294 -6.85631e-20)
(-0.0806941 0.267409 -9.97985e-20)
(-0.0841569 0.391383 3.78258e-20)
(-0.0651802 0.490434 -2.22868e-20)
(-0.0265345 0.558344 2.50629e-20)
(0.0275954 0.596076 -9.98303e-21)
(0.0932436 0.608141 1.44319e-19)
(0.165214 0.599081 1.09759e-19)
(0.243977 0.566478 -2.22048e-19)
(-0.00874261 0.0107317 1.33672e-20)
(-0.0448456 0.0682739 -1.12976e-19)
(-0.0738225 0.146877 1.59162e-19)
(-0.0849084 0.227445 1.62892e-19)
(-0.0736016 0.297361 -1.01171e-19)
(-0.0396773 0.350372 1.83255e-19)
(0.0147892 0.38538 -4.22656e-20)
(0.0873496 0.404606 3.54566e-20)
(0.175217 0.408964 8.23069e-20)
(0.288904 0.382833 -1.80374e-19)
(-0.0156131 0.0131886 -1.02942e-20)
(-0.0570275 0.0447802 -5.68526e-20)
(-0.08733 0.0831565 -1.81958e-20)
(-0.0962707 0.121668 7.64074e-20)
(-0.0770338 0.155554 1.43143e-19)
(-0.0263923 0.181668 -1.27333e-19)
(0.0571116 0.199453 -6.76289e-20)
(0.172428 0.209564 -1.80487e-20)
(0.321806 0.212329 9.59481e-20)
(0.498843 0.203277 1.33857e-19)
(-0.740896 0.116944 9.79815e-19)
(-0.597154 -0.352541 -1.73301e-18)
(-0.0394874 -0.458365 -2.77692e-19)
(0.320309 -0.413642 7.19793e-20)
(0.625007 -0.347062 -1.43696e-20)
(0.801792 -0.256894 -9.28257e-21)
(0.918745 -0.194947 -7.75921e-21)
(0.995917 -0.136043 -2.65702e-21)
(1.03262 -0.108051 1.11589e-20)
(1.07041 -0.0717188 2.53628e-21)
(-0.5602 0.153895 9.99235e-19)
(-0.345926 -0.45354 7.60263e-19)
(0.0989224 -0.59218 -4.24268e-20)
(0.429817 -0.511262 -1.35218e-19)
(0.695487 -0.412023 -1.43045e-19)
(0.845722 -0.298161 0)
(0.945794 -0.220722 -1.6679e-20)
(1.01143 -0.151324 5.02e-21)
(1.04326 -0.117772 3.7271e-22)
(1.07569 -0.0768682 -5.0097e-21)
(-0.323506 0.167957 -4.45421e-19)
(-0.0476937 -0.535749 -3.84355e-19)
(0.303903 -0.699351 2.21746e-19)
(0.574876 -0.596473 5.72606e-20)
(0.789209 -0.467348 1.12927e-20)
(0.904132 -0.332817 -2.98037e-21)
(0.98086 -0.242327 0)
(1.03095 -0.164228 0)
(1.05593 -0.126004 -8.95816e-21)
(1.08166 -0.0812193 0)
(-0.0638739 0.166482 -9.76801e-20)
(0.267319 -0.59645 8.23401e-19)
(0.542517 -0.783602 -1.24935e-19)
(0.737001 -0.665591 0)
(0.895341 -0.511548 1.9384e-19)
(0.972545 -0.359606 -3.53329e-20)
(1.02266 -0.258654 0)
(1.05426 -0.174007 3.17754e-20)
(1.07064 -0.132296 0)
(1.0883 -0.0845764 4.25048e-21)
(0.201182 0.153355 3.93e-20)
(0.589252 -0.639391 3.81966e-19)
(0.792816 -0.845148 8.49023e-20)
(0.903322 -0.717285 0)
(1.00226 -0.544664 8.19275e-20)
(1.0436 -0.378719 8.63802e-20)
(1.0679 -0.269446 1.18531e-21)
(1.08026 -0.18024 -2.84418e-23)
(1.08704 -0.136294 -8.1918e-21)
(1.09552 -0.0867638 1.83048e-21)
(0.437265 0.135407 6.71317e-19)
(0.901999 -0.669034 -3.64152e-19)
(1.04481 -0.883852 -4.46725e-20)
(1.06919 -0.751127 2.95621e-19)
(1.10436 -0.566771 -1.48193e-19)
(1.11115 -0.390952 4.68852e-20)
(1.11255 -0.275211 8.73137e-20)
(1.10709 -0.182982 -7.43769e-20)
(1.10441 -0.137845 1.66998e-23)
(1.10312 -0.0876656 -9.6598e-21)
(0.631364 0.108851 9.46504e-20)
(1.19581 -0.690904 -9.56739e-21)
(1.28525 -0.903136 -1.25046e-19)
(1.22994 -0.768779 -1.0132e-20)
(1.20086 -0.578256 -1.5672e-19)
(1.17265 -0.396989 -4.69121e-21)
(1.15357 -0.27673 -3.75422e-20)
(1.1327 -0.182657 -6.18269e-22)
(1.12173 -0.137034 1.00265e-20)
(1.11076 -0.0872555 -9.2981e-22)
(0.807669 0.0603794 -4.73357e-19)
(1.46557 -0.706785 -2.04987e-20)
(1.50507 -0.904507 0)
(1.37987 -0.77232 8.24307e-20)
(1.29195 -0.580261 1.35519e-19)
(1.22864 -0.397492 -7.99132e-21)
(1.18988 -0.27474 -1.2707e-19)
(1.15561 -0.179853 3.2287e-20)
(1.13787 -0.134142 -5.13041e-22)
(1.118 -0.085606 -5.28817e-21)
(1.01822 -0.0314111 5.38834e-19)
(1.71129 -0.715476 1.06402e-19)
(1.69889 -0.889376 1.19287e-19)
(1.51507 -0.763012 -5.41097e-20)
(1.37741 -0.574007 5.17206e-21)
(1.28082 -0.393173 -1.3049e-19)
(1.22224 -0.269936 4.33774e-20)
(1.17541 -0.175239 -3.30606e-23)
(1.15203 -0.129641 -7.71861e-22)
(1.12438 -0.0828915 6.64971e-21)
(1.27902 -0.136583 -3.65578e-19)
(1.93039 -0.709935 1.37729e-19)
(1.86334 -0.86094 1.21491e-19)
(1.63407 -0.742905 -2.46097e-19)
(1.45677 -0.560053 -1.52571e-19)
(1.33055 -0.384119 -7.39438e-20)
(1.25217 -0.262574 -2.44677e-20)
(1.19273 -0.169337 0)
(1.16396 -0.124097 -1.47272e-20)
(1.12958 -0.0793614 1.06219e-20)
(1.90833 -0.275014 -7.70105e-19)
(2.2224 -0.690343 -5.45579e-19)
(2.05767 -0.807678 -1.10566e-19)
(1.77671 -0.700989 4.2557e-20)
(1.55313 -0.528575 4.00867e-20)
(1.39151 -0.362209 -5.41278e-20)
(1.2881 -0.246074 -3.59726e-20)
(1.21244 -0.157967 2.09731e-20)
(1.17646 -0.114897 -8.1679e-21)
(1.13481 -0.0739593 -5.26182e-21)
(2.39599 -0.363336 1.07565e-19)
(2.40443 -0.681057 -9.94422e-19)
(2.10051 -0.732883 -3.76211e-19)
(1.78545 -0.5985 -4.43661e-21)
(1.56898 -0.432473 1.44486e-19)
(1.41417 -0.291045 1.3733e-19)
(1.30934 -0.198755 9.50429e-20)
(1.22636 -0.129379 -1.06934e-20)
(1.1863 -0.0965564 3.21976e-20)
(1.13844 -0.0643551 4.59903e-21)
(2.47585 -0.36701 -2.8249e-20)
(2.35226 -0.569819 -1.73431e-20)
(2.11166 -0.609037 4.66761e-20)
(1.86786 -0.513391 1.64061e-35)
(1.66045 -0.378628 -2.45262e-20)
(1.48461 -0.252811 -4.15202e-34)
(1.35617 -0.168241 8.8084e-21)
(1.2532 -0.107308 1.56139e-34)
(1.20222 -0.0799458 -5.80674e-22)
(1.14415 -0.0546513 1.01275e-21)
(2.43138 -0.337671 -2.93981e-34)
(2.32072 -0.502963 2.93311e-19)
(2.12074 -0.545017 1.1641e-19)
(1.87672 -0.44052 0)
(1.6549 -0.297026 -8.24774e-20)
(1.47441 -0.18238 -7.21217e-20)
(1.35047 -0.116265 -5.47805e-20)
(1.25161 -0.0735692 6.33952e-34)
(1.204 -0.057085 -1.61873e-20)
(1.1445 -0.0421852 -1.58371e-21)
(2.38146 -0.315149 -1.66116e-20)
(2.2813 -0.441606 5.9701e-21)
(2.11027 -0.459603 0)
(1.89252 -0.355496 0)
(1.67615 -0.225096 0)
(1.48672 -0.128911 0)
(1.35501 -0.0778652 3.00604e-21)
(1.25159 -0.0476783 7.40448e-34)
(1.20325 -0.037899 -1.05265e-21)
(1.14234 -0.030635 -2.40654e-34)
(2.33408 -0.289791 6.24781e-20)
(2.2485 -0.387991 0)
(2.07659 -0.39319 0)
(1.84447 -0.282798 0)
(1.62244 -0.151602 0)
(1.43947 -0.0664764 0)
(1.31932 -0.0315653 -6.63051e-21)
(1.22655 -0.0175783 2.44346e-20)
(1.18577 -0.0170633 -1.27664e-21)
(1.13008 -0.0184725 2.48615e-22)
(2.28046 -0.265016 0)
(2.16884 -0.335629 8.13499e-20)
(1.94774 -0.313545 1.46694e-20)
(1.69011 -0.196177 0)
(1.47449 -0.077119 -5.51661e-20)
(1.31799 -0.012687 -3.9373e-20)
(1.22814 0.00444678 -2.98777e-20)
(1.16095 0.00515122 -1.18273e-20)
(1.13567 -0.000715018 8.99291e-21)
(1.0926 -0.00810651 -3.7374e-21)
(2.12546 -0.226571 -3.77373e-23)
(1.92098 -0.258033 3.58358e-21)
(1.61374 -0.211514 -8.26115e-21)
(1.33848 -0.106037 -7.40795e-36)
(1.16476 -0.0156684 1.46602e-20)
(1.0727 0.0242901 -2.32441e-34)
(1.03864 0.0264528 -8.1014e-21)
(1.01389 0.018001 -1.48243e-20)
(1.01176 0.00866794 -1.45987e-21)
(0.988873 -0.0011238 2.89723e-21)
(1.62159 -0.159287 1.0444e-20)
(1.30232 -0.14552 -1.4696e-20)
(0.956328 -0.086057 3.61525e-21)
(0.738304 -0.0201128 0)
(0.666198 0.0212129 1.02968e-20)
(0.671226 0.0335388 1.03146e-20)
(0.702698 0.0271524 -1.1084e-21)
(0.723193 0.0172602 4.11582e-21)
(0.742818 0.00941244 -5.39151e-21)
(0.741422 0.00185512 -2.59691e-21)
(0.53593 -0.022688 0)
(0.314638 -0.00596692 0)
(0.158491 0.00116434 0)
(0.0987879 0.00395805 0)
(0.115639 0.00657214 0)
(0.165793 0.00684431 0)
(0.215635 0.00489634 -8.42319e-21)
(0.249439 0.00290849 2.46136e-35)
(0.271476 0.00158438 -1.68032e-21)
(0.279968 0.000353946 -3.05831e-21)
(2.51278 0.202222 8.46136e-19)
(2.54734 0.12906 5.20623e-20)
(2.56694 0.0512012 -8.59624e-20)
(2.57847 -0.00587107 -2.77597e-19)
(2.59171 -0.0785579 -5.22332e-20)
(2.55411 -0.107535 -8.07162e-20)
(2.57483 -0.18428 -2.689e-19)
(2.37888 -0.157365 1.2313e-20)
(2.38365 -0.239938 0)
(1.76059 -0.0928405 7.61824e-21)
(2.43731 0.160116 2.69385e-19)
(2.42572 0.119695 -3.11954e-19)
(2.51437 0.0338312 -6.59828e-20)
(2.45932 0.00959099 -1.35527e-19)
(2.57921 -0.082397 1.12902e-19)
(2.46439 -0.087133 1.9733e-19)
(2.62768 -0.18635 -2.64298e-19)
(2.43478 -0.178461 -1.73844e-20)
(2.60266 -0.270113 -1.11052e-20)
(2.32339 -0.25949 9.55097e-20)
(2.3782 0.128522 -1.22254e-19)
(2.34738 0.0982494 2.77549e-19)
(2.45097 0.0227832 1.7236e-19)
(2.38594 0.00150378 -2.90253e-19)
(2.50363 -0.0748705 -4.68027e-20)
(2.41333 -0.0927303 4.18335e-19)
(2.53191 -0.16332 7.91251e-20)
(2.44136 -0.18894 -9.22092e-20)
(2.52647 -0.24161 -5.66331e-20)
(2.4629 -0.283312 -6.71802e-20)
(2.31745 0.0994403 -3.10375e-19)
(2.31291 0.0658985 -4.56098e-20)
(2.37994 0.0123501 2.13623e-20)
(2.35916 -0.0193941 -1.74996e-20)
(2.41863 -0.0694403 -2.37231e-19)
(2.3941 -0.103872 -9.7475e-20)
(2.43598 -0.145563 2.41545e-19)
(2.42416 -0.186996 -1.25165e-20)
(2.44097 -0.217834 4.98487e-20)
(2.44874 -0.266745 2.31974e-20)
(2.26752 0.0697328 4.67663e-20)
(2.28905 0.0348865 1.3345e-19)
(2.32353 -0.00232797 -2.94282e-20)
(2.33662 -0.0378953 2.12896e-19)
(2.35861 -0.0718333 -5.47441e-20)
(2.36911 -0.109436 -2.58963e-19)
(2.37734 -0.138602 4.15279e-20)
(2.39029 -0.178573 -1.03584e-19)
(2.3874 -0.203805 2.08891e-20)
(2.4033 -0.245636 1.42418e-21)
(2.22873 0.0385448 -1.70922e-19)
(2.25861 0.00760842 -7.85581e-20)
(2.28071 -0.0204668 2.01854e-21)
(2.30357 -0.052369 1.23288e-19)
(2.31512 -0.078624 2.70629e-19)
(2.33306 -0.11173 -7.64645e-20)
(2.33534 -0.135981 7.06801e-21)
(2.35018 -0.170167 -6.66449e-20)
(2.34535 -0.192949 -9.45372e-20)
(2.35845 -0.228159 -5.40732e-20)
(2.18128 0.00888308 -6.03052e-20)
(2.20992 -0.0159682 -1.32404e-19)
(2.22828 -0.037915 -1.45551e-19)
(2.25097 -0.0635697 -2.75483e-19)
(2.26106 -0.0848905 6.1534e-20)
(2.2793 -0.111821 6.28766e-20)
(2.28184 -0.13264 1.39149e-20)
(2.29746 -0.161069 7.87699e-20)
(2.29285 -0.181293 -1.03501e-19)
(2.30836 -0.211215 -5.12573e-20)
(2.06953 -0.0161372 6.27205e-20)
(2.09365 -0.0341255 4.17968e-20)
(2.10338 -0.0494743 2.12833e-20)
(2.12522 -0.0683566 -4.38808e-20)
(2.12733 -0.0836179 -4.19464e-20)
(2.14922 -0.104141 -2.85366e-20)
(2.14347 -0.119607 -4.99842e-20)
(2.16807 -0.142331 8.42531e-20)
(2.15332 -0.157895 -4.28032e-20)
(2.18422 -0.182895 3.63456e-20)
(1.74335 -0.0325309 -5.99455e-20)
(1.75018 -0.0421507 -4.65198e-21)
(1.74356 -0.0500882 1.14392e-19)
(1.75161 -0.060194 -9.4017e-21)
(1.73799 -0.0679861 -3.24316e-20)
(1.75101 -0.0796814 6.75472e-20)
(1.72819 -0.0878614 -4.74315e-20)
(1.75007 -0.102041 3.20107e-20)
(1.71395 -0.110849 -1.20537e-21)
(1.75077 -0.128037 -3.99617e-20)
(0.867537 -0.0141099 5.00155e-20)
(0.848883 -0.0137972 4.03862e-20)
(0.828703 -0.0136077 3.94587e-20)
(0.811095 -0.0136098 6.31635e-20)
(0.790037 -0.0141145 -3.20203e-20)
(0.774588 -0.0149925 -3.72422e-20)
(0.750312 -0.0165006 1.61229e-20)
(0.738953 -0.0186035 -2.88085e-21)
(0.703466 -0.0200719 4.33557e-21)
(0.70754 -0.0277908 -6.20516e-21)
(1.57988 0.961133 -8.68893e-20)
(1.56332 1.00749 2.77128e-20)
(1.56677 1.06161 -6.51101e-19)
(1.57546 1.12326 2.42872e-19)
(1.58213 1.18842 1.21867e-18)
(1.5782 1.24919 -1.51834e-19)
(1.54182 1.28336 -1.08566e-18)
(1.42249 1.23875 -5.32823e-21)
(1.1299 1.01807 -5.37446e-19)
(0.531756 0.491718 1.22586e-19)
(1.7459 0.930227 0)
(1.73437 0.975153 7.56136e-19)
(1.73418 1.02545 1.67368e-18)
(1.74249 1.08457 -1.02918e-18)
(1.75255 1.14827 -2.40307e-18)
(1.75216 1.20714 -1.59018e-19)
(1.71417 1.23779 -2.03722e-19)
(1.58037 1.18867 7.43536e-19)
(1.25002 0.968211 1.11357e-18)
(0.582922 0.460526 4.4319e-19)
(1.90016 0.888525 7.06026e-20)
(1.89765 0.933209 0)
(1.89872 0.980579 -7.01241e-20)
(1.9076 1.03522 1.0498e-18)
(1.91976 1.09421 5.79064e-20)
(1.92085 1.14787 -2.35375e-18)
(1.87871 1.17221 1.48772e-18)
(1.72745 1.11775 8.839e-19)
(1.35772 0.90054 -9.57005e-19)
(0.625223 0.419961 -2.85363e-19)
(2.0349 0.839071 -1.91264e-19)
(2.04278 0.881694 -1.40645e-19)
(2.04961 0.925343 2.89144e-19)
(2.06167 0.974403 -3.58309e-19)
(2.07605 1.02682 -1.65953e-18)
(2.07709 1.07295 -1.28587e-18)
(2.02793 1.0892 1.3567e-18)
(1.85645 1.02786 8.9503e-19)
(1.44491 0.815499 0)
(0.654089 0.370405 0)
(2.15454 0.772123 -9.5633e-19)
(2.17083 0.812474 -1.74453e-18)
(2.18436 0.85277 -6.71581e-19)
(2.20063 0.896753 -3.53957e-20)
(2.21689 0.942728 0)
(2.21599 0.980855 1.4312e-19)
(2.15676 0.98649 1.6567e-19)
(1.95928 0.919411 2.06701e-19)
(1.50398 0.715775 -2.97285e-19)
(0.665715 0.312527 -7.45035e-20)
(2.2588 0.697141 1.14314e-18)
(2.28235 0.732943 -4.37724e-20)
(2.30209 0.768448 -1.33844e-18)
(2.32227 0.806301 0)
(2.33931 0.844062 0)
(2.33336 0.872414 0)
(2.25792 0.868947 1.54214e-18)
(2.02842 0.796295 -1.70474e-18)
(1.53037 0.602423 -1.08436e-18)
(0.657303 0.249086 1.36414e-20)
(2.35004 0.608376 -1.49271e-18)
(2.37845 0.639982 -3.13235e-18)
(2.40269 0.670992 -5.42941e-21)
(2.42513 0.702943 6.32126e-19)
(2.44008 0.732902 -3.96942e-20)
(2.42405 0.751436 1.33728e-18)
(2.32592 0.738242 -7.36584e-19)
(2.05964 0.660853 -1.97077e-18)
(1.51905 0.480401 1.1722e-19)
(0.627573 0.184172 8.90581e-20)
(2.4287 0.516367 -1.17016e-18)
(2.45939 0.542087 1.68065e-20)
(2.48544 0.567465 4.4147e-19)
(2.5073 0.592613 -4.2562e-19)
(2.51611 0.613999 6.59431e-19)
(2.48408 0.622192 1.76199e-18)
(2.35587 0.599083 -1.64359e-19)
(2.04676 0.5186 -1.04115e-18)
(1.46579 0.356313 2.38985e-19)
(0.576702 0.122236 4.35388e-20)
(2.49316 0.418177 4.2912e-19)
(2.52416 0.439676 8.6879e-20)
(2.54946 0.459647 -4.43087e-19)
(2.56723 0.477886 -1.03083e-18)
(2.56458 0.490553 7.64052e-20)
(2.50889 0.488616 6.21873e-20)
(2.34181 0.456799 -1.29671e-18)
(1.98418 0.376304 5.46064e-19)
(1.36864 0.237407 1.58551e-19)
(0.506858 0.0677228 -7.35672e-20)
(2.54351 0.323023 8.02916e-19)
(2.57214 0.339361 -1.19471e-18)
(2.59366 0.353116 1.81348e-19)
(2.60266 0.36393 2.36132e-18)
(2.5814 0.367731 1.15487e-18)
(2.49249 0.356364 -2.48728e-18)
(2.27704 0.318044 -2.31472e-18)
(1.86738 0.24171 9.90447e-19)
(1.22837 0.131361 -3.3347e-20)
(0.422333 0.0244739 -8.47576e-20)
(0.538569 0.407823 -1.52454e-19)
(0.498284 0.421839 -1.58921e-19)
(0.453005 0.436788 6.67817e-20)
(0.403338 0.452829 -2.20095e-19)
(0.348953 0.469823 -1.59745e-20)
(0.289009 0.486311 2.07274e-19)
(0.222547 0.49629 2.92917e-20)
(0.150034 0.482526 9.64627e-21)
(0.0784635 0.407549 2.32567e-20)
(0.016201 0.208476 1.21483e-20)
(0.584487 0.513662 1.24807e-19)
(0.545133 0.53424 1.58005e-19)
(0.501622 0.556333 4.89216e-20)
(0.454134 0.580106 -4.41863e-20)
(0.402018 0.605311 -2.06985e-19)
(0.344161 0.62996 -2.00596e-20)
(0.278882 0.646128 4.28096e-20)
(0.204734 0.631115 4.43459e-20)
(0.124886 0.535145 -1.31949e-19)
(0.0401664 0.274757 -4.57339e-20)
(0.647996 0.612114 -9.75779e-20)
(0.609887 0.638433 -8.33696e-20)
(0.568711 0.666744 9.00987e-20)
(0.524191 0.697524 5.94995e-20)
(0.475396 0.730638 -8.2118e-20)
(0.420889 0.763638 -1.2544e-20)
(0.357911 0.786618 -1.13439e-19)
(0.282124 0.771291 -9.02245e-20)
(0.190798 0.655696 -7.32256e-20)
(0.0742346 0.336985 4.17542e-23)
(0.728602 0.706818 2.28527e-20)
(0.692309 0.739473 -6.12588e-20)
(0.654395 0.773982 -7.61034e-20)
(0.613617 0.811052 -7.23864e-20)
(0.568625 0.850692 -6.61476e-20)
(0.517798 0.89014 -9.2477e-21)
(0.457324 0.917728 -2.9894e-19)
(0.379388 0.900176 6.69096e-20)
(0.273559 0.764942 -3.3507e-19)
(0.116964 0.392529 4.98741e-20)
(0.822152 0.785433 1.35386e-20)
(0.788396 0.82306 1.7719e-20)
(0.755046 0.863087 -5.13243e-20)
(0.719983 0.906566 -2.83475e-19)
(0.681063 0.95327 1.30939e-19)
(0.635857 0.999752 4.83165e-20)
(0.578928 1.03259 3.71624e-20)
(0.498224 1.01383 -1.93695e-19)
(0.374005 0.861121 4.02936e-19)
(0.168246 0.440624 2.9253e-19)
(0.93183 0.862901 -1.05903e-19)
(0.899649 0.90494 -2.00235e-19)
(0.869498 0.948215 1.13299e-20)
(0.838711 0.995218 1.03454e-19)
(0.805121 1.04631 3.84749e-19)
(0.765784 1.09739 2.84661e-19)
(0.713108 1.13285 6.76898e-19)
(0.629764 1.1104 2.7747e-19)
(0.485375 0.940118 1.50293e-19)
(0.224981 0.478481 2.11703e-19)
(1.04735 0.91437 -1.12009e-19)
(1.0213 0.961251 6.49173e-19)
(0.99901 1.0091 4.23205e-19)
(0.975867 1.06044 -5.45338e-19)
(0.949097 1.11586 -2.71827e-19)
(0.915654 1.17121 7.0421e-19)
(0.86635 1.20948 -1.0999e-19)
(0.77833 1.18449 -4.76328e-19)
(0.609432 0.99979 2.76005e-20)
(0.286871 0.505455 2.64469e-19)
(1.16995 0.966678 3.20384e-19)
(1.14388 1.0139 6.11765e-20)
(1.12623 1.06208 -8.05096e-19)
(1.11115 1.11531 1.76283e-19)
(1.09389 1.17329 6.15861e-19)
(1.06931 1.23048 -3.38489e-19)
(1.02529 1.2682 -1.06206e-19)
(0.932852 1.23761 -1.9548e-19)
(0.737848 1.03869 1.98052e-20)
(0.350082 0.520259 -3.08164e-19)
(1.30165 0.98414 1.90541e-20)
(1.28632 1.0352 -5.89778e-19)
(1.27608 1.08433 -4.96457e-21)
(1.26656 1.13857 5.01572e-19)
(1.2551 1.19896 -5.20006e-19)
(1.2365 1.25894 1.01616e-18)
(1.19548 1.2975 6.82286e-19)
(1.09584 1.26313 -1.00693e-18)
(0.870764 1.05412 -7.94848e-20)
(0.413604 0.522469 -3.41131e-19)
(1.40543 0.992961 -3.55376e-19)
(1.40178 1.04506 -3.34184e-19)
(1.40918 1.09607 3.11479e-19)
(1.41474 1.15115 8.20554e-19)
(1.41494 1.21101 2.94247e-19)
(1.40504 1.26948 -8.40977e-19)
(1.36761 1.30487 1.07793e-19)
(1.25966 1.26452 2.28138e-19)
(1.00231 1.04745 -3.07847e-19)
(0.474725 0.512814 -2.42159e-19)
(0.991405 0.014684 7.61479e-22)
(1.01285 0.0412003 -1.87604e-20)
(1.02254 0.0513482 -1.51108e-20)
(1.02064 0.0779394 0)
(1.02633 0.0969921 1.88092e-20)
(1.02022 0.131767 2.69884e-20)
(0.996785 0.172226 3.65303e-20)
(0.95085 0.20619 8.0194e-20)
(0.864922 0.270447 -1.20688e-19)
(0.714227 0.337986 -1.8596e-19)
(0.991897 0.0127723 3.90031e-20)
(1.01113 0.0390837 -6.07904e-20)
(1.02196 0.0498607 1.89373e-22)
(1.01887 0.0768514 -1.90569e-20)
(1.02679 0.0975984 9.38023e-21)
(1.0219 0.13627 -1.37178e-20)
(1.00164 0.182108 -8.50458e-20)
(0.963123 0.225996 0)
(0.880189 0.307811 2.5072e-19)
(0.753328 0.407412 -2.62881e-19)
(0.992072 0.0110863 -2.85195e-20)
(1.01017 0.0371346 1.68539e-20)
(1.02155 0.048285 4.02734e-20)
(1.01887 0.0760903 1.00184e-20)
(1.02759 0.0977155 -2.25949e-20)
(1.0263 0.141201 1.12874e-21)
(1.00691 0.19098 -5.88384e-20)
(0.979856 0.245591 -5.78661e-21)
(0.898119 0.343482 2.61544e-23)
(0.806474 0.473995 7.39944e-19)
(0.991971 0.00954388 -3.17937e-20)
(1.00982 0.0353347 2.40844e-21)
(1.02144 0.046476 3.2913e-20)
(1.02039 0.0757039 2.12934e-20)
(1.02892 0.0972044 -1.13165e-20)
(1.03311 0.146778 -1.59635e-20)
(1.01282 0.198569 8.5085e-20)
(1.00086 0.26552 -1.65195e-21)
(0.918484 0.376285 -2.75928e-19)
(0.87339 0.536358 9.32116e-20)
(0.991646 0.00809255 2.21573e-20)
(1.00994 0.0336342 -3.15886e-20)
(1.02181 0.0443436 -2.62967e-20)
(1.02305 0.0757044 1.26315e-20)
(1.0311 0.0959884 0)
(1.04173 0.153035 0)
(1.02011 0.204752 7.14273e-20)
(1.02476 0.285828 2.8813e-22)
(0.943666 0.40597 -1.2557e-19)
(0.950197 0.592691 9.38444e-20)
(0.991145 0.00669019 6.23935e-21)
(1.01039 0.0319431 2.55594e-20)
(1.02289 0.0418567 -7.12084e-20)
(1.02643 0.0760315 -2.44628e-20)
(1.03452 0.0940714 -6.14915e-22)
(1.05172 0.159941 6.71548e-20)
(1.02901 0.209308 1.09646e-19)
(1.05206 0.30707 -8.10573e-22)
(0.970461 0.430364 2.08637e-19)
(1.04353 0.648932 -2.21409e-19)
(0.990501 0.00530461 -2.42231e-20)
(1.01106 0.0301338 1.35851e-20)
(1.0249 0.0390482 -1.93454e-20)
(1.03016 0.0765145 -5.22351e-20)
(1.03963 0.0915814 1.93423e-21)
(1.0623 0.16727 -1.61398e-21)
(1.0409 0.212469 -6.15841e-21)
(1.07964 0.328445 -2.28538e-19)
(1.00774 0.450495 1.52954e-19)
(1.13094 0.689078 -5.48675e-19)
(0.989724 0.0039243 -4.07278e-21)
(1.01194 0.0280644 -3.94727e-20)
(1.02791 0.0359969 3.91091e-20)
(1.03399 0.0769399 2.78662e-20)
(1.04667 0.0887108 1.00156e-21)
(1.07319 0.174628 -7.76993e-20)
(1.05563 0.214632 -6.05439e-20)
(1.10977 0.350106 4.07077e-19)
(1.0442 0.467369 1.54295e-20)
(1.24925 0.746454 8.59695e-19)
(0.988807 0.0025439 1.67284e-20)
(1.01306 0.0256039 1.80954e-20)
(1.03188 0.0328102 4.54174e-20)
(1.03791 0.0771763 -3.07183e-20)
(1.05573 0.0855538 -8.08496e-20)
(1.08393 0.182067 1.20243e-21)
(1.07453 0.213953 -8.31164e-20)
(1.1396 0.369642 5.26155e-19)
(1.10129 0.467087 -9.34943e-21)
(1.31922 0.762505 -1.19362e-18)
(0.987758 0.00123218 4.0941e-22)
(1.01446 0.0226871 2.84492e-20)
(1.03667 0.0297808 1.50696e-20)
(1.04214 0.0768267 -6.17567e-20)
(1.06565 0.0843378 -7.87434e-20)
(1.094 0.189497 -6.53964e-20)
(1.09454 0.220866 -1.51901e-19)
(1.16568 0.39183 -4.72101e-19)
(1.15953 0.493896 -2.55828e-19)
(1.45918 0.830992 -1.2516e-18)
(0.986478 -0.000988157 -1.2734e-21)
(1.01585 0.0181999 -6.32728e-21)
(1.04388 0.0236698 -1.68829e-20)
(1.0479 0.0750509 3.42085e-20)
(1.07875 0.0745981 5.89673e-20)
(1.11345 0.193374 -4.2884e-20)
(1.11604 0.203831 1.44517e-19)
(1.21214 0.400461 -4.3701e-19)
(1.22401 0.431991 -1.94546e-19)
(1.47442 0.82083 6.61097e-19)
(0.985863 -0.00444979 2.10036e-21)
(1.01731 0.0111956 1.29981e-20)
(1.05469 0.0138332 -1.1286e-20)
(1.05218 0.070438 6.32533e-20)
(1.10073 0.0566202 9.97103e-20)
(1.1292 0.190308 1.26082e-19)
(1.15348 0.176395 3.27891e-20)
(1.24126 0.384021 2.06683e-19)
(1.32388 0.380429 3.13321e-19)
(1.49449 0.719378 2.68407e-20)
(0.984902 -0.00818545 -1.6616e-21)
(1.02093 0.00213091 -4.09662e-21)
(1.06597 0.00429784 3.74316e-21)
(1.05726 0.0627438 4.60314e-21)
(1.12835 0.0388816 3.01703e-34)
(1.1369 0.183558 -7.44241e-21)
(1.19696 0.148384 -5.35219e-34)
(1.25975 0.355858 1.9647e-20)
(1.39514 0.324426 -5.85734e-20)
(1.53869 0.626899 -5.83452e-20)
(0.982762 -0.0129634 1.43146e-20)
(1.02858 -0.00905167 -4.62827e-35)
(1.07449 -0.00527529 -4.2717e-21)
(1.07066 0.0506105 -2.79029e-20)
(1.15178 0.0236972 -4.8929e-20)
(1.1469 0.173042 -4.15272e-20)
(1.23138 0.120793 -6.77883e-34)
(1.28249 0.323144 -8.00404e-20)
(1.43385 0.267815 -1.46472e-19)
(1.58522 0.532519 9.82733e-20)
(0.97935 -0.0193908 0)
(1.04066 -0.0216853 4.59292e-35)
(1.08011 -0.0160237 0)
(1.09642 0.0334808 0)
(1.16538 0.0117473 0)
(1.16753 0.156271 0)
(1.25284 0.0961389 -4.6581e-34)
(1.3121 0.282061 0)
(1.45532 0.217963 -2.09157e-20)
(1.61283 0.437708 5.81832e-20)
(0.974812 -0.0274488 2.95895e-21)
(1.05677 -0.0345589 4.3267e-21)
(1.08592 -0.0279644 -5.40194e-21)
(1.13033 0.0156213 0)
(1.17111 0.00536991 0)
(1.19526 0.134419 6.47489e-21)
(1.26932 0.0760739 4.21086e-20)
(1.34057 0.234807 -1.40374e-20)
(1.4711 0.175455 -3.05134e-20)
(1.62154 0.34933 2.25257e-19)
(0.970052 -0.0420457 -7.93163e-20)
(1.07766 -0.0537584 5.54972e-22)
(1.0936 -0.0469911 -6.04819e-21)
(1.16001 -0.00809338 -1.75492e-20)
(1.16288 -0.00130936 -2.98411e-20)
(1.21555 0.104676 -1.06401e-20)
(1.27599 0.0581126 -3.44756e-20)
(1.35659 0.18494 -3.22144e-20)
(1.47636 0.137983 -5.52112e-20)
(1.62574 0.266006 6.53661e-20)
(0.966787 -0.0491051 -6.23929e-21)
(1.09739 -0.0616603 -1.83807e-20)
(1.08367 -0.0540994 -6.69368e-21)
(1.14842 -0.0197876 -5.23703e-21)
(1.10286 0.00040881 -4.8436e-35)
(1.19806 0.0732849 6.72236e-21)
(1.22578 0.0432471 -9.02138e-34)
(1.34088 0.134551 -1.35712e-20)
(1.43825 0.101168 1.8828e-20)
(1.62321 0.183965 2.6788e-20)
(0.96211 -0.0905241 1.96137e-19)
(1.05611 -0.0912304 -4.77372e-21)
(0.969279 -0.073267 -7.2087e-21)
(0.983009 -0.0313721 1.43064e-20)
(0.895924 -0.00258415 1.58144e-20)
(1.02998 0.0375204 1.40362e-20)
(1.01172 0.0287119 1.50294e-20)
(1.19071 0.0804556 -9.19016e-21)
(1.2553 0.0626346 -2.1822e-20)
(1.50296 0.102188 1.47033e-19)
(0.829866 -0.0459871 8.63582e-21)
(0.732378 -0.0342353 -9.47001e-35)
(0.534908 -0.0173737 -8.39349e-21)
(0.475471 -0.0022422 0)
(0.418791 0.000865115 0)
(0.503629 0.009262 6.67315e-21)
(0.502578 0.0054557 -5.87809e-36)
(0.642677 0.017693 -1.30817e-20)
(0.707114 0.00987002 -2.7528e-20)
(0.892997 0.0173842 5.80154e-20)
(1.6831 0.844794 -1.99263e-19)
(1.78458 0.825352 -2.92664e-19)
(1.90303 0.789128 0)
(2.01154 0.74479 1.60945e-19)
(2.11453 0.681918 6.84864e-19)
(2.20366 0.616027 -1.22538e-19)
(2.2862 0.535231 1.76973e-18)
(2.35833 0.45717 -8.64292e-20)
(2.41999 0.368769 -3.91663e-19)
(2.47432 0.287794 3.47136e-19)
(1.70782 0.69353 1.02987e-19)
(1.78474 0.676446 1.16768e-19)
(1.88355 0.641082 -1.45571e-20)
(1.96863 0.601377 2.25708e-19)
(2.06435 0.543304 -1.84965e-19)
(2.12915 0.492464 -4.31117e-19)
(2.21453 0.422224 -1.30595e-19)
(2.25873 0.369147 5.90289e-19)
(2.33847 0.291888 -2.2966e-20)
(2.35908 0.241975 -5.07914e-19)
(1.74338 0.576456 1.00314e-19)
(1.81214 0.553722 1.88746e-19)