/*--------------------------------*- C++ -*----------------------------------*\
  =========                 |
  \\      /  F ield         | OpenFOAM: The Open Source CFD Toolbox
   \\    /   O peration     | Website:  https://openfoam.org
    \\  /    A nd           | Version:  13
     \\/     M anipulation  |
\*---------------------------------------------------------------------------*/
FoamFile
{
    format      ascii;
    class       volScalarField;
    location    "1.185";
    object      p;
}
// * * * * * * * * * * * * * * * * * * * * * * * * * * * * * * * * * * * * * //

dimensions      [0 2 -2 0 0 0 0];

internalField   nonuniform List<scalar> 
440
(
-1.35616
-1.34538
-1.31915
-1.22947
-1.09069
-1.55584
-1.53273
-1.46606
-1.34126
-1.19378
-1.73749
-1.6928
-1.56862
-1.39998
-1.22461
-1.86659
-1.79059
-1.60823
-1.40631
-1.22178
-1.90593
-1.78141
-1.55294
-1.32814
-1.13158
-0.284119
-0.280141
-0.263059
-0.22259
-0.160767
-0.443612
-0.437711
-0.420062
-0.376226
-0.284545
-0.683468
-0.678576
-0.668206
-0.633197
-0.514567
-0.931277
-0.927607
-0.925913
-0.88876
-0.767817
-1.15271
-1.14832
-1.14371
-1.08894
-0.960598
0.15509
0.0328932
0.0680234
0.0436735
0.0138407
0.0898677
0.0236033
0.0639214
0.0416451
0.0131505
0.00605382
0.016171
0.0581273
0.0390869
0.012398
-0.109584
0.00786154
0.0510162
0.0359241
0.0115849
-0.262113
-0.006469
0.0431644
0.0321911
0.0106311
-0.343852
-0.019917
0.0329971
0.0262572
0.00907729
-0.327902
-0.0500845
0.00488766
0.0128277
0.0053569
-0.289244
-0.0516852
0.00115656
0.00824139
0.00358508
-0.280283
-0.0775769
-0.0141638
2.53029e-05
0.000924071
-0.271396
-0.0896338
-0.0238702
-0.004961
-0.000586611
-0.819112
-0.909532
-0.929282
-0.919999
-0.859157
-0.565269
-0.648125
-0.685037
-0.681288
-0.656239
-0.399438
-0.47517
-0.514987
-0.512983
-0.491938
-0.296092
-0.368651
-0.406891
-0.410939
-0.395593
-0.240636
-0.315967
-0.358407
-0.367504
-0.35574
0.442548
0.305236
0.137048
-0.0547087
-0.274316
0.0571901
-0.0960736
-0.285095
-0.504088
-0.756984
-0.346485
-0.51428
-0.72522
-0.960324
-1.22404
-0.695151
-0.876205
-1.1079
-1.35816
-1.58932
-0.96664
-1.15876
-1.39193
-1.63978
-1.82218
1.68826
1.71147
1.73575
1.75076
1.7514
1.49426
1.50715
1.51689
1.51255
1.49003
1.24894
1.23975
1.21283
1.16603
1.09652
0.983062
0.949389
0.88537
0.793979
0.676443
0.714491
0.629524
0.514411
0.375375
0.207676
1.5552
1.39613
1.53098
1.49515
1.61626
1.54317
1.38183
1.50976
1.46063
1.52319
1.53164
1.36597
1.48645
1.41601
1.40302
1.52079
1.34904
1.46123
1.36215
1.22945
1.51113
1.33137
1.4354
1.29917
1.03925
1.50032
1.3088
1.39881
1.20148
0.830473
1.49123
1.28476
1.36815
1.11721
0.832027
1.49124
1.26621
1.34573
1.06099
0.83295
1.48863
1.25063
1.33099
1.01926
0.843705
1.51475
1.2475
1.32315
0.995125
0.849305
0.438664
0.151019
-0.182773
-0.464975
-0.683973
0.383992
0.183338
-0.0463709
-0.259915
-0.438078
0.386996
0.210938
0.0338245
-0.135635
-0.281677
0.419275
0.251644
0.0930382
-0.0538358
-0.183567
0.438473
0.277146
0.128817
-0.00750941
-0.130342
-1.42162
-1.26573
-1.09464
-0.953418
-0.868323
-1.43635
-1.37031
-1.23402
-1.10315
-1.01111
-1.30857
-1.26651
-1.17621
-1.0844
-0.995788
-1.13527
-1.09135
-1.06596
-1.03282
-0.988976
-1.02738
-0.998858
-1.00467
-1.01017
-0.963687
-1.00747
-1.01074
-1.02805
-1.1143
-1.01431
-0.861592
-0.878154
-0.892254
-0.981886
-0.810236
-0.554841
-0.559557
-0.570815
-0.564372
-0.461568
-0.331923
-0.327192
-0.314411
-0.278082
-0.217103
-0.23921
-0.23486
-0.218417
-0.179946
-0.126223
-0.229244
0.00659659
0.0640161
0.0443903
0.0162967
-0.0592162
0.0155978
0.0753952
0.0495909
0.0162344
0.0751358
0.0171653
0.0714284
0.04679
0.015424
0.15696
0.0299989
0.0732942
0.0466195
0.0150202
0.182617
0.0360811
0.0707273
0.045204
0.0144373
-0.393684
-0.133352
0.034759
0.0415513
0.0163271
-0.368828
-0.0131826
0.0877628
0.060549
0.0189378
-0.826417
-0.926854
-0.981917
-0.836222
-0.664037
-0.839753
-0.95548
-0.95187
-0.886264
-0.736483
1.51792
1.49137
1.45026
1.39531
1.32334
1.6594
1.67827
1.68547
1.67788
1.65551
1.77706
1.80153
1.81909
1.82548
1.82014
1.82329
1.85562
1.89192
1.92312
1.93837
1.79734
1.82797
1.86284
1.8921
1.90521
-0.45372
-0.556451
-0.721197
-0.918264
-1.16979
0.110467
-0.0199651
-0.192836
-0.406752
-0.689545
0.628502
0.492949
0.331535
0.13877
-0.108589
1.03939
0.937088
0.81162
0.65614
0.466529
1.35241
1.28096
1.18558
1.06946
0.933778
1.61866
1.43912
1.59418
1.53783
1.63378
1.60504
1.43452
1.58579
1.54628
1.6582
1.59244
1.42785
1.57752
1.54619
1.71481
1.57994
1.41932
1.56495
1.53822
1.69716
1.5675
1.40869
1.54946
1.52094
1.6732
1.6654
1.44802
1.59241
1.49104
1.544
1.62878
1.43996
1.58902
1.51124
1.5384
1.23038
1.04399
0.69439
0.160982
-0.424665
1.32161
1.07921
0.706208
0.177039
-0.417804
)
;

boundaryField
{
    left
    {
        type            zeroGradient;
    }
    right
    {
        type            fixedValue;
        value           uniform 0;
    }
    down
    {
        type            zeroGradient;
    }
    up
    {
        type            zeroGradient;
    }
    cylinder
    {
        type            zeroGradient;
    }
    defaultFaces
    {
        type            empty;
    }
}


// ************************************************************************* //
