/*--------------------------------*- C++ -*----------------------------------*\
  =========                 |
  \\      /  F ield         | OpenFOAM: The Open Source CFD Toolbox
   \\    /   O peration     | Website:  https://openfoam.org
    \\  /    A nd           | Version:  13
     \\/     M anipulation  |
\*---------------------------------------------------------------------------*/
FoamFile
{
    format      ascii;
    class       surfaceScalarField;
    location    "2";
    object      phi;
}
// * * * * * * * * * * * * * * * * * * * * * * * * * * * * * * * * * * * * * //

dimensions      [0 3 -1 0 0 0 0];

internalField   nonuniform List<scalar> 
823
(
0.00861599
0.0229011
-0.0315171
0.0567195
-0.00248215
-0.0456214
0.148976
-0.0822116
-0.0100452
0.265014
-0.170533
0.0544956
-0.252527
0.146955
0.370586
0.0160756
0.00682546
0.0928074
-0.0792139
0.20443
-0.193835
0.313973
-0.280076
-0.335688
0.397135
0.0345657
-0.0277403
0.131012
-0.17566
0.227923
-0.290746
0.298255
-0.350408
-0.374387
0.336954
0.0526801
-0.0804204
0.137141
-0.260121
0.197386
-0.350991
0.229711
-0.382733
-0.390969
0.246292
0.0555097
-0.13593
0.111589
-0.3162
0.14036
-0.379762
0.151788
-0.394161
0.15592
-0.3951
-0.0285494
0.0531718
-0.0246224
-0.0679673
0.0656692
-0.0262512
-0.1007
0.047793
-0.01506
-0.122067
0.0242348
-0.002868
0.00390035
-0.132745
0.00677698
-0.019773
0.0729449
-0.0529557
0.0988518
-0.0828024
0.0776397
-0.10116
0.0425926
0.00383371
-0.101094
0.00529814
0.0676467
1.64022e-05
0.104134
-0.00988467
0.0875407
-0.0136739
0.0463818
-0.0173367
0.00749654
0.0212697
0.046377
0.0457658
0.0796374
0.0682257
0.0650809
0.0921689
0.0224386
-0.066714
0.141546
0.0148599
0.048876
0.103912
0.180846
0.261087
0.0708115
-0.518966
0.31541
0.269409
-0.544325
0.345728
0.36099
-0.303846
0.212265
0.398175
-0.180504
0.14332
-0.0750768
0.0676758
0.0919938
-0.712053
0.270019
-0.722351
0.362506
-0.396333
0.400368
-0.218366
-0.0836299
0.175161
-0.879718
0.290573
-0.837763
0.368082
-0.473842
0.403082
-0.253367
-0.0940416
0.28367
-1.02184
0.339687
-0.89378
0.382906
-0.51706
0.40794
-0.278401
-0.105824
0.354222
-1.11498
0.388571
-0.92813
0.404088
-0.532577
0.415682
-0.289995
-0.11829
1.15056
-0.997648
-1.26789
0.947268
-0.724838
0.791686
-0.376995
0.703007
-0.201316
-0.0866295
1.07266
-0.72163
-1.34868
0.855808
-0.507983
0.743302
-0.264489
0.686939
-0.144953
-0.0636362
1.10022
-0.500552
-1.3213
0.90222
-0.309982
0.774253
-0.136522
0.700346
-0.0710461
-0.0332258
1.02643
-0.260419
-1.26656
0.83738
-0.120934
0.727439
-0.0265804
0.666547
-0.0101545
-0.00751324
0.601148
-0.861568
0.480215
0.453634
0.44348
1.09415
0.106552
-1.04478
1.13723
0.203214
1.22227
0.251911
1.27261
0.346795
0.375312
1.01478
0.0595294
-0.967755
1.07435
0.143639
1.15331
0.172956
1.25319
0.246915
0.279819
0.975911
0.0272545
-0.943636
1.03662
0.0829287
1.10877
0.100808
1.20799
0.147692
0.166513
0.93042
0.00243551
-0.905601
0.987415
0.0259329
1.05689
0.0313377
1.15404
0.0505326
0.0539957
0.699769
-0.697333
0.725702
0.757039
0.807572
0.11621
0.306995
-0.260295
-0.16291
0.0754582
0.314018
-0.273267
0.0400049
0.324647
-0.289194
0.0116423
0.316301
-0.287938
0.205074
-0.193431
0.0976771
0.344485
-0.135167
0.0625265
0.349169
0.0304378
0.356736
0.00592195
0.340816
0.210996
0.0511109
0.371096
-0.0777215
0.0248821
0.375397
0.0030917
0.378526
-0.00779618
0.351704
0.203199
-0.00472804
0.388277
-0.0124533
-0.0216132
0.392283
-0.0309246
0.387838
-0.0243471
0.345127
0.178852
-0.0780464
0.0712238
-0.0799244
-0.0718489
-0.0429223
0.18775
0.107796
-0.237734
-0.0578126
0.136684
0.112799
-0.0617332
0.0845795
0.118639
-0.0665348
0.0342635
0.119717
-0.0694008
0.0857286
-0.0514651
0.185549
0.152578
-0.230331
0.139468
0.15888
0.0896004
0.168507
0.0376062
0.171711
0.123335
0.157408
0.197988
-0.202818
0.11342
0.202869
0.0696723
0.212254
0.0273155
0.214068
0.15065
0.151117
0.233608
-0.186736
0.110686
0.243299
0.0667766
0.256164
0.0251295
0.255715
0.17578
0.112872
-0.139559
0.0829044
0.0498747
0.0176516
0.411202
0.0271464
-0.0423689
0.418315
0.0828294
-0.0899428
0.410959
0.189828
-0.182471
0.375757
0.248497
-0.213295
0.483262
-0.345239
0.408599
0.0145273
0.41286
0.0785679
0.402307
0.200381
0.368752
0.282052
0.621684
0.403522
0.0069846
0.405245
0.076845
0.38294
0.222686
0.364937
0.300055
0.783802
0.397509
0.0054556
0.390508
0.0838461
0.368459
0.244735
0.340311
0.328203
0.937377
0.389154
0.0122814
0.375912
0.0970877
0.336642
0.284005
0.313162
0.351683
1.11098
0.620084
-0.00378244
0.637072
0.0800998
0.667732
0.253346
0.766162
0.253252
0.862649
1.01449
0.622628
-0.0223901
0.64486
0.0578682
0.711784
0.186421
0.788982
0.176055
0.657894
0.993737
0.623387
-0.0417566
0.659273
0.0219818
0.735374
0.11032
0.791957
0.119473
0.441301
1.00855
0.618315
-0.0560515
0.66086
-0.020563
0.732046
0.0391338
0.791834
0.0596854
0.214539
1.0186
0.547969
0.527406
0.56654
0.626225
0.840764
1.02583
-0.174246
1.02198
-0.131323
1.01143
-0.067166
1.02791
-0.0289365
0.0543513
0.961035
-0.141544
0.947518
-0.117806
0.936072
-0.0557204
0.949013
-0.0418772
0.0356089
0.963377
-0.0963723
0.934167
-0.0885956
0.924793
-0.0463467
0.921765
-0.0388494
0.0137379
0.966678
-0.0444543
0.921726
-0.0436438
0.902889
-0.0275097
0.889173
-0.0251332
-0.0026901
0.79631
0.752666
0.725157
0.700023
0.0500838
0.137768
-0.187852
0.0755829
0.312337
-0.337836
0.0759538
0.36912
-0.369491
0.0650228
0.37553
-0.364599
0.34564
0.0532857
-0.333903
0.0724593
0.065309
0.148778
0.236018
0.186511
0.331387
0.193473
0.368569
0.367721
0.171393
0.0574762
0.00783278
0.176053
0.11744
0.278176
0.229265
0.35134
0.295405
0.355464
0.363597
0.0222251
-0.0143924
0.118823
0.0208428
0.247057
0.10103
0.382035
0.160427
0.23656
0.500939
0.000948091
-0.0153405
0.0493899
-0.0275991
0.152017
-0.00159694
0.288545
0.0238985
0.0803246
0.444781
0.0109982
-0.0263386
0.0433002
-0.0599011
0.101217
-0.0595137
0.172559
-0.0474431
-0.00486152
0.257745
0.0184517
-0.0447904
0.0365985
-0.0780478
0.0512686
-0.0741837
0.0605296
-0.0567041
-0.0303983
0.0860664
-0.0147673
-0.0300231
-0.0431182
-0.0496969
-0.0703307
-0.0469713
-0.0889777
-0.0380572
-0.0289291
-0.0904469
-0.0276875
-0.00233553
-0.0662265
-0.011158
-0.0969441
-0.0162536
-0.11706
-0.0179411
-0.017861
-0.128128
-0.026958
-0.0643672
-0.0956807
-0.11649
-0.127574
0.410848
0.378762
-0.531866
0.380988
0.255624
-0.225763
0.357306
0.132067
-0.108385
0.377988
0.0286709
-0.0493529
-0.013238
-0.00924601
0.212154
0.252675
0.264608
0.203169
0.332408
0.0642675
0.380311
-0.0192317
-0.0338237
0.0756085
0.0866197
0.242332
0.036445
0.338844
-0.0322445
0.385143
-0.065531
-0.0492649
0.0663277
-0.107836
0.258571
-0.155798
0.350207
-0.123881
0.390966
-0.106289
-0.0598327
0.0799999
0.26993
0.358314
0.395344
0.243158
0.429373
-0.672532
0.194852
0.0483068
0.257932
-0.0630805
0.302409
-0.0444773
-0.0132275
0.985026
-1.08752
0.80757
0.636104
0.542274
0.0856432
-0.0152597
-0.0703836
0.142326
-0.0566827
0.259427
-0.117101
0.443044
-0.183617
-0.229488
0.193697
-0.155671
0.308407
0.554903
0.872226
0.141118
-0.124762
0.157118
-0.173474
0.106968
-0.129391
0.16354
0.0692589
-0.135683
0.173392
0.0285987
-0.134071
0.174731
-0.0917957
0.120394
0.177766
-0.0867763
-0.215751
0.135028
-0.0866525
0.0858492
-0.0865044
0.0353468
-0.0835688
-0.0564489
0.172423
-0.0386204
-0.220579
0.123438
-0.037667
0.0750573
-0.0381241
0.0298737
-0.0383852
-0.0265752
0.19294
0.00954974
-0.24111
0.143572
0.0117011
0.091789
0.0136588
0.0385376
0.0148662
0.0119624
0.196945
-0.245208
0.146913
0.0940374
0.0395027
0.0402499
-0.311622
-0.0625316
0.014981
-0.339331
-0.00746347
-0.347047
-0.016521
-0.328778
-0.204373
0.124079
-0.281229
-0.154472
0.0815078
-0.296759
0.0396355
-0.305174
0.00817926
-0.297322
-0.196194
0.144705
-0.23959
-0.186344
0.100749
-0.252803
0.0584951
-0.262921
0.0206516
-0.259478
-0.175542
0.160118
-0.203657
-0.196051
0.117766
-0.21045
0.0724653
-0.217621
0.028776
-0.215789
-0.146766
0.158568
-0.205107
0.111658
0.0674296
0.0263718
0.393131
0.0847897
-0.0819415
0.382439
0.117195
-0.106502
0.333921
0.107204
-0.0586851
0.297904
0.0490092
-0.0129921
-0.14615
0.270579
0.400418
0.0803514
0.401362
0.116251
0.3696
0.138966
0.326422
0.0921871
-0.0354794
0.405119
0.0712124
0.413644
0.107725
0.389035
0.163575
0.349158
0.132064
0.0930992
0.409323
0.057869
0.418577
0.0984713
0.406391
0.175762
0.365239
0.173215
0.217228
0.41148
0.420008
0.413299
0.373219
0.424693
0.0853585
0.340377
0.0843154
0.301345
0.0390319
0.30517
-0.00382521
-0.146898
0.452068
0.513468
0.491281
0.471628
0.454811
0.578492
0.35833
0.0937381
0.273662
0.0846685
0.178103
0.0955581
0.101425
0.0766782
0.0310417
0.467124
0.355741
0.264955
0.187161
)
;

boundaryField
{
    left
    {
        type            calculated;
        value           nonuniform List<scalar> 
17
(
-0.60402
-0.60402
-0.60402
-0.60402
-0.60402
-0.39598
-0.39598
-0.39598
-0.39598
-0.39598
-0.39598
-0.39598
-0.39598
-0.39598
-0.39598
-0.510051
-0.510051
)
;
    }
    right
    {
        type            calculated;
        value           nonuniform List<scalar> 
17
(
0.315637
0.5198
0.400472
0.400896
0.400584
0.401534
0.403187
0.405575
0.408921
0.413494
0.419722
0.428148
0.671346
0.663946
0.669935
0.640835
0.435967
)
;
    }
    down
    {
        type            calculated;
        value           uniform 0;
    }
    up
    {
        type            calculated;
        value           uniform 0;
    }
    cylinder
    {
        type            calculated;
        value           uniform 0;
    }
    defaultFaces
    {
        type            empty;
    }
}


// ************************************************************************* //
