/*--------------------------------*- C++ -*----------------------------------*\
  =========                 |
  \\      /  F ield         | OpenFOAM: The Open Source CFD Toolbox
   \\    /   O peration     | Website:  https://openfoam.org
    \\  /    A nd           | Version:  13
     \\/     M anipulation  |
\*---------------------------------------------------------------------------*/
FoamFile
{
    format      ascii;
    class       surfaceScalarField;
    location    "15";
    object      phi;
}
// * * * * * * * * * * * * * * * * * * * * * * * * * * * * * * * * * * * * * //

dimensions      [0 3 -1 0 0 0 0];

internalField   nonuniform List<scalar> 
823
(
-0.00456991
0.016787
-0.0122171
0.0129908
0.0072361
-0.0247968
0.0777058
-0.0419323
-0.0227827
0.180943
-0.109154
0.00591744
-0.146347
-0.00344717
0.330737
0.00595606
0.0108309
0.0590099
-0.0458178
0.160769
-0.143691
0.280107
-0.228492
-0.30307
0.436829
0.0256341
-0.0148032
0.118953
-0.139137
0.234902
-0.25964
0.343044
-0.336634
-0.378855
0.418829
0.0485825
-0.0633856
0.148653
-0.239207
0.231073
-0.34206
0.278379
-0.383941
-0.395088
0.294612
0.0609368
-0.124322
0.131026
-0.309296
0.168732
-0.379766
0.182484
-0.397692
0.191512
-0.404116
-0.0218816
0.0907206
-0.0688391
-0.0749677
0.149679
-0.0965928
-0.127059
0.148607
-0.0965155
-0.168081
0.134485
-0.0934635
0.118745
-0.191828
-0.0949988
0.0338413
0.0568793
0.0557063
0.127814
0.0552744
0.149039
0.0470064
0.142753
0.122219
0.0435328
0.0344932
0.0223861
0.087909
0.0743982
0.131189
0.105759
0.159212
0.11473
0.110395
0.171037
0.014276
0.00811014
0.053006
0.0356681
0.100691
0.058074
0.152013
0.0634075
0.0727735
0.189635
-0.00410696
0.00676437
0.0420557
0.111381
0.180707
0.208716
0.536122
-0.936666
0.513485
-1.44695
1.14218
0.489736
-0.92666
0.95041
0.482004
0.479324
-0.471592
0.18048
-0.143046
0.321897
0.257758
0.571422
-1.69647
0.578834
-0.934072
0.507681
0.550477
0.206713
0.202706
0.226089
0.407776
-1.90154
0.568284
-1.09458
0.522335
0.596426
0.216629
0.30751
0.108214
0.350125
-1.94416
0.495999
-1.24045
0.534353
0.558071
0.198696
0.497673
-0.208752
0.383613
-1.8301
0.377151
-1.23399
0.483142
0.45208
0.111876
1.54928
-0.524366
-1.23366
1.22411
-1.50493
0.723358
-0.733236
0.775654
0.399784
-0.0516756
1.47864
-0.586099
-1.41691
0.974971
-1.00126
0.52393
-0.282195
0.784688
0.139025
-0.220194
1.31435
-0.540127
-1.36032
0.92064
-0.607555
0.685111
-0.046666
0.920526
-0.0963902
-0.255519
1.11924
-0.339813
-1.31955
0.733785
-0.222103
0.720289
-0.0331696
0.776193
-0.152294
-0.118418
0.530961
-0.870775
0.308858
0.275688
0.123394
1.12069
0.149818
-1.07899
1.19573
0.219574
1.30939
0.305169
1.3452
0.401012
0.442277
1.0088
0.0945065
-0.953494
1.08808
0.140302
1.1821
0.211145
1.30649
0.276626
0.331855
0.957093
0.0488447
-0.911431
1.01886
0.0785303
1.10449
0.125522
1.22332
0.157796
0.194854
0.939077
0.0100815
-0.900314
0.994521
0.0230864
1.07993
0.0401154
1.18681
0.0509107
0.0621161
0.694546
-0.684465
0.717632
0.757748
0.808659
0.142545
0.302668
-0.248039
-0.197175
0.0959348
0.30888
-0.262269
0.0542709
0.319941
-0.278277
0.0189613
0.311223
-0.275914
0.200252
-0.181291
0.101569
0.339192
-0.138092
0.065094
0.345355
0.0328103
0.352225
0.0075071
0.336527
0.20776
0.0706343
0.376224
-0.107666
0.0376384
0.378351
0.00962805
0.380235
-0.00576701
0.351922
0.201993
-0.0105348
0.392296
-0.00553669
-0.0276114
0.395427
-0.0358069
0.388431
-0.027667
0.343782
0.174326
-0.0908884
0.0790682
-0.0931535
-0.0844889
-0.0500031
0.197835
0.108105
-0.251551
-0.0543878
0.143663
0.112226
-0.0580542
0.0887484
0.116685
-0.0617702
0.0359555
0.115897
-0.0631041
0.0812864
-0.0453308
0.196547
0.151435
-0.239877
0.149815
0.158959
0.0974958
0.169003
0.0415566
0.171836
0.122843
0.136716
0.19592
-0.181202
0.096237
0.199438
0.0571817
0.208059
0.020561
0.208457
0.143404
0.152661
0.228369
-0.185109
0.113707
0.238392
0.070042
0.251723
0.0273107
0.251188
0.170715
0.085734
-0.105404
0.0618565
0.0353023
0.0105766
0.407299
0.0507717
-0.0620915
0.426405
0.037632
-0.0567373
0.407654
0.215169
-0.196418
0.396484
0.209219
-0.198049
0.492879
-0.347947
0.405785
0.0409665
0.419141
0.0242753
0.396954
0.237357
0.385086
0.221087
0.638088
0.399842
0.0371038
0.412286
0.0118313
0.373401
0.276242
0.372009
0.222479
0.828895
0.3971
0.0359836
0.394061
0.0148705
0.362731
0.307572
0.354693
0.230518
0.998478
0.388413
0.0435501
0.380246
0.0230376
0.336152
0.351666
0.327583
0.239087
1.22066
0.624293
0.0232777
0.634121
0.0132094
0.688504
0.297282
0.798753
0.128838
1.03328
0.98613
0.634648
-0.00734987
0.617677
0.0301806
0.729633
0.185326
0.807174
0.0512969
0.798187
1.04227
0.629773
-0.0331028
0.641656
0.0182981
0.764575
0.0624066
0.797899
0.0179736
0.574537
1.02155
0.623413
-0.0524957
0.669466
-0.027755
0.740178
-0.00830555
0.74076
0.0173918
0.29712
1.01818
0.551525
0.52377
0.515464
0.532856
0.829976
1.03
-0.241046
1.02097
-0.129062
1.03441
-0.121108
1.02965
-0.000776882
0.0297271
0.984137
-0.182915
0.957587
-0.102512
0.928194
-0.0917149
0.935383
-0.00796587
0.0116159
0.945945
-0.107311
0.919148
-0.075716
0.889476
-0.0620427
0.900822
-0.0193121
0.00100726
0.955614
-0.0447485
0.918855
-0.0389565
0.89043
-0.0336176
0.89058
-0.0194628
-0.00872629
0.785228
0.746271
0.712654
0.693191
0.0467327
0.151142
-0.197875
0.0702163
0.324593
-0.348077
0.0705639
0.377177
-0.377525
0.0611931
0.378687
-0.369316
0.346709
0.0489279
-0.334444
0.0688849
0.0822571
0.137773
0.255705
0.17053
0.344421
0.175037
0.374179
0.363517
0.15823
0.0589619
0.0232953
0.167574
0.147093
0.255883
0.256111
0.313292
0.31677
0.360913
0.315897
0.0286282
-0.00533289
0.126224
0.049497
0.244263
0.138073
0.357471
0.203563
0.276562
0.441821
0.00734324
-0.0126761
0.0598147
-0.00297448
0.156502
0.0413852
0.271589
0.0884759
0.145291
0.40286
0.00233291
-0.015009
0.0172715
-0.0179131
0.0593828
-0.00072607
0.125656
0.0222023
0.0636698
0.207277
0.00461165
-0.0196207
0.0126868
-0.0259882
0.0266993
-0.0147386
0.0477264
0.00117514
0.0298388
0.0815574
0.0301873
-0.049808
0.0550644
-0.0508653
0.0616536
-0.0213277
0.0620512
0.000777537
0.019741
0.072149
-0.0208028
-0.0290052
-0.057278
-0.0143901
-0.0946153
0.0160096
-0.12484
0.0310026
0.0418109
-0.14691
-0.0978443
-0.208827
-0.289333
-0.351794
-0.404982
0.184944
1.11117
-1.08884
0.319834
-0.0869006
-0.0479894
0.331593
0.130138
-0.141897
0.222769
0.202904
-0.0940798
-0.116431
0.150384
0.133705
1.05902
0.289253
-0.242448
0.41573
0.00366043
0.31676
0.301874
-0.0599916
0.0203635
1.11081
0.183477
-0.405562
0.483594
-0.296456
0.38832
0.397148
0.0100427
-0.222708
1.18661
0.106997
-0.735266
0.519771
-0.70923
0.44794
0.468978
0.0793069
-0.155041
0.251868
0.493048
0.490433
-0.0806166
0.631256
-0.550639
-0.0424125
-0.0382042
-0.0157686
-0.0266438
0.044914
-0.0606826
-0.12267
0.588388
-1.04597
0.502195
0.333654
0.178892
0.0847292
-0.0126635
-0.0720657
0.136272
-0.0515427
0.234527
-0.0982555
0.376539
-0.142011
-0.1741
0.193072
-0.156807
0.299759
0.5174
0.81721
0.138977
-0.136371
0.166292
-0.168898
0.105599
-0.141954
0.175333
0.0676544
-0.149344
0.187289
0.0272956
-0.149506
0.189865
-0.105334
0.13263
0.179142
-0.0971918
-0.218321
0.135476
-0.0982883
0.0863509
-0.10022
0.0357338
-0.0988893
-0.0696006
0.188852
-0.0481804
-0.237864
0.138293
-0.0477291
0.0861451
-0.0480717
0.0350402
-0.0477845
-0.0345604
0.201016
0.00336904
-0.252566
0.148743
0.00454405
0.0949481
0.00572314
0.040109
0.00705461
0.0055486
0.205389
-0.256408
0.151879
0.0958317
0.0397822
0.0397979
-0.314621
-0.0596212
0.0153091
-0.344827
-0.00644136
-0.355775
-0.0152852
-0.339233
-0.21316
0.120083
-0.2841
-0.150604
0.0785734
-0.303318
0.038064
-0.315265
0.00766433
-0.308833
-0.205496
0.138342
-0.245159
-0.177283
0.0971903
-0.262166
0.0566494
-0.274724
0.0199929
-0.272177
-0.185503
0.155936
-0.210735
-0.190361
0.114168
-0.220397
0.0694758
-0.230033
0.0272189
-0.22992
-0.158284
0.153517
-0.19796
0.108453
0.0657086
0.0256537
0.391435
0.0989088
-0.0943643
0.390169
0.103821
-0.102554
0.35525
0.165369
-0.13045
0.296717
0.0665179
-0.00798507
-0.192134
0.319953
0.399063
0.0958257
0.405429
0.0974548
0.393903
0.176894
0.346155
0.114267
-0.0643003
0.404115
0.0876906
0.415298
0.0862712
0.408744
0.183448
0.371713
0.151298
0.0695485
0.40807
0.0756007
0.421813
0.072528
0.417231
0.18803
0.390784
0.177745
0.207767
0.409489
0.425279
0.416891
0.396587
0.415169
0.0948818
0.327946
0.0872229
0.237681
0.0902653
0.239953
-0.00227194
-0.176082
0.416035
0.510568
0.495237
0.455052
0.444795
0.588666
0.334609
0.0814263
0.261154
0.0734548
0.174361
0.0867926
0.101376
0.0729852
0.0293105
0.472133
0.355227
0.264737
0.187118
)
;

boundaryField
{
    left
    {
        type            calculated;
        value           nonuniform List<scalar> 
17
(
-0.60402
-0.60402
-0.60402
-0.60402
-0.60402
-0.39598
-0.39598
-0.39598
-0.39598
-0.39598
-0.39598
-0.39598
-0.39598
-0.39598
-0.39598
-0.510051
-0.510051
)
;
    }
    right
    {
        type            calculated;
        value           nonuniform List<scalar> 
17
(
0.167584
0.206606
0.188816
0.260321
0.318286
0.378676
0.426695
0.44457
0.481448
0.512419
0.552286
0.569961
0.939206
0.953207
0.955852
0.639092
0.00497554
)
;
    }
    down
    {
        type            calculated;
        value           uniform 0;
    }
    up
    {
        type            calculated;
        value           uniform 0;
    }
    cylinder
    {
        type            calculated;
        value           uniform 0;
    }
    defaultFaces
    {
        type            empty;
    }
}


// ************************************************************************* //
