/*--------------------------------*- C++ -*----------------------------------*\
  =========                 |
  \\      /  F ield         | OpenFOAM: The Open Source CFD Toolbox
   \\    /   O peration     | Website:  https://openfoam.org
    \\  /    A nd           | Version:  13
     \\/     M anipulation  |
\*---------------------------------------------------------------------------*/
FoamFile
{
    format      ascii;
    class       volVectorField;
    location    "15";
    object      U;
}
// * * * * * * * * * * * * * * * * * * * * * * * * * * * * * * * * * * * * * //

dimensions      [0 1 -1 0 0 0 0];

internalField   nonuniform List<vector> 
440
(
(-0.0841837 0.0576004 -7.00423e-20)
(-0.111239 0.0801365 7.1179e-20)
(0.0478441 0.0586592 1.44674e-19)
(0.499913 0.0479828 7.37849e-20)
(0.541769 0.164411 1.0131e-20)
(-0.0954759 0.0527589 3.82663e-20)
(0.0702114 0.0102786 -1.44763e-19)
(0.607693 -0.043714 -1.30806e-19)
(1.19181 -0.0743436 6.85656e-20)
(1.72065 -0.099481 1.52536e-20)
(-0.0191893 0.00437618 5.33386e-20)
(0.564808 -0.0513754 8.18904e-19)
(1.38885 -0.049921 -5.12375e-19)
(1.99192 -0.0314901 -1.61732e-18)
(2.49505 -0.0228652 6.75475e-19)
(0.211798 -0.0486954 -1.81829e-19)
(1.28131 0.000540609 -5.9495e-19)
(2.06231 0.0613445 1.9297e-18)
(2.47111 0.0922818 2.11597e-18)
(2.50858 0.101768 -5.93128e-19)
(0.598868 -0.00375341 -3.12972e-19)
(1.81516 0.182633 -6.74719e-19)
(2.35062 0.251764 2.06386e-18)
(2.4724 0.257905 2.20708e-18)
(2.56865 0.231425 7.40757e-19)
(-0.0440636 0.649273 2.93003e-19)
(-0.215169 0.88403 5.53123e-19)
(-0.349772 0.792578 -1.00374e-18)
(-0.440451 0.720653 1.28656e-19)
(-0.464905 0.695183 8.3005e-19)
(-0.0684556 0.514184 -4.38346e-20)
(-0.0836078 0.998726 -2.15886e-19)
(-0.0977677 1.05568 -2.25543e-20)
(-0.101029 0.937558 -2.27861e-20)
(-0.0715258 0.772708 4.14641e-20)
(-0.0628164 0.216926 6.83305e-20)
(-0.0704164 0.669027 -1.66144e-19)
(-0.0429118 0.894622 7.37836e-20)
(0.00108488 0.93935 -1.07425e-19)
(0.0795251 0.866656 4.26237e-21)
(-0.0287229 0.0536353 -3.8436e-20)
(-0.0759581 0.293967 8.52448e-20)
(-0.0683612 0.517027 1.77595e-20)
(-0.0191474 0.640674 -3.07584e-20)
(0.0301495 0.715823 -2.35581e-20)
(-0.0414202 0.0330827 -5.74971e-20)
(-0.125248 0.129028 -7.56265e-20)
(-0.14352 0.241853 -1.67347e-19)
(-0.0261268 0.320879 2.14271e-20)
(0.031928 0.461231 -3.89969e-19)
(-0.552845 0.567882 8.21496e-19)
(1.61677 -0.845558 2.0122e-18)
(1.00334 -0.669477 2.2e-19)
(1.26723 0.341075 -3.83731e-19)
(1.12292 0.11567 1.43692e-20)
(0.0215158 0.243113 -6.59132e-19)
(1.71025 -1.0971 -4.03202e-19)
(1.43924 -0.656352 1.39086e-19)
(1.30865 0.321892 6.08914e-19)
(1.21589 0.120051 -2.05056e-20)
(0.149534 0.0955871 -4.20918e-20)
(1.21561 -1.30538 2.33369e-18)
(1.45073 -0.679466 -1.12383e-19)
(1.31633 0.388371 6.61179e-19)
(1.29388 0.136077 -2.17108e-21)
(0.604773 0.178673 1.73087e-19)
(1.5142 -1.32355 -2.31225e-19)
(1.22174 -0.813787 -3.96004e-20)
(1.32601 0.349169 -9.35157e-20)
(1.39438 0.126027 -3.59596e-20)
(1.38682 -0.0577798 -2.16053e-19)
(2.19954 -1.1989 7.44528e-19)
(1.01139 -0.780505 0)
(1.04879 0.34604 -2.87313e-19)
(1.43907 0.107638 -2.55667e-21)
(2.09541 -0.212211 -5.66366e-19)
(2.89425 -0.923246 -4.73923e-20)
(1.3081 -0.704934 -2.00619e-20)
(1.01095 0.22143 -1.4406e-19)
(1.55486 0.00737202 -2.69419e-20)
(2.28759 -0.415684 2.79768e-20)
(2.56964 -0.904458 9.12107e-19)
(0.723354 -0.244303 -1.24163e-20)
(0.989167 0.255362 1.38467e-19)
(1.57809 -0.0697871 0)
(2.17466 -0.354239 -3.36628e-19)
(2.2035 -0.390954 8.66179e-21)
(0.877581 -0.0943726 -5.79621e-20)
(1.41079 -0.066296 -2.5931e-20)
(1.58264 -0.206199 -2.1786e-20)
(2.24551 -0.310009 7.6944e-20)
(1.49023 -0.342948 1.30268e-19)
(0.951675 0.0341112 -2.0295e-20)
(1.4635 -0.067955 -6.46081e-35)
(1.05821 -0.121944 -1.13171e-20)
(1.23278 -0.0899535 1.72831e-19)
(0.486497 0.0475744 -1.02378e-20)
(0.560631 -0.0753005 -1.23353e-20)
(0.37899 -0.108756 1.57324e-20)
(0.00836819 -0.0185857 -1.05029e-20)
(2.40688 0.234753 -9.12856e-19)
(2.65992 0.0270465 -1.13695e-18)
(2.44646 0.0422569 8.60025e-19)
(2.79427 -0.140334 6.04467e-20)
(2.12453 0.00108165 -1.72554e-20)
(2.04221 0.157053 5.08338e-20)
(2.45295 0.000146533 -3.90115e-20)
(2.20239 -0.0150083 -1.28964e-19)
(2.48404 -0.161095 -2.24673e-19)
(2.35047 -0.225836 -4.96347e-21)
(2.05836 0.0804074 6.67956e-20)
(2.19407 -0.00541782 1.03874e-19)
(2.1935 -0.0532507 -1.37124e-19)
(2.21315 -0.124712 4.45191e-20)
(2.28011 -0.189574 2.3757e-20)
(2.07555 0.0161571 1.08008e-19)
(2.11324 -0.0413327 1.15903e-19)
(2.1543 -0.062202 -1.75754e-20)
(2.16876 -0.115738 -1.60651e-20)
(2.18499 -0.145808 2.7703e-20)
(1.57724 -0.0257437 1.51931e-19)
(1.51809 -0.0259181 -1.24623e-20)
(1.55972 -0.0433277 2.62391e-20)
(1.46909 -0.0403414 -1.201e-20)
(1.50781 -0.0659429 3.22203e-20)
(1.56513 0.818529 1.14389e-18)
(1.53191 0.927122 -3.79068e-19)
(1.54008 1.06522 -1.37674e-18)
(1.46909 1.11551 7.38373e-19)
(0.896404 0.798806 -1.68408e-19)
(1.875 0.808278 -5.79591e-19)
(1.84053 0.884888 -3.05924e-18)
(1.84482 0.990391 -1.17962e-18)
(1.75474 1.00229 -4.09916e-19)
(1.06848 0.700471 -6.68505e-19)
(2.16532 0.666217 7.61674e-19)
(2.15622 0.742888 1.98926e-19)
(2.13551 0.835821 -2.31918e-18)
(1.99828 0.824886 -6.52541e-19)
(1.17959 0.547428 4.811e-19)
(2.35734 0.563005 2.28317e-18)
(2.33675 0.612147 1.70522e-18)
(2.33267 0.665257 -1.97904e-18)
(2.11876 0.624466 -1.50869e-18)
(1.16012 0.362862 -2.77184e-19)
(2.48717 0.403484 1.16101e-18)
(2.51398 0.428309 -8.24632e-19)
(2.4161 0.454212 5.94749e-19)
(2.07683 0.399712 4.71547e-19)
(0.97532 0.162003 -4.01068e-19)
(0.57317 0.488018 -6.49262e-19)
(0.47931 0.525975 -4.85097e-19)
(0.360241 0.563292 5.14619e-20)
(0.22435 0.561179 -1.90211e-21)
(0.0548354 0.393164 8.06537e-20)
(0.686884 0.639842 7.69328e-20)
(0.622485 0.695113 -2.99327e-19)
(0.532325 0.759619 1.75162e-19)
(0.405841 0.819187 -8.18498e-20)
(0.176654 0.62256 1.16428e-19)
(0.773201 0.857322 1.16008e-19)
(0.703633 0.94229 4.49371e-19)
(0.650288 1.03693 1.15123e-19)
(0.565347 1.06795 -3.04145e-19)
(0.308905 0.779241 2.5722e-19)
(1.04733 0.902066 2.28723e-19)
(0.997233 0.984531 -7.38804e-19)
(0.951507 1.08845 -1.95301e-18)
(0.873778 1.15747 7.74819e-19)
(0.513552 0.852707 -1.54325e-19)
(1.13809 0.974112 -9.16193e-20)
(1.1694 1.08903 -1.67409e-19)
(1.18715 1.19466 -3.83901e-19)
(1.12976 1.21016 -4.28065e-19)
(0.690334 0.858477 -6.65543e-21)
(1.0126 0.0424784 -8.70221e-20)
(1.00739 0.0345534 -2.98701e-20)
(1.03824 0.146487 -1.40984e-21)
(0.93637 0.141236 -1.87852e-19)
(0.908955 0.297722 2.98572e-19)
(1.00133 0.0388963 5.37987e-20)
(1.02708 0.030283 1.1253e-19)
(1.01613 0.161078 1.17428e-19)
(0.980155 0.163122 2.6754e-20)
(0.936565 0.380093 -4.25506e-21)
(1.0104 0.0368622 7.11559e-20)
(1.00988 0.0227567 -4.45828e-21)
(1.0578 0.181746 -4.0401e-21)
(0.926501 0.16084 1.31597e-19)
(1.15378 0.523668 -4.73201e-19)
(1.0089 0.0349551 -2.65071e-22)
(1.02499 0.0149764 -1.60221e-19)
(1.03615 0.208233 -5.87986e-20)
(1.03306 0.150764 -3.49374e-19)
(1.17333 0.58407 7.95071e-20)
(1.01357 0.0269263 -1.10117e-20)
(1.01191 0.0215427 4.45794e-20)
(1.08212 0.204157 2.69629e-20)
(1.02188 0.174757 4.4653e-19)
(1.39713 0.708102 -4.73247e-19)
(0.986199 0.0290951 -4.48383e-21)
(1.06414 0.000825919 9.6019e-20)
(1.03808 0.233631 -4.9702e-20)
(1.2922 0.0874735 9.87622e-19)
(1.31173 0.784022 -3.26597e-19)
(0.948069 -0.00110646 -1.35116e-21)
(1.12407 0.0140322 -8.28647e-20)
(0.956687 0.147351 5.35334e-21)
(1.42534 0.061954 -3.51217e-19)
(1.32795 0.57409 -7.91424e-20)
(0.983044 -0.00711429 5.4355e-21)
(1.06737 0.0265668 1.36745e-35)
(1.10117 0.0816767 -9.0318e-21)
(1.37616 0.00793903 1.08479e-19)
(1.36474 0.399509 1.6838e-19)
(1.04165 -0.0377635 3.91974e-21)
(0.981315 -0.00630502 -2.65027e-20)
(1.28837 -0.00581399 2.14767e-20)
(1.09599 0.0125583 2.13365e-20)
(1.45777 0.303482 -2.51213e-19)
(0.952664 -0.0212439 -3.75835e-20)
(0.829391 -0.0258641 -1.71221e-21)
(0.955351 -0.00459877 2.67663e-20)
(0.689252 0.0066655 -2.28718e-20)
(1.16637 0.0830078 -5.74244e-20)
(1.79641 0.572127 2.76587e-19)
(1.90676 0.64038 7.17878e-19)
(2.16766 0.476404 -1.04032e-18)
(2.236 0.483391 8.60291e-21)
(2.45804 0.272909 4.3803e-19)
(1.79382 0.362454 9.79136e-20)
(1.77702 0.430928 9.89248e-19)
(2.04841 0.304878 1.14478e-19)
(1.9242 0.32316 -8.59012e-19)
(2.29243 0.156738 -2.71583e-19)
(1.70898 0.303324 -2.30267e-19)
(1.75994 0.302739 -1.44433e-19)
(1.9228 0.229906 2.21523e-19)
(1.91288 0.205361 -2.68823e-19)
(2.1005 0.11176 2.45624e-19)
(1.68479 0.189304 3.88811e-19)
(1.79771 0.167751 9.14768e-22)
(1.87184 0.110404 2.09211e-19)
(1.955 0.0916725 1.67614e-19)
(2.01671 0.0314394 -1.67036e-19)
(1.37749 0.043061 -5.10731e-20)
(1.48004 0.0240835 2.4346e-19)
(1.4962 0.0106908 9.95685e-20)
(1.55987 -0.00506739 -2.00608e-19)
(1.53018 -0.0115217 5.42914e-22)
(1.16306 -0.0169104 7.20004e-20)
(2.16577 -0.0316025 -4.60367e-19)
(2.39104 -0.0213967 1.25501e-18)
(2.37253 0.0173771 5.64594e-19)
(2.18744 0.0396384 -3.95343e-19)
(0.759066 0.10269 1.47738e-19)
(1.94973 0.108963 -4.86204e-19)
(2.38695 0.113532 -6.80642e-19)
(2.41535 0.12001 8.79969e-19)
(2.18462 0.104617 -6.16203e-19)
(0.281234 0.0991067 -2.18496e-21)
(1.36797 0.184754 5.63643e-19)
(2.07867 0.216107 7.7462e-20)
(2.43279 0.211671 7.37347e-19)
(2.51156 0.199635 3.73018e-19)
(0.00771979 0.00662453 2.01065e-19)
(0.573747 0.132772 2.18484e-19)
(1.34578 0.214528 -5.91466e-19)
(1.82559 0.255034 4.97073e-20)
(2.35551 0.278477 3.82739e-19)
(-0.0534284 -0.040642 1.0548e-19)
(0.106864 0.0220961 -1.48033e-19)
(0.576212 0.1254 -1.09284e-19)
(1.03922 0.182289 9.88664e-20)
(1.50448 0.28436 4.85283e-20)
(-0.0693571 -0.0869552 2.79933e-20)
(-0.0823914 -0.112854 6.84805e-20)
(0.0598964 -0.0709347 1.02265e-19)
(0.269459 0.0166799 -3.56486e-19)
(0.681403 0.112436 4.51059e-21)
(-0.0265876 -0.0455013 -4.59533e-21)
(-0.00856755 -0.0623117 -7.36108e-20)
(0.0504016 -0.0118507 -5.0929e-20)
(0.134691 0.0733259 7.37318e-20)
(0.309985 0.207318 6.45915e-20)
(-0.0548954 -0.229017 1.27401e-20)
(-3.49509e-05 -0.344997 -4.92359e-19)
(0.060524 -0.287589 3.27692e-19)
(0.0903979 -0.179611 2.93626e-19)
(0.132108 -0.059624 -2.91364e-20)
(-0.105716 -0.365482 1.39375e-19)
(-0.183991 -0.247127 8.08772e-19)
(-0.199086 0.0627094 -1.78025e-18)
(-0.24441 0.237701 -1.11473e-18)
(-0.236137 0.344618 1.41222e-19)
(-0.128347 0.106766 -1.14057e-19)
(-0.480606 0.214604 3.43337e-19)
(-0.676343 0.321846 -9.65987e-20)
(-0.787111 0.369424 -1.57337e-20)
(-0.829908 0.409625 4.54489e-19)
(1.13641 0.70356 -5.57816e-20)
(0.499232 -0.0138366 9.25718e-19)
(1.24138 0.104972 -5.66461e-20)
(0.640668 0.1085 -1.52492e-20)
(0.47739 -0.0840269 -1.59173e-21)
(1.03473 0.798121 1.74017e-19)
(0.0945022 -0.112188 -4.37009e-19)
(1.32754 0.0877797 -4.22264e-19)
(0.91902 0.178156 8.45372e-21)
(0.658028 -0.0537569 -1.4515e-20)
(0.88181 0.659386 -1.46065e-19)
(-0.591521 -0.189394 -7.37845e-19)
(1.3719 -0.0561007 -6.45001e-21)
(1.11174 0.245084 -9.19312e-20)
(0.804407 -0.010792 9.55797e-21)
(0.0488551 0.894481 7.16704e-19)
(-0.900662 -0.342296 -4.41671e-18)
(1.26577 -0.311971 1.71073e-19)
(1.2434 0.330412 -1.21203e-20)
(0.956819 0.0423998 2.65182e-20)
(-0.870543 0.677784 1.47282e-19)
(0.228259 -0.759852 -6.24256e-19)
(0.940371 -0.635876 -2.85845e-20)
(1.33618 0.315368 5.00144e-20)
(1.0779 0.081021 5.29949e-20)
(-0.00458168 0.139125 -1.30188e-19)
(-0.290942 -0.143925 0)
(0.112901 -0.0773513 -1.84581e-20)
(-0.16923 -0.0496117 4.0949e-20)
(0.328952 -0.0392024 -1.04165e-20)
(1.58355 0.58956 0)
(0.825509 0.104199 0)
(1.07618 0.050232 2.41513e-19)
(0.262268 -0.0188642 5.23143e-20)
(0.405555 -0.11456 2.85555e-20)
(0.706573 0.00211825 -1.28341e-19)
(0.722716 -0.00343155 2.44011e-19)
(0.942305 0.00813384 -4.87783e-20)
(0.866651 0.0138196 3.18439e-19)
(1.28219 0.111881 2.19032e-19)
(1.5914 0.0306777 1.2224e-19)
(1.70198 0.0712616 3.47684e-19)
(1.8816 0.0835806 -5.5799e-19)
(2.32206 0.214379 1.37944e-19)
(2.15424 0.216355 3.40766e-19)
(0.892987 -0.470096 -2.13818e-20)
(0.879976 -0.558846 -1.68856e-19)
(0.869196 -0.654811 -1.16396e-19)
(0.799365 -0.721842 7.12007e-20)
(0.488389 -0.567522 1.30272e-19)
(0.790131 -0.371138 1.18771e-19)
(0.735901 -0.43583 2.23849e-19)
(0.665215 -0.507579 -5.47957e-20)
(0.556364 -0.569855 1.42639e-19)
(0.305563 -0.456886 5.33641e-20)
(0.646695 -0.230665 -1.36686e-19)
(0.561974 -0.27039 -5.5678e-20)
(0.461363 -0.319154 9.5276e-20)
(0.340786 -0.362501 -1.99384e-20)
(0.151364 -0.294198 -1.26454e-19)
(0.547421 0.00208437 -4.31998e-19)
(0.460995 -0.0121556 -3.5287e-19)
(0.349965 -0.0340698 2.83168e-19)
(0.223092 -0.0649343 1.62876e-19)
(0.0610692 -0.0766756 1.33878e-20)
(0.526239 0.207135 -1.51176e-19)
(0.440566 0.208708 -1.61707e-19)
(0.323242 0.208885 -5.72197e-20)
(0.184484 0.214782 3.44326e-20)
(0.0273052 0.15868 1.26928e-20)
(1.96771 -0.0374695 8.09072e-19)
(2.21602 -0.100645 2.71312e-19)
(2.29952 -0.182424 -7.16305e-19)
(2.16061 -0.208174 -1.48469e-18)
(1.30586 -0.182314 1.27992e-19)
(1.93489 -0.120333 1.32492e-18)
(2.03536 -0.228844 1.76393e-18)
(2.06088 -0.346908 1.49134e-19)
(1.98385 -0.404115 2.63715e-19)
(1.27189 -0.352241 -1.7421e-19)
(1.6644 -0.279157 -3.41492e-18)
(1.7309 -0.394458 3.70555e-19)
(1.77946 -0.516802 1.08032e-18)
(1.72207 -0.588316 -4.01639e-19)
(1.11889 -0.494886 6.3841e-19)
(1.45336 -0.399948 8.18441e-19)
(1.47663 -0.497981 -2.17957e-18)
(1.47082 -0.614005 -2.47988e-18)
(1.40655 -0.69704 7.53428e-19)
(0.908812 -0.570884 5.19001e-19)
(1.18077 -0.456858 1.73029e-19)
(1.14489 -0.549899 2.51302e-19)
(1.1385 -0.668796 -3.78226e-19)
(1.08451 -0.751994 -4.55517e-19)
(0.688697 -0.596957 -4.22489e-21)
(1.06927 0.052771 7.35288e-21)
(0.93679 0.0597262 -1.05158e-21)
(1.10768 0.0858949 5.98927e-21)
(0.814423 0.00953758 -2.39988e-19)
(1.06131 -0.193194 -1.67729e-20)
(1.07901 0.0546321 -2.39448e-21)
(0.931966 0.0567502 3.25187e-20)
(1.11014 0.104729 -1.41686e-20)
(0.894791 0.0582985 1.85589e-19)
(0.972507 -0.0792827 -3.35311e-21)
(1.07659 0.0503295 -5.75235e-20)
(0.93539 0.0523104 3.22581e-23)
(1.09681 0.109319 -1.25115e-20)
(0.898147 0.0801328 1.01613e-19)
(0.941854 -0.0173425 -2.25472e-19)
(1.05631 0.048066 6.8468e-20)
(0.961954 0.046637 3.05068e-21)
(1.0656 0.118339 2.58005e-20)
(0.927792 0.105321 -4.30025e-20)
(0.861784 0.0899202 7.81731e-20)
(1.02851 0.0441725 1.70335e-20)
(0.995304 0.043261 -2.52641e-20)
(1.03493 0.127664 3.82906e-20)
(0.951905 0.130058 4.24694e-20)
(0.841463 0.193511 -7.13823e-20)
(0.890423 0.0340367 0)
(0.711339 0.0283951 9.56795e-21)
(0.589559 0.022325 6.22191e-21)
(0.335917 -0.00537168 4.41891e-20)
(0.644922 -0.050584 -1.49309e-19)
(1.03607 0.0739724 -6.45643e-20)
(0.946784 0.075245 -8.08764e-21)
(1.00977 0.0844695 -5.51654e-20)
(0.7957 0.00182224 -1.40437e-19)
(1.00351 -0.18036 -1.60915e-19)
(0.889955 -0.0654722 -3.53054e-20)
(0.976864 -0.032383 5.21135e-19)
(1.06492 0.0347696 3.07911e-19)
(0.945199 0.0502661 3.1762e-20)
(0.735752 0.0266961 0)
(1.24337 -0.304809 3.37333e-19)
(1.35632 -0.269485 1.4653e-18)
(1.52594 -0.152142 -1.58353e-18)
(1.62122 -0.0213009 -4.88867e-19)
(1.52913 0.0258112 3.79895e-19)
)
;

boundaryField
{
    left
    {
        type            fixedValue;
        value           uniform (1 0 0);
    }
    right
    {
        type            zeroGradient;
    }
    down
    {
        type            noSlip;
    }
    up
    {
        type            noSlip;
    }
    cylinder
    {
        type            noSlip;
    }
    defaultFaces
    {
        type            empty;
    }
}


// ************************************************************************* //
