/*--------------------------------*- C++ -*----------------------------------*\
  =========                 |
  \\      /  F ield         | OpenFOAM: The Open Source CFD Toolbox
   \\    /   O peration     | Website:  https://openfoam.org
    \\  /    A nd           | Version:  13
     \\/     M anipulation  |
\*---------------------------------------------------------------------------*/
FoamFile
{
    format      ascii;
    class       volScalarField;
    location    "32";
    object      p;
}
// * * * * * * * * * * * * * * * * * * * * * * * * * * * * * * * * * * * * * //

dimensions      [0 2 -2 0 0 0 0];

internalField   nonuniform List<scalar> 
440
(
-1.1348
-1.11098
-1.09971
-1.08619
-1.14383
-1.19803
-1.17212
-1.14502
-1.118
-1.09234
-1.32888
-1.28571
-1.22986
-1.15804
-1.08246
-1.46508
-1.40736
-1.28734
-1.14887
-1.0098
-1.54256
-1.459
-1.27433
-1.08585
-0.916878
-1.09696
-1.15838
-1.3165
-1.55969
-1.90003
-1.28621
-1.29783
-1.33507
-1.391
-1.47044
-1.22551
-1.20589
-1.18628
-1.17852
-1.1972
-1.17613
-1.15468
-1.1364
-1.13199
-1.16274
-1.1237
-1.09945
-1.07505
-1.05085
-1.05323
-0.712194
-0.111713
-0.0808548
0.119442
-0.0510911
-0.97687
-0.191971
0.157938
0.120019
-0.0484983
-1.15878
-0.173908
0.51087
0.126504
-0.080865
-1.30011
-0.188537
0.773953
0.159286
-0.131634
-1.22948
-0.261198
0.644104
0.243129
-0.136449
-0.923202
-0.181505
0.307523
0.331788
-0.0835242
-0.461337
0.146131
0.167006
0.309738
0.0202484
-0.273413
0.285815
0.483125
0.287037
0.0500532
-0.111602
0.22911
0.490006
0.299539
0.0323405
-0.0272476
0.183329
0.559113
0.409365
0.0637596
-0.632272
-0.752444
-0.920505
-1.07809
-1.26534
-0.356298
-0.474721
-0.566079
-0.622217
-0.659968
-0.167503
-0.271521
-0.327182
-0.361154
-0.376331
-0.053525
-0.143039
-0.191972
-0.212564
-0.209094
0.00047319
-0.08605
-0.131312
-0.14394
-0.123428
0.814229
0.651522
0.443415
0.211257
-0.0419284
0.362839
0.189483
-0.0203297
-0.260154
-0.537546
-0.0732844
-0.251714
-0.47688
-0.72607
-0.996003
-0.465799
-0.646754
-0.879874
-1.12632
-1.33942
-0.729002
-0.921891
-1.14263
-1.37268
-1.51621
1.98674
2.01369
2.03616
2.04358
2.03362
1.77324
1.7893
1.79838
1.78939
1.7581
1.54397
1.52548
1.48205
1.41438
1.31846
1.27691
1.23786
1.16037
1.04998
0.908354
1.04957
0.933836
0.785303
0.615801
0.410245
1.78765
1.77741
1.75548
1.8232
1.88788
1.77597
1.76481
1.73187
1.79671
1.78395
1.7654
1.7496
1.70617
1.7573
1.65513
1.75604
1.73264
1.67861
1.70497
1.47131
1.74796
1.71424
1.64989
1.65159
1.27684
1.74132
1.68806
1.61426
1.54154
1.06235
1.73481
1.65712
1.59549
1.42738
1.19749
1.74204
1.63765
1.56941
1.38337
1.22089
1.73494
1.60894
1.55498
1.32892
1.23714
1.77183
1.60724
1.54638
1.29972
1.25128
0.775295
0.453501
0.0961478
-0.225283
-0.432573
0.660103
0.431939
0.190951
-0.0244923
-0.208325
0.648006
0.463485
0.281377
0.11693
-0.044964
0.717105
0.535
0.36202
0.207294
0.0619681
0.745683
0.563089
0.398119
0.251643
0.11346
-0.723921
-0.618376
-0.480963
-0.369895
-0.303536
-0.782919
-0.729461
-0.626937
-0.544837
-0.4965
-0.716051
-0.672769
-0.616344
-0.570311
-0.541731
-0.588511
-0.555284
-0.52009
-0.493618
-0.475054
-0.49792
-0.479619
-0.460169
-0.447631
-0.465124
-0.450262
-0.443084
-0.428231
-0.423548
-0.400009
-0.449893
-0.447975
-0.444066
-0.445817
-0.441732
-0.441499
-0.450223
-0.473487
-0.509526
-0.535999
-0.410846
-0.409373
-0.417101
-0.429123
-0.414477
-0.430527
-0.494865
-0.647582
-0.841514
-0.940246
-0.505686
0.794882
0.237049
0.0979558
-0.0270996
-0.416195
0.88878
0.149039
0.0925744
-0.0491453
-0.271187
0.968999
0.0597165
0.0974196
-0.0597719
-0.160171
0.776817
-0.000111419
0.109142
-0.0612777
-0.401136
0.261226
-0.0931837
0.116056
-0.0547137
-0.0594322
0.556121
0.224674
0.104932
0.0150715
-0.393729
0.616825
0.28541
0.11994
0.00153595
-0.264719
-0.484513
-0.499098
-0.48827
-0.272532
-0.281265
-0.479951
-0.523238
-0.476816
-0.489183
1.79248
1.77906
1.75101
1.70974
1.65501
1.94563
1.96855
1.97903
1.97561
1.95887
2.06973
2.10385
2.13192
2.14937
2.15354
2.12884
2.16707
2.20719
2.23988
2.25544
2.0999
2.1341
2.17123
2.20117
2.21379
0.066094
-0.019259
-0.152384
-0.315988
-0.487205
0.558736
0.44798
0.299254
0.121999
-0.0871752
0.998935
0.882988
0.744883
0.583764
0.393088
1.34694
1.2592
1.15215
1.02352
0.873113
1.62377
1.56532
1.4889
1.39752
1.29192
1.85707
1.81599
1.81211
1.83834
1.8799
1.84074
1.81118
1.80774
1.84749
1.92076
1.82644
1.80503
1.80173
1.85763
1.97275
1.81283
1.79757
1.79073
1.85614
1.97006
1.79985
1.78863
1.77481
1.84499
1.94548
1.91535
1.82593
1.80715
1.77726
1.77008
1.86861
1.81507
1.80006
1.79323
1.78478
1.52858
1.35916
1.05089
0.594431
0.09174
1.59291
1.38225
1.06317
0.611563
0.0988571
)
;

boundaryField
{
    left
    {
        type            zeroGradient;
    }
    right
    {
        type            fixedValue;
        value           uniform 0;
    }
    down
    {
        type            zeroGradient;
    }
    up
    {
        type            zeroGradient;
    }
    cylinder
    {
        type            zeroGradient;
    }
    defaultFaces
    {
        type            empty;
    }
}


// ************************************************************************* //
