/*--------------------------------*- C++ -*----------------------------------*\
  =========                 |
  \\      /  F ield         | OpenFOAM: The Open Source CFD Toolbox
   \\    /   O peration     | Website:  https://openfoam.org
    \\  /    A nd           | Version:  13
     \\/     M anipulation  |
\*---------------------------------------------------------------------------*/
FoamFile
{
    format      ascii;
    class       surfaceScalarField;
    location    "32";
    object      phi;
}
// * * * * * * * * * * * * * * * * * * * * * * * * * * * * * * * * * * * * * //

dimensions      [0 3 -1 0 0 0 0];

internalField   nonuniform List<scalar> 
823
(
0.000595753
0.0155859
-0.0161817
0.0283638
-0.000323764
-0.0274443
0.103307
-0.0591288
-0.0158143
0.214568
-0.131575
0.0203139
-0.191596
0.0398453
0.366319
0.0090756
0.00651032
0.0713697
-0.0626178
0.181354
-0.169113
0.307139
-0.25736
-0.331279
0.446822
0.0294136
-0.0229032
0.12885
-0.162055
0.244981
-0.285244
0.346466
-0.358846
-0.39481
0.409998
0.0530137
-0.0759169
0.152575
-0.261616
0.228513
-0.361182
0.267855
-0.398187
-0.407576
0.28062
0.0626114
-0.138528
0.128244
-0.327249
0.160765
-0.393702
0.172307
-0.40973
0.180118
-0.415387
0.00316837
0.0979841
-0.101152
-0.0105845
0.157088
-0.143335
-0.0201115
0.163782
-0.154255
-0.0193066
0.147768
-0.148573
0.121362
-0.00801525
-0.132653
0.0409635
0.0570206
0.0835781
0.114473
0.117863
0.129497
0.14745
0.118181
0.100276
0.168536
0.028436
0.0285846
0.0715631
0.0713462
0.112007
0.0890534
0.145325
0.0848634
0.0765409
0.16906
0.0124004
0.0161842
0.0421407
0.0416059
0.080337
0.0508571
0.123246
0.0419546
0.0331689
0.166618
2.46563e-06
0.014164
0.0492069
0.111475
0.18449
0.139778
-0.5269
0.379107
0.345274
-1.83138
1.62589
0.499312
0.647432
-0.80147
0.400278
0.951085
-0.852051
-0.178716
0.177953
0.21501
-0.573374
0.264577
-1.88095
0.508626
0.403382
0.418743
1.04097
-0.208973
0.178071
-0.582386
0.208149
-1.91103
0.384172
0.22736
0.403447
1.02169
-0.310916
0.433263
-0.849031
0.373231
-1.85099
0.317859
0.282732
0.454203
0.885349
-0.454755
0.518943
-1.18348
0.487608
-1.81966
0.37558
0.394759
0.56201
0.698919
-0.588451
1.34241
-1.20623
-1.31967
0.933483
-1.41073
0.724955
0.603287
1.10752
0.316351
-0.653313
1.17631
-0.915102
-1.46743
0.493078
-0.727497
0.607599
0.488766
1.14315
-0.219201
-0.627319
1.13095
-0.672113
-1.37393
0.645068
-0.24162
0.872129
0.261705
1.14186
-0.488931
-0.473275
0.927176
-0.335408
-1.26388
0.731342
-0.0457863
0.986756
0.00629098
0.835983
-0.338158
-0.186994
0.467107
-0.802515
0.421321
0.427612
0.0894537
1.14494
0.145514
-1.11033
1.23601
0.189547
1.33347
0.312535
1.40684
0.373453
0.45349
1.02789
0.0839134
-0.966288
1.10747
0.109968
1.21295
0.207053
1.33399
0.252414
0.320045
0.979692
0.0346494
-0.930428
1.0284
0.0612652
1.12157
0.113881
1.23375
0.140227
0.179864
0.922968
0.0042225
-0.892541
0.967071
0.0171623
1.04509
0.0358633
1.14169
0.0436214
0.0576785
0.64819
-0.643967
0.665352
0.701216
0.744837
0.146715
0.309202
-0.251632
-0.204285
0.0984381
0.313988
-0.265711
0.0561439
0.324796
-0.282501
0.0200525
0.317155
-0.281063
0.206039
-0.185986
0.106383
0.345784
-0.142965
0.0693019
0.351069
0.0359884
0.358109
0.00947551
0.343667
0.215514
0.0790122
0.384849
-0.118077
0.0445882
0.385493
0.014703
0.387994
-0.0036184
0.361989
0.211896
-0.000533743
0.400522
-0.0151396
-0.0195045
0.404464
-0.0301108
0.398601
-0.0250718
0.35695
0.186824
-0.0776293
0.0627638
-0.0828949
-0.0779968
-0.0482956
0.197484
0.112177
-0.250736
-0.0589254
0.143594
0.116725
-0.0628338
0.0888431
0.121594
-0.0668437
0.0360074
0.121338
-0.068502
0.0860062
-0.0499988
0.194258
0.15455
-0.236631
0.148513
0.16247
0.0966447
0.173463
0.0410757
0.176907
0.127082
0.135995
0.200241
-0.181686
0.0947901
0.203675
0.0561987
0.212054
0.0202365
0.212869
0.147318
0.156453
0.231859
-0.188072
0.117056
0.243072
0.0722273
0.256883
0.0283947
0.256701
0.175713
0.0828923
-0.102666
0.0602531
0.0346348
0.0102731
0.409044
0.0518442
-0.0649086
0.421135
0.0698146
-0.0819054
0.408324
0.194215
-0.181405
0.39544
0.234243
-0.221359
0.516176
-0.371472
0.406637
0.0411868
0.413991
0.0624607
0.398829
0.209378
0.381921
0.25115
0.661466
0.399348
0.0378187
0.407205
0.0546032
0.377127
0.239456
0.374126
0.254151
0.853906
0.394119
0.0396796
0.391073
0.0576492
0.370806
0.259722
0.348983
0.275975
1.01482
0.383714
0.0519455
0.380657
0.0607062
0.34101
0.299369
0.324572
0.292413
1.23672
0.612983
0.0429829
0.639703
0.0339865
0.703014
0.236057
0.78771
0.207717
1.00239
1.02204
0.618304
0.0286994
0.645976
0.00631438
0.762113
0.11992
0.778877
0.190954
0.78023
1.00104
0.62854
0.00417998
0.679155
-0.0443005
0.76241
0.0366654
0.776591
0.176772
0.527237
1.02958
0.647464
-0.0392639
0.667943
-0.0647791
0.694424
0.0101845
0.781562
0.0896331
0.241926
1.06687
0.564757
0.499977
0.510162
0.599795
0.841721
1.05629
-0.238526
1.0446
-0.131281
1.0563
-0.129775
1.05236
-0.011202
0.00479388
0.951276
-0.188766
0.942167
-0.122172
0.926597
-0.114206
0.944705
-0.0293094
-0.016789
0.968333
-0.127515
0.949322
-0.103161
0.918337
-0.0832214
0.929351
-0.0403231
-0.0178659
0.997883
-0.0585246
0.947696
-0.0529735
0.907273
-0.0427985
0.895338
-0.0283882
-0.0150692
0.783197
0.730223
0.687425
0.659037
0.0468757
0.136541
-0.183417
0.0717109
0.305919
-0.330754
0.0727761
0.361141
-0.362206
0.0628939
0.365356
-0.355473
0.334566
0.0504128
-0.322085
0.0671925
0.0693486
0.138559
0.234552
0.173568
0.326132
0.178149
0.360775
0.35496
0.157755
0.0554091
0.0139395
0.165785
0.124177
0.259667
0.23225
0.325719
0.294723
0.347856
0.332823
0.0258676
-0.0119281
0.119496
0.0305482
0.23877
0.112976
0.357133
0.17636
0.246458
0.458531
0.00508527
-0.0170133
0.0504246
-0.0147911
0.145613
0.0177882
0.26452
0.0574529
0.103364
0.407614
-0.003991
-0.0130223
0.00558569
-0.0243678
0.0464058
-0.0230319
0.115161
-0.0113023
0.0183628
0.200162
-0.00159301
-0.0114293
0.000188548
-0.0261493
0.0117629
-0.0346063
0.0362606
-0.0357999
-0.0254945
0.0801179
-0.00372431
-0.00770503
-0.00908468
-0.020789
-0.0164639
-0.0272271
-0.0247979
-0.0274659
-0.0260886
-0.0242038
-0.0329351
0.0252301
-0.0879165
0.0341924
-0.158862
0.0437182
-0.236915
0.0505876
0.045895
-0.308899
-0.0759224
-0.185065
-0.295602
-0.393588
-0.480346
0.337262
0.818314
-0.955414
0.457749
0.0325939
-0.153081
0.255543
0.532591
-0.330385
0.115438
0.211965
-0.0718605
-0.285344
0.248416
0.344
0.554431
0.514491
-0.137897
0.365375
0.681707
0.203639
0.373701
-0.27301
0.193806
0.336421
0.526483
-0.470574
0.449984
0.758207
0.282028
0.541657
-0.240492
-0.0180087
0.0455312
0.564761
-1.05334
0.504959
0.818009
0.341162
0.705454
-0.205912
-0.0557081
0.516834
0.533373
0.386775
-0.0155792
0.608204
-0.592624
-0.055791
0.0402118
-0.051071
-0.00471999
0.019836
-0.070907
-0.121279
0.685212
-1.03242
0.572343
0.237238
0.0944705
0.0816306
-0.013732
-0.0678986
0.132916
-0.0512854
0.24016
-0.107244
0.393039
-0.152879
-0.199585
0.186693
-0.150012
0.293162
0.518741
0.824393
0.136451
-0.12955
0.159351
-0.166253
0.103649
-0.134374
0.167175
0.0664519
-0.140735
0.177932
0.0268078
-0.13967
0.179314
-0.0966685
0.123476
0.175082
-0.0911157
-0.213517
0.132234
-0.0915257
0.0840031
-0.0925036
0.0345276
-0.0901943
-0.0621409
0.184646
-0.0425657
-0.233196
0.134611
-0.0414905
0.0833619
-0.041255
0.0337265
-0.0405589
-0.0284143
0.198795
0.00839961
-0.24976
0.147083
0.0102219
0.0936868
0.0121408
0.0393242
0.0138037
0.0109099
0.201102
-0.251628
0.14849
0.0937871
0.0390889
0.0362215
-0.302665
-0.0556418
0.0130105
-0.332262
-0.00789772
-0.341298
-0.0156979
-0.322954
-0.199115
0.115354
-0.273628
-0.144391
0.0746242
-0.291532
0.0354676
-0.302142
0.00652968
-0.294016
-0.192585
0.132811
-0.236062
-0.170377
0.0933026
-0.252024
0.0541745
-0.263013
0.0188697
-0.258711
-0.173715
0.151266
-0.202951
-0.184376
0.110485
-0.211243
0.066876
-0.219405
0.0259613
-0.217797
-0.147754
0.1483
-0.1919
0.104233
0.0627603
0.0242777
0.390199
0.10362
-0.097839
0.386031
0.112009
-0.107842
0.352696
0.161474
-0.128139
0.29335
0.0832982
-0.0239518
-0.17517
0.302267
0.398641
0.100959
0.40138
0.10927
0.392189
0.170665
0.342222
0.133265
-0.0464646
0.40413
0.0928081
0.411929
0.101472
0.40787
0.174724
0.368843
0.172292
0.089183
0.408908
0.0798798
0.41823
0.09215
0.416388
0.176566
0.388506
0.200174
0.227929
0.410951
0.421195
0.416356
0.395171
0.413725
0.0963262
0.324651
0.0890736
0.234436
0.0902154
0.228823
0.00561235
-0.166078
0.394901
0.508538
0.48977
0.451847
0.433507
0.569696
0.316807
0.0780943
0.246548
0.0702589
0.163833
0.082715
0.0949166
0.0689162
0.027018
0.45589
0.341773
0.254111
0.178636
)
;

boundaryField
{
    left
    {
        type            calculated;
        value           nonuniform List<scalar> 
17
(
-0.60402
-0.60402
-0.60402
-0.60402
-0.60402
-0.39598
-0.39598
-0.39598
-0.39598
-0.39598
-0.39598
-0.39598
-0.39598
-0.39598
-0.39598
-0.510051
-0.510051
)
;
    }
    right
    {
        type            calculated;
        value           nonuniform List<scalar> 
17
(
0.141115
0.221608
0.152366
0.191305
0.24951
0.306582
0.358817
0.40104
0.449
0.505391
0.598041
0.695706
1.17239
1.11716
0.987815
0.549702
-0.0975405
)
;
    }
    down
    {
        type            calculated;
        value           uniform 0;
    }
    up
    {
        type            calculated;
        value           uniform 0;
    }
    cylinder
    {
        type            calculated;
        value           uniform 0;
    }
    defaultFaces
    {
        type            empty;
    }
}


// ************************************************************************* //
