/*--------------------------------*- C++ -*----------------------------------*\
  =========                 |
  \\      /  F ield         | OpenFOAM: The Open Source CFD Toolbox
   \\    /   O peration     | Website:  https://openfoam.org
    \\  /    A nd           | Version:  13
     \\/     M anipulation  |
\*---------------------------------------------------------------------------*/
FoamFile
{
    format      ascii;
    class       volVectorField;
    location    "72.5";
    object      U;
}
// * * * * * * * * * * * * * * * * * * * * * * * * * * * * * * * * * * * * * //

dimensions      [0 1 -1 0 0 0 0];

internalField   nonuniform List<vector> 
440
(
(-0.0712051 0.0777716 -2.77811e-20)
(-0.0527865 0.144334 3.29544e-20)
(0.13714 0.102702 -8.22992e-21)
(0.553644 0.0506303 1.26246e-19)
(0.78195 -0.000291841 -3.84192e-20)
(-0.0166392 0.00877165 6.22262e-21)
(0.181372 -0.0311169 -1.34583e-19)
(0.675839 -0.0819719 -7.91282e-20)
(1.22699 -0.122742 -3.41191e-20)
(1.74145 -0.165296 -5.22142e-20)
(0.0367009 -0.020659 3.21063e-20)
(0.604776 -0.0913761 9.22701e-19)
(1.38241 -0.0926844 -6.77827e-19)
(1.95547 -0.0773867 -2.08563e-18)
(2.44826 -0.0633795 1.00058e-18)
(0.255906 -0.0593906 -1.70422e-19)
(1.28256 -0.0207218 -6.82151e-19)
(2.04271 0.0388468 2.13922e-18)
(2.45068 0.0752622 2.49596e-18)
(2.48652 0.084148 -6.74723e-19)
(0.614407 -0.00838334 -3.2207e-19)
(1.80871 0.169635 -7.22801e-19)
(2.3403 0.239312 2.25688e-18)
(2.45116 0.245471 2.3555e-18)
(2.52584 0.219976 7.95022e-19)
(0.00686351 -0.118229 5.19066e-20)
(0.023579 -0.365956 -1.62064e-19)
(-0.0147921 -0.439988 2.9167e-19)
(-0.0948222 -0.400814 -6.78989e-20)
(-0.179486 -0.356181 -6.37922e-19)
(0.0129717 -0.0804477 1.99213e-20)
(0.00536949 -0.254079 -6.604e-21)
(-0.0897366 -0.239114 8.91385e-20)
(-0.190816 -0.163276 7.89554e-20)
(-0.251746 -0.152554 -1.32619e-19)
(-0.00128548 -0.01593 -4.46307e-19)
(-0.0479554 -0.110986 2.50631e-19)
(-0.14973 -0.0935261 -2.8148e-19)
(-0.211805 -0.0738929 -3.48637e-19)
(-0.198114 -0.126634 -6.69787e-21)
(-0.071868 0.0910983 7.97829e-20)
(-0.160119 0.0825699 -2.35623e-19)
(-0.20925 0.0624227 1.04266e-19)
(-0.168433 0.002166 1.61313e-18)
(-0.0490113 -0.100061 -3.46808e-19)
(-0.114995 0.146022 6.91423e-20)
(-0.143862 0.181516 8.45711e-20)
(-0.0651469 0.111869 1.64655e-19)
(0.107196 0.0176986 -1.22856e-19)
(0.299773 -0.0512659 -1.81119e-20)
(-0.638147 -0.392325 -1.99839e-19)
(1.24755 0.707193 -2.21005e-18)
(0.181737 1.05757 1.40151e-19)
(1.19858 -0.627923 -1.54308e-19)
(1.18764 -0.714175 9.24539e-21)
(-0.447916 -0.615692 1.68034e-18)
(1.73592 0.431231 2.68914e-19)
(0.749135 1.09236 -1.56701e-19)
(1.48629 -0.662668 -7.12065e-19)
(1.37816 -0.721025 -5.05935e-20)
(0.27783 -0.927482 9.81984e-19)
(1.44286 0.150698 -1.35737e-18)
(0.763645 1.10358 1.335e-19)
(1.69348 -0.725402 -7.11026e-19)
(1.53579 -0.727306 5.30926e-20)
(1.14212 -1.07172 -3.72736e-19)
(0.148767 0.0861863 6.53226e-20)
(0.374439 1.09506 5.2839e-19)
(1.92728 -0.795232 3.41328e-19)
(1.62825 -0.717329 3.28325e-20)
(1.87652 -1.04333 -5.27745e-19)
(-1.17023 0.091612 8.58195e-19)
(0.758839 0.795909 0)
(2.20365 -0.842291 -4.97247e-19)
(1.69652 -0.688675 -1.70673e-20)
(2.53292 -0.659488 -8.21317e-19)
(0.0891348 0.0708058 4.74558e-20)
(1.49605 0.175977 4.15581e-20)
(2.43604 -0.894233 -4.241e-19)
(1.73536 -0.635724 2.86871e-20)
(2.18091 -0.660449 7.89884e-20)
(0.9678 0.322109 -3.83635e-19)
(2.11022 -0.00712498 1.93543e-20)
(2.52797 -0.777075 1.02446e-18)
(1.63322 -0.481772 0)
(2.04604 -0.226575 -2.03001e-19)
(1.47232 0.13476 8.35872e-21)
(2.41655 -0.33867 4.01153e-19)
(2.16649 -0.673965 -3.45248e-19)
(1.25659 -0.343177 1.95405e-21)
(1.83472 -0.205891 -7.21935e-20)
(1.81563 0.0443077 1.16023e-19)
(2.16948 -0.27621 4.0223e-20)
(1.50655 -0.39036 7.26902e-34)
(0.609548 -0.14701 3.67881e-20)
(1.12481 -0.00576486 2.71386e-20)
(1.26018 -0.0736052 4.95375e-21)
(0.892446 -0.13591 -8.06839e-20)
(0.130862 -0.0249876 7.78984e-20)
(-0.258906 -0.00185837 -5.94894e-21)
(2.35623 0.220639 -1.01157e-18)
(2.62758 0.0261549 -1.34818e-18)
(2.34783 0.00269652 1.18997e-18)
(2.74457 -0.184907 -2.86743e-20)
(1.94356 -0.113615 -1.1034e-19)
(2.09673 0.143065 4.13965e-20)
(2.46423 0.018114 -4.4295e-20)
(2.19005 -0.0229108 -1.38919e-19)
(2.47231 -0.181191 -2.75099e-19)
(2.25487 -0.23777 -1.08462e-21)
(2.09437 0.0629646 6.7848e-20)
(2.17924 0.0332125 1.21015e-19)
(2.19234 -0.0549526 -1.70144e-19)
(2.19334 -0.0846813 5.06166e-20)
(2.24933 -0.182294 7.17728e-20)
(2.02104 0.0188946 1.13307e-19)
(1.9554 0.00456579 1.11676e-19)
(2.11991 -0.0397423 -1.58921e-20)
(2.00943 -0.0635299 2.18478e-20)
(2.17126 -0.0963938 8.69906e-21)
(1.44857 -0.0153454 1.60883e-19)
(1.39707 -0.00919516 -1.20302e-20)
(1.48216 -0.0289074 2.30906e-20)
(1.37538 -0.0160829 -8.05211e-21)
(1.49208 -0.0449896 3.7831e-20)
(1.59164 0.86019 1.12006e-18)
(1.545 0.956744 -3.3046e-19)
(1.54104 1.08516 -1.32905e-18)
(1.47577 1.13236 7.43324e-19)
(0.91479 0.824045 -1.85821e-19)
(1.86587 0.803371 -5.82175e-19)
(1.8396 0.886056 -3.02595e-18)
(1.84944 0.997134 -1.17238e-18)
(1.76655 1.01174 -4.28379e-19)
(1.08672 0.715824 -6.89421e-19)
(2.16265 0.691729 7.88461e-19)
(2.14615 0.759073 2.04911e-19)
(2.12651 0.846893 -2.33424e-18)
(1.9991 0.834668 -6.5712e-19)
(1.18725 0.556426 4.98971e-19)
(2.32626 0.562022 2.42135e-18)
(2.32224 0.613196 1.76689e-18)
(2.32553 0.667519 -2.04418e-18)
(2.11369 0.626277 -1.54358e-18)
(1.16222 0.364895 -2.92003e-19)
(2.46854 0.399933 1.21457e-18)
(2.48919 0.425073 -8.75933e-19)
(2.39655 0.448599 6.14773e-19)
(2.06675 0.395153 5.085e-19)
(0.975294 0.158361 -4.35698e-19)
(0.574152 0.436111 -6.65733e-19)
(0.485817 0.470006 -5.27587e-19)
(0.367583 0.503936 6.59411e-20)
(0.228802 0.513145 -1.63202e-20)
(0.0569619 0.375837 8.33128e-20)
(0.674502 0.613678 1.16019e-19)
(0.610842 0.673771 -3.01974e-19)
(0.523576 0.742693 1.88208e-19)
(0.397607 0.796271 -8.69389e-20)
(0.172161 0.608507 1.23058e-19)
(0.788162 0.797165 1.85421e-19)
(0.714048 0.875697 4.57104e-19)
(0.654774 0.975005 7.3021e-20)
(0.569655 1.03041 -2.98934e-19)
(0.312976 0.773649 2.44941e-19)
(1.04897 0.894874 2.44132e-19)
(1.00423 0.983025 -6.91904e-19)
(0.953777 1.08242 -1.93016e-18)
(0.870651 1.14767 7.84894e-19)
(0.516134 0.860723 -1.83897e-19)
(1.16223 0.914321 -1.35729e-19)
(1.18093 1.03845 -2.14387e-19)
(1.2023 1.16115 -3.48514e-19)
(1.15093 1.20298 -4.04954e-19)
(0.71117 0.879118 -6.63793e-21)
(1.02081 0.0535113 -1.00749e-19)
(0.980131 0.0344599 -3.87162e-20)
(1.04055 0.108083 -1.41465e-21)
(0.947635 0.144641 -3.3274e-19)
(0.884383 0.264612 3.18684e-19)
(1.01111 0.0515464 6.38885e-20)
(0.989425 0.0331109 1.35072e-19)
(1.03384 0.112319 1.28505e-19)
(0.980229 0.177538 4.27655e-20)
(0.928908 0.341455 -6.06132e-21)
(1.01673 0.0507514 8.71028e-20)
(0.971018 0.0277251 -5.01384e-21)
(1.0865 0.127722 -7.16367e-21)
(0.930693 0.181543 1.68885e-19)
(1.13285 0.476797 -4.79406e-19)
(1.00985 0.0516079 -4.58319e-22)
(0.987285 0.0173078 -1.89217e-19)
(1.09518 0.139988 -6.90794e-20)
(1.00296 0.198208 -4.12728e-19)
(1.16061 0.517991 1.04145e-19)
(1.00375 0.045776 -1.58877e-20)
(0.993854 0.0162941 5.3926e-20)
(1.1476 0.146543 3.35699e-20)
(0.965217 0.224499 4.80204e-19)
(1.43354 0.642594 -4.5874e-19)
(0.961829 0.0487524 -1.16101e-20)
(1.06388 -0.00993367 1.11109e-19)
(1.15331 0.173202 -9.36668e-20)
(1.1734 0.165006 8.4999e-19)
(1.32705 0.657568 -4.12624e-19)
(0.896906 0.022872 -1.63913e-21)
(1.16509 -0.0323834 -1.10132e-19)
(1.12765 0.113428 4.71817e-21)
(1.22627 0.184215 -2.54992e-19)
(1.33844 0.398284 1.59947e-20)
(0.954966 0.0173955 -6.82622e-21)
(1.15528 -0.0646777 1.45338e-35)
(1.1023 0.12147 -5.8321e-20)
(1.19408 0.1304 7.78433e-20)
(1.49352 0.228922 1.65627e-19)
(1.097 -0.0396487 4.27677e-21)
(1.00417 -0.0649533 -2.48738e-20)
(1.07491 0.081583 1.69015e-20)
(1.22508 0.0617712 3.53385e-20)
(1.50556 0.120886 -2.42156e-19)
(1.00814 -0.0255198 -4.26404e-20)
(0.753358 -0.0196544 -3.69615e-21)
(0.862825 0.0145409 2.27237e-20)
(0.939859 -0.0069759 -1.05546e-20)
(1.06652 0.036559 -5.43025e-20)
(1.8207 0.674565 3.44905e-19)
(1.90722 0.658218 8.06573e-19)
(2.17868 0.544878 -1.13551e-18)
(2.20895 0.483613 4.20969e-20)
(2.45246 0.296213 4.86702e-19)
(1.78789 0.493519 5.25658e-20)
(1.79734 0.426239 1.0175e-18)
(2.06272 0.400323 9.6198e-20)
(1.98078 0.302594 -9.44355e-19)
(2.31005 0.212846 -3.10408e-19)
(1.70967 0.355648 -2.13607e-19)
(1.79838 0.26624 -1.48112e-19)
(1.90293 0.286573 2.58107e-19)
(1.9642 0.172366 -3.04065e-19)
(2.07795 0.16098 2.70731e-19)
(1.62663 0.205929 3.0154e-19)
(1.71831 0.142236 -1.99651e-21)
(1.74433 0.155509 2.18878e-19)
(1.87835 0.0804311 1.8967e-19)
(1.86681 0.0794269 -1.83162e-19)
(1.24764 0.0481526 -3.42561e-20)
(1.27717 0.0271494 2.06445e-19)
(1.32673 0.0255354 1.02434e-19)
(1.37952 0.00219653 -2.24043e-19)
(1.38813 0.00354114 3.73052e-22)
(1.2241 -0.0315676 5.21399e-20)
(2.2924 -0.0450015 -4.55443e-19)
(2.5252 -0.0336138 1.27777e-18)
(2.52319 0.0126444 5.82274e-19)
(2.33527 0.036556 -3.8332e-19)
(0.752285 0.0906518 9.04262e-20)
(2.06645 0.0858135 -4.7012e-19)
(2.54183 0.090135 -6.38669e-19)
(2.57116 0.104808 8.09763e-19)
(2.34885 0.0973785 -5.31663e-19)
(0.197567 0.0718579 -3.89276e-20)
(1.40855 0.149628 4.94045e-19)
(2.20945 0.183454 8.06769e-20)
(2.61668 0.183064 6.00256e-19)
(2.71715 0.180795 3.38262e-19)
(-0.0747432 -0.0419306 2.19155e-19)
(0.499072 0.0733005 2.17551e-19)
(1.38967 0.162987 -4.88318e-19)
(1.94116 0.216949 3.19843e-20)
(2.58552 0.255164 1.58405e-19)
(-0.132986 -0.109994 1.5624e-19)
(-0.0325744 -0.0710344 -1.72517e-19)
(0.508306 0.0365795 -1.68646e-20)
(1.00275 0.0844896 2.65013e-20)
(1.58921 0.207338 -2.37006e-20)
(-0.103157 -0.112476 3.37197e-20)
(-0.175783 -0.15559 1.05533e-19)
(-0.0258496 -0.159334 5.49909e-20)
(0.156254 -0.133935 -4.15856e-20)
(0.720254 -0.00811486 1.32345e-20)
(-0.0596636 -0.0790884 -1.15243e-20)
(-0.154333 -0.171252 -7.17902e-20)
(-0.167796 -0.234798 -3.31287e-20)
(-0.128752 -0.249888 -2.54618e-20)
(0.0749649 -0.12907 -2.84959e-21)
(-0.0252586 -0.0477392 7.26966e-21)
(-0.0826891 -0.174035 2.27563e-19)
(-0.108463 -0.293603 -2.15694e-19)
(-0.101955 -0.372652 -5.91548e-19)
(-0.0677661 -0.364554 1.43302e-19)
(-0.0147819 -0.0670607 -1.77506e-20)
(-0.0303081 -0.264399 -1.14718e-19)
(-0.0187694 -0.436718 3.19293e-19)
(0.00118426 -0.53235 2.70909e-19)
(0.01161 -0.570401 -5.92104e-20)
(-0.00909878 -0.105298 1.22129e-20)
(-0.00278122 -0.360479 -3.86889e-20)
(0.00126304 -0.515869 1.28361e-20)
(-0.0197636 -0.551524 6.72373e-21)
(-0.0502396 -0.521667 -1.27545e-19)
(1.42471 0.671303 -2.60434e-20)
(1.72868 0.382024 3.53867e-19)
(0.594742 0.390125 1.45978e-19)
(-0.329498 -0.159621 3.64606e-20)
(0.612779 -0.412831 -3.61835e-20)
(1.14798 0.501724 9.67477e-21)
(1.79618 0.42788 1.25463e-19)
(0.490355 0.601342 9.04607e-19)
(0.00391582 -0.185362 -4.4407e-21)
(0.626064 -0.51844 1.60916e-19)
(0.944922 0.247274 2.31046e-19)
(1.66439 0.591521 4.8841e-19)
(0.150859 0.78759 -3.37286e-20)
(0.28444 -0.248987 -1.10497e-18)
(0.702555 -0.594212 -3.59045e-20)
(0.493815 -0.130075 1.85221e-19)
(1.58726 0.611534 -4.37147e-19)
(-0.040449 0.924875 -4.99383e-19)
(0.61859 -0.368448 2.71656e-21)
(0.835132 -0.655028 -7.05189e-20)
(-0.220637 -0.232855 -8.97976e-21)
(1.2635 0.773891 2.61573e-19)
(-0.116946 1.04164 3.42228e-19)
(0.942227 -0.496417 -5.6316e-20)
(1.01695 -0.683187 -1.27181e-19)
(-0.00786333 0.176253 -4.4993e-20)
(-0.309625 -0.180394 0)
(-0.47094 -0.0929584 6.49649e-21)
(-0.472637 -0.0848103 -1.88468e-20)
(0.400598 -0.051769 1.22392e-20)
(1.84565 0.607738 0)
(1.32471 0.34889 0)
(0.366247 0.112203 -2.07953e-19)
(-0.512847 -0.159884 -9.04127e-20)
(0.663811 -0.240443 1.02642e-19)
(0.744674 0.00315899 -1.19581e-19)
(0.774237 -0.00815414 9.85003e-20)
(1.05492 0.0176865 -4.56246e-20)
(0.931579 -0.0019362 3.56122e-19)
(1.46721 0.126705 2.47877e-19)
(1.68524 0.0309474 1.12242e-19)
(1.86603 0.0709233 2.14331e-19)
(2.03641 0.0679518 -4.48321e-19)
(2.57607 0.213688 4.84885e-20)
(2.40344 0.180089 2.24659e-19)
(0.921048 -0.490936 1.11003e-20)
(0.908513 -0.582543 -1.67364e-19)
(0.903898 -0.682327 -1.50137e-19)
(0.834756 -0.751221 8.98536e-20)
(0.505151 -0.586145 1.23476e-19)
(0.826649 -0.401061 1.2196e-19)
(0.771188 -0.466446 2.1929e-19)
(0.694804 -0.536017 -6.33244e-20)
(0.577275 -0.594367 1.2515e-19)
(0.312627 -0.467753 3.64509e-20)
(0.651939 -0.263705 -1.54528e-19)
(0.559472 -0.303043 -4.64317e-20)
(0.458029 -0.353885 7.57923e-20)
(0.343623 -0.398838 -2.73343e-20)
(0.154942 -0.313226 -1.09769e-19)
(0.553643 -0.0303643 -4.47114e-19)
(0.469376 -0.0469696 -3.68511e-19)
(0.361748 -0.0747049 2.90612e-19)
(0.235439 -0.110204 1.78891e-19)
(0.0676509 -0.102999 1.40669e-20)
(0.526368 0.173084 -1.75339e-19)
(0.441142 0.176218 -1.77712e-19)
(0.325604 0.177925 -7.22196e-20)
(0.189395 0.182616 2.86864e-20)
(0.0297854 0.138567 1.33196e-20)
(2.09608 -0.0369447 8.24891e-19)
(2.3394 -0.106596 3.04401e-19)
(2.42591 -0.194902 -7.78904e-19)
(2.28116 -0.220957 -1.60452e-18)
(1.37614 -0.200691 1.14857e-19)
(2.05612 -0.125537 1.3908e-18)
(2.15915 -0.237036 1.81102e-18)
(2.17094 -0.359886 1.47519e-19)
(2.09273 -0.421239 2.51605e-19)
(1.3441 -0.377049 -1.66639e-19)
(1.776 -0.291463 -3.60735e-18)
(1.82444 -0.408542 4.35341e-19)
(1.86632 -0.534378 1.12327e-18)
(1.80921 -0.611195 -4.48676e-19)
(1.17554 -0.523201 6.983e-19)
(1.54222 -0.413709 8.6769e-19)
(1.55905 -0.511753 -2.25612e-18)
(1.54648 -0.630149 -2.64021e-18)
(1.47811 -0.720398 8.21739e-19)
(0.951614 -0.596958 5.26686e-19)
(1.25326 -0.476362 1.91221e-19)
(1.19899 -0.569261 2.36005e-19)
(1.18343 -0.691216 -3.97631e-19)
(1.12639 -0.778023 -4.81026e-19)
(0.710905 -0.618177 -4.60558e-21)
(1.06752 0.0572588 7.73437e-21)
(0.917631 0.0518876 -5.20185e-21)
(1.13034 0.0728358 -7.01959e-21)
(0.798283 0.00260289 -1.86837e-19)
(1.14229 -0.224411 -8.09659e-21)
(1.07707 0.0611564 -2.58929e-21)
(0.91565 0.0489549 5.36497e-20)
(1.12414 0.0900077 -4.86126e-20)
(0.885528 0.0487821 9.83226e-20)
(1.00594 -0.107526 -2.30758e-20)
(1.07523 0.0589447 -6.34584e-20)
(0.91959 0.0442486 5.86619e-22)
(1.11039 0.0902491 -1.90554e-20)
(0.880661 0.0710814 7.69596e-21)
(0.976877 -0.049818 -1.71358e-19)
(1.05643 0.0578267 7.74456e-20)
(0.948297 0.0398521 3.49861e-21)
(1.06984 0.0951953 3.31591e-20)
(0.926317 0.0975876 4.4622e-20)
(0.867267 0.0648135 1.13078e-19)
(1.0329 0.0548695 1.94719e-20)
(0.97535 0.0386333 -3.18894e-20)
(1.03903 0.0982589 4.45274e-20)
(0.95149 0.127643 9.08963e-20)
(0.838705 0.158558 -1.04374e-19)
(0.889331 0.0337721 0)
(0.704891 0.0276815 9.96912e-21)
(0.617506 0.0226109 2.80868e-21)
(0.350176 -0.00690667 3.98735e-20)
(0.691991 -0.0576008 -1.17464e-19)
(1.0352 0.0758067 -6.53935e-20)
(0.928677 0.0689597 -1.75302e-20)
(1.03867 0.0744958 -3.14566e-20)
(0.811086 -9.75798e-05 -9.96758e-20)
(1.05142 -0.203895 -1.22046e-19)
(0.968651 -0.0640861 -2.78654e-20)
(1.05284 -0.0336547 4.78808e-19)
(1.14934 0.0374044 3.03309e-19)
(1.01752 0.0576735 2.19564e-20)
(0.789337 0.0304465 0)
(1.33731 -0.318374 2.80081e-19)
(1.45426 -0.280504 1.43145e-18)
(1.63668 -0.161436 -1.63819e-18)
(1.72844 -0.0212506 -5.168e-19)
(1.64626 0.03041 3.7338e-19)
)
;

boundaryField
{
    left
    {
        type            fixedValue;
        value           uniform (1 0 0);
    }
    right
    {
        type            zeroGradient;
    }
    down
    {
        type            noSlip;
    }
    up
    {
        type            noSlip;
    }
    cylinder
    {
        type            noSlip;
    }
    defaultFaces
    {
        type            empty;
    }
}


// ************************************************************************* //
