# Forces      
# CofR        : (0.000000e+00 0.000000e+00 0.000000e+00)
# Time        forces(pressure viscous)	moments(pressure viscous)
4.61          	((5.500666e+00 -2.756832e-01 1.181159e-18) (1.181907e+00 1.414838e-01 7.325976e-17)) ((4.690928e-19 -8.755412e-19 1.866738e-07) (5.908486e-17 -4.681212e-17 -2.651150e-02))
4.615         	((8.399370e+00 -9.797682e-01 5.933964e-19) (1.181415e+00 1.400309e-01 1.389171e-18)) ((1.799473e-19 -3.832876e-19 -2.062152e-07) (4.385132e-18 -2.382339e-19 -2.667275e-02))
