/*--------------------------------*- C++ -*----------------------------------*\
  =========                 |
  \\      /  F ield         | OpenFOAM: The Open Source CFD Toolbox
   \\    /   O peration     | Website:  https://openfoam.org
    \\  /    A nd           | Version:  13
     \\/     M anipulation  |
\*---------------------------------------------------------------------------*/
FoamFile
{
    format      ascii;
    class       volScalarField;
    location    "0.845";
    object      p;
}
// * * * * * * * * * * * * * * * * * * * * * * * * * * * * * * * * * * * * * //

dimensions      [0 2 -2 0 0 0 0];

internalField   nonuniform List<scalar> 
440
(
7.82689
10.5833
12.9457
13.1273
10.151
20.7169
24.1002
27.0956
27.796
25.9079
41.2535
44.2848
46.9878
47.7804
46.6194
67.3863
69.4841
71.3975
72.0541
71.3666
96.6625
97.4795
98.2765
98.6766
98.643
-0.451397
-0.551386
-0.0798203
0.481511
0.824615
-1.67477
-2.34195
-2.08318
-1.38823
-0.750662
-2.01879
-2.9018
-2.82638
-2.07392
-0.957428
-0.678384
-0.811567
-0.408206
0.553621
2.41713
3.08437
4.39564
5.8243
7.2547
9.50343
2.0865
2.26645
1.3351
0.679769
0.237793
1.06025
2.08057
1.21745
0.621039
0.232519
-0.092364
1.67021
1.08842
0.57538
0.225103
-0.40393
1.06518
0.879011
0.542648
0.21323
1.50215
0.474458
0.595133
0.485677
0.189456
4.37204
0.245796
0.342653
0.413799
0.145674
6.71816
0.709946
0.445208
0.408799
0.0823491
9.98264
2.44765
1.08962
0.54108
0.0488789
13.871
4.74641
2.1338
0.822548
0.0590741
16.6069
7.10766
3.45389
1.311
0.164124
100.687
75.8384
53.3227
33.1476
12.3445
102.382
78.941
57.536
39.056
23.4821
104.283
82.7006
62.4737
45.2336
32.887
105.166
85.0196
66.5013
51.1821
40.6556
105.085
84.7421
66.3272
51.2496
40.8951
219.867
216.385
216.089
218.204
220.937
202.687
200.22
200.478
203.219
206.511
180.539
178.766
179.129
181.552
184.43
154.74
153.397
153.602
155.196
157.092
126.859
126.146
126.085
126.545
127.138
235.595
236.027
236.67
237.1
236.847
236.156
236.795
237.355
237.335
236.384
234.934
235.91
236.326
236.054
235.067
230.046
231.644
232.206
232.34
232.249
221.565
223.426
224.435
225.643
226.997
235.712
234.73
234.894
234.144
234.279
235.677
234.713
234.841
234.097
234.798
235.665
234.672
234.776
234.205
235.306
235.667
234.605
234.766
234.455
234.892
235.673
234.517
234.834
234.653
232.207
235.688
234.37
234.881
234.427
228.723
235.887
234.23
234.769
233.929
226.353
236.795
234
234.143
232.247
223.332
240.844
233.977
232.966
229.791
219.661
249.816
234.705
231.744
227.247
216.91
217.76
196.234
175.026
151.731
126.445
207.363
191.368
172.323
150.419
126.65
198.875
186.195
168.613
148.086
126.332
191.743
180.783
165.098
146.26
125.918
191.526
180.764
165.353
146.659
126.149
96.3941
95.5173
95.0696
94.3027
94.1461
57.3121
55.3652
53.6598
51.738
50.972
29.4811
27.1378
24.3751
22.0759
20.7514
15.029
12.6124
10.1468
8.12657
7.15599
9.1993
7.31152
5.92469
4.94938
4.36217
5.96883
4.86683
4.28728
4.19879
4.28712
4.05985
3.60063
3.52891
3.68489
3.83864
2.75036
2.7373
2.97166
3.27561
3.43416
1.65002
1.95477
2.40703
2.75806
2.90291
0.605414
1.00171
1.57472
1.97733
2.15192
3.60833
3.17542
2.06215
0.952076
0.270191
3.66187
3.00361
1.96994
0.896206
0.259617
3.46216
2.74099
1.84084
0.845214
0.252065
3.14166
2.49685
1.6778
0.794135
0.24732
2.72678
2.35096
1.49478
0.73879
0.242811
4.47576
3.15806
1.97525
0.997084
0.306344
3.73936
3.25339
2.06425
0.988835
0.284634
94.9017
54.1421
27.5041
14.4802
9.45987
93.6804
51.1326
22.9806
9.4645
5.25408
232.144
232.225
232.174
231.658
230.58
232.731
232.905
233.134
233.172
232.796
233.294
233.467
233.854
234.252
234.422
233.897
234.048
234.453
235.057
235.477
234.645
234.882
235.388
236.004
236.265
141.979
141.787
140.959
140.448
139.537
185.214
184.405
182.426
180.66
178.682
215.514
214.144
211.794
208.98
206.605
229.151
228.144
226.093
223.595
221.15
231.999
231.385
230.413
229.03
227.13
238.82
234.445
234.527
233.514
232.897
237.116
234.487
234.615
233.681
232.914
236.347
234.577
234.719
233.905
233.245
235.974
234.66
234.823
234.109
233.626
235.793
234.713
234.891
234.195
233.945
252.262
235.785
234.882
233.45
231.98
243.168
234.691
234.464
233.394
232.7
226.936
221.862
208.754
182.037
141.228
231.134
226.891
213.308
185.06
142.451
)
;

boundaryField
{
    left
    {
        type            zeroGradient;
    }
    right
    {
        type            fixedValue;
        value           uniform 0;
    }
    down
    {
        type            zeroGradient;
    }
    up
    {
        type            zeroGradient;
    }
    cylinder
    {
        type            zeroGradient;
    }
    defaultFaces
    {
        type            empty;
    }
}


// ************************************************************************* //
