/*--------------------------------*- C++ -*----------------------------------*\
  =========                 |
  \\      /  F ield         | OpenFOAM: The Open Source CFD Toolbox
   \\    /   O peration     | Website:  https://openfoam.org
    \\  /    A nd           | Version:  13
     \\/     M anipulation  |
\*---------------------------------------------------------------------------*/
FoamFile
{
    format      ascii;
    class       volScalarField;
    location    "0.845";
    object      strainRateViscosityModel:nu;
}
// * * * * * * * * * * * * * * * * * * * * * * * * * * * * * * * * * * * * * //

dimensions      [0 2 -1 0 0 0 0];

internalField   nonuniform List<scalar> 
440
(
9.41954
8.96974
8.54453
8.0424
7.5862
9.68995
9.35817
8.98178
8.48005
7.87557
9.80074
9.53084
9.15877
8.58509
7.84825
9.84962
9.61817
9.25861
8.64755
7.86606
9.86917
9.65606
9.30591
8.68093
7.90878
1.30817
1.79069
2.04989
2.29993
2.36402
3.38668
3.30211
3.31591
3.42387
3.49458
5.89259
5.27135
4.92743
4.72706
4.75666
7.76956
6.99346
6.42027
5.90453
5.82684
8.82064
8.15138
7.55212
6.91817
6.87147
1.85112
0.846101
0.423547
0.164557
0.175742
2.6151
0.906998
0.36861
0.13511
0.0636058
3.51127
1.14604
0.302662
0.099818
0.0171785
4.09088
1.43375
0.276048
0.0542979
0.0760425
4.60373
1.75103
0.321447
0.011497
0.182414
4.22921
1.73957
0.307219
0.0750486
0.285675
3.71183
1.82492
0.633325
0.308423
0.414098
4.91999
3.20827
1.2426
0.557529
0.525744
7.00947
4.28804
1.91789
0.899343
0.645414
8.27284
5.07606
2.49628
1.30365
0.821167
2.8482
3.68252
4.61961
5.50544
6.14867
3.68376
3.69668
3.77231
3.8523
3.36793
8.22648
8.08653
7.7993
7.38544
6.34648
9.0529
8.99236
8.85903
8.62148
8.16014
9.60671
9.56995
9.48702
9.33805
9.1188
7.5032
8.01244
8.55946
9.01088
9.46416
7.794
8.45167
8.98716
9.37788
9.70863
7.779
8.55906
9.15943
9.54077
9.80944
7.81628
8.62756
9.25739
9.62275
9.85359
7.89134
8.67366
9.30535
9.65743
9.87034
2.53426
2.47527
2.27531
2.1209
2.0499
3.48058
3.43267
3.47342
3.69367
4.24742
4.63562
4.65895
5.04957
5.59949
6.45213
5.68318
5.82536
6.49717
7.1878
8.0412
6.75298
6.8415
7.58027
8.24267
8.93535
0.211936
0.0619441
0.284394
0.873376
2.02825
0.184599
0.0775316
0.229791
0.890913
2.66083
0.165682
0.079908
0.171821
1.08162
3.43987
0.153806
0.0620176
0.155923
1.38533
3.94108
0.155792
0.0670926
0.247819
1.73359
4.36375
0.204326
0.104985
0.272801
1.86871
4.10021
0.336907
0.122774
0.279316
1.81537
3.862
0.667608
0.240743
0.773509
3.0376
4.90845
2.27527
0.81404
1.50864
4.16243
6.96073
5.05757
2.53689
2.41899
5.03758
8.27915
5.94681
5.26587
4.4022
3.51032
2.77976
3.52249
3.99128
3.97108
3.87641
3.76366
6.32107
7.35232
7.779
8.06767
8.21846
8.1212
8.59992
8.84943
8.98861
9.05202
9.11694
9.33781
9.48741
9.57051
9.60696
9.31089
7.91689
1.39867
3.63025
7.73684
9.08188
7.44085
3.20602
1.64078
6.78909
8.39874
6.57776
4.20855
1.0036
4.14773
6.81573
5.09481
3.45533
1.70075
1.03872
4.50392
3.14531
2.0388
1.37801
0.460096
2.59742
1.61864
1.00255
0.797203
0.926795
1.45653
0.779261
0.580217
0.613581
0.686228
0.80119
0.406583
0.591776
0.760564
0.833819
0.305231
0.509151
0.886432
1.05228
1.11365
0.163237
0.935591
1.28172
1.51812
1.57266
0.190555
0.363109
0.711084
0.7784
0.731098
0.396181
0.502047
0.580133
0.637852
0.622445
0.615464
0.649289
0.466206
0.494548
0.510107
0.967632
0.798128
0.419367
0.355736
0.395887
1.33174
0.847895
0.425425
0.239432
0.280011
1.10583
0.859012
1.12457
1.10919
0.99542
0.283579
0.472396
0.866941
0.921208
0.844041
9.19119
8.83869
7.75887
5.73032
3.55981
8.58733
7.72296
5.85165
3.4915
0.865936
0.964531
0.858172
1.02675
1.62021
2.65827
0.812998
0.766976
0.703525
0.82444
1.52677
1.0594
1.01065
0.847396
0.552864
0.745015
1.38487
1.34786
1.14994
0.798207
0.22887
1.85745
1.81078
1.55856
1.24045
0.598506
7.73637
3.62719
1.39996
7.91513
9.31104
6.78528
1.64059
3.20266
7.43775
9.08252
4.13439
1.01086
4.1944
6.57318
8.40031
1.03686
1.70534
3.43373
5.08571
6.82223
0.476006
1.37622
2.01482
3.12774
4.52679
1.31241
0.541147
0.550868
0.452558
0.175745
0.678662
0.290179
0.468757
0.519171
0.485378
0.401017
0.151821
0.381977
0.621171
0.803944
0.291632
0.0681314
0.341941
0.774295
1.22413
0.247054
0.0460361
0.320265
0.860464
1.58983
5.48142
2.46059
1.03475
0.959249
1.14174
2.88799
1.08744
0.724223
0.55443
0.252319
3.56821
5.73583
7.76005
8.83922
9.19134
0.843718
3.47226
5.84507
7.72158
8.58717
)
;

boundaryField
{
    left
    {
        type            calculated;
        value           nonuniform List<scalar> 
17
(
0.459567
1.12508
2.18677
3.90999
6.58055
0.305215
0.189293
0.138519
0.143965
0.214587
2.95952
2.06245
1.34076
0.82275
0.501149
6.97887
4.5798
)
;
    }
    right
    {
        type            calculated;
        value           nonuniform List<scalar> 
17
(
0.995713
0.845491
0.73324
0.625394
0.512588
0.395326
0.273398
0.161674
0.0507841
0.0152195
0.0928149
0.234473
0.349714
0.468011
0.558999
0.658237
0.813181
)
;
    }
    down
    {
        type            calculated;
        value           nonuniform List<scalar> 
20
(
5.99528
2.99995
1.1443
1.04178
1.85313
4.27032
6.38393
8.1315
9.01584
9.30929
9.30912
9.01519
8.13
6.37989
4.26419
1.83177
0.933555
1.19103
1.16609
1.04243
)
;
    }
    up
    {
        type            calculated;
        value           nonuniform List<scalar> 
20
(
8.54863
5.40408
2.72572
1.45396
0.887819
9.69562
9.66615
9.59857
9.47421
9.2934
9.2964
9.47647
9.60018
9.66726
9.69603
5.70547
3.14811
2.65906
5.39341
8.56556
)
;
    }
    cylinder
    {
        type            calculated;
        value           nonuniform List<scalar> 
40
(
1.37488
3.59171
6.11886
7.96028
8.95702
9.50511
9.74576
9.84079
9.88145
9.89745
9.54742
9.76283
9.84855
9.88495
9.89848
2.28847
4.52524
6.69908
8.23421
9.06983
3.04371
1.85057
1.09483
0.447226
0.605592
9.51906
9.33191
8.74237
7.26984
4.98628
9.5189
9.33117
8.7403
7.26159
4.95771
2.96605
1.73369
1.07396
0.667231
0.103085
)
;
    }
    defaultFaces
    {
        type            empty;
    }
}


// ************************************************************************* //
