/*--------------------------------*- C++ -*----------------------------------*\
  =========                 |
  \\      /  F ield         | OpenFOAM: The Open Source CFD Toolbox
   \\    /   O peration     | Website:  https://openfoam.org
    \\  /    A nd           | Version:  13
     \\/     M anipulation  |
\*---------------------------------------------------------------------------*/
FoamFile
{
    format      ascii;
    class       volScalarField;
    location    "41";
    object      p;
}
// * * * * * * * * * * * * * * * * * * * * * * * * * * * * * * * * * * * * * //

dimensions      [0 2 -2 0 0 0 0];

internalField   nonuniform List<scalar> 
440
(
-0.652933
-0.639798
-0.706954
-0.615308
-0.693926
-0.61489
-0.611907
-0.614635
-0.609396
-0.607129
-0.739849
-0.710166
-0.681978
-0.647778
-0.608186
-0.859598
-0.815032
-0.741065
-0.652272
-0.561809
-0.956281
-0.89567
-0.760825
-0.618818
-0.487137
-1.23827
-1.20794
-1.16526
-1.1214
-1.08747
-1.20775
-1.17839
-1.14133
-1.10697
-1.0812
-1.19372
-1.21004
-1.25621
-1.32136
-1.39799
-0.945892
-1.01114
-1.14238
-1.3006
-1.40427
-0.221429
-0.319352
-0.437079
-0.481652
-0.44743
-0.781263
-1.87488
-1.34821
-0.0790202
0.0335003
-0.633077
-1.85225
-1.63928
-0.118842
0.0147531
-0.529942
-1.6459
-1.70549
-0.152683
0.00261329
-0.392855
-1.35684
-1.64674
-0.188344
-0.0104789
-0.29167
-1.07906
-1.48997
-0.219834
-0.0203416
0.277227
-0.809379
-1.22211
-0.218954
-0.0281524
-0.168004
-0.595732
-0.856837
-0.205283
-0.0392463
-0.0528932
-0.361268
-0.577436
-0.22305
-0.0588534
-0.00948857
-0.262848
-0.447373
-0.211824
-0.0718269
0.0296056
-0.0973879
-0.344718
-0.238217
-0.0831113
-0.257718
-0.390257
-0.535809
-0.696452
-0.759076
-0.0281427
-0.159501
-0.226752
-0.267017
-0.263879
0.117961
0.0150862
-0.0495158
-0.0898703
-0.111299
0.212146
0.118672
0.0445872
0.00152552
-0.0250825
0.256395
0.163749
0.0854782
0.0435496
0.0178744
0.951682
0.816686
0.645502
0.45141
0.230719
0.573822
0.424063
0.23755
0.0264827
-0.210552
0.194166
0.0391643
-0.155595
-0.378154
-0.585462
-0.124975
-0.285639
-0.479921
-0.69006
-0.847805
-0.346241
-0.500686
-0.678135
-0.862291
-0.963356
2.10411
2.13715
2.16972
2.18958
2.19184
1.93055
1.95293
1.97146
1.97431
1.95674
1.71517
1.70906
1.68215
1.63351
1.56023
1.46465
1.43414
1.3709
1.27786
1.15619
1.21149
1.12293
1.00353
0.86001
0.683836
1.83635
1.8295
1.81705
1.8744
1.98006
1.82755
1.81849
1.80173
1.8544
1.90385
1.81974
1.8043
1.78355
1.82149
1.80735
1.8132
1.78766
1.76284
1.77669
1.65603
1.80788
1.77001
1.74008
1.72921
1.49376
1.80438
1.7414
1.70961
1.63639
1.31466
1.80499
1.71063
1.69335
1.52317
1.32733
1.8107
1.69655
1.68246
1.46519
1.29652
1.80549
1.67314
1.67881
1.42014
1.27519
1.84496
1.66434
1.67913
1.39516
1.27651
0.922063
0.655027
0.33812
0.0815275
-0.112979
0.867872
0.678701
0.458074
0.272943
0.0990978
0.8825
0.722792
0.553232
0.392151
0.242547
0.922259
0.773229
0.622575
0.47114
0.336768
0.949816
0.805478
0.662644
0.514503
0.384204
-1.9357
-1.74548
-1.54019
-1.36825
-1.26399
-2.01488
-1.92557
-1.75609
-1.60331
-1.49681
-1.93097
-1.87369
-1.75054
-1.62499
-1.51527
-1.76316
-1.71067
-1.64131
-1.56073
-1.47684
-1.59043
-1.5604
-1.52258
-1.48149
-1.44198
-1.49554
-1.48469
-1.44555
-1.47913
-1.43437
-1.46678
-1.45624
-1.43207
-1.46371
-1.42379
-1.44725
-1.44098
-1.43843
-1.45264
-1.4651
-1.39147
-1.38709
-1.38721
-1.39767
-1.42406
-1.30817
-1.29448
-1.27744
-1.26209
-1.26342
-1.22453
-1.1052
-0.430214
0.0749173
0.108049
-1.25491
-1.25336
-0.443864
-0.0364915
0.107346
-1.28195
-1.45134
-0.433274
-0.116878
0.107282
-1.16485
-1.65708
-0.448863
-0.0877087
0.0998993
-0.93556
-1.77295
-0.874918
-0.0582209
0.0660682
-0.722033
-1.1661
-0.546848
0.11739
0.108993
-1.1093
-1.13383
-0.447602
0.142063
0.10999
-1.2049
-1.41769
-1.42136
-1.32558
-1.08169
-1.22686
-1.43854
-1.43717
-1.37005
-1.3081
1.66107
1.62753
1.57409
1.502
1.40737
1.87003
1.88603
1.8843
1.86287
1.82237
2.05075
2.08119
2.10201
2.10894
2.10071
2.15898
2.19816
2.23951
2.27281
2.28717
2.17792
2.2168
2.2604
2.2973
2.31466
-0.750063
-0.877016
-1.0759
-1.31126
-1.6038
-0.0788294
-0.236463
-0.445239
-0.697536
-1.03164
0.537887
0.376394
0.181528
-0.0498647
-0.349457
1.03415
0.906372
0.751689
0.563861
0.33099
1.42898
1.33919
1.22195
1.08056
0.912125
1.89519
1.85526
1.83968
1.83736
1.83585
1.88046
1.85334
1.84038
1.85829
1.91151
1.86802
1.85002
1.84145
1.88094
1.99715
1.85652
1.84529
1.83706
1.88916
2.01521
1.84597
1.83877
1.8287
1.88716
2.01589
1.94969
1.85918
1.82428
1.75452
1.69911
1.90496
1.85093
1.82043
1.77864
1.70897
1.30059
1.04627
0.609673
-0.0221209
-0.709768
1.39283
1.08507
0.627357
-0.000263444
-0.702808
)
;

boundaryField
{
    left
    {
        type            zeroGradient;
    }
    right
    {
        type            fixedValue;
        value           uniform 0;
    }
    down
    {
        type            zeroGradient;
    }
    up
    {
        type            zeroGradient;
    }
    cylinder
    {
        type            zeroGradient;
    }
    defaultFaces
    {
        type            empty;
    }
}


// ************************************************************************* //
