/*--------------------------------*- C++ -*----------------------------------*\
  =========                 |
  \\      /  F ield         | OpenFOAM: The Open Source CFD Toolbox
   \\    /   O peration     | Website:  https://openfoam.org
    \\  /    A nd           | Version:  13
     \\/     M anipulation  |
\*---------------------------------------------------------------------------*/
FoamFile
{
    format      ascii;
    class       surfaceScalarField;
    location    "41";
    object      phi;
}
// * * * * * * * * * * * * * * * * * * * * * * * * * * * * * * * * * * * * * //

dimensions      [0 3 -1 0 0 0 0];

internalField   nonuniform List<scalar> 
823
(
-0.0035721
0.0229725
-0.0194004
0.00207395
0.0185352
-0.0241812
0.0393027
-0.0292401
-0.00798861
0.116771
-0.0857757
0.00830788
-0.110216
-0.014927
0.241914
0.0113446
0.0116279
0.0610389
-0.0311592
0.147209
-0.11541
0.25592
-0.194487
-0.262903
0.408607
0.0221275
-0.0104996
0.10541
-0.114442
0.21576
-0.22576
0.32429
-0.303017
-0.350475
0.411862
0.0417888
-0.0522885
0.13703
-0.209683
0.223696
-0.312426
0.279423
-0.358744
-0.373644
0.302592
0.05547
-0.107758
0.128213
-0.282426
0.171379
-0.355593
0.188476
-0.37584
0.196024
-0.381192
0.0049779
-0.0420312
0.0370533
0.0170407
-0.0838669
0.0718041
0.0280266
-0.0917566
0.0807707
0.0351853
-0.0779688
0.0708101
-0.0482983
0.0360693
0.0474143
0.0226809
-0.064712
0.0528788
-0.114065
0.0765619
-0.11544
0.0919025
-0.0933094
-0.0553471
0.0989513
0.0309278
-0.0956398
0.0573456
-0.140482
0.0737701
-0.131864
0.0845126
-0.104052
-0.0644124
0.0935779
-0.0221463
-0.0734935
-0.0702573
-0.0923715
-0.116306
-0.0858159
-0.152864
-0.0674939
-0.0308731
-0.186403
-0.0928939
-0.209447
-0.303251
-0.362437
-0.408237
-0.14424
1.25035
-1.07004
0.0310688
1.16396
-1.33927
0.416485
-1.16799
0.782569
0.47775
-1.44705
1.38579
-0.651857
0.612107
0.14472
1.20459
0.285519
1.02316
0.484757
-1.36722
0.5017
-1.46399
-0.671905
0.349358
0.948805
0.443607
0.928915
0.562259
-1.48587
0.531548
-1.43328
-0.651119
0.226106
0.536296
0.49755
0.657471
0.594535
-1.58286
0.559645
-1.39839
-0.607944
0.126344
0.0017147
0.618761
0.165055
0.602725
-1.56682
0.543798
-1.33947
-0.573677
0.923661
0.137308
-1.05925
1.39419
-0.305476
1.27768
-1.45031
0.951592
-1.01338
-0.403466
1.32987
0.161442
-1.35401
1.53473
-0.510331
1.22493
-1.14051
0.829609
-0.618057
-0.239617
1.42915
0.0573587
-1.32507
1.41655
-0.497721
1.03026
-0.754233
0.77272
-0.360513
-0.140313
1.37822
-0.0341445
-1.28671
1.22114
-0.34064
0.797444
-0.330542
0.569287
-0.132356
-0.0536201
0.854447
-0.888592
0.513807
0.183266
0.0509096
1.06792
0.144556
-1.01646
1.13711
0.233406
1.24377
0.305203
1.25096
0.401414
0.433621
0.988714
0.0760416
-0.920199
1.04565
0.176467
1.15196
0.198899
1.2412
0.312172
0.320813
0.943721
0.0330205
-0.900699
1.00241
0.117783
1.08653
0.114777
1.20118
0.197521
0.196918
0.898633
0.00805864
-0.873671
0.97216
0.0442556
1.04462
0.0423147
1.1656
0.0765406
0.0758085
0.649672
-0.641614
0.693928
0.736243
0.812783
0.123442
0.293956
-0.2457
-0.171698
0.0811973
0.30064
-0.258395
0.0434769
0.311115
-0.273394
0.0131872
0.301721
-0.271432
0.193469
-0.180282
0.089812
0.330633
-0.126489
0.0554385
0.335014
0.025562
0.340991
0.0029631
0.32432
0.196432
0.0489765
0.359014
-0.0773575
0.0213722
0.362618
-0.00125774
0.363621
-0.00989966
0.332962
0.186532
-0.024152
0.375109
0.00805725
-0.0379379
0.376404
-0.0425012
0.368184
-0.0301857
0.320647
0.156347
-0.0999642
0.0938804
-0.0994007
-0.0868089
-0.0485881
0.205105
0.0935873
-0.258575
-0.0401178
0.150417
0.0975486
-0.0428601
0.0939532
0.101987
-0.0455235
0.038447
0.101811
-0.0463051
0.0719288
-0.0334819
0.197722
0.138821
-0.242956
0.150267
0.145004
0.0977474
0.154506
0.0416752
0.157884
0.113604
0.150776
0.184846
-0.196801
0.107102
0.188678
0.0647242
0.196884
0.0245001
0.198108
0.138104
0.159208
0.220375
-0.194736
0.117946
0.229939
0.0723173
0.242513
0.0280412
0.242384
0.166145
0.102522
-0.127847
0.0740655
0.0431841
0.0141364
0.404049
0.061978
-0.0700477
0.426157
-0.00756802
-0.01454
0.414727
0.172654
-0.161223
0.394541
0.166386
-0.1462
0.391115
-0.255149
0.402429
0.055529
0.421122
-0.0262617
0.402955
0.190821
0.38096
0.188381
0.529119
0.397856
0.0536527
0.416059
-0.0444647
0.380222
0.226658
0.365384
0.20322
0.697702
0.397216
0.0524164
0.402236
-0.0494843
0.365295
0.263598
0.344287
0.224228
0.847253
0.392032
0.0563636
0.389927
-0.0473793
0.335408
0.318117
0.31305
0.246586
1.03246
0.634149
0.0262353
0.649834
-0.0630651
0.66919
0.298761
0.758067
0.15771
0.812644
0.977879
0.652181
-0.0219254
0.636714
-0.0475979
0.690317
0.245158
0.787347
0.0606802
0.621929
0.978061
0.650954
-0.0688591
0.626895
-0.023539
0.698502
0.173551
0.770966
-0.0117838
0.429457
0.963438
0.615368
-0.0802067
0.614167
-0.0223376
0.734614
0.0531036
0.749362
-0.026532
0.207617
0.971203
0.523814
0.501476
0.55458
0.528048
0.735664
0.991835
-0.185654
0.988031
-0.122685
0.977706
-0.0670325
0.991744
-0.00598048
0.0691689
0.925524
-0.133117
0.908955
-0.106116
0.886434
-0.0445115
0.907649
-0.027196
0.0566188
0.915585
-0.0852637
0.887431
-0.0779613
0.875373
-0.032454
0.87944
-0.0312623
0.0353592
0.920073
-0.034134
0.876177
-0.0340649
0.860801
-0.0170784
0.847845
-0.0183062
0.00953268
0.70153
0.667466
0.650387
0.632081
0.0531116
0.184603
-0.237714
0.0753467
0.381749
-0.403984
0.0734013
0.433028
-0.431083
0.0638606
0.431322
-0.421781
0.397157
0.050721
-0.384018
0.0843983
0.100204
0.155578
0.310569
0.185894
0.402712
0.190539
0.426677
0.409773
0.177922
0.0757284
0.024476
0.197392
0.188906
0.282566
0.317538
0.325196
0.384047
0.418058
0.316912
0.0388389
-0.0143629
0.161572
0.0661727
0.293401
0.185709
0.409376
0.268072
0.356028
0.471406
0.00934391
-0.0237068
0.0809702
-0.00545365
0.202903
0.0637758
0.345414
0.125561
0.236546
0.464895
0.000851531
-0.0245583
0.0316302
-0.0362323
0.108689
-0.0132827
0.220236
0.0140142
0.115058
0.341724
0.00510525
-0.0296636
0.022174
-0.053301
0.0582089
-0.0493177
0.103862
-0.0316394
0.0316561
0.187265
0.00752789
-0.0371915
0.0199438
-0.0657169
0.0379435
-0.0673174
0.0586719
-0.0523678
-0.0192817
0.10961
0.00201921
-0.0392107
0.00668374
-0.0703814
0.015495
-0.0761286
0.0282436
-0.0651164
-0.0422126
0.0511745
-0.00215744
-0.000734792
0.00390722
0.00960094
0.0148026
0.330216
1.12607
-1.11456
0.0435904
0.934556
-0.64793
0.0122445
0.0561386
-0.0247928
0.292054
-0.806795
0.526986
-0.251541
0.161641
0.339263
0.974072
0.0269083
1.24691
-0.00529714
0.0883441
0.2859
-1.09799
-0.378775
0.355834
0.727848
0.0962596
1.50648
0.126334
0.0582699
0.300672
-1.27233
-0.501816
-0.0155158
0.794538
0.00414317
1.48683
0.331238
-0.268825
0.389994
-1.33109
-0.568328
-0.260704
-0.11315
0.400594
0.455292
-0.160881
0.688088
-0.527206
-0.292877
0.131996
-0.155145
-0.137732
0.139595
-0.294739
-0.09275
0.794147
-1.22062
0.278212
0.115687
0.347933
0.0959457
-0.0112734
-0.0846723
0.153587
-0.0576416
0.241259
-0.0876712
0.383827
-0.142569
-0.143379
0.220747
-0.181299
0.341027
0.570268
0.899105
0.149545
-0.156637
0.18839
-0.181298
0.114564
-0.163479
0.19846
0.0746971
-0.17253
0.212398
0.0309795
-0.173782
0.2175
-0.123887
0.154867
0.193928
-0.115525
-0.23504
0.147346
-0.116897
0.0941375
-0.119322
0.0391925
-0.118837
-0.0846947
0.190209
-0.06386
-0.241875
0.137732
-0.0644199
0.0852197
-0.0668089
0.0347184
-0.0683356
-0.0499763
0.206392
-0.0115874
-0.258665
0.153453
-0.0114806
0.0983678
-0.0117236
0.041751
-0.0117189
-0.0082253
0.211319
-0.263024
0.156978
0.0997311
0.0417072
0.0525837
-0.360626
-0.0759756
0.0221085
-0.391306
-0.00411392
-0.40486
-0.0164644
-0.391634
-0.254179
0.13804
-0.325091
-0.173575
0.0928834
-0.34615
0.0468519
-0.358829
0.0106892
-0.355471
-0.24349
0.163821
-0.280392
-0.20852
0.114992
-0.297321
0.0675797
-0.311416
0.0246926
-0.312584
-0.218797
0.179702
-0.239847
-0.220247
0.132635
-0.250254
0.0827017
-0.261483
0.0337347
-0.263617
-0.185062
0.177192
-0.228649
0.125398
0.0763126
0.0301956
0.390308
0.0989659
-0.0932941
0.394319
0.0765973
-0.0806084
0.361619
0.141187
-0.108487
0.315127
0.0196667
0.0268249
-0.274571
0.4084
0.397586
0.0973596
0.40864
0.0655437
0.398482
0.151345
0.356813
0.0613359
-0.152799
0.402464
0.090875
0.417831
0.0501768
0.412268
0.156908
0.378625
0.0949787
-0.0160486
0.406194
0.080661
0.422876
0.0334942
0.422172
0.157613
0.394872
0.122279
0.120158
0.406593
0.425547
0.421936
0.398015
0.416683
0.0933684
0.339849
0.0768335
0.260497
0.0793527
0.279211
-0.0187141
-0.220747
0.499958
0.510125
0.50635
0.477216
0.485326
0.67298
0.400559
0.0993988
0.312668
0.0878912
0.21015
0.102517
0.122803
0.0873472
0.0381308
0.54373
0.411374
0.305371
0.219144
)
;

boundaryField
{
    left
    {
        type            calculated;
        value           nonuniform List<scalar> 
17
(
-0.60402
-0.60402
-0.60402
-0.60402
-0.60402
-0.39598
-0.39598
-0.39598
-0.39598
-0.39598
-0.39598
-0.39598
-0.39598
-0.39598
-0.39598
-0.510051
-0.510051
)
;
    }
    right
    {
        type            calculated;
        value           nonuniform List<scalar> 
17
(
0.232345
0.416825
0.381954
0.413134
0.423713
0.456506
0.499071
0.517499
0.521749
0.510762
0.516471
0.50953
0.781382
0.66576
0.673416
0.482594
-0.00271056
)
;
    }
    down
    {
        type            calculated;
        value           uniform 0;
    }
    up
    {
        type            calculated;
        value           uniform 0;
    }
    cylinder
    {
        type            calculated;
        value           uniform 0;
    }
    defaultFaces
    {
        type            empty;
    }
}


// ************************************************************************* //
