/*--------------------------------*- C++ -*----------------------------------*\
  =========                 |
  \\      /  F ield         | OpenFOAM: The Open Source CFD Toolbox
   \\    /   O peration     | Website:  https://openfoam.org
    \\  /    A nd           | Version:  13
     \\/     M anipulation  |
\*---------------------------------------------------------------------------*/
FoamFile
{
    format      ascii;
    class       volVectorField;
    location    "41";
    object      U;
}
// * * * * * * * * * * * * * * * * * * * * * * * * * * * * * * * * * * * * * //

dimensions      [0 1 -1 0 0 0 0];

internalField   nonuniform List<vector> 
440
(
(-0.192966 0.15243 -7.72427e-20)
(-0.214897 0.179279 -2.49297e-19)
(-0.0700908 0.0675296 6.65884e-20)
(0.286532 0.0749037 -7.10869e-20)
(0.23082 0.155444 1.91724e-20)
(-0.0758746 0.0487774 2.29925e-20)
(0.049911 0.0499446 -6.08601e-21)
(0.506962 -0.00744145 -2.59711e-21)
(1.02131 -0.026443 1.90557e-20)
(1.48224 -0.0310657 -1.11091e-20)
(-0.0346301 0.0158179 5.46794e-20)
(0.426981 -0.0227235 5.88758e-19)
(1.15508 -0.00920703 -2.99344e-19)
(1.74121 0.0163236 -9.91843e-19)
(2.24534 0.0403448 4.28569e-19)
(0.17047 -0.038993 -1.61415e-19)
(1.09199 0.00574574 -4.65185e-19)
(1.85946 0.0768386 1.46881e-18)
(2.29996 0.12411 1.62468e-18)
(2.4174 0.138302 -4.41876e-19)
(0.502754 -0.00753414 -2.74253e-19)
(1.63263 0.177207 -5.66326e-19)
(2.18695 0.263728 1.71685e-18)
(2.33561 0.281624 1.87424e-18)
(2.39544 0.260913 6.41217e-19)
(0.0185958 -0.225215 -1.04946e-19)
(0.0692579 -0.452496 -3.03427e-19)
(0.104646 -0.505792 5.47006e-19)
(0.119274 -0.43696 -7.82271e-20)
(0.0978867 -0.280876 -6.51235e-19)
(0.097158 -0.30015 1.15969e-19)
(0.259939 -0.567449 4.09555e-19)
(0.322258 -0.585143 3.27689e-20)
(0.337845 -0.45919 3.45279e-20)
(0.268515 -0.246765 -7.14622e-20)
(0.256559 -0.483028 3.07846e-19)
(0.465339 -0.760515 4.67438e-19)
(0.493167 -0.738875 -2.18972e-21)
(0.462046 -0.580451 -1.09021e-18)
(0.333074 -0.34646 2.78012e-21)
(0.360413 -0.586492 3.90054e-19)
(0.352707 -0.83713 -6.36097e-19)
(0.195804 -0.823862 9.30736e-19)
(0.0146201 -0.723417 1.80441e-18)
(-0.156954 -0.511628 -5.95563e-20)
(-0.0330248 -0.14062 6.07186e-20)
(-0.305961 -0.377364 1.99874e-19)
(-0.491837 -0.547307 3.24311e-19)
(-0.607398 -0.594576 8.06577e-20)
(-0.758656 -0.50054 9.63524e-19)
(0.192268 0.792471 1.28404e-18)
(-1.05191 0.848867 4.20085e-19)
(1.21121 -0.72646 1.1057e-18)
(0.987714 -1.00094 -1.44002e-19)
(1.30647 -0.444053 -8.01299e-20)
(0.440903 0.959063 -7.44679e-19)
(-0.189917 0.771366 2.00919e-19)
(1.56808 -0.891247 2.51305e-19)
(1.15234 -1.03489 4.45994e-19)
(1.31724 -0.476264 8.59954e-20)
(0.82323 0.638596 -8.44057e-19)
(0.30824 0.658687 -2.65335e-18)
(1.91149 -0.973388 -1.34139e-19)
(1.40254 -0.992573 2.38424e-19)
(1.28951 -0.463069 3.98887e-21)
(-0.0975092 0.624388 2.14685e-19)
(0.553095 0.607361 4.0237e-19)
(2.09412 -1.01586 4.73949e-19)
(1.61557 -0.940813 -1.76813e-19)
(1.30395 -0.427514 7.28563e-20)
(-0.881149 0.0476027 -3.80511e-19)
(1.35251 0.2409 1.91718e-18)
(2.35907 -1.02518 0)
(1.64736 -0.89052 -3.53334e-20)
(1.28643 -0.379989 1.19171e-20)
(0.903851 -0.064781 -2.45942e-19)
(1.98445 -0.143217 -4.18259e-19)
(2.61798 -0.903821 -1.45039e-20)
(1.77994 -0.732166 8.1838e-20)
(1.29336 -0.325821 -2.55154e-20)
(1.79931 0.185402 -1.04177e-20)
(2.48892 -0.23704 7.81048e-19)
(2.58922 -0.86795 -9.44803e-21)
(1.59087 -0.512772 -7.28536e-21)
(1.10203 -0.171173 0)
(2.0205 0.0477425 -2.59568e-19)
(2.61343 -0.370336 -1.22187e-20)
(2.08178 -0.551978 5.3945e-19)
(1.4118 -0.277199 5.70682e-21)
(1.11479 -0.129849 -4.30436e-20)
(2.07165 0.0215494 6.33337e-20)
(2.40689 -0.282189 1.49418e-19)
(1.64123 -0.416118 -3.61182e-21)
(1.05984 -0.1572 -4.19234e-34)
(0.798977 -0.0469441 3.33558e-20)
(1.58891 -0.0602244 5.50727e-20)
(1.20026 -0.110974 9.61863e-20)
(0.459532 0.0207121 -8.07088e-20)
(0.171333 -0.0175836 -1.53431e-20)
(-0.00446447 -0.0216106 9.96806e-21)
(2.32731 0.253511 -7.95118e-19)
(2.46808 0.0864917 -9.65575e-19)
(2.42158 0.0809791 6.81574e-19)
(2.49434 -0.0300942 5.49729e-20)
(2.05529 0.0361436 -5.46701e-20)
(2.14334 0.115303 6.85082e-20)
(2.22363 0.120332 -3.68931e-20)
(2.28118 -0.0613055 -1.19271e-19)
(2.27953 -0.0158411 -2.17737e-19)
(2.31936 -0.261622 -4.31329e-21)
(2.09722 0.0275621 7.30815e-20)
(2.10392 0.101544 8.60512e-20)
(2.2005 -0.0943284 -9.71123e-20)
(2.15118 0.000502458 3.42432e-20)
(2.25392 -0.189225 1.23248e-20)
(1.99956 -0.00409758 1.0876e-19)
(2.03838 0.0522433 1.45708e-19)
(2.10151 -0.0671652 -1.75314e-20)
(2.09338 -0.00308799 -5.77925e-20)
(2.16867 -0.115152 2.4033e-20)
(1.43964 -0.0127862 1.73813e-19)
(1.48772 -0.0138435 -1.12976e-20)
(1.46094 -0.0206897 1.71211e-20)
(1.5016 -0.0244561 -3.41118e-20)
(1.46773 -0.0276066 -2.1834e-20)
(1.53163 0.854411 1.00702e-18)
(1.49449 0.947336 -3.04944e-19)
(1.49402 1.06857 -1.21558e-18)
(1.42345 1.10572 6.75896e-19)
(0.874748 0.788427 -1.68661e-19)
(1.79867 0.794343 -5.28739e-19)
(1.77411 0.873997 -2.8125e-18)
(1.78156 0.980484 -1.09129e-18)
(1.69065 0.984648 -3.83587e-19)
(1.02416 0.673091 -6.1239e-19)
(2.08058 0.695064 7.09224e-19)
(2.06401 0.75615 1.81501e-19)
(2.04449 0.832929 -2.15159e-18)
(1.90313 0.812664 -5.81435e-19)
(1.1027 0.51813 4.16411e-19)
(2.22832 0.567998 2.17449e-18)
(2.22874 0.617081 1.57222e-18)
(2.21858 0.661186 -1.79194e-18)
(1.98835 0.610606 -1.33489e-18)
(1.05812 0.333302 -2.32765e-19)
(2.38277 0.418046 1.01766e-18)
(2.37648 0.439336 -7.29442e-19)
(2.27514 0.453307 5.27171e-19)
(1.92025 0.389094 4.00363e-19)
(0.859482 0.138276 -3.29932e-19)
(0.579032 0.388417 -7.20977e-19)
(0.489316 0.42034 -5.92918e-19)
(0.369574 0.453092 7.89905e-20)
(0.229063 0.458894 -2.84244e-20)
(0.055506 0.328113 6.44255e-20)
(0.671722 0.566159 5.08891e-20)
(0.606389 0.621723 -3.21973e-19)
(0.51601 0.686586 1.67028e-19)
(0.387913 0.739811 -7.71765e-20)
(0.164856 0.563926 1.10828e-19)
(0.772651 0.763442 2.05648e-19)
(0.697506 0.840412 3.95478e-19)
(0.636055 0.935219 5.3252e-20)
(0.548163 0.984269 -2.66654e-19)
(0.297973 0.733511 2.15504e-19)
(1.03873 0.856616 1.99607e-19)
(0.988281 0.942037 -5.85473e-19)
(0.933504 1.03955 -1.73293e-18)
(0.845852 1.10414 7.10022e-19)
(0.496975 0.823175 -1.74729e-19)
(1.13999 0.898332 -1.28105e-19)
(1.15668 1.01684 -2.02007e-19)
(1.17082 1.13251 -3.13083e-19)
(1.11333 1.16795 -3.65022e-19)
(0.683627 0.844529 -6.03251e-21)
(1.00688 0.0489113 -8.00753e-20)
(0.995466 0.00488777 -2.99437e-20)
(1.05201 0.118693 -1.41402e-21)
(0.943136 0.10915 -1.88362e-19)
(0.893818 0.228879 2.84852e-19)
(0.993121 0.0481121 4.9155e-20)
(1.01379 -0.00322161 1.12166e-19)
(1.03904 0.131088 9.67996e-20)
(0.966886 0.135251 2.02978e-20)
(0.926944 0.309992 2.3334e-20)
(0.998326 0.0471777 6.47149e-20)
(1.00399 -0.0127736 -4.35893e-21)
(1.07904 0.149014 -3.62643e-21)
(0.913831 0.141549 1.43349e-19)
(1.12582 0.445469 -4.08239e-19)
(0.992934 0.0463497 -3.53789e-22)
(1.02912 -0.0246912 -1.66861e-19)
(1.06659 0.175697 -5.52468e-20)
(0.989929 0.144835 -3.43414e-19)
(1.1689 0.486285 8.48601e-20)
(0.994243 0.0365916 -1.0001e-20)
(1.03664 -0.0211245 4.99313e-20)
(1.09984 0.180269 2.70251e-20)
(0.973481 0.169825 4.28725e-19)
(1.37017 0.622313 -4.0083e-19)
(0.961424 0.0339459 -1.51909e-21)
(1.11489 -0.0463242 9.83682e-20)
(1.05644 0.219203 -6.75507e-20)
(1.19683 0.110091 8.53462e-19)
(1.35058 0.629267 -3.74681e-19)
(0.911902 -0.000958134 -1.51751e-21)
(1.21394 -0.0351951 -7.97641e-20)
(0.931697 0.160147 4.53612e-21)
(1.3248 0.0761854 -3.04539e-19)
(1.35591 0.430461 1.05208e-20)
(0.980673 -0.0245266 -1.19414e-21)
(1.13682 -0.0207005 1.20649e-35)
(0.982062 0.146736 -1.36814e-20)
(1.28838 0.00455146 8.98893e-20)
(1.33881 0.328066 1.43687e-19)
(1.10169 -0.0674233 3.93859e-21)
(0.893993 -0.0109569 -2.83379e-20)
(1.18936 0.0707618 1.79091e-20)
(1.18939 -0.0202793 2.85702e-20)
(1.36463 0.199962 -2.08999e-19)
(0.985307 -0.0238537 -4.23536e-20)
(0.703455 -0.0160532 -5.11857e-21)
(1.00646 -0.00327554 1.87642e-20)
(0.778804 -0.0147118 -1.45174e-20)
(1.03104 0.0669535 -4.68531e-20)
(1.74347 0.665072 2.92883e-19)
(1.85365 0.643142 7.10481e-19)
(2.07227 0.554022 -9.91754e-19)
(2.15131 0.483193 3.79784e-20)
(2.32685 0.323125 4.20469e-19)
(1.65939 0.49345 3.56691e-20)
(1.7311 0.42357 9.14572e-19)
(1.88047 0.419643 9.04296e-20)
(1.96067 0.286844 -8.42326e-19)
(2.08168 0.26629 -2.66343e-19)
(1.62164 0.354034 -1.92616e-19)
(1.71854 0.26861 -1.39684e-19)
(1.82694 0.290493 2.07341e-19)
(1.93169 0.153538 -2.755e-19)
(1.99716 0.197142 2.50596e-19)
(1.63952 0.204445 3.16933e-19)
(1.70197 0.148519 -2.766e-21)
(1.8104 0.161414 2.11448e-19)
(1.86419 0.0731601 1.81789e-19)
(1.94679 0.106586 -1.78624e-19)
(1.24599 0.0541946 -3.84862e-20)
(1.30009 0.0364398 2.15148e-19)
(1.3731 0.0270521 9.91527e-20)
(1.39188 0.0071138 -2.10347e-19)
(1.45024 0.00174863 3.36305e-22)
(1.41353 -0.0361067 7.93077e-20)
(2.52366 -0.0147754 -6.1903e-19)
(2.74438 -0.00990323 1.64887e-18)
(2.71639 0.0423475 7.65101e-19)
(2.46263 0.0487004 -5.17574e-19)
(0.947642 0.108253 1.74928e-19)
(2.31422 0.137515 -6.61423e-19)
(2.7353 0.148149 -9.38617e-19)
(2.73645 0.15649 1.27576e-18)
(2.54994 0.155795 -9.39635e-19)
(0.325453 0.112656 -2.31493e-20)
(1.70702 0.230844 7.84368e-19)
(2.47765 0.283852 1.27134e-19)
(2.78246 0.29946 1.33105e-18)
(2.74444 0.267913 7.42723e-19)
(-0.0204515 -0.00270094 2.7025e-19)
(0.787683 0.18043 3.03322e-19)
(1.72882 0.307705 -8.97385e-19)
(2.30287 0.37812 8.47419e-20)
(2.7872 0.417868 7.56612e-19)
(-0.1158 -0.0931179 2.11532e-19)
(0.120371 0.0146879 -2.44944e-19)
(0.811754 0.192083 -9.90999e-20)
(1.389 0.313681 1.76874e-19)
(2.09597 0.497052 9.75547e-20)
(-0.0991501 -0.116887 2.75919e-20)
(-0.107136 -0.129992 1.54193e-19)
(0.203753 -0.0613378 4.5293e-20)
(0.446664 0.0327257 -5.46696e-20)
(1.29881 0.304867 6.0737e-21)
(-0.0830582 -0.146487 -2.6882e-20)
(-0.135592 -0.268057 -1.0453e-19)
(-0.0358345 -0.275978 1.63052e-20)
(0.0651058 -0.188068 -1.37487e-20)
(0.534591 0.147474 1.83057e-20)
(-0.0735688 -0.202239 -3.07558e-20)
(-0.111094 -0.370271 4.09248e-20)
(-0.074659 -0.381503 5.51298e-20)
(-0.00532977 -0.298488 3.8547e-19)
(0.150552 -0.0783019 -3.22942e-20)
(-0.0540059 -0.238139 -8.27517e-21)
(-0.0897607 -0.419795 2.29901e-20)
(-0.07754 -0.444815 -2.29822e-19)
(-0.0342039 -0.375299 -2.3704e-19)
(0.0165354 -0.237697 7.86643e-20)
(-0.0223171 -0.233561 1.27764e-20)
(-0.0406578 -0.43394 -3.32149e-20)
(-0.0345536 -0.48274 1.36975e-20)
(-0.0135104 -0.421613 -5.17721e-20)
(-0.00227678 -0.282448 -2.43828e-19)
(1.63815 0.738808 -7.09142e-20)
(0.989362 0.472344 -4.7077e-19)
(-0.478365 0.0380688 -1.23984e-19)
(0.450074 -0.39937 5.07984e-19)
(0.964058 -0.114324 4.20449e-21)
(1.49265 0.73138 6.00937e-20)
(0.905256 0.707907 1.82246e-18)
(-0.480724 0.0182078 -2.05609e-19)
(0.2992 -0.670403 1.52103e-20)
(1.04254 -0.196461 -1.1205e-20)
(1.4956 0.556154 1.68544e-19)
(0.678184 0.972304 2.52117e-18)
(0.124651 0.106277 1.47151e-19)
(0.353138 -0.808878 -2.74027e-19)
(1.06905 -0.285277 1.02101e-20)
(0.847455 0.492131 -6.23387e-19)
(-0.649712 1.05363 -2.88464e-18)
(0.830185 -0.00236277 -5.0512e-19)
(0.699229 -0.870745 1.3929e-20)
(1.15196 -0.36463 -5.27718e-20)
(0.313919 0.647459 -2.73295e-19)
(-1.53871 0.974451 -2.93239e-19)
(1.0758 -0.404105 1.10305e-18)
(0.899838 -0.948116 -8.76664e-20)
(1.25975 -0.415716 -1.8922e-19)
(-0.246323 0.107538 -4.48804e-20)
(-0.451279 -0.185301 0)
(-0.637893 -0.134264 -8.80652e-20)
(0.0651064 -0.104852 3.51017e-20)
(0.455099 -0.0280465 -2.02995e-20)
(1.82919 0.673976 0)
(1.16934 0.360525 0)
(-0.021735 -0.0170763 3.89996e-19)
(0.507085 -0.240175 -1.45741e-19)
(0.816834 -0.0853715 4.18224e-21)
(0.783657 0.00714296 -1.39012e-19)
(0.873315 -0.00034185 3.53347e-19)
(0.993229 0.0454123 -3.02782e-20)
(0.902133 0.0122553 3.96399e-19)
(1.28846 0.21395 2.40486e-19)
(1.76926 0.0447506 1.34703e-19)
(2.01389 0.0911733 5.21691e-19)
(2.08976 0.182607 -8.51339e-19)
(2.49093 0.270893 3.16702e-19)
(2.48412 0.427422 5.47615e-19)
(0.994456 -0.545202 4.59398e-20)
(0.985439 -0.646228 -2.296e-19)
(0.98551 -0.75629 -2.11555e-19)
(0.921332 -0.835835 1.2525e-19)
(0.569849 -0.667081 1.53781e-19)
(0.889467 -0.456667 1.03325e-19)
(0.834029 -0.529367 1.1299e-19)
(0.75751 -0.607305 -1.30451e-19)
(0.640482 -0.676414 1.58366e-19)
(0.358189 -0.54471 3.55455e-20)
(0.693789 -0.320081 -1.08578e-19)
(0.602105 -0.366769 -6.33075e-20)
(0.501659 -0.426378 -3.42222e-20)
(0.3865 -0.479869 -6.17556e-20)
(0.183996 -0.383884 -1.47456e-19)
(0.582491 -0.0885289 -4.38912e-19)
(0.497964 -0.11144 -3.50484e-19)
(0.388849 -0.145655 2.88325e-19)
(0.260019 -0.185996 1.39384e-19)
(0.0836391 -0.166464 1.29749e-20)
(0.547387 0.120025 -1.35037e-19)
(0.462005 0.117655 -1.57116e-19)
(0.343772 0.111407 -3.47711e-20)
(0.202706 0.108537 6.20422e-20)
(0.0366454 0.0789679 1.53695e-20)
(2.29154 -0.0235883 1.02941e-18)
(2.5106 -0.101876 3.79528e-19)
(2.60697 -0.19737 -9.5654e-19)
(2.49607 -0.223856 -2.05828e-18)
(1.55654 -0.22765 1.5286e-19)
(2.18801 -0.134988 1.69936e-18)
(2.31857 -0.253052 2.20746e-18)
(2.3554 -0.38586 1.83228e-19)
(2.29199 -0.449712 3.17604e-19)
(1.50946 -0.428474 -2.12838e-19)
(1.9273 -0.310477 -4.29206e-18)
(1.97653 -0.436479 4.89211e-19)
(2.0166 -0.573389 1.36591e-18)
(1.97757 -0.66152 -5.52968e-19)
(1.31466 -0.590041 8.79482e-19)
(1.64997 -0.446318 1.05962e-18)
(1.67165 -0.555131 -2.78184e-18)
(1.67662 -0.687411 -3.21592e-18)
(1.62374 -0.789641 1.01564e-18)
(1.06671 -0.675055 6.5877e-19)
(1.35258 -0.51735 2.43135e-19)
(1.30558 -0.620714 3.01971e-19)
(1.29399 -0.753506 -4.95371e-19)
(1.2421 -0.853821 -6.03098e-19)
(0.799003 -0.698637 -5.83356e-21)
(1.05881 0.0524441 6.87103e-21)
(0.94336 0.043793 1.56769e-21)
(1.13586 0.0703694 9.57623e-21)
(0.838836 -0.0148339 -2.70733e-19)
(1.20433 -0.249339 -2.21902e-20)
(1.06842 0.0551703 -2.30473e-21)
(0.937014 0.0377176 2.39972e-20)
(1.13197 0.0884059 7.87392e-21)
(0.910894 0.0244814 2.31017e-19)
(1.06506 -0.134525 6.80739e-21)
(1.06577 0.0520676 -5.47225e-20)
(0.939456 0.0289538 1.87648e-23)
(1.11505 0.0919449 -3.20417e-21)
(0.902932 0.0414831 1.20103e-19)
(1.01625 -0.07634 -2.83689e-19)
(1.04715 0.050857 6.46947e-20)
(0.962881 0.0208082 2.57041e-21)
(1.07761 0.0982844 1.77766e-20)
(0.939489 0.0672231 -5.33664e-20)
(0.895143 0.0340264 5.48155e-20)
(1.02156 0.0486149 1.5913e-20)
(0.989262 0.0148426 -2.32719e-20)
(1.04795 0.10611 2.84819e-20)
(0.955701 0.0912648 4.12786e-20)
(0.85711 0.128683 -4.0988e-21)
(0.886333 0.0334813 0)
(0.720892 0.0271412 8.04354e-21)
(0.629184 0.0207664 7.18147e-21)
(0.381767 -0.0113628 5.78268e-20)
(0.762893 -0.063106 -1.87615e-19)
(1.02787 0.0728238 -6.18466e-20)
(0.952978 0.0640588 1.56534e-21)
(1.04993 0.0728418 -7.01011e-20)
(0.842787 -0.0134057 -1.60738e-19)
(1.12326 -0.228258 -1.95874e-19)
(1.07193 -0.0680793 -4.29607e-20)
(1.16468 -0.0379784 6.286e-19)
(1.27952 0.0377079 3.75627e-19)
(1.14079 0.0647219 2.93918e-20)
(0.894013 0.0355166 0)
(1.43106 -0.34059 4.2529e-19)
(1.56166 -0.299691 1.81213e-18)
(1.76676 -0.173671 -1.97896e-18)
(1.86412 -0.0207864 -6.35185e-19)
(1.82274 0.0411254 4.72238e-19)
)
;

boundaryField
{
    left
    {
        type            fixedValue;
        value           uniform (1 0 0);
    }
    right
    {
        type            zeroGradient;
    }
    down
    {
        type            noSlip;
    }
    up
    {
        type            noSlip;
    }
    cylinder
    {
        type            noSlip;
    }
    defaultFaces
    {
        type            empty;
    }
}


// ************************************************************************* //
