# Selection   : all
# Cells       : 440
# Volume      : 7.374263e+01
# Time        	min(p)
1.2           	-1.904540e+00
1.25          	-1.898945e+00
1.3           	-1.898553e+00
