/*--------------------------------*- C++ -*----------------------------------*\
  =========                 |
  \\      /  F ield         | OpenFOAM: The Open Source CFD Toolbox
   \\    /   O peration     | Website:  https://openfoam.org
    \\  /    A nd           | Version:  13
     \\/     M anipulation  |
\*---------------------------------------------------------------------------*/
FoamFile
{
    format      ascii;
    class       surfaceScalarField;
    location    "0.6";
    object      phi;
}
// * * * * * * * * * * * * * * * * * * * * * * * * * * * * * * * * * * * * * //

dimensions      [0 3 -1 0 0 0 0];

internalField   nonuniform List<scalar> 
823
(
0.0113776
-0.0505546
0.039177
0.0387584
-0.133436
0.106055
0.0788323
-0.205878
0.165804
0.130173
-0.268869
0.217528
-0.323256
0.25941
0.194019
0.0107029
-0.0612576
0.0361429
-0.158876
0.0726481
-0.242383
0.117973
-0.314193
-0.375599
0.170316
0.008377
-0.0696346
0.0282851
-0.178784
0.0567258
-0.270823
0.0918112
-0.349279
-0.41605
0.132262
0.00529929
-0.0749339
0.0179957
-0.19148
0.0362299
-0.289058
0.0588846
-0.371934
-0.442415
0.0852496
0.00196199
-0.0768958
0.00663012
-0.196149
0.0132899
-0.295717
0.0215223
-0.380166
0.0310627
-0.451956
0.00665845
-0.0107437
0.00408519
0.0222017
-0.0308916
0.0153484
0.0454095
-0.0484743
0.0252666
0.07456
-0.0639081
0.0347576
-0.0769933
0.108215
0.043338
0.00575743
-0.0165011
0.021487
-0.0466212
0.0467047
-0.073692
0.0797545
-0.0969579
-0.11607
0.118831
0.00639401
-0.0228952
0.0236584
-0.0638857
0.051238
-0.101272
0.0879208
-0.133641
-0.160104
0.131955
0.00753634
-0.0304315
0.0270883
-0.0834376
0.0573195
-0.131503
0.0970289
-0.17335
-0.20789
0.144815
0.00874551
0.031363
0.065664
0.109842
0.161361
0.322513
-0.957045
0.742748
0.474144
-0.821367
0.669736
0.572387
-0.352477
0.254235
0.612594
-0.0687869
0.0285796
0.000637015
-0.00563221
0.330501
-1.16872
0.471079
-0.961945
0.574282
-0.45568
0.629477
-0.123982
-0.0156727
0.336704
-1.37346
0.461433
-1.08667
0.562423
-0.55667
0.623942
-0.185501
-0.0395727
0.337554
-1.5662
0.448635
-1.19776
0.540575
-0.64861
0.608836
-0.253763
-0.0737571
0.327787
-1.73263
0.428523
-1.29849
0.50902
-0.729107
0.577085
-0.321828
-0.109766
1.19771
-1.59006
-1.34028
1.00794
-1.10873
0.89314
-0.614304
0.845564
-0.274251
-0.0890066
1.32996
-1.1329
-1.78711
0.982432
-0.7612
0.775358
-0.40723
0.689571
-0.188464
-0.0636153
1.18954
-0.60761
-1.71484
0.816437
-0.388093
0.611331
-0.202124
0.519652
-0.0967844
-0.0342485
0.822402
-0.18528
-1.24473
0.54536
-0.111051
0.396645
-0.0534088
0.32636
-0.0264995
-0.0102495
0.306724
-0.492004
0.195672
0.142264
0.115764
1.56259
0.0462509
-1.57778
1.52169
0.126159
1.46266
0.191292
1.39632
0.23665
0.250063
1.67587
0.035652
-1.66527
1.69933
0.102696
1.73082
0.159799
1.7653
0.202177
0.228245
1.38797
0.0184775
-1.3708
1.43706
0.0536074
1.51388
0.0829768
1.61016
0.105893
0.123572
0.977699
0.00531452
-0.964536
1.01588
0.015423
1.07582
0.0230443
1.15388
0.0278273
0.0327222
0.392987
-0.387672
0.40841
0.431454
0.459282
0.128774
0.327622
-0.26466
-0.191735
0.078159
0.273213
-0.222598
0.0385241
0.209793
-0.170158
0.0113399
0.136445
-0.10926
0.051954
-0.0406142
0.115952
0.378904
-0.167234
0.0714965
0.317668
0.0356176
0.245672
0.0105607
0.161501
0.0625148
0.0888494
0.418274
-0.128219
0.0548104
0.351707
0.0272873
0.273195
0.00806476
0.180724
0.0705795
0.0552412
0.443534
-0.0805009
0.0337632
0.373185
0.016655
0.290303
0.00486424
0.192515
0.0754438
0.0174807
-0.0259026
0.0104998
0.00508593
0.00145207
0.0725715
0.0872892
-0.107178
-0.0526825
0.0428458
0.0736729
-0.0439471
0.019713
0.0569086
-0.0337758
0.00513091
0.0367857
-0.0222037
0.0132842
-0.00815328
0.0760307
0.125867
-0.114609
0.0437285
0.105975
0.0196485
0.0809886
0.00509223
0.051342
0.0183765
0.0844387
0.168536
-0.127107
0.0491153
0.141298
0.0227474
0.107356
0.0061779
0.0679115
0.0245544
0.0940942
0.214669
-0.140228
0.0557933
0.179599
0.0265376
0.136612
0.00743187
0.0870172
0.0319863
0.107416
-0.157407
0.0644171
0.030871
0.0086279
0.512653
0.173653
-0.290326
0.560506
0.16391
-0.211763
0.49572
0.31295
-0.248164
0.334482
0.803564
-0.642326
1.0409
-0.813596
0.512241
0.0573921
0.557469
0.118682
0.486319
0.384099
0.331134
0.95875
1.25743
0.511846
-0.0584743
0.544285
0.0862434
0.466089
0.462295
0.328193
1.09665
1.45851
0.508165
-0.17066
0.523979
0.0704298
0.441795
0.544479
0.324114
1.21433
1.6424
0.498047
-0.272727
0.494647
0.0738295
0.413076
0.62605
0.312259
1.31514
1.79725
0.766097
-0.434803
0.847673
-0.00774726
0.956772
0.516952
1.16944
1.10247
1.61916
1.34753
0.709521
-0.540303
0.785606
-0.0838329
0.955772
0.346786
1.29799
0.760253
1.14336
1.77379
0.60255
-0.538833
0.634041
-0.115324
0.80393
0.176897
1.17262
0.391563
0.612018
1.70396
0.448486
-0.383299
0.405994
-0.0728317
0.536319
0.0465707
0.816021
0.111862
0.186913
1.24112
0.220722
0.14789
0.194461
0.306322
0.493236
1.40257
-0.246775
1.46574
-0.230395
1.52299
-0.185477
1.56316
-0.120665
-0.0405283
1.75268
-0.225666
1.71976
-0.197468
1.69063
-0.15635
1.67084
-0.10088
-0.0349525
1.60148
-0.12319
1.50877
-0.104751
1.43456
-0.0821457
1.38705
-0.0533701
-0.018694
1.15107
-0.0331309
1.0743
-0.0279865
1.0153
-0.0231421
0.977571
-0.0156441
-0.00565971
0.460105
0.432118
0.408976
0.393332
0.00250148
0.0430075
-0.045509
0.00732816
0.101054
-0.105881
0.0160956
0.148399
-0.157167
0.016579
0.151914
-0.152397
0.114031
0.0148146
-0.112267
0.00682862
0.0361789
0.0201785
0.0877041
0.0409592
0.127619
0.0482565
0.144616
0.116385
0.045903
0.00880959
0.0273693
0.0270776
0.0694361
0.0521523
0.102544
0.073094
0.123675
0.114039
0.0754402
0.00780157
0.0195678
0.0255144
0.0517232
0.0497499
0.0783085
0.0774324
0.0959923
0.099247
0.092224
0.00509913
0.0144686
0.0179739
0.0388485
0.0367674
0.059515
0.060009
0.0727507
0.0767495
0.0825064
0.00342427
0.0110444
0.0125816
0.0296912
0.0274432
0.0446533
0.0470543
0.0531396
0.0561604
0.0676435
0.00222404
0.00882032
0.00893013
0.0229851
0.0222604
0.0313231
0.0410042
0.0343958
0.0347821
0.0623825
0.00166941
0.00715091
0.010109
0.0145454
0.0261518
0.0152802
0.0466943
0.0138532
0.0115457
0.0699307
0.00372358
0.00342733
0.0175086
0.000760352
0.0368347
-0.0040459
0.0598444
-0.00915646
-0.0143509
0.085741
0.00751247
0.0236212
0.0448418
0.0704429
0.0994299
0.153744
0.0199294
-0.106031
0.243219
-0.130116
0.0406416
0.264555
-0.0379558
0.0166197
0.270063
0.00261004
-0.0081183
-0.00241071
-0.00419031
0.214671
-0.13236
0.325061
-0.240505
0.351186
-0.064081
0.354273
-0.000477244
-0.00543614
0.259951
-0.32238
0.391115
-0.371669
0.433264
-0.10623
0.434995
-0.00220817
-0.00372695
0.293193
-0.529832
0.438385
-0.516861
0.50209
-0.169936
0.508493
-0.0086111
0.00134003
0.312345
0.46522
0.549519
0.569488
0.0706533
0.0386906
-0.109344
0.0786036
-0.00795025
0.0829025
-0.00429893
0.0804907
0.00241187
0.00104632
0.194046
-0.261387
0.226737
0.239058
0.233352
0.0207324
-0.00433159
-0.0164008
0.0342829
-0.0135505
0.0567619
-0.022479
0.0856216
-0.0288597
-0.0237223
0.0539246
-0.0434416
0.0862771
0.139238
0.202603
0.0478381
-0.0551382
0.0763474
-0.0690474
0.0275614
-0.0521582
0.072435
0.0123378
-0.0443727
0.0595963
0.00331777
-0.0300402
0.0390602
-0.0112611
0.0145789
0.0454205
-0.0322473
-0.0683115
0.0249838
-0.0317215
0.00983472
-0.0292236
0.00219249
-0.0223979
-0.00906861
0.0560842
-0.00666186
-0.0816697
0.0331461
-0.00878338
0.0142953
-0.0103727
0.00259555
-0.0106982
-0.00647305
0.0700729
0.0215705
-0.0983052
0.0448116
0.016478
0.0233567
0.0110822
0.00692138
0.00573709
0.000448319
0.0743343
-0.105446
0.0468652
0.0241716
0.00770499
0.0165857
-0.11403
-0.014823
0.0160949
-0.151906
0.0073069
-0.148379
0.00248922
-0.101063
-0.0430198
0.0482727
-0.116374
-0.0459278
0.0409332
-0.144567
0.0201646
-0.12761
0.00682146
-0.0877198
-0.0361983
0.073127
-0.113969
-0.0755329
0.052125
-0.123565
0.027066
-0.102551
0.00880656
-0.0694604
-0.0273918
0.0773421
-0.0989681
-0.0923425
0.0496224
-0.0958452
0.0254339
-0.0783628
0.00777575
-0.0518023
-0.019616
0.0599559
-0.0825766
0.0365457
0.0177792
0.00503713
0.341958
0.583313
-0.529291
0.280646
0.224919
-0.163607
0.247772
0.0541592
-0.0212858
0.165402
0.114373
-0.0320031
-0.000775053
0.0971301
0.407945
0.571347
0.371611
0.261253
0.335958
0.0898126
0.233647
0.216684
0.164561
0.460153
0.507174
0.451693
0.269713
0.409459
0.132046
0.283784
0.34236
0.366675
0.496318
0.406836
0.515213
0.250818
0.461392
0.185867
0.317708
0.486045
0.586078
0.512489
0.551544
0.489247
0.332965
0.158667
0.351384
0.0847785
0.073888
0.0801988
0.00457971
0.0724525
0.00774635
-0.0369482
0.109401
0.332145
0.242425
0.225719
0.201463
0.261645
0.0856723
0.0237284
0.0567936
0.0288786
0.0342939
0.0224997
0.0207359
0.013558
0.00433507
0.202796
0.139332
0.0862993
0.0539295
)
;

boundaryField
{
    left
    {
        type            calculated;
        value           nonuniform List<scalar> 
17
(
-0.60402
-0.60402
-0.60402
-0.60402
-0.60402
-0.39598
-0.39598
-0.39598
-0.39598
-0.39598
-0.39598
-0.39598
-0.39598
-0.39598
-0.39598
-0.510051
-0.510051
)
;
    }
    right
    {
        type            calculated;
        value           nonuniform List<scalar> 
17
(
0.0794443
0.230208
0.276664
0.357299
0.433286
0.503426
0.565195
0.617589
0.645787
0.647842
0.64302
0.613095
0.824804
0.66418
0.490285
0.302361
0.105514
)
;
    }
    down
    {
        type            calculated;
        value           uniform 0;
    }
    up
    {
        type            calculated;
        value           uniform 0;
    }
    cylinder
    {
        type            calculated;
        value           uniform 0;
    }
    defaultFaces
    {
        type            empty;
    }
}


// ************************************************************************* //
