/*--------------------------------*- C++ -*----------------------------------*\
  =========                 |
  \\      /  F ield         | OpenFOAM: The Open Source CFD Toolbox
   \\    /   O peration     | Website:  https://openfoam.org
    \\  /    A nd           | Version:  13
     \\/     M anipulation  |
\*---------------------------------------------------------------------------*/
FoamFile
{
    format      ascii;
    class       volScalarField;
    location    "0.6";
    object      strainRateViscosityModel:nu;
}
// * * * * * * * * * * * * * * * * * * * * * * * * * * * * * * * * * * * * * //

dimensions      [0 2 -1 0 0 0 0];

internalField   nonuniform List<scalar> 
440
(
9.41956
8.96971
8.54446
8.04235
7.58623
9.68996
9.35816
8.98175
8.48001
7.87556
9.80074
9.53084
9.15876
8.58508
7.84825
9.84962
9.61817
9.25861
8.64755
7.86606
9.86917
9.65607
9.30592
8.68094
7.90878
1.30388
1.79079
2.05054
2.30089
2.36489
3.38321
3.30288
3.31834
3.4273
3.49805
5.89202
5.27171
4.92892
4.72967
4.75956
7.7697
6.99347
6.42054
5.90543
5.8281
8.82073
8.15133
7.55203
6.9183
6.87186
1.85229
0.845413
0.411253
0.143253
0.105037
2.61888
0.912423
0.360199
0.101661
0.0209636
3.51483
1.15389
0.302121
0.0613806
0.0115821
4.09303
1.44147
0.277698
0.0391032
0.0161303
4.60504
1.75875
0.326458
0.0123214
0.0811444
4.23026
1.74338
0.28931
0.0502045
0.267852
3.71042
1.82257
0.615617
0.318872
0.427064
4.91879
3.20884
1.2336
0.557713
0.564063
7.00946
4.28972
1.91364
0.904207
0.6986
8.27284
5.07764
2.49573
1.31201
0.878734
2.84835
3.68275
4.61999
5.506
6.14942
3.68372
3.69651
3.77201
3.85192
3.36771
8.22654
8.08657
7.79932
7.38536
6.34619
9.05291
8.99238
8.85905
8.62151
8.16018
9.60671
9.56995
9.48702
9.33805
9.1188
7.50335
8.01244
8.55941
9.01087
9.46422
7.794
8.45161
8.9871
9.37787
9.70865
7.77898
8.55903
9.15941
9.54077
9.80944
7.81627
8.62755
9.25739
9.62275
9.85359
7.89134
8.67366
9.30535
9.65743
9.87034
2.52658
2.46771
2.268
2.11394
2.04239
3.47825
3.43005
3.4699
3.6889
4.23941
4.63774
4.66048
5.04969
5.59814
6.44876
5.68558
5.8272
6.49797
7.18787
8.04071
6.754
6.84223
7.58055
8.24279
8.93544
0.200772
0.0566017
0.271683
0.85659
2.02035
0.168029
0.0725027
0.217606
0.878701
2.65901
0.146421
0.0787462
0.166978
1.08028
3.44372
0.135642
0.0693552
0.160766
1.39121
3.94606
0.143512
0.0779128
0.257291
1.74026
4.3676
0.198705
0.115845
0.269076
1.87185
4.10315
0.329764
0.134536
0.263822
1.80304
3.86005
0.659155
0.264012
0.778001
3.03544
4.90707
2.2724
0.822721
1.51141
4.16199
6.96072
5.05561
2.5435
2.42483
5.03892
8.27906
5.94789
5.26677
4.40278
3.51065
2.77994
3.52175
3.99055
3.97056
3.87613
3.76359
6.32085
7.35233
7.77909
8.06776
8.21853
8.1213
8.59998
8.84947
8.98864
9.05204
9.11692
9.3378
9.4874
9.5705
9.60696
9.31083
7.91678
1.39862
3.63011
7.73672
9.08181
7.44072
3.2059
1.64071
6.78896
8.39862
6.57761
4.20842
1.00352
4.14766
6.81554
5.09466
3.45523
1.70051
1.03874
4.50369
3.14531
2.03881
1.37781
0.459859
2.59699
1.6187
1.00238
0.796612
0.926235
1.45574
0.778908
0.579195
0.612209
0.685023
0.801516
0.405141
0.589084
0.757801
0.831131
0.306059
0.505749
0.883637
1.04891
1.11038
0.161214
0.934495
1.28012
1.51607
1.57039
0.190308
0.361395
0.705329
0.772538
0.733356
0.395196
0.498804
0.574056
0.630166
0.61735
0.612758
0.644577
0.459596
0.484169
0.497052
0.964073
0.792206
0.411421
0.341964
0.368632
1.32956
0.84265
0.415765
0.219478
0.249433
1.10543
0.856839
1.11896
1.10665
1.00827
0.284071
0.470829
0.861332
0.916989
0.85218
9.19112
8.83859
7.75871
5.73007
3.55952
8.58723
7.72282
5.8515
3.49148
0.866175
0.965014
0.858967
1.02727
1.62018
2.65814
0.814278
0.768471
0.704871
0.824863
1.52584
1.0598
1.01107
0.84793
0.553397
0.742377
1.38175
1.34466
1.14686
0.795989
0.227127
1.85018
1.80354
1.55192
1.23486
0.596897
7.73625
3.62704
1.39992
7.91502
9.31098
6.78513
1.64046
3.2026
7.43762
9.08244
4.13406
1.01087
4.1943
6.57299
8.40017
1.03656
1.70566
3.43356
5.08546
6.82201
0.476346
1.37653
2.01474
3.1274
4.52653
1.30995
0.54742
0.551145
0.454849
0.176429
0.675017
0.297234
0.467233
0.520797
0.487046
0.395032
0.165567
0.378801
0.621266
0.804714
0.286178
0.073077
0.338346
0.770072
1.22115
0.241478
0.0412705
0.314745
0.849034
1.58245
5.4807
2.46158
1.03776
0.964925
1.14189
2.88668
1.09022
0.725797
0.55791
0.251544
3.56832
5.73572
7.75989
8.83912
9.19127
0.843135
3.47184
5.84484
7.72145
8.58707
)
;

boundaryField
{
    left
    {
        type            calculated;
        value           nonuniform List<scalar> 
17
(
0.449156
1.11387
2.18202
3.91038
6.58016
0.299993
0.185516
0.136372
0.141166
0.209322
2.9585
2.05957
1.33189
0.810721
0.493647
6.97861
4.57954
)
;
    }
    right
    {
        type            calculated;
        value           nonuniform List<scalar> 
17
(
1.00857
0.853648
0.735408
0.620042
0.499152
0.367856
0.243024
0.0950602
0.0172808
0.0110965
0.0190568
0.109035
0.329006
0.484018
0.601119
0.713432
0.870376
)
;
    }
    down
    {
        type            calculated;
        value           nonuniform List<scalar> 
20
(
5.99464
3.00006
1.14719
1.04751
1.85287
4.27034
6.38377
8.13135
9.01575
9.30923
9.30906
9.01511
8.12987
6.37969
4.26397
1.8315
0.931558
1.18541
1.1637
1.05602
)
;
    }
    up
    {
        type            calculated;
        value           nonuniform List<scalar> 
20
(
8.54861
5.40552
2.72517
1.4601
0.943192
9.69562
9.66615
9.59857
9.47421
9.29339
9.29637
9.47645
9.60017
9.66725
9.69603
5.70367
3.15213
2.66473
5.39461
8.56543
)
;
    }
    cylinder
    {
        type            calculated;
        value           nonuniform List<scalar> 
40
(
1.36839
3.58779
6.11848
7.96054
8.95715
9.50514
9.74577
9.84079
9.88145
9.89745
9.54748
9.76284
9.84855
9.88496
9.89848
2.28011
4.51653
6.69551
8.23374
9.06994
3.04373
1.84987
1.09178
0.442842
0.604837
9.51902
9.33185
8.74225
7.26963
4.98607
9.51885
9.33111
8.7402
7.26142
4.95746
2.96551
1.73247
1.07349
0.668728
0.104307
)
;
    }
    defaultFaces
    {
        type            empty;
    }
}


// ************************************************************************* //
