/*--------------------------------*- C++ -*----------------------------------*\
  =========                 |
  \\      /  F ield         | OpenFOAM: The Open Source CFD Toolbox
   \\    /   O peration     | Website:  https://openfoam.org
    \\  /    A nd           | Version:  13
     \\/     M anipulation  |
\*---------------------------------------------------------------------------*/
FoamFile
{
    format      ascii;
    class       volVectorField;
    location    "0.6";
    object      U;
}
// * * * * * * * * * * * * * * * * * * * * * * * * * * * * * * * * * * * * * //

dimensions      [0 1 -1 0 0 0 0];

internalField   nonuniform List<vector> 
440
(
(0.21826 -0.176695 -1.81112e-19)
(0.613079 -0.436659 1.07878e-18)
(0.984292 -0.640907 4.23268e-19)
(1.32754 -0.795391 1.24275e-18)
(1.63257 -0.916752 -2.59992e-19)
(0.304893 -0.177684 -5.44488e-19)
(0.819133 -0.4287 -1.01957e-18)
(1.27997 -0.618901 1.14519e-19)
(1.6919 -0.761639 -1.21514e-18)
(2.05374 -0.875113 -1.02099e-18)
(0.384879 -0.152406 -6.98068e-19)
(1.00468 -0.363014 1.58977e-18)
(1.53975 -0.518385 -1.93463e-18)
(2.00471 -0.632633 1.37948e-18)
(2.40594 -0.721477 1.42978e-18)
(0.445866 -0.102745 5.6239e-19)
(1.14609 -0.243083 -1.29951e-18)
(1.73744 -0.344812 -7.50806e-19)
(2.24293 -0.418221 1.96653e-18)
(2.67445 -0.474464 2.50019e-18)
(0.479255 -0.0361582 6.86904e-19)
(1.22363 -0.0847542 1.69138e-19)
(1.8459 -0.119363 2.53131e-18)
(2.37402 -0.143864 -1.06201e-18)
(2.82295 -0.162495 -4.83733e-19)
(-0.000891697 -0.051733 2.75684e-19)
(0.0501216 -0.144491 -3.85534e-19)
(0.106049 -0.222597 1.10955e-18)
(0.171584 -0.292486 -1.76629e-19)
(0.239748 -0.354113 -1.59921e-18)
(0.0137143 -0.084349 -2.62421e-19)
(0.0893123 -0.227923 -4.24276e-19)
(0.174125 -0.350312 1.10672e-19)
(0.268411 -0.450259 5.96927e-20)
(0.36468 -0.530381 -3.59833e-20)
(0.0433403 -0.114273 7.05659e-20)
(0.165458 -0.3032 5.2673e-19)
(0.296158 -0.467438 9.4988e-20)
(0.432854 -0.598911 1.45965e-18)
(0.567909 -0.697477 -2.49802e-20)
(0.0866184 -0.140997 6.69411e-20)
(0.27637 -0.367828 -3.49386e-20)
(0.469492 -0.563017 2.17964e-19)
(0.661408 -0.71853 -2.03627e-18)
(0.844119 -0.830462 9.57277e-19)
(0.142123 -0.161722 -2.35837e-19)
(0.420081 -0.41285 -4.42617e-19)
(0.691402 -0.621474 -7.70451e-19)
(0.950149 -0.78241 9.53454e-19)
(1.18521 -0.892837 3.45406e-18)
(0.592793 -0.591945 -4.05313e-18)
(0.962639 -0.51698 1.01532e-18)
(1.29425 -0.211981 3.71976e-19)
(1.48878 -0.0361231 -5.99931e-19)
(1.55961 -0.000135365 -7.66116e-20)
(0.785491 -0.743435 4.83598e-18)
(1.04389 -0.623558 -3.11216e-19)
(1.31943 -0.284412 -1.42112e-19)
(1.52955 -0.0776168 3.87377e-19)
(1.63078 -0.0177316 1.50058e-19)
(1.03648 -0.878054 1.54114e-18)
(1.17847 -0.709645 4.0451e-18)
(1.343 -0.354772 6.80713e-20)
(1.53941 -0.120362 4.05148e-19)
(1.63592 -0.036328 -4.93177e-20)
(1.33057 -0.98868 1.2206e-18)
(1.35928 -0.77121 -4.1998e-19)
(1.38786 -0.415164 -7.71992e-19)
(1.52288 -0.156298 -2.90485e-19)
(1.6237 -0.0520388 3.56601e-20)
(1.62987 -1.04747 3.87366e-21)
(1.55549 -0.811154 -1.70809e-18)
(1.44866 -0.463866 0)
(1.4895 -0.203582 2.81e-19)
(1.54807 -0.0672488 5.26191e-20)
(2.15627 -1.11532 -1.57925e-18)
(1.83422 -0.800816 -4.93154e-19)
(1.5592 -0.455172 -1.0009e-20)
(1.41048 -0.202594 6.51775e-20)
(1.36534 -0.0676393 -2.3285e-19)
(2.63261 -0.889813 -1.61208e-18)
(1.89997 -0.591014 2.97652e-18)
(1.43276 -0.318799 6.27657e-21)
(1.16089 -0.147771 2.05065e-19)
(1.09978 -0.048932 0)
(2.47858 -0.522845 -6.92726e-18)
(1.60548 -0.338908 -1.4919e-19)
(1.14908 -0.178516 1.98587e-18)
(0.894266 -0.0887514 -3.22494e-19)
(0.812335 -0.0316054 -4.08934e-20)
(1.76237 -0.219994 6.83551e-18)
(1.08874 -0.135707 1.24626e-18)
(0.751931 -0.0676978 2.24175e-19)
(0.572469 -0.0353931 2.90438e-33)
(0.501709 -0.0140191 -7.69446e-20)
(0.683158 0.000164237 1.55219e-18)
(0.395267 0.0235491 7.12775e-19)
(0.267648 0.0240644 -5.1774e-19)
(0.205875 0.0146466 2.22978e-19)
(0.176097 0.00529376 -7.17811e-20)
(3.58188 -0.168159 1.25617e-17)
(3.41717 -0.502937 -1.04435e-17)
(3.13668 -0.786996 7.10864e-18)
(2.78061 -0.996096 2.32084e-18)
(2.33314 -1.10181 -4.1428e-19)
(3.78453 -0.103587 1.03947e-17)
(3.71747 -0.32446 -6.639e-19)
(3.57773 -0.551822 -4.26993e-18)
(3.37829 -0.785759 2.68985e-18)
(3.10032 -1.01978 -6.62792e-19)
(3.11484 -0.0605677 3.65446e-18)
(3.09866 -0.181683 -2.51881e-18)
(3.05961 -0.309665 5.01276e-18)
(2.99891 -0.444858 -1.52947e-19)
(2.92435 -0.593623 -4.79053e-18)
(2.19087 -0.0276237 2.78878e-18)
(2.18384 -0.0833689 8.43042e-18)
(2.16463 -0.144004 -6.53262e-19)
(2.13408 -0.207278 -6.60869e-18)
(2.11307 -0.269436 1.94592e-18)
(0.87944 -0.00184243 5.21226e-18)
(0.87649 -0.00523892 -1.16439e-19)
(0.867372 -0.00956781 -4.25778e-20)
(0.850511 -0.016254 -2.00942e-18)
(0.84116 -0.0229058 -3.6055e-18)
(1.65315 0.940101 2.27603e-18)
(1.34831 0.816718 -7.88876e-20)
(1.00338 0.658652 -3.53614e-20)
(0.627865 0.449477 -1.96263e-19)
(0.225224 0.182293 -1.34073e-19)
(2.07051 0.892523 -1.21857e-18)
(1.71068 0.777737 -1.20339e-18)
(1.29832 0.632586 7.31872e-19)
(0.834039 0.438721 -4.84074e-19)
(0.312139 0.182086 -4.0689e-21)
(2.4186 0.735857 -5.89156e-19)
(2.01967 0.645357 5.25247e-19)
(1.555 0.528762 2.43653e-18)
(1.01754 0.370197 8.08301e-19)
(0.391337 0.155285 5.2606e-19)
(2.68202 0.486722 1.54884e-20)
(2.25239 0.428295 -2.71602e-19)
(1.74743 0.352326 -6.46752e-19)
(1.15476 0.247646 2.0564e-18)
(0.450325 0.104145 -3.2683e-19)
(2.82547 0.173873 -1.17055e-18)
(2.37728 0.152649 -1.60649e-18)
(1.8494 0.125348 -7.2869e-19)
(1.22671 0.0878347 7.96276e-19)
(0.480856 0.0366869 -3.25829e-19)
(0.241135 0.417253 -2.14954e-18)
(0.170939 0.353715 -1.82289e-18)
(0.103432 0.277257 3.17002e-19)
(0.045763 0.183801 -4.74918e-20)
(-0.00161829 0.0676332 3.42182e-20)
(0.371144 0.59492 -8.0128e-19)
(0.274202 0.510478 -6.72483e-19)
(0.178847 0.399744 1.27685e-20)
(0.0926192 0.259737 -2.58228e-20)
(0.016878 0.0965976 2.6365e-20)
(0.581679 0.754095 2.18512e-18)
(0.446216 0.650138 -1.51901e-19)
(0.307951 0.507503 -1.44896e-19)
(0.174412 0.328728 -2.15426e-19)
(0.0484208 0.124021 1.67325e-19)
(0.86205 0.875238 -1.29503e-18)
(0.679162 0.758595 1.9754e-18)
(0.485281 0.594277 3.02762e-19)
(0.28834 0.388475 1.02301e-19)
(0.0925459 0.149199 -1.18395e-19)
(1.20369 0.925301 -4.41202e-19)
(0.969111 0.811884 -4.57888e-19)
(0.708591 0.645121 3.59961e-19)
(0.433324 0.429184 3.5923e-19)
(0.148461 0.168536 1.8962e-21)
(0.939134 0.166595 -4.36107e-19)
(1.49407 0.13342 5.20333e-20)
(1.33021 0.19596 1.93465e-20)
(1.01371 0.499583 -5.0349e-19)
(0.599113 0.645676 5.65989e-20)
(0.944616 0.0883028 1.65097e-19)
(1.50387 0.108359 2.98826e-19)
(1.35796 0.245241 2.67609e-19)
(1.06067 0.615217 -5.75615e-20)
(0.784776 0.803618 7.57933e-19)
(0.948722 0.0104424 5.6762e-20)
(1.51911 0.0843851 -2.08833e-20)
(1.35824 0.295023 -5.70923e-20)
(1.1653 0.713105 -4.24813e-19)
(1.03725 0.937981 1.08282e-19)
(0.950377 -0.0653937 -1.92518e-20)
(1.52492 0.0641091 -7.12151e-19)
(1.36211 0.34536 8.40286e-20)
(1.32662 0.780424 1.19918e-18)
(1.33494 1.04236 9.45856e-19)
(0.947882 -0.139224 -2.48117e-20)
(1.5076 0.0549562 2.07982e-19)
(1.38342 0.394769 -6.34687e-20)
(1.51038 0.821989 -3.81806e-19)
(1.63608 1.09224 -2.73283e-18)
(0.933763 -0.233732 2.38541e-19)
(1.46401 0.0219412 4.90394e-19)
(1.46251 0.391912 -3.3864e-20)
(1.76736 0.800693 3.09576e-18)
(2.15317 1.14349 -5.52019e-18)
(0.88503 -0.344842 -2.50971e-20)
(1.32743 -0.0287278 -6.45779e-19)
(1.40393 0.281843 7.10489e-21)
(1.84264 0.595185 -3.06831e-18)
(2.59438 0.900701 1.66963e-18)
(0.786559 -0.411882 5.52348e-18)
(1.08028 -0.0902863 6.86398e-35)
(1.13559 0.150024 -2.13068e-18)
(1.57643 0.340093 2.63548e-18)
(2.45664 0.529667 5.03197e-18)
(0.634472 -0.291738 1.50661e-19)
(0.713467 -0.0717897 5.27087e-19)
(0.732643 0.0519848 2.48223e-19)
(1.07542 0.135119 6.22915e-19)
(1.75836 0.220506 -8.64438e-18)
(0.322608 -0.0431489 -4.30724e-18)
(0.293767 0.00563557 2.83876e-19)
(0.265239 -0.0133046 1.11115e-18)
(0.393474 -0.0240306 -7.70412e-19)
(0.686184 -0.000458991 -1.46619e-18)
(2.34865 1.12123 4.69081e-18)
(2.7873 1.01258 3.4732e-18)
(3.14088 0.803396 -5.6921e-18)
(3.41899 0.519608 -1.46162e-17)
(3.5824 0.185882 1.57637e-17)
(3.07885 1.01885 5.00894e-18)
(3.35404 0.795227 2.56346e-17)
(3.55694 0.560668 7.2425e-18)
(3.7011 0.331823 -3.08287e-17)
(3.77793 0.111137 -5.17334e-18)
(2.9057 0.592008 -7.22835e-18)
(2.98597 0.448102 -3.3804e-18)
(3.05217 0.312111 -6.29726e-18)
(3.09524 0.181722 -6.88931e-18)
(3.114 0.0584264 6.52283e-18)
(2.10627 0.2659 5.4158e-18)
(2.13013 0.205745 -4.04609e-19)
(2.16254 0.143038 4.87125e-18)
(2.18312 0.0821324 6.28927e-18)
(2.19077 0.0259966 -5.88789e-18)
(0.842541 0.0220563 -5.7467e-19)
(0.851937 0.0156541 3.52109e-18)
(0.868636 0.00913164 2.44319e-18)
(0.877494 0.00479261 -5.16941e-18)
(0.879839 0.00136154 -3.84289e-20)
(0.281981 0.0207601 5.52135e-19)
(0.656775 0.040473 -7.43605e-19)
(0.973273 0.0440736 -8.18485e-19)
(0.944442 0.0274359 -1.51803e-18)
(0.697951 0.0163885 -6.63738e-19)
(0.245619 0.0554691 7.45765e-19)
(0.591359 0.107092 1.44152e-18)
(0.864801 0.125161 -6.97392e-19)
(0.940069 0.0970139 1.96083e-18)
(0.724275 0.0532499 -2.7009e-18)
(0.185651 0.0742766 4.96255e-19)
(0.476462 0.145918 -1.39888e-18)
(0.707869 0.184788 -9.13932e-19)
(0.857421 0.175439 -1.81027e-18)
(0.741656 0.101247 -2.86238e-18)
(0.123324 0.0774854 -7.7268e-19)
(0.344812 0.160377 -1.37665e-18)
(0.534606 0.214908 4.39917e-18)
(0.677809 0.233345 -3.66703e-19)
(0.713136 0.180053 2.25506e-18)
(0.075282 0.0723752 -6.23003e-19)
(0.230739 0.16012 1.56428e-18)
(0.372319 0.224552 6.12323e-19)
(0.482871 0.257805 -1.29588e-18)
(0.561382 0.258499 -1.74893e-19)
(0.04515 0.0637787 8.41992e-20)
(0.149957 0.148768 -1.22224e-18)
(0.247757 0.21216 -9.45575e-19)
(0.325471 0.234128 -8.69587e-20)
(0.371264 0.223881 -5.00126e-20)
(0.0264638 0.0556998 3.12177e-19)
(0.0950738 0.134305 5.94115e-19)
(0.160893 0.184861 -2.08878e-19)
(0.213776 0.195516 2.59742e-19)
(0.25363 0.185471 1.71522e-19)
(0.0133348 0.0488624 2.49905e-19)
(0.0586237 0.111483 1.31546e-18)
(0.10373 0.121311 -1.23886e-18)
(0.142715 0.107524 -2.78809e-18)
(0.178913 0.0860994 4.08345e-19)
(0.00618163 0.0393672 -2.37825e-19)
(0.0425792 0.0490443 -1.80915e-18)
(0.0798657 0.0220498 3.21915e-18)
(0.119924 -0.00971927 1.31474e-18)
(0.161423 -0.0434903 -2.69559e-19)
(0.00997824 0.0020219 2.0996e-19)
(0.0421361 -0.0498652 -4.52308e-19)
(0.0822289 -0.0960336 8.99571e-20)
(0.13092 -0.143992 1.0512e-19)
(0.181624 -0.190202 2.2015e-21)
(0.3387 0.072051 -7.49844e-20)
(0.61324 -0.0421595 -1.22491e-18)
(0.703022 -0.0132696 2.54099e-19)
(0.714652 0.0064824 4.02555e-19)
(0.698896 0.00364702 1.23313e-20)
(0.302848 -0.0341245 -1.00136e-19)
(0.74978 -0.114716 1.46791e-18)
(0.886899 -0.0228462 9.19081e-19)
(0.9136 0.00988599 7.56003e-20)
(0.902506 0.00622197 -3.47248e-20)
(0.319657 -0.14951 -8.11348e-19)
(0.834543 -0.197959 3.15313e-18)
(1.04844 -0.0420084 -1.81368e-19)
(1.10038 0.0120442 -3.58644e-19)
(1.09437 0.0087608 7.09125e-20)
(0.375968 -0.288247 1.10604e-18)
(0.884008 -0.297483 -2.71386e-18)
(1.1711 -0.0826075 -5.34542e-19)
(1.2665 0.00871486 -3.19502e-20)
(1.27146 0.00974532 1.60879e-21)
(0.462946 -0.436663 5.00937e-19)
(0.91945 -0.404882 -5.47785e-19)
(1.24957 -0.142446 4.80987e-19)
(1.40085 -0.00517055 1.1717e-19)
(1.42737 0.00796446 -1.95677e-21)
(0.182966 -0.0449842 9.54941e-19)
(0.144906 -0.00525078 0)
(0.162469 0.000976128 1.16373e-19)
(0.161854 -0.000424197 -6.48956e-21)
(0.155873 -0.000763465 -7.2242e-20)
(0.399686 0.0700175 0)
(0.40835 -0.00044579 0)
(0.466271 -0.00408306 4.99611e-20)
(0.467256 0.0033936 -3.15656e-20)
(0.451554 0.00149814 4.59254e-20)
(0.162693 -0.000821297 -3.68472e-19)
(0.18641 -0.00179205 3.1077e-18)
(0.213221 -0.00502066 -6.86302e-19)
(0.229819 -0.0149891 -3.11704e-18)
(0.245713 -0.017012 -7.97033e-19)
(0.432047 0.00444144 6.09937e-19)
(0.484577 0.0196965 4.11561e-18)
(0.536473 0.0466991 -6.73002e-18)
(0.567643 0.0806194 2.20944e-18)
(0.598332 0.162223 3.7977e-18)
(0.370734 -0.220656 -3.32708e-19)
(0.324363 -0.231639 -9.30568e-20)
(0.248394 -0.212682 -3.31358e-19)
(0.150769 -0.150744 3.88433e-19)
(0.0458687 -0.0645771 1.14048e-19)
(0.257506 -0.169726 4.22587e-19)
(0.215069 -0.181809 1.41401e-18)
(0.162386 -0.177138 2.58858e-19)
(0.0967159 -0.135113 2.36474e-19)
(0.0269087 -0.0571968 -1.86853e-20)
(0.193191 -0.0549195 -3.11443e-19)
(0.15162 -0.077481 -1.05451e-19)
(0.108786 -0.0950385 1.63383e-18)
(0.0623219 -0.0972593 2.85999e-19)
(0.0132489 -0.0480243 -3.13888e-19)
(0.178785 0.0868299 -6.36403e-19)
(0.13273 0.052975 -7.06043e-19)
(0.0878154 0.0192589 1.3102e-18)
(0.0495133 -0.0108385 1.60179e-18)
(0.0112354 -0.0299146 1.99024e-19)
(0.188896 0.244209 1.23883e-19)
(0.134446 0.197907 -1.20185e-19)
(0.0820028 0.148097 2.48491e-19)
(0.0382704 0.0969927 6.23305e-19)
(-0.00225248 0.035622 9.27509e-20)
(0.697948 -0.0163439 1.53158e-18)
(0.944448 -0.0274132 -1.80084e-18)
(0.973081 -0.0441998 2.27006e-18)
(0.656786 -0.0405355 3.64634e-19)
(0.282015 -0.0207688 5.3669e-19)
(0.724265 -0.0531431 1.77264e-18)
(0.939927 -0.0970289 7.94686e-18)
(0.864599 -0.125266 1.03368e-18)
(0.591411 -0.107132 1.34952e-18)
(0.245715 -0.0554903 -4.78517e-19)
(0.741571 -0.101003 -1.22141e-18)
(0.856818 -0.175276 -2.29656e-18)
(0.707791 -0.18485 2.92451e-18)
(0.47653 -0.145987 -1.08269e-19)
(0.185774 -0.0743123 3.39517e-19)
(0.712607 -0.179876 1.73452e-20)
(0.677111 -0.233297 -7.68629e-18)
(0.534643 -0.215241 -5.99987e-18)
(0.344948 -0.160712 1.09168e-18)
(0.123506 -0.0775894 5.08044e-19)
(0.558981 -0.256994 4.6791e-19)
(0.481856 -0.257238 5.33519e-19)
(0.372393 -0.22528 -8.99611e-19)
(0.230997 -0.160994 -8.88343e-19)
(0.0756304 -0.072633 -5.14454e-21)
(0.727686 0.37314 1.17584e-18)
(0.880406 0.127783 -1.90896e-19)
(0.676977 0.019647 2.51158e-19)
(0.644917 0.0360041 -7.53617e-19)
(0.362647 -0.0619123 -1.00743e-19)
(0.827531 0.398114 -1.70607e-19)
(1.08822 0.15789 -5.72533e-19)
(0.868556 0.0381549 8.36209e-19)
(0.804838 0.0990453 1.67711e-18)
(0.340497 0.0540168 1.03298e-19)
(0.8923 0.372749 -2.2559e-18)
(1.26801 0.172028 -3.75572e-20)
(1.0396 0.0623286 2.51245e-19)
(0.908848 0.178335 1.70411e-18)
(0.364902 0.176607 -1.44342e-18)
(0.923883 0.317854 1.4991e-18)
(1.41035 0.174286 1.60023e-20)
(1.17728 0.0998404 -2.16399e-19)
(0.964515 0.276919 -7.62548e-19)
(0.415843 0.323321 -5.90929e-19)
(0.933758 0.244754 1.78201e-19)
(1.48586 0.15756 3.98062e-20)
(1.27216 0.146057 -8.23875e-20)
(0.992955 0.38478 -9.48885e-20)
(0.486079 0.480698 1.36268e-18)
(0.275671 0.0483702 0)
(0.244292 -0.0112612 6.50007e-19)
(0.157568 -0.0159236 1.27114e-19)
(0.150412 0.00553823 -1.09751e-19)
(0.18439 0.0441047 -1.80769e-18)
(0.573407 0.26635 -1.01982e-17)
(0.609377 0.0751878 -2.5644e-18)
(0.445041 0.0132273 5.00212e-19)
(0.42389 0.000400371 -6.5563e-19)
(0.407609 -0.0683325 -6.62018e-19)
(0.245848 0.016976 -9.04711e-22)
(0.229914 0.0150778 1.92877e-18)
(0.213298 0.0050643 5.24537e-19)
(0.18646 0.00180201 3.23014e-19)
(0.162708 0.000825162 0)
(0.599206 -0.162125 -1.15159e-19)
(0.568196 -0.0803308 2.547e-18)
(0.53658 -0.0464772 -1.37785e-19)
(0.484637 -0.0196435 -2.70533e-19)
(0.43207 -0.00441917 7.60514e-19)
)
;

boundaryField
{
    left
    {
        type            fixedValue;
        value           uniform (1 0 0);
    }
    right
    {
        type            zeroGradient;
    }
    down
    {
        type            noSlip;
    }
    up
    {
        type            noSlip;
    }
    cylinder
    {
        type            noSlip;
    }
    defaultFaces
    {
        type            empty;
    }
}


// ************************************************************************* //
