/*--------------------------------*- C++ -*----------------------------------*\
  =========                 |
  \\      /  F ield         | OpenFOAM: The Open Source CFD Toolbox
   \\    /   O peration     | Website:  https://openfoam.org
    \\  /    A nd           | Version:  13
     \\/     M anipulation  |
\*---------------------------------------------------------------------------*/
FoamFile
{
    format      ascii;
    class       surfaceScalarField;
    location    "0.93";
    object      phi;
}
// * * * * * * * * * * * * * * * * * * * * * * * * * * * * * * * * * * * * * //

dimensions      [0 3 -1 0 0 0 0];

internalField   nonuniform List<scalar> 
823
(
0.0113783
-0.0505538
0.0391755
0.0387598
-0.133435
0.106053
0.0788335
-0.205877
0.165804
0.130172
-0.26887
0.217532
-0.323261
0.259419
0.194014
0.0107034
-0.0612572
0.0361439
-0.158875
0.072649
-0.242382
0.117973
-0.314194
-0.375601
0.170313
0.00837712
-0.0696343
0.0282853
-0.178784
0.0567257
-0.270823
0.0918102
-0.349279
-0.41605
0.13226
0.00529925
-0.0749335
0.0179955
-0.19148
0.0362294
-0.289057
0.0588834
-0.371933
-0.442414
0.0852474
0.00196194
-0.0768955
0.00662995
-0.196148
0.0132895
-0.295716
0.0215216
-0.380165
0.0310617
-0.451954
0.00661406
-0.0107679
0.0041537
0.0221244
-0.0309431
0.0154327
0.0453081
-0.0485471
0.0253634
0.0744401
-0.0639945
0.0348625
-0.0770914
0.10808
0.0434515
0.00573812
-0.0165061
0.0214342
-0.0466392
0.0466153
-0.0737282
0.0796309
-0.0970101
-0.116134
0.118674
0.00638821
-0.0228943
0.0236373
-0.0638883
0.0511929
-0.101284
0.0878482
-0.133665
-0.16014
0.131854
0.00753533
-0.0304296
0.0270831
-0.0834361
0.0573046
-0.131505
0.0969995
-0.17336
-0.207908
0.144768
0.00874589
0.0313631
0.0656614
0.109833
0.161344
0.322414
-0.958574
0.74424
0.474599
-0.824191
0.672006
0.575346
-0.357857
0.257111
0.619146
-0.0699005
0.0260998
0.00283833
-0.00839254
0.330096
-1.17
0.470773
-0.964868
0.576765
-0.46385
0.643659
-0.136794
-0.0224475
0.336255
-1.3744
0.460495
-1.08911
0.562737
-0.566091
0.643783
-0.21784
-0.065661
0.337231
-1.56686
0.447471
-1.19935
0.540438
-0.659058
0.615633
-0.293036
-0.105404
0.327614
-1.73313
0.42784
-1.29957
0.508697
-0.739914
0.571847
-0.356185
-0.136083
1.19774
-1.59055
-1.34032
1.00766
-1.1095
0.885311
-0.617567
0.825565
-0.29644
-0.113048
1.32966
-1.13312
-1.78709
0.981552
-0.761392
0.772713
-0.408728
0.676594
-0.200321
-0.0789727
1.18936
-0.607674
-1.7148
0.81608
-0.388116
0.60995
-0.202598
0.510981
-0.101352
-0.0416471
0.822343
-0.185289
-1.24473
0.545288
-0.111062
0.396271
-0.0535813
0.322226
-0.027306
-0.0121045
0.306715
-0.492004
0.195653
0.142072
0.114766
1.56259
0.046249
-1.57778
1.52169
0.126153
1.46266
0.191283
1.39634
0.236635
0.250039
1.67586
0.0356506
-1.66526
1.69931
0.102694
1.7308
0.159794
1.76527
0.202166
0.228225
1.38797
0.0184771
-1.37079
1.43705
0.053608
1.51387
0.0829775
1.61014
0.105892
0.123568
0.977699
0.00531441
-0.964536
1.01588
0.0154233
1.07582
0.0230448
1.15388
0.0278276
0.0327214
0.392987
-0.387673
0.408411
0.431455
0.459283
0.128769
0.327629
-0.264673
-0.191725
0.0781585
0.273215
-0.222604
0.0385248
0.209792
-0.170158
0.0113404
0.136442
-0.109258
0.0519522
-0.0406118
0.115953
0.378907
-0.167231
0.071499
0.317669
0.0356197
0.245671
0.0105617
0.1615
0.0625139
0.0888495
0.418274
-0.128217
0.0548114
0.351707
0.0272883
0.273195
0.00806519
0.180723
0.0705791
0.0552406
0.443533
-0.0804992
0.0337631
0.373184
0.0166551
0.290302
0.00486435
0.192514
0.0754434
0.0174804
-0.025902
0.0104997
0.00508593
0.00145208
0.0726997
0.0873799
-0.107358
-0.0527216
0.0429293
0.0737532
-0.0439827
0.0197567
0.0569768
-0.0338042
0.00514417
0.0368356
-0.0222231
0.0133071
-0.00816299
0.0760118
0.125961
-0.114593
0.0437109
0.106054
0.0196364
0.0810512
0.00508785
0.0513842
0.018395
0.0843446
0.168597
-0.126981
0.0490524
0.141346
0.0227141
0.107389
0.00616727
0.0679311
0.0245623
0.0940178
0.214699
-0.14012
0.0557454
0.179619
0.0265132
0.136622
0.00742412
0.0870202
0.0319865
0.107385
-0.157359
0.0643995
0.0308627
0.00862533
0.513557
0.177569
-0.295146
0.564169
0.158393
-0.209005
0.497928
0.314024
-0.247783
0.335372
0.802741
-0.640185
1.04192
-0.813906
0.515009
0.0585396
0.563134
0.110269
0.488791
0.388367
0.331593
0.95994
1.25892
0.515789
-0.0612698
0.550052
0.0760056
0.467897
0.470522
0.328006
1.09983
1.45995
0.512335
-0.177625
0.527642
0.0606985
0.442096
0.556068
0.323638
1.21829
1.64346
0.499788
-0.281433
0.494379
0.0661078
0.412325
0.638122
0.311813
1.3188
1.79792
0.761984
-0.439397
0.840969
-0.0128775
0.955991
0.5231
1.16944
1.10535
1.61977
1.34759
0.705136
-0.540513
0.778624
-0.0863657
0.953585
0.348139
1.29749
0.761444
1.14353
1.77373
0.602238
-0.53873
0.632381
-0.116508
0.803205
0.177314
1.17243
0.392218
0.612045
1.70391
0.448508
-0.383218
0.405096
-0.0730964
0.535848
0.0465616
0.815995
0.112071
0.18691
1.24113
0.220803
0.147706
0.194268
0.306339
0.493249
1.4026
-0.246741
1.46575
-0.230375
1.523
-0.185465
1.56316
-0.120659
-0.0405263
1.75264
-0.225646
1.71972
-0.19746
1.69061
-0.156349
1.67083
-0.100881
-0.0349545
1.60146
-0.123193
1.50876
-0.104757
1.43456
-0.0821508
1.38705
-0.0533737
-0.0186959
1.15107
-0.0331348
1.07431
-0.0279901
1.0153
-0.0231447
0.977572
-0.0156457
-0.00566044
0.460114
0.432124
0.408979
0.393333
0.00250157
0.043009
-0.0455106
0.00732841
0.101057
-0.105884
0.0160961
0.148403
-0.157171
0.0165795
0.151918
-0.152401
0.114035
0.014815
-0.11227
0.00682888
0.0361801
0.0201792
0.0877067
0.0409603
0.127622
0.048258
0.14462
0.116388
0.0459044
0.00880996
0.0273702
0.0270786
0.0694381
0.0521541
0.102547
0.0730968
0.123677
0.114042
0.0754433
0.00780178
0.0195684
0.025515
0.0517248
0.0497512
0.0783105
0.0774356
0.0959929
0.0992471
0.0922303
0.00509889
0.0144695
0.0179732
0.0388505
0.0367678
0.059516
0.0600133
0.0727474
0.0767445
0.0825159
0.0034232
0.0110463
0.012579
0.0296946
0.0274449
0.0446501
0.0470648
0.0531275
0.056145
0.0676643
0.00222152
0.00882477
0.00893363
0.0229825
0.0222823
0.0313015
0.0410452
0.0343645
0.0347491
0.0624411
0.00168141
0.00714338
0.0101626
0.0145013
0.0262441
0.0152199
0.0468205
0.013788
0.011478
0.0700916
0.00377848
0.00336491
0.0176016
0.000678218
0.0369572
-0.00413574
0.0599967
-0.00925158
-0.0144512
0.0859258
0.00751851
0.0236294
0.044857
0.0704679
0.0994681
0.153961
0.0195321
-0.105829
0.243682
-0.130662
0.040941
0.26516
-0.0383971
0.0169187
0.269834
0.00465035
-0.00932407
-0.000694291
-0.00519009
0.215025
-0.133052
0.325692
-0.241329
0.35201
-0.0647152
0.354183
0.00247776
-0.00300825
0.260407
-0.323368
0.391911
-0.372833
0.434415
-0.107219
0.435394
0.00149922
-0.000763504
0.293654
-0.531096
0.439316
-0.518495
0.503679
-0.171583
0.509849
-0.00467028
0.00456433
0.312611
0.466123
0.551651
0.573081
0.0707065
0.0386417
-0.109348
0.0787199
-0.00801335
0.0831142
-0.00439439
0.0803662
0.0027481
0.00129838
0.194218
-0.261405
0.227145
0.23967
0.233094
0.0207331
-0.00433173
-0.0164013
0.034284
-0.0135509
0.0567634
-0.0224795
0.0856242
-0.0288608
-0.023724
0.0539263
-0.043443
0.0862798
0.139244
0.202613
0.0478223
-0.0551583
0.0763606
-0.0690245
0.0275537
-0.0521786
0.0724471
0.0123373
-0.0443863
0.0596027
0.00331836
-0.0300427
0.0390617
-0.0112608
0.0145792
0.0453552
-0.032285
-0.0682286
0.0249365
-0.0317599
0.00981008
-0.0292598
0.00218721
-0.0224199
-0.00907359
0.0560313
-0.00670651
-0.0816099
0.0330984
-0.00882707
0.0142574
-0.0104188
0.00258108
-0.0107436
-0.0064925
0.0701397
0.0215519
-0.098398
0.0448523
0.0164603
0.0233732
0.0110602
0.00692107
0.00570854
0.000428555
0.0745154
-0.105685
0.0469931
0.0242491
0.00773449
0.0165861
-0.114033
-0.0148234
0.0160951
-0.15191
0.00730704
-0.148383
0.00248927
-0.101066
-0.0430213
0.0482733
-0.116377
-0.0459289
0.0409339
-0.144571
0.020165
-0.127614
0.00682163
-0.0877227
-0.0361997
0.0731266
-0.113971
-0.0755327
0.0521258
-0.12357
0.0270667
-0.102555
0.00880682
-0.0694628
-0.0273928
0.077341
-0.098975
-0.0923372
0.0496233
-0.0958524
0.0254349
-0.0783666
0.00777619
-0.0518041
-0.0196167
0.0599492
-0.0825637
0.0365439
0.0177799
0.0050375
0.341907
0.583359
-0.529286
0.280568
0.224994
-0.163656
0.247136
0.0558933
-0.0224607
0.165221
0.112875
-0.0309608
-0.00109507
0.0972915
0.407668
0.57167
0.371347
0.261315
0.335338
0.0919024
0.23347
0.214744
0.164146
0.459552
0.508098
0.451304
0.269563
0.409043
0.134163
0.283736
0.340051
0.366272
0.494359
0.409719
0.514069
0.249853
0.461473
0.186759
0.318014
0.483511
0.585888
0.510552
0.5514
0.490377
0.333702
0.15867
0.351381
0.0848034
0.0738661
0.0798223
0.00498116
0.0724148
0.0074075
-0.0369826
0.109397
0.332147
0.242357
0.224877
0.201324
0.261633
0.0856732
0.0237242
0.0567955
0.0288778
0.0342951
0.0225004
0.0207366
0.0135585
0.00433523
0.202793
0.139334
0.0863015
0.0539312
)
;

boundaryField
{
    left
    {
        type            calculated;
        value           nonuniform List<scalar> 
17
(
-0.60402
-0.60402
-0.60402
-0.60402
-0.60402
-0.39598
-0.39598
-0.39598
-0.39598
-0.39598
-0.39598
-0.39598
-0.39598
-0.39598
-0.39598
-0.510051
-0.510051
)
;
    }
    right
    {
        type            calculated;
        value           nonuniform List<scalar> 
17
(
0.0790678
0.229202
0.275718
0.356497
0.433149
0.504521
0.569253
0.624701
0.668945
0.686996
0.655376
0.602526
0.80253
0.642518
0.473655
0.292683
0.102662
)
;
    }
    down
    {
        type            calculated;
        value           uniform 0;
    }
    up
    {
        type            calculated;
        value           uniform 0;
    }
    cylinder
    {
        type            calculated;
        value           uniform 0;
    }
    defaultFaces
    {
        type            empty;
    }
}


// ************************************************************************* //
