/*--------------------------------*- C++ -*----------------------------------*\
  =========                 |
  \\      /  F ield         | OpenFOAM: The Open Source CFD Toolbox
   \\    /   O peration     | Website:  https://openfoam.org
    \\  /    A nd           | Version:  13
     \\/     M anipulation  |
\*---------------------------------------------------------------------------*/
FoamFile
{
    format      ascii;
    class       volVectorField;
    location    "6.86";
    object      U;
}
// * * * * * * * * * * * * * * * * * * * * * * * * * * * * * * * * * * * * * //

dimensions      [0 1 -1 0 0 0 0];

internalField   nonuniform List<vector> 
440
(
(-0.0735506 0.0602445 -5.34107e-20)
(-0.081514 0.12187 -9.16431e-21)
(0.0185351 0.106074 1.17762e-20)
(0.434577 0.127876 3.8244e-19)
(0.314926 0.2914 -1.53377e-20)
(-0.0611749 0.0322787 2.03656e-20)
(0.0618359 0.00889323 -1.06947e-19)
(0.476008 -0.026642 -7.34109e-20)
(1.02194 -0.0497707 1.65757e-20)
(1.37518 -0.0297468 -1.98096e-20)
(-0.0112577 0.00303471 3.9381e-20)
(0.44977 -0.0397925 6.80977e-19)
(1.18768 -0.020138 -4.05962e-19)
(1.7445 0.0212338 -1.20079e-18)
(2.32805 0.0449736 4.80785e-19)
(0.187309 -0.0443032 -1.64628e-19)
(1.13119 0.00490733 -5.32427e-19)
(1.90759 0.0860556 1.62485e-18)
(2.39128 0.13425 1.82723e-18)
(2.48679 0.163265 -4.90508e-19)
(0.536417 -0.00759037 -2.82944e-19)
(1.70921 0.19018 -6.04583e-19)
(2.28144 0.27959 1.84671e-18)
(2.40957 0.302885 1.93744e-18)
(2.48163 0.275528 6.51838e-19)
(0.0179801 -0.275137 -3.76658e-20)
(-0.0256281 -0.487611 2.24477e-20)
(-0.100875 -0.524409 -7.31421e-20)
(-0.170585 -0.511716 2.04026e-20)
(-0.220515 -0.489206 1.94498e-19)
(0.0219971 -0.162622 -1.7781e-20)
(-0.039235 -0.302915 -9.79386e-20)
(-0.124413 -0.340097 -3.65006e-23)
(-0.201786 -0.350623 6.16347e-21)
(-0.258474 -0.362683 -1.73622e-20)
(-0.0107333 -0.0251446 -1.27623e-19)
(-0.0785652 -0.0939403 1.60691e-19)
(-0.157486 -0.136298 -7.18176e-20)
(-0.233141 -0.170667 -2.62211e-19)
(-0.283648 -0.211346 5.04822e-22)
(-0.0532485 0.0686851 5.7846e-21)
(-0.117467 0.0671108 -6.4072e-20)
(-0.185493 0.0465567 2.8199e-21)
(-0.248896 0.0100419 6.20966e-19)
(-0.276759 -0.0333545 -1.45506e-19)
(-0.0849065 0.100488 4.97547e-20)
(-0.145509 0.179515 6.23779e-20)
(-0.183255 0.215595 1.26659e-19)
(-0.12727 0.244133 -2.34146e-19)
(-0.0988155 0.309196 -6.95997e-19)
(-0.413942 -0.376137 8.86036e-20)
(0.803378 0.277594 -1.11913e-18)
(0.147046 0.980518 3.88733e-19)
(0.471778 0.142097 -1.92633e-19)
(1.20211 -0.53226 7.31417e-20)
(-0.461076 -0.490368 -1.42469e-19)
(0.527151 0.212601 3.22752e-19)
(-0.314751 1.02191 -6.4917e-21)
(0.983058 -0.0676496 1.0528e-18)
(1.46714 -0.612993 -2.75525e-19)
(-0.359055 -0.546938 -2.21166e-19)
(0.0383593 0.164655 -3.3585e-18)
(-0.596765 0.919946 7.53704e-20)
(1.44065 -0.368978 1.42747e-18)
(1.64533 -0.676548 4.39375e-20)
(0.0142214 -0.554527 -7.64923e-20)
(-0.40012 0.146022 1.2772e-19)
(-0.244784 0.697793 4.72889e-19)
(1.87745 -0.599947 -6.24258e-19)
(1.81052 -0.697712 -7.51027e-20)
(0.865824 -0.577397 -2.85988e-19)
(-0.331473 0.0411431 7.53574e-19)
(0.496889 0.35644 0)
(2.25782 -0.744101 2.1435e-20)
(1.9698 -0.687344 -3.06942e-20)
(2.07286 -0.312664 -4.93225e-19)
(0.973482 0.0708121 1.82348e-20)
(1.48093 0.0181301 3.14387e-20)
(2.5911 -0.842998 -2.84693e-19)
(2.0559 -0.656954 3.72069e-20)
(2.2873 -0.382682 5.66861e-20)
(1.7346 0.140795 -2.77071e-19)
(2.27777 -0.148988 1.95487e-20)
(2.73616 -0.824243 9.79891e-19)
(1.88148 -0.55162 0)
(2.18362 -0.129728 -1.57784e-19)
(1.89501 0.0544741 8.53383e-21)
(2.44142 -0.335214 4.36165e-19)
(2.29946 -0.640549 -3.30973e-19)
(1.30348 -0.350871 1.77226e-20)
(1.99787 -0.107946 -1.24134e-20)
(2.0554 -0.048231 1.54421e-19)
(2.15467 -0.342583 3.72267e-20)
(1.64921 -0.443239 8.34755e-34)
(0.660323 -0.188464 3.27953e-20)
(1.36743 -0.0131173 6.39279e-20)
(1.44287 -0.0757213 1.89374e-20)
(0.90119 -0.122536 -9.6336e-20)
(0.123739 0.0107571 8.15311e-20)
(-0.294838 0.0240821 -3.48538e-21)
(2.38926 0.291862 -7.9942e-19)
(2.61413 0.0796269 -1.07539e-18)
(2.41926 0.139501 7.15583e-19)
(2.70338 -0.0656886 7.94066e-20)
(1.88562 0.134587 -4.00214e-20)
(2.13502 0.212011 6.68297e-20)
(2.47554 0.0571234 -3.93695e-20)
(2.24473 0.0728138 -1.37253e-19)
(2.53967 -0.0893636 -2.39154e-19)
(2.29845 -0.12265 -4.17556e-21)
(2.08964 0.0958121 7.57323e-20)
(2.20272 0.0622255 8.96119e-20)
(2.19993 -0.00230182 -1.10885e-19)
(2.25108 -0.0224552 3.79801e-20)
(2.29987 -0.102951 1.03252e-20)
(1.96798 0.0482951 1.13932e-19)
(1.96581 0.040406 1.57321e-19)
(2.08931 0.00111035 -1.82746e-20)
(2.04754 -0.00686892 -5.72724e-20)
(2.18554 -0.040037 2.38023e-20)
(1.45483 -0.0051542 1.8172e-19)
(1.43832 0.000117387 -1.10202e-20)
(1.52069 -0.0145062 1.76991e-20)
(1.46808 -0.00545637 -3.06926e-20)
(1.57178 -0.0236494 -5.03445e-21)
(1.5688 0.829841 1.07288e-18)
(1.51772 0.926224 -3.32262e-19)
(1.51293 1.05596 -1.30415e-18)
(1.44656 1.10544 7.15655e-19)
(0.890456 0.79736 -1.74644e-19)
(1.83828 0.795469 -5.64938e-19)
(1.81112 0.875256 -2.90663e-18)
(1.81881 0.981905 -1.11784e-18)
(1.7281 0.992642 -4.08662e-19)
(1.05605 0.693787 -6.51076e-19)
(2.15359 0.678419 7.11912e-19)
(2.12135 0.744286 1.9782e-19)
(2.09188 0.83199 -2.18241e-18)
(1.96043 0.820636 -6.11558e-19)
(1.15515 0.540503 4.65872e-19)
(2.30066 0.574386 2.1763e-18)
(2.29668 0.625206 1.59621e-18)
(2.29064 0.671199 -1.8682e-18)
(2.064 0.625367 -1.38764e-18)
(1.12223 0.355305 -2.61803e-19)
(2.46733 0.424045 1.0523e-18)
(2.45667 0.443081 -7.81588e-19)
(2.34581 0.466488 5.4318e-19)
(2.00676 0.405993 4.40701e-19)
(0.91862 0.151329 -3.66554e-19)
(0.569299 0.432359 -6.86509e-19)
(0.478734 0.466752 -5.37698e-19)
(0.360532 0.50117 6.56995e-20)
(0.223848 0.506275 -1.6135e-20)
(0.0548718 0.364065 7.80387e-20)
(0.677194 0.59925 8.4438e-20)
(0.612621 0.655434 -3.18666e-19)
(0.522307 0.720693 1.80922e-19)
(0.394604 0.77588 -8.3251e-20)
(0.170327 0.592952 1.1829e-19)
(0.76972 0.80028 1.889e-19)
(0.698402 0.880285 4.32046e-19)
(0.641779 0.975745 6.92284e-20)
(0.556221 1.01915 -2.85842e-19)
(0.304335 0.756589 2.337e-19)
(1.04087 0.87684 2.10438e-19)
(0.994728 0.960834 -6.27479e-19)
(0.942639 1.05867 -1.81342e-18)
(0.859262 1.12653 7.40363e-19)
(0.507229 0.84135 -1.75728e-19)
(1.11906 0.919085 -1.17803e-19)
(1.14886 1.04248 -1.94049e-19)
(1.17449 1.15998 -3.41996e-19)
(1.12081 1.18855 -3.92016e-19)
(0.689817 0.855739 -6.36861e-21)
(0.998488 0.0582141 -9.61589e-20)
(0.997014 0.0118184 -3.69042e-20)
(1.0463 0.124909 -1.51769e-21)
(0.935088 0.127453 -2.77367e-19)
(0.890329 0.259649 3.16912e-19)
(0.983762 0.0572558 6.03324e-20)
(1.01486 0.00433615 1.34172e-19)
(1.03644 0.137939 1.22208e-19)
(0.968212 0.155506 3.66399e-20)
(0.927502 0.34002 4.3465e-21)
(0.987939 0.0562535 8.15774e-20)
(1.00458 -0.00449391 -5.09898e-21)
(1.07976 0.156095 -5.45047e-21)
(0.923261 0.157994 1.55814e-19)
(1.12086 0.474976 -4.73944e-19)
(0.982386 0.0560514 -4.36545e-22)
(1.02787 -0.0173285 -1.91072e-19)
(1.07529 0.179669 -6.50076e-20)
(0.996202 0.170127 -3.92025e-19)
(1.14462 0.522894 8.95518e-20)
(0.981918 0.0471897 -1.40272e-20)
(1.03831 -0.0157089 5.61375e-20)
(1.11171 0.18771 3.11089e-20)
(0.972807 0.192906 4.7769e-19)
(1.39237 0.653025 -4.52544e-19)
(0.950548 0.0462419 -7.44062e-21)
(1.11559 -0.0431643 1.09777e-19)
(1.07778 0.223416 -7.68419e-20)
(1.21566 0.124157 8.92789e-19)
(1.30585 0.674334 -3.77093e-19)
(0.913086 0.0100279 -1.64342e-21)
(1.20537 -0.0383777 -9.22582e-20)
(0.976864 0.161581 4.70359e-21)
(1.30352 0.125964 -2.96993e-19)
(1.27843 0.446517 -1.70751e-20)
(0.968267 -0.00990231 9.0205e-22)
(1.15199 -0.0331916 1.31009e-35)
(0.997273 0.155947 -2.02948e-20)
(1.27233 0.0627545 1.02397e-19)
(1.44745 0.270833 1.73135e-19)
(1.07619 -0.0564973 4.32597e-21)
(0.953332 -0.0232476 -2.85165e-20)
(1.14043 0.0836716 1.91769e-20)
(1.24679 -0.00551572 3.23159e-20)
(1.49679 0.147427 -2.54564e-19)
(0.98227 -0.0237045 -4.20012e-20)
(0.735544 -0.0184771 -5.5289e-21)
(0.967185 0.00593135 2.1935e-20)
(0.874528 -0.0207074 -1.43017e-20)
(1.00682 0.0581225 -5.692e-20)
(1.807 0.621935 3.01647e-19)
(1.89667 0.646147 7.2948e-19)
(2.16876 0.518529 -1.03934e-18)
(2.21712 0.504266 -2.75226e-20)
(2.44581 0.30769 4.69852e-19)
(1.75444 0.415951 8.61494e-20)
(1.78744 0.424535 1.03216e-18)
(2.03662 0.350982 1.28771e-19)
(1.99469 0.338321 -9.20798e-19)
(2.29181 0.202782 -2.81452e-19)
(1.73666 0.302817 -2.46139e-19)
(1.81793 0.260082 -1.55567e-19)
(1.92812 0.249764 1.71127e-19)
(1.96998 0.187719 -2.91101e-19)
(2.09059 0.156157 2.6261e-19)
(1.64052 0.182983 3.46133e-19)
(1.71276 0.147617 -4.44155e-21)
(1.75274 0.148093 2.20231e-19)
(1.8403 0.100483 1.91472e-19)
(1.8636 0.0940229 -1.86424e-19)
(1.19969 0.0629494 -4.10836e-20)
(1.25974 0.0424703 2.30334e-19)
(1.30925 0.0375811 1.06099e-19)
(1.36928 0.0141937 -2.23231e-19)
(1.38777 0.0125835 1.16012e-22)
(1.25529 -0.0347907 5.61871e-20)
(2.33709 -0.0494394 -4.67638e-19)
(2.56967 -0.0415834 1.28233e-18)
(2.54888 0.00397629 5.72542e-19)
(2.40646 0.0347414 -3.86234e-19)
(0.765508 0.0913597 9.49679e-20)
(2.10369 0.0810488 -4.64945e-19)
(2.58597 0.0820361 -6.23482e-19)
(2.64159 0.0970613 7.62864e-19)
(2.36439 0.0853127 -4.79272e-19)
(0.199466 0.0721277 -3.87499e-20)
(1.41359 0.143857 4.75159e-19)
(2.22992 0.166764 7.30717e-20)
(2.63626 0.159256 4.3216e-19)
(2.83233 0.15996 1.9355e-19)
(-0.0739724 -0.0418563 2.1883e-19)
(0.479169 0.0652036 2.15534e-19)
(1.37635 0.146101 -4.55597e-19)
(1.91276 0.181541 2.35802e-20)
(2.54961 0.212403 -4.91594e-21)
(-0.129403 -0.104305 1.6167e-19)
(-0.0427191 -0.0725234 -1.74428e-19)
(0.458632 0.0207906 -2.14045e-20)
(0.972783 0.0541697 4.54515e-20)
(1.43618 0.120461 -5.0542e-20)
(-0.0899781 -0.0855396 4.35367e-21)
(-0.164931 -0.122744 1.19283e-19)
(-0.0573333 -0.126804 1.49101e-19)
(0.155896 -0.112743 -1.32549e-19)
(0.553554 -0.0491687 9.37532e-21)
(-0.0390093 -0.0518477 -2.06711e-21)
(-0.106965 -0.166454 -1.09645e-19)
(-0.11236 -0.2677 -8.31215e-20)
(-0.0592215 -0.330714 2.735e-20)
(0.0508519 -0.312934 2.00024e-20)
(-0.0320872 -0.0951062 5.6956e-21)
(-0.0543116 -0.318315 2.65038e-19)
(-0.0372534 -0.476288 -1.20986e-19)
(0.00703715 -0.550611 -1.6814e-19)
(0.0371178 -0.573621 -2.64651e-20)
(-0.0349709 -0.214581 -1.44983e-20)
(-0.0336106 -0.529003 -5.4657e-20)
(-0.0180128 -0.676949 2.31508e-20)
(0.00273149 -0.704665 -1.30364e-19)
(0.0288433 -0.668186 1.74605e-20)
(-0.0108384 -0.30212 3.78727e-21)
(-0.0214853 -0.593469 -5.39305e-21)
(-0.0511028 -0.662073 -1.34736e-21)
(-0.085224 -0.632806 -8.10282e-21)
(-0.11072 -0.572783 3.32526e-20)
(1.66783 0.504586 -4.70906e-20)
(1.63175 0.345972 5.75527e-19)
(1.20673 0.176922 -6.98824e-20)
(0.245495 0.109934 6.34368e-20)
(0.374729 -0.0568363 -1.13236e-20)
(1.39823 0.291414 -1.97909e-20)
(1.52876 0.397582 3.03033e-20)
(1.05602 0.34955 6.25368e-20)
(-0.0571502 0.19636 5.17459e-21)
(0.347923 -0.100915 1.24143e-19)
(0.838585 0.0378163 -7.72026e-20)
(1.30573 0.441102 3.16434e-19)
(0.825664 0.534248 4.47587e-20)
(-0.282655 0.260806 -5.24582e-19)
(0.448602 -0.189125 -1.20342e-20)
(0.281041 -0.111732 1.27427e-19)
(1.07797 0.45134 -1.47272e-19)
(0.625031 0.72162 -3.66292e-19)
(-0.254966 0.281355 2.85232e-22)
(0.641304 -0.311733 -1.86073e-19)
(-0.1813 -0.21412 4.68806e-21)
(0.922404 0.405758 1.90624e-19)
(0.429109 0.886988 4.12784e-19)
(0.0266487 0.251569 -2.43101e-20)
(0.906273 -0.42923 -2.10986e-19)
(0.570618 0.186479 -2.5839e-20)
(-0.257124 -0.100642 0)
(-0.200453 -0.11563 -3.56545e-20)
(-0.12615 -0.061656 5.7652e-20)
(0.158888 -0.0252436 1.02858e-20)
(2.12797 0.492777 0)
(1.52411 0.358981 0)
(1.08595 0.0652725 3.85968e-19)
(0.43017 -0.0355587 5.02081e-20)
(0.492451 -0.0622894 5.10065e-21)
(0.779392 0.0013065 -1.3184e-19)
(0.836826 -0.00373409 1.85414e-19)
(1.04074 -0.011715 -2.60242e-20)
(1.12293 0.0109639 3.28627e-19)
(1.49997 0.0678946 2.18368e-19)
(1.75511 0.0239516 1.24606e-19)
(1.91209 0.0772965 2.51263e-19)
(2.0921 0.0346568 -1.78614e-19)
(2.73243 0.187701 -3.76911e-20)
(2.37469 0.106568 5.85037e-20)
(0.946046 -0.504659 1.23824e-20)
(0.936548 -0.598715 -1.80916e-19)
(0.930498 -0.699764 -1.60861e-19)
(0.858913 -0.771381 9.75693e-20)
(0.522699 -0.607394 1.31532e-19)
(0.840214 -0.4126 1.18345e-19)
(0.782261 -0.479574 1.93531e-19)
(0.705485 -0.552294 -8.13564e-20)
(0.591377 -0.61578 1.34274e-19)
(0.324597 -0.489316 3.64743e-20)
(0.66551 -0.274352 -1.4644e-19)
(0.575029 -0.31651 -5.11594e-20)
(0.475082 -0.370522 6.30953e-20)
(0.358991 -0.418265 -3.21516e-20)
(0.163793 -0.331319 -1.20939e-19)
(0.560668 -0.0416146 -4.49736e-19)
(0.475521 -0.0595666 -3.66998e-19)
(0.366787 -0.0878 2.90728e-19)
(0.239961 -0.123112 1.69859e-19)
(0.0706694 -0.114819 1.37056e-20)
(0.532229 0.160799 -1.66671e-19)
(0.447634 0.161134 -1.7427e-19)
(0.331447 0.159041 -6.37483e-20)
(0.192851 0.162506 3.77769e-20)
(0.0315301 0.124828 1.42706e-20)
(2.11702 -0.0414667 8.49419e-19)
(2.39507 -0.109689 3.01302e-19)
(2.47351 -0.200284 -7.90257e-19)
(2.32958 -0.225796 -1.66414e-18)
(1.41268 -0.207537 1.21676e-19)
(2.10935 -0.127479 1.45164e-18)
(2.19119 -0.242971 1.90251e-18)
(2.20803 -0.369728 1.55999e-19)
(2.13719 -0.43106 2.66944e-19)
(1.3808 -0.389035 -1.76333e-19)
(1.7906 -0.298469 -3.79003e-18)
(1.85662 -0.418461 4.45402e-19)
(1.90825 -0.547004 1.17718e-18)
(1.85385 -0.625542 -4.70348e-19)
(1.21058 -0.540053 7.3863e-19)
(1.57846 -0.423409 9.07662e-19)
(1.59475 -0.523808 -2.37861e-18)
(1.5781 -0.644944 -2.78574e-18)
(1.5119 -0.738231 8.72562e-19)
(0.979557 -0.616657 5.5972e-19)
(1.27005 -0.487035 2.06429e-19)
(1.21661 -0.582922 2.53325e-19)
(1.20897 -0.709732 -4.21524e-19)
(1.15822 -0.801132 -5.10538e-19)
(0.735847 -0.641404 -4.89955e-21)
(1.03205 0.0546409 7.64073e-21)
(0.944468 0.0437365 -4.3347e-21)
(1.12963 0.0810881 -1.85216e-21)
(0.818168 -0.00266542 -2.19746e-19)
(1.15701 -0.227414 -1.18798e-20)
(1.05123 0.0606405 -2.55997e-21)
(0.927426 0.0364867 4.72884e-20)
(1.12333 0.0981247 -3.10778e-20)
(0.89896 0.0407982 1.41346e-19)
(1.02465 -0.111906 -1.52707e-20)
(1.05642 0.0602787 -6.2661e-20)
(0.928333 0.0292708 4.12151e-22)
(1.10317 0.0981115 -1.48159e-20)
(0.891688 0.0614818 4.28709e-20)
(0.986756 -0.0511143 -1.96185e-19)
(1.04069 0.0606568 7.54022e-20)
(0.958134 0.0230867 3.11407e-21)
(1.06293 0.103733 2.9529e-20)
(0.927975 0.0860268 1.05146e-20)
(0.876458 0.0598447 1.01375e-19)
(1.01488 0.0584021 1.87936e-20)
(0.989021 0.0199947 -2.89698e-20)
(1.03585 0.111073 4.14507e-20)
(0.94759 0.111556 7.1913e-20)
(0.842744 0.156386 -8.65306e-20)
(0.874445 0.0333801 0)
(0.735895 0.0292653 9.90326e-21)
(0.605157 0.0218774 4.23974e-21)
(0.364052 -0.0106148 4.32392e-20)
(0.706467 -0.0571501 -1.36112e-19)
(0.995972 0.0717829 -6.34727e-20)
(0.973148 0.0659982 -1.54568e-20)
(1.03016 0.0811959 -4.35068e-20)
(0.829423 -0.00515792 -1.19634e-19)
(1.05578 -0.208117 -1.41199e-19)
(0.989767 -0.0651927 -3.12278e-20)
(1.07874 -0.0348972 5.17407e-19)
(1.18017 0.0378575 3.21311e-19)
(1.05336 0.0589864 2.5373e-20)
(0.812752 0.0318547 0)
(1.35792 -0.325061 3.18179e-19)
(1.47476 -0.287098 1.52782e-18)
(1.66143 -0.164871 -1.72771e-18)
(1.77129 -0.0232435 -5.38679e-19)
(1.66973 0.0315243 3.91251e-19)
)
;

boundaryField
{
    left
    {
        type            fixedValue;
        value           uniform (1 0 0);
    }
    right
    {
        type            zeroGradient;
    }
    down
    {
        type            noSlip;
    }
    up
    {
        type            noSlip;
    }
    cylinder
    {
        type            noSlip;
    }
    defaultFaces
    {
        type            empty;
    }
}


// ************************************************************************* //
