/*--------------------------------*- C++ -*----------------------------------*\
  =========                 |
  \\      /  F ield         | OpenFOAM: The Open Source CFD Toolbox
   \\    /   O peration     | Website:  https://openfoam.org
    \\  /    A nd           | Version:  13
     \\/     M anipulation  |
\*---------------------------------------------------------------------------*/
FoamFile
{
    format      ascii;
    class       volScalarField;
    location    "0.355";
    object      p;
}
// * * * * * * * * * * * * * * * * * * * * * * * * * * * * * * * * * * * * * //

dimensions      [0 2 -2 0 0 0 0];

internalField   nonuniform List<scalar> 
440
(
7.89262
10.6493
13.0126
13.1965
10.2245
20.7884
24.1719
27.1678
27.8693
25.9833
41.3271
44.3587
47.0619
47.855
46.6949
67.4614
69.5593
71.4729
72.1296
71.4424
96.7392
97.5562
98.3532
98.7533
98.7197
-0.336763
-0.438256
0.0296196
0.584882
0.923403
-1.61835
-2.27887
-2.01348
-1.31676
-0.680429
-1.99064
-2.86753
-2.78002
-2.01778
-0.897375
-0.639272
-0.769346
-0.35711
0.614649
2.48407
3.13971
4.45203
5.88423
7.32026
9.57463
2.17667
2.36291
1.46285
0.773031
0.257255
1.12923
2.14762
1.34211
0.713425
0.243223
-0.028023
1.71948
1.19927
0.660724
0.232372
-0.325417
1.11713
0.984696
0.614809
0.226461
1.59594
0.538571
0.695654
0.567057
0.224559
4.47738
0.315643
0.402377
0.524244
0.228577
6.80191
0.7518
0.478446
0.533053
0.193939
10.0612
2.50133
1.1377
0.651056
0.148152
13.9579
4.83241
2.20909
0.905782
0.14076
16.6975
7.20665
3.5325
1.34147
0.213426
100.764
75.915
53.3998
33.2263
12.4256
102.459
79.0166
57.6108
39.1302
23.5573
104.36
82.7772
62.5492
45.3076
32.9608
105.243
85.0975
66.5803
51.2625
40.7377
105.162
84.8199
66.4059
51.33
40.9779
219.948
216.477
216.191
218.311
221.045
202.765
200.303
200.566
203.308
206.6
180.618
178.847
179.211
181.634
184.513
154.819
153.477
153.682
155.276
157.172
126.937
126.224
126.163
126.623
127.216
235.578
236.001
236.629
237.042
236.78
236.205
236.836
237.387
237.359
236.402
235.049
236.025
236.445
236.176
235.184
230.169
231.775
232.35
232.494
232.403
221.667
223.539
224.561
225.778
227.134
235.892
234.771
234.952
234.1
234.279
235.864
234.758
234.906
234.076
234.849
235.855
234.725
234.864
234.216
235.41
235.859
234.671
234.872
234.483
235.008
235.867
234.599
234.95
234.686
232.306
235.879
234.483
235.009
234.47
228.787
236.038
234.355
234.9
234.015
226.432
236.899
234.119
234.25
232.311
223.408
240.902
234.108
233.058
229.818
219.716
249.862
234.827
231.854
227.264
216.957
217.83
196.304
175.101
151.808
126.522
207.444
191.449
172.403
150.499
126.728
198.958
186.277
168.692
148.163
126.409
191.81
180.853
165.171
146.336
125.995
191.59
180.834
165.427
146.735
126.226
96.4661
95.5892
95.1414
94.3746
94.218
57.3936
55.4464
53.7411
51.8196
51.0539
29.5703
27.2268
24.4644
22.166
20.8418
15.1229
12.7064
10.2417
8.22229
7.25207
9.29472
7.40754
6.02167
5.04711
4.46
6.06488
4.96316
4.38411
4.29602
4.38466
4.15831
3.69818
3.62548
3.78093
3.93462
2.86067
2.84404
3.07493
3.37661
3.53451
1.77094
2.07183
2.51816
2.86672
3.01123
0.732148
1.12617
1.69283
2.09083
2.26355
3.70627
3.27443
2.16029
1.06129
0.32302
3.75777
3.10447
2.06838
1.00812
0.311663
3.56253
2.84811
1.94063
0.956694
0.300218
3.24897
2.6128
1.78228
0.903079
0.289324
2.83312
2.46715
1.6105
0.84008
0.27514
4.57322
3.25934
2.06933
1.08589
0.34304
3.83875
3.35249
2.16273
1.09124
0.333299
94.9737
54.2244
27.594
14.5743
9.55536
93.7526
51.215
23.0707
9.55935
5.35093
232.176
232.258
232.21
231.698
230.623
232.769
232.942
233.173
233.215
232.843
233.327
233.497
233.882
234.278
234.448
233.905
234.055
234.454
235.047
235.459
234.624
234.858
235.355
235.954
236.203
142.04
141.848
141.02
140.51
139.599
185.266
184.457
182.478
180.712
178.734
215.557
214.186
211.837
209.024
206.649
229.186
228.179
226.129
223.633
221.189
232.032
231.417
230.447
229.068
227.17
238.883
234.517
234.632
233.541
232.934
237.196
234.555
234.721
233.714
232.958
236.456
234.64
234.822
233.935
233.282
236.109
234.715
234.918
234.115
233.64
235.955
234.761
234.964
234.165
233.935
252.307
235.847
234.991
233.479
232.022
243.217
234.763
234.569
233.418
232.735
226.975
221.9
208.796
182.087
141.289
231.17
226.929
213.351
185.111
142.513
)
;

boundaryField
{
    left
    {
        type            zeroGradient;
    }
    right
    {
        type            fixedValue;
        value           uniform 0;
    }
    down
    {
        type            zeroGradient;
    }
    up
    {
        type            zeroGradient;
    }
    cylinder
    {
        type            zeroGradient;
    }
    defaultFaces
    {
        type            empty;
    }
}


// ************************************************************************* //
