/*--------------------------------*- C++ -*----------------------------------*\
  =========                 |
  \\      /  F ield         | OpenFOAM: The Open Source CFD Toolbox
   \\    /   O peration     | Website:  https://openfoam.org
    \\  /    A nd           | Version:  13
     \\/     M anipulation  |
\*---------------------------------------------------------------------------*/
FoamFile
{
    format      ascii;
    class       surfaceScalarField;
    location    "0.355";
    object      phi;
}
// * * * * * * * * * * * * * * * * * * * * * * * * * * * * * * * * * * * * * //

dimensions      [0 3 -1 0 0 0 0];

internalField   nonuniform List<scalar> 
823
(
0.0113774
-0.0505561
0.0391787
0.038759
-0.133438
0.106056
0.0788361
-0.205878
0.165801
0.130183
-0.268865
0.217518
-0.323247
0.259392
0.194039
0.0107027
-0.0612588
0.0361431
-0.158878
0.0726502
-0.242385
0.117979
-0.314194
-0.375598
0.17033
0.00837714
-0.0696359
0.028286
-0.178787
0.0567284
-0.270827
0.0918168
-0.349283
-0.416054
0.132273
0.00529956
-0.0749355
0.0179968
-0.191484
0.0362323
-0.289063
0.0588888
-0.371939
-0.442421
0.0852563
0.00196213
-0.0768976
0.00663053
-0.196153
0.0132906
-0.295723
0.0215234
-0.380172
0.0310644
-0.451962
0.00670578
-0.0106937
0.00398793
0.0222636
-0.0307959
0.0152381
0.0454676
-0.0483494
0.0251454
0.0746047
-0.0637685
0.0346314
-0.07684
0.108239
0.0432059
0.00579075
-0.0164845
0.0215722
-0.0465773
0.0468411
-0.0736184
0.0799351
-0.0968625
-0.115959
0.119054
0.00640849
-0.0228929
0.0237051
-0.0638739
0.0513291
-0.101242
0.0880594
-0.133593
-0.160042
0.132142
0.00753993
-0.0304329
0.0271024
-0.0834363
0.057353
-0.131493
0.0970886
-0.173328
-0.207857
0.144904
0.00874579
0.0313657
0.0656733
0.109863
0.161398
0.321871
-0.954911
0.741279
0.471287
-0.816238
0.666822
0.561531
-0.345822
0.255578
0.59348
-0.0855252
0.0535759
-0.0116326
0.00984396
0.330832
-1.16669
0.470023
-0.955429
0.561712
-0.437511
0.594866
-0.118678
-0.0152571
0.337433
-1.37198
0.462436
-1.08043
0.552541
-0.527615
0.590105
-0.156243
-0.0250446
0.33811
-1.56519
0.450843
-1.19316
0.536037
-0.61281
0.582153
-0.202359
-0.0444945
0.328
-1.73179
0.430539
-1.2957
0.509697
-0.691968
0.569227
-0.261889
-0.0765618
1.19704
-1.58863
-1.3402
1.00764
-1.1063
0.906466
-0.590797
0.878721
-0.234145
-0.0636429
1.3309
-1.13231
-1.78722
0.985776
-0.761176
0.790895
-0.395916
0.720202
-0.163452
-0.0440012
1.19009
-0.607451
-1.71494
0.817187
-0.388278
0.618701
-0.197431
0.541306
-0.0860567
-0.0241377
0.822532
-0.185252
-1.24473
0.545366
-0.111112
0.400147
-0.0522116
0.338475
-0.0243846
-0.00737374
0.306733
-0.491985
0.195621
0.143409
0.119024
1.56261
0.0462523
-1.5778
1.52169
0.126171
1.46265
0.191316
1.39629
0.236689
0.25013
1.6759
0.0356538
-1.6653
1.69938
0.102696
1.73089
0.159804
1.76538
0.202197
0.228293
1.38798
0.0184779
-1.37081
1.43708
0.0536023
1.51391
0.0829678
1.61022
0.105885
0.123574
0.977701
0.00531464
-0.964538
1.01588
0.0154207
1.07581
0.0230398
1.15387
0.0278214
0.0327168
0.392986
-0.387671
0.408407
0.431446
0.459268
0.1288
0.327595
-0.264608
-0.191787
0.0781685
0.273202
-0.22257
0.0385257
0.209793
-0.170151
0.0113395
0.136451
-0.109264
0.0519589
-0.0406194
0.115958
0.378895
-0.167257
0.0714941
0.317665
0.0356135
0.245674
0.0105586
0.161505
0.0625176
0.088854
0.418274
-0.128233
0.0548102
0.351709
0.0272857
0.273199
0.00806384
0.180727
0.0705814
0.0552459
0.443538
-0.0805104
0.0337648
0.37319
0.0166552
0.290308
0.00486412
0.192518
0.0754455
0.0174832
-0.025907
0.010501
0.00508632
0.00145212
0.0722286
0.0869722
-0.106687
-0.0525141
0.0426297
0.073393
-0.0437941
0.0196059
0.0566717
-0.0336479
0.00510168
0.0366145
-0.0221103
0.0132059
-0.0081042
0.0761441
0.12556
-0.114732
0.0438216
0.105715
0.0197072
0.0807861
0.00511319
0.0512085
0.0183191
0.0847317
0.168328
-0.1275
0.0493096
0.141137
0.0228492
0.107247
0.00621016
0.0678476
0.0245292
0.0943228
0.214558
-0.140553
0.0559346
0.179526
0.0266081
0.136573
0.00745392
0.0870017
0.0319831
0.107521
-0.157571
0.0644765
0.0308988
0.00863627
0.507747
0.167164
-0.278932
0.547186
0.175667
-0.215105
0.488717
0.311917
-0.253448
0.331853
0.804299
-0.647435
1.0371
-0.811933
0.50466
0.0584839
0.542249
0.138078
0.479504
0.374661
0.330087
0.953716
1.25246
0.502326
-0.0478622
0.530784
0.10962
0.46176
0.443685
0.328871
1.08661
1.45383
0.498972
-0.150854
0.515859
0.0927318
0.441232
0.518313
0.32549
1.20235
1.63876
0.492985
-0.247859
0.493656
0.0920609
0.415233
0.596735
0.313618
1.30396
1.79481
0.771735
-0.415574
0.857605
0.0061912
0.958538
0.495802
1.16948
1.09302
1.61693
1.34736
0.723273
-0.534827
0.806024
-0.0765595
0.962973
0.338853
1.29971
0.756281
1.14264
1.774
0.606897
-0.537703
0.642105
-0.111768
0.806578
0.17438
1.17337
0.389486
0.611866
1.70415
0.44957
-0.383253
0.409768
-0.0719657
0.537847
0.0463012
0.816144
0.111189
0.186898
1.24111
0.220768
0.148802
0.195103
0.306292
0.49319
1.40248
-0.246903
1.46569
-0.230473
1.52298
-0.185524
1.56316
-0.120691
-0.0405406
1.75285
-0.225749
1.71988
-0.197504
1.69071
-0.156359
1.6709
-0.100875
-0.034947
1.60159
-0.123187
1.50882
-0.104734
1.43458
-0.0821273
1.38707
-0.053357
-0.0186875
1.15104
-0.0331176
1.07428
-0.0279733
1.01529
-0.0231325
0.977569
-0.0156382
-0.00565699
0.460072
0.432099
0.408967
0.393328
0.00250114
0.0430005
-0.0455016
0.00732723
0.101039
-0.105865
0.0160939
0.148381
-0.157147
0.016577
0.151896
-0.152379
0.114016
0.0148125
-0.112251
0.00682764
0.0361729
0.0201758
0.0876911
0.0409546
0.127602
0.0482513
0.144599
0.11637
0.0458971
0.00880815
0.0273647
0.0270736
0.0694256
0.0521459
0.10253
0.0730875
0.123657
0.114024
0.0754332
0.00779988
0.0195649
0.0255098
0.0517158
0.0497427
0.0782967
0.0774253
0.0959748
0.0992278
0.0922218
0.00509773
0.0144671
0.0179697
0.0388438
0.0367625
0.0595039
0.0600071
0.0727302
0.0767226
0.0825123
0.00342371
0.0110434
0.0125802
0.0296873
0.0274458
0.0446384
0.0470638
0.0531121
0.0561262
0.0676602
0.00223356
0.00880986
0.00895935
0.0229615
0.0223134
0.0312843
0.0410751
0.0343504
0.0347299
0.0624714
0.00167518
0.00713468
0.0101115
0.0145252
0.0261368
0.015259
0.0466552
0.013832
0.0115174
0.0698678
0.0036586
0.00347609
0.0173725
0.000811285
0.0366259
-0.00399442
0.0595615
-0.00910362
-0.0143013
0.0853802
0.00746402
0.0235134
0.0446644
0.0701921
0.0990968
0.153998
0.0192838
-0.105621
0.243432
-0.129919
0.0404853
0.265377
-0.0390939
0.017148
0.274345
-0.00532776
-0.00363939
-0.0072261
-0.00162364
0.214792
-0.133037
0.325124
-0.240251
0.35208
-0.06605
0.359353
-0.0126006
-0.0127222
0.259495
-0.322664
0.390501
-0.371258
0.433602
-0.109151
0.440014
-0.0190129
-0.0136448
0.292054
-0.529337
0.436526
-0.51573
0.500627
-0.173252
0.511323
-0.0297086
-0.0108443
0.311039
0.46213
0.544457
0.568324
0.0707212
0.0386101
-0.109331
0.0786941
-0.00797295
0.0831111
-0.00441694
0.0818749
0.00123621
0.000441393
0.194368
-0.261379
0.22688
0.239611
0.237208
0.0207291
-0.0043309
-0.0163982
0.0342775
-0.0135484
0.0567534
-0.0224759
0.0856106
-0.0288572
-0.0237207
0.0539168
-0.0434352
0.0862654
0.139223
0.202587
0.047906
-0.0550628
0.0763005
-0.0691437
0.0275966
-0.0520809
0.0723904
0.0123442
-0.04432
0.0595724
0.00331723
-0.0300275
0.0390545
-0.0112606
0.0145779
0.0456528
-0.0321102
-0.0686053
0.0251549
-0.031583
0.0099268
-0.0290919
0.00221417
-0.0223149
-0.00904645
0.0562126
-0.00651768
-0.0818051
0.0332728
-0.00864326
0.0144056
-0.0102246
0.00264165
-0.0105509
-0.00640479
0.0697622
0.0216032
-0.0978831
0.04461
0.0165091
0.0232575
0.0111279
0.00690166
0.00580491
0.000496882
0.0737177
-0.104629
0.0464327
0.0239127
0.00760732
0.0165838
-0.114014
-0.0148209
0.0160935
-0.151889
0.0073061
-0.14836
0.00248893
-0.101048
-0.0430127
0.0482687
-0.11636
-0.0459224
0.0409293
-0.144549
0.0201622
-0.127593
0.00682056
-0.0877067
-0.0361922
0.0731257
-0.113956
-0.0755307
0.0521198
-0.123543
0.0270623
-0.102535
0.00880516
-0.0694495
-0.027387
0.0773431
-0.0989407
-0.0923579
0.0496169
-0.095817
0.0254287
-0.078347
0.00777371
-0.0517944
-0.0196133
0.0599766
-0.0826168
0.03655
0.0177754
0.00503543
0.342657
0.582311
-0.528988
0.282912
0.221498
-0.161753
0.24987
0.0532701
-0.0202277
0.166041
0.118309
-0.0344808
0.000468319
0.0964292
0.409653
0.568637
0.374998
0.256153
0.338099
0.0901697
0.234178
0.22223
0.166041
0.46333
0.501287
0.455434
0.264048
0.410754
0.13485
0.283646
0.349338
0.367882
0.502688
0.394579
0.519067
0.247669
0.460276
0.193641
0.316272
0.493341
0.586272
0.511626
0.544191
0.484384
0.33029
0.158687
0.351364
0.0851909
0.073496
0.0811164
0.0040745
0.0726283
0.00848807
-0.0367711
0.109399
0.332427
0.24417
0.228017
0.202024
0.261682
0.0856643
0.0237352
0.056785
0.0288793
0.0342883
0.0224967
0.0207326
0.0135558
0.00433436
0.202801
0.139322
0.0862883
0.0539217
)
;

boundaryField
{
    left
    {
        type            calculated;
        value           nonuniform List<scalar> 
17
(
-0.60402
-0.60402
-0.60402
-0.60402
-0.60402
-0.39598
-0.39598
-0.39598
-0.39598
-0.39598
-0.39598
-0.39598
-0.39598
-0.39598
-0.39598
-0.510051
-0.510051
)
;
    }
    right
    {
        type            calculated;
        value           nonuniform List<scalar> 
17
(
0.0814335
0.236026
0.283194
0.364849
0.440937
0.508522
0.567324
0.595269
0.59849
0.599893
0.601603
0.601295
0.865802
0.70056
0.521443
0.321711
0.111651
)
;
    }
    down
    {
        type            calculated;
        value           uniform 0;
    }
    up
    {
        type            calculated;
        value           uniform 0;
    }
    cylinder
    {
        type            calculated;
        value           uniform 0;
    }
    defaultFaces
    {
        type            empty;
    }
}


// ************************************************************************* //
