/*--------------------------------*- C++ -*----------------------------------*\
  =========                 |
  \\      /  F ield         | OpenFOAM: The Open Source CFD Toolbox
   \\    /   O peration     | Website:  https://openfoam.org
    \\  /    A nd           | Version:  13
     \\/     M anipulation  |
\*---------------------------------------------------------------------------*/
FoamFile
{
    format      ascii;
    class       volVectorField;
    location    "0.355";
    object      U;
}
// * * * * * * * * * * * * * * * * * * * * * * * * * * * * * * * * * * * * * //

dimensions      [0 1 -1 0 0 0 0];

internalField   nonuniform List<vector> 
440
(
(0.218268 -0.176702 -1.81077e-19)
(0.613085 -0.436666 1.07909e-18)
(0.984288 -0.6409 4.23668e-19)
(1.32752 -0.795353 1.2415e-18)
(1.63253 -0.916666 -2.60032e-19)
(0.3049 -0.177688 -5.44568e-19)
(0.819144 -0.428708 -1.01967e-18)
(1.27998 -0.618905 1.14466e-19)
(1.6919 -0.761629 -1.21526e-18)
(2.05373 -0.875078 -1.02098e-18)
(0.384886 -0.152409 -6.9811e-19)
(1.00469 -0.36302 1.5899e-18)
(1.53977 -0.518389 -1.93484e-18)
(2.00473 -0.632631 1.37868e-18)
(2.40596 -0.721463 1.43038e-18)
(0.445876 -0.102747 5.62411e-19)
(1.14611 -0.243087 -1.29958e-18)
(1.73746 -0.344814 -7.50781e-19)
(2.24297 -0.418221 1.96676e-18)
(2.67449 -0.474459 2.5001e-18)
(0.479266 -0.036159 6.86935e-19)
(1.22366 -0.0847555 1.69146e-19)
(1.84593 -0.119364 2.53141e-18)
(2.37406 -0.143865 -1.06206e-18)
(2.82299 -0.162495 -4.8375e-19)
(-0.000862172 -0.0514267 2.83379e-19)
(0.0502549 -0.143827 -3.81044e-19)
(0.106138 -0.221762 1.09889e-18)
(0.171638 -0.291589 -1.75288e-19)
(0.239764 -0.353172 -1.58891e-18)
(0.0136934 -0.0841893 -2.61951e-19)
(0.0894034 -0.227496 -4.21896e-19)
(0.174271 -0.349638 1.12196e-19)
(0.268615 -0.449424 6.06016e-20)
(0.36494 -0.529432 -3.79374e-20)
(0.0433174 -0.114226 6.9214e-20)
(0.165482 -0.303023 5.19844e-19)
(0.296218 -0.467089 9.39989e-20)
(0.432953 -0.598395 1.46456e-18)
(0.568042 -0.696829 -2.50258e-20)
(0.0866143 -0.140999 6.67803e-20)
(0.276373 -0.36779 -3.36377e-20)
(0.469494 -0.562898 2.1667e-19)
(0.661407 -0.718303 -2.04247e-18)
(0.844112 -0.83014 9.58692e-19)
(0.142129 -0.161731 -2.36145e-19)
(0.420085 -0.412852 -4.43176e-19)
(0.691393 -0.621442 -7.71854e-19)
(0.950122 -0.782322 9.55238e-19)
(1.18517 -0.892688 3.46088e-18)
(0.592643 -0.590814 -4.14262e-18)
(0.959374 -0.514668 1.13896e-18)
(1.28348 -0.210102 3.60399e-19)
(1.44617 -0.0532905 -6.40356e-19)
(1.50329 -0.0122174 -9.75928e-20)
(0.786044 -0.741987 4.8726e-18)
(1.04351 -0.619736 -3.31597e-19)
(1.3142 -0.276606 -1.39944e-19)
(1.4689 -0.0825348 4.22243e-19)
(1.51138 -0.0216189 1.71104e-19)
(1.03688 -0.876767 1.53396e-18)
(1.1791 -0.704972 4.08709e-18)
(1.34473 -0.338909 6.53664e-20)
(1.4785 -0.108016 4.64941e-19)
(1.51488 -0.029851 -5.46553e-20)
(1.33064 -0.98782 1.23326e-18)
(1.35889 -0.767181 -4.18157e-19)
(1.39267 -0.391917 -7.82979e-19)
(1.47858 -0.129712 -3.04627e-19)
(1.51914 -0.0370079 1.96589e-20)
(1.62985 -1.04694 -2.11051e-21)
(1.55377 -0.808633 -1.67256e-18)
(1.45096 -0.438598 0)
(1.46775 -0.162414 2.53677e-19)
(1.51827 -0.0462355 2.87422e-20)
(2.15616 -1.11466 -1.57708e-18)
(1.83163 -0.800222 -4.9651e-19)
(1.56201 -0.440286 -1.078e-20)
(1.45394 -0.169346 3.32301e-20)
(1.43308 -0.0442976 -1.17073e-19)
(2.63322 -0.889317 -1.61296e-18)
(1.90188 -0.590887 2.95964e-18)
(1.44355 -0.308335 4.89605e-21)
(1.20727 -0.127647 2.17036e-19)
(1.15973 -0.0361933 0)
(2.47903 -0.522537 -6.93088e-18)
(1.60656 -0.338486 -1.49585e-19)
(1.15092 -0.173022 2.02388e-18)
(0.919005 -0.0774661 -3.01544e-19)
(0.863685 -0.021914 -6.54722e-20)
(1.76244 -0.219943 6.83742e-18)
(1.08906 -0.135749 1.26744e-18)
(0.751668 -0.066275 2.24344e-19)
(0.584713 -0.0321377 2.82654e-33)
(0.53353 -0.0102482 -9.46135e-20)
(0.683143 0.000146579 1.554e-18)
(0.395338 0.0234802 7.16049e-19)
(0.267466 0.0238274 -5.16147e-19)
(0.209304 0.0128137 2.0219e-19)
(0.18608 0.0041109 -5.44573e-20)
(3.58192 -0.168157 1.25612e-17)
(3.4172 -0.502918 -1.0443e-17)
(3.13669 -0.786954 7.10842e-18)
(2.78058 -0.996011 2.32011e-18)
(2.33305 -1.10164 -4.14688e-19)
(3.7846 -0.103587 1.03952e-17)
(3.71756 -0.324458 -6.63944e-19)
(3.57785 -0.551817 -4.27035e-18)
(3.37843 -0.785738 2.69063e-18)
(3.10048 -1.01972 -6.62795e-19)
(3.11486 -0.060565 3.65439e-18)
(3.09869 -0.181694 -2.51863e-18)
(3.05966 -0.309676 5.01258e-18)
(2.99899 -0.444848 -1.52795e-19)
(2.92449 -0.593576 -4.79042e-18)
(2.19087 -0.0276238 2.7887e-18)
(2.18385 -0.083382 8.43001e-18)
(2.16462 -0.144029 -6.53248e-19)
(2.13407 -0.207311 -6.60766e-18)
(2.11306 -0.269465 1.94586e-18)
(0.879438 -0.00184252 5.21217e-18)
(0.876487 -0.00524037 -1.16431e-19)
(0.867361 -0.00957094 -4.25922e-20)
(0.85049 -0.0162597 -2.00913e-18)
(0.841131 -0.0229158 -3.60462e-18)
(1.65303 0.939868 2.27076e-18)
(1.34825 0.816615 -7.71329e-20)
(1.00338 0.658638 -3.39144e-20)
(0.627894 0.449505 -1.96394e-19)
(0.225251 0.182318 -1.3432e-19)
(2.07044 0.892442 -1.21766e-18)
(1.71065 0.77772 -1.19931e-18)
(1.29832 0.632603 7.32733e-19)
(0.834061 0.438748 -4.84336e-19)
(0.312159 0.182101 -4.14765e-21)
(2.41859 0.735827 -5.90168e-19)
(2.01967 0.645355 5.25258e-19)
(1.55501 0.528772 2.43714e-18)
(1.01755 0.37021 8.084e-19)
(0.391349 0.155291 5.26146e-19)
(2.68204 0.48671 1.45292e-20)
(2.25241 0.428294 -2.71883e-19)
(1.74746 0.35233 -6.46749e-19)
(1.15479 0.247652 2.05654e-18)
(0.450335 0.104148 -3.2685e-19)
(2.82551 0.173868 -1.17074e-18)
(2.37732 0.152647 -1.60653e-18)
(1.84943 0.125349 -7.28729e-19)
(1.22674 0.0878363 7.96309e-19)
(0.480867 0.0366877 -3.2584e-19)
(0.240041 0.415721 -2.1303e-18)
(0.170136 0.352288 -1.80772e-18)
(0.102907 0.276003 3.12619e-19)
(0.0454953 0.18287 -4.25691e-20)
(-0.00172424 0.0672124 3.36819e-20)
(0.370943 0.592849 -8.05388e-19)
(0.274039 0.50866 -6.60811e-19)
(0.178712 0.398278 7.03199e-21)
(0.0925051 0.258764 -2.36105e-20)
(0.0167434 0.0962043 2.44536e-20)
(0.581771 0.752237 2.17759e-18)
(0.446267 0.648647 -1.57046e-19)
(0.307944 0.506439 -1.44298e-19)
(0.174349 0.328095 -2.14536e-19)
(0.0483078 0.123796 1.6831e-19)
(0.862071 0.874072 -1.29894e-18)
(0.679195 0.757752 1.98573e-18)
(0.485296 0.593763 3.16741e-19)
(0.288327 0.388219 1.00761e-19)
(0.0924996 0.149135 -1.18153e-19)
(1.20362 0.924762 -4.42233e-19)
(0.969095 0.811546 -4.58741e-19)
(0.708609 0.644968 3.61971e-19)
(0.433352 0.429148 3.60373e-19)
(0.148472 0.16855 1.89863e-21)
(0.919978 0.159349 -3.76226e-19)
(1.4742 0.139828 5.36163e-20)
(1.29761 0.198443 2.13608e-20)
(1.00532 0.502142 -4.54873e-19)
(0.596511 0.644 1.37425e-20)
(0.919051 0.0852185 1.58613e-19)
(1.47697 0.119892 2.68968e-19)
(1.32167 0.242137 1.95906e-19)
(1.05716 0.614636 -8.30753e-20)
(0.784261 0.800725 7.66888e-19)
(0.917351 0.0136532 3.85731e-20)
(1.49057 0.0989849 -1.95789e-20)
(1.32773 0.286259 -5.69429e-20)
(1.16691 0.707752 -4.74607e-19)
(1.03749 0.934524 1.4917e-19)
(0.917048 -0.0549747 -2.12885e-20)
(1.50388 0.0797995 -6.14785e-19)
(1.34508 0.329895 1.06928e-19)
(1.32947 0.772401 1.23565e-18)
(1.33487 1.03941 9.40479e-19)
(0.917227 -0.122729 -2.20801e-20)
(1.50873 0.0670966 1.63877e-19)
(1.37637 0.374571 -6.81459e-20)
(1.51284 0.814137 -4.06059e-19)
(1.63564 1.09031 -2.74943e-18)
(0.912797 -0.217095 2.17712e-19)
(1.49796 0.0344052 4.36294e-19)
(1.4639 0.37603 -1.93394e-20)
(1.76922 0.795063 2.99827e-18)
(2.15236 1.14219 -5.52236e-18)
(0.877532 -0.338707 -2.56092e-20)
(1.37799 -0.0240309 -6.32824e-19)
(1.42292 0.272051 7.8528e-21)
(1.84809 0.59157 -3.05167e-18)
(2.59519 0.900174 1.66698e-18)
(0.784165 -0.411688 5.45191e-18)
(1.09856 -0.0857233 6.72418e-35)
(1.14172 0.146782 -2.16133e-18)
(1.57872 0.33756 2.66921e-18)
(2.45732 0.529269 5.03247e-18)
(0.633158 -0.291284 1.49797e-19)
(0.720384 -0.0707183 5.25843e-19)
(0.736207 0.051774 2.52541e-19)
(1.07616 0.134406 6.24404e-19)
(1.75839 0.220449 -8.6405e-18)
(0.32215 -0.0432467 -4.30396e-18)
(0.295152 0.00513864 2.80568e-19)
(0.266435 -0.0129355 1.103e-18)
(0.393691 -0.0239995 -7.72548e-19)
(0.686109 -0.000407719 -1.46506e-18)
(2.34841 1.12084 4.68662e-18)
(2.78718 1.01239 3.46939e-18)
(3.14083 0.803298 -5.6884e-18)
(3.41899 0.51956 -1.4614e-17)
(3.58242 0.185861 1.57625e-17)
(3.07916 1.01877 5.00809e-18)
(3.35431 0.795192 2.56431e-17)
(3.55716 0.560658 7.24374e-18)
(3.70125 0.331819 -3.08331e-17)
(3.77803 0.111132 -5.17361e-18)
(2.90595 0.591932 -7.23077e-18)
(2.98609 0.448086 -3.38097e-18)
(3.05223 0.312131 -6.30007e-18)
(3.09527 0.181753 -6.88931e-18)
(3.11403 0.0584477 6.52263e-18)
(2.10624 0.26596 5.41255e-18)
(2.13009 0.205812 -4.04814e-19)
(2.16251 0.143089 4.87054e-18)
(2.18311 0.0821634 6.28884e-18)
(2.19077 0.0260104 -5.88762e-18)
(0.842474 0.0220759 -5.74313e-19)
(0.851887 0.0156654 3.52007e-18)
(0.868607 0.00913776 2.44281e-18)
(0.87748 0.00479575 -5.16905e-18)
(0.879834 0.0013628 -3.84262e-20)
(0.281935 0.0207571 5.5204e-19)
(0.65668 0.0404672 -7.43468e-19)
(0.97315 0.0440678 -8.18559e-19)
(0.944326 0.0274321 -1.51796e-18)
(0.697854 0.0163859 -6.63709e-19)
(0.245578 0.055461 7.4558e-19)
(0.591272 0.107077 1.44151e-18)
(0.864688 0.125144 -6.97162e-19)
(0.939957 0.0970004 1.96062e-18)
(0.724178 0.0532405 -2.70085e-18)
(0.185619 0.074266 4.96128e-19)
(0.47639 0.145897 -1.3991e-18)
(0.707773 0.184763 -9.13834e-19)
(0.857316 0.175414 -1.81029e-18)
(0.741567 0.101227 -2.86201e-18)
(0.123302 0.0774756 -7.72673e-19)
(0.344759 0.160357 -1.37659e-18)
(0.534531 0.214879 4.39839e-18)
(0.677711 0.233307 -3.66616e-19)
(0.713057 0.180023 2.25398e-18)
(0.0752701 0.072368 -6.23061e-19)
(0.230704 0.160103 1.56401e-18)
(0.372262 0.224517 6.11455e-19)
(0.482784 0.257735 -1.2952e-18)
(0.561255 0.258407 -1.75098e-19)
(0.045141 0.0637763 8.40255e-20)
(0.149939 0.14875 -1.22137e-18)
(0.247714 0.2121 -9.43564e-19)
(0.325383 0.234005 -8.9635e-20)
(0.371143 0.223716 -5.01812e-20)
(0.0264374 0.055678 3.11974e-19)
(0.0950772 0.134208 5.94404e-19)
(0.160896 0.184636 -2.0876e-19)
(0.213767 0.195202 2.59306e-19)
(0.253619 0.185093 1.71423e-19)
(0.0132811 0.0487902 2.49277e-19)
(0.058575 0.111305 1.29975e-18)
(0.103632 0.121087 -1.23505e-18)
(0.142561 0.107309 -2.78205e-18)
(0.1787 0.0858756 4.08505e-19)
(0.00608849 0.0393418 -2.3647e-19)
(0.0422671 0.04918 -1.80141e-18)
(0.0794519 0.0222207 3.21132e-18)
(0.119358 -0.00949422 1.31725e-18)
(0.160701 -0.0432393 -2.69707e-19)
(0.00998794 0.00289737 2.09263e-19)
(0.0419404 -0.0491527 -4.50775e-19)
(0.0818951 -0.0953516 8.95e-20)
(0.130443 -0.143321 1.05849e-19)
(0.180989 -0.189524 5.66662e-21)
(0.338558 0.0715464 -7.71955e-20)
(0.614609 -0.0420953 -1.22284e-18)
(0.70239 -0.0137497 2.5442e-19)
(0.719463 0.00268693 3.85841e-19)
(0.715329 0.00143459 1.52882e-20)
(0.302864 -0.0347275 -1.00328e-19)
(0.750575 -0.114672 1.44891e-18)
(0.885635 -0.0238971 9.18896e-19)
(0.918931 0.00353315 7.68515e-20)
(0.921517 0.00249003 -4.00071e-20)
(0.318905 -0.149714 -7.98919e-19)
(0.833372 -0.197712 3.09757e-18)
(1.04553 -0.0438291 -1.82659e-19)
(1.10439 0.00245512 -3.58196e-19)
(1.11365 0.00311439 8.03472e-20)
(0.37434 -0.28794 1.09868e-18)
(0.880552 -0.296688 -2.66134e-18)
(1.16428 -0.0853426 -5.22269e-19)
(1.26559 -0.0039948 -3.35151e-20)
(1.28429 0.00267616 -7.00152e-21)
(0.461572 -0.435968 5.0741e-19)
(0.914834 -0.403417 -5.62059e-19)
(1.23843 -0.144267 4.61373e-19)
(1.38691 -0.0230869 1.25935e-19)
(1.43274 -0.0022754 -3.83892e-20)
(0.182966 -0.0449544 9.5463e-19)
(0.1452 -0.00521434 0)
(0.162451 0.00115023 1.17271e-19)
(0.1631 5.40529e-06 5.96378e-21)
(0.159751 -0.000382154 -7.70285e-20)
(0.399888 0.0699764 0)
(0.409328 -0.000518957 0)
(0.466037 -0.00428353 5.9456e-20)
(0.470747 0.00189776 2.13811e-21)
(0.46291 0.000657652 3.2702e-20)
(0.162667 -0.00082118 -3.68412e-19)
(0.186381 -0.00179221 3.10737e-18)
(0.213188 -0.00502166 -6.86382e-19)
(0.229787 -0.0149905 -3.1167e-18)
(0.245683 -0.0170079 -7.96989e-19)
(0.431983 0.00444077 6.09852e-19)
(0.484508 0.0196931 4.11537e-18)
(0.536403 0.046688 -6.73053e-18)
(0.56759 0.0805934 2.20917e-18)
(0.598308 0.162196 3.79598e-18)
(0.370614 -0.220274 -3.33491e-19)
(0.324217 -0.231292 -9.18089e-20)
(0.248323 -0.212484 -3.24634e-19)
(0.150751 -0.150707 3.86254e-19)
(0.0458532 -0.0645844 1.14201e-19)
(0.257629 -0.168762 4.20439e-19)
(0.215098 -0.18091 1.41259e-18)
(0.162381 -0.176414 2.63348e-19)
(0.0967321 -0.13481 2.35623e-19)
(0.0268442 -0.0571518 -1.82818e-20)
(0.193121 -0.0538953 -3.09292e-19)
(0.151542 -0.0764569 -1.03575e-19)
(0.108689 -0.0940012 1.63155e-18)
(0.062303 -0.0963867 2.8788e-19)
(0.0131446 -0.047785 -3.10866e-19)
(0.177799 0.0872286 -6.34453e-19)
(0.131977 0.0534477 -7.05872e-19)
(0.0872643 0.0198717 1.30395e-18)
(0.0491571 -0.0100716 1.59482e-18)
(0.0112009 -0.0294459 1.98561e-19)
(0.187244 0.243607 1.23554e-19)
(0.133194 0.197382 -1.20054e-19)
(0.0811296 0.14769 2.4812e-19)
(0.0377282 0.0967142 6.15959e-19)
(-0.00242634 0.035478 9.03556e-20)
(0.697851 -0.016341 1.53132e-18)
(0.944332 -0.0274086 -1.80073e-18)
(0.972958 -0.044193 2.26976e-18)
(0.656692 -0.0405295 3.64468e-19)
(0.281969 -0.0207657 5.36598e-19)
(0.72417 -0.0531314 1.77215e-18)
(0.939816 -0.0970136 7.94651e-18)
(0.864484 -0.125247 1.03358e-18)
(0.591324 -0.107116 1.34933e-18)
(0.245673 -0.055482 -4.78432e-19)
(0.741494 -0.100973 -1.22197e-18)
(0.856708 -0.175242 -2.29567e-18)
(0.707691 -0.184821 2.92413e-18)
(0.476456 -0.145965 -1.08367e-19)
(0.185741 -0.0743015 3.39561e-19)
(0.712552 -0.179829 2.00254e-20)
(0.676986 -0.233234 -7.68297e-18)
(0.534561 -0.2152 -5.9968e-18)
(0.344892 -0.160693 1.09141e-18)
(0.123484 -0.0775806 5.08032e-19)
(0.558793 -0.256787 4.70685e-19)
(0.481718 -0.257068 5.32979e-19)
(0.372319 -0.225203 -8.98057e-19)
(0.230958 -0.160976 -8.87677e-19)
(0.0756183 -0.0726291 -5.14225e-21)
(0.726414 0.372778 1.17291e-18)
(0.886815 0.125932 -1.92043e-19)
(0.682506 0.0189483 2.5836e-19)
(0.648216 0.0381246 -7.66106e-19)
(0.362904 -0.0611859 -1.01158e-19)
(0.825479 0.397335 -1.68769e-19)
(1.10043 0.154468 -5.40167e-19)
(0.873928 0.0378066 8.30403e-19)
(0.806997 0.102584 1.68324e-18)
(0.341098 0.055075 1.05196e-19)
(0.888511 0.371213 -2.17655e-18)
(1.28645 0.167895 -3.70095e-20)
(1.04218 0.0632976 2.37902e-19)
(0.908344 0.18284 1.63262e-18)
(0.364405 0.177473 -1.3919e-18)
(0.913864 0.311811 1.39834e-18)
(1.44462 0.168354 1.9731e-20)
(1.17026 0.103349 -1.90055e-19)
(0.960372 0.281364 -5.96645e-19)
(0.413359 0.323442 -5.60425e-19)
(0.919122 0.235938 1.54092e-19)
(1.484 0.15488 1.65879e-20)
(1.24979 0.150059 -4.68551e-20)
(0.984973 0.388538 -3.80697e-20)
(0.482339 0.479977 1.3538e-18)
(0.275426 0.0483748 0)
(0.244794 -0.0109669 6.4366e-19)
(0.158807 -0.0158345 1.28119e-19)
(0.151339 0.00540654 -1.18538e-19)
(0.184437 0.0440056 -1.80754e-18)
(0.572656 0.266182 -1.01943e-17)
(0.611849 0.0747472 -2.53805e-18)
(0.449105 0.012469 5.01507e-19)
(0.426712 0.00120864 -6.68429e-19)
(0.408054 -0.0681926 -6.62459e-19)
(0.245829 0.0169635 -1.13911e-21)
(0.229885 0.0150771 1.92852e-18)
(0.213265 0.0050643 5.24148e-19)
(0.186431 0.00180194 3.23099e-19)
(0.162682 0.000825023 0)
(0.599266 -0.162063 -1.0984e-19)
(0.568179 -0.0802772 2.54923e-18)
(0.536515 -0.0464599 -1.36267e-19)
(0.484568 -0.0196399 -2.70125e-19)
(0.432006 -0.00441855 7.60359e-19)
)
;

boundaryField
{
    left
    {
        type            fixedValue;
        value           uniform (1 0 0);
    }
    right
    {
        type            zeroGradient;
    }
    down
    {
        type            noSlip;
    }
    up
    {
        type            noSlip;
    }
    cylinder
    {
        type            noSlip;
    }
    defaultFaces
    {
        type            empty;
    }
}


// ************************************************************************* //
