/*--------------------------------*- C++ -*----------------------------------*\
  =========                 |
  \\      /  F ield         | OpenFOAM: The Open Source CFD Toolbox
   \\    /   O peration     | Website:  https://openfoam.org
    \\  /    A nd           | Version:  13
     \\/     M anipulation  |
\*---------------------------------------------------------------------------*/
FoamFile
{
    format      ascii;
    class       volVectorField;
    location    "5.775";
    object      U;
}
// * * * * * * * * * * * * * * * * * * * * * * * * * * * * * * * * * * * * * //

dimensions      [0 1 -1 0 0 0 0];

internalField   nonuniform List<vector> 
440
(
(-0.09362 0.0684965 -7.16224e-20)
(-0.125341 0.122656 -3.94208e-20)
(-0.0537889 0.111586 4.04261e-20)
(0.302924 0.16962 3.60936e-19)
(0.123629 0.367115 8.38267e-21)
(-0.087231 0.0475666 2.37796e-20)
(-0.00256897 0.0369516 -9.15164e-20)
(0.376313 -0.0029581 -7.53502e-20)
(0.903898 -0.0151153 4.0566e-20)
(1.22087 0.0136074 -5.10528e-21)
(-0.0433871 0.0187722 4.66157e-20)
(0.349439 -0.0116806 5.56158e-19)
(1.0442 0.0107045 -2.86031e-19)
(1.61173 0.0528424 -9.12333e-19)
(2.18209 0.0848322 3.08388e-19)
(0.134909 -0.0319928 -1.61695e-19)
(0.993972 0.0143741 -4.38912e-19)
(1.77723 0.104688 1.36743e-18)
(2.28321 0.165009 1.51955e-18)
(2.44607 0.205776 -4.20498e-19)
(0.455732 -0.00967547 -2.70123e-19)
(1.589 0.192493 -5.44095e-19)
(2.20029 0.302529 1.63932e-18)
(2.37965 0.341199 1.80392e-18)
(2.45097 0.323532 6.14538e-19)
(0.0279152 -0.372903 -1.72377e-19)
(-0.026645 -0.533014 1.03446e-19)
(-0.105619 -0.507936 -2.01896e-19)
(-0.182185 -0.441631 5.76893e-20)
(-0.23766 -0.363824 4.76466e-19)
(0.0396175 -0.249491 -1.9617e-20)
(-0.0492769 -0.340645 -3.41176e-20)
(-0.157589 -0.315875 -8.30702e-20)
(-0.25333 -0.263227 -6.65837e-20)
(-0.319735 -0.196853 1.10242e-19)
(0.0090582 -0.0762902 1.73129e-19)
(-0.0801341 -0.0918751 2.6586e-20)
(-0.165094 -0.096633 9.75329e-20)
(-0.23647 -0.0965815 -2.29695e-20)
(-0.287304 -0.0707312 2.03718e-21)
(-0.00426148 -0.00778272 8.33841e-21)
(-0.0668985 0.0173156 6.16189e-21)
(-0.126346 0.0360624 1.16311e-20)
(-0.17842 0.0333683 -2.2884e-19)
(-0.228769 0.0479012 7.93079e-20)
(-0.0537263 0.0418274 1.14952e-21)
(-0.148415 0.0846903 -7.94439e-21)
(-0.233183 0.135441 -7.10419e-20)
(-0.234689 0.184568 5.14357e-20)
(-0.262687 0.256995 -7.35334e-20)
(-0.330392 0.0676137 1.75354e-18)
(-0.402696 0.849417 -9.63277e-20)
(-0.0558807 0.397418 2.49812e-19)
(0.883117 -0.502485 -4.26386e-19)
(1.14214 -0.48641 8.08685e-21)
(-0.481154 0.127662 -1.49707e-18)
(-0.674962 0.760853 7.46232e-20)
(0.391238 0.149311 7.04258e-20)
(1.28052 -0.652911 2.00113e-19)
(1.36055 -0.529004 2.20546e-20)
(-0.407239 0.0828608 -8.86941e-19)
(-0.409925 0.583149 -8.4185e-19)
(0.90759 -0.118301 -3.29873e-20)
(1.7744 -0.740158 -1.10381e-19)
(1.61745 -0.537795 2.52109e-20)
(-0.388803 0.115484 1.53739e-19)
(0.144848 0.434059 1.49412e-19)
(1.35765 -0.338877 1.55106e-20)
(2.09413 -0.802279 1.07638e-19)
(1.82216 -0.521298 1.52887e-19)
(-0.272646 -0.074033 -1.07699e-19)
(0.794639 0.150346 6.52961e-19)
(1.73388 -0.516195 0)
(2.18864 -0.853298 -1.8976e-19)
(1.85617 -0.500779 3.00969e-20)
(1.22941 -0.0016842 -2.52059e-19)
(1.68629 -0.0380238 -1.72478e-19)
(2.18138 -0.593641 -5.24687e-21)
(2.2917 -0.822659 -8.1925e-20)
(1.81726 -0.45586 -5.54231e-20)
(1.94751 0.0176671 -2.53311e-21)
(2.42695 -0.107607 5.65607e-19)
(2.60571 -0.623977 -2.07973e-21)
(2.28748 -0.719397 3.42191e-19)
(1.58948 -0.345326 0)
(2.0816 0.0122401 -1.21914e-19)
(2.54487 -0.228608 -4.98102e-21)
(2.42545 -0.539668 4.3124e-19)
(1.84405 -0.458576 -1.03657e-19)
(1.22059 -0.198828 -6.4937e-21)
(2.20206 -0.0670619 7.77985e-20)
(2.37041 -0.228255 1.96567e-19)
(1.98419 -0.424251 9.2128e-21)
(1.28876 -0.305753 -8.50279e-35)
(0.670255 -0.0905608 5.44259e-20)
(1.58757 -0.0280817 9.66796e-20)
(1.41106 -0.127433 6.57571e-20)
(0.562095 -0.0487724 -1.2229e-19)
(0.0622894 0.0424082 1.09673e-20)
(-0.11187 0.0200178 1.20169e-20)
(2.37117 0.320097 -7.53303e-19)
(2.55982 0.139208 -9.4351e-19)
(2.43574 0.173483 5.39141e-19)
(2.56322 0.0183482 9.33231e-20)
(1.91135 0.163394 -2.66954e-20)
(2.09889 0.215137 7.29548e-20)
(2.32436 0.141185 -3.65606e-20)
(2.2458 0.0659716 -1.25228e-19)
(2.39078 0.0123324 -2.11171e-19)
(2.29838 -0.118948 -4.86341e-21)
(2.00171 0.105072 7.91686e-20)
(2.09587 0.124273 7.11093e-20)
(2.1496 -0.00135246 -6.85057e-20)
(2.16378 0.0329069 2.72919e-20)
(2.25837 -0.0855645 -2.53371e-20)
(2.02349 0.0411825 1.15362e-19)
(2.06489 0.0676478 1.80197e-19)
(2.16954 -0.0157682 -2.02986e-20)
(2.16399 0.00328513 -1.07116e-19)
(2.26748 -0.063846 3.51992e-20)
(1.58158 -0.0194491 1.90659e-19)
(1.6052 -0.0115754 -1.16408e-20)
(1.63185 -0.0315414 1.81536e-20)
(1.62423 -0.0194388 -4.60167e-20)
(1.65711 -0.042712 -3.55575e-20)
(1.56109 0.853424 1.05639e-18)
(1.52314 0.952928 -3.29734e-19)
(1.52333 1.08106 -1.28173e-18)
(1.45351 1.1237 7.0655e-19)
(0.891653 0.802805 -1.69834e-19)
(1.84041 0.80964 -5.46823e-19)
(1.81435 0.890507 -2.88831e-18)
(1.82031 0.998146 -1.12133e-18)
(1.72689 1.00393 -3.93737e-19)
(1.04572 0.688215 -6.29938e-19)
(2.13056 0.707238 7.01005e-19)
(2.11156 0.773234 1.87743e-19)
(2.09006 0.855908 -2.18163e-18)
(1.94571 0.836233 -5.90846e-19)
(1.12542 0.53245 4.23641e-19)
(2.28402 0.605281 2.134e-18)
(2.28323 0.655108 1.56056e-18)
(2.268 0.695414 -1.79743e-18)
(2.02349 0.640268 -1.32224e-18)
(1.06746 0.341329 -2.30413e-19)
(2.4323 0.463092 1.00908e-18)
(2.42189 0.482058 -7.29306e-19)
(2.31055 0.495776 5.2248e-19)
(1.93307 0.416907 3.90871e-19)
(0.834746 0.135054 -3.13764e-19)
(0.580644 0.424703 -7.28679e-19)
(0.486723 0.459088 -5.7343e-19)
(0.364772 0.492585 6.98122e-20)
(0.225768 0.491646 -1.78723e-20)
(0.0541941 0.346447 6.99332e-20)
(0.697361 0.587713 4.53023e-20)
(0.634587 0.64442 -3.45936e-19)
(0.541612 0.708998 1.73641e-19)
(0.407721 0.767724 -7.98005e-20)
(0.173723 0.589033 1.14672e-19)
(0.766727 0.804479 1.78772e-19)
(0.697941 0.888746 4.14951e-19)
(0.644924 0.987152 7.02305e-20)
(0.560329 1.03051 -2.82441e-19)
(0.305923 0.76416 2.32409e-19)
(1.05054 0.86775 2.08593e-19)
(0.998507 0.955165 -6.45021e-19)
(0.947415 1.06024 -1.84042e-18)
(0.865353 1.13342 7.49235e-19)
(0.509458 0.845141 -1.67762e-19)
(1.15256 0.92932 -1.19189e-19)
(1.17176 1.04844 -1.95166e-19)
(1.18782 1.16425 -3.39413e-19)
(1.13192 1.19605 -3.93412e-19)
(0.694684 0.861307 -6.38415e-21)
(0.987668 0.0489217 -8.85473e-20)
(1.01796 0.0078477 -3.11615e-20)
(1.03527 0.134354 -1.69698e-21)
(0.935329 0.106803 -2.07426e-19)
(0.910211 0.250411 3.07395e-19)
(0.973655 0.0462703 5.4959e-20)
(1.04147 0.000972083 1.15907e-19)
(1.01748 0.152273 1.12431e-19)
(0.968503 0.125149 2.34995e-20)
(0.932984 0.323812 2.30521e-20)
(0.980811 0.0446065 7.3594e-20)
(1.02987 -0.00782366 -4.47599e-21)
(1.05553 0.171118 -3.46967e-21)
(0.916482 0.130741 1.44373e-19)
(1.1331 0.465552 -4.31792e-19)
(0.978619 0.0429115 -3.30095e-22)
(1.04925 -0.0189653 -1.70005e-19)
(1.03751 0.204202 -6.07995e-20)
(0.998218 0.123562 -3.76094e-19)
(1.197 0.513346 7.91906e-20)
(0.98389 0.0343045 -1.17465e-20)
(1.04688 -0.0132937 4.86681e-20)
(1.06763 0.202987 2.87456e-20)
(1.00938 0.13974 4.81446e-19)
(1.40658 0.645409 -4.41287e-19)
(0.964556 0.0328485 -4.27233e-21)
(1.10406 -0.0339127 9.62023e-20)
(1.01924 0.236147 -6.22157e-20)
(1.25168 0.0667737 9.68255e-19)
(1.34424 0.693806 -3.60667e-19)
(0.944531 1.68478e-05 -1.44097e-21)
(1.16228 -0.0161354 -8.32445e-20)
(0.921032 0.164671 5.31205e-21)
(1.39017 0.0283167 -3.82791e-19)
(1.38714 0.473466 -1.39101e-20)
(0.979053 -0.0169386 2.20632e-21)
(1.10916 0.00501991 1.40079e-35)
(1.02038 0.116877 -6.35571e-21)
(1.37888 -0.0532469 1.15632e-19)
(1.36456 0.335078 1.55283e-19)
(1.04647 -0.0537456 4.04116e-21)
(0.95948 -0.00221058 -2.74814e-20)
(1.22446 0.0167522 2.18716e-20)
(1.17579 -0.0453749 2.82435e-20)
(1.25729 0.257028 -2.22313e-19)
(0.953679 -0.0226209 -3.93119e-20)
(0.778224 -0.0222632 -2.49046e-21)
(0.980942 -0.00759522 2.61097e-20)
(0.691728 -0.0123158 -1.36012e-20)
(0.962259 0.0957368 -4.85583e-20)
(1.77868 0.64235 2.87761e-19)
(1.89208 0.653038 6.95562e-19)
(2.12479 0.546196 -9.8689e-19)
(2.19615 0.519559 6.72869e-21)
(2.38924 0.347702 4.29985e-19)
(1.77029 0.455707 7.9553e-20)
(1.79 0.449532 9.65133e-19)
(1.97467 0.408731 1.06628e-19)
(1.95389 0.35719 -8.40278e-19)
(2.16249 0.271109 -2.66657e-19)
(1.64245 0.370732 -2.15217e-19)
(1.67907 0.319676 -1.40454e-19)
(1.80382 0.319639 2.22e-19)
(1.83647 0.221275 -2.72378e-19)
(1.96762 0.22073 2.53852e-19)
(1.54687 0.258063 3.46354e-19)
(1.63407 0.195987 1.54221e-21)
(1.74739 0.195567 2.11935e-19)
(1.84049 0.115634 1.8408e-19)
(1.92906 0.130157 -1.86768e-19)
(1.28136 0.061391 -4.6109e-20)
(1.36367 0.0362814 2.31967e-19)
(1.45556 0.024938 1.01083e-19)
(1.50252 0.00186474 -2.20709e-19)
(1.55687 -0.00023176 2.2046e-22)
(1.3253 -0.0357303 6.99682e-20)
(2.4154 -0.0381809 -5.25493e-19)
(2.64179 -0.0329064 1.39681e-18)
(2.61931 0.0142162 6.23423e-19)
(2.45432 0.0382961 -4.30749e-19)
(0.840422 0.0989215 1.29198e-19)
(2.1885 0.100501 -5.22171e-19)
(2.6495 0.102731 -7.16819e-19)
(2.6857 0.114004 9.01889e-19)
(2.42769 0.10464 -6.07735e-19)
(0.252998 0.0887979 -3.12561e-20)
(1.51834 0.172552 5.58986e-19)
(2.31822 0.201103 8.42595e-20)
(2.69713 0.196647 6.16956e-19)
(2.83647 0.187113 2.80014e-19)
(-0.0470649 -0.0234475 2.37467e-19)
(0.582608 0.104243 2.41845e-19)
(1.48315 0.190997 -5.4118e-19)
(2.02572 0.231003 3.18123e-20)
(2.62704 0.258267 1.06418e-19)
(-0.115622 -0.0907297 1.73275e-19)
(0.0173913 -0.0390562 -2.00285e-19)
(0.564397 0.0674278 -2.98447e-20)
(1.0759 0.110348 4.89422e-20)
(1.61211 0.210284 -2.82078e-20)
(-0.0884769 -0.0933803 -3.23128e-21)
(-0.137635 -0.139409 1.30585e-19)
(0.0184849 -0.136375 9.57756e-20)
(0.2361 -0.107204 -3.92043e-20)
(0.73703 0.00168582 6.2324e-21)
(-0.056849 -0.0905033 -1.43626e-20)
(-0.110088 -0.220512 -1.048e-19)
(-0.0839494 -0.286396 -4.4329e-20)
(-0.0089079 -0.291852 9.40809e-21)
(0.174425 -0.191629 1.33807e-20)
(-0.0521902 -0.158404 -8.95284e-21)
(-0.0658713 -0.381527 2.2297e-19)
(-0.0331101 -0.470343 -5.95194e-20)
(0.0283635 -0.466183 1.29373e-19)
(0.0806456 -0.397957 -9.54559e-20)
(-0.0457549 -0.303424 -3.93164e-21)
(-0.0333459 -0.587876 4.33102e-20)
(-0.0027329 -0.650258 -3.00403e-19)
(0.0376182 -0.602558 -4.73718e-19)
(0.070754 -0.515921 7.52254e-20)
(-0.0131967 -0.403243 -4.62009e-21)
(-0.0265614 -0.639574 3.12261e-20)
(-0.0507981 -0.630408 -1.56358e-20)
(-0.0738144 -0.547144 -3.94775e-20)
(-0.0898066 -0.450211 1.20025e-19)
(1.63585 0.553805 -8.05219e-20)
(1.34024 0.348388 6.18442e-19)
(0.718589 0.133092 -7.34804e-20)
(0.173493 -0.0224534 6.02269e-22)
(0.589803 -0.102408 -3.72927e-21)
(1.37015 0.476484 1.11605e-20)
(1.15236 0.459859 6.66825e-20)
(0.427273 0.264753 5.6695e-20)
(-0.120333 -0.0233362 -8.56697e-21)
(0.503459 -0.182035 3.1083e-20)
(1.04924 0.28826 4.25405e-20)
(0.987344 0.54773 6.19653e-19)
(0.0486125 0.396669 5.78748e-20)
(-0.135617 -0.0623163 -6.06994e-19)
(0.537178 -0.281766 -1.33937e-20)
(0.590098 0.125592 6.04253e-20)
(0.697778 0.681907 -1.83372e-18)
(-0.310571 0.506645 -2.47529e-19)
(0.147096 -0.183204 3.01385e-21)
(0.669133 -0.368555 -1.44024e-20)
(0.0442474 0.0986962 -1.13684e-19)
(0.191845 0.821925 -5.63283e-20)
(-0.361366 0.530792 2.13958e-19)
(0.533124 -0.34101 -3.9642e-20)
(0.897816 -0.433374 -1.89154e-20)
(0.444744 0.164554 -5.09223e-20)
(-0.271658 -0.0899514 0)
(-0.174147 -0.11026 -4.62896e-20)
(-0.00492856 -0.0548727 5.22291e-20)
(0.271385 -0.0221235 1.23323e-20)
(2.08305 0.53907 0)
(1.44611 0.317856 0)
(0.861572 0.0253241 3.67573e-19)
(0.504281 -0.0674915 1.65648e-20)
(0.729311 -0.0677099 -8.23415e-21)
(0.79901 0.00261862 -1.45422e-19)
(0.873528 -0.00339824 2.98281e-19)
(1.04013 0.00202512 -2.24886e-20)
(1.1063 0.00944148 3.25895e-19)
(1.47132 0.0942997 2.17401e-19)
(1.79001 0.0283901 1.39033e-19)
(1.9648 0.082407 3.72515e-19)
(2.10821 0.0706244 -2.92854e-19)
(2.70771 0.204678 1.69948e-20)
(2.41362 0.170321 1.38945e-19)
(0.968772 -0.524175 2.45802e-20)
(0.9615 -0.621635 -2.10147e-19)
(0.958153 -0.727415 -1.83121e-19)
(0.890146 -0.804935 1.09958e-19)
(0.548652 -0.641467 1.46617e-19)
(0.862814 -0.434037 1.11235e-19)
(0.806601 -0.504027 1.55831e-19)
(0.730782 -0.579281 -1.05796e-19)
(0.617356 -0.647046 1.53164e-19)
(0.344374 -0.521758 4.05073e-20)
(0.682383 -0.29506 -1.23844e-19)
(0.593081 -0.340701 -6.07632e-20)
(0.493408 -0.398828 1.71884e-20)
(0.376427 -0.449689 -4.65647e-20)
(0.175849 -0.360267 -1.4157e-19)
(0.576048 -0.0621028 -4.5207e-19)
(0.490947 -0.0823115 -3.63804e-19)
(0.38054 -0.112462 2.95812e-19)
(0.25122 -0.149878 1.53971e-19)
(0.0775698 -0.14001 1.37025e-20)
(0.545191 0.144564 -1.44444e-19)
(0.459373 0.143254 -1.63666e-19)
(0.340353 0.139126 -4.25479e-20)
(0.198431 0.141424 5.63276e-20)
(0.0342372 0.10548 1.54127e-20)
(2.18195 -0.0364995 9.253e-19)
(2.44882 -0.107548 3.18287e-19)
(2.53535 -0.199282 -8.39317e-19)
(2.40329 -0.224875 -1.81402e-18)
(1.47855 -0.216389 1.3967e-19)
(2.15672 -0.130537 1.56905e-18)
(2.24942 -0.247569 2.06157e-18)
(2.27041 -0.377405 1.71814e-19)
(2.20328 -0.439928 2.97864e-19)
(1.4389 -0.406568 -1.97387e-19)
(1.84401 -0.303644 -4.06805e-18)
(1.90788 -0.427086 4.56498e-19)
(1.95869 -0.560244 1.27378e-18)
(1.91138 -0.643082 -5.0468e-19)
(1.26046 -0.56374 8.03314e-19)
(1.61024 -0.437047 9.82603e-19)
(1.62672 -0.541288 -2.59922e-18)
(1.61712 -0.666723 -3.01521e-18)
(1.55939 -0.763298 9.45777e-19)
(1.02076 -0.645165 6.15826e-19)
(1.30024 -0.501288 2.2712e-19)
(1.25412 -0.60317 2.85076e-19)
(1.25156 -0.735838 -4.60935e-19)
(1.20367 -0.832355 -5.59428e-19)
(0.771125 -0.673368 -5.36747e-21)
(1.01701 0.0468068 7.2586e-21)
(0.977474 0.0469216 -1.61349e-21)
(1.12181 0.0859147 5.886e-21)
(0.835383 -0.013519 -2.57374e-19)
(1.1678 -0.233721 -1.945e-20)
(1.036 0.0513171 -2.45171e-21)
(0.950626 0.0380777 3.65902e-20)
(1.12275 0.105113 -9.0828e-22)
(0.913117 0.0270406 2.15026e-19)
(1.03996 -0.121145 4.78929e-22)
(1.04276 0.0502466 -5.91863e-20)
(0.94358 0.029317 1.94514e-22)
(1.10121 0.105294 -6.07995e-21)
(0.909553 0.0478075 1.02166e-19)
(0.997968 -0.0586895 -2.55495e-19)
(1.02976 0.0511011 7.10385e-20)
(0.967517 0.0216217 2.56754e-21)
(1.06094 0.1106 2.18725e-20)
(0.94138 0.0714069 -4.26867e-20)
(0.889368 0.0500391 7.24658e-20)
(1.00458 0.04892 1.75438e-20)
(1.00255 0.0182709 -2.34769e-20)
(1.03006 0.11755 3.42698e-20)
(0.953423 0.0934293 4.69531e-20)
(0.857975 0.146249 -2.8451e-20)
(0.873251 0.0333403 0)
(0.754406 0.0297776 9.54942e-21)
(0.588832 0.0200848 6.08488e-21)
(0.386839 -0.0134551 5.22818e-20)
(0.734073 -0.0572256 -1.72886e-19)
(0.984971 0.0667059 -6.20241e-20)
(1.00875 0.0698515 -8.04622e-21)
(1.01235 0.0827992 -6.17013e-20)
(0.841854 -0.0160607 -1.4432e-19)
(1.07319 -0.216023 -1.80415e-19)
(1.03037 -0.0657792 -3.93609e-20)
(1.12389 -0.0355271 5.92223e-19)
(1.23138 0.039028 3.55097e-19)
(1.10143 0.0616933 3.1457e-20)
(0.85335 0.0337697 0)
(1.38355 -0.332292 3.96192e-19)
(1.51025 -0.294723 1.7016e-18)
(1.70756 -0.168302 -1.87335e-18)
(1.82098 -0.0227908 -5.84132e-19)
(1.73225 0.035387 4.32914e-19)
)
;

boundaryField
{
    left
    {
        type            fixedValue;
        value           uniform (1 0 0);
    }
    right
    {
        type            zeroGradient;
    }
    down
    {
        type            noSlip;
    }
    up
    {
        type            noSlip;
    }
    cylinder
    {
        type            noSlip;
    }
    defaultFaces
    {
        type            empty;
    }
}


// ************************************************************************* //
