/*--------------------------------*- C++ -*----------------------------------*\
  =========                 |
  \\      /  F ield         | OpenFOAM: The Open Source CFD Toolbox
   \\    /   O peration     | Website:  https://openfoam.org
    \\  /    A nd           | Version:  13
     \\/     M anipulation  |
\*---------------------------------------------------------------------------*/
FoamFile
{
    format      ascii;
    class       volScalarField;
    location    "0.25";
    object      p;
}
// * * * * * * * * * * * * * * * * * * * * * * * * * * * * * * * * * * * * * //

dimensions      [0 2 -2 0 0 0 0];

internalField   nonuniform List<scalar> 
1800
(
5.91276
8.01983
10.1725
11.6006
12.4347
12.845
12.9759
12.8185
11.5727
7.48206
9.76528
12.241
14.7459
16.4298
17.4862
18.1488
18.6035
18.8428
18.1186
15.4419
16.1599
18.7847
21.4575
23.3208
24.5811
25.4629
26.1138
26.4973
26.0263
24.1963
25.157
27.7265
30.375
32.2896
33.655
34.6642
35.4268
35.8789
35.473
33.7891
36.2171
38.5781
41.0305
42.8423
44.1668
45.1631
45.9178
46.3672
46.0172
44.4623
48.8953
50.9481
53.0919
54.6983
55.8894
56.7918
57.4742
57.8849
57.6038
56.2449
62.845
64.518
66.2739
67.606
68.6082
69.3779
69.9694
70.3464
70.1714
69.0829
77.772
79.0138
80.325
81.3345
82.1105
82.7244
83.2186
83.5735
83.5401
82.8037
93.3915
94.1713
95.003
95.658
96.1809
96.6184
97.0012
97.3245
97.4347
97.1002
109.422
109.727
110.059
110.333
110.571
110.792
111.009
111.222
111.383
111.411
-0.384089
-0.636006
-0.413953
-0.00646455
0.457868
0.921547
1.2777
1.48309
1.62329
1.76746
-0.314087
-0.81833
-0.917065
-0.710527
-0.289615
0.130836
0.416451
0.651598
0.928055
1.20022
0.667638
-0.297421
-1.12365
-1.2859
-0.956856
-0.653454
-0.445443
-0.144062
0.261818
0.646774
1.04761
-0.097468
-1.2961
-1.62777
-1.40018
-1.24493
-1.12077
-0.816111
-0.359811
0.147209
0.607723
-0.364593
-1.30493
-1.58853
-1.52383
-1.53037
-1.4907
-1.22624
-0.733995
-0.0399536
-0.0938686
-0.612891
-1.01273
-1.13763
-1.15297
-1.21323
-1.20017
-0.987189
-0.460323
0.472442
-0.420174
-0.382898
-0.205911
-0.0577039
0.0301075
0.0546829
0.0977799
0.271808
0.852265
2.08309
0.0739483
0.660342
1.3815
1.88678
2.21789
2.43343
2.58581
2.80556
3.53869
5.202
1.53025
2.63827
3.88665
4.80828
5.47876
5.97198
6.31337
6.65436
7.64304
9.93173
3.7784
5.42127
7.23926
8.61501
9.63758
10.3977
10.9203
11.3741
12.4362
14.6005
2.47896
2.61947
2.52782
2.30213
1.81417
1.38995
1.04326
0.747771
0.457978
0.157756
2.10914
2.57532
2.40073
2.19529
1.71529
1.31663
0.999206
0.721559
0.442803
0.152016
1.61798
2.53301
2.28157
2.08074
1.61818
1.2453
0.957171
0.697334
0.429201
0.147168
0.990213
2.44836
2.17354
1.95999
1.52246
1.17634
0.91771
0.675367
0.417318
0.143157
0.301311
2.27899
2.06577
1.83409
1.42796
1.11051
0.880846
0.655754
0.407181
0.139942
-0.262824
2.01085
1.9383
1.70156
1.33402
1.04842
0.846728
0.638627
0.398847
0.137524
-0.404169
1.67376
1.77396
1.55787
1.23906
0.990376
0.815779
0.624165
0.392393
0.135914
0.330293
1.35432
1.56033
1.39097
1.13774
0.9355
0.788544
0.612622
0.387922
0.135234
2.58973
1.22531
1.27474
1.17257
1.0169
0.880422
0.765183
0.604278
0.385566
0.135575
6.82683
1.60107
0.932589
0.878433
0.860989
0.82001
0.745157
0.599197
0.385396
0.137087
10.1716
2.80195
0.948725
0.674233
0.700306
0.748486
0.721621
0.592353
0.385171
0.139896
11.9722
2.80066
0.496798
0.268104
0.499592
0.684585
0.711267
0.589865
0.381926
0.137518
13.0587
2.96328
0.544695
0.264506
0.543895
0.722582
0.716485
0.576599
0.368714
0.126348
14.3508
4.50389
1.3799
0.80426
0.861505
0.860319
0.738428
0.559636
0.351841
0.112731
16.5192
7.24836
2.82322
1.70975
1.3617
1.08041
0.789426
0.547383
0.33051
0.0967256
19.4236
10.0475
4.50889
2.73612
1.94787
1.35586
0.870739
0.547584
0.312066
0.0822262
21.9411
12.1334
6.06212
3.73866
2.55537
1.66164
0.978773
0.563698
0.300522
0.0713325
23.2233
13.3233
7.27217
4.65898
3.1505
1.97575
1.10553
0.59613
0.298863
0.0658319
23.1624
13.7016
8.13447
5.5117
3.74439
2.30325
1.25453
0.649339
0.31115
0.067297
22.6089
13.9253
8.90357
6.3684
4.36221
2.6644
1.4423
0.737703
0.349944
0.0790515
111.967
98.0202
84.255
71.2497
59.3104
48.5302
38.9484
30.271
20.2582
5.15144
112.947
99.6581
86.1568
73.1505
61.1082
50.2286
40.6974
32.4417
23.7783
11.6633
113.478
100.392
87.5106
75.1836
63.6448
53.0534
43.6251
35.4391
27.6558
18.5223
114.69
102.949
90.9893
79.1567
67.7979
57.2006
47.566
38.9652
31.2584
23.9951
115.267
104.256
93.3355
82.6442
72.2966
62.3708
52.9058
43.9916
36.1691
29.9866
115.617
104.89
94.3831
84.2216
74.5014
65.2724
56.5134
48.2719
41.2291
36.2098
115.848
105.289
94.9777
85.0457
75.6033
66.7234
58.4153
50.7488
44.396
40.2777
115.948
105.427
95.1608
85.2895
75.9357
67.1902
59.0869
51.6943
45.5787
41.6207
115.898
105.212
94.7864
84.7675
75.2886
66.4563
58.3267
50.958
44.735
40.2834
115.774
104.828
94.1406
83.8632
74.138
65.0881
56.7939
49.2998
42.7917
37.5979
234.33
229.978
228.42
227.986
227.899
228.153
228.889
230.271
232.423
234.563
225.76
222.751
221.708
221.674
221.903
222.39
223.322
224.931
227.403
229.88
216.242
214.075
213.306
213.434
213.868
214.573
215.699
217.47
220.085
222.683
205.933
203.911
203.21
203.407
203.953
204.783
206.008
207.817
210.387
212.906
194.607
192.701
192.048
192.238
192.77
193.583
194.761
196.455
198.81
201.101
182.238
180.516
179.924
180.066
180.52
181.232
182.268
183.746
185.776
187.741
168.89
167.429
166.937
167.04
167.396
167.969
168.809
170.002
171.63
173.201
154.755
153.639
153.285
153.363
153.619
154.031
154.639
155.501
156.672
157.8
140.145
139.431
139.225
139.274
139.42
139.654
140.005
140.507
141.189
141.845
125.618
125.275
125.135
125.088
125.075
125.098
125.164
125.284
125.461
125.637
246.609
246.839
247.079
247.29
247.585
248.074
248.606
248.938
248.961
248.473
246.744
247.068
247.459
247.752
247.944
248.267
248.675
248.596
247.817
246.819
246.812
247.204
247.642
247.947
248.026
248.154
248.43
248.071
246.693
245.436
246.733
247.233
247.661
247.893
247.831
247.727
247.773
247.353
246.044
244.869
246.258
246.915
247.31
247.426
247.262
247
246.84
246.487
245.666
244.857
245.05
245.899
246.25
246.232
246.02
245.752
245.57
245.406
245.161
244.863
242.7
243.805
244.16
244.065
243.873
243.722
243.699
243.836
244.143
244.378
238.812
240.307
240.793
240.744
240.674
240.736
240.981
241.481
242.295
243.034
233.336
235.4
236.122
236.202
236.338
236.691
237.283
238.191
239.497
240.71
227.976
229.851
230.608
230.785
231.098
231.719
232.663
234.016
235.864
237.573
247.218
246.967
246.943
246.709
246.553
246.329
245.981
245.735
245.653
245.791
247.181
246.964
246.935
246.708
246.552
246.343
246.017
245.76
245.517
245.868
247.153
246.958
246.927
246.702
246.548
246.359
246.053
245.756
245.336
246.007
247.134
246.951
246.917
246.692
246.541
246.374
246.08
245.71
245.158
246.23
247.121
246.943
246.906
246.678
246.532
246.383
246.089
245.633
245.042
246.479
247.115
246.935
246.895
246.661
246.521
246.382
246.078
245.55
245.013
246.58
247.116
246.926
246.883
246.643
246.508
246.371
246.052
245.489
245.042
246.231
247.123
246.916
246.869
246.623
246.492
246.351
246.03
245.467
245.042
244.98
247.137
246.905
246.855
246.602
246.475
246.338
246.046
245.512
244.845
242.195
247.156
246.892
246.836
246.58
246.46
246.35
246.131
245.611
244.15
237.474
247.193
246.879
246.809
246.549
246.418
246.29
246.012
245.225
242.57
233.884
247.304
246.871
246.79
246.525
246.39
246.364
246.253
245.449
242.302
231.926
247.551
246.887
246.78
246.477
246.323
246.362
246.332
245.441
242.066
230.69
248.03
246.959
246.779
246.421
246.182
246.1
245.914
244.798
240.723
229.518
248.906
247.06
246.811
246.321
245.963
245.57
244.99
243.465
238.247
227.673
250.71
247.141
246.899
246.229
245.682
244.888
243.834
241.737
235.557
225.097
254.576
247.415
247.024
246.15
245.347
244.171
242.692
240.073
233.446
222.739
262.874
248.534
247.264
246.082
244.993
243.488
241.672
238.759
232.187
221.471
280.439
251.258
247.88
246.093
244.655
242.85
240.764
237.822
231.74
221.5
306.415
255.304
249.361
246.281
244.377
242.243
239.89
237.011
231.47
222.028
236.604
221.247
210.623
201.309
191.149
179.846
167.452
154.08
140.035
125.904
230.195
217.894
208.745
200.03
190.097
178.863
166.519
153.269
139.546
126.071
223.666
214.3
206.127
197.605
187.894
177.055
165.302
152.801
139.782
126.603
218.581
211.074
203.082
194.232
184.386
173.617
162.12
150.173
138.107
126.272
213.193
206.793
198.792
189.69
180.016
169.876
159.324
148.457
137.402
126.31
207.563
202.263
195.001
186.531
177.534
168.08
158.162
147.841
137.222
126.435
203.75
199.313
192.727
184.833
176.303
167.22
157.601
147.527
137.118
126.508
202.465
198.212
191.871
184.262
175.952
167.018
157.5
147.498
137.141
126.572
203.792
199.082
192.636
185.055
176.725
167.712
158.077
147.932
137.418
126.687
206.466
201.035
194.303
186.595
178.103
168.874
158.993
148.591
137.815
126.823
112.34
112.51
112.594
112.445
111.939
111.578
111.393
111.678
111.67
111.421
89.7725
90.2355
90.4539
90.0203
88.5887
87.5025
86.8817
87.5432
87.5809
86.9947
68.9364
69.5636
69.8245
69.1577
67.2188
65.5074
64.4875
65.0361
65.3405
64.7857
50.825
51.4309
51.62
50.7968
48.8181
46.6526
45.323
45.3584
46.0968
45.8637
36.1856
36.5933
36.643
35.7614
33.9699
31.6546
30.0114
29.4462
30.2537
30.4417
25.1384
25.2411
25.1184
24.1949
22.6174
20.5888
18.7987
17.8574
18.112
18.6122
17.2562
17.1051
16.8895
15.8982
14.4837
12.981
11.4948
10.4302
10.0899
10.4558
11.7726
11.5947
11.5452
10.5454
9.22668
8.2257
7.33586
6.49395
5.9048
5.81978
8.10035
8.01101
8.30521
7.43708
6.2719
5.68283
5.35611
4.97303
4.48873
4.10735
6.22999
6.02462
6.40796
5.67028
4.80257
4.5287
4.55497
4.54698
4.39442
3.99708
5.4597
5.22256
5.30335
4.61012
4.08041
4.02709
4.17935
4.32317
4.44408
4.49963
5.0313
4.92083
4.64132
3.97631
3.69341
3.78355
3.9888
4.15694
4.27622
4.36163
4.65468
4.60767
4.17247
3.62261
3.50485
3.66972
3.89543
4.07412
4.19157
4.25131
4.20323
4.14536
3.73658
3.38617
3.39679
3.60004
3.81228
3.96897
4.06707
4.10804
3.65898
3.56289
3.29015
3.17167
3.28774
3.50226
3.69055
3.82711
3.90792
3.93156
3.0153
2.91988
2.86093
2.95078
3.1456
3.34776
3.51198
3.63044
3.69703
3.71067
2.3046
2.31979
2.45126
2.68165
2.91491
3.11246
3.26734
3.38091
3.44752
3.46367
1.64456
1.75926
2.00299
2.28975
2.54295
2.75641
2.93214
3.07133
3.15988
3.18893
0.980728
1.11252
1.37828
1.69831
2.00226
2.27056
2.50679
2.69215
2.79785
2.83583
0.314915
0.229686
0.455662
0.855984
1.26679
1.64303
1.96506
2.17915
2.28068
2.34223
3.84606
3.89355
3.76756
3.43535
2.78021
2.08544
1.49054
0.993931
0.55895
0.183407
3.91717
3.863
3.71676
3.4191
2.73851
2.02607
1.44074
0.963623
0.546095
0.184272
3.94162
3.7561
3.60418
3.36506
2.6924
1.96895
1.3932
0.935618
0.535026
0.184609
3.90202
3.58416
3.45215
3.26319
2.63346
1.91259
1.34775
0.909667
0.525405
0.183892
3.79746
3.38444
3.28858
3.11215
2.55062
1.85321
1.30366
0.885285
0.516733
0.182137
3.64163
3.197
3.137
2.93491
2.43897
1.78806
1.26087
0.862454
0.508795
0.179533
3.45765
3.0386
3.00395
2.76444
2.30373
1.71517
1.21895
0.841045
0.501365
0.176285
3.25725
2.90518
2.88524
2.62115
2.16187
1.63432
1.17721
0.82114
0.494593
0.172979
3.03382
2.78846
2.77133
2.50472
2.03134
1.54916
1.13356
0.799979
0.486521
0.169329
2.77721
2.69018
2.65319
2.40277
1.91739
1.46671
1.08812
0.774497
0.473376
0.163858
5.60791
4.16332
3.46881
3.08988
2.60869
2.07352
1.53816
1.03596
0.578383
0.182459
4.80455
3.9439
3.50546
3.15032
2.64865
2.0849
1.53459
1.02935
0.573798
0.180877
4.13474
3.85321
3.56653
3.21878
2.68677
2.09408
1.53077
1.02404
0.57083
0.18051
3.81488
3.85472
3.65207
3.29799
2.72634
2.10183
1.52624
1.01933
0.569045
0.181089
3.79994
3.89844
3.75463
3.38959
2.77026
2.10844
1.51965
1.0138
0.56763
0.182632
112.171
89.1108
68.0665
50.301
36.2916
25.9758
18.8091
13.9357
10.7545
8.94023
111.95
88.5486
67.3604
49.5667
35.4893
24.9714
17.5053
12.4025
9.26075
7.76046
111.764
88.0684
66.7222
48.8261
34.5781
23.7987
16.0851
10.868
7.72458
6.2663
111.554
87.4948
65.8819
47.7614
33.2535
22.2047
14.3136
9.08338
5.99889
4.62326
111.299
86.7668
64.7528
46.2885
31.4537
20.1372
12.1447
7.1109
4.62992
3.81522
243.872
243.908
244.026
244.198
244.412
244.424
243.924
243.225
243.324
243.098
244.087
244.158
244.27
244.458
244.729
244.906
244.691
244.044
243.781
243.67
244.286
244.333
244.445
244.64
244.923
245.184
245.159
244.654
244.22
244.165
244.527
244.559
244.655
244.827
245.08
245.363
245.467
245.199
244.811
244.738
244.792
244.809
244.889
245.035
245.244
245.501
245.7
245.703
245.538
245.444
245.066
245.078
245.145
245.265
245.435
245.66
245.924
246.16
246.261
246.247
245.318
245.337
245.417
245.55
245.726
245.955
246.249
246.597
246.886
247.003
245.583
245.603
245.701
245.889
246.139
246.434
246.787
247.184
247.53
247.701
245.944
245.976
246.059
246.282
246.643
247.08
247.568
248.066
248.389
248.352
246.338
246.444
246.545
246.739
247.134
247.685
248.264
248.795
249.131
248.927
136.646
136.387
136.364
136.627
136.409
136.011
135.47
135.298
135.369
135.534
161.089
160.493
160.514
161.152
160.499
159.377
157.913
157.457
157.662
158.12
183.327
182.761
183.048
183.571
182.521
180.775
178.807
178.119
178.367
178.989
202.287
202.041
202.76
202.77
201.412
199.216
197.209
196.365
196.542
197.143
217.753
217.928
218.712
218.124
216.456
214.112
212.292
211.389
211.427
211.831
229.629
230.11
230.339
229.38
227.572
225.517
223.908
222.961
222.827
222.927
237.825
238.16
237.796
236.721
235.231
233.704
232.254
231.237
231.01
230.857
242.477
242.354
241.742
240.909
240.032
239.017
237.665
236.639
236.577
236.397
244.197
243.775
243.28
242.923
242.628
242.045
240.859
239.964
240.245
240.157
244.335
243.907
243.753
243.774
243.848
243.609
242.74
241.98
242.36
242.169
255.04
247.102
247.736
246.521
246.244
245.728
245.148
244.76
244.623
244.653
252.211
247.041
247.552
246.513
246.295
245.787
245.167
244.798
244.705
244.627
250.297
247.05
247.336
246.52
246.348
245.849
245.213
244.898
244.874
244.66
249.135
247.075
247.132
246.547
246.401
245.916
245.297
245.055
245.095
244.764
248.455
247.07
247.008
246.589
246.451
245.992
245.428
245.239
245.321
244.925
248.004
247.021
246.974
246.632
246.493
246.078
245.588
245.407
245.505
245.114
247.693
246.979
246.965
246.664
246.521
246.168
245.74
245.532
245.635
245.299
247.488
246.964
246.959
246.684
246.53
246.246
245.85
245.611
245.712
245.468
247.357
246.964
246.954
246.697
246.539
246.295
245.912
245.661
245.744
245.614
247.273
246.967
246.949
246.705
246.548
246.316
245.949
245.699
245.727
245.721
317.545
253.979
250.128
247.154
246.36
245.793
245.416
245.066
244.361
242.834
295.814
251.591
249.013
246.931
246.276
245.76
245.369
245.033
244.571
243.635
277.372
249.435
248.422
246.767
246.234
245.737
245.316
244.973
244.651
244.307
265.967
248.091
248.101
246.648
246.213
245.72
245.255
244.888
244.64
244.635
259.195
247.362
247.88
246.551
246.208
245.706
245.183
244.783
244.593
244.667
239.409
237.558
234.343
229.438
222.239
211.889
197.844
180.045
158.976
135.902
240.59
239.054
235.88
230.746
223.248
212.695
198.581
180.753
159.539
136.123
242.103
240.605
237.424
232.174
224.426
213.611
199.324
181.393
160.02
136.309
243.767
242.361
239.232
233.96
226.028
214.94
200.391
182.234
160.594
136.519
244.553
243.717
241.216
236.147
228.107
216.744
201.866
183.364
161.321
136.772
)
;

boundaryField
{
    left
    {
        type            zeroGradient;
    }
    right
    {
        type            fixedValue;
        value           uniform 0;
    }
    down
    {
        type            zeroGradient;
    }
    up
    {
        type            zeroGradient;
    }
    cylinder
    {
        type            zeroGradient;
    }
    defaultFaces
    {
        type            empty;
    }
}


// ************************************************************************* //
