/*--------------------------------*- C++ -*----------------------------------*\
  =========                 |
  \\      /  F ield         | OpenFOAM: The Open Source CFD Toolbox
   \\    /   O peration     | Website:  https://openfoam.org
    \\  /    A nd           | Version:  13
     \\/     M anipulation  |
\*---------------------------------------------------------------------------*/
FoamFile
{
    format      ascii;
    class       surfaceScalarField;
    location    "0.5825";
    object      phi;
}
// * * * * * * * * * * * * * * * * * * * * * * * * * * * * * * * * * * * * * //

dimensions      [0 3 -1 0 0 0 0];

internalField   nonuniform List<scalar> 
3485
(
0.00214806
-0.00477334
0.00262528
0.00867735
-0.0539765
0.0474472
0.0180343
-0.105215
0.0958577
0.028368
-0.135684
0.12535
0.0386605
-0.147634
0.137341
0.0485718
-0.149486
0.139575
0.0580484
-0.147168
0.137691
0.0670889
-0.143511
0.134471
0.0756599
-0.139481
0.13091
-0.135226
0.126893
0.0839936
0.00262409
-0.00739743
0.00961828
-0.0609707
0.0190158
-0.114612
0.0290229
-0.145691
0.0388409
-0.157452
0.0483338
-0.158979
0.0576035
-0.156438
0.0667878
-0.152696
0.076088
-0.148781
-0.144988
0.0858495
0.00304336
-0.0104408
0.0103621
-0.0682894
0.0195587
-0.123809
0.0288912
-0.155023
0.037742
-0.166303
0.0460967
-0.167334
0.0540928
-0.164434
0.0618445
-0.160447
0.0694235
-0.15636
-0.152347
0.0767829
0.00347836
-0.0139192
0.011082
-0.075893
0.020034
-0.132761
0.0287083
-0.163698
0.0367191
-0.174313
0.0442181
-0.174833
0.0514263
-0.171642
0.0584866
-0.167508
0.0654766
-0.16335
-0.159408
0.072538
0.00382495
-0.0177441
0.0115237
-0.0835918
0.0199928
-0.14123
0.0277537
-0.171458
0.0346506
-0.18121
0.0409762
-0.181159
0.0470081
-0.177674
0.0529041
-0.173404
0.0587502
-0.169197
-0.165245
0.0645869
0.00411301
-0.0218571
0.0117545
-0.0912333
0.0195914
-0.149067
0.0263472
-0.178214
0.0321036
-0.186967
0.0372809
-0.186336
0.0421993
-0.182592
0.0470189
-0.178223
0.0518081
-0.173986
-0.170055
0.0566183
0.00428611
-0.0261432
0.0116544
-0.0986015
0.0186499
-0.156062
0.0242426
-0.183807
0.0287415
-0.191465
0.0326712
-0.190266
0.0363794
-0.1863
0.0400257
-0.181869
0.0436737
-0.177634
-0.173733
0.0473513
0.00433782
-0.030481
0.0112214
-0.105485
0.0171962
-0.162037
0.0215244
-0.188135
0.0247146
-0.194656
0.0273657
-0.192917
0.0298325
-0.188767
0.0322622
-0.184299
0.034708
-0.18008
-0.176212
0.0371873
0.00424303
-0.0347241
0.0104223
-0.111664
0.0152118
-0.166827
0.0181987
-0.191122
0.0200429
-0.1965
0.0213945
-0.194268
0.0226005
-0.189973
0.0237934
-0.185492
0.0250182
-0.181304
-0.177476
0.0262817
0.00400273
-0.0387268
0.00927975
-0.116941
0.0127684
-0.170315
0.0143655
-0.192719
0.0148497
-0.196984
0.0149019
-0.194321
0.0148474
-0.189919
0.014802
-0.185447
0.0147986
-0.181301
0.0148378
-0.177515
-0.000741061
0.000337483
0.000403578
0.00223857
-0.00766316
0.00468353
0.0102346
-0.0172134
0.0092173
0.0216776
-0.023509
0.012066
0.0347465
-0.0263749
0.013306
0.0482959
-0.0271462
0.0135968
0.0617756
-0.0269319
0.0134522
0.0749705
-0.0263428
0.0131479
0.0878234
-0.0256584
0.0128055
-0.0251741
0.100507
0.0124901
-0.000653672
0.000991155
0.00245045
-0.0107673
0.010516
-0.0252789
0.0219544
-0.0349473
0.0349626
-0.0393831
0.0484188
-0.0406023
0.0617899
-0.040303
0.0748713
-0.0394242
0.087613
-0.0384001
-0.0377504
0.100189
-0.000526335
0.00151749
0.00275545
-0.0140491
0.0109242
-0.0334476
0.0223619
-0.0463851
0.0352906
-0.0523118
0.048621
-0.0539327
0.0618438
-0.0535258
0.0747683
-0.0523488
0.0873544
-0.0509861
-0.050173
0.0997769
-0.000349096
0.00186659
0.00317558
-0.0175738
0.0114873
-0.0417593
0.0229292
-0.057827
0.0357574
-0.0651401
0.0489274
-0.0671027
0.0619621
-0.0665605
0.0746888
-0.0650754
0.0870789
-0.0633762
-0.0623989
0.0993048
-0.000129273
0.00199586
0.00372183
-0.0214249
0.0122242
-0.0502618
0.0236756
-0.0692783
0.036382
-0.0778464
0.0493585
-0.0800792
0.0621702
-0.0793722
0.0746671
-0.0775723
0.0868327
-0.0755418
-0.0743925
0.0988262
0.000148794
0.00184706
0.0044074
-0.0256835
0.0131402
-0.0589946
0.0245974
-0.0807355
0.0371537
-0.0904027
0.0499025
-0.092828
0.0624626
-0.0919322
0.0747123
-0.089822
0.0866448
-0.0874743
-0.0861223
0.0983746
0.000508623
0.00133844
0.00523309
-0.0304079
0.0142121
-0.0679736
0.0256482
-0.0921717
0.0380048
-0.102759
0.0504747
-0.105298
0.062746
-0.104203
0.0747342
-0.10181
0.0864367
-0.0991768
-0.0975345
0.0978489
0.000916618
0.000421823
0.00614951
-0.0356408
0.0153562
-0.0771803
0.0267037
-0.103519
0.0387667
-0.114822
0.0508562
-0.117387
0.0627423
-0.11609
0.0743856
-0.113454
0.0857795
-0.110571
-0.108445
0.0966897
0.00133115
-0.000909328
0.00703713
-0.0413468
0.0163762
-0.0865194
0.0274935
-0.114636
0.0390906
-0.126419
0.0506019
-0.128899
0.0618716
-0.127359
0.0728915
-0.124473
0.0836287
-0.121308
-0.11839
0.0935735
0.00171595
0.00781635
0.0171547
0.0278682
0.0387901
0.0494664
0.0597985
0.0697958
0.0793981
0.0879012
0.154406
-0.154229
0.100331
0.181146
-0.109403
0.0826632
0.19457
-0.0817699
0.0683458
0.2012
-0.061868
0.0552383
0.204208
-0.0466697
0.0436617
0.205156
-0.0346948
0.0337469
0.204897
-0.0251257
0.0253838
0.203898
-0.0172953
0.0182947
0.202443
-0.0112314
0.0126865
-0.00342139
0.0053259
0.153242
-0.207282
0.18014
-0.136302
0.193856
-0.0954857
0.20074
-0.0687518
0.203948
-0.0498775
0.205056
-0.0358028
0.204932
-0.0250019
0.204055
-0.016418
0.202716
-0.00989267
-0.00163856
0.151286
-0.258791
0.178244
-0.16326
0.192304
-0.109545
0.199537
-0.0759851
0.203057
-0.0533965
0.204446
-0.0371927
0.204585
-0.02514
0.203959
-0.0157925
0.202869
-0.00880285
-0.000113891
0.148522
-0.308008
0.175447
-0.190185
0.189912
-0.124011
0.197594
-0.0836672
0.201538
-0.0573399
0.203331
-0.0389863
0.203857
-0.025666
0.203614
-0.0155493
0.202905
-0.00809402
0.0010193
0.14495
-0.354131
0.171738
-0.216973
0.186682
-0.138955
0.194916
-0.0919015
0.199398
-0.0618221
0.201715
-0.0413032
0.202753
-0.0267041
0.203018
-0.0158143
0.202819
-0.00789507
0.0016269
0.140549
-0.396306
0.167094
-0.243518
0.182616
-0.154477
0.191513
-0.100799
0.19665
-0.0669587
0.199608
-0.0442616
0.201279
-0.0283748
0.202176
-0.0167113
0.202614
-0.00833326
0.00157846
0.135243
-0.4337
0.161449
-0.269724
0.177694
-0.170722
0.187389
-0.110493
0.193303
-0.0728728
0.197022
-0.0479805
0.199444
-0.0307968
0.201092
-0.0183593
0.202288
-0.00952995
0.000747347
0.128962
-0.465973
0.154664
-0.295426
0.171835
-0.187893
0.182526
-0.121184
0.189361
-0.0797082
0.193962
-0.0525815
0.197255
-0.034089
0.199772
-0.0208765
0.201845
-0.011603
-0.000989374
0.121823
-0.494223
0.14662
-0.320223
0.164834
-0.206107
0.176806
-0.133156
0.184782
-0.0876839
0.190423
-0.058223
0.194714
-0.0383793
0.198218
-0.0243808
0.201285
-0.0146696
-0.0037506
0.114821
-0.521142
0.138616
-0.344018
0.157072
-0.224562
0.170254
-0.146338
0.179527
-0.0969572
0.186382
-0.0650781
0.191818
-0.0438157
0.196433
-0.0289955
0.200608
-0.0188446
-0.007652
0.378497
-0.460642
-0.438998
0.346753
-0.312274
0.330685
-0.208494
0.322994
-0.138647
0.318981
-0.0929444
0.316585
-0.062682
0.314996
-0.0422268
0.313913
-0.0279123
0.31318
-0.0181118
-0.00734341
0.390767
-0.390446
-0.460963
0.355897
-0.277404
0.338302
-0.190899
0.328839
-0.129184
0.323159
-0.0872642
0.319503
-0.0590265
0.317054
-0.0397777
0.315414
-0.0262718
0.314334
-0.0170323
-0.00689909
0.406731
-0.325403
-0.471773
0.369186
-0.239859
0.347616
-0.169329
0.335095
-0.116663
0.327367
-0.0795369
0.322367
-0.0540265
0.319048
-0.036458
0.316855
-0.0240791
0.315431
-0.0156086
-0.00632099
0.416912
-0.265164
-0.477151
0.378814
-0.201762
0.355157
-0.145672
0.340495
-0.102001
0.331121
-0.0701635
0.324965
-0.0478701
0.32087
-0.0323631
0.318176
-0.0213846
0.316433
-0.0138659
-0.00561651
0.424064
-0.209832
-0.479397
0.386346
-0.164044
0.361384
-0.120709
0.3451
-0.0857172
0.334387
-0.0594506
0.327252
-0.0407344
0.322485
-0.027596
0.319347
-0.0182472
0.31732
-0.0118385
-0.00479778
0.428976
-0.15897
-0.479839
0.392037
-0.127104
0.366327
-0.0949994
0.348874
-0.068264
0.337112
-0.0476893
0.329183
-0.0328048
0.323855
-0.0222686
0.320345
-0.0147368
0.318075
-0.00956867
-0.00388033
0.432216
-0.11178
-0.479405
0.396154
-0.0910424
0.370063
-0.0689087
0.351807
-0.0500075
0.339265
-0.0351478
0.330721
-0.0242604
0.32495
-0.0164981
0.321143
-0.0109291
0.318675
-0.00710097
-0.00288006
0.4338
-0.0669135
-0.478667
0.398506
-0.0557482
0.372321
-0.0427239
0.353612
-0.0312986
0.340574
-0.0221092
0.331618
-0.0153051
0.325547
-0.0104267
0.321532
-0.0069146
0.318923
-0.00449162
-0.00181929
0.42692
-0.0207609
-0.473073
0.39235
-0.0211779
0.366905
-0.0172785
0.348582
-0.0129761
0.335711
-0.00923848
0.326827
-0.00642031
0.320786
-0.00438619
0.316791
-0.00291974
0.314192
-0.00189254
-0.000761791
0.313482
-0.334243
0.292304
0.275026
0.26205
0.252811
0.246391
0.242005
0.239085
0.237192
0.471387
0.0130553
-0.469605
0.472406
0.025263
0.472534
0.0370595
0.471679
0.0482058
0.469434
0.0588637
0.466734
0.0672868
0.460518
0.0787543
0.457069
0.0802318
0.445279
0.0976394
0.0902748
0.452589
0.0113161
-0.45085
0.454393
0.0234592
0.456173
0.0352801
0.45799
0.0463886
0.459317
0.0575367
0.461073
0.0655306
0.46125
0.0785776
0.462384
0.0790978
0.463202
0.0968211
0.0925134
0.436313
0.00955458
-0.434551
0.438708
0.0210642
0.441646
0.0323418
0.445145
0.0428894
0.448997
0.0536852
0.453225
0.0613028
0.458
0.0738021
0.461955
0.0751431
0.468097
0.0906792
0.0888374
0.423862
0.00780107
-0.422109
0.426601
0.0183255
0.430272
0.0286706
0.434818
0.038343
0.440298
0.0482052
0.446187
0.0554143
0.453661
0.0663278
0.460168
0.0686364
0.469469
0.0813783
0.0811555
0.414121
0.00605432
-0.412374
0.417106
0.0153403
0.421302
0.0244748
0.426602
0.0330428
0.433156
0.0416516
0.440325
0.0482449
0.449381
0.0572716
0.457904
0.0601134
0.469114
0.0701689
0.0708725
0.406762
0.00429141
-0.404999
0.409935
0.0121672
0.414494
0.0199161
0.420323
0.0272132
0.427558
0.0344172
0.435645
0.0401578
0.445589
0.0473275
0.45549
0.0502123
0.467811
0.0578474
0.0588453
0.401399
0.00248784
-0.399595
0.404736
0.00883052
0.409573
0.0150792
0.415797
0.0209886
0.423479
0.0267351
0.432198
0.0314393
0.442639
0.0368865
0.453442
0.039409
0.46634
0.0449496
0.0457799
0.396708
0.000448371
-0.394668
0.400333
0.00520481
0.405561
0.00985195
0.41227
0.0142797
0.420441
0.0185634
0.429749
0.0221316
0.440561
0.0260746
0.451983
0.0279864
0.465166
0.031767
0.0322791
0.37806
-0.00148727
-0.376125
0.382196
0.00106915
0.388372
0.00367593
0.396421
0.00623047
0.406224
0.00876012
0.417384
0.010972
0.430058
0.013401
0.44335
0.014694
0.458079
0.0170384
0.0172848
0.241117
-0.242604
0.242186
0.245862
0.252093
0.260853
0.271825
0.285226
0.29992
0.316958
0.078543
0.127755
-0.115438
-0.0908607
0.0672523
0.12965
-0.118359
0.056896
0.132431
-0.122074
0.0469789
0.136117
-0.1262
0.0371267
0.140229
-0.130376
0.027203
0.144142
-0.134218
0.0174129
0.145642
-0.135852
0.00857661
0.137836
-0.129
0.00226915
0.108228
-0.101921
0.0477667
-0.0454975
0.0802149
0.138961
-0.0914205
0.0687247
0.14114
0.0576092
0.143546
0.0469808
0.146746
0.0366645
0.150545
0.0265372
0.154269
0.0167708
0.155409
0.00813317
0.146474
0.00208942
0.114272
0.0498561
0.0730136
0.148346
-0.0823984
0.0631284
0.151025
0.0531141
0.153561
0.0431987
0.156661
0.0334169
0.160327
0.0237947
0.163892
0.0146088
0.164595
0.00669972
0.154383
0.0014685
0.119503
0.0513246
0.0609768
0.155778
-0.0684086
0.0531426
0.158859
0.0449235
0.16178
0.0364578
0.165127
0.0278625
0.168922
0.0192931
0.172461
0.011172
0.172716
0.00447914
0.161076
0.000562237
0.12342
0.0518868
0.0484687
0.161722
-0.0544128
0.0422441
0.165084
0.0356071
0.168417
0.0286071
0.172127
0.0213564
0.176173
0.0140648
0.179753
0.00724772
0.179533
0.001981
0.166343
-0.000389529
0.125791
0.0514973
0.0371227
0.166661
-0.0420619
0.0319984
0.170208
0.0265494
0.173866
0.0207855
0.177891
0.0147958
0.182163
0.00880342
0.185745
0.00338352
0.184953
-0.000493167
0.170219
-0.00126592
0.126563
0.0502314
0.0266428
0.17079
-0.0307719
0.0224037
0.174447
0.0179469
0.178323
0.0132716
0.182566
0.00845065
0.186983
0.00371399
0.190482
-0.000409944
0.189077
-0.00251324
0.172323
-0.00202693
0.126077
0.0482045
0.0163976
0.174043
-0.0196506
0.0130739
0.177771
0.00960803
0.181788
0.00600779
0.186166
0.0023453
0.190646
-0.00113413
0.193961
-0.00367964
0.191622
-0.00446071
0.173104
-0.00263686
0.124253
0.0455676
0.00608444
0.176328
-0.00836879
0.00376632
0.180089
0.00137221
0.184183
-0.00108691
0.188625
-0.00353796
0.193097
-0.00569506
0.196118
-0.00695779
0.192885
-0.00627892
0.172425
-0.00319548
0.12117
0.0423721
-0.00428982
0.00310241
-0.00550169
-0.00676583
-0.00805931
-0.00928296
-0.0101489
-0.00998319
-0.00787373
-0.00364531
0.103532
0.0239318
-0.114836
-0.0126278
0.0919048
0.0245549
-0.0129276
0.0799172
0.0252283
-0.0132407
0.0675477
0.0259453
-0.0135758
0.0547871
0.0266988
-0.0139383
0.0416453
0.0274572
-0.0143153
0.0282734
0.0279631
-0.0145912
0.0153906
0.0271504
-0.0142677
0.00492529
0.0225518
-0.0120864
0.0110886
-0.00616334
0.102763
0.0352201
-0.114052
0.091167
0.0361513
0.079225
0.0371703
0.0669156
0.0382547
0.0542291
0.0393853
0.0411758
0.0405105
0.0279103
0.0412287
0.0151557
0.039905
0.00482996
0.0328775
0.0159186
0.101651
0.0464774
-0.112909
0.0901077
0.047695
0.0782378
0.0490402
0.0660193
0.0504732
0.0534414
0.0519631
0.0405148
0.0534371
0.0273996
0.0543439
0.0148259
0.0524787
0.00469557
0.0430078
0.0206142
0.100083
0.0576765
-0.111282
0.088626
0.059152
0.0768667
0.0607995
0.0647814
0.0625584
0.052358
0.0643865
0.0396079
0.0661872
0.0266989
0.0672529
0.0143732
0.0648044
0.00451047
0.0528706
0.0251246
0.0978982
0.0687746
-0.108996
0.086585
0.0704652
0.0750036
0.0723809
0.0631235
0.0744385
0.0509262
0.0765839
0.0384219
0.0786915
0.0257882
0.0798866
0.0137833
0.0768094
0.00426896
0.0623849
0.0293936
0.0949175
0.0796907
-0.105834
0.0838223
0.0815604
0.0724864
0.0837168
0.0608813
0.0860436
0.0489892
0.088476
0.0368218
0.0908589
0.0245662
0.0921422
0.012995
0.0883805
0.00394519
0.0714347
0.0333388
0.0911511
0.0902287
-0.101689
0.0805082
0.0922033
0.069635
0.09459
0.0584641
0.0972145
0.0469707
0.0999693
0.0351827
0.102647
0.0233224
0.104003
0.0122026
0.0995002
0.00363632
0.0800011
0.0369751
0.0848018
0.100276
-0.0948494
0.0747104
0.102295
0.0644888
0.104812
0.0540656
0.107638
0.0433658
0.110669
0.0323722
0.113641
0.0212956
0.115079
0.0109582
0.109838
0.00313962
0.0878196
0.0401147
0.0822856
0.108907
-0.0909164
0.0731835
0.111397
0.0633938
0.114601
0.0530733
0.117958
0.0423731
0.121369
0.0314141
0.1246
0.0204804
0.126013
0.0104198
0.119898
0.00294669
0.0952927
0.0430614
0.0693086
-0.0758393
0.0623463
0.0548732
0.0466313
0.0376243
0.0280054
0.0181659
0.00906423
0.00243612
0.202123
0.0125091
-0.0166425
0.204699
0.0283582
-0.0309336
0.205194
0.0347038
-0.0351994
0.206151
0.0364213
-0.0373785
0.205256
0.042944
-0.0420486
0.202756
0.0515724
-0.0490728
0.19666
0.0643461
-0.0582495
0.185958
0.0811574
-0.0704558
0.160217
0.109289
-0.0835471
0.145787
-0.100407
0.201851
0.00864767
0.204284
0.0259256
0.20473
0.0342577
0.205627
0.0355245
0.204653
0.0439176
0.202018
0.0542077
0.19578
0.0705839
0.184756
0.0921814
0.159068
0.134977
0.190803
0.201455
0.00518258
0.203603
0.0237775
0.203904
0.0339571
0.204597
0.034831
0.20342
0.045095
0.200524
0.0571028
0.194062
0.0770461
0.182593
0.103651
0.157136
0.160434
0.235031
0.200926
0.002246
0.202656
0.0220482
0.202724
0.0338888
0.203072
0.0344833
0.201568
0.0465984
0.198292
0.0603793
0.191511
0.0838271
0.179449
0.115713
0.154468
0.185415
0.278216
0.200262
-2.6541e-05
0.201449
0.0208616
0.201204
0.0341341
0.201064
0.0346235
0.199117
0.0485453
0.195339
0.0641565
0.188138
0.0910282
0.175295
0.128556
0.151134
0.209576
0.320354
0.199458
-0.00149429
0.19999
0.0203295
0.199357
0.0347663
0.198585
0.0353954
0.196084
0.0510467
0.191688
0.068553
0.183955
0.098761
0.17014
0.142371
0.147161
0.232555
0.361682
0.198503
-0.00200724
0.198284
0.0205479
0.197204
0.035847
0.195655
0.0369443
0.192494
0.0542073
0.187356
0.0736918
0.178952
0.107165
0.164111
0.157211
0.14261
0.254056
0.402602
0.197397
-0.0014145
0.196349
0.0215956
0.194762
0.037434
0.19229
0.0394163
0.188375
0.0581227
0.182364
0.0797031
0.17309
0.116438
0.157125
0.173176
0.136653
0.274529
0.444406
0.196151
0.000424717
0.194215
0.0235315
0.192051
0.0395979
0.188506
0.0429615
0.183754
0.0628746
0.176781
0.0866754
0.166639
0.12658
0.150513
0.189303
0.131839
0.293202
0.485328
0.194881
0.00353312
0.191949
0.0264643
0.189091
0.0424553
0.184267
0.0477858
0.178486
0.068656
0.170048
0.0951127
0.158004
0.138625
0.140265
0.207042
0.121077
0.312391
0.530566
0.303397
0.00214584
0.30683
0.023032
0.310615
0.0386701
0.313201
0.0451999
0.316182
0.0656747
0.319627
0.0916682
0.325183
0.133068
0.336303
0.195921
0.361608
0.287087
0.467256
0.424918
0.304266
-0.000109998
0.307973
0.0193248
0.312346
0.0342978
0.31573
0.0418158
0.32014
0.0612646
0.325765
0.0860426
0.334734
0.1241
0.350563
0.180092
0.380236
0.257414
0.403375
0.444117
0.305126
-0.00322575
0.309321
0.0151293
0.314088
0.0295313
0.318261
0.0376423
0.323875
0.0556515
0.331353
0.0785645
0.342993
0.112459
0.361668
0.161418
0.395209
0.223873
0.34048
0.458103
0.306033
-0.00724867
0.310735
0.0104277
0.315791
0.0244752
0.320655
0.0327777
0.327289
0.0490174
0.336318
0.069536
0.350004
0.0987732
0.370839
0.140582
0.405796
0.188916
0.280375
0.465901
0.307031
-0.0122692
0.312227
0.00523175
0.317433
0.019269
0.322849
0.027362
0.330314
0.041552
0.340599
0.0592511
0.3558
0.083572
0.378259
0.118124
0.413012
0.154162
0.223849
0.469539
0.308181
-0.0184399
0.313843
-0.000430621
0.31899
0.0141222
0.324789
0.0215626
0.332905
0.0334361
0.344163
0.0479939
0.360447
0.0672872
0.384034
0.0945375
0.417833
0.120363
0.170967
0.470715
0.30955
-0.02598
0.315622
-0.006502
0.320442
0.00930153
0.326433
0.0155719
0.335022
0.0248476
0.346987
0.036028
0.364021
0.0502536
0.388312
0.0702468
0.420975
0.0877005
0.121358
0.470583
0.311276
-0.0352458
0.317578
-0.0128036
0.321646
0.00523309
0.327588
0.00963026
0.336489
0.0159459
0.348944
0.0235731
0.36649
0.0327077
0.391156
0.0455805
0.422884
0.0559727
0.0745695
0.469673
0.309631
-0.0428669
0.314729
-0.0179012
0.317915
0.00204651
0.323851
0.00369424
0.332918
0.00687905
0.345693
0.0107989
0.3636
0.0148
0.388387
0.0207935
0.419754
0.0246063
0.0323994
0.461924
0.259143
0.241242
0.243289
0.246983
0.253862
0.264661
0.279461
0.300254
0.324861
0.35726
0.439283
-0.105226
0.444815
-0.096953
0.447326
-0.0849088
0.449574
-0.0706568
0.452544
-0.0573827
0.456191
-0.0457089
0.46009
-0.0346715
0.463792
-0.0233523
0.466956
-0.0115326
0.00045364
0.44486
-0.105969
0.443592
-0.0956847
0.44227
-0.0835868
0.442372
-0.0707589
0.443535
-0.0585454
0.445017
-0.047191
0.446472
-0.0361262
0.44791
-0.0247909
0.449408
-0.0130306
-0.000988338
0.451784
-0.0996499
0.446318
-0.0902194
0.441622
-0.0788906
0.438153
-0.0672902
0.435787
-0.0561791
0.434207
-0.0456104
0.433296
-0.0352154
0.43306
-0.0245555
0.433493
-0.0134637
-0.00204637
0.45543
-0.0891788
0.446382
-0.0811713
0.438753
-0.0712614
0.432758
-0.0612953
0.428305
-0.0517267
0.425079
-0.0423838
0.422866
-0.0330027
0.421619
-0.0233087
0.42136
-0.013204
-0.00279523
0.456762
-0.0764021
0.445573
-0.0699828
0.436166
-0.0618536
0.428542
-0.0536714
0.422558
-0.0457432
0.417997
-0.0378221
0.414712
-0.0297179
0.412674
-0.0212707
0.411897
-0.012427
-0.00327258
0.4567
-0.0623869
0.444217
-0.0575004
0.433612
-0.0512482
0.424861
-0.0449208
0.417828
-0.0387099
0.412366
-0.0323603
0.40837
-0.0257218
0.405807
-0.0187071
0.40468
-0.0113006
-0.0035913
0.455838
-0.0476417
0.442576
-0.0442387
0.43122
-0.039892
0.421764
-0.0354648
0.414072
-0.0310179
0.408033
-0.0263217
0.403576
-0.0212644
0.400678
-0.0158098
0.399351
-0.00997366
-0.00383533
0.454274
-0.0322424
0.440373
-0.0303379
0.428455
-0.0279743
0.418485
-0.0254945
0.410313
-0.0228454
0.403841
-0.0198501
0.399024
-0.0164474
0.395868
-0.0126534
0.394405
-0.00851056
-0.00409899
0.444933
-0.0152516
0.429791
-0.0151959
0.416722
-0.0149052
0.405583
-0.0143555
0.396198
-0.0134608
0.3885
-0.0121516
0.382532
-0.0104796
0.378405
-0.00852653
0.376243
-0.00634831
-0.00398063
0.342008
0.326812
0.311907
0.297552
0.284091
0.271939
0.26146
0.252933
0.246585
0.0102973
0.0493459
-0.0596432
0.0214565
0.150427
-0.161586
0.0263143
0.216268
-0.221125
0.0259309
0.243086
-0.242702
0.0228851
0.248759
-0.245713
0.0188966
0.246899
-0.242911
0.0146406
0.243202
-0.238947
0.0103436
0.238582
-0.234285
0.0063096
0.230577
-0.226543
0.211549
0.00349282
-0.208732
0.0119125
0.0374335
0.027668
0.134672
0.0378047
0.206131
0.0421752
0.238715
0.0433417
0.247592
0.0433551
0.246886
0.0431006
0.243457
0.0425844
0.239098
0.0409856
0.232176
0.215918
0.0366159
0.0122787
0.0251548
0.0312826
0.115668
0.0462453
0.191168
0.0555466
0.229414
0.0612987
0.24184
0.0656735
0.242511
0.0698108
0.23932
0.0738047
0.235104
0.0763791
0.229601
0.218708
0.0735897
0.0113709
0.0137839
0.0315705
0.0954681
0.0500377
0.172701
0.0637941
0.215657
0.0740675
0.231567
0.0828031
0.233775
0.0912838
0.230839
0.0998991
0.226489
0.107892
0.221609
0.214972
0.111627
0.00945806
0.00432585
0.0286462
0.0762799
0.0487077
0.15264
0.0657937
0.198571
0.0800307
0.21733
0.0927805
0.221026
0.105215
0.218404
0.117919
0.213785
0.130814
0.208714
0.203336
0.14245
0.00697805
-0.0026522
0.0233927
0.0598653
0.0430467
0.132986
0.0618765
0.179741
0.0789741
0.200232
0.094902
0.205098
0.11047
0.202836
0.126233
0.198022
0.142451
0.192495
0.186435
0.159352
0.00441965
-0.00707186
0.0172483
0.0470366
0.035062
0.115172
0.0541272
0.160676
0.0727729
0.181587
0.0907567
0.187114
0.10838
0.185213
0.125992
0.180411
0.143782
0.174705
0.167888
0.162329
0.00217315
-0.009245
0.0115228
0.0376869
0.0268512
0.0998435
0.0449922
0.142535
0.0638272
0.162752
0.0824679
0.168473
0.100721
0.16696
0.118649
0.162483
0.136443
0.156911
0.150221
0.15411
0.000554473
-0.00979948
0.00725682
0.0309846
0.0203186
0.0867817
0.0371678
0.125686
0.0555385
0.144381
0.0741783
0.149833
0.0925875
0.14855
0.110653
0.144417
0.128462
0.139102
0.131994
0.146689
-0.000393143
-0.00940634
0.00448982
0.0261016
0.0156925
0.075579
0.0310466
0.110332
0.0482498
0.127178
0.0658266
0.132256
0.0830199
0.131357
0.0994981
0.127939
0.114939
0.123661
0.117804
0.129129
-0.000804772
-0.00860156
0.00309447
0.0222024
0.0131119
0.0655616
0.0273484
0.0960956
0.043599
0.110927
0.0603978
0.115458
0.0769856
0.114769
0.0930548
0.11187
0.108476
0.108239
0.104902
0.121379
-0.000935812
-0.00766575
0.00251923
0.0187473
0.0118437
0.0562371
0.0252909
0.0826483
0.0407623
0.0954559
0.056851
0.099369
0.0728256
0.0987946
0.088376
0.0963195
0.103415
0.0932005
0.0912227
0.117094
-0.000971774
-0.00669398
0.00222245
0.0155531
0.0110489
0.0474107
0.0238336
0.0698636
0.0385564
0.0807331
0.0538704
0.084055
0.0690776
0.0835874
0.083874
0.0815231
0.0981553
0.0789192
0.0776165
0.111762
-0.000970782
-0.0057232
0.00205594
0.0125264
0.0105252
0.0389414
0.0228011
0.0575877
0.0369208
0.0666134
0.051589
0.0693869
0.0661384
0.0690379
0.0802746
0.0673869
0.0938827
0.0653112
0.064391
0.107108
-0.000950505
-0.00477269
0.00197549
0.0096004
0.0102086
0.0307083
0.0221378
0.0456585
0.0358405
0.0529107
0.0500634
0.055164
0.0641702
0.0549312
0.0778856
0.0536715
0.0911084
0.0520884
0.0514373
0.104062
-0.00092906
-0.00384363
0.00193752
0.00673382
0.0100211
0.0226247
0.021731
0.0339486
0.0351735
0.0394683
0.0491264
0.0412111
0.0629787
0.0410788
0.0764742
0.040176
0.089527
0.0390356
0.0386076
0.102357
-0.000908893
-0.00293474
0.00192827
0.00389666
0.00992403
0.0146289
0.0215048
0.0223678
0.0347973
0.0261757
0.0486004
0.027408
0.0623204
0.0273588
0.0757137
0.0267826
0.0887045
0.0260448
0.0258183
0.101494
-0.000881297
-0.00205344
0.00194984
0.00106552
0.00990117
0.0066776
0.0214105
0.0108585
0.0346192
0.012967
0.0483402
0.013687
0.0619917
0.0137073
0.0753386
0.0134358
0.0883103
0.0130731
0.0130353
0.101093
-0.000847066
-0.00120638
0.0020039
-0.00178544
0.00994382
-0.00126232
0.0214155
-0.000613229
0.0345728
-0.000190312
0.0482404
1.94457e-05
0.0618459
0.000101855
0.0751604
0.000121295
0.0881173
0.000116116
0.00025887
0.100894
-0.0008028
0.00209528
0.0100503
0.0215031
0.0346187
0.0482349
0.061789
0.0750581
0.0879797
0.100729
0.137832
0.291443
-0.307896
0.149874
0.122519
-0.134561
0.15955
0.0414927
-0.0511681
0.167238
0.00492669
-0.0126145
0.173629
-0.00905269
0.00266104
0.179296
-0.0131305
0.00746375
0.184489
-0.0130516
0.00785845
0.189309
-0.0113451
0.00652573
0.193815
-0.00930412
0.00479758
-0.00606693
0.00203922
0.139636
0.268901
0.155608
0.106547
0.166404
0.0306968
0.173723
-0.00239233
0.179285
-0.0146149
0.183947
-0.0177926
0.188056
-0.0171601
0.191746
-0.0150351
0.195107
-0.0126653
-0.00896122
0.14194
0.238722
0.160897
0.0875899
0.172259
0.0193346
0.179334
-0.00946703
0.184294
-0.0195743
0.188137
-0.0216357
0.191298
-0.0203216
0.19398
-0.0177169
0.196312
-0.0149977
-0.0108322
0.144663
0.201167
0.165725
0.0665282
0.177506
0.00755347
0.184382
-0.0163432
0.188794
-0.0239865
0.191901
-0.0247423
0.194221
-0.0226415
0.19601
-0.0195056
0.19743
-0.0164178
-0.0117934
0.147411
0.157818
0.170016
0.0439241
0.18211
-0.00454079
0.188803
-0.0230367
0.192755
-0.0279383
0.195225
-0.0272125
0.196815
-0.0242314
0.197828
-0.0205187
0.198455
-0.0170447
-0.0119626
0.149897
0.110278
0.173702
0.0201189
0.186051
-0.0168897
0.192594
-0.0295801
0.196159
-0.0315034
0.198094
-0.0291479
0.199069
-0.0252063
0.199428
-0.020877
0.199384
-0.0170012
-0.0114621
0.151971
0.0598009
0.176725
-0.00463498
0.189291
-0.0294556
0.195724
-0.0360133
0.198985
-0.0347646
0.200493
-0.0306553
0.200972
-0.0256853
0.2008
-0.0207053
0.200213
-0.0164136
-0.0104177
0.153536
0.00735863
0.179032
-0.0301316
0.191791
-0.0422144
0.198168
-0.0423898
0.201216
-0.037813
0.202407
-0.0318468
0.202513
-0.0257909
0.201939
-0.020131
0.200936
-0.0154109
-0.00895868
0.154501
-0.0462483
0.180564
-0.0561951
0.193521
-0.0551714
0.199905
-0.0487732
0.202836
-0.0407447
0.203827
-0.0328377
0.203684
-0.0256481
0.202837
-0.0192839
0.201551
-0.0141243
-0.00721685
0.154811
0.181279
0.194454
0.200919
0.203836
0.204745
0.204481
0.203492
0.202054
0.109357
-0.00316564
-0.106192
0.107057
0.00230021
0.105061
0.00199625
0.104975
8.60601e-05
0.10594
-0.000965484
0.107125
-0.00118436
0.108191
-0.00106638
0.109024
-0.000833271
0.109603
-0.000578442
-0.000233383
0.232686
0.0673635
-0.303215
0.200506
0.0344804
0.18836
0.014142
0.185099
0.00334715
0.18531
-0.00117637
0.186698
-0.00257306
0.188255
-0.00262334
0.189576
-0.00215357
0.190555
-0.00155748
-0.000649875
0.250265
0.156478
-0.33938
0.21375
0.0709955
0.200136
0.027756
0.196385
0.00709839
0.196507
-0.00129835
0.197948
-0.00401357
0.199597
-0.00427224
0.201009
-0.00356558
0.202067
-0.00261624
-0.00110519
0.245286
0.23788
-0.326688
0.212081
0.1042
0.199878
0.0399588
0.196775
0.0102014
0.197232
-0.00175548
0.198841
-0.00562181
0.200577
-0.00600891
0.202032
-0.00501992
0.203111
-0.00369605
-0.00156865
0.240038
-0.310054
0.209677
0.198468
0.196055
0.19696
0.198802
0.200652
0.202158
0.203259
0.0116378
0.000694094
-0.0123319
0.0119109
-0.000273104
0.0126359
-0.000724963
0.0134789
-0.00084299
0.0152793
-0.00180038
0.019462
-0.00418277
0.0310913
-0.0116292
0.0474084
-0.0163171
0.0763404
-0.0289319
-0.0298512
0.0339252
0.00163576
-0.0348668
0.0369118
-0.00325973
0.0442838
-0.00809703
0.0579661
-0.0145253
0.0806848
-0.024519
0.114509
-0.0380068
0.159747
-0.056867
0.208247
-0.0648175
0.261404
-0.0820886
-0.0716625
0.0558305
0.00164098
-0.0558357
0.0630556
-0.0104849
0.079151
-0.0241924
0.106629
-0.042003
0.145985
-0.0638756
0.19395
-0.0859716
0.242275
-0.105192
0.283627
-0.10617
0.316451
-0.114913
-0.0945915
0.0758642
-5.48907e-07
-0.0742227
0.0873333
-0.0219539
0.110369
-0.0472287
0.145157
-0.0767907
0.187426
-0.106144
0.229471
-0.128017
0.262929
-0.138651
0.289799
-0.133039
0.309382
-0.134496
-0.111897
0.0923789
-0.0888867
0.107041
0.133402
0.168239
0.204545
0.235881
0.259558
0.28063
0.292822
0.0910196
-0.0879513
0.0971724
-0.100241
0.0821359
-0.0906737
0.0995574
0.0731672
-0.0942155
0.103184
0.0633875
-0.0978588
0.107638
0.0525272
-0.101408
0.112269
0.0406232
-0.104757
0.116661
0.0279634
-0.10681
0.11947
0.015406
-0.102981
0.115538
0.00499114
-0.0835723
0.0939872
-0.0392081
0.0441992
0.104638
-0.0780601
-0.114529
0.0941031
-0.0801387
0.082524
-0.0826364
0.070048
-0.0853828
0.0569207
-0.0882809
0.0433279
-0.0911645
0.0295012
-0.0929834
0.0161771
-0.089657
0.00527412
-0.0726693
-0.033934
0.101617
-0.0667805
-0.112897
0.0901057
-0.0686273
0.0783426
-0.0708733
0.0663007
-0.0733409
0.0539078
-0.0758881
0.041103
-0.0783597
0.0279914
-0.0798718
0.0152735
-0.0769391
0.00488224
-0.062278
-0.0290517
0.103749
-0.0554639
-0.115066
0.0922273
-0.0571056
0.0803685
-0.0590146
0.068087
-0.0610594
0.055345
-0.0631461
0.0421527
-0.0651674
0.0286767
-0.0663959
0.0156584
-0.0639207
0.00504143
-0.0516611
-0.0240103
0.104307
-0.0440721
-0.115698
0.0926244
-0.0454234
0.0805856
-0.0469758
0.0681574
-0.0486312
0.0553254
-0.050314
0.0420964
-0.0519384
0.028619
-0.0529186
0.0156115
-0.0509132
0.00500764
-0.0410572
-0.0190026
0.104577
-0.0326946
-0.115954
0.0928889
-0.0337356
0.0808372
-0.0349242
0.0683903
-0.0361843
0.0555321
-0.0374558
0.0422689
-0.0386752
0.0287507
-0.0394004
0.0156968
-0.0378593
0.00504782
-0.0304082
-0.0139548
0.104663
-0.0213431
-0.116014
0.0929798
-0.0220526
0.0809209
-0.0228652
0.0684604
-0.0237238
0.0555874
-0.0245828
0.042311
-0.0253988
0.0287801
-0.0258695
0.0157116
-0.0247908
0.00505141
-0.019748
-0.00890341
0.104606
-0.0100065
-0.115943
0.0929307
-0.0103772
0.080877
-0.0108116
0.0684217
-0.0112684
0.0555549
-0.011716
0.042286
-0.0121299
0.0287633
-0.0123468
0.0157029
-0.0117304
0.00504947
-0.00909461
-0.00385394
0.104398
0.0013137
-0.115718
0.0927383
0.00128261
0.0807006
0.00122611
0.068263
0.00116914
0.055417
0.00113
0.0421723
0.00111483
0.0286776
0.00114785
0.0156492
0.00129812
0.0050282
0.00152636
0.00117426
0.104037
-0.115351
0.0923922
0.0803775
0.0679709
0.0551626
0.0419621
0.0285187
0.0155492
0.00498909
0.025749
-0.20652
-0.0279606
0.0196739
-0.220468
0.01231
-0.226921
0.00473657
-0.231373
-0.00261286
-0.235561
-0.00922175
-0.239104
-0.0137358
-0.238188
-0.0138527
-0.221008
-0.00777364
-0.167665
-0.0674168
0.0549828
-0.202092
-0.0594109
0.0461567
-0.211642
0.0360227
-0.216787
0.0257262
-0.221077
0.0156428
-0.225478
0.00613342
-0.229595