# Selection   : all
# Cells       : 440
# Volume      : 7.374263e+01
# Time        	min(p)
4.21          	-1.959250e+00
4.255         	-1.710571e+00
4.305         	-1.723711e+00
