/*--------------------------------*- C++ -*----------------------------------*\
  =========                 |
  \\      /  F ield         | OpenFOAM: The Open Source CFD Toolbox
   \\    /   O peration     | Website:  https://openfoam.org
    \\  /    A nd           | Version:  13
     \\/     M anipulation  |
\*---------------------------------------------------------------------------*/
FoamFile
{
    format      ascii;
    class       volVectorField;
    location    "33.5";
    object      U;
}
// * * * * * * * * * * * * * * * * * * * * * * * * * * * * * * * * * * * * * //

dimensions      [0 1 -1 0 0 0 0];

internalField   nonuniform List<vector> 
440
(
(-0.0959632 0.069763 -6.17019e-20)
(-0.120181 0.0830686 1.4662e-20)
(0.0364332 0.0468712 1.17222e-19)
(0.446898 0.048149 3.46301e-20)
(0.502945 0.137029 2.21263e-20)
(-0.0991444 0.0576456 4.16045e-20)
(0.0562933 0.0204825 -1.20346e-19)
(0.574111 -0.0351683 -1.17803e-19)
(1.1335 -0.0670568 6.65483e-20)
(1.67502 -0.0970872 1.39502e-20)
(-0.0215625 0.00722757 5.29258e-20)
(0.531846 -0.0438233 7.38549e-19)
(1.32648 -0.041854 -4.59791e-19)
(1.92831 -0.0254005 -1.50602e-18)
(2.40768 -0.0112272 6.42839e-19)
(0.201222 -0.0454469 -1.73415e-19)
(1.22521 0.00235948 -5.46671e-19)
(1.99432 0.0634327 1.77864e-18)
(2.39616 0.0971861 1.95515e-18)
(2.45354 0.105087 -5.56762e-19)
(0.57339 -0.00439152 -2.93283e-19)
(1.75263 0.178009 -6.25142e-19)
(2.28213 0.247736 1.90363e-18)
(2.411 0.254115 2.04784e-18)
(2.49593 0.229365 6.92778e-19)
(-0.0284594 -0.10498 -1.18109e-19)
(-0.196706 -0.118149 5.49517e-19)
(-0.345056 -0.111397 -8.41521e-19)
(-0.42499 -0.0150162 1.43059e-19)
(-0.449563 0.126032 9.7271e-19)
(-0.0288558 0.1149 -3.87186e-21)
(-0.133758 0.300307 2.41899e-20)
(-0.240458 0.294996 -9.25974e-20)
(-0.329897 0.238024 -8.99547e-20)
(-0.398977 0.243074 1.64633e-19)
(-0.015355 0.0536294 2.48677e-19)
(-0.0587708 0.301981 -1.73348e-19)
(-0.0892546 0.454906 1.51281e-19)
(-0.10866 0.503004 3.50949e-19)
(-0.0892043 0.496004 1.10738e-21)
(0.0104952 -0.0247296 -2.89748e-20)
(-0.039607 0.105349 9.52577e-20)
(-0.0661889 0.262793 -1.05642e-20)
(-0.066777 0.360844 -6.96578e-19)
(-0.0242337 0.417485 1.61529e-19)
(-0.0333403 0.0122181 -3.62747e-20)
(-0.126044 0.0545179 -5.65889e-20)
(-0.171235 0.120022 -1.96183e-19)
(-0.0982058 0.175819 2.19617e-19)
(-0.0146465 0.265611 3.25849e-19)
(-0.287236 1.00934 3.03991e-18)
(1.20476 -0.379743 8.5887e-19)
(0.961925 -1.3005 1.81765e-20)
(1.41118 -0.0745967 -3.50881e-19)
(1.31709 0.156078 -2.51493e-20)
(-0.723064 0.668516 -1.13877e-18)
(1.43227 -0.577629 -3.93494e-19)
(0.908891 -1.31726 1.58996e-19)
(1.34808 -0.17287 -2.68858e-20)
(1.32534 0.156678 5.75911e-20)
(-0.427219 0.521557 -7.11923e-19)
(2.0258 -0.681142 1.3005e-18)
(1.56536 -1.2696 -1.37608e-19)
(1.30218 -0.216593 4.59909e-19)
(1.30378 0.168992 -7.34882e-21)
(-0.144914 0.379589 6.58323e-19)
(2.30186 -0.853298 -8.14311e-20)
(1.89967 -1.19506 1.37914e-19)
(1.26361 -0.208269 -5.4519e-19)
(1.25561 0.160968 5.12849e-20)
(0.517043 0.0444859 -1.68473e-19)
(2.44439 -0.975316 4.14671e-19)
(1.90518 -1.07077 0)
(0.948516 -0.101323 2.44086e-19)
(1.14248 0.172678 -8.00387e-21)
(1.61639 -0.0871572 -3.48889e-19)
(2.68025 -0.870206 -1.08317e-19)
(1.88149 -0.90153 -2.58031e-20)
(0.891117 -0.0738401 1.59336e-19)
(1.20068 0.109409 -1.94924e-20)
(2.10935 -0.159855 -8.24783e-22)
(2.69683 -0.937175 1.1911e-18)
(1.13805 -0.530938 -1.33586e-20)
(0.595128 0.144176 1.45718e-19)
(1.23717 0.0468942 0)
(2.19258 -0.256476 -1.9845e-19)
(2.30385 -0.47823 -6.92376e-22)
(1.10308 -0.216902 1.73756e-21)
(0.984171 -0.0404922 -1.03292e-19)
(1.35965 -0.122493 5.81122e-21)
(2.25284 -0.230628 9.23311e-20)
(1.75875 -0.424929 1.611e-19)
(0.852189 -0.0454857 -1.65285e-20)
(1.20106 -0.0112557 -1.74827e-34)
(1.03607 -0.0963586 1.23629e-20)
(1.32196 -0.119536 1.70647e-19)
(0.52743 0.0547173 2.30156e-20)
(0.468759 -0.00731588 8.49723e-21)
(0.403417 -0.106725 2.72035e-20)
(0.0696441 -0.0289906 -1.49999e-20)
(2.36619 0.224544 -8.71915e-19)
(2.5613 0.035567 -1.06397e-18)
(2.41934 0.0381228 8.20658e-19)
(2.64516 -0.115583 3.36799e-20)
(2.09398 -0.0327946 -3.11042e-20)
(2.12723 0.149179 4.23386e-20)
(2.35915 0.0386522 -3.75543e-20)
(2.25309 -0.0374653 -1.17107e-19)
(2.39819 -0.0995592 -2.15773e-19)
(2.33093 -0.251665 -3.01954e-21)
(2.07893 0.0787622 6.11347e-20)
(2.1484 0.0237496 9.9455e-20)
(2.18095 -0.0473275 -1.23293e-19)
(2.19444 -0.082526 3.967e-20)
(2.23938 -0.166378 2.3679e-20)
(2.02087 0.025798 1.02749e-19)
(2.06465 -0.0135583 1.15861e-19)
(2.1056 -0.0468379 -1.67888e-20)
(2.13836 -0.0823008 -2.91366e-20)
(2.15464 -0.12345 2.69565e-20)
(1.54445 -0.0217846 1.4878e-19)
(1.50168 -0.0224385 -1.10611e-20)
(1.54531 -0.0352749 2.30274e-20)
(1.477 -0.0391781 -1.53981e-20)
(1.51103 -0.0537358 2.15925e-20)
(1.52914 0.823762 1.09883e-18)
(1.48547 0.918684 -3.60253e-19)
(1.4876 1.04625 -1.298e-18)
(1.41258 1.08475 6.9216e-19)
(0.858089 0.764335 -1.59552e-19)
(1.82791 0.779015 -5.52378e-19)
(1.78879 0.850213 -2.89149e-18)
(1.7871 0.952502 -1.11048e-18)
(1.69295 0.964349 -3.84035e-19)
(1.02494 0.667623 -6.19093e-19)
(2.1159 0.658838 7.232e-19)
(2.09753 0.726429 1.86989e-19)
(2.07018 0.811334 -2.15162e-18)
(1.9287 0.797886 -6.01624e-19)
(1.13285 0.524212 4.48023e-19)
(2.29574 0.540709 2.17306e-18)
(2.27249 0.588891 1.60543e-18)
(2.26195 0.640946 -1.85883e-18)
(2.04675 0.602406 -1.4057e-18)
(1.11552 0.34714 -2.56384e-19)
(2.42398 0.390599 1.07245e-18)
(2.44144 0.414948 -7.67211e-19)
(2.34518 0.438077 5.55098e-19)
(2.00863 0.386486 4.37341e-19)
(0.937031 0.153782 -3.69901e-19)
(0.578061 0.452043 -6.78022e-19)
(0.486315 0.487355 -5.31476e-19)
(0.367565 0.522306 6.38036e-20)
(0.228424 0.520248 -1.43678e-20)
(0.0557174 0.363771 7.17906e-20)
(0.675844 0.609833 6.25954e-20)
(0.608638 0.661576 -3.06917e-19)
(0.517481 0.724543 1.70287e-19)
(0.392469 0.782828 -7.93194e-20)
(0.170084 0.594973 1.13269e-19)
(0.762228 0.830436 1.42788e-19)
(0.692011 0.911918 4.22701e-19)
(0.635172 1.0016 9.27292e-20)
(0.54809 1.029 -2.8388e-19)
(0.298365 0.748498 2.35297e-19)
(1.02945 0.879126 2.08146e-19)
(0.979284 0.956895 -6.59548e-19)
(0.9314 1.05494 -1.81126e-18)
(0.850174 1.12059 7.2108e-19)
(0.498341 0.8245 -1.58335e-19)
(1.09791 0.949368 -9.46413e-20)
(1.13185 1.0636 -1.68457e-19)
(1.1524 1.16849 -3.49041e-19)
(1.0958 1.18191 -3.87735e-19)
(0.669422 0.832024 -6.13778e-21)
(1.00998 0.0372809 -7.82345e-20)
(1.00931 0.024884 -2.61773e-20)
(1.04398 0.138858 -1.5397e-21)
(0.941882 0.123184 -1.35208e-19)
(0.906705 0.275158 2.85092e-19)
(0.998119 0.033674 4.78966e-20)
(1.03036 0.019404 1.01704e-19)
(1.02047 0.153434 1.08791e-19)
(0.981459 0.143815 1.76548e-20)
(0.937662 0.363742 2.00797e-21)
(1.00806 0.0314786 6.23092e-20)
(1.01348 0.0118045 -4.15901e-21)
(1.06069 0.173877 -2.43276e-21)
(0.930771 0.142794 1.19234e-19)
(1.13158 0.503433 -4.5328e-19)
(1.00798 0.0293058 -2.84567e-22)
(1.02968 0.00211208 -1.50415e-19)
(1.03667 0.200774 -5.43148e-20)
(1.02604 0.132356 -3.12926e-19)
(1.15543 0.570952 7.86455e-20)
(1.01599 0.0202275 -9.27744e-21)
(1.01543 0.00976347 4.32541e-20)
(1.0727 0.198998 2.4477e-20)
(1.01778 0.158783 4.21163e-19)
(1.36818 0.69644 -4.56888e-19)
(0.995608 0.020397 -1.72472e-21)
(1.06179 -0.0070615 9.206e-20)
(1.02783 0.227448 -4.33747e-20)
(1.28376 0.0718002 9.18488e-19)
(1.26873 0.767375 -3.22651e-19)
(0.95569 -0.00924727 -1.34319e-21)
(1.12972 0.009868 -7.55562e-20)
(0.927034 0.145305 4.50119e-21)
(1.39553 0.0585839 -3.30654e-19)
(1.24351 0.553171 -7.3416e-20)
(0.988023 -0.0214415 7.34924e-21)
(1.06592 0.0314455 1.28152e-35)
(1.05458 0.0954239 -6.89413e-22)
(1.35046 0.00139191 1.15375e-19)
(1.38 0.374816 1.59265e-19)
(1.0411 -0.0486503 3.86916e-21)
(0.945028 0.00842392 -2.46553e-20)
(1.29719 -0.00148217 1.97323e-20)
(1.11579 -0.0144689 2.16191e-20)
(1.45197 0.280954 -2.41242e-19)
(0.943935 -0.0207624 -3.74455e-20)
(0.809236 -0.024115 -1.51155e-21)
(0.993562 -0.0102277 2.29996e-20)
(0.664216 0.00369603 -2.22733e-20)
(1.11446 0.086901 -5.42642e-20)
(1.79434 0.618688 2.72356e-19)
(1.87871 0.633854 7.21768e-19)
(2.14551 0.501867 -1.01804e-18)
(2.19784 0.460624 1.77302e-20)
(2.40415 0.278102 4.17669e-19)
(1.78428 0.399911 8.23777e-20)
(1.76968 0.433531 9.3138e-19)
(2.03414 0.338442 1.06336e-19)
(1.97289 0.32085 -8.31607e-19)
(2.23615 0.186308 -2.69146e-19)
(1.69848 0.275547 -2.17176e-19)
(1.76589 0.282016 -1.38591e-19)
(1.89421 0.222192 1.97484e-19)
(1.93495 0.198931 -2.56806e-19)
(2.04978 0.125719 2.37689e-19)
(1.65673 0.186979 3.62676e-19)
(1.75404 0.1742 -1.25814e-22)
(1.8205 0.125275 1.96109e-19)
(1.90033 0.103333 1.54988e-19)
(1.95722 0.0546489 -1.578e-19)
(1.31954 0.0477605 -4.84317e-20)
(1.41863 0.0292897 2.27403e-19)
(1.44294 0.0139215 8.99866e-20)
(1.50784 -0.00146122 -1.8954e-19)
(1.49396 -0.00884064 5.1735e-22)
(1.27941 -0.0210512 8.30178e-20)
(2.32062 -0.0162087 -5.54386e-19)
(2.53894 -0.00761978 1.4967e-18)
(2.51131 0.0353627 6.93607e-19)
(2.29161 0.0483311 -4.79086e-19)
(0.865863 0.112617 1.91942e-19)
(2.11368 0.138007 -6.18017e-19)
(2.52565 0.148854 -8.87546e-19)
(2.52912 0.154735 1.20789e-18)
(2.31056 0.143216 -8.9412e-19)
(0.34488 0.120925 5.88575e-21)
(1.55514 0.233842 7.71234e-19)
(2.26424 0.282216 1.12632e-19)
(2.56533 0.290212 1.28128e-18)
(2.55664 0.261988 7.0275e-19)
(0.0350683 0.0258525 2.25876e-19)
(0.741774 0.197292 2.71616e-19)
(1.5675 0.309896 -9.29174e-19)
(2.07099 0.368244 9.70749e-20)
(2.51475 0.397517 9.09981e-19)
(-0.0563191 -0.0447209 1.61193e-19)
(0.185421 0.0749952 -2.06503e-19)
(0.765989 0.238185 -2.05186e-19)
(1.26659 0.348603 2.874e-19)
(1.83341 0.49763 1.78395e-19)
(-0.0603352 -0.071193 5.77551e-20)
(-0.0300269 -0.0364579 8.69798e-20)
(0.214255 0.0629825 1.12725e-19)
(0.493392 0.220286 -5.27999e-19)
(1.06778 0.404297 6.58055e-21)
(-0.0380864 -0.058642 -4.24982e-20)
(-0.045792 -0.0387706 -4.08401e-20)
(0.0361237 0.0440102 2.96468e-20)
(0.143597 0.207105 -6.98746e-20)
(0.421988 0.424911 1.19858e-21)
(-0.0144875 -0.0383731 -2.50048e-20)
(0.0125507 -0.0453848 2.62826e-19)
(0.0747809 0.0508145 -1.57657e-19)
(0.127492 0.200935 -5.22433e-19)
(0.216428 0.408047 1.76749e-19)
(-0.015338 -0.16282 7.59618e-21)
(0.0389417 -0.225466 3.97804e-20)
(0.126314 -0.0751363 -1.10952e-19)
(0.226574 0.161019 -4.68475e-19)
(0.328653 0.409095 1.56652e-20)
(-0.011041 -0.288195 -3.92306e-20)
(-0.0280487 -0.321594 1.39843e-19)
(-0.0101508 -0.186772 -5.09264e-20)
(0.0468447 -0.0123251 -1.60818e-20)
(0.124704 0.17794 3.9825e-19)
(1.30979 0.73971 -1.01278e-19)
(-0.308103 0.081138 5.56615e-19)
(1.00728 -0.14484 -9.15819e-20)
(0.917122 0.0394461 -5.81671e-20)
(0.698093 -0.00571475 1.46703e-21)
(1.00675 0.964122 1.86162e-19)
(-1.28498 0.0970223 1.06178e-18)
(0.980602 -0.370119 7.31586e-19)
(1.15054 0.0767374 8.12135e-21)
(0.897591 0.0318195 -1.07171e-20)
(0.416421 1.09869 -1.16384e-18)
(-1.59131 -0.100817 3.13911e-18)
(0.757779 -0.884718 1.1393e-19)
(1.28844 0.0652761 -3.70115e-19)
(1.09542 0.0769618 2.02058e-20)
(0.688418 1.26375 1.04428e-18)
(-0.323797 -0.177048 -8.59283e-19)
(0.677292 -1.19524 -3.42612e-19)
(1.27019 0.0118848 2.95636e-21)
(1.2076 0.113547 -2.47499e-21)
(0.803498 1.36202 -2.10391e-19)
(1.02397 -0.103157 9.01107e-19)
(1.15115 -1.16735 -7.51608e-20)
(1.36488 -0.072807 -1.95562e-20)
(1.30205 0.120373 -1.91928e-20)
(-0.19577 0.0929067 -9.13967e-20)
(-0.406963 -0.169992 0)
(0.0682162 -0.0973798 -7.13536e-20)
(0.0727457 -0.0510826 6.14348e-20)
(0.33849 -0.0235767 -1.85254e-20)
(1.64914 0.625551 0)
(0.551385 0.131609 0)
(0.979939 -0.0587287 3.33846e-19)
(0.631356 -0.0302681 8.45445e-20)
(0.580534 -0.0470773 1.36863e-20)
(0.73161 0.00493084 -1.29962e-19)
(0.771469 0.000862834 3.21805e-19)
(0.906584 0.0291926 -4.40352e-20)
(0.824211 0.0268448 3.93306e-19)
(1.16548 0.170403 2.31712e-19)
(1.65499 0.0395115 1.25275e-19)
(1.80473 0.088374 4.90729e-19)
(1.89919 0.158942 -8.81981e-19)
(2.30136 0.259786 3.73646e-19)
(2.18657 0.409675 6.50746e-19)
(0.936684 -0.502468 1.60371e-21)
(0.927031 -0.59718 -1.96862e-19)
(0.920591 -0.699472 -1.51929e-19)
(0.853058 -0.772547 9.20256e-20)
(0.525624 -0.613213 1.43282e-19)
(0.830451 -0.40505 1.10863e-19)
(0.775478 -0.473489 1.72837e-19)
(0.703647 -0.549402 -8.82698e-20)
(0.593643 -0.617116 1.54059e-19)
(0.33028 -0.498206 4.92006e-20)
(0.670143 -0.266468 -1.18815e-19)
(0.584708 -0.310375 -6.1227e-20)
(0.484818 -0.364245 4.1455e-20)
(0.364439 -0.411626 -3.67642e-20)
(0.166853 -0.333339 -1.39994e-19)
(0.562448 -0.0343482 -4.29567e-19)
(0.476068 -0.0523709 -3.46292e-19)
(0.364652 -0.0783622 2.82166e-19)
(0.236598 -0.111136 1.48195e-19)
(0.0697666 -0.111436 1.30021e-20)
(0.533475 0.174089 -1.37762e-19)
(0.446934 0.172485 -1.53987e-19)
(0.328754 0.168243 -4.36542e-20)
(0.189518 0.168928 4.62251e-20)
(0.0305581 0.123001 1.33676e-20)
(2.08645 -0.0294593 9.21307e-19)
(2.32802 -0.0971618 3.24436e-19)
(2.42379 -0.184819 -8.3103e-19)
(2.30171 -0.211399 -1.75306e-18)
(1.4166 -0.199639 1.44726e-19)
(2.04024 -0.124749 1.4896e-18)
(2.15323 -0.237866 1.96892e-18)
(2.18401 -0.361906 1.66136e-19)
(2.11386 -0.422612 2.92749e-19)
(1.37421 -0.384026 -1.95285e-19)
(1.76126 -0.291804 -3.80526e-18)
(1.82391 -0.41207 4.17127e-19)
(1.87576 -0.541662 1.21036e-18)
(1.82939 -0.620345 -4.63757e-19)
(1.20333 -0.535635 7.39781e-19)
(1.53446 -0.419056 9.20901e-19)
(1.56122 -0.522501 -2.44455e-18)
(1.55978 -0.645533 -2.79446e-18)
(1.5 -0.737159 8.63309e-19)
(0.977881 -0.616086 5.83944e-19)
(1.24723 -0.482187 2.04302e-19)
(1.20748 -0.580055 2.78872e-19)
(1.20184 -0.706203 -4.31508e-19)
(1.15157 -0.797561 -5.21328e-19)
(0.737774 -0.642545 -4.9141e-21)
(1.06811 0.0499353 6.87748e-21)
(0.945654 0.0552551 1.47951e-21)
(1.11661 0.0803861 1.09211e-20)
(0.83225 -0.0018923 -2.63788e-19)
(1.11077 -0.212621 -2.14729e-20)
(1.07731 0.0509856 -2.28477e-21)
(0.940117 0.0514443 2.1712e-20)
(1.1184 0.0988635 4.53223e-21)
(0.907283 0.0441898 2.37493e-19)
(1.011 -0.0986173 6.27774e-21)
(1.07424 0.0457937 -5.36489e-20)
(0.942854 0.0458944 -1.79214e-22)
(1.10275 0.103185 -6.60857e-21)
(0.909147 0.0624722 1.40452e-19)
(0.969644 -0.0366564 -2.66002e-19)
(1.05398 0.0430505 6.3331e-20)
(0.96684 0.0391426 2.68326e-21)
(1.07115 0.111626 2.10001e-20)
(0.93722 0.0880874 -7.60455e-20)
(0.877119 0.069869 5.82251e-20)
(1.026 0.0388147 1.5522e-20)
(0.998423 0.0349813 -2.17993e-20)
(1.04028 0.120484 3.35281e-20)
(0.958224 0.111178 2.42817e-20)
(0.851065 0.174494 -3.77123e-20)
(0.890292 0.0337443 0)
(0.71819 0.0279184 8.74539e-21)
(0.60283 0.0214436 7.42277e-21)
(0.357382 -0.00715389 5.39418e-20)
(0.693086 -0.0545165 -1.7471e-19)
(1.03558 0.0721823 -6.27102e-20)
(0.95484 0.0719513 -4.64379e-22)
(1.02298 0.0805754 -6.86057e-20)
(0.818804 -0.00679799 -1.5792e-19)
(1.05149 -0.197158 -1.86632e-19)
(0.960152 -0.0684591 -4.05029e-20)
(1.05133 -0.0359678 5.82354e-19)
(1.15043 0.0355387 3.41536e-19)
(1.0231 0.0554837 3.09534e-20)
(0.795079 0.0300917 0)
(1.31585 -0.319289 3.92009e-19)
(1.43496 -0.281536 1.64176e-18)
(1.61811 -0.160212 -1.76294e-18)
(1.71887 -0.0202322 -5.53785e-19)
(1.63695 0.0330678 4.27031e-19)
)
;

boundaryField
{
    left
    {
        type            fixedValue;
        value           uniform (1 0 0);
    }
    right
    {
        type            zeroGradient;
    }
    down
    {
        type            noSlip;
    }
    up
    {
        type            noSlip;
    }
    cylinder
    {
        type            noSlip;
    }
    defaultFaces
    {
        type            empty;
    }
}


// ************************************************************************* //
