/*--------------------------------*- C++ -*----------------------------------*\
  =========                 |
  \\      /  F ield         | OpenFOAM: The Open Source CFD Toolbox
   \\    /   O peration     | Website:  https://openfoam.org
    \\  /    A nd           | Version:  13
     \\/     M anipulation  |
\*---------------------------------------------------------------------------*/
FoamFile
{
    format      ascii;
    class       volVectorField;
    location    "0.3";
    object      U;
}
// * * * * * * * * * * * * * * * * * * * * * * * * * * * * * * * * * * * * * //

dimensions      [0 1 -1 0 0 0 0];

internalField   nonuniform List<vector>
1800
(
(-0.00504783815164 -0.0122219784635 -1.1000534691e-16)
(0.542278718415 -0.462400540328 -1.63744521423e-17)
(1.05688319069 -0.863021842022 -8.24195945742e-18)
(1.33343050339 -1.04693495628 3.59377703716e-18)
(1.44486444031 -1.08489768598 1.211317371e-17)
(1.47941635751 -1.05633188406 8.15484682792e-19)
(1.48352081018 -1.00478085551 -7.81479933615e-18)
(1.47624989002 -0.948368439731 -4.30549006104e-18)
(1.46542921686 -0.889980050934 4.56096909132e-19)
(1.43221867463 -0.842006527904 1.82468067344e-18)
(0.0165208199112 -0.02946036748 1.36965968796e-18)
(0.647665016314 -0.467189967968 -3.99396732531e-18)
(1.217944725 -0.846893822361 -3.77445814531e-19)
(1.51316930292 -1.01563152937 1.32974057529e-19)
(1.623525489 -1.04598806928 -1.39945775727e-18)
(1.6504212583 -1.01447974119 1.46167639296e-18)
(1.64621491618 -0.961819563833 -1.07834705579e-18)
(1.63215680676 -0.904349975638 5.72800729001e-19)
(1.61583202046 -0.846576839302 3.95644728939e-19)
(1.59199631546 -0.803336344479 -3.46020313886e-19)
(0.0454602868688 -0.0463014016275 -8.22327461975e-20)
(0.759546064878 -0.460162822464 2.79745145172e-19)
(1.3793998257 -0.809968750007 2.42610315111e-19)
(1.68806496963 -0.959973592952 -9.81842782153e-20)
(1.79414254243 -0.983012376605 -1.51528772254e-18)
(1.81148076535 -0.950906775323 3.58224686037e-19)
(1.79724197439 -0.900910493145 6.02354806152e-19)
(1.77378033558 -0.847933461208 -7.94729233193e-20)
(1.74879406699 -0.796258615227 -4.99262525306e-21)
(1.71620238136 -0.755683813873 -3.42871668158e-20)
(0.0818870026204 -0.0610274485934 1.35513745405e-20)
(0.875814680436 -0.439335906588 -9.11085600578e-20)
(1.53764039319 -0.751081148146 -2.88009417126e-19)
(1.85440566004 -0.879162490857 7.10113096669e-20)
(1.95402008438 -0.894654779661 3.93734282501e-19)
(1.96161810706 -0.862541599607 3.67732605303e-20)
(1.93819175382 -0.815492092192 -2.42080181814e-20)
(1.90677007212 -0.766192990327 5.46841184334e-19)
(1.87470927272 -0.718306233534 4.52117274854e-19)
(1.8387123018 -0.682196636756 -1.49373523796e-19)
(0.125528329023 -0.0721194357924 8.68858374157e-20)
(0.993792077903 -0.404027502171 1.55628357243e-19)
(1.68832671059 -0.671475459763 -8.37721331001e-20)
(2.00715586498 -0.776105581858 -9.82712579582e-20)
(2.09780723942 -0.785223558868 -1.19052496516e-18)
(2.09526624493 -0.755169128549 1.06277597284e-20)
(2.0631118688 -0.713376851666 9.29765271591e-19)
(2.02440739672 -0.67029414952 3.23243677583e-19)
(1.98615962468 -0.629175344081 2.31488139257e-20)
(1.94623407692 -0.597889257689 -1.99862619475e-19)
(0.175344951865 -0.0777668951836 -8.07406198376e-20)
(1.1098876113 -0.353170689434 1.77004486121e-19)
(1.82695981615 -0.571669044568 1.12746049431e-18)
(2.14194901063 -0.652199960684 -8.18825800608e-19)
(2.22180895438 -0.656189114331 -8.65244656948e-19)
(2.20939952134 -0.629583692758 1.43744322758e-18)
(2.16947973123 -0.594133749883 -1.0384193756e-18)
(2.12456573896 -0.557998418824 -1.14405693518e-18)
(2.08112500234 -0.523830494547 8.30707984826e-19)
(2.0380723884 -0.498226272803 -3.21684759551e-20)
(0.229805235609 -0.076495024187 -3.18285104531e-20)
(1.22035553195 -0.286874636148 -5.01839681897e-19)
(1.94934484483 -0.453842448265 -2.99754680152e-18)
(2.25490910909 -0.510944842301 1.3600630176e-18)
(2.32270659589 -0.511780032295 2.18682140847e-18)
(2.30112196514 -0.490344884896 -6.32903731065e-21)
(2.2547039744 -0.462645761355 -2.81054433788e-18)
(2.20491605602 -0.434643075996 -2.74017253223e-21)
(2.15754214141 -0.408430195455 2.52222844368e-18)
(2.11205983203 -0.389067225918 6.64357056273e-19)
(0.286689114335 -0.0670567689727 6.24123148505e-20)
(1.32099922855 -0.205687400772 4.33965815484e-19)
(2.0513233618 -0.320346483368 2.30207664568e-18)
(2.34261402933 -0.35561194596 -8.2787463217e-20)
(2.39788240064 -0.355506652489 -1.40882359104e-18)
(2.36825294849 -0.340618359844 -4.34659133602e-19)
(2.31678701562 -0.321600478437 0)
(2.26345304746 -0.302412373542 9.88523607808e-19)
(2.21331380112 -0.284617093528 1.04656687991e-20)
(2.16622811783 -0.272021350899 -8.03028994456e-19)
(0.343294398364 -0.0488185894879 8.9909364248e-21)
(1.40787320562 -0.111212687226 8.72001487843e-19)
(2.12947227452 -0.17454892573 2.06724698882e-18)
(2.40263526225 -0.190403021506 -1.98603335806e-18)
(2.44580368507 -0.191754694659 -1.42920316598e-18)
(2.40958407808 -0.184494961994 4.46125941475e-19)
(2.35461437384 -0.174861602668 -1.8796681022e-18)
(2.2991710892 -0.164960482638 -1.27712769707e-18)
(2.24752637797 -0.155863613866 1.51995806552e-18)
(2.1996880584 -0.150210845197 1.29376333769e-18)
(0.396602369102 -0.0218724559691 4.2595114603e-20)
(1.47752258104 -0.00584009602304 6.02920863331e-19)
(2.18067816694 -0.0200509268972 3.88801589099e-19)
(2.43364499821 -0.0196807531206 -2.88992956829e-18)
(2.46572761748 -0.0248254987102 4.06516532347e-20)
(2.4245470733 -0.0255692696488 4.26273978028e-18)
(2.36751768264 -0.0256990507454 -2.25924339121e-18)
(2.31127256867 -0.0253529193112 -1.26883549334e-18)
(2.25929647633 -0.0250029278633 4.13209089253e-19)
(2.21164673137 -0.0262616761785 -9.38971272676e-19)
(-0.00578473146091 0.00293949445327 1.06707894734e-19)
(-0.00441218009353 -0.0902548984425 6.30348666464e-20)
(0.0426939851697 -0.179361348047 -1.62327825121e-21)
(0.104412810001 -0.226543305944 -8.79810258581e-21)
(0.170628553065 -0.242800835478 -2.0113205417e-21)
(0.235340395154 -0.243505835024 -4.31162968039e-20)
(0.295709340326 -0.237763582313 1.5680757198e-20)
(0.351068964286 -0.229820221382 -2.73084352734e-20)
(0.401299548785 -0.221469052933 3.17631859755e-21)
(0.44899591016 -0.214664066656 -8.35704798554e-21)
(-0.0079383135902 0.0160675706679 3.29284810868e-20)
(0.00923054750389 -0.135564404368 7.82887826228e-20)
(0.0717111371559 -0.286303527543 -1.02671024877e-19)
(0.1413106032 -0.365884097536 -4.55767033146e-20)
(0.209901702114 -0.391797349468 -7.59354838942e-20)
(0.274342597071 -0.390636454574 -8.11696441108e-20)
(0.333360040293 -0.378356325166 3.01488861801e-20)
(0.387008225306 -0.362403348325 -2.00074198431e-20)
(0.435362157346 -0.345973373252 2.05713797128e-21)
(0.482094193893 -0.333477342944 -8.21500161863e-21)
(-0.0120526350107 0.0272660575313 -4.27218697386e-20)
(0.0308014814617 -0.18074036819 1.70056426254e-19)
(0.118721057538 -0.38983588498 7.11653430879e-20)
(0.201465251384 -0.49965106291 2.71697514655e-19)
(0.274050867943 -0.534223463901 4.95366772281e-20)
(0.338073726227 -0.530893107235 -2.81503346366e-19)
(0.394871913404 -0.512129932954 -3.0361139397e-20)
(0.445704369324 -0.48838457835 9.007089799e-20)
(0.490977153357 -0.464221711163 -3.70069919806e-20)
(0.536229777173 -0.446201689808 -5.21469880045e-21)
(-0.0175019527097 0.0357859691429 -1.13364207301e-19)
(0.060796618253 -0.225453329269 -2.6072952434e-20)
(0.183554566898 -0.488082972368 3.20813195126e-20)
(0.284226471436 -0.624996236553 -1.34592489712e-19)
(0.362159436448 -0.666824754925 6.94145709174e-20)
(0.425486043554 -0.660932731528 1.89147472711e-19)
(0.479159929528 -0.635796643068 5.31092747763e-20)
(0.526083359199 -0.60459651918 -1.19767037388e-20)
(0.567145566242 -0.573205655147 2.13911166202e-20)
(0.610398787417 -0.549860339896 -2.56279723879e-21)
(-0.0234379979623 0.0408993600744 0)
(0.0998150022292 -0.269330255204 8.86040746314e-20)
(0.265871963639 -0.579181602061 2.59101841556e-19)
(0.388557106802 -0.739124650673 -2.7567319225e-19)
(0.472834805057 -0.786435116275 -5.76317372135e-19)
(0.535039006696 -0.777543132716 1.95706761125e-19)
(0.584668181439 -0.746240534162 -2.73634719694e-20)
(0.626650492817 -0.708068404302 -1.0024563909e-19)
(0.662500366249 -0.67011507419 0)
(0.703237923579 -0.641662018532 -8.89306619929e-21)
(-0.0287888400378 0.0419764986644 5.52138616573e-20)
(0.148510335125 -0.311871665002 8.53957452155e-20)
(0.365087961539 -0.661243620511 4.28243109663e-20)
(0.512952234968 -0.839330249859 2.41781491911e-19)
(0.604105306402 -0.890067064737 -1.9150303949e-19)
(0.664596408694 -0.877760145593 -2.91392157701e-19)
(0.70928135222 -0.840645157288 5.1028625747e-19)
(0.745398046393 -0.796166447138 5.49430069207e-20)
(0.775245065916 -0.75246578934 -3.03514014356e-19)
(0.812911768405 -0.719079734267 -7.10076179677e-21)
(-0.0322888076742 0.0386026214004 -3.5231192578e-21)
(0.207474069866 -0.352328819447 8.79532814343e-21)
(0.480253808194 -0.73234160876 1.31802584928e-19)
(0.655321814087 -0.923088303503 2.61380662412e-20)
(0.753333094462 -0.975079326774 3.22070891868e-19)
(0.8113526395 -0.959083578777 -4.0183540854e-19)
(0.850241337873 -0.916746460007 -4.06853395465e-19)
(0.879732081332 -0.866888466829 -3.43017474834e-19)
(0.903065859252 -0.818391597709 2.52440898178e-19)
(0.936870958126 -0.780075260951 2.7438885238e-19)
(-0.0326174304353 0.0307389615342 -1.28340458648e-19)
(0.276982552836 -0.389567002262 6.0191935122e-20)
(0.60977097679 -0.790478578043 2.97208211327e-19)
(0.812754397283 -0.988146139255 -1.77382535077e-19)
(0.917003005168 -1.0393654786 3.3542537428e-19)
(0.971655870345 -1.0197765629 7.91016512968e-19)
(1.00401990626 -0.973282813599 5.45507084475e-19)
(1.02633687871 -0.919521221886 -4.30231180759e-19)
(1.04299836032 -0.867469626221 -2.04895448356e-19)
(1.07115878831 -0.824043136742 2.96254932159e-19)
(-0.0286914364633 0.0189185940053 -1.7867897239e-19)
(0.356536572512 -0.421866565192 -2.8641793814e-19)
(0.750927922052 -0.833388531536 6.81817539928e-19)
(0.980972306333 -1.0322459905 7.62890318689e-19)
(1.09000279457 -1.08094307095 -7.49111980608e-19)
(1.14002590652 -1.05829561488 8.22313493515e-19)
(1.16498027815 -1.00930012613 1.38034431746e-19)
(1.17951738159 -0.953897333091 -9.9275081248e-19)
(1.1894474938 -0.899901275334 -2.45256775559e-19)
(1.20741471628 -0.85152884511 3.35629621553e-19)
(-0.0197834387698 0.00421275531524 9.02725054632e-20)
(0.445100501637 -0.446893391015 -3.10419544357e-19)
(0.900537534192 -0.8583620837 -4.49310578812e-19)
(1.15521681554 -1.052624403 7.71756571756e-19)
(1.26653685792 -1.09697232699 6.06114564083e-19)
(1.30961094914 -1.07157473662 -7.43606332883e-19)
(1.32492556802 -1.02138291258 -6.13960582573e-19)
(1.32950701967 -0.965932821358 3.66158270901e-19)
(1.33069151141 -0.910494429158 -3.84392344733e-19)
(1.32909818741 -0.859252494886 -2.28401995034e-19)
(0.620684374934 -0.174331970649 3.88160946513e-20)
(0.799649053088 -0.133094630728 -7.67294912365e-20)
(0.8880111054 -0.103974026136 5.69573998735e-21)
(0.939030115271 -0.0812737285245 1.3277054006e-20)
(0.969009005489 -0.0629611909852 -6.27327873204e-21)
(0.986732583088 -0.0479846429243 -3.15370406305e-21)
(0.997607862427 -0.0357002284692 -4.83315021922e-21)
(1.00444293187 -0.0254787950832 -3.15587025145e-21)
(1.00856915024 -0.017363547773 7.91844600872e-21)
(1.01135427148 -0.00715709721339 2.95758428226e-21)
(0.638459687809 -0.248089789249 1.05830221122e-19)
(0.811504877764 -0.17280462171 1.66795729522e-20)
(0.896481971627 -0.125537111496 4.61348565625e-21)
(0.945459440119 -0.0932427936582 -7.71213843703e-21)
(0.974074761548 -0.0699062233225 -1.72421276732e-20)
(0.990803102069 -0.0521335691445 0)
(1.00091055756 -0.0382261696763 -5.06221992e-21)
(1.00715815967 -0.0270196237474 3.90018255716e-21)
(1.01088102859 -0.0182993911659 4.78745056118e-22)
(1.01332972432 -0.00752131716213 -3.61134202408e-21)
(0.666729275052 -0.319335671328 -6.11982971926e-20)
(0.828506606102 -0.21161548914 -4.14647274221e-20)
(0.907746780506 -0.146798637542 1.87319730396e-20)
(0.953351639873 -0.105077460653 -9.24805925301e-21)
(0.979924300549 -0.076739126931 -3.92936104592e-21)
(0.995326202546 -0.056177800338 6.23619129518e-21)
(1.00448636815 -0.0406561648751 0)
(1.0100456709 -0.0284784779919 0)
(1.01331906081 -0.0191697285564 -2.18744247685e-21)
(1.01538489126 -0.00785524143901 0)
(0.705583882421 -0.386673219678 -3.32775027779e-20)
(0.850420894756 -0.248947813964 7.82143276529e-20)
(0.921726634907 -0.167485650529 8.6797909912e-21)
(0.962692980768 -0.116650561313 0)
(0.986554624098 -0.0833878361835 2.32891595619e-20)
(1.00029518587 -0.0600741351102 -3.61237714359e-21)
(1.00832543598 -0.0429630304442 0)
(1.01310347886 -0.0298388039282 4.43338525249e-21)
(1.01585822689 -0.0199636816791 0)
(1.01752712583 -0.00815454099422 6.23342365436e-22)
(0.755104190909 -0.448752502263 -3.07843641173e-20)
(0.876973557077 -0.284267019681 1.04450058529e-19)
(0.938315878494 -0.187338241709 -4.70308800018e-21)
(0.973452662298 -0.127836819617 0)
(0.99395476041 -0.0897835695806 5.18946288224e-21)
(1.00569734886 -0.0637805397315 7.11646179976e-21)
(1.01242307825 -0.0451205795203 5.98994793821e-21)
(1.01630788692 -0.0310831485551 1.09368760565e-21)
(1.01849445805 -0.0206704635895 -2.24027247562e-21)
(1.01972937126 -0.00841485405276 2.69898846393e-21)
(0.815119458645 -0.504202184154 -6.88216882413e-19)
(0.907835548902 -0.317094453527 -1.85572855995e-19)
(0.957356726478 -0.206147520215 1.89901517189e-21)
(0.985580772168 -0.138527146851 3.38222276757e-20)
(1.00210821285 -0.095865391124 -8.07674247055e-21)
(1.01151719756 -0.0672581350302 5.09408478531e-21)
(1.016751169 -0.0471031090977 5.23255105152e-21)
(1.01964941399 -0.0321946480284 -9.48201234649e-21)
(1.02121252252 -0.0212789121164 -2.10892768736e-22)
(1.02198016304 -0.00863189331387 1.3140713366e-22)
(0.884747789239 -0.551496690112 -2.02988845311e-20)
(0.942263057142 -0.34651980183 7.09984228447e-20)
(0.978526242246 -0.223678339158 3.77079063939e-21)
(0.998984591567 -0.148619032497 -9.46268008731e-22)
(1.01097970974 -0.101580806726 -2.47937266073e-20)
(1.01773613034 -0.0704735477402 5.37028239739e-21)
(1.02129345206 -0.0488872639048 -3.56852258999e-21)
(1.02311482422 -0.0331570190385 -4.29579570317e-21)
(1.02398887451 -0.0217788280323 1.11009029702e-21)
(1.02426967071 -0.00880146998111 -1.8706155103e-21)
(0.962650843445 -0.589852073512 3.02835978818e-19)
(0.978612461933 -0.372038377018 8.16873441781e-20)
(1.00075592055 -0.23957022158 0)
(1.01326149311 -0.157907426948 -4.62086793508e-22)
(1.02042382743 -0.106834344334 1.97416312454e-20)
(1.02428291009 -0.0733807404183 1.14203875554e-21)
(1.02603170076 -0.0504491572698 -1.56534613964e-20)
(1.02665330453 -0.0339558785776 4.3691826039e-21)
(1.02680857339 -0.022161337712 -4.15130055275e-23)
(1.02658306338 -0.00892091559049 -3.10524751861e-22)
(1.05114302836 -0.62218946092 -4.37761841901e-19)
(1.01683142756 -0.397086870749 -2.18887605712e-19)
(1.02273794049 -0.255527647974 5.17301977712e-20)
(1.027495591 -0.167059819921 -1.65932587203e-22)
(1.02994159115 -0.111841378617 -2.31482896877e-21)
(1.0309162596 -0.0760308699248 -1.50631645344e-20)
(1.03084268886 -0.0517900869259 3.95905584725e-21)
(1.03025601423 -0.0345821292044 5.30029416585e-22)
(1.02964520508 -0.0224182636145 -3.22451523904e-21)
(1.0289040961 -0.00898943355289 -2.78660402169e-21)
(1.15630388781 -0.645603468379 3.03292800875e-19)
(1.06737485457 -0.418220014004 -2.22503136218e-19)
(1.04851247936 -0.272152834863 -4.00480626716e-20)
(1.04268334357 -0.177261021691 -4.17899419704e-20)
(1.03968444176 -0.117447328569 -2.36603476453e-20)
(1.0376266936 -0.0788961905563 -1.15851820225e-20)
(1.0356668213 -0.0531370716815 -5.59139835391e-21)
(1.03386344431 -0.0351284853329 0)
(1.03247104825 -0.0225824443805 -3.96541316924e-22)
(1.03121410993 -0.00900091943135 2.07809600963e-21)
(1.31134193738 -0.632034643313 5.04692855186e-19)
(1.16734509709 -0.41863554368 1.66477193294e-19)
(1.10450865687 -0.273972078899 -1.12507073619e-19)
(1.07477510919 -0.178960992656 7.26328333983e-21)
(1.0585766663 -0.118395135954 9.07761039728e-21)
(1.04926375429 -0.0791774657349 -5.26762199823e-21)
(1.04323971063 -0.0530192462879 3.12587257018e-22)
(1.03903935038 -0.0348445236346 4.54077782117e-21)
(1.03627238282 -0.0222763972305 -3.16361501751e-21)
(1.03418892622 -0.00886144305842 8.96191580985e-23)
(1.36379860875 -0.518944180546 -1.28858925486e-20)
(1.20227483925 -0.357344615562 1.57361374314e-19)
(1.1336303136 -0.242820577894 1.17954681158e-19)
(1.09765854197 -0.163832439233 -1.4051329178e-20)
(1.07493667758 -0.110435536437 5.51045446987e-20)
(1.06057831831 -0.0745376260678 3.58383780998e-20)
(1.05111601268 -0.0501077180305 2.45438699524e-20)
(1.04467688446 -0.0329789171914 -2.42169913313e-21)
(1.04051542407 -0.0210976168964 8.59315983932e-21)
(1.03753408969 -0.00838531858562 3.85561889182e-21)
(1.42162988714 -0.445120443919 -1.41399579909e-19)
(1.25328171229 -0.318340742425 -1.08305266398e-20)
(1.16900847022 -0.220309613403 5.73272873845e-21)
(1.12169107503 -0.150613044375 4.20010409808e-37)
(1.0911810388 -0.102282555607 8.23551350286e-22)
(1.07158849247 -0.0692639489535 -9.83847123587e-35)
(1.05870035464 -0.0466021691728 -2.93697757434e-21)
(1.05004892461 -0.0306597623907 -2.13943995402e-34)
(1.04455090264 -0.0196038287357 8.55289282015e-22)
(1.04066552668 -0.00778816119352 -2.5464320256e-21)
(1.45742881283 -0.366446896328 -2.01680646513e-34)
(1.28987843727 -0.271477368132 -4.12560425575e-20)
(1.19743437981 -0.192287538521 -4.15408933965e-20)
(1.1422325977 -0.133694114043 0)
(1.10558946531 -0.091708222041 -2.33198761014e-20)
(1.08155367049 -0.0624127549043 -1.60143772977e-20)
(1.06563795254 -0.0420758848184 -9.30650301547e-21)
(1.05497636975 -0.0276929931385 -2.63557350098e-34)
(1.04825977596 -0.0177102668059 -2.86529715621e-21)
(1.04352726344 -0.00703759082753 2.41736217917e-21)
(1.48017673105 -0.295041792816 -8.77751390156e-20)
(1.31793551186 -0.225578954796 4.55602157429e-21)
(1.2206509365 -0.16283994059 0)
(1.15955593946 -0.114749363535 0)
(1.1180279725 -0.0793921925469 0)
(1.09028203469 -0.0542855056327 0)
(1.07175408968 -0.0366766696474 -5.77324782631e-22)
(1.05935704893 -0.0241571720364 -2.94681304676e-34)
(1.05153396134 -0.0154583792265 7.5503132595e-22)
(1.04606087237 -0.00614651101082 2.8922809707e-34)
(1.49415264315 -0.22927553016 -3.72334890943e-20)
(1.33877691266 -0.180038775397 0)
(1.23897154464 -0.132143135386 0)
(1.17365623434 -0.0941929931906 0)
(1.12837504618 -0.0656662600706 0)
(1.09763471016 -0.0450969246659 0)
(1.07695805687 -0.0305359240492 9.69765502915e-22)
(1.06308727252 -0.0201307260533 5.74818048219e-21)
(1.05434580912 -0.0128925281033 7.09886185542e-22)
(1.04820921698 -0.00513042992308 3.22407207198e-21)
(1.50224113006 -0.16859138849 0)
(1.35359415233 -0.135348512065 -1.3088934159e-20)
(1.25274998781 -0.10071064628 -1.68160988744e-20)
(1.18454313086 -0.0724700650029 0)
(1.13649949968 -0.0508494757834 -1.07939782367e-20)
(1.10348128837 -0.0350578867988 -7.70553830522e-21)
(1.08112484058 -0.0237884480842 -4.39241145172e-21)
(1.06608091076 -0.0156978736411 -3.36894575152e-21)
(1.05659082291 -0.0100627479426 4.50741085077e-21)
(1.04991113164 -0.00400811781542 1.40566900274e-21)
(1.50549772418 -0.111830968003 9.12317378973e-21)
(1.36225682605 -0.0914698487648 7.09869557873e-21)
(1.26135071316 -0.0686898146815 -4.02132169439e-21)
(1.19148186416 -0.0497745319937 2.92405240042e-36)
(1.14166790692 -0.035098749542 5.99138152593e-22)
(1.10712288118 -0.0242741783746 -6.14167579163e-35)
(1.08361303396 -0.0165001419853 7.38191338489e-22)
(1.06773845596 -0.0108975856654 3.16389164078e-21)
(1.05772160631 -0.00698624534186 5.86756850509e-22)
(1.05065090369 -0.00277849475171 -1.96821959712e-21)
(1.48431504097 -0.0556875099629 -4.50215631849e-20)
(1.34506879928 -0.0505786688864 1.22935413308e-20)
(1.24674753207 -0.0391558010186 1.31814914487e-20)
(1.17796775456 -0.0287454610488 0)
(1.12860736262 -0.0204045907948 7.80075670678e-21)
(1.09418128064 -0.0141607032548 5.52211517559e-21)
(1.07065188541 -0.00964387599491 4.40110191197e-21)
(1.05476252467 -0.00637652943619 2.44080400105e-21)
(1.04471520346 -0.00408939268141 -2.30258572021e-21)
(1.03764180877 -0.00162304749579 2.41154077981e-21)
(1.11101342083 -0.00314160233762 0)
(1.02257502001 -0.00700573542569 0)
(0.953878863688 -0.00623729959929 0)
(0.903967121801 -0.00475987621274 0)
(0.867522529801 -0.00342398312284 0)
(0.841898144103 -0.00239846466036 0)
(0.824286401889 -0.00164417363396 5.7303452603e-22)
(0.812329819833 -0.00109673247473 -3.60078449178e-36)
(0.804735546204 -0.000690257909672 5.80278317468e-22)
(0.799381823553 -0.000262358558391 1.80543847064e-21)
(2.12728550262 -0.0260632617776 8.64102144096e-19)
(2.11773367767 -0.132536551801 5.99603595699e-20)
(2.09045795452 -0.236790158162 -1.30093479256e-19)
(2.04548882394 -0.336667059756 -3.37745341935e-19)
(1.98507611986 -0.429953982083 -1.19889654429e-19)
(1.90744775154 -0.516587599756 -1.76246624128e-19)
(1.82427867838 -0.587291176254 -4.10190522538e-19)
(1.71187013111 -0.663886809089 1.33232346006e-19)
(1.6343985055 -0.6834888533 0)
(1.46811214273 -0.77264271922 3.41457322774e-20)
(2.04093370953 -0.0190688860775 2.13644900089e-19)
(2.03315413878 -0.0987547401371 -3.34368154188e-19)
(2.01227919488 -0.177426104205 7.48657918393e-22)
(1.97688500996 -0.254285287447 -1.32799553004e-19)
(1.93256494061 -0.325851859418 1.35856837032e-20)
(1.86958979786 -0.398127533973 1.15003015426e-19)
(1.81271109025 -0.448677908172 3.43920752045e-20)
(1.71845062172 -0.528563544474 9.84283121864e-20)
(1.6669124668 -0.528881638322 -1.20067560637e-19)
(1.549598793 -0.624567174131 2.19761865397e-20)
(1.96710351616 -0.0141857806489 -1.14161609545e-19)
(1.96124817656 -0.0774789653155 2.0412070404e-19)
(1.94523436305 -0.139559085453 1.89596261691e-19)
(1.91688169251 -0.200603749651 -2.19772178352e-19)
(1.88257505501 -0.25642188776 1.08349752231e-19)
(1.8316768555 -0.31597053308 1.03397423614e-19)
(1.78764133766 -0.353446215715 -7.04108648455e-20)
(1.7141064214 -0.424389777299 8.33074154747e-20)
(1.66791247488 -0.42213317455 8.39484708241e-20)
(1.58235627037 -0.506771067982 1.07767494188e-19)
(1.91034444702 -0.0131133623297 -1.85200952072e-19)
(1.90567249348 -0.0616353616286 5.40565624997e-20)
(1.89236528995 -0.109359137801 -1.15278460577e-19)
(1.8688337552 -0.156958453899 -6.79872023895e-20)
(1.84012541281 -0.200373012001 4.12022987323e-20)
(1.79860208776 -0.248266122205 -1.03960010408e-19)
(1.76049949679 -0.277791271444 7.37979215573e-20)
(1.70323182317 -0.33602161301 3.05234917095e-20)
(1.66023089395 -0.335810543629 -1.76370005745e-20)
(1.59606559974 -0.404657243208 8.28979898878e-21)
(1.86606107308 -0.0112074830166 5.58685639801e-20)
(1.86220889916 -0.0481901026785 4.24086115439e-20)
(1.8507663737 -0.0845333835131 -6.52396710273e-20)
(1.83081324804 -0.120956963188 2.29785764509e-19)
(1.80567618579 -0.154238302442 1.78299815188e-20)
(1.77116069048 -0.191290651136 -1.3053477682e-19)
(1.73680327999 -0.214666723008 1.96366665319e-20)
(1.69099974871 -0.259613028514 -8.54950293842e-20)
(1.65137206067 -0.261620885515 1.17389529038e-19)
(1.60052706839 -0.314617106724 8.53096634237e-20)
(1.8325164789 -0.0105581996291 -1.00033171455e-19)
(1.82933735038 -0.0376502441573 -5.76052119985e-20)
(1.81917096297 -0.0642804705618 3.82369979214e-20)
(1.80174246123 -0.0910765916436 7.87033654514e-20)
(1.77895612202 -0.115775879837 3.0398932676e-20)
(1.74924639242 -0.143287057919 -3.91512108069e-20)
(1.71745675372 -0.161433206835 3.0318721216e-21)
(1.6790400233 -0.194719343818 5.80703650385e-20)
(1.64221022084 -0.198171420899 1.0914233474e-19)
(1.59932497988 -0.23753312908 -5.29812567895e-20)
(1.80801865273 -0.0103357548305 -4.282305675e-20)
(1.80543558742 -0.028871944061 -7.75209799773e-20)
(1.79624671235 -0.0470639648538 -4.56973120303e-20)
(1.78057117677 -0.0654460096652 -9.490663913e-20)
(1.75943002936 -0.0826003138301 -2.50151052945e-20)
(1.73283314244 -0.101802167226 -7.46604518419e-21)
(1.70281094852 -0.115067523691 4.82271466602e-20)
(1.6688594647 -0.138593728584 -1.90598856174e-20)
(1.63418454053 -0.142398466125 -3.06562292966e-20)
(1.59583416419 -0.170603339316 1.18660891248e-20)
(1.78730463556 -0.0100890351129 3.34256289592e-20)
(1.78578777136 -0.0209166054235 3.59010706488e-20)
(1.77797226108 -0.0314469792923 1.25537769938e-20)
(1.76419235892 -0.0420944851302 -2.17566062192e-20)
(1.74483286175 -0.0521538396915 -1.74315333061e-20)
(1.72075948758 -0.0637968735666 3.84955569301e-20)
(1.69235030476 -0.072091521934 -5.69157255692e-22)
(1.66117159235 -0.0874360897466 -5.07599658045e-20)
(1.62802724009 -0.0903629489273 1.21509056946e-20)
(1.59207695504 -0.110329911505 4.9776705875e-20)
(1.71463789923 -0.0142099360559 -2.0888189845e-20)
(1.71466392795 -0.0167123637247 6.64682483999e-21)
(1.71091412318 -0.0188876812025 3.58348203954e-20)
(1.70303307458 -0.0211291035198 3.90857566437e-21)
(1.69057434364 -0.0231148441575 -8.12984818355e-22)
(1.67448067188 -0.0265143835753 -1.09115403986e-20)
(1.65337638307 -0.0281340994582 2.24499745225e-20)
(1.6306821382 -0.0353582813572 -3.13061224734e-20)
(1.60200268157 -0.0351540738774 3.54347229407e-20)
(1.57547641071 -0.047236088546 1.1874848144e-19)
(1.12436823469 -0.00834920947084 2.94359118429e-20)
(1.11646918117 -0.00550849071984 1.81595665744e-20)
(1.11160081316 -0.00269566237499 1.4357402823e-20)
(1.11014278267 -1.46742987413e-05 1.48769370152e-20)
(1.11120127629 0.00248149229697 -7.76246150509e-22)
(1.11545199162 0.00450595436164 6.33419440785e-21)
(1.11877634369 0.00657867280963 -9.80725617538e-21)
(1.12798511657 0.0063923999607 3.2262778317e-21)
(1.12575751164 0.00941315558118 -5.09238985108e-21)
(1.14272561362 0.00467779526622 5.65889075629e-21)
(1.38347263895 0.750852341904 -5.55985382124e-20)
(1.36743730422 0.802668282773 2.34915339822e-20)
(1.37219135201 0.85880746151 -4.84691294733e-19)
(1.38263315892 0.921264207101 2.07720918036e-19)
(1.39282801735 0.988261452354 9.10922032662e-19)
(1.39901298805 1.05677073065 -1.322766523e-19)
(1.38406234373 1.1138490167 -8.81237332411e-19)
(1.28726902996 1.10268247343 -1.84789587351e-20)
(0.982956597857 0.885903572332 -4.21263009003e-19)
(0.399412913896 0.359299781729 1.70709351871e-19)
(1.54865243669 0.725583499 0)
(1.54066407482 0.774940990398 5.5933365755e-19)
(1.54116944627 0.827047794825 1.26666770647e-18)
(1.5486740731 0.887434011859 -7.70013243989e-19)
(1.56052785118 0.953975679432 -1.84291123895e-18)
(1.57107999755 1.02285398923 -1.38576352715e-19)
(1.55904367586 1.08037916547 -1.78908461661e-19)
(1.45336784831 1.0696136849 6.63361891818e-19)
(1.10816797949 0.856009381429 8.6246141549e-19)
(0.444905240697 0.340374081931 3.53851011979e-19)
(1.68747956902 0.703814059089 6.29734031011e-20)
(1.69214263733 0.749404296513 0)
(1.69800229672 0.797397096879 -6.48258085161e-20)
(1.70929493855 0.852614723662 7.78843851696e-19)
(1.725521666 0.91400678519 5.20461916225e-20)
(1.74079429936 0.97843426588 -1.91839630255e-18)
(1.73101968776 1.03214351695 1.25288720983e-18)
(1.61514980556 1.01927984801 8.02501925587e-19)
(1.22770525285 0.81120129666 -7.75932779246e-19)
(0.485818152509 0.314678147555 -2.77080315862e-19)
(1.80014352216 0.667645652452 -1.27942639963e-19)
(1.8162858011 0.709031137836 -1.00422247603e-19)
(1.83249651529 0.752884707455 2.27522455305e-19)
(1.8527291429 0.802741637918 -2.86432503035e-19)
(1.87685249844 0.85827785749 -1.37521923784e-18)
(1.89893227569 0.916902096721 -1.08095105533e-18)
(1.89212966523 0.964979650151 1.20814430795e-18)
(1.76541604183 0.948835686241 8.33846910466e-19)
(1.33487630995 0.749168138853 0)
(0.517608317518 0.280671821361 0)
(1.89649607521 0.60939341361 -7.8217187154e-19)
(1.9221526997 0.646807071362 -1.39598544727e-18)
(1.94877538035 0.686625893331 -5.52906377681e-19)
(1.97888891679 0.731349013843 -3.29011763716e-20)
(2.01200666893 0.780979486077 0)
(2.04170126887 0.833239999535 1.38549723885e-19)
(2.03771574085 0.874791696105 1.64960423152e-19)
(1.89886730835 0.855262781009 2.13746407441e-19)
(1.42447096454 0.668549062556 -3.24151476372e-19)
(0.536933539598 0.238802026398 -8.04213797677e-20)
(1.98329717488 0.530806644905 9.52944478221e-19)
(2.01610014085 0.564122596114 -4.05888714756e-20)
(2.05111531662 0.599584827793 -1.14198570135e-18)
(2.08975424684 0.638911587547 0)
(2.13103220352 0.682209160009 0)
(2.1674411434 0.727427606216 0)
(2.16478957863 0.761732667673 1.53753075214e-18)
(2.01180537823 0.73933747842 -1.90391514882e-18)
(1.49305806931 0.571559503862 -1.0827510991e-18)
(0.542458922154 0.191794389178 -9.63357830277e-20)
(2.06040253103 0.436702278831 -1.28152058279e-18)
(2.09836849717 0.465194083283 -2.70986719784e-18)
(2.13970676493 0.495367822412 -4.78663535142e-21)
(2.18504937561 0.528475520751 5.67654697345e-19)
(2.23289586795 0.564663153043 -3.98087159575e-20)
(2.27428175613 0.601989658668 1.30754470362e-18)
(2.27075657879 0.628441243893 -7.78082325536e-19)
(2.10077979222 0.604440596974 -2.42733904391e-18)
(1.53882792547 0.462523394171 1.82560324153e-19)
(0.533551755958 0.142848405582 1.2224258225e-19)
(2.12448519362 0.331179557827 -1.03531735467e-18)
(2.16632934033 0.353761389206 1.51687530382e-20)
(2.21236784121 0.377475282938 4.101379676e-19)
(2.26272387013 0.403357915342 -4.06439400779e-19)
(2.31539697083 0.431590555787 6.48810567562e-19)
(2.35989812127 0.460363914401 1.85724629495e-18)
(2.35268589231 0.47947283394 -2.14097818183e-19)
(2.16417094493 0.454116382229 -1.44637370366e-18)
(1.5592224126 0.34699408945 2.8213318177e-19)
(0.512744239595 0.0977014224034 1.92618356499e-21)
(2.17220896336 0.217200924908 4.00967118761e-19)
(2.21700990039 0.233030437333 7.65653306275e-20)
(2.26645055371 0.249319621768 -4.34269625046e-19)
(2.3203386183 0.267056081833 -1.05052501983e-18)
(2.37606141949 0.286300714143 8.70890755195e-20)
(2.42158265095 0.306312594869 8.71669899812e-20)
(2.40920335217 0.318169964505 -1.74329112196e-18)
(2.19776896085 0.297096464685 7.98359793932e-19)
(1.5542307937 0.228411881896 1.89216643155e-19)
(0.483055132396 0.0534876464179 -1.26232861956e-19)
(2.20179807986 0.0969696143225 7.87561056372e-19)