/*--------------------------------*- C++ -*----------------------------------*\
  =========                 |
  \\      /  F ield         | OpenFOAM: The Open Source CFD Toolbox
   \\    /   O peration     | Website:  https://openfoam.org
    \\  /    A nd           | Version:  13
     \\/     M anipulation  |
\*---------------------------------------------------------------------------*/
FoamFile
{
    format      ascii;
    class       volScalarField;
    location    "0.52";
    object      strainRateViscosityModel:nu;
}
// * * * * * * * * * * * * * * * * * * * * * * * * * * * * * * * * * * * * * //

dimensions      [0 2 -1 0 0 0 0];

internalField   nonuniform List<scalar> 
1800
(
9.40488
9.19759
9.01004
8.80091
8.57609
8.34408
8.11542
7.89817
7.62431
7.37944
9.58523
9.41878
9.26689
9.09731
8.91114
8.71139
8.50353
8.28865
8.02733
7.70218
9.70219
9.56269
9.42803
9.27095
9.08866
8.87896
8.64088
8.36901
8.03059
7.61067
9.77539
9.65614
9.53324
9.38287
9.20048
8.9817
8.72279
8.41595
8.02879
7.55461
9.82168
9.7183
9.60558
9.46166
9.2807
9.05695
8.78548
8.45888
8.04776
7.55618
9.85185
9.76081
9.6573
9.52059
9.34355
9.11896
8.84034
8.50016
8.07152
7.57022
9.87179
9.78991
9.69399
9.56396
9.39147
9.16769
8.8842
8.53252
8.08736
7.57569
9.88475
9.80925
9.71888
9.59395
9.42495
9.20146
8.9131
8.55005
8.08853
7.56356
9.8926
9.82107
9.73416
9.61221
9.44467
9.21963
8.92484
8.54923
8.07121
7.52872
9.89646
9.82686
9.74153
9.6207
9.4531
9.22574
8.92513
8.53953
8.05038
7.49285
1.77435
1.4052
1.21531
1.32474
1.72972
2.24634
2.49269
2.44906
2.36082
2.33702
3.70072
1.78599
1.49787
1.98154
2.68937
2.9691
2.82052
2.67715
2.69198
2.74418
4.68414
2.575
2.43998
3.17304
3.59152
3.34896
3.08859
3.12396
3.26179
3.34164
5.25982
3.88511
3.81707
4.2108
4.17945
3.83336
3.72626
3.85832
3.96002
4.00915
6.05225
5.27658
5.1184
5.12017
4.91494
4.65539
4.58043
4.61428
4.61495
4.65498
6.95867
6.46027
6.22691
6.03777
5.78814
5.54596
5.39017
5.29477
5.2242
5.27697
7.77139
7.37777
7.11672
6.86
6.58714
6.32052
6.08756
5.90172
5.7715
5.82523
8.40005
8.05528
7.79191
7.51556
7.22624
6.93101
6.64218
6.38663
6.19297
6.23017
8.84933
8.54534
8.29092
8.01016
7.7055
7.37928
7.03552
6.70121
6.41612
6.42233
9.16164
8.90152
8.66627
8.39658
8.09559
7.76563
7.40636
7.03569
6.70879
6.75284
2.19422
1.72998
1.33206
0.934321
0.612783
0.333375
0.153487
0.0939896
0.101723
0.153009
2.53009
1.85109
1.40972
0.933098
0.589796
0.317453
0.136663
0.0556078
0.0390665
0.0653788
2.95143
1.98138
1.48396
0.933763
0.558663
0.293889
0.120423
0.0361785
0.0195685
0.0144906
3.44404
2.15156
1.55608
0.938893
0.523821
0.265703
0.103609
0.0277598
0.0169466
0.0108865
3.986
2.38929
1.63348
0.948836
0.488239
0.23417
0.0874792
0.0242968
0.0164682
0.0107975
4.53101
2.70001
1.72935
0.965234
0.454741
0.199923
0.0722205
0.0226974
0.0164742
0.0107575
4.99902
3.05944
1.85085
0.987659
0.424039
0.163656
0.0572536
0.0217175
0.0165145
0.0108147
5.31456
3.44227
2.01772
1.03018
0.40339
0.128853
0.0422945
0.020248
0.015016
0.0180658
5.34494
3.72551
2.16709
1.06202
0.381047
0.095576
0.0289408
0.0174694
0.0170013
0.0894731
5.20357
3.99178
2.40285
1.16587
0.39864
0.0795411
0.0177006
0.0124939
0.0797512
0.179443
4.94608
3.94512
2.45964
1.17958
0.372524
0.0516357
0.0117284
0.075916
0.176541
0.264525
5.33235
3.35047
2.14122
0.996185
0.350359
0.112539
0.0970745
0.184692
0.270199
0.371706
4.90563
3.04375
2.24214
1.19378
0.577282
0.271934
0.190634
0.254996
0.354695
0.454973
4.54514
3.62765
2.67514
1.63123
0.882698
0.475061
0.320102
0.350276
0.434537
0.529105
5.11272
4.74573
3.33996
2.15979
1.23319
0.715668
0.481502
0.453649
0.513041
0.59032
6.25416
5.66914
4.05692
2.67294
1.5973
0.973211
0.663127
0.572179
0.592701
0.642218
7.26274
6.37385
4.71434
3.15527
1.95794
1.23703
0.855132
0.699117
0.673266
0.68586
8.00017
6.91222
5.26053
3.59004
2.30142
1.5007
1.05189
0.832407
0.755721
0.724195
8.5188
7.33086
5.69787
3.97097
2.62181
1.756
1.2429
0.961187
0.832785
0.755353
8.93102
7.69127
6.05013
4.28368
2.92658
2.0288
1.45847
1.11139
0.926458
0.792285
6.51283
6.43966
6.43046
6.4488
6.48746
6.53011
6.58223
6.71084
6.89561
6.82677
0.260749
1.05731
2.008
2.92317
3.70424
4.317
4.7339
4.98361
5.22289
5.72913
3.85065
3.54368
3.28434
3.111
3.10606
3.24977
3.47217
3.71356
4.16534
4.84564
6.64426
6.6273
6.53717
6.34465
6.0431
5.65745
5.24892
4.89512
4.73834
4.5483
7.69189
7.67658
7.63216
7.54133
7.39617
7.18986
6.92701
6.61931
6.2856
5.65568
8.44954
8.43314
8.39438
8.32774
8.2296
8.09675
7.9284
7.71686
7.42791
6.90775
8.93969
8.92395
8.8903
8.8368
8.76168
8.66292
8.53818
8.37895
8.15471
7.80866
9.27299
9.25982
9.23247
9.18986
9.13052
9.05246
8.9527
8.82483
8.65283
8.43093
9.50446
9.49417
9.47308
9.44024
9.39426
9.33319
9.25424
9.15287
9.02289
8.87536
9.6899
9.68285
9.66852
9.64604
9.61405
9.5707
9.51361
9.43975
9.34638
9.2441
7.24855
7.52649
7.83701
8.08763
8.34471
8.59952
8.84131
9.06154
9.25457
9.46027
7.58337
7.94817
8.24096
8.48106
8.70927
8.92475
9.12226
9.29898
9.45391
9.61807
7.49866
7.95743
8.32592
8.62045
8.8757
9.09769
9.28803
9.44951
9.58536
9.72227
7.447
7.95764
8.37374
8.70196
8.97655
9.20594
9.3947
9.54806
9.67131
9.78824
7.4564
7.98068
8.41859
8.76487
9.05052
9.28354
9.46977
9.61591
9.72869
9.83023
7.48245
8.01168
8.464
8.82145
9.11233
9.34474
9.52606
9.66447
9.76796
9.85764
7.50365
8.03786
8.50277
8.86862
9.16197
9.39189
9.56764
9.6989
9.79479
9.8757
7.51115
8.05246
8.52871
8.90208
9.19746
9.42521
9.5964
9.72213
9.81243
9.88729
7.49836
8.05045
8.53742
8.91898
9.21768
9.44503
9.61372
9.73606
9.8229
9.89404
7.48288
8.04359
8.53593
8.92344
9.22526
9.4533
9.62124
9.74217
9.82746
9.89694
2.55077
2.50832
2.52769
2.73813
2.91734
2.54039
1.69002
1.17904
1.51991
4.17515
2.96047
2.87226
2.71403
2.71404
3.10265
3.42402
2.81213
1.9001
2.11868
5.12575
3.45274
3.40852
3.25039
3.06526
3.26646
3.8236
3.79953
3.15441
3.28057
5.44984
3.94773
3.93646
3.90912
3.79935
3.89202
4.31889
4.58836
4.46376
4.65458
5.90816
4.50157
4.47401
4.54865
4.61916
4.78195
5.11466
5.43792
5.61692
5.8932
6.62811
5.10447
5.06189
5.20085
5.39825
5.6581
5.98079
6.30835
6.5944
6.89931
7.40503
5.65598
5.61959
5.8198
6.09159
6.40818
6.74088
7.06825
7.37761
7.67809
8.08597
6.0683
6.0535
6.316
6.64272
6.99502
7.33962
7.66701
7.97389
8.25869
8.6109
6.26147
6.28011
6.63141
7.02599
7.42
7.7842
8.1165
8.41651
8.68272
8.98794
6.60093
6.57054
6.95626
7.37949
7.78121
8.14296
8.46639
8.75035
8.99297
9.25188
0.106622
0.153728
0.109667
0.0521803
0.0130136
0.369956
0.909753
1.46878
1.94032
2.42476
0.0727808
0.138734
0.105653
0.0519711
0.0138802
0.359966
0.917074
1.53595
2.02394
2.69521
0.0510818
0.13112
0.104775
0.0557256
0.0227659
0.362651
0.929778
1.59163
2.0998
3.01021
0.0383636
0.130573
0.107952
0.064528
0.0409155
0.375546
0.943646
1.63436
2.20745
3.39974
0.0322761
0.13557
0.113639
0.0757542
0.0646626
0.391705
0.954603
1.67433
2.38742
3.8707
0.0314826
0.14432
0.120092
0.0866691
0.0897845
0.406755
0.965536
1.73418
2.65421
4.36752
0.0360135
0.156223
0.125848
0.0951865
0.111425
0.417229
0.98081
1.83047
2.98551
4.79768
0.0469962
0.172109
0.130535
0.101246
0.128867
0.431002
1.0242
1.98911
3.35161
5.08184
0.0669898
0.192557
0.134277
0.101381
0.133567
0.433546
1.06168
2.13953
3.62947
5.08471
0.0987485
0.214887
0.138793
0.104838
0.150409
0.481135
1.19778
2.3973
3.87935
4.89315
0.156902
0.242733
0.146941
0.10279
0.139339
0.478676
1.25901
2.50951
3.88833
4.67555
0.261056
0.273031
0.136918
0.0805368
0.0758667
0.374064
1.12304
2.30576
3.4336
5.19499
0.426038
0.270576
0.108618
0.0178664
0.0146054
0.317653
1.13522
2.34356
3.25405
4.93927
0.678854
0.258247
0.023225
0.0816032
0.112215
0.519187
1.41795
2.61311
3.70842
4.69584
1.06239
0.0496972
0.253276
0.251629
0.328511
0.881136
1.92678
3.19948
4.70293
5.17471
1.51476
0.115196
0.533753
0.432288
0.611834
1.3039
2.47148
3.91435
5.59737
6.22257
2.19388
0.686114
0.850808
0.705842
0.957902
1.73854
2.99218
4.59274
6.30232
7.21639
3.79173
1.70449
1.27245
1.05166
1.3334
2.15391
3.46294
5.16532
6.8543
7.96889
6.86001
3.57612
1.96259
1.43434
1.69371
2.53003
3.87637
5.63181
7.29535
8.50728
9.04904
6.38399
2.84466
2.01247
2.12868
2.90507
4.22837
6.02006
7.6866
8.93806
6.62559
6.68843
6.51153
6.3896
6.34908
6.32276
6.30568
6.31739
6.36197
6.47627
5.53065
5.01169
4.76758
4.52619
4.12776
3.54153
2.79937
1.93262
1.04498
0.284339
4.85106
4.23727
3.82733
3.61637
3.42927
3.30965
3.31457
3.45703
3.65499
3.87413
4.71052
4.88389
5.02665
5.33662
5.70132
6.05201
6.33385
6.52146
6.61665
6.64169
5.6864
6.28505
6.61188
6.91119
7.17237
7.38153
7.53189
7.62822
7.67676
7.69245
6.86565
7.38856
7.68448
7.9024
8.07667
8.21491
8.31786
8.3886
8.43059
8.44892
7.76519
8.12057
8.35203
8.51796
8.64801
8.75102
8.82959
8.88584
8.92166
8.93901
8.4046
8.63272
8.8089
8.94095
9.04402
9.12466
9.18597
9.23007
9.25855
9.2726
8.86616
9.01619
9.14761
9.25059
9.33082
9.39282
9.43943
9.47267
9.494
9.50442
9.24866
9.35042
9.44299
9.51629
9.57293
9.61587
9.64747
9.66956
9.68348
9.69011
9.50942
8.98526
8.23578
6.92815
5.59791
0.131167
3.36079
5.9603
7.21397
8.15176
9.46537
8.92147
8.16802
6.89048
5.54933
0.563761
2.62217
5.70594
6.91631
7.91384
9.36562
8.78273
8.02016
6.80949
5.36629
1.60347
1.41353
5.20656
6.30923
7.40317
9.18248
8.54502
7.77436
6.65498
5.18636
2.74001
0.723064
4.23832
5.42146
6.57134
8.86802
8.17346
7.40386
6.37678
5.02641
3.36799
0.97093
2.63157
4.31686
5.39366
8.3504
7.62956
6.87323
5.9171
4.76497
3.43998
1.71921
1.30187
3.04925
3.98804
7.53589
6.89641
6.15533
5.22738
4.29954
3.26949
2.14303
1.17237
1.65625
2.55745
6.32523
6.03734
5.2811
4.23175
3.53343
2.91263
2.11835
1.43494
1.06838
1.23551
4.63156
5.23197
4.47408
2.99954
2.43721
2.27461
1.85594
1.38449
1.1223
0.659007
2.67265
4.53913
4.02134
1.96687
1.39697
1.48847
1.40979
1.21127
1.06355
0.84472
1.27662
3.7881
3.6662
1.33774
0.816416
0.897544
0.970639
0.955632
0.971096
1.01928
0.613402
2.96811
3.08127
0.957261
0.575412
0.639378
0.75842
0.818953
0.843037
0.876142
0.355323
2.18731
2.28391
0.688525
0.49201
0.593909
0.724722
0.809145
0.847092
0.872021
0.265319
1.54869
1.48757
0.520603
0.532562
0.671831
0.785278
0.856382
0.879956
0.890391
0.239741
1.0186
0.844123
0.511289
0.666404
0.800064
0.901281
0.964835
0.980697
0.977786
0.243057
0.49484
0.497739
0.632693
0.813555
0.950976
1.0488
1.10668
1.11741
1.10937
0.179011
0.20372
0.505115
0.752519
0.970431
1.11626
1.20638
1.25375
1.27051
1.27098
0.0458625
0.249455
0.646811
0.918941
1.13261
1.2508
1.3272
1.39646
1.45226
1.47372
0.0587648
0.490629
0.819824
1.09443
1.2296
1.3382
1.48688
1.6437
1.73052
1.74634
0.684938
0.860769
1.04045
1.1866
1.3254
1.5956
1.90529
2.07502
2.07859
2.04651
0.36287
0.08011
0.222289
0.547401
0.789948
0.885558
0.876233
0.823659
0.780435
0.772145
0.461619
0.201043
0.316997
0.518073
0.719567
0.805092
0.796905
0.749804
0.713447
0.717585
0.524769
0.369887
0.437182
0.510121
0.64941
0.725295
0.719167
0.67646
0.646112
0.661284
0.637058
0.584554
0.591826
0.551564
0.583513
0.638311
0.636228
0.600633
0.577788
0.603325
0.803171
0.799364
0.737536
0.633521
0.538254
0.551059
0.551253
0.52394
0.508967
0.54368
1.00589
0.99476
0.870172
0.732187
0.526751
0.469056
0.464731
0.446496
0.439815
0.482296
1.22349
1.16618
0.984727
0.819499
0.547852
0.402218
0.379407
0.369178
0.370622
0.419268
1.44826
1.32076
1.08372
0.881543
0.583393
0.360036
0.299406
0.293073
0.301798
0.354149
1.68164
1.46541
1.17118
0.91693
0.611952
0.343348
0.231016
0.219733
0.233482
0.288204
1.92487
1.60228
1.25266
0.931679
0.621887
0.339767
0.181564
0.15207
0.166675
0.217666
2.00888
0.746892
0.715505
0.960962
1.19077
1.2761
1.25052
1.17922
1.11411
1.04173
1.39434
0.482629
0.577165
0.870502
1.10316
1.19033
1.16878
1.10211
1.0412
0.982568
0.751688
0.28782
0.47947
0.79378
1.02933
1.11872
1.10061
1.0375
0.980638
0.933674
0.253601
0.170123
0.403892
0.722232
0.954717
1.04289
1.02659
0.966779
0.914349
0.8803
0.435945
0.0327978
0.26605
0.609803
0.859347
0.959216
0.95045
0.895409
0.847529
0.826364
9.35459
9.28999
9.14093
8.87301
8.43744
7.77876
6.87119
5.75914
4.5818
3.53688
9.19241
9.09558
8.88102
8.51155
7.94138
7.1363
6.10946
4.95492
3.8446
2.78667
9.02381
8.90018
8.62652
8.16092
7.46161
6.51597
5.37124
4.16847
3.08114
1.94231
8.81623
8.66211
8.32139
7.74779
6.906
5.81406
4.55481
3.29471
2.22585
1.09017
8.5874
8.37929
7.92571
7.17731
6.11235
4.79194
3.35057
2.08519
0.994135
0.302036
1.06095
1.02522
1.01727
1.02086
0.916039
0.800266
1.29389
3.682
3.8585
1.32363
0.950041
0.934702
0.927308
0.871906
0.719925
0.58954
0.911905
3.13987
3.10756
0.647884
0.986722
0.983208
0.96642
0.893648
0.748414
0.585852
0.699888
2.36935
2.34258
0.377733
1.05358
1.06536
1.06116
1.0014
0.890354
0.741816
0.657176
1.55312
1.62881
0.277463
1.185
1.20894
1.21447
1.16678
1.07602
0.951378
0.788838
0.905923
0.914181
0.246369
1.34832
1.36815
1.3763
1.35081
1.28056
1.14731
0.926389
0.666667
0.356269
0.216428
1.55014
1.54611
1.51407
1.47172
1.42001
1.31235
1.07251
0.749299
0.271465
0.0662512
1.81515
1.80835
1.72599
1.57452
1.43596
1.33885
1.20203
0.894191
0.490773
0.0466671
2.09399
2.14041
2.13715
1.94329
1.60315
1.31777
1.18273
1.0499
0.84837
0.671214
2.30305
2.35014
2.47341
2.52161
2.21755
1.62122
1.17792
1.06419
1.29781
2.02005
8.15157
7.21361
5.95994
3.36028
0.131424
5.59645
6.92766
8.23559
8.98528
9.50952
7.91316
6.91521
5.70493
2.62157
0.563632
5.54548
6.88902
8.16744
8.92153
9.46568
7.40172
6.30734
5.20478
1.41541
1.59976
5.3618
6.80723
8.01928
8.78285
9.36621
6.5687
5.41857
4.23614
0.726224
2.73173
5.18163
6.65214
7.77338
8.54535
9.18351
5.38927
4.31236
2.63248
0.97105
3.35668
5.02045
6.37333
7.40292
8.1742
8.86978
3.97961
3.04124
1.31001
1.7134
3.42674
4.75609
5.91229
6.87234
7.63103
8.35338
2.5407
1.65306
1.18735
2.13311
3.25082
4.2828
5.21861
6.15439
6.89926
7.54123
1.21694
1.08764
1.45217
2.10749
2.88035
3.50287
4.21729
5.28171
6.04319
6.336
0.671527
1.15334
1.4076
1.84264
2.23203
2.40027
2.98378
4.47882
5.243
4.6558
0.88546
1.10295
1.24782
1.4133
1.46422
1.36933
1.94342
4.02556
4.56433
2.71723
2.08921
0.54324
1.05905
0.634545
0.669159
0.760337
0.63236
0.299694
0.0629636
0.356794
1.62917
0.237386
0.866999
0.484668
0.575303
0.682477
0.592367
0.356284
0.266737
0.488997
1.33316
0.0578114
0.638733
0.34685
0.486433
0.602265
0.560227
0.459337
0.473581
0.591612
1.09643
0.0149788
0.390093
0.239124
0.401081
0.51775
0.560008
0.625652
0.731566
0.758353
0.845605
0.0909247
0.187856
0.16436
0.322046
0.440282
0.606326
0.803274
0.971716
0.976172
0.633172
0.155549
0.0509096
0.108165
0.248474
0.383926
0.691152
0.970493
1.18843
1.22131
0.46064
0.209816
0.0511725
0.0493848
0.183106
0.361876
0.782317
1.11063
1.37765
1.47471
0.32778
0.211304
0.103852
0.0104133
0.121438
0.368581
0.851636
1.22348
1.54647
1.7268
0.228491
0.196929
0.112889
0.0379227
0.0596962
0.381325
0.889855
1.31534
1.69829
1.96605
0.156794
0.174277
0.115363
0.0497863
0.0232317
0.382889
0.904694
1.39518
1.83138
2.18956
9.33656
6.77029
2.66589
1.70288
1.20739
1.12564
0.970201
0.784931
0.797918
2.03342
8.2109
4.63637
2.21547
1.42118
1.07563
1.04041
0.895639
0.653779
0.529227
1.3987
6.12006
3.06388
1.78541
1.2142
0.971334
0.975564
0.835678
0.563376
0.329843
0.74092
4.13287
1.87579
1.49685
1.00799
0.865888
0.907763
0.778239
0.489148
0.229551
0.224397
2.835
1.06135
1.24506
0.807925
0.763067
0.82917
0.687059
0.356679
0.0444334
0.397775
3.54771
4.58903
5.76305
6.87334
7.78028
8.43857
8.87378
9.1414
9.29026
9.35468
2.78084
3.84089
4.95215
6.10768
7.13569
7.94138
8.51177
8.88125
9.09575
9.19247
1.92829
3.07174
4.16199
5.36649
6.51343
7.46046
8.1605
8.62643
8.90021
9.02383
1.05488
2.20267
3.28133
4.54656
5.80987
6.90379
7.74667
8.32093
8.66196
8.81621
0.300255
0.961934
2.06351
3.3372
4.78496
6.10877
7.17533
7.92476
8.37892
8.58731
)
;

boundaryField
{
    left
    {
        type            calculated;
        value           nonuniform List<scalar> 
35
(
0.299476
0.570744
0.990662
1.62686
2.52412
3.69494
5.06574
6.47612
8.15853
9.4418
0.204602
0.125192
0.0749871
0.0462867
0.0322163
0.0278097
0.0322257
0.0500102
0.0896842
0.158887
4.93337
4.06128
3.23411
2.51225
1.91634
1.4258
1.0285
0.720779
0.490252
0.32249
9.61572
8.97909
7.92211
6.84788
5.85948
)
;
    }
    right
    {
        type            calculated;
        value           nonuniform List<scalar> 
35
(
1.04136
0.982672
0.934438
0.882204
0.829703
0.777119
0.724186
0.66929
0.612505
0.553781
0.492979
0.430073
0.364471
0.29732
0.22473
0.15741
0.0658815
0.0138049
0.0105558
0.0105189
0.010468
0.0105627
0.0193857
0.100523
0.199181
0.288573
0.396974
0.480491
0.552932
0.610809
0.657975
0.696246
0.729606
0.757125
0.790457
)
;
    }
    down
    {
        type            calculated;
        value           nonuniform List<scalar> 
40
(
9.4543
7.26628
2.89674
1.79183
1.24779
1.15413
0.996018
0.826608
0.898967
2.26061
3.83286
4.88231
6.03376
7.09268
7.94445
8.5549
8.95438
9.19918
9.33558
9.39482
9.39473
9.3353
9.19866
8.95351
8.55357
7.94252
7.08978
6.02858
4.87299
3.81866
2.23198
0.846965
0.759335
0.992809
1.22229
1.30553
1.2775
1.20403
1.13738
1.0606
)
;
    }
    up
    {
        type            calculated;
        value           nonuniform List<scalar> 
40
(
9.03411
7.80889
6.16795
4.3953
3.03452
2.12386
1.53144
1.15964
0.955478
0.804023
9.72927
9.72305
9.71045
9.69064
9.66234
9.62377
9.57263
9.50586
9.42075
9.32814
9.33502
9.42653
9.51037
9.57621
9.62664
9.6646
9.69238
9.71168
9.72379
9.72951
9.27072
7.09647
3.24042
2.16328
2.24745
3.02507
4.35069
6.14962
7.81371
9.04491
)
;
    }
    cylinder
    {
        type            calculated;
        value           nonuniform List<scalar> 
80
(
1.9647
4.52922
5.51255
5.76544
6.2995
7.08882
7.86135
8.47468
8.91244
9.21291
9.44582
9.61872
9.72982
9.7983
9.84096
9.86846
9.8865
9.89817
9.90522
9.90869
9.50043
9.65063
9.74904
9.81047
9.849
9.87389
9.89016
9.90055
9.90657
9.90913
5.29677
6.22332
6.20679
6.31121
6.83127
7.52508
8.17566
8.68587
9.05067
9.30253
0.994922
0.471932
0.264403
0.183353
0.159838
0.165757
0.0829617
0.0421198
0.746446
2.40226
9.59442
9.55584
9.46739
9.3018
9.0097
8.51125
7.68615
6.3666
4.38775
2.23963
9.59432
9.55552
9.46678
9.30072
9.00784
8.50808
7.68038
6.35436
4.35804
2.1912
0.952687
0.44217
0.244262
0.170805
0.150315
0.1655
0.162368
0.0847257
0.0433821
0.722076
)
;
    }
    defaultFaces
    {
        type            empty;
    }
}


// ************************************************************************* //
