# Selection   : all
# Cells       : 440
# Volume      : 7.374263e+01
# Time        	max(p)
9.52          	5.101370e+00
9.565         	1.962348e+00
9.615         	1.979096e+00
