# Selection   : all
# Cells       : 440
# Volume      : 7.374263e+01
# Time        	min(p)
2.2           	-1.911780e+00
2.25          	-1.915479e+00
2.3           	-1.922669e+00
