/*--------------------------------*- C++ -*----------------------------------*\
  =========                 |
  \\      /  F ield         | OpenFOAM: The Open Source CFD Toolbox
   \\    /   O peration     | Website:  https://openfoam.org
    \\  /    A nd           | Version:  13
     \\/     M anipulation  |
\*---------------------------------------------------------------------------*/
FoamFile
{
    format      ascii;
    class       volVectorField;
    location    "0.55";
    object      U;
}
// * * * * * * * * * * * * * * * * * * * * * * * * * * * * * * * * * * * * * //

dimensions      [0 1 -1 0 0 0 0];

internalField   nonuniform List<vector> 
1800
(
(0.0978018 -0.0883295 -4.49088e-20)
(0.286897 -0.241952 -3.41286e-20)
(0.473973 -0.379045 -4.85047e-19)
(0.657691 -0.500157 1.91478e-19)
(0.836608 -0.607166 7.43763e-20)
(1.00991 -0.701368 -3.90505e-20)
(1.17714 -0.783453 5.54816e-20)
(1.33792 -0.853656 1.97185e-19)
(1.49157 -0.912929 5.92126e-19)
(1.6335 -0.966855 8.09905e-19)
(0.119062 -0.0915034 -7.91198e-20)
(0.344292 -0.24771 -7.70621e-19)
(0.563283 -0.38475 3.78155e-21)
(0.775364 -0.504236 1.25785e-19)
(0.979503 -0.608919 -1.2628e-19)
(1.17521 -0.700689 7.66194e-20)
(1.3623 -0.780778 -2.80909e-19)
(1.54077 -0.850082 -5.02053e-20)
(1.71009 -0.910681 -6.93305e-19)
(1.86783 -0.967012 6.29614e-19)
(0.141651 -0.0923236 4.88232e-20)
(0.403681 -0.247732 2.0929e-19)
(0.653756 -0.382118 5.43343e-19)
(0.892178 -0.497905 -1.90272e-19)
(1.11865 -0.598384 -1.43008e-19)
(1.33321 -0.685809 7.5622e-20)
(1.53605 -0.761699 9.82849e-20)
(1.72742 -0.827286 1.94076e-19)
(1.9072 -0.884785 2.73545e-21)
(2.0742 -0.937846 1.50986e-19)
(0.163907 -0.0897213 -4.57194e-20)
(0.4617 -0.239471 -2.04393e-19)
(0.741429 -0.367619 -1.81263e-19)
(1.00451 -0.476977 -1.42304e-19)
(1.25162 -0.571021 1.81319e-19)
(1.48351 -0.652125 -5.70928e-20)
(1.70092 -0.721901 -4.31126e-21)
(1.90453 -0.781615 2.95013e-21)
(2.09454 -0.833354 -1.60415e-19)
(2.27024 -0.880341 -1.0598e-19)
(0.184658 -0.0833568 -1.14043e-19)
(0.515895 -0.221808 8.76357e-20)
(0.823294 -0.339431 1.79846e-19)
(1.10931 -0.439064 2.43313e-19)
(1.37561 -0.524071 -2.85034e-19)
(1.62371 -0.596776 -3.58078e-21)
(1.85494 -0.658764 4.25002e-19)
(2.07042 -0.711257 -1.85052e-19)
(2.27083 -0.756157 -1.23991e-19)
(2.45577 -0.796387 -5.35869e-20)
(0.20319 -0.0735003 1.73594e-19)
(0.564472 -0.195201 1.02986e-18)
(0.896793 -0.298075 1.43256e-19)
(1.20351 -0.384735 -5.03152e-19)
(1.48719 -0.458227 -1.75509e-19)
(1.75003 -0.520668 6.3771e-19)
(1.9939 -0.573523 -1.45389e-19)
(2.22036 -0.617897 -4.31614e-19)
(2.43047 -0.65544 -3.16626e-19)
(2.62419 -0.688736 2.61592e-19)
(0.218899 -0.0605915 1.16341e-19)
(0.605747 -0.160701 -7.47602e-19)
(0.959316 -0.245031 -1.08562e-18)
(1.28371 -0.315799 3.83794e-19)
(1.58223 -0.375564 4.49957e-19)
(1.85768 -0.426128 -9.02099e-22)
(2.11239 -0.468738 -6.39707e-19)
(2.34829 -0.504323 2.19317e-19)
(2.56683 -0.53421 -3.64425e-19)
(2.76827 -0.560565 -3.11183e-19)
(0.231236 -0.0451724 -3.42491e-19)
(0.638202 -0.119685 -6.92612e-19)
(1.00849 -0.182294 1.21223e-18)
(1.34678 -0.2347 5.98709e-19)
(1.65694 -0.278853 -2.69764e-19)
(1.94225 -0.316135 -2.115e-19)
(2.20543 -0.347514 0)
(2.44875 -0.373688 1.16811e-19)
(2.67398 -0.39562 -2.95844e-19)
(2.88172 -0.414967 -7.74474e-20)
(0.239767 -0.0278755 -2.04468e-19)
(0.660654 -0.073756 5.62394e-19)
(1.04249 -0.112198 1.71014e-19)
(1.39031 -0.144289 -5.12503e-19)
(1.70841 -0.171277 -7.84205e-19)
(2.00038 -0.194053 3.66208e-20)
(2.26924 -0.213245 1.67123e-19)
(2.51753 -0.229292 -5.4685e-19)
(2.74732 -0.242782 -2.89759e-19)
(2.95954 -0.254776 -5.63588e-19)
(0.244261 -0.00940244 4.51414e-19)
(0.672455 -0.024704 3.44156e-19)
(1.06031 -0.0373615 -9.38601e-20)
(1.41304 -0.0477882 -1.2982e-20)
(1.73515 -0.0564618 -3.87511e-19)
(2.03042 -0.0637225 -8.57319e-20)
(2.30206 -0.0698093 -2.90581e-19)
(2.55276 -0.0748893 6.46565e-19)
(2.78481 -0.0791699 1.71004e-19)
(2.99946 -0.0830106 2.22518e-21)
(-0.00234841 -0.0218106 -3.22894e-20)
(0.00865851 -0.0693286 -7.11361e-20)
(0.0249587 -0.120313 -7.29792e-21)
(0.0493749 -0.170885 -3.42556e-20)
(0.0777288 -0.216235 -1.27163e-20)
(0.106595 -0.254397 -3.89874e-19)
(0.135651 -0.288348 -1.93559e-20)
(0.166453 -0.321653 1.19909e-19)
(0.199282 -0.355141 1.09905e-20)
(0.233174 -0.387482 -3.59585e-20)
(0.000841212 -0.0247199 -9.77478e-20)
(0.0149628 -0.0850974 -2.10739e-19)
(0.0393433 -0.160144 -5.5945e-20)
(0.0692765 -0.224967 -1.10702e-19)
(0.0995377 -0.275259 -9.72663e-20)
(0.130551 -0.317708 -2.80662e-19)
(0.164592 -0.358686 2.01028e-19)
(0.202254 -0.400048 1.68138e-19)
(0.241757 -0.439928 -2.55854e-19)
(0.281278 -0.476287 8.10405e-20)
(0.00549126 -0.031525 -8.54198e-20)
(0.0287831 -0.107435 -8.62348e-19)
(0.0628308 -0.195969 -1.28366e-19)
(0.0974466 -0.268778 9.4442e-20)
(0.131857 -0.327023 6.7989e-20)
(0.169727 -0.38007 -4.53163e-19)
(0.213025 -0.432047 3.59822e-20)
(0.259216 -0.481492 3.66843e-19)
(0.305577 -0.525927 -3.85864e-19)
(0.351543 -0.565305 -2.58241e-19)
(0.0113679 -0.0410145 -1.79514e-21)
(0.0466242 -0.130885 1.89119e-19)
(0.0896214 -0.225258 1.6514e-21)
(0.133072 -0.306927 -1.09864e-20)
(0.177813 -0.377748 -3.02085e-20)
(0.227281 -0.443694 8.81426e-20)
(0.281132 -0.505408 7.38698e-20)
(0.33571 -0.56064 -1.36345e-19)
(0.389791 -0.609099 9.2123e-21)
(0.443974 -0.651646 -1.04409e-20)
(0.0185098 -0.0507894 0)
(0.0672365 -0.152434 5.43185e-21)
(0.121927 -0.253602 -5.08092e-19)
(0.178689 -0.34542 5.12568e-20)
(0.237815 -0.428497 -1.13548e-20)
(0.300525 -0.504972 7.11251e-21)
(0.365319 -0.574218 -2.57924e-20)
(0.429824 -0.635243 -7.80424e-21)
(0.493974 -0.688622 0)
(0.558174 -0.734608 -2.05896e-20)
(0.0273273 -0.0596603 3.17324e-20)
(0.0918945 -0.172862 -1.53713e-19)
(0.16176 -0.282512 -4.55625e-20)
(0.234624 -0.383861 -5.84832e-20)
(0.309733 -0.476704 4.97147e-20)
(0.386733 -0.561458 4.65912e-21)
(0.464237 -0.637592 9.12983e-20)
(0.540935 -0.704804 -2.17587e-20)
(0.616908 -0.763277 -6.96958e-19)
(0.692159 -0.812457 -1.01098e-20)
(0.0379767 -0.0676104 6.97016e-22)
(0.121237 -0.192184 5.60935e-20)
(0.20916 -0.310614 -7.86632e-20)
(0.299921 -0.420162 -1.67257e-20)
(0.392129 -0.52064 -7.28979e-20)
(0.484767 -0.612078 -1.00283e-20)
(0.576687 -0.694251 9.34778e-21)
(0.666925 -0.767044 -2.12378e-19)
(0.755507 -0.830139 3.83912e-19)
(0.842296 -0.882171 9.72049e-19)
(0.050363 -0.0746043 1.51735e-20)
(0.15513 -0.209614 -1.42384e-19)
(0.26346 -0.335964 -2.1397e-19)
(0.373665 -0.452103 8.90848e-20)
(0.484095 -0.558247 -6.43277e-20)
(0.593532 -0.654583 9.91913e-20)
(0.700927 -0.741225 1.97458e-19)
(0.805387 -0.818227 -1.09552e-19)
(0.906994 -0.885018 -3.06171e-19)
(1.00566 -0.939413 7.25699e-19)
(0.0642913 -0.0803617 -2.64516e-20)
(0.193287 -0.224028 -5.7817e-19)
(0.324296 -0.356559 5.24405e-19)
(0.45568 -0.477225 3.37577e-19)
(0.585731 -0.586733 -8.59591e-20)
(0.713213 -0.685637 3.08946e-19)
(0.837113 -0.774398 -1.60001e-19)
(0.956543 -0.853407 -7.73696e-19)
(1.0717 -0.921967 -4.0389e-19)
(1.18264 -0.977194 4.53904e-19)
(0.0795461 -0.0846672 -7.9834e-20)
(0.235846 -0.234419 -5.44349e-19)
(0.392392 -0.370525 -8.23297e-21)
(0.547539 -0.492792 6.87836e-20)
(0.699589 -0.602455 3.37823e-19)
(0.847383 -0.700418 -1.85461e-19)
(0.99 -0.787416 -1.69619e-19)
(1.12651 -0.863791 1.8915e-19)
(1.25678 -0.928599 -3.51776e-19)
(1.38004 -0.980292 -5.84806e-19)
(0.403103 -0.531472 9.90798e-19)
(0.685027 -0.617711 -2.5703e-19)
(0.913778 -0.556775 -1.4644e-19)
(1.08723 -0.430053 2.75343e-19)
(1.23892 -0.279057 -2.33726e-19)
(1.3599 -0.138075 -2.98589e-19)
(1.45426 -0.0317009 -2.60609e-19)
(1.50893 0.0167759 -3.16534e-20)
(1.5294 0.0221756 4.59418e-20)
(1.54599 0.0141748 3.14338e-20)
(0.469082 -0.619354 9.69427e-19)
(0.74176 -0.693135 7.37567e-20)
(0.966501 -0.616756 1.09129e-20)
(1.12472 -0.479114 -2.22687e-19)
(1.26474 -0.319084 -7.38961e-19)
(1.37835 -0.170081 0)
(1.47267 -0.0549419 -2.39432e-19)
(1.54119 0.00336673 5.24298e-20)
(1.57701 0.0150405 4.45393e-21)
(1.60467 0.0106482 -3.16428e-20)
(0.556403 -0.705046 -9.98256e-19)
(0.811087 -0.766126 -7.11968e-20)
(1.02586 -0.674641 1.57236e-19)
(1.16635 -0.526049 -5.35031e-20)
(1.29084 -0.357879 -3.58903e-20)
(1.39477 -0.20176 6.48747e-20)
(1.48388 -0.0792838 0)
(1.55487 -0.0130896 0)
(1.59657 0.0031215 -4.44971e-20)
(1.64461 0.00361067 0)
(0.665838 -0.786839 -2.24599e-19)
(0.895878 -0.834733 4.02372e-19)
(1.09231 -0.729368 2.68643e-20)
(1.21279 -0.569899 0)
(1.31804 -0.394616 6.17585e-19)
(1.41009 -0.23217 -1.52194e-19)
(1.49193 -0.103138 0)
(1.55749 -0.0296452 1.38815e-19)
(1.5976 -0.00907239 0)
(1.6492 -0.00453984 1.68566e-20)
(0.795814 -0.863575 -1.49077e-19)
(0.997846 -0.896962 4.52422e-19)
(1.16651 -0.779768 -1.47153e-20)
(1.2642 -0.609848 0)
(1.34692 -0.428535 1.79516e-19)
(1.42453 -0.260737 2.83544e-19)
(1.49822 -0.125525 4.81374e-20)
(1.55617 -0.0452662 6.85564e-21)
(1.59527 -0.0210684 -2.7452e-20)
(1.64605 -0.0118792 3.05469e-20)
(0.942267 -0.934494 -1.32784e-18)
(1.11663 -0.951452 -9.38484e-19)
(1.24912 -0.824558 4.79409e-21)
(1.32038 -0.645154 5.7061e-19)
(1.37778 -0.458874 -3.00429e-19)
(1.43802 -0.287044 1.49547e-19)
(1.50271 -0.146161 2.44236e-19)
(1.55366 -0.0603147 -1.8841e-19)
(1.59257 -0.03305 -1.83083e-21)
(1.64401 -0.019251 2.52833e-20)
(1.10008 -0.999217 -2.59499e-19)
(1.2501 -0.99801 2.85624e-19)
(1.34038 -0.862608 4.01796e-21)
(1.38109 -0.675101 -1.74578e-20)
(1.41079 -0.484841 -5.8005e-19)
(1.45049 -0.310592 5.41735e-20)
(1.50484 -0.165082 -9.47731e-20)
(1.55053 -0.0749943 -2.84492e-20)
(1.58992 -0.0449011 4.29613e-22)
(1.64283 -0.0265645 -2.18242e-20)
(1.26428 -1.05664 -1.20139e-18)
(1.39478 -1.03724 2.09324e-19)
(1.43931 -0.893322 0)
(1.44537 -0.699238 3.4112e-20)
(1.44531 -0.505861 5.11012e-19)
(1.46155 -0.330865 -1.12346e-21)
(1.5038 -0.182413 -2.96188e-19)
(1.54633 -0.0894827 4.82052e-20)
(1.58766 -0.0557587 7.54224e-23)
(1.6292 -0.033972 8.40288e-21)
(1.43195 -1.10333 3.39106e-18)
(1.54805 -1.07005 2.46724e-19)
(1.54572 -0.917404 4.6266e-19)
(1.51348 -0.717975 -3.16122e-20)
(1.48148 -0.522026 -3.41096e-20)
(1.4711 -0.347705 -4.18541e-19)
(1.49827 -0.198415 8.12215e-20)
(1.54005 -0.102721 3.11562e-21)
(1.57517 -0.0649698 -2.59678e-20)
(1.5794 -0.0377122 -1.277e-20)
(1.59918 -1.12805 -2.99851e-18)
(1.70183 -1.09531 1.27302e-18)
(1.65404 -0.937499 -2.31377e-19)
(1.58157 -0.734797 -7.84076e-19)
(1.51634 -0.536905 -6.52131e-19)
(1.4768 -0.364726 -2.55655e-19)
(1.48657 -0.215321 -5.83455e-20)
(1.52367 -0.116639 0)
(1.52119 -0.0674214 -2.98385e-20)
(1.51559 -0.0376586 8.26369e-20)
(1.88813 -1.1701 -6.71496e-18)
(1.92736 -1.10488 -1.69317e-18)
(1.80494 -0.931746 -5.87622e-20)
(1.67322 -0.726706 1.12374e-19)
(1.56276 -0.532201 1.64309e-19)
(1.48449 -0.368774 -1.0902e-19)
(1.46257 -0.224622 -3.69847e-20)
(1.45003 -0.119871 5.92799e-20)
(1.43543 -0.0644834 -4.89755e-20)
(1.42411 -0.0362697 -3.80709e-20)
(2.28927 -1.13473 4.95397e-19)
(2.17883 -1.05645 -2.80172e-19)
(1.94294 -0.86491 5.14724e-19)
(1.73618 -0.664114 -8.99175e-20)
(1.56402 -0.479441 3.9274e-20)
(1.43048 -0.33029 -4.99119e-20)
(1.3563 -0.206911 9.78738e-20)
(1.32902 -0.110628 -3.19199e-20)
(1.31355 -0.0581713 1.82874e-19)
(1.29856 -0.0335909 8.20383e-20)
(2.61058 -1.04349 2.27091e-18)
(2.35211 -0.948616 3.26013e-19)
(2.00874 -0.759196 -1.18219e-19)
(1.73349 -0.572454 1.5054e-36)
(1.50752 -0.409626 -2.54701e-20)
(1.34208 -0.283949 1.50685e-33)
(1.24343 -0.181752 -1.68892e-20)
(1.20138 -0.100153 -1.57684e-33)
(1.18117 -0.0521864 6.88699e-21)
(1.16365 -0.0301503 -1.83495e-20)
(2.78711 -0.893903 3.88943e-33)
(2.36968 -0.795511 2.96635e-18)
(1.97409 -0.630271 1.82032e-18)
(1.65426 -0.469036 0)
(1.40812 -0.334172 8.41516e-19)
(1.2319 -0.231773 4.38639e-19)
(1.11995 -0.150898 1.60604e-19)
(1.06505 -0.0861008 -2.68922e-33)
(1.04077 -0.0450429 -6.21187e-20)
(1.02105 -0.0260986 1.34439e-20)
(2.76373 -0.705847 3.84328e-18)
(2.24606 -0.629808 -1.46855e-19)
(1.84685 -0.490892 0)
(1.51601 -0.361509 0)
(1.27229 -0.25528 0)
(1.09876 -0.177141 0)
(0.984651 -0.117229 -1.23552e-20)
(0.922674 -0.0694129 -3.99368e-33)
(0.894391 -0.0368705 7.40386e-21)
(0.872894 -0.021505 1.32983e-33)
(2.55122 -0.517015 3.26634e-18)
(2.02014 -0.462886 0)
(1.63873 -0.353589 0)
(1.32702 -0.256665 0)
(1.10154 -0.179484 0)
(0.942648 -0.124718 0)
(0.835915 -0.0838417 3.27729e-20)
(0.773317 -0.0513995 -7.80731e-20)
(0.742924 -0.0278627 8.18047e-21)
(0.720462 -0.0165289 4.08299e-20)
(2.19014 -0.342704 0)
(1.70267 -0.303503 1.09889e-18)
(1.36137 -0.227587 1.09121e-18)
(1.09145 -0.16197 0)
(0.898714 -0.112233 6.69834e-19)
(0.764571 -0.0782145 4.09274e-19)
(0.673124 -0.0534174 2.50867e-19)
(0.616254 -0.0338813 7.58724e-20)
(0.586646 -0.0187189 -9.05229e-21)
(0.564708 -0.0114606 -5.64427e-21)
(1.70287 -0.191133 -6.73852e-19)
(1.30021 -0.165591 -2.7413e-19)
(1.0251 -0.121748 1.75604e-19)
(0.815148 -0.0844366 -2.11591e-34)
(0.667859 -0.058038 -7.69598e-20)
(0.566509 -0.0407849 3.72772e-33)
(0.496548 -0.0283985 4.92043e-20)
(0.450918 -0.0186964 9.77963e-20)
(0.42557 -0.0104494 9.49425e-21)
(0.406284 -0.00673991 -5.0802e-21)
(1.10089 -0.0758202 3.40795e-18)
(0.823168 -0.0626775 -1.86444e-19)
(0.640605 -0.0442902 -5.88641e-19)
(0.506174 -0.0289913 0)
(0.413882 -0.0195547 -6.40053e-19)
(0.350831 -0.0140239 -4.32168e-19)
(0.306667 -0.0101365 -2.00456e-19)
(0.276704 -0.0071312 -1.35078e-19)
(0.259123 -0.00408241 1.4775e-19)
(0.245345 -0.00288027 -1.83633e-20)
(0.397352 -0.00331876 0)
(0.287868 0.00159363 0)
(0.220898 0.00409396 0)
(0.173557 0.00624367 0)
(0.142387 0.00584563 0)
(0.121259 0.00469797 0)
(0.106057 0.00361107 5.65818e-20)
(0.0952082 0.0024388 -2.15376e-34)
(0.0883834 0.00185355 1.20326e-20)
(0.0826854 0.000724153 1.18911e-20)
(3.36711 -0.0863101 5.39204e-19)
(3.32642 -0.265083 -8.41884e-20)
(3.24735 -0.430652 8.52079e-19)
(3.13238 -0.582151 -6.04803e-19)
(2.98634 -0.718115 6.66358e-19)
(2.81523 -0.836367 2.75153e-19)
(2.62659 -0.934037 -1.92782e-18)
(2.42949 -1.00782 -7.7349e-20)
(2.22465 -1.05363 0)
(1.98482 -1.0665 4.26368e-19)
(3.86191 -0.0750572 7.0736e-18)
(3.79859 -0.234209 1.95635e-18)
(3.70428 -0.387304 -4.86715e-18)
(3.58425 -0.531982 -4.4904e-19)
(3.44238 -0.66588 3.55863e-18)
(3.28185 -0.787301 1.92324e-18)
(3.10648 -0.89504 -5.16802e-18)
(2.92202 -0.987662 -1.95191e-18)
(2.72756 -1.06333 2.20289e-18)
(2.49233 -1.12044 8.52119e-19)
(3.83309 -0.0532981 -1.26247e-19)
(3.82025 -0.171562 4.40372e-18)
(3.78548 -0.299756 -1.08834e-18)
(3.72436 -0.430912 -3.44615e-18)
(3.6362 -0.558721 -6.80042e-18)
(3.52373 -0.678788 1.02786e-17)
(3.39118 -0.788771 4.18056e-18)
(3.24351 -0.887953 -3.91158e-18)
(3.08161 -0.978671 -2.90258e-18)
(2.88722 -1.06294 -3.42473e-18)
(3.62867 -0.0472829 -4.83943e-18)
(3.61961 -0.144928 -4.35351e-18)
(3.59964 -0.243736 5.4723e-18)
(3.56736 -0.343088 1.91196e-18)
(3.52243 -0.442369 -8.9718e-18)
(3.46419 -0.540796 4.9225e-19)
(3.39186 -0.637029 3.88662e-18)
(3.30516 -0.730409 -1.05407e-18)
(3.20504 -0.823036 1.27692e-18)
(3.08311 -0.914737 2.81749e-19)
(3.34405 -0.0365758 -9.15997e-19)
(3.339 -0.111654 3.00412e-18)
(3.32711 -0.188675 1.61958e-18)
(3.30745 -0.26717 -1.89417e-18)
(3.27987 -0.346068 -2.00141e-18)
(3.24467 -0.424133 -2.43425e-18)
(3.20206 -0.500327 3.79716e-19)
(3.15178 -0.574482 1.38942e-19)
(3.09552 -0.64774 -2.13991e-18)
(3.03292 -0.721279 -2.03461e-18)
(2.96257 -0.0265524 -1.8225e-18)
(2.95981 -0.0798873 -5.87244e-20)
(2.95331 -0.134598 -1.63754e-18)
(2.9424 -0.190902 3.12137e-19)
(2.92676 -0.248549 5.36785e-18)
(2.9063 -0.306928 -3.66772e-19)
(2.88093 -0.365113 4.4343e-20)
(2.85024 -0.422056 -2.60864e-18)
(2.81646 -0.476877 -3.4958e-18)
(2.78603 -0.529854 3.72706e-19)
(2.48713 -0.0175092 -2.89319e-20)
(2.48578 -0.0519336 -8.14318e-19)
(2.48259 -0.0872475 -2.61486e-18)
(2.47708 -0.123771 -3.43103e-18)
(2.4688 -0.161533 2.49656e-18)
(2.45745 -0.200267 1.50225e-18)
(2.44262 -0.239352 -1.38506e-18)
(2.42371 -0.277789 1.62448e-18)
(2.40276 -0.31448 -4.2974e-19)
(2.38954 -0.349537 -9.63788e-19)
(1.91464 -0.00968745 7.72461e-19)
(1.91408 -0.028297 -8.318e-19)
(1.91278 -0.0474393 -3.27683e-20)
(1.91032 -0.0673589 -3.4726e-20)
(1.90624 -0.08813 -7.27428e-20)
(1.90013 -0.109614 -2.33194e-18)
(1.89151 -0.131404 -6.78675e-19)
(1.87979 -0.152782 2.62609e-18)
(1.86664 -0.172973 -6.03494e-19)
(1.86192 -0.192205 -1.3511e-18)
(1.23988 -0.00373724 -1.64282e-18)
(1.23967 -0.0106954 -8.48911e-19)
(1.23923 -0.0179011 2.3392e-18)
(1.23823 -0.0254786 -8.89775e-19)
(1.23625 -0.0334753 -6.74125e-19)
(1.2329 -0.0418316 1.35203e-18)
(1.22775 -0.0503499 -1.29589e-18)
(1.22038 -0.0586653 1.28698e-18)
(1.21202 -0.066342 -1.21031e-18)
(1.21008 -0.0735074 -4.2482e-18)
(0.454916 -0.000257943 6.63083e-19)
(0.454827 -0.000700512 7.03056e-19)
(0.454692 -0.00115911 7.48184e-19)
(0.454324 -0.00164006 1.35397e-18)
(0.453495 -0.00214019 -6.71986e-19)
(0.451983 -0.00263721 -1.29962e-18)
(0.449567 -0.00309912 6.14713e-19)
(0.445992 -0.00359294 2.48368e-20)
(0.441736 -0.00439223 -4.96525e-20)
(0.44035 -0.00504563 1.1057e-19)
(1.65351 0.997176 -2.85684e-19)
(1.51224 0.941783 1.80015e-20)
(1.35877 0.880689 -2.28342e-19)
(1.19765 0.808398 1.76392e-19)
(1.02956 0.723952 -1.92181e-19)
(0.854818 0.627061 -1.01136e-19)
(0.673757 0.516934 2.32007e-19)
(0.487036 0.392145 -3.04981e-19)
(0.295893 0.250644 3.09879e-19)
(0.101431 0.0916449 2.38759e-19)
(1.88635 0.992122 0)
(1.72965 0.934688 6.39015e-19)
(1.56081 0.872731 3.32094e-19)
(1.38227 0.801828 1.62933e-19)
(1.19452 0.719862 4.31511e-19)
(0.99753 0.62589 -8.68686e-20)
(0.79136 0.518599 -7.85585e-20)
(0.576349 0.395991 8.88174e-20)
(0.35332 0.255177 -1.04521e-18)
(0.1227 0.0943564 -1.66194e-20)
(2.09101 0.958991 1.56806e-19)
(1.92521 0.905034 0)
(1.74612 0.846438 -1.00747e-19)
(1.55493 0.779534 -3.83536e-19)
(1.35169 0.702074 5.37127e-20)
(1.13609 0.612786 3.97195e-19)
(0.907785 0.510089 -6.06936e-19)
(0.666592 0.39164 -2.00876e-19)
(0.412598 0.254046 7.83606e-19)
(0.145252 0.0947362 -1.75962e-19)
(2.28483 0.898324 1.88113e-19)
(2.11043 0.850539 1.20297e-20)
(1.92129 0.797847 2.44895e-20)
(1.71811 0.736992 3.6111e-20)
(1.50058 0.665851 -2.92409e-20)
(1.26793 0.583131 2.73289e-19)
(1.01927 0.487169 -2.06886e-19)
(0.753678 0.375533 -8.5561e-19)
(0.470274 0.24468 0)
(0.16739 0.0916974 0)
(2.46795 0.8118 -1.07063e-18)
(2.28435 0.770823 -6.08951e-19)
(2.08493 0.725053 -1.20642e-19)
(1.87003 0.671518 -6.65748e-20)
(1.63891 0.608293 0)
(1.39031 0.534137 2.40762e-19)
(1.12276 0.447436 2.6779e-19)
(0.834559 0.345837 2.86255e-19)
(0.523843 0.225955 -4.23765e-19)
(0.187909 0.0848987 -8.12385e-20)
(2.634 0.702082 7.66224e-19)
(2.44156 0.668056 -1.39177e-19)
(2.23244 0.629675 -2.21538e-19)
(2.00665 0.584304 0)
(1.76301 0.530279 0)
(1.49988 0.466489 0)
(1.21523 0.391465 -3.89822e-20)
(0.906689 0.303091 3.70278e-19)
(0.571502 0.198349 3.79142e-19)
(0.206084 0.0746248 -3.08573e-19)
(2.7758 0.57235 -1.19343e-18)
(2.57551 0.545257 -1.48125e-18)
(2.35787 0.514528 -3.03194e-22)
(2.12261 0.477946 -1.87671e-19)
(1.86818 0.434182 -9.2882e-20)
(1.59258 0.382319 -1.78849e-19)
(1.29333 0.321126 4.59103e-19)
(0.967494 0.248838 2.14862e-19)
(0.611587 0.162968 5.40038e-19)
(0.221316 0.0613406 2.02858e-19)
(2.88708 0.425746 -1.15703e-18)
(2.68027 0.405632 8.47067e-20)
(2.45576 0.38282 1.64524e-19)
(2.21297 0.355612 1.68203e-20)
(1.95005 0.323052 -3.14412e-19)
(1.66466 0.28447 -1.74219e-19)
(1.35398 0.238939 -6.21221e-19)
(1.01464 0.185141 1.1853e-19)
(0.642608 0.121237 5.14779e-20)
(0.233067 0.0456129 -6.26877e-21)
(2.9628 0.265186 1.01353e-19)
(2.75121 0.252354 3.9701e-19)
(2.5219 0.237905 -3.30294e-19)
(2.27395 0.220741 3.63025e-19)
(2.00524 0.200298 3.72553e-19)
(1.71323 0.176177 4.91903e-19)
(1.39481 0.14781 -6.35748e-19)
(1.04634 0.11439 -3.24419e-19)
(0.663415 0.0748102 -4.58504e-20)
(0.240917 0.0280953 -3.26999e-19)
(3.00053 0.093578 5.81809e-19)
(2.78613 0.0887866 -1.86153e-19)
(2.55426 0.083445 4.79568e-19)
(2.30367 0.0771511 -3.10677e-19)
(2.03209 0.0697288 2.66479e-19)
(1.7368 0.0610627 6.0542e-19)
(1.41458 0.0509791 3.78889e-19)
(1.06162 0.039235 3.09349e-19)
(0.673399 0.0255068 2.65864e-19)
(0.244655 0.00950729 5.43621e-19)
(0.239392 0.451611 -4.68503e-19)
(0.203815 0.417911 -1.86529e-19)
(0.168283 0.38087 1.38868e-19)
(0.134794 0.343259 -4.19605e-19)
(0.105087 0.307171 -1.19668e-19)
(0.0781897 0.26992 6.9234e-19)
(0.0518063 0.223509 3.35916e-19)
(0.0259056 0.158719 -1.56901e-19)
(0.00704468 0.0796038 1.13808e-19)
(-0.00113309 0.0224237 -6.06384e-20)
(0.288574 0.543844 4.10707e-19)
(0.248673 0.507066 4.57328e-19)
(0.208131 0.465039 -1.20361e-20)
(0.167822 0.418064 -1.32213e-19)
(0.131126 0.370006 -3.11692e-19)
(0.100601 0.322461 8.27481e-20)
(0.0734578 0.269163 2.24218e-19)
(0.0458584 0.196745 1.64762e-19)
(0.0183119 0.101754 -5.89601e-19)
(0.00277555 0.028829 -1.23433e-19)
(0.359695 0.632659 -6.00076e-19)
(0.313822 0.592536 -4.80798e-19)
(0.26801 0.546721 2.56848e-19)
(0.221357 0.493445 1.37598e-19)
(0.175814 0.433741 -5.70373e-21)
(0.136279 0.3716 -1.39521e-19)
(0.102122 0.305396 -2.89342e-20)
(0.0684273 0.22473 -5.55594e-19)
(0.0336462 0.125897 -2.69473e-19)
(0.00762353 0.0377444 -3.90879e-20)
(0.45429 0.717432 5.02709e-19)
(0.400123 0.67327 1.64701e-19)
(0.346415 0.622294 -1.49071e-19)
(0.29226 0.563288 6.34482e-20)
(0.237764 0.495239 -4.91511e-22)
(0.186593 0.420622 1.44261e-21)
(0.140106 0.340468 -1.3168e-19)
(0.0954558 0.250116 3.79264e-19)
(0.0514199 0.147641 -4.19547e-19)
(0.0135678 0.0476674 -6.52979e-20)
(0.57206 0.79746 -2.82102e-19)
(0.507905 0.749401 -8.89274e-20)
(0.443616 0.692596 -1.43016e-20)
(0.378994 0.626922 -6.96065e-20)
(0.313733 0.551713 5.82011e-20)
(0.249665 0.467865 5.21539e-20)
(0.188377 0.376565 -2.77174e-20)
(0.129318 0.276548 -2.82526e-19)
(0.0725157 0.167573 2.18521e-19)
(0.0209077 0.0568122 8.73472e-20)
(0.709432 0.870616 6.43614e-19)
(0.63438 0.819268 3.21336e-19)
(0.558141 0.757144 2.04081e-19)
(0.480862 0.685127 4.81784e-20)
(0.402414 0.603336 1.54238e-19)
(0.323867 0.512214 7.78167e-20)
(0.246461 0.41241 1.42739e-19)
(0.170858 0.303839 5.78937e-20)
(0.0980449 0.186756 -1.61785e-20)
(0.0299899 0.0650152 -1.34776e-20)
(0.862004 0.934605 -1.19726e-19)
(0.775527 0.88044 -8.26423e-19)
(0.68669 0.813854 -7.75704e-20)
(0.595714 0.736651 -5.03227e-20)
(0.502552 0.649489 -1.90304e-20)
(0.408116 0.552609 1.51059e-19)
(0.31347 0.446239 -4.38472e-20)
(0.219703 0.330367 6.51041e-20)
(0.128288 0.205055 -1.44613e-19)
(0.0409002 0.0724868 -1.21937e-21)
(1.02669 0.985831 -8.85326e-19)
(0.928437 0.929462 5.94193e-20)
(0.826631 0.859561 -2.33003e-19)
(0.721442 0.77877 -7.29292e-20)
(0.612752 0.687918 -2.46616e-20)
(0.501445 0.587003 -7.51291e-20)
(0.388518 0.47585 5.63488e-20)
(0.275158 0.35417 6.034e-20)
(0.162979 0.221546 -9.8227e-21)
(0.0535426 0.0791183 -1.03849e-19)
(1.20385 1.01778 1.2384e-19)
(1.09346 0.960816 5.23673e-19)
(0.978224 0.889619 1.55821e-21)
(0.8582 0.807477 -2.99906e-20)
(0.733128 0.715243 1.51188e-19)
(0.60388 0.61251 -3.47664e-19)
(0.471396 0.498726 -2.44521e-19)
(0.336827 0.373196 3.56195e-19)
(0.20177 0.235002 1.44222e-19)
(0.0677021 0.0845324 -3.62698e-20)
(1.40054 1.01536 7.40248e-19)
(1.27802 0.962256 3.23978e-19)
(1.1478 0.895297 5.58311e-20)
(1.01085 0.816353 -1.9536e-19)
(0.867257 0.726488 -1.64811e-20)
(0.717893 0.625315 4.65791e-19)
(0.56358 0.511991 -2.68311e-19)
(0.40534 0.38547 -1.84515e-19)
(0.244705 0.244319 3.35837e-19)
(0.0831148 0.0884417 -6.07076e-21)
(0.975103 0.0974544 8.86271e-21)
(1.14637 0.141797 5.2056e-22)
(1.21242 0.19016 -2.29737e-20)
(1.32255 0.171252 0)
(1.3705 0.156443 3.05803e-21)
(1.27525 0.235611 -4.38368e-20)
(1.12694 0.386012 -5.61915e-20)
(0.948028 0.543285 -2.00673e-20)
(0.710983 0.647885 -2.95561e-19)
(0.41626 0.595057 4.40299e-19)
(0.979391 0.0781089 1.90927e-19)
(1.13895 0.114457 -2.9198e-20)
(1.20777 0.160257 1.93294e-21)
(1.31406 0.153889 1.25676e-20)
(1.37158 0.158583 3.80418e-21)
(1.29486 0.269594 -3.95675e-21)
(1.15708 0.435801 3.19143e-20)
(0.99296 0.60609 0)
(0.761145 0.726791 7.75867e-19)
(0.479311 0.686189 -5.57747e-19)
(0.982941 0.0590532 -1.12712e-19)
(1.13566 0.0881871 7.33376e-21)
(1.20636 0.131192 7.72053e-20)
(1.31157 0.135355 1.94149e-20)
(1.3743 0.159745 -2.1917e-20)
(1.31498 0.301186 -3.52047e-20)
(1.19058 0.483989 5.39426e-21)
(1.04346 0.667315 4.41103e-20)
(0.823014 0.803147 -1.1859e-21)
(0.564538 0.773935 -3.93081e-19)
(0.985719 0.0399134 -8.1936e-20)
(1.13602 0.0624385 1.56873e-20)
(1.20872 0.102784 7.47055e-20)
(1.31502 0.116423 2.90233e-20)
(1.38037 0.160376 -2.29297e-20)
(1.33555 0.330563 -2.35396e-20)
(1.22767 0.529952 5.35809e-20)
(1.09997 0.725872 2.66851e-20)
(0.900015 0.87471 -5.36591e-19)
(0.673827 0.856344 -1.78547e-19)
(0.988021 0.020496 3.80999e-20)
(1.13949 0.0366788 -4.81417e-20)
(1.21458 0.0749366 -6.6806e-20)
(1.32304 0.0975901 2.07738e-20)
(1.38856 0.161509 0)
(1.35623 0.358281 0)
(1.26832 0.573099 6.5179e-20)
(1.16357 0.780404 -2.81337e-20)
(0.994882 0.93901 -1.17297e-19)
(0.805224 0.931771 -5.74342e-20)
(0.990236 0.000602926 3.62464e-21)
(1.1455 0.0105209 5.68943e-20)
(1.22312 0.0475848 -2.04354e-19)
(1.33407 0.0794886 -7.44241e-20)
(1.39753 0.163887 -5.11083e-21)
(1.37685 0.384549 1.10585e-19)
(1.31267 0.612618 1.44077e-19)
(1.23576 0.829202 -1.80254e-20)
(1.10804 0.994242 -4.15269e-20)
(0.953826 0.999555 1.84906e-21)
(0.991941 -0.0202357 6.89563e-22)
(1.15339 -0.0163278 2.73741e-20)
(1.23341 0.020764 -6.43517e-20)
(1.34687 0.0627281 -1.47622e-19)
(1.40629 0.16773 1.22208e-20)
(1.39763 0.409086 7.56504e-21)
(1.36124 0.647429 -5.88584e-20)
(1.31766 0.870609 -1.14903e-19)
(1.23748 1.0401 -2.82676e-20)
(1.11388 1.05982 -9.81209e-19)
(0.991628 -0.0421346 1.47697e-20)
(1.16249 -0.044121 -1.35568e-19)
(1.24459 -0.00536371 1.29349e-19)
(1.36031 0.0481022 9.87389e-20)
(1.41363 0.173526 5.13859e-21)
(1.41844 0.431503 -1.22686e-19)
(1.41393 0.67652 -2.9204e-21)
(1.40864 0.903668 -1.17047e-19)
(1.37946 1.07743 1.11201e-20)
(1.27983 1.112 2.88406e-18)
(0.988189 -0.0643714 -8.52582e-20)
(1.17248 -0.0729691 7.66373e-20)
(1.25599 -0.0306798 1.86372e-19)
(1.37369 0.035739 -1.11122e-19)
(1.41999 0.181048 -2.09244e-19)
(1.4408 0.451553 9.24767e-21)
(1.47203 0.699752 1.62925e-19)
(1.50874 0.929057 -5.56768e-19)
(1.53092 1.10751 -2.68219e-20)
(1.44829 1.15305 -6.47343e-18)
(0.982233 -0.0872601 4.14517e-21)
(1.18351 -0.102823 1.35646e-19)
(1.26719 -0.0550313 5.93347e-20)
(1.38573 0.0277949 -2.68299e-19)
(1.42308 0.19429 -2.30285e-19)
(1.46226 0.47285 -6.62746e-20)
(1.53127 0.720876 6.87639e-20)
(1.61179 0.950099 -2.23483e-19)
(1.68376 1.12997 -1.08863e-18)
(1.61555 1.17209 -7.9523e-18)
(0.973371 -0.118405 -1.45043e-20)
(1.19671 -0.1425 -3.10828e-20)
(1.27734 -0.0882625 -7.32653e-20)
(1.39738 0.0125931 1.25577e-19)
(1.42765 0.192779 1.91763e-19)
(1.49253 0.468693 -5.60359e-20)
(1.61205 0.710462 -1.39451e-19)
(1.75393 0.939299 -1.21047e-18)
(1.90278 1.13201 -1.60085e-18)
(1.89926 1.20844 3.28696e-18)
(0.961783 -0.156942 -4.08706e-19)
(1.21365 -0.192075 1.26966e-20)
(1.28134 -0.134604 -5.47818e-20)
(1.39893 -0.00911207 3.0716e-19)
(1.40985 0.171132 3.36781e-19)
(1.49525 0.424974 -2.42528e-20)
(1.66865 0.646478 -7.17945e-20)
(1.88091 0.864977 -3.08836e-19)
(2.13955 1.07088 2.69156e-19)
(2.28443 1.16056 -3.23165e-19)
(0.949479 -0.197099 -2.785e-20)
(1.23761 -0.242077 -5.44467e-20)
(1.27975 -0.178657 3.0175e-20)
(1.39488 -0.0291302 2.72682e-20)
(1.38656 0.159211 1.73944e-33)
(1.47326 0.368883 2.49398e-21)
(1.68186 0.560369 -2.06502e-33)
(1.94965 0.758933 1.85794e-19)
(2.30214 0.956054 -9.3151e-19)
(2.58732 1.05824 -6.29344e-19)
(0.937185 -0.243355 1.41749e-18)
(1.2682 -0.282079 -7.71044e-34)
(1.25101 -0.225655 -3.96748e-20)
(1.27574 -0.034649 -2.27067e-19)
(1.26815 0.142685 -4.50115e-19)
(1.39169 0.300726 -8.95662e-19)
(1.62056 0.459219 -5.09097e-33)
(1.93 0.630573 -1.73891e-18)
(2.32619 0.80183 -3.17637e-18)
(2.75386 0.90244 1.67557e-18)
(0.927316 -0.300526 0)
(1.31429 -0.32666 -1.64195e-33)
(1.11392 -0.205922 0)
(1.1108 -0.0285046 0)
(1.12293 0.114357 0)
(1.26001 0.231844 0)
(1.49064 0.354856 -8.12231e-33)
(1.8156 0.491189 0)
(2.21379 0.634088 -3.39878e-19)
(2.73515 0.711909 1.25782e-18)
(0.916433 -0.360731 1.16067e-19)
(1.25222 -0.326273 -4.68503e-19)
(0.960681 -0.173278 -5.48583e-20)
(0.936576 -0.0251909 0)
(0.958805 0.0824098 0)
(1.09111 0.164879 6.08804e-20)
(1.30705 0.253533 1.18299e-18)
(1.61633 0.354461 -1.95077e-19)
(1.99691 0.466097 -4.95305e-19)
(2.53255 0.520421 4.67257e-18)
(0.883445 -0.405305 -1.52014e-17)
(1.0922 -0.279793 1.08693e-18)
(0.79308 -0.130031 -7.26922e-20)
(0.748737 -0.0207514 -7.91232e-20)
(0.77467 0.0524903 -5.09155e-19)
(0.8903 0.104185 -7.71947e-19)
(1.07682 0.161032 -1.05054e-18)
(1.34627 0.228889 -1.38513e-18)
(1.68772 0.306067 -1.60739e-18)
(2.17997 0.344425 3.61432e-18)
(0.808983 -0.394515 -4.13612e-19)
(0.886571 -0.207558 -1.21641e-18)
(0.605735 -0.0826434 -1.25807e-19)
(0.550738 -0.0151608 -8.39637e-20)
(0.573013 0.0276486 -9.73355e-34)
(0.662145 0.0543787 9.43117e-20)
(0.805786 0.0844425 -1.48821e-32)
(1.01633 0.122873 -1.93427e-19)
(1.29252 0.167286 2.98865e-19)
(1.6993 0.192064 7.05698e-19)
(0.66424 -0.288846 3.42556e-17)
(0.618278 -0.108076 -3.14038e-18)
(0.393446 -0.0350448 -2.40962e-19)
(0.33992 -0.0073384 -1.54281e-19)
(0.354392 0.00929812 3.92231e-19)
(0.410809 0.0183056 7.83061e-19)
(0.501392 0.0291318 7.9456e-19)
(0.636789 0.04486 4.59781e-19)
(0.82077 0.0634489 -1.90233e-19)
(1.10155 0.076224 3.569e-18)
(0.336832 -0.0768257 5.58793e-19)
(0.261857 -0.00230609 -6.76621e-33)
(0.144406 0.0190622 -3.05169e-19)
(0.12055 0.00332182 0)
(0.123808 -0.00232436 0)
(0.141981 -0.00539759 9.67822e-20)
(0.172446 -0.00623729 9.29879e-35)
(0.220313 -0.00417031 -1.23578e-19)
(0.288131 -0.00161758 -2.82525e-19)
(0.399005 0.00331871 1.00146e-18)
(2.002 1.09629 -1.78946e-18)
(2.23902 1.07837 -2.30486e-18)
(2.44204 1.02904 0)
(2.63705 0.952461 -7.5832e-19)
(2.82357 0.852482 -1.78342e-18)
(2.99275 0.732375 -2.24947e-18)
(3.13709 0.595033 -4.76493e-19)
(3.25055 0.442694 1.26929e-18)
(3.32825 0.276963 -3.54789e-18)
(3.36765 0.0986988 1.35669e-18)
(2.4986 1.14183 2.67534e-19)
(2.7305 1.08181 1.39706e-18)
(2.92383 1.00412 1.43878e-19)
(3.1067 0.909749 6.75669e-19)
(3.28058 0.800626 -1.10388e-18)
(3.43995 0.678303 -4.99996e-18)
(3.58096 0.543999 2.46767e-18)
(3.70047 0.399313 1.27029e-17)