/*--------------------------------*- C++ -*----------------------------------*\
  =========                 |
  \\      /  F ield         | OpenFOAM: The Open Source CFD Toolbox
   \\    /   O peration     | Website:  https://openfoam.org
    \\  /    A nd           | Version:  13
     \\/     M anipulation  |
\*---------------------------------------------------------------------------*/
FoamFile
{
    format      ascii;
    class       surfaceScalarField;
    location    "0.465";
    object      phi;
}
// * * * * * * * * * * * * * * * * * * * * * * * * * * * * * * * * * * * * * //

dimensions      [0 3 -1 0 0 0 0];

internalField   nonuniform List<scalar> 
823
(
0.0113773
-0.0505554
0.039178
0.0387582
-0.133437
0.106056
0.0788333
-0.205878
0.165803
0.130177
-0.268867
0.217523
-0.323252
0.259401
0.194028
0.0107027
-0.0612581
0.0361427
-0.158877
0.0726485
-0.242383
0.117975
-0.314194
-0.375598
0.170322
0.00837699
-0.0696351
0.0282853
-0.178785
0.0567266
-0.270825
0.0918132
-0.34928
-0.416051
0.132266
0.00529937
-0.0749345
0.0179961
-0.191482
0.0362308
-0.289059
0.0588862
-0.371936
-0.442417
0.0852522
0.00196204
-0.0768965
0.00663028
-0.19615
0.0132902
-0.295719
0.0215228
-0.380168
0.0310635
-0.451958
0.00669041
-0.0107196
0.00402913
0.0222519
-0.0308431
0.0152816
0.045469
-0.0484085
0.0251914
0.0746239
-0.0638324
0.0346775
-0.0769089
0.10828
0.0432527
0.00577475
-0.0164944
0.0215329
-0.0466013
0.0467803
-0.0736559
0.079857
-0.096909
-0.116012
0.11896
0.00640044
-0.0228948
0.0236802
-0.0638811
0.0512823
-0.101258
0.0879901
-0.133617
-0.160072
0.13205
0.00753772
-0.0304326
0.0270943
-0.0834377
0.0573349
-0.131499
0.0970577
-0.17334
-0.207873
0.144859
0.00874547
0.0313639
0.0656679
0.109852
0.161379
0.32238
-0.955809
0.74171
0.473118
-0.81883
0.668091
0.568466
-0.349448
0.2541
0.60643
-0.0760137
0.0380498
-0.00586588
0.00108726
0.330768
-1.16762
0.470885
-0.958946
0.569681
-0.448244
0.613689
-0.120022
-0.01498
0.337101
-1.37267
0.462183
-1.08403
0.558856
-0.544916
0.607656
-0.168822
-0.0303639
0.33784
-1.56565
0.449827
-1.19602
0.539306
-0.634395
0.596598
-0.226114
-0.0563219
0.327902
-1.73217
0.429431
-1.29755
0.509724
-0.714688
0.576674
-0.293064
-0.0924606
1.19753
-1.58945
-1.34024
1.00804
-1.10806
0.900054
-0.606702
0.863009
-0.25602
-0.0749284
1.33033
-1.13263
-1.78715
0.983535
-0.761266
0.780438
-0.403604
0.701796
-0.177378
-0.0534542
1.18977
-0.607524
-1.71488
0.816717
-0.38821
0.61381
-0.200698
0.528676
-0.0922438
-0.0291795
0.822472
-0.185261
-1.24473
0.545349
-0.111087
0.397675
-0.0530243
0.331057
-0.0256249
-0.00885888
0.306738
-0.491999
0.195651
0.142627
0.117002
1.5626
0.046252
-1.57779
1.52169
0.126164
1.46265
0.191302
1.39631
0.236666
0.250091
1.67588
0.035653
-1.66528
1.69935
0.102697
1.73085
0.159803
1.76533
0.202187
0.228267
1.38797
0.0184777
-1.3708
1.43707
0.0536058
1.51389
0.0829743
1.61019
0.105892
0.123576
0.9777
0.00531458
-0.964537
1.01588
0.0154222
1.07581
0.0230429
1.15388
0.0278259
0.0327217
0.392986
-0.387672
0.408409
0.431452
0.459278
0.128783
0.327612
-0.264641
-0.191754
0.0781621
0.273209
-0.222588
0.0385244
0.209794
-0.170156
0.0113396
0.136447
-0.109262
0.0519561
-0.0406165
0.115953
0.378901
-0.167242
0.0714951
0.317667
0.0356157
0.245673
0.0105598
0.161503
0.0625159
0.0888508
0.418274
-0.128224
0.0548101
0.351708
0.0272866
0.273197
0.00806436
0.180725
0.0705802
0.0552428
0.443535
-0.0805043
0.0337637
0.373187
0.016655
0.290305
0.00486418
0.192516
0.0754444
0.0174816
-0.0259041
0.0105002
0.00508605
0.00145208
0.0724312
0.0871657
-0.106978
-0.0526187
0.0427566
0.0735638
-0.0438891
0.019668
0.0568164
-0.0337278
0.0051181
0.0367191
-0.0221692
0.0132538
-0.0081357
0.0760707
0.125746
-0.114651
0.0437618
0.105873
0.0196696
0.0809086
0.00509971
0.051289
0.0183536
0.0845557
0.168454
-0.127264
0.0491929
0.141235
0.0227881
0.107313
0.00619077
0.0678864
0.0245444
0.0941863
0.214626
-0.140359
0.0558503
0.179571
0.0265661
0.136598
0.00744083
0.0870117
0.0319853
0.107457
-0.157472
0.0644403
0.0308819
0.00863118
0.510886
0.170402
-0.285308
0.555304
0.169122
-0.21354
0.492969
0.312281
-0.249946
0.333428
0.804181
-0.644641
1.03945
-0.812995
0.509175
0.0572061
0.551151
0.127147
0.483527
0.379905
0.330681
0.957028
1.25548
0.507831
-0.0546455
0.538495
0.0964825
0.464231
0.45417
0.328457
1.0928
1.45667
0.504226
-0.162892
0.520522
0.080187
0.441539
0.533153
0.324673
1.20967
1.64098
0.496077
-0.262989
0.494452
0.0818119
0.413948
0.613657
0.312799
1.31082
1.79631
0.769092
-0.428061
0.852643
-0.00173923
0.957545
0.508755
1.16947
1.09889
1.61831
1.34747
0.714775
-0.538815
0.793884
-0.0808488
0.958536
0.344103
1.29865
0.758773
1.14309
1.77387
0.603804
-0.538599
0.636836
-0.113881
0.804904
0.176035
1.1729
0.390779
0.611963
1.70403
0.448744
-0.383322
0.407354
-0.0724903
0.536898
0.0464902
0.816066
0.111611
0.18691
1.24112
0.220698
0.148208
0.194698
0.306309
0.493218
1.40254
-0.246823
1.46572
-0.230424
1.52299
-0.185494
1.56316
-0.120674
-0.0405326
1.75275
-0.225696
1.7198
-0.197481
1.69066
-0.156353
1.67086
-0.100878
-0.0349503
1.60152
-0.123189
1.50879
-0.104745
1.43457
-0.0821388
1.38706
-0.0533652
-0.0186916
1.15106
-0.0331259
1.07429
-0.0279815
1.01529
-0.0231385
0.97757
-0.0156419
-0.00565872
0.460093
0.432111
0.408973
0.393331
0.00250134
0.043005
-0.0455063
0.0073278
0.101049
-0.105875
0.0160949
0.148393
-0.15716
0.0165782
0.151907
-0.152391
0.114026
0.0148138
-0.112261
0.00682824
0.0361768
0.0201775
0.0876994
0.0409574
0.127613
0.0482544
0.14461
0.116379
0.0459008
0.00880904
0.0273677
0.0270761
0.0694324
0.0521499
0.102539
0.073091
0.123669
0.114033
0.0754369
0.00780103
0.0195667
0.0255129
0.0517205
0.0497475
0.0783044
0.0774291
0.0959873
0.0992418
0.0922206
0.00509888
0.0144678
0.0179731
0.0388463
0.036766
0.0595115
0.0600066
0.0727467
0.0767445
0.0825039
0.00342461
0.0110432
0.0125824
0.0296885
0.0274432
0.0446507
0.047052
0.0531378
0.0561581
0.0676384
0.00222764
0.00881557
0.0089361
0.02298
0.0222641
0.0313227
0.0410039
0.034398
0.0347832
0.0623788
0.00166556
0.00715001
0.0100856
0.0145599
0.0261065
0.0153018
0.0466276
0.0138769
0.0115685
0.0698423
0.00368237
0.00346765
0.0174317
0.000810509
0.0367257
-0.00399225
0.0597027
-0.00910018
-0.0142934
0.0855645
0.00749673
0.0235889
0.0447879
0.0703652
0.0993245
0.153717
0.0199304
-0.10601
0.243103
-0.129895
0.0405091
0.2646
-0.0381865
0.0166898
0.27151
-0.000610132
-0.00630051
-0.00457831
-0.0030206
0.214548
-0.132238
0.32483
-0.240178
0.351186
-0.0645423
0.355967
-0.00539122
-0.00870118
0.259632
-0.322028
0.390625
-0.371171
0.43303
-0.106947
0.436618
-0.00897929
-0.00816248
0.292691
-0.529155
0.437498
-0.515978
0.501193
-0.170642
0.509186
-0.0169724
-0.0041301
0.311879
0.463993
0.547451
0.568529
0.0706506
0.0386883
-0.109339
0.0785881
-0.00793741
0.0828907
-0.00430265
0.0809634
0.0019273
0.000770879
0.194055
-0.261376
0.226626
0.239013
0.234639
0.0207312
-0.00433134
-0.0163999
0.034281
-0.0135498
0.0567589
-0.0224779
0.0856175
-0.0288586
-0.0237214
0.0539218
-0.0434393
0.0862727
0.139232
0.202594
0.0478612
-0.0551113
0.07633
-0.06908
0.0275732
-0.0521306
0.0724186
0.0123396
-0.0443538
0.0595874
0.00331741
-0.0300357
0.0390579
-0.011261
0.0145784
0.0455046
-0.0321982
-0.0684178
0.0250457
-0.0316717
0.0098679
-0.029176
0.00220018
-0.0223679
-0.00906081
0.0561358
-0.00660889
-0.0817252
0.033196
-0.00873175
0.0143378
-0.0103178
0.00261308
-0.0106432
-0.0064477
0.0699627
0.0215832
-0.0981548
0.044741
0.0164901
0.023323
0.0111001
0.00691581
0.00576405
0.000468091
0.0740993
-0.105135
0.0467005
0.0240729
0.00766766
0.016585
-0.114024
-0.0148222
0.0160945
-0.1519
0.00730662
-0.148372
0.00248912
-0.101058
-0.0430172
0.0482713
-0.116369
-0.0459258
0.0409318
-0.144561
0.0201637
-0.127604
0.00682114
-0.0877151
-0.0361961
0.0731267
-0.113964
-0.0755322
0.0521232
-0.123557
0.0270647
-0.102545
0.00880606
-0.0694564
-0.02739
0.0773426
-0.0989581
-0.0923484
0.0496205
-0.0958349
0.0254321
-0.078357
0.00777503
-0.0517993
-0.019615
0.0599639
-0.0825919
0.0365476
0.017778
0.00503656
0.342157
0.583034
-0.529212
0.281297
0.223933
-0.163072
0.248593
0.0532572
-0.0205531
0.165632
0.116064
-0.0331029
-0.000345175
0.0968972
0.408524
0.57049
0.372678
0.259779
0.33679
0.0891455
0.233847
0.219007
0.165085
0.46119
0.50528
0.452883
0.268085
0.409988
0.132041
0.283762
0.345232
0.367122
0.499033
0.402226
0.517007
0.250112
0.461088
0.18796
0.317205
0.489115
0.586172
0.512898
0.549469
0.487483
0.331957
0.15867
0.351381
0.0848837
0.0737866
0.0805937
0.00429001
0.0725115
0.00808222
-0.0368903
0.109402
0.33222
0.242934
0.226671
0.201651
0.261658
0.0856697
0.0237321
0.0567905
0.0288791
0.0342919
0.0224986
0.0207347
0.0135572
0.00433481
0.202798
0.139329
0.0862954
0.0539267
)
;

boundaryField
{
    left
    {
        type            calculated;
        value           nonuniform List<scalar> 
17
(
-0.60402
-0.60402
-0.60402
-0.60402
-0.60402
-0.39598
-0.39598
-0.39598
-0.39598
-0.39598
-0.39598
-0.39598
-0.39598
-0.39598
-0.39598
-0.510051
-0.510051
)
;
    }
    right
    {
        type            calculated;
        value           nonuniform List<scalar> 
17
(
0.0801925
0.23239
0.279109
0.36009
0.436079
0.505154
0.565486
0.611208
0.622803
0.62304
0.622556
0.612812
0.845477
0.680322
0.504401
0.310736
0.108143
)
;
    }
    down
    {
        type            calculated;
        value           uniform 0;
    }
    up
    {
        type            calculated;
        value           uniform 0;
    }
    cylinder
    {
        type            calculated;
        value           uniform 0;
    }
    defaultFaces
    {
        type            empty;
    }
}


// ************************************************************************* //
