/*--------------------------------*- C++ -*----------------------------------*\
  =========                 |
  \\      /  F ield         | OpenFOAM: The Open Source CFD Toolbox
   \\    /   O peration     | Website:  https://openfoam.org
    \\  /    A nd           | Version:  13
     \\/     M anipulation  |
\*---------------------------------------------------------------------------*/
FoamFile
{
    format      ascii;
    class       volScalarField;
    location    "0.355";
    object      p;
}
// * * * * * * * * * * * * * * * * * * * * * * * * * * * * * * * * * * * * * //

dimensions      [0 2 -2 0 0 0 0];

internalField   nonuniform List<scalar> 
1800
(
-0.870849
-0.808758
-0.713857
-0.61505
-0.524008
-0.443157
-0.371954
-0.309238
-0.253311
-0.20608
-1.02733
-0.958359
-0.851873
-0.740544
-0.637738
-0.546271
-0.465611
-0.394656
-0.332646
-0.281038
-1.17439
-1.09854
-0.980665
-0.857212
-0.743167
-0.641626
-0.551968
-0.473024
-0.403908
-0.345021
-1.30703
-1.22447
-1.09573
-0.960922
-0.83655
-0.725871
-0.628126
-0.542002
-0.466468
-0.401554
-1.41989
-1.33092
-1.19201
-1.04677
-0.913034
-0.794087
-0.689005
-0.596328
-0.514905
-0.444313
-1.50777
-1.41286
-1.2648
-1.11037
-0.968525
-0.842477
-0.731122
-0.632852
-0.546373
-0.470885
-1.56577
-1.46559
-1.30966
-1.14754
-0.99908
-0.867258
-0.750826
-0.648038
-0.557462
-0.477955
-1.5898
-1.48519
-1.32296
-1.15493
-1.00153
-0.865444
-0.74529
-0.639192
-0.545583
-0.463047
-1.57673
-1.46854
-1.30185
-1.12988
-0.973349
-0.834623
-0.712217
-0.604115
-0.508629
-0.424124
-1.52505
-1.41363
-1.24467
-1.07059
-0.912877
-0.773254
-0.650168
-0.541451
-0.44528
-0.3599
0.292967
0.311191
0.32984
0.343807
0.353228
0.358878
0.361422
0.361521
0.359757
0.356792
0.259675
0.279359
0.300521
0.317336
0.32954
0.337783
0.3427
0.344953
0.345139
0.344044
0.201553
0.223488
0.24853
0.269733
0.286209
0.298426
0.306972
0.31251
0.315671
0.317446
0.120075
0.144999
0.175217
0.202254
0.224391
0.24185
0.25517
0.265017
0.272066
0.277598
0.0172248
0.0458164
0.0824171
0.116621
0.145681
0.169516
0.188616
0.203653
0.215365
0.225388
-0.104452
-0.0715752
-0.0274815
0.0150961
0.0521988
0.0833992
0.109137
0.130092
0.147083
0.162154
-0.241826
-0.2041
-0.151503
-0.0994728
-0.0533351
-0.0139121
0.0191881
0.0466559
0.0693948
0.089896
-0.391231
-0.348129
-0.286111
-0.223651
-0.167575
-0.119139
-0.0780035
-0.043485
-0.0146031
0.0115892
-0.548628
-0.499642
-0.427356
-0.353549
-0.286647
-0.228375
-0.178444
-0.136234
-0.100665
-0.0684611
-0.709858
-0.654497
-0.57116
-0.485122
-0.406445
-0.337283
-0.27736
-0.226106
-0.182106
-0.142858
0.322864
0.270436
0.224466
0.184661
0.150286
0.119949
0.0916755
0.0644813
0.0377369
0.0110378
0.32186
0.27346
0.227668
0.187378
0.152304
0.121368
0.0926757
0.0651974
0.0382508
0.0113763
0.314821
0.274474
0.229998
0.189777
0.154289
0.122859
0.0937808
0.0660131
0.0388397
0.0117573
0.301293
0.273359
0.231459
0.19184
0.156223
0.12441
0.0949807
0.0669209
0.0395008
0.0121872
0.280678
0.269907
0.232045
0.193542
0.158083
0.126008
0.0962644
0.0679128
0.0402313
0.0126704
0.252375
0.263772
0.23171
0.19486
0.159849
0.12764
0.0976213
0.0689802
0.0410264
0.013212
0.216
0.25452
0.230345
0.195776
0.161506
0.129294
0.0990397
0.0701129
0.0418801
0.0138146
0.171599
0.241801
0.227839
0.196306
0.163051
0.130955
0.100506
0.0712992
0.042784
0.0144766
0.118388
0.223919
0.223454
0.196224
0.164392
0.132578
0.101995
0.0725224
0.0437265
0.0151908
0.060317
0.202318
0.217539
0.195574
0.165503
0.134133
0.103483
0.073765
0.044694
0.0159477
0.0361336
0.186967
0.211323
0.193283
0.165031
0.134412
0.10404
0.0744057
0.0453927
0.016784
0.0388445
0.170229
0.197987
0.18527
0.160664
0.132114
0.102918
0.0740084
0.0455518
0.0175028
0.0546674
0.162472
0.188768
0.178603
0.156561
0.129772
0.10169
0.0735166
0.0456383
0.0181737
0.0725055
0.158016
0.181176
0.172513
0.152531
0.127346
0.100351
0.0729268
0.0456423
0.0187714
0.091277
0.156248
0.17518
0.167132
0.148703
0.124923
0.0989538
0.0722634
0.0455688
0.019284
0.108234
0.155682
0.17025
0.162354
0.14512
0.122562
0.0975411
0.0715513
0.0454241
0.0197014
0.121571
0.155281
0.165994
0.158086
0.141812
0.120317
0.0961551
0.0708146
0.0452155
0.0200132
0.130051
0.154112
0.162009
0.154205
0.138784
0.118226
0.0948326
0.0700779
0.0449534
0.0202153
0.133493
0.151478
0.157719
0.150357
0.135838
0.116178
0.0935062
0.0692963
0.0446006
0.020273
0.132874
0.149706
0.155382
0.148411
0.134371
0.115167
0.0928568
0.0689184
0.0444321
0.0203018
-0.214393
-0.277721
-0.319694
-0.341179
-0.343879
-0.329926
-0.301691
-0.261547
-0.21205
-0.159392
-0.0550774
-0.11699
-0.161967
-0.190704
-0.204275
-0.204606
-0.1929
-0.172673
-0.143148
-0.114232
0.0645334
0.00490575
-0.0407378
-0.0729676
-0.0924112
-0.100821
-0.0986689
-0.0896782
-0.0720829
-0.055237
0.156712
0.0990167
0.0533439
0.0192514
-0.00367909
-0.0170044
-0.0211081
-0.0192714
-0.01023
-0.00150574
0.227155
0.171029
0.125514
0.0903009
0.0650597
0.0484737
0.0400151
0.0371337
0.0403942
0.0440791
0.280763
0.225749
0.180336
0.144341
0.117463
0.0986157
0.087137
0.0811246
0.0805308
0.080936
0.320689
0.266281
0.220759
0.18404
0.155837
0.135287
0.121647
0.113497
0.110324
0.108516
0.34901
0.294671
0.248707
0.21112
0.181666
0.159668
0.144379
0.134753
0.12995
0.12677
0.366557
0.31168
0.26468
0.22576
0.194775
0.171218
0.154376
0.143607
0.13801
0.135243
0.376056
0.318963
0.269686
0.228303
0.1947
0.168567
0.149221
0.136561
0.1295
0.127879
1.31262
1.26862
1.2211
1.17
1.11257
1.04702
0.971792
0.886998
0.800855
0.740174
1.10915
1.05971
1.00621
0.946824
0.879379
0.802368
0.714196
0.61529
0.515255
0.444064
0.897474
0.843066
0.783177
0.715913
0.639407
0.552016
0.451967
0.339934
0.226865
0.145377
0.692576
0.631918
0.564585
0.488873
0.402983
0.305087
0.193241
0.0683226
-0.057346
-0.149229
0.496116
0.42904
0.354438
0.270604
0.175693
0.067735
-0.0553617
-0.192501
-0.329921
-0.432593
0.3099
0.237113
0.156057
0.064969
-0.0380288
-0.155012
-0.288171
-0.436171
-0.58351
-0.698694
0.136973
0.0594784
-0.0269654
-0.124171
-0.234012
-0.358558
-0.500318
-0.657584
-0.812024
-0.940595
-0.0193582
-0.100492
-0.191183
-0.293276
-0.408643
-0.539269
-0.687788
-0.853313
-1.01381
-1.14683
-0.155868
-0.239577
-0.333357
-0.439057
-0.558578
-0.693714
-0.846165
-1.02144
-1.18767
-1.30786
-0.269936
-0.355184
-0.45091
-0.558947
-0.680726
-0.819609
-0.975521
-1.15112
-1.32003
-1.43488
2.6158
2.63469
2.65729
2.68094
2.70428
2.72696
2.7484
2.76787
2.78508
2.7968
2.55989
2.57697
2.59735
2.61851
2.6391
2.65873
2.6768
2.69258
2.70608
2.71525
2.48247
2.49688
2.51393
2.53134
2.5478
2.56288
2.57588
2.58611
2.59402
2.59947
2.38427
2.39521
2.4079
2.42039
2.43145
2.44054
2.4469
2.44983
2.45036
2.45106
2.26632
2.27308
2.28049
2.28703
2.29154
2.29335
2.29162
2.28568
2.27726
2.272
2.13012
2.13214
2.13349
2.13315
2.13007
2.12343
2.1123
2.09606
2.07727
2.06487
1.97765
1.9746
1.96933
1.96137
1.94984
1.93374
1.91204
1.88424
1.85383
1.83327
1.81242
1.80396
1.79138
1.77492
1.75397
1.72738
1.69398
1.65344
1.6103
1.58066
1.64061
1.62657
1.60567
1.57946
1.5478
1.50938
1.46296
1.40842
1.35149
1.31197
1.4688
1.44408
1.41195
1.3746
1.33133
1.28039
1.22035
1.15124
1.08006
1.03014
2.58385
2.01521
2.53309
2.36625
2.35531
2.35529
2.36186
2.3858
2.43972
2.54167
2.57647
2.00717
2.52678
2.35828
2.34634
2.34461
2.34853
2.36855
2.4155
2.50354
2.56974
1.99851
2.52174
2.34989
2.33674
2.33295
2.33349
2.34842
2.38533
2.45284
2.56361
1.98934
2.51799
2.34104
2.32653
2.32032
2.31675
2.32531
2.34899
2.38935
2.55804
1.97985
2.51551
2.33168
2.31575
2.30671
2.29829
2.29911
2.30626
2.31275
2.553
1.97025
2.51425
2.32171
2.3044
2.29212
2.27809
2.26966
2.25699
2.22275
2.54845
1.96082
2.51406
2.31105
2.29254
2.27655
2.25611
2.23674
2.20125
2.11893
2.54433
1.95195
2.51469
2.29962
2.28022
2.26
2.23224
2.20019
2.13931
2.00159
2.54057
1.94415
2.51566
2.28747
2.26755
2.24253
2.20655
2.15999
2.07078
1.86969
2.53707
1.93814
2.51627
2.2747
2.25463
2.22426
2.1795
2.1178
1.99933
1.73269
2.53343
1.93332
2.50946
2.26439
2.23866
2.20115
2.14441
2.06308
1.91367
1.59329
2.53358
1.92703
2.49932
2.25644
2.22173
2.17633
2.10732
2.0079
1.83631
1.51235
2.53593
1.92187
2.49127
2.24849
2.20632
2.15342
2.0736
1.95978
1.77312
1.45351
2.54045
1.9187
2.48476
2.24113
2.19254
2.13283
2.04372
1.91855
1.72169
1.41157
2.54753
1.91767
2.47965
2.23471
2.18059
2.11491
2.01811
1.88426
1.68129
1.38269
2.55778
1.9187
2.47591
2.22942
2.17061
2.09993
1.99702
1.85676
1.65078
1.36357
2.56465
1.92142
2.47346
2.22537
2.16271
2.08806
1.98054
1.83577
1.62888
1.3519
2.58492
1.9261
2.47233
2.2226
2.15699
2.07944
1.9687
1.82103
1.61448
1.34632
2.60482
1.92354
2.47233
2.22099
2.15356
2.07422
1.96163
1.81243
1.6068
1.34628
2.64471
1.92778
2.47664
2.21896
2.15199
2.07138
1.95789
1.80782
1.60298
1.346
1.28403
1.10547
0.915134
0.733498
0.560137
0.395048
0.240659
0.099904
-0.0243868
-0.129844
1.20786
1.06603
0.91316
0.764797
0.621011
0.481897
0.349953
0.227991
0.118532
0.0236767
1.16667
1.04891
0.92008
0.792054
0.667226
0.546013
0.430323
0.32239
0.224319
0.137905
1.14476
1.04133
0.92951
0.81681
0.706156
0.598144
0.494233
0.396338
0.306389
0.226079
1.13469
1.04099
0.94111
0.83928
0.738481
0.639648
0.54405
0.453357
0.369317
0.293501
1.13181
1.04476
0.953103
0.858987
0.765175
0.672791
0.583038
0.49744
0.41759
0.344965
1.13332
1.05086
0.964779
0.875986
0.787013
0.699061
0.613289
0.53113
0.454083
0.383553
1.1377
1.05832
0.975889
0.890511
0.804612
0.71944
0.636128
0.556055
0.480656
0.411284
1.1463
1.06915
0.988553
0.904563
0.819846
0.735674
0.65316
0.573657
0.498556
0.429135
1.15697
1.08241
1.00246
0.91853
0.833867
0.74959
0.666741
0.586665
0.510726
0.440188
-2.73887
-2.58749
-2.36433
-2.14804
-1.96421
-1.81232
-1.68842
-1.58903
-1.51147
-1.45433
-2.81383
-2.66946
-2.45
-2.23577
-2.05213
-1.90004
-1.77576
-1.6759
-1.59789
-1.54087
-2.77809
-2.6412
-2.4298
-2.22065
-2.03969
-1.88886
-1.76482
-1.66442
-1.5852
-1.52566
-2.64543
-2.51747
-2.31795
-2.11751
-1.94187
-1.79406
-1.67132
-1.57083
-1.49032
-1.42794
-2.43813
-2.32055
-2.13603
-1.94774
-1.78036
-1.63785
-1.51816
-1.41887
-1.33795
-1.2739
-2.18143
-2.07517
-1.908
-1.73497
-1.57894
-1.44447
-1.33029
-1.23452
-1.1553
-1.09209
-1.89894
-1.80435
-1.6559
-1.50052
-1.35864
-1.23499
-1.12907
-1.03953
-0.964656
-0.90514
-1.6097
-1.52657
-1.39717
-1.26076
-1.13501
-1.02444
-0.929037
-0.847963
-0.779819
-0.726173
-1.32742
-1.25517
-1.1443
-1.02726
-0.918781
-0.822883
-0.739791
-0.668962
-0.609084
-0.563649
-1.06068
-0.998495
-0.904951
-0.806641
-0.715536
-0.634857
-0.564744
-0.504579
-0.452038
-0.410225
-0.814396
-0.761312
-0.683516
-0.602782
-0.528662
-0.463746
-0.408365
-0.362409
-0.324357
-0.290698
-0.59063
-0.545547
-0.481477
-0.416204
-0.35707
-0.305911
-0.262859
-0.227563
-0.199006
-0.17296
-0.39026
-0.352024
-0.299611
-0.247478
-0.201032
-0.1614
-0.128476
-0.101725
-0.0802305
-0.0604706
-0.214024
-0.181553
-0.138926
-0.0978347
-0.0620553
-0.0321283
-0.00776187
0.011662
0.0269831
0.0409379
-0.062677
-0.0349718
-0.00041706
0.0315527
0.0585012
0.0803507
0.0975307
0.110691
0.120593
0.129299
0.0630529
0.0869365
0.115028
0.139686
0.159532
0.174846
0.186155
0.194122
0.199441
0.203644
0.16255
0.183522
0.206704
0.225802
0.240233
0.250534
0.257307
0.261219
0.26291
0.26352
0.235374
0.254331
0.274132
0.289399
0.300089
0.306915
0.310527
0.31159
0.310713
0.308756
0.281311
0.299144
0.317077
0.330228
0.338848
0.343748
0.345602
0.345075
0.342753
0.339331
0.300396
0.317994
0.335553
0.348282
0.35649
0.361008
0.362513
0.361671
0.359056
0.355302
-0.0631863
0.101446
0.140117
0.144274
0.129437
0.112062
0.0894522
0.0642012
0.0372629
0.00915205
0.0221622
0.138007
0.156169
0.152197
0.131745
0.112207
0.0889223
0.0635792
0.0368703
0.00921104
0.0943931
0.166891
0.167979
0.150168
0.133549
0.112483
0.08857
0.0631134
0.0365891
0.00931097
0.152789
0.190037
0.178149
0.156042
0.135736
0.112947
0.0884016
0.0628029
0.036414
0.00944395
0.200407
0.209292
0.187345
0.161419
0.137886
0.113566
0.0884083
0.0626418
0.0363388
0.0096037
0.238556
0.225302
0.195618
0.166267
0.140002
0.114328
0.0885828
0.0626246
0.0363582
0.00978641
0.268482
0.23862
0.203059
0.170665
0.142089
0.115224
0.0889169
0.0627452
0.0364675
0.00999026
0.291246
0.249636
0.209678
0.174666
0.144155
0.116243
0.089402
0.0629974
0.0366628
0.0102152
0.307622
0.258541
0.215461
0.178314
0.146207
0.117377
0.0900293
0.063375
0.0369411
0.0104626
0.318101
0.26546
0.220395
0.181641
0.148252
0.118615
0.0907901
0.0638716
0.0372998
0.0107353
-0.244272
-0.00846164
0.0831891
0.115588
0.119498
0.107324
0.0875881
0.0636113
0.0370353
0.00877648
-0.219042
0.00340796
0.0888693
0.118214
0.120693
0.107737
0.0877124
0.0636294
0.0370274
0.00878468
-0.18868
0.0221012
0.0985351
0.123019
0.122949
0.108567
0.088021
0.0637273
0.0370581
0.00882192
-0.15578
0.0445048
0.110761
0.12936
0.125997
0.109792
0.0885759
0.0639763
0.0371859
0.00892018
-0.118159
0.0717936
0.125992
0.137382
0.130181
0.111356
0.0893538
0.0643611
0.0374009
0.00907558
-1.3887
-1.47411
-1.47402
-1.40163
-1.27762
-1.12901
-0.971611
-0.822542
-0.677595
-0.545613
-1.39172
-1.47903
-1.4758
-1.3969
-1.26422
-1.10523
-0.933698
-0.769752
-0.615198
-0.487621
-1.39737
-1.48444
-1.47644
-1.38977
-1.24766
-1.07823
-0.901082
-0.736269
-0.585762
-0.465176
-1.40799
-1.49407
-1.48074
-1.38678
-1.23769
-1.06221
-0.882106
-0.713592
-0.562663
-0.440512
-1.4247
-1.5109
-1.49328
-1.393
-1.23775
-1.05641
-0.871662
-0.697394
-0.540952
-0.403593
1.96523
1.94484
1.9186
1.88868
1.85438
1.81398
1.76612
1.71051
1.65284
1.61309
2.11987
2.11238
2.09937
2.08257
2.06189
2.03613
2.00416
1.96561
1.92488
1.89729
2.26029
2.25888
2.25506
2.24898
2.23998
2.22704
2.20913
2.1857
2.15994
2.14285
2.38262
2.38686
2.39066
2.3933
2.39382
2.39138
2.38508
2.37428
2.36115
2.3528
2.48335
2.4925
2.50262
2.51242
2.52076
2.52697
2.53026
2.5299
2.52725
2.52597
2.5616
2.57487
2.59022
2.60585
2.62053
2.63372
2.64471
2.65277
2.65858
2.66278
2.61732
2.63375
2.65309
2.67315
2.69264
2.71111
2.72792
2.74235
2.75454
2.7629
2.65057
2.66913
2.69117
2.71425
2.73699
2.75905
2.77981
2.79854
2.81505
2.82631
2.66136
2.68102
2.70449
2.72915
2.7536
2.77754
2.80037
2.82136
2.84013
2.85292
2.64973
2.66949
2.69313
2.71796
2.7426
2.76673
2.78978
2.81101
2.83
2.84294
-1.25872
-1.31894
-1.39752
-1.49698
-1.62022
-1.77019
-1.94988
-2.16967
-2.39133
-2.55205
-0.960294
-1.02543
-1.10725
-1.20826
-1.3312
-1.47895
-1.65657
-1.86473
-2.07674
-2.2713
-0.578647
-0.651157
-0.738664
-0.842951
-0.966609
-1.11289
-1.28604
-1.48518
-1.6914
-1.87158
-0.150696
-0.231845
-0.325189
-0.432147
-0.55535
-0.697983
-0.863721
-1.05272
-1.24924
-1.40541
0.276379
0.190611
0.0955659
-0.0100677
-0.128951
-0.264063
-0.418819
-0.593593
-0.774137
-0.911912
0.667983
0.585005
0.494778
0.396121
0.286495
0.163236
0.0233269
-0.133633
-0.294786
-0.414844
1.01148
0.937661
0.857903
0.771069
0.674808
0.566857
0.444662
0.307939
0.168096
0.0658501
1.31073
1.24899
1.18255
1.11004
1.02913
0.93802
0.834661
0.718909
0.600795
0.515856
1.57896
1.52783
1.4733
1.41423
1.34791
1.27289
1.18762
1.09199
0.994641
0.925834
1.81395
1.77106
1.72524
1.67769
1.62511
1.56576
1.49822
1.42221
1.3448
1.291
2.69947
2.06818
2.64892
2.40213
2.40444
2.40613
2.40632
2.4067
2.36533
2.19993
2.68373
2.06294
2.63601
2.40434
2.40272
2.40533
2.40729
2.41558
2.39574
2.29746
2.66917
2.05826
2.62238
2.40495
2.40052
2.40385
2.40902
2.42391
2.4238
2.38539
2.65567
2.05388
2.60861
2.40398
2.39767
2.40142
2.40867
2.42914
2.446
2.4544
2.6431
2.04957
2.59515
2.40154
2.39405
2.39796
2.40675
2.43136
2.4626
2.50732
2.63136
2.04511
2.58231
2.39781
2.38959
2.39346
2.40328
2.43064
2.47348
2.54549
2.62039
2.04032
2.57032
2.39299
2.3843
2.3879
2.39826
2.42714
2.47836
2.57004
2.61018
2.03504
2.55932
2.38727
2.37818
2.3813
2.39165
2.42092
2.47782
2.58167
2.60069
2.02914
2.54941
2.38082
2.37128
2.37365
2.3834
2.41196
2.47085
2.58076
2.59192
2.02254
2.54065
2.37378
2.36364
2.36497
2.37347
2.40025
2.45815
2.56739
2.83772
2.08712
2.67168
2.40938
2.40821
2.40399
2.39241
2.36632
2.2689
2.02212
2.79404
2.08668
2.6694
2.41029
2.40785
2.40454
2.3934
2.36886
2.27434
2.02648
2.76609
2.08508
2.66553
2.40916
2.40754
2.40493
2.39536
2.37401
2.2858
2.03797
2.73992
2.08055
2.66117
2.40654
2.40684
2.40528
2.39824
2.38197
2.30368
2.06413
2.71739
2.07453
2.65697
2.40268
2.40579
2.40546
2.40174
2.39247
2.3282
2.10343
1.68195
1.52872
1.30473
1.01083
0.651325
0.233667
-0.205791
-0.614189
-0.954728
-1.21474
1.67009
1.51244
1.29249
1.00951
0.665249
0.262221
-0.171024
-0.584784
-0.938016
-1.21012
1.67967
1.51283
1.28958
1.01239
0.678163
0.285845
-0.14331
-0.563779
-0.928708
-1.21062
1.71942
1.53389
1.30109
1.02353
0.691588
0.302733
-0.125924
-0.552619
-0.92717
-1.21711
1.79048
1.57587
1.32355
1.03737
0.70264
0.314223
-0.114705
-0.546216
-0.929592
-1.22841
)
;

boundaryField
{
    left
    {
        type            zeroGradient;
    }
    right
    {
        type            fixedValue;
        value           uniform 0;
    }
    down
    {
        type            zeroGradient;
    }
    up
    {
        type            zeroGradient;
    }
    cylinder
    {
        type            zeroGradient;
    }
    defaultFaces
    {
        type            empty;
    }
}


// ************************************************************************* //
