/*--------------------------------*- C++ -*----------------------------------*\
  =========                 |
  \\      /  F ield         | OpenFOAM: The Open Source CFD Toolbox
   \\    /   O peration     | Website:  https://openfoam.org
    \\  /    A nd           | Version:  13
     \\/     M anipulation  |
\*---------------------------------------------------------------------------*/
FoamFile
{
    format      ascii;
    class       volVectorField;
    location    "0.035";
    object      U;
}
// * * * * * * * * * * * * * * * * * * * * * * * * * * * * * * * * * * * * * //

dimensions      [0 1 -1 0 0 0 0];

internalField   nonuniform List<vector> 
440
(
(0.227344 -0.184423 -1.38437e-19)
(0.628894 -0.456203 1.02344e-18)
(1.00029 -0.669537 1.57407e-19)
(1.33834 -0.830603 1.74821e-18)
(1.63523 -0.952441 -3.40444e-19)
(0.310312 -0.181335 -5.69974e-19)
(0.827198 -0.438626 -8.75237e-19)
(1.28562 -0.63403 3.02977e-19)
(1.69131 -0.780981 -1.37713e-18)
(2.04503 -0.895716 -1.17363e-18)
(0.386824 -0.153577 -7.17448e-19)
(1.00541 -0.366886 1.19345e-18)
(1.53632 -0.525001 -1.68052e-18)
(1.99541 -0.64193 2.408e-18)
(2.39032 -0.732444 1.20688e-18)
(0.444974 -0.102812 6.02839e-19)
(1.14071 -0.244106 -1.21594e-18)
(1.72649 -0.347243 -1.14423e-18)
(2.22669 -0.422328 1.74005e-18)
(2.65336 -0.480171 2.87082e-18)
(0.476601 -0.0360852 7.23007e-19)
(1.21443 -0.0849975 2.10925e-19)
(1.83047 -0.120266 2.56819e-18)
(2.35375 -0.145549 -1.23006e-18)
(2.79907 -0.165182 -5.74742e-19)
(-0.00126448 -0.0817908 -1.59944e-19)
(0.0442361 -0.215994 -4.49534e-19)
(0.106551 -0.314538 2.19274e-18)
(0.178876 -0.384511 -3.53676e-19)
(0.252794 -0.438729 -3.26132e-18)
(0.0207103 -0.108184 -2.68594e-19)
(0.0970819 -0.288669 -4.44345e-19)
(0.185694 -0.440215 -9.26287e-20)
(0.283033 -0.551533 -8.63652e-20)
(0.379671 -0.628809 2.99044e-19)
(0.0538054 -0.133567 4.58106e-19)
(0.182787 -0.353128 6.86084e-19)
(0.317955 -0.543114 4.61745e-19)
(0.456205 -0.690055 1.27457e-18)
(0.588388 -0.789384 -1.6666e-20)
(0.0982913 -0.156731 7.56874e-20)
(0.298001 -0.407462 -1.21235e-19)
(0.495691 -0.621626 5.89415e-19)
(0.687814 -0.790114 -1.71106e-18)
(0.865238 -0.903444 1.04031e-18)
(0.153591 -0.173703 -3.11275e-19)
(0.441369 -0.442332 -4.76848e-19)
(0.715496 -0.663948 -5.92353e-19)
(0.97237 -0.833786 7.18995e-19)
(1.19892 -0.943631 2.89182e-18)
(0.634696 -0.609509 4.76204e-18)
(0.989782 -0.380228 -4.98177e-18)
(1.11237 -0.183471 -8.3406e-19)
(1.16213 -0.0842236 6.85104e-19)
(1.18567 -0.0231143 -1.01213e-19)
(0.788169 -0.77082 -6.98646e-19)
(1.04716 -0.451072 8.61796e-19)
(1.15347 -0.208674 -5.09079e-19)
(1.18538 -0.0934024 -1.61782e-18)
(1.20003 -0.0253391 1.7566e-19)
(1.01169 -0.910708 -2.35999e-18)
(1.12679 -0.518842 -6.51101e-18)
(1.19819 -0.230997 4.23426e-19)
(1.21078 -0.10041 -1.53392e-18)
(1.2153 -0.0269083 -2.25679e-19)
(1.28919 -1.01959 3.50795e-18)
(1.24936 -0.574579 6.79261e-19)
(1.24735 -0.247817 1.04799e-18)
(1.23784 -0.104733 1.31787e-18)
(1.23096 -0.0277237 -3.63701e-19)
(1.57941 -1.0725 -5.81427e-19)
(1.38941 -0.615335 5.65972e-18)
(1.29628 -0.261037 0)
(1.26473 -0.105848 -7.45864e-19)
(1.24641 -0.027617 3.93473e-20)
(2.06557 -1.08464 -2.85249e-18)
(1.61861 -0.586393 -2.08136e-18)
(1.38989 -0.243174 1.4927e-19)
(1.30312 -0.0973907 -8.24784e-19)
(1.26582 -0.0251715 -1.80403e-19)
(2.45242 -0.844303 -1.92273e-18)
(1.75564 -0.448216 3.38682e-18)
(1.45164 -0.187108 1.62805e-19)
(1.33589 -0.0758121 4.58668e-19)
(1.28403 -0.0196149 0)
(2.40756 -0.478838 -8.25062e-18)
(1.67479 -0.250136 -2.88404e-19)
(1.40542 -0.114565 2.00739e-18)
(1.28404 -0.0473055 -3.17718e-19)
(1.22693 -0.012492 7.08768e-20)
(1.72013 -0.185711 8.19186e-18)
(1.14301 -0.0887437 1.10007e-18)
(0.942117 -0.0392783 5.93734e-19)
(0.85801 -0.0158259 6.83154e-33)
(0.821262 -0.00457635 -5.05422e-19)
(0.672183 0.000250882 2.18105e-18)
(0.421794 0.0161481 8.64183e-19)
(0.339613 0.00875241 -8.67495e-20)
(0.302779 0.00548307 1.72359e-19)
(0.28672 0.00214351 -7.37546e-20)
(3.56749 -0.171021 1.50478e-17)
(3.39478 -0.505838 -1.16114e-17)
(3.10844 -0.790614 7.62898e-18)
(2.74822 -1.00156 2.61007e-18)
(2.30537 -1.11317 -5.52341e-19)
(3.63026 -0.0968208 1.05919e-17)
(3.56979 -0.301281 -6.79599e-19)
(3.43726 -0.517383 -4.38828e-18)
(3.24263 -0.740141 2.67751e-18)
(2.97294 -0.962344 -6.80929e-19)
(3.00228 -0.0585358 3.92409e-18)
(2.98757 -0.173967 -2.67228e-18)
(2.95177 -0.294508 5.42137e-18)
(2.89511 -0.420218 -1.6509e-19)
(2.82748 -0.558928 -5.56287e-18)
(2.09913 -0.0261455 2.97561e-18)
(2.093 -0.0780699 8.99945e-18)
(2.07612 -0.133795 -7.21524e-19)
(2.04951 -0.190414 -7.35875e-18)
(2.03509 -0.24539 2.2529e-18)
(0.846232 -0.00166059 5.43659e-18)
(0.843733 -0.0046773 -1.32682e-19)
(0.835861 -0.00852094 5.34007e-21)
(0.821312 -0.0146997 -2.19914e-18)
(0.815267 -0.0212973 -3.97273e-18)
(1.64897 0.96636 2.52575e-18)
(1.35342 0.845047 -1.30077e-19)
(1.01521 0.682849 -3.24792e-19)
(0.641199 0.466687 -1.10606e-19)
(0.233426 0.189408 -1.64089e-19)
(2.05593 0.907384 -1.4393e-18)
(1.70497 0.792882 -1.91706e-18)
(1.30005 0.644908 5.30523e-19)
(0.839641 0.447083 -5.47861e-19)
(0.316678 0.185257 -4.57898e-20)
(2.39847 0.742852 -4.73754e-19)
(2.00633 0.651703 5.81673e-19)
(1.54834 0.53337 2.20678e-18)
(1.01614 0.372943 7.69891e-19)
(0.392462 0.156102 5.65207e-19)
(2.65792 0.489463 2.94946e-19)
(2.23349 0.430264 -1.29443e-19)
(1.73441 0.353386 -8.22007e-19)
(1.14799 0.247972 2.02048e-18)
(0.448888 0.104035 -3.47367e-19)
(2.8004 0.174175 -1.22158e-18)
(2.35602 0.1527 -1.71726e-18)
(1.83322 0.125304 -7.49156e-19)
(1.21703 0.0876746 8.34988e-19)
(0.478015 0.0365533 -3.42812e-19)
(0.258557 0.458251 -4.20167e-18)
(0.183196 0.403862 -3.25374e-18)
(0.109177 0.331997 5.55882e-19)
(0.0453645 0.228637 -1.34635e-19)
(-0.000909013 0.0871854 1.2511e-19)
(0.38804 0.650978 -8.21288e-19)
(0.290395 0.573463 -1.24938e-18)
(0.191475 0.459483 2.46803e-19)
(0.100963 0.302431 -1.12664e-19)
(0.0224372 0.114103 8.92754e-20)
(0.599339 0.811862 2.98536e-18)
(0.466697 0.712325 1.19548e-19)
(0.326967 0.56259 -2.28509e-19)
(0.18937 0.367326 -2.67385e-19)
(0.0568095 0.139824 1.28712e-19)
(0.877795 0.924367 -1.26286e-18)
(0.700671 0.811016 1.84301e-18)
(0.507398 0.6401 -2.40078e-19)
(0.307038 0.421333 1.53197e-19)
(0.102555 0.163045 -2.04056e-19)
(1.21139 0.961037 -6.01716e-19)
(0.986131 0.851639 -5.91949e-19)
(0.728738 0.680069 2.93728e-19)
(0.452079 0.454756 3.66521e-19)
(0.158814 0.17951 1.96064e-21)
(0.705876 0.134551 -2.85076e-18)
(1.26462 0.142367 -4.41393e-19)
(1.10579 0.206422 6.30853e-20)
(0.996657 0.386656 -9.06663e-18)
(0.644692 0.622 3.12829e-18)
(0.701478 0.101944 1.34033e-18)
(1.27417 0.136324 2.90955e-18)
(1.14004 0.226759 2.43014e-18)
(1.05146 0.454625 1.49127e-18)
(0.797234 0.783806 8.95685e-19)
(0.696326 0.0698036 6.58251e-19)
(1.2916 0.126499 -1.31992e-19)
(1.17955 0.243078 -4.98036e-19)
(1.12826 0.519501 2.60672e-18)
(1.01926 0.923222 -2.5467e-18)
(0.690733 0.0377002 -8.08129e-20)
(1.31584 0.113837 -3.56446e-18)
(1.22491 0.25377 -1.42155e-18)
(1.24758 0.57183 -6.17257e-18)
(1.29435 1.03096 1.25724e-18)
(0.685082 0.00635502 2.0844e-19)
(1.34669 0.09877 5.35446e-19)
(1.27188 0.261338 7.40164e-19)
(1.383 0.611538 6.5565e-18)
(1.58135 1.08327 -4.86317e-18)
(0.686558 -0.0436502 1.30244e-18)
(1.39041 0.0721413 1.5429e-18)
(1.36104 0.237142 -1.67759e-18)
(1.60271 0.57699 1.21361e-17)
(2.05655 1.08833 -7.72675e-18)
(0.698823 -0.125569 -1.03101e-19)
(1.43706 0.032936 -5.37895e-19)
(1.42857 0.177679 1.61722e-19)
(1.7343 0.4418 -4.17956e-18)
(2.42708 0.844419 2.07835e-18)
(0.706893 -0.274656 5.27696e-18)
(1.42188 -0.0166955 3.80905e-35)
(1.40948 0.108568 -1.71337e-18)
(1.66718 0.248782 3.29179e-18)
(2.39711 0.478454 5.96524e-18)
(0.618606 -0.27297 2.68075e-19)
(0.97614 -0.0495413 -8.98215e-20)
(0.952172 0.035149 6.12186e-19)
(1.14615 0.0873393 1.01733e-18)
(1.72388 0.18373 -9.95603e-18)
(0.31804 -0.0379869 -4.04643e-18)
(0.366192 -0.014172 1.0837e-20)
(0.343538 -0.000406404 1.11042e-18)
(0.425589 -0.0160245 -8.88079e-19)
(0.677637 -0.000329271 -1.67032e-18)
(2.31238 1.12148 4.88235e-18)
(2.7477 1.01071 3.75407e-18)
(3.10672 0.801558 -6.81473e-18)
(3.39185 0.517933 -1.68029e-17)
(3.56563 0.18433 1.84115e-17)
(2.95478 0.959201 5.00132e-18)
(3.22316 0.745774 2.61666e-17)
(3.42158 0.522388 7.5549e-18)
(3.55829 0.304173 -3.15013e-17)
(3.62599 0.0980861 -5.20805e-18)
(2.81582 0.554266 -8.26185e-18)
(2.88747 0.420517 -3.83093e-18)
(2.94778 0.294486 -7.41071e-18)
(2.98604 0.172284 -7.42707e-18)
(3.002 0.0552614 6.97626e-18)
(2.03283 0.241211 6.00253e-18)
(2.04877 0.188344 -4.92068e-19)
(2.07622 0.132338 5.26742e-18)
(2.09358 0.0763406 6.77617e-18)
(2.09946 0.0239736 -6.26614e-18)
(0.817874 0.0207709 -5.80289e-19)
(0.823596 0.0142769 3.77872e-18)
(0.837727 0.00816677 2.64972e-18)
(0.845094 0.00426925 -5.42742e-18)
(0.846749 0.00119511 -4.09597e-20)
(0.378463 0.0272158 6.60573e-19)
(0.861765 0.0529976 -8.95749e-19)
(1.22709 0.0582074 -4.60729e-19)
(1.21146 0.0397105 -1.43521e-18)
(0.929496 0.0239819 -5.58862e-19)
(0.33371 0.0729846 1.01074e-18)
(0.781647 0.141951 1.12297e-18)
(1.10526 0.165513 -9.76273e-19)
(1.18815 0.132627 1.82028e-18)
(0.951688 0.078127 -2.22527e-18)
(0.257401 0.0974371 6.62413e-19)
(0.636526 0.194729 -5.7389e-19)
(0.917951 0.243162 -8.55319e-19)
(1.08026 0.228946 -1.68634e-18)
(0.951876 0.145487 -2.94611e-18)
(0.174158 0.0999309 -5.24199e-19)
(0.465826 0.212159 -9.87754e-19)
(0.702901 0.281092 3.96906e-18)
(0.876122 0.301348 -3.88663e-19)
(0.900649 0.236542 1.8854e-18)
(0.106672 0.0918542 -3.76437e-19)
(0.312239 0.210321 9.18157e-19)
(0.495217 0.294622 5.9378e-19)
(0.637677 0.340548 -1.13762e-18)
(0.73874 0.338252 -1.81022e-19)
(0.062454 0.0804836 1.33743e-19)
(0.202149 0.191516 -6.49381e-19)
(0.33218 0.271688 -2.36869e-19)
(0.4414 0.307395 -4.44479e-19)
(0.517041 0.303062 1.38369e-19)
(0.0323933 0.0661173 1.06254e-19)
(0.126172 0.156086 9.61055e-20)
(0.215559 0.212804 -2.79972e-19)
(0.297151 0.234686 -2.86392e-19)
(0.36387 0.231136 -1.95974e-19)
(0.0134174 0.0451447 -8.47999e-20)
(0.0785626 0.093573 2.79161e-18)
(0.140555 0.11018 -2.65398e-18)
(0.204041 0.109155 -4.1067e-18)
(0.262068 0.0963055 1.32645e-18)
(0.0109438 -0.0059728 -8.4605e-19)
(0.0540196 -0.0112835 -2.9472e-18)
(0.103223 -0.0239346 4.74895e-18)
(0.160709 -0.0427316 3.11429e-18)
(0.217808 -0.0668251 -3.45692e-19)
(-0.00894603 -0.0540364 1.19578e-19)
(0.0324747 -0.127846 -5.62219e-19)
(0.0849742 -0.171105 1.78601e-19)
(0.14601 -0.208752 -3.38001e-20)
(0.20858 -0.245378 -1.18471e-18)
(0.543248 0.113074 1.72496e-18)
(0.731423 -0.0259549 4.16283e-18)
(0.850093 -0.0347593 -1.04145e-19)
(0.922218 -0.0198076 1.10237e-19)
(0.963506 -0.0061473 5.23033e-20)
(0.491427 -0.0178977 1.23995e-18)
(0.825246 -0.107076 -3.12185e-18)
(0.986599 -0.0631519 -2.17558e-19)
(1.07976 -0.0323461 1.08489e-19)
(1.12918 -0.00951034 -1.55905e-19)
(0.48254 -0.140909 3.44545e-18)
(0.863888 -0.167898 -4.9538e-18)
(1.01952 -0.0942565 -1.22904e-19)
(1.10834 -0.0469843 -3.19691e-20)
(1.15245 -0.0134178 2.50848e-19)
(0.504535 -0.288207 -2.14708e-18)
(0.901869 -0.238115 7.75319e-18)
(1.04542 -0.125491 2.27742e-19)
(1.12353 -0.0604762 -5.76079e-20)
(1.16157 -0.0169955 6.28379e-20)
(0.549962 -0.44469 -8.97526e-19)
(0.943173 -0.308687 1.36742e-18)
(1.07615 -0.155542 -4.23682e-19)
(1.14143 -0.073147 2.57301e-19)
(1.17271 -0.020312 2.20188e-19)
(0.201617 -0.047393 3.24344e-19)
(0.154105 -0.00764101 0)
(0.189238 0.0025319 -1.81872e-22)
(0.209956 0.00232326 2.03137e-19)
(0.219844 0.000991831 -1.38291e-19)
(0.524236 0.0629857 0)
(0.479532 -0.00382739 0)
(0.559874 -0.0136952 1.45158e-18)
(0.607219 -0.00735556 5.78127e-19)
(0.630326 -0.00235388 -5.71654e-20)
(0.224971 -0.00107487 -4.32756e-19)
(0.254707 -0.000804487 3.15754e-18)
(0.284641 0.000542144 -5.0869e-19)
(0.294528 -0.00433987 -2.75817e-18)
(0.298327 -0.0046219 -3.91087e-19)
(0.589138 0.00700493 6.80919e-19)
(0.650807 0.0305723 3.77528e-18)
(0.704772 0.0716688 -5.05935e-18)
(0.724452 0.119421 2.11239e-18)
(0.742873 0.208012 4.42296e-18)
(0.516872 -0.302389 -4.5897e-19)
(0.441581 -0.307398 1.8803e-19)
(0.332833 -0.272504 -1.22809e-19)
(0.202857 -0.192538 2.46609e-19)
(0.0629419 -0.0810197 4.75674e-20)
(0.365442 -0.227337 7.9911e-19)
(0.298443 -0.232017 2.40687e-18)
(0.216789 -0.211669 6.90805e-19)
(0.127109 -0.156312 -1.5107e-20)
(0.032834 -0.0665549 -8.13927e-20)
(0.26609 -0.0887909 -1.21315e-18)
(0.207042 -0.102535 5.98617e-20)
(0.142754 -0.105052 3.08819e-18)
(0.0801641 -0.0906447 6.31047e-19)
(0.0139862 -0.0447313 -7.02159e-20)
(0.22282 0.0779976 -1.59992e-18)
(0.164209 0.053407 -1.57479e-18)
(0.105289 0.0337526 2.26506e-18)
(0.0548003 0.0199888 3.20737e-18)
(0.0103056 0.012436 4.565e-19)
(0.213008 0.260529 -6.45131e-19)
(0.148714 0.22363 -6.49836e-19)
(0.0859239 0.184925 -8.19157e-20)
(0.0318332 0.139001 7.01859e-19)
(-0.010034 0.0590545 1.31067e-19)
(0.929467 -0.023943 1.83803e-18)
(1.21137 -0.03976 -1.71342e-18)
(1.22695 -0.0584605 2.30892e-18)
(0.861807 -0.053129 6.55622e-19)
(0.378543 -0.0272424 6.40621e-19)
(0.951557 -0.0780521 2.40106e-18)
(1.18778 -0.132668 7.29925e-18)
(1.1051 -0.165718 9.67388e-19)
(0.781779 -0.142083 1.44899e-18)
(0.333924 -0.0730459 -5.66313e-19)
(0.951464 -0.145385 -2.19806e-18)
(1.0796 -0.228888 -2.09789e-18)
(0.917928 -0.243323 2.65876e-18)
(0.63675 -0.194903 1.55503e-19)
(0.25769 -0.0975471 1.31873e-19)
(0.899729 -0.23652 1.6967e-19)
(0.875705 -0.301557 -7.96929e-18)
(0.703026 -0.281513 -5.4358e-18)
(0.466179 -0.212542 5.59322e-19)
(0.174505 -0.100127 4.20508e-19)
(0.737728 -0.338131 5.18605e-19)
(0.637513 -0.341054 3.35957e-19)
(0.495548 -0.295447 -7.21766e-19)
(0.312767 -0.211047 -5.2748e-19)
(0.107108 -0.0921962 -2.68295e-21)
(0.677394 0.34067 1.07555e-18)
(1.11694 0.0932878 1.04865e-20)
(0.873982 0.0460818 -2.66688e-19)
(0.742993 0.0313029 2.43476e-18)
(0.54977 -0.110044 4.34522e-19)
(0.711953 0.295461 -1.91993e-19)
(1.29092 0.110067 -9.27771e-19)
(1.01103 0.0830669 -1.07509e-18)
(0.840174 0.114285 -3.86643e-18)
(0.500661 0.0245193 -1.17215e-18)
(0.714174 0.241889 -3.19515e-18)
(1.28648 0.126424 -1.05228e-19)
(1.03789 0.118004 -4.28142e-19)
(0.877964 0.176993 -3.52545e-18)
(0.494375 0.148619 3.91191e-18)
(0.712484 0.203405 3.62697e-18)
(1.27103 0.138727 2.10691e-19)
(1.05579 0.151605 4.8534e-19)
(0.913604 0.247581 4.07197e-18)
(0.516455 0.297692 2.49367e-18)
(0.709527 0.168122 7.04241e-19)
(1.26352 0.143571 -8.0286e-19)
(1.07778 0.181364 8.04051e-19)
(0.952435 0.317238 2.51369e-18)
(0.560765 0.455763 -2.40286e-18)
(0.269356 0.0448444 0)
(0.282163 0.00129283 4.29146e-19)
(0.193949 -0.0131046 -1.05704e-20)
(0.157991 0.00707476 -3.58472e-19)
(0.202772 0.0466892 -6.52827e-19)
(0.552055 0.250031 -9.92413e-18)
(0.743197 0.0601604 -1.18523e-18)
(0.572889 0.0179153 2.48662e-18)
(0.485627 0.00613482 2.02993e-18)
(0.52567 -0.0615143 1.69223e-18)
(0.298416 0.00468705 1.82703e-19)
(0.294613 0.00444812 1.66243e-18)
(0.284756 -0.000475484 7.41529e-19)
(0.254776 0.000824945 1.73725e-19)
(0.224992 0.00108254 0)
(0.742253 -0.207653 -2.09726e-18)
(0.724302 -0.119445 1.86453e-18)
(0.704719 -0.0715252 -1.48113e-18)
(0.650834 -0.0305046 -8.14785e-19)
(0.589155 -0.00697335 9.52036e-19)
)
;

boundaryField
{
    left
    {
        type            fixedValue;
        value           uniform (1 0 0);
    }
    right
    {
        type            zeroGradient;
    }
    down
    {
        type            noSlip;
    }
    up
    {
        type            noSlip;
    }
    cylinder
    {
        type            noSlip;
    }
    defaultFaces
    {
        type            empty;
    }
}


// ************************************************************************* //
