/*--------------------------------*- C++ -*----------------------------------*\
  =========                 |
  \\      /  F ield         | OpenFOAM: The Open Source CFD Toolbox
   \\    /   O peration     | Website:  https://openfoam.org
    \\  /    A nd           | Version:  13
     \\/     M anipulation  |
\*---------------------------------------------------------------------------*/
FoamFile
{
    format      ascii;
    class       volScalarField;
    location    "2.2575";
    object      p;
}
// * * * * * * * * * * * * * * * * * * * * * * * * * * * * * * * * * * * * * //

dimensions      [0 2 -2 0 0 0 0];

internalField   nonuniform List<scalar> 
1800
(
-1.12791
-1.12601
-1.08076
-0.997846
-0.898362
-0.801072
-0.713473
-0.63614
-0.567661
-0.511315
-1.32697
-1.32346
-1.27121
-1.17698
-1.06493
-0.955785
-0.857633
-0.771282
-0.696497
-0.634851
-1.51625
-1.51062
-1.45079
-1.34515
-1.22086
-1.10026
-0.991744
-0.896084
-0.812594
-0.741433
-1.69111
-1.68272
-1.61515
-1.49866
-1.36337
-1.23286
-1.11562
-1.0122
-0.921677
-0.843993
-1.84546
-1.83359
-1.75791
-1.63096
-1.48558
-1.34617
-1.22106
-1.11053
-1.01353
-0.929317
-1.97443
-1.95848
-1.87472
-1.7382
-1.58418
-1.4375
-1.30607
-1.18989
-1.08769
-0.998371
-2.07295
-2.05239
-1.9607
-1.81564
-1.65457
-1.50222
-1.36595
-1.24546
-1.13931
-1.04605
-2.13699
-2.11147
-2.0124
-1.86016
-1.69382
-1.53757
-1.39805
-1.27468
-1.16585
-1.06985
-2.16334
-2.13275
-2.02707
-1.86923
-1.69953
-1.54115
-1.39996
-1.27513
-1.16491
-1.06735
-2.15004
-2.1147
-2.00315
-1.84165
-1.67047
-1.51165
-1.37034
-1.24537
-1.13492
-1.03685
0.341447
0.347626
0.358233
0.371059
0.382088
0.389164
0.392258
0.392059
0.389335
0.38466
0.291279
0.297465
0.308982
0.324015
0.338091
0.348412
0.35461
0.357271
0.357156
0.354998
0.212846
0.218975
0.231853
0.250255
0.26897
0.284225
0.29513
0.30212
0.305956
0.307633
0.108167
0.113537
0.128292
0.151243
0.176144
0.197934
0.215039
0.227706
0.236704
0.243404
-0.0199407
-0.0171946
0.00018352
0.0289408
0.0615247
0.0913321
0.115982
0.135509
0.150714
0.163459
-0.169155
-0.170756
-0.149729
-0.113903
-0.0722883
-0.0331894
0.00013063
0.0274824
0.0497323
0.0693324
-0.341115
-0.341096
-0.316911
-0.27352
-0.221993
-0.172703
-0.1299
-0.0940301
-0.0641313
-0.0371566
-0.526916
-0.5269
-0.498531
-0.446643
-0.384425
-0.324345
-0.271595
-0.226881
-0.189044
-0.15468
-0.723164
-0.722579
-0.689476
-0.628387
-0.554909
-0.483643
-0.420714
-0.367076
-0.321219
-0.27997
-0.924879
-0.923775
-0.884969
-0.81341
-0.72735
-0.643541
-0.568992
-0.504799
-0.449175
-0.400554
0.345185
0.27622
0.217989
0.172816
0.136766
0.106874
0.0805699
0.0563827
0.0333532
0.010833
0.332037
0.270189
0.215211
0.17114
0.135484
0.105837
0.079765
0.0558161
0.0330258
0.0107441
0.310707
0.260407
0.210821
0.1688
0.13394
0.104707
0.0789461
0.0552658
0.0327182
0.0106663
0.280668
0.246879
0.204767
0.165753
0.13211
0.103472
0.0781034
0.0547248
0.0324266
0.0106003
0.241223
0.229604
0.196995
0.161949
0.129973
0.102119
0.0772272
0.054186
0.0321477
0.0105471
0.191653
0.208592
0.187441
0.157333
0.1275
0.100635
0.076309
0.0536423
0.031877
0.0105073
0.131467
0.184024
0.176142
0.151868
0.124665
0.0990081
0.0753404
0.0530877
0.0316116
0.0104813
0.0597434
0.155731
0.163209
0.145572
0.121461
0.0972344
0.0743171
0.0525173
0.0313479
0.010469
-0.0254562
0.122167
0.148074
0.13817
0.117753
0.0952545
0.0732136
0.051918
0.03108
0.0104705
-0.119007
0.0841024
0.131153
0.129785
0.113516
0.0930302
0.0720038
0.0512732
0.0307969
0.0104832
-0.172959
0.048898
0.110914
0.117838
0.106416
0.0887303
0.0693648
0.049703
0.0300235
0.0104064
-0.189295
0.0134546
0.0829847
0.0992508
0.0947524
0.0814448
0.0648058
0.0469465
0.0286001
0.0100992
-0.189103
-0.00846633
0.0626782
0.0838846
0.0842166
0.074537
0.0603785
0.0442384
0.0271857
0.00978097
-0.185675
-0.0269253
0.0442081
0.069539
0.0741617
0.0678454
0.0560564
0.0415821
0.0257845
0.00944685
-0.177916
-0.0399207
0.0289982
0.0569266
0.0649566
0.0615751
0.0519572
0.0390438
0.0244309
0.00910612
-0.16917
-0.0495911
0.0162891
0.0459221
0.056691
0.0558405
0.0481682
0.0366791
0.0231539
0.00876614
-0.161517
-0.0570238
0.00570912
0.0364821
0.0494531
0.0507464
0.0447709
0.0345414
0.0219808
0.00843358
-0.15662
-0.0634461
-0.00320271
0.0285309
0.0433167
0.0463956
0.0418504
0.0326884
0.0209442
0.00812387
-0.152815
-0.0691105
-0.0108838
0.0218113
0.0381616
0.0427395
0.0393851
0.0311072
0.020022
0.00781514
-0.159008
-0.0748406
-0.016228
0.0176236
0.0350457
0.0405446
0.0379077
0.0301576
0.0194611
0.00762501
-0.870919
-0.901315
-0.907921
-0.892109
-0.855865
-0.801738
-0.733331
-0.651726
-0.563686
-0.469289
-0.692516
-0.722123
-0.733359
-0.727261
-0.704441
-0.668307
-0.619806
-0.562225
-0.500508
-0.435477
-0.556987
-0.586205
-0.599934
-0.599526
-0.584845
-0.560088
-0.524043
-0.481828
-0.435053
-0.384379
-0.452556
-0.481483
-0.496967
-0.500315
-0.491221
-0.473694
-0.445975
-0.413589
-0.376499
-0.33651
-0.373352
-0.401863
-0.418503
-0.424297
-0.419125
-0.406346
-0.384606
-0.358925
-0.328657
-0.296009
-0.313249
-0.341581
-0.35917
-0.366747
-0.364457
-0.354917
-0.337411
-0.31622
-0.290571
-0.262806
-0.268776
-0.297257
-0.315702
-0.324649
-0.324481
-0.317201
-0.302655
-0.284453
-0.262029
-0.237577
-0.237015
-0.266413
-0.285847
-0.295962
-0.297419
-0.291776
-0.279284
-0.263027
-0.242723
-0.220861
-0.22139
-0.250031
-0.270385
-0.281831
-0.284591
-0.279958
-0.26831
-0.252301
-0.231796
-0.20786
-0.210105
-0.24169
-0.264169
-0.278118
-0.284042
-0.282697
-0.274795
-0.261747
-0.243563
-0.220272
0.425341
0.37289
0.312703
0.247465
0.175208
0.0936526
0.0023919
-0.091968
-0.169198
-0.19962
0.233073
0.176176
0.111717
0.0400591
-0.0410131
-0.133425
-0.236986
-0.343827
-0.431163
-0.464355
0.0278702
-0.0342609
-0.103822
-0.181749
-0.270374
-0.371582
-0.485089
-0.602334
-0.699268
-0.732264
-0.165061
-0.233886
-0.310764
-0.396995
-0.494743
-0.605892
-0.729993
-0.857735
-0.966889
-0.998879
-0.34209
-0.418305
-0.503225
-0.598383
-0.705924
-0.827695
-0.962707
-1.10054
-1.22563
-1.25333
-0.505206
-0.588097
-0.680398
-0.783876
-0.900718
-1.03275
-1.17807
-1.32347
-1.46288
-1.49003
-0.653798
-0.742072
-0.840597
-0.951272
-1.07634
-1.21802
-1.37475
-1.53227
-1.65624
-1.69741
-0.784354
-0.876733
-0.980079
-1.09623
-1.22711
-1.37419
-1.54677
-1.70561
-1.82401
-1.86914
-0.893148
-0.988891
-1.09634
-1.21744
-1.35341
-1.50797
-1.67749
-1.84022
-1.95885
-2.00253
-0.977167
-1.0752
-1.18508
-1.30892
-1.44875
-1.60645
-1.77737
-1.94028
-2.05671
-2.09641
1.59229
1.60603
1.62152
1.6369
1.65126
1.66399
1.6743
1.68166
1.68735
1.69197
1.54119
1.55293
1.56597
1.57856
1.58984
1.59917
1.60574
1.60926
1.61169
1.61469
1.46988
1.47881
1.48833
1.4969
1.50375
1.50816
1.50932
1.50727
1.50501
1.50574
1.3789
1.38431
1.38935
1.39278
1.39395
1.39206
1.38627
1.37705
1.36878
1.36663
1.26917
1.2705
1.27029
1.26763
1.26202
1.25259
1.23849
1.22069
1.20518
1.19947
1.14226
1.13911
1.13295
1.12332
1.10993
1.09182
1.06813
1.04046
1.01668
1.00704
1.0009
0.993096
0.980572
0.96332
0.941307
0.91349
0.879058
0.840352
0.807356
0.793494
0.850947
0.837719
0.817465
0.791105
0.759025
0.72008
0.673493
0.622488
0.579392
0.561333
0.698377
0.679574
0.650714
0.614051
0.570554
0.518996
0.45874
0.394076
0.339933
0.317393
0.553412
0.520599
0.477418
0.427592
0.371168
0.306147
0.231738
0.153215
0.0879389
0.0614803
1.44898
1.35525
1.46758
1.34823
1.37866
1.38359
1.38929
1.41296
1.45418
1.53623
1.44337
1.35021
1.46267
1.34233
1.37222
1.37572
1.37923
1.39943
1.43443
1.50312
1.43821
1.34526
1.45806
1.33577
1.36539
1.3671
1.36769
1.38331
1.40945
1.4583
1.43349
1.34043
1.45375
1.32856
1.35822
1.35772
1.35466
1.36448
1.37919
1.4013
1.4292
1.33577
1.44973
1.32076
1.35076
1.34756
1.34012
1.34277
1.34361
1.33151
1.42536
1.33132
1.44598
1.31239
1.34307
1.33659
1.32403
1.31801
1.30259
1.24832
1.42197
1.32714
1.44241
1.30355
1.33518
1.32475
1.30633
1.2901
1.25564
1.15088
1.41902
1.3233
1.43889
1.29437
1.3271
1.31196
1.28693
1.2589
1.20244
1.04129
1.41651
1.31992
1.43524
1.28509
1.31883
1.29826
1.26585
1.22422
1.14182
0.916668
1.41463
1.31719
1.43114
1.27603
1.31023
1.2837
1.24349
1.18762
1.07749
0.790121
1.41259
1.31433
1.42568
1.26786
1.29752
1.26513
1.21448
1.14114
1.00541
0.672093
1.41246
1.31084
1.42144
1.26026
1.2828
1.24517
1.18424
1.09639
0.944379
0.628358
1.41375
1.30812
1.41827
1.25307
1.26941
1.22664
1.15678
1.05784
0.895736
0.595659
1.41737
1.30666
1.41583
1.2467
1.25738
1.20984
1.13242
1.02535
0.856486
0.574094
1.42338
1.30663
1.41403
1.2413
1.2469
1.19513
1.11158
0.998693
0.826106
0.56164
1.43221
1.30808
1.41279
1.23691
1.23809
1.18272
1.09441
0.977497
0.803529
0.555255
1.44416
1.31058
1.41203
1.23344
1.23105
1.17275
1.08094
0.961369
0.78757
0.553112
1.46399
1.31488
1.41232
1.2308
1.22588
1.16534
1.07118
0.949976
0.777236
0.554346
1.47733
1.31473
1.41082
1.22857
1.22281
1.16058
1.06514
0.943154
0.771516
0.558645
1.52424
1.32533
1.41342
1.22556
1.22251
1.1581
1.06233
0.939829
0.769213
0.561315
0.401064
0.23573
0.0578964
-0.107129
-0.258268
-0.399055
-0.529077
-0.644507
-0.741428
-0.815794
0.345108
0.218514
0.0821915
-0.04856
-0.171122
-0.286898
-0.395273
-0.492915
-0.57688
-0.645882
0.322648
0.221424
0.113269
0.0041656
-0.100767
-0.200255
-0.293775
-0.378765
-0.452429
-0.512673
0.321736
0.232824
0.140648
0.0462242
-0.0455808
-0.13256
-0.21457
-0.289836
-0.3558
-0.410487
0.329744
0.248731
0.167419
0.0838637
0.00128177
-0.0775742
-0.152181
-0.221107
-0.282092
-0.333279
0.341801
0.26618
0.191809
0.115412
0.0390061
-0.0343556
-0.103831
-0.168288
-0.225752
-0.274469
0.354634
0.282923
0.213202
0.141594
0.0693362
-0.000408369
-0.0665652
-0.128151
-0.18339
-0.230645
0.367005
0.297855
0.231184
0.162511
0.0927017
0.0250654
-0.0391769
-0.0991017
-0.153022
-0.199333
0.381477
0.313799
0.24809
0.179854
0.110253
0.0427087
-0.0215075
-0.0815066
-0.135758
-0.182756
0.394601
0.330424
0.265398
0.196788
0.127221
0.0594795
-0.00535485
-0.0661852
-0.121466
-0.169798
-3.30069
-3.24409
-3.09237
-2.89221
-2.69443
-2.52092
-2.37484
-2.25413
-2.15749
-2.08507
-3.38107
-3.33543
-3.19621
-3.00056
-2.80058
-2.62305
-2.47347
-2.35003
-2.25187
-2.18023
-3.35681
-3.32236
-3.19732
-3.00725
-2.8046
-2.62184
-2.46745
-2.34013
-2.23857
-2.16368
-3.23067
-3.20668
-3.09612
-2.91251
-2.70764
-2.51932
-2.35945
-2.22755
-2.12185
-2.04123
-3.01075
-2.99623
-2.89949
-2.72426
-2.51994
-2.32823
-2.16426
-2.02868
-1.9196
-1.83446
-2.71105
-2.70527
-2.62119
-2.45754
-2.25931
-2.06944
-1.90542
-1.76914
-1.65875
-1.57255
-2.35441
-2.35671
-2.28392
-2.13567
-1.95094
-1.77067
-1.61313
-1.48134
-1.37321
-1.28918
-1.96788
-1.97869
-1.91567
-1.78575
-1.62119
-1.45817
-1.31406
-1.19248
-1.09182
-1.01374
-1.58024
-1.60096
-1.54569
-1.43548
-1.29544
-1.15545
-1.03068
-0.924748
-0.836278
-0.770361
-1.22913
-1.23617
-1.19209
-1.10278
-0.988552
-0.873494
-0.770058
-0.681278
-0.604305
-0.544846
-0.906835
-0.910042
-0.873644
-0.802237
-0.711938
-0.621607
-0.541167
-0.473515
-0.416407
-0.367033
-0.624723
-0.623319
-0.59381
-0.537515
-0.467341
-0.397826
-0.33641
-0.285026
-0.242399
-0.20351
-0.380812
-0.376725
-0.352568
-0.308302
-0.254227
-0.201391
-0.155174
-0.116679
-0.0850973
-0.0558842
-0.17389
-0.1683
-0.148448
-0.113959
-0.0731083
-0.0341603
-0.000829322
0.0263855
0.0482139
0.0680797
-0.00243787
0.0038641
0.0203063
0.0469782
0.0771877
0.104868
0.12763
0.145414
0.158967
0.170662
0.134992
0.141506
0.155375
0.176065
0.198075
0.217017
0.231513
0.241818
0.248698
0.253751
0.239499
0.245927
0.25797
0.274326
0.290344
0.302861
0.311226
0.315925
0.31773
0.317726
0.311809
0.318077
0.328941
0.342447
0.354489
0.36272
0.366966
0.367865
0.366195
0.362711
0.352461
0.358685
0.368934
0.380948
0.390893
0.396847
0.398892
0.397744
0.394182
0.388782
0.362116
0.368321
0.378492
0.390298
0.399929
0.405524
0.407209
0.405717
0.401823
0.396047
-0.0519678
0.125607
0.158125
0.154508
0.137625
0.114983
0.0901601
0.0645537
0.0385874
0.0123446
0.0536096
0.16189
0.17262
0.160345
0.138625
0.114219
0.0889316
0.0634288
0.0378416
0.0121249
0.138508
0.190689
0.184063
0.164015
0.139204
0.113434
0.0877786
0.0623874
0.0371564
0.0119258
0.203177
0.214283
0.193882
0.16741
0.139607
0.112669
0.086706
0.0614271
0.0365279
0.011745
0.253253
0.234214
0.202167
0.170076
0.139797
0.111906
0.0857018
0.0605404
0.0359515
0.0115799
0.291365
0.250469
0.208716
0.172053
0.139793
0.111142
0.0847573
0.0597208
0.0354229
0.0114284
0.31911
0.263024
0.213637
0.173403
0.139597
0.110365
0.0838624
0.0589613
0.034938
0.0112889
0.33773
0.271932
0.217015
0.17415
0.139205
0.109563
0.0830069
0.0582551
0.0344927
0.01116
0.348042
0.277077
0.218867
0.174303
0.138611
0.108723
0.0821802
0.0575948
0.0340827
0.0110412
0.350483
0.27851
0.219197
0.173862
0.137802
0.107831
0.0813715
0.0569731
0.0337043
0.0109322
-0.300926
-0.012989
0.0936133
0.124712
0.12661
0.111759
0.0900668
0.0654555
0.0394951
0.0126878
-0.224001
0.0238906
0.105943
0.130956
0.127862
0.112054
0.0900486
0.0653468
0.0393798
0.0126384
-0.193993
0.0416622
0.115326
0.135167
0.129698
0.112625
0.0901051
0.0652308
0.0392426
0.0125804
-0.158693
0.0644659
0.12736
0.140746
0.132225
0.113538
0.0903069
0.065173
0.0391345
0.0125381
-0.117821
0.0945761
0.143849
0.148682
0.135672
0.114747
0.0906364
0.0651674
0.0390528
0.0125108
-2.01935
-2.11732
-2.11442
-2.02109
-1.84679
-1.6344
-1.3801
-1.14439
-0.903883
-0.690457
-2.01758
-2.10827
-2.09978
-1.99968
-1.82672
-1.61206
-1.35498
-1.11396
-0.879726
-0.658021
-2.01975
-2.11022
-2.09754
-1.99067
-1.80946
-1.58295
-1.31829
-1.05913
-0.821515
-0.616344
-2.02964
-2.12209
-2.10666
-1.99133
-1.79703
-1.55112
-1.27627
-1.0082
-0.777672
-0.583974
-2.04812
-2.14281
-2.12455
-2.00046
-1.79264
-1.53123
-1.24934
-0.977609
-0.741341
-0.535539
0.992339
0.96928
0.938404
0.902535
0.861792
0.814209
0.758424
0.697918
0.647083
0.624251
1.12643
1.11869
1.10298
1.08129
1.05458
1.02164
0.981475
0.936834
0.899257
0.882914
1.25396
1.25158
1.24415
1.2325
1.21699
1.19657
1.17023
1.13981
1.11415
1.10377
1.36661
1.36931
1.36926
1.36628
1.36024
1.35025
1.33536
1.31671
1.30084
1.29525
1.46127
1.46791
1.4734
1.47704
1.47843
1.47674
1.47106
1.46197
1.45415
1.45266
1.53567
1.54568
1.55576
1.56478
1.57214
1.57708
1.57874
1.57722
1.57572
1.57726
1.589
1.60156
1.6151
1.62815
1.63995
1.64983
1.65696
1.66107
1.66424
1.66793
1.62127
1.63552
1.65136
1.66707
1.68181
1.69494
1.70566
1.71347
1.71967
1.72473
1.63251
1.64753
1.66445
1.68144
1.69756
1.71224
1.72468
1.73424
1.74186
1.74753
1.62282
1.63767
1.65446
1.67132
1.6873
1.70183
1.71412
1.72352
1.73096
1.73648
-1.88998
-1.96578
-2.06224
-2.18067
-2.32359
-2.49347
-2.68915
-2.89145
-3.05286
-3.11884
-1.61631
-1.69511
-1.79129
-1.90698
-2.04591
-2.21123
-2.40188
-2.60391
-2.77615
-2.84606
-1.28831
-1.36767
-1.46264
-1.575
-1.70853
-1.86579
-2.04581
-2.23727
-2.44171
-2.49517
-0.928524
-1.00739
-1.10079
-1.20975
-1.33766
-1.48744
-1.66002
-1.84681
-2.021
-2.08206
-0.560647
-0.639292
-0.730304
-0.834267
-0.954408
-1.0939
-1.2542
-1.42691
-1.57902
-1.64477
-0.212842
-0.28875
-0.374365
-0.470111
-0.579257
-0.70503
-0.848983
-1.00334
-1.13727
-1.19968
0.0975857
0.029449
-0.0464308
-0.130335
-0.22553
-0.335157
-0.460636
-0.595025
-0.710723
-0.765781
0.374263
0.317254
0.253473
0.182954
0.102432
0.00895829
-0.098514
-0.213579
-0.311712
-0.358425
0.632862
0.58569
0.531457
0.471383
0.402562
0.322353
0.230079
0.131753
0.0490513
0.0103354
0.862272
0.820776
0.771508
0.71837
0.659273
0.59182
0.515027
0.433784
0.366296
0.335539
1.53943
1.40718
1.51659
1.36431
1.42162
1.41821
1.41377
1.41034
1.36864
1.19849
1.52627
1.4022
1.51386
1.36592
1.41879
1.41852
1.41445
1.42101
1.40094
1.28508
1.51437
1.39704
1.51009
1.36711
1.41565
1.41815
1.41755
1.43112
1.42948
1.37142
1.50359
1.3918
1.50553
1.36767
1.41224
1.41687
1.41902
1.43791
1.45087
1.43834
1.49375
1.38651
1.50043
1.36744
1.40855
1.41464
1.41904
1.44198
1.46637
1.49091
1.48473
1.38123
1.49499
1.36635
1.40455
1.4115
1.41767
1.44343
1.47666
1.52922
1.47642
1.37597
1.48938
1.36438
1.4002
1.40751
1.41488
1.44228
1.48215
1.55434
1.46874
1.37073
1.48373
1.36154
1.39546
1.4027
1.41066
1.43863
1.48282
1.56716
1.46164
1.36553
1.47817
1.35787
1.39029
1.3971
1.405
1.43252
1.47831
1.56825
1.45507
1.36036
1.47276
1.35342
1.3847
1.39072
1.39788
1.42398
1.46878
1.5579
1.66377
1.42486
1.52348
1.35915
1.4245
1.41153
1.3945
1.36505
1.27112
1.04703
1.61474
1.41828
1.52508
1.36236
1.42309
1.41329
1.39598
1.36831
1.27782
1.05254
1.59499
1.41942
1.52379
1.36415
1.4229
1.41441
1.39892
1.37465
1.29141
1.06475
1.57252
1.41644
1.52118
1.36458
1.42291
1.41557
1.403
1.38377
1.30986
1.08808
1.55434
1.41206
1.51872
1.364
1.42291
1.41668
1.40761
1.39505
1.33342
1.11277
0.684428
0.526073
0.316314
0.0407895
-0.283964
-0.626548
-0.963236
-1.28717
-1.58791
-1.83931
0.685219
0.527878
0.325461
0.0603072
-0.255469
-0.596535
-0.938995
-1.27026
-1.57759
-1.83494
0.704276
0.542821
0.339098
0.0819214
-0.225796
-0.568095
-0.919336
-1.25876
-1.57185
-1.83418
0.753626
0.573064
0.356797
0.101372
-0.20131
-0.544759
-0.904185
-1.25245
-1.57175
-1.83951
0.830798
0.621493
0.382197
0.118813
-0.184642
-0.52949
-0.894687
-1.25099
-1.57761
-1.85237
)
;

boundaryField
{
    left
    {
        type            zeroGradient;
    }
    right
    {
        type            fixedValue;
        value           uniform 0;
    }
    down
    {
        type            zeroGradient;
    }
    up
    {
        type            zeroGradient;
    }
    cylinder
    {
        type            zeroGradient;
    }
    defaultFaces
    {
        type            empty;
    }
}


// ************************************************************************* //
