/*--------------------------------*- C++ -*----------------------------------*\
  =========                 |
  \\      /  F ield         | OpenFOAM: The Open Source CFD Toolbox
   \\    /   O peration     | Website:  https://openfoam.org
    \\  /    A nd           | Version:  13
     \\/     M anipulation  |
\*---------------------------------------------------------------------------*/
FoamFile
{
    format      ascii;
    class       volScalarField;
    location    "0.755";
    object      p;
}
// * * * * * * * * * * * * * * * * * * * * * * * * * * * * * * * * * * * * * //

dimensions      [0 2 -2 0 0 0 0];

internalField   nonuniform List<scalar> 
1800
(
5.74679
7.85389
10.0067
11.4351
12.2694
12.68
12.8109
12.6532
11.4067
7.3143
9.59582
12.0715
14.5764
16.2604
17.317
17.9796
18.4342
18.6731
17.9485
15.2704
15.9877
18.6124
21.2851
23.1483
24.4085
25.2902
25.9409
26.3241
25.8528
24.0216
24.9824
27.5518
30.2002
32.1147
33.4799
34.4889
35.2513
35.7032
35.297
33.6122
36.0407
38.4015
40.8538
42.6653
43.9897
44.9858
45.7403
46.1896
45.8394
44.2837
48.7173
50.7699
52.9135
54.5197
55.7107
56.6129
57.2951
57.7057
57.4245
56.065
62.6655
64.3383
66.094
67.4259
68.428
69.1976
69.789
70.1659
69.9908
68.902
77.5911
78.8327
80.1438
81.1531
81.929
82.5428
83.0369
83.3917
83.3583
82.6219
93.2091
93.9888
94.8203
95.4752
95.998
96.4354
96.8182
97.1416
97.2518
96.9173
109.238
109.542
109.874
110.149
110.387
110.607
110.824
111.038
111.199
111.227
-0.605775
-0.858696
-0.635765
-0.220916
0.251954
0.720127
1.07981
1.29066
1.43576
1.58262
-0.47619
-0.992548
-1.10307
-0.897488
-0.473585
-0.0497521
0.242581
0.484968
0.7653
1.03902
0.52694
-0.441705
-1.27583
-1.44231
-1.11537
-0.810124
-0.597346
-0.292342
0.115082
0.501041
0.920838
-0.221609
-1.42163
-1.76071
-1.54055
-1.38783
-1.2639
-0.959278
-0.502448
0.00534522
0.489151
-0.479677
-1.42152
-1.71314
-1.65626
-1.66794
-1.63262
-1.37161
-0.880762
-0.186765
-0.215684
-0.733149
-1.13453
-1.26442
-1.28543
-1.35161
-1.34501
-1.13741
-0.61348
0.31863
-0.552365
-0.514899
-0.338879
-0.193152
-0.108906
-0.0890356
-0.0514408
0.117566
0.694642
1.92434
-0.0701775
0.516023
1.23678
1.74104
2.07039
2.28326
2.43221
2.64824
3.37826
5.0401
1.37605
2.48396
3.73231
4.65371
5.3236
5.81577
6.15553
6.49435
7.48077
9.76792
3.61712
5.25999
7.07813
8.45403
9.47672
10.2368
10.7591
11.2119
12.2727
14.4356
2.30109
2.4403
2.33299
2.08745
1.58306
1.18043
0.860864
0.587263
0.350132
0.134034
1.9528
2.41769
2.22969
2.00511
1.50044
1.1014
0.81008
0.570754
0.354627
0.142094
1.47555
2.38863
2.12901
1.91392
1.42608
1.03543
0.76432
0.55204
0.356131
0.149222
0.850756
2.30607
2.02907
1.80841
1.35151
0.977512
0.725157
0.535054
0.351316
0.154345
0.156289
2.12985
1.91828
1.68628
1.27071
0.923205
0.691169
0.520318
0.343334
0.157528
-0.416886
1.85057
1.77943
1.54609
1.18016
0.869563
0.660855
0.506866
0.343409
0.158306
-0.566814
1.50181
1.5994
1.38551
1.07793
0.814627
0.63308
0.494549
0.347473
0.156955
0.161451
1.17225
1.36923
1.19573
0.960508
0.756386
0.606364
0.483962
0.343632
0.151405
2.41765
1.03571
1.06823
0.952173
0.819531
0.692283
0.579833
0.470986
0.330693
0.13885
6.65244
1.40451
0.710604
0.634547
0.647685
0.621418
0.552284
0.452517
0.311174
0.122788
9.97783
2.57434
0.686592
0.392489
0.471428
0.543809
0.515213
0.421909
0.281553
0.100257
11.7627
2.57058
0.265614
0.0596557
0.358625
0.510517
0.47963
0.376858
0.239101
0.0692041
12.8616
2.77762
0.39675
0.155744
0.472237
0.571901
0.480773
0.345715
0.199607
0.0377238
14.1833
4.36573
1.28182
0.72976
0.791546
0.71951
0.523108
0.332683
0.167253
0.00812797
16.3601
7.10939
2.70148
1.59279
1.24195
0.93556
0.607046
0.341755
0.146131
-0.0165561
19.2499
9.87409
4.33372
2.55749
1.77124
1.20128
0.723991
0.37261
0.138787
-0.0336749
21.7538
11.9353
5.85102
3.51702
2.33684
1.49686
0.863141
0.422023
0.145715
-0.0415132
23.0328
13.1182
7.04808
4.41689
2.91023
1.80839
1.0165
0.486335
0.166198
-0.0392807
22.9727
13.4973
7.90886
5.26413
3.49949
2.14364
1.19055
0.569603
0.203891
-0.0253063
22.4199
13.7224
8.68027
6.12523
4.12586
2.52253
1.40754
0.689463
0.278535
0.00618089
111.783
97.8373
84.0726
71.0675
59.1282
48.3482
38.7669
30.0904
20.0793
4.97466
112.763
99.475
85.9743
72.9679
60.925
50.0442
40.5112
32.2531
23.5882
11.4753
113.294
100.21
87.3295
75.0033
63.4647
52.873
43.4433
35.2546
27.4684
18.3345
114.507
102.767
90.8084
78.9778
67.6215
57.0265
47.3937
38.7935
31.0869
23.824
115.084
104.073
93.1527
82.4619
72.1152
62.191
52.7289
43.8187
36.0008
29.8221
115.434
104.707
94.2003
84.0387
74.3184
65.0892
56.3301
48.0888
41.0474
36.0305
115.665
105.106
94.7951
84.8632
75.4206
66.5404
58.2317
50.5643
44.2104
40.091
115.766
105.244
94.9782
85.107
75.7531
67.0074
58.9038
51.5105
45.3938
41.4342
115.715
105.03
94.6038
84.5849
75.1059
66.2736
58.1437
50.7744
44.5506
40.0978
115.592
104.645
93.9578
83.6806
73.9554
64.9054
56.6108
49.1161
42.6072
37.4124
234.117
229.753
228.185
227.743
227.652
227.903
228.638
230.018
232.17
234.309
225.555
222.536
221.486
221.447
221.672
222.157
223.088
224.695
227.166
229.642
216.042
213.867
213.094
213.218
213.649
214.353
215.478
217.247
219.861
222.459
205.736
203.708
203.004
203.2
203.744
204.573
205.797
207.605
210.174
212.693
194.413
192.503
191.848
192.036
192.568
193.38
194.556
196.25
198.605
200.896
182.046
180.321
179.728
179.87
180.322
181.034
182.069
183.547
185.576
187.541
168.7
167.238
166.744
166.847
167.203
167.775
168.614
169.808
171.435
173.006
154.567
153.45
153.095
153.173
153.428
153.841
154.448
155.31
156.481
157.608
139.958
139.244
139.037
139.086
139.232
139.466
139.817
140.318
141
141.657
125.433
125.089
124.949
124.902
124.889
124.911
124.978
125.098
125.275
125.451
246.549
246.788
247.04
247.258
247.556
248.057
248.609
248.946
248.951
248.437
246.622
246.953
247.356
247.662
247.863
248.198
248.622
248.538
247.721
246.701
246.632
247.028
247.473
247.784
247.867
247.998
248.28
247.92
246.532
245.276
246.51
247.012
247.442
247.673
247.606
247.491
247.526
247.103
245.809
244.652
246.018
246.672
247.061
247.166
246.988
246.71
246.533
246.173
245.364
244.575
244.81
245.653
245.989
245.953
245.721
245.436
245.239
245.068
244.828
244.542
242.465
243.562
243.898
243.782
243.572
243.406
243.371
243.503
243.81
244.049
238.581
240.066
240.535
240.468
240.384
240.435
240.672
241.167
241.98
242.718
233.107
235.161
235.87
235.937
236.062
236.408
236.995
237.9
239.205
240.417
227.753
229.618
230.363
230.529
230.836
231.453
232.395
233.746
235.593
237.301
246.934
246.714
246.675
246.485
246.417
246.302
245.926
245.669
245.568
245.714
246.892
246.713
246.67
246.488
246.416
246.312
245.935
245.651
245.375
245.734
246.865
246.709
246.662
246.483
246.408
246.313
245.934
245.596
245.138
245.816
246.846
246.702
246.649
246.47
246.394
246.308
245.922
245.504
244.919
246.002
246.834
246.693
246.633
246.451
246.374
246.294
245.895
245.394
244.784
246.24
246.828
246.682
246.614
246.427
246.349
246.267
245.857
245.301
244.759
246.348
246.826
246.667
246.594
246.4
246.319
246.228
245.821
245.251
244.806
246.015
246.829
246.649
246.572
246.371
246.284
246.185
245.805
245.255
244.828
244.779
246.838
246.626
246.548
246.338
246.247
246.153
245.837
245.331
244.649
242.003
246.856
246.602
246.519
246.303
246.214
246.15
245.94
245.457
243.971
237.287
246.894
246.575
246.478
246.246
246.149
246.078
245.87
245.13
242.438
233.738
247.009
246.555
246.439
246.194
246.093
246.116
246.065
245.329
242.173
231.795
247.25
246.561
246.401
246.116
246.016
246.077
246.056
245.232
241.879
230.53
247.701
246.616
246.371
246.031
245.88
245.811
245.608
244.528
240.474
229.31
248.539
246.682
246.395
245.939
245.668
245.305
244.738
243.222
238.003
227.455
250.375
246.749
246.503
245.869
245.376
244.643
243.652
241.564
235.37
224.909
254.255
247.06
246.658
245.811
245.021
243.929
242.555
239.952
233.306
222.58
262.56
248.198
246.933
245.768
244.647
243.239
241.553
238.663
232.068
221.324
280.12
250.933
247.583
245.804
244.294
242.587
240.645
237.732
231.626
221.354
306.091
254.979
249.089
246.017
244.002
241.965
239.76
236.916
231.354
221.881
236.412
221.063
210.441
201.127
190.966
179.662
167.267
153.895
139.85
125.72
230.024
217.73
208.578
199.857
189.92
178.681
166.335
153.084
139.361
125.887
223.491
214.126
205.947
197.42
187.706
176.865
165.113
152.612
139.595
126.417
218.375
210.868
202.876
194.027
184.184
173.419
161.927
149.985
137.922
126.088
212.978
206.584
198.592
189.498
179.829
169.692
159.141
148.274
137.219
126.127
207.381
202.085
194.825
186.355
177.356
167.901
157.982
147.659
137.039
126.252
203.586
199.146
192.557
184.66
176.127
167.041
157.42
147.346
136.935
126.325
202.305
198.046
191.701
184.088
175.775
166.839
157.32
147.317
136.958
126.39
203.631
198.916
192.466
184.881
176.549
167.534
157.896
147.75
137.236
126.504
206.305
200.87
194.133
186.422
177.927
168.695
158.813
148.409
137.633
126.641
112.186
112.356
112.44
112.291
111.784
111.424
111.239
111.523
111.516
111.267
89.6109
90.0743
90.2929
89.8593
88.4274
87.3409
86.72
87.3817
87.4193
86.8328
68.768
69.3957
69.6571
68.9903
67.051
65.3392
64.319
64.8677
65.1721
64.617
50.6504
51.2569
51.4466
50.6235
48.6443
46.4783
45.1483
45.1837
45.9221
45.6887
36.0053
36.4137
36.4641
35.5827
33.7909
31.4749
29.8311
29.2659
30.0735
30.2612
24.9531
25.0566
24.9346
24.0115
22.4339
20.4045
18.6137
17.6721
17.9271
18.4272
17.0667
16.9164
16.7016
15.7107
14.2963
12.7929
11.3054
10.2404
9.90069
10.2672
11.5798
11.4029
11.3545
10.3551
9.03617
8.03429
7.14268
6.29983
5.71138
5.62759
7.90576
7.81755
8.11362
7.24577
6.07972
5.48924
5.16044
4.77587
4.29194
3.91219
6.03695
5.83204
6.21756
5.47973
4.61036
4.33436
4.35846
4.34918
4.19664
3.80064
5.26978
5.03299
5.11545
4.42111
3.8889
3.83282
3.98271
4.12553
4.24668
4.30335
4.84256
4.73348
4.4562
3.78986
3.50406
3.59147
3.79476
3.96241
4.08218
4.16845
4.46396
4.41922
3.98749
3.43695
3.31703
3.47998
3.7048
3.88357
4.00157
4.06192
4.00944
3.95451
3.54844
3.19713
3.20717
3.41052
3.62347
3.78081
3.8794
3.92072
3.46139
3.36816
3.09509
2.97544
3.09234
3.30921
3.49937
3.63702
3.71832
3.74205
2.81012
2.71603
2.65687
2.74738
2.94417
3.14864
3.31448
3.43395
3.50089
3.5143
2.08682
2.10365
2.23884
2.47364
2.70939
2.90795
3.06324
3.17698
3.24331
3.25879
1.41404
1.53225
1.78377
2.07694
2.33302
2.54747
2.72342
2.86217
2.94977
2.97789
0.737417
0.872159
1.14716
1.47644
1.78655
2.05847
2.29615
2.48118
2.58608
2.62373
0.0649482
-0.0200662
0.21546
0.627577
1.04849
1.43114
1.75573
1.97103
2.07432
2.13759
3.6575
3.70091
3.57029
3.24401
2.59278
1.90318
1.31119
0.838738
0.453613
0.0903479
3.73009
3.67458
3.5197
3.22799
2.55334
1.84727
1.25941
0.801252
0.430444
0.0882731
3.75642
3.56835
3.40778
3.17379
2.50934
1.79464
1.21056
0.766236
0.409677
0.0880872
3.71717
3.39179
3.2548
3.07121
2.45206
1.74356
1.16468
0.733824
0.391463
0.0893288
3.60914
3.18338
3.08632
2.91759
2.36962
1.6895
1.12105
0.704007
0.375943
0.0920656
3.44554
2.98547
2.92556
2.73333
2.25567
1.62852
1.07947
0.677192
0.363406
0.0963468
3.25199
2.81814
2.78179
2.55041
2.11304
1.55692
1.03931
0.65377
0.354141
0.102098
3.04487
2.68132
2.65566
2.39313
1.95698
1.47196
0.999203
0.6338
0.348305
0.109113
2.82268
2.57048
2.54284
2.26868
1.8089
1.37488
0.957214
0.616864
0.345889
0.117065
2.57836
2.48837
2.437
2.17093
1.68358
1.27382
0.911182
0.601935
0.346681
0.125522
5.41882
3.97243
3.27382
2.89408
2.41248
1.88978
1.38889
0.934492
0.541247
0.130337
4.61498
3.75184
3.31009
2.95537
2.45319
1.89861
1.3762
0.915596
0.519341
0.118732
3.94502
3.65987
3.37095
3.02496
2.49263
1.90652
1.36485
0.8987
0.502515
0.108852
3.62516
3.66038
3.45651
3.10541
2.53397
1.91421
1.354
0.882992
0.487897
0.101009
3.61044
3.7036
3.5584
3.19799
2.58003
1.92216
1.34232
0.866838
0.473687
0.0950546
112.016
88.9495
67.8986
50.1269
36.112
25.7916
18.6215
13.7459
10.5639
8.74967
111.795
88.3871
67.1922
49.3924
35.3097
24.7873
17.3177
12.2124
9.06947
7.56926
111.609
87.9068
66.5538
48.6517
34.3984
23.6145
15.8973
10.6774
7.53272
6.07465
111.399
87.3329
65.7134
47.5867
33.0736
22.0203
14.1256
8.8927
5.80718
4.4315
111.145
86.6048
64.584
46.1135
31.2733
19.9524
11.9567
6.92031
4.43722
3.62141
243.764
243.802
243.922
244.094
244.306
244.315
243.81
243.108
243.212
242.989
243.977
244.049
244.162
244.352
244.622
244.797
244.579
243.928
243.672
243.564
244.173
244.221
244.334
244.531
244.816
245.078
245.052
244.545
244.117
244.067
244.415
244.448
244.546
244.72
244.978
245.267
245.374
245.104
244.717
244.649
244.69
244.708
244.789
244.939
245.154
245.42
245.624
245.626
245.461
245.37
244.983
244.995
245.064
245.187
245.36
245.591
245.862
246.105
246.211
246.2
245.257
245.275
245.357
245.493
245.669
245.899
246.201
246.563
246.868
246.991
245.543
245.56
245.657
245.849
246.104
246.404
246.765
247.179
247.545
247.726
245.924
245.954
246.03
246.253
246.624
247.078
247.584
248.105
248.451
248.413
246.318
246.428
246.529
246.719
247.118
247.689
248.292
248.844
249.197
248.992
136.499
136.24
136.217
136.48
136.262
135.864
135.322
135.151
135.222
135.387
160.949
160.352
160.374
161.012
160.359
159.236
157.772
157.316
157.522
157.98
183.194
182.627
182.915
183.437
182.387
180.642
178.673
177.984
178.233
178.856
202.16
201.914
202.633
202.643
201.285
199.088
197.08
196.236
196.414
197.016
217.631
217.806
218.59
218.002
216.334
213.99
212.169
211.266
211.305
211.71
229.511
229.993
230.223
229.264
227.456
225.399
223.789
222.843
222.71
222.811
237.711
238.047
237.684
236.611
235.119
233.59
232.139
231.123
230.898
230.746
242.366
242.246
241.637
240.803
239.924
238.907
237.553
236.527
236.468
236.291
244.09
243.672
243.179
242.82
242.523
241.937
240.747
239.851
240.137
240.053
244.23
243.804
243.651
243.672
243.744
243.501
242.627
241.865
242.251
242.061
254.842
246.868
247.496
246.281
246.032
245.525
244.992
244.63
244.5
244.538
252.009
246.805
247.31
246.259
246.084
245.588
245.008
244.663
244.576
244.509
250.086
246.811
247.087
246.255
246.14
245.656
245.051
244.756
244.745
244.541
248.899
246.84
246.875
246.274
246.198
245.73
245.132
244.91
244.975
244.647
248.213
246.843
246.736
246.312
246.254
245.813
245.261
245.102
245.217
244.818
247.765
246.801
246.699
246.362
246.307
245.906
245.428
245.29
245.425
245.025
247.45
246.746
246.698
246.406
246.353
246.009
245.604
245.445
245.58
245.235
247.234
246.718
246.69
246.44
246.386
246.114
245.751
245.555
245.679
245.429
247.09
246.712
246.681
246.465
246.401
246.206
245.85
245.623
245.717
245.588
246.996
246.713
246.677
246.478
246.411
246.269
245.902
245.659
245.683
245.683
317.346
253.752
249.905
246.967
246.137
245.565
245.247
244.927
244.234
242.717
295.614
251.363
248.784
246.735
246.054
245.536
245.203
244.897
244.446
243.518
277.173
249.207
248.187
246.562
246.013
245.518
245.153
244.84
244.529
244.191
265.77
247.862
247.863
246.432
245.995
245.506
245.095
244.757
244.519
244.519
258.999
247.132
247.641
246.323
245.993
245.498
245.027
244.655
244.474
244.552
239.296
237.447
234.231
229.324
222.121
211.767
197.716
179.912
158.835
135.754
240.479
238.943
235.768
230.632
223.13
212.573
198.453
180.62
159.399
135.976
241.991
240.494
237.313
232.06
224.308
213.488
199.197
181.26
159.88
136.162
243.654
242.248
239.12
233.846
225.911
214.818
200.264
182.101
160.454
136.372
244.443
243.605
241.103
236.032
227.989
216.623
201.739
183.231
161.181
136.625
)
;

boundaryField
{
    left
    {
        type            zeroGradient;
    }
    right
    {
        type            fixedValue;
        value           uniform 0;
    }
    down
    {
        type            zeroGradient;
    }
    up
    {
        type            zeroGradient;
    }
    cylinder
    {
        type            zeroGradient;
    }
    defaultFaces
    {
        type            empty;
    }
}


// ************************************************************************* //
