/*--------------------------------*- C++ -*----------------------------------*\
  =========                 |
  \\      /  F ield         | OpenFOAM: The Open Source CFD Toolbox
   \\    /   O peration     | Website:  https://openfoam.org
    \\  /    A nd           | Version:  13
     \\/     M anipulation  |
\*---------------------------------------------------------------------------*/
FoamFile
{
    format      ascii;
    class       volScalarField;
    location    "0.755";
    object      strainRateViscosityModel:nu;
}
// * * * * * * * * * * * * * * * * * * * * * * * * * * * * * * * * * * * * * //

dimensions      [0 2 -1 0 0 0 0];

internalField   nonuniform List<scalar> 
1800
(
9.40488
9.1976
9.01007
8.80096
8.57616
8.34415
8.11547
7.89817
7.62421
7.37924
9.58523
9.41878
9.2669
9.09733
8.91117
8.71143
8.50357
8.28867
8.0273
7.70208
9.70219
9.56269
9.42803
9.27096
9.08868
8.87899
8.64091
8.36903
8.03058
7.61061
9.77539
9.65614
9.53324
9.38287
9.20049
8.98172
8.72281
8.41596
8.02877
7.55456
9.82168
9.7183
9.60558
9.46167
9.28071
9.05696
8.78549
8.45888
8.04775
7.55614
9.85185
9.76081
9.6573
9.52059
9.34355
9.11896
8.84034
8.50016
8.07152
7.5702
9.87179
9.78991
9.69398
9.56396
9.39147
9.16769
8.8842
8.53252
8.08735
7.57567
9.88475
9.80924
9.71888
9.59394
9.42494
9.20146
8.91309
8.55005
8.08853
7.56355
9.8926
9.82107
9.73416
9.6122
9.44467
9.21963
8.92483
8.54922
8.07121
7.52871
9.89646
9.82686
9.74153
9.6207
9.45309
9.22573
8.92512
8.53953
8.05038
7.49285
1.79827
1.40528
1.20987
1.32043
1.73041
2.25124
2.49635
2.44905
2.35932
2.33562
3.72721
1.78149
1.49189
1.98124
2.69519
2.97225
2.81751
2.67216
2.6882
2.74147
4.70085
2.57025
2.43585
3.17638
3.59616
3.34644
3.08217
3.11885
3.2587
3.33922
5.26832
3.882
3.81519
4.21327
4.18049
3.82966
3.7216
3.8553
3.95776
4.00678
6.05553
5.2753
5.11781
5.12123
4.91493
4.65345
4.57823
4.61239
4.61275
4.65252
6.95976
6.45991
6.22679
6.03822
5.78826
5.54541
5.38924
5.29343
5.22235
5.27496
7.77171
7.37773
7.11678
6.86029
6.5874
6.32054
6.08726
5.90097
5.77029
5.82388
8.40013
8.05531
7.79201
7.51578
7.2265
6.93121
6.64219
6.38632
6.1923
6.22932
8.84935
8.54538
8.291
8.01031
7.7057
7.37948
7.03562
6.70113
6.41575
6.42177
9.16164
8.90154
8.66632
8.39667
8.09571
7.76576
7.40645
7.03565
6.70854
6.75243
2.19349
1.7293
1.33196
0.937207
0.619859
0.349576
0.183338
0.134152
0.14898
0.22481
2.52789
1.84853
1.40716
0.932738
0.593911
0.333782
0.171751
0.0974295
0.0953547
0.165761
2.9485
1.97771
1.47964
0.930314
0.558459
0.30678
0.159121
0.0802585
0.0545887
0.107919
3.44093
2.14766
1.55101
0.933369
0.51932
0.272303
0.142011
0.0671533
0.0487064
0.0465825
3.98316
2.38569
1.62847
0.942461
0.480643
0.233803
0.121286
0.0542989
0.0516844
0.0223539
4.52866
2.69683
1.72477
0.95886
0.445521
0.193869
0.0978836
0.0434594
0.045039
0.0320557
4.9971
3.05657
1.8467
0.981633
0.414196
0.154209
0.0730884
0.0350355
0.0301234
0.0804408
5.31292
3.43957
2.01385
1.02445
0.393207
0.118071
0.0483144
0.026268
0.0302268
0.148346
5.34341
3.72298
2.16347
1.05638
0.370198
0.0849406
0.0297106
0.0176907
0.0857744
0.213593
5.20214
3.98912
2.39904
1.16013
0.386812
0.0683546
0.0107879
0.0457363
0.136324
0.271476
4.94452
3.94264
2.456
1.17391
0.361509
0.0519804
0.0249573
0.106899
0.19887
0.337675
5.33056
3.34789
2.13988
0.998264
0.358287
0.137439
0.116777
0.174863
0.275588
0.411246
4.90484
3.04568
2.24788
1.20492
0.590047
0.293205
0.201272
0.245346
0.340653
0.468459
4.54667
3.63191
2.68145
1.64046
0.892098
0.494914
0.336702
0.333263
0.408476
0.516581
5.11415
4.74767
3.3427
2.16418
1.23781
0.729361
0.494309
0.435764
0.477825
0.555543
6.25444
5.66952
4.0571
2.67385
1.59849
0.98141
0.672
0.552528
0.551616
0.588492
7.26269
6.37371
4.71369
3.15463
1.95732
1.24049
0.857957
0.677598
0.628306
0.617086
8.00011
6.91204
5.25984
3.58904
2.30011
1.50076
1.04922
0.808541
0.708428
0.644022
8.51876
7.33073
5.69734
3.97012
2.62047
1.75392
1.23629
0.936255
0.785443
0.667602
8.931
7.69119
6.04975
4.2831
2.92522
2.02437
1.44763
1.08478
0.880586
0.700388
6.51282
6.43966
6.43043
6.44874
6.48734
6.52993
6.58198
6.71052
6.8952
6.82624
0.260666
1.0571
2.00769
2.92273
3.70366
4.31628
4.73302
4.98253
5.2216
5.72777
3.85079
3.5439
3.28467
3.11143
3.10649
3.2501
3.47231
3.71345
4.16498
4.84483
6.64417
6.62723
6.53713
6.34469
6.04329
5.65788
5.24963
4.89608
4.73947
4.5494
7.69184
7.67654
7.63212
7.54129
7.39613
7.18986
6.92709
6.61952
6.286
5.65642
8.44951
8.43312
8.39435
8.32772
8.22957
8.09672
7.92837
7.71684
7.42792
6.90784
8.93967
8.92394
8.89028
8.83679
8.76166
8.6629
8.53816
8.37892
8.15467
7.80862
9.27298
9.25981
9.23246
9.18985
9.13052
9.05245
8.95269
8.82481
8.65281
8.43091
9.50446
9.49417
9.47307
9.44024
9.39426
9.33319
9.25424
9.15286
9.02288
8.87534
9.6899
9.68285
9.66852
9.64604
9.61405
9.5707
9.51361
9.43975
9.34638
9.2441
7.24808
7.5262
7.83693
8.08766
8.3448
8.59961
8.84138
9.06158
9.25458
9.46025
7.58312
7.94806
8.24096
8.48111
8.70934
8.92481
9.1223
9.299
9.45391
9.61805
7.49851
7.95737
8.32595
8.6205
8.87575
9.09773
9.28805
9.44952
9.58536
9.72225
7.44689
7.95761
8.37376
8.70199
8.97658
9.20596
9.39471
9.54806
9.67131
9.78824
7.45633
7.98066
8.4186
8.76489
9.05054
9.28356
9.46977
9.61591
9.72868
9.83022
7.48241
8.01168
8.46402
8.82147
9.11234
9.34475
9.52606
9.66446
9.76796
9.85764
7.50364
8.03786
8.50277
8.86862
9.16197
9.39189
9.56763
9.6989
9.79479
9.8757
7.51114
8.05246
8.52871
8.90209
9.19746
9.42521
9.5964
9.72212
9.81243
9.88729
7.49836
8.05045
8.53742
8.91898
9.21768
9.44503
9.61371
9.73606
9.82289
9.89404
7.48288
8.04358
8.53592
8.92344
9.22525
9.4533
9.62123
9.74216
9.82746
9.89693
2.55824
2.51477
2.53267
2.74419
2.92947
2.55663
1.70054
1.1826
1.52352
4.19809
2.96523
2.87694
2.71723
2.71501
3.10464
3.43244
2.82363
1.90822
2.12616
5.1365
3.45286
3.40939
3.25152
3.06506
3.26511
3.82398
3.80409
3.16233
3.28993
5.45631
3.94418
3.93338
3.90697
3.79775
3.89056
4.31802
4.5895
4.46825
4.66131
5.91358
4.49713
4.46966
4.54503
4.61665
4.7805
5.11404
5.43839
5.61914
5.89674
6.63148
5.10072
5.0582
5.19782
5.39621
5.65707
5.98049
6.30866
6.59544
6.90088
7.40659
5.65327
5.61703
5.8179
6.09047
6.40774
6.74088
7.06854
7.37813
7.67873
8.08653
6.06646
6.0519
6.315
6.64227
6.99496
7.33979
7.66728
7.97418
8.25895
8.61106
6.26018
6.27913
6.63093
7.02588
7.42011
7.7844
8.11671
8.41668
8.68283
8.98797
6.60001
6.56986
6.95599
7.37947
7.78132
8.14311
8.46653
8.75044
8.99301
9.25186
0.112239
0.155418
0.121933
0.0625544
0.0154169
0.392633
0.929619
1.48309
1.95039
2.43266
0.0786959
0.140759
0.117635
0.0644593
0.0151163
0.384449
0.933759
1.54625
2.02965
2.69897
0.0569036
0.132373
0.115805
0.0676759
0.0238553
0.384498
0.940366
1.59661
2.10057
3.00947
0.0438161
0.130135
0.117651
0.0751771
0.0419108
0.392541
0.947092
1.63414
2.20433
3.3962
0.0373425
0.133074
0.121764
0.0849247
0.0650473
0.402607
0.950995
1.67007
2.38236
3.86641
0.0364941
0.140187
0.126473
0.0942059
0.0889944
0.411109
0.955868
1.72763
2.64889
4.36356
0.0414613
0.151538
0.130488
0.100848
0.108995
0.415474
0.966788
1.8233
2.98075
4.79428
0.0529586
0.16774
0.133447
0.104999
0.124572
0.424547
1.00777
1.98226
3.34746
5.07891
0.0728369
0.188651
0.135452
0.102888
0.12783
0.424735
1.0447
2.13341
3.62587
5.08204
0.103762
0.211123
0.138067
0.104102
0.143206
0.471595
1.18115
2.39158
3.87569
4.89064
0.160638
0.239419
0.143672
0.101245
0.131915
0.473945
1.24551
2.50446
3.88495
4.67306
0.263833
0.270541
0.133335
0.0763339
0.0701022
0.382943
1.11893
2.30265
3.42985
5.19226
0.428726
0.269475
0.100568
0.0146284
0.014973
0.342422
1.14799
2.35037
3.2559
4.93802
0.681962
0.254234
0.0226717
0.0808433
0.102454
0.537207
1.43107
2.62374
3.71483
4.69815
1.06545
0.0475893
0.262542
0.23698
0.316214
0.890372
1.93345
3.20612
4.70687
5.17739
1.51469
0.122064
0.537464
0.41761
0.597953
1.30791
2.47401
3.91706
5.59869
6.22332
2.19499
0.683655
0.855005
0.690499
0.943893
1.73847
2.99234
4.5935
6.30245
7.21636
3.7922
1.70629
1.27413
1.03803
1.31971
2.15066
3.46144
5.16517
6.85411
7.96878
6.86014
3.57576
1.96301
1.42254
1.68084
2.5245
3.87367
5.63124
7.29516
8.50724
9.04906
6.3837
2.84295
2.00272
2.11714
2.89737
4.22418
6.01918
7.68652
8.93809
6.62457
6.68759
6.51087
6.38909
6.34872
6.32254
6.30555
6.31733
6.36195
6.47625
5.52831
5.00946
4.76568
4.52463
4.12649
3.54054
2.79863
1.93213
1.04469
0.284232
4.84978
4.23679
3.8273
3.61676
3.42996
3.31049
3.31539
3.45765
3.65539
3.87433
4.71229
4.88578
5.0283
5.33784
5.70206
6.05235
6.33392
6.52141
6.61654
6.64159
5.68782
6.28586
6.61231
6.91135
7.17237
7.38147
7.53181
7.62814
7.6767
7.6924
6.86587
7.38861
7.68443
7.90232
8.07659
8.21484
8.31781
8.38856
8.43055
8.44889
7.76511
8.12049
8.35197
8.51791
8.64796
8.75099
8.82956
8.88582
8.92164
8.93899
8.40454
8.63268
8.80887
8.94093
9.04401
9.12465
9.18596
9.23006
9.25854
9.2726
8.86615
9.01619
9.14761
9.25059
9.33082
9.39283
9.43944
9.47267
9.494
9.50442
9.24868
9.35045
9.44301
9.5163
9.57294
9.61588
9.64748
9.66956
9.68348
9.69012
9.50946
8.98533
8.23588
6.92825
5.59796
0.131167
3.36083
5.96038
7.21408
8.15186
9.46541
8.92155
8.16812
6.89058
5.54938
0.563768
2.62221
5.70601
6.91643
7.91396
9.36568
8.78282
8.02027
6.80961
5.36635
1.60348
1.41357
5.20663
6.30934
7.40331
9.18255
8.54513
7.77449
6.65512
5.18644
2.74003
0.723097
4.23838
5.42157
6.57148
8.86811
8.17359
7.40401
6.37694
5.02652
3.36802
0.970956
2.63163
4.31695
5.3938
8.35052
7.62972
6.87342
5.91729
4.76511
3.44004
1.71924
1.30193
3.0493
3.98814
7.53604
6.8966
6.15555
5.22757
4.29966
3.26955
2.1431
1.17251
1.65628
2.55745
6.32538
6.03757
5.28134
4.2319
3.53346
2.91262
2.11844
1.43519
1.06856
1.23542
4.6317
5.23225
4.47435
2.99959
2.43712
2.27449
1.85602
1.38483
1.12267
0.65915
2.67279
4.53955
4.02164
1.96673
1.39679
1.48836
1.40992
1.2117
1.06401
0.845171
1.27674
3.78894
3.66664
1.33725
0.816186
0.897625
0.971049
0.956229
0.971689
1.0198
0.613476
2.96973
3.08215
0.956548
0.5753
0.639901
0.759324
0.819904
0.843914
0.876906
0.355365
2.18949
2.28533
0.688172
0.492527
0.595171
0.726241
0.810618
0.848426
0.873204
0.265312
1.55063
1.4891
0.521432
0.534364
0.673971
0.787485
0.858527
0.88196
0.892221
0.239653
1.01897
0.845441
0.514022
0.669403
0.803029
0.904251
0.967765
0.983488
0.980398
0.242886
0.493275
0.499846
0.63621
0.817254
0.954748
1.05253
1.11022
1.12076
1.1126
0.177197
0.204032
0.508029
0.756009
0.974592
1.12038
1.2101
1.25713
1.27393
1.27454
0.0452692
0.25173
0.649248
0.922609
1.13597
1.2534
1.32951
1.39933
1.45586
1.47765
0.0609048
0.492384
0.822218
1.09599
1.2298
1.3386
1.48904
1.64758
1.73474
1.75026
0.695875
0.865062
1.04059
1.18379
1.32346
1.59716
1.90989
2.07954
2.08134
2.04834
0.363034
0.0804489
0.223719
0.550401
0.794127
0.890799
0.885743
0.835837
0.784975
0.753846
0.462039
0.202191
0.318994
0.521152
0.723468
0.810165
0.807304
0.764721
0.720799
0.703999
0.525651
0.37203
0.439814
0.513396
0.653083
0.730262
0.730598
0.694435
0.656804
0.653524
0.638722
0.587624
0.595213
0.555229
0.58706
0.643296
0.648839
0.62172
0.592045
0.602488
0.805764
0.803215
0.741694
0.637776
0.541895
0.556273
0.565187
0.548138
0.52708
0.550901
1.00929
0.999143
0.875009
0.737219
0.530808
0.474832
0.480142
0.473647
0.461991
0.498736
1.22737
1.17075
0.989973
0.825372
0.552737
0.40905
0.396521
0.399034
0.397108
0.445903
1.45215
1.32501
1.08885
0.888048
0.589505
0.368552
0.318608
0.325328
0.332744
0.392253
1.68476
1.46861
1.17539
0.923407
0.619372
0.354229
0.252985
0.254269
0.269396
0.337627
1.92625
1.60371
1.25504
0.937
0.629938
0.35349
0.207162
0.188912
0.207687
0.28178
2.00913
0.747439
0.717452
0.964999
1.19708
1.28318
1.25706
1.17867
1.10771
1.01245
1.39444
0.482936
0.578975
0.874357
1.109
1.19706
1.17588
1.10405
1.03611
0.953775
0.751623
0.287972
0.481124
0.797424
1.03476
1.12509
1.10823
1.04162
0.977261
0.906225
0.253414
0.170317
0.405541
0.725729
0.95975
1.04889
1.03481
0.973411
0.913178
0.854983
0.435857
0.0327109
0.26724
0.612894
0.863847
0.964733
0.95922
0.904803
0.849238
0.804192
9.35465
9.29006
9.141
8.8731
8.43756
7.7789
6.87136
5.75932
4.58199
3.5371
9.19248
9.09566
8.88111
8.51166
7.94152
7.13647
6.10965
4.95511
3.84478
2.78683
9.02389
8.90027
8.62662
8.16105
7.46177
6.51616
5.37144
4.16865
3.08129
1.94239
8.81632
8.66221
8.32151
7.74793
6.90618
5.81425
4.55499
3.29482
2.22585
1.09001
8.5875
8.37939
7.92584
7.17746
6.11253
4.7921
3.35065
2.08514
0.993944
0.302018
1.06027
1.02448
1.0163
1.01982
0.915216
0.799678
1.29342
3.6833
3.85973
1.32298
0.949229
0.933796
0.926207
0.87077
0.718848
0.588546
0.910842
3.14183
3.10985
0.647397
0.985986
0.982455
0.965583
0.892795
0.747352
0.584393
0.698269
2.3725
2.34659
0.377424
1.05337
1.06526
1.0611
1.00127
0.889827
0.74059
0.655586
1.5574
1.63452
0.277256
1.18595
1.21009
1.21578
1.16807
1.07692
0.951786
0.789128
0.909953
0.919513
0.246152
1.35103
1.37096
1.37923
1.35411
1.28423
1.15097
0.929614
0.669846
0.358235
0.216753
1.55533
1.55127
1.51889
1.47652
1.42566
1.31929
1.07919
0.753948
0.272463
0.0664056
1.82321
1.81678
1.73421
1.58131
1.44139
1.34472
1.2098
0.901355
0.494211
0.0467806
2.10343
2.15066
2.14901
1.95513
1.61169
1.32245
1.18673
1.05648
0.856085
0.675636
2.31182
2.35864
2.48313
2.53512
2.2328
1.63168
1.18209
1.06635
1.30399
2.04077
8.15167
7.21373
5.96002
3.36033
0.131423
5.5965
6.92776
8.23569
8.98535
9.50956
7.91327
6.91532
5.70501
2.62161
0.563638
5.54553
6.88913
8.16754
8.92161
9.46572
7.40185
6.30745
5.20484
1.41546
1.59976
5.36186
6.80734
8.0194
8.78294
9.36627
6.56883
5.41867
4.23622
0.726268
2.73173
5.18171
6.65227
7.77352
8.54546
9.18358
5.38942
4.31247
2.63264
0.971033
3.35669
5.02056
6.37349
7.40308
8.17433
8.86987
3.9798
3.04145
1.31016
1.71324
3.42678
4.75623
5.91248
6.87253
7.6312
8.3535
2.54105
1.65345
1.18718
2.1329
3.25089
4.283
5.21884
6.15464
6.8995
7.54137
1.21754
1.08764
1.45175
2.10727
2.88047
3.50307
4.21749
5.28207
6.04355
6.33607
0.6716
1.15293
1.40711
1.84236
2.23203
2.40025
2.98384
4.47938
5.24355
4.65557
0.884879
1.10244
1.24712
1.41269
1.4638
1.36899
1.94329
4.02648
4.56513
2.71662
2.08996
0.543263
1.06111
0.629534
0.661406
0.758643
0.632589
0.300231
0.0620531
0.356513
1.63016
0.236779
0.86991
0.479317
0.567397
0.68141
0.593624
0.356811
0.265921
0.488514
1.33418
0.0582878
0.641761
0.341033
0.478777
0.602086
0.562377
0.45954
0.473252
0.591086
1.09795
0.0147206
0.393758
0.232517
0.394026
0.518489
0.562571
0.626047
0.732647
0.75831
0.847909
0.0893416
0.189599
0.159061
0.316221
0.441977
0.608919
0.805038
0.974685
0.977408
0.635716
0.154122
0.0531746
0.101982
0.244339
0.386212
0.694431
0.974845
1.19378
1.22457
0.463483
0.209479
0.0493375
0.0535922
0.180658
0.364943
0.788036
1.11842
1.38573
1.48052
0.331153
0.210592
0.107387
0.0107606
0.122468
0.37354
0.861615
1.23494
1.5572
1.7352
0.23265
0.196344
0.121672
0.0354499
0.0643457
0.390302
0.904785
1.32982
1.71081
1.97615
0.161779
0.174861
0.126745
0.05635
0.028607
0.397825
0.923538
1.41088
1.84386
2.19962
9.33657
6.77032
2.66509
1.69966
1.20219
1.12095
0.965139
0.781912
0.796512
2.03316
8.21092
4.63642
2.21513
1.41768
1.06961
1.03602
0.891472
0.651217
0.528058
1.39866
6.12014
3.06392
1.78541
1.21036
0.964705
0.971637
0.832419
0.561414
0.328881
0.741032
4.13315
1.87585
1.4975
1.00388
0.858678
0.904399
0.775995
0.487814
0.228751
0.225087
2.83554
1.06122
1.24632
0.803278
0.755571
0.826742
0.686149
0.356423
0.0444327
0.398099
3.54771
4.58914
5.76323
6.87353
7.78044
8.4387
8.87388
9.14148
9.29032
9.35474
2.78093
3.84105
4.95235
6.10788
7.13586
7.94153
8.51188
8.88134
9.09582
9.19254
1.92841
3.0719
4.16217
5.36669
6.51361
7.46062
8.16063
8.62654
8.9003
9.02391
1.05558
2.20309
3.28161
4.54676
5.81004
6.90396
7.74681
8.32104
8.66206
8.8163
0.300499
0.962645
2.06393
3.33748
4.78514
6.10893
7.17548
7.92489
8.37902
8.58741
)
;

boundaryField
{
    left
    {
        type            calculated;
        value           nonuniform List<scalar> 
35
(
0.29815
0.567166
0.987413
1.62613
2.52442
3.69551
5.06613
6.4761
8.15851
9.4418
0.212384
0.132383
0.0801324
0.0486229
0.0323374
0.0272472
0.0325351
0.0518519
0.0918815
0.159891
4.93339
4.0616
3.23477
2.51295
1.91713
1.42717
1.03075
0.724434
0.49575
0.329557
9.61573
8.97908
7.92205
6.84778
5.8594
)
;
    }
    right
    {
        type            calculated;
        value           nonuniform List<scalar> 
35
(
1.012
0.953587
0.906437
0.85612
0.806559
0.757824
0.709676
0.66076
0.611165
0.560882
0.509794
0.457673
0.404186
0.348959
0.291522
0.231817
0.168831
0.105621
0.0407683
0.0179244
0.0288451
0.0835236
0.163196
0.235888
0.29775
0.366651
0.440714
0.496675
0.541684
0.575856
0.603001
0.625739
0.647851
0.66843
0.698398
)
;
    }
    down
    {
        type            calculated;
        value           nonuniform List<scalar> 
40
(
9.45431
7.26632
2.896
1.78882
1.24291
1.14935
0.990652
0.823466
0.897603
2.26038
3.83288
4.88244
6.03394
7.09286
7.9446
8.55501
8.95447
9.19925
9.33564
9.39487
9.39478
9.33536
9.19873
8.9536
8.55368
7.94266
7.08994
6.02875
4.87318
3.81888
2.23225
0.847536
0.761332
0.996933
1.22879
1.31277
1.28396
1.20276
1.13076
1.0314
)
;
    }
    up
    {
        type            calculated;
        value           nonuniform List<scalar> 
40
(
9.0341
7.80883
6.16762
4.39486
3.03342
2.11923
1.52024
1.13388
0.91206
0.712224
9.72927
9.72305
9.71045
9.69064
9.66234
9.62377
9.57263
9.50586
9.42076
9.32814
9.33505
9.42656
9.51039
9.57623
9.62665
9.66461
9.69238
9.71169
9.72379
9.72952
9.27074
7.09623
3.23898
2.15446
2.2364
3.01694
4.34637
6.14882
7.81368
9.04495
)
;
    }
    cylinder
    {
        type            calculated;
        value           nonuniform List<scalar> 
80
(
1.99823
4.56726
5.536
5.77784
6.30434
7.09039
7.86177
8.47477
8.91246
9.21291
9.44581
9.61871
9.72982
9.7983
9.84096
9.86846
9.8865
9.89817
9.90522
9.90869
9.5004
9.65061
9.74902
9.81046
9.849
9.87389
9.89016
9.90054
9.90657
9.90913
5.32497
6.23326
6.21105
6.31543
6.83423
7.52651
8.17615
8.68598
9.05066
9.30251
0.994353
0.471592
0.26422
0.183228
0.159585
0.165591
0.0828548
0.0422619
0.749931
2.42957
9.59445
9.55588
9.46744
9.30187
9.00978
8.51136
7.68626
6.36658
4.38728
2.23886
9.59435
9.55556
9.46683
9.30078
9.00792
8.50819
7.68052
6.35449
4.35815
2.19131
0.952792
0.442259
0.24433
0.170832
0.150276
0.165474
0.161061
0.0840221
0.043358
0.735701
)
;
    }
    defaultFaces
    {
        type            empty;
    }
}


// ************************************************************************* //
