/*--------------------------------*- C++ -*----------------------------------*\
  =========                 |
  \\      /  F ield         | OpenFOAM: The Open Source CFD Toolbox
   \\    /   O peration     | Website:  https://openfoam.org
    \\  /    A nd           | Version:  13
     \\/     M anipulation  |
\*---------------------------------------------------------------------------*/
FoamFile
{
    format      ascii;
    class       volVectorField;
    location    "0.755";
    object      U;
}
// * * * * * * * * * * * * * * * * * * * * * * * * * * * * * * * * * * * * * //

dimensions      [0 1 -1 0 0 0 0];

internalField   nonuniform List<vector> 
1800
(
(0.0978007 -0.0883284 -4.48881e-20)
(0.286895 -0.241951 -3.4115e-20)
(0.473973 -0.379045 -4.85014e-19)
(0.657692 -0.500159 1.91468e-19)
(0.836612 -0.607172 7.43934e-20)
(1.00991 -0.701379 -3.90521e-20)
(1.17716 -0.783472 5.5497e-20)
(1.33794 -0.853684 1.9744e-19)
(1.4916 -0.912968 5.92273e-19)
(1.63353 -0.966907 8.10061e-19)
(0.119061 -0.0915025 -7.91111e-20)
(0.344291 -0.247709 -7.7061e-19)
(0.563282 -0.38475 3.78144e-21)
(0.775364 -0.504236 1.25745e-19)
(0.979505 -0.608922 -1.26254e-19)
(1.17522 -0.700696 7.65724e-20)
(1.36231 -0.78079 -2.80772e-19)
(1.54078 -0.850101 -5.0288e-20)
(1.71011 -0.910708 -6.93537e-19)
(1.86786 -0.967049 6.29787e-19)
(0.14165 -0.0923228 4.88225e-20)
(0.403679 -0.247731 2.09287e-19)
(0.653755 -0.382117 5.43309e-19)
(0.892178 -0.497905 -1.90256e-19)
(1.11866 -0.598385 -1.42991e-19)
(1.33321 -0.685813 7.56056e-20)
(1.53605 -0.761707 9.82426e-20)
(1.72743 -0.827299 1.94056e-19)
(1.90721 -0.884803 2.73638e-21)
(2.07421 -0.937872 1.5098e-19)
(0.163906 -0.0897207 -4.57189e-20)
(0.461698 -0.23947 -2.0439e-19)
(0.741427 -0.367618 -1.81258e-19)
(1.00451 -0.476977 -1.42293e-19)
(1.25162 -0.571022 1.81304e-19)
(1.48351 -0.652127 -5.70886e-20)
(1.70093 -0.721906 -4.31015e-21)
(1.90453 -0.781623 2.91319e-21)
(2.09455 -0.833366 -1.60474e-19)
(2.27025 -0.880358 -1.05932e-19)
(0.184657 -0.0833564 -1.14035e-19)
(0.515893 -0.221807 8.76383e-20)
(0.823292 -0.33943 1.79836e-19)
(1.10931 -0.439063 2.43299e-19)
(1.37561 -0.524071 -2.85013e-19)
(1.62371 -0.596777 -3.5807e-21)
(1.85494 -0.658767 4.24959e-19)
(2.07043 -0.711263 -1.85055e-19)
(2.27083 -0.756164 -1.23986e-19)
(2.45578 -0.796398 -5.35496e-20)
(0.20319 -0.0735 1.73588e-19)
(0.56447 -0.1952 1.02983e-18)
(0.896791 -0.298074 1.43257e-19)
(1.20351 -0.384735 -5.03131e-19)
(1.48719 -0.458227 -1.75498e-19)
(1.75003 -0.520669 6.37671e-19)
(1.9939 -0.573525 -1.45368e-19)
(2.22036 -0.6179 -4.31566e-19)
(2.43047 -0.655445 -3.16664e-19)
(2.6242 -0.688744 2.61587e-19)
(0.218898 -0.0605913 1.16339e-19)
(0.605745 -0.160701 -7.47585e-19)
(0.959313 -0.24503 -1.08559e-18)
(1.28371 -0.315798 3.83779e-19)
(1.58223 -0.375564 4.49933e-19)
(1.85767 -0.426128 -9.02026e-22)
(2.11239 -0.46874 -6.39658e-19)
(2.34829 -0.504326 2.19311e-19)
(2.56683 -0.534213 -3.64504e-19)
(2.76827 -0.56057 -3.11216e-19)
(0.231235 -0.0451722 -3.42483e-19)
(0.638199 -0.119684 -6.92594e-19)
(1.00849 -0.182294 1.21219e-18)
(1.34677 -0.2347 5.98693e-19)
(1.65693 -0.278852 -2.69752e-19)
(1.94224 -0.316136 -2.11493e-19)
(2.20543 -0.347515 0)
(2.44874 -0.373689 1.16799e-19)
(2.67398 -0.395623 -2.95838e-19)
(2.88171 -0.41497 -7.74246e-20)
(0.239766 -0.0278754 -2.04463e-19)
(0.660651 -0.0737557 5.62378e-19)
(1.04249 -0.112198 1.71006e-19)
(1.39031 -0.144289 -5.12487e-19)
(1.7084 -0.171277 -7.84184e-19)
(2.00037 -0.194053 3.66186e-20)
(2.26924 -0.213245 1.67126e-19)
(2.51752 -0.229294 -5.46832e-19)
(2.74731 -0.242784 -2.89765e-19)
(2.95953 -0.254778 -5.63589e-19)
(0.244259 -0.00940241 4.51403e-19)
(0.672452 -0.024704 3.44145e-19)
(1.0603 -0.0373616 -9.38586e-20)
(1.41303 -0.0477885 -1.29784e-20)
(1.73514 -0.0564622 -3.87502e-19)
(2.03041 -0.0637232 -8.57331e-20)
(2.30205 -0.0698101 -2.90574e-19)
(2.55275 -0.0748904 6.46552e-19)
(2.7848 -0.0791713 1.71001e-19)
(2.99945 -0.0830122 2.22128e-21)
(-0.00234299 -0.0217807 -3.4671e-20)
(0.00859235 -0.0693545 -7.01139e-20)
(0.0248767 -0.120548 -7.32689e-21)
(0.0493107 -0.171281 -3.40045e-20)
(0.077664 -0.21668 -1.27348e-20)
(0.106502 -0.254821 -3.90059e-19)
(0.135525 -0.28875 -1.95251e-20)
(0.166312 -0.322067 1.19945e-19)
(0.199142 -0.35559 1.09483e-20)
(0.233033 -0.387966 -3.57535e-20)
(0.000849553 -0.0246792 -9.77575e-20)
(0.0149389 -0.0850658 -2.12991e-19)
(0.0393454 -0.160371 -5.36919e-20)
(0.069271 -0.225314 -1.1037e-19)
(0.099483 -0.275605 -9.63586e-20)
(0.130443 -0.318035 -2.79608e-19)
(0.164459 -0.35903 2.00406e-19)
(0.202121 -0.400442 1.68693e-19)
(0.241624 -0.440369 -2.56765e-19)
(0.281134 -0.476759 8.13546e-20)
(0.0054963 -0.0314858 -8.54134e-20)
(0.028776 -0.107414 -8.67726e-19)
(0.0628611 -0.196131 -1.29815e-19)
(0.0974516 -0.269005 9.30133e-20)
(0.131808 -0.327249 6.77509e-20)
(0.16964 -0.380318 -4.49134e-19)
(0.212936 -0.432352 3.55374e-20)
(0.259131 -0.481856 3.67022e-19)
(0.305478 -0.526325 -3.86562e-19)
(0.351426 -0.565726 -2.58607e-19)
(0.0113686 -0.0409803 -1.77141e-21)
(0.0466248 -0.130876 1.89967e-19)
(0.0896454 -0.225347 1.60925e-21)
(0.133078 -0.307056 -1.07438e-20)
(0.177786 -0.377895 -3.00499e-20)
(0.227239 -0.443885 8.6238e-20)
(0.281094 -0.505661 7.28951e-20)
(0.335666 -0.560938 -1.36075e-19)
(0.389727 -0.609424 9.2091e-21)
(0.443895 -0.651995 -1.04424e-20)
(0.0185092 -0.0507684 0)
(0.0672393 -0.152429 5.49124e-21)
(0.121942 -0.253644 -5.10638e-19)
(0.178697 -0.34549 5.16475e-20)
(0.237808 -0.428593 -9.90589e-21)
(0.300516 -0.50511 5.45287e-21)
(0.36531 -0.574403 -2.53222e-20)
(0.429806 -0.635466 -7.76602e-21)
(0.493944 -0.688875 0)
(0.558138 -0.734889 -2.05831e-20)
(0.0273257 -0.0596486 3.18505e-20)
(0.0918957 -0.172857 -1.54398e-19)
(0.161768 -0.282528 -4.60591e-20)
(0.234631 -0.383898 -5.83277e-20)
(0.309738 -0.476763 4.96077e-20)
(0.386739 -0.561549 5.73148e-21)
(0.464244 -0.637719 8.93191e-20)
(0.540939 -0.704966 -2.17572e-20)
(0.61691 -0.763471 -6.96155e-19)
(0.69216 -0.812679 -1.0102e-20)
(0.0379748 -0.0676039 6.80759e-22)
(0.121237 -0.192179 5.56309e-20)
(0.209164 -0.310619 -7.84231e-20)
(0.299928 -0.42018 -1.66921e-20)
(0.392138 -0.520676 -7.29133e-20)
(0.484779 -0.612136 -9.43284e-21)
(0.576703 -0.694336 1.00183e-20)
(0.666943 -0.767159 -2.11517e-19)
(0.755528 -0.830284 3.8346e-19)
(0.84232 -0.882343 9.71471e-19)
(0.0503612 -0.0746006 1.51198e-20)
(0.155129 -0.20961 -1.42254e-19)
(0.263462 -0.335965 -2.13727e-19)
(0.373671 -0.452112 8.89954e-20)
(0.484104 -0.558268 -6.43151e-20)
(0.593546 -0.65462 9.86729e-20)
(0.700946 -0.741282 1.96723e-19)
(0.805411 -0.818307 -1.09049e-19)
(0.907024 -0.885124 -3.05917e-19)
(1.0057 -0.939542 7.25304e-19)
(0.0642898 -0.0803595 -2.65012e-20)
(0.193286 -0.224026 -5.78122e-19)
(0.324297 -0.35656 5.24302e-19)
(0.455684 -0.477231 3.37483e-19)
(0.585739 -0.586746 -8.59165e-20)
(0.713225 -0.685662 3.08648e-19)
(0.837131 -0.774437 -1.59952e-19)
(0.956566 -0.853463 -7.72801e-19)
(1.07173 -0.922043 -4.03691e-19)
(1.18268 -0.97729 4.53645e-19)
(0.0795449 -0.0846658 -7.98197e-20)
(0.235845 -0.234417 -5.44365e-19)
(0.392392 -0.370524 -8.30004e-21)
(0.547542 -0.492795 6.88475e-20)
(0.699595 -0.602464 3.37749e-19)
(0.847392 -0.700434 -1.85389e-19)
(0.990014 -0.787443 -1.69462e-19)
(1.12653 -0.86383 1.88988e-19)
(1.25681 -0.928654 -3.51627e-19)
(1.38007 -0.980362 -5.84566e-19)
(0.402937 -0.532083 9.83327e-19)
(0.684865 -0.618602 -2.41522e-19)
(0.913769 -0.557965 -1.42303e-19)
(1.08772 -0.431517 2.68191e-19)
(1.24031 -0.280439 -2.30223e-19)
(1.36288 -0.139742 -2.99677e-19)
(1.46108 -0.0342632 -2.66468e-19)
(1.51909 0.019958 -3.19031e-20)
(1.54046 0.0329042 -1.09782e-20)
(1.5569 0.0242207 2.99398e-20)
(0.468874 -0.619946 9.64696e-19)
(0.741492 -0.694034 7.11211e-20)
(0.966289 -0.618022 1.09679e-20)
(1.12486 -0.48078 -2.15253e-19)
(1.2657 -0.320843 -7.13469e-19)
(1.38127 -0.1725 0)
(1.4808 -0.0591856 -2.47991e-19)
(1.55617 0.00567615 5.18911e-20)
(1.59434 0.026408 4.52902e-21)
(1.62399 0.0205087 1.04899e-20)
(0.556209 -0.705596 -9.9813e-19)
(0.81078 -0.767003 -7.10456e-20)
(1.02552 -0.67593 1.56195e-19)
(1.16617 -0.527869 -5.39622e-20)
(1.29127 -0.36003 -3.64758e-20)
(1.39732 -0.205132 6.42565e-20)
(1.49253 -0.0859565 0)
(1.576 -0.0135121 0)
(1.63175 0.0142385 -1.16885e-20)
(1.68207 0.0143151 0)
(0.665695 -0.787333 -2.24992e-19)
(0.895594 -0.835561 4.04682e-19)
(1.09193 -0.730629 2.6826e-20)
(1.21241 -0.571794 0)
(1.31793 -0.397106 6.04371e-19)
(1.4121 -0.236599 -1.42063e-19)
(1.5 -0.113036 0)
(1.58432 -0.034446 1.33889e-19)
(1.64283 -0.00377381 0)
(1.72732 0.0032935 -2.54165e-20)
(0.795737 -0.864007 -1.48863e-19)
(0.997619 -0.897724 4.55372e-19)
(1.16616 -0.78096 -1.46523e-20)
(1.26375 -0.611727 0)
(1.3464 -0.431247 1.79134e-19)
(1.42602 -0.266165 2.67661e-19)
(1.50518 -0.139236 4.73888e-20)
(1.5863 -0.0554877 6.64804e-21)
(1.64043 -0.0228203 -2.25058e-20)
(1.74416 -0.0126413 3.40624e-20)
(0.942248 -0.934864 -1.33235e-18)
(1.11647 -0.95214 -9.4292e-19)
(1.24881 -0.82566 4.75656e-21)
(1.31995 -0.646948 5.75918e-19)
(1.37705 -0.461667 -3.05402e-19)
(1.43919 -0.293279 1.4639e-19)
(1.50874 -0.1638 2.30837e-19)
(1.58365 -0.0756239 -1.87527e-19)
(1.63588 -0.0419805 -1.92587e-21)
(1.73492 -0.0289818 1.25493e-20)
(1.10011 -0.99953 -2.60797e-19)
(1.25 -0.998625 2.86835e-19)
(1.34014 -0.863614 3.92454e-21)
(1.38071 -0.676774 -1.76362e-20)
(1.41 -0.4876 -5.91199e-19)
(1.4516 -0.317396 5.40024e-20)
(1.5104 -0.186216 -9.40448e-20)
(1.57726 -0.0946898 -2.66582e-20)
(1.63252 -0.0587332 7.44913e-22)
(1.69799 -0.04194 -2.32251e-20)
(1.26433 -1.0569 -1.20055e-18)
(1.39473 -1.03778 2.10113e-19)
(1.43912 -0.894231 0)
(1.44506 -0.700778 3.45016e-20)
(1.44455 -0.508535 5.21118e-19)
(1.46291 -0.33803 -1.64139e-21)
(1.50905 -0.206506 -3.15368e-19)
(1.56901 -0.111414 6.58523e-20)
(1.61706 -0.0737906 -1.23145e-21)
(1.64167 -0.0481755 -3.82793e-20)
(1.43201 -1.10354 3.39095e-18)
(1.54804 -1.07053 2.45893e-19)
(1.54557 -0.918219 4.64571e-19)
(1.51323 -0.719384 -3.18042e-20)
(1.48079 -0.524636 -3.44295e-20)
(1.47304 -0.355102 -4.28497e-19)
(1.50243 -0.224203 9.39783e-20)
(1.55658 -0.127162 3.0728e-21)
(1.56605 -0.079446 -2.45121e-20)
(1.57506 -0.0501238 4.68161e-20)
(1.59925 -1.12822 -2.99809e-18)
(1.70186 -1.09571 1.27207e-18)
(1.65392 -0.938222 -2.33196e-19)
(1.58136 -0.73608 -7.89072e-19)
(1.51569 -0.539476 -6.54845e-19)
(1.47926 -0.372409 -2.53359e-19)
(1.49075 -0.241948 -6.95283e-20)
(1.50817 -0.138217 0)
(1.50236 -0.0805617 -6.47718e-20)
(1.50138 -0.0506226 1.34537e-19)
(1.88819 -1.17026 -6.71104e-18)
(1.9274 -1.10525 -1.69168e-18)
(1.80483 -0.932414 -5.82744e-20)
(1.67304 -0.727894 1.11816e-19)
(1.56221 -0.53461 1.59411e-19)
(1.48687 -0.373751 -1.01449e-19)
(1.44583 -0.244408 -4.04773e-20)
(1.42283 -0.137907 7.30599e-20)
(1.411 -0.0788294 -6.06282e-20)
(1.40124 -0.049957 -6.17566e-20)
(2.28934 -1.1349 4.95858e-19)
(2.17884 -1.05678 -2.90078e-19)
(1.94269 -0.865447 4.93361e-19)
(1.73554 -0.66498 -8.42632e-20)
(1.56182 -0.481178 -1.941e-21)
(1.42574 -0.334137 -7.17147e-20)
(1.34049 -0.21997 9.4865e-20)
(1.30487 -0.126954 -3.31062e-20)
(1.28668 -0.0734039 2.10535e-19)
(1.27018 -0.0470535 9.47649e-20)
(2.61059 -1.04363 2.27079e-18)
(2.35192 -0.948817 3.25761e-19)
(2.00817 -0.759547 -1.17704e-19)
(1.73231 -0.573062 1.65099e-36)
(1.50494 -0.411001 -2.55576e-20)
(1.33849 -0.287083 1.50381e-33)
(1.23297 -0.191734 -2.04041e-20)
(1.1795 -0.113952 -1.6734e-33)
(1.15498 -0.0663078 6.87308e-21)
(1.13269 -0.0427201 -1.32896e-20)
(2.78702 -0.893988 3.88618e-33)
(2.36939 -0.795658 2.96662e-18)
(1.9735 -0.630534 1.81748e-18)
(1.65328 -0.469479 0)
(1.40623 -0.33507 8.31625e-19)
(1.22926 -0.233903 4.28074e-19)
(1.11293 -0.157436 1.70831e-19)
(1.0478 -0.0966708 -2.94862e-33)
(1.01707 -0.0572235 -5.72409e-20)
(0.99013 -0.037121 8.06266e-21)
(2.76363 -0.705905 3.84258e-18)
(2.24586 -0.6299 -1.46805e-19)
(1.84647 -0.491047 0)
(1.51542 -0.361739 0)
(1.2711 -0.25578 0)
(1.09698 -0.178585 0)
(0.980195 -0.121575 -1.27743e-20)
(0.90978 -0.0768871 -4.23837e-33)
(0.874422 -0.0464675 7.75003e-21)
(0.843995 -0.0305445 6.74257e-34)
(2.55116 -0.517043 3.26561e-18)
(2.02003 -0.462923 0)
(1.63852 -0.353655 0)
(1.3267 -0.256754 0)
(1.10084 -0.179737 0)
(0.941501 -0.125633 0)
(0.83308 -0.0864657 3.3033e-20)
(0.764261 -0.0562053 -9.34784e-20)
(0.727218 -0.0346707 8.64559e-21)
(0.69517 -0.0233344 3.06269e-20)
(2.19011 -0.342713 0)
(1.70262 -0.303515 1.09814e-18)
(1.36126 -0.227612 1.09024e-18)
(1.09128 -0.161993 0)
(0.898338 -0.112351 6.6647e-19)
(0.763872 -0.0787565 4.03844e-19)
(0.671357 -0.0548515 2.51225e-19)
(0.610229 -0.0366129 8.48391e-20)
(0.575226 -0.0229114 -3.16627e-20)
(0.544175 -0.0160294 -3.56406e-21)
(1.70285 -0.191137 -6.7387e-19)
(1.30018 -0.165595 -2.74168e-19)
(1.02504 -0.121758 1.75647e-19)
(0.815067 -0.0844365 -2.11229e-34)
(0.667675 -0.0580851 -7.70862e-20)
(0.566097 -0.0410668 3.70723e-33)
(0.495452 -0.0290472 4.87849e-20)
(0.447184 -0.0199774 9.88822e-20)
(0.418077 -0.0125319 1.00073e-20)
(0.39127 -0.00932035 -1.982e-21)
(1.10088 -0.0758218 3.40803e-18)
(0.823156 -0.0626789 -1.8657e-19)
(0.640575 -0.0442939 -5.88927e-19)
(0.506139 -0.0289871 0)
(0.413809 -0.019568 -6.40106e-19)
(0.350617 -0.0141352 -4.32387e-19)
(0.306065 -0.0103368 -2.04315e-19)
(0.274729 -0.00753867 -1.43481e-19)
(0.255046 -0.00475411 1.75875e-19)
(0.236271 -0.003918 -3.03797e-20)
(0.397351 -0.00331883 0)
(0.287865 0.00159431 0)
(0.22089 0.00409439 0)
(0.173549 0.00624796 0)
(0.142371 0.00585791 0)
(0.121182 0.00471702 0)
(0.105838 0.00369054 5.59904e-20)
(0.0945992 0.00259599 -2.17684e-34)
(0.0871796 0.00221689 1.2552e-20)
(0.079721 0.000954029 1.12863e-20)
(3.3671 -0.0863121 5.39216e-19)
(3.32642 -0.265087 -8.41875e-20)
(3.24735 -0.430658 8.52079e-19)
(3.13238 -0.58216 -6.04766e-19)
(2.98634 -0.718128 6.66385e-19)
(2.81524 -0.836386 2.75218e-19)
(2.6266 -0.934064 -1.92754e-18)
(2.42951 -1.00785 -7.74522e-20)
(2.22468 -1.05369 0)
(1.98486 -1.06657 4.26089e-19)
(3.86191 -0.0750604 7.07364e-18)
(3.79859 -0.234215 1.95629e-18)
(3.70428 -0.387314 -4.86729e-18)
(3.58426 -0.531995 -4.49132e-19)
(3.44238 -0.665899 3.55889e-18)
(3.28186 -0.787327 1.9235e-18)
(3.1065 -0.895076 -5.16868e-18)
(2.92205 -0.987713 -1.95216e-18)
(2.7276 -1.0634 2.20313e-18)
(2.49237 -1.12053 8.52192e-19)
(3.83308 -0.0533017 -1.26259e-19)
(3.82024 -0.171568 4.40356e-18)
(3.78546 -0.299764 -1.08816e-18)
(3.72434 -0.430922 -3.44616e-18)
(3.63618 -0.558735 -6.79988e-18)
(3.52371 -0.678807 1.02786e-17)
(3.39117 -0.788799 4.18055e-18)
(3.2435 -0.887992 -3.91178e-18)
(3.08161 -0.978727 -2.90274e-18)
(2.88723 -1.06301 -3.42502e-18)
(3.62866 -0.0472866 -4.83934e-18)
(3.61961 -0.144932 -4.35338e-18)
(3.59963 -0.243742 5.47206e-18)
(3.56735 -0.343097 1.91184e-18)
(3.5224 -0.442381 -8.97115e-18)
(3.46416 -0.540812 4.92139e-19)
(3.39182 -0.637051 3.88634e-18)
(3.30511 -0.730437 -1.05392e-18)
(3.20498 -0.823071 1.27678e-18)
(3.08305 -0.914781 2.81774e-19)
(3.34405 -0.0365789 -9.15977e-19)
(3.339 -0.111657 3.00405e-18)
(3.3271 -0.188677 1.61955e-18)
(3.30744 -0.267173 -1.89419e-18)
(3.27986 -0.346071 -2.00133e-18)
(3.24465 -0.424139 -2.43398e-18)
(3.20203 -0.500337 3.7966e-19)
(3.15175 -0.574497 1.39011e-19)
(3.09548 -0.647763 -2.13966e-18)
(3.03286 -0.72131 -2.03432e-18)
(2.96257 -0.026555 -1.82246e-18)
(2.95981 -0.0798894 -5.87283e-20)
(2.9533 -0.134599 -1.63749e-18)
(2.9424 -0.190904 3.12138e-19)
(2.92675 -0.248551 5.36774e-18)
(2.90629 -0.30693 -3.66751e-19)
(2.88092 -0.365116 4.43387e-20)
(2.85023 -0.42206 -2.60855e-18)
(2.81643 -0.476884 -3.4956e-18)
(2.786 -0.529867 3.72825e-19)
(2.48713 -0.0175111 -2.89325e-20)
(2.48578 -0.0519351 -8.143e-19)
(2.48259 -0.0872486 -2.6148e-18)
(2.47707 -0.123772 -3.43096e-18)
(2.4688 -0.161534 2.4965e-18)
(2.45744 -0.200268 1.50223e-18)
(2.44261 -0.239354 -1.38505e-18)
(2.4237 -0.277791 1.62447e-18)
(2.40274 -0.314484 -4.2971e-19)
(2.38953 -0.349542 -9.63762e-19)
(1.91464 -0.0096886 7.7244e-19)
(1.91408 -0.0282978 -8.31778e-19)
(1.91278 -0.0474399 -3.27674e-20)
(1.91031 -0.0673592 -3.47252e-20)
(1.90624 -0.0881303 -7.27412e-20)
(1.90013 -0.109615 -2.3319e-18)
(1.89151 -0.131405 -6.78667e-19)
(1.87978 -0.152783 2.62608e-18)
(1.86664 -0.172975 -6.03502e-19)
(1.86191 -0.192207 -1.35113e-18)
(1.23989 -0.00373773 -1.64278e-18)
(1.23967 -0.0106958 -8.48891e-19)
(1.23923 -0.0179013 2.33914e-18)
(1.23823 -0.0254786 -8.89756e-19)
(1.23625 -0.0334753 -6.74109e-19)
(1.2329 -0.0418316 1.352e-18)
(1.22775 -0.05035 -1.29587e-18)
(1.22038 -0.0586655 1.28697e-18)
(1.21202 -0.0663426 -1.21031e-18)
(1.21007 -0.0735083 -4.24825e-18)
(0.454916 -0.000257987 6.63064e-19)
(0.454827 -0.000700539 7.03037e-19)
(0.454692 -0.00115912 7.48164e-19)
(0.454325 -0.00164005 1.35394e-18)
(0.453496 -0.00214017 -6.71971e-19)
(0.451984 -0.00263718 -1.29959e-18)
(0.449567 -0.00309909 6.14705e-19)
(0.445993 -0.00359291 2.48373e-20)
(0.441737 -0.00439221 -4.96532e-20)
(0.44035 -0.00504563 1.1057e-19)
(1.65356 0.997276 -2.85811e-19)
(1.51227 0.941861 1.79931e-20)
(1.35879 0.880747 -2.28704e-19)
(1.19767 0.808438 1.76314e-19)
(1.02957 0.723978 -1.9189e-19)
(0.854824 0.627076 -1.01088e-19)
(0.673759 0.516941 2.31977e-19)
(0.487035 0.392146 -3.0489e-19)
(0.295891 0.250643 3.09879e-19)
(0.101429 0.0916435 2.38702e-19)
(1.88639 0.992192 0)
(1.72968 0.93474 6.39348e-19)
(1.56083 0.872769 3.32565e-19)
(1.38228 0.801853 1.62692e-19)
(1.19453 0.719878 4.31172e-19)
(0.997533 0.625898 -8.68439e-20)
(0.79136 0.518601 -7.8532e-20)
(0.576346 0.395989 8.875e-20)
(0.353317 0.255174 -1.04515e-18)
(0.122698 0.0943548 -1.66546e-20)
(2.09104 0.959038 1.56801e-19)
(1.92523 0.905068 0)
(1.74614 0.846462 -1.00733e-19)
(1.55494 0.779549 -3.83342e-19)
(1.3517 0.702082 5.37041e-20)
(1.13609 0.612789 3.97086e-19)
(0.907783 0.510088 -6.06853e-19)
(0.666589 0.391638 -2.00883e-19)
(0.412595 0.254044 7.83579e-19)
(0.14525 0.0947348 -1.75928e-19)
(2.28484 0.898354 1.87964e-19)
(2.11044 0.85056 1.198e-20)
(1.9213 0.797861 2.45214e-20)
(1.71811 0.737 3.60846e-20)
(1.50058 0.665855 -2.92882e-20)
(1.26792 0.583131 2.73241e-19)
(1.01926 0.487168 -2.06871e-19)
(0.753674 0.37553 -8.55547e-19)
(0.47027 0.244677 0)
(0.167388 0.0916962 0)
(2.46796 0.811818 -1.07081e-18)
(2.28435 0.770836 -6.09205e-19)
(2.08493 0.725061 -1.20681e-19)
(1.87003 0.671522 -6.657e-20)
(1.6389 0.608294 0)
(1.39031 0.534136 2.40743e-19)
(1.12275 0.447434 2.67768e-19)
(0.834554 0.345835 2.86231e-19)
(0.523839 0.225953 -4.23731e-19)
(0.187907 0.0848978 -8.1232e-20)
(2.634 0.702093 7.66409e-19)
(2.44156 0.668063 -1.3917e-19)
(2.23244 0.629679 -2.21586e-19)
(2.00664 0.584305 0)
(1.76301 0.530278 0)
(1.49988 0.466487 0)
(1.21522 0.391463 -3.8979e-20)
(0.906684 0.303089 3.70272e-19)
(0.571498 0.198348 3.79146e-19)
(0.206082 0.0746241 -3.08561e-19)
(2.7758 0.572355 -1.19356e-18)
(2.5755 0.54526 -1.48138e-18)
(2.35786 0.514529 -3.03342e-22)
(2.1226 0.477946 -1.87652e-19)
(1.86818 0.434181 -9.28782e-20)
(1.59258 0.382318 -1.78832e-19)
(1.29333 0.321124 4.59082e-19)
(0.967488 0.248836 2.14862e-19)
(0.611583 0.162966 5.40016e-19)
(0.221314 0.0613401 2.02849e-19)
(2.88707 0.425748 -1.15707e-18)
(2.68027 0.405633 8.47043e-20)
(2.45576 0.38282 1.64526e-19)
(2.21297 0.355611 1.68149e-20)
(1.95004 0.323051 -3.14396e-19)
(1.66465 0.284468 -1.74203e-19)
(1.35398 0.238937 -6.212e-19)
(1.01464 0.18514 1.18529e-19)
(0.642604 0.121237 5.14739e-20)
(0.233065 0.0456126 -6.26915e-21)
(2.9628 0.265187 1.01364e-19)
(2.75121 0.252354 3.97001e-19)
(2.52189 0.237904 -3.3029e-19)
(2.27394 0.22074 3.63008e-19)
(2.00523 0.200297 3.72543e-19)
(1.71322 0.176176 4.9189e-19)
(1.39481 0.147809 -6.35732e-19)
(1.04633 0.114389 -3.24411e-19)
(0.663411 0.0748096 -4.58504e-20)
(0.240916 0.0280951 -3.2699e-19)
(3.00052 0.0935772 5.81809e-19)
(2.78612 0.0887856 -1.86159e-19)
(2.55425 0.083444 4.79558e-19)
(2.30366 0.0771501 -3.10661e-19)
(2.03208 0.0697279 2.66476e-19)
(1.73679 0.0610618 6.05402e-19)
(1.41457 0.0509784 3.7888e-19)
(1.06161 0.0392346 3.09338e-19)
(0.673396 0.0255065 2.65858e-19)
(0.244654 0.00950722 5.43608e-19)
(0.239611 0.45218 -4.69197e-19)
(0.204006 0.418456 -1.87706e-19)
(0.168436 0.381367 1.39182e-19)
(0.134903 0.343697 -4.19187e-19)
(0.105167 0.307567 -1.19403e-19)
(0.0782697 0.270315 6.92806e-19)
(0.0518946 0.22391 3.35805e-19)
(0.0259746 0.159049 -1.55378e-19)
(0.00706244 0.079727 1.14759e-19)
(-0.00112314 0.0224554 -6.07507e-20)
(0.288652 0.544467 4.11399e-19)
(0.248748 0.507669 4.58375e-19)
(0.2082 0.465616 -1.16339e-20)
(0.16787 0.418582 -1.32757e-19)
(0.131145 0.370449 -3.13417e-19)
(0.100612 0.322844 8.28341e-20)
(0.0734845 0.269514 2.25206e-19)
(0.0459036 0.197048 1.65509e-19)
(0.018349 0.101946 -5.9117e-19)
(0.00279288 0.0288904 -1.23644e-19)
(0.359655 0.633278 -6.00859e-19)
(0.313792 0.593126 -4.81441e-19)
(0.267996 0.547284 2.5768e-19)
(0.221355 0.493968 1.38282e-19)
(0.17581 0.434197 -6.12796e-21)
(0.136271 0.371975 -1.40123e-19)
(0.10212 0.305695 -2.95423e-20)
(0.0684401 0.224961 -5.55074e-19)
(0.0336769 0.126067 -2.69381e-19)
(0.00764191 0.0378129 -3.90605e-20)
(0.454208 0.718011 5.03291e-19)
(0.400052 0.673811 1.64732e-19)
(0.346361 0.622793 -1.49408e-19)
(0.292226 0.563741 6.32194e-20)
(0.237746 0.495633 -5.77445e-22)
(0.186584 0.420944 1.29862e-21)
(0.140103 0.340713 -1.32389e-19)
(0.0954611 0.250292 3.78335e-19)
(0.0514387 0.147762 -4.19237e-19)
(0.0135838 0.0477202 -6.5075e-20)
(0.571998 0.797967 -2.82158e-19)
(0.507852 0.749867 -8.88838e-20)
(0.443573 0.693013 -1.43538e-20)
(0.378964 0.627284 -7.03671e-20)
(0.313717 0.552017 5.85945e-20)
(0.249661 0.468108 5.28225e-20)
(0.188379 0.376746 -2.79695e-20)
(0.129325 0.276673 -2.82097e-19)
(0.0725289 0.167653 2.18326e-19)
(0.0209205 0.0568449 8.72601e-20)
(0.70941 0.871035 6.43278e-19)
(0.634363 0.819645 3.20728e-19)
(0.558128 0.757471 2.02949e-19)
(0.480854 0.6854 4.82189e-20)
(0.402412 0.603556 1.55147e-19)
(0.32387 0.512383 7.85576e-20)
(0.246467 0.412531 1.43443e-19)
(0.170866 0.30392 5.79417e-20)
(0.0980545 0.186804 -1.591e-20)
(0.0299983 0.0650325 -1.33114e-20)
(0.862019 0.934935 -1.19774e-19)
(0.775541 0.88073 -8.24678e-19)
(0.686703 0.814098 -7.59436e-20)
(0.595725 0.736847 -5.24392e-20)
(0.502562 0.64964 -1.97616e-20)
(0.408125 0.55272 1.51565e-19)
(0.313479 0.446315 -4.38116e-20)
(0.21971 0.330415 6.49696e-20)
(0.128294 0.205081 -1.44611e-19)
(0.0409046 0.0724944 -1.26452e-21)
(1.02673 0.986083 -8.84657e-19)
(0.92847 0.929678 5.94296e-20)
(0.826658 0.859736 -2.33991e-19)
(0.721464 0.778906 -7.24098e-20)
(0.612769 0.688019 -2.3935e-20)
(0.501458 0.587073 -7.51857e-20)
(0.388527 0.475895 5.62658e-20)
(0.275163 0.354196 6.03006e-20)
(0.162982 0.221558 -9.82115e-21)
(0.0535442 0.0791207 -1.03775e-19)
(1.2039 1.01797 1.2382e-19)
(1.0935 0.960972 5.23055e-19)
(0.978256 0.889741 1.5519e-21)
(0.858225 0.807568 -2.95489e-20)
(0.733146 0.715309 1.50831e-19)
(0.603892 0.612554 -3.47246e-19)
(0.471404 0.498752 -2.44362e-19)
(0.336831 0.373209 3.56105e-19)
(0.201772 0.235007 1.44176e-19)
(0.0677021 0.0845325 -3.62113e-20)
(1.40059 1.01549 7.39689e-19)
(1.27806 0.962366 3.23688e-19)
(1.14783 0.89538 5.59285e-20)
(1.01087 0.816414 -1.94889e-19)
(0.867272 0.726529 -1.64324e-20)
(0.717902 0.625341 4.6555e-19)
(0.563584 0.512006 -2.68201e-19)
(0.405341 0.385476 -1.84475e-19)
(0.244705 0.24432 3.35787e-19)
(0.0831138 0.0884407 -6.0388e-21)
(0.977125 0.0987236 8.62397e-21)
(1.14204 0.142275 -1.58128e-21)
(1.21373 0.19047 -2.37285e-20)
(1.32655 0.170549 0)
(1.37869 0.155465 5.39607e-23)
(1.2796 0.234144 -5.58474e-20)
(1.12985 0.385583 -5.42194e-20)
(0.94963 0.543582 -1.10779e-20)
(0.711808 0.648505 -3.06223e-19)
(0.416619 0.595701 4.23689e-19)
(0.98256 0.0799011 1.97672e-19)
(1.13386 0.114593 -3.13343e-20)
(1.21032 0.16003 1.89193e-21)
(1.31734 0.151419 1.12989e-20)
(1.38219 0.157653 3.38692e-21)
(1.2994 0.268838 -2.19927e-21)
(1.15976 0.435829 1.1421e-20)
(0.994176 0.606709 0)
(0.761643 0.727591 8.01608e-19)
(0.47944 0.686915 -5.68487e-19)
(0.987652 0.0613605 -1.13798e-19)
(1.13033 0.0879353 6.59484e-21)
(1.20997 0.130452 7.80154e-20)
(1.3142 0.130966 1.91778e-20)
(1.38544 0.158958 -2.32514e-20)
(1.31926 0.301493 -3.48655e-20)
(1.19277 0.484583 -1.21729e-20)
(1.04421 0.668257 4.46952e-20)
(0.823175 0.804095 -1.26601e-21)
(0.564484 0.774707 -3.66775e-19)
(0.992157 0.0425247 -8.0885e-20)
(1.13107 0.0618807 1.53887e-20)
(1.21312 0.101546 7.5567e-20)
(1.3174 0.110379 3.11755e-20)
(1.3912 0.159829 -2.38738e-20)
(1.33935 0.332051 -2.75413e-20)
(1.22925 0.531128 7.70157e-20)
(1.10027 0.727086 2.69294e-20)
(0.899916 0.875752 -5.48138e-19)
(0.673693 0.857112 -1.77716e-19)
(0.99582 0.0230033 3.64665e-20)
(1.13527 0.0359662 -4.611e-20)
(1.21935 0.0731974 -6.77407e-20)
(1.32557 0.0903522 2.27476e-20)
(1.39846 0.16124 0)
(1.35937 0.360914 0)
(1.26931 0.574799 7.86223e-20)
(1.16352 0.781804 -2.82817e-20)
(0.994651 0.940074 -1.18229e-19)
(0.8051 0.932487 -5.74062e-20)
(0.99835 0.00263268 3.34845e-21)
(1.14197 0.00977446 5.80555e-20)
(1.22771 0.045309 -2.0779e-19)
(1.33681 0.0714284 -7.7145e-20)
(1.40603 0.164023 -4.7996e-21)
(1.37923 0.38823 1.27445e-19)
(1.31314 0.614732 1.54409e-19)
(1.23549 0.83069 -1.80536e-20)
(1.10779 0.995263 -4.40589e-20)
(0.953756 1.00019 3.01366e-21)
(0.998969 -0.0187467 2.01941e-21)
(1.15028 -0.0170564 3.00932e-20)
(1.23725 0.0178982 -6.56163e-20)
(1.34962 0.0541115 -1.55976e-19)
(1.41298 0.16842 1.17364e-20)
(1.39922 0.413662 7.35133e-21)
(1.36136 0.649803 -5.97544e-20)
(1.31731 0.872089 -1.07553e-19)
(1.23727 1.04104 -3.07219e-20)
(1.11388 1.06037 -9.79727e-19)
(0.996716 -0.040879 1.49609e-20)
(1.15963 -0.0448168 -1.44965e-19)
(1.24726 -0.0088612 1.32805e-19)
(1.36277 0.03914 1.02779e-19)
(1.41821 0.174893 5.00544e-21)
(1.41931 0.436744 -1.34537e-19)
(1.41385 0.67898 6.53916e-22)
(1.40831 0.905071 -1.33271e-19)
(1.37931 1.07827 1.11014e-20)
(1.27987 1.11245 2.88321e-18)
(0.991506 -0.0631309 -8.82587e-20)
(1.16997 -0.0736259 8.09764e-20)
(1.25738 -0.0347907 1.91089e-19)
(1.37558 0.0266316 -1.15162e-19)
(1.42225 0.1832 -2.28435e-19)
(1.44107 0.457172 9.25949e-21)
(1.47189 0.70213 1.7e-19)
(1.50846 0.930342 -5.75936e-19)
(1.53084 1.10824 -2.68485e-20)
(1.44836 1.15343 -6.47489e-18)
(0.984285 -0.0859959 4.10135e-21)
(1.18159 -0.103466 1.42381e-19)
(1.2675 -0.0596928 6.16108e-20)
(1.3869 0.0189785 -2.7788e-19)
(1.42293 0.197392 -2.4643e-19)
(1.46209 0.478528 -7.33246e-20)
(1.53112 0.72304 8.20611e-20)
(1.61157 0.951251 -2.04836e-19)
(1.68374 1.13059 -1.08619e-18)
(1.61564 1.17239 -7.9513e-18)
(0.974314 -0.117072 -1.44956e-20)
(1.19584 -0.143076 -3.29356e-20)
(1.27685 -0.0933154 -7.71991e-20)
(1.39747 0.00467358 1.43419e-19)
(1.42442 0.196536 2.03358e-19)
(1.49177 0.474014 -6.13228e-20)
(1.61188 0.712421 -1.41875e-19)
(1.75377 0.940382 -1.20038e-18)
(1.9028 1.13258 -1.59902e-18)
(1.89936 1.20872 3.28587e-18)
(0.961999 -0.155738 -4.04742e-19)
(1.21437 -0.192509 1.82047e-20)
(1.2808 -0.139323 -5.84308e-20)
(1.39769 -0.0168295 3.38342e-19)
(1.40234 0.174512 3.45661e-19)
(1.49319 0.429042 4.1921e-21)
(1.66802 0.648037 -6.5491e-20)
(1.88064 0.865946 -2.84316e-19)
(2.13955 1.07141 2.79125e-19)
(2.28454 1.16085 -3.23492e-19)
(0.949366 -0.196226 -2.78977e-20)
(1.23964 -0.242352 -5.49644e-20)
(1.27987 -0.183843 3.08035e-20)
(1.39273 -0.0351345 2.69842e-20)
(1.37549 0.163466 1.71989e-33)
(1.46952 0.371672 2.55705e-21)
(1.68025 0.561456 -2.03544e-33)
(1.94893 0.759634 1.85179e-19)
(2.30188 0.956424 -9.30931e-19)
(2.58733 1.05847 -6.29262e-19)
(0.936993 -0.242965 1.41064e-18)
(1.27113 -0.282341 -7.75653e-34)
(1.24934 -0.229095 -4.04574e-20)
(1.26991 -0.0368923 -2.28502e-19)
(1.26174 0.144897 -4.45868e-19)
(1.38901 0.302712 -8.82959e-19)
(1.6189 0.460125 -5.06201e-33)
(1.9291 0.631123 -1.73774e-18)
(2.32572 0.802112 -3.17755e-18)
(2.75371 0.9026 1.67514e-18)
(0.927285 -0.30054 0)
(1.31658 -0.327215 -1.61764e-33)
(1.11258 -0.207131 0)
(1.10683 -0.0297495 0)
(1.11881 0.11515 0)
(1.2584 0.232998 0)
(1.48947 0.355471 -8.06101e-33)
(1.81493 0.49158 0)
(2.21342 0.634291 -3.39715e-19)
(2.73497 0.712021 1.25748e-18)
(0.916488 -0.360818 1.16133e-19)
(1.25159 -0.326193 -4.68649e-19)
(0.960002 -0.174181 -5.50377e-20)
(0.93366 -0.0259101 0)
(0.95601 0.0827404 0)
(1.08999 0.165554 6.03975e-20)
(1.30625 0.253924 1.17654e-18)
(1.61591 0.354693 -1.95056e-19)
(1.99669 0.466204 -4.95299e-19)
(2.53245 0.520481 4.67305e-18)
(0.883468 -0.405317 -1.52015e-17)
(1.09208 -0.279959 1.08725e-18)
(0.792652 -0.130548 -7.27403e-20)
(0.746816 -0.0210866 -7.43381e-20)
(0.772758 0.0525644 -5.12709e-19)
(0.889485 0.10457 -7.72815e-19)
(1.07627 0.161285 -1.04805e-18)
(1.34602 0.229019 -1.38232e-18)
(1.68761 0.306117 -1.60532e-18)
(2.17993 0.344446 3.61256e-18)
(0.809003 -0.394518 -4.13673e-19)
(0.886463 -0.20759 -1.21647e-18)
(0.605554 -0.0828749 -1.25643e-19)
(0.549554 -0.0152983 -8.42204e-20)
(0.571774 0.0276241 -9.89464e-34)
(0.661555 0.0545634 9.37066e-20)
(0.805421 0.084588 -1.48523e-32)
(1.0162 0.122939 -1.93435e-19)
(1.29247 0.167307 2.9895e-19)
(1.69929 0.192071 7.05769e-19)
(0.664253 -0.288844 3.42549e-17)
(0.618256 -0.108101 -3.14012e-18)
(0.393381 -0.0351208 -2.40697e-19)
(0.339312 -0.00736287 -1.5825e-19)
(0.353698 0.00925555 3.94079e-19)
(0.410438 0.0183631 7.84243e-19)
(0.50118 0.0291909 7.95298e-19)
(0.636725 0.0448841 4.59861e-19)
(0.820753 0.0634559 -1.90428e-19)
(1.10156 0.0762254 3.56939e-18)
(0.336837 -0.0768237 5.58822e-19)
(0.26185 -0.00230478 -6.76604e-33)
(0.144383 0.0190785 -3.04914e-19)
(0.120384 0.00336865 0)
(0.123599 -0.00235104 0)
(0.141841 -0.00541589 9.63814e-20)
(0.172367 -0.00624684 9.35411e-35)
(0.220294 -0.00417655 -1.23571e-19)
(0.28813 -0.00161921 -2.82615e-19)
(0.39901 0.00331829 1.00158e-18)
(2.00206 1.09643 -1.78982e-18)
(2.23906 1.07847 -2.30493e-18)
(2.44208 1.02911 0)
(2.63707 0.952508 -7.58052e-19)
(2.82358 0.852513 -1.78275e-18)
(2.99276 0.732394 -2.24948e-18)
(3.13709 0.595044 -4.75951e-19)
(3.25054 0.4427 1.26927e-18)
(3.32824 0.276965 -3.54789e-18)
(3.36764 0.0986984 1.35668e-18)
(2.49867 1.14199 2.67713e-19)
(2.73056 1.08193 1.39735e-18)
(2.92387 1.00421 1.43919e-19)
(3.10673 0.90981 6.75706e-19)
(3.2806 0.800667 -1.10397e-18)
(3.43997 0.678331 -5.00042e-18)
(3.58096 0.544017 2.46802e-18)
(3.70047 0.399324 1.27034e-17)
(3.79428 0.246326 1.0407e-19)
(3.8587 0.0872577 -1.07364e-17)