# Selection   : all
# Cells       : 440
# Volume      : 7.374263e+01
# Time        	minMag(U)
0.3           	1.382087e-02
0.35          	1.875907e-02
0.4           	1.332035e-02
