# Selection   : all
# Cells       : 440
# Volume      : 7.374263e+01
# Time        	maxMag(U)
5.515         	2.813958e+00
5.56          	2.819740e+00
5.61          	2.825703e+00
