# Selection   : all
# Cells       : 1800
# Volume      : 7.372328e+01
# Time        	maxMag(U)
3.85          	3.137455e+00
3.875         	3.129407e+00
3.9           	3.121240e+00
