/*--------------------------------*- C++ -*----------------------------------*\
  =========                 |
  \\      /  F ield         | OpenFOAM: The Open Source CFD Toolbox
   \\    /   O peration     | Website:  https://openfoam.org
    \\  /    A nd           | Version:  13
     \\/     M anipulation  |
\*---------------------------------------------------------------------------*/
FoamFile
{
    format      ascii;
    class       volScalarField;
    location    "2";
    object      p;
}
// * * * * * * * * * * * * * * * * * * * * * * * * * * * * * * * * * * * * * //

dimensions      [0 2 -2 0 0 0 0];

internalField   nonuniform List<scalar> 
440
(
-1.37444
-1.34357
-1.33672
-1.35291
-1.37603
-1.46396
-1.43068
-1.41127
-1.38848
-1.35776
-1.6294
-1.58838
-1.52942
-1.44992
-1.35873
-1.7902
-1.73691
-1.61497
-1.47125
-1.33211
-1.88748
-1.80335
-1.61849
-1.42874
-1.25772
-0.795183
-0.802337
-0.817268
-0.824791
-0.812564
-0.997926
-1.00524
-1.02576
-1.04269
-1.03346
-1.23378
-1.24066
-1.26001
-1.30527
-1.3003
-1.35496
-1.35053
-1.35984
-1.40498
-1.38903
-1.36052
-1.33906
-1.32872
-1.36702
-1.3599
-0.521525
-0.0420454
0.0744903
0.0435796
0.0151722
-0.679754
-0.0623464
0.067803
0.0414261
0.0143623
-0.887609
-0.1024
0.0580053
0.0383715
0.0133996
-1.05836
-0.16239
0.0434146
0.0338788
0.0120793
-1.12957
-0.237253
0.0207232
0.0272192
0.0101418
-1.03388
-0.275655
-0.0107734
0.0141537
0.00643393
-0.78922
-0.269671
-0.0594005
-0.0151997
-0.00256608
-0.665352
-0.266476
-0.0676212
-0.0190467
-0.00404704
-0.573602
-0.28491
-0.106048
-0.03865
-0.00958886
-0.509349
-0.288476
-0.123041
-0.0467449
-0.0116258
-0.970868
-1.08249
-1.17887
-1.2497
-1.32558
-0.706766
-0.825945
-0.907169
-0.953762
-0.971612
-0.532162
-0.637582
-0.705125
-0.745464
-0.759391
-0.413954
-0.51211
-0.577144
-0.614267
-0.623505
-0.357175
-0.454412
-0.518856
-0.551028
-0.551185
0.32278
0.166078
-0.0246679
-0.240662
-0.492656
-0.0815722
-0.253574
-0.466242
-0.707338
-0.98062
-0.496305
-0.678492
-0.905928
-1.15829
-1.41158
-0.844903
-1.03348
-1.26675
-1.51704
-1.72299
-1.09977
-1.28776
-1.50701
-1.73553
-1.87899
1.67105
1.6908
1.70837
1.71388
1.70422
1.4635
1.47124
1.47037
1.45153
1.41288
1.2058
1.1877
1.14769
1.0843
0.9944
0.916918
0.87022
0.788541
0.675028
0.528568
0.623545
0.521829
0.385264
0.220845
0.0203876
1.51947
1.42334
1.48983
1.50185
1.60821
1.50679
1.40859
1.46742
1.46549
1.51477
1.49482
1.39195
1.44291
1.41741
1.39077
1.48365
1.37416
1.41608
1.36034
1.20984
1.4737
1.35534
1.38799
1.29715
1.01647
1.46265
1.33064
1.35076
1.1948
0.806932
1.45307
1.30331
1.31874
1.09751
0.7984
1.45276
1.28397
1.29512
1.03984
0.787884
1.44886
1.2633
1.27898
0.996675
0.786914
1.47745
1.25897
1.27008
0.969553
0.791364
0.333992
0.0448543
-0.298736
-0.589177
-0.808499
0.305492
0.104294
-0.134111
-0.357488
-0.55375
0.334147
0.155435
-0.0362654
-0.227815
-0.395095
0.376177
0.207708
0.0353187
-0.13517
-0.286111
0.402163
0.238418
0.0747517
-0.0858655
-0.230637
-0.939485
-0.83577
-0.704594
-0.602481
-0.542848
-0.974642
-0.925887
-0.831634
-0.760382
-0.725385
-0.88719
-0.842878
-0.791133
-0.758376
-0.749113
-0.737496
-0.695529
-0.659573
-0.64538
-0.657274
-0.634739
-0.600904
-0.574258
-0.577419
-0.649266
-0.653978
-0.63539
-0.607248
-0.634439
-0.653039
-0.738071
-0.743733
-0.761418
-0.803027
-0.82228
-0.656069
-0.671839
-0.703823
-0.73926
-0.75186
-0.630886
-0.643725
-0.662975
-0.676385
-0.673643
-0.677161
-0.687751
-0.704392
-0.712926
-0.703224
-0.734041
-0.178566
0.0395184
0.045175
0.0178293
-0.697746
-0.114755
0.0518644
0.0499881
0.0197774
-0.558698
-0.0637583
0.0641689
0.0456307
0.0171609
-0.460888
-0.0432067
0.0726679
0.0463563
0.0168959
-0.448231
-0.0357339
0.0762867
0.0449637
0.015879
-0.456137
-0.336034
-0.0377123
0.0309242
0.0181556
-0.644079
-0.280813
0.0182899
0.06598
0.0266845
-0.512346
-0.71904
-0.755393
-0.755503
-0.568273
-0.525441
-0.717466
-0.757494
-0.717896
-0.746607
1.54927
1.53608
1.50981
1.47186
1.42205
1.6858
1.70716
1.71753
1.71521
1.70112
1.79258
1.82177
1.84477
1.85796
1.85997
1.83332
1.8676
1.90508
1.93688
1.95254
1.79442
1.82492
1.85933
1.88758
1.89944
-0.173515
-0.253677
-0.382484
-0.541213
-0.716384
0.322609
0.214713
0.0712624
-0.10305
-0.315092
0.766207
0.654477
0.52062
0.362337
0.170389
1.11175
1.02717
0.925343
0.802006
0.655805
1.38441
1.33111
1.25992
1.17279
1.07123
1.58873
1.46788
1.5545
1.55039
1.63827
1.57341
1.46306
1.54663
1.55603
1.66561
1.55958
1.45615
1.53822
1.55662
1.70602
1.54593
1.44734
1.52511
1.5484
1.6928
1.53254
1.43634
1.50898
1.52993
1.66496
1.64085
1.47726
1.55131
1.50224
1.53936
1.59956
1.46717
1.54761
1.5184
1.55014
1.27812
1.11624
0.813408
0.356107
-0.153271
1.35473
1.14546
0.828048
0.374374
-0.144492
)
;

boundaryField
{
    left
    {
        type            zeroGradient;
    }
    right
    {
        type            fixedValue;
        value           uniform 0;
    }
    down
    {
        type            zeroGradient;
    }
    up
    {
        type            zeroGradient;
    }
    cylinder
    {
        type            zeroGradient;
    }
    defaultFaces
    {
        type            empty;
    }
}


// ************************************************************************* //
