/*--------------------------------*- C++ -*----------------------------------*\
  =========                 |
  \\      /  F ield         | OpenFOAM: The Open Source CFD Toolbox
   \\    /   O peration     | Website:  https://openfoam.org
    \\  /    A nd           | Version:  13
     \\/     M anipulation  |
\*---------------------------------------------------------------------------*/
FoamFile
{
    format      ascii;
    class       surfaceScalarField;
    location    "2";
    object      phi;
}
// * * * * * * * * * * * * * * * * * * * * * * * * * * * * * * * * * * * * * //

dimensions      [0 3 -1 0 0 0 0];

internalField   nonuniform List<scalar> 
823
(
0.00861601
0.0229012
-0.0315172
0.0567195
-0.00248188
-0.0456217
0.148976
-0.0822109
-0.0100457
0.265014
-0.170533
0.0544948
-0.252526
0.146954
0.370586
0.0160757
0.00682545
0.0928075
-0.0792136
0.204431
-0.193834
0.313974
-0.280076
-0.335688
0.397136
0.0345657
-0.0277403
0.131012
-0.17566
0.227924
-0.290746
0.298257
-0.350408
-0.374386
0.336955
0.05268
-0.0804203
0.137141
-0.260121
0.197386
-0.350991
0.22971
-0.382733
-0.390968
0.246292
0.0555097
-0.13593
0.111589
-0.3162
0.14036
-0.379762
0.151788
-0.39416
0.15592
-0.3951
-0.0285493
0.0531719
-0.0246226
-0.0679672
0.0656694
-0.0262515
-0.1007
0.0477934
-0.0150604
-0.122067
0.0242354
-0.00286858
0.00390087
-0.132744
0.00677632
-0.019773
0.0729449
-0.0529556
0.098852
-0.0828023
0.0776401
-0.10116
0.042593
0.00383404
-0.101093
0.00529813
0.0676468
1.63355e-05
0.104134
-0.00988468
0.0875411
-0.0136739
0.0463821
-0.0173364
0.00749654
0.0212696
0.0463772
0.0457656
0.0796378
0.0682253
0.0650814
0.0921683
0.0224391
-0.0667134
0.141545
0.0148601
0.0488762
0.103912
0.180846
0.261087
0.070812
-0.518966
0.31541
0.26941
-0.544331
0.345734
0.36099
-0.303843
0.212263
0.398173
-0.180501
0.143318
-0.0750787
0.0676749
0.0919948
-0.712054
0.27002
-0.722356
0.362505
-0.396329
0.400367
-0.218363
-0.0836317
0.175161
-0.879719
0.290573
-0.837768
0.368081
-0.473837
0.403081
-0.253363
-0.0940408
0.28367
-1.02184
0.339686
-0.893785
0.382903
-0.517054
0.40794
-0.278399
-0.105825
0.354219
-1.11498
0.38857
-0.928137
0.40409
-0.532574
0.415684
-0.289993
-0.11829
1.15056
-0.997645
-1.26789
0.947261
-0.72484
0.791688
-0.377001
0.70301
-0.201315
-0.0866288
1.07266
-0.721628
-1.34868
0.855803
-0.507982
0.743299
-0.264498
0.686939
-0.144955
-0.0636334
1.10022
-0.500549
-1.3213
0.902221
-0.309979
0.774247
-0.136524
0.70034
-0.071048
-0.0332247
1.02643
-0.260416
-1.26656
0.837384
-0.120933
0.727441
-0.0265807
0.666549
-0.0101559
-0.00751336
0.601149
-0.861565
0.480217
0.453636
0.44348
1.09415
0.106551
-1.04479
1.13723
0.203214
1.22228
0.251911
1.27261
0.346797
0.375312
1.01478
0.0595289
-0.967756
1.07435
0.143642
1.1533
0.172958
1.25318
0.246917
0.279818
0.975908
0.0272547
-0.943634
1.03662
0.082928
1.10877
0.100808
1.208
0.147692
0.166513
0.930417
0.00243543
-0.905598
0.987415
0.0259302
1.05689
0.0313363
1.15405
0.050532
0.0539956
0.699771
-0.697336
0.725701
0.757037
0.807569
0.116212
0.306996
-0.260295
-0.162912
0.0754594
0.314019
-0.273267
0.0400054
0.324648
-0.289194
0.0116423
0.316301
-0.287938
0.205074
-0.193431
0.0976762
0.344485
-0.135166
0.0625262
0.349169
0.0304378
0.356736
0.0059224
0.340816
0.210996
0.0511109
0.371096
-0.0777218
0.0248824
0.375397
0.00309198
0.378527
-0.00779616
0.351705
0.2032
-0.00472862
0.388277
-0.0124526
-0.0216135
0.392282
-0.0309247
0.387838
-0.0243475
0.345127
0.178852
-0.078047
0.0712242
-0.0799253
-0.0718492
-0.0429224
0.187751
0.107796
-0.237735
-0.0578125
0.136685
0.112799
-0.0617329
0.0845801
0.118639
-0.0665346
0.0342637
0.119717
-0.0694006
0.0857286
-0.0514649
0.185548
0.152577
-0.230329
0.139467
0.15888
0.0895999
0.168507
0.0376059
0.171711
0.123334
0.15741
0.197988
-0.202821
0.113421
0.202869
0.0696728
0.212255
0.027316
0.214068
0.150651
0.151115
0.233608
-0.186734
0.110685
0.243299
0.0667757
0.256164
0.025129
0.255715
0.175779
0.112873
-0.139561
0.082905
0.0498751
0.0176517
0.411201
0.0271476
-0.0423688
0.418315
0.0828309
-0.0899454
0.41096
0.189827
-0.182472
0.375758
0.248497
-0.213295
0.483259
-0.345236
0.408598
0.0145292
0.412859
0.0785694
0.402308
0.200378
0.368752
0.282053
0.621682
0.403524
0.00698444
0.405249
0.0768444
0.382941
0.222687
0.36494
0.300054
0.783801
0.397509
0.00545528
0.390509
0.0838443
0.368459
0.244737
0.340309
0.328205
0.937376
0.389153
0.0122814
0.375911
0.0970864
0.336642
0.284006
0.313163
0.351683
1.11098
0.620084
-0.00378217
0.63707
0.0801004
0.667732
0.253344
0.766168
0.253248
0.862655
1.01449
0.622626
-0.022388
0.644855
0.0578716
0.711784
0.186415
0.788978
0.176054
0.657898
0.993735
0.623388
-0.041756
0.659272
0.0219876
0.73537
0.110317
0.791951
0.119473
0.441298
1.00855
0.618316
-0.0560514
0.660864
-0.020561
0.732049
0.0391324
0.791836
0.0596857
0.214544
1.01859
0.547969
0.527408
0.56654
0.626226
0.840771
1.02583
-0.174246
1.02198
-0.131323
1.01143
-0.0671662
1.02791
-0.028937
0.0543503
0.961034
-0.141545
0.947517
-0.117806
0.936071
-0.0557208
0.949013
-0.0418786
0.0356067
0.963378
-0.0963719
0.934168
-0.0885952
0.924792
-0.0463453
0.921764
-0.0388501
0.013736
0.966672
-0.0444551
0.921722
-0.043645
0.902888
-0.0275111
0.889172
-0.0251335
-0.0026903
0.796316
0.75267
0.725159
0.700026
0.0500837
0.137769
-0.187853
0.0755832
0.312337
-0.337836
0.0759543
0.36912
-0.369491
0.0650228
0.375531
-0.364599
0.345641
0.0532857
-0.333903
0.0724596
0.0653093
0.148778
0.236018
0.186511
0.331387
0.193473
0.368569
0.367721
0.171392
0.0574766
0.00783276
0.176054
0.117441
0.278176
0.229265
0.351341
0.295405
0.355464
0.363597
0.0222253
-0.0143925
0.118823
0.0208426
0.247058
0.10103
0.382036
0.160427
0.236561
0.500939
0.000948115
-0.0153406
0.04939
-0.0275993
0.152017
-0.00159709
0.288545
0.0238987
0.0803254
0.444781
0.0109982
-0.0263388
0.0433002
-0.0599013
0.101217
-0.0595138
0.172559
-0.047443
-0.00486098
0.257745
0.0184517
-0.0447905
0.0365984
-0.078048
0.0512683
-0.0741837
0.0605291
-0.0567038
-0.0303978
0.0860658
-0.0147674
-0.0300232
-0.0431185
-0.0496969
-0.0703311
-0.046971
-0.0889782
-0.0380568
-0.0289286
-0.0904474
-0.0276877
-0.00233549
-0.0662267
-0.0111578
-0.0969445
-0.0162533
-0.117061
-0.0179407
-0.0178606
-0.128128
-0.0269581
-0.0643675
-0.0956812
-0.116491
-0.127575
0.410848
0.378763
-0.531866
0.380989
0.255621
-0.225761
0.357306
0.132066
-0.108383
0.377988
0.0286729
-0.0493542
-0.0132362
-0.00924655
0.212152
0.252676
0.264609
0.203164
0.332408
0.0642668
0.380311
-0.01923
-0.0338244
0.075608
0.0866211
0.242333
0.0364396
0.338843
-0.0322441
0.385143
-0.0655295
-0.0492648
0.0663279
-0.107835
0.258571
-0.155804
0.350207
-0.12388
0.390966
-0.106288
-0.059832
0.0800002
0.26993
0.358313
0.395343
0.243158
0.429373
-0.672531
0.194852
0.0483067
0.257932
-0.0630807
0.30241
-0.0444772
-0.0132268
0.985026
-1.08752
0.807571
0.636108
0.542276
0.0856431
-0.0152596
-0.0703836
0.142326
-0.0566828
0.259427
-0.117101
0.443044
-0.183616
-0.229488
0.193698
-0.155672
0.308407
0.554903
0.872226
0.141118
-0.124762
0.157118
-0.173474
0.106969
-0.12939
0.16354
0.0692596
-0.135683
0.173392
0.0285989
-0.134071
0.174731
-0.0917953
0.120394
0.177765
-0.0867763
-0.21575
0.135027
-0.0866525
0.0858489
-0.0865041
0.0353466
-0.0835684
-0.0564486
0.172422
-0.0386205
-0.220578
0.123437
-0.037667
0.0750569
-0.038124
0.0298736
-0.038385
-0.0265751
0.192939
0.00954953
-0.241109
0.143571
0.0117009
0.0917887
0.0136587
0.0385374
0.0148662
0.0119624
0.196945
-0.245208
0.146913
0.094037
0.0395025
0.0402496
-0.311621
-0.0625316
0.0149808
-0.33933
-0.00746348
-0.347047
-0.0165209
-0.328779
-0.204373
0.12408
-0.281229
-0.154472
0.0815087
-0.29676
0.0396365
-0.305175
0.0081795
-0.297322
-0.196194
0.144706
-0.23959
-0.186345
0.100749
-0.252803
0.0584957
-0.262921
0.020652
-0.259478
-0.175542
0.160119
-0.203656
-0.196053
0.117766
-0.21045
0.0724652
-0.21762
0.0287759
-0.215789
-0.146766
0.158568
-0.205106
0.111658
0.0674293
0.0263719
0.393131
0.0847901
-0.0819417
0.382438
0.117195
-0.106502
0.33392
0.107204
-0.0586863
0.297903
0.0490096
-0.0129922
-0.146155
0.270583
0.400418
0.0803519
0.401361
0.116252
0.369599
0.138966
0.326421
0.0921871
-0.0354839
0.40512
0.0712117
0.413644
0.107728
0.389034
0.163576
0.349157
0.132064
0.093095
0.409323
0.0578682
0.418577
0.0984744
0.40639
0.175763
0.365239
0.173215
0.217224
0.411479
0.420008
0.413299
0.37322
0.424693
0.0853577
0.340378
0.0843153
0.301345
0.0390328
0.305169
-0.00382418
-0.1469
0.45207
0.513467
0.49128
0.471627
0.45481
0.578493
0.358331
0.0937384
0.273663
0.0846688
0.178104
0.0955588
0.101425
0.0766784
0.0310419
0.467126
0.355741
0.264955
0.187161
)
;

boundaryField
{
    left
    {
        type            calculated;
        value           nonuniform List<scalar> 
17
(
-0.60402
-0.60402
-0.60402
-0.60402
-0.60402
-0.39598
-0.39598
-0.39598
-0.39598
-0.39598
-0.39598
-0.39598
-0.39598
-0.39598
-0.39598
-0.510051
-0.510051
)
;
    }
    right
    {
        type            calculated;
        value           nonuniform List<scalar> 
17
(
0.315636
0.519803
0.40047
0.400899
0.400583
0.401533
0.403186
0.405577
0.40892
0.41349
0.419724
0.428148
0.671349
0.663944
0.669932
0.640837
0.435967
)
;
    }
    down
    {
        type            calculated;
        value           uniform 0;
    }
    up
    {
        type            calculated;
        value           uniform 0;
    }
    cylinder
    {
        type            calculated;
        value           uniform 0;
    }
    defaultFaces
    {
        type            empty;
    }
}


// ************************************************************************* //
