/*--------------------------------*- C++ -*----------------------------------*\
  =========                 |
  \\      /  F ield         | OpenFOAM: The Open Source CFD Toolbox
   \\    /   O peration     | Website:  https://openfoam.org
    \\  /    A nd           | Version:  13
     \\/     M anipulation  |
\*---------------------------------------------------------------------------*/
FoamFile
{
    format      ascii;
    class       volVectorField;
    location    "2";
    object      U;
}
// * * * * * * * * * * * * * * * * * * * * * * * * * * * * * * * * * * * * * //

dimensions      [0 1 -1 0 0 0 0];

internalField   nonuniform List<vector> 
440
(
(-0.1316 0.113411 -1.09774e-19)
(-0.094449 0.160062 7.68152e-20)
(0.293285 0.0744744 -2.59112e-20)
(0.849585 -0.0626357 1.65988e-19)
(1.45156 -0.238014 -8.7026e-21)
(-0.0984236 0.0582974 5.05677e-20)
(0.239527 -0.0178282 -1.57465e-19)
(0.954228 -0.128897 -1.20674e-19)
(1.60926 -0.211462 6.02423e-20)
(2.09992 -0.281716 -7.66648e-21)
(0.0338162 -0.0170517 7.14785e-20)
(0.839722 -0.10703 9.99532e-19)
(1.66632 -0.146212 -6.9073e-19)
(2.17055 -0.15923 -2.29428e-18)
(2.41383 -0.165209 1.00227e-18)
(0.319333 -0.0636522 -1.91458e-19)
(1.45821 -0.0393069 -6.95999e-19)
(2.1375 -0.0179459 2.36763e-18)
(2.40759 -0.00553554 2.54614e-18)
(2.46669 -0.0186274 -7.1771e-19)
(0.704581 -0.000582452 -3.62136e-19)
(1.88131 0.137657 -7.71335e-19)
(2.35568 0.183222 2.34037e-18)
(2.48573 0.178695 2.47714e-18)
(2.51489 0.163435 8.2957e-19)
(-0.0450751 0.239873 1.68912e-19)
(-0.169367 0.271666 8.10141e-20)
(-0.2531 0.17251 -1.96082e-19)
(-0.295436 0.0572536 -6.35977e-21)
(-0.292068 -0.0287794 -3.97302e-19)
(-0.104086 0.393611 -2.62267e-20)
(-0.224849 0.478438 -2.85233e-19)
(-0.281006 0.330815 9.45237e-20)
(-0.28674 0.146793 8.86911e-20)
(-0.235574 -0.0080349 -1.34108e-19)
(-0.160476 0.442794 -4.20424e-19)
(-0.24501 0.624658 1.99445e-19)
(-0.215787 0.48905 -1.8847e-19)
(-0.151692 0.236859 -2.78806e-19)
(0.00242689 -0.0252246 -8.61407e-21)
(-0.166037 0.332968 -2.9006e-20)
(-0.236078 0.580601 -3.20184e-21)
(-0.146811 0.549837 5.14997e-20)
(-0.0162318 0.330283 2.41642e-19)
(0.371578 -0.00855442 5.79458e-20)
(-0.143247 0.19117 -3.87844e-20)
(-0.207363 0.370308 -4.95505e-20)
(-0.0422657 0.360104 7.70377e-20)
(0.226358 0.192953 -8.86846e-20)
(0.860412 -0.0787949 2.08007e-19)
(-0.129423 -0.296153 -5.80357e-19)
(0.500544 -0.31041 6.23565e-21)
(0.785176 -0.180625 1.22348e-20)
(0.946064 -0.115111 -2.0416e-20)
(1.02423 -0.0526854 -5.17928e-21)
(0.0739685 -0.435688 1.47022e-18)
(0.551715 -0.44644 -7.71975e-20)
(0.820255 -0.248596 1.5794e-20)
(0.966183 -0.145313 1.97148e-20)
(1.03268 -0.0630596 1.09808e-20)
(0.55147 -0.56897 6.42463e-19)
(0.723172 -0.547277 5.96384e-19)
(0.893099 -0.307566 -1.56049e-20)
(0.998564 -0.171348 3.48628e-20)
(1.04422 -0.0715701 -3.25754e-21)
(1.13121 -0.647698 -4.35341e-19)
(1.03721 -0.591428 -2.435e-19)
(1.0206 -0.342708 -3.44761e-20)
(1.04937 -0.188223 -3.54906e-20)
(1.05996 -0.0768611 1.00169e-20)
(1.59999 -0.685284 -1.77724e-19)
(1.37007 -0.588965 -6.1796e-19)
(1.18521 -0.342888 0)
(1.11954 -0.18901 4.44723e-20)
(1.08123 -0.077096 6.77495e-21)
(2.16299 -0.661757 -3.31317e-19)
(1.71256 -0.549736 1.96478e-19)
(1.37742 -0.310298 -6.76088e-21)
(1.21081 -0.164363 4.09085e-20)
(1.11146 -0.0675005 -2.87216e-20)
(2.07743 -0.544019 5.14315e-20)
(1.53231 -0.359331 3.33283e-20)
(1.26691 -0.17465 -6.15767e-21)
(1.1685 -0.0953059 -5.90563e-20)
(1.09919 -0.0433591 0)
(2.07725 -0.374698 -3.70998e-19)
(1.62718 -0.262851 1.39235e-20)
(1.3354 -0.141716 -6.78238e-20)
(1.20361 -0.078007 2.04596e-20)
(1.10911 -0.0335916 -9.27827e-21)
(1.94489 -0.256354 2.01764e-20)
(1.50777 -0.134235 6.70907e-20)
(1.24961 -0.0367076 -1.74317e-20)
(1.13945 -0.0148459 -1.41638e-34)
(1.06093 -0.00926925 5.25833e-21)
(1.19157 -0.057432 9.15585e-20)
(0.83568 -0.0135927 -2.07286e-21)
(0.7482 0.0028352 -2.0922e-21)
(0.740274 0.00196697 -4.70578e-21)
(0.72175 -6.99123e-05 1.79527e-21)
(2.36316 0.133967 -1.025e-18)
(2.5232 -0.0188881 -1.22645e-18)
(2.35718 -0.138237 1.01884e-18)
(2.53651 -0.270447 -4.58674e-20)
(2.13423 -0.319255 -6.06465e-20)
(2.20969 0.0468746 6.20066e-20)
(2.32526 0.013849 -4.01638e-20)
(2.28287 -0.146362 -1.22014e-19)
(2.33734 -0.20226 -1.68005e-19)
(2.28021 -0.343937 -4.01588e-21)
(2.17237 0.0125335 7.62989e-20)
(2.20026 0.00299418 1.02433e-19)
(2.23356 -0.128034 -1.32101e-19)
(2.21406 -0.148703 4.51109e-20)
(2.22546 -0.264964 3.69688e-20)
(2.08485 -0.0201215 1.20975e-19)
(2.08441 -0.0273926 1.3262e-19)
(2.14054 -0.105567 -1.91679e-20)
(2.09679 -0.115859 -1.67286e-20)
(2.14254 -0.186429 2.34878e-20)
(1.58274 -0.029091 1.76509e-19)
(1.54973 -0.0260901 -1.33036e-20)
(1.55712 -0.0463774 2.48465e-20)
(1.47669 -0.0396833 -2.1169e-20)
(1.49351 -0.0671778 1.29193e-20)
(1.59211 0.927807 1.20084e-18)
(1.5531 1.01684 -3.49036e-19)
(1.55639 1.13809 -1.35228e-18)
(1.49053 1.16705 7.60486e-19)
(0.92478 0.839629 -1.89033e-19)
(1.88258 0.820759 -6.01562e-19)
(1.86486 0.905174 -3.21937e-18)
(1.86863 1.01591 -1.24981e-18)
(1.78437 1.02567 -4.30179e-19)
(1.09394 0.719718 -7.02893e-19)
(2.1421 0.713275 8.77911e-19)
(2.13346 0.777653 2.03512e-19)
(2.13461 0.860824 -2.48845e-18)
(2.0045 0.839102 -6.88367e-19)
(1.18671 0.555163 4.96841e-19)
(2.33262 0.547389 2.59841e-18)
(2.33876 0.593817 1.87612e-18)
(2.32569 0.649625 -2.13626e-18)
(2.12155 0.610309 -1.6659e-18)
(1.17194 0.359911 -2.99763e-19)
(2.43882 0.362226 1.25919e-18)
(2.45668 0.394341 -8.8887e-19)
(2.40771 0.415705 6.52239e-19)
(2.08986 0.365932 5.27219e-19)
(1.01365 0.160544 -4.71694e-19)
(0.541875 0.481042 -4.55217e-19)
(0.45648 0.51933 -3.34749e-19)
(0.345626 0.561691 3.41239e-20)
(0.217671 0.5814 7.15885e-21)
(0.0558592 0.427625 9.84999e-20)
(0.668197 0.665464 2.0585e-19)
(0.601657 0.72835 -2.1109e-19)
(0.514233 0.79865 1.93046e-19)
(0.392674 0.843241 -9.0222e-20)
(0.172357 0.633538 1.24897e-19)
(0.814535 0.824904 9.92032e-20)
(0.742122 0.901731 5.21112e-19)
(0.679699 0.998744 1.05942e-19)
(0.591782 1.05826 -3.21883e-19)
(0.324987 0.794978 2.66441e-19)
(1.07011 0.944976 3.20153e-19)
(1.0231 1.03641 -8.51811e-19)
(0.970202 1.13405 -2.14216e-18)
(0.882815 1.18461 8.48066e-19)
(0.523062 0.881073 -1.83688e-19)
(1.21186 0.937933 -1.5156e-19)
(1.22649 1.06092 -2.30183e-19)
(1.2413 1.18307 -3.60842e-19)
(1.18627 1.2287 -4.21006e-19)
(0.731792 0.900643 -6.8809e-21)
(0.901913 0.0266564 -1.11889e-19)
(1.09167 0.0626917 -4.08467e-20)
(0.979838 0.132545 -2.48217e-21)
(0.955586 0.161648 -3.7659e-19)
(0.848407 0.293783 2.82661e-19)
(0.901819 0.0211754 7.72448e-20)
(1.09279 0.0644597 1.40012e-19)
(0.987497 0.14018 1.35898e-19)
(0.97616 0.195577 5.4823e-20)
(0.926786 0.375893 -4.18662e-20)
(0.903518 0.016662 1.05805e-19)
(1.08953 0.0637529 -4.94879e-21)
(1.01286 0.15315 -4.58571e-21)
(0.9611 0.206039 1.79256e-19)
(1.13701 0.504226 -4.91736e-19)
(0.904108 0.0125165 -1.80259e-21)
(1.0921 0.0625877 -1.78344e-19)
(1.01852 0.164434 -6.97419e-20)
(1.0299 0.212781 -4.4425e-19)
(1.18822 0.541558 1.28959e-19)
(0.903163 0.00916812 -2.35666e-20)
(1.09321 0.0633893 4.68095e-20)
(1.04626 0.16925 3.35119e-20)
(1.01883 0.2372 4.94789e-19)
(1.44766 0.684798 -4.66108e-19)
(0.888868 0.00510029 -1.83925e-20)
(1.12043 0.053499 8.83989e-20)
(1.0355 0.182912 -9.54678e-20)
(1.17863 0.168506 8.89873e-19)
(1.41003 0.649777 -4.47451e-19)
(0.88734 -0.0102706 -2.40836e-21)
(1.12773 0.0441481 -8.30153e-20)
(1.05887 0.135652 4.97977e-21)
(1.26395 0.139069 -2.75641e-19)
(1.41533 0.470327 1.07381e-20)
(0.889901 -0.0159989 -8.14653e-21)
(1.12514 0.0302498 1.27764e-35)
(1.11248 0.0973841 -4.6793e-20)
(1.27781 0.0870973 8.79775e-20)
(1.41558 0.345077 1.64557e-19)
(0.895187 -0.0398731 5.52183e-21)
(1.10072 -0.00482401 -2.21152e-20)
(1.14528 0.04087 1.88734e-20)
(1.22644 0.0603359 3.48315e-20)
(1.46889 0.212914 -2.51094e-19)
(0.850468 -0.0238026 -3.48011e-20)
(0.912106 -0.0193615 -2.51826e-21)
(0.887571 0.00661357 2.83398e-20)
(0.938898 0.0105817 -1.57666e-20)
(1.20122 0.0600115 -5.76148e-20)
(1.80785 0.773965 3.76048e-19)
(1.91425 0.671077 8.98646e-19)
(2.15037 0.610781 -1.23388e-18)
(2.21696 0.442165 8.54129e-20)
(2.40905 0.307227 4.85515e-19)
(1.72138 0.521922 1.28043e-20)
(1.80191 0.412063 9.84879e-19)
(1.96755 0.417825 9.35722e-20)
(2.04271 0.242601 -9.84145e-19)
(2.19894 0.225764 -3.09821e-19)
(1.70309 0.347875 -2.09934e-19)
(1.8102 0.263126 -1.57227e-19)
(1.92024 0.270487 2.00209e-19)
(2.02629 0.148146 -3.16584e-19)
(2.10321 0.146723 2.79277e-19)
(1.7114 0.198473 3.58599e-19)
(1.8017 0.144979 -4.53232e-21)
(1.88155 0.140925 2.39252e-19)
(1.97061 0.0671028 2.03029e-19)
(2.01343 0.0594265 -1.91858e-19)
(1.41565 0.0424215 -4.33302e-20)
(1.47598 0.023364 2.44598e-19)
(1.52766 0.0151562 1.13764e-19)
(1.56179 -0.00572356 -2.30025e-19)
(1.5705 -0.00952028 5.70207e-22)
(1.09969 -0.0239829 4.89584e-20)
(2.10024 -0.0515481 -3.69861e-19)
(2.33979 -0.0409121 1.01627e-18)
(2.33258 0.00498377 4.37867e-19)
(2.18944 0.0293874 -2.96553e-19)
(0.661113 0.085187 7.74349e-20)
(1.87653 0.0669482 -3.72677e-19)
(2.34879 0.0678964 -4.74164e-19)
(2.43087 0.0762043 5.35225e-19)
(2.18237 0.0740126 -2.95801e-19)
(0.169542 0.0611755 -3.19503e-20)
(1.21548 0.118927 3.97835e-19)
(1.98833 0.133392 5.80141e-20)
(2.38752 0.120396 1.98373e-19)
(2.6156 0.11754 4.3193e-20)
(-0.0625899 -0.0300274 2.12288e-19)
(0.387304 0.0558933 2.05932e-19)
(1.16248 0.111485 -3.48487e-19)
(1.69109 0.138784 1.19446e-21)
(2.29195 0.154389 -2.93681e-19)
(-0.0831118 -0.0539332 9.28629e-20)
(-0.0408624 -0.0636994 -1.8154e-19)
(0.373462 -0.0279522 -3.49679e-20)
(0.770937 -0.0516921 -1.30849e-19)
(1.24612 -0.00114244 -1.20438e-19)
(-0.0626109 -0.0882256 -1.09904e-19)
(-0.14433 -0.26161 1.10389e-19)
(-0.0310482 -0.344191 -5.8992e-20)
(0.0627843 -0.373081 1.6231e-19)
(0.487759 -0.284245 -2.61867e-20)
(-0.109709 -0.230945 9.29197e-21)
(-0.190201 -0.476182 7.87455e-20)
(-0.159865 -0.499414 8.68314e-20)
(-0.097387 -0.391325 5.17221e-20)
(0.0779906 -0.222456 1.66528e-20)
(-0.109753 -0.243094 -2.22791e-20)
(-0.233519 -0.347595 -4.53882e-19)
(-0.285875 -0.261897 3.35892e-19)
(-0.296699 -0.158128 6.78614e-19)
(-0.255711 -0.0841331 1.19898e-21)
(-0.0496037 -0.0920036 2.24056e-20)
(-0.186135 -0.156024 1.27058e-19)
(-0.274412 -0.154202 -2.73353e-19)
(-0.315632 -0.122261 -6.71433e-20)
(-0.313796 -0.092677 -2.20047e-20)
(-0.0206231 0.0728204 -8.50131e-21)
(-0.135413 0.0629688 2.80928e-20)
(-0.224578 0.0218999 -1.00318e-20)
(-0.27867 -0.018827 2.71945e-20)
(-0.28693 -0.0494566 -4.22452e-20)
(1.50226 0.259339 -2.03209e-20)
(1.23982 0.142943 8.23937e-19)
(0.978231 0.10205 -4.12367e-20)
(0.958894 0.049692 4.05442e-20)
(1.01132 0.0102064 -5.89886e-22)
(0.730465 0.238619 1.03657e-19)
(0.659822 0.192333 -3.76692e-19)
(0.786635 0.0816064 -1.08278e-19)
(0.922128 0.00568647 1.00301e-21)
(1.0124 -0.00940692 -3.71528e-21)
(0.0136967 0.12842 4.74581e-19)
(0.459666 0.0939065 -6.11641e-19)
(0.748273 0.021011 1.23499e-20)
(0.920357 -0.0132654 -1.48247e-20)
(1.01161 -0.0150287 4.8779e-21)
(-0.153808 -0.00698547 -1.52656e-19)
(0.468561 -0.0402276 1.82031e-19)
(0.75335 -0.050491 2.31127e-20)
(0.923597 -0.054975 -1.1851e-21)
(1.01401 -0.0305401 -2.79711e-22)
(-0.14292 -0.148487 -6.43616e-21)
(0.49136 -0.171938 1.4023e-19)
(0.768684 -0.113201 -6.6115e-21)
(0.933485 -0.0830145 5.68473e-21)
(1.01819 -0.0410091 -2.0414e-21)
(0.564891 0.0895743 -3.6952e-20)
(0.362823 -0.0918707 0)
(0.432302 -0.0819997 -2.51785e-20)
(0.556637 -0.0446868 4.98735e-20)
(0.618784 -0.0122363 -3.89881e-21)
(2.05351 0.407351 0)
(1.83966 0.156611 0)
(1.36859 0.0128238 2.3388e-19)
(1.10212 -0.00316299 1.6359e-20)
(1.0191 -0.00210597 4.15986e-21)
(0.673476 0.00134928 -1.11314e-19)
(0.786498 -0.00988113 1.89276e-19)
(0.932574 0.00678741 -4.05208e-21)
(1.07209 -0.0302796 2.42764e-19)
(1.43523 0.0596987 1.66095e-19)
(1.56096 0.0191641 1.06177e-19)
(1.75936 0.0646791 1.93601e-19)
(1.94094 0.0123553 8.21375e-20)
(2.55594 0.144872 -1.81307e-19)
(2.18791 0.0172265 -6.26338e-20)
(0.850073 -0.410239 -2.75691e-20)
(0.827559 -0.492569 -1.28979e-19)
(0.815968 -0.585675 -8.24354e-20)
(0.743128 -0.649204 4.92513e-20)
(0.441297 -0.503313 1.07273e-19)
(0.751656 -0.319578 1.17481e-19)
(0.698386 -0.377322 2.60552e-19)
(0.621805 -0.438254 -1.59881e-20)
(0.502324 -0.486403 1.07797e-19)
(0.262195 -0.380043 4.40886e-20)
(0.58691 -0.187891 -1.41775e-19)
(0.497442 -0.220477 -3.66491e-20)
(0.397476 -0.263751 1.12558e-19)
(0.287722 -0.300779 -8.44984e-21)
(0.121832 -0.235314 -8.57808e-20)
(0.511364 0.0463637 -3.88068e-19)
(0.431676 0.0360388 -3.34751e-19)
(0.32809 0.0125332 2.67553e-19)
(0.206102 -0.0241334 1.85591e-19)
(0.0508884 -0.0403781 1.35584e-20)
(0.500378 0.236243 -1.76143e-19)
(0.420084 0.247519 -1.70857e-19)
(0.310438 0.259797 -9.12281e-20)
(0.178437 0.270242 2.42583e-22)
(0.0230911 0.201123 9.73642e-21)
(1.95662 -0.0303324 6.6808e-19)
(2.19143 -0.100156 2.25948e-19)
(2.24991 -0.178424 -6.20625e-19)
(2.09752 -0.209033 -1.29257e-18)
(1.24956 -0.178556 1.05081e-19)
(1.91355 -0.107578 1.16407e-18)
(1.99802 -0.208944 1.54179e-18)
(2.00551 -0.326181 1.3019e-19)
(1.91825 -0.386821 2.29064e-19)
(1.21943 -0.337472 -1.5094e-19)
(1.65388 -0.253431 -2.9769e-18)
(1.6914 -0.364926 3.23636e-19)
(1.71607 -0.481721 9.44191e-19)
(1.64955 -0.556044 -3.54813e-19)
(1.06251 -0.46795 5.63422e-19)
(1.41683 -0.366723 7.02483e-19)
(1.42754 -0.456308 -1.85159e-18)
(1.41436 -0.567118 -2.10197e-18)
(1.34209 -0.650617 6.39183e-19)
(0.856958 -0.533077 4.50513e-19)
(1.15549 -0.413884 1.29356e-19)
(1.10338 -0.499124 2.09922e-19)
(1.07607 -0.607991 -3.13211e-19)
(1.01022 -0.685936 -3.81665e-19)
(0.631886 -0.542676 -3.5254e-21)
(0.913932 0.0457016 5.63735e-21)
(1.07137 0.0657142 -5.56992e-21)
(0.99952 0.0438068 -2.16256e-20)
(0.797158 0.0115883 -1.34739e-19)
(1.06814 -0.157828 -6.03218e-21)
(0.9142 0.046387 -2.76095e-21)
(1.07165 0.0662407 5.45111e-20)
(1.00953 0.0751844 -8.18933e-20)
(0.84626 0.0364003 4.0234e-20)
(0.922461 -0.0551391 -2.35569e-20)
(0.912626 0.0413981 -5.94081e-20)
(1.07021 0.0644691 6.09279e-22)
(1.01365 0.090594 -2.71577e-20)
(0.846823 0.0697371 -4.8943e-20)
(0.893076 -0.00426038 -9.93809e-20)
(0.908138 0.0372577 8.23752e-20)
(1.07909 0.0613383 4.01727e-21)
(0.992797 0.110604 4.09139e-20)
(0.903347 0.0938133 8.00918e-20)
(0.802468 0.108728 1.26804e-19)
(0.904081 0.0320566 2.02652e-20)
(1.08723 0.0619198 -3.5083e-20)
(0.980261 0.120873 5.0252e-20)
(0.937466 0.133883 1.02015e-19)
(0.791578 0.189846 -1.39773e-19)
(0.833917 0.03287 0)
(0.785304 0.027745 9.84066e-21)
(0.587505 0.0139983 -1.71338e-21)
(0.566424 -0.010928 3.87635e-20)
(0.679552 -0.0357254 -1.10647e-19)
(0.90749 0.0644294 -5.67257e-20)
(1.05931 0.0725917 -2.04515e-20)
(0.91186 0.0317838 -7.28104e-21)
(0.909 0.00630687 -7.05042e-20)
(0.931517 -0.158299 -1.11496e-19)
(0.963584 -0.0357174 -2.22538e-20)
(1.03383 -0.00537021 4.17333e-19)
(1.10356 0.0539613 2.62965e-19)
(0.948264 0.0594317 3.05821e-20)
(0.733139 0.0281134 0)
(1.23109 -0.282553 2.43295e-19)
(1.3496 -0.248341 1.23154e-18)
(1.53496 -0.135119 -1.37744e-18)
(1.61018 -0.0100521 -4.27324e-19)
(1.53765 0.0331674 3.11736e-19)
)
;

boundaryField
{
    left
    {
        type            fixedValue;
        value           uniform (1 0 0);
    }
    right
    {
        type            zeroGradient;
    }
    down
    {
        type            noSlip;
    }
    up
    {
        type            noSlip;
    }
    cylinder
    {
        type            noSlip;
    }
    defaultFaces
    {
        type            empty;
    }
}


// ************************************************************************* //
