/*--------------------------------*- C++ -*----------------------------------*\
  =========                 |
  \\      /  F ield         | OpenFOAM: The Open Source CFD Toolbox
   \\    /   O peration     | Website:  https://openfoam.org
    \\  /    A nd           | Version:  13
     \\/     M anipulation  |
\*---------------------------------------------------------------------------*/
FoamFile
{
    format      ascii;
    class       volScalarField;
    location    "19";
    object      p;
}
// * * * * * * * * * * * * * * * * * * * * * * * * * * * * * * * * * * * * * //

dimensions      [0 2 -2 0 0 0 0];

internalField   nonuniform List<scalar> 
440
(
-1.23474
-1.21956
-1.2142
-1.20913
-1.23178
-1.28931
-1.26913
-1.24258
-1.20947
-1.16935
-1.4214
-1.38007
-1.31855
-1.2346
-1.13836
-1.54055
-1.48082
-1.35838
-1.21092
-1.06216
-1.60306
-1.51821
-1.33178
-1.13921
-0.964433
-0.607993
-0.605854
-0.607248
-0.613711
-0.616148
-0.854799
-0.868522
-0.901102
-0.957247
-1.01682
-1.09133
-1.11279
-1.1591
-1.23698
-1.34646
-1.18708
-1.19393
-1.21092
-1.24271
-1.29649
-1.19698
-1.19034
-1.18588
-1.18453
-1.18364
-0.501278
0.314177
-0.709751
-0.484087
-0.217477
-0.77
0.572387
-0.893429
-0.61849
-0.214385
-1.12911
0.535811
-1.04612
-0.609202
-0.198265
-1.26197
0.413698
-1.03473
-0.561705
-0.173168
-1.13697
0.536282
-0.627002
-0.569262
-0.149418
-0.722129
0.927561
0.165995
-0.6142
-0.131112
-0.276134
0.457529
0.297672
-0.431861
-0.117844
-0.122834
0.584589
0.514918
-0.13408
-0.11083
-0.0166667
0.537756
0.594139
0.0456465
-0.108876
0.0045046
0.569751
0.678747
0.2314
-0.0854361
-0.668826
-0.783825
-0.93174
-1.06616
-1.20779
-0.364071
-0.478817
-0.547488
-0.585183
-0.580601
-0.162446
-0.259465
-0.304806
-0.32436
-0.315691
-0.0448792
-0.12926
-0.175632
-0.188031
-0.172909
0.00880353
-0.0741391
-0.118925
-0.130697
-0.108269
0.751567
0.597053
0.402072
0.180039
-0.0700865
0.303626
0.135871
-0.0686482
-0.303381
-0.576336
-0.132098
-0.308498
-0.530539
-0.777192
-1.03798
-0.515371
-0.699659
-0.928804
-1.17427
-1.38081
-0.782735
-0.973847
-1.1934
-1.42282
-1.56297
2.00805
2.03685
2.06366
2.07678
2.07252
1.79811
1.8152
1.82557
1.81846
1.78958
1.55425
1.54222
1.50678
1.44728
1.35999
1.27707
1.23966
1.1664
1.06059
0.922151
1.01872
0.913238
0.775474
0.613077
0.413731
1.79044
1.77483
1.76694
1.82068
1.90548
1.77887
1.76082
1.74445
1.78899
1.80583
1.76835
1.74423
1.71956
1.74554
1.67876
1.75906
1.72566
1.69209
1.69221
1.4979
1.75102
1.70561
1.66317
1.63367
1.30719
1.74382
1.67714
1.62628
1.53175
1.09337
1.73721
1.63848
1.59566
1.43988
1.1441
1.74543
1.61484
1.56541
1.38658
1.1102
1.7328
1.59136
1.54589
1.34981
1.06613
1.77327
1.58672
1.5374
1.33163
1.04244
0.725941
0.39733
0.0394615
-0.278431
-0.484714
0.641616
0.421158
0.178651
-0.0400063
-0.223583
0.643247
0.471151
0.28674
0.116437
-0.0434246
0.673757
0.523188
0.365126
0.213681
0.0684382
0.689094
0.551357
0.405979
0.260127
0.120006
-0.816091
-0.69662
-0.547074
-0.425209
-0.352799
-0.84602
-0.791903
-0.68063
-0.59027
-0.536513
-0.750475
-0.704986
-0.643572
-0.592064
-0.558351
-0.595017
-0.558198
-0.521527
-0.493451
-0.47456
-0.481421
-0.462542
-0.438451
-0.427116
-0.449704
-0.421146
-0.415074
-0.391479
-0.395415
-0.374464
-0.408824
-0.404586
-0.392887
-0.386379
-0.379926
-0.422827
-0.417168
-0.404589
-0.385761
-0.368755
-0.454284
-0.445129
-0.432673
-0.415538
-0.392953
-0.501717
-0.494133
-0.482835
-0.467967
-0.450619
-0.421649
-0.122744
0.0428875
-0.333923
-0.0359317
-0.372876
-0.0877519
-0.0328038
-0.330537
-0.089726
-0.255106
-0.0777829
-0.140816
-0.3352
-0.144813
-0.304545
-0.0803822
-0.297316
-0.343255
-0.190171
-0.395607
-0.0239843
-0.503737
-0.36394
-0.212834
0.0723145
-0.252254
0.0196627
-0.314458
0.0359153
-0.326354
-0.230176
0.0909291
-0.302056
0.0114001
-0.312447
-0.524132
-0.5159
-0.482921
-0.243888
-0.329665
-0.516807
-0.537746
-0.473863
-0.477735
1.8287
1.81043
1.77619
1.72733
1.66305
1.976
1.99818
2.00578
1.99758
1.97479
2.09721
2.13076
2.15617
2.1698
2.17021
2.15338
2.19235
2.2332
2.26679
2.28278
2.1251
2.16116
2.20067
2.23315
2.24757
0.0303924
-0.0637886
-0.212031
-0.391823
-0.590934
0.547742
0.425441
0.261678
0.0647532
-0.176749
1.01046
0.882777
0.730438
0.551265
0.331967
1.37569
1.27895
1.16052
1.01644
0.844751
1.66486
1.59886
1.51139
1.40626
1.28408
1.8604
1.81795
1.82232
1.85172
1.90536
1.84397
1.81265
1.81676
1.8594
1.94264
1.82951
1.80573
1.81113
1.867
1.99489
1.81574
1.79736
1.80031
1.86187
1.98898
1.80268
1.78724
1.78524
1.84646
1.96449
1.91821
1.82771
1.81777
1.7923
1.80795
1.87185
1.81713
1.81015
1.80867
1.81315
1.56442
1.39293
1.07231
0.590569
0.0586441
1.6344
1.41694
1.08296
0.607178
0.0661625
)
;

boundaryField
{
    left
    {
        type            zeroGradient;
    }
    right
    {
        type            fixedValue;
        value           uniform 0;
    }
    down
    {
        type            zeroGradient;
    }
    up
    {
        type            zeroGradient;
    }
    cylinder
    {
        type            zeroGradient;
    }
    defaultFaces
    {
        type            empty;
    }
}


// ************************************************************************* //
