/*--------------------------------*- C++ -*----------------------------------*\
  =========                 |
  \\      /  F ield         | OpenFOAM: The Open Source CFD Toolbox
   \\    /   O peration     | Website:  https://openfoam.org
    \\  /    A nd           | Version:  13
     \\/     M anipulation  |
\*---------------------------------------------------------------------------*/
FoamFile
{
    format      ascii;
    class       surfaceScalarField;
    location    "19";
    object      phi;
}
// * * * * * * * * * * * * * * * * * * * * * * * * * * * * * * * * * * * * * //

dimensions      [0 3 -1 0 0 0 0];

internalField   nonuniform List<scalar> 
823
(
0.00731135
0.00834561
-0.015657
0.0384054
-0.0122214
-0.0188726
0.104819
-0.0683186
0.00190486
0.199256
-0.137377
0.0429401
-0.19606
0.0772102
0.318106
0.00926819
-0.000922576
0.0650459
-0.0679991
0.164091
-0.167363
0.277099
-0.250385
-0.322034
0.403073
0.0255779
-0.0265004
0.11564
-0.158061
0.224283
-0.276007
0.321754
-0.347856
-0.383082
0.382803
0.0480617
-0.0745621
0.142376
-0.252376
0.217728
-0.351359
0.258541
-0.388669
-0.396599
0.272058
0.0586972
-0.133259
0.124364
-0.318043
0.158067
-0.385061
0.169918
-0.40052
0.178427
-0.405108
-0.0223563
0.0233588
-0.00100247
-0.0627899
0.017606
0.0228275
-0.116333
0.0202413
0.033302
-0.175464
0.0256412
0.0334901
0.0197002
-0.230157
0.0349921
-0.0141911
0.03755
-0.0421104
0.0455252
-0.0746286
0.0527596
-0.106503
0.0575156
0.0473699
-0.134173
0.0054574
0.0320926
0.00705048
0.0439322
0.014086
0.0457241
0.0326268
0.0389748
0.0195218
0.060475
0.0102638
0.0218287
0.0217995
0.0323965
0.0420149
0.0255086
0.0765604
0.00442933
-0.025977
0.122059
0.00617178
0.0196956
0.0471091
0.0944786
0.145712
0.0933966
-0.940921
0.617368
0.348474
-0.194977
-0.0601005
0.225701
1.79756
-1.67479
0.418896
-0.19923
0.00603536
-0.945308
0.895932
0.265697
-1.34079
0.429817
-0.359096
0.289376
1.938
0.494384
-0.404237
-0.989656
0.403624
-1.68394
0.496052
-0.451525
0.439774
1.99428
0.573464
-0.537927
-1.03021
0.261711
-1.82359
0.27013
-0.459944
0.470118
1.79429
0.626962
-0.694771
-1.069
0.0317505
-1.70963
-0.0354659
-0.392727
0.45031
1.30852
0.680948
-0.925409
-1.09683
0.817336
-1.28919
-1.23778
0.37432
0.0502889
0.9835
0.699337
1.25989
-1.2018
-0.975486
0.908102
-0.821832
-1.37546
0.742236
0.216155
1.28846
0.15311
1.29187
-1.20521
-0.771297
0.967416
-0.461158
-1.32809
1.01659
0.166985
1.39535
-0.225654
1.09971
-0.909567
-0.483077
0.983737
-0.201569
-1.24333
1.11862
0.0321006
1.17304
-0.280072
0.687781
-0.424309
-0.160505
0.625534
-0.827103
0.657635
0.377562
-0.0467472
1.11595
0.143341
-1.08087
1.18338
0.20463
1.27881
0.28737
1.31761
0.364275
0.397939
1.03208
0.0906948
-0.979435
1.10075
0.135958
1.1823
0.205823
1.28526
0.261317
0.307738
0.9671
0.0459239
-0.92233
1.01995
0.0831086
1.10359
0.12218
1.20841
0.156498
0.188058
0.889141
0.0116296
-0.854847
0.943874
0.0283762
1.02346
0.0425899
1.125
0.0549647
0.0697308
0.631441
-0.619811
0.659817
0.702407
0.757372
0.142523
0.308067
-0.251995
-0.198595
0.0947984
0.312609
-0.264885
0.0528032
0.323268
-0.281272
0.0179646
0.315981
-0.281142
0.206442
-0.188478
0.104072
0.344647
-0.140651
0.0673447
0.349336
0.0341637
0.356449
0.00787591
0.342269
0.214318
0.0674358
0.379101
-0.10189
0.0357587
0.381013
0.0085832
0.383624
-0.00632456
0.357176
0.207994
-0.00773201
0.394361
-0.00752861
-0.0248984
0.39818
-0.0338947
0.392621
-0.0268441
0.350126
0.18115
-0.0851923
0.0744453
-0.0875323
-0.0799731
-0.0478904
0.200564
0.104539
-0.253241
-0.0518615
0.146772
0.10915
-0.055359
0.0913169
0.114347
-0.0588914
0.0371759
0.114851
-0.0607102
0.0822736
-0.0450977
0.192146
0.148563
-0.236169
0.146007
0.155289
0.0947403
0.165614
0.0401877
0.169404
0.122461
0.14899
0.194242
-0.19467
0.10576
0.198519
0.0639901
0.207384
0.0242106
0.209183
0.146672
0.156377
0.22737
-0.189505
0.11664
0.238256
0.0717203
0.252304
0.0279407
0.252963
0.174613
0.0976426
-0.122268
0.0710134
0.0420444
0.0138652
0.407138
0.0647041
-0.0758624
0.418548
0.0534645
-0.0648747
0.413128
0.159471
-0.154051
0.391661
0.230456
-0.208989
0.462004
-0.323584
0.404274
0.0564097
0.412179
0.0455591
0.40319
0.16846
0.37707
0.256576
0.602905
0.397032
0.0553572
0.4066
0.0359914
0.383413
0.191647
0.367131
0.272858
0.775365
0.392099
0.0592375
0.39427
0.0338208
0.372939
0.212977
0.339218
0.30658
0.925078
0.383515
0.0717021
0.384379
0.0329568
0.341663
0.255693
0.313724
0.334519
1.11653
0.614906
0.0608163
0.655997
-0.00813456
0.696185
0.215506
0.750733
0.279971
0.838507
1.02876
0.625417
0.0394194
0.678933
-0.0616498
0.733496
0.160943
0.751442
0.262025
0.548027
1.04192
0.643807
-0.000366761
0.680589
-0.0984321
0.713833
0.127699
0.788387
0.18747
0.307634
1.02878
0.652832
-0.0491781
0.630234
-0.0758345
0.694698
0.0632344
0.816385
0.0657836
0.13018
0.993839
0.554842
0.479008
0.542242
0.608026
0.738206
1.05609
-0.225922
1.0434
-0.127965
1.0457
-0.104184
1.04186
-0.00369513
0.035443
0.984723
-0.168724
0.972711
-0.115953
0.948197
-0.0796705
0.962106
-0.017604
0.0181141
0.964284
-0.104227
0.936495
-0.0881641
0.906447
-0.0496228
0.914292
-0.0254494
0.0100769
0.930787
-0.0411743
0.881177
-0.0385545
0.853648
-0.0220935
0.844893
-0.0166952
0.000123151
0.697031
0.658477
0.636383
0.619688
0.0521488
0.14605
-0.198198
0.0776891
0.329209
-0.354749
0.0778534
0.386156
-0.38632
0.0672373
0.39038
-0.379764
0.359162
0.0541125
-0.346037
0.0763111
0.0697385
0.153337
0.252184
0.189276
0.350216
0.193294
0.386362
0.380608
0.171847
0.0617069
0.00803163
0.184202
0.129689
0.284633
0.249785
0.352921
0.318074
0.376414
0.357115
0.0275703
-0.0195387
0.132403
0.0248563
0.263232
0.118955
0.393869
0.187438
0.270411
0.499872
0.0035549
-0.0230936
0.0524009
-0.0239897
0.158153
0.0132035
0.290699
0.0548917
0.114757
0.446352
-0.00665997
-0.0164336
0.00235708
-0.0330068
0.0492467
-0.0336861
0.129802
-0.0256637
0.0126058
0.231954
-0.00730633
-0.00912725
-0.0114609
-0.0288522
7.39492e-05
-0.0452209
0.0282985
-0.0538882
-0.0449243
0.0858286
-0.00260523
-0.00652203
-0.000982029
-0.0304754
0.00599064
-0.0521936
0.0170617
-0.0649593
-0.0676852
0.0398226
0.00107594
-0.00759797
0.00736415
-0.0367636
0.0131119
-0.0579413
0.0150297
-0.0668771
-0.0687247
0.0160692
-0.00860045
-0.0225365
-0.0471759
-0.0805629
-0.114296
0.414369
0.750933
-0.933349
0.373179
0.563338
-0.522148
0.102969
0.67353
-0.40332
0.0486209
-0.0578936
0.112242
-0.556323
0.400262
0.458403
0.378359
0.472238
0.549504
0.187991
0.957777
0.101292
0.0288049
-0.669563
0.431232
-0.0130504
0.496625
0.48411
0.224784
1.22962
0.166404
0.0871852
-0.759493
0.338022
-0.335003
0.501853
0.320279
0.24275
1.48872
0.239805
0.0901305
-0.83698
0.168069
0.428247
0.242178
0.338344
-0.0175562
0.655235
-0.637679
-0.162094
0.144538
-0.161553
-0.000540606
-0.0231443
-0.138409
-0.169038
0.849158
-1.12727
0.471548
0.0676868
0.0415196
0.0878633
-0.014174
-0.0736893
0.144806
-0.0569424
0.258523
-0.113718
0.424435
-0.165912
-0.213243
0.2019
-0.161962
0.316805
0.560203
0.894162
0.140244
-0.138088
0.168612
-0.170767
0.107227
-0.14345
0.176467
0.0695014
-0.150467
0.188192
0.0284485
-0.149587
0.19064
-0.103481
0.13193
0.181443
-0.0990983
-0.220432
0.137404
-0.0994114
0.087269
-0.100332
0.0359033
-0.0982209
-0.0675782
0.183015
-0.0494553
-0.232658
0.132328
-0.0487243
0.0814502
-0.0494539
0.0328447
-0.0496154
-0.0347335
0.199293
0.00132834
-0.250076
0.147867
0.00270081
0.0945228
0.00389066
0.0398477
0.00505972
0.00511424
0.203293
-0.253826
0.150635
0.0956339
0.0399834
0.0396788
-0.324214
-0.0615022
0.0142731
-0.354358
-0.00831073
-0.363736
-0.0172818
-0.345778
-0.21548
0.125128
-0.293092
-0.15625
0.081572
-0.310802
0.0390164
-0.321181
0.00745761
-0.314219
-0.208023
0.143631
-0.25225
-0.184472
0.100829
-0.268
0.0590036
-0.279355
0.0208668
-0.276083
-0.187156
0.164521
-0.21657
-0.200201
0.120851
-0.22433
0.0739363
-0.232441
0.0293224
-0.231469
-0.157833
0.158844
-0.206803
0.110982
0.0667326
0.0259035
0.38824
0.107826
-0.100087
0.386638
0.0979948
-0.0963925
0.354039
0.148067
-0.115468
0.300633
0.0636471
-0.010241
-0.2171
0.346966
0.396729
0.107077
0.401298
0.0934259
0.393849
0.155515
0.345311
0.112185
-0.092221
0.40235
0.100706
0.411445
0.084331
0.408924
0.158037
0.370083
0.151026
0.0452036
0.407475
0.0892109
0.416964
0.0748422
0.419729
0.155272
0.388532
0.182223
0.183659
0.409328
0.419296
0.420516
0.393751
0.413437
0.0966141
0.329798
0.0836393
0.245458
0.08434
0.246296
-0.00083836
-0.187208
0.433504
0.506579
0.493825
0.462697
0.451618
0.611375
0.346711
0.0867935
0.269646
0.0770651
0.179706
0.0899398
0.104034
0.0756723
0.0303443
0.491366
0.36823
0.273698
0.19312
)
;

boundaryField
{
    left
    {
        type            calculated;
        value           nonuniform List<scalar> 
17
(
-0.60402
-0.60402
-0.60402
-0.60402
-0.60402
-0.39598
-0.39598
-0.39598
-0.39598
-0.39598
-0.39598
-0.39598
-0.39598
-0.39598
-0.39598
-0.510051
-0.510051
)
;
    }
    right
    {
        type            calculated;
        value           nonuniform List<scalar> 
17
(
0.145894
0.272744
0.204681
0.214533
0.256334
0.317292
0.397296
0.468272
0.538732
0.614017
0.665754
0.708775
1.13855
1.08768
0.811487
0.365209
-0.207252
)
;
    }
    down
    {
        type            calculated;
        value           uniform 0;
    }
    up
    {
        type            calculated;
        value           uniform 0;
    }
    cylinder
    {
        type            calculated;
        value           uniform 0;
    }
    defaultFaces
    {
        type            empty;
    }
}


// ************************************************************************* //
