/*--------------------------------*- C++ -*----------------------------------*\
  =========                 |
  \\      /  F ield         | OpenFOAM: The Open Source CFD Toolbox
   \\    /   O peration     | Website:  https://openfoam.org
    \\  /    A nd           | Version:  13
     \\/     M anipulation  |
\*---------------------------------------------------------------------------*/
FoamFile
{
    format      ascii;
    class       volVectorField;
    location    "19";
    object      U;
}
// * * * * * * * * * * * * * * * * * * * * * * * * * * * * * * * * * * * * * //

dimensions      [0 1 -1 0 0 0 0];

internalField   nonuniform List<vector> 
440
(
(-0.0577878 0.0527091 -5.96767e-20)
(-0.0180357 0.0772894 3.26383e-20)
(0.201408 0.0365943 3.03262e-20)
(0.625751 -0.00932494 7.46909e-20)
(0.910399 -0.0703742 -7.67754e-21)
(-0.0316033 0.0161688 4.07453e-20)
(0.212623 -0.0561049 -1.41183e-19)
(0.769535 -0.127075 -1.30025e-19)
(1.34116 -0.178936 2.23682e-20)
(1.88243 -0.22364 -2.49623e-20)
(0.0453597 -0.0234695 4.59907e-20)
(0.688259 -0.102717 9.84636e-19)
(1.49785 -0.113675 -7.59763e-19)
(2.07197 -0.10388 -2.38917e-18)
(2.51099 -0.0994265 1.10914e-18)
(0.286446 -0.0648579 -1.78165e-19)
(1.3764 -0.0288307 -7.37096e-19)
(2.1292 0.0189514 2.3551e-18)
(2.49909 0.0441287 2.71706e-18)
(2.51234 0.0454531 -7.39786e-19)
(0.662572 -0.00610306 -3.41295e-19)
(1.8778 0.165457 -7.70276e-19)
(2.38846 0.225423 2.40698e-18)
(2.49161 0.225826 2.5045e-18)
(2.57225 0.200914 8.43921e-19)
(-0.0250291 0.059017 1.6659e-19)
(-0.109704 -0.0414876 -1.82735e-20)
(-0.23064 -0.0646758 -1.27769e-19)
(-0.368711 -0.0509693 6.28314e-21)
(-0.47893 -0.0807148 -1.37866e-19)
(-0.0595289 0.202791 -5.43908e-20)
(-0.127769 0.21019 -4.21541e-19)
(-0.216244 0.23164 1.10615e-19)
(-0.305033 0.245631 1.18958e-19)
(-0.340007 0.178331 -2.42067e-19)
(-0.0782463 0.219649 -3.91558e-19)
(-0.0966557 0.284967 4.95869e-19)
(-0.109731 0.321002 -1.75692e-19)
(-0.0848617 0.343576 -1.43697e-18)
(-0.0203269 0.285836 1.48484e-20)
(-0.0775779 0.155925 6.62375e-21)
(-0.0946029 0.242122 -5.11059e-20)
(-0.0620858 0.250085 6.41478e-20)
(0.0394396 0.207893 6.40994e-19)
(0.181998 0.104731 -1.24281e-19)
(-0.072779 0.0951156 1.32848e-21)
(-0.0875433 0.153579 -1.04927e-20)
(-0.00557316 0.120276 -1.80378e-20)
(0.187141 0.0362952 1.37199e-20)
(0.406362 -0.0416359 7.67937e-20)
(-0.784822 -0.501398 -1.25004e-18)
(1.30789 -0.0504961 -2.3388e-18)
(0.166999 1.22361 5.6638e-19)
(0.943231 -0.0791098 -1.06214e-18)
(1.18295 -0.645577 3.36156e-20)
(0.0338619 -0.800746 2.36926e-18)
(1.54629 -0.2118 1.26992e-19)
(0.185867 1.28503 -1.15776e-19)
(1.20763 -0.232139 5.96997e-19)
(1.36056 -0.679655 -1.4256e-19)
(1.32792 -1.11183 9.13928e-19)
(1.3379 -0.337699 8.37915e-19)
(0.678607 1.28744 1.0913e-19)
(1.47678 -0.315242 -2.84221e-19)
(1.5506 -0.695926 5.02633e-20)
(2.0273 -1.22315 -8.57324e-20)
(0.277463 -0.326215 -1.18863e-20)
(0.641779 1.26706 5.30276e-19)
(1.71298 -0.420304 1.36177e-19)
(1.68119 -0.707457 -1.49055e-19)
(2.01819 -1.12609 -4.73553e-19)
(-0.882523 -0.24594 1.21875e-18)
(0.223594 1.11058 0)
(2.03578 -0.520284 6.75321e-20)
(1.78968 -0.696388 -6.85409e-20)
(2.44667 -0.826748 -8.13871e-19)
(0.440415 -0.16375 -1.57456e-20)
(0.732028 0.473871 4.89194e-20)
(2.42565 -0.721854 -1.09702e-19)
(1.8845 -0.67393 1.29479e-19)
(2.24393 -0.759679 7.92293e-20)
(0.858746 0.194996 -5.96708e-19)
(1.5352 0.319093 2.15213e-20)
(2.59237 -0.728375 8.54029e-19)
(1.80058 -0.54355 0)
(2.16519 -0.309992 -4.52284e-19)
(1.14536 0.115812 1.48558e-20)
(2.15402 -0.112265 4.10394e-19)
(2.35167 -0.723455 -4.16609e-19)
(1.34389 -0.416801 1.18404e-20)
(1.84443 -0.25136 -5.98125e-20)
(1.50922 0.0731453 9.9775e-20)
(2.14105 -0.188159 3.48343e-20)
(1.64995 -0.446534 1.26571e-33)
(0.605402 -0.192808 2.19469e-20)
(1.0344 -0.0104421 3.12344e-20)
(1.11549 -0.0271639 1.85997e-20)
(1.03132 -0.141293 -5.07947e-20)
(0.17126 -0.0497385 1.07983e-19)
(-0.342109 0.0012829 -2.07274e-20)
(2.38244 0.205932 -1.08489e-18)
(2.66472 -0.0176338 -1.41004e-18)
(2.37378 -0.0244511 1.26867e-18)
(2.76449 -0.263618 -2.72965e-20)
(2.04875 -0.144765 -8.60355e-20)
(2.11812 0.155347 3.50438e-20)
(2.47571 -0.0311058 -4.57543e-20)
(2.22596 -0.0273231 -1.45174e-19)
(2.47335 -0.239059 -2.70365e-19)
(2.28615 -0.268724 -3.52277e-21)
(2.09449 0.0620671 6.5428e-20)
(2.20505 -0.000472273 1.30772e-19)
(2.18429 -0.07171 -1.89611e-19)
(2.22077 -0.121587 5.7045e-20)
(2.22078 -0.219773 8.36243e-20)
(2.01066 0.0173197 1.10556e-19)
(1.9558 -0.0171411 9.6962e-20)
(2.09063 -0.0512912 -1.53964e-20)
(2.0003 -0.0883413 4.29919e-20)
(2.12603 -0.116829 6.84492e-21)
(1.44648 -0.0167705 1.5314e-19)
(1.36797 -0.012694 -1.21678e-20)
(1.46517 -0.0328511 2.43378e-20)
(1.33292 -0.0206485 -1.80773e-21)
(1.45694 -0.0506001 4.90131e-20)
(1.61493 0.852365 1.1604e-18)
(1.56076 0.950126 -3.52858e-19)
(1.55569 1.08253 -1.38258e-18)
(1.49047 1.13466 7.65912e-19)
(0.923091 0.828843 -1.87066e-19)
(1.89166 0.808608 -6.02879e-19)
(1.86068 0.888444 -3.11316e-18)
(1.86952 0.999341 -1.2005e-18)
(1.78795 1.01711 -4.39699e-19)
(1.10278 0.725904 -7.11259e-19)
(2.19541 0.687793 8.14144e-19)
(2.17631 0.757114 2.11578e-19)
(2.15489 0.848294 -2.38806e-18)
(2.02954 0.838213 -6.82448e-19)
(1.21362 0.566565 5.25198e-19)
(2.36669 0.559079 2.49258e-18)
(2.35377 0.607973 1.82439e-18)
(2.35864 0.665366 -2.12125e-18)
(2.15533 0.627592 -1.61681e-18)
(1.19789 0.374182 -3.10994e-19)
(2.49959 0.388025 1.27486e-18)
(2.52983 0.415374 -9.1531e-19)
(2.4427 0.441772 6.42795e-19)
(2.12037 0.392507 5.40671e-19)
(1.0215 0.166529 -4.71692e-19)
(0.573255 0.457375 -6.46118e-19)
(0.484522 0.492508 -5.01945e-19)
(0.366673 0.528117 5.98705e-20)
(0.228742 0.538607 -1.04058e-20)
(0.0572721 0.394625 8.84953e-20)
(0.675082 0.634848 1.26936e-19)
(0.61116 0.695672 -2.92325e-19)
(0.524332 0.765028 1.91234e-19)
(0.399593 0.818329 -8.86985e-20)
(0.174301 0.623819 1.25189e-19)
(0.790521 0.816529 1.6775e-19)
(0.716124 0.895968 4.72868e-19)
(0.657985 0.995325 8.90011e-20)
(0.573698 1.04766 -3.09618e-19)
(0.315568 0.783526 2.5667e-19)
(1.06061 0.908637 2.46276e-19)
(1.01555 0.995521 -7.12821e-19)
(0.964402 1.09462 -1.97332e-18)
(0.881309 1.16099 8.00758e-19)
(0.522234 0.870349 -1.81722e-19)
(1.1511 0.933323 -1.26602e-19)
(1.17875 1.05932 -2.06316e-19)
(1.20535 1.18116 -3.65042e-19)
(1.15597 1.2173 -4.20674e-19)
(0.714626 0.886098 -6.82419e-21)
(1.02369 0.0518336 -1.03487e-19)
(0.981572 0.043058 -3.91231e-20)
(1.03598 0.113099 -1.43407e-21)
(0.947462 0.151327 -3.34748e-19)
(0.886333 0.279419 3.23402e-19)
(1.01509 0.0491126 6.56862e-20)
(0.990408 0.0431444 1.36348e-19)
(1.02777 0.117681 1.35481e-19)
(0.982226 0.182269 4.5156e-20)
(0.933393 0.358629 -1.47347e-20)
(1.02192 0.0478633 8.94616e-20)
(0.969491 0.0385286 -5.03102e-21)
(1.07902 0.133594 -7.31842e-21)
(0.936474 0.184321 1.6594e-19)
(1.14347 0.49624 -5.04173e-19)
(1.01605 0.0485319 -4.46156e-22)
(0.981183 0.0307277 -1.88114e-19)
(1.08828 0.144415 -7.14607e-20)
(1.01819 0.196557 -4.12947e-19)
(1.16208 0.538694 1.03779e-19)
(1.01011 0.0435628 -1.61385e-20)
(0.982715 0.029556 5.21334e-20)
(1.14506 0.147601 3.42331e-20)
(0.97823 0.225529 4.78158e-19)
(1.43437 0.66755 -4.78866e-19)
(0.968435 0.0480905 -1.31525e-20)
(1.0435 0.00473194 1.09408e-19)
(1.15067 0.172704 -9.35061e-20)
(1.19826 0.158394 8.70233e-19)
(1.31778 0.685023 -4.04852e-19)
(0.902512 0.025186 -1.58759e-21)
(1.13553 -0.0162912 -1.10817e-19)
(1.14696 0.10077 4.80575e-21)
(1.27189 0.183052 -2.5822e-19)
(1.28084 0.416834 -5.47741e-21)
(0.947569 0.0276184 -7.7764e-21)
(1.1453 -0.0575296 1.5075e-35)
(1.14643 0.0957545 -6.04596e-20)
(1.19822 0.150935 7.8582e-20)
(1.47559 0.246912 1.72012e-19)
(1.07568 -0.0286851 4.20894e-21)
(1.04456 -0.0693678 -2.48746e-20)
(1.08188 0.0639258 1.70986e-20)
(1.19572 0.0819317 3.39598e-20)
(1.55924 0.127017 -2.56464e-19)
(1.00141 -0.025385 -4.3494e-20)
(0.791418 -0.0222817 -2.70056e-21)
(0.832126 0.0158609 2.55405e-20)
(0.942484 -0.00172137 -1.05663e-20)
(1.10768 0.0319929 -5.84652e-20)
(1.87292 0.659077 3.40661e-19)
(1.93141 0.664079 8.24712e-19)
(2.23114 0.538742 -1.17428e-18)
(2.23625 0.48232 4.78431e-20)
(2.502 0.283712 4.96829e-19)
(1.80512 0.457869 6.44676e-20)
(1.78444 0.436372 1.03412e-18)
(2.09097 0.370054 1.00667e-19)
(1.97962 0.320395 -9.65204e-19)
(2.34127 0.177959 -3.16141e-19)
(1.71875 0.313714 -2.22296e-19)
(1.80299 0.258564 -1.51205e-19)
(1.92722 0.24531 2.41258e-19)
(1.96635 0.176724 -3.03559e-19)
(2.1074 0.124053 2.6991e-19)
(1.64657 0.177073 3.21397e-19)
(1.75001 0.138265 -3.42721e-21)
(1.7599 0.131293 2.17254e-19)
(1.88911 0.0842429 1.82897e-19)
(1.87373 0.056528 -1.77555e-19)
(1.25615 0.0446547 -3.59983e-20)
(1.29905 0.0278251 2.1147e-19)
(1.32095 0.022926 9.88902e-20)
(1.38673 0.00345466 -2.15123e-19)
(1.36943 -0.000114661 5.30048e-22)
(1.16329 -0.0276838 4.92519e-20)
(2.20825 -0.0496896 -4.18368e-19)
(2.44461 -0.0382194 1.18455e-18)
(2.43749 0.00561372 5.35804e-19)
(2.27698 0.0332648 -3.55117e-19)
(0.704558 0.0884724 8.37915e-20)
(1.98008 0.0770813 -4.32039e-19)
(2.46108 0.0803825 -5.77406e-19)
(2.5112 0.0940082 7.14193e-19)
(2.26256 0.0846966 -4.50705e-19)
(0.183019 0.0668657 -3.52304e-20)
(1.32099 0.136453 4.47635e-19)
(2.11238 0.162573 6.97341e-20)
(2.52429 0.1583 4.52968e-19)
(2.68283 0.158996 2.40433e-19)
(-0.0708697 -0.0409863 2.02091e-19)
(0.442723 0.0591346 1.98378e-19)
(1.29527 0.138746 -4.25333e-19)
(1.8252 0.182086 2.43259e-20)
(2.46462 0.217728 6.24668e-20)
(-0.122373 -0.100186 1.36833e-19)
(-0.0446562 -0.0748137 -1.55188e-19)
(0.436474 0.0137448 -2.06431e-20)
(0.91716 0.0478965 1.53338e-20)
(1.41959 0.138738 -3.75794e-20)
(-0.092199 -0.0963486 1.65779e-20)
(-0.168268 -0.142501 9.14147e-20)
(-0.0589674 -0.151454 7.51113e-20)
(0.125495 -0.133613 -7.42462e-20)
(0.572401 -0.0501122 7.82277e-21)
(-0.0482328 -0.0624265 -4.08494e-21)
(-0.135039 -0.150472 -4.88888e-20)
(-0.161629 -0.222058 -3.47276e-20)
(-0.132209 -0.258618 -3.96699e-21)
(0.0188155 -0.195652 4.20934e-22)
(-0.0195554 -0.0344607 9.70118e-21)
(-0.0748279 -0.152607 1.79008e-19)
(-0.107826 -0.275042 -1.6101e-19)
(-0.118864 -0.360279 -4.91431e-19)
(-0.100763 -0.376941 1.29262e-19)
(-0.0121003 -0.0429582 -1.78202e-20)
(-0.0414185 -0.21366 -1.12911e-19)
(-0.0550181 -0.362989 3.24255e-19)
(-0.0686335 -0.443821 3.15069e-19)
(-0.0741415 -0.46911 -7.95294e-20)
(-0.0123524 -0.0436864 7.94419e-21)
(-0.0570597 -0.224582 -2.55259e-20)
(-0.112283 -0.329107 6.90539e-21)
(-0.185588 -0.344587 3.44012e-20)
(-0.256064 -0.328382 6.31341e-21)
(1.49415 0.600244 -1.7984e-20)
(1.59897 0.353529 6.49626e-19)
(0.877474 0.350763 9.37513e-20)
(-0.284763 -0.0554243 8.15017e-20)
(0.51643 -0.311343 -3.82494e-20)
(1.14411 0.410467 3.18916e-20)
(1.72568 0.379713 -1.35921e-19)
(1.07891 0.539171 6.18231e-19)
(-0.039619 -0.0151372 2.4984e-21)
(0.541639 -0.409033 1.97802e-19)
(0.578718 0.141988 1.54781e-19)
(1.70191 0.393993 -7.629e-20)
(1.0341 0.75764 -2.60571e-20)
(0.183561 0.0551928 -5.82375e-20)
(0.647562 -0.477336 -2.78177e-20)
(2.07985e-05 -0.165672 2.83672e-19)
(1.65561 0.270782 4.6524e-19)
(0.884702 0.921973 -5.27918e-19)
(0.385364 0.0730196 1.16225e-21)
(0.801807 -0.549372 -1.07294e-19)
(-0.626727 -0.317076 1.14232e-19)
(1.452 0.156019 4.74311e-19)
(0.560524 1.111 5.62359e-19)
(0.679233 0.0651389 -1.80363e-20)
(1.00396 -0.591589 -1.12236e-19)
(0.172029 0.188957 -4.51439e-20)
(-0.259959 -0.155391 0)
(-0.326839 -0.0921939 4.26803e-21)
(-0.357089 -0.0600361 1.76443e-20)
(0.285163 -0.0374342 9.44787e-21)
(1.88981 0.550297 0)
(1.34205 0.325522 0)
(0.580262 0.0937229 6.31806e-21)
(-0.346704 -0.102576 -5.47271e-20)
(0.534055 -0.172741 9.9197e-20)
(0.724323 0.00177372 -1.15341e-19)
(0.753198 -0.00717947 9.36357e-20)
(1.02106 0.00332984 -4.3788e-20)
(0.9646 0.00286628 3.36734e-19)
(1.45332 0.092841 2.3411e-19)
(1.64497 0.0260172 1.08054e-19)
(1.80214 0.0677908 1.85626e-19)
(1.98719 0.0424533 -3.22815e-19)
(2.56801 0.191449 7.82278e-22)
(2.30605 0.126052 1.60959e-19)
(0.898694 -0.47243 -4.65644e-21)
(0.885282 -0.560783 -1.5189e-19)
(0.877833 -0.656726 -1.2773e-19)
(0.806124 -0.722208 7.72406e-20)
(0.484951 -0.560735 1.17104e-19)
(0.803612 -0.380623 1.25804e-19)
(0.747719 -0.443872 2.44685e-19)
(0.671458 -0.511308 -4.65114e-20)
(0.555102 -0.566959 1.19815e-19)
(0.298417 -0.444556 3.90261e-20)
(0.639901 -0.241852 -1.6266e-19)
(0.548362 -0.278924 -4.37051e-20)
(0.446819 -0.326836 1.07343e-19)
(0.331688 -0.369575 -1.72557e-20)
(0.146561 -0.290457 -1.03055e-19)
(0.544785 -0.00913263 -4.44182e-19)
(0.459956 -0.0236937 -3.67693e-19)
(0.35205 -0.0487196 2.87845e-19)
(0.226269 -0.0817934 1.84634e-19)
(0.061949 -0.081209 1.4073e-20)
(0.522123 0.195333 -1.81984e-19)
(0.436857 0.199917 -1.80674e-19)
(0.321619 0.203316 -7.93788e-20)
(0.185937 0.209025 2.05411e-20)
(0.0277063 0.158056 1.24764e-20)
(2.02103 -0.0400934 7.71693e-19)
(2.27834 -0.106564 2.80381e-19)
(2.35524 -0.191201 -7.2598e-19)
(2.20287 -0.217684 -1.47672e-18)
(1.31636 -0.190367 1.07954e-19)
(2.00127 -0.122561 1.30493e-18)
(2.09159 -0.231628 1.70583e-18)
(2.10207 -0.351485 1.38922e-19)
(2.02067 -0.410732 2.3744e-19)
(1.28783 -0.359396 -1.56687e-19)
(1.71503 -0.284413 -3.40173e-18)
(1.76982 -0.398809 4.09319e-19)
(1.81239 -0.520555 1.05474e-18)
(1.74954 -0.593558 -4.14511e-19)
(1.12908 -0.500709 6.43479e-19)
(1.49992 -0.403027 8.10706e-19)
(1.51507 -0.49795 -2.11273e-18)
(1.4981 -0.612373 -2.46886e-18)
(1.42646 -0.69797 7.61903e-19)
(0.913684 -0.572071 4.9313e-19)
(1.21363 -0.462016 1.74298e-19)
(1.1604 -0.552163 2.2267e-19)
(1.14596 -0.670561 -3.69261e-19)
(1.08837 -0.753071 -4.45744e-19)
(0.683904 -0.593423 -4.23015e-21)
(1.07024 0.05753 7.85693e-21)
(0.915151 0.0556895 -6.0942e-21)
(1.12424 0.0752398 -8.45305e-21)
(0.79153 0.00986948 -1.78794e-19)
(1.11419 -0.211988 -6.25179e-21)
(1.0797 0.0612338 -2.62109e-21)
(0.914123 0.0536833 5.68883e-20)
(1.11886 0.0927313 -5.52871e-20)
(0.880196 0.0555428 8.719e-20)
(0.985412 -0.09482 -2.64557e-20)
(1.07792 0.0586965 -6.44247e-20)
(0.918465 0.0501986 6.19213e-22)
(1.10614 0.0932478 -2.1613e-20)
(0.877164 0.0796549 -6.06502e-21)
(0.961278 -0.0371346 -1.50684e-19)
(1.05896 0.0572488 7.88858e-20)
(0.947887 0.0466051 3.64501e-21)
(1.06639 0.0988488 3.54769e-20)
(0.922938 0.105772 5.21268e-20)
(0.860086 0.0775079 1.21817e-19)
(1.03534 0.0537946 1.99122e-20)
(0.976165 0.0463594 -3.27164e-20)
(1.0352 0.102211 4.74662e-20)
(0.950276 0.135448 9.29407e-20)
(0.835604 0.17376 -1.26314e-19)
(0.890322 0.033883 0)
(0.702077 0.0279248 1.03152e-20)
(0.60947 0.0231321 2.42967e-21)
(0.3407 -0.00622993 3.92446e-20)
(0.665532 -0.054409 -1.06315e-19)
(1.03746 0.0761987 -6.60717e-20)
(0.925968 0.0714126 -2.04177e-20)
(1.02933 0.0763488 -2.60261e-20)
(0.802238 0.00479821 -9.12831e-20)
(1.02106 -0.192822 -1.114e-19)
(0.926783 -0.0626096 -2.53626e-20)
(1.00904 -0.0319953 4.48828e-19)
(1.09909 0.0369494 2.85795e-19)
(0.971892 0.0544215 2.18067e-20)
(0.752586 0.0284517 0)
(1.29657 -0.310153 2.53668e-19)
(1.4084 -0.2738 1.34171e-18)
(1.58272 -0.156695 -1.54395e-18)
(1.6738 -0.0217713 -4.82854e-19)
(1.57874 0.027259 3.50392e-19)
)
;

boundaryField
{
    left
    {
        type            fixedValue;
        value           uniform (1 0 0);
    }
    right
    {
        type            zeroGradient;
    }
    down
    {
        type            noSlip;
    }
    up
    {
        type            noSlip;
    }
    cylinder
    {
        type            noSlip;
    }
    defaultFaces
    {
        type            empty;
    }
}


// ************************************************************************* //
