/*--------------------------------*- C++ -*----------------------------------*\
  =========                 |
  \\      /  F ield         | OpenFOAM: The Open Source CFD Toolbox
   \\    /   O peration     | Website:  https://openfoam.org
    \\  /    A nd           | Version:  13
     \\/     M anipulation  |
\*---------------------------------------------------------------------------*/
FoamFile
{
    format      ascii;
    class       volScalarField;
    location    "0.185";
    object      p;
}
// * * * * * * * * * * * * * * * * * * * * * * * * * * * * * * * * * * * * * //

dimensions      [0 2 -2 0 0 0 0];

internalField   nonuniform List<scalar> 
1800
(
6.12109
8.22745
10.379
11.806
12.6384
13.0462
13.1736
13.0112
11.7592
7.66368
9.97026
12.4452
14.949
16.6316
17.6864
18.347
18.7989
19.0345
18.3058
15.6246
16.3615
18.9856
21.6575
23.5197
24.7787
25.6589
26.3079
26.6891
26.2152
24.3819
25.3559
27.9249
30.5727
32.4865
33.8509
34.8591
35.6204
36.071
35.6631
33.9771
36.4141
38.7746
41.2265
43.0376
44.3615
45.357
46.1109
46.5593
46.208
44.6516
49.0909
51.1433
53.2867
54.8927
56.0833
56.9852
57.6669
58.0769
57.795
56.4351
63.0396
64.7123
66.468
67.7997
68.8016
69.5709
70.162
70.5385
70.3629
69.2738
77.9661
79.2077
80.5187
81.528
82.3037
82.9173
83.4112
83.7657
83.7319
82.9951
93.5853
94.3651
95.1967
95.8515
96.3742
96.8114
97.194
97.5171
97.6269
97.2921
109.616
109.92
110.252
110.527
110.765
110.985
111.202
111.415
111.576
111.603
-0.211218
-0.460855
-0.243191
0.159825
0.628511
1.0857
1.42208
1.62017
1.77131
1.92497
-0.00917523
-0.557418
-0.709333
-0.51914
-0.100037
0.294809
0.557323
0.79623
1.08448
1.35888
0.97201
-0.0339819
-0.915229
-1.07871
-0.749938
-0.475205
-0.284911
0.0168781
0.420626
0.800079
1.3054
0.140363
-1.07715
-1.40385
-1.18802
-1.05921
-0.94976
-0.650419
-0.201332
0.300976
0.837761
-0.138382
-1.08155
-1.36928
-1.31996
-1.34152
-1.30977
-1.05292
-0.569292
0.120413
0.12267
-0.394437
-0.795192
-0.925609
-0.947988
-1.01332
-1.00721
-0.806229
-0.290569
0.637022
-0.208688
-0.169131
0.00753021
0.153338
0.238892
0.260239
0.295351
0.457402
1.02767
2.25386
0.284615
0.872277
1.5932
2.0973
2.42694
2.63933
2.78519
2.99605
3.72135
5.38047
1.74104
2.84932
4.09714
5.01774
5.68673
6.17718
6.51375
6.84823
7.83056
10.1148
3.98876
5.63124
7.44839
8.82304
9.84407
10.6017
11.1202
11.568
12.6237
14.7826
2.64375
2.79092
2.71529
2.49368
2.00543
1.56921
1.19979
0.862681
0.522916
0.176598
2.26578
2.73595
2.57901
2.37886
1.90736
1.49836
1.15504
0.834705
0.507279
0.171404
1.76732
2.68532
2.45145
2.25645
1.81007
1.43001
1.11322
0.809104
0.493246
0.166865
1.13736
2.59779
2.33848
2.12984
1.71351
1.36416
1.07411
0.785922
0.480837
0.162962
0.451355
2.43139
2.23139
2.00203
1.61811
1.30069
1.03759
0.765227
0.470088
0.159691
-0.107016
2.17071
2.11119
1.87325
1.52438
1.23982
1.00368
0.747117
0.461048
0.157069
-0.241671
1.84355
1.96
1.73981
1.43206
1.18197
0.972636
0.731726
0.453777
0.155124
0.498606
1.53435
1.76312
1.58876
1.33656
1.12684
0.944932
0.719238
0.448348
0.15392
2.76186
1.41397
1.49489
1.38886
1.22422
1.0719
0.92094
0.709911
0.444862
0.15353
7.00108
1.7977
1.17041
1.11355
1.07829
1.01266
0.900286
0.703638
0.443275
0.154036
10.3543
3.03063
1.23245
0.952312
0.938458
0.9445
0.873518
0.692131
0.438294
0.154415
12.1783
3.0483
0.770876
0.508379
0.703772
0.870702
0.856931
0.687836
0.437011
0.155646
13.2707
3.18302
0.745411
0.420009
0.692433
0.903346
0.873197
0.687556
0.432389
0.150647
14.541
4.67401
1.51632
0.914335
0.988306
1.03644
0.902194
0.681751
0.423499
0.139865
16.6951
7.40245
2.96025
1.84308
1.5052
1.24417
0.947323
0.676633
0.411378
0.127435
19.6057
10.2253
4.68787
2.92099
2.11996
1.50405
1.01189
0.674594
0.397409
0.115242
22.1339
12.3359
6.27798
3.96491
2.75034
1.7958
1.10104
0.684602
0.387838
0.106283
23.4199
13.5363
7.50606
4.90698
3.35605
2.09672
1.21009
0.70908
0.38591
0.101943
23.3588
13.9164
8.37368
5.76589
3.94833
2.40988
1.34349
0.753763
0.396076
0.10353
22.805
14.1396
9.14135
6.61792
4.55534
2.75307
1.51648
0.832616
0.429258
0.113421
112.159
98.2115
84.4457
71.4397
59.4997
48.7184
39.1351
30.455
20.4397
5.33496
113.139
99.8496
86.3478
73.3411
61.2987
50.4192
40.8883
32.6327
23.9693
11.8555
113.671
100.584
87.702
75.3746
63.8358
53.245
43.818
35.6341
27.8532
18.721
114.882
103.14
91.18
79.3467
67.9871
57.3891
47.7542
39.1537
31.4476
24.1849
115.459
104.448
93.5268
82.8352
72.4869
62.5599
53.093
44.1763
36.3512
30.1665
115.808
105.081
94.5742
84.4126
74.6925
65.4636
56.7045
48.4623
41.4182
36.3966
116.039
105.48
95.1685
85.2364
75.7939
66.9141
58.6065
50.9405
44.5883
40.4704
116.139
105.618
95.3513
85.4799
76.1259
67.3804
59.2773
51.8851
45.7703
41.8135
116.089
105.403
94.9768
84.9576
75.4785
66.6462
58.5167
51.1482
44.9258
40.4753
115.965
105.019
94.3308
84.0532
74.3277
65.2777
56.9835
49.4898
42.9823
37.7896
234.542
230.195
228.64
228.207
228.122
228.376
229.112
230.494
232.647
234.787
225.967
222.962
221.922
221.889
222.118
222.606
223.538
225.147
227.619
230.095
216.446
214.281
213.514
213.643
214.077
214.782
215.909
217.679
220.294
222.892
206.134
204.114
203.414
203.612
204.158
204.988
206.214
208.022
210.592
213.111
194.806
192.902
192.249
192.439
192.972
193.785
194.962
196.657
199.012
201.302
182.435
180.714
180.122
180.265
180.719
181.431
182.467
183.945
185.975
187.94
169.086
167.626
167.134
167.237
167.594
168.167
169.006
170.2
171.827
173.398
154.95
153.835
153.481
153.559
153.815
154.228
154.835
155.697
156.868
157.996
140.339
139.626
139.419
139.469
139.614
139.849
140.2
140.702
141.384
142.04
125.812
125.468
125.328
125.282
125.269
125.292
125.358
125.478
125.655
125.831
246.75
246.977
247.222
247.438
247.724
248.194
248.719
249.045
249.052
248.553
246.914
247.23
247.616
247.911
248.099
248.404
248.805
248.734
247.948
246.941
247.011
247.397
247.827
248.131
248.211
248.328
248.592
248.241
246.869
245.609
246.953
247.45
247.872
248.105
248.05
247.946
247.983
247.562
246.26
245.083
246.491
247.147
247.54
247.657
247.501
247.248
247.088
246.733
245.913
245.102
245.286
246.136
246.489
246.474
246.268
246.01
245.834
245.671
245.426
245.126
242.93
244.039
244.399
244.31
244.124
243.98
243.961
244.101
244.409
244.644
239.038
240.536
241.027
240.985
240.921
240.987
241.235
241.737
242.553
243.291
233.558
235.625
236.352
236.437
236.576
236.932
237.526
238.435
239.742
240.956
228.195
230.073
230.834
231.014
231.329
231.951
232.896
234.249
236.098
237.807
247.495
247.239
247.213
246.957
246.75
246.482
246.129
245.89
245.811
245.943
247.457
247.234
247.204
246.955
246.751
246.5
246.17
245.931
245.699
246.047
247.431
247.228
247.197
246.95
246.749
246.517
246.214
245.947
245.544
246.213
247.412
247.222
247.19
246.943
246.746
246.533
246.252
245.921
245.387
246.456
247.402
247.217
247.184
246.932
246.741
246.546
246.273
245.86
245.281
246.713
247.4
247.211
247.178
246.92
246.735
246.552
246.273
245.784
245.252
246.811
247.405
247.206
247.172
246.906
246.727
246.549
246.255
245.718
245.272
246.454
247.417
247.201
247.166
246.891
246.718
246.54
246.233
245.682
245.258
245.193
247.437
247.196
247.158
246.876
246.707
246.536
246.245
245.709
245.048
242.403
247.464
247.191
247.148
246.86
246.699
246.555
246.325
245.79
244.341
237.677
247.507
247.189
247.132
246.841
246.67
246.499
246.178
245.358
242.724
234.062
247.616
247.191
247.127
246.831
246.659
246.584
246.435
245.585
242.444
232.085
247.855
247.212
247.132
246.805
246.606
246.599
246.566
245.633
242.242
230.859
248.336
247.294
247.149
246.769
246.474
246.354
246.187
245.048
240.951
229.721
249.23
247.422
247.192
246.67
246.252
245.822
245.246
243.709
238.485
227.889
251.026
247.518
247.277
246.564
245.975
245.137
244.043
241.933
235.759
225.296
254.882
247.765
247.382
246.472
245.653
244.422
242.864
240.223
233.611
222.915
263.175
248.86
247.592
246.388
245.314
243.749
241.828
238.886
232.333
221.639
280.743
251.569
248.175
246.383
244.988
243.123
240.918
237.943
231.881
221.666
306.725
255.61
249.629
246.553
244.72
242.53
240.053
237.137
231.613
222.195
236.803
221.443
210.817
201.502
191.342
180.039
167.645
154.274
140.229
126.097
230.38
218.075
208.928
200.216
190.286
179.053
166.711
153.463
139.739
126.264
223.849
214.483
206.314
197.796
188.088
177.25
165.498
152.997
139.977
126.797
218.784
211.277
203.287
194.437
184.59
173.818
162.318
150.368
138.301
126.464
213.407
207.002
198.996
189.889
180.211
170.068
159.516
148.649
137.593
126.501
207.757
202.453
195.189
186.718
177.721
168.269
158.352
148.032
137.413
126.627
203.929
199.493
192.91
185.019
176.49
167.408
157.791
147.718
137.308
126.699
202.641
198.392
192.054
184.447
176.139
167.206
157.69
147.689
137.331
126.763
203.969
199.262
192.819
185.24
176.913
167.901
158.266
148.122
137.609
126.878
206.642
201.215
194.486
186.781
178.29
169.062
159.183
148.781
138.006
127.014
112.509
112.679
112.764
112.615
112.108
111.747
111.563
111.847
111.84
111.591
89.9412
90.4043
90.6228
90.1893
88.7576
87.6714
87.0506
87.7121
87.7498
87.1634
69.1045
69.7319
69.9929
69.3262
67.3872
65.6759
64.6559
65.2045
65.5089
64.954
50.9927
51.5987
51.788
50.9648
48.9861
46.8205
45.4908
45.5263
46.2647
46.0316
36.353
36.7609
36.8107
35.9291
34.1374
31.8219
30.1787
29.6136
30.4211
30.609
25.3063
25.409
25.2861
24.3625
22.7843
20.7552
18.9654
18.0241
18.2787
18.7787
17.4258
17.2735
17.0572
16.0661
14.6505
13.1468
11.661
10.5968
10.256
10.6215
11.945
11.7643
11.7119
10.7125
9.39343
8.39119
7.50281
6.66233
6.07227
5.98597
8.27189
8.18033
8.47011
7.60151
6.43662
5.84747
5.5231
5.14315
4.65865
4.27513
6.39212
6.18786
6.56908
5.83096
4.9636
4.69223
4.72212
4.71723
4.5652
4.16589
5.61043
5.37405
5.45737
4.76538
4.23803
4.19022
4.34806
4.49466
4.61586
4.66995
5.17149
5.06027
4.78332
4.12177
3.84523
3.94305
4.15448
4.32495
4.44406
4.52828
4.7881
4.73939
4.30348
3.7581
3.64905
3.82267
4.05408
4.23479
4.35221
4.41115
4.33129
4.27048
3.86045
3.51623
3.53499
3.74555
3.96171
4.12011
4.21861
4.25929
3.77934
3.68022
3.41295
3.30296
3.42557
3.64344
3.83347
3.97116
4.05263
4.07657
3.1281
3.03541
2.98694
3.08657
3.28605
3.48946
3.65404
3.77312
3.84096
3.85582
2.42039
2.44317
2.5827
2.81819
3.05437
3.25375
3.4105
3.52714
3.59705
3.61516
1.77382
1.89033
2.13507
2.423
2.67931
2.89764
3.08061
3.2262
3.31733
3.34688
1.11333
1.2362
1.49985
1.82449
2.13702
2.41743
2.66452
2.85247
2.95497
2.9926
0.436915
0.345862
0.582347
0.989189
1.40991
1.79982
2.12396
2.33
2.42939
2.49631
4.00709
4.06353
3.94276
3.60404
2.93025
2.23399
1.6291
1.10798
0.638069
0.218648
4.07538
4.02561
3.89305
3.5868
2.88513
2.17547
1.58378
1.08097
0.625973
0.218292
4.09526
3.91163
3.78014
3.53284
2.83616
2.11921
1.54089
1.05611
0.615278
0.216733
4.05049
3.73789
3.62704
3.43195
2.77542
2.06375
1.50011
1.03311
0.605619
0.213579
3.94321
3.54228
3.46409
3.28324
2.69277
2.00556
1.4606
1.01142
0.596599
0.209162
3.78978
3.36348
3.31684
3.11095
2.58456
1.942
1.42189
0.990833
0.588039
0.203989
3.61275
3.21467
3.19098
2.94873
2.45747
1.87168
1.38354
0.971616
0.580372
0.199123
3.42029
3.08822
3.07914
2.81434
2.32841
1.79503
1.34182
0.950344
0.571174
0.194294
3.20211
2.97325
2.9683
2.70304
2.21102
1.71711
1.29514
0.922951
0.556951
0.188534
2.94626
2.87073
2.84773
2.60012
2.10537
1.64211
1.24715
0.89278
0.540019
0.182486
5.77328
4.32591
3.63468
3.26155
2.76415
2.20835
1.64532
1.12218
0.640396
0.212884
4.96954
4.10762
3.6736
3.32224
2.80505
2.22399
1.64908
1.12178
0.640557
0.21346
4.29932
4.01886
3.73641
3.39046
2.84316
2.23682
1.6517
1.12216
0.641472
0.214655
3.97924
4.02202
3.82311
3.46876
2.88183
2.24769
1.65349
1.12321
0.643048
0.216211
3.96363
4.06954
3.92738
3.5591
2.92387
2.25668
1.65325
1.12337
0.644779
0.218239
112.34
89.2792
68.2341
50.468
36.4583
26.1425
18.9759
14.1025
10.9211
9.10639
112.119
88.7171
67.5282
49.734
35.6563
25.1384
17.6724
12.5695
9.42743
7.92662
111.933
88.2371
66.8903
48.9937
34.7454
23.9659
16.2522
11.0351
7.89123
6.43219
111.723
87.6635
66.0501
47.9292
33.421
22.3719
14.4805
9.25024
6.1652
4.78879
111.469
86.9356
64.9211
46.4563
31.621
20.3039
12.3107
7.27668
4.79594
3.98141
244.046
244.081
244.198
244.369
244.584
244.598
244.099
243.402
243.501
243.275
244.262
244.332
244.443
244.631
244.902
245.081
244.868
244.224
243.962
243.849
244.463
244.51
244.621
244.815
245.099
245.361
245.338
244.835
244.401
244.344
244.706
244.737
244.833
245.004
245.256
245.54
245.644
245.378
244.991
244.916
244.969
244.986
245.065
245.21
245.417
245.672
245.871
245.875
245.714
245.618
245.234
245.246
245.314
245.434
245.602
245.824
246.087
246.323
246.425
246.412
245.473
245.491
245.572
245.707
245.885
246.114
246.406
246.75
247.036
247.152
245.728
245.748
245.844
246.031
246.284
246.583
246.935
247.327
247.667
247.835
246.08
246.116
246.199
246.416
246.773
247.211
247.698
248.189
248.51
248.474
246.468
246.579
246.688
246.88
247.261
247.802
248.376
248.898
249.226
249.027
136.816
136.557
136.534
136.797
136.579
136.181
135.64
135.468
135.539
135.704
161.259
160.663
160.685
161.322
160.669
159.547
158.083
157.627
157.832
158.29
183.498
182.931
183.219
183.741
182.691
180.946
178.978
178.289
178.538
179.16
202.458
202.213
202.931
202.941
201.583
199.387
197.38
196.536
196.713
197.315
217.925
218.099
218.883
218.295
216.627
214.284
212.463
211.56
211.598
212.003
229.801
230.283
230.512
229.552
227.745
225.689
224.079
223.133
222.998
223.098
237.999
238.334
237.969
236.894
235.403
233.876
232.426
231.409
231.181
231.027
242.651
242.528
241.916
241.082
240.205
239.188
237.838
236.812
236.747
236.564
244.372
243.95
243.454
243.097
242.801
242.217
241.032
240.138
240.414
240.325
244.51
244.081
243.926
243.947
244.021
243.782
242.914
242.155
242.533
242.342
255.279
247.377
248.026
246.786
246.476
245.941
245.345
244.941
244.801
244.829
252.454
247.32
247.844
246.784
246.525
245.997
245.365
244.982
244.886
244.805
250.549
247.332
247.632
246.796
246.575
246.056
245.413
245.085
245.058
244.84
249.405
247.353
247.428
246.827
246.624
246.121
245.499
245.242
245.277
244.944
248.722
247.34
247.312
246.867
246.667
246.194
245.629
245.421
245.493
245.102
248.268
247.289
247.273
246.903
246.699
246.275
245.782
245.578
245.665
245.281
247.96
247.256
247.258
246.926
246.713
246.354
245.918
245.688
245.78
245.453
247.76
247.247
247.245
246.941
246.721
246.414
246.009
245.756
245.847
245.609
247.632
247.245
247.234
246.95
246.734
246.446
246.06
245.8
245.876
245.746
247.549
247.243
247.223
246.956
246.745
246.465
246.094
245.842
245.867
245.856
317.788
254.237
250.387
247.385
246.61
246.03
245.62
245.254
244.543
243.008
296.057
251.849
249.279
247.168
246.522
245.992
245.57
245.218
244.752
243.809
277.613
249.694
248.697
247.011
246.477
245.964
245.515
245.156
244.831
244.482
266.205
248.353
248.382
246.899
246.453
245.942
245.452
245.07
244.82
244.81
259.432
247.63
248.166
246.808
246.443
245.923
245.379
244.964
244.77
244.841
239.584
237.733
234.518
229.612
222.412
212.062
198.016
180.217
159.147
136.072
240.765
239.229
236.055
230.92
223.421
212.868
198.753
180.925
159.71
136.293
242.278
240.78
237.599
232.348
224.599
213.783
199.496
181.564
160.191
136.479
243.941
242.535
239.406
234.133
226.201
215.112
200.563
182.405
160.764
136.689
244.727
243.891
241.39
236.32
228.28
216.916
202.038
183.535
161.492
136.942
)
;

boundaryField
{
    left
    {
        type            zeroGradient;
    }
    right
    {
        type            fixedValue;
        value           uniform 0;
    }
    down
    {
        type            zeroGradient;
    }
    up
    {
        type            zeroGradient;
    }
    cylinder
    {
        type            zeroGradient;
    }
    defaultFaces
    {
        type            empty;
    }
}


// ************************************************************************* //
