/*--------------------------------*- C++ -*----------------------------------*\
  =========                 |
  \\      /  F ield         | OpenFOAM: The Open Source CFD Toolbox
   \\    /   O peration     | Website:  https://openfoam.org
    \\  /    A nd           | Version:  13
     \\/     M anipulation  |
\*---------------------------------------------------------------------------*/
FoamFile
{
    format      ascii;
    class       volVectorField;
    location    "0.185";
    object      U;
}
// * * * * * * * * * * * * * * * * * * * * * * * * * * * * * * * * * * * * * //

dimensions      [0 1 -1 0 0 0 0];

internalField   nonuniform List<vector> 
1800
(
(0.0978133 -0.0883408 -4.49067e-20)
(0.286924 -0.241991 -3.4125e-20)
(0.474011 -0.379114 -4.84708e-19)
(0.657736 -0.500258 1.91177e-19)
(0.836657 -0.607301 7.35393e-20)
(1.00996 -0.701536 -3.95942e-20)
(1.17719 -0.783653 5.59309e-20)
(1.33796 -0.853884 1.99463e-19)
(1.49159 -0.913177 5.93402e-19)
(1.63349 -0.96711 8.10907e-19)
(0.119068 -0.0915086 -7.90953e-20)
(0.344308 -0.247731 -7.70309e-19)
(0.563307 -0.384789 3.77917e-21)
(0.775394 -0.504296 1.25858e-19)
(0.979538 -0.609003 -1.26274e-19)
(1.17525 -0.700796 7.56792e-20)
(1.36234 -0.780907 -2.79763e-19)
(1.5408 -0.850231 -5.10302e-20)
(1.7101 -0.910845 -6.95127e-19)
(1.86783 -0.967179 6.30552e-19)
(0.141654 -0.0923256 4.88109e-20)
(0.403689 -0.247742 2.09227e-19)
(0.653769 -0.382138 5.4316e-19)
(0.892196 -0.497939 -1.90167e-19)
(1.11868 -0.598433 -1.42521e-19)
(1.33323 -0.685874 7.54604e-20)
(1.53607 -0.76178 9.78825e-20)
(1.72744 -0.827382 1.94138e-19)
(1.90721 -0.884891 2.74221e-21)
(2.07419 -0.937956 1.51106e-19)
(0.163908 -0.0897218 -4.57107e-20)
(0.461702 -0.239475 -2.04349e-19)
(0.741434 -0.367629 -1.81208e-19)
(1.00452 -0.476995 -1.42299e-19)
(1.25163 -0.571048 1.81231e-19)
(1.48352 -0.652163 -5.70999e-20)
(1.70094 -0.72195 -4.30174e-21)
(1.90454 -0.781673 2.62627e-21)
(2.09455 -0.833421 -1.60758e-19)
(2.27024 -0.880412 -1.05973e-19)
(0.184658 -0.0833566 -1.14042e-19)
(0.515894 -0.221809 8.76099e-20)
(0.823293 -0.339435 1.79843e-19)
(1.10931 -0.439071 2.43313e-19)
(1.37562 -0.524085 -2.84883e-19)
(1.62371 -0.596796 -3.58256e-21)
(1.85494 -0.658791 4.24784e-19)
(2.07043 -0.711291 -1.85177e-19)
(2.27083 -0.756197 -1.24014e-19)
(2.45577 -0.796431 -5.35688e-20)
(0.203189 -0.0734999 1.73593e-19)
(0.564469 -0.1952 1.02981e-18)
(0.896789 -0.298075 1.43186e-19)
(1.20351 -0.384737 -5.03099e-19)
(1.48719 -0.458231 -1.7544e-19)
(1.75003 -0.520677 6.37569e-19)
(1.9939 -0.573536 -1.45233e-19)
(2.22036 -0.617914 -4.31384e-19)
(2.43047 -0.655462 -3.16862e-19)
(2.6242 -0.688761 2.6164e-19)
(0.218898 -0.0605911 1.16335e-19)
(0.605743 -0.1607 -7.47577e-19)
(0.95931 -0.245029 -1.08552e-18)
(1.2837 -0.315797 3.83741e-19)
(1.58222 -0.375564 4.49844e-19)
(1.85767 -0.426129 -9.01643e-22)
(2.11239 -0.468742 -6.3944e-19)
(2.34829 -0.504329 2.19332e-19)
(2.56683 -0.534219 -3.64881e-19)
(2.76828 -0.560577 -3.11303e-19)
(0.231235 -0.0451721 -3.42505e-19)
(0.638198 -0.119683 -6.92661e-19)
(1.00849 -0.182292 1.21223e-18)
(1.34677 -0.234697 5.98749e-19)
(1.65693 -0.278849 -2.69715e-19)
(1.94224 -0.316132 -2.11487e-19)
(2.20543 -0.347512 0)
(2.44874 -0.373687 1.1671e-19)
(2.67399 -0.395621 -2.95869e-19)
(2.88172 -0.414969 -7.73284e-20)
(0.239767 -0.0278753 -2.04484e-19)
(0.660653 -0.0737547 5.62431e-19)
(1.04249 -0.112196 1.70991e-19)
(1.39031 -0.144286 -5.12492e-19)
(1.7084 -0.171272 -7.8422e-19)
(2.00037 -0.194048 3.65993e-20)
(2.26924 -0.21324 1.67278e-19)
(2.51753 -0.229288 -5.46774e-19)
(2.74732 -0.242779 -2.89979e-19)
(2.95954 -0.254774 -5.63865e-19)
(0.244262 -0.00940233 4.51465e-19)
(0.672456 -0.0247028 3.44201e-19)
(1.0603 -0.037359 -9.38749e-20)
(1.41303 -0.0477844 -1.29116e-20)
(1.73514 -0.056457 -3.87561e-19)
(2.03041 -0.0637173 -8.59853e-20)
(2.30205 -0.0698042 -2.90439e-19)
(2.55276 -0.0748851 6.46779e-19)
(2.78481 -0.0791672 1.70963e-19)
(2.99946 -0.08301 2.42253e-21)
(-0.00228586 -0.0209563 -4.07802e-20)
(0.00814855 -0.0682627 -6.8781e-20)
(0.0244995 -0.121087 -7.39464e-21)
(0.0491437 -0.17295 -3.40958e-20)
(0.0771325 -0.217998 -1.2445e-20)
(0.105406 -0.255462 -3.72382e-19)
(0.134175 -0.289246 -1.25168e-20)
(0.165036 -0.322879 1.17756e-19)
(0.197943 -0.356657 1.14336e-20)
(0.231751 -0.389031 -3.74385e-20)
(0.000896317 -0.0240696 -1.0085e-19)
(0.0148997 -0.0843033 -2.39336e-19)
(0.0398059 -0.161221 -3.09374e-20)
(0.0694609 -0.226014 -1.05452e-19)
(0.0990954 -0.275707 -9.5903e-20)
(0.129834 -0.318122 -2.59915e-19)
(0.1641 -0.359651 1.89923e-19)
(0.20199 -0.401491 1.71879e-19)
(0.241451 -0.441415 -2.619e-19)
(0.280825 -0.477605 8.1441e-20)
(0.00551283 -0.0311641 -8.98893e-20)
(0.0288983 -0.10721 -9.07647e-19)
(0.0632225 -0.196388 -1.34492e-19)
(0.097546 -0.268957 9.49176e-20)
(0.131737 -0.327156 6.45996e-20)
(0.169803 -0.380723 -4.03715e-19)
(0.213394 -0.433229 3.03843e-20)
(0.259538 -0.482755 3.63157e-19)
(0.305689 -0.527014 -3.80465e-19)
(0.351571 -0.56625 -2.53716e-19)
(0.0113671 -0.0408639 -3.52006e-21)
(0.0467175 -0.130838 1.9305e-19)
(0.0898291 -0.225397 1.80153e-21)
(0.133241 -0.307082 -1.15235e-20)
(0.178076 -0.378147 -2.30805e-20)
(0.227733 -0.444449 7.51845e-20)
(0.281597 -0.506317 6.87977e-20)
(0.336012 -0.561504 -1.33032e-19)
(0.390002 -0.609938 9.14985e-21)
(0.444199 -0.652464 -1.03272e-20)
(0.0185153 -0.0507555 0)
(0.0673143 -0.152485 5.83228e-21)
(0.122093 -0.253779 -5.09053e-19)
(0.178926 -0.345723 5.24472e-20)
(0.238141 -0.428965 -3.30254e-21)
(0.300893 -0.50558 2.18454e-21)
(0.365634 -0.574895 -2.48437e-20)
(0.4301 -0.635994 -7.04191e-21)
(0.494275 -0.689451 0)
(0.558499 -0.735457 -2.04161e-20)
(0.027349 -0.0596811 3.18287e-20)
(0.0919777 -0.172974 -1.54109e-19)
(0.161915 -0.282738 -4.59042e-20)
(0.234837 -0.384201 -5.83621e-20)
(0.309988 -0.477151 4.99236e-20)
(0.386994 -0.561994 5.53104e-21)
(0.464496 -0.638222 8.62387e-20)
(0.541212 -0.705539 -2.20127e-20)
(0.617204 -0.76409 -6.91166e-19)
(0.692439 -0.813282 -1.00166e-20)
(0.0380069 -0.067651 7.27152e-22)
(0.121321 -0.192316 5.63346e-20)
(0.209294 -0.310846 -7.88662e-20)
(0.300094 -0.42049 -1.67824e-20)
(0.392322 -0.521054 -7.31637e-20)
(0.484968 -0.612573 -9.23781e-21)
(0.576896 -0.694833 1.20198e-20)
(0.667141 -0.767715 -2.08075e-19)
(0.755712 -0.830876 3.81522e-19)
(0.842461 -0.882922 9.69841e-19)
(0.0503943 -0.0746454 1.52815e-20)
(0.155206 -0.209737 -1.42557e-19)
(0.263571 -0.336169 -2.14388e-19)
(0.373799 -0.452386 8.9301e-20)
(0.484239 -0.558603 -6.45847e-20)
(0.59368 -0.655011 9.76729e-20)
(0.701074 -0.741727 1.94617e-19)
(0.805526 -0.818802 -1.07052e-19)
(0.90711 -0.885649 -3.05173e-19)
(1.00573 -0.940063 7.24474e-19)
(0.0643179 -0.0803939 -2.63321e-20)
(0.193347 -0.224124 -5.77932e-19)
(0.32438 -0.356719 5.24002e-19)
(0.455777 -0.477447 3.37196e-19)
(0.585833 -0.587015 -8.53851e-20)
(0.713313 -0.685978 3.07524e-19)
(0.837207 -0.774799 -1.6014e-19)
(0.956621 -0.853865 -7.69378e-19)
(1.07176 -0.922472 -4.03108e-19)
(1.18265 -0.977721 4.52869e-19)
(0.0795651 -0.0846881 -7.9834e-20)
(0.235889 -0.234484 -5.44021e-19)
(0.39245 -0.370635 -8.037e-21)
(0.547606 -0.492949 6.84033e-20)
(0.699658 -0.602658 3.37244e-19)
(0.847449 -0.700667 -1.84388e-19)
(0.99006 -0.787711 -1.68042e-19)
(1.12656 -0.864127 1.87836e-19)
(1.25681 -0.928972 -3.50672e-19)
(1.38003 -0.980682 -5.83751e-19)
(0.401121 -0.532487 1.06867e-18)
(0.68135 -0.615855 -4.62217e-19)
(0.906476 -0.549644 -1.96562e-19)
(1.07146 -0.418468 3.49795e-19)
(1.20897 -0.264519 -2.62579e-19)
(1.29978 -0.135924 -2.7145e-19)
(1.34685 -0.0696419 -2.62962e-19)
(1.37261 -0.0405005 -4.50509e-20)
(1.38921 -0.0254662 2.49905e-19)
(1.40037 -0.0102638 4.6446e-20)
(0.468201 -0.620019 1.03677e-18)
(0.739602 -0.690583 1.25006e-19)
(0.961262 -0.607975 9.94655e-21)
(1.11152 -0.464158 -3.01871e-19)
(1.23602 -0.297747 -9.37889e-19)
(1.31594 -0.155295 0)
(1.35579 -0.0799658 -2.40708e-19)
(1.37827 -0.0465918 7.96604e-20)
(1.39305 -0.0290316 6.76746e-21)
(1.40292 -0.0116147 -7.31692e-20)
(0.556245 -0.705532 -1.01401e-18)
(0.810073 -0.763142 -8.8886e-20)
(1.02238 -0.664612 1.85222e-19)
(1.15616 -0.507855 -4.94103e-20)
(1.26483 -0.329297 -3.3109e-20)
(1.33272 -0.173317 7.29946e-20)
(1.36541 -0.08941 0)
(1.38454 -0.0520924 0)
(1.39738 -0.0322217 -8.20652e-20)
(1.40589 -0.0128097 0)
(0.666017 -0.787335 -2.24598e-19)
(0.895401 -0.831595 3.97594e-19)
(1.08994 -0.718627 2.52717e-20)
(1.20526 -0.548997 0)
(1.29551 -0.358888 7.51704e-19)
(1.35039 -0.189993 -1.74633e-19)
(1.37567 -0.0979538 0)
(1.39133 -0.0569757 1.89559e-19)
(1.40214 -0.0350092 0)
(1.40924 -0.0138417 2.08144e-20)
(0.796019 -0.864147 -1.47119e-19)
(0.997348 -0.893912 4.22103e-19)
(1.16453 -0.768859 -1.41738e-20)
(1.25847 -0.587058 0)
(1.32798 -0.386258 2.01394e-19)
(1.36895 -0.20531 3.23642e-19)
(1.38648 -0.105623 6.58125e-20)
(1.39855 -0.0612446 1.1679e-20)
(1.40727 -0.0373809 -4.89443e-20)
(1.4129 -0.0147155 3.97919e-20)
(0.942332 -0.93513 -1.27679e-18)
(1.11578 -0.948637 -8.73436e-19)
(1.24692 -0.813928 4.64205e-21)
(1.31544 -0.621439 4.87587e-19)
(1.36189 -0.41115 -2.89018e-19)
(1.38816 -0.219244 1.62778e-19)
(1.39771 -0.112474 2.60292e-19)
(1.40613 -0.0649143 -2.52532e-19)
(1.41269 -0.0393264 -2.65179e-21)
(1.41684 -0.0154279 -6.26292e-21)
(1.1 -0.999882 -2.51796e-19)
(1.24882 -0.995477 2.63232e-19)
(1.33762 -0.85255 3.41286e-21)
(1.37605 -0.651398 -1.36962e-20)
(1.39694 -0.433215 -4.90578e-19)
(1.40771 -0.231679 5.53129e-20)
(1.40931 -0.118516 -1.03394e-19)
(1.414 -0.067991 -4.98124e-20)
(1.41835 -0.0408318 2.24316e-20)
(1.421 -0.0159805 -2.72824e-20)
(1.2641 -1.0573 -1.2133e-18)
(1.3931 -1.03498 1.92187e-19)
(1.43587 -0.883978 0)
(1.43967 -0.67633 2.25609e-20)
(1.43242 -0.452231 4.01168e-19)
(1.42679 -0.242707 8.48121e-22)
(1.42095 -0.12388 -3.19872e-19)
(1.42208 -0.0705242 7.00215e-20)
(1.42417 -0.0418901 -6.1743e-22)
(1.42533 -0.016382 -1.79824e-21)
(1.43173 -1.10396 3.40136e-18)
(1.54608 -1.06806 2.71532e-19)
(1.5417 -0.908821 4.10963e-19)
(1.50698 -0.696401 -2.42144e-20)
(1.46873 -0.468346 -2.92068e-20)
(1.44543 -0.25249 -3.51181e-19)
(1.43268 -0.128343 7.70492e-20)
(1.43037 -0.0723158 5.9411e-21)
(1.43011 -0.0424093 -4.29582e-20)
(1.42979 -0.0166022 -4.94633e-20)
(1.59898 -1.12864 -3.01013e-18)
(1.69969 -1.09363 1.30303e-18)
(1.64954 -0.929691 -1.63602e-19)
(1.57436 -0.714834 -6.04734e-19)
(1.50349 -0.484804 -5.05488e-19)
(1.46137 -0.26421 -2.08856e-19)
(1.44295 -0.134418 -6.01567e-20)
(1.43833 -0.0742569 0)
(1.43598 -0.0426382 7.67129e-21)
(1.43429 -0.0167067 1.31567e-20)
(1.88777 -1.1704 -6.78664e-18)
(1.92471 -1.10267 -1.77274e-18)
(1.79955 -0.923214 4.76959e-20)
(1.66481 -0.706317 9.8769e-20)
(1.54939 -0.481126 1.75865e-19)
(1.48339 -0.264813 -1.04376e-19)
(1.45883 -0.13614 -1.59018e-21)
(1.45012 -0.074915 2.32254e-20)
(1.44378 -0.0423997 -2.65242e-20)
(1.43962 -0.0168255 1.66569e-20)
(2.28838 -1.13405 5.00956e-19)
(2.17529 -1.05282 -2.16248e-19)
(1.93786 -0.855942 8.21932e-19)
(1.73231 -0.646351 -1.87853e-19)
(1.56892 -0.439775 5.95195e-19)
(1.48413 -0.245747 1.07133e-19)
(1.46246 -0.130162 9.27475e-21)
(1.44663 -0.0698426 -2.04067e-21)
(1.42983 -0.0374829 2.79426e-20)
(1.41585 -0.0151344 4.62749e-20)
(2.60965 -1.0425 2.26179e-18)
(2.35072 -0.945934 3.2678e-19)
(2.01051 -0.752984 -1.24475e-19)
(1.74527 -0.559803 -1.1769e-36)
(1.54043 -0.378056 -3.08596e-20)
(1.43032 -0.218145 1.23275e-33)
(1.3783 -0.115246 -1.96576e-20)
(1.34173 -0.0582479 -2.35944e-33)
(1.31788 -0.0289628 1.21291e-20)
(1.30162 -0.0128756 -3.87123e-20)
(2.78742 -0.893197 3.93893e-33)
(2.37206 -0.793549 2.90002e-18)
(1.98078 -0.625281 1.76621e-18)
(1.66983 -0.458058 0)
(1.4364 -0.308327 9.13611e-19)
(1.29316 -0.18451 4.12816e-19)
(1.23141 -0.09833 1.0467e-19)
(1.19813 -0.0474664 -3.84046e-33)
(1.17774 -0.0220141 -1.31131e-20)
(1.16459 -0.00998257 3.53117e-20)
(2.76468 -0.705356 3.85255e-18)
(2.24847 -0.628313 -1.48137e-19)
(1.85234 -0.48737 0)
(1.52736 -0.354 0)
(1.29245 -0.237799 0)
(1.14419 -0.145749 0)
(1.0755 -0.0795447 -1.19561e-20)
(1.04095 -0.0377136 -4.72391e-33)
(1.02221 -0.0164679 1.1375e-20)
(1.01075 -0.00757003 4.09366e-33)
(2.55172 -0.516837 3.27622e-18)
(2.02137 -0.462268 0)
(1.64168 -0.351823 0)
(1.33396 -0.252226 0)
(1.1151 -0.168147 0)
(0.974782 -0.104677 0)
(0.904298 -0.0588279 3.21487e-20)
(0.870012 -0.0276796 -8.78109e-21)
(0.853445 -0.0113966 1.12032e-20)
(0.843953 -0.00530839 5.25125e-20)
(2.19024 -0.342765 0)
(1.70304 -0.303387 1.12097e-18)
(1.36262 -0.226875 1.13301e-18)
(1.09534 -0.159498 0)
(0.907691 -0.105425 7.27775e-19)
(0.78712 -0.0669158 3.93205e-19)
(0.7222 -0.0390206 1.78742e-19)
(0.689823 -0.0184642 2.4185e-20)
(0.675383 -0.00723055 2.73896e-20)
(0.667585 -0.00343362 1.72931e-20)
(1.70279 -0.191219 -6.73224e-19)
(1.30015 -0.165615 -2.7293e-19)
(1.02545 -0.121496 1.74201e-19)
(0.817138 -0.0831977 -2.22483e-34)
(0.67362 -0.0545171 -8.30297e-20)
(0.581632 -0.0355275 3.48493e-33)
(0.52895 -0.0216466 4.92958e-20)
(0.501406 -0.0103895 8.98258e-20)
(0.489632 -0.00387698 1.06672e-20)
(0.483577 -0.00190416 -2.59861e-20)
(1.10076 -0.0758627 3.4045e-18)
(0.822986 -0.0627023 -1.86319e-19)
(0.640569 -0.044226 -5.90015e-19)
(0.507029 -0.0285349 0)
(0.417167 -0.018266 -6.28614e-19)
(0.359649 -0.0124468 -3.9069e-19)
(0.324781 -0.00815206 -1.39354e-19)
(0.305532 -0.00407681 -8.17613e-20)
(0.297431 -0.00148845 7.02118e-20)
(0.293434 -0.000779097 1.79737e-20)
(0.397279 -0.0033201 0)
(0.287749 0.00158864 0)
(0.220813 0.00404911 0)
(0.173815 0.00610895 0)
(0.143646 0.00554631 0)
(0.124379 0.00398297 0)
(0.111735 0.00256864 5.57278e-20)
(0.104108 0.00147525 -1.8015e-34)
(0.100774 0.000765827 1.18258e-20)
(0.0991108 0.000227178 2.53332e-20)
(3.36712 -0.0863149 5.38851e-19)
(3.32644 -0.265085 -8.42096e-20)
(3.24737 -0.430656 8.52128e-19)
(3.1324 -0.582162 -6.04955e-19)
(2.98634 -0.718135 6.66321e-19)
(2.81522 -0.836399 2.74896e-19)
(2.62656 -0.934084 -1.93007e-18)
(2.42944 -1.00788 -7.69235e-20)
(2.22456 -1.05373 0)
(1.98471 -1.06666 4.28684e-19)
(3.86194 -0.0750772 7.07314e-18)
(3.79861 -0.23421 1.95606e-18)
(3.70429 -0.387297 -4.86642e-18)
(3.58425 -0.531969 -4.48882e-19)
(3.44234 -0.665857 3.55729e-18)
(3.28177 -0.787255 1.9226e-18)
(3.10635 -0.894957 -5.16517e-18)
(2.92182 -0.987527 -1.95003e-18)
(2.72727 -1.06313 2.20041e-18)
(2.49195 -1.12015 8.52972e-19)
(3.83321 -0.0533167 -1.2613e-19)
(3.82035 -0.171564 4.40451e-18)
(3.78557 -0.299752 -1.08898e-18)
(3.72445 -0.430904 -3.44574e-18)
(3.63627 -0.558699 -6.80084e-18)
(3.52375 -0.678733 1.02726e-17)
(3.39113 -0.78866 4.17672e-18)
(3.24335 -0.887756 -3.90544e-18)
(3.08132 -0.978349 -2.89748e-18)
(2.88677 -1.06242 -3.41757e-18)
(3.62873 -0.0472637 -4.83921e-18)
(3.61968 -0.144918 -4.35369e-18)
(3.59971 -0.243733 5.47296e-18)
(3.56746 -0.343082 1.91244e-18)
(3.52256 -0.44235 -8.97534e-18)
(3.46438 -0.540754 4.93007e-19)
(3.39212 -0.636956 3.88737e-18)
(3.30546 -0.730289 -1.05492e-18)
(3.20534 -0.822849 1.27698e-18)
(3.08335 -0.914448 2.80993e-19)
(3.3441 -0.0365543 -9.15953e-19)
(3.33905 -0.11165 3.00398e-18)
(3.32715 -0.188688 1.6194e-18)
(3.3075 -0.267198 -1.89326e-18)
(3.27994 -0.346102 -2.0017e-18)
(3.24476 -0.42416 -2.43656e-18)
(3.20221 -0.500328 3.80196e-19)
(3.15203 -0.574435 1.38626e-19)
(3.0959 -0.647628 -2.14292e-18)
(3.03343 -0.721095 -2.03804e-18)
(2.9626 -0.0265286 -1.82236e-18)
(2.95984 -0.0798795 -5.86683e-20)
(2.95333 -0.134607 -1.6375e-18)
(2.94243 -0.190928 3.12121e-19)
(2.92678 -0.248592 5.36749e-18)
(2.90632 -0.306987 -3.67026e-19)
(2.88097 -0.365182 4.43956e-20)
(2.85032 -0.422124 -2.6092e-18)
(2.81659 -0.476925 -3.49808e-18)
(2.78626 -0.529857 3.71363e-19)
(2.48714 -0.0174885 -2.88843e-20)
(2.48579 -0.0519252 -8.14238e-19)
(2.48261 -0.0872516 -2.61479e-18)
(2.47709 -0.123787 -3.43077e-18)
(2.4688 -0.161563 2.4964e-18)
(2.45745 -0.200309 1.50203e-18)
(2.44261 -0.239409 -1.3848e-18)
(2.4237 -0.277859 1.6241e-18)
(2.40275 -0.31456 -4.30188e-19)
(2.38957 -0.349619 -9.6413e-19)
(1.91464 -0.00967328 7.72427e-19)
(1.91408 -0.0282907 -8.31825e-19)
(1.91278 -0.0474409 -3.27788e-20)
(1.91032 -0.0673684 -3.46987e-20)
(1.90623 -0.0881475 -7.27028e-20)
(1.90011 -0.10964 -2.33183e-18)
(1.89148 -0.131438 -6.7851e-19)
(1.87975 -0.152825 2.62537e-18)
(1.86659 -0.173027 -6.03107e-19)
(1.86186 -0.192268 -1.35041e-18)
(1.23988 -0.00373053 -1.64277e-18)
(1.23967 -0.0106922 -8.4891e-19)
(1.23923 -0.0179015 2.33921e-18)
(1.23823 -0.0254825 -8.89792e-19)
(1.23624 -0.033483 -6.74102e-19)
(1.23288 -0.0418432 1.35192e-18)
(1.22772 -0.0503657 -1.29573e-18)
(1.22034 -0.0586855 1.28673e-18)
(1.21196 -0.0663669 -1.20996e-18)
(1.21 -0.0735369 -4.24605e-18)
(0.454913 -0.000257271 6.63077e-19)
(0.454826 -0.000700171 7.03059e-19)
(0.454692 -0.00115909 7.48193e-19)
(0.454324 -0.00164036 1.35398e-18)
(0.453492 -0.0021408 -6.71971e-19)
(0.451975 -0.00263812 -1.29957e-18)
(0.449553 -0.00310031 6.14653e-19)
(0.445971 -0.00359433 2.4843e-20)
(0.441705 -0.00439362 -4.96599e-20)
(0.440308 -0.00504654 1.10585e-19)
(1.65285 0.995995 -2.84308e-19)
(1.51171 0.940875 1.80784e-20)
(1.35838 0.880022 -2.24994e-19)
(1.19738 0.807934 1.77181e-19)
(1.02938 0.723652 -1.94795e-19)
(0.854721 0.626889 -1.01633e-19)
(0.67372 0.516857 2.32178e-19)
(0.48704 0.39213 -3.05891e-19)
(0.295916 0.250661 3.09806e-19)
(0.10145 0.0916616 2.39342e-19)
(1.88579 0.991282 0)
(1.7292 0.93406 6.3577e-19)
(1.56047 0.872282 3.27895e-19)
(1.38203 0.801526 1.65055e-19)
(1.19437 0.719678 4.34358e-19)
(0.997449 0.625795 -8.71268e-20)
(0.791334 0.518567 -7.88374e-20)
(0.576359 0.395997 8.95508e-20)
(0.353347 0.2552 -1.04562e-18)
(0.12272 0.0943721 -1.62341e-20)
(2.09057 0.958417 1.56887e-19)
(1.92485 0.904614 0)
(1.74585 0.846143 -1.00893e-19)
(1.55473 0.779342 -3.85221e-19)
(1.35157 0.701962 5.38005e-20)
(1.13602 0.612734 3.97951e-19)
(0.907764 0.510078 -6.07545e-19)
(0.666603 0.391653 -2.0072e-19)
(0.412623 0.254068 7.83697e-19)
(0.14527 0.0947485 -1.76289e-19)
(2.2845 0.897942 1.89918e-19)
(2.11016 0.850264 1.25318e-20)
(1.92109 0.797656 2.42204e-20)
(1.71796 0.73687 3.63182e-20)
(1.50048 0.665783 -2.89554e-20)
(1.26788 0.583103 2.73616e-19)
(1.01925 0.487167 -2.06915e-19)
(0.753687 0.375545 -8.56083e-19)
(0.470294 0.244696 0)
(0.167404 0.0917059 0)
(2.46772 0.811553 -1.06836e-18)
(2.28416 0.770648 -6.06318e-19)
(2.08478 0.724933 -1.20331e-19)
(1.86993 0.671442 -6.66203e-20)
(1.63884 0.608252 0)
(1.39027 0.534121 2.40937e-19)
(1.12274 0.447437 2.67984e-19)
(0.834566 0.345847 2.86464e-19)
(0.523859 0.225966 -4.24069e-19)
(0.18792 0.0849043 -8.12948e-20)
(2.63384 0.701928 7.63806e-19)
(2.44144 0.667948 -1.39242e-19)
(2.23234 0.629601 -2.21141e-19)
(2.00658 0.584258 0)
(1.76297 0.530255 0)
(1.49986 0.46648 0)
(1.21522 0.391467 -3.8955e-20)
(0.906696 0.303098 3.7025e-19)
(0.571514 0.198357 3.79036e-19)
(0.206093 0.0746282 -3.08663e-19)
(2.7757 0.572257 -1.19165e-18)
(2.57543 0.545192 -1.47975e-18)
(2.35781 0.514485 -3.01941e-22)
(2.12256 0.47792 -1.87825e-19)
(1.86815 0.434169 -9.29145e-20)
(1.59257 0.382316 -1.78967e-19)
(1.29333 0.321128 4.59262e-19)
(0.9675 0.248843 2.14809e-19)
(0.611596 0.162972 5.40209e-19)
(0.221322 0.0613427 2.02923e-19)
(2.88702 0.425692 -1.15638e-18)
(2.68023 0.405595 8.47262e-20)
(2.45573 0.382796 1.645e-19)
(2.21295 0.355598 1.68649e-20)
(1.95003 0.323046 -3.14544e-19)
(1.66465 0.284469 -1.74337e-19)
(1.35398 0.238941 -6.21383e-19)
(1.01465 0.185145 1.18527e-19)
(0.642615 0.12124 5.15135e-20)
(0.233072 0.0456141 -6.26461e-21)
(2.96278 0.26516 1.0119e-19)
(2.75119 0.252337 3.97076e-19)
(2.52188 0.237895 -3.30313e-19)
(2.27393 0.220736 3.63186e-19)
(2.00523 0.200297 3.72628e-19)
(1.71322 0.176179 4.92004e-19)
(1.39481 0.147813 -6.35851e-19)
(1.04634 0.114393 -3.24476e-19)
(0.66342 0.0748121 -4.58482e-20)
(0.240921 0.0280959 -3.27064e-19)
(3.00052 0.0935697 5.81683e-19)
(2.78612 0.0887828 -1.85973e-19)
(2.55425 0.0834446 4.79626e-19)
(2.30366 0.077153 -3.10942e-19)
(2.03208 0.069732 2.66444e-19)
(1.73679 0.0610664 6.05643e-19)
(1.41457 0.0509825 3.79023e-19)
(1.06162 0.0392376 3.09392e-19)
(0.673402 0.0255082 2.65903e-19)
(0.244657 0.00950755 5.43695e-19)
(0.236857 0.445527 -4.63195e-19)
(0.201675 0.412259 -1.7962e-19)
(0.166572 0.375749 1.41125e-19)
(0.133369 0.338473 -4.22406e-19)
(0.103769 0.302458 -1.18999e-19)
(0.0770059 0.265335 6.71734e-19)
(0.0509427 0.219486 3.31622e-19)
(0.0254941 0.155919 -1.60202e-19)
(0.00688383 0.0779417 1.12471e-19)
(-0.00117629 0.0218137 -6.10727e-20)
(0.28751 0.536911 3.95567e-19)
(0.247723 0.500506 4.41066e-19)
(0.207441 0.459063 -1.59558e-20)
(0.167437 0.412794 -1.28119e-19)
(0.130814 0.365192 -2.84106e-19)
(0.100185 0.317881 8.07429e-20)
(0.0730128 0.265038 2.19451e-19)
(0.0454961 0.193618 1.58782e-19)
(0.0180029 0.099726 -5.85238e-19)
(0.00262284 0.0280699 -1.22984e-19)
(0.359865 0.625644 -5.8487e-19)
(0.31388 0.585868 -4.67578e-19)
(0.268013 0.540489 2.46177e-19)
(0.221464 0.487905 1.31216e-19)
(0.176002 0.428995 -1.05398e-21)
(0.136338 0.367457 -1.27381e-19)
(0.102017 0.301847 -2.24368e-20)
(0.068239 0.222044 -5.56506e-19)
(0.0333401 0.124084 -2.70898e-19)
(0.00743161 0.0370007 -3.9738e-20)
(0.455062 0.710895 4.94581e-19)
(0.400733 0.667156 1.6347e-19)
(0.346821 0.616627 -1.44341e-19)
(0.292539 0.558209 6.78338e-20)
(0.238009 0.490955 6.98378e-22)
(0.186743 0.417124 1.03053e-21)
(0.140112 0.337677 -1.26655e-19)
(0.0953423 0.248051 3.8695e-19)
(0.0511953 0.146278 -4.20735e-19)
(0.0133863 0.0470998 -6.7826e-20)
(0.572738 0.791712 -2.80487e-19)
(0.508482 0.744151 -8.87879e-20)
(0.444039 0.687882 -1.36047e-20)
(0.379254 0.622802 -6.11558e-20)
(0.313885 0.548287 5.34343e-20)
(0.249738 0.465168 4.62332e-20)
(0.188365 0.37453 -2.84391e-20)
(0.129223 0.275103 -2.87957e-19)
(0.072354 0.166655 2.19426e-19)
(0.0207625 0.056452 8.77831e-20)
(0.70968 0.865833 6.45871e-19)
(0.634601 0.814995 3.26111e-19)
(0.558309 0.753446 2.12852e-19)
(0.480953 0.682024 4.75933e-20)
(0.402437 0.60084 1.44081e-19)
(0.323846 0.510309 6.95238e-20)
(0.246408 0.411038 1.35842e-19)
(0.170772 0.302915 5.73635e-20)
(0.0979348 0.186206 -1.91238e-20)
(0.0298944 0.0648208 -1.52696e-20)
(0.861824 0.93081 -1.19322e-19)
(0.775382 0.877131 -8.43361e-19)
(0.686571 0.81109 -9.31588e-20)
(0.595606 0.73443 -2.99654e-20)
(0.502451 0.647775 -1.14976e-20)
(0.408026 0.551354 1.45414e-19)
(0.313393 0.445381 -4.41996e-20)
(0.219633 0.32983 6.64924e-20)
(0.128222 0.204766 -1.4462e-19)
(0.0408509 0.0724015 -8.09706e-22)
(1.02621 0.982925 -8.92213e-19)
(0.928044 0.926998 5.93526e-20)
(0.826316 0.857575 -2.22979e-19)
(0.721197 0.777237 -7.82489e-20)
(0.612569 0.686788 -3.21922e-20)
(0.501316 0.586217 -7.45118e-20)
(0.388434 0.475347 5.72575e-20)
(0.275106 0.353886 6.07803e-20)
(0.162949 0.221417 -9.84274e-21)
(0.0535268 0.0790937 -1.0466e-19)
(1.20323 1.01562 1.24064e-19)
(1.09296 0.959036 5.30174e-19)
(0.977824 0.888232 1.62509e-21)
(0.857899 0.806445 -3.46269e-20)
(0.732915 0.714515 1.54935e-19)
(0.603742 0.612032 -3.52134e-19)
(0.471319 0.498445 -2.4624e-19)
(0.336794 0.37306 3.57179e-19)
(0.201765 0.23496 1.4473e-19)
(0.0677056 0.0845358 -3.69204e-20)
(1.39988 1.01378 7.46238e-19)
(1.27749 0.960991 3.27078e-19)
(1.1474 0.894339 5.47868e-20)
(1.01056 0.815665 -2.00168e-19)
(0.867059 0.726021 -1.69559e-20)
(0.717773 0.625026 4.68217e-19)
(0.563523 0.511839 -2.69461e-19)
(0.405327 0.385413 -1.84933e-19)
(0.244717 0.244317 3.3636e-19)
(0.0831283 0.0884555 -6.4286e-21)
(0.953742 0.0899929 1.02004e-20)
(1.16863 0.154702 -1.67162e-20)
(1.17645 0.183009 -4.39478e-20)
(1.25086 0.168598 0)
(1.26621 0.174375 9.5402e-21)
(1.22141 0.244029 -5.10641e-20)
(1.09281 0.387478 -1.00983e-19)
(0.929486 0.538228 -1.29163e-19)
(0.701485 0.64022 -1.72787e-19)
(0.412027 0.587678 6.25865e-19)
(0.952266 0.0693596 1.86026e-19)
(1.16206 0.132864 -6.18906e-20)
(1.17315 0.16141 2.42323e-21)
(1.25058 0.160111 1.63447e-20)
(1.27258 0.178015 -5.12358e-21)
(1.24033 0.268478 1.0366e-20)
(1.12611 0.431362 1.90555e-19)
(0.978408 0.597252 0)
(0.755104 0.717039 5.08448e-19)
(0.477561 0.677832 -4.33996e-19)
(0.950379 0.0500371 -1.1497e-19)
(1.15833 0.110733 5.99845e-21)
(1.17276 0.139741 5.67019e-20)
(1.25424 0.150141 2.22163e-20)
(1.28227 0.179911 1.35331e-20)
(1.26188 0.291041 -4.13249e-20)
(1.16437 0.473135 1.17354e-19)
(1.03343 0.654821 3.83611e-20)
(0.82048 0.791657 -3.75704e-22)
(0.564833 0.76506 -6.87918e-19)
(0.948696 0.0317451 -7.3198e-20)
(1.15739 0.0880038 1.71343e-20)
(1.17525 0.118007 3.13046e-20)
(1.26154 0.139021 5.49141e-22)
(1.29521 0.180578 -1.00759e-20)
(1.28629 0.311888 -2.49931e-21)
(1.2071 0.512607 -1.01625e-19)
(1.09432 0.710193 2.34626e-20)
(0.900285 0.862014 -4.07688e-19)
(0.675086 0.847468 -1.88727e-19)
(0.947668 0.0140059 2.34898e-20)
(1.15923 0.0644914 -1.70247e-20)
(1.18055 0.0962628 -1.76843e-20)
(1.27207 0.127084 -3.33242e-21)
(1.31111 0.180484 0)
(1.31319 0.331226 0)
(1.25356 0.549663 -3.64565e-20)
(1.16156 0.762294 -2.53079e-20)
(0.996744 0.925819 -1.02699e-19)
(0.806437 0.923414 -6.00161e-20)
(0.947561 -0.00365941 -5.02069e-21)
(1.16382 0.0400837 2.36571e-20)
(1.18857 0.0746288 -5.36573e-20)
(1.28533 0.114675 -4.6043e-20)
(1.32936 0.18008 -1.08699e-20)
(1.34186 0.34929 2.40354e-22)
(1.30317 0.584031 4.54638e-20)
(1.2362 0.809646 -1.67083e-20)
(1.11029 0.981303 -1.78899e-20)
(0.954463 0.992081 -9.42227e-21)
(0.94852 -0.0217315 5.08611e-20)
(1.17108 0.0147086 -8.91113e-22)
(1.19917 0.0532549 -2.29403e-20)
(1.3008 0.102059 -6.00216e-20)
(1.3493 0.179562 2.39656e-20)
(1.37174 0.366115 1.04557e-20)
(1.3559 0.615112 -4.9218e-20)
(1.31923 0.850676 -1.82287e-19)
(1.23934 1.02797 7.88628e-22)
(1.11383 1.05338 -9.98564e-19)
(0.950482 -0.0405862 3.05816e-20)
(1.18081 -0.0116826 -3.44538e-20)
(1.21226 0.0324095 3.44493e-20)
(1.31791 0.089709 6.09019e-20)
(1.36973 0.179611 9.32445e-21)
(1.40186 0.381897 -1.92223e-20)
(1.41135 0.642273 -1.8412e-20)
(1.41035 0.884308 5.79387e-20)
(1.38055 1.06642 1.12294e-20)
(1.27917 1.10658 2.89637e-18)
(0.952788 -0.0603373 -1.5124e-19)
(1.19262 -0.039047 1.90272e-20)
(1.22774 0.0122254 7.77919e-20)
(1.33636 0.0778556 -5.92477e-20)
(1.39079 0.180165 -6.36652e-20)
(1.43309 0.396758 1.01004e-20)
(1.47092 0.665501 1.16854e-19)
(1.51002 0.910976 -3.27061e-19)
(1.53121 1.09775 -2.64597e-20)
(1.44722 1.14861 -6.4601e-18)
(0.954368 -0.0821796 4.47781e-21)
(1.20589 -0.0672172 3.98937e-20)
(1.24495 -0.00692792 1.29663e-20)
(1.35547 0.0681761 -1.49981e-19)
(1.40996 0.185095 -9.29472e-20)
(1.46237 0.414667 -1.25259e-20)
(1.53076 0.688367 -5.24387e-20)
(1.61246 0.933788 -4.91429e-19)
(1.68328 1.12157 -1.12788e-18)
(1.61426 1.16858 -7.97434e-18)
(0.955713 -0.115239 -1.45713e-20)
(1.22088 -0.104877 -1.10048e-20)
(1.26496 -0.0347387 -2.21842e-20)
(1.37755 0.0508074 -5.06319e-21)
(1.43532 0.176545 6.31848e-20)
(1.50221 0.409383 -3.28496e-20)
(1.61226 0.679796 -7.73439e-20)
(1.75393 0.923808 -1.43853e-18)
(1.90161 1.12415 -1.63628e-18)
(1.89775 1.2051 3.30535e-18)
(0.954452 -0.157899 -4.00397e-19)
(1.23534 -0.154035 -2.74397e-20)
(1.2835 -0.0784332 -2.43191e-20)
(1.39554 0.0251094 9.29261e-20)
(1.44469 0.152011 1.63836e-19)
(1.51838 0.369933 -2.32924e-19)
(1.67287 0.619573 -1.35386e-19)
(1.88198 0.850372 -5.72639e-19)
(2.13819 1.06289 1.70731e-19)
(2.28267 1.15673 -3.24165e-19)
(0.948043 -0.200605 -2.62848e-20)
(1.25 -0.206049 -4.62988e-20)
(1.29537 -0.119232 2.79777e-20)
(1.41044 -0.00147 3.66581e-20)
(1.45486 0.132301 1.47345e-33)
(1.51879 0.326522 -2.64435e-21)
(1.69864 0.540876 -2.32539e-33)
(1.95699 0.747922 1.92906e-19)
(2.30403 0.950088 -9.36502e-19)
(2.58653 1.05485 -6.28739e-19)
(0.938329 -0.246147 1.51578e-18)
(1.26591 -0.25176 -6.63501e-34)
(1.29607 -0.168381 -3.62572e-20)
(1.35354 -0.0219216 -1.7322e-19)
(1.35723 0.115004 -4.49093e-19)
(1.43992 0.267663 -9.18164e-19)
(1.64434 0.442644 -5.26825e-33)
(1.94281 0.62178 -1.6985e-18)
(2.33238 0.797258 -3.12324e-18)
(2.75553 0.900061 1.67976e-18)
(0.926784 -0.300202 0)
(1.29305 -0.294089 -2.71714e-33)
(1.17149 -0.179489 0)
(1.17574 -0.022948 0)
(1.18777 0.0980275 0)
(1.29187 0.210159 0)
(1.50911 0.342262 -8.91671e-33)
(1.8267 0.484403 0)
(2.2195 0.630582 -3.43045e-19)
(2.73782 0.710174 1.26287e-18)
(0.914637 -0.359647 1.12924e-19)
(1.26122 -0.319686 -4.26928e-19)
(0.999979 -0.154704 -5.94901e-20)
(0.989904 -0.0196317 0)
(1.00784 0.0741629 0)
(1.11401 0.151995 6.81603e-20)
(1.32021 0.245319 1.29768e-18)
(1.62363 0.350222 -1.9631e-19)
(2.00049 0.464136 -4.96151e-19)
(2.53426 0.51945 4.66641e-18)
(0.882497 -0.405079 -1.5205e-17)
(1.09559 -0.274371 1.01251e-18)
(0.817252 -0.119152 -7.4653e-20)
(0.787458 -0.0173718 -1.24457e-19)
(0.809471 0.0489172 -4.47492e-19)
(0.906854 0.0968873 -7.50926e-19)
(1.08597 0.15588 -1.10952e-18)
(1.35066 0.226505 -1.44457e-18)
(1.6896 0.305169 -1.64708e-18)
(2.18072 0.344095 3.64584e-18)
(0.808378 -0.394431 -4.13015e-19)
(0.888153 -0.205426 -1.21803e-18)
(0.617988 -0.0775326 -1.26555e-19)
(0.576047 -0.0132979 -8.04388e-20)
(0.596272 0.0267513 -6.47588e-34)
(0.673953 0.0509488 1.0461e-19)
(0.811951 0.0815986 -1.55335e-32)
(1.0188 0.121658 -1.93636e-19)
(1.29332 0.166922 2.97363e-19)
(1.69949 0.191986 7.04434e-19)
(0.66394 -0.288835 3.42849e-17)
(0.618421 -0.107191 -3.13126e-18)
(0.398458 -0.0334485 -2.4095e-19)
(0.353523 -0.00685242 -1.01318e-19)
(0.367606 0.00951452 3.51196e-19)
(0.41812 0.0172865 7.56109e-19)
(0.505035 0.0280108 7.83727e-19)
(0.637978 0.0444115 4.59856e-19)
(0.820993 0.0633404 -1.85782e-19)
(1.10149 0.0762149 3.56139e-18)
(0.336736 -0.0768375 5.5889e-19)
(0.261836 -0.00233467 -6.77344e-33)
(0.145878 0.0183501 -3.04907e-19)
(0.124325 0.00265694 0)
(0.127846 -0.00185233 0)
(0.144703 -0.00498158 1.03821e-19)
(0.173835 -0.00605002 8.22932e-35)
(0.22068 -0.00405985 -1.23893e-19)
(0.288122 -0.00158155 -2.80857e-19)
(0.398912 0.00332618 9.99249e-19)
(2.00114 1.0947 -1.78445e-18)
(2.23831 1.07717 -2.30412e-18)
(2.44149 1.02818 0)
(2.63664 0.951863 -7.62531e-19)
(2.82328 0.852079 -1.79419e-18)
(2.99256 0.732114 -2.2491e-18)
(3.13696 0.594871 -4.85833e-19)
(3.25048 0.442598 1.26945e-18)
(3.32822 0.276914 -3.54736e-18)
(3.36764 0.0986804 1.35652e-18)
(2.49748 1.1397 2.63369e-19)
(2.72955 1.08022 1.39289e-18)
(2.92306 1.00296 1.43782e-19)
(3.10611 0.908927 6.73021e-19)
(3.28014 0.800064 -1.10134e-18)
(3.43965 0.67793 -4.99078e-18)
(3.58075 0.543754 2.4628e-18)