# Selection   : all
# Cells       : 440
# Volume      : 7.374263e+01
# Time        	max(p)
0.7           	1.791300e+00
0.75          	1.800617e+00
0.8           	1.820375e+00
