/*--------------------------------*- C++ -*----------------------------------*\
  =========                 |
  \\      /  F ield         | OpenFOAM: The Open Source CFD Toolbox
   \\    /   O peration     | Website:  https://openfoam.org
    \\  /    A nd           | Version:  13
     \\/     M anipulation  |
\*---------------------------------------------------------------------------*/
FoamFile
{
    format      ascii;
    class       volScalarField;
    location    "50";
    object      p;
}
// * * * * * * * * * * * * * * * * * * * * * * * * * * * * * * * * * * * * * //

dimensions      [0 2 -2 0 0 0 0];

internalField   nonuniform List<scalar> 
440
(
-1.09658
-1.07476
-1.06573
-1.05192
-1.11553
-1.16525
-1.14012
-1.1138
-1.08808
-1.06512
-1.2991
-1.25652
-1.20238
-1.13343
-1.06182
-1.43764
-1.38048
-1.26252
-1.12672
-0.990399
-1.51786
-1.4355
-1.25311
-1.06702
-0.900357
-1.03787
-1.09733
-1.25473
-1.46578
-1.73822
-1.21269
-1.22004
-1.24891
-1.29508
-1.3656
-1.16972
-1.15108
-1.13534
-1.1358
-1.16576
-1.1321
-1.11167
-1.09488
-1.09198
-1.12435
-1.07697
-1.0564
-1.03063
-1.00384
-1.00727
-0.812591
-0.137416
-0.04512
0.119949
-0.0578906
-1.05325
-0.189372
0.25652
0.121984
-0.0549572
-1.21054
-0.181058
0.623622
0.124875
-0.0850177
-1.2867
-0.21176
0.806845
0.152613
-0.127372
-1.19376
-0.293263
0.585992
0.226785
-0.1258
-0.907672
-0.215638
0.285383
0.297327
-0.0769776
-0.467515
0.098726
0.199113
0.291568
0.0197755
-0.283997
0.236425
0.452079
0.27636
0.0474192
-0.129263
0.196025
0.449577
0.285224
0.0337764
-0.0412741
0.151917
0.517838
0.377928
0.0602663
-0.619584
-0.738451
-0.909994
-1.06995
-1.25868
-0.347946
-0.466368
-0.559706
-0.616745
-0.654095
-0.161411
-0.26636
-0.324699
-0.360591
-0.377825
-0.0481669
-0.13969
-0.191866
-0.215523
-0.215717
0.00564244
-0.0833378
-0.131828
-0.147442
-0.130455
0.822078
0.659677
0.45188
0.220214
-0.0321708
0.372278
0.199422
-0.00983223
-0.248891
-0.524961
-0.062154
-0.239877
-0.464119
-0.712348
-0.980579
-0.45167
-0.632348
-0.864074
-1.1094
-1.32088
-0.713549
-0.904762
-1.12375
-1.3522
-1.49417
1.99225
2.01912
2.04142
2.04864
2.03852
1.77881
1.79478
1.80385
1.79487
1.76365
1.5501
1.5315
1.48799
1.42032
1.32448
1.28373
1.24457
1.16699
1.05661
0.915167
1.05684
0.941169
0.792722
0.623472
0.418391
1.79401
1.78427
1.76174
1.82945
1.89368
1.78236
1.77174
1.73821
1.80317
1.78992
1.77182
1.75657
1.7126
1.76396
1.66113
1.76248
1.73967
1.68515
1.7117
1.47801
1.75441
1.72138
1.65656
1.65856
1.28379
1.74785
1.6951
1.62119
1.5489
1.06984
1.74133
1.66409
1.60326
1.43349
1.20525
1.74892
1.64508
1.57795
1.38927
1.22874
1.74127
1.61609
1.564
1.33415
1.24604
1.77845
1.61439
1.55573
1.30375
1.26294
0.782803
0.462116
0.106023
-0.213598
-0.420306
0.668398
0.439889
0.199368
-0.0157356
-0.199076
0.655957
0.471376
0.289217
0.12467
-0.0375697
0.727111
0.54508
0.371118
0.215346
0.0688724
0.75724
0.573889
0.407215
0.259413
0.120356
-0.720395
-0.614757
-0.477303
-0.366115
-0.299708
-0.780642
-0.726958
-0.624122
-0.541752
-0.492971
-0.714555
-0.671298
-0.614464
-0.567747
-0.538458
-0.58681
-0.553529
-0.518223
-0.491792
-0.4732
-0.49459
-0.476174
-0.456934
-0.445365
-0.463994
-0.445765
-0.438699
-0.424639
-0.422573
-0.400812
-0.44089
-0.438921
-0.435701
-0.437894
-0.434251
-0.425366
-0.440147
-0.4759
-0.527322
-0.567293
-0.341847
-0.344036
-0.360455
-0.385721
-0.381753
-0.325046
-0.408808
-0.598364
-0.827888
-0.95238
-0.521359
0.791112
0.204562
0.0561604
-0.0404641
-0.436554
0.869429
0.114121
0.0549923
-0.0600493
-0.288709
0.946617
0.022784
0.0685633
-0.0681665
-0.161883
0.731716
-0.0403707
0.0908548
-0.067735
-0.45148
0.1999
-0.130908
0.108191
-0.0605591
-0.065975
0.557862
0.206216
0.0688583
0.00855692
-0.406108
0.620683
0.263642
0.0804959
-0.0108164
-0.26085
-0.480899
-0.493603
-0.486394
-0.270686
-0.277424
-0.476111
-0.518847
-0.474752
-0.488855
1.79608
1.7827
1.75471
1.71354
1.65889
1.94968
1.97258
1.98313
1.97983
1.96322
2.07423
2.1083
2.13641
2.15392
2.15814
2.13377
2.17194
2.21203
2.24469
2.26022
2.10488
2.13896
2.17597
2.20581
2.21837
0.0699102
-0.0153791
-0.148325
-0.311772
-0.482613
0.562151
0.451665
0.303242
0.126367
-0.0822229
1.00228
0.886614
0.748765
0.587942
0.397798
1.35017
1.26257
1.15572
1.02739
0.877383
1.62697
1.56867
1.49246
1.40131
1.29597
1.8633
1.82257
1.81802
1.84368
1.88448
1.84698
1.81781
1.81376
1.85292
1.92565
1.8327
1.8117
1.8078
1.86331
1.97793
1.81912
1.80431
1.79686
1.86202
1.97549
1.80617
1.79543
1.78098
1.85108
1.95107
1.92158
1.83249
1.81297
1.78247
1.77404
1.87484
1.82163
1.80591
1.7984
1.78904
1.53204
1.36226
1.0539
0.597679
0.0955735
1.59616
1.38536
1.06624
0.614838
0.102643
)
;

boundaryField
{
    left
    {
        type            zeroGradient;
    }
    right
    {
        type            fixedValue;
        value           uniform 0;
    }
    down
    {
        type            zeroGradient;
    }
    up
    {
        type            zeroGradient;
    }
    cylinder
    {
        type            zeroGradient;
    }
    defaultFaces
    {
        type            empty;
    }
}


// ************************************************************************* //
