/*--------------------------------*- C++ -*----------------------------------*\
  =========                 |
  \\      /  F ield         | OpenFOAM: The Open Source CFD Toolbox
   \\    /   O peration     | Website:  https://openfoam.org
    \\  /    A nd           | Version:  13
     \\/     M anipulation  |
\*---------------------------------------------------------------------------*/
FoamFile
{
    format      ascii;
    class       volScalarField;
    location    "0.705";
    object      strainRateViscosityModel:nu;
}
// * * * * * * * * * * * * * * * * * * * * * * * * * * * * * * * * * * * * * //

dimensions      [0 2 -1 0 0 0 0];

internalField   nonuniform List<scalar> 
440
(
9.41955
8.96972
8.5445
8.04237
7.58621
9.68996
9.35816
8.98176
8.48003
7.87556
9.80074
9.53084
9.15876
8.58508
7.84825
9.84962
9.61817
9.25861
8.64755
7.86606
9.86917
9.65606
9.30591
8.68094
7.90878
1.30636
1.79089
2.05037
2.30056
2.36462
3.38523
3.30251
3.31707
3.42549
3.49621
5.89238
5.27151
4.92809
4.72822
4.75795
7.76964
6.99346
6.42038
5.90492
5.82739
8.82068
8.15136
7.55208
6.91822
6.87163
1.8519
0.846347
0.418957
0.155471
0.144937
2.61688
0.909652
0.366204
0.121245
0.0373715
3.51287
1.14928
0.304274
0.0797791
0.0134291
4.09189
1.43681
0.277585
0.0474257
0.0350696
4.60438
1.75413
0.324267
0.011741
0.139338
4.22966
1.74109
0.29871
0.0622394
0.278071
3.71119
1.82406
0.626033
0.313806
0.418956
4.91945
3.20862
1.23887
0.556012
0.544233
7.00945
4.28883
1.91631
0.900331
0.670012
8.27283
5.07679
2.49618
1.30602
0.847841
2.84826
3.68262
4.61977
5.50568
6.14899
3.68374
3.69661
3.77218
3.85214
3.36785
8.22651
8.08654
7.79931
7.38541
6.34637
9.05291
8.99237
8.85904
8.62149
8.16016
9.60671
9.56995
9.48702
9.33805
9.1188
7.50326
8.01244
8.55944
9.01088
9.46419
7.794
8.45164
8.98713
9.37787
9.70864
7.77899
8.55905
9.15942
9.54077
9.80944
7.81627
8.62755
9.25739
9.62275
9.85359
7.89134
8.67366
9.30535
9.65743
9.87034
2.53101
2.47208
2.27224
2.118
2.04686
3.47954
3.43151
3.4719
3.69166
4.2441
4.63649
4.65958
5.04962
5.59893
6.45073
5.68419
5.82615
6.49752
7.18784
8.041
6.7534
6.8418
7.58039
8.24273
8.93539
0.207167
0.0594207
0.279249
0.866222
2.02493
0.177182
0.0750804
0.224405
0.88549
2.66001
0.15686
0.0792053
0.169391
1.08092
3.44151
0.145423
0.0653564
0.157812
1.38794
3.94323
0.150252
0.0719407
0.252032
1.73659
4.36538
0.201818
0.109996
0.270582
1.87001
4.10143
0.333396
0.128187
0.272526
1.81026
3.8612
0.663879
0.250726
0.775476
3.03679
4.90788
2.27409
0.817123
1.50972
4.16227
6.96072
5.05669
2.53926
2.42136
5.03816
8.27911
5.94723
5.26623
4.40243
3.51045
2.77983
3.5222
3.99099
3.97087
3.8763
3.76363
6.32099
7.35232
7.77904
8.06771
8.21848
8.12124
8.59994
8.84945
8.98862
9.05203
9.11693
9.33781
9.48741
9.57051
9.60696
9.31087
7.91685
1.39865
3.6302
7.7368
9.08186
7.4408
3.20597
1.64076
6.78905
8.3987
6.57771
4.2085
1.00356
4.14772
6.81566
5.09476
3.4553
1.70062
1.03875
4.50383
3.14534
2.03882
1.37791
0.459961
2.59723
1.61868
1.00245
0.796879
0.926484
1.45619
0.779089
0.579678
0.61285
0.685576
0.801479
0.405908
0.590472
0.75923
0.832514
0.305734
0.50763
0.885245
1.05082
1.11224
0.162338
0.935245
1.2812
1.5174
1.57184
0.190392
0.362315
0.708415
0.775109
0.730189
0.395645
0.500581
0.577498
0.634001
0.618204
0.61419
0.647233
0.463477
0.489809
0.50242
0.966148
0.795703
0.416118
0.349834
0.381927
1.33103
0.846032
0.42162
0.231181
0.264183
1.1056
0.857734
1.12159
1.10693
0.999277
0.283869
0.471519
0.864147
0.918428
0.845752
9.19117
8.83866
7.75881
5.73022
3.55967
8.58729
7.72291
5.8516
3.49152
0.866091
0.964723
0.858494
1.02696
1.6202
2.65823
0.813528
0.767601
0.70409
0.824624
1.52642
1.05961
1.01088
0.84767
0.553123
0.743951
1.38366
1.34662
1.14874
0.797356
0.228152
1.85448
1.80782
1.55586
1.23818
0.59794
7.73633
3.62713
1.39994
7.91509
9.31101
6.78523
1.64054
3.20264
7.4377
9.08249
4.13426
1.01087
4.19437
6.57311
8.40026
1.03674
1.70547
3.43367
5.08562
6.82215
0.476149
1.37635
2.01479
3.1276
4.52669
1.31147
0.543311
0.550693
0.453644
0.176035
0.67719
0.292887
0.467886
0.51989
0.486094
0.398465
0.157237
0.380618
0.621244
0.804353
0.289007
0.0712936
0.34045
0.772618
1.22302
0.244689
0.0441942
0.318613
0.855824
1.58687
5.48113
2.4606
1.03557
0.96174
1.14178
2.88751
1.08821
0.724484
0.555993
0.251987
3.56826
5.73579
7.75999
8.83919
9.19132
0.843482
3.47209
5.84498
7.72153
8.58714
)
;

boundaryField
{
    left
    {
        type            calculated;
        value           nonuniform List<scalar> 
17
(
0.455104
1.12015
2.18475
3.91021
6.58037
0.303186
0.187703
0.137368
0.142574
0.212371
2.9591
2.06126
1.33711
0.817257
0.497714
6.97876
4.57969
)
;
    }
    right
    {
        type            calculated;
        value           nonuniform List<scalar> 
17
(
0.999572
0.847218
0.732319
0.621087
0.504772
0.381331
0.257826
0.132631
0.0297758
0.0124148
0.0434258
0.181593
0.34122
0.474579
0.579526
0.683855
0.839649
)
;
    }
    down
    {
        type            calculated;
        value           nonuniform List<scalar> 
20
(
5.99503
2.99964
1.14507
1.04429
1.85299
4.27034
6.38387
8.13144
9.01581
9.30927
9.3091
9.01516
8.12995
6.37981
4.2641
1.83163
0.932361
1.18802
1.16386
1.04664
)
;
    }
    up
    {
        type            calculated;
        value           nonuniform List<scalar> 
20
(
8.54861
5.40475
2.72567
1.45535
0.913241
9.69562
9.66615
9.59857
9.47421
9.2934
9.29639
9.47646
9.60017
9.66726
9.69603
5.70466
3.14939
2.66135
5.39393
8.5655
)
;
    }
    cylinder
    {
        type            calculated;
        value           nonuniform List<scalar> 
40
(
1.37208
3.59008
6.11875
7.96042
8.95708
9.50513
9.74577
9.84079
9.88145
9.89745
9.54745
9.76283
9.84855
9.88496
9.89848
2.28509
4.52162
6.69759
8.23402
9.06988
3.04373
1.85032
1.09361
0.445379
0.605418
9.51905
9.33189
8.74232
7.26976
4.9862
9.51888
9.33115
8.74027
7.26153
4.95761
2.96579
1.73314
1.07388
0.668116
0.103678
)
;
    }
    defaultFaces
    {
        type            empty;
    }
}


// ************************************************************************* //
