/*--------------------------------*- C++ -*----------------------------------*\
  =========                 |
  \\      /  F ield         | OpenFOAM: The Open Source CFD Toolbox
   \\    /   O peration     | Website:  https://openfoam.org
    \\  /    A nd           | Version:  13
     \\/     M anipulation  |
\*---------------------------------------------------------------------------*/
FoamFile
{
    format      ascii;
    class       surfaceScalarField;
    location    "0.2475";
    object      phi;
}
// * * * * * * * * * * * * * * * * * * * * * * * * * * * * * * * * * * * * * //

dimensions      [0 3 -1 0 0 0 0];

internalField   nonuniform List<scalar> 
3485
(
0.00314176
-0.0262837
0.023142
0.0107144
-0.084085
0.0765124
0.0203441
-0.122432
0.112803
0.0304684
-0.140186
0.130061
0.0404189
-0.145288
0.135337
0.0500065
-0.144512
0.134924
0.0591984
-0.141549
0.132357
0.0679655
-0.137974
0.129207
0.0762411
-0.134263
0.125987
-0.13032
0.12242
0.0841405
0.00335802
-0.0296417
0.0109553
-0.0916823
0.0202775
-0.131755
0.0298669
-0.149775
0.039207
-0.154628
0.0482357
-0.153541
0.0570282
-0.150342
0.0656872
-0.146634
0.0743714
-0.142947
-0.139364
0.0834159
0.00354886
-0.0331906
0.0110835
-0.0992169
0.0199573
-0.140628
0.0288234
-0.158641
0.0372966
-0.163101
0.0453901
-0.161634
0.0531985
-0.15815
0.0607964
-0.154231
0.0682257
-0.150377
-0.146636
0.0754979
0.00372723
-0.0369178
0.0111352
-0.106625
0.0194858
-0.148979
0.0275817
-0.166737
0.0351953
-0.170715
0.0424381
-0.168877
0.0494506
-0.165163
0.0563247
-0.161105
0.0631202
-0.157172
-0.153495
0.0699788
0.00384511
-0.0407629
0.0109911
-0.113771
0.0186574
-0.156645
0.0258192
-0.173899
0.032403
-0.177298
0.0386017
-0.175076
0.0445841
-0.171145
0.0504472
-0.166969
0.056251
-0.162976
-0.159301
0.062057
0.00390084
-0.0446638
0.0106538
-0.120524
0.0175076
-0.163499
0.0236394
-0.180031
0.0291314
-0.18279
0.0342509
-0.180195
0.039189
-0.176083
0.0440428
-0.171822
0.0488615
-0.167795
-0.164136
0.0536968
0.00386372
-0.0485275
0.0100622
-0.126722
0.0159538
-0.169391
0.0209365
-0.185013
0.0252409
-0.187095
0.0291938
-0.184148
0.032998
-0.179887
0.0367477
-0.175572
0.0404863
-0.171533
-0.167887
0.0442367
0.00372342
-0.0522509
0.00920992
-0.132209
0.0140085
-0.174189
0.0177543
-0.188759
0.0208135
-0.190154
0.0235532
-0.186888
0.026177
-0.182511
0.02877
-0.178165
0.0313661
-0.174129
-0.170489
0.0339686
0.00346661
-0.0557175
0.00808545
-0.136828
0.011673
-0.177777
0.0141156
-0.191202
0.0158872
-0.191926
0.0173787
-0.188379
0.018787
-0.18392
0.0201863
-0.179564
0.0216023
-0.175545
-0.171909
0.0230216
0.00309676
-0.0588143
0.00670969
-0.140441
0.00900175
-0.180069
0.0101053
-0.192305
0.0105682
-0.192389
0.010798
-0.188609
0.0109725
-0.184094
0.0111561
-0.179748
0.0113756
-0.175765
0.0116118
-0.172145
0.00150983
-0.00364389
0.00213407
0.00794289
-0.0132872
0.0068541
0.0182007
-0.0204067
0.0101489
0.0305122
-0.0241232
0.0118117
0.0436021
-0.0254824
0.0123924
0.0567885
-0.0256053
0.0124189
0.0697696
-0.0251911
0.01221
0.0824358
-0.0245877
0.0119215
0.0947629
-0.0239464
0.0116193
-0.0234823
0.106904
0.0113412
0.00156638
-0.00521027
0.00805448
-0.0197753
0.018321
-0.0306733
0.0305952
-0.0363974
0.0436171
-0.0385043
0.0567199
-0.038708
0.0696124
-0.0380835
0.0821911
-0.0371665
0.0944368
-0.0361921
-0.0355465
0.106501
0.00164794
-0.00685821
0.00821885
-0.0263462
0.0185034
-0.0409578
0.0307301
-0.0486241
0.0436603
-0.0514345
0.0566484
-0.0516961
0.0694176
-0.0508527
0.081873
-0.0496218
0.0940019
-0.048321
-0.0474972
0.105953
0.0017599
-0.00861811
0.00844581
-0.0330321
0.0187571
-0.051269
0.0309215
-0.0607885
0.0437305
-0.0642435
0.0565671
-0.0645328
0.0691741
-0.0634597
0.0814674
-0.0619151
0.0934426
-0.0602962
-0.0592952
0.105241
0.00190644
-0.0105246
0.00874092
-0.0398666
0.0190844
-0.0616125
0.031166
-0.0728701
0.0438178
-0.0768952
0.0564613
-0.0771763
0.0688646
-0.075863
0.0809571
-0.0740076
0.0927433
-0.0720825
-0.0708999
0.104348
0.00208878
-0.0126133
0.00910091
-0.0468787
0.0194732
-0.0719848
0.0314411
-0.084838
0.0438907
-0.0893449
0.0562935
-0.0895791
0.0684495
-0.088019
0.0803052
-0.0858632
0.0918723
-0.0836497
-0.0822662
0.103239
0.00230315
-0.0149165
0.00950887
-0.0540844
0.0198894
-0.0823653
0.0316951
-0.0966438
0.0438818
-0.101532
0.0559833
-0.101681
0.0678406
-0.0998762
0.0794216
-0.0974442
0.0907415
-0.0949696
-0.0933303
0.101806
0.0025344
-0.0174509
0.00991985
-0.0614699
0.0202551
-0.0927006
0.0318188
-0.108207
0.0436517
-0.113364
0.0553614
-0.11339
0.0668363
-0.111351
0.078069
-0.108677
0.0890691
-0.10597
-0.10394
0.0996791
0.00275084
-0.0202017
0.0102523
-0.0689714
0.0204367
-0.102885
0.0316249
-0.119396
0.0429539
-0.124693
0.0541108
-0.124547
0.0650317
-0.122272
0.0757303
-0.119375
0.0861941
-0.116434
-0.113749
0.096003
0.00294022
0.0104812
0.0203991
0.0310647
0.0417084
0.0520857
0.0621711
0.072003
0.0815569
0.0902281
0.156445
-0.140708
0.0911671
0.181911
-0.101254
0.0757877
0.194667
-0.0753742
0.0626187
0.200799
-0.0568147
0.0506823
0.20346
-0.0427181
0.0400571
0.204185
-0.031588
0.0308634
0.203778
-0.0226337
0.0230404
0.202676
-0.0152623
0.0163643
0.201135
-0.00932592
0.0108672
-0.00238012
0.00432441
0.155438
-0.189645
0.180944
-0.12676
0.193942
-0.0883722
0.200319
-0.0631911
0.203177
-0.0455768
0.204063
-0.0324733
0.203793
-0.0223643
0.202817
-0.0142858
0.201396
-0.00790508
-0.000559578
0.153694
-0.237386
0.179108
-0.152175
0.192379
-0.101644
0.199093
-0.0699049
0.202262
-0.0487459
0.203431
-0.0336419
0.203427
-0.0223602
0.202707
-0.0135657
0.201539
-0.00673765
0.00100214
0.151169
-0.283314
0.176388
-0.177394
0.189976
-0.115232
0.197125
-0.0770536
0.200719
-0.05234
0.202293
-0.0352159
0.20268
-0.0227477
0.202346
-0.0132314
0.201563
-0.00595518
0.00217085
0.147832
-0.326799
0.172774
-0.202336
0.186733
-0.129191
0.194418
-0.0847383
0.198553
-0.056475
0.200654
-0.0373165
0.201557
-0.0236514
0.201736
-0.0134099
0.201468
-0.00568704
0.00281404
0.143645
-0.367205
0.168253
-0.226944
0.182658
-0.143596
0.190983
-0.0930637
0.195776
-0.0612677
0.198523
-0.0400636
0.200065
-0.0251932
0.20088
-0.0142252
0.201252
-0.00605957
0.00280175
0.138507
-0.403906
0.162778
-0.251215
0.177745
-0.158563
0.18683
-0.102148
0.1924
-0.066838
0.195912
-0.0435756
0.19821
-0.0274916
0.199782
-0.0157972
0.200918
-0.0071953
0.00200734
0.132338
-0.436564
0.156212
-0.275089
0.171942
-0.174294
0.18195
-0.112156
0.188433
-0.0733204
0.192831
-0.047974
0.196003
-0.0306635
0.198448
-0.0182423
0.200465
-0.00921246
0.000308359
0.124925
-0.465486
0.1483
-0.298465
0.165049
-0.191042
0.176251
-0.123358
0.183843
-0.0809129
0.189277
-0.0534076
0.193448
-0.0348348
0.196883
-0.0216767
0.199896
-0.0122259
-0.00241322
0.117292
-0.49255
0.140087
-0.32126
0.157669
-0.208623
0.16999
-0.13568
0.178738
-0.0896608
0.185297
-0.0599666
0.190569
-0.0401063
0.195096
-0.0262043
0.199213
-0.0163423
-0.0062704
0.368529
-0.436309
-0.424769
0.339645
-0.292377
0.325548
-0.194526
0.319111
-0.129243
0.315794
-0.0863441
0.313783
-0.0579558
0.312428
-0.0387514
0.311501
-0.025277
0.31089
-0.0157312
-0.00602278
0.381372
-0.372476
-0.445205
0.350038
-0.261043
0.333769
-0.178256
0.324999
-0.120473
0.319838
-0.081183
0.316552
-0.0546699
0.314368
-0.0365676
0.312921
-0.0238302
0.312003
-0.0148131
-0.00566487
0.395778
-0.311588
-0.456666
0.361703
-0.226967
0.342121
-0.158675
0.330694
-0.109045
0.323687
-0.0741758
0.31918
-0.0501635
0.316209
-0.0335964
0.314268
-0.0218894
0.313055
-0.0135996
-0.00519825
0.405517
-0.254724
-0.462382
0.370593
-0.192043
0.349074
-0.137156
0.335683
-0.0956545
0.327152
-0.0656443
0.32158
-0.0445913
0.3179
-0.0299163
0.315507
-0.0194967
0.314019
-0.0121122
-0.00462926
0.412541
-0.202269
-0.464995
0.377646
-0.157148
0.354845
-0.114356
0.339956
-0.0807653
0.330179
-0.0558678
0.323701
-0.0381129
0.319403
-0.0256184
0.316611
-0.0167044
0.314878
-0.0103793
-0.00396735
0.417477
-0.153986
-0.46576
0.383083
-0.122754
0.359478
-0.0907502
0.343482
-0.0647701
0.332724
-0.0451095
0.325503
-0.0308922
0.320688
-0.020803
0.317556
-0.0135726
0.315612
-0.00843516
-0.00322433
0.420822
-0.109237
-0.465571
0.387104
-0.0890351
0.363027
-0.0666731
0.346248
-0.0479918
0.334751
-0.0336117
0.326952
-0.0230934
0.321725
-0.0155765
0.318321
-0.0101681
0.316204
-0.00631864
-0.00241396
0.422712
-0.0669162
-0.465033
0.389638
-0.0559612
0.36535
-0.0423848
0.348087
-0.0307283
0.336094
-0.0216188
0.327893
-0.0148928
0.322375
-0.0100585
0.318775
-0.0065683
0.316533
-0.00407648
-0.00155369
0.418904
-0.0244267
-0.461393
0.386553
-0.0236102
0.362657
-0.0184895
0.345505
-0.0135762
0.333489
-0.00960286
0.32523
-0.00663306
0.319657
-0.0044862
0.316022
-0.00293253
0.313759
-0.00181374
-0.000684996
0.339695
-0.364121
0.316084
0.297595
0.284019
0.274416
0.267783
0.263297
0.260364
0.25855
0.456983
0.0103777
-0.455748
0.457399
0.0226047
0.456972
0.0343958
0.455653
0.0455557
0.453164
0.0561864
0.450039
0.0651815
0.444382
0.075636
0.440259
0.0796209
0.429097
0.0945782
0.0884678
0.438502
0.00932236
-0.437447
0.439738
0.0213685
0.441056
0.0330782
0.442453
0.0441583
0.443621
0.0550184
0.444989
0.0638138
0.445464
0.0751606
0.446504
0.0785817
0.447438
0.0936441
0.0907001
0.423099
0.0080791
-0.421856
0.425029
0.0194393
0.427573
0.0305344
0.43071
0.0410205
0.434332
0.0513962
0.438373
0.059773
0.442987
0.0705468
0.44713
0.074439
0.453022
0.0877517
0.0870564
0.411154
0.00678039
-0.409856
0.413483
0.0171106
0.416803
0.0272141
0.42105
0.0367736
0.426246
0.0461999
0.432047
0.0539719
0.439119
0.0634748
0.445799
0.0677591
0.454783
0.0787677
0.079458
0.401805
0.00543944
-0.400464
0.404422
0.0144939
0.408281
0.0233547
0.413301
0.0317533
0.419543
0.0399581
0.426629
0.0468864
0.435241
0.054863
0.443899
0.059101
0.454812
0.0678547
0.0692745
0.394696
0.00405508
-0.393312
0.397518
0.0116715
0.40175
0.0191227
0.407309
0.0261942
0.414241
0.033027
0.422228
0.0388994
0.431789
0.0453012
0.441789
0.0491009
0.453848
0.055796
0.0573625
0.389484
0.00261642
-0.388045
0.392471
0.00868508
0.396977
0.0146164
0.402922
0.0202485
0.410314
0.0256355
0.418904
0.0303092
0.429033
0.0351729
0.439894
0.0382394
0.452612
0.0430783
0.0444027
0.385327
0.00103268
-0.383743
0.388531
0.00548056
0.393344
0.00980359
0.399678
0.0139149
0.407486
0.0178269
0.416561
0.0212345
0.427064
0.0246705
0.438457
0.0268461
0.451498
0.0300374
0.0308671
0.37311
-0.000532387
-0.371545
0.376755
0.00183516
0.382261
0.00429821
0.389528
0.0066477
0.39844
0.00891444
0.408735
0.01094
0.420435
0.0129702
0.432992
0.0142888
0.446882
0.0161473
0.0163563
0.271723
-0.272255
0.273558
0.277856
0.284504
0.293419
0.304359
0.317329
0.331618
0.347765
0.0784521
0.125525
-0.114058
-0.0899183
0.0679611
0.127836
-0.117345
0.0581381
0.130704
-0.120881
0.0485948
0.134251
-0.124708
0.0390388
0.138197
-0.128641
0.0293516
0.142196
-0.132508
0.0196358
0.144919
-0.135203
0.0104392
0.141458
-0.132262
0.00314112
0.119344
-0.112046
0.0586993
-0.0555582
0.0773453
0.135502
-0.0873232
0.0672197
0.137962
0.0572222
0.140701
0.0474288
0.144044
0.0377485
0.147878
0.0281085
0.151836
0.0186051
0.154422
0.00975987
0.150303
0.00287101
0.126233
0.0615703
0.0704196
0.143964
-0.0788815
0.0615508
0.14683
0.0525318
0.14972
0.0434923
0.153084
0.0344531
0.156917
0.0254241
0.160865
0.0165618
0.163284
0.00843549
0.15843
0.00231834
0.13235
0.0638887
0.0602682
0.150977
-0.0672807
0.0529172
0.154181
0.0452828
0.157355
0.0374481
0.160919
0.0294745
0.164891
0.0214378
0.168901
0.0135717
0.171151
0.00651847
0.165483
0.00152834
0.13734
0.065417
0.0496045
0.156822
-0.0554501
0.0435357
0.16025
0.0371826
0.163708
0.0305758
0.167525
0.0237725
0.171694
0.0168785
0.175795
0.0101863
0.177843
0.00439463
0.171275
0.000668892
0.141066
0.0660859
0.0394195
0.161752
-0.0443486
0.0343593
0.16531
0.0290824
0.168985
0.0235915
0.173016
0.0179276
0.177358
0.0122045
0.181518
0.00674232
0.183305
0.00229817
0.175719
-0.000162108
0.143526
0.0659238
0.0295083
0.165826
-0.0335823
0.0253698
0.169449
0.0210879
0.173267
0.016656
0.177448
0.0121058
0.181908
0.007556
0.186068
0.00335807
0.187503
8.91238e-05
0.178988
-0.000866483
0.144482
0.0650573
0.0195174
0.168953
-0.0226445
0.0163585
0.172608
0.0131007
0.176524
0.00974102
0.180808
0.00630984
0.185339
0.00293404
0.189444
-5.47794e-05
0.190492
-0.00169352
0.180626
-0.00150937
0.144298
0.0635479
0.00934498
0.17105
-0.0114419
0.00723892
0.174714
0.00507108
0.178692
0.00285085
0.183028
0.000612189
0.187578
-0.00150223
0.191558
-0.00305466
0.192044
-0.00345037
0.181022
-0.00210109
0.142949
0.0614469
-0.000798578
-0.000296391
-0.00184958
-0.00290524
-0.00397132
-0.00500243
-0.00583273
-0.00609386
-0.00514056
-0.00263257
0.106246
0.022847
-0.117581
-0.011512
0.0945597
0.0234558
-0.0117697
0.0825271
0.0240776
-0.0120449
0.070132
0.0247355
-0.0123404
0.0573586
0.0254349
-0.0126616
0.0441981
0.0261641
-0.0130036
0.0307252
0.0267723
-0.0132994
0.0174171
0.026517
-0.0132089
0.00592179
0.0231388
-0.0116435
0.0122354
-0.00631364
0.105365
0.0341459
-0.116664
0.0937317
0.0350891
0.0817643
0.0360449
0.0694471
0.0370527
0.0567637
0.0381184
0.0437051
0.0392226
0.0303479
0.0401295
0.0171721
0.0396928
0.00582019
0.0344907
0.0180556
0.104097
0.0453875
-0.115338
0.0925492
0.0466364
0.0806831
0.047911
0.068482
0.0492538
0.0559294
0.050671
0.0430168
0.0521352
0.0298236
0.0533227
0.0168338
0.0526826
0.00567809
0.0456465
0.0237337
0.102361
0.0565398
-0.113513
0.0909382
0.0580591
0.0792161
0.0596331
0.0671778
0.0612921
0.0548058
0.0630429
0.0420924
0.0648487
0.0291218
0.0662933
0.0163842
0.0654201
0.00548921
0.0565415
0.0292229
0.10005
0.0675686
-0.111078
0.0888023
0.0693063
0.0772841
0.0711513
0.0654732
0.073103
0.0533481
0.075168
0.0409002
0.0772966
0.0282197
0.0789739
0.015809
0.0778307
0.00526421
0.0670863
0.0344871
0.0970049
0.0784157
-0.107852
0.0860005
0.0803107
0.0747563
0.0823955
0.0632473
0.0846121
0.0514491
0.0869662
0.0393516
0.089394
0.0270504
0.0912751
0.0150579
0.0898231
0.00495263
0.0771916
0.0394398
0.0931992
0.0889322
-0.103716
0.0826148
0.0908951
0.0718089
0.0932014
0.0607293
0.0956917
0.0493451
0.0983503
0.0376555
0.101084
0.0257765
0.103154
0.0142455
0.101354
0.00462389
0.0868133
0.0440636
0.0874697
0.098929
-0.0974665
0.0774653
0.1009
0.0673026
0.103364
0.0569066
0.106088
0.0462158
0.109041
0.035209
0.11209
0.0240024
0.114361
0.0131469
0.11221
0.00418132
0.0957789
0.048245
0.0838658
0.107819
-0.0927562
0.0747215
0.110044
0.0650366
0.113049
0.0549105
0.116214
0.0444406
0.119511
0.0336914
0.12284
0.0228183
0.125234
0.0123858
0.122642
0.0038852
0.10428
0.0521302
0.0732094
-0.0794485
0.0659084
0.0580764
0.0495826
0.0404522
0.0307835
0.0208143
0.0111947
0.00342804
0.201489
0.0137293
-0.0172282
0.204008
0.0252053
-0.0277244
0.20422
0.0308443
-0.0310562
0.205127
0.032746
-0.033653
0.204598
0.0388419
-0.0383137
0.202293
0.0474114
-0.0451061
0.196758
0.0594049
-0.0538694
0.186035
0.075534
-0.0648112
0.162076
0.10096
-0.077001
0.136584
-0.0920889
0.201267
0.0104519
0.203653
0.0228192
0.20381
0.030688
0.204645
0.0319101
0.204014
0.0394732
0.201557
0.0498689
0.195831
0.0651309
0.184801
0.0865639
0.160737
0.125024
0.180657
0.20092
0.00752206
0.203019
0.0207199
0.203024
0.0306832
0.203654
0.0312797
0.202786
0.0403415
0.200051
0.0526032
0.194034
0.0711487
0.182595
0.0980022
0.158384
0.149236
0.223702
0.200441
0.00507063
0.202109
0.0190525
0.201873
0.0309187
0.202164
0.030989
0.200926
0.0415796
0.197789
0.0557399
0.191364
0.0775737
0.179408
0.109958
0.154983
0.173661
0.265172
0.199825
0.00323521
0.200928
0.0179502
0.200372
0.0314744
0.200187
0.0311739
0.198449
0.0433175
0.194784
0.0594046
0.187821
0.0845367
0.175241
0.122538
0.150861
0.198041
0.304955
0.199064
0.00216125
0.199483
0.0175313
0.198537
0.0324205
0.197738
0.0319727
0.195374
0.0456813
0.191053
0.0637253
0.183401
0.0921886
0.170086
0.135853
0.146335
0.221792
0.343438
0.198148
0.00200314
0.197783
0.0178957
0.196387
0.0338173
0.194832
0.033527
0.191723
0.0487906
0.186616
0.0688322
0.178133
0.100672
0.163896
0.150091
0.141355
0.244332
0.381078
0.197069
0.00292427
0.195843
0.0191211
0.193944
0.035717
0.191489
0.0359818
0.187523
0.0527558
0.1815
0.0748555
0.172086
0.110086
0.156698
0.165478
0.135398
0.265632
0.41901
0.195826
0.00508794
0.193689
0.0212586
0.191231
0.0381748
0.187725
0.0394874
0.182802
0.0576793
0.17575
0.0819075
0.165406
0.12043
0.149464
0.18142
0.129868
0.285228
0.456122
0.194541
0.00853703
0.191347
0.0244521
0.188304
0.0412185
0.183524
0.044267
0.17764
0.0635635
0.169434
0.0901134
0.157528
0.132336
0.139892
0.199056
0.119278
0.305842
0.495951
0.303167
0.00738007
0.305544
0.0220752
0.30926
0.0375024
0.310968
0.042559
0.313427
0.0611046
0.316289
0.0872514
0.321029
0.127596
0.330832
0.189253
0.356579
0.280095
0.43645
0.41608
0.303951
0.00543906
0.306675
0.0193514
0.310773
0.033404
0.313438
0.0398947
0.317192
0.0573503
0.322238
0.0822055
0.330362
0.119472
0.345003
0.174612
0.375202
0.249896
0.377278
0.434374
0.304697
0.00275249
0.307943
0.0161055
0.312296
0.0290504
0.315858
0.036333
0.320751
0.0524577
0.327622
0.0753339
0.338413
0.108682
0.356261
0.156764
0.388998
0.217159
0.318542
0.447734
0.305453
-0.000690601
0.309209
0.0123494
0.3138
0.0244599
0.318121
0.0320116
0.324035
0.0465444
0.332453
0.0669157
0.345317
0.0958175
0.365484
0.136598
0.399033
0.183609
0.262296
0.455279
0.306255
-0.00493504
0.310485
0.00811915
0.315246
0.0196987
0.320176
0.0270818
0.32696
0.03976
0.336647
0.0572295
0.351078
0.0813866
0.372865
0.11481
0.406101
0.150373
0.209479
0.458918
0.307172
-0.0100969
0.3118
0.00349155
0.316607
0.014891
0.321979
0.0217101
0.329469
0.0322696
0.340156
0.0465427
0.355737
0.0658061
0.378572
0.0919745
0.41099
0.117956
0.160284
0.460185
0.308252
-0.0163386
0.313182
-0.00143858
0.317855
0.0102183
0.323489
0.0160756
0.331518
0.0242412
0.342955
0.0351052
0.35935
0.0494113
0.382797
0.068528
0.414285
0.086467
0.114376
0.460194
0.309553
-0.0238818
0.314626
-0.00651086
0.318882
0.00596195
0.324583
0.0103743
0.332992
0.0158328
0.344958
0.0231392
0.361909
0.0324603
0.385668
0.0447686
0.416338
0.0557967
0.0712354
0.459479
0.308911
-0.0307827
0.313186
-0.010786
0.316865
0.00228314
0.322564
0.00467574
0.331199
0.00719792
0.343506
0.0108315
0.36083
0.0151372
0.384711
0.0208874
0.414922
0.0255855
0.0318261
0.454331
0.271227
0.260441
0.262725
0.2674
0.274598
0.28543
0.300567
0.321454
0.34704
0.378866
0.429926
-0.103765
0.43392
-0.0913169
0.436174
-0.0811357
0.438792
-0.0698988
0.441996
-0.0586538
0.445423
-0.0477759
0.448736
-0.0368959
0.451649
-0.0255568
0.45404
-0.0138332
-0.00200479
0.434811
-0.104201
0.434714
-0.0912205
0.433856
-0.0802778
0.433705
-0.0697472
0.43411
-0.0590594
0.434657
-0.0483222
0.435191
-0.0374301
0.435821
-0.0261872
0.436595
-0.0146069
-0.00285645
0.441441
-0.0979091
0.436691
-0.0864703
0.432333
-0.0759191
0.428633
-0.0660473
0.425805
-0.0562322
0.423713
-0.04623
0.422277
-0.0359938
0.421511
-0.0254208
0.42139
-0.014486
-0.00332299
0.444963
-0.0875927
0.436608
-0.0781155
0.429501
-0.0688121
0.423487
-0.0600329
0.418636
-0.0513813
0.414882
-0.0424763
0.412132
-0.0332438
0.410365
-0.0236539
0.409595
-0.013716
-0.00358361
0.446347
-0.0750215
0.435717
-0.0674854
0.426706
-0.0598009
0.41908
-0.0524065
0.412788
-0.04509
0.407803
-0.0374915
0.404083
-0.0295235
0.401617
-0.0211876
0.400418
-0.0125169
-0.0036298
0.446357
-0.0611942
0.434337
-0.0554653
0.42404
-0.0495039
0.415301
-0.0436677
0.408035
-0.0378234
0.402219
-0.0316755
0.397839
-0.0251436
0.394893
-0.0182414
0.393386
-0.0110103
-0.00355522
0.445651
-0.0466512
0.432793
-0.0426074
0.42168
-0.0383914
0.412222
-0.0342091
0.404322
-0.029924
0.397962
-0.0253148
0.393143
-0.0203246
0.389875
-0.0149741
0.388177
-0.00931217
-0.00342351
0.44444
-0.0316127
0.431013
-0.0291801
0.41938
-0.0267582
0.409446
-0.0242759
0.401111
-0.0215885
0.394362
-0.0185659
0.38922
-0.0151826
0.385714
-0.011468
0.383877
-0.00747497
-0.00328999
0.438153
-0.0154343
0.423931
-0.0149578
0.411552
-0.0143793
0.400838
-0.0135619
0.391695
-0.0124459
0.384144
-0.0110146
0.378262
-0.00930068
0.374149
-0.00735523
0.371897
-0.00522276
-0.00293806
0.363432
0.348474
0.334095
0.320533
0.308087
0.297072
0.287771
0.280416
0.275193
0.00813405
0.072311
-0.0804451
0.0159089
0.175359
-0.183134
0.0192346
0.224485
-0.227811
0.0193662
0.239641
-0.239773
0.0180469
0.240591
-0.239272
0.0162849
0.237412
-0.23565
0.0144499
0.233591
-0.231756
0.0126352
0.229631
-0.227816
0.0109026
0.224132
-0.2224
0.212381
0.00941469
-0.210893
0.00973068
0.0625804
0.0214827
0.163607
0.0293175
0.21665
0.0336745
0.235285
0.0363171
0.237949
0.0384653
0.235264
0.0406176
0.231439
0.0427856
0.227463
0.0444746
0.222443
0.212609
0.0442463
0.010321
0.0522593
0.0250487
0.14888
0.0369883
0.204711
0.0455475
0.226725
0.0522001
0.231296
0.0582532
0.229211
0.0643634
0.225329
0.0706179
0.221208
0.0763755
0.216686
0.209693
0.0792919
0.0098839
0.0423754
0.0261684
0.132595
0.0412538
0.189626
0.0535296
0.214449
0.0639035
0.220922
0.0735649
0.219549
0.0832612
0.215632
0.0932463
0.211223
0.103183
0.206749
0.201605
0.111271
0.0086486
0.0337268
0.0249505
0.116293
0.0418515
0.172725
0.0569395
0.199361
0.070408
0.207454
0.0831195
0.206838
0.0957725
0.202979
0.108727
0.198269
0.121988
0.193488
0.188606
0.134987
0.00697424
0.0267526
0.0220154
0.101252
0.0393188
0.155421
0.0560412
0.182639
0.0716762
0.191819
0.0866219
0.191892
0.101382
0.188219
0.116301
0.18335
0.131547
0.178242
0.172788
0.147365
0.00524979
0.0215028
0.0183297
0.0881722
0.0349284
0.138822
0.0521487
0.165419
0.0689385
0.175029
0.0852178
0.175613
0.101212
0.172224
0.117153
0.16741
0.13317
0.162225
0.156278
0.14968
0.00376817
0.0177346
0.014786
0.0771544
0.0300656
0.123543
0.0468949
0.14859
0.0638817
0.158042
0.0805494
0.158945
0.0968417
0.155932
0.112831
0.15142
0.128639
0.146417
0.140605
0.144312
0.00270737
0.0150272
0.0120313
0.0678305
0.0259317
0.109642
0.0419738
0.132547
0.0586286
0.141388
0.0751866
0.142387
0.0914116
0.139707
0.107293
0.135539
0.122939
0.130771
0.124635
0.138909
0.00204733
0.0129799
0.0101687
0.059709
0.0228708
0.0969404
0.0379534
0.117465
0.0538462
0.125495
0.0696859
0.126548
0.0850536
0.124339
0.0997404
0.120852
0.113512
0.116999
0.112009
0.126138
0.00172374
0.0112562
0.00913723
0.0522956
0.0210131
0.0850645
0.0353318
0.103146
0.0505824
0.110244
0.0659126
0.111217
0.080928
0.109324
0.0954975
0.106283
0.109598
0.102899
0.0998402
0.121766
0.00160105
0.00965512
0.00864576
0.0452509
0.0200078
0.0737024
0.0337783
0.0893757
0.0485131
0.0955092
0.0633888
0.0963417
0.0780122
0.0947004
0.0922261
0.0920688
0.105993
0.0891317
0.0871642
0.118669
0.0015425
0.00811262
0.00836035
0.038433
0.0193557
0.0627071
0.0326736
0.0760579
0.0469162
0.0812667
0.0612874
0.0819705
0.075404
0.0805838
0.089106
0.0783668
0.10234
0.0758972
0.0744938
0.115011
0.00150217
0.00661045
0.00815958
0.0317756
0.0188852
0.0519815
0.0318521
0.0630909
0.0456965
0.0674223
0.0596499
0.068017
0.0733456
0.0668882
0.0866295
0.0650829
0.0994459
0.0630807
0.062033
0.111907
0.00147458
0.00513587
0.00802121
0.025229
0.0185625
0.0414402
0.0312885
0.050365
0.044859
0.0538518
0.0585292
0.0543468
0.0719487
0.0534686
0.0849742
0.0520574
0.0975583
0.0504967
0.049723
0.109868
0.001456
0.00367987
0.00792757
0.0187574
0.0183479
0.0310198
0.0309189
0.0377941
0.0443166
0.040454
0.0578133
0.0408501
0.0710725
0.0402094
0.0839611
0.0391689
0.0964398
0.0380179
0.0374815
0.108681
0.00144526
0.00223461
0.0078684
0.0123343
0.0182117
0.0206765
0.0306861
0.0253197
0.0439793
0.0271608
0.0573752
0.0274542
0.0705469
0.0270378
0.0833681
0.0263476
0.0958044
0.0255815
0.0252634
0.108023
0.00144347
0.000791139
0.00784039
0.00593733
0.0181368
0.01038
0.0305511
0.0129054
0.0437801
0.0139318
0.0571158
0.0141185
0.0702376
0.013916
0.0830242
0.0135611
0.0954437
0.0131621
0.0130505
0.107657
0.00145197
-0.00066083
0.00784293
-0.000453634
0.018113
0.000109941
0.0304871
0.000531377
0.0436703
0.00074858
0.0569617
0.00082709
0.070046
0.000831605
0.0828055
0.000801555
0.0952102
0.000757416
0.000845371
0.107415
0.00147324
0.00787371
0.0181325
0.0304756
0.0436166
0.0568626
0.0699042
0.0826272
0.0950039
0.107191
0.138236
0.271725
-0.288195
0.150272
0.117906
-0.129942
0.159738
0.040452
-0.0499177
0.167046
0.00564194
-0.0129501
0.173177
-0.00802883
0.00189749
0.178637
-0.0121227
0.00666343
0.183647
-0.0121382
0.00712807
0.188301
-0.0105402
0.00588554
0.192648
-0.0085103
0.00416404
-0.00561071
0.00168189
0.141296
0.249098
0.156409
0.102793
0.166382
0.0304796
0.173387
-0.00136393
0.178728
-0.0133698
0.183216
-0.0166106
0.187162
-0.0160836
0.190704
-0.0140824
0.193921
-0.0117275
-0.0084181
0.144196
0.219913
0.161799
0.0851901
0.17227
0.0200084
0.178978
-0.00807164
0.183723
-0.0181149
0.187374
-0.0202613
0.190371
-0.0190814
0.192913
-0.0166239
0.195111
-0.0139259
-0.010211
0.14701
0.18481
0.166623
0.0655772
0.177555
0.00907652
0.184033
-0.0145495
0.1882
-0.0222825
0.191107
-0.023168
0.193265
-0.0212391
0.194919
-0.0182784
0.196214
-0.0152204
-0.0111019
0.149775
0.144903
0.170899
0.0444536
0.182194
-0.00221825
0.188466
-0.020822
0.192142
-0.025958
0.194404
-0.0254298
0.195832
-0.0226677
0.196716
-0.0191627
0.197225
-0.015729
-0.0112075
0.152159
0.101425
0.174558
0.0220547
0.186158
-0.0138176
0.192259
-0.0269234
0.195525
-0.0292239
0.197246
-0.0271504
0.19806
-0.0234826
0.198295
-0.0193974
0.19814
-0.0155738
-0.0106491
0.154102
0.0553449
0.177549
-0.0013922
0.189409
-0.0256776
0.195384
-0.0328982
0.198329
-0.032169
0.199618
-0.0284391
0.199939
-0.0238034
0.199648
-0.0191066
0.198954
-0.0148804
-0.00955178
0.155554
0.0074475
0.179817
-0.0256552
0.191912
-0.037773
0.197817
-0.0388032
0.200537
-0.0348887
0.201507
-0.0294093
0.201457
-0.0237528
0.200768
-0.0184177
0.199665
-0.0137774
-0.00804412
0.156454
-0.0415911
0.181323
-0.0505242
0.193637
-0.0500875
0.19954
-0.0447058
0.202135
-0.0374833
0.202903
-0.0301776
0.202606
-0.0234561
0.201649
-0.01746
0.200267
-0.0123955
-0.00625726
0.156767
0.18203
0.194561
0.200538
0.203112
0.203797
0.203382
0.202286
0.200758
0.145973
0.0131529
-0.159126
0.135886
0.0100865
0.130879
0.00500729
0.129514
0.00136492
0.129928
-0.000414045
0.130933
-0.0010045
0.131959
-0.00102641
0.132791
-0.000831649
0.133362
-0.000571404
-0.000221619
0.234903
0.0815302
-0.303281
0.204637
0.0403528
0.192869
0.0167759
0.189461
0.00477278
0.189475
-0.000428587
0.190678
-0.00220772
0.192077
-0.00242508
0.193262
-0.00201689
0.194109
-0.00141841
-0.000564778
0.244844
0.157224
-0.320537
0.21226
0.0729368
0.199828
0.029208
0.196312
0.00828827
0.196385
-0.000500895
0.197668
-0.00349106
0.199146
-0.00390275
0.200396
-0.00326727
0.201295
-0.00231729
-0.000932015
0.239982
0.226628
-0.309386
0.210144
0.102775
0.199069
0.040283
0.196272
0.0110852
0.196693
-0.000922181
0.198164
-0.00496172
0.199724
-0.00546304
0.201013
-0.00455563
0.201928
-0.0032331
-0.00130481
0.234118
-0.295685
0.20695
0.197316
0.195451
0.196426
0.198128
0.199793
0.201123
0.202054
0.0155812
6.84005e-05
-0.0156496
0.0174734
-0.00189214
0.0213253
-0.00385195
0.0275415
-0.00621619
0.037171
-0.0096295
0.0510433
-0.0138724
0.0716611
-0.0206178
0.0959169
-0.0242558
0.128453
-0.0325364
-0.0306724
0.0439365
-0.000542653
-0.0433255
0.0501658
-0.00812137
0.0625183
-0.0162045
0.0820142
-0.0257121
0.109393
-0.0370079
0.144152
-0.0486313
0.185024
-0.0614906
0.226074
-0.0653057
0.268658
-0.0751197
-0.0652956
0.0677281
-0.00230847
-0.0659623
0.0776924
-0.0180857
0.0964009
-0.034913
0.124066
-0.053377
0.159124
-0.072066
0.198126
-0.0876331
0.235923
-0.0992878
0.268991
-0.098374
0.297978
-0.104106
-0.0878551
0.0859
-0.00531114
-0.0828974
0.0983245
-0.0305102
0.120192
-0.0567809
0.149946
-0.0831302
0.183687
-0.105808
0.21676
-0.120706
0.244759
-0.127287
0.269658
-0.123273
0.290699
-0.125147
-0.106542
0.0986682
-0.0945647
0.112404
0.134915
0.163056
0.192235
0.218895
0.241287
0.262326
0.276088
0.0954417
-0.089656
0.0979635
-0.103749
0.0864277
-0.0921214
0.101135
0.0769889
-0.0954452
0.104884
0.0666979
-0.0988677
0.109159
0.0554413
-0.102306
0.113562
0.0432731
-0.10573
0.117898
0.0303869
-0.108493
0.121379
0.0173739
-0.10733
0.120343
0.00596386
-0.0927426
0.104153
-0.0476884
0.0536522
0.105096
-0.0793591
-0.115393
0.094441
-0.0814666
0.0829591
-0.0839634
0.0707488
-0.0866574
0.0579688
-0.0895256
0.0447252
-0.0924864
0.0311435
-0.0949113
0.017713
-0.0938992
0.00607198
-0.0811016
-0.0416164
0.103926
-0.0680861
-0.115199
0.0925242
-0.0700647
0.0808494
-0.0722886
0.0688458
-0.0746538
0.056449
-0.0771288
0.0436122
-0.0796496
0.0303912
-0.0816904
0.0172607
-0.0807687
0.00587372
-0.0697146
-0.0357427
0.105842
-0.0567136
-0.117215
0.094302
-0.0585243
0.0824297
-0.0604162
0.0701667
-0.0623908
0.0574766
-0.0644387
0.044349
-0.066522
0.0308683
-0.0682096
0.0175257
-0.0674262
0.00597852
-0.0581674
-0.0297642
0.106569
-0.0453175
-0.117965
0.0948902
-0.0468453
0.082862
-0.048388
0.0704615
-0.0499903
0.0576684
-0.0516456
0.044471
-0.0533246
0.0309426
-0.0546812
0.0175595
-0.0540431
0.00597223
-0.0465801
-0.0237919
0.107021
-0.0339394
-0.118399
0.0953126
-0.0351372
0.0832434
-0.0363189
0.0707944
-0.0375413
0.0579473
-0.0387985
0.044692
-0.0400693
0.0311023
-0.0410915
0.0176555
-0.0405963
0.00601244
-0.034937
-0.0177795
0.107261
-0.0225681
-0.118632
0.095533
-0.0234097
0.0834381
-0.024224
0.0709597
-0.0250628
0.0580822
-0.0259211
0.0447972
-0.0267843
0.0311784
-0.0274727
0.0177024
-0.0271204
0.00603485
-0.0232694
-0.0117446
0.107319
-0.0111992
-0.118688
0.095581
-0.0116718
0.0834763
-0.0121193
0.0709896
-0.0125761
0.0581055
-0.0130371
0.0448157
-0.0134944
0.0311935
-0.0138505
0.0177151
-0.013642
0.00604214
-0.0115964
-0.00570249
0.107176
0.000139457
-0.118514
0.0954423
6.14735e-05
0.0833452
-2.2243e-05
0.0708696
-0.000100505
0.0580005
-0.000167934
0.0447291
-0.000222975
0.0311286
-0.000250061
0.0176742
-0.000187546
0.00602805
4.97137e-05
0.000325557
0.1068
-0.118173
0.0950919
0.0830247
0.0705838
0.0577543
0.0445277
0.0309783
0.0175819
0.00598808
0.0219834
-0.208035
-0.0248412
0.0170821
-0.217499
0.0115942
-0.222328
0.00605279
-0.226215
0.000643722
-0.230241
-0.00438071
-0.234248
-0.00821236
-0.235941
-0.00918649
-0.226837
-0.0057962
-0.186525
-0.0862413
0.0526029
-0.202292
-0.0583458
0.0443243
-0.20922
0.0354697
-0.213473
0.0266674
-0.217413
0.018071
-0.221645
0.00982806
-0.226005
0.0024649
-0.228578
-0.00256556
-0.221806
-0.00311862
-0.185971
-0.0893599