/*--------------------------------*- C++ -*----------------------------------*\
  =========                 |
  \\      /  F ield         | OpenFOAM: The Open Source CFD Toolbox
   \\    /   O peration     | Website:  https://openfoam.org
    \\  /    A nd           | Version:  13
     \\/     M anipulation  |
\*---------------------------------------------------------------------------*/
FoamFile
{
    format      ascii;
    class       volScalarField;
    location    "0";
    object      Ccz;
}
// * * * * * * * * * * * * * * * * * * * * * * * * * * * * * * * * * * * * * //

dimensions      [0 1 0 0 0 0 0];

internalField   nonuniform List<scalar> 
440
(
2.22139e-17
-4.20008e-17
5.92522e-17
0
0
4.597e-17
2.21447e-17
0
0
0
-2.2985e-17
-4.27718e-17
1.02337e-16
-1.14375e-16
-7.09919e-17
0
-4.42893e-17
-6.23134e-17
7.52361e-17
5.40048e-17
2.37561e-17
-6.64339e-17
-2.07711e-17
1.80487e-17
7.09919e-17
0
-4.20007e-17
-6.00001e-17
3.75965e-17
-6.94498e-17
-9.11688e-17
0
0
0
0
0
0
-1.00818e-16
0
0
6.8955e-17
0
1.00818e-16
-2.10899e-17
0
2.37561e-17
-2.29158e-17
0
-5.87296e-17
3.856e-17
4.58893e-17
-1.50694e-17
-3.23009e-17
3.29323e-17
6.56242e-17
6.3072e-17
0
0
1.00207e-16
-1.54242e-18
-3.39811e-17
0
-3.42336e-17
-6.56514e-17
0
0
-1.18085e-16
0
0
0
0
0
0
0
-6.33157e-17
-1.98694e-17
-6.03792e-17
0
-8.10196e-17
0
-1.98694e-17
2.06404e-17
0
0
0
-1.98694e-17
2.06404e-17
0
0
0
-9.70341e-17
2.06404e-17
6.03792e-17
-3.97388e-17
6.03792e-17
0
6.03792e-17
0
0
0
0
0
2.69193e-17
0
0
0
-5.01761e-17
0
-2.79591e-17
-2.52328e-17
-2.58039e-17
0
0
-4.7712e-17
0
0
0
-7.66879e-17
0
0
0
-2.69024e-17
0
-2.39587e-17
2.29396e-17
0
-3.76822e-17
2.00458e-17
0
0
-6.94904e-17
-3.92243e-17
4.00689e-17
0
4.59961e-17
0
-3.92243e-17
0
4.59537e-17
2.37822e-17
0
-7.53218e-17
-6.08856e-17
-2.21936e-17
0
3.70584e-17
0
6.24278e-17
-2.29647e-17
4.91066e-17
1.35896e-16
0
2.00457e-17
2.14225e-17
0
5.25033e-17
0
0
0
0
0
7.53218e-17
-4.16337e-17
4.28208e-17
-2.37822e-17
-6.94904e-17
-1.14546e-16
4.16337e-17
2.21936e-17
0
0
0
0
2.06272e-17
2.22139e-17
3.20339e-17
3.29042e-17
0
0
0
6.51805e-17
0
0
9.74232e-17
-6.46042e-17
-3.14189e-17
-6.56458e-17
-6.53902e-17
-1.55177e-17
0
-3.23667e-17
0
0
5.10612e-17
-2.08019e-17
-3.16563e-17
3.42274e-17
-3.53041e-17
6.9835e-17
0
0
-6.03792e-17
0
-8.10196e-17
2.06404e-17
0
2.06404e-17
0
0
0
0
2.06404e-17
0
0
0
5.88372e-17
2.06404e-17
6.03792e-17
-3.97388e-17
0
0
6.03792e-17
0
0
0
4.91992e-17
0
0
7.66575e-17
7.68281e-17
0
-1.56851e-18
-1.51441e-16
-2.4322e-17
0
-4.736e-17
0
-2.39891e-17
2.62234e-17
2.96658e-17
6.71828e-17
0
7.68302e-17
-5.31463e-17
2.55372e-17
2.06383e-17
2.40191e-17
-2.56648e-17
0
3.07098e-17
-2.22138e-17
-2.06271e-17
-4.07481e-17
3.75965e-17
0
-2.2985e-17
2.21446e-17
-6.07943e-17
-1.80488e-17
0
-6.81838e-17
-4.27718e-17
0
-3.60975e-17
7.09919e-17
-6.81838e-17
0
-4.00232e-17
-7.52362e-17
-3.39742e-17
-2.2985e-17
0
-6.07944e-17
-3.60976e-17
-3.70178e-17
2.2985e-17
-4.27718e-17
6.07944e-17
0
0
4.597e-17
2.21447e-17
0
0
0
-2.2985e-17
-4.27718e-17
1.02337e-16
-1.14375e-16
-7.09919e-17
0
-4.42893e-17
-6.23134e-17
7.52361e-17
5.40048e-17
-2.37561e-17
-2.2886e-18
-4.07942e-17
0
-3.85599e-17
0
0
6.59651e-17
0
-3.16594e-17
1.61977e-17
1.02175e-16
0
-6.55346e-17
0
0
-1.14828e-16
1.55106e-18
0
-6.59402e-17
6.30901e-17
-4.87499e-17
0
3.44495e-17
0
-4.89733e-17
9.96955e-17
3.53849e-17
0
-3.66742e-17
0
0
0
-6.93931e-17
0
0
0
0
0
0
0
6.22085e-17
-7.15563e-17
6.37079e-19
4.49178e-17
0
-6.45105e-17
0
0
0
0
-3.76822e-17
2.00458e-17
0
0
-6.94904e-17
-3.92243e-17
4.00689e-17
0
4.59961e-17
0
-3.92243e-17
0
4.59537e-17
2.37822e-17
0
-7.53218e-17
-6.08856e-17
-2.21936e-17
0
2.00713e-17
0
0
0
2.45533e-17
-3.55162e-17
-3.92243e-17
-6.08856e-17
0
0
5.25033e-17
0
0
0
0
0
7.53218e-17
-4.16337e-17
4.28208e-17
-2.37822e-17
-6.94904e-17
-1.14546e-16
4.16337e-17
2.21936e-17
0
0
0
0
2.06272e-17
2.22139e-17
3.01396e-17
6.38582e-17
-6.60125e-17
-6.8321e-17
0
0
0
0
-5.11043e-17
0
3.29764e-17
-3.12901e-17
3.11622e-17
4.96496e-17
0
4.92877e-17
0
3.39648e-17
4.87299e-17
-6.46222e-17
-3.20339e-17
-3.59882e-17
0
-4.98207e-17
-2.95561e-17
0
0
0
-6.93931e-17
0
0
-4.7547e-17
0
4.7547e-17
0
5.75616e-17
6.01025e-17
-7.2111e-17
0
0
1.02266e-16
-2.31933e-17
-1.39921e-16
6.7429e-17
0
)
;

boundaryField
{
    left
    {
        type            calculated;
        value           uniform 0;
    }
    right
    {
        type            calculated;
        value           uniform 0;
    }
    down
    {
        type            calculated;
        value           uniform 0;
    }
    up
    {
        type            calculated;
        value           uniform 0;
    }
    cylinder
    {
        type            calculated;
        value           uniform 0;
    }
    defaultFaces
    {
        type            empty;
    }
}


// ************************************************************************* //
