# Selection   : all
# Cells       : 440
# Volume      : 7.374263e+01
# Time        	min(p)
8.015         	-1.463770e+00
8.06          	-1.436692e+00
8.11          	-1.455988e+00
