/*--------------------------------*- C++ -*----------------------------------*\
  =========                 |
  \\      /  F ield         | OpenFOAM: The Open Source CFD Toolbox
   \\    /   O peration     | Website:  https://openfoam.org
    \\  /    A nd           | Version:  13
     \\/     M anipulation  |
\*---------------------------------------------------------------------------*/
FoamFile
{
    format      ascii;
    class       volScalarField;
    location    "7.745";
    object      p;
}
// * * * * * * * * * * * * * * * * * * * * * * * * * * * * * * * * * * * * * //

dimensions      [0 2 -2 0 0 0 0];

internalField   nonuniform List<scalar> 
440
(
-0.981363
-0.96151
-0.962667
-0.95147
-1.03028
-1.02375
-1.00126
-0.978974
-0.95909
-0.944823
-1.13623
-1.09821
-1.05174
-0.996042
-0.93802
-1.26015
-1.20535
-1.10408
-0.986009
-0.867943
-1.334
-1.25869
-1.0936
-0.925492
-0.774189
-0.412341
-0.420489
-0.438122
-0.458453
-0.467079
-0.664694
-0.679105
-0.710372
-0.755973
-0.793999
-0.87262
-0.890977
-0.931513
-0.997842
-1.09766
-0.976459
-0.981255
-1.00013
-1.03551
-1.08869
-0.963905
-0.952537
-0.945568
-0.941811
-0.974729
-0.330119
0.029977
-0.1664
-0.0616344
-0.213065
-0.488185
-0.011663
-0.142336
-0.0837952
-0.335063
-0.66783
-0.052483
0.0836775
-0.0525808
-0.41327
-0.851231
0.0385715
0.431269
0.043901
-0.399069
-0.939207
0.265423
0.661989
0.102662
-0.298819
-0.760854
0.552657
0.755859
0.0796568
-0.190943
-0.420977
0.571636
0.572934
0.0730822
-0.0969436
-0.254016
0.486937
0.752921
0.219343
-0.0375568
-0.109823
0.45332
0.824113
0.305808
-0.0456518
-0.0392928
0.437288
0.864315
0.477991
-0.00978489
-0.519869
-0.644962
-0.824037
-0.996
-1.15167
-0.259571
-0.389265
-0.484697
-0.552172
-0.583526
-0.0786519
-0.193868
-0.259562
-0.307533
-0.330916
0.0284325
-0.073573
-0.137442
-0.173936
-0.182759
0.0774497
-0.0227138
-0.0850646
-0.116115
-0.112415
0.96028
0.802806
0.601504
0.377219
0.133454
0.508969
0.342241
0.14085
-0.088757
-0.351895
0.0711136
-0.0981885
-0.31191
-0.549531
-0.800771
-0.31877
-0.492264
-0.708293
-0.940322
-1.13508
-0.587134
-0.762647
-0.965249
-1.17805
-1.30586
2.15432
2.18224
2.20616
2.21554
2.20774
1.9375
1.95497
1.96562
1.95845
1.92949
1.6994
1.68374
1.64412
1.58091
1.49
1.42963
1.3935
1.32053
1.21553
1.07991
1.19231
1.08218
0.940841
0.779405
0.582202
1.94519
1.93475
1.91869
1.98514
2.05153
1.93332
1.92036
1.89486
1.95551
1.94412
1.92241
1.90306
1.86904
1.91348
1.81097
1.91275
1.88153
1.8413
1.85832
1.62185
1.90452
1.86241
1.81237
1.80172
1.42438
1.89755
1.82785
1.77556
1.69138
1.20527
1.89405
1.79155
1.75524
1.58564
1.30979
1.9005
1.76963
1.73591
1.5305
1.33544
1.89234
1.74443
1.7276
1.48115
1.33146
1.93031
1.73604
1.72475
1.45013
1.32702
0.921335
0.589565
0.223782
-0.106891
-0.319984
0.800624
0.570288
0.31914
0.0912286
-0.103376
0.782994
0.595739
0.403366
0.227489
0.0550615
0.823941
0.645053
0.469041
0.307918
0.153761
0.848878
0.672814
0.504504
0.349178
0.200769
-0.547017
-0.437629
-0.296791
-0.18408
-0.117114
-0.579446
-0.528107
-0.426438
-0.345749
-0.301751
-0.487984
-0.444379
-0.391366
-0.35313
-0.334949
-0.340374
-0.306892
-0.274711
-0.252848
-0.242662
-0.235829
-0.218266
-0.198432
-0.182621
-0.203783
-0.172372
-0.164328
-0.146037
-0.130479
-0.116832
-0.171579
-0.164075
-0.148506
-0.132828
-0.129414
-0.197854
-0.190147
-0.180323
-0.170594
-0.161621
-0.221467
-0.216191
-0.211504
-0.206597
-0.19877
-0.26018
-0.261491
-0.264491
-0.267524
-0.264331
-0.167134
-0.10968
-0.00534128
0.128998
0.051938
-0.125212
-0.0604408
0.00478383
0.125637
0.0492031
-0.142422
-0.0373832
-0.00433341
0.0949837
0.0268428
-0.180507
0.00849124
-0.0343824
0.0415582
-0.0174651
-0.224032
0.0462881
-0.0927204
-0.0139285
-0.0979681
0.163478
-0.187078
-0.120211
0.0825165
0.0468123
-0.0891147
-0.204917
-0.0535507
0.122232
0.0598083
-0.0791947
-0.291973
-0.32575
-0.280533
-0.0828468
-0.0952959
-0.288557
-0.33422
-0.261576
-0.263587
1.99419
1.97939
1.94901
1.90428
1.84479
2.14024
2.16365
2.17315
2.16749
2.14767
2.25717
2.29178
2.31929
2.3356
2.33853
2.30956
2.34869
2.38948
2.42266
2.43836
2.27338
2.30894
2.34784
2.37982
2.39378
0.254734
0.166419
0.0267627
-0.144068
-0.328477
0.756446
0.639745
0.48302
0.295141
0.0684335
1.20178
1.07974
0.934334
0.763652
0.556935
1.55351
1.4619
1.34913
1.21202
1.0494
1.83208
1.77021
1.68849
1.59027
1.4759
2.017
1.97782
1.97921
2.01116
2.06595
2.00026
1.9723
1.97347
2.01888
2.10168
1.98532
1.96543
1.96694
2.02672
2.15015
1.97115
1.95726
1.95512
2.02271
2.14212
1.95775
1.94735
1.93858
2.009
2.11347
2.0745
1.98863
1.97515
1.95162
1.96611
2.02892
1.97765
1.96728
1.96846
1.97489
1.73379
1.56896
1.26002
0.795838
0.280571
1.80128
1.59182
1.27089
0.812302
0.288298
)
;

boundaryField
{
    left
    {
        type            zeroGradient;
    }
    right
    {
        type            fixedValue;
        value           uniform 0;
    }
    down
    {
        type            zeroGradient;
    }
    up
    {
        type            zeroGradient;
    }
    cylinder
    {
        type            zeroGradient;
    }
    defaultFaces
    {
        type            empty;
    }
}


// ************************************************************************* //
