/*--------------------------------*- C++ -*----------------------------------*\
  =========                 |
  \\      /  F ield         | OpenFOAM: The Open Source CFD Toolbox
   \\    /   O peration     | Website:  https://openfoam.org
    \\  /    A nd           | Version:  13
     \\/     M anipulation  |
\*---------------------------------------------------------------------------*/
FoamFile
{
    format      ascii;
    class       volVectorField;
    location    "0.59";
    object      U;
}
// * * * * * * * * * * * * * * * * * * * * * * * * * * * * * * * * * * * * * //

dimensions      [0 1 -1 0 0 0 0];

internalField   nonuniform List<vector> 
440
(
(0.21826 -0.176695 -1.81111e-19)
(0.613079 -0.43666 1.07879e-18)
(0.984292 -0.640908 4.2328e-19)
(1.32754 -0.795391 1.24271e-18)
(1.63257 -0.91675 -2.59993e-19)
(0.304893 -0.177684 -5.44491e-19)
(0.819133 -0.4287 -1.01957e-18)
(1.27997 -0.618901 1.14518e-19)
(1.6919 -0.761638 -1.21515e-18)
(2.05374 -0.875112 -1.02099e-18)
(0.384879 -0.152406 -6.98069e-19)
(1.00468 -0.363014 1.58977e-18)
(1.53975 -0.518386 -1.93463e-18)
(2.00471 -0.632633 1.37946e-18)
(2.40594 -0.721477 1.4298e-18)
(0.445867 -0.102745 5.62391e-19)
(1.14609 -0.243083 -1.29951e-18)
(1.73744 -0.344812 -7.50806e-19)
(2.24293 -0.418221 1.96653e-18)
(2.67445 -0.474464 2.50019e-18)
(0.479255 -0.0361582 6.86905e-19)
(1.22363 -0.0847543 1.69138e-19)
(1.8459 -0.119363 2.53131e-18)
(2.37402 -0.143864 -1.06201e-18)
(2.82295 -0.162495 -4.83733e-19)
(-0.000889369 -0.0517237 2.75873e-19)
(0.0501294 -0.144468 -3.85574e-19)
(0.106058 -0.222567 1.10941e-18)
(0.171593 -0.292452 -1.76598e-19)
(0.239758 -0.354077 -1.59892e-18)
(0.013714 -0.0843448 -2.62366e-19)
(0.0893158 -0.22791 -4.23995e-19)
(0.17413 -0.350291 1.10712e-19)
(0.268419 -0.450232 5.97108e-20)
(0.36469 -0.530349 -3.60187e-20)
(0.0433398 -0.114273 7.0561e-20)
(0.165459 -0.303196 5.26452e-19)
(0.296159 -0.467428 9.49741e-20)
(0.432857 -0.598896 1.45988e-18)
(0.567913 -0.697457 -2.49823e-20)
(0.0866184 -0.140997 6.69377e-20)
(0.27637 -0.367827 -3.49e-20)
(0.469492 -0.563014 2.17928e-19)
(0.661408 -0.718524 -2.03648e-18)
(0.844119 -0.830452 9.57325e-19)
(0.142124 -0.161722 -2.35848e-19)
(0.420082 -0.412851 -4.42634e-19)
(0.691402 -0.621473 -7.70493e-19)
(0.950148 -0.782408 9.53508e-19)
(1.18521 -0.892832 3.45425e-18)
(0.592806 -0.591894 -4.05518e-18)
(0.962604 -0.516895 1.01814e-18)
(1.29406 -0.21189 3.72088e-19)
(1.48798 -0.0364537 -6.01716e-19)
(1.55901 -0.000427213 -8.04157e-20)
(0.785512 -0.743383 4.83654e-18)
(1.04392 -0.623444 -3.11644e-19)
(1.31938 -0.284213 -1.42008e-19)
(1.52844 -0.0776736 3.88631e-19)
(1.62727 -0.0179216 1.56468e-19)
(1.03649 -0.878012 1.54081e-18)
(1.17852 -0.709526 4.04583e-18)
(1.34315 -0.35442 6.79909e-20)
(1.53821 -0.119865 4.07745e-19)
(1.63161 -0.0359981 -4.92189e-20)
(1.33057 -0.988652 1.2209e-18)
(1.35929 -0.771121 -4.19871e-19)
(1.38807 -0.414666 -7.72449e-19)
(1.52201 -0.155246 -2.91068e-19)
(1.62057 -0.0513022 3.22533e-20)
(1.62987 -1.04746 3.75951e-21)
(1.55547 -0.811106 -1.70712e-18)
(1.44874 -0.463364 0)
(1.48904 -0.202205 2.79127e-19)
(1.54895 -0.0663979 5.0715e-20)
(2.15627 -1.1153 -1.57919e-18)
(1.8342 -0.800811 -4.93331e-19)
(1.55924 -0.454949 -1.004e-20)
(1.41207 -0.201657 6.42115e-20)
(1.36733 -0.0668771 -2.29106e-19)
(2.63262 -0.889801 -1.6121e-18)
(1.90002 -0.591012 2.97631e-18)
(1.43288 -0.318648 6.24577e-21)
(1.16172 -0.147286 2.0465e-19)
(1.10145 -0.0484599 0)
(2.47859 -0.522838 -6.92729e-18)
(1.60551 -0.338903 -1.49204e-19)
(1.14909 -0.178439 1.98691e-18)
(0.894706 -0.0884914 -3.21701e-19)
(0.813728 -0.0312943 -4.15742e-20)
(1.76238 -0.219992 6.83555e-18)
(1.08876 -0.135709 1.24654e-18)
(0.751912 -0.067679 2.24191e-19)
(0.572633 -0.0353161 2.90169e-33)
(0.502518 -0.0138991 -7.72482e-20)
(0.683158 0.000163758 1.55221e-18)
(0.395271 0.0235477 7.12817e-19)
(0.267641 0.0240622 -5.17763e-19)
(0.20592 0.0146058 2.22549e-19)
(0.176343 0.00525267 -7.1262e-20)
(3.58188 -0.168159 1.25617e-17)
(3.41717 -0.502937 -1.04435e-17)
(3.13668 -0.786995 7.10864e-18)
(2.78061 -0.996094 2.32083e-18)
(2.33314 -1.1018 -4.14288e-19)
(3.78453 -0.103586 1.03947e-17)
(3.71747 -0.324459 -6.639e-19)
(3.57773 -0.551821 -4.26993e-18)
(3.37829 -0.785758 2.68987e-18)
(3.10032 -1.01978 -6.62792e-19)
(3.11484 -0.0605676 3.65446e-18)
(3.09866 -0.181683 -2.51881e-18)
(3.05962 -0.309665 5.01276e-18)
(2.99891 -0.444857 -1.52944e-19)
(2.92435 -0.593621 -4.79054e-18)
(2.19087 -0.0276237 2.78878e-18)
(2.18384 -0.0833691 8.43041e-18)
(2.16463 -0.144004 -6.53261e-19)
(2.13408 -0.207279 -6.60867e-18)
(2.11307 -0.269436 1.94592e-18)
(0.87944 -0.00184243 5.21226e-18)
(0.87649 -0.00523895 -1.16439e-19)
(0.867372 -0.00956787 -4.2578e-20)
(0.85051 -0.0162541 -2.00941e-18)
(0.841159 -0.0229059 -3.60549e-18)
(1.65314 0.940096 2.27592e-18)
(1.3483 0.816717 -7.8852e-20)
(1.00338 0.658652 -3.53317e-20)
(0.627866 0.449477 -1.96265e-19)
(0.225225 0.182293 -1.34079e-19)
(2.07051 0.892521 -1.21856e-18)
(1.71068 0.777737 -1.20332e-18)
(1.29832 0.632586 7.31889e-19)
(0.834039 0.438721 -4.8408e-19)
(0.312139 0.182086 -4.07068e-21)
(2.4186 0.735857 -5.89175e-19)
(2.01967 0.645357 5.25247e-19)
(1.555 0.528762 2.43654e-18)
(1.01754 0.370197 8.08302e-19)
(0.391337 0.155285 5.26061e-19)
(2.68202 0.486722 1.54713e-20)
(2.25239 0.428295 -2.71607e-19)
(1.74743 0.352326 -6.46752e-19)
(1.15477 0.247646 2.0564e-18)
(0.450325 0.104145 -3.26831e-19)
(2.82547 0.173873 -1.17055e-18)
(2.37728 0.152649 -1.60649e-18)
(1.8494 0.125348 -7.2869e-19)
(1.22671 0.0878347 7.96277e-19)
(0.480856 0.0366869 -3.25829e-19)
(0.241111 0.417224 -2.14918e-18)
(0.170921 0.353688 -1.82261e-18)
(0.103421 0.277233 3.16916e-19)
(0.0457568 0.183783 -4.73928e-20)
(-0.00162044 0.0676251 3.42123e-20)
(0.371138 0.594879 -8.01363e-19)
(0.274198 0.510442 -6.72235e-19)
(0.178843 0.399714 1.26513e-20)
(0.0926164 0.259717 -2.57784e-20)
(0.0168752 0.0965895 2.63266e-20)
(0.581682 0.754058 2.18494e-18)
(0.446217 0.650108 -1.51999e-19)
(0.307951 0.507481 -1.4487e-19)
(0.174411 0.328715 -2.1541e-19)
(0.0484184 0.124016 1.67347e-19)
(0.862051 0.875215 -1.2951e-18)
(0.679163 0.758579 1.9756e-18)
(0.485282 0.594267 3.03039e-19)
(0.28834 0.38847 1.0227e-19)
(0.092545 0.149198 -1.18389e-19)
(1.20369 0.92529 -4.41226e-19)
(0.969111 0.811878 -4.57907e-19)
(0.708592 0.645118 3.60003e-19)
(0.433325 0.429184 3.59255e-19)
(0.148461 0.168536 1.89625e-21)
(0.938685 0.16641 -4.33765e-19)
(1.49378 0.133587 5.21141e-20)
(1.32952 0.195972 1.93862e-20)
(1.01354 0.499651 -5.03404e-19)
(0.599056 0.645646 5.58595e-20)
(0.944023 0.0881967 1.64503e-19)
(1.50329 0.108653 2.97977e-19)
(1.35714 0.24516 2.66472e-19)
(1.06059 0.615226 -5.81121e-20)
(0.784762 0.803563 7.58155e-19)
(0.947974 0.0104767 5.65108e-20)
(1.51843 0.0847409 -2.08424e-20)
(1.3575 0.29481 -5.70747e-20)
(1.16534 0.713008 -4.26022e-19)
(1.03726 0.937912 1.09228e-19)
(0.949569 -0.06518 -1.929e-20)
(1.52441 0.0645133 -7.09479e-19)
(1.36169 0.344977 8.4686e-20)
(1.32669 0.780259 1.20023e-18)
(1.33494 1.0423 9.4575e-19)
(0.947135 -0.138882 -2.51355e-20)
(1.50775 0.0552603 2.06989e-19)
(1.38323 0.394277 -6.36364e-20)
(1.51043 0.821828 -3.82441e-19)
(1.63607 1.0922 -2.73321e-18)
(0.933245 -0.23342 2.37623e-19)
(1.46509 0.0221886 4.89305e-19)
(1.46254 0.391586 -3.35151e-20)
(1.7674 0.800583 3.09383e-18)
(2.15315 1.14346 -5.52026e-18)
(0.884828 -0.344771 -2.50973e-20)
(1.32855 -0.0286477 -6.45776e-19)
(1.40429 0.281661 7.11934e-21)
(1.84275 0.595114 -3.06806e-18)
(2.5944 0.900692 1.66959e-18)
(0.786487 -0.411896 5.52219e-18)
(1.08056 -0.0901737 6.85889e-35)
(1.13568 0.149972 -2.13151e-18)
(1.57648 0.340045 2.63614e-18)
(2.45665 0.52966 5.03197e-18)
(0.634438 -0.291732 1.5063e-19)
(0.713576 -0.0717735 5.27108e-19)
(0.732708 0.0519844 2.48313e-19)
(1.07544 0.135106 6.22942e-19)
(1.75836 0.220505 -8.6443e-18)
(0.322597 -0.0431514 -4.30718e-18)
(0.293786 0.00562792 2.8378e-19)
(0.265261 -0.0132989 1.11104e-18)
(0.393478 -0.0240302 -7.70449e-19)
(0.686182 -0.000457936 -1.46616e-18)
(2.34864 1.12123 4.69073e-18)
(2.7873 1.01258 3.47313e-18)
(3.14088 0.803394 -5.69203e-18)
(3.41899 0.519607 -1.46161e-17)
(3.5824 0.185882 1.57637e-17)
(3.07886 1.01885 5.00892e-18)
(3.35405 0.795226 2.56347e-17)
(3.55695 0.560668 7.24252e-18)
(3.7011 0.331823 -3.08288e-17)
(3.77793 0.111137 -5.17335e-18)
(2.90571 0.592007 -7.2284e-18)
(2.98597 0.448102 -3.38041e-18)
(3.05217 0.312112 -6.29731e-18)
(3.09524 0.181723 -6.88931e-18)
(3.114 0.0584268 6.52283e-18)
(2.10627 0.265901 5.41574e-18)
(2.13013 0.205746 -4.04613e-19)
(2.16254 0.143039 4.87124e-18)
(2.18312 0.082133 6.28927e-18)
(2.19077 0.0259969 -5.88789e-18)
(0.84254 0.0220566 -5.74664e-19)
(0.851936 0.0156543 3.52107e-18)
(0.868635 0.00913174 2.44319e-18)
(0.877494 0.00479266 -5.16941e-18)
(0.879839 0.00136156 -3.84288e-20)
(0.28198 0.0207601 5.52134e-19)
(0.656773 0.0404729 -7.43602e-19)
(0.973271 0.0440736 -8.18486e-19)
(0.94444 0.0274359 -1.51803e-18)
(0.697949 0.0163885 -6.63737e-19)
(0.245619 0.0554689 7.45762e-19)
(0.591357 0.107092 1.44152e-18)
(0.864799 0.125161 -6.97389e-19)
(0.940067 0.0970137 1.96083e-18)
(0.724274 0.0532498 -2.7009e-18)
(0.185651 0.0742764 4.96253e-19)
(0.476461 0.145917 -1.39888e-18)
(0.707868 0.184788 -9.1393e-19)
(0.857419 0.175439 -1.81026e-18)
(0.741654 0.101247 -2.86237e-18)
(0.123323 0.0774852 -7.72679e-19)
(0.344811 0.160377 -1.37665e-18)
(0.534605 0.214908 4.39917e-18)
(0.677808 0.233345 -3.66702e-19)
(0.713135 0.180053 2.25506e-18)
(0.0752818 0.072375 -6.23001e-19)
(0.230739 0.16012 1.56428e-18)
(0.372318 0.224552 6.12332e-19)
(0.48287 0.257805 -1.29589e-18)
(0.561381 0.258499 -1.74891e-19)
(0.0451497 0.0637784 8.4213e-20)
(0.149957 0.148767 -1.22226e-18)
(0.247757 0.212159 -9.45617e-19)
(0.32547 0.234128 -8.69153e-20)
(0.371263 0.223882 -5.00119e-20)
(0.0264634 0.0556989 3.1217e-19)
(0.0950733 0.134303 5.94235e-19)
(0.160893 0.184862 -2.08789e-19)
(0.213776 0.195519 2.59712e-19)
(0.253629 0.185475 1.71503e-19)
(0.0133344 0.0488619 2.49914e-19)
(0.0586211 0.111487 1.31464e-18)
(0.103726 0.121322 -1.23864e-18)
(0.142709 0.107538 -2.78794e-18)
(0.178903 0.086115 4.08351e-19)
(0.00617863 0.0393704 -2.37782e-19)
(0.0425701 0.0490651 -1.80904e-18)
(0.0798561 0.0220727 3.21907e-18)
(0.119911 -0.00969388 1.31481e-18)
(0.161407 -0.0434631 -2.69575e-19)
(0.00998217 0.00205892 2.09977e-19)
(0.0421355 -0.0498325 -4.52324e-19)
(0.0822264 -0.0960011 8.99487e-20)
(0.130916 -0.143959 1.0514e-19)
(0.181617 -0.190168 2.32423e-21)
(0.338695 0.072055 -7.49855e-20)
(0.613219 -0.0421495 -1.22474e-18)
(0.70295 -0.0132688 2.54065e-19)
(0.714663 0.0064016 4.01968e-19)
(0.699187 0.00359095 1.24299e-20)
(0.302835 -0.034114 -1.00136e-19)
(0.749743 -0.1147 1.46734e-18)
(0.886803 -0.0228505 9.1899e-19)
(0.913601 0.00975757 7.56307e-20)
(0.902833 0.00612789 -3.49928e-20)
(0.319627 -0.149486 -8.1105e-19)
(0.83448 -0.197932 3.15193e-18)
(1.04831 -0.0420195 -1.81363e-19)
(1.10034 0.0118509 -3.5989e-19)
(1.09467 0.00861945 7.11427e-20)
(0.375933 -0.288212 1.10605e-18)
(0.883922 -0.297439 -2.71348e-18)
(1.17091 -0.0826217 -5.34337e-19)
(1.26636 0.00844408 -3.19699e-20)
(1.27163 0.0095411 1.78901e-21)
(0.46293 -0.436619 5.01153e-19)
(0.919368 -0.404818 -5.48205e-19)
(1.24934 -0.142432 4.8073e-19)
(1.4005 -0.00549378 1.17264e-19)
(1.42723 0.00773963 -1.33602e-21)
(0.182966 -0.0449843 9.54929e-19)
(0.144902 -0.00525255 0)
(0.162455 0.000978834 1.1637e-19)
(0.16186 -0.000413799 -6.26663e-21)
(0.155944 -0.000754139 -7.23626e-20)
(0.399683 0.0700185 0)
(0.408336 -0.000443332 0)
(0.466225 -0.00408274 5.00367e-20)
(0.467268 0.00336317 -3.0859e-20)
(0.45176 0.00147632 4.55206e-20)
(0.162692 -0.000821295 -3.68471e-19)
(0.18641 -0.00179206 3.1077e-18)
(0.213221 -0.00502069 -6.86301e-19)
(0.229819 -0.0149891 -3.11703e-18)
(0.245713 -0.0170121 -7.97029e-19)
(0.432046 0.00444143 6.09935e-19)
(0.484576 0.0196964 4.1156e-18)
(0.536472 0.046699 -6.73002e-18)
(0.567642 0.0806193 2.20944e-18)
(0.59833 0.162223 3.7977e-18)
(0.370731 -0.22065 -3.32709e-19)
(0.32436 -0.231633 -9.30368e-20)
(0.248393 -0.212678 -3.31234e-19)
(0.150768 -0.150743 3.88391e-19)
(0.0458684 -0.0645772 1.14051e-19)
(0.257508 -0.169708 4.22538e-19)
(0.21507 -0.181792 1.41397e-18)
(0.162386 -0.177125 2.58948e-19)
(0.0967163 -0.135107 2.36464e-19)
(0.0269076 -0.057196 -1.86735e-20)
(0.193191 -0.0548993 -3.11384e-19)
(0.15162 -0.077461 -1.05416e-19)
(0.108785 -0.0950183 1.63379e-18)
(0.062322 -0.0972424 2.86045e-19)
(0.0132471 -0.0480198 -3.13836e-19)
(0.178768 0.0868393 -6.36336e-19)
(0.132717 0.0529857 -7.06029e-19)
(0.0878058 0.0192724 1.31008e-18)
(0.0495072 -0.010822 1.60168e-18)
(0.0112352 -0.0299046 1.99021e-19)
(0.188863 0.244199 1.23851e-19)
(0.134421 0.197899 -1.20196e-19)
(0.0819856 0.148091 2.48467e-19)
(0.0382595 0.0969892 6.23144e-19)
(-0.00225612 0.0356205 9.27002e-20)
(0.697946 -0.0163438 1.53158e-18)
(0.944446 -0.0274131 -1.80084e-18)
(0.973079 -0.0441997 2.27005e-18)
(0.656785 -0.0405354 3.64631e-19)
(0.282014 -0.0207688 5.36688e-19)
(0.724263 -0.0531428 1.77263e-18)
(0.939925 -0.0970286 7.94685e-18)
(0.864597 -0.125265 1.03368e-18)
(0.59141 -0.107131 1.34952e-18)
(0.245714 -0.0554901 -4.78516e-19)
(0.74157 -0.101002 -1.22142e-18)
(0.856816 -0.175275 -2.29655e-18)
(0.707789 -0.18485 2.9245e-18)
(0.476528 -0.145986 -1.08271e-19)
(0.185773 -0.0743121 3.39518e-19)
(0.712606 -0.179875 1.73942e-20)
(0.677108 -0.233296 -7.68623e-18)
(0.534641 -0.21524 -5.99981e-18)
(0.344947 -0.160712 1.09167e-18)
(0.123505 -0.0775893 5.08044e-19)
(0.558978 -0.25699 4.67964e-19)
(0.481853 -0.257235 5.33507e-19)
(0.372392 -0.225278 -8.99583e-19)
(0.230996 -0.160993 -8.88331e-19)
(0.0756301 -0.0726329 -5.1445e-21)
(0.727662 0.373137 1.1758e-18)
(0.880487 0.127763 -1.90959e-19)
(0.677051 0.0196042 2.51269e-19)
(0.644998 0.0360561 -7.54018e-19)
(0.362648 -0.0619 -1.0075e-19)
(0.82749 0.398104 -1.70577e-19)
(1.08841 0.157848 -5.71708e-19)
(0.868623 0.0381043 8.36042e-19)
(0.804901 0.0991249 1.67745e-18)
(0.340508 0.0540361 1.0333e-19)
(0.892228 0.372734 -2.25442e-18)
(1.2683 0.171978 -3.7534e-20)
(1.03962 0.0622819 2.51068e-19)
(0.908865 0.178435 1.70282e-18)
(0.364894 0.176625 -1.44249e-18)
(0.923689 0.317762 1.49706e-18)
(1.41112 0.174231 1.60328e-20)
(1.17715 0.0998457 -2.15926e-19)
(0.964462 0.27702 -7.59001e-19)
(0.415797 0.323326 -5.90291e-19)
(0.933415 0.244569 1.776e-19)
(1.48626 0.157495 3.95095e-20)
(1.27173 0.14608 -8.14166e-20)
(0.992817 0.384869 -9.34145e-20)
(0.486004 0.480687 1.36227e-18)
(0.275667 0.0483701 0)
(0.244296 -0.0112569 6.49906e-19)
(0.157586 -0.0159228 1.27131e-19)
(0.150433 0.00553722 -1.09803e-19)
(0.18439 0.0441029 -1.80768e-18)
(0.573394 0.266348 -1.01982e-17)
(0.609405 0.0751849 -2.56405e-18)
(0.445098 0.0132016 5.00113e-19)
(0.423958 0.000420865 -6.56009e-19)
(0.407614 -0.0683309 -6.62013e-19)
(0.245847 0.016976 -9.11293e-22)
(0.229914 0.0150778 1.92877e-18)
(0.213298 0.0050643 5.24529e-19)
(0.18646 0.001802 3.23016e-19)
(0.162707 0.00082516 0)
(0.599207 -0.162124 -1.15039e-19)
(0.568196 -0.0803298 2.54704e-18)
(0.536578 -0.0464768 -1.37756e-19)
(0.484635 -0.0196434 -2.70525e-19)
(0.432069 -0.00441915 7.60511e-19)
)
;

boundaryField
{
    left
    {
        type            fixedValue;
        value           uniform (1 0 0);
    }
    right
    {
        type            zeroGradient;
    }
    down
    {
        type            noSlip;
    }
    up
    {
        type            noSlip;
    }
    cylinder
    {
        type            noSlip;
    }
    defaultFaces
    {
        type            empty;
    }
}


// ************************************************************************* //
