/*--------------------------------*- C++ -*----------------------------------*\
  =========                 |
  \\      /  F ield         | OpenFOAM: The Open Source CFD Toolbox
   \\    /   O peration     | Website:  https://openfoam.org
    \\  /    A nd           | Version:  13
     \\/     M anipulation  |
\*---------------------------------------------------------------------------*/
FoamFile
{
    format      ascii;
    class       volScalarField;
    location    "0.4";
    object      strainRateViscosityModel:nu;
}
// * * * * * * * * * * * * * * * * * * * * * * * * * * * * * * * * * * * * * //

dimensions      [0 2 -1 0 0 0 0];

internalField   nonuniform List<scalar> 
440
(
9.4196
8.96967
8.54436
8.04232
7.58633
9.68997
9.35816
8.98172
8.48
7.8756
9.80075
9.53084
9.15876
8.58508
7.84828
9.84963
9.61818
9.25863
8.64757
7.86609
9.86918
9.65608
9.30593
8.68097
7.90881
1.29473
1.78783
2.04776
2.2983
2.36217
3.37556
3.30282
3.32075
3.43114
3.50203
5.89011
5.27217
4.93143
4.73396
4.76429
7.76966
6.9935
6.4212
5.9072
5.8304
8.82081
8.15124
7.55197
6.91868
6.87263
1.84954
0.836525
0.374005
0.0869653
0.0257041
2.62322
0.919399
0.324377
0.0504863
0.010707
3.52031
1.17088
0.281176
0.0343208
0.0103594
4.09613
1.46124
0.271368
0.0264581
0.0103066
4.6065
1.77876
0.33335
0.0165121
0.0133917
4.2332
1.75632
0.268592
0.0246959
0.149553
3.70763
1.81013
0.564699
0.32025
0.463006
4.9166
3.20659
1.21324
0.587209
0.61967
7.00975
4.29126
1.90052
0.935535
0.794581
8.27288
5.07964
2.49462
1.35545
0.988111
2.84867
3.68326
4.62082
5.50721
6.15109
3.68373
3.69621
3.77135
3.85096
3.36676
8.22671
8.08674
7.79944
7.38529
6.34555
9.05296
8.99243
8.85912
8.62161
8.1603
9.60671
9.56995
9.48701
9.33803
9.11878
7.50387
8.01252
8.55928
9.01085
9.46432
7.7941
8.45151
8.98699
9.37784
9.70868
7.77896
8.55896
9.15936
9.54076
9.80945
7.81625
8.62754
9.25738
9.62276
9.85359
7.89135
8.67368
9.30536
9.65744
9.87034
2.50794
2.44925
2.24986
2.09623
2.02133
3.47389
3.42484
3.46201
3.67726
4.21863
4.64344
4.6646
5.05002
5.59464
6.44016
5.69148
5.83156
6.49961
7.1877
8.03928
6.75667
6.84403
7.58114
8.24295
8.93555
0.173944
0.0490108
0.240344
0.817256
2.00121
0.135921
0.0650677
0.194538
0.853881
2.65602
0.112938
0.0784322
0.162959
1.07922
3.45307
0.104181
0.0835829
0.174724
1.4033
3.95772
0.119068
0.0997164
0.276823
1.75359
4.37722
0.18584
0.136549
0.271079
1.88069
4.11126
0.318884
0.156223
0.230499
1.76957
3.85472
0.639871
0.320574
0.788228
3.02743
4.90312
2.26339
0.858404
1.52117
4.1603
6.96084
5.05134
2.5698
2.44201
5.04221
8.27892
5.95121
5.26945
4.40451
3.51165
2.78042
3.51957
3.98843
3.96904
3.8753
3.76341
6.32011
7.35232
7.77933
8.06803
8.21873
8.12157
8.60018
8.8496
8.98871
9.05209
9.11685
9.33776
9.48738
9.5705
9.60695
9.31062
7.9164
1.39847
3.62962
7.73631
9.08153
7.44026
3.20558
1.64037
6.78848
8.39816
6.57702
4.20797
1.00337
4.14704
6.81482
5.09396
3.45466
1.70045
1.03839
4.50293
3.14467
2.0384
1.37769
0.460045
2.59641
1.61856
1.0024
0.796788
0.926481
1.45424
0.77864
0.579164
0.612332
0.685313
0.799217
0.403357
0.586664
0.755218
0.828741
0.30474
0.500079
0.877699
1.04221
1.10383
0.157641
0.92977
1.27364
1.50865
1.56261
0.190987
0.359968
0.697232
0.772322
0.757338
0.395669
0.494125
0.562564
0.622286
0.627138
0.609834
0.636093
0.443086
0.464451
0.480959
0.956266
0.778604
0.390293
0.309145
0.341214
1.32103
0.826322
0.388073
0.169138
0.156874
1.1056
0.8594
1.1171
1.12064
1.05704
0.283476
0.47236
0.856705
0.924178
0.890557
9.19088
8.83826
7.75817
5.72943
3.55909
8.58688
7.72234
5.85086
3.49078
0.86559
0.966542
0.861312
1.0288
1.62017
2.65758
0.81771
0.772333
0.708283
0.825773
1.52267
1.05977
1.01099
0.848134
0.553937
0.734768
1.37177
1.33437
1.13706
0.788646
0.222467
1.83012
1.7836
1.53354
1.21921
0.590521
7.73584
3.62651
1.3998
7.91464
9.31076
6.78461
1.64005
3.20237
7.43714
9.08216
4.13307
1.01087
4.19393
6.57236
8.3997
1.03573
1.70644
3.43296
5.08464
6.82125
0.4772
1.37736
2.0145
3.12644
4.52572
1.30111
0.571766
0.556614
0.457767
0.178104
0.663329
0.321229
0.466978
0.523448
0.490917
0.379438
0.201107
0.369875
0.619983
0.804757
0.275863
0.0634856
0.32758
0.756845
1.21057
0.224974
0.0323534
0.288153
0.817545
1.56132
5.47826
2.47243
1.05319
0.976727
1.14299
2.88136
1.10594
0.736723
0.564417
0.249751
3.56848
5.7353
7.75936
8.83879
9.19103
0.841476
3.47067
5.84411
7.72097
8.58673
)
;

boundaryField
{
    left
    {
        type            calculated;
        value           nonuniform List<scalar> 
17
(
0.424215
1.08516
2.16818
3.90964
6.57945
0.286699
0.181129
0.138821
0.141007
0.199471
2.95525
2.05016
1.30643
0.787122
0.477382
6.97789
4.57861
)
;
    }
    right
    {
        type            calculated;
        value           nonuniform List<scalar> 
17
(
1.0574
0.891783
0.758642
0.628501
0.48122
0.338176
0.15014
0.0224813
0.0103492
0.0101575
0.010189
0.0170507
0.188793
0.520259
0.659351
0.8117
0.979678
)
;
    }
    down
    {
        type            calculated;
        value           nonuniform List<scalar> 
20
(
5.9924
3.00777
1.16223
1.05954
1.85281
4.27011
6.38318
8.13083
9.01545
9.30901
9.30884
9.01481
8.12937
6.37903
4.26339
1.8312
0.934139
1.18396
1.17861
1.10655
)
;
    }
    up
    {
        type            calculated;
        value           nonuniform List<scalar> 
20
(
8.54858
5.4071
2.72286
1.49833
1.05214
9.69562
9.66614
9.59856
9.47418
9.29336
9.29627
9.4764
9.60015
9.66724
9.69603
5.69972
3.17164
2.68168
5.39756
8.56514
)
;
    }
    cylinder
    {
        type            calculated;
        value           nonuniform List<scalar> 
40
(
1.35565
3.57894
6.11665
7.96065
8.95728
9.50519
9.74578
9.84079
9.88145
9.89746
9.5476
9.76288
9.84856
9.88496
9.89849
2.25654
4.49398
6.6865
8.23239
9.07012
3.04359
1.84716
1.08268
0.432035
0.599805
9.51886
9.33162
8.74183
7.26894
4.98539
9.51869
9.33089
8.7398
7.26074
4.95672
2.96495
1.73072
1.07022
0.667012
0.10516
)
;
    }
    defaultFaces
    {
        type            empty;
    }
}


// ************************************************************************* //
