/*--------------------------------*- C++ -*----------------------------------*\
  =========                 |
  \\      /  F ield         | OpenFOAM: The Open Source CFD Toolbox
   \\    /   O peration     | Website:  https://openfoam.org
    \\  /    A nd           | Version:  13
     \\/     M anipulation  |
\*---------------------------------------------------------------------------*/
FoamFile
{
    format      ascii;
    class       volVectorField;
    location    "9.165";
    object      U;
}
// * * * * * * * * * * * * * * * * * * * * * * * * * * * * * * * * * * * * * //

dimensions      [0 1 -1 0 0 0 0];

internalField   nonuniform List<vector> 
440
(
(-0.0910367 0.065187 -7.45116e-20)
(-0.113637 0.0984399 3.546e-20)
(0.0373779 0.0852567 8.63476e-20)
(0.496275 0.0825627 1.88243e-19)
(0.513537 0.19832 1.79033e-20)
(-0.0956092 0.0526195 4.07119e-20)
(0.0710037 0.0110557 -1.35222e-19)
(0.604012 -0.040763 -1.1492e-19)
(1.1814 -0.0733867 6.36991e-20)
(1.72009 -0.0968312 9.83113e-21)
(-0.0206427 0.00537991 5.5613e-20)
(0.55879 -0.0484356 7.96333e-19)
(1.37735 -0.0449452 -4.77362e-19)
(1.98667 -0.0224613 -1.49637e-18)
(2.47905 -0.0109215 6.20994e-19)
(0.211817 -0.0485392 -1.81696e-19)
(1.27862 0.000938793 -5.87825e-19)
(2.06437 0.0629824 1.90201e-18)
(2.47177 0.0935472 2.08043e-18)
(2.52596 0.101905 -5.79653e-19)
(0.598057 -0.00359277 -3.11989e-19)
(1.81535 0.183887 -6.6864e-19)
(2.35037 0.253843 2.03954e-18)
(2.47455 0.26123 2.17085e-18)
(2.55579 0.234897 7.2812e-19)
(-0.0249894 0.315126 4.84399e-20)
(-0.11128 0.533043 9.90597e-20)
(-0.194873 0.554647 -2.25954e-19)
(-0.24553 0.532844 4.87869e-20)
(-0.277 0.509094 6.9069e-19)
(-0.0558241 0.313132 2.03688e-20)
(-0.103805 0.624976 4.31406e-20)
(-0.135709 0.688544 -2.8605e-21)
(-0.160749 0.640989 -5.36462e-21)
(-0.156542 0.562251 1.53897e-20)
(-0.0642574 0.198224 3.19934e-20)
(-0.106408 0.526866 -1.37377e-19)
(-0.107144 0.684046 3.05367e-20)
(-0.0849925 0.713843 -3.18206e-20)
(-0.0219891 0.674175 4.24589e-21)
(-0.0372768 0.0710477 -3.21992e-20)
(-0.090133 0.282985 7.49788e-20)
(-0.0912877 0.448268 -1.45771e-21)
(-0.057019 0.528921 -1.74777e-19)
(0.0191568 0.552451 1.61731e-20)
(-0.0513768 0.0442906 -4.01077e-20)
(-0.133228 0.136278 -6.28914e-20)
(-0.153837 0.230119 -1.54394e-19)
(-0.0524867 0.282256 7.60103e-20)
(0.0468259 0.376465 -1.673e-19)
(-0.671483 0.557753 2.09291e-19)
(1.56865 -0.737788 1.668e-18)
(1.27415 -1.10982 2.96579e-20)
(1.0587 0.169399 -6.80056e-19)
(0.800484 0.287735 1.10789e-20)
(-0.464926 0.315191 -8.54717e-19)
(1.81464 -1.09294 -3.48515e-19)
(1.50117 -1.061 1.08371e-19)
(0.89315 0.268072 9.61126e-19)
(0.744226 0.311365 -2.04115e-20)
(-0.125119 0.138454 -4.06276e-19)
(1.84895 -1.29959 1.47027e-18)
(1.12521 -1.01543 -8.2166e-20)
(0.718555 0.370249 2.70473e-19)
(0.784121 0.307728 4.59243e-21)
(0.248699 0.0975828 3.72954e-19)
(2.20664 -1.23807 -2.28214e-19)
(0.742538 -0.88788 3.71585e-19)
(0.641038 0.354274 5.8462e-19)
(0.91492 0.286398 2.26035e-20)
(0.776552 -0.168226 -1.52538e-19)
(2.31856 -1.22157 1.13522e-19)
(0.816704 -0.698167 0)
(0.137104 0.355268 -7.39088e-19)
(1.08824 0.204643 4.03494e-20)
(1.87769 -0.174692 -4.86352e-19)
(2.43769 -1.0645 9.01437e-20)
(1.57382 -0.560918 -2.46449e-20)
(0.419483 0.216764 -1.31847e-19)
(1.41544 -0.00177035 -1.80697e-19)
(2.36537 -0.328401 1.85694e-20)
(2.54161 -0.97981 1.1851e-18)
(0.92943 -0.129822 -1.5737e-20)
(0.95838 0.373476 8.87115e-20)
(1.68392 -0.1136 0)
(2.29976 -0.329611 -4.25864e-19)
(2.13748 -0.49766 1.10253e-20)
(0.657359 -0.000696885 -1.48643e-19)
(1.55063 0.0406217 -1.10739e-19)
(1.72607 -0.228605 5.4451e-20)
(2.24094 -0.281141 7.61512e-20)
(1.60201 -0.337466 1.76411e-19)
(0.834516 0.0584523 -2.62417e-20)
(1.63019 -0.100466 2.29591e-35)
(1.19607 -0.192307 -9.25195e-21)
(1.28206 -0.0978926 1.65968e-19)
(0.497469 0.0370661 -1.28954e-21)
(0.616099 -0.0251392 -3.09448e-20)
(0.559748 -0.0903562 2.78737e-20)
(0.0178226 -0.0105411 -2.84386e-20)
(2.42604 0.241227 -8.96212e-19)
(2.62666 0.0180577 -1.12223e-18)
(2.48857 0.0585496 8.24372e-19)
(2.75524 -0.138223 7.33179e-20)
(2.15643 0.0184696 -1.4234e-20)
(2.1208 0.158591 5.59738e-20)
(2.4152 -0.00445554 -3.92099e-20)
(2.26062 -0.0173613 -1.33207e-19)
(2.49563 -0.147381 -2.22486e-19)
(2.37159 -0.231732 -6.3136e-21)
(2.08248 0.0687097 6.84407e-20)
(2.20856 -0.0176863 1.01308e-19)
(2.19155 -0.0624608 -1.33782e-19)
(2.25264 -0.123254 4.53974e-20)
(2.27254 -0.191649 2.37157e-20)
(2.08048 0.00873842 1.0931e-19)
(2.11868 -0.0430341 1.21741e-19)
(2.15049 -0.0666727 -1.77519e-20)
(2.1705 -0.111998 -1.76778e-20)
(2.18661 -0.144215 2.71438e-20)
(1.58201 -0.0278288 1.57101e-19)
(1.5218 -0.0305119 -1.21991e-20)
(1.55743 -0.0403956 2.54291e-20)
(1.47343 -0.0423702 -1.37438e-20)
(1.50454 -0.0579086 2.90885e-20)
(1.56669 0.831368 1.1483e-18)
(1.53529 0.938526 -3.80352e-19)
(1.54253 1.07508 -1.38204e-18)
(1.47143 1.12227 7.42493e-19)
(0.897734 0.8007 -1.69147e-19)
(1.87047 0.808777 -5.82655e-19)
(1.83764 0.885716 -3.08522e-18)
(1.8446 0.992293 -1.18959e-18)
(1.75495 1.00352 -4.10031e-19)
(1.06776 0.699626 -6.69803e-19)
(2.16826 0.669797 7.62218e-19)
(2.15796 0.745149 1.98914e-19)
(2.13656 0.837283 -2.3217e-18)
(1.99895 0.825503 -6.53223e-19)
(1.1789 0.546835 4.79833e-19)
(2.34649 0.562997 2.30218e-18)
(2.3335 0.612644 1.71309e-18)
(2.33066 0.665867 -1.98169e-18)
(2.11681 0.624465 -1.51117e-18)
(1.15852 0.362425 -2.76255e-19)
(2.49268 0.397828 1.1504e-18)
(2.5122 0.424336 -8.24475e-19)
(2.417 0.451723 5.95447e-19)
(2.07735 0.398476 4.71109e-19)
(0.975288 0.161651 -4.00518e-19)
(0.568568 0.492353 -6.24864e-19)
(0.474495 0.531302 -4.60077e-19)
(0.356292 0.569991 4.65161e-20)
(0.222124 0.570019 2.12822e-21)
(0.0543946 0.400673 8.34652e-20)
(0.688251 0.646314 8.94708e-20)
(0.622743 0.702603 -2.87108e-19)
(0.53235 0.768321 1.76625e-19)
(0.406065 0.827518 -8.26588e-20)
(0.177123 0.62691 1.17214e-19)
(0.776658 0.860731 1.044e-19)
(0.706997 0.946099 4.62532e-19)
(0.653082 1.04075 1.2114e-19)
(0.567764 1.07122 -3.09663e-19)
(0.310068 0.781549 2.62338e-19)
(1.05572 0.907568 2.40295e-19)
(1.00625 0.990406 -7.55216e-19)
(0.959902 1.09405 -1.97692e-18)
(0.880832 1.16372 7.82786e-19)
(0.517518 0.858911 -1.57125e-19)
(1.13854 0.978742 -9.64702e-20)
(1.17057 1.09522 -1.7239e-19)
(1.19064 1.20322 -3.83798e-19)
(1.13487 1.21913 -4.29149e-19)
(0.694374 0.864629 -6.70863e-21)
(1.01381 0.0506498 -8.70697e-20)
(0.998016 0.03527 -3.11292e-20)
(1.03534 0.143163 -1.42224e-21)
(0.937018 0.141854 -2.02151e-19)
(0.907086 0.297761 2.93636e-19)
(1.00286 0.048435 5.37745e-20)
(1.01332 0.0317148 1.16078e-19)
(1.01569 0.155782 1.15157e-19)
(0.981109 0.162499 2.82426e-20)
(0.942392 0.382131 -7.91505e-21)
(1.00843 0.0472745 7.0828e-20)
(0.998099 0.0252204 -4.55479e-21)
(1.05636 0.173739 -4.00379e-21)
(0.939134 0.162736 1.39754e-19)
(1.15222 0.525221 -4.73434e-19)
(1.00254 0.0468513 -3.23887e-22)
(1.0159 0.0169697 -1.70315e-19)
(1.04407 0.196401 -5.72197e-20)
(1.04076 0.149586 -3.59665e-19)
(1.18365 0.58543 8.38976e-20)
(1.00024 0.0396891 -1.06438e-20)
(1.01333 0.0211066 4.75116e-20)
(1.09197 0.190577 2.65927e-20)
(1.03405 0.181671 4.54593e-19)
(1.38359 0.712455 -4.66502e-19)
(0.960158 0.0427598 -3.89387e-21)
(1.0789 -0.00160798 1.06733e-19)
(1.06949 0.219301 -5.13689e-20)
(1.29424 0.0920712 1.02435e-18)
(1.3494 0.780994 -3.38265e-19)
(0.89923 0.0134345 -1.57774e-21)
(1.17253 -0.00191457 -9.40038e-20)
(0.994471 0.132284 5.44933e-21)
(1.43365 0.0703416 -3.62691e-19)
(1.33713 0.586495 -8.16175e-20)
(0.942627 0.00667309 4.39486e-21)
(1.13648 -0.00635596 1.48151e-35)
(1.08776 0.0782823 -1.10503e-20)
(1.3527 0.0289398 1.05709e-19)
(1.33788 0.431206 1.73357e-19)
(1.05787 -0.0363535 4.42373e-21)
(1.0024 -0.0295111 -3.17084e-20)
(1.22452 0.0130272 2.12878e-20)
(1.08345 0.0267579 1.94774e-20)
(1.46524 0.306372 -2.6728e-19)
(0.984763 -0.022918 -4.05422e-20)
(0.791651 -0.0238085 -1.93904e-21)
(0.935338 0.00205939 2.47491e-20)
(0.710928 0.00469664 -2.2486e-20)
(1.19065 0.0874008 -6.09501e-20)
(1.79347 0.586233 2.82673e-19)
(1.91278 0.642379 7.24751e-19)
(2.15484 0.484609 -1.04612e-18)
(2.2414 0.482333 1.09528e-20)
(2.43701 0.266528 4.46985e-19)
(1.75391 0.368897 9.19566e-20)
(1.78007 0.43833 9.94381e-19)
(2.00062 0.30507 1.16557e-19)
(1.97227 0.327074 -8.64256e-19)
(2.23623 0.148009 -2.75301e-19)
(1.69288 0.28133 -2.41314e-19)
(1.77223 0.292419 -1.48946e-19)
(1.9155 0.202371 1.98122e-19)
(1.94309 0.194375 -2.67944e-19)
(2.09462 0.0895871 2.48507e-19)
(1.70555 0.183465 4.12933e-19)
(1.82553 0.163126 1.0627e-23)
(1.89253 0.104495 2.10976e-19)
(1.97411 0.0860435 1.67507e-19)
(2.0262 0.0277334 -1.68884e-19)
(1.40581 0.0387201 -5.44902e-20)
(1.50913 0.0210355 2.53244e-19)
(1.51904 0.00373486 9.97406e-20)
(1.57598 -0.00909549 -2.01211e-19)
(1.53987 -0.0181743 5.20407e-22)
(1.14306 -0.017518 6.93357e-20)
(2.14077 -0.0375128 -4.39259e-19)
(2.37051 -0.0297925 1.19254e-18)
(2.34425 0.0094468 5.29297e-19)
(2.18789 0.0332091 -3.78483e-19)
(0.735339 0.100195 1.363e-19)
(1.9224 0.0993069 -4.52081e-19)
(2.36774 0.103153 -6.25135e-19)
(2.42039 0.107634 7.86972e-19)
(2.1601 0.096664 -5.36094e-19)
(0.26105 0.0912112 -8.28033e-21)
(1.31848 0.168539 5.01145e-19)
(2.03889 0.190222 6.62378e-20)
(2.39744 0.184105 5.39867e-19)
(2.54517 0.168464 2.29516e-19)
(0.00109614 0.000897942 1.82721e-19)
(0.529923 0.111513 1.92341e-19)
(1.293 0.186571 -4.79749e-19)
(1.77399 0.215187 3.41361e-20)
(2.30427 0.242679 1.92403e-19)
(-0.071194 -0.0572925 1.19429e-19)
(0.0577736 -0.0107917 -1.47989e-19)
(0.491039 0.0766523 -7.48503e-20)
(0.952522 0.120544 8.36026e-20)
(1.35839 0.188936 1.83537e-20)
(-0.0592453 -0.062468 1.05965e-20)
(-0.0759011 -0.075339 6.4448e-20)
(0.0463235 -0.0445873 7.68917e-20)
(0.262185 0.0141213 -1.90314e-19)
(0.608105 0.0841569 -8.71437e-22)
(-0.0335466 -0.0543298 -6.37515e-21)
(-0.0612856 -0.1017 -1.08716e-20)
(-0.0474229 -0.114421 -6.42528e-21)
(0.00896619 -0.0876101 4.7358e-20)
(0.14801 -0.0196329 4.30007e-20)
(-0.0325497 -0.0910451 -2.13851e-20)
(-0.0569551 -0.151228 -3.38766e-19)
(-0.0703535 -0.158421 3.05125e-19)
(-0.0805359 -0.128735 9.8573e-19)
(-0.0621499 -0.0709578 -1.76879e-19)
(-0.0298557 -0.0470019 2.52723e-20)
(-0.117371 -0.0213356 2.15958e-19)
(-0.203269 0.0456098 -6.78902e-19)
(-0.284625 0.12244 -5.73145e-19)
(-0.340162 0.196868 1.13928e-19)
(-0.0179345 0.156189 -1.72766e-20)
(-0.14759 0.285028 6.44508e-20)
(-0.271109 0.333421 -2.66964e-20)
(-0.3619 0.36386 -3.97683e-21)
(-0.43506 0.397253 3.74349e-19)
(1.41444 0.55398 -4.22456e-20)
(0.804837 0.12097 1.44142e-18)
(1.38451 -0.107073 -9.78019e-20)
(1.5399 0.0544323 1.19593e-19)
(1.05553 0.036307 -9.68956e-22)
(1.12378 0.477591 1.56627e-19)
(0.132951 0.0468726 -5.14848e-19)
(1.1652 -0.209341 -6.75187e-20)
(1.61974 0.107009 1.7926e-20)
(1.11351 0.0900217 2.4017e-22)
(0.292653 0.469708 -2.6312e-19)
(-0.774769 -0.0176 4.42688e-19)
(0.95966 -0.499784 8.80676e-21)
(1.54692 0.121143 -2.00948e-19)
(1.07576 0.15272 1.11096e-20)
(-0.511493 0.615337 9.28643e-19)
(-0.874881 -0.258664 -4.69725e-18)
(0.832174 -0.910769 -4.27993e-19)
(1.39261 0.115774 -5.17438e-21)
(0.984178 0.205762 -9.12886e-21)
(-0.791938 0.62784 2.46386e-19)
(0.298085 -0.56552 -4.5859e-19)
(0.848918 -1.14401 1.58685e-19)
(1.196 0.133819 4.18873e-21)
(0.878904 0.253566 5.28261e-21)
(0.492895 0.152486 -1.04615e-19)
(-0.222838 -0.0521356 0)
(0.0296623 -0.102361 -2.7623e-20)
(0.115197 -0.0641421 4.21829e-20)
(0.339249 -0.0316449 -1.2306e-20)
(1.81197 0.451209 0)
(1.07679 0.198382 0)
(1.26068 -0.00529728 5.14438e-19)
(1.14064 -0.0197524 3.22228e-20)
(0.864147 -0.0374267 1.42227e-20)
(0.702575 0.000649025 -1.28592e-19)
(0.763309 -0.00124134 3.12277e-19)
(0.885454 -0.0084391 -2.37597e-20)
(1.01156 0.0167008 2.89037e-19)
(1.26518 0.0704572 1.88051e-19)
(1.59191 0.0221268 1.23259e-19)
(1.71094 0.0760987 3.6447e-19)
(1.87463 0.0560779 -2.8203e-19)
(2.41455 0.180433 5.85691e-20)
(2.09748 0.158957 2.13492e-19)
(0.89145 -0.463492 -2.82103e-20)
(0.876438 -0.550384 -1.63435e-19)
(0.862802 -0.644254 -1.08204e-19)
(0.790817 -0.710324 6.66426e-20)
(0.482049 -0.558718 1.28309e-19)
(0.783082 -0.363852 1.20026e-19)
(0.727487 -0.427344 2.31621e-19)
(0.656041 -0.497928 -4.95829e-20)
(0.547504 -0.558845 1.4052e-19)
(0.300022 -0.447969 5.38711e-20)
(0.643381 -0.222551 -1.39907e-19)
(0.558853 -0.260887 -5.44405e-20)
(0.458105 -0.308104 1.08831e-19)
(0.33701 -0.350544 -1.56989e-20)
(0.148406 -0.285165 -1.23633e-19)
(0.543303 0.00894562 -4.28781e-19)
(0.456714 -0.00379695 -3.51148e-19)
(0.345558 -0.0237804 2.80816e-19)
(0.21882 -0.0529967 1.64096e-19)
(0.0583804 -0.0675437 1.33304e-20)
(0.524889 0.213651 -1.53086e-19)
(0.439704 0.216766 -1.62589e-19)
(0.322716 0.218765 -6.05551e-20)
(0.184011 0.226331 3.10203e-20)
(0.0268253 0.167681 1.22938e-20)
(1.94689 -0.0391589 7.83525e-19)
(2.21104 -0.102279 2.57771e-19)
(2.28503 -0.182353 -6.91774e-19)
(2.14213 -0.208834 -1.43666e-18)
(1.28979 -0.180159 1.24883e-19)
(1.92909 -0.12096 1.30327e-18)
(2.01758 -0.228597 1.73694e-18)
(2.04333 -0.346639 1.46767e-19)
(1.96515 -0.402388 2.59566e-19)
(1.25776 -0.348369 -1.71064e-19)
(1.64797 -0.277716 -3.36237e-18)
(1.72061 -0.392803 3.61296e-19)
(1.76887 -0.513387 1.0595e-18)
(1.7088 -0.583975 -3.91459e-19)
(1.10844 -0.489889 6.23765e-19)
(1.44887 -0.397577 8.0138e-19)
(1.46924 -0.494043 -2.13749e-18)
(1.45946 -0.608359 -2.42769e-18)
(1.39308 -0.690205 7.35862e-19)
(0.899425 -0.564758 5.10388e-19)
(1.17288 -0.452439 1.66909e-19)
(1.13596 -0.544431 2.47904e-19)
(1.1289 -0.66177 -3.69043e-19)
(1.074 -0.743733 -4.44544e-19)
(0.681349 -0.590048 -4.10761e-21)
(1.06158 0.0561385 7.40439e-21)
(0.929179 0.0577479 -1.54986e-21)
(1.1038 0.0841444 4.82248e-21)
(0.810881 0.0103789 -2.3597e-19)
(1.06235 -0.189776 -1.60082e-20)
(1.07478 0.0597341 -2.41991e-21)
(0.924033 0.0549486 3.38108e-20)
(1.10457 0.102345 -1.7358e-20)
(0.888204 0.0581834 1.76443e-19)
(0.970895 -0.0765297 -4.91251e-21)
(1.07381 0.0568369 -5.81721e-20)
(0.930419 0.0512921 6.69037e-23)
(1.09194 0.106585 -1.3209e-20)
(0.890306 0.0796768 9.36061e-20)
(0.937613 -0.0150065 -2.18044e-19)
(1.05392 0.0551977 6.91378e-20)
(0.959198 0.0462382 3.09335e-21)
(1.06251 0.115808 2.65274e-20)
(0.921481 0.104801 -3.59823e-20)
(0.857766 0.0905797 7.98854e-20)
(1.02736 0.0519091 1.71379e-20)
(0.990742 0.0429133 -2.60491e-20)
(1.03283 0.125581 3.86896e-20)
(0.948422 0.129618 4.61462e-20)
(0.838137 0.193726 -7.29382e-20)
(0.885036 0.0337833 0)
(0.714012 0.0286715 9.62531e-21)
(0.589826 0.0232078 5.94243e-21)
(0.33594 -0.00563483 4.34866e-20)
(0.640156 -0.050239 -1.45987e-19)
(1.0254 0.0750285 -6.43733e-20)
(0.944662 0.0734689 -9.68537e-21)
(1.00684 0.0840697 -5.32452e-20)
(0.801625 0.00398726 -1.37643e-19)
(0.998484 -0.176615 -1.57368e-19)
(0.880456 -0.0649835 -3.43206e-20)
(0.96685 -0.0317389 5.12414e-19)
(1.05301 0.0348486 3.02967e-19)
(0.936578 0.0494973 3.24312e-20)
(0.729241 0.0262862 0)
(1.23769 -0.303043 3.28175e-19)
(1.34789 -0.268507 1.4401e-18)
(1.51424 -0.151422 -1.56051e-18)
(1.61222 -0.0228292 -4.79424e-19)
(1.51301 0.025646 3.70369e-19)
)
;

boundaryField
{
    left
    {
        type            fixedValue;
        value           uniform (1 0 0);
    }
    right
    {
        type            zeroGradient;
    }
    down
    {
        type            noSlip;
    }
    up
    {
        type            noSlip;
    }
    cylinder
    {
        type            noSlip;
    }
    defaultFaces
    {
        type            empty;
    }
}


// ************************************************************************* //
