# Selection   : all
# Cells       : 440
# Volume      : 7.374263e+01
# Time        	minMag(U)
5.315         	2.068602e-02
5.36          	1.584377e-02
5.41          	1.455593e-02
