/*--------------------------------*- C++ -*----------------------------------*\
  =========                 |
  \\      /  F ield         | OpenFOAM: The Open Source CFD Toolbox
   \\    /   O peration     | Website:  https://openfoam.org
    \\  /    A nd           | Version:  13
     \\/     M anipulation  |
\*---------------------------------------------------------------------------*/
FoamFile
{
    format      ascii;
    class       volScalarField;
    object      p;
}
// * * * * * * * * * * * * * * * * * * * * * * * * * * * * * * * * * * * * * //

dimensions      [0 2 -2 0 0 0 0];

internalField   nonuniform List<scalar>
440
(
951.585792661
953.633569521
952.561412213
945.597309259
933.307489891
1039.53970848
1042.49820366
1043.0602005
1037.62717054
1026.63951134
1143.86993872
1146.77650399
1148.11243316
1144.54724697
1135.61991647
1260.96485966
1263.21008317
1264.65449387
1263.0243196
1256.98840787
1385.33259647
1386.49786544
1387.42087873
1387.35693294
1385.60108299
716.982628287
712.389088251
708.37336374
704.164070324
697.450287652
739.234732127
733.190980161
727.737002956
722.932468584
716.761667034
774.065215608
769.010772193
763.086138717
757.575207506
752.006138348
820.96525736
818.439944854
813.72255582
808.286311024
803.708782846
880.880698241
881.001248458
878.369622451
873.636721909
869.679454729
652.230343724
519.375445732
375.0627664
226.413889948
75.8400029538
665.08856687
528.957412187
381.049031694
229.668288542
76.8138693526
686.145620418
544.045951989
390.857753163
235.101628696
78.456197725
716.720877643
564.485225167
404.316548139
242.605670894
80.7279215573
758.665624385
590.194144516
421.089502228
251.997718328
83.570006819
801.228997025
612.533780124
433.956923294
258.978255088
86.0348761814
825.990095546
623.266757383
438.841734014
260.981092437
86.5544706642
845.003212034
632.795085963
442.850869059
262.623172188
87.0060516093
862.709536515
642.299080055
446.528407537
264.019861014
87.3769105433
874.849275883
649.946566084
449.666324933
265.357973804
87.7608117751
1390.32043621
1268.67477524
1154.20670215
1049.89725686
953.706930212
1396.14674343
1282.85340241
1176.29572109
1079.71092078
994.430552716
1402.04820841
1297.45440782
1197.04818216
1104.77818702
1024.89459221
1405.68579257
1307.58775764
1213.21031953
1125.92145709
1049.28022394
1407.12877903
1311.85552441
1220.51752574
1135.72855643
1059.62482446
1977.04038724
1964.12228981
1956.47486507
1954.86465045
1956.43010078
1880.97052871
1869.08480902
1862.83520246
1862.72798036
1865.03441922
1769.50279919
1759.49294693
1754.98418786
1755.51065736
1757.58830765
1646.2656634
1638.99963783
1636.32388576
1636.79956373
1638.06076384
1516.46022931
1513.37628778
1512.22616876
1512.13539761
1512.24429801
2222.61037223
2215.8924698
2211.76772979
2207.87193903
2203.26630609
2202.02149668
2195.80793983
2191.03850626
2185.65027764
2179.62212751
2165.01952998
2159.34938371
2153.78738739
2147.86503251
2142.78734928
2111.22782939
2106.44798213
2100.82306215
2095.96509368
2093.2938671
2042.9470575
2038.61213297
2033.4638763
2030.51638386
2030.33824821
2878.85895533
2695.91481662
2545.7028372
2401.37988763
2268.09592757
2876.74425953
2692.0752092
2539.44992822
2391.54673319
2254.56509883
2874.38834211
2685.97207119
2529.34219464
2376.11771477
2232.56862428
2871.72973241
2677.7565872
2515.56900096
2355.24220064
2200.84565671
2868.57811555
2667.67152165
2498.50405424
2329.03665121
2157.63729971
2864.66955687
2660.43038822
2485.27554106
2306.06180871
2113.96503522
2862.75986551
2658.05908916
2479.8212983
2294.59506405
2088.78751747
2862.18750069
2655.47364461
2475.34620125
2284.62567359
2069.73356868
2866.45398837
2652.83273075
2471.32168084
2274.90680236
2052.09702808
2879.3007555
2652.11757987
2468.28895823
2267.06715793
2039.87652285
1956.73123337
1859.03681331
1752.89962651
1637.02603954
1514.48802724
1916.83864972
1830.80683239
1733.20964395
1625.80381902
1512.03169025
1887.57060113
1807.1138128
1714.15337222
1613.09262092
1508.0894344
1863.7565988
1786.43614465
1698.50835245
1603.57200078
1505.11619877
1853.32036316
1776.56436275
1691.22633843
1599.41822609
1503.86427787
1362.74823655
1361.63957667
1360.61175285
1358.43565539
1357.86899331
1191.44239452
1189.30325839
1184.62673289
1177.35180525
1173.26261102
1052.37544064
1050.83408363
1043.06343037
1032.79632503
1025.06442927
947.307327592
945.169736615
936.385890861
924.280171456
914.852386864
873.583207267
870.032168803
862.786604676
852.122008981
842.476190887
814.61781126
809.628754513
804.120266509
798.254144436
791.612657358
769.280006762
764.345481389
759.890090513
755.123910899
748.73645489
737.322064131
733.931423359
730.502093483
725.800573559
718.608685287
717.209703389
715.434108842
712.919297701
708.011342016
700.261186541
710.111580755
707.373249309
704.353016619
699.929404074
692.580583184
701.169626737
553.431763728
401.063457385
242.633869539
80.9997955183
676.43777844
536.53268471
389.086753961
235.424871201
78.7433140124
659.261305456
524.259750044
380.149091559
229.994133669
77.0347410423
649.448610095
517.15006473
374.69294173
226.601059013
75.9563515934
647.047597907
515.449858787
372.957330264
225.391583
75.5536297147
733.035283252
565.445603881
407.066408491
246.293324386
82.5393477604
722.565539899
564.372712523
407.867053689
246.906900645
82.7435592848
1363.80781776
1187.59508278
1047.88210782
950.381263367
879.2777588
1356.85094982
1173.95821349
1030.80632955
925.993967216
852.148829841
2127.99094461
2121.23234818
2115.2285644
2109.54813153
2104.28573592
2171.63362637
2165.21862871
2160.42915323
2155.9484758
2150.90840469
2202.27568963
2195.0672337
2190.41241223
2187.05707175
2183.65257149
2220.79937418
2213.05129642
2208.24334959
2205.91767342
2204.27701527
2228.2582522
2220.92264837
2216.63584698
2213.82533702
2211.2796672
1557.35744947
1556.47407002
1553.77462245
1551.86292658
1549.57188579
1742.49925911
1737.98256265
1730.18717254
1724.78178435
1721.65948024
1891.66208629
1883.52622537
1872.76463821
1864.38818811
1862.03587759
2002.99237783
1993.21657711
1980.6980572
1971.39308767
1968.60048602
2076.31819584
2066.43633168
2055.49035604
2047.86259447
2043.84091863
2885.51131604
2678.55659142
2519.79946495
2367.470228
2219.34742245
2884.65699103
2686.83288408
2531.8372559
2384.44073473
2244.3594854
2883.74586869
2692.82867811
2540.85983404
2396.75445857
2261.73242816
2882.39704505
2696.33714206
2546.33626979
2403.84481307
2271.52595293
2880.73747695
2697.36379542
2547.99499505
2405.46336384
2273.70290585
2903.73395145
2675.38341819
2514.33566762
2355.44581836
2186.94176245
2889.43564842
2673.33804993
2512.98715497
2356.44184119
2197.57448514
2039.26571581
1967.60997526
1869.13949716
1728.43087237
1551.56745194
2066.61604726
1992.06982526
1886.22511862
1742.03698962
1558.4875216
)
;

boundaryField
{
    left
    {
        type            zeroGradient;
    }

    right
    {
        type            fixedValue;
        value           uniform 0;
    }

    down
    {
        type            zeroGradient;
    }

    up
    {
        type            zeroGradient;
    }

    cylinder
    {
        type            zeroGradient;
    }

    defaultFaces
    {
        type            empty;
    }
}

// ************************************************************************* //
