/*--------------------------------*- C++ -*----------------------------------*\
  =========                 |
  \\      /  F ield         | OpenFOAM: The Open Source CFD Toolbox
   \\    /   O peration     | Website:  https://openfoam.org
    \\  /    A nd           | Version:  13
     \\/     M anipulation  |
\*---------------------------------------------------------------------------*/
FoamFile
{
    format      ascii;
    class       volVectorField;
    object      U;
}
// * * * * * * * * * * * * * * * * * * * * * * * * * * * * * * * * * * * * * //

dimensions      [0 1 -1 0 0 0 0];

internalField   nonuniform List<vector>
440
(
(0.86111195575 -0.704514475081 -3.03605573726e-15)
(1.06001839349 -0.857043366073 1.39040137687e-16)
(1.07857749835 -0.913792942427 -9.42149566521e-17)
(1.01533867969 -0.92264766528 7.93733466317e-18)
(0.913563315459 -0.818670068026 -4.30011012641e-17)
(0.997421288026 -0.588626319768 9.1198418072e-18)
(1.14776324678 -0.681132697528 -6.64685763802e-18)
(1.11544676758 -0.707661615042 2.59585792968e-17)
(1.03294553009 -0.718681812212 -1.8986522174e-17)
(0.973449039071 -0.661383461411 -2.59296068529e-17)
(1.10370229297 -0.440021126624 -2.34092662486e-17)
(1.20418745626 -0.48787447649 -4.28884768191e-17)
(1.12437510954 -0.495834829042 -1.16424044804e-17)
(1.0428224211 -0.513544381039 7.24973253326e-17)
(1.08814058354 -0.499540605091 3.17532268295e-17)
(1.17393936736 -0.26899375173 2.56222446012e-17)
(1.22868149159 -0.292537453538 -6.65914408264e-18)
(1.10351656475 -0.293072780677 -6.47493969991e-17)
(1.01930040552 -0.314253140048 4.03872899974e-17)
(1.26517629888 -0.342827862925 6.63415807023e-17)
(1.20634122015 -0.0853490579154 2.54150910406e-17)
(1.23295674237 -0.098002096655 1.0258046472e-17)
(1.07661976729 -0.0982262436813 5.00610396886e-17)
(0.985086602718 -0.108699266656 -3.52638005271e-17)
(1.43011310205 -0.129986028995 -1.45992726346e-17)
(0.0497352305093 -0.284716441194 -4.99226333137e-18)
(0.178685921344 -0.412086059337 7.88161289642e-18)
(0.329294214796 -0.413196300685 -1.89925394608e-17)
(0.472364519359 -0.352399859389 5.9522980714e-18)
(0.575520295484 -0.276279384374 6.31284953401e-17)
(0.15212142597 -0.462586142146 -3.78800534574e-18)
(0.301206290329 -0.647639585582 -8.44492724686e-18)
(0.441641030079 -0.713673730555 -6.25369054582e-18)
(0.557046417309 -0.672266636952 -4.31869666562e-18)
(0.61778086748 -0.577180680058 5.92628856478e-18)
(0.306772354618 -0.617593992998 3.70580406616e-17)
(0.494980404583 -0.829991687384 1.76293715305e-17)
(0.631434151798 -0.91681680909 1.89822861487e-17)
(0.719180698898 -0.884446702646 -4.75317074303e-17)
(0.729906372832 -0.769910187273 1.33675993499e-18)
(0.492064257811 -0.720780441521 9.62643539063e-18)
(0.715331237785 -0.935177114078 -1.22640249321e-17)
(0.838149655332 -1.01964894109 3.07251474833e-17)
(0.892025741839 -0.987874408036 2.77587902756e-17)
(0.849260700056 -0.860515006242 -1.70663906538e-18)
(0.691657122333 -0.753881940293 -1.50980372724e-17)
(0.927739148681 -0.950184239603 -9.76837397424e-18)
(1.01344034199 -1.02129064695 -6.83199364791e-20)
(1.02043421382 -1.00493390023 -9.58869892985e-18)
(0.91639272854 -0.865704962119 -3.46282797609e-17)
(0.812372670371 0.27509251876 7.71601270608e-17)
(0.627175860742 0.717098687496 -5.71184094277e-17)
(-0.0840885743349 0.19296120818 -1.57955209205e-17)
(-0.397124990273 -0.0421892619816 9.78584245733e-18)
(-0.497600716601 -0.0219636732227 -5.29889062409e-18)
(0.60334558298 0.228022694504 -1.48527647139e-16)
(0.5124392051 0.864447653226 2.47959093199e-17)
(-0.0774744155447 0.326388956668 -2.19348581666e-17)
(-0.412321932958 0.01866817365 -4.62040587257e-17)
(-0.516272740452 -0.000250669802497 1.00234764084e-17)
(0.411789680125 0.199592242477 -8.20703573933e-17)
(0.286062934016 0.953545567307 -1.9362213081e-16)
(-0.0581142463861 0.456339169556 1.73651715926e-17)
(-0.388207864966 0.0773717669556 -3.83528661607e-17)
(-0.500446619012 0.0226660903826 -9.71100293587e-18)
(0.247099379524 0.190998743612 8.399941839e-17)
(0.00791850371411 1.0023711241 4.61599570403e-17)
(-0.086582951768 0.571412262463 1.73266851228e-17)
(-0.332944746554 0.128763205824 3.54166978605e-17)
(-0.462282682216 0.0430386385133 -1.21525222514e-17)
(0.0873781624515 0.161433695135 -5.11048789637e-18)
(-0.304939914043 1.01417300302 1.7458379968e-16)
(-0.155444762441 0.68253327448 0)
(-0.246747996901 0.214516314987 -1.44987824438e-17)
(-0.391929997262 0.0662131835719 2.70758932837e-18)
(-0.243951902317 0.507678801734 -2.09050826662e-17)
(-0.587391196434 1.08246492133 -5.31551192533e-17)
(-0.286912333644 0.733079246483 5.21745801174e-18)
(-0.128821174386 0.248703107597 -2.50684053844e-17)
(-0.147409094435 0.0674630002565 -9.14413221311e-18)
(-0.910312484237 0.536840643392 -1.92812783996e-17)
(-0.471126628473 0.739198050359 2.86336668735e-17)
(0.235017390557 0.445412328179 5.43521811313e-18)
(0.642112183537 0.163462179289 7.6249090167e-18)
(0.67438603809 0.048052343017 0)
(-0.260753335083 0.305237689803 -2.85649415994e-17)
(0.574572428791 0.33424637469 -6.05912791233e-18)
(1.29465939272 0.183508464176 1.09852208778e-17)
(1.65678216054 0.0811419362339 -2.09475798103e-18)
(1.67545663318 0.0244623102785 1.3420390181e-18)
(0.543732645101 0.20275038039 5.22234293294e-17)
(1.15161509348 0.150345638298 -3.94238786667e-17)
(1.62935684954 0.0683742539672 1.52468422472e-17)
(1.85218248249 0.0377757594842 2.08724152698e-31)
(1.8789341691 0.0123884581538 -2.20014372466e-17)
(0.837949455404 -0.0035453139532 5.76683025052e-18)
(0.997085466817 -0.0493042722901 8.1927711653e-19)
(1.10130011003 -0.0623314285549 1.35981961724e-17)
(1.13206689206 -0.0286623358828 -1.64853017314e-20)
(1.13857745526 -0.009093117914 -9.09644493075e-20)
(0.2921847014 -0.0398892551116 1.03925022075e-16)
(0.286680720069 -0.0729652889462 -6.91675798005e-17)
(0.271829560505 -0.107586443605 3.93755688121e-17)
(0.264720102977 -0.186512002835 2.24109379092e-17)
(0.347358974208 -0.339362591771 -5.09320542152e-18)
(-0.811065864282 0.00733434489026 6.11262990702e-17)
(-0.852056243856 0.0639702846649 -3.58417364694e-18)
(-0.901238446617 0.151254885277 -2.57939215853e-17)
(-0.936107027488 0.286302322275 1.87270790636e-17)
(-0.84785895477 0.43336681129 -4.28154499169e-18)
(-0.208277005756 0.0263056556106 3.43058842671e-17)
(-0.239966256972 0.0803722994788 -2.67674839636e-17)
(-0.303501550476 0.13401502891 5.41213824716e-17)
(-0.396436323269 0.195121340918 -4.14838961999e-18)
(-0.468654140936 0.25924438892 -5.64751382039e-17)
(0.0944254403233 0.0268855328151 2.50790708879e-17)
(0.108689634355 0.0869803384207 7.7388890936e-17)
(0.135567811057 0.151486431624 -6.60174418405e-18)
(0.163077906469 0.214120927959 -8.32430272958e-17)
(0.20379648703 0.234599542791 2.14977080417e-17)
(0.57085643813 0.000960866209465 4.65910311144e-17)
(0.58258410544 0.0031801727649 -1.57551547355e-18)
(0.608533803844 0.00700986391449 1.2904210793e-18)
(0.648363557311 0.0105808689197 -2.53170837005e-17)
(0.702373853023 0.00346554778573 -4.32818813027e-17)
(0.875585189676 0.764947966468 2.71944054011e-17)
(0.98200081739 0.881285291251 5.17227026038e-18)
(1.04942126712 0.88316259559 -2.55068914813e-17)
(1.03922608599 0.837601047982 1.14592691006e-17)
(0.846592042022 0.705418624663 -9.97717274651e-18)
(0.944055796297 0.626417436685 -2.63281279664e-17)
(1.00560804583 0.691592448083 -3.87519966249e-17)
(1.08987765105 0.686692585505 -4.43721147131e-18)
(1.1283831234 0.667484166214 -1.9431076924e-17)
(0.98331178113 0.594165283399 -1.27034930539e-17)
(1.06603595287 0.474696049942 -1.85868398502e-17)
(1.02485595793 0.494098855614 1.46720788843e-17)
(1.10534429949 0.481096610269 2.02079065798e-17)
(1.18877714832 0.478687026577 6.09147771663e-18)
(1.09187513125 0.450123994326 2.32543079801e-17)
(1.24856265501 0.327777744798 -1.92358272375e-17)
(1.01071715956 0.300306093834 -6.35274295204e-18)
(1.09265182983 0.283493469481 -3.38956858946e-17)
(1.2193609898 0.287393935758 2.47456314673e-17)
(1.16639048935 0.282953993386 -1.35486417619e-17)
(1.42193225975 0.124435339863 -4.23001047758e-17)
(0.982893351508 0.0975861329736 -4.28480469677e-17)
(1.07322996711 0.0915567932785 -1.55556928415e-17)
(1.22989543412 0.0951729874473 2.13056053266e-17)
(1.20380185432 0.101373861812 -1.33718258862e-17)
(0.587424175092 0.111532605965 7.86942954871e-17)
(0.487701423244 0.192204704904 5.54291350165e-17)
(0.346721818623 0.270441416969 -5.68008295317e-18)
(0.197518619207 0.310807018166 2.29147903947e-18)
(0.0532505292569 0.245283133815 2.85685803801e-18)
(0.615675911058 0.413904693841 4.28781287e-17)
(0.555296141524 0.521936529638 1.48270724079e-17)
(0.44022901079 0.593889862659 8.29952553861e-18)
(0.300422742621 0.575534907773 -3.39271706131e-18)
(0.145351716426 0.438275843594 3.87364594595e-18)
(0.707042937545 0.632383801119 -2.01754658224e-17)
(0.697183445823 0.764138934838 3.73494294124e-17)
(0.612367071994 0.828373789507 2.60603066186e-18)
(0.480998647503 0.779563236377 -8.16216847139e-18)
(0.295376782246 0.603163122502 2.81630368763e-18)
(0.81504325706 0.757087092832 2.33687264318e-17)
(0.859460304302 0.900734756433 -2.92248973371e-17)
(0.810716895695 0.957287476809 -5.21817710621e-17)
(0.696118440606 0.899166955291 1.33180538263e-17)
(0.479051789382 0.712494129827 -1.29858643358e-17)
(0.879437262442 0.794164323928 -1.79625602882e-17)
(0.985661485864 0.945850815835 -1.98450313022e-17)
(0.983981603269 0.977963598949 -1.69344021102e-19)
(0.907215771958 0.924047927096 3.09374809188e-18)
(0.677748091223 0.750338856447 -3.3423423386e-20)
(-0.593218112906 -0.128379796191 -2.57927689138e-17)
(-0.221991673528 -0.0629134972626 -1.4848646759e-18)
(-0.110970968195 -0.0878819986167 4.74358599906e-18)
(0.488688506503 -0.645851784097 -1.22702371134e-16)
(0.820242479209 -0.413290029122 -5.92402444888e-18)
(-0.597362703965 0.0307312683866 1.55897168542e-17)
(-0.205893060951 -0.0274507450784 5.45843761034e-17)
(-0.10502394977 -0.165051381593 3.50248455631e-17)
(0.466188055476 -0.820370456201 5.13777297492e-17)
(0.631135027076 -0.384725690227 -4.43989977843e-17)
(-0.60788428676 0.185199325959 1.4014097798e-17)
(-0.206628661729 0.00408722781409 -3.01598223726e-18)
(-0.0318368474886 -0.256656826082 -2.13258432155e-17)
(0.313475738749 -0.939618413262 3.19906837684e-17)
(0.43402392356 -0.357077380689 -6.78766526738e-17)
(-0.627047230979 0.332874872933 -1.0041775484e-18)
(-0.195610831196 0.0282465337318 -6.56476336438e-17)
(0.0204498569536 -0.360013051053 -2.94709938228e-17)
(0.0852995578375 -1.00407708183 -1.45027677387e-16)
(0.25667113881 -0.335463271679 2.73891700909e-17)
(-0.652093735488 0.472781740627 -1.91060470554e-18)
(-0.149846893734 0.0307609897284 4.02855305909e-18)
(0.0319179526933 -0.481737070462 1.82890159564e-17)
(-0.19513200025 -1.02171880611 1.11070408423e-16)
(0.0845177637818 -0.28150261126 -6.4399966918e-17)
(-0.649538757719 0.64845489871 7.11129198922e-18)
(-0.0394417845763 0.0707442559123 2.95263028451e-17)
(-0.0271769846809 -0.540737474513 -2.77794392369e-17)
(-0.427849693933 -1.06734508423 1.97466961614e-16)
(-0.244452637396 -0.593200391297 -9.4027382672e-17)
(-0.536868765602 0.841296653759 -1.38628020866e-18)
(0.398898315196 0.176378536568 -1.35529912852e-18)
(0.260427644094 -0.358481509756 5.38981699553e-18)
(-0.341460802236 -0.742191339673 -3.65043243295e-17)
(-0.822755063318 -0.571310022516 1.48819156569e-17)
(-0.208787222267 0.753589897344 1.00026135484e-17)
(1.4307244304 0.280368663734 -1.56356681926e-33)
(1.31546318724 -0.130565872204 1.61688381081e-18)
(0.640892249336 -0.330295176014 9.62967019899e-18)
(-0.208139451372 -0.326519037497 4.71237741407e-17)
(0.128833497999 0.221541301692 2.65871372267e-18)
(1.82394583101 0.13180597566 -1.67690224014e-18)
(1.70640928728 -0.0384702186685 1.53599892124e-17)
(1.19901346785 -0.147325357954 1.74172652769e-17)
(0.571049113135 -0.205831534421 -7.28725242702e-17)
(0.227919625923 0.0117766394265 -5.19826067267e-18)
(1.10776563103 -0.0758099865323 -9.80537531039e-19)
(1.12373538723 0.045352901722 1.24375752201e-17)
(1.01226087113 0.0516573058097 -6.52849231739e-19)
(0.844046042314 0.00434844202766 -1.49874110523e-17)
(0.307536615629 0.277860960942 3.77754579822e-17)
(0.231624516897 0.147908240164 3.16720250329e-17)
(0.245037995422 0.0744362164782 -5.46571527104e-17)
(0.26411835714 0.0431420538289 -1.13734866338e-16)
(0.281433759803 0.0124896716459 1.16389023452e-16)
(-0.811541148649 -0.444678663061 1.71383148276e-17)
(-0.899782292698 -0.305921451736 1.64404361131e-16)
(-0.868673608428 -0.171722904245 4.62666192848e-17)
(-0.825534652598 -0.0838238986678 -1.80353034312e-16)
(-0.799783921253 -0.0317500385552 -2.86164002127e-17)
(-0.436168084672 -0.270670508931 -6.19863676819e-17)
(-0.377577434424 -0.203298129325 -3.62235509881e-17)
(-0.29392713887 -0.142475690623 -5.06054349122e-17)
(-0.236213664179 -0.0863442808229 -6.44149634888e-17)
(-0.207472697298 -0.0303272914397 6.06666769169e-17)
(0.2232330086 -0.233595529432 6.64755364444e-17)
(0.176248970301 -0.213908971487 -4.43539538725e-18)
(0.145020620879 -0.153606480333 4.80737308889e-17)
(0.114632265691 -0.0900394413165 5.82716989241e-17)
(0.0964546130604 -0.0304579082988 -5.25167370722e-17)
(0.705924425638 -0.00215054784435 -6.0538241347e-18)
(0.65063230611 -0.00962281533848 4.17973789602e-17)
(0.610370761962 -0.00660423003577 2.67164102528e-17)
(0.583685448767 -0.00290305466616 -4.83841207e-17)
(0.571214001688 -0.000739811864439 -3.89180944365e-19)
(2.43141369812 0.167187691384 1.49871451445e-17)
(3.85730370451 0.239734528203 -1.27550314683e-17)
(4.39402790305 0.246169852308 -2.38698525523e-18)
(4.66979521004 0.221313738466 -1.58951944528e-17)
(4.03576545179 0.099273426681 -5.48070175092e-18)
(2.25028227441 0.48830137681 2.8090008906e-17)
(3.5584843596 0.672442804351 1.29092501229e-17)
(4.17178216645 0.686865612851 -1.29062835089e-17)
(4.22113753238 0.580910888864 7.87281079887e-18)
(3.94602515819 0.369178692544 -1.80010078351e-17)
(1.91635440907 0.715459962101 2.44662251984e-17)
(3.05802119398 0.993678528222 7.52657596563e-18)
(3.66803867547 1.03010342485 -9.57004986411e-18)
(3.73879320131 0.892813124212 -7.79547630952e-18)
(3.59541842427 0.699350079464 -5.33664524475e-17)
(1.50427012516 0.82325949844 -2.1735970824e-17)
(2.42933487109 1.15681808292 -1.87935303671e-17)
(3.00126782081 1.25100771162 3.82874218642e-17)
(3.20716233808 1.14636248033 -2.61386753874e-18)
(3.05741748164 0.958063528201 7.25590026928e-18)
(1.09936749279 0.832622139162 -3.50359613544e-17)
(1.80319652425 1.18862075422 1.68807033367e-17)
(2.30342423444 1.349430637 -2.00161628837e-17)
(2.60180427535 1.34100323221 -2.8765114617e-17)
(2.61738124964 1.15760536625 -2.31885051097e-18)
(0.746520445014 0.768678831424 -1.92783754564e-17)
(1.25824581982 1.09974000535 -9.70402634127e-18)
(1.6694433856 1.28302465652 -2.46610079475e-17)
(1.98314188384 1.33921800634 1.6306610875e-17)
(2.15665035318 1.27101664793 -6.57706965469e-18)
(0.452180019405 0.63517906436 1.12266497914e-17)
(0.817124065417 0.885139595418 6.26337873443e-18)
(1.14414689011 1.04630262434 1.27248224223e-19)
(1.43709733426 1.12353575128 1.6182098165e-17)
(1.63178281897 1.09894340556 7.95567110531e-18)
(0.228927242519 0.432714887542 7.64616952694e-18)
(0.493371140926 0.565199068876 -1.47105671253e-17)
(0.749546050981 0.721458321365 3.01331853622e-17)
(1.00245088989 0.808231104631 7.23552082191e-17)
(1.18413084391 0.815024962179 -2.85763272083e-17)
(0.100843825708 0.159380055018 1.46543299666e-18)
(0.302342375975 0.238643212212 8.18006882734e-18)
(0.498615914462 0.357691532613 -3.02025074138e-17)
(0.70066370411 0.428922223486 -6.02551145287e-17)
(0.853119223538 0.457545808578 1.01371022644e-17)
(0.0149937759518 -0.15970116795 -3.03112410132e-19)
(0.194328999544 -0.112049819111 1.94325784121e-18)
(0.356196999272 -0.0396323670134 -1.23331123739e-18)
(0.525247562163 0.0308479826712 -1.29294350239e-19)
(0.656508601267 0.082971795396 2.14516035534e-17)
(1.97840600743 0.472215581122 -1.05811700541e-17)
(1.26131473725 0.150046052951 -4.94407122141e-17)
(1.31971034017 -0.0471648019624 1.8094348841e-17)
(1.47162342623 -0.0679073365775 3.14043595175e-17)
(1.59186454676 -0.0235914277829 2.42498281563e-18)
(1.82546796504 0.429235602907 -1.40745906126e-17)
(0.929426085358 0.164088478586 -7.71696404525e-19)
(0.903891879722 -0.093409045671 4.46678745622e-17)
(1.01753912294 -0.100762623033 6.90985965431e-18)
(1.11433879398 -0.0347089615346 -7.44762508536e-18)
(1.53254171408 0.403139700088 7.70225413937e-19)
(0.708180197662 0.266776002807 1.97866409013e-17)
(0.432474446566 -0.107148592702 -1.44881708753e-17)
(0.448111922518 -0.130925052245 -4.49092701637e-18)
(0.509404030374 -0.0456844162689 1.12306323267e-17)
(1.26214229821 0.370378793903 -2.55124881262e-17)
(0.638744401059 0.396898103186 6.959268025e-17)
(0.117943703456 -0.0473609879588 -5.65974342446e-18)
(-0.0328725899439 -0.132522252433 -3.11746187474e-18)
(-0.0313587136463 -0.0488819611599 3.25314093318e-18)
(1.03476826962 0.323148437801 -7.76001899731e-18)
(0.639725626435 0.550464079598 -1.50376470462e-17)
(-0.032018675298 0.0636703430865 -1.71308056191e-18)
(-0.302888096357 -0.0987184335 1.33600701366e-17)
(-0.3706011318 -0.0401756769052 9.38769495915e-18)
(1.02636314818 0.0745045079801 1.70639865533e-17)
(0.772865508279 0.000667348456965 0)
(0.763421690442 0.000548866591399 9.15009341319e-18)
(0.81715682537 0.00453544826752 5.50710918922e-19)
(0.860437606143 0.0029646676869 -1.00646809985e-17)
(1.89478349482 0.118186732107 0)
(1.28331127033 0.0256342088389 0)
(1.24702485828 -0.0221573378035 -1.60098994225e-17)
(1.36142990604 -0.0311906737458 2.49341963568e-18)
(1.45685690173 -0.0108399247864 2.07628317837e-18)
(1.68238859395 -0.0030616518272 -1.79437911239e-17)
(1.75492498905 0.00975916770886 1.03799216845e-16)
(1.74346782299 0.0544205170306 -7.52144182555e-18)
(1.61921026614 0.121610933239 -6.54311788877e-17)
(1.46722627785 0.194127839282 -1.9222642812e-17)
(2.90065147762 0.0386774026097 1.88199728332e-17)
(3.01113155656 0.156146174424 8.36195305657e-17)
(2.99125983138 0.352661768498 -2.89950515758e-17)
(2.75612965077 0.605267776896 -2.57080677936e-18)
(2.39942037367 0.794760629261 1.16862363281e-17)
(2.15486163854 -1.2811239937 4.86179909915e-18)
(1.98668019416 -1.3503805763 -1.56065586002e-17)
(1.67069888828 -1.287026983 -1.79121806649e-18)
(1.26036820866 -1.09956022465 -3.06224038047e-18)
(0.743163668797 -0.77426490729 7.31159338432e-18)
(1.62142392448 -1.14456378448 -1.33340467086e-17)
(1.43682663618 -1.16770245301 -4.81000932756e-17)
(1.14481607539 -1.07569946102 -1.64132036628e-17)
(0.816955785016 -0.888513253599 8.14928985128e-18)
(0.450770485528 -0.636373149158 3.59243446739e-18)
(1.14647768409 -0.903240485808 2.80078729687e-17)
(0.98149248559 -0.89741320968 -2.42377545241e-18)
(0.740235629929 -0.803507743376 -3.83324594499e-17)
(0.486617860346 -0.613334616074 -7.57404585112e-18)
(0.229828073646 -0.438471930656 -5.6473250593e-18)
(0.809763360557 -0.577015120181 4.47546857681e-17)
(0.669699223581 -0.5517756913 3.08784281352e-17)
(0.480314831041 -0.478480044484 -1.64102692111e-17)
(0.284648901846 -0.353975787005 -1.27422826032e-17)
(0.0829413042591 -0.183923019521 -9.14628480887e-19)
(0.647939730217 -0.227534047531 7.97263273021e-18)
(0.525439477444 -0.177615181311 9.39212924963e-18)
(0.364148093541 -0.104457782891 -1.00906655736e-18)
(0.210071732345 -0.020886666264 -2.92395264091e-18)
(0.0550926502775 0.0481099309628 1.48514870704e-19)
(4.03488600138 -0.0992619203295 3.49895120802e-17)
(4.66455936931 -0.222804374069 -1.20313699072e-17)
(4.39286847962 -0.248492882283 1.51242305975e-17)
(3.8571299873 -0.241307931906 9.11066131912e-18)
(2.43084828846 -0.189301349956 1.45370390277e-17)
(3.94114279443 -0.368286466911 5.01932203902e-17)
(4.21699137798 -0.580470637883 6.25127225166e-17)
(4.16983758958 -0.687440141216 8.69558470667e-18)
(3.55969929782 -0.673526506765 2.32512057667e-17)
(2.248136117 -0.5082584543 -1.47322507052e-17)
(3.59080864145 -0.698073995377 -9.51213980808e-17)
(3.73535588537 -0.891886405775 -2.24342230989e-17)
(3.66667099094 -1.03002962082 2.48755032703e-17)
(3.05988249534 -0.994524220784 8.97251736816e-18)
(1.91296612324 -0.731950584868 1.57316564874e-18)
(3.05309567389 -0.957024608667 2.20981339532e-17)
(3.20508472853 -1.14604366097 -6.89699292521e-17)
(3.00081880786 -1.25112867856 -2.07552627557e-17)
(2.43197902694 -1.15796727226 -5.30116649345e-18)
(1.50055397105 -0.835939919895 2.22537003839e-17)
(2.61974254818 -1.16199419654 3.72294737303e-18)
(2.60283020047 -1.343930005 2.05597265947e-17)
(2.30475556869 -1.35052212602 -1.2101488763e-17)
(1.80653452484 -1.18989731073 -9.60394949745e-18)
(1.0959628983 -0.841968319639 -1.88767049807e-20)
(-0.0536123663009 -0.334650885836 8.26701123453e-19)
(1.55430605217 -0.125259106598 3.59571425074e-18)
(1.45529611727 0.0811761013301 3.26946963873e-17)
(1.18931791628 -0.12050397887 -1.63611764087e-17)
(1.91761153092 -0.494131176441 -5.68271030547e-18)
(-0.324410282786 -0.561431668302 -7.9318737978e-19)
(1.02389626072 -0.161376882796 -1.69251768934e-17)
(1.00475353348 0.110972943684 3.62933568007e-17)
(0.789148755052 -0.103803688627 1.94234158146e-17)
(1.72567862212 -0.474075554958 1.52583434287e-17)
(-0.513051950254 -0.584663721647 -1.6801995423e-17)
(0.319829227775 -0.154224491367 -3.1130599377e-18)
(0.493616383344 0.11283023209 -5.78263541441e-18)
(0.504772570311 -0.191244556072 9.07171824294e-18)
(1.41292340737 -0.469009238813 1.59421512889e-17)
(-0.57970737318 -0.462023685231 2.56628199873e-17)
(-0.175340389401 -0.12893911934 6.34404195732e-18)
(0.142144989442 0.0659014726098 -2.7455434944e-19)
(0.413072716654 -0.31670238333 4.61104309878e-17)
(1.1612473568 -0.457098891342 -4.5362046948e-18)
(-0.591188171157 -0.294509076994 5.40121531991e-18)
(-0.256498461901 -0.0950787526379 -1.84326170597e-17)
(-0.0337011870117 -0.0078718495831 1.00004936097e-17)
(0.435242769356 -0.470666856517 1.71802375434e-17)
(0.989392608045 -0.433753955244 -6.61544337549e-17)
(0.173412132383 -0.0211787484388 0)
(0.859533547882 0.0537135249293 -7.31627202335e-19)
(0.805145591899 0.0236826787536 9.29607374042e-18)
(0.766778461854 -0.0028832048193 3.13674291215e-18)
(1.02998016341 -0.0726032418252 -3.24240385994e-17)
(0.159798742411 -0.108055548714 -8.11571797496e-18)
(1.44825456856 -0.0597175248525 2.61913100045e-17)
(1.35846735643 0.0170514234205 -2.67590698139e-17)
(1.25180203368 -0.0207633184889 -4.32789706449e-17)
(1.87802481722 -0.117929503837 -3.17914592531e-17)
(1.4691966347 -0.193331359505 -6.57761262059e-18)
(1.61931644813 -0.121234052457 5.55265854773e-17)
(1.74445356248 -0.0535807853152 2.2497578619e-17)
(1.75566692235 -0.00930871004347 7.85180995718e-18)
(1.68311251841 0.00342494344788 0)
(2.39368218939 -0.792035386115 5.09083376179e-17)
(2.75052718209 -0.606197378258 1.12580258702e-16)
(2.98848981488 -0.352156356296 -7.85080555296e-17)
(3.00913861966 -0.155359870544 -1.95851391931e-17)
(2.90003348172 -0.0383551066818 2.55867695227e-17)
)
;

boundaryField
{
    left
    {
        type            fixedValue;
        value           uniform (1 0 0);
    }

    right
    {
        type            zeroGradient;
    }

    down
    {
        type            noSlip;
    }

    up
    {
        type            noSlip;
    }

    cylinder
    {
        type            noSlip;
    }

    defaultFaces
    {
        type            empty;
    }
}

// ************************************************************************* //
