/*--------------------------------*- C++ -*----------------------------------*\
  =========                 |
  \\      /  F ield         | OpenFOAM: The Open Source CFD Toolbox
   \\    /   O peration     | Website:  https://openfoam.org
    \\  /    A nd           | Version:  13
     \\/     M anipulation  |
\*---------------------------------------------------------------------------*/
FoamFile
{
    format      ascii;
    class       volScalarField;
    location    "1.11";
    object      p;
}
// * * * * * * * * * * * * * * * * * * * * * * * * * * * * * * * * * * * * * //

dimensions      [0 2 -2 0 0 0 0];

internalField   nonuniform List<scalar> 
440
(
-1.34698
-1.336
-1.29794
-1.19221
-1.04366
-1.56264
-1.53808
-1.46026
-1.32016
-1.16304
-1.75043
-1.70334
-1.56857
-1.38897
-1.2063
-1.87896
-1.79888
-1.6081
-1.3993
-1.20976
-1.9138
-1.78413
-1.55043
-1.32152
-1.12227
-0.233655
-0.22579
-0.202107
-0.153967
-0.0849911
-0.387786
-0.379468
-0.357434
-0.307912
-0.203379
-0.622969
-0.615928
-0.60172
-0.553273
-0.439243
-0.878748
-0.873965
-0.866063
-0.815132
-0.692634
-1.1207
-1.11574
-1.10207
-1.03391
-0.899114
0.182822
0.0477393
0.0681402
0.0433714
0.0138574
0.130886
0.0361885
0.0643185
0.0414947
0.0132073
0.0604507
0.0279998
0.0589152
0.0391011
0.0124928
-0.0499996
0.020682
0.0523683
0.0361414
0.0117265
-0.203034
0.00877194
0.0453358
0.0326636
0.0108347
-0.292967
-0.0033275
0.0363313
0.0272025
0.00940226
-0.290788
-0.0346883
0.0104027
0.0149886
0.00599015
-0.258938
-0.0370936
0.0067002
0.0105752
0.00428664
-0.254179
-0.0621103
-0.00730063
0.00305322
0.00181847
-0.248448
-0.0746505
-0.0164105
-0.00154309
0.00041068
-0.807788
-0.892925
-0.903979
-0.885826
-0.814947
-0.555926
-0.635906
-0.667887
-0.659558
-0.629538
-0.392149
-0.464995
-0.499943
-0.493679
-0.468788
-0.291231
-0.360174
-0.394438
-0.395148
-0.376611
-0.235933
-0.308215
-0.347423
-0.353524
-0.339296
0.446359
0.311044
0.144851
-0.0449229
-0.262425
0.0628991
-0.0883745
-0.27552
-0.493109
-0.745176
-0.338999
-0.505282
-0.714487
-0.949018
-1.21357
-0.687605
-0.868206
-1.09865
-1.34931
-1.58315
-0.958087
-1.15109
-1.38612
-1.63628
-1.82291
1.67531
1.69904
1.72426
1.7405
1.74231
1.48494
1.49835
1.50894
1.50579
1.48466
1.24311
1.23513
1.20975
1.16464
1.09721
0.980078
0.948409
0.886877
0.798185
0.683723
0.71482
0.631738
0.519042
0.382614
0.217603
1.54525
1.37579
1.52177
1.47717
1.60253
1.53339
1.36167
1.50096
1.44317
1.51119
1.522
1.34603
1.47805
1.3992
1.3931
1.51128
1.32934
1.45326
1.34595
1.22058
1.50173
1.31194
1.42785
1.2833
1.03203
1.49102
1.28974
1.39159
1.18744
0.825966
1.48222
1.26619
1.36112
1.10466
0.825227
1.48227
1.24801
1.33879
1.04877
0.824006
1.47991
1.23304
1.32405
1.00767
0.833951
1.50577
1.23006
1.31624
0.984358
0.838982
0.438909
0.152149
-0.179199
-0.460778
-0.676867
0.381508
0.182083
-0.0450154
-0.257165
-0.432548
0.381649
0.207804
0.0344588
-0.132557
-0.276576
0.411925
0.246311
0.0913632
-0.0530282
-0.181194
0.430746
0.271559
0.126668
-0.00693214
-0.128003
-1.53227
-1.36619
-1.18758
-1.03811
-0.947442
-1.54728
-1.47699
-1.33174
-1.19023
-1.08892
-1.4191
-1.3785
-1.2805
-1.17663
-1.07498
-1.24818
-1.20952
-1.17736
-1.12739
-1.06134
-1.12496
-1.10275
-1.10863
-1.09191
-1.0088
-1.05929
-1.0666
-1.08665
-1.14666
-1.01991
-0.860821
-0.88627
-0.895102
-0.967871
-0.781983
-0.530985
-0.53149
-0.530427
-0.508853
-0.398929
-0.297375
-0.28991
-0.271806
-0.230469
-0.164591
-0.196825
-0.189368
-0.167939
-0.12496
-0.0696212
-0.181922
0.0181745
0.0621468
0.0444806
0.0160559
0.00120485
0.0278582
0.0744514
0.0485097
0.0159476
0.123339
0.0313007
0.070565
0.0462674
0.0152864
0.189932
0.0468638
0.0729225
0.0460914
0.0149314
0.209254
0.0528416
0.0706182
0.0447895
0.0144112
-0.395887
-0.118752
0.0350209
0.0406592
0.015952
-0.349446
0.00644142
0.0855017
0.0566409
0.0181996
-0.901293
-0.999216
-1.05217
-0.883601
-0.705867
-0.915896
-1.02848
-1.02144
-0.9339
-0.754133
1.4886
1.45998
1.41666
1.3593
1.28406
1.63344
1.65171
1.65805
1.64922
1.62513
1.7549
1.77885
1.79623
1.80224
1.79614
1.80371
1.83566
1.87153
1.90215
1.91683
1.78132
1.81217
1.84746
1.87732
1.89094
-0.52899
-0.635066
-0.804254
-1.0065
-1.26998
0.0503552
-0.0830659
-0.260306
-0.479929
-0.772895
0.578978
0.440508
0.275768
0.0782753
-0.176889
1.00224
0.896986
0.767723
0.607691
0.412246
1.32317
1.24931
1.15066
1.0304
0.889793
1.60765
1.41818
1.58343
1.51739
1.61212
1.59428
1.41366
1.57529
1.52655
1.6371
1.58189
1.40708
1.56724
1.52686
1.69702
1.5696
1.39867
1.55501
1.51928
1.68058
1.55736
1.38818
1.53988
1.50245
1.65827
1.65371
1.427
1.58155
1.47062
1.52048
1.61767
1.41916
1.5784
1.49172
1.51368
1.19884
1.00679
0.647753
0.102598
-0.497809
1.29185
1.04252
0.658891
0.118427
-0.491491
)
;

boundaryField
{
    left
    {
        type            zeroGradient;
    }
    right
    {
        type            fixedValue;
        value           uniform 0;
    }
    down
    {
        type            zeroGradient;
    }
    up
    {
        type            zeroGradient;
    }
    cylinder
    {
        type            zeroGradient;
    }
    defaultFaces
    {
        type            empty;
    }
}


// ************************************************************************* //
