/*--------------------------------*- C++ -*----------------------------------*\
  =========                 |
  \\      /  F ield         | OpenFOAM: The Open Source CFD Toolbox
   \\    /   O peration     | Website:  https://openfoam.org
    \\  /    A nd           | Version:  13
     \\/     M anipulation  |
\*---------------------------------------------------------------------------*/
FoamFile
{
    format      ascii;
    class       volVectorField;
    location    "66.8";
    object      U;
}
// * * * * * * * * * * * * * * * * * * * * * * * * * * * * * * * * * * * * * //

dimensions      [0 1 -1 0 0 0 0];

internalField   nonuniform List<vector> 
440
(
(-0.0584502 0.0551256 -5.61277e-20)
(-0.0239798 0.0885469 3.69829e-20)
(0.187932 0.0500944 2.6484e-20)
(0.608354 0.00288328 7.82802e-20)
(0.886886 -0.0574203 -1.28549e-20)
(-0.0301115 0.0152408 3.53416e-20)
(0.20359 -0.0514466 -1.40868e-19)
(0.747978 -0.118745 -1.2268e-19)
(1.3165 -0.167868 1.50981e-20)
(1.85137 -0.21276 -2.82315e-20)
(0.0418244 -0.0222691 4.44445e-20)
(0.669372 -0.0999673 9.72229e-19)
(1.47364 -0.109091 -7.41363e-19)
(2.04795 -0.0985005 -2.33309e-18)
(2.49915 -0.0921525 1.08688e-18)
(0.278189 -0.0633695 -1.77189e-19)
(1.35553 -0.0267005 -7.23451e-19)
(2.11044 0.0234548 2.31017e-18)
(2.48876 0.0512973 2.6679e-18)
(2.50512 0.053961 -7.27488e-19)
(0.650751 -0.00664982 -3.37508e-19)
(1.86229 0.166417 -7.60312e-19)
(2.37844 0.228751 2.37537e-18)
(2.48371 0.230426 2.47749e-18)
(2.56572 0.205769 8.35207e-19)
(-0.0185623 0.0282541 1.41632e-19)
(-0.0811083 -0.101751 -5.86027e-20)
(-0.181638 -0.140541 1.32077e-20)
(-0.30584 -0.121993 -1.71086e-20)
(-0.417519 -0.134799 -2.70423e-19)
(-0.0495362 0.151827 -3.39736e-20)
(-0.11466 0.124892 -3.08761e-19)
(-0.213044 0.147523 1.16482e-19)
(-0.310837 0.175734 1.19243e-19)
(-0.357682 0.123131 -2.35106e-19)
(-0.0739341 0.195663 -4.34183e-19)
(-0.103007 0.233864 5.61028e-19)
(-0.133274 0.262505 -2.124e-19)
(-0.120445 0.280356 -1.45784e-18)
(-0.0561906 0.215241 1.38357e-20)
(-0.0819644 0.160067 1.76121e-20)
(-0.105792 0.234727 -7.9124e-20)
(-0.0800511 0.235198 7.44128e-20)
(0.016197 0.187446 7.35924e-19)
(0.159179 0.0808305 -1.34807e-19)
(-0.0799408 0.106029 6.41849e-21)
(-0.0966902 0.166452 -2.47731e-21)
(-0.0140658 0.126808 2.34302e-21)
(0.177604 0.0376976 -7.73445e-21)
(0.392138 -0.0418056 6.89165e-20)
(-0.822642 -0.477347 -9.32345e-19)
(1.34025 0.184861 -2.89689e-18)
(0.0306002 1.20493 4.29731e-19)
(1.06904 -0.305797 -1.07732e-18)
(1.17145 -0.678333 3.3349e-20)
(-0.154908 -0.764715 2.28755e-18)
(1.65073 -0.0170313 1.35645e-19)
(0.406287 1.26688 -1.65465e-19)
(1.34096 -0.397177 -1.25921e-19)
(1.36889 -0.692009 -1.27443e-19)
(1.12273 -1.092 9.17503e-19)
(1.35308 -0.233887 1.28021e-18)
(0.999929 1.25055 1.24271e-19)
(1.54973 -0.458413 -9.78824e-19)
(1.52191 -0.708179 5.33834e-20)
(1.89014 -1.18004 -1.18588e-19)
(0.111338 -0.253285 -1.01388e-20)
(0.701536 1.25262 6.24823e-19)
(1.77866 -0.523111 3.92353e-19)
(1.6406 -0.706246 -1.00774e-19)
(2.04184 -1.08468 -4.82849e-19)
(-1.02663 -0.1912 1.03133e-18)
(0.34162 1.03538 0)
(2.10165 -0.599704 -1.19771e-19)
(1.7557 -0.686713 -5.83486e-20)
(2.49595 -0.789497 -7.89476e-19)
(0.4035 -0.120852 2.50183e-20)
(0.934772 0.389649 4.70632e-20)
(2.42676 -0.761049 -1.99801e-19)
(1.83183 -0.653466 1.12496e-19)
(2.22049 -0.733406 7.79826e-20)
(0.897782 0.204535 -5.41158e-19)
(1.67818 0.244616 1.94887e-20)
(2.5358 -0.72631 8.83063e-19)
(1.73144 -0.515696 0)
(2.13809 -0.291781 -3.96904e-19)
(1.2332 0.106388 1.40472e-20)
(2.21881 -0.16548 3.3837e-19)
(2.27936 -0.694898 -3.84863e-19)
(1.31177 -0.391911 1.7882e-20)
(1.84808 -0.243879 -5.92516e-20)
(1.58186 0.0502965 9.52779e-20)
(2.13092 -0.194417 3.20154e-20)
(1.6254 -0.407641 1.05324e-33)
(0.627246 -0.172744 2.42949e-20)
(1.0622 -0.00907306 3.40163e-20)
(1.13676 -0.0427062 1.57305e-20)
(0.960469 -0.139772 -5.79514e-20)
(0.183151 -0.0436163 9.14879e-20)
(-0.280619 -0.000656478 -1.3956e-20)
(2.37673 0.210572 -1.0717e-18)
(2.66473 -0.00595824 -1.39577e-18)
(2.36305 -0.0186242 1.24891e-18)
(2.76628 -0.245852 -2.92771e-20)
(2.01713 -0.13896 -8.99263e-20)
(2.11189 0.153941 3.6896e-20)
(2.48054 -0.0202638 -4.53755e-20)
(2.21891 -0.024902 -1.43117e-19)
(2.47565 -0.226365 -2.69458e-19)
(2.28291 -0.260275 -2.94379e-21)
(2.09633 0.0646152 6.63907e-20)
(2.20223 0.00795804 1.28418e-19)
(2.19004 -0.0660283 -1.84951e-19)
(2.21617 -0.112666 5.54673e-20)
(2.23028 -0.210328 8.02844e-20)
(2.01912 0.0193271 1.11624e-19)
(1.95871 -0.0122761 1.00623e-19)
(2.10429 -0.0472636 -1.55415e-20)
(2.00706 -0.0828808 3.715e-20)
(2.14287 -0.111456 7.78125e-21)
(1.45053 -0.0168388 1.55035e-19)
(1.37714 -0.0120721 -1.21684e-20)
(1.47274 -0.0324667 2.40806e-20)
(1.34618 -0.0195329 -3.39531e-21)
(1.46783 -0.0500792 4.59727e-20)
(1.61473 0.857116 1.15786e-18)
(1.56214 0.954775 -3.49278e-19)
(1.55698 1.08636 -1.37578e-18)
(1.49153 1.13743 7.64103e-19)
(0.923948 0.830423 -1.87248e-19)
(1.88911 0.811616 -6.00445e-19)
(1.85952 0.892085 -3.10834e-18)
(1.86895 1.00306 -1.19959e-18)
(1.78711 1.01933 -4.38365e-19)
(1.10151 0.72561 -7.08805e-19)
(2.19107 0.691731 8.15013e-19)
(2.17315 0.760643 2.10414e-19)
(2.15229 0.850954 -2.39089e-18)
(2.02603 0.839891 -6.79536e-19)
(1.209 0.565282 5.19252e-19)
(2.36144 0.562457 2.48904e-18)
(2.34954 0.611463 1.81875e-18)
(2.35418 0.668013 -2.10949e-18)
(2.14828 0.628801 -1.6057e-18)
(1.19006 0.372309 -3.06552e-19)
(2.49436 0.39273 1.26716e-18)
(2.52347 0.419603 -9.07704e-19)
(2.43437 0.444862 6.38446e-19)
(2.10909 0.393893 5.33261e-19)
(1.01033 0.164613 -4.63025e-19)
(0.574431 0.455567 -6.47904e-19)
(0.48573 0.490504 -5.05089e-19)
(0.367554 0.525794 6.06476e-20)
(0.229174 0.536196 -1.10525e-20)
(0.0573661 0.393049 8.8002e-20)
(0.67608 0.634175 1.26626e-19)
(0.61243 0.695462 -2.9304e-19)
(0.525725 0.765063 1.91126e-19)
(0.400578 0.817946 -8.86329e-20)
(0.174458 0.623488 1.25129e-19)
(0.792171 0.813955 1.69617e-19)
(0.717656 0.893259 4.72346e-19)
(0.659392 0.993264 8.7157e-20)
(0.575181 1.04759 -3.09306e-19)
(0.316448 0.784923 2.56177e-19)
(1.05967 0.910095 2.4955e-19)
(1.01495 0.997849 -7.18478e-19)
(0.964122 1.09739 -1.98053e-18)
(0.881184 1.16312 8.03661e-19)
(0.522409 0.871669 -1.82054e-19)
(1.15694 0.930849 -1.28917e-19)
(1.18217 1.05684 -2.08504e-19)
(1.2076 1.1794 -3.64539e-19)
(1.15796 1.21714 -4.20895e-19)
(0.715765 0.886928 -6.83009e-21)
(1.02287 0.0522967 -1.03349e-19)
(0.981117 0.0415982 -3.8962e-20)
(1.03734 0.111611 -1.42031e-21)
(0.948322 0.151332 -3.36207e-19)
(0.88658 0.278236 3.22328e-19)
(1.0139 0.0497532 6.56752e-20)
(0.990025 0.0413361 1.35869e-19)
(1.03007 0.115811 1.34581e-19)
(0.983113 0.18308 4.48965e-20)
(0.933253 0.356412 -1.37421e-20)
(1.02042 0.0486892 8.96376e-20)
(0.969738 0.0361963 -5.02082e-21)
(1.0828 0.131737 -7.39816e-21)
(0.935532 0.185259 1.66858e-19)
(1.1439 0.494053 -4.99757e-19)
(1.01438 0.0494072 -4.42896e-22)
(0.983061 0.0275032 -1.87883e-19)
(1.0921 0.142645 -7.1418e-20)
(1.01569 0.199166 -4.13143e-19)
(1.16209 0.535538 1.04684e-19)
(1.00876 0.0442246 -1.63046e-20)
(0.986142 0.025974 5.24893e-20)
(1.14849 0.147035 3.43564e-20)
(0.974133 0.227586 4.78894e-19)
(1.43961 0.663879 -4.75147e-19)
(0.968103 0.0480291 -1.29937e-20)
(1.04915 0.000194041 1.09484e-19)
(1.15557 0.173125 -9.4751e-20)
(1.19032 0.161779 8.62954e-19)
(1.32033 0.679171 -4.07689e-19)
(0.903353 0.024338 -1.58617e-21)
(1.143 -0.0219051 -1.10247e-19)
(1.14591 0.104578 4.78612e-21)
(1.26083 0.187645 -2.53395e-19)
(1.28655 0.411195 9.19688e-23)
(0.952358 0.0237782 -6.9368e-21)
(1.14712 -0.0609882 1.48657e-35)
(1.13453 0.103663 -6.06902e-20)
(1.19684 0.150882 7.65301e-20)
(1.47921 0.239944 1.70812e-19)
(1.08576 -0.0329524 4.20667e-21)
(1.02839 -0.0688116 -2.46709e-20)
(1.07797 0.0703372 1.69189e-20)
(1.20497 0.0802101 3.44085e-20)
(1.54845 0.124315 -2.54192e-19)
(1.00425 -0.0253039 -4.25933e-20)
(0.777405 -0.0213682 -3.01569e-21)
(0.839233 0.0156298 2.45349e-20)
(0.945659 -0.00237583 -1.02507e-20)
(1.10274 0.0330435 -5.78e-20)
(1.86623 0.666503 3.43903e-19)
(1.92748 0.667851 8.26201e-19)
(2.22496 0.543859 -1.1721e-18)
(2.2315 0.486733 4.92659e-20)
(2.49791 0.289764 4.94885e-19)
(1.80295 0.468054 6.13175e-20)
(1.78572 0.436072 1.02902e-18)
(2.08934 0.377365 9.86914e-20)
(1.97776 0.318211 -9.62508e-19)
(2.34209 0.185478 -3.15397e-19)
(1.71821 0.324326 -2.19714e-19)
(1.80264 0.261472 -1.50142e-19)
(1.92404 0.255793 2.47229e-19)
(1.9661 0.177801 -3.04887e-19)
(2.10449 0.133036 2.71431e-19)
(1.64338 0.183757 3.14852e-19)
(1.74506 0.139732 -3.12521e-21)
(1.75618 0.136822 2.16739e-19)
(1.88978 0.0846578 1.85351e-19)
(1.8734 0.0616582 -1.80389e-19)
(1.25876 0.044098 -3.5417e-20)
(1.29708 0.0263243 2.09369e-19)
(1.32459 0.0220225 1.00157e-19)
(1.38771 0.00248056 -2.18293e-19)
(1.37595 5.37979e-05 4.48026e-22)
(1.17136 -0.0277917 5.00404e-20)
(2.21806 -0.0479386 -4.24781e-19)
(2.4533 -0.0361154 1.20146e-18)
(2.44914 0.00814087 5.44706e-19)
(2.27707 0.0341683 -3.60206e-19)
(0.713506 0.089163 8.59494e-20)
(1.9914 0.0799261 -4.39899e-19)
(2.4695 0.0836988 -5.90938e-19)
(2.51176 0.097265 7.36856e-19)
(2.27547 0.0886177 -4.71972e-19)
(0.187931 0.0684849 -3.53577e-20)
(1.33765 0.140411 4.58887e-19)
(2.12706 0.16914 7.2323e-20)
(2.5371 0.166065 4.9578e-19)
(2.67171 0.165674 2.70048e-19)
(-0.0697336 -0.0399253 2.05627e-19)
(0.458347 0.0641143 2.02426e-19)
(1.31474 0.146093 -4.3818e-19)
(1.84954 0.193128 2.60211e-20)
(2.4887 0.229388 9.13309e-20)
(-0.123179 -0.100976 1.38861e-19)
(-0.0384472 -0.0722376 -1.59074e-19)
(0.45738 0.0205636 -1.94224e-20)
(0.937043 0.0581314 1.11549e-20)
(1.46969 0.161118 -3.42899e-20)
(-0.0950542 -0.102244 1.9776e-20)
(-0.16915 -0.150711 9.23206e-20)
(-0.0470032 -0.16098 5.57127e-20)
(0.131712 -0.140704 -5.01114e-20)
(0.620846 -0.0428085 8.96713e-21)
(-0.0531417 -0.0698068 -6.24924e-21)
(-0.143333 -0.158712 -5.02412e-20)
(-0.166267 -0.22398 -3.04656e-20)
(-0.134179 -0.247444 -1.22322e-20)
(0.037983 -0.158845 -1.03139e-21)
(-0.0214438 -0.0380586 9.2787e-21)
(-0.0788321 -0.154676 1.81778e-19)
(-0.112175 -0.272803 -1.70845e-19)
(-0.119879 -0.355157 -5.10049e-19)
(-0.0942715 -0.362233 1.3123e-19)
(-0.0126444 -0.046634 -1.79537e-20)
(-0.0407411 -0.21609 -1.13303e-19)
(-0.0501478 -0.368633 3.22895e-19)
(-0.0576496 -0.455338 3.17819e-19)
(-0.0589273 -0.486507 -7.45415e-20)
(-0.0115094 -0.0472093 1.00477e-20)
(-0.0465693 -0.236197 -3.11629e-20)
(-0.089083 -0.354864 9.1388e-21)
(-0.150275 -0.380202 2.64497e-20)
(-0.212637 -0.363187 -3.04067e-20)
(1.43163 0.627177 -2.33394e-20)
(1.66282 0.364254 5.13777e-19)
(0.793216 0.390927 1.28407e-19)
(-0.30177 -0.11219 8.52297e-21)
(0.525883 -0.386449 -4.3287e-20)
(1.09741 0.448891 2.17285e-20)
(1.79223 0.381914 -5.84875e-21)
(0.924148 0.587809 7.45058e-19)
(0.00569151 -0.0783373 -3.73223e-21)
(0.551153 -0.475653 2.04832e-19)
(0.683187 0.178025 1.83008e-19)
(1.73684 0.442243 -1.97214e-20)
(0.734743 0.799292 -3.26396e-20)
(0.244338 -0.0535415 -2.58627e-19)
(0.654335 -0.5452 -3.50841e-20)
(0.0991781 -0.158066 2.70997e-19)
(1.69925 0.368011 7.03595e-19)
(0.534739 0.953986 -5.09886e-19)
(0.53474 -0.0743206 1.94347e-21)
(0.813428 -0.600681 -8.69837e-20)
(-0.578254 -0.302683 7.94115e-20)
(1.48561 0.328107 5.11165e-19)
(0.24676 1.12618 4.82331e-19)
(0.819043 -0.142998 -2.52103e-20)
(0.998524 -0.635541 -1.0292e-19)
(0.0820819 0.18355 -4.47859e-20)
(-0.282298 -0.16803 0)
(-0.389297 -0.0902937 9.89154e-21)
(-0.466728 -0.0706765 -1.28208e-20)
(0.360079 -0.0489829 1.22214e-20)
(1.8533 0.572894 0)
(1.31778 0.333713 0)
(0.477734 0.119241 -1.24464e-19)
(-0.510432 -0.137713 -6.81564e-20)
(0.594556 -0.228919 1.22632e-19)
(0.723728 0.00221427 -1.15589e-19)
(0.750467 -0.00784234 9.06234e-20)
(1.02732 0.00939034 -4.5832e-20)
(0.937637 1.4913e-05 3.37555e-19)
(1.44939 0.105369 2.3673e-19)
(1.64291 0.0276998 1.08294e-19)
(1.80704 0.067674 1.91014e-19)
(1.98809 0.0508667 -3.70883e-19)
(2.54748 0.198717 1.57351e-20)
(2.32413 0.143166 1.83431e-19)
(0.900328 -0.474311 -3.04579e-21)
(0.886671 -0.563014 -1.53813e-19)
(0.879807 -0.659594 -1.29831e-19)
(0.80899 -0.725624 7.83463e-20)
(0.487211 -0.563737 1.1805e-19)
(0.806653 -0.382655 1.25768e-19)
(0.751108 -0.446153 2.43944e-19)
(0.674977 -0.513737 -4.73463e-20)
(0.558086 -0.56958 1.20803e-19)
(0.300106 -0.446917 3.92795e-20)
(0.641293 -0.244098 -1.61667e-19)
(0.549498 -0.281382 -4.41547e-20)
(0.447697 -0.329495 1.03257e-19)
(0.332531 -0.372266 -1.85533e-20)
(0.147221 -0.292552 -1.03925e-19)
(0.546303 -0.0109651 -4.44905e-19)
(0.461486 -0.0256561 -3.68154e-19)
(0.353464 -0.0508807 2.8878e-19)
(0.22743 -0.0843126 1.84527e-19)
(0.062601 -0.0833188 1.41323e-20)
(0.522437 0.193596 -1.81063e-19)
(0.437022 0.198207 -1.80208e-19)
(0.321683 0.201699 -7.8475e-20)
(0.186082 0.207397 2.12014e-20)
(0.0278298 0.156615 1.24949e-20)
(2.03176 -0.0388853 7.79706e-19)
(2.28163 -0.106103 2.84426e-19)
(2.36178 -0.1911 -7.33771e-19)
(2.21124 -0.217523 -1.49396e-18)
(1.32345 -0.191359 1.09172e-19)
(2.00314 -0.122828 1.3153e-18)
(2.09912 -0.231905 1.71805e-18)
(2.10993 -0.351894 1.40025e-19)
(2.02851 -0.411499 2.39421e-19)
(1.29409 -0.361242 -1.58125e-19)
(1.72363 -0.284789 -3.42128e-18)
(1.77543 -0.399462 4.11783e-19)
(1.81696 -0.52178 1.06314e-18)
(1.75522 -0.595292 -4.18427e-19)
(1.13387 -0.503037 6.49668e-19)
(1.50194 -0.403971 8.17752e-19)
(1.51801 -0.499414 -2.12953e-18)
(1.50312 -0.614454 -2.48664e-18)
(1.43228 -0.700544 7.67776e-19)
(0.917949 -0.574834 4.97055e-19)
(1.21836 -0.463495 1.75612e-19)
(1.16567 -0.553994 2.24453e-19)
(1.15033 -0.67256 -3.72302e-19)
(1.09223 -0.755448 -4.49726e-19)
(0.68671 -0.59597 -4.27139e-21)
(1.06983 0.0575064 7.83925e-21)
(0.915332 0.0550378 -6.02853e-21)
(1.12564 0.0753245 -8.20361e-21)
(0.792921 0.00917622 -1.8035e-19)
(1.11615 -0.213209 -6.52663e-21)
(1.0793 0.0612563 -2.61816e-21)
(0.914028 0.0529121 5.65905e-20)
(1.12011 0.0924453 -5.41325e-20)
(0.881636 0.0552747 8.9234e-20)
(0.987781 -0.0961024 -2.59862e-20)
(1.07748 0.0588134 -6.4337e-20)
(0.918291 0.0492094 6.15445e-22)
(1.10705 0.0927267 -2.12225e-20)
(0.878533 0.0791558 -4.5511e-21)
(0.963245 -0.0384065 -1.54306e-19)
(1.05847 0.0574531 7.87717e-20)
(0.947659 0.0454988 3.62049e-21)
(1.06716 0.0980051 3.5136e-20)
(0.924001 0.105407 5.16467e-20)
(0.861384 0.0763747 1.20422e-19)
(1.03482 0.054114 1.98804e-20)
(0.975699 0.0450973 -3.25435e-20)
(1.03615 0.101073 4.70263e-20)
(0.951138 0.135309 9.31792e-20)
(0.836277 0.172212 -1.22429e-19)
(0.890209 0.0338601 0)
(0.702504 0.0279511 1.02958e-20)
(0.610418 0.0230299 2.50634e-21)
(0.340943 -0.00614295 3.98135e-20)
(0.668043 -0.0549686 -1.07794e-19)
(1.03716 0.0761287 -6.59778e-20)
(0.926206 0.0710811 -2.01934e-20)
(1.03138 0.0764397 -2.67629e-20)
(0.801801 0.00428511 -9.26131e-20)
(1.02587 -0.194188 -1.13023e-19)
(0.931477 -0.0627673 -2.58147e-20)
(1.01379 -0.0320757 4.52973e-19)
(1.10458 0.0370216 2.88029e-19)
(0.975994 0.0548306 2.19533e-20)
(0.756857 0.0286314 0)
(1.29986 -0.31094 2.57555e-19)
(1.41287 -0.274294 1.35309e-18)
(1.58838 -0.157061 -1.55357e-18)
(1.67758 -0.0213946 -4.87072e-19)
(1.58797 0.0277444 3.53677e-19)
)
;

boundaryField
{
    left
    {
        type            fixedValue;
        value           uniform (1 0 0);
    }
    right
    {
        type            zeroGradient;
    }
    down
    {
        type            noSlip;
    }
    up
    {
        type            noSlip;
    }
    cylinder
    {
        type            noSlip;
    }
    defaultFaces
    {
        type            empty;
    }
}


// ************************************************************************* //
