/*--------------------------------*- C++ -*----------------------------------*\
  =========                 |
  \\      /  F ield         | OpenFOAM: The Open Source CFD Toolbox
   \\    /   O peration     | Website:  https://openfoam.org
    \\  /    A nd           | Version:  13
     \\/     M anipulation  |
\*---------------------------------------------------------------------------*/
FoamFile
{
    format      ascii;
    class       volVectorField;
    object      U;
}
// * * * * * * * * * * * * * * * * * * * * * * * * * * * * * * * * * * * * * //

dimensions      [0 1 -1 0 0 0 0];

internalField   nonuniform List<vector>
440
(
(-0.0967293119006 0.0785187256932 1.21312038288e-16)
(0.00238427910324 0.00313124726455 -7.36128917317e-18)
(0.108698668696 -0.063469384557 5.21777543335e-18)
(0.215198027775 -0.119201611685 -7.49212458306e-18)
(0.316516801177 -0.170089362113 5.34730626709e-18)
(-0.106745868947 0.0625823376136 5.6669957625e-18)
(0.0311365908939 -0.0119924492659 1.80098284799e-18)
(0.16838700695 -0.0750292256446 -7.61954967175e-18)
(0.299408194204 -0.126783621285 7.64599294752e-18)
(0.420030081796 -0.173083237561 7.00228968506e-18)
(-0.113198696402 0.0445586167633 4.63933976674e-18)
(0.0591419709193 -0.0187207429952 9.19317356671e-18)
(0.222086750816 -0.0707049620936 2.18200233216e-18)
(0.37147764227 -0.112034513904 -1.34134177084e-17)
(0.504271920133 -0.14789006416 -3.67025856245e-18)
(-0.116866169591 0.0259591813036 -5.1737660729e-18)
(0.0819015529158 -0.0159220058836 1.30011638356e-18)
(0.264452829468 -0.0501076921712 1.30627156228e-17)
(0.427730780178 -0.0764389163716 -6.95706960233e-18)
(0.567040771395 -0.0984175887568 -9.70073381116e-18)
(-0.11818365516 0.00740211233279 -5.49883789738e-18)
(0.0950676643184 -0.00589767793932 -2.12359082932e-18)
(0.288537091086 -0.0175457593519 -1.02976176395e-17)
(0.459486342796 -0.0262703418686 6.53251052525e-18)
(0.600689981877 -0.0333334960699 2.26506575923e-18)
(-0.0102563280319 0.0222025126177 6.34852988066e-19)
(-0.0173191655241 -0.00081595829545 -3.13410611782e-18)
(-0.0192971257746 -0.0249847134721 6.54894655768e-18)
(-0.0163607340511 -0.0495459441375 -1.55206661051e-18)
(-0.00749241578346 -0.0722855659567 -1.51559757151e-17)
(-0.0214000701829 0.049636893691 9.71833924483e-19)
(-0.0213751541923 0.0123954742137 2.99214221277e-18)
(-0.0134326015009 -0.0248075508623 1.29262374154e-18)
(0.000259629306875 -0.0600219546864 8.50275925843e-19)
(0.020184741401 -0.0913065488936 -1.01046313253e-18)
(-0.0386307308354 0.0714553784101 -7.82694405002e-18)
(-0.0250345383447 0.0208386318796 -4.51037452994e-18)
(-0.00162843614678 -0.0298823214489 -3.84921936074e-18)
(0.0277306911948 -0.0762089195179 1.16273607229e-17)
(0.0629575153927 -0.115634609789 -3.01405762713e-19)
(-0.0593895509382 0.0842591053596 -2.15357541039e-18)
(-0.025292469221 0.0218227814826 2.76008847354e-18)
(0.0193731757363 -0.0393499849113 -6.48979693177e-18)
(0.0693257302418 -0.0942082764537 -7.22239075836e-18)
(0.123253960325 -0.139251891439 9.42399861416e-19)
(-0.0809331412036 0.0868381725142 3.15619329539e-18)
(-0.019389979188 0.0160819280043 1.94282258126e-18)
(0.0524979517379 -0.0503958612716 -1.29006624514e-19)
(0.127516252079 -0.107471611236 2.46353789961e-18)
(0.203744487677 -0.153499803711 9.58279826581e-18)
(0.0725089151661 -0.176657307229 -4.74726622213e-18)
(0.173243528486 -0.178380477618 3.30901527292e-18)
(0.297847072195 -0.0679121769455 1.69627969346e-18)
(0.369233879652 -0.00668564623445 -1.12430133748e-19)
(0.39465055724 0.00169192004715 1.16462819646e-18)
(0.134191784673 -0.212343579872 2.18153388449e-17)
(0.200861105109 -0.214306739747 -3.51371969108e-18)
(0.304186779199 -0.0946875169323 4.07650908687e-18)
(0.381419007225 -0.0221658660753 6.87233967697e-18)
(0.420383740056 -0.00436801655469 -2.19978208956e-18)
(0.209071751602 -0.244306017314 1.06946453143e-17)
(0.248667314766 -0.24162361968 2.59666939325e-17)
(0.309280361602 -0.120695567802 -3.16006998905e-18)
(0.38201673597 -0.0381785604253 5.31748378214e-18)
(0.425715880126 -0.0122995186727 1.82904924763e-18)
(0.29345443126 -0.271324606086 -1.31555878031e-17)
(0.311892222057 -0.259952851041 -7.7278380678e-18)
(0.322633924741 -0.143105816155 -1.66017009138e-18)
(0.374408653816 -0.0520297805194 -5.27765502142e-18)
(0.412135156231 -0.0191617966022 1.96737680839e-18)
(0.380692012751 -0.283149319674 -1.17980891453e-19)
(0.381495742407 -0.27038219383 -2.52562057063e-17)
(0.342824845967 -0.161792707495 0)
(0.359962094527 -0.0702678094871 1.67177869924e-18)
(0.379519758013 -0.0243683285249 -5.92970703127e-19)
(0.534549511415 -0.320847653464 1.72596429316e-18)
(0.471076952342 -0.270161078023 8.09561759451e-18)
(0.379249807184 -0.160732304474 -8.9418485742e-19)
(0.325419300776 -0.0699849421059 4.06526402682e-18)
(0.313078642835 -0.0238674741235 1.87765497444e-18)
(0.700433347893 -0.261621005442 2.72454787686e-18)
(0.481221084446 -0.194793624558 -2.53558391658e-18)
(0.316697234883 -0.108405500582 -9.16078506953e-19)
(0.218638945491 -0.0497382788112 -8.48748300813e-19)
(0.197133525119 -0.0174368684183 0)
(0.623165906998 -0.150208849886 2.36145284187e-18)
(0.344972877984 -0.105394210844 9.46371690331e-19)
(0.185291329175 -0.0564342820973 -1.34384607695e-18)
(0.0959708730148 -0.0283814015571 2.1335713463e-19)
(0.0695224265932 -0.0106524153279 -1.61725009795e-19)
(0.371440403018 -0.0632981438618 -6.82344046125e-18)
(0.162436108299 -0.0406346176138 7.26841349708e-18)
(0.0496982637624 -0.0200808176498 -2.63715951984e-18)
(-0.00997551397945 -0.0109910747094 -3.7712331733e-32)
(-0.0323673242841 -0.00464542797911 4.11371584634e-18)
(0.0400462138491 0.00232920441308 -2.73169009183e-19)
(-0.0358169592655 0.0104863550747 4.79959918399e-20)
(-0.0700501311661 0.0105045748577 -2.65873858766e-18)
(-0.0859284280774 0.00598959199925 3.90055483458e-20)
(-0.0939202387145 0.0021626542124 -6.58140071763e-21)
(0.883551411607 -0.040495592071 -1.17033759841e-17)
(0.839419234832 -0.123406803138 6.81654961954e-18)
(0.765526777975 -0.192679705391 -3.3604734843e-18)
(0.672060253549 -0.240291899398 -3.33376964636e-18)
(0.549672660476 -0.255999134393 5.14086982655e-19)
(0.999648508555 -0.026511494546 -7.53318366661e-18)
(0.984375823286 -0.0856077234623 4.65257894853e-19)
(0.950670025154 -0.148854422768 3.57575023962e-18)
(0.900696877363 -0.217711880013 -2.86924926096e-18)
(0.823623882366 -0.28797147934 6.32850776679e-19)
(0.775174446032 -0.0162176619341 -5.15035960677e-18)
(0.774856767836 -0.0488977902406 4.04701430151e-18)
(0.771568362368 -0.084374526632 -8.31935183714e-18)
(0.76454593079 -0.12344428242 7.00731541641e-19)
(0.752398655247 -0.167292034172 8.54016525984e-18)
(0.491597661448 -0.00801864320599 -4.29942722736e-18)
(0.490885315644 -0.0245341929487 -1.33227125059e-17)
(0.487735761796 -0.0429519987653 1.10686004822e-18)
(0.482584569072 -0.0622885517921 1.43957350341e-17)
(0.479082919618 -0.0793667499542 -3.38414578126e-18)
(0.0931277454207 -0.000385105411799 -8.65694532466e-18)
(0.0926745823391 -0.00109328703668 2.7549938694e-19)
(0.0906503422119 -0.00217998340391 -1.67893383806e-19)
(0.0865290125937 -0.00395121150327 4.71126641558e-18)
(0.0834677296042 -0.00505123008861 7.88191252202e-18)
(0.324296095059 0.179371334038 -5.22934158082e-18)
(0.223056338094 0.127447046326 -1.05460375709e-18)
(0.115794413517 0.0701792154632 5.10219607764e-18)
(0.00768361788371 0.00151964677391 -2.44828666087e-18)
(-0.093007466689 -0.0783048060125 2.13216118913e-18)
(0.426291325113 0.179924506475 4.45772811594e-18)
(0.306363454895 0.132891390864 6.8161300317e-18)
(0.175133642732 0.0801367025522 7.06571344749e-19)
(0.0364309705235 0.0156054637079 4.07956516968e-18)
(-0.102946092481 -0.0634166486314 2.76918250438e-18)
(0.508962135518 0.153374051036 2.2856987603e-18)
(0.376900751099 0.116736544559 -2.7170374998e-18)
(0.227634096767 0.0745132100872 -4.49689682443e-18)
(0.0636705388307 0.0212808591941 -1.26948771574e-18)
(-0.109885634586 -0.0465303715515 -5.00134958165e-18)
(0.569928893009 0.102885542114 1.22763121402e-18)
(0.431090848998 0.0800631601313 1.03610216767e-18)
(0.268051255577 0.0527920440431 6.81154481979e-18)
(0.0849220627013 0.0175148308351 -5.18981462261e-18)
(-0.114623278408 -0.0289170373729 2.91647939018e-18)
(0.601720889435 0.0372320868027 5.01833022486e-18)
(0.460630834878 0.0293445379717 7.60669013408e-18)
(0.289790315443 0.0196140306786 3.19475550282e-18)
(0.0961322092009 0.0069458218513 -4.48556691981e-18)
(-0.117390538135 -0.0109123267157 2.8835839521e-18)
(-0.00762756752963 0.0979594719375 -1.91275286382e-17)
(-0.0173334064448 0.0744669214492 -1.44110660216e-17)
(-0.0209401516409 0.0472158762151 1.84278943855e-18)
(-0.0195378783791 0.0166814918594 -9.94252126509e-19)
(-0.010653165677 -0.0159732521012 -6.32837078515e-19)
(0.0221527895155 0.11737684474 -9.64994385796e-18)
(0.00193720851865 0.0842324712198 -4.33796341196e-18)
(-0.0120798841664 0.0445161521804 -1.64232893997e-18)
(-0.0204798922021 -1.41029246555e-05 6.77559740145e-19)
(-0.0200561933152 -0.0452224015223 -7.91033905895e-19)
(0.0680091755349 0.138292659463 6.1232988768e-18)
(0.0325602533233 0.0964724625597 -8.40361104174e-18)
(0.00260912860953 0.0454805928467 -1.0861096904e-18)
(-0.0218953240513 -0.0112533249994 1.85420585047e-18)
(-0.0362915587564 -0.0683644695531 -7.03301048995e-19)
(0.130089839906 0.156940491274 -5.83998632403e-18)
(0.0759818994549 0.1097261093 7.73119707524e-18)
(0.0252167383457 0.0512283814863 1.19136987005e-17)
(-0.0210116239002 -0.0142871965154 -3.01275575665e-18)
(-0.0564653496647 -0.082138740095 2.73258985093e-18)
(0.211066650333 0.166117806351 3.37680069531e-18)
(0.13482245815 0.118662664062 3.93142277057e-18)
(0.0589746549803 0.0592262801155 1.11189511022e-19)
(-0.0146060553333 -0.0102054174217 -5.49507385832e-19)
(-0.0775898844988 -0.085666838135 8.19792401428e-21)
(0.259441119133 0.0525775319009 1.79578506995e-18)
(0.354259665613 0.0391879149566 -7.36310601741e-19)
(0.310423865832 0.0578210364559 -9.44978010687e-19)
(0.194554274332 0.169568607258 1.21353019897e-17)
(0.0741907451292 0.198349483144 4.64224973575e-18)
(0.261773684183 0.0218504678203 -1.48123296333e-18)
(0.357129990199 0.0299593263539 -7.53509980297e-18)
(0.318129966695 0.0752104963899 -3.63096330047e-18)
(0.208038694463 0.209411492737 -8.29907939449e-18)
(0.132796280953 0.23682089347 8.56737974292e-18)
(0.264143620033 -0.00874637664446 -1.58825974402e-18)
(0.361718814462 0.0214675615553 4.88559776022e-19)
(0.314158736745 0.0935143117147 3.88080091076e-18)
(0.243601138362 0.241747728541 -2.3211598456e-18)
(0.208206852856 0.268815721016 9.28142079356e-18)
(0.266157078333 -0.0385831847097 1.48780929257e-19)
(0.362315641919 0.0144550769877 9.77714673657e-18)
(0.311395866444 0.112671364574 4.14778469086e-18)
(0.298788533412 0.262667762837 1.92497991667e-17)
(0.294077881756 0.293462013062 -5.02804307248e-18)
(0.267163985834 -0.0673874098384 5.41589601524e-19)
(0.353119486181 0.0120599387045 -2.09819735831e-19)
(0.315697385869 0.132374681064 -2.77936260891e-18)
(0.363264993512 0.273909312121 -1.30908228338e-17)
(0.382360782874 0.301532565279 8.91978953067e-18)
(0.262581809182 -0.102776892795 -2.83156716154e-19)
(0.332822236275 0.000440331391827 -4.74461573548e-18)
(0.339094050539 0.133654584378 3.48937858465e-18)
(0.44427388166 0.269437521917 -2.53433463969e-17)
(0.533519267031 0.332825996821 1.34321051842e-17)
(0.242432595143 -0.141964493743 2.0607852022e-19)
(0.273010201964 -0.0192761863852 3.82612937499e-19)
(0.306330463344 0.0933882520051 -9.13789547326e-19)
(0.458515774278 0.196080654176 3.61202272353e-18)
(0.685131531705 0.266180595751 -1.677265828e-18)
(0.198893529199 -0.156688768373 1.19551504737e-18)
(0.156588041044 -0.0422009682602 1.39032603269e-34)
(0.180200261208 0.0453436674936 -6.20435620775e-19)
(0.33358942539 0.1054967457 -6.90230162784e-19)
(0.614314183757 0.153042753025 -6.22698363787e-18)
(0.13967707237 -0.0963171710933 -3.62163092221e-19)
(0.0282475234496 -0.0290938303876 4.34924406874e-19)
(0.0407024616988 0.0138859112469 -2.63459469267e-18)
(0.156644579959 0.0402643450292 -2.79523035398e-18)
(0.369123927671 0.0635187381275 1.01799007861e-17)
(0.0519585906836 -0.0139701038169 -4.59163367657e-19)
(-0.0642345340058 0.00109867178509 1.50063719135e-19)
(-0.0716648388741 -0.00664519841752 -2.32569544718e-18)
(-0.0367942380386 -0.0107510988463 -7.0042166264e-20)
(0.0407455914958 -0.00247013979568 2.48370923266e-18)
(0.555776272732 0.264684130662 -6.0162391552e-18)
(0.675395595575 0.246785953299 -5.23460755477e-18)
(0.767738798134 0.198961375436 7.51107911183e-18)
(0.840772566706 0.1296812108 1.2749559902e-17)
(0.884097256854 0.0470286499338 -1.2225063387e-17)
(0.815608198781 0.288386513594 -2.00107197419e-18)
(0.892018600246 0.221265568622 -2.4340193356e-17)
(0.942981795388 0.15230503705 -6.4888901925e-18)
(0.97824711795 0.0885923326483 2.30747889212e-17)
(0.997146386244 0.0297537561383 3.38002591904e-18)
(0.745495152979 0.167447301814 8.76338349539e-18)
(0.7600914054 0.124685990595 5.58641151061e-18)
(0.769070275739 0.0854211269478 7.67563120845e-18)
(0.773765310021 0.0491062027944 9.66292457174e-18)
(0.774926688556 0.0156675045401 -9.06903617489e-18)
(0.476294240976 0.0783087013674 -1.10712421318e-17)
(0.480954675692 0.0617655019688 6.83806413355e-19)
(0.486806608808 0.0427480817226 -8.20647094844e-18)
(0.490466090023 0.0242958376358 -9.90708418251e-18)
(0.491499645171 0.00768014985941 9.03138408833e-18)
(0.0837736197846 0.0047571964127 1.1553359333e-18)
(0.0869132290222 0.00373026821179 -7.82595926336e-18)
(0.0909966503434 0.00203634935755 -4.84917647714e-18)
(0.0929517305304 0.000949980712731 8.9313473141e-18)
(0.0932404720154 0.000230416058049 7.0990016076e-20)
(-0.262671637873 -0.0171952859662 -2.99749434008e-18)
(-0.222146934732 -0.0143706465122 2.41178833589e-18)
(-0.154756630744 -0.0114377504535 4.52360937177e-19)
(-0.177594004627 -0.0120704819581 2.6799930149e-18)
(-0.217777762234 -0.00507098804859 1.23819920847e-18)
(-0.25060119176 -0.0543835404565 -5.59477660079e-18)
(-0.214687294134 -0.0427075809668 -2.85004125013e-18)
(-0.160080441191 -0.0306702914044 2.38246548134e-18)
(-0.138701804725 -0.0260016422551 -1.97962912172e-18)
(-0.180160723212 -0.0173498085362 4.33252704923e-18)
(-0.225650320676 -0.0848717260328 -5.02820510542e-18)
(-0.19948495884 -0.0679882172748 -6.97257502045e-19)
(-0.157765243902 -0.0470822744256 1.98816631345e-18)
(-0.113716861771 -0.0324612895633 1.57541548391e-18)
(-0.134344791781 -0.0320595166484 1.07017943724e-17)
(-0.19027766294 -0.104942389113 4.98509116618e-18)
(-0.175898388855 -0.0859667738729 4.38789955689e-18)
(-0.145995152594 -0.0617086935624 -8.54959846159e-18)
(-0.110475619669 -0.0392377357855 5.48878556266e-19)
(-0.0881064969326 -0.0333919088182 -1.58620315735e-18)
(-0.149156492072 -0.112854087753 7.94210957655e-18)
(-0.145531994681 -0.0936693874608 -4.28142259522e-18)
(-0.128877393661 -0.0698138013485 4.30551868988e-18)
(-0.108969519851 -0.0475879926193 6.36392841372e-18)
(-0.0831674662705 -0.0273239092687 5.63890087112e-19)
(-0.10712348087 -0.109215971486 4.2550688253e-18)
(-0.111028773546 -0.0911304340386 2.63266290675e-18)
(-0.105564653617 -0.0706188732084 5.97741316432e-18)
(-0.0987605310283 -0.0570592265732 -4.18772379578e-18)
(-0.0921994792028 -0.0489018326276 1.58651373219e-18)
(-0.0688569402035 -0.0937129524659 -2.65422610038e-18)
(-0.0785635438037 -0.075242127458 -1.80251815525e-18)
(-0.0814334596219 -0.0594829699954 -1.91180913258e-19)
(-0.0840832215848 -0.0518350842326 -3.97315136125e-18)
(-0.0834915157075 -0.0469079844061 -2.01398609523e-18)
(-0.0379820568991 -0.0667225856565 -1.89891239433e-18)
(-0.0516556469254 -0.0493375727988 4.56736407006e-18)
(-0.0596703973515 -0.0474703888515 -8.36243555026e-18)
(-0.0672110621655 -0.0493429266811 -1.84950699949e-17)
(-0.069169938874 -0.0505417116009 7.32726453693e-18)
(-0.0169006249881 -0.0308384282125 -6.08337282978e-19)
(-0.0310847437669 -0.0286190118255 -3.01871224669e-18)
(-0.0402658782501 -0.0385551733781 8.97125625509e-18)
(-0.0469684683781 -0.0474067419647 1.55730602747e-17)
(-0.0476051095249 -0.0552742795856 -2.26551196357e-18)
(-0.00345660462951 0.000785713285267 3.16103311191e-19)
(-0.0183647346809 -0.0149268578248 -9.85750928769e-19)
(-0.0258992504098 -0.030443577356 4.17803017667e-19)
(-0.0292982283498 -0.0463716216477 -9.78013511111e-20)
(-0.0269897980425 -0.0611938710321 -5.5771354195e-18)
(-0.0846687552772 -0.0170356898772 3.65607791671e-18)
(0.0383310868558 -0.0220330322663 1.60087906684e-17)
(0.0619980607323 -0.00152200376 -4.20640427304e-18)
(0.0574828928683 0.00564622418043 -6.8060348895e-18)
(0.0464228459438 0.00245698715354 -4.67896105299e-19)
(-0.0784495237752 -0.0433199654281 4.27027884046e-18)
(0.0952859618852 -0.0428244175483 -5.76607594081e-18)
(0.135121470296 -0.00181812707498 -1.10931540394e-17)
(0.136548169184 0.00841679507802 -1.42513623105e-18)
(0.127890576135 0.00384093715725 1.39330171192e-18)
(-0.0499620768121 -0.0716818142468 5.31762679748e-18)
(0.131666733072 -0.0702668865409 -1.48879081023e-17)
(0.203507615324 -0.00635876049955 3.08657106722e-18)
(0.216533430255 0.0106600282954 1.95850767097e-18)
(0.211017518648 0.00519558250316 -2.18438052976e-18)
(-0.0139436573754 -0.105142002144 4.97606598009e-19)
(0.150115947504 -0.103534016578 1.66441175872e-19)
(0.253347834943 -0.0202930205123 2.28768205362e-18)
(0.286223527447 0.0101805417253 6.29420136622e-19)
(0.286425168121 0.00582374227514 -5.27254324092e-19)
(0.0251860799755 -0.140026189539 -1.94883574251e-19)
(0.160629449956 -0.140009121846 5.81771059207e-18)
(0.282915108991 -0.0422060558273 -8.48240627326e-19)
(0.338431343019 0.00486761586896 -2.64196784689e-18)
(0.349046235604 0.00495314263252 -1.5383226889e-18)
(-0.105870204298 -0.0197655948655 -4.27313636014e-18)
(-0.0823386233297 -0.00220122525127 0)
(-0.0733716112636 0.000281837740126 -2.06565462943e-18)
(-0.0763052103464 -0.000249726880312 -4.26770915726e-20)
(-0.0806805583594 -0.000335862642031 2.1371942175e-18)
(-0.0810462397347 0.00188925864409 0)
(-0.0283474768561 -0.00391899619979 0)
(-0.00686938756361 -0.000158294948889 4.33439955254e-18)
(-0.0123332620537 0.00281760627077 -2.08537756167e-19)
(-0.0221667102483 0.00111521744187 -4.71702772285e-19)
(-0.20930387519 -0.000519727188637 3.7776417539e-18)
(-0.202561993377 -0.00223180134766 -2.20931302618e-17)
(-0.182435110745 -0.00651303063137 1.83464200449e-18)
(-0.155144378966 -0.0142076900484 1.4071708395e-17)
(-0.130723652898 -0.0206687507967 4.44602660255e-18)
(-0.199499563455 -0.00199560275408 -3.86500051971e-18)
(-0.187564143954 -0.00867095198648 -1.7802413787e-17)
(-0.154239061863 -0.0190702699572 7.75875166425e-18)
(-0.111584501512 -0.0308310509278 5.55658561893e-19)
(-0.0644307681599 -0.025785627877 -1.52784453549e-18)
(-0.0921287019776 0.0504021495896 -1.57002060224e-18)
(-0.0991612347747 0.0583993154194 3.74523231994e-18)
(-0.105400295013 0.0707008550463 6.41917905586e-19)
(-0.110939171406 0.0906126453532 5.15611098436e-19)
(-0.106005766156 0.110067253578 -1.66929267815e-18)
(-0.0819523895184 0.0534838703481 3.49572626236e-18)
(-0.0837893001906 0.0578386626331 1.22324990399e-17)
(-0.0811101848011 0.0630566114764 4.16625098048e-18)
(-0.0781900090659 0.0752193671331 -1.92101981724e-18)
(-0.0681952322751 0.0937886320789 -7.97644311145e-19)
(-0.0634052666872 0.0634588520807 -7.18275384331e-18)
(-0.0638178690918 0.0620395545667 6.53934537065e-19)
(-0.0578936015848 0.0587409383768 1.04196934274e-17)
(-0.0503892612633 0.0556294212752 2.01639535834e-18)
(-0.0378216054311 0.0674007561275 1.38368437503e-18)
(-0.0406818939702 0.0731071364693 -1.07155093274e-17)
(-0.0420045613552 0.0654142864789 -7.93304203394e-18)
(-0.0372598115786 0.0559035690086 4.94572550392e-18)
(-0.0283938982519 0.0448344044875 4.44948281174e-18)
(-0.0146303909551 0.0347489743429 3.30103592151e-19)
(-0.0245163366383 0.0832642521571 -2.43363152295e-18)
(-0.0283982257248 0.0685425918579 -2.6360440058e-18)
(-0.026431836353 0.0519620698059 -6.86767166866e-20)
(-0.0202915903885 0.0345056402145 1.28627923813e-18)
(-0.00883838735891 0.0150547500524 2.95705276035e-19)
(-0.217352832566 0.00506178543156 -6.52364996918e-18)
(-0.177229566651 0.0121864972639 2.41772829111e-18)
(-0.154586875306 0.0115397312997 -2.90362658589e-18)
(-0.222067329337 0.0143924047754 -1.56935061131e-18)
(-0.262347042383 0.0220720401774 -2.90889228742e-18)
(-0.179631354645 0.017209993571 -9.13143931009e-18)
(-0.138307869533 0.0258928178575 -1.1986310803e-17)
(-0.159798719558 0.0305885839264 -1.71208690015e-18)
(-0.214578902586 0.0426748631509 -4.55492002824e-18)
(-0.249650668886 0.0587149572398 2.98943973816e-18)
(-0.133971812594 0.0318828210158 1.82280373294e-17)
(-0.113553789548 0.0323307527371 4.65567144552e-18)
(-0.157517398269 0.0469129366863 -5.28015003726e-18)
(-0.199447229917 0.0679089984014 -1.5700926066e-18)
(-0.224335286473 0.0883275029219 -5.67258600809e-19)
(-0.0880161964335 0.0332076568116 -4.70166201913e-18)
(-0.110447227542 0.0390826194623 1.44982966494e-17)
(-0.145830833539 0.0614725910278 5.04982285865e-18)
(-0.175942942756 0.085829003957 5.79120287126e-19)
(-0.188895102233 0.107454423157 -4.91545476908e-18)
(-0.0839976334666 0.0279914657351 -9.67913651523e-19)
(-0.109178070204 0.0478032112719 -4.58319873361e-18)
(-0.128834837512 0.069567087883 2.75912568083e-18)
(-0.145621789457 0.0934471375108 2.42357935486e-18)
(-0.147887914706 0.114517455727 7.01490559319e-21)
(0.174223579942 0.124285376674 3.93745845377e-19)
(0.0940488018641 0.0420012545436 -1.03713257812e-18)
(0.0475362825267 0.00183787761295 -7.42092619989e-18)
(0.0504562672722 0.0186584222951 6.34196077521e-18)
(-0.0754680801362 0.0208277320876 1.71534692846e-18)
(0.214752597218 0.14125444433 2.02040749598e-20)
(0.179339310036 0.0518652012461 5.07642587757e-18)
(0.124281328494 0.00551828433602 -1.03417565145e-17)
(0.117323364717 0.0351996296468 -1.13047456121e-17)
(-0.0634492165751 0.0509310586933 -4.44380164259e-18)
(0.241591674461 0.13416940713 2.2567791679e-19)
(0.262511884665 0.0554213478237 6.15457739519e-19)
(0.197185970105 0.0119281376113 7.47720232792e-20)
(0.162164345358 0.0607300763942 -8.93119204147e-18)
(-0.0316659557292 0.0823121544153 3.32892140045e-18)
(0.253723258644 0.112404389796 -1.40228600182e-18)
(0.325734025567 0.0547567509259 -1.08942138447e-18)
(0.253403001628 0.0242143955498 1.25348288689e-18)
(0.183495465315 0.0934354678697 -2.84001093149e-18)
(0.00216310343916 0.119028646565 4.6018704465e-18)
(0.257392332896 0.0833381259916 -2.86035215744e-19)
(0.351957946998 0.0481236928034 2.55484000601e-18)
(0.289626685116 0.040243869936 -5.6233214314e-19)
(0.191206799013 0.130031163722 3.36271292886e-19)
(0.0341187568434 0.157619187973 7.05723277113e-18)
(0.0432452786595 0.0155384415509 0)
(-0.0636266341682 -0.0021135222981 1.53761211718e-19)
(-0.077467471238 -0.00580070602815 -2.08412662352e-18)
(-0.0807194084137 0.00236107885111 -3.93113153409e-19)
(-0.106025935353 0.0194393868827 8.06798821048e-18)
(0.120562925384 0.0822683252094 -2.45359000239e-18)
(0.0161181739762 0.0236450641918 -5.64591885749e-18)
(-0.0187482048407 0.00295046714572 7.22912715821e-18)
(-0.0227237705449 0.00353452789627 1.11749581978e-17)
(-0.0784007175273 -0.00151897210349 8.61564588309e-18)
(-0.131006395812 0.0205440526148 1.54916776768e-18)
(-0.155007526745 0.0141762787933 -1.18076387813e-17)
(-0.182471440257 0.00640429672198 -4.40563180592e-18)
(-0.202691606321 0.00215302834187 -1.88711872119e-18)
(-0.209375460584 0.00045326919734 0)
(-0.0642081260548 0.0254811718534 -1.29869755741e-17)
(-0.110971856841 0.0309885666174 -2.41064987884e-17)
(-0.153865122369 0.0190648735787 1.45930015295e-17)
(-0.187186507839 0.00861438276452 3.40058361072e-18)
(-0.199390257166 0.0019606542344 -5.16479007519e-18)
)
;

boundaryField
{
    left
    {
        type            fixedValue;
        value           uniform (1 0 0);
    }

    right
    {
        type            zeroGradient;
    }

    down
    {
        type            noSlip;
    }

    up
    {
        type            noSlip;
    }

    cylinder
    {
        type            noSlip;
    }

    defaultFaces
    {
        type            empty;
    }
}

// ************************************************************************* //
