/*--------------------------------*- C++ -*----------------------------------*\
  =========                 |
  \\      /  F ield         | OpenFOAM: The Open Source CFD Toolbox
   \\    /   O peration     | Website:  https://openfoam.org
    \\  /    A nd           | Version:  13
     \\/     M anipulation  |
\*---------------------------------------------------------------------------*/
FoamFile
{
    format      ascii;
    class       surfaceScalarField;
    location    "41.9";
    object      phi;
}
// * * * * * * * * * * * * * * * * * * * * * * * * * * * * * * * * * * * * * //

dimensions      [0 3 -1 0 0 0 0];

internalField   nonuniform List<scalar> 
823
(
0.0102559
0.0265466
-0.0368025
0.0291633
0.0236516
-0.042559
0.0735862
-0.0256815
-0.0187414
0.15411
-0.090696
0.0101724
-0.128096
0.0144278
0.267778
0.0184853
0.00806131
0.0762994
-0.0341625
0.168232
-0.117614
0.275581
-0.198045
-0.270841
0.418326
0.021666
-0.0136047
0.105214
-0.117711
0.216537
-0.228936
0.324996
-0.306504
-0.355302
0.409457
0.0417353
-0.0553401
0.138667
-0.214642
0.227932
-0.318201
0.286267
-0.364839
-0.378676
0.309641
0.0560749
-0.111415
0.130049
-0.288617
0.173643
-0.361795
0.190038
-0.381234
0.197758
-0.386395
0.0235134
-0.0607923
0.0372789
0.0551416
-0.124358
0.0927297
0.0754219
-0.134216
0.113936
0.0807085
-0.114349
0.109063
-0.0881545
0.075841
0.093022
0.0212273
-0.0820196
0.0344665
-0.137597
0.0278629
-0.127612
0.00928505
-0.0957712
-0.0663502
-0.0125192
0.0106526
-0.0926722
-0.000978395
-0.125966
-0.025952
-0.102639
-0.0477442
-0.073979
-0.0537871
-0.0603074
-0.0492289
-0.0434432
-0.124751
-0.0504438
-0.188392
-0.0389975
-0.232969
-0.0294023
-0.022025
-0.264731
-0.0802458
-0.173249
-0.230987
-0.250217
-0.257815
0.372506
-0.404727
0.108062
0.421313
1.74
-1.78881
0.382678
0.868959
-0.830325
0.467613
-1.50419
1.41926
-0.985247
0.975272
0.0866406
-0.503887
0.266766
1.55988
0.470792
0.664933
0.521984
-1.55538
-0.988569
-0.0684063
-0.495788
0.152968
1.3385
0.574097
0.243804
0.57875
-1.56003
-0.97601
-0.170477
-0.590042
0.182978
0.985047
0.642846
-0.216065
0.63828
-1.55547
-0.9468
-0.109795
-0.738061
0.234135
0.641117
0.663357
-0.645288
0.664386
-1.5565
-0.914029
0.776383
-0.392921
-1.12152
0.942269
0.475232
1.3134
-1.01642
1.15036
-1.39345
-0.720719
1.17312
-0.227553
-1.33849
1.39603
0.252315
1.40905
-1.02943
1.06443
-1.04883
-0.471262
1.22661
-0.129791
-1.32437
1.50331
-0.0243828
1.28719
-0.813316
0.902386
-0.664027
-0.259175
1.23448
-0.0719077
-1.29236
1.36043
-0.150328
0.981541
-0.434432
0.578301
-0.260787
-0.0759152
0.815727
-0.887635
0.6654
0.230968
-0.0298192
1.08159
0.145437
-1.02927
1.15027
0.24096
1.25854
0.301185
1.26433
0.412534
0.410585
1.0066
0.0780229
-0.939188
1.06562
0.18194
1.16091
0.205901
1.25992
0.313526
0.332016
0.940975
0.0360393
-0.898991
1.00574
0.117177
1.08527
0.12637
1.20797
0.190826
0.215609
0.888666
0.00847322
-0.8611
0.961128
0.044715
1.0413
0.0462025
1.15819
0.0739311
0.0814361
0.64135
-0.632877
0.686065
0.732268
0.806199
0.131341
0.296843
-0.247948
-0.180236
0.0873862
0.304142
-0.260187
0.0477065
0.314662
-0.274982
0.0152439
0.306263
-0.2738
0.198408
-0.183165
0.0938842
0.333939
-0.130981
0.0588411
0.339185
0.0277178
0.345785
0.00383011
0.330151
0.202239
0.0512964
0.363725
-0.0810818
0.0227165
0.367765
-0.000818579
0.36932
-0.0101764
0.339508
0.192062
-0.0223588
0.379993
0.00609018
-0.0368399
0.382246
-0.0422487
0.374729
-0.0306267
0.327886
0.161436
-0.103236
0.096834
-0.102224
-0.0892903
-0.0500206
0.204534
0.0939677
-0.257438
-0.0410641
0.150238
0.0981442
-0.0438477
0.0939349
0.102814
-0.0465114
0.0384702
0.103035
-0.0475702
0.0734235
-0.0349533
0.197357
0.138831
-0.24222
0.15029
0.145212
0.0979329
0.155171
0.041775
0.159193
0.115198
0.151523
0.184435
-0.197128
0.107986
0.188749
0.0655016
0.197655
0.0249238
0.199771
0.140122
0.157381
0.219972
-0.192917
0.116596
0.229534
0.0714655
0.242785
0.0276837
0.243552
0.167806
0.108457
-0.136433
0.0778035
0.0456065
0.0153586
0.404389
0.0691767
-0.077586
0.421882
0.0100571
-0.0275503
0.41635
0.150322
-0.144789
0.391173
0.19304
-0.167863
0.392879
-0.259143
0.401856
0.0633005
0.416713
-0.00479989
0.405825
0.16121
0.37514
0.223726
0.525798
0.396444
0.0628361
0.412554
-0.0209095
0.3843
0.189463
0.361111
0.246915
0.689781
0.394186
0.0646302
0.400991
-0.027715
0.368635
0.221818
0.336745
0.278806
0.833609
0.3883
0.07231
0.390612
-0.0300273
0.338651
0.273779
0.310284
0.307173
1.00746
0.627398
0.0489325
0.662916
-0.0655453
0.677427
0.259268
0.733491
0.251109
0.76181
0.97914
0.645221
0.00773183
0.66725
-0.0875747
0.69005
0.236469
0.775163
0.165996
0.521343
1.01563
0.654326
-0.0425742
0.646279
-0.0795277
0.690664
0.192085
0.794947
0.0617131
0.323828
0.992462
0.633605
-0.0721589
0.60408
-0.0500026
0.718373
0.0777919
0.779698
0.000387477
0.153272
0.950255
0.531862
0.481859
0.559651
0.560038
0.71331
0.99616
-0.197256
0.994958
-0.129778
0.987972
-0.0740957
1.001
-0.00693394
0.0685635
0.953854
-0.13548
0.938498
-0.114423
0.908639
-0.0442366
0.929896
-0.0281908
0.0592717
0.93295
-0.0759675
0.897954
-0.0794274
0.876607
-0.0228894
0.880802
-0.0323857
0.0410825
0.902809
-0.0285215
0.857414
-0.034033
0.846192
-0.0116669
0.833275
-0.0194689
0.0132573
0.684788
0.650755
0.639089
0.61962
0.0554006
0.173946
-0.229347
0.0792917
0.371653
-0.395544
0.0779068
0.425832
-0.424447
0.0678251
0.42651
-0.416428
0.394111
0.0537752
-0.380061
0.0858418
0.0881045
0.162196
0.295299
0.195069
0.392959
0.198997
0.422581
0.410008
0.183101
0.0734947
0.0146098
0.201878
0.166916
0.297734
0.297103
0.352427
0.367888
0.414609
0.347826
0.0349485
-0.0203387
0.155675
0.0461893
0.292647
0.160131
0.423246
0.237288
0.331597
0.506259
0.00541831
-0.025757
0.0675815
-0.0159739
0.18704
0.0406729
0.334261
0.0900671
0.184335
0.481523
-0.00642951
-0.0193275
0.0118505
-0.0342539
0.0775686
-0.0250452
0.180289
-0.0126535
0.0588322
0.305792
-0.00512215
-0.0142053
-0.000846121
-0.03853
0.0237775
-0.0496688
0.0613968
-0.0502727
-0.0180626
0.138292
-0.000149047
-0.0140563
0.00701298
-0.045692
0.0228373
-0.0654931
0.0427629
-0.0701984
-0.0610179
0.0857182
0.00800302
-0.0220593
0.0278269
-0.0655159
0.0525678
-0.090234
0.0775346
-0.0951652
-0.0892942
0.105811
0.0152196
0.0424334
0.066135
0.0800324
0.0837601
0.404895
1.0504
-1.1495
0.214019
0.808335
-0.617459
-0.0563436
0.568707
-0.298344
0.127832
-0.610994
0.426818
-0.621724
0.424577
0.381932
0.806756
0.0687079
1.12156
-0.0804595
0.717874
0.192004
-0.883457
-0.760779
0.385763
0.506711
0.0223221
1.485
-0.0112256
0.751422
0.259335
-1.15402
-0.857373
0.405497
0.207024
0.15701
1.73349
0.13596
0.772471
0.306074
-1.32413
-0.936754
0.398846
0.343526
0.285673
0.380797
-0.133609
0.739407
-0.605797
-0.280854
0.147244
-0.216895
-0.0639588
0.0471443
-0.264039
-0.178291
0.819887
-1.22998
0.349673
-0.0126306
0.150148
0.0961805
-0.0125615
-0.083619
0.157037
-0.0608562
0.261877
-0.10484
0.41757
-0.155693
-0.188228
0.220888
-0.179674
0.343133
0.586118
0.936684
0.146969
-0.153353
0.185109
-0.178725
0.112445
-0.15987
0.194393
0.0731949
-0.168576
0.207826
0.0302639
-0.169375
0.212306
-0.119706
0.14997
0.191565
-0.112971
-0.231947
0.145699
-0.114003
0.0930531
-0.11593
0.0386836
-0.115006
-0.0810228
0.186496
-0.0616639
-0.237804
0.134471
-0.0619778
0.082779
-0.0642381
0.0334992
-0.0657259
-0.0475236
0.204672
-0.010229
-0.256106
0.15242
-0.00972626
0.0977935
-0.00961148
0.0414521
-0.00938437
-0.00607158
0.207676
-0.258969
0.154102
0.0979794
0.0410248
0.0485804
-0.356201
-0.0724411
0.0190085
-0.386856
-0.00633391
-0.399105
-0.0175424
-0.384336
-0.246889
0.137473
-0.321408
-0.172266
0.0918169
-0.3412
0.0455323
-0.35282
0.00984688
-0.34865
-0.237042
0.160636
-0.276691
-0.205353
0.11255
-0.293115
0.0662095
-0.306479
0.0240495
-0.30649
-0.212993
0.179404
-0.236812
-0.219282
0.13257
-0.246282
0.0824448
-0.256354
0.0335625
-0.257608
-0.17943
0.175179
-0.226881
0.12329
0.0747619
0.02946
0.388529
0.104491
-0.0970403
0.391409
0.07925
-0.0821302
0.359428
0.137508
-0.105527
0.312301
0.0282888
0.0188383
-0.271697
0.405273
0.396309
0.104161
0.405529
0.0700304
0.397601
0.145436
0.353326
0.0725632
-0.150318
0.401517
0.0986239
0.414954
0.0565939
0.412071
0.148318
0.375488
0.109146
-0.0126334
0.40601
0.0885936
0.419899
0.0427046
0.422577
0.145641
0.391847
0.139876
0.123107
0.406987
0.422142
0.422993
0.395005
0.415255
0.0947957
0.338031
0.0772247
0.259514
0.0785165
0.273844
-0.0143301
-0.218196
0.49204
0.507806
0.502901
0.475891
0.480399
0.667476
0.39377
0.09827
0.306925
0.0868455
0.206076
0.100849
0.120079
0.0859974
0.0364595
0.538865
0.406428
0.301924
0.215656
)
;

boundaryField
{
    left
    {
        type            calculated;
        value           nonuniform List<scalar> 
17
(
-0.60402
-0.60402
-0.60402
-0.60402
-0.60402
-0.39598
-0.39598
-0.39598
-0.39598
-0.39598
-0.39598
-0.39598
-0.39598
-0.39598
-0.39598
-0.510051
-0.510051
)
;
    }
    right
    {
        type            calculated;
        value           nonuniform List<scalar> 
17
(
0.225436
0.396434
0.324979
0.331058
0.355929
0.385455
0.419315
0.477588
0.525306
0.566191
0.609069
0.631615
0.957046
0.814973
0.690299
0.395041
-0.105734
)
;
    }
    down
    {
        type            calculated;
        value           uniform 0;
    }
    up
    {
        type            calculated;
        value           uniform 0;
    }
    cylinder
    {
        type            calculated;
        value           uniform 0;
    }
    defaultFaces
    {
        type            empty;
    }
}


// ************************************************************************* //
