# Selection   : all
# Cells       : 440
# Volume      : 7.374263e+01
# Time        	maxMag(U)
1.2           	2.813555e+00
1.25          	2.786397e+00
1.3           	2.756735e+00
