# Selection   : all
# Cells       : 440
# Volume      : 7.374263e+01
# Time        	max(p)
5.815         	2.390940e+00
5.86          	2.413989e+00
5.91          	2.421828e+00
