/*--------------------------------*- C++ -*----------------------------------*\
  =========                 |
  \\      /  F ield         | OpenFOAM: The Open Source CFD Toolbox
   \\    /   O peration     | Website:  https://openfoam.org
    \\  /    A nd           | Version:  13
     \\/     M anipulation  |
\*---------------------------------------------------------------------------*/
FoamFile
{
    format      ascii;
    class       surfaceScalarField;
    location    "0.48";
    object      phi;
}
// * * * * * * * * * * * * * * * * * * * * * * * * * * * * * * * * * * * * * //

dimensions      [0 3 -1 0 0 0 0];

internalField   nonuniform List<scalar> 
823
(
0.0113774
-0.0505553
0.0391779
0.0387582
-0.133437
0.106056
0.0788331
-0.205878
0.165803
0.130176
-0.268867
0.217524
-0.323252
0.259402
0.194026
0.0107027
-0.061258
0.0361427
-0.158877
0.0726484
-0.242383
0.117975
-0.314193
-0.375598
0.170321
0.00837698
-0.069635
0.0282852
-0.178785
0.0567264
-0.270825
0.0918128
-0.34928
-0.416051
0.132266
0.00529936
-0.0749344
0.017996
-0.191482
0.0362306
-0.289059
0.0588859
-0.371935
-0.442417
0.0852518
0.00196203
-0.0768964
0.00663025
-0.19615
0.0132901
-0.295719
0.0215227
-0.380168
0.0310634
-0.451958
0.00668686
-0.0107228
0.00403589
0.0222467
-0.0308494
0.0152895
0.0454635
-0.0484169
0.0252001
0.0746186
-0.0638419
0.0346868
-0.0769194
0.108276
0.0432624
0.00577255
-0.0164954
0.0215272
-0.0466041
0.046771
-0.0736607
0.0798445
-0.0969154
-0.116019
0.118944
0.00639955
-0.022895
0.0236773
-0.0638818
0.0512764
-0.10126
0.087981
-0.13362
-0.160076
0.132038
0.00753751
-0.0304325
0.0270934
-0.0834377
0.0573327
-0.131499
0.0970538
-0.173341
-0.207875
0.144853
0.00874546
0.0313637
0.0656673
0.10985
0.161377
0.322411
-0.955958
0.741822
0.473283
-0.819151
0.668278
0.56907
-0.349822
0.254035
0.607488
-0.0749525
0.0365341
-0.00508329
0.000145623
0.330741
-1.16776
0.470935
-0.959345
0.570416
-0.449302
0.615833
-0.120369
-0.01502
0.337051
-1.37277
0.462104
-1.0844
0.559436
-0.546635
0.609734
-0.170667
-0.0312617
0.337803
-1.56572
0.449678
-1.19627
0.539557
-0.636513
0.598251
-0.229362
-0.0581613
0.327888
-1.73223
0.429305
-1.29769
0.509653
-0.716862
0.57712
-0.296828
-0.0945639
1.19756
-1.58954
-1.34025
1.00804
-1.10817
0.899182
-0.608
0.860794
-0.258441
-0.0765208
1.33027
-1.13267
-1.78714
0.983356
-0.761256
0.779582
-0.404225
0.70004
-0.178899
-0.0546815
1.18974
-0.607535
-1.71487
0.816677
-0.388193
0.613402
-0.200951
0.527388
-0.092885
-0.0298058
0.822463
-0.185263
-1.24473
0.545352
-0.111082
0.397491
-0.0530899
0.330357
-0.025751
-0.00903679
0.306737
-0.492
0.195655
0.142565
0.116814
1.5626
0.0462519
-1.57779
1.52169
0.126164
1.46265
0.191301
1.39631
0.236664
0.250087
1.67588
0.0356529
-1.66528
1.69935
0.102697
1.73084
0.159802
1.76532
0.202186
0.228264
1.38797
0.0184777
-1.3708
1.43706
0.0536061
1.51389
0.0829747
1.61019
0.105892
0.123576
0.9777
0.00531456
-0.964537
1.01588
0.0154223
1.07582
0.0230432
1.15388
0.0278262
0.0327219
0.392987
-0.387672
0.408409
0.431452
0.459278
0.128782
0.327614
-0.264644
-0.191751
0.0781615
0.27321
-0.222589
0.0385243
0.209794
-0.170156
0.0113396
0.136447
-0.109262
0.0519558
-0.0406161
0.115953
0.378901
-0.16724
0.0714952
0.317667
0.035616
0.245673
0.0105599
0.161503
0.0625157
0.0888505
0.418274
-0.128223
0.0548101
0.351708
0.0272867
0.273196
0.00806441
0.180725
0.0705801
0.0552425
0.443535
-0.0805037
0.0337636
0.373186
0.016655
0.290305
0.00486418
0.192516
0.0754443
0.0174814
-0.0259038
0.0105001
0.00508603
0.00145207
0.0724514
0.0871847
-0.107007
-0.052629
0.0427693
0.0735806
-0.0438984
0.0196743
0.0568305
-0.0337356
0.00511986
0.0367293
-0.0221749
0.0132584
-0.00813858
0.076064
0.125765
-0.114644
0.0437564
0.105888
0.0196662
0.0809207
0.0050985
0.051297
0.018357
0.0845382
0.168467
-0.127241
0.0491813
0.141245
0.0227821
0.10732
0.00618886
0.0678902
0.0245459
0.0941726
0.214633
-0.140339
0.0558419
0.179576
0.0265619
0.1366
0.00743952
0.0870126
0.0319855
0.107451
-0.157462
0.0644367
0.0308802
0.00863068
0.511166
0.170818
-0.286004
0.55609
0.168399
-0.213323
0.49338
0.312354
-0.249645
0.333584
0.804118
-0.644322
1.03967
-0.813096
0.509619
0.0571783
0.552062
0.125957
0.483934
0.380482
0.330744
0.957308
1.25577
0.508397
-0.0552387
0.53931
0.0950436
0.464493
0.455299
0.328416
1.09338
1.45695
0.504771
-0.16403
0.52101
0.0788043
0.441573
0.534736
0.324591
1.21037
1.6412
0.496361
-0.264411
0.494509
0.0806567
0.41382
0.615425
0.312718
1.31147
1.79646
0.768709
-0.4291
0.852034
-0.00266896
0.957437
0.510022
1.16947
1.09944
1.61844
1.34748
0.714004
-0.539083
0.792652
-0.0813168
0.958116
0.344558
1.29855
0.759003
1.14314
1.77386
0.603585
-0.538648
0.636373
-0.114105
0.804749
0.176181
1.17285
0.390899
0.611973
1.70402
0.448694
-0.383321
0.407134
-0.0725453
0.536808
0.046507
0.816058
0.11165
0.186911
1.24112
0.220699
0.148154
0.194661
0.306311
0.493221
1.40254
-0.246816
1.46572
-0.23042
1.52299
-0.185492
1.56316
-0.120673
-0.0405318
1.75274
-0.225691
1.71979
-0.197479
1.69066
-0.156353
1.67086
-0.100878
-0.0349506
1.60152
-0.123189
1.50878
-0.104746
1.43457
-0.0821398
1.38706
-0.053366
-0.018692
1.15106
-0.0331267
1.07429
-0.0279823
1.01529
-0.0231391
0.97757
-0.0156423
-0.00565888
0.460095
0.432112
0.408973
0.393331
0.00250137
0.0430054
-0.0455068
0.00732786
0.10105
-0.105876
0.016095
0.148394
-0.157161
0.0165784
0.151908
-0.152392
0.114027
0.0148139
-0.112262
0.0068283
0.0361771
0.0201776
0.0877002
0.0409577
0.127614
0.0482548
0.144611
0.11638
0.0459011
0.00880913
0.027368
0.0270763
0.069433
0.0521502
0.10254
0.0730914
0.12367
0.114034
0.0754374
0.00780112
0.0195669
0.0255132
0.0517209
0.0497479
0.0783051
0.0774296
0.0959883
0.0992429
0.0922209
0.00509894
0.0144679
0.0179733
0.0388466
0.0367663
0.0595121
0.0600068
0.0727477
0.0767458
0.0825038
0.00342461
0.0110433
0.0125824
0.0296888
0.0274431
0.0446514
0.0470519
0.0531389
0.0561595
0.0676382
0.00222709
0.00881622
0.00893473
0.0229811
0.0222621
0.0313241
0.0410015
0.0343995
0.034785
0.0623759
0.00166558
0.00715064
0.0100869
0.0145598
0.0261097
0.0153012
0.0466329
0.0138762
0.0115682
0.0698497
0.00368709
0.00346355
0.0174411
0.000805729
0.0367395
-0.00399726
0.0597211
-0.00910539
-0.0142985
0.0855877
0.00749939
0.0235946
0.0447975
0.0703788
0.0993426
0.15371
0.0199535
-0.106025
0.2431
-0.129908
0.040518
0.264563
-0.0381306
0.0166666
0.271267
-0.000134122
-0.00656906
-0.0042869
-0.00317541
0.214551
-0.132221
0.324838
-0.240196
0.351148
-0.0644403
0.355679
-0.00466517
-0.00826013
0.259667
-0.322038
0.390673
-0.371202
0.433024
-0.10679
0.436326
-0.00796793
-0.00755867
0.292761
-0.529212
0.437615
-0.516056
0.501292
-0.170468
0.509037
-0.0157132
-0.00339473
0.311953
0.464176
0.547743
0.568563
0.0706483
0.0386914
-0.10934
0.0785844
-0.00793615
0.0828829
-0.00429847
0.0808844
0.00199848
0.000806832
0.194043
-0.261377
0.226624
0.238993
0.234422
0.0207314
-0.00433138
-0.0164
0.0342813
-0.0135499
0.0567594
-0.0224781
0.0856181
-0.0288587
-0.0237215
0.0539222
-0.0434397
0.0862734
0.139233
0.202595
0.0478575
-0.0551154
0.0763326
-0.0690749
0.0275713
-0.0521348
0.0724211
0.0123393
-0.0443567
0.0595887
0.00331745
-0.0300364
0.0390583
-0.011261
0.0145785
0.0454918
-0.0322056
-0.0684016
0.0250362
-0.0316793
0.00986279
-0.0291832
0.00219897
-0.0223725
-0.00906205
0.0561288
-0.00661673
-0.0817178
0.0331889
-0.00873939
0.0143317
-0.010326
0.00261047
-0.0106514
-0.00645156
0.0699805
0.0215818
-0.098179
0.0447525
0.0164888
0.0233287
0.0110979
0.00691693
0.00576041
0.000465348
0.074135
-0.105182
0.0467254
0.0240878
0.00767328
0.0165851
-0.114025
-0.0148223
0.0160945
-0.151901
0.00730667
-0.148373
0.00248914
-0.101058
-0.0430176
0.0482715
-0.11637
-0.0459262
0.0409321
-0.144562
0.0201638
-0.127605
0.00682119
-0.0877158
-0.0361964
0.0731268
-0.113965
-0.0755323
0.0521235
-0.123558
0.0270649
-0.102546
0.00880614
-0.069457
-0.0273903
0.0773426
-0.0989597
-0.0923475
0.0496208
-0.0958365
0.0254324
-0.0783579
0.00777515
-0.0517998
-0.0196152
0.0599627
-0.0825897
0.0365473
0.0177782
0.00503665
0.342121
0.583086
-0.529228
0.281177
0.224115
-0.163171
0.248471
0.0533372
-0.0206308
0.165597
0.115824
-0.0329501
-0.000411579
0.096934
0.408428
0.570638
0.372491
0.260051
0.336665
0.0891634
0.233818
0.218671
0.165005
0.461018
0.505599
0.452679
0.268391
0.409911
0.131931
0.28377
0.344812
0.367058
0.498635
0.402944
0.51675
0.250276
0.461146
0.187535
0.317287
0.488672
0.586165
0.512919
0.549872
0.487762
0.332112
0.158669
0.351382
0.0848626
0.0738067
0.0805385
0.00432415
0.0725021
0.00803638
-0.0368997
0.109402
0.332205
0.242841
0.226535
0.201621
0.261656
0.0856701
0.0237317
0.056791
0.0288791
0.0342922
0.0224988
0.0207349
0.0135573
0.00433485
0.202798
0.139329
0.086296
0.0539271
)
;

boundaryField
{
    left
    {
        type            calculated;
        value           nonuniform List<scalar> 
17
(
-0.60402
-0.60402
-0.60402
-0.60402
-0.60402
-0.39598
-0.39598
-0.39598
-0.39598
-0.39598
-0.39598
-0.39598
-0.39598
-0.39598
-0.39598
-0.510051
-0.510051
)
;
    }
    right
    {
        type            calculated;
        value           nonuniform List<scalar> 
17
(
0.0800776
0.232053
0.278729
0.359652
0.435625
0.504874
0.565314
0.612426
0.62577
0.625976
0.625151
0.613522
0.842751
0.678201
0.502512
0.309588
0.107777
)
;
    }
    down
    {
        type            calculated;
        value           uniform 0;
    }
    up
    {
        type            calculated;
        value           uniform 0;
    }
    cylinder
    {
        type            calculated;
        value           uniform 0;
    }
    defaultFaces
    {
        type            empty;
    }
}


// ************************************************************************* //
