/*--------------------------------*- C++ -*----------------------------------*\
  =========                 |
  \\      /  F ield         | OpenFOAM: The Open Source CFD Toolbox
   \\    /   O peration     | Website:  https://openfoam.org
    \\  /    A nd           | Version:  13
     \\/     M anipulation  |
\*---------------------------------------------------------------------------*/
FoamFile
{
    format      ascii;
    class       surfaceScalarField;
    location    "54.1";
    object      phi;
}
// * * * * * * * * * * * * * * * * * * * * * * * * * * * * * * * * * * * * * //

dimensions      [0 3 -1 0 0 0 0];

internalField   nonuniform List<scalar> 
823
(
0.0158925
0.0211719
-0.0370643
0.0413186
0.0177123
-0.0431384
0.0908092
-0.0295576
-0.019933
0.17276
-0.0960553
0.0141046
-0.136878
0.027979
0.281659
0.0162364
0.00493542
0.073834
-0.0398853
0.168362
-0.124085
0.27675
-0.204444
-0.278249
0.418122
0.0210138
-0.0160784
0.104866
-0.123737
0.216588
-0.235807
0.324732
-0.312588
-0.360006
0.406488
0.0423191
-0.0583975
0.139095
-0.220513
0.226941
-0.323653
0.283378
-0.369026
-0.381567
0.30494
0.0566011
-0.114999
0.129795
-0.293707
0.172173
-0.366031
0.187756
-0.384608
0.195691
-0.389503
0.0211689
-0.0537182
0.0325493
0.0482409
-0.113944
0.0868721
0.061391
-0.122295
0.109144
0.0589833
-0.103376
0.105783
-0.080926
0.0484959
0.0914134
0.0167021
-0.0704202
0.0212545
-0.118497
0.00766139
-0.108701
-0.0119971
-0.0837173
-0.0656284
-0.0272947
-0.00222923
-0.068191
-0.029175
-0.0915508
-0.0650954
-0.0727811
-0.0924263
-0.0563863
-0.0496922
-0.108362
-0.0553208
-0.0128702
-0.131409
-0.0154629
-0.192707
-0.0114833
-0.235642
-0.0134508
-0.0208292
-0.264505
-0.0499345
-0.108536
-0.139952
-0.139298
-0.132148
0.353784
-0.46835
0.163062
0.461125
1.52717
-1.63451
0.386561
1.08494
-1.01038
0.465789
-1.36731
1.28808
-1.02057
1.00792
0.289456
-0.785101
0.449802
1.36682
0.436516
1.09823
0.526657
-1.45745
-1.0233
0.0593018
-0.952766
0.263876
1.16225
0.518825
0.843276
0.600127
-1.53875
-1.01186
-0.172434
-1.04484
0.170407
0.819407
0.617618
0.396065
0.651171
-1.5723
-0.996876
-0.127108
-1.04988
0.142301
0.549997
0.661436
-0.12307
0.663465
-1.57433
-0.982333
0.740836
-0.644034
-1.14668
0.766695
0.524138
1.29546
-0.651834
1.15274
-1.43161
-0.804895
1.08496
-0.389804
-1.33919
1.26544
0.343655
1.44539
-0.831782
1.12821
-1.11443
-0.540677
1.15233
-0.212972
-1.32916
1.42933
0.0666486
1.33647
-0.738915
0.950032
-0.727994
-0.302375
1.18028
-0.104249
-1.28901
1.3437
-0.0967668
1.0281
-0.423321
0.593547
-0.293437
-0.0894618
0.778441
-0.882691
0.681675
0.258354
-0.0350834
1.08606
0.144908
-1.03528
1.15418
0.236827
1.26174
0.298919
1.27079
0.409073
0.405774
1.01229
0.0805781
-0.947964
1.07417
0.174947
1.16351
0.209586
1.26723
0.305345
0.333823
0.946318
0.0399722
-0.905712
1.01017
0.111098
1.08961
0.130145
1.21096
0.183995
0.215621
0.889446
0.0101319
-0.859606
0.958898
0.041645
1.0414
0.0476424
1.15513
0.0702692
0.0817415
0.641393
-0.631261
0.683038
0.73068
0.800949
0.131995
0.298369
-0.248476
-0.181888
0.0875942
0.3052
-0.260799
0.0478404
0.315723
-0.275969
0.0153488
0.307619
-0.275128
0.199641
-0.184293
0.0977433
0.335651
-0.135025
0.061956
0.340987
0.0299918
0.347687
0.00507518
0.332536
0.204717
0.0534017
0.365745
-0.083496
0.0244877
0.369901
0.000363658
0.371811
-0.00971845
0.342618
0.194998
-0.0191875
0.382606
0.00232709
-0.0345482
0.385262
-0.0408218
0.378084
-0.0301435
0.33194
0.164855
-0.100796
0.0938984
-0.100142
-0.0880888
-0.0498559
0.203468
0.0956672
-0.25623
-0.0429054
0.14935
0.099916
-0.0457978
0.0932771
0.104656
-0.0485831
0.0381509
0.104897
-0.0497708
0.0748803
-0.0367294
0.196319
0.140404
-0.241056
0.149444
0.146791
0.0973335
0.156766
0.0414855
0.160745
0.116366
0.151652
0.185895
-0.197143
0.108132
0.190312
0.0656461
0.199252
0.0250201
0.201371
0.141386
0.156513
0.220793
-0.191411
0.116243
0.230582
0.0713597
0.244135
0.0276515
0.245079
0.169037
0.107355
-0.135038
0.0771378
0.0453037
0.015255
0.404918
0.0692703
-0.0782088
0.420793
0.0194081
-0.0352828
0.416282
0.148072
-0.143561
0.390848
0.20294
-0.177507
0.404941
-0.270323
0.402217
0.0630332
0.415415
0.00620958
0.406007
0.15748
0.375083
0.233865
0.538968
0.396307
0.0627059
0.411193
-0.00867613
0.385038
0.183635
0.361596
0.257307
0.703421
0.393469
0.0652164
0.399867
-0.0150738
0.369993
0.213508
0.335702
0.291598
0.847712
0.387093
0.0741025
0.389737
-0.0177178
0.339419
0.263826
0.310207
0.32081
1.02288
0.624734
0.0533885
0.663846
-0.0568294
0.681862
0.24581
0.733898
0.268775
0.772396
0.984383
0.641582
0.0158268
0.673976
-0.0892233
0.695798
0.223988
0.767751
0.196822
0.513317
1.02683
0.653328
-0.0334806
0.654059
-0.0899547
0.69134
0.186707
0.796498
0.0916633
0.303862
1.00595
0.638573
-0.0680331
0.605908
-0.0572897
0.713101
0.0795139
0.790964
0.0138005
0.141435
0.953391
0.535987
0.478698
0.558212
0.572012
0.713447
1.00465
-0.202154
1.00174
-0.132114
0.995757
-0.0775158
1.00674
-0.00865496
0.0653583
0.964701
-0.140025
0.948941
-0.116353
0.918532
-0.0471073
0.938089
-0.028211
0.0554832
0.943897
-0.0779691
0.9083
-0.0807561
0.885081
-0.0238876
0.888346
-0.0314764
0.0381175
0.90448
-0.0290586
0.858269
-0.034545
0.846018
-0.0116359
0.833553
-0.0190117
0.012065
0.684388
0.649843
0.638207
0.619196
0.0551247
0.168201
-0.223325
0.0794178
0.363762
-0.388056
0.0782745
0.418705
-0.417562
0.0680985
0.420134
-0.409958
0.388125
0.0540699
-0.374097
0.0845116
0.0836892
0.161413
0.286861
0.194906
0.385212
0.198647
0.416393
0.405105
0.181667
0.0714425
0.0122467
0.199623
0.15868
0.297077
0.287758
0.354658
0.358813
0.408548
0.351215
0.0336044
-0.0213577
0.151964
0.0403212
0.288516
0.151205
0.420453
0.226875
0.320881
0.508121
0.0052573
-0.026615
0.0650001
-0.0194216
0.182588
0.0336173
0.327753
0.081711
0.170062
0.478572
-0.00653416
-0.0200808
0.00968103
-0.0356368
0.0715575
-0.0282591
0.170023
-0.0167543
0.0483645
0.29172
-0.00675049
-0.0133303
-0.00652454
-0.0358628
0.0137798
-0.0485635
0.0482876
-0.0512621
-0.0243684
0.121021
-0.00109292
-0.0122374
0.0048852
-0.0418409
0.019826
-0.0635043
0.0401739
-0.07161
-0.0671395
0.082945
0.00712742
-0.0193649
0.0268515
-0.0615649
0.052275
-0.0889278
0.077862
-0.097197
-0.0946317
0.105354
0.0131844
0.0384916
0.0587083
0.0672948
0.0640765
0.410969
1.00282
-1.12207
0.275535
0.728906
-0.593472
-0.027415
0.669977
-0.367027
0.0995014
-0.496287
0.36937
-0.686975
0.484837
0.421069
0.702773
0.17198
0.977995
-0.0438361
0.885793
0.170656
-0.710779
-0.8218
0.435237
0.350482
0.0813238
1.33191
-0.0260215
0.993138
0.23337
-0.97017
-0.916486
0.397057
0.0587786
0.127549
1.60142
0.0929861
1.0277
0.293144
-1.17033
-0.982351
0.285917
0.252826
0.27015
0.387899
-0.114228
0.73004
-0.615812
-0.258594
0.144366
-0.22258
-0.036014
0.0198484
-0.242429
-0.201633
0.824135
-1.21617
0.375029
-0.0280112
0.0989303
0.0946726
-0.0128767
-0.0817959
0.155224
-0.0605516
0.262462
-0.107238
0.420376
-0.157914
-0.195436
0.217731
-0.176538
0.338846
0.582823
0.93303
0.145504
-0.150478
0.182015
-0.17704
0.111333
-0.156785
0.190956
0.0724463
-0.165184
0.204071
0.0299162
-0.165636
0.208166
-0.116511
0.146428
0.189718
-0.110445
-0.229752
0.144241
-0.111308
0.0920455
-0.112989
0.0381949
-0.111786
-0.0783165
0.185522
-0.0593574
-0.236609
0.13371
-0.0594959
0.0822314
-0.0615108
0.0332239
-0.0627782
-0.0450926
0.203441
-0.00819152
-0.254607
0.151461
-0.00751587
0.0971304
-0.00718026
0.0411204
-0.0067682
-0.00397222
0.206318
-0.257415
0.153004
0.0972407
0.0407016
0.0468719
-0.350576
-0.0703919
0.0180073
-0.381094
-0.00679017
-0.392764
-0.0175868
-0.377259
-0.240912
0.135464
-0.31646
-0.16958
0.0901262
-0.335756
0.0443598
-0.346998
0.00938004
-0.342279
-0.231532
0.157591
-0.272342
-0.201709
0.110379
-0.288545
0.0648863
-0.301505
0.0234615
-0.300854
-0.208071
0.177081
-0.233216
-0.216207
0.130801
-0.242264
0.0811519
-0.251856
0.0329127
-0.252615
-0.175158
0.172273
-0.223474
0.120965
0.0731794
0.0287305
0.38825
0.105722
-0.0979921
0.39027
0.0825094
-0.0845298
0.358326
0.138758
-0.106814
0.310052
0.0351755
0.0130983
-0.26282
0.395831
0.396212
0.105489
0.404434
0.074288
0.396992
0.1462
0.351624
0.0805436
-0.140947
0.401536
0.099933
0.413991
0.0618331
0.411579
0.148611
0.374282
0.11784
-0.00327343
0.406235
0.0896777
0.419015
0.049053
0.422339
0.145287
0.391096
0.149083
0.133216
0.407449
0.421219
0.422945
0.394521
0.414794
0.0952569
0.336513
0.0782807
0.257157
0.0793566
0.268732
-0.0115751
-0.212985
0.481717
0.507316
0.501067
0.47361
0.475133
0.65798
0.385399
0.0963177
0.300227
0.0851715
0.201289
0.0989388
0.117089
0.0841996
0.0352931
0.530823
0.399787
0.297017
0.211637
)
;

boundaryField
{
    left
    {
        type            calculated;
        value           nonuniform List<scalar> 
17
(
-0.60402
-0.60402
-0.60402
-0.60402
-0.60402
-0.39598
-0.39598
-0.39598
-0.39598
-0.39598
-0.39598
-0.39598
-0.39598
-0.39598
-0.39598
-0.510051
-0.510051
)
;
    }
    right
    {
        type            calculated;
        value           nonuniform List<scalar> 
17
(
0.221481
0.382134
0.301639
0.305481
0.328056
0.359009
0.413472
0.478431
0.529395
0.588679
0.63619
0.648922
0.975304
0.863988
0.71173
0.380633
-0.124545
)
;
    }
    down
    {
        type            calculated;
        value           uniform 0;
    }
    up
    {
        type            calculated;
        value           uniform 0;
    }
    cylinder
    {
        type            calculated;
        value           uniform 0;
    }
    defaultFaces
    {
        type            empty;
    }
}


// ************************************************************************* //
