# Selection   : all
# Cells       : 1800
# Volume      : 7.372328e+01
# Time        	minMag(U)
4.55          	5.226240e-03
4.575         	3.584773e-03
4.6           	3.102349e-03
