/*--------------------------------*- C++ -*----------------------------------*\
  =========                 |
  \\      /  F ield         | OpenFOAM: The Open Source CFD Toolbox
   \\    /   O peration     | Website:  https://openfoam.org
    \\  /    A nd           | Version:  13
     \\/     M anipulation  |
\*---------------------------------------------------------------------------*/
FoamFile
{
    format      ascii;
    class       volScalarField;
    location    "7.645";
    object      p;
}
// * * * * * * * * * * * * * * * * * * * * * * * * * * * * * * * * * * * * * //

dimensions      [0 2 -2 0 0 0 0];

internalField   nonuniform List<scalar> 
440
(
-0.932073
-0.913496
-0.916015
-0.906301
-0.986367
-0.975884
-0.954234
-0.933003
-0.91425
-0.902026
-1.08744
-1.05026
-1.00481
-0.950532
-0.893727
-1.21108
-1.15672
-1.05729
-0.940961
-0.824606
-1.28502
-1.2105
-1.04718
-0.8808
-0.730901
-0.361559
-0.368805
-0.382949
-0.399082
-0.406706
-0.58188
-0.595193
-0.622996
-0.662633
-0.694782
-0.777439
-0.794224
-0.829459
-0.885592
-0.951542
-0.905606
-0.912833
-0.934903
-0.974357
-1.03193
-0.909501
-0.900881
-0.897855
-0.898382
-0.935314
-0.325945
0.0360215
-0.229024
-0.0744866
-0.260943
-0.460095
-0.0100944
-0.284961
-0.0858718
-0.371591
-0.613544
-0.0389312
-0.134336
-0.031963
-0.424067
-0.761768
0.108561
0.221525
0.0673765
-0.376396
-0.858891
0.370753
0.527845
0.0935366
-0.271209
-0.696626
0.64432
0.6926
-0.0223542
-0.181621
-0.372207
0.609904
0.553854
-0.00942619
-0.103093
-0.218841
0.521622
0.750667
0.173194
-0.0511278
-0.081091
0.494328
0.788055
0.266366
-0.0567922
-0.0163682
0.484164
0.840639
0.44459
-0.0258638
-0.479073
-0.603799
-0.783467
-0.955077
-1.10891
-0.219966
-0.349109
-0.444279
-0.510441
-0.538763
-0.0403076
-0.155355
-0.22153
-0.269537
-0.292904
0.0659725
-0.0367581
-0.102142
-0.139877
-0.150301
0.11378
0.0124604
-0.0514679
-0.0845827
-0.083282
0.998901
0.843009
0.643473
0.420764
0.178294
0.54887
0.383436
0.183333
-0.0449433
-0.306731
0.112653
-0.0556149
-0.268304
-0.504935
-0.754391
-0.27643
-0.449016
-0.663516
-0.894255
-1.08723
-0.544492
-0.718631
-0.919678
-1.13089
-1.25715
2.18994
2.2183
2.24289
2.25308
2.24607
1.97493
1.9929
2.0042
1.9978
1.9697
1.73758
1.72292
1.68446
1.62245
1.5329
1.4684
1.43303
1.36114
1.25733
1.12291
1.23187
1.12295
0.982965
0.822578
0.626616
1.97745
1.96659
1.9518
2.01672
2.08527
1.96567
1.95217
1.9283
1.98702
1.97875
1.95487
1.93473
1.90279
1.94493
1.84666
1.94534
1.91399
1.87527
1.89026
1.65867
1.93717
1.89421
1.84653
1.83314
1.46298
1.93031
1.86003
1.80996
1.72389
1.24585
1.92694
1.8236
1.78908
1.61941
1.3453
1.9333
1.80192
1.7701
1.56397
1.36517
1.92511
1.77718
1.76193
1.51484
1.35541
1.96313
1.76854
1.75914
1.48442
1.34831
0.958531
0.627739
0.263164
-0.0669016
-0.279561
0.839022
0.608371
0.35776
0.130165
-0.0636723
0.82108
0.634107
0.441463
0.265322
0.0930575
0.858601
0.681262
0.505973
0.345044
0.191127
0.882146
0.708357
0.54111
0.385916
0.237444
-0.555711
-0.443729
-0.300786
-0.186176
-0.118168
-0.586643
-0.534722
-0.431343
-0.349178
-0.304168
-0.492846
-0.44881
-0.394735
-0.355385
-0.336359
-0.342069
-0.308028
-0.275199
-0.252684
-0.241985
-0.23458
-0.216664
-0.196137
-0.179938
-0.201558
-0.1693
-0.160818
-0.141231
-0.125034
-0.110794
-0.16973
-0.161865
-0.143631
-0.127289
-0.124297
-0.197557
-0.189469
-0.17911
-0.169548
-0.161868
-0.218909
-0.212477
-0.208486
-0.205419
-0.199835
-0.244065
-0.244954
-0.247608
-0.250634
-0.249716
-0.167214
-0.144628
-0.00375907
0.119339
0.0421571
-0.12638
-0.0994313
0.00653177
0.114833
0.0364549
-0.150941
-0.0831824
-0.00496897
0.0818348
0.0086308
-0.195002
-0.0373174
-0.0432428
0.026109
-0.0454009
-0.231326
0.0228895
-0.120081
-0.0298047
-0.140602
0.176648
-0.220109
-0.119599
0.0729035
0.0387916
-0.0881923
-0.238754
-0.0513592
0.113427
0.0515512
-0.0796905
-0.294382
-0.325773
-0.280197
-0.0782926
-0.0960683
-0.290516
-0.334839
-0.260852
-0.262925
2.02257
2.00692
1.97543
1.92933
1.8681
2.16997
2.19311
2.20206
2.19556
2.17466
2.28841
2.3229
2.35009
2.36592
2.36833
2.3422
2.38144
2.42236
2.45565
2.47137
2.3077
2.34358
2.38284
2.41522
2.42948
0.258776
0.169005
0.0269567
-0.14656
-0.335563
0.767581
0.648936
0.489647
0.298547
0.066572
1.21929
1.09519
0.947352
0.77367
0.562288
1.57633
1.48306
1.36824
1.22846
1.0622
1.85902
1.79571
1.7121
1.61162
1.49447
2.04897
2.0095
2.01108
2.04196
2.09628
2.03227
2.00401
2.00546
2.05002
2.13287
2.01737
1.99717
1.99918
2.05815
2.18229
2.00326
1.98906
1.98761
2.05421
2.17472
1.98993
1.97918
1.97137
2.04055
2.14674
2.1063
2.02019
2.00679
1.98319
1.99654
2.06083
2.00926
1.99891
1.99854
2.00452
1.75954
1.59214
1.27873
0.80788
0.285034
1.82818
1.61546
1.28967
0.824471
0.292857
)
;

boundaryField
{
    left
    {
        type            zeroGradient;
    }
    right
    {
        type            fixedValue;
        value           uniform 0;
    }
    down
    {
        type            zeroGradient;
    }
    up
    {
        type            zeroGradient;
    }
    cylinder
    {
        type            zeroGradient;
    }
    defaultFaces
    {
        type            empty;
    }
}


// ************************************************************************* //
