/*--------------------------------*- C++ -*----------------------------------*\
  =========                 |
  \\      /  F ield         | OpenFOAM: The Open Source CFD Toolbox
   \\    /   O peration     | Website:  https://openfoam.org
    \\  /    A nd           | Version:  13
     \\/     M anipulation  |
\*---------------------------------------------------------------------------*/
FoamFile
{
    format      ascii;
    class       surfaceScalarField;
    location    "3.805";
    object      phi;
}
// * * * * * * * * * * * * * * * * * * * * * * * * * * * * * * * * * * * * * //

dimensions      [0 3 -1 0 0 0 0];

internalField   nonuniform List<scalar> 
823
(
-0.00337246
0.0129194
-0.00954695
0.0147065
0.00979037
-0.0278693
0.0785464
-0.0251721
-0.0386679
0.183012
-0.0897666
-0.0146992
-0.088054
-0.0571682
0.328234
0.000886395
0.012033
0.043019
-0.0323423
0.136247
-0.1184
0.245308
-0.198828
-0.265077
0.422332
0.0220471
-0.0100141
0.110475
-0.12077
0.230349
-0.238275
0.350214
-0.318693
-0.37114
0.456276
0.0459897
-0.0560038
0.149963
-0.224743
0.242529
-0.330841
0.302138
-0.378302
-0.391589
0.322588
0.0617881
-0.117792
0.138297
-0.301252
0.181647
-0.37419
0.19696
-0.393616
0.206935
-0.401564
-0.026946
0.0533753
-0.0264293
-0.0715977
0.0899893
-0.0453375
-0.118353
0.096328
-0.0495722
-0.162402
0.0953731
-0.051324
0.0935147
-0.202362
-0.0535549
-0.00390278
0.0572781
-0.0235825
0.109669
-0.0514728
0.124218
-0.0797928
0.123693
0.117005
-0.103284
0.019027
0.0382511
0.0372892
0.0914067
0.045357
0.116151
0.0469543
0.122096
0.117976
0.0459834
0.0223379
0.0159132
0.0611257
0.0526189
0.0988498
0.0784265
0.135427
0.0855183
0.0991125
0.154291
0.00636624
0.0311158
0.0708744
0.141693
0.183638
-0.157452
0.512178
-0.557088
0.0928962
-0.308226
0.0578775
0.229899
-0.699276
0.562273
0.329233
-0.654268
0.554934
-0.353032
0.308497
0.0135617
0.395333
0.249436
-0.5441
0.351518
-0.801357
0.400481
-0.703231
-0.368531
0.183841
0.257475
0.378964
-0.739224
0.460455
-0.882848
0.476051
-0.718827
-0.36101
0.317447
0.0943192
0.458598
-0.880374
0.520245
-0.944495
0.524694
-0.723276
-0.347529
0.395568
-0.117611
0.510684
-0.995491
0.555269
-0.989079
0.546889
-0.714896
-0.335078
1.29721
-0.273154
-1.14167
1.27311
-0.971393
1.12612
-0.842085
0.931564
-0.52034
-0.231316
1.49152
-0.307653
-1.45702
1.30938
-0.789253
1.05828
-0.590989
0.833865
-0.295925
-0.132812
1.39743
-0.285773
-1.4193
1.21501
-0.606841
1.0304
-0.406379
0.856301
-0.121823
-0.0326556
1.27615
-0.211604
-1.35032
1.00555
-0.336248
0.766709
-0.167533
0.644412
0.00047465
0.0196074
0.724095
-0.935699
0.387846
0.220313
0.220788
1.11946
0.172896
-1.08542
1.21141
0.230631
1.31553
0.352159
1.3021
0.435765
0.488664
1.03987
0.112163
-0.979137
1.12068
0.149816
1.22712
0.245722
1.34531
0.317571
0.376959
0.992208
0.0605288
-0.940573
1.04941
0.092616
1.14606
0.149073
1.27253
0.191102
0.230181
0.938101
0.0190716
-0.896644
0.996319
0.034398
1.08842
0.0569684
1.20842
0.0711034
0.0882872
0.684942
-0.665871
0.71934
0.776309
0.847412
0.142219
0.299514
-0.243933
-0.1978
0.0952145
0.303589
-0.256585
0.0538455
0.31311
-0.271741
0.019084
0.303425
-0.268664
0.194249
-0.175165
0.100576
0.335316
-0.136377
0.0650084
0.339157
0.0334938
0.344625
0.00820133
0.328718
0.202451
0.0756095
0.373308
-0.113601
0.0407492
0.374017
0.0111856
0.374188
-0.00505763
0.344961
0.197393
-0.0120025
0.389556
-0.00424599
-0.02859
0.390604
-0.0363048
0.381903
-0.0282302
0.336886
0.169163
-0.0917066
0.0796994
-0.0947184
-0.0870052
-0.051371
0.198416
0.108654
-0.250671
-0.0563997
0.145289
0.112539
-0.0594118
0.0906221
0.117055
-0.0623885
0.036963
0.116926
-0.0632669
0.0819963
-0.0450333
0.184988
0.150894
-0.227228
0.140099
0.157428
0.0901153
0.167039
0.0379513
0.16909
0.119948
0.135886
0.195417
-0.180409
0.0949313
0.198383
0.0561835
0.205787
0.0202499
0.205024
0.140198
0.147102
0.224849
-0.176534
0.110455
0.235031
0.0681468
0.248095
0.0265513
0.246619
0.166749
0.075662
-0.0947461
0.0541075
0.030461
0.00841658
0.409404
0.0348653
-0.0482892
0.423692
0.0419099
-0.0561985
0.416745
0.179624
-0.172677
0.396169
0.23869
-0.218114
0.519775
-0.374277
0.408122
0.0227224
0.416722
0.0333103
0.404702
0.191644
0.383074
0.260319
0.675621
0.401536
0.0171658
0.411687
0.023159
0.381568
0.221763
0.373859
0.268028
0.86907
0.397065
0.0160803
0.395937
0.0242875
0.370809
0.246891
0.344291
0.294546
1.03683
0.387929
0.0241308
0.383315
0.0289019
0.336948
0.293258
0.317993
0.313501
1.26007
0.618177
0.00997393
0.644471
0.00260836
0.684422
0.253307
0.766807
0.231116
1.03946
0.987425
0.628121
-0.0141266
0.643209
-0.0124794
0.71712
0.179395
0.736564
0.211672
0.775452
1.00057
0.631258
-0.0413638
0.646099
-0.027321
0.720813
0.104681
0.773928
0.158557
0.495041
1.05434
0.621392
-0.0587357
0.636294
-0.0422225
0.709942
0.0310324
0.802884
0.0656163
0.229305
1.06862
0.545285
0.503062
0.534095
0.599711
0.829016
1.02821
-0.23859
1.01948
-0.127644
1.03499
-0.129106
1.03024
0.000496552
0.0245261
0.96723
-0.205251
0.960403
-0.120818
0.944126
-0.112829
0.956535
-0.0119123
0.00192399
0.985489
-0.136402
0.96147
-0.096798
0.927627
-0.0789869
0.937359
-0.0216443
-0.00128978
0.990679
-0.0584616
0.940099
-0.0462176
0.898505
-0.0373927
0.893091
-0.0162312
-0.00484245
0.770555
0.724337
0.686944
0.670713
0.0478085
0.147613
-0.195422
0.0723969
0.320114
-0.344703
0.0733882
0.373731
-0.374723
0.0638285
0.376786
-0.367226
0.345206
0.0523154
-0.333693
0.0697894
0.0778238
0.141043
0.248861
0.175858
0.338917
0.181072
0.371571
0.365408
0.16087
0.0589576
0.0188663
0.170877
0.136941
0.26388
0.245914
0.3288
0.306651
0.356789
0.337419
0.0288098
-0.00994352
0.126798
0.0389528
0.248504
0.124208
0.366416
0.188739
0.255514
0.467691
0.00708677
-0.0170303
0.0568733
-0.0108338
0.154401
0.0266802
0.271684
0.0714556
0.11994
0.407259
-0.000417023
-0.0166133
0.0144566
-0.0257074
0.0590468
-0.01791
0.128979
0.00152303
0.0359829
0.212936
0.00311952
-0.0197328
0.0106388
-0.0332266
0.025663
-0.0329342
0.051525
-0.024339
-0.00821613
0.0957241
0.00172906
-0.0214619
0.0008276
-0.0323252
-0.000239011
-0.0318676
0.00203605
-0.026614
-0.0181399
0.0119598
-0.0186599
-0.00280194
-0.050415
-0.000570136
-0.0837482
0.00146567
-0.114909
0.00454714
0.00921424
-0.142264
-0.0292313
-0.0751389
-0.123245
-0.170022
-0.214363
0.32109
0.593527
-0.701681
0.354762
0.249792
-0.283464
0.348972
-0.0365227
0.0423123
0.365245
-0.0848108
0.0685379
-0.038649
0.0126398
0.232329
0.456922
0.183432
0.29869
0.20024
-0.0533316
0.282179
-0.16675
-0.100481
-0.00365083
0.472533
-0.0054129
0.300452
0.132644
-0.191389
0.257794
-0.2919
-0.173994
-0.198697
0.528967
-0.0595815
0.161336
0.13176
-0.38273
0.265096
-0.425237
-0.245236
-0.242484
-0.0232712
0.156272
0.285969
0.173911
0.434931
-0.608842
0.0486181
0.125293
0.114809
-0.0661907
0.192645
-0.0778362
-0.034731
0.778141
-1.04489
0.61997
0.596091
0.586793
0.0866088
-0.0149012
-0.0717076
0.138197
-0.0515879
0.246289
-0.108092
0.41406
-0.167772
-0.194781
0.193885
-0.156471
0.303167
0.532494
0.832414
0.137351
-0.131197
0.161868
-0.168022
0.104101
-0.136555
0.169805
0.0666824
-0.143813
0.181232
0.0269296
-0.143981
0.183734
-0.101204
0.128133
0.177305
-0.0925775
-0.215925
0.13431
-0.0935602
0.0858206
-0.0953233
0.0356264
-0.0937866
-0.0655775
0.1855
-0.044492
-0.233586
0.13598
-0.0440397
0.0848502
-0.0441939
0.0345749
-0.0435113
-0.0310026
0.19848
0.00604029
-0.249012
0.146948
0.00749248
0.0934469
0.00930687
0.0391151
0.0108205
0.00811247
0.194368
-0.244728
0.142449
0.0893672
0.0369208
0.0397903
-0.313667
-0.0598164
0.0158772
-0.343313
-0.00620727
-0.352638
-0.0153857
-0.335524
-0.210807
0.121761
-0.283262
-0.152166
0.0793447
-0.300896
0.0384302
-0.311724
0.00775411
-0.304848
-0.203053
0.140918
-0.243942
-0.180238
0.0995888
-0.259567
0.0583725
-0.270508
0.0208133
-0.267289
-0.18224
0.160646
-0.208745
-0.195842
0.117356
-0.216277
0.0713618
-0.224514
0.0281062
-0.224033
-0.154134
0.156054
-0.202931
0.109582
0.0663
0.0260003
0.39346
0.0776527
-0.0751334
0.394681
0.120044
-0.121264
0.351197
0.159316
-0.115833
0.294171
0.0429933
0.0140325
-0.171118
0.297267
0.397665
0.0759673
0.411295
0.106414
0.395616
0.174995
0.339567
0.0990424
-0.0474761
0.40091
0.0710368
0.419125
0.088199
0.41553
0.17859
0.365386
0.149187
0.0843239
0.405493
0.0615238
0.422853
0.070839
0.426167
0.175275
0.387684
0.18767
0.222996
0.409214
0.423855
0.426453
0.396009
0.425596
0.0844551
0.326111
0.0994849
0.251064
0.0750466
0.267981
-0.0169163
-0.158654
0.426635
0.519373
0.497594
0.456808
0.453924
0.592537
0.340347
0.0862874
0.263486
0.0768612
0.17483
0.0886566
0.101208
0.0736215
0.0295006
0.475894
0.356913
0.265331
0.186787
)
;

boundaryField
{
    left
    {
        type            calculated;
        value           nonuniform List<scalar> 
17
(
-0.60402
-0.60402
-0.60402
-0.60402
-0.60402
-0.39598
-0.39598
-0.39598
-0.39598
-0.39598
-0.39598
-0.39598
-0.39598
-0.39598
-0.39598
-0.510051
-0.510051
)
;
    }
    right
    {
        type            calculated;
        value           nonuniform List<scalar> 
17
(
0.227376
0.564702
0.391254
0.344011
0.331307
0.336338
0.34923
0.373768
0.415981
0.46853
0.511213
0.534437
0.827803
0.735361
0.756144
0.592149
0.240395
)
;
    }
    down
    {
        type            calculated;
        value           uniform 0;
    }
    up
    {
        type            calculated;
        value           uniform 0;
    }
    cylinder
    {
        type            calculated;
        value           uniform 0;
    }
    defaultFaces
    {
        type            empty;
    }
}


// ************************************************************************* //
