/*--------------------------------*- C++ -*----------------------------------*\
  =========                 |
  \\      /  F ield         | OpenFOAM: The Open Source CFD Toolbox
   \\    /   O peration     | Website:  https://openfoam.org
    \\  /    A nd           | Version:  13
     \\/     M anipulation  |
\*---------------------------------------------------------------------------*/
FoamFile
{
    format      ascii;
    class       volVectorField;
    location    "0.3";
    object      U;
}
// * * * * * * * * * * * * * * * * * * * * * * * * * * * * * * * * * * * * * //

dimensions      [0 1 -1 0 0 0 0];

internalField   nonuniform List<vector>
1800
(
(-0.00500649262786 -0.0121994136512 -1.00095925472e-16)
(0.542221272328 -0.462451265653 1.49712480803e-17)
(1.05681875232 -0.863045887933 5.58799837178e-18)
(1.33344241323 -1.04695709057 1.07732780748e-18)
(1.44487966667 -1.08491207887 5.04697383263e-18)
(1.47942539074 -1.05633587374 -1.87451936939e-18)
(1.48352492415 -1.00478383112 -7.06022380298e-18)
(1.47625142967 -0.948373973039 2.96215418217e-18)
(1.46544022835 -0.889987009756 2.81560592668e-18)
(1.43222466286 -0.842015996839 -4.85174818265e-19)
(0.0165687585243 -0.0294314846792 -6.67427669187e-19)
(0.647606695462 -0.467259438253 5.41609523617e-19)
(1.21788172342 -0.846941544914 -4.12754309976e-19)
(1.51318180037 -1.01564917315 -7.31966596846e-19)
(1.6235365959 -1.04600447197 -1.05228577259e-18)
(1.65042572575 -1.01448087074 1.00540254762e-18)
(1.64621970397 -0.961819073167 -1.09860706114e-18)
(1.63215718121 -0.904350948369 7.16972204467e-19)
(1.61583631753 -0.846578756734 6.24790947022e-19)
(1.59199639628 -0.803338585575 -3.05683727976e-19)
(0.0455112901981 -0.0462614911778 -1.73537830042e-20)
(0.759497081988 -0.460248408219 -6.90767852156e-20)
(1.37932299533 -0.810031409816 2.86687217324e-19)
(1.68807918607 -0.959986340515 -2.56658404128e-19)
(1.79415976854 -0.983020704137 -1.52671221722e-18)
(1.81148684869 -0.950907319256 3.4159570797e-19)
(1.79724617243 -0.900909337745 5.97188582309e-19)
(1.77377500916 -0.847934276291 -7.76515051371e-20)
(1.7488044281 -0.796260118882 -4.9924821573e-21)
(1.71620320656 -0.755684870167 -3.42921640013e-20)
(0.0819412755545 -0.0609762064173 1.34732898706e-20)
(0.875772224386 -0.439433544552 -9.04384657972e-20)
(1.53757236025 -0.751155725781 -2.87054293551e-19)
(1.85442509765 -0.879168006588 7.10261725227e-20)
(1.95403620472 -0.894660666659 3.93726533495e-19)
(1.9616191597 -0.862541711573 3.6777380463e-20)
(1.93818989411 -0.815491753216 -2.42080900567e-20)
(1.90676790166 -0.766195284644 5.46838638235e-19)
(1.87471093829 -0.718309662565 4.5210760721e-19)
(1.83871390427 -0.682200314392 -1.4936412997e-19)
(0.125581044952 -0.0720567481984 8.70253924192e-20)
(0.993769962899 -0.404130233654 1.54809216043e-19)
(1.68825290186 -0.67155283408 -8.37619637423e-20)
(2.00716855681 -0.776101228644 -9.82776368505e-20)
(2.09781574017 -0.785225878592 -1.19055880186e-18)
(2.09526501337 -0.75516777827 1.062853481e-20)
(2.06310286399 -0.713375906559 9.29776678011e-19)
(2.02440447251 -0.670295133311 3.23246534053e-19)
(1.98615605591 -0.629177297852 2.3150692591e-20)
(1.94623163165 -0.597892367991 -1.99854429809e-19)
(0.175390113439 -0.0776943164502 -8.07692641319e-20)
(1.10988684729 -0.353270323032 1.74812702376e-19)
(1.82690204499 -0.571736401667 1.12346908892e-18)
(2.14195393161 -0.652182196551 -8.18468488794e-19)
(2.2218069193 -0.656190689067 -8.65279917634e-19)
(2.20939421174 -0.629582914199 1.43756334642e-18)
(2.16947784399 -0.594134529643 -1.03841652493e-18)
(2.12456124092 -0.557999804261 -1.14403489633e-18)
(2.08112141945 -0.523833174815 8.30678440887e-19)
(2.03807025384 -0.498229093881 -3.21687742559e-20)
(0.22984093529 -0.0764163448332 -3.02221168819e-20)
(1.220376374 -0.286962365472 -4.98962502043e-19)
(1.94929529659 -0.453884165422 -2.98616570088e-18)
(2.25491807231 -0.510912836027 1.35970296097e-18)
(2.32270709203 -0.511781848864 2.18679668458e-18)
(2.30110824174 -0.490347185222 -6.32923517596e-21)
(2.25469451207 -0.462649175173 -2.81041736148e-18)
(2.20490757213 -0.434648484574 -2.73463030541e-21)
(2.15753618283 -0.408435961438 2.52204219268e-18)
(2.11205545558 -0.389072991063 6.64301666487e-19)
(0.28670531547 -0.0669775844056 6.14964067828e-20)
(1.32103759995 -0.205750095029 4.3265697037e-19)
(2.05127606469 -0.320350310175 2.29413357469e-18)
(2.34261814969 -0.355572751004 -8.26325816105e-20)
(2.39788108914 -0.355510870782 -1.40857858818e-18)
(2.36824166204 -0.340623885726 -4.34658418598e-19)
(2.31677040517 -0.321607092467 0)
(2.26344498202 -0.30242060018 9.88397591519e-19)
(2.21331067551 -0.28462571532 1.04587434323e-20)
(2.16622479567 -0.272029954023 -8.02924331057e-19)
(0.343275539136 -0.0487508074136 8.96611374189e-21)
(1.40792717145 -0.111247672232 8.69286110404e-19)
(2.12942021865 -0.174511486984 2.06148346262e-18)
(2.40264242335 -0.190367289592 -1.98588874809e-18)
(2.44580404213 -0.191762177502 -1.42859031307e-18)
(2.4095742666 -0.184499331918 4.46089772426e-19)
(2.35460615303 -0.174871575631 -1.87940408451e-18)
(2.29915438341 -0.164973485135 -1.27689694845e-18)
(2.24752354264 -0.155875967323 1.5196612438e-18)
(2.19968380406 -0.150225210713 1.29349766935e-18)
(0.396537202136 -0.0218377072794 4.38133263449e-20)
(1.47760561821 -0.00586698120909 6.01517270134e-19)
(2.18057159167 -0.0199971862736 3.87796360269e-19)
(2.43372773682 -0.0196529075049 -2.88821194569e-18)
(2.4656975721 -0.024818514121 4.09272475945e-20)
(2.4245297635 -0.0255700101107 4.26315705189e-18)
(2.36751850055 -0.0257014071489 -2.25907743871e-18)
(2.31123710278 -0.0253737685975 -1.26906310383e-18)
(2.25926660172 -0.0250305810765 4.13153029166e-19)
(2.21163234263 -0.0262896547833 -9.38906815614e-19)
(-0.00577156188892 0.00293387608662 1.06895630766e-19)
(-0.00438679820276 -0.0902532179891 6.32485881195e-20)
(0.0426915350591 -0.179360254546 -1.62437403022e-21)
(0.104411747436 -0.226548247661 -8.80162813557e-21)
(0.170627731119 -0.242804040466 -2.01019608221e-21)
(0.235339959695 -0.243507195296 -4.30572329177e-20)
(0.295706863319 -0.237765179695 1.57090900607e-20)
(0.351066137638 -0.229821790773 -2.73887405232e-20)
(0.401297243147 -0.221470617261 3.17741169248e-21)
(0.448992787557 -0.214664430711 -8.36059444781e-21)
(-0.0079237745151 0.0160621058201 3.31343581743e-20)
(0.00925288107942 -0.135559221247 7.84717965797e-20)
(0.0717086557756 -0.286299187528 -1.0269489258e-19)
(0.141309564257 -0.365889850619 -4.55667769129e-20)
(0.209901250778 -0.391800844887 -7.59385874036e-20)
(0.274341004714 -0.39063586627 -8.11189515935e-20)
(0.333357759148 -0.378355753243 3.00854727495e-20)
(0.387005080543 -0.362403575655 -2.00802779076e-20)
(0.435359873245 -0.345973326553 2.13562159638e-21)
(0.48209051501 -0.333477411546 -8.23558875205e-21)
(-0.0120373625695 0.0272609570916 -4.25503731949e-20)
(0.0308176125644 -0.180733050605 1.70427797034e-19)
(0.118719409032 -0.389827809558 7.11679855412e-20)
(0.201465614741 -0.49965760208 2.71660874269e-19)
(0.274050436077 -0.534227942257 4.95267264116e-20)
(0.338072030555 -0.53089168509 -2.81360901064e-19)
(0.394870008389 -0.512127696178 -3.0389274197e-20)
(0.445701475141 -0.4883843855 8.998119709e-20)
(0.4909743633 -0.464222131419 -3.69093526969e-20)
(0.536226446836 -0.446201332409 -5.16301176675e-21)
(-0.0174858285287 0.0357821140705 -1.13342771284e-19)
(0.0608050113598 -0.225443923857 -2.61505585139e-20)
(0.183553125679 -0.488070771176 3.20786570196e-20)
(0.284227579141 -0.625004649901 -1.3457972906e-19)
(0.362159460922 -0.666830126751 6.94072782051e-20)
(0.425484428827 -0.660929911439 1.89088691865e-19)
(0.479157232035 -0.635793542396 5.30764773904e-20)
(0.526080625626 -0.60459463817 -1.19435147884e-20)
(0.56714261561 -0.573203787126 2.13871312219e-20)
(0.610395708301 -0.549858132041 -2.56084661451e-21)
(-0.0234206096074 0.0408955509782 0)
(0.0998143157558 -0.269321293011 8.85961406399e-20)
(0.26586966328 -0.579165975626 2.59136520881e-19)
(0.388559961685 -0.739133794636 -2.75662623662e-19)
(0.472834608157 -0.786441628731 -5.76263547991e-19)
(0.535037300009 -0.777539799031 1.95666324268e-19)
(0.58466620402 -0.746236135688 -2.7355060449e-20)
(0.626647515196 -0.708065214499 -1.00226336027e-19)
(0.662497937753 -0.670111785669 0)
(0.703234071167 -0.641658322663 -8.88945410144e-21)
(-0.028768242726 0.0419741695765 5.5159748182e-20)
(0.148499699425 -0.311865375974 8.55112691315e-20)
(0.365082407174 -0.661226515438 4.28530249854e-20)
(0.512957364505 -0.839341564516 2.41752898037e-19)
(0.604105765152 -0.890073924769 -1.9148414115e-19)
(0.664595160454 -0.877756117722 -2.91370582005e-19)
(0.70927943127 -0.840639524226 5.10251661777e-19)
(0.745396097389 -0.796161749577 5.49321928566e-20)
(0.775242099017 -0.752460689438 -3.03489610586e-19)
(0.812908272289 -0.71907286921 -7.09923994717e-21)
(-0.0322643379681 0.0386022037266 -3.52480827674e-21)
(0.207452837204 -0.352327035528 8.82546957512e-21)
(0.480242874819 -0.73232506236 1.31777313107e-19)
(0.655331670467 -0.923099650466 2.61364420964e-20)
(0.753336523528 -0.975087156397 3.22044856751e-19)
(0.811352012268 -0.959078668298 -4.01832463312e-19)
(0.850240677113 -0.916740231394 -4.06851051158e-19)
(0.879731764953 -0.866883291197 -3.43041790562e-19)
(0.903065568766 -0.818385652959 2.52464873652e-19)
(0.936868651727 -0.780067753538 2.74437814964e-19)
(-0.0325871512656 0.0307412588866 -1.28306509944e-19)
(0.276950983026 -0.389572871597 6.02503933047e-20)
(0.609751078685 -0.79046792329 2.97197639767e-19)
(0.812767029945 -0.988151553113 -1.77376824682e-19)
(0.917009590221 -1.03936977233 3.35410241713e-19)
(0.971658561304 -1.01977196329 7.91037237939e-19)
(1.00402135674 -0.97327530204 5.45547829503e-19)
(1.0263411982 -0.919515029105 -4.30272324703e-19)
(1.04300044574 -0.867461917726 -2.04940064039e-19)
(1.07115733963 -0.824033330502 2.96331928861e-19)
(-0.0286561592469 0.0189273749023 -1.78509629758e-19)
(0.356495116237 -0.421882797442 -2.85796062363e-19)
(0.750895862952 -0.83338783712 6.81473577759e-19)
(0.980989046084 -1.0322563662 7.62728982317e-19)
(1.09002093827 -1.08095330884 -7.49079091422e-19)
(1.14003658177 -1.05829635487 8.22327803338e-19)
(1.16499215617 -1.00929483196 1.38043397859e-19)
(1.1795226825 -0.953892134535 -9.92835356596e-19)
(1.18945519861 -0.899895423254 -2.45292306128e-19)
(1.20741877701 -0.851521091379 3.35685930116e-19)
(-0.019743863647 0.00422985392519 9.03076081231e-20)
(0.44505167743 -0.446927814578 -3.09719319824e-19)
(0.900493610935 -0.858372381808 -4.49131373141e-19)
(1.15523931131 -1.05264260747 7.7162814837e-19)
(1.26655192199 -1.09698888276 6.06043927099e-19)
(1.30961312751 -1.07157870814 -7.43606690978e-19)
(1.32493069412 -1.0213831168 -6.13950641021e-19)
(1.32950808077 -0.965934742546 3.66166383699e-19)
(1.33070649616 -0.910495769086 -3.84429529619e-19)
(1.32910879268 -0.859255075666 -2.28417367637e-19)
(0.620680762048 -0.174332389659 3.88233656952e-20)
(0.799644761559 -0.133093901394 -7.66736543127e-20)
(0.888010178122 -0.103973849386 5.70398587258e-21)
(0.939030500941 -0.0812734037276 1.32735830574e-20)
(0.969009232565 -0.0629609170159 -6.26967464558e-21)
(0.986732569674 -0.0479843915921 -3.14746655266e-21)
(0.997608358936 -0.035700038713 -4.82615441851e-21)
(1.00444414915 -0.0254786560481 -3.1558724382e-21)
(1.00856921115 -0.0173633637306 7.91211166023e-21)
(1.01135658316 -0.00715703122749 2.95749775557e-21)
(0.638455592557 -0.248089360504 1.05841235065e-19)
(0.811501694554 -0.172805118796 1.66698041293e-20)
(0.896481768575 -0.125537539322 4.6156454453e-21)
(0.945459615468 -0.0932425491071 -7.70914902595e-21)
(0.974075020022 -0.0699059512202 -1.72277129941e-20)
(0.99080316364 -0.0521333713954 0)
(1.00091041364 -0.0382259335316 -5.05600208262e-21)
(1.00715702751 -0.0270194207457 3.89908576802e-21)
(1.01088105006 -0.0182992946528 4.78756966059e-22)
(1.01333176676 -0.0075212496347 -3.61023760444e-21)
(0.666725425399 -0.319333656844 -6.11373204153e-20)
(0.828502866815 -0.211618613826 -4.14898771777e-20)
(0.907746331843 -0.146798989483 1.87403228873e-20)
(0.953351679445 -0.105077226212 -9.25018327871e-21)
(0.979924411689 -0.0767389081386 -3.93003257331e-21)
(0.995326095948 -0.0561775525458 6.23676368983e-21)
(1.00448845375 -0.0406559339128 0)
(1.01004544345 -0.0284783347527 0)
(1.01331253943 -0.0191696100276 -2.18457388345e-21)
(1.01538686991 -0.00785516918302 0)
(0.705578544117 -0.386670387412 -3.32688960642e-20)
(0.850416408251 -0.248952393374 7.82731749801e-20)
(0.921726501304 -0.167486503311 8.68326605173e-21)
(0.96269314608 -0.116650390414 0)
(0.986555033985 -0.0833875645568 2.32818403068e-20)
(1.00029534662 -0.0600739102698 -3.60899136929e-21)
(1.00832440156 -0.0429628075025 0)
(1.01310624196 -0.0298385941908 4.42651693304e-21)
(1.01586208729 -0.0199635999572 0)
(1.01752862687 -0.00815447443859 6.22192746481e-22)
(0.755098398388 -0.448747457082 -3.07363979145e-20)
(0.876968568819 -0.284274586724 1.04573522396e-19)
(0.938316238472 -0.187339511147 -4.70421703619e-21)
(0.973452465856 -0.127837047073 0)
(0.993954438649 -0.0897832969501 5.18734884892e-21)
(1.00569893016 -0.063780333963 7.11006055151e-21)
(1.01242325733 -0.0451203295796 5.99038886654e-21)
(1.01630274622 -0.0310830350466 1.0938734055e-21)
(1.01849093584 -0.0206703146053 -2.23888775005e-21)
(1.01973125381 -0.00841478747653 2.69908515714e-21)
(0.815111002961 -0.504192361314 -6.87589658248e-19)
(0.90782888382 -0.317106449784 -1.85882325184e-19)
(0.957358375716 -0.206148945131 1.89869166109e-21)
(0.985581327795 -0.138526677323 3.38303697469e-20)
(1.00210877004 -0.0958651070876 -8.07415639872e-21)
(1.0115188965 -0.0672577883293 5.09114557455e-21)
(1.01675620238 -0.0471029497138 5.22326874447e-21)
(1.01964726156 -0.0321945531799 -9.47226719821e-21)
(1.0212127113 -0.0212788445574 -2.10927396249e-22)
(1.02197619437 -0.00863182987247 1.33836396016e-22)
(0.884737555775 -0.55148252703 -2.02216246801e-20)
(0.942253602247 -0.346536924494 7.11590462443e-20)
(0.978528838475 -0.223678361993 3.76599237153e-21)
(0.998985855903 -0.148618125753 -9.46543054234e-22)
(1.01098057001 -0.101580424818 -2.47913536568e-20)
(1.01773043805 -0.0704732583361 5.37040629858e-21)
(1.02129772791 -0.0488870367201 -3.56511282684e-21)
(1.02311084543 -0.0331568184556 -4.29621705384e-21)
(1.02398601065 -0.02177876847 1.10876088774e-21)
(1.02427094067 -0.00880140630389 -1.87076797596e-21)
(0.962640878189 -0.589836972726 3.02684905862e-19)
(0.97859959668 -0.372057108671 8.17426370176e-20)
(1.0007607664 -0.239570360791 0)
(1.01326642313 -0.157906242526 -4.59898277902e-22)
(1.02042103956 -0.106833820169 1.97398695731e-20)
(1.02428173441 -0.0733803851364 1.14237310726e-21)
(1.02603096957 -0.0504489045873 -1.56430570647e-20)
(1.02665420083 -0.0339556963552 4.36603567751e-21)
(1.02680825459 -0.022161227881 -4.1454033601e-23)
(1.02658082142 -0.00892078452504 -3.11453714853e-22)
(1.05113379823 -0.622183626394 -4.37820724104e-19)
(1.0168133408 -0.397096418902 -2.1873824451e-19)
(1.02274126082 -0.255524071548 5.17229379038e-20)
(1.02749425587 -0.167059353498 -1.67226063089e-22)
(1.02994441394 -0.111840664882 -2.31462672024e-21)
(1.03092397151 -0.0760305428888 -1.50562852667e-20)
(1.03084180443 -0.0517898450284 3.9557716837e-21)
(1.03025538761 -0.0345819916258 5.30087026409e-22)
(1.02964289645 -0.0224180855382 -3.2248444433e-21)
(1.02890029463 -0.00898930720928 -2.78548407344e-21)
(1.15629902264 -0.645616091119 3.03446600482e-19)
(1.06736556921 -0.418211133173 -2.22237737568e-19)
(1.04851662303 -0.272146658108 -4.00005361389e-20)
(1.04268246488 -0.177259614681 -4.17798414921e-20)
(1.03968705182 -0.117446993601 -2.36575892935e-20)
(1.03762250243 -0.0788958272534 -1.15806534711e-20)
(1.03566385443 -0.0531368302458 -5.58968725734e-21)
(1.03386065672 -0.0351282828344 0)
(1.03246677087 -0.0225823402124 -3.94965737177e-22)
(1.03121404848 -0.00900086627779 2.07634691917e-21)
(1.31133052184 -0.632052298586 5.05255522444e-19)
(1.16733788651 -0.418621562841 1.66244392992e-19)
(1.10450983743 -0.273966550637 -1.12393854371e-19)
(1.07477384361 -0.178959178437 7.26061072869e-21)
(1.05857807038 -0.118394466336 9.07344856812e-21)
(1.04926732858 -0.0791770274386 -5.26499668152e-21)
(1.04324013566 -0.0530189176066 3.15105480839e-22)
(1.03903735281 -0.0348444223953 4.53926788912e-21)
(1.03627600903 -0.0222762165543 -3.16309086908e-21)
(1.0341883557 -0.00886138170436 9.04390452849e-23)
(1.36379077222 -0.518954143094 -1.29174468736e-20)
(1.20226874052 -0.357335236641 1.572269194e-19)
(1.13362539025 -0.242816853611 1.17885430841e-19)
(1.09765345262 -0.163831065995 -1.40455606385e-20)
(1.07493030278 -0.110434919555 5.50767470966e-20)
(1.06057326458 -0.0745370461045 3.5828880911e-20)
(1.05111621888 -0.0501074041558 2.45383438605e-20)
(1.04467005388 -0.0329787331131 -2.42094217041e-21)
(1.04051505273 -0.0210975619263 8.59062710151e-21)
(1.03752922641 -0.00838525059792 3.85542021198e-21)
(1.421622662 -0.445126687149 -1.41376912678e-19)
(1.25327801503 -0.318335365172 -1.08248386777e-20)
(1.16900227395 -0.220306306273 5.72986754763e-21)
(1.12168866367 -0.150610478186 4.19497017797e-37)
(1.09117735524 -0.102281711597 8.24195876528e-22)
(1.07159554987 -0.0692635074256 -9.83521691588e-35)
(1.05870543765 -0.0466018338746 -2.9377327929e-21)
(1.05005212602 -0.0306595989805 -2.13976445169e-34)
(1.04455825013 -0.0196037430326 8.55447470387e-22)
(1.04066086952 -0.00778810469678 -2.54682711638e-21)
(1.45742104827 -0.366451426518 -2.01595548861e-34)
(1.28987924072 -0.271472407323 -4.12388442056e-20)
(1.19742885974 -0.192285594642 -4.15234861644e-20)
(1.14222753182 -0.133692467193 0)
(1.10559224174 -0.0917074375687 -2.33127566532e-20)
(1.08154977494 -0.0624123350485 -1.60093937911e-20)
(1.06563721992 -0.0420755660585 -9.30289750053e-21)
(1.05497932157 -0.0276927885402 -2.63632970859e-34)
(1.04826156737 -0.0177101549016 -2.8640314479e-21)
(1.04353197757 -0.0070375400972 2.41780763788e-21)
(1.48017184162 -0.29504503999 -8.77654091092e-20)
(1.31793128049 -0.225576611265 4.55461658819e-21)
(1.2206413578 -0.162837886775 0)
(1.15955733957 -0.114747776146 0)
(1.11802741925 -0.079391425861 0)
(1.09027355492 -0.0542850998663 0)
(1.07175625189 -0.0366764602462 -5.77574843894e-22)
(1.05935770461 -0.0241570451815 -2.94768561169e-34)
(1.05153006068 -0.0154582581276 7.55212871523e-22)
(1.0460580468 -0.00614646363134 2.89286885618e-34)
(1.49415356207 -0.229277734831 -3.72421836527e-20)
(1.33877040735 -0.180037824788 0)
(1.23896576162 -0.132142362781 0)
(1.17365866757 -0.0941919658024 0)
(1.12836726743 -0.0656656737763 0)
(1.09763468709 -0.0450965929686 0)
(1.07695740996 -0.0305356881487 9.7028157411e-22)
(1.06308501442 -0.0201306200402 5.74671416236e-21)
(1.05434327151 -0.0128924974976 7.10080421815e-22)
(1.04821050468 -0.00513039553314 3.22431159588e-21)
(1.50223256242 -0.168592956593 0)
(1.35358730012 -0.135347291851 -1.30842432133e-20)
(1.25274587164 -0.100709649434 -1.68096461327e-20)
(1.18454384884 -0.0724693467056 0)
(1.13648927709 -0.0508490989301 -1.07909387379e-20)
(1.10349164814 -0.0350576046428 -7.70354120628e-21)
(1.08112317136 -0.0237882705102 -4.390576928e-21)
(1.06607429885 -0.0156977625955 -3.36817968178e-21)
(1.05659005447 -0.0100627019461 4.50679887811e-21)
(1.04991449492 -0.00400808895027 1.40636190638e-21)
(1.50549227055 -0.111831192741 9.1212671986e-21)
(1.36225862798 -0.0914689915713 7.09862462505e-21)
(1.26134688506 -0.0686890097237 -4.01950634912e-21)
(1.19148411967 -0.0497739322257 2.92531888779e-36)
(1.14167059488 -0.0350984168668 5.98094124121e-22)
(1.10712133147 -0.0242738842063 -6.14066107491e-35)
(1.08361483675 -0.0165000131276 7.38781839768e-22)
(1.0677408166 -0.0108975364823 3.16533104222e-21)
(1.0577262032 -0.00698619685833 5.86952027134e-22)
(1.05064661416 -0.00277848146384 -1.9687801871e-21)
(1.48431086234 -0.0556832858715 -4.49937751097e-20)
(1.34506821086 -0.050580495972 1.22836946479e-20)
(1.24674334341 -0.0391576755795 1.31825753716e-20)
(1.17797057229 -0.0287465621124 0)
(1.12860917414 -0.0204054151982 7.80033978562e-21)
(1.09417745649 -0.0141611448274 5.52199783168e-21)
(1.07065315641 -0.00964422600399 4.40161324186e-21)
(1.05476059467 -0.00637675504109 2.44065416071e-21)
(1.04471705309 -0.00408952340791 -2.30190605563e-21)
(1.0376344637 -0.00162308363768 2.41202319056e-21)
(1.11100807855 -0.00313896410065 0)
(1.02257046733 -0.00700739414861 0)
(0.953883627558 -0.00623876340419 0)
(0.903962406604 -0.00476079858291 0)
(0.867521606053 -0.00342457995447 0)
(0.841901158818 -0.00239887187856 0)
(0.824286739151 -0.00164444433107 5.73620796667e-22)
(0.812330496914 -0.00109690652336 -3.6029697441e-36)
(0.804735329444 -0.000690356197297 5.80496202958e-22)
(0.799381572818 -0.00026238918406 1.8060301706e-21)
(2.12730760309 -0.0260835514125 8.63754109343e-19)
(2.11773614152 -0.132550496821 5.99446116312e-20)
(2.09045674748 -0.236799420583 -1.30074946746e-19)
(2.04549258047 -0.336673567168 -3.37709288136e-19)
(1.98507658789 -0.429957584801 -1.19885413798e-19)
(1.90744260064 -0.516589869591 -1.76241714971e-19)
(1.82427922387 -0.587296140419 -4.10156160023e-19)
(1.71187029567 -0.663888552756 1.33228144896e-19)
(1.63439367357 -0.683490988933 0)
(1.46810305791 -0.772649417983 3.41044442968e-20)
(2.04094556346 -0.0190782035954 2.13464922201e-19)
(2.03316344181 -0.0987633860744 -3.34304888734e-19)
(2.01227935795 -0.177432792557 7.78773689378e-22)
(1.9768881764 -0.254290972569 -1.32780098601e-19)
(1.93255781237 -0.325854868678 1.35669370852e-20)
(1.86958862091 -0.398130315647 1.14979772583e-19)
(1.81270806155 -0.448685764141 3.44337874978e-20)
(1.71845238452 -0.528563340281 9.84373230314e-20)
(1.66690796115 -0.528878103187 -1.20069882441e-19)
(1.54959923659 -0.624571651554 2.19672108804e-20)
(1.96711077299 -0.0141832206927 -1.14175321857e-19)
(1.96124387766 -0.0774809682773 2.04067574204e-19)
(1.9452312247 -0.139563989129 1.89586569888e-19)
(1.91687813318 -0.200608272281 -2.1972915934e-19)
(1.88257150897 -0.256423195071 1.08372023419e-19)
(1.83167428713 -0.315974399444 1.03333704175e-19)
(1.7876428205 -0.353454810973 -7.04300500653e-20)
(1.71409830371 -0.42438808247 8.33318086808e-20)
(1.6679141699 -0.422129118178 8.39704813576e-20)
(1.58235774587 -0.506776292164 1.07790066916e-19)
(1.91035420036 -0.0131129871595 -1.85176766864e-19)
(1.90567108906 -0.0616363717795 5.41067281834e-20)
(1.89236916355 -0.109361618718 -1.15327042701e-19)
(1.86882890665 -0.156962074276 -6.79983077388e-20)
(1.84012234423 -0.200374658813 4.12587371612e-20)
(1.79860811517 -0.248270030148 -1.03954019106e-19)
(1.76049743465 -0.277798491466 7.37656579912e-20)
(1.70323178022 -0.336020671866 3.05270926476e-20)
(1.66023061991 -0.335808226301 -1.76471042906e-20)
(1.59605563581 -0.404664087414 8.28494178102e-21)
(1.86606290329 -0.0112072025932 5.58804169706e-20)
(1.86221612221 -0.0481905665114 4.23824661327e-20)
(1.85076278693 -0.0845348763463 -6.52543601282e-20)
(1.83081914031 -0.12095936415 2.29794802864e-19)
(1.80567449183 -0.154239291779 1.78434267305e-20)
(1.77116097149 -0.191294007871 -1.3051128719e-19)
(1.73680535268 -0.214671670693 1.96325170951e-20)
(1.69099578959 -0.259611976479 -8.54843838606e-20)
(1.65136576017 -0.261620260452 1.17387135351e-19)
(1.60051988998 -0.314621690615 8.53069091034e-20)
(1.83252473363 -0.0105581608816 -1.00022266637e-19)
(1.82933641607 -0.0376505510777 -5.76031194622e-20)
(1.81916868022 -0.0642812710633 3.82528888149e-20)
(1.80173956537 -0.0910779014567 7.87009306375e-20)
(1.77895159582 -0.115775616204 3.03614115705e-20)
(1.74924407931 -0.143288945425 -3.91472710948e-20)
(1.71745334262 -0.161436300695 3.03142626576e-21)
(1.67904374145 -0.194718905077 5.80755336804e-20)
(1.6422115837 -0.198171923324 1.09146478672e-19)
(1.59932383718 -0.237537041325 -5.29709962351e-20)
(1.80801997246 -0.0103347118934 -4.27964407754e-20)
(1.80544416775 -0.0288715923205 -7.74973931666e-20)
(1.79624578882 -0.0470641745248 -4.56661803996e-20)
(1.78057491769 -0.0654464939533 -9.48831606741e-20)
(1.75943982245 -0.0826004820524 -2.50317171455e-20)
(1.73283084545 -0.101803363613 -7.47201554841e-21)
(1.70281043809 -0.115069415423 4.82295961925e-20)
(1.66885001483 -0.138593772485 -1.90605719083e-20)
(1.63418524104 -0.142399839866 -3.06513594685e-20)
(1.59583284229 -0.170606148462 1.18669261775e-20)
(1.78730334874 -0.0101004842829 3.33920471417e-20)
(1.78579385982 -0.0209212927437 3.59272346213e-20)
(1.77796579435 -0.0314478604917 1.25606892065e-20)
(1.76419253755 -0.0420947286878 -2.17675395583e-20)
(1.74482776066 -0.0521532484343 -1.74388978408e-20)
(1.72076182027 -0.063796577389 3.85085881356e-20)
(1.69234147215 -0.0720915314926 -5.71069009297e-22)
(1.66116626053 -0.0874349840617 -5.07539600822e-20)
(1.62802746781 -0.0903622927031 1.21440559726e-20)
(1.59207255996 -0.110330558558 4.97645094545e-20)
(1.71463283678 -0.01419684138 -2.05576374321e-20)
(1.71468487444 -0.0167027518883 6.88136676041e-21)
(1.71092431521 -0.0188829524014 3.58057275429e-20)
(1.70303950272 -0.0211257541507 3.94106783735e-21)
(1.69058038834 -0.0231112021756 -8.20520791095e-22)
(1.6744804893 -0.026510529067 -1.08881023513e-20)
(1.65337437492 -0.0281300033877 2.24341159814e-20)
(1.63068898865 -0.0353527081202 -3.12958635244e-20)
(1.60200114075 -0.0351484091126 3.54438924111e-20)
(1.57547716775 -0.0472320243109 1.1867630555e-19)
(1.12437792417 -0.00833099378255 2.96146548818e-20)
(1.11645161279 -0.00549986621492 1.8228710658e-20)
(1.11159775853 -0.00269292301433 1.43972042867e-20)
(1.11014536192 -1.27702872805e-05 1.49072027903e-20)
(1.11120289165 0.00248339813875 -7.89833427942e-22)
(1.11545573879 0.00450810721448 6.34287980752e-21)
(1.11877015694 0.00658105729647 -9.80805802503e-21)
(1.12797776726 0.00639532824365 3.217983236e-21)
(1.12575260411 0.0094166408707 -5.07756105177e-21)
(1.14272687464 0.00468042871253 5.63470266385e-21)
(1.38347297094 0.750845882712 -5.55793438908e-20)
(1.36743275448 0.802666158392 2.3494395801e-20)
(1.37219514496 0.858814696849 -4.84632844632e-19)
(1.3826345829 0.921267758385 2.07731766644e-19)
(1.39283262856 0.988258520728 9.10785998716e-19)
(1.39901656093 1.05676693131 -1.32277786316e-19)
(1.38406322671 1.11383686874 -8.81113036929e-19)
(1.28729288477 1.10262392793 -1.84970642952e-20)
(0.983045101049 0.885890099359 -4.20786438917e-19)
(0.399372882206 0.359310905229 1.71135146032e-19)
(1.54865222362 0.725594242021 0)
(1.54066598405 0.774954633834 5.59240916321e-19)
(1.54117342313 0.827055184268 1.26649714487e-18)
(1.54867513686 0.887430696005 -7.69885684253e-19)
(1.56052633628 0.953970525661 -1.84260896411e-18)
(1.57107550528 1.02284674096 -1.38572839947e-19)
(1.55904894356 1.08037322116 -1.78893835603e-19)
(1.45339973779 1.06953721368 6.63203788299e-19)
(1.1082752618 0.85598563724 8.60638692804e-19)
(0.444860938417 0.340396009511 3.53145570057e-19)
(1.68747886684 0.703822287267 6.29746894232e-20)
(1.69213973342 0.749403912564 0)
(1.69798959679 0.797388907491 -6.48301524879e-20)
(1.70928442222 0.852605074527 7.78709778922e-19)
(1.72551303993 0.914000687306 5.20481692483e-20)
(1.74079268407 0.978430565714 -1.91801222923e-18)
(1.73102254119 1.03213116176 1.25238346695e-18)
(1.61519826993 1.01916734805 8.01973589371e-19)
(1.22782725543 0.811156166914 -7.73758451848e-19)
(0.485766214526 0.314714647524 -2.76887159329e-19)
(1.80012780433 0.667632162203 -1.2791707516e-19)
(1.81626839362 0.709014004318 -1.00405850554e-19)
(1.83248229275 0.752868273563 2.27504621089e-19)
(1.85272939338 0.802730292512 -2.86410243268e-19)
(1.87684770201 0.858270016155 -1.37512875385e-18)
(1.89894023792 0.916894611784 -1.08075593378e-18)
(1.89214708889 0.964960497627 1.20760408755e-18)
(1.76546938154 0.948681215047 8.32402577324e-19)
(1.33501000575 0.749103861214 0)
(0.517547439654 0.280727960131 0)
(1.89649561503 0.609374707584 -7.82178017324e-19)
(1.92214969608 0.646791925352 -1.39589911991e-18)
(1.94877395084 0.686613724666 -5.52883384559e-19)
(1.97888560404 0.731339929693 -3.29063097231e-20)
(2.01200924946 0.780970926147 0)
(2.04170536183 0.833226634918 1.38560731236e-19)
(2.03772830225 0.874769220527 1.64977914862e-19)
(1.89893875874 0.855057657425 2.13682443058e-19)
(1.4246376822 0.668470333246 -3.24127617696e-19)
(0.536832832607 0.238882057486 -8.02671042755e-20)
(1.98329982968 0.530801468231 9.52960871578e-19)
(2.01610305065 0.56412024054 -4.06033706328e-20)
(2.05111155437 0.59958304093 -1.14193143226e-18)
(2.08974531053 0.638906884303 0)
(2.13102563718 0.682196992629 0)
(2.16743509958 0.727401503802 0)
(2.16479249506 0.761686293446 1.53625539205e-18)
(2.01190333144 0.739027799655 -1.90177768197e-18)
(1.49323398705 0.571562099655 -1.07529301733e-18)
(0.54239790326 0.192005781093 -9.94566556376e-20)
(2.06040039388 0.436711365135 -1.28171726587e-18)
(2.09836851434 0.465204940052 -2.71019232907e-18)
(2.13969568838 0.495381334098 -4.7867735955e-21)
(2.18503742829 0.52849011323 5.67533209759e-19)
(2.23287014299 0.564672947519 -3.98353479538e-20)
(2.27423458911 0.601957873748 1.30625603151e-18)
(2.27070063256 0.628337773063 -7.76338225516e-19)
(2.10063639805 0.603983358572 -2.432269239e-18)
(1.53925154187 0.462413905633 1.83766692032e-19)
(0.533512877931 0.143008724967 1.22388154912e-19)
(2.12449804174 0.331192778239 -1.03570983099e-18)
(2.16634002673 0.353781944043 1.51796641767e-20)
(2.21237432412 0.377506904651 4.10275465472e-19)
(2.26272516205 0.403408442989 -4.06522592903e-19)
(2.31539490371 0.431687909352 6.48457805361e-19)
(2.35988913137 0.460481597922 1.8547770331e-18)
(2.35258291937 0.479759760972 -2.1514453733e-19)
(2.16467398084 0.452860732502 -1.44791867508e-18)
(1.559125034 0.346144435911 2.80511350874e-19)
(0.512649636332 0.0983011334243 -2.41245544223e-22)
(2.17224236616 0.217187963162 4.01392331047e-19)
(2.21706197213 0.233033212374 7.65994734953e-20)
(2.2665146857 0.249347221341 -4.34628732561e-19)
(2.32037251991 0.267079413315 -1.05260859359e-18)
(2.37613248413 0.286333454199 8.71248810798e-20)
(2.42169727452 0.306480031883 8.73548474867e-20)
(2.40932960757 0.31751224068 -1.73435015937e-18)
(2.1980359485 0.29718655131 7.86139891848e-19)
(1.55365449963 0.228625754364 1.87868997944e-19)
(0.482974866141 0.053172258446 -1.28286112147e-19)
(2.20181319384 0.096880610738 7.90134203196e-19)