/*--------------------------------*- C++ -*----------------------------------*\
  =========                 |
  \\      /  F ield         | OpenFOAM: The Open Source CFD Toolbox
   \\    /   O peration     | Website:  https://openfoam.org
    \\  /    A nd           | Version:  13
     \\/     M anipulation  |
\*---------------------------------------------------------------------------*/
FoamFile
{
    format      ascii;
    class       surfaceScalarField;
    location    "62";
    object      phi;
}
// * * * * * * * * * * * * * * * * * * * * * * * * * * * * * * * * * * * * * //

dimensions      [0 3 -1 0 0 0 0];

internalField   nonuniform List<scalar> 
823
(
-0.000228422
0.0155434
-0.0153149
0.0263183
0.000503624
-0.0270504
0.10072
-0.056861
-0.0175404
0.211996
-0.128409
0.017133
-0.184846
0.0314392
0.365403
0.00846323
0.00708012
0.0697687
-0.0608019
0.179357
-0.166449
0.305287
-0.254339
-0.32858
0.449021
0.029127
-0.0220469
0.128485
-0.160159
0.245428
-0.283393
0.348591
-0.357502
-0.394355
0.414366
0.0528236
-0.0748705
0.152738
-0.260074
0.229226
-0.359881
0.268889
-0.397165
-0.406563
0.281097
0.0626471
-0.137518
0.128577
-0.326004
0.16134
-0.392644
0.172932
-0.408757
0.180749
-0.414381
0.0108935
0.101316
-0.112209
0.00587797
0.164469
-0.159454
0.00254834
0.17124
-0.167911
0.00615728
0.153752
-0.157361
0.126201
0.0193001
-0.139344
0.0440257
0.0572902
0.0894586
0.119036
0.124295
0.136404
0.152625
0.125422
0.10479
0.174036
0.0302903
0.0269999
0.0772278
0.0720988
0.121304
0.0923277
0.157308
0.0894175
0.0815201
0.180578
0.013532
0.0134679
0.0461345
0.0394962
0.0875245
0.0509378
0.133015
0.0439265
0.0383948
0.176141
-0.00184701
0.0105988
0.0439962
0.105056
0.17489
0.0676531
-0.356614
0.308261
0.25845
-1.83329
1.6425
0.497965
0.449783
-0.689298
0.40496
0.926893
-0.833888
-0.137679
0.146395
0.194502
-0.377079
0.242509
-1.8813
0.513554
0.178737
0.427528
1.01292
-0.152795
0.258864
-0.455365
0.288621
-1.91106
0.404157
0.0632012
0.412565
1.00451
-0.237991
0.523904
-0.803129
0.474472
-1.86162
0.335163
0.20251
0.456182
0.883493
-0.37188
0.503839
-1.13208
0.513952
-1.87174
0.4048
0.311662
0.55659
0.731703
-0.50008
1.29831
-1.11119
-1.31919
0.908785
-1.48221
0.746134
0.474312
1.07704
0.400802
-0.574498
1.22535
-0.868937
-1.46761
0.54054
-0.797404
0.606622
0.408231
1.11862
-0.111195
-0.570594
1.16373
-0.658284
-1.37439
0.666199
-0.29987
0.837311
0.237119
1.13717
-0.411058
-0.443292
0.949999
-0.336186
-1.2721
0.722279
-0.0721492
0.950419
0.00897929
0.843381
-0.304021
-0.177468
0.473648
-0.809835
0.401499
0.410479
0.106458
1.14154
0.146191
-1.10698
1.23471
0.187925
1.33579
0.313281
1.40807
0.376747
0.454279
1.02506
0.0841408
-0.963005
1.10376
0.109216
1.21122
0.205824
1.33308
0.254893
0.319749
0.980965
0.0347223
-0.931546
1.02942
0.0607608
1.12152
0.113725
1.23557
0.140841
0.180933
0.930022
0.00391652
-0.899216
0.974013
0.0167698
1.05202
0.0357222
1.14907
0.0437899
0.0579026
0.65565
-0.651734
0.67242
0.708142
0.751932
0.145777
0.308634
-0.251525
-0.202886
0.0978218
0.313557
-0.265601
0.0557607
0.324329
-0.282268
0.0198896
0.316501
-0.28063
0.20533
-0.18544
0.106088
0.345058
-0.142512
0.069126
0.350518
0.0359155
0.357539
0.00945296
0.342963
0.214783
0.0779733
0.383688
-0.116603
0.043862
0.38463
0.0142377
0.387163
-0.00379831
0.360999
0.210985
-0.00098781
0.399563
-0.0148872
-0.0198934
0.403535
-0.0303701
0.39764
-0.0251736
0.355803
0.185811
-0.0778671
0.0630494
-0.0830889
-0.0780926
-0.0482934
0.19721
0.112386
-0.250548
-0.0590482
0.143265
0.116899
-0.0629537
0.0885396
0.121688
-0.0669618
0.0358589
0.121278
-0.0685977
0.0858409
-0.049982
0.194311
0.154627
-0.236552
0.148594
0.162616
0.0967338
0.173548
0.0411284
0.176884
0.126969
0.135726
0.200249
-0.181349
0.0946565
0.203686
0.0561348
0.21207
0.0201972
0.212821
0.147167
0.15587
0.231833
-0.187453
0.116601
0.242954
0.0719279
0.256743
0.0282431
0.256506
0.17541
0.082326
-0.102018
0.059679
0.0341543
0.0100308
0.408963
0.051009
-0.0639921
0.421801
0.0680692
-0.0809079
0.408223
0.197503
-0.183925
0.395503
0.2347
-0.221981
0.51839
-0.373434
0.406617
0.0403717
0.414608
0.060078
0.398714
0.213397
0.381902
0.251513
0.663739
0.39939
0.0369612
0.407846
0.0516221
0.376468
0.244775
0.373847
0.254134
0.856237
0.394339
0.0386016
0.391249
0.0547118
0.370047
0.265977
0.349356
0.274825
1.01814
0.383894
0.0506875
0.380609
0.0579962
0.340206
0.306381
0.324084
0.290947
1.24021
0.613383
0.0413246
0.63896
0.0324195
0.70213
0.243211
0.78978
0.203297
1.01117
1.01882
0.619109
0.0262363
0.642312
0.00921619
0.761206
0.124317
0.78532
0.179183
0.794317
1.00217
0.62831
0.00194616
0.675672
-0.038145
0.765424
0.0345645
0.779665
0.164942
0.545243
1.02874
0.645826
-0.0398597
0.669285
-0.0616035
0.697657
0.00619284
0.776752
0.0858465
0.253238
1.06876
0.564161
0.502557
0.50875
0.594597
0.847835
1.0531
-0.237169
1.04067
-0.130084
1.0524
-0.128337
1.04812
-0.010607
0.00419506
0.950742
-0.185738
0.939891
-0.119233
0.924289
-0.112736
0.941423
-0.0277404
-0.0173876
0.967572
-0.124571
0.949057
-0.100718
0.918859
-0.0825376
0.930499
-0.0393804
-0.0184349
1.00132
-0.0571312
0.952693
-0.0520941
0.913018
-0.0428629
0.90203
-0.0283922
-0.0156209
0.790704
0.738609
0.695747
0.667354
0.0465056
0.136832
-0.183337
0.0711655
0.305564
-0.330224
0.0722168
0.360456
-0.361507
0.0624342
0.364451
-0.354669
0.333651
0.0499507
-0.321167
0.0667146
0.0701171
0.137455
0.234824
0.172147
0.325764
0.176724
0.359874
0.353556
0.156819
0.0552842
0.0148329
0.16473
0.125378
0.257738
0.232757
0.322779
0.294833
0.346888
0.329447
0.0259838
-0.0111509
0.119244
0.032117
0.237685
0.114316
0.355053
0.177465
0.247518
0.454424
0.00527042
-0.0164213
0.0509297
-0.0135423
0.145912
0.0193332
0.264272
0.0591047
0.10547
0.40632
-0.00317607
-0.0132453
0.00762873
-0.0243471
0.0490511
-0.0220892
0.117746
-0.00959064
0.0212465
0.20197
-0.000334997
-0.0129103
0.00250783
-0.0271899
0.0139195
-0.0335008
0.037009
-0.0326802
-0.0213257
0.0795812
0.00112377
-0.0140341
0.00058191
-0.026648
-0.00509134
-0.0278276
-0.0138652
-0.0239063
-0.0218374
-0.0133535
-0.0401998
0.0261657
-0.105263
0.0384156
-0.184969
0.0518785
-0.270825
0.0619495
0.0565931
-0.349256
-0.0860437
-0.207082
-0.323114
-0.418526
-0.501276
0.325389
0.851604
-0.975023
0.44914
0.0068629
-0.130614
0.254404
0.548455
-0.353718
0.114903
0.207526
-0.068025
-0.29751
0.273435
0.333454
0.597731
0.505096
-0.164779
0.370522
0.683029
0.214687
0.36336
-0.274443
0.193794
0.390583
0.519587
-0.490572
0.458993
0.743623
0.293223
0.52913
-0.23139
-0.0419886
0.0833163
0.552185
-1.08475
0.516616
0.779192
0.353999
0.691747
-0.185346
-0.109699
0.44805
0.537944
0.395803
-0.0283835
0.614204
-0.58582
-0.0517874
0.0234039
-0.0592661
0.00747875
0.0126689
-0.071935
-0.13793
0.667634
-1.02845
0.560423
0.214184
0.0742237
0.0812748
-0.0135324
-0.0677424
0.132296
-0.0510212
0.23832
-0.106024
0.388613
-0.150293
-0.197207
0.185989
-0.149571
0.291786
0.515209
0.81934
0.136183
-0.129384
0.159137
-0.165936
0.103378
-0.134236
0.167041
0.0662189
-0.140647
0.177806
0.0266875
-0.139662
0.179194
-0.0967655
0.123453
0.174944
-0.0909689
-0.213359
0.132145
-0.0914361
0.0839763
-0.0924789
0.0345329
-0.0902187
-0.0622326
0.184899
-0.0424647
-0.233403
0.134883
-0.0414201
0.0835819
-0.0411776
0.033828
-0.0404648
-0.0284046
0.198949
0.00853723
-0.249951
0.147208
0.0103212
0.0937851
0.0122455
0.0393773
0.013943
0.0109727
0.201013
-0.251524
0.14838
0.0936641
0.0390093
0.0363053
-0.301898
-0.0555744
0.0131037
-0.331467
-0.00774283
-0.34066
-0.0155409
-0.322426
-0.198878
0.114937
-0.272921
-0.143914
0.0744264
-0.290956
0.0354144
-0.301648
0.00654653
-0.293558
-0.192332
0.132494
-0.235487
-0.169929
0.0930371
-0.251499
0.0539914
-0.262603
0.0188061
-0.258373
-0.173526
0.150544
-0.202458
-0.183574
0.109967
-0.210922
0.0665667
-0.219203
0.0258256
-0.217632
-0.1477
0.147962
-0.191283
0.104082
0.0626852
0.0242471
0.390438
0.103005
-0.0974638
0.38632
0.112282
-0.108164
0.352897
0.16282
-0.129397
0.29303
0.0838507
-0.0239837
-0.173398
0.300493
0.39883
0.100155
0.401713
0.109399
0.392365
0.172168
0.342292
0.133924
-0.0444662
0.40427
0.0918644
0.412255
0.101414
0.408055
0.176368
0.368961
0.173018
0.0910917
0.408926
0.0789181
0.41864
0.0916995
0.416404
0.178604
0.388605
0.200817
0.229745
0.410906
0.421697
0.416377
0.395213
0.413844
0.0962069
0.324536
0.0893083
0.233837
0.0906984
0.228187
0.00565045
-0.165452
0.393639
0.508794
0.489938
0.45124
0.432907
0.567948
0.315935
0.077704
0.245926
0.0700089
0.163418
0.082508
0.0947018
0.0687163
0.0269594
0.454368
0.340804
0.253383
0.178186
)
;

boundaryField
{
    left
    {
        type            calculated;
        value           nonuniform List<scalar> 
17
(
-0.60402
-0.60402
-0.60402
-0.60402
-0.60402
-0.39598
-0.39598
-0.39598
-0.39598
-0.39598
-0.39598
-0.39598
-0.39598
-0.39598
-0.39598
-0.510051
-0.510051
)
;
    }
    right
    {
        type            calculated;
        value           nonuniform List<scalar> 
17
(
0.150599
0.209729
0.138978
0.19162
0.250171
0.307955
0.356852
0.396244
0.442643
0.497762
0.590071
0.684789
1.15145
1.11471
1.00987
0.577558
-0.0710106
)
;
    }
    down
    {
        type            calculated;
        value           uniform 0;
    }
    up
    {
        type            calculated;
        value           uniform 0;
    }
    cylinder
    {
        type            calculated;
        value           uniform 0;
    }
    defaultFaces
    {
        type            empty;
    }
}


// ************************************************************************* //
