/*--------------------------------*- C++ -*----------------------------------*\
  =========                 |
  \\      /  F ield         | OpenFOAM: The Open Source CFD Toolbox
   \\    /   O peration     | Website:  https://openfoam.org
    \\  /    A nd           | Version:  13
     \\/     M anipulation  |
\*---------------------------------------------------------------------------*/
FoamFile
{
    format      ascii;
    class       volVectorField;
    location    "62";
    object      U;
}
// * * * * * * * * * * * * * * * * * * * * * * * * * * * * * * * * * * * * * //

dimensions      [0 1 -1 0 0 0 0];

internalField   nonuniform List<vector> 
440
(
(-0.0857676 0.0615949 -8.00173e-20)
(-0.0902203 0.088865 5.62165e-20)
(0.12047 0.0667717 6.77012e-20)
(0.591404 0.0525793 1.99753e-19)
(0.78976 0.0663107 1.73404e-20)
(-0.0827783 0.0451232 4.23223e-20)
(0.138133 -0.0120979 -1.53869e-19)
(0.743024 -0.0751608 -1.25028e-19)
(1.34918 -0.121129 5.27278e-20)
(1.94591 -0.152669 -4.1809e-21)
(0.0104801 -0.00971008 5.23339e-20)
(0.689242 -0.0767214 9.41698e-19)
(1.54609 -0.0850377 -6.20876e-19)
(2.16043 -0.0669073 -1.86144e-18)
(2.58802 -0.0727588 8.0786e-19)
(0.270607 -0.0599632 -1.86105e-19)
(1.42375 -0.0126593 -6.9925e-19)
(2.19665 0.037384 2.23547e-18)
(2.55185 0.0542696 2.4739e-18)
(2.58334 0.0574726 -6.72903e-19)
(0.684195 -0.000352344 -3.43331e-19)
(1.93287 0.176563 -7.53584e-19)
(2.43578 0.230357 2.31691e-18)
(2.55184 0.229377 2.4005e-18)
(2.6361 0.198888 7.99466e-19)
(-0.0192933 0.801944 5.54711e-19)
(-0.0623766 1.15297 9.18216e-19)
(-0.0917826 1.1661 -2.40067e-18)
(-0.0720571 1.07067 4.71197e-19)
(-0.0668511 0.933208 3.10646e-18)
(-0.0639196 0.528865 -4.38329e-20)
(-0.0223608 0.991947 -2.60716e-19)
(0.0310661 1.08846 -4.23888e-20)
(0.132967 1.00149 -5.84119e-20)
(0.150685 0.819393 1.21447e-19)
(-0.0660625 0.22426 1.0553e-19)
(-0.0689134 0.600349 -2.30457e-19)
(-0.0244562 0.75924 9.45227e-20)
(0.0835945 0.754994 -2.94283e-19)
(0.12027 0.670687 9.9486e-21)
(-0.0475488 0.0898369 -4.57106e-20)
(-0.0932936 0.309859 8.51216e-20)
(-0.068477 0.455244 2.55412e-20)
(0.0219206 0.510385 1.09811e-19)
(0.0717196 0.526235 -5.64246e-20)
(-0.0601123 0.0570611 -5.97385e-20)
(-0.135542 0.158904 -8.41381e-20)
(-0.116408 0.228325 -1.72997e-19)
(0.0304957 0.241705 9.42434e-20)
(0.169095 0.282523 -6.30092e-20)
(0.699861 -0.277717 -1.88764e-18)
(-0.305225 -1.23752 1.33447e-18)
(1.52125 0.445473 -6.33362e-19)
(0.924819 0.618189 -2.96524e-20)
(1.00125 -0.0985322 2.2825e-20)
(1.47305 -0.213195 1.38491e-18)
(-0.206207 -1.24393 -1.13923e-19)
(1.51982 0.181816 -3.46372e-20)
(0.922442 0.66173 6.42771e-20)
(1.11832 -0.0953846 4.77524e-20)
(1.17351 -0.307392 2.13512e-19)
(0.716961 -1.27182 4.73041e-19)
(1.07689 0.0686807 -1.46176e-20)
(0.724974 0.688104 -5.56684e-20)
(1.25765 -0.144481 -2.8056e-21)
(1.39437 -0.352358 1.34523e-19)
(2.2961 -1.27344 -4.12681e-19)
(0.726334 0.014142 -2.18049e-19)
(0.740181 0.61584 3.04777e-19)
(1.49114 -0.218507 1.81544e-19)
(1.66842 -0.692423 -2.28287e-19)
(2.64692 -1.22772 -4.61883e-19)
(0.811793 0.19342 0)
(1.05469 0.536431 -2.97077e-19)
(1.73049 -0.278954 -2.1902e-20)
(2.19316 -0.653591 -6.06351e-19)
(2.16136 -1.06551 1.29657e-19)
(0.867283 0.163614 -1.67161e-20)
(1.55886 0.347047 -1.31148e-19)
(1.90736 -0.344769 2.82576e-19)
(2.66268 -0.680054 5.47576e-20)
(1.4843 -0.710363 8.77139e-19)
(0.253571 0.406945 -5.44205e-21)
(1.7878 0.136158 2.28036e-22)
(1.84597 -0.348683 0)
(2.32009 -0.446699 -5.68011e-19)
(1.62033 -0.278688 1.65553e-20)
(0.616641 0.151405 3.04711e-19)
(2.09468 -0.275499 9.41422e-21)
(1.67219 -0.373147 1.93461e-20)
(2.03618 -0.359675 4.50192e-20)
(1.15589 -0.117535 3.05038e-20)
(1.29029 0.117235 -7.18552e-21)
(1.79211 -0.252452 5.32546e-34)
(0.95656 -0.197898 -3.10178e-20)
(1.05187 -0.0493265 1.28824e-19)
(0.50835 0.0205202 -2.80902e-20)
(0.873336 -0.102655 -6.79771e-20)
(0.448162 -0.101019 5.10932e-20)
(-0.117172 -0.0117718 -2.30075e-20)
(2.47319 0.2143 -9.69955e-19)
(2.70152 -0.0350537 -1.28439e-18)
(2.54727 0.0238708 1.00958e-18)
(2.84204 -0.241904 5.51363e-20)
(2.27893 -0.0274056 -2.50954e-20)
(2.1405 0.147417 5.37184e-20)
(2.43513 -0.0955782 -4.24346e-20)
(2.27823 -0.0171974 -1.4828e-19)
(2.54834 -0.255992 -2.3575e-19)
(2.37395 -0.244183 -8.22475e-21)
(2.11843 0.0375267 7.05388e-20)
(2.23943 -0.066352 1.11791e-19)
(2.19872 -0.0902112 -1.65021e-19)
(2.27557 -0.179947 5.39972e-20)
(2.26862 -0.236153 4.15355e-20)
(2.08018 -0.0139276 1.13034e-19)
(2.06528 -0.069884 1.11461e-19)
(2.12094 -0.0795047 -1.73326e-20)
(2.08534 -0.140933 1.34983e-20)
(2.13487 -0.154863 2.21333e-20)
(1.507 -0.0262026 1.60231e-19)
(1.41353 -0.0230537 -1.25953e-20)
(1.47665 -0.0423273 2.59145e-20)
(1.34788 -0.0330691 -7.2217e-21)
(1.42284 -0.0655489 4.06259e-20)
(1.60314 0.835914 1.1861e-18)
(1.55651 0.939985 -3.90213e-19)
(1.56232 1.07943 -1.43751e-18)
(1.49493 1.13194 7.7572e-19)
(0.916919 0.817049 -1.78396e-19)
(1.90785 0.815018 -6.10635e-19)
(1.8717 0.890643 -3.19111e-18)
(1.87406 0.995943 -1.22796e-18)
(1.78957 1.013 -4.33508e-19)
(1.09896 0.720406 -7.12278e-19)
(2.20897 0.66234 8.14183e-19)
(2.195 0.740105 2.10744e-19)
(2.1761 0.838218 -2.41372e-18)
(2.04645 0.830016 -6.97097e-19)
(1.22449 0.56548 5.27763e-19)
(2.40774 0.551679 2.45531e-18)
(2.38556 0.601565 1.8178e-18)
(2.38123 0.658606 -2.12644e-18)
(2.18336 0.624485 -1.63743e-18)
(1.22032 0.378945 -3.12779e-19)
(2.53839 0.37271 1.26726e-18)
(2.56954 0.403281 -9.0989e-19)
(2.48799 0.437176 6.42938e-19)
(2.16519 0.392863 5.3485e-19)
(1.05552 0.175633 -4.71143e-19)
(0.572426 0.510062 -6.05628e-19)
(0.479825 0.547109 -4.41047e-19)
(0.361095 0.582634 4.34663e-20)
(0.225594 0.584172 5.83457e-21)
(0.0559812 0.418327 9.28329e-20)
(0.688073 0.671684 1.2662e-19)
(0.626623 0.731956 -2.80085e-19)
(0.539706 0.800142 1.89436e-19)
(0.413601 0.858584 -8.85383e-20)
(0.181729 0.65229 1.25086e-19)
(0.778414 0.871092 8.45328e-20)
(0.705146 0.956085 5.03307e-19)
(0.65377 1.05561 1.35148e-19)
(0.573546 1.09139 -3.288e-19)
(0.316031 0.80027 2.79356e-19)
(1.07239 0.928769 2.53334e-19)
(1.02281 1.00986 -7.79183e-19)
(0.973034 1.11072 -2.05389e-18)
(0.893602 1.18093 8.16162e-19)
(0.527255 0.875902 -1.64373e-19)
(1.13521 0.986741 -1.02251e-19)
(1.17683 1.10855 -1.80739e-19)
(1.203 1.21929 -3.97535e-19)
(1.15024 1.23589 -4.4547e-19)
(0.707101 0.881447 -7.00002e-21)
(1.02244 0.0431758 -1.02773e-19)
(0.996781 0.0533535 -3.40184e-20)
(1.0301 0.136933 -1.41219e-21)
(0.945159 0.15695 -2.73826e-19)
(0.901296 0.31843 3.1473e-19)
(1.01399 0.0386436 6.50985e-20)
(1.01017 0.0535226 1.23444e-19)
(1.01424 0.145773 1.3975e-19)
(0.990191 0.183675 3.94565e-20)
(0.935734 0.39435 -2.39813e-20)
(1.02408 0.0365729 8.8844e-20)
(0.987281 0.047624 -4.69005e-21)
(1.06234 0.166362 -6.52471e-21)
(0.936311 0.177115 1.53075e-19)
(1.17461 0.546084 -5.09684e-19)
(1.02277 0.0352648 -2.47512e-22)
(0.994699 0.0429281 -1.70619e-19)
(1.05404 0.181839 -7.05142e-20)
(1.05369 0.177053 -3.84464e-19)
(1.16243 0.595217 9.68502e-20)
(1.0239 0.0302359 -1.51088e-20)
(0.979847 0.0447295 4.6658e-20)
(1.11627 0.177247 3.28757e-20)
(1.01411 0.207154 4.75508e-19)
(1.42389 0.72794 -4.88896e-19)
(0.994656 0.0355908 -1.25189e-20)
(1.02014 0.0198885 9.65202e-20)
(1.10208 0.205668 -7.61901e-20)
(1.27597 0.115329 9.81438e-19)
(1.31056 0.780816 -3.70174e-19)
(0.942221 0.0136857 -1.23456e-21)
(1.08232 0.0184801 -8.7799e-20)
(1.07189 0.106031 5.60923e-21)
(1.44781 0.126056 -2.87055e-19)
(1.23193 0.551931 -7.10424e-20)
(0.960601 0.0218426 -1.82611e-21)
(1.08884 -0.00563611 1.52952e-35)
(1.17968 0.0441934 -4.41363e-20)
(1.32678 0.109829 8.70788e-20)
(1.34443 0.409842 1.88993e-19)
(1.03428 -0.0205551 3.69801e-21)
(1.06703 -0.0458595 -2.70627e-20)
(1.18835 0.000358592 2.01028e-20)
(1.07786 0.0880644 2.21193e-20)
(1.58749 0.266621 -2.81441e-19)
(0.966499 -0.0230116 -3.97432e-20)
(0.861147 -0.0269707 -9.72434e-22)
(0.840097 0.0067018 2.93151e-20)
(0.801226 0.0153475 -1.80418e-20)
(1.25185 0.0555245 -6.53015e-20)
(1.86054 0.597583 2.93853e-19)
(1.92946 0.64839 7.62561e-19)
(2.22022 0.479948 -1.11334e-18)
(2.26552 0.470127 2.09721e-20)
(2.5092 0.238385 5.01465e-19)
(1.72377 0.352382 9.0189e-20)
(1.74249 0.408827 1.03853e-18)
(1.99921 0.260866 1.25636e-19)
(1.96677 0.29751 -9.26333e-19)
(2.25013 0.0807888 -2.88198e-19)
(1.72785 0.283261 -2.36573e-19)
(1.81872 0.257706 -1.55099e-19)
(1.96492 0.179929 2.18222e-19)
(1.99563 0.154516 -2.93969e-19)
(2.14002 0.0519031 2.66441e-19)
(1.76153 0.149865 4.17381e-19)
(1.88298 0.119903 -2.36978e-21)
(1.91487 0.0718691 2.30659e-19)
(2.00461 0.0520316 1.89064e-19)
(2.01028 -0.00186274 -1.80565e-19)
(1.39922 0.0256628 -5.12088e-20)
(1.48106 0.0111172 2.6192e-19)
(1.46656 0.00320228 1.11677e-19)
(1.5144 -0.00870107 -2.15784e-19)
(1.45289 -0.0128284 5.32933e-22)
(1.07078 -0.0158394 5.66615e-20)
(2.05057 -0.0433791 -3.87535e-19)
(2.28486 -0.0325209 1.08822e-18)
(2.27072 0.00512914 4.86491e-19)
(2.10963 0.0316122 -3.37662e-19)
(0.671158 0.092413 1.05259e-19)
(1.83204 0.0859735 -4.03448e-19)
(2.28969 0.089096 -5.44873e-19)
(2.34514 0.097317 6.73345e-19)
(2.10264 0.0847641 -4.33074e-19)
(0.216741 0.076471 -1.74537e-20)
(1.22856 0.14521 4.28331e-19)
(1.95052 0.167147 5.93519e-20)
(2.33256 0.158673 4.21652e-19)
(2.47752 0.153959 2.00541e-19)
(-0.0241509 -0.0145431 1.74135e-19)
(0.455253 0.0820021 1.7657e-19)
(1.20628 0.152286 -3.97263e-19)
(1.68605 0.187175 2.41538e-20)
(2.25923 0.215083 7.64516e-20)
(-0.0842552 -0.0682491 1.129e-19)
(0.0131629 -0.039684 -1.32869e-19)
(0.424352 0.0342658 -3.32969e-20)
(0.87664 0.0645446 1.58692e-20)
(1.27528 0.127119 -2.85718e-20)
(-0.0666042 -0.069956 4.79173e-21)
(-0.107021 -0.105167 6.36796e-20)
(-0.00755398 -0.101528 5.78664e-20)
(0.178488 -0.067066 -1.21288e-19)
(0.529312 -0.0109482 4.06311e-22)
(-0.0414524 -0.0674701 -5.62726e-21)
(-0.0882342 -0.140716 -1.85983e-20)
(-0.0881293 -0.176801 -2.2418e-20)
(-0.0461728 -0.170557 7.4317e-20)
(0.0870646 -0.104583 5.9492e-20)
(-0.033244 -0.0872272 -1.92488e-20)
(-0.0695529 -0.179236 -6.05913e-19)
(-0.0971398 -0.230902 5.40126e-19)
(-0.131575 -0.239942 1.43439e-18)
(-0.13445 -0.215111 -2.0365e-19)
(-0.0462895 -0.0521295 4.44273e-21)
(-0.217129 -0.0423885 1.09695e-19)
(-0.38304 0.0719953 -3.24977e-19)
(-0.559345 0.208805 -3.7878e-19)
(-0.687268 0.258487 -1.03776e-19)
(-0.057382 0.453664 -7.43529e-20)
(-0.379998 0.676218 3.30452e-19)
(-0.69371 0.780946 -1.6073e-19)
(-0.928881 0.761611 2.19516e-19)
(-0.992815 0.649452 1.29832e-18)
(1.27062 0.625293 9.98357e-21)
(1.22905 0.0410527 1.06463e-18)
(1.29015 0.295206 1.60607e-19)
(0.219735 0.0932172 7.68011e-20)
(0.351357 -0.196547 -1.52158e-20)
(1.08524 0.525155 1.43462e-19)
(1.08283 -0.0206212 -5.40726e-19)
(1.54059 0.432351 6.66667e-19)
(0.579571 0.186924 4.29526e-21)
(0.484443 -0.186294 4.27915e-20)
(0.330696 0.305002 5.5651e-19)
(0.779755 -0.153643 7.5592e-19)
(1.7206 0.510179 -9.5435e-20)
(0.805336 0.314028 1.53755e-19)
(0.632391 -0.16667 -3.74035e-21)
(-0.934075 0.267684 4.37952e-19)
(0.719859 -0.494511 -6.7848e-18)
(1.79094 0.56483 -1.76865e-19)
(0.937065 0.430364 2.98343e-22)
(0.778354 -0.135458 1.82053e-20)
(-0.815227 -0.186968 4.03733e-19)
(0.250929 -1.09744 -1.14957e-18)
(1.74125 0.481631 -8.872e-20)
(0.994655 0.539752 -3.3946e-21)
(0.901795 -0.105165 4.79766e-20)
(0.156743 0.168757 -1.07522e-19)
(-0.2464 -0.138854 0)
(0.0149807 -0.0857685 3.22865e-20)
(-0.244994 -0.0481801 1.93552e-20)
(0.295376 -0.030673 -5.3963e-21)
(1.61004 0.532381 0)
(1.13379 0.164896 0)
(0.962067 0.0992489 -9.07477e-20)
(-0.119048 -0.0346499 -1.60086e-20)
(0.411447 -0.14528 6.41979e-20)
(0.672646 0.000664706 -1.1509e-19)
(0.691468 -0.00479041 1.50664e-19)
(0.929436 -0.00341991 -5.15405e-20)
(0.898502 0.00939351 2.82233e-19)
(1.32023 0.0779127 2.03902e-19)
(1.52857 0.0236989 1.08388e-19)
(1.64303 0.0646713 2.24459e-19)
(1.84272 0.0375094 -3.56076e-19)
(2.3512 0.187088 -6.36173e-21)
(2.11635 0.108313 1.58481e-19)
(0.858154 -0.440935 -3.58397e-20)
(0.841699 -0.524144 -1.37823e-19)
(0.827988 -0.614361 -8.87798e-20)
(0.755036 -0.675601 5.52195e-20)
(0.454115 -0.524011 1.14165e-19)
(0.759422 -0.342294 1.27933e-19)
(0.704534 -0.403007 2.73528e-19)
(0.632224 -0.469068 -2.40765e-20)
(0.521373 -0.523682 1.23621e-19)
(0.279782 -0.413728 5.06234e-20)
(0.623927 -0.200078 -1.6136e-19)
(0.53707 -0.235093 -4.56203e-20)
(0.435211 -0.278687 1.45145e-19)
(0.316034 -0.317808 -4.90203e-21)
(0.135041 -0.255278 -1.0391e-19)
(0.534615 0.0319407 -4.32782e-19)
(0.448182 0.0207316 -3.59302e-19)
(0.337714 0.00150562 2.80878e-19)
(0.210834 -0.0271129 1.81295e-19)
(0.0523259 -0.043753 1.35673e-20)
(0.513929 0.239143 -1.73296e-19)
(0.427451 0.245415 -1.71579e-19)
(0.311539 0.252158 -7.87369e-20)
(0.176519 0.260811 1.22469e-20)
(0.0232723 0.192381 1.05778e-20)
(1.88343 -0.0401622 7.12564e-19)
(2.13637 -0.101198 2.42655e-19)
(2.20678 -0.178614 -6.44878e-19)
(2.05429 -0.20485 -1.29669e-18)
(1.21735 -0.169482 1.08119e-19)
(1.86154 -0.116984 1.18583e-18)
(1.95137 -0.220983 1.57404e-18)
(1.96957 -0.334657 1.30923e-19)
(1.884 -0.388829 2.29358e-19)
(1.1897 -0.327548 -1.5076e-19)
(1.59679 -0.268952 -3.07566e-18)
(1.66128 -0.37949 3.48311e-19)
(1.70368 -0.4952 9.62682e-19)
(1.63644 -0.561235 -3.56587e-19)
(1.04861 -0.461568 5.59021e-19)
(1.39834 -0.383421 7.29055e-19)
(1.41687 -0.475653 -1.92788e-18)
(1.40425 -0.585017 -2.20583e-18)
(1.33299 -0.661356 6.64145e-19)
(0.850562 -0.531885 4.54903e-19)
(1.13406 -0.435919 1.45809e-19)
(1.09452 -0.523468 2.16984e-19)
(1.08335 -0.635343 -3.29538e-19)
(1.02447 -0.710716 -3.96632e-19)
(0.642534 -0.55505 -3.65641e-21)
(1.07556 0.0551459 7.85355e-21)
(0.92159 0.0641486 -5.12964e-21)
(1.10772 0.0848293 -4.2004e-21)
(0.79422 0.021471 -1.92841e-19)
(1.03921 -0.181378 -8.80392e-21)
(1.08467 0.0573877 -2.58149e-21)
(0.920483 0.0634328 4.95116e-20)
(1.10724 0.102789 -4.8079e-20)
(0.881403 0.0690602 1.12731e-19)
(0.946033 -0.0661211 -2.01152e-20)
(1.08229 0.053226 -6.33861e-20)
(0.92503 0.061582 3.6766e-22)
(1.09575 0.104971 -2.25053e-20)
(0.884147 0.0955052 2.77871e-20)
(0.926602 -0.0049612 -1.60604e-19)
(1.06202 0.0506888 7.74335e-20)
(0.954157 0.0582971 3.48095e-21)
(1.06118 0.113069 3.60655e-20)
(0.92122 0.11998 1.70931e-20)
(0.850754 0.106549 1.10791e-19)
(1.03603 0.0460505 1.96656e-20)
(0.98665 0.0580939 -2.94161e-20)
(1.02948 0.119958 4.94996e-20)
(0.951066 0.14698 7.35799e-20)
(0.834267 0.207955 -1.24303e-19)
(0.892621 0.0340852 0)
(0.702278 0.0286625 1.05528e-20)
(0.586898 0.0234085 3.57326e-21)
(0.320805 -0.00502183 3.83349e-20)
(0.610631 -0.0483405 -1.1156e-19)
(1.04192 0.0754604 -6.65841e-20)
(0.931292 0.0774968 -1.95392e-20)
(1.00665 0.0839598 -3.06793e-20)
(0.780917 0.0110069 -1.03139e-19)
(0.967151 -0.169066 -1.21025e-19)
(0.840918 -0.0615743 -2.71092e-20)
(0.921805 -0.0290407 4.40443e-19)
(1.00067 0.0348711 2.70091e-19)
(0.883502 0.0472529 2.69275e-20)
(0.687378 0.0243688 0)
(1.19844 -0.293445 2.57493e-19)
(1.30458 -0.259569 1.26689e-18)
(1.4639 -0.146203 -1.41277e-18)
(1.55005 -0.0215541 -4.35028e-19)
(1.45199 0.0221524 3.31056e-19)
)
;

boundaryField
{
    left
    {
        type            fixedValue;
        value           uniform (1 0 0);
    }
    right
    {
        type            zeroGradient;
    }
    down
    {
        type            noSlip;
    }
    up
    {
        type            noSlip;
    }
    cylinder
    {
        type            noSlip;
    }
    defaultFaces
    {
        type            empty;
    }
}


// ************************************************************************* //
