# Forces      
# CofR        : (0.000000e+00 0.000000e+00 0.000000e+00)
# Time        forces(pressure viscous)	moments(pressure viscous)
2.6           	((7.747818e+00 3.678677e+00 8.423337e-19) (1.127071e+00 3.918245e-01 1.638040e-18)) ((3.173800e-19 -7.212052e-19 3.313114e-07) (4.432341e-18 1.864232e-19 -6.493717e-02))
2.605         	((7.750711e+00 3.672789e+00 8.423505e-19) (1.127117e+00 3.918767e-01 1.634178e-18)) ((3.175543e-19 -7.211297e-19 3.296711e-07) (4.432275e-18 1.902827e-19 -6.460199e-02))
2.61          	((7.752029e+00 3.666344e+00 8.422783e-19) (1.127163e+00 3.919240e-01 1.630296e-18)) ((3.176156e-19 -7.210002e-19 3.282609e-07) (4.432176e-18 1.941187e-19 -6.426724e-02))
2.615         	((7.754174e+00 3.659637e+00 8.422292e-19) (1.127210e+00 3.919661e-01 1.626426e-18)) ((3.177099e-19 -7.208851e-19 3.267391e-07) (4.432085e-18 1.979414e-19 -6.393294e-02))
2.62          	((7.756333e+00 3.652855e+00 8.421924e-19) (1.127258e+00 3.920031e-01 1.622564e-18)) ((3.178060e-19 -7.207795e-19 3.252392e-07) (4.431993e-18 2.017479e-19 -6.359910e-02))
2.625         	((7.758498e+00 3.646032e+00 8.421626e-19) (1.127308e+00 3.920349e-01 1.618710e-18)) ((3.179016e-19 -7.206768e-19 3.237622e-07) (4.431901e-18 2.055372e-19 -6.326574e-02))
2.63          	((7.760668e+00 3.639189e+00 8.421377e-19) (1.127358e+00 3.920616e-01 1.614863e-18)) ((3.179951e-19 -7.205744e-19 3.223091e-07) (4.431808e-18 2.093092e-19 -6.293286e-02))
2.635         	((7.762849e+00 3.632337e+00 8.421176e-19) (1.127410e+00 3.920832e-01 1.611023e-18)) ((3.180849e-19 -7.204720e-19 3.208781e-07) (4.431716e-18 2.130635e-19 -6.260048e-02))
2.64          	((7.765043e+00 3.625497e+00 8.421031e-19) (1.127463e+00 3.920997e-01 1.607191e-18)) ((3.181695e-19 -7.203698e-19 3.194706e-07) (4.431624e-18 2.168001e-19 -6.226860e-02))
2.645         	((7.767265e+00 3.618684e+00 8.420969e-19) (1.127517e+00 3.921114e-01 1.603365e-18)) ((3.182461e-19 -7.202698e-19 3.180833e-07) (4.431533e-18 2.205191e-19 -6.193725e-02))
2.65          	((7.769594e+00 3.611796e+00 8.421982e-19) (1.127572e+00 3.921181e-01 1.599565e-18)) ((3.183989e-19 -7.201383e-19 3.167753e-07) (4.431462e-18 2.242277e-19 -6.160643e-02))
2.655         	((7.771637e+00 3.604431e+00 8.421333e-19) (1.127628e+00 3.921190e-01 1.595775e-18)) ((3.185135e-19 -7.200052e-19 3.154110e-07) (4.431377e-18 2.279125e-19 -6.127616e-02))
2.66          	((7.772875e+00 3.594885e+00 8.418389e-19) (1.127684e+00 3.921115e-01 1.592028e-18)) ((3.188465e-19 -7.197167e-19 3.140094e-07) (4.431251e-18 2.315653e-19 -6.094644e-02))
2.665         	((7.774737e+00 3.587165e+00 8.417147e-19) (1.127741e+00 3.920982e-01 1.588281e-18)) ((3.189974e-19 -7.195269e-19 3.126897e-07) (4.431142e-18 2.351951e-19 -6.061730e-02))
2.67          	((7.776707e+00 3.579757e+00 8.416162e-19) (1.127799e+00 3.920794e-01 1.584544e-18)) ((3.191204e-19 -7.193450e-19 3.114122e-07) (4.431032e-18 2.388026e-19 -6.028874e-02))
2.675         	((7.777569e+00 3.569182e+00 8.412068e-19) (1.127856e+00 3.920515e-01 1.580869e-18)) ((3.195639e-19 -7.189460e-19 3.100730e-07) (4.430866e-18 2.423714e-19 -5.996078e-02))
2.68          	((7.779090e+00 3.560743e+00 8.409906e-19) (1.127914e+00 3.920170e-01 1.577198e-18)) ((3.198000e-19 -7.186666e-19 3.088360e-07) (4.430714e-18 2.459114e-19 -5.963342e-02))
2.685         	((7.781172e+00 3.553652e+00 8.409091e-19) (1.127972e+00 3.919779e-01 1.573529e-18)) ((3.198900e-19 -7.184693e-19 3.076653e-07) (4.430575e-18 2.494287e-19 -5.930669e-02))
2.69          	((7.783236e+00 3.546469e+00 8.408353e-19) (1.128032e+00 3.919339e-01 1.569875e-18)) ((3.199871e-19 -7.182764e-19 3.065223e-07) (4.430434e-18 2.529225e-19 -5.898060e-02))
2.695         	((7.785279e+00 3.539135e+00 8.407665e-19) (1.128092e+00 3.918850e-01 1.566236e-18)) ((3.200932e-19 -7.180851e-19 3.054001e-07) (4.430288e-18 2.563924e-19 -5.865515e-02))
2.7           	((7.787310e+00 3.531702e+00 8.407004e-19) (1.128153e+00 3.918312e-01 1.562614e-18)) ((3.202043e-19 -7.178931e-19 3.043020e-07) (4.430138e-18 2.598378e-19 -5.833035e-02))
