/*--------------------------------*- C++ -*----------------------------------*\
  =========                 |
  \\      /  F ield         | OpenFOAM: The Open Source CFD Toolbox
   \\    /   O peration     | Website:  https://openfoam.org
    \\  /    A nd           | Version:  13
     \\/     M anipulation  |
\*---------------------------------------------------------------------------*/
FoamFile
{
    format      ascii;
    class       volScalarField;
    location    "0.72";
    object      p;
}
// * * * * * * * * * * * * * * * * * * * * * * * * * * * * * * * * * * * * * //

dimensions      [0 2 -2 0 0 0 0];

internalField   nonuniform List<scalar> 
440
(
7.8268
10.5832
12.9457
13.1276
10.1518
20.7175
24.1008
27.0962
27.7968
25.9088
41.2543
44.2856
46.9886
47.7813
46.6203
67.3872
69.485
71.3984
72.055
71.3675
96.6635
97.4805
98.2774
98.6775
98.644
-0.450672
-0.550279
-0.0783834
0.482706
0.825436
-1.6805
-2.34621
-2.08577
-1.38988
-0.75211
-2.02571
-2.90771
-2.83039
-2.07627
-0.959065
-0.68261
-0.815401
-0.410944
0.552184
2.41644
3.08272
4.39409
5.82313
7.2542
9.50352
2.08644
2.2677
1.3385
0.680737
0.235334
1.05877
2.0801
1.21888
0.622078
0.226438
-0.0936114
1.66959
1.08744
0.576649
0.218775
-0.403806
1.06572
0.878313
0.540561
0.209923
1.5034
0.476475
0.59409
0.487679
0.194464
4.3741
0.247948
0.336597
0.42128
0.158086
6.71886
0.710243
0.437822
0.415472
0.0943419
9.98299
2.44862
1.08477
0.545279
0.060498
13.872
4.74916
2.13242
0.822416
0.0673544
16.608
7.11096
3.45348
1.30639
0.167589
100.688
75.8394
53.3238
33.1489
12.3459
102.383
78.9419
57.5369
39.0569
23.483
104.284
82.7016
62.4746
45.2344
32.8876
105.167
85.0206
66.5025
51.1833
40.6568
105.086
84.7432
66.3283
51.2508
40.8963
219.868
216.387
216.092
218.208
220.94
202.688
200.221
200.48
203.221
206.512
180.54
178.767
179.13
181.553
184.431
154.741
153.398
153.603
155.197
157.093
126.86
126.147
126.086
126.546
127.139
235.589
236.02
236.662
237.09
236.837
236.155
236.793
237.352
237.332
236.38
234.939
235.915
236.331
236.058
235.071
230.051
231.65
232.212
232.347
232.256
221.568
223.43
224.44
225.648
227.003
235.719
234.726
234.896
234.134
234.274
235.685
234.71
234.842
234.088
234.797
235.674
234.669
234.778
234.199
235.31
235.675
234.604
234.77
234.451
234.897
235.68
234.518
234.839
234.65
232.21
235.694
234.373
234.888
234.425
228.724
235.888
234.233
234.776
233.929
226.354
236.793
234.003
234.148
232.246
223.333
240.838
233.982
232.969
229.787
219.66
249.809
234.708
231.747
227.243
216.909
217.761
196.234
175.026
151.732
126.446
207.365
191.369
172.324
150.421
126.651
198.876
186.196
168.614
148.087
126.333
191.743
180.783
165.099
146.261
125.919
191.526
180.764
165.354
146.66
126.15
96.3943
95.5175
95.0698
94.3029
94.1463
57.3127
55.3658
53.6604
51.7386
50.9726
29.4821
27.1388
24.376
22.0769
20.7524
15.03
12.6135
10.148
8.12767
7.15714
9.20058
7.31283
5.9259
4.95044
4.36329
5.9706
4.86851
4.28865
4.19989
4.28814
4.06264
3.60309
3.53087
3.68648
3.84009
2.75462
2.74076
2.97443
3.27796
3.4364
1.65363
1.95818
2.40986
2.76071
2.90553
0.607976
1.00471
1.57759
1.97985
2.1542
3.6096
3.17736
2.06494
0.958822
0.274593
3.66331
3.006
1.97268
0.902742
0.263488
3.46429
2.7442
1.84365
0.851056
0.254949
3.1441
2.5006
1.68087
0.798601
0.248396
2.72844
2.3541
1.49832
0.741631
0.242299
4.47725
3.16069
1.97848
1.00281
0.309697
3.74051
3.25526
2.06732
0.995337
0.288919
94.9018
54.1427
27.505
14.4813
9.46111
93.6806
51.1333
22.9816
9.46575
5.25536
232.142
232.223
232.173
231.656
230.578
232.73
232.903
233.132
233.171
232.795
233.293
233.465
233.852
234.25
234.421
233.894
234.045
234.449
235.053
235.472
234.64
234.876
235.381
235.996
236.257
141.978
141.786
140.958
140.448
139.537
185.213
184.404
182.425
180.659
178.681
215.513
214.142
211.793
208.979
206.604
229.149
228.142
226.092
223.593
221.148
231.997
231.383
230.411
229.028
227.129
238.817
234.442
234.532
233.51
232.896
237.114
234.484
234.62
233.679
232.913
236.347
234.573
234.724
233.902
233.244
235.976
234.656
234.828
234.104
233.623
235.797
234.709
234.894
234.188
233.94
252.259
235.782
234.888
233.446
231.979
243.165
234.688
234.469
233.39
232.699
226.935
221.861
208.753
182.036
141.228
231.132
226.889
213.307
185.06
142.451
)
;

boundaryField
{
    left
    {
        type            zeroGradient;
    }
    right
    {
        type            fixedValue;
        value           uniform 0;
    }
    down
    {
        type            zeroGradient;
    }
    up
    {
        type            zeroGradient;
    }
    cylinder
    {
        type            zeroGradient;
    }
    defaultFaces
    {
        type            empty;
    }
}


// ************************************************************************* //
