/*--------------------------------*- C++ -*----------------------------------*\
  =========                 |
  \\      /  F ield         | OpenFOAM: The Open Source CFD Toolbox
   \\    /   O peration     | Website:  https://openfoam.org
    \\  /    A nd           | Version:  13
     \\/     M anipulation  |
\*---------------------------------------------------------------------------*/
FoamFile
{
    format      ascii;
    class       volVectorField;
    location    "0.93";
    object      U;
}
// * * * * * * * * * * * * * * * * * * * * * * * * * * * * * * * * * * * * * //

dimensions      [0 1 -1 0 0 0 0];

internalField   nonuniform List<vector> 
1800
(
(0.0978002 -0.088328 -4.48829e-20)
(0.286895 -0.24195 -3.41116e-20)
(0.473972 -0.379044 -4.85008e-19)
(0.657691 -0.500158 1.91467e-19)
(0.836612 -0.607172 7.44015e-20)
(1.00992 -0.70138 -3.90507e-20)
(1.17716 -0.783475 5.54999e-20)
(1.33794 -0.85369 1.97499e-19)
(1.4916 -0.912977 5.92311e-19)
(1.63354 -0.966919 8.10108e-19)
(0.11906 -0.0915022 -7.91092e-20)
(0.34429 -0.247708 -7.7061e-19)
(0.563282 -0.384749 3.78143e-21)
(0.775364 -0.504236 1.25735e-19)
(0.979506 -0.608922 -1.26248e-19)
(1.17522 -0.700697 7.65654e-20)
(1.36232 -0.780792 -2.80743e-19)
(1.54078 -0.850105 -5.03061e-20)
(1.71011 -0.910714 -6.93594e-19)
(1.86786 -0.967057 6.29836e-19)
(0.14165 -0.0923226 4.88225e-20)
(0.403679 -0.24773 2.09287e-19)
(0.653754 -0.382116 5.43303e-19)
(0.892177 -0.497904 -1.90254e-19)
(1.11866 -0.598385 -1.4299e-19)
(1.33321 -0.685813 7.56027e-20)
(1.53606 -0.761708 9.82345e-20)
(1.72743 -0.827301 1.94052e-19)
(1.90721 -0.884807 2.7366e-21)
(2.07422 -0.937877 1.50979e-19)
(0.163906 -0.0897206 -4.57189e-20)
(0.461698 -0.239469 -2.0439e-19)
(0.741427 -0.367618 -1.81257e-19)
(1.00451 -0.476976 -1.42291e-19)
(1.25162 -0.571022 1.81301e-19)
(1.48351 -0.652128 -5.70878e-20)
(1.70093 -0.721907 -4.30996e-21)
(1.90453 -0.781624 2.90607e-21)
(2.09455 -0.833369 -1.60487e-19)
(2.27026 -0.880361 -1.05919e-19)
(0.184657 -0.0833563 -1.14034e-19)
(0.515893 -0.221807 8.7639e-20)
(0.823291 -0.33943 1.79834e-19)
(1.10931 -0.439063 2.43297e-19)
(1.37561 -0.524071 -2.8501e-19)
(1.62371 -0.596778 -3.58068e-21)
(1.85494 -0.658768 4.24951e-19)
(2.07043 -0.711264 -1.85055e-19)
(2.27083 -0.756166 -1.23985e-19)
(2.45578 -0.7964 -5.35395e-20)
(0.203189 -0.0734999 1.73587e-19)
(0.56447 -0.1952 1.02983e-18)
(0.89679 -0.298074 1.43257e-19)
(1.20351 -0.384735 -5.03128e-19)
(1.48719 -0.458227 -1.75496e-19)
(1.75003 -0.520669 6.37665e-19)
(1.9939 -0.573525 -1.45365e-19)
(2.22036 -0.617901 -4.31558e-19)
(2.43047 -0.655446 -3.16672e-19)
(2.6242 -0.688745 2.61586e-19)
(0.218898 -0.0605912 1.16339e-19)
(0.605744 -0.1607 -7.47582e-19)
(0.959312 -0.24503 -1.08559e-18)
(1.2837 -0.315798 3.83777e-19)
(1.58223 -0.375564 4.49929e-19)
(1.85767 -0.426128 -9.02014e-22)
(2.11239 -0.46874 -6.39651e-19)
(2.34829 -0.504326 2.1931e-19)
(2.56683 -0.534214 -3.6452e-19)
(2.76827 -0.560572 -3.11225e-19)
(0.231235 -0.0451722 -3.42481e-19)
(0.638198 -0.119684 -6.92591e-19)
(1.00849 -0.182294 1.21219e-18)
(1.34677 -0.2347 5.98691e-19)
(1.65693 -0.278852 -2.6975e-19)
(1.94224 -0.316136 -2.11491e-19)
(2.20543 -0.347516 0)
(2.44874 -0.37369 1.16797e-19)
(2.67398 -0.395623 -2.95837e-19)
(2.88171 -0.414971 -7.74186e-20)
(0.239766 -0.0278753 -2.04463e-19)
(0.660651 -0.0737557 5.62375e-19)
(1.04249 -0.112198 1.71005e-19)
(1.39031 -0.144289 -5.12484e-19)
(1.7084 -0.171277 -7.8418e-19)
(2.00037 -0.194053 3.66183e-20)
(2.26923 -0.213246 1.67126e-19)
(2.51752 -0.229294 -5.4683e-19)
(2.74731 -0.242785 -2.89766e-19)
(2.95953 -0.254779 -5.6359e-19)
(0.244259 -0.0094024 4.51401e-19)
(0.672451 -0.024704 3.44143e-19)
(1.0603 -0.0373616 -9.38584e-20)
(1.41303 -0.0477885 -1.29776e-20)
(1.73514 -0.0564624 -3.87501e-19)
(2.03041 -0.0637233 -8.5733e-20)
(2.30205 -0.0698104 -2.90573e-19)
(2.55275 -0.0748907 6.4655e-19)
(2.7848 -0.0791716 1.71001e-19)
(2.99945 -0.0830126 2.22023e-21)
(-0.00234151 -0.0217718 -3.53566e-20)
(0.00857219 -0.0693612 -6.99147e-20)
(0.0248501 -0.120616 -7.33333e-21)
(0.0492867 -0.171396 -3.39338e-20)
(0.0776378 -0.216809 -1.27388e-20)
(0.106466 -0.254945 -3.90087e-19)
(0.135478 -0.288869 -1.95626e-20)
(0.16626 -0.32219 1.19952e-19)
(0.199087 -0.355723 1.09391e-20)
(0.232978 -0.38811 -3.57071e-20)
(0.000851757 -0.0246666 -9.77627e-20)
(0.0149314 -0.0850539 -2.13644e-19)
(0.039344 -0.160432 -5.30023e-20)
(0.0692664 -0.225411 -1.10243e-19)
(0.0994634 -0.275702 -9.61157e-20)
(0.130407 -0.318128 -2.79253e-19)
(0.164414 -0.359128 2.00184e-19)
(0.202076 -0.400555 1.6881e-19)
(0.241578 -0.440497 -2.57019e-19)
(0.281083 -0.476896 8.14404e-20)
(0.00549729 -0.031473 -8.54163e-20)
(0.028773 -0.107404 -8.69263e-19)
(0.0628686 -0.196173 -1.30233e-19)
(0.0974518 -0.269065 9.25186e-20)
(0.131792 -0.32731 6.76602e-20)
(0.169613 -0.380385 -4.47785e-19)
(0.212907 -0.432436 3.53585e-20)
(0.259102 -0.481957 3.67032e-19)
(0.305446 -0.526437 -3.86741e-19)
(0.351387 -0.565845 -2.58702e-19)
(0.0113684 -0.0409689 -1.77233e-21)
(0.0466241 -0.13087 1.90217e-19)
(0.0896516 -0.225368 1.60262e-21)
(0.133079 -0.307088 -1.06948e-20)
(0.177777 -0.377931 -2.99588e-20)
(0.227226 -0.443934 8.56464e-20)
(0.281081 -0.505728 7.25776e-20)
(0.335651 -0.561018 -1.35966e-19)
(0.389707 -0.609513 9.21088e-21)
(0.44387 -0.652092 -1.04426e-20)
(0.0185086 -0.0507611 0)
(0.0672393 -0.152425 5.51591e-21)
(0.121946 -0.253652 -5.11401e-19)
(0.178698 -0.345505 5.17542e-20)
(0.237805 -0.428614 -9.49563e-21)
(0.300512 -0.505143 4.95069e-21)
(0.365306 -0.57445 -2.51731e-20)
(0.4298 -0.635524 -7.7612e-21)
(0.493935 -0.688943 0)
(0.558126 -0.734965 -2.05808e-20)
(0.0273247 -0.0596443 3.18889e-20)
(0.0918953 -0.172853 -1.54609e-19)
(0.161769 -0.28253 -4.62095e-20)
(0.234632 -0.383904 -5.82694e-20)
(0.309738 -0.476775 4.95655e-20)
(0.386739 -0.561569 6.04619e-21)
(0.464245 -0.63775 8.87237e-20)
(0.540939 -0.705006 -2.17537e-20)
(0.616909 -0.763521 -6.95889e-19)
(0.69216 -0.812737 -1.00995e-20)
(0.0379738 -0.0676014 6.75351e-22)
(0.121236 -0.192176 5.54861e-20)
(0.209164 -0.310618 -7.83482e-20)
(0.299929 -0.420182 -1.66815e-20)
(0.392139 -0.520681 -7.29094e-20)
(0.484782 -0.612148 -9.26432e-21)
(0.576706 -0.694355 1.02109e-20)
(0.666948 -0.767186 -2.11257e-19)
(0.755533 -0.83032 3.83317e-19)
(0.842326 -0.882386 9.71278e-19)
(0.0503603 -0.074599 1.51031e-20)
(0.155128 -0.209607 -1.42213e-19)
(0.263462 -0.335963 -2.13653e-19)
(0.373671 -0.452112 8.89674e-20)
(0.484105 -0.558271 -6.43072e-20)
(0.593549 -0.654627 9.85303e-20)
(0.70095 -0.741294 1.96511e-19)
(0.805417 -0.818326 -1.08902e-19)
(0.907031 -0.885149 -3.05837e-19)
(1.0057 -0.939574 7.25175e-19)
(0.0642891 -0.0803585 -2.65158e-20)
(0.193285 -0.224024 -5.78108e-19)
(0.324296 -0.356558 5.24275e-19)
(0.455684 -0.47723 3.37459e-19)
(0.585741 -0.586748 -8.59077e-20)
(0.713228 -0.685665 3.08567e-19)
(0.837135 -0.774444 -1.59937e-19)
(0.956572 -0.853475 -7.72536e-19)
(1.07174 -0.92206 -4.03629e-19)
(1.18269 -0.977313 4.53561e-19)
(0.0795444 -0.0846651 -7.98159e-20)
(0.235844 -0.234416 -5.44371e-19)
(0.392392 -0.370523 -8.31863e-21)
(0.547542 -0.492795 6.88659e-20)
(0.699596 -0.602464 3.37731e-19)
(0.847394 -0.700436 -1.85372e-19)
(0.990018 -0.787448 -1.69421e-19)
(1.12654 -0.863838 1.88941e-19)
(1.25682 -0.928666 -3.51576e-19)
(1.38008 -0.980378 -5.84487e-19)
(0.402866 -0.532269 9.8173e-19)
(0.684779 -0.618891 -2.3875e-19)
(0.913701 -0.558384 -1.41635e-19)
(1.08776 -0.432149 2.66961e-19)
(1.24053 -0.28122 -2.29514e-19)
(1.36329 -0.14079 -2.9872e-19)
(1.46251 -0.0368687 -2.66248e-19)
(1.52324 0.0171099 -3.18886e-20)
(1.54671 0.0337561 -4.98387e-20)
(1.56757 0.0258461 3.05038e-20)
(0.468801 -0.620123 9.63898e-19)
(0.741389 -0.694318 7.07782e-20)
(0.966181 -0.618451 1.0989e-20)
(1.12482 -0.481449 -2.14162e-19)
(1.2658 -0.32168 -7.09804e-19)
(1.38161 -0.173692 0)
(1.48234 -0.062342 -2.48824e-19)
(1.56093 0.00197821 5.20975e-20)
(1.60173 0.0263503 4.59841e-21)
(1.63827 0.0212474 3.19204e-20)
(0.556145 -0.705756 -9.98292e-19)
(0.810676 -0.767276 -7.12254e-20)
(1.02539 -0.676357 1.5631e-19)
(1.16608 -0.52856 -5.40955e-20)
(1.29124 -0.360914 -3.65874e-20)
(1.39756 -0.206486 6.39629e-20)
(1.49411 -0.0897848 0)
(1.58191 -0.0183854 0)
(1.64107 0.0131146 7.53172e-22)
(1.70113 0.0136323 0)
(0.66565 -0.787474 -2.25158e-19)
(0.895503 -0.835816 4.05532e-19)
(1.0918 -0.731041 2.68421e-20)
(1.2123 -0.572487 0)
(1.31778 -0.398018 6.04884e-19)
(1.41222 -0.238112 -1.39546e-19)
(1.50135 -0.117745 0)
(1.59163 -0.0408076 1.39046e-19)
(1.6562 -0.00666974 0)
(1.75252 0.00205362 -5.16307e-20)
(0.795713 -0.864129 -1.48789e-19)
(0.997548 -0.897957 4.56369e-19)
(1.16604 -0.781348 -1.46525e-20)
(1.26363 -0.612404 0)
(1.34617 -0.432161 1.80264e-19)
(1.4261 -0.267776 2.63967e-19)
(1.50587 -0.14504 4.6836e-20)
(1.59544 -0.0635045 6.44817e-21)
(1.65453 -0.0287868 -1.73041e-20)
(1.78373 -0.0172789 3.71585e-20)
(0.942242 -0.934967 -1.33397e-18)
(1.11642 -0.952349 -9.44461e-19)
(1.24872 -0.826018 4.75182e-21)
(1.31984 -0.647596 5.76858e-19)
(1.37677 -0.462563 -3.08221e-19)
(1.43938 -0.29488 1.45824e-19)
(1.5087 -0.170759 2.26784e-19)
(1.59274 -0.0859432 -1.87003e-19)
(1.6529 -0.0499749 -1.92837e-21)
(1.76115 -0.0388025 -1.99952e-20)
(1.10011 -0.999615 -2.61231e-19)
(1.24997 -0.99881 2.8729e-19)
(1.34006 -0.863939 3.89756e-21)
(1.38062 -0.677383 -1.76565e-20)
(1.40966 -0.488481 -5.95185e-19)
(1.45205 -0.318855 5.35725e-20)
(1.51003 -0.194358 -9.46521e-20)
(1.58545 -0.106489 -2.58167e-20)
(1.64859 -0.0702953 1.17874e-20)
(1.70933 -0.0503759 -2.41499e-20)
(1.26435 -1.05697 -1.20024e-18)
(1.39472 -1.03795 2.10417e-19)
(1.43905 -0.894522 0)
(1.44499 -0.701338 3.44749e-20)
(1.44413 -0.509436 5.23715e-19)
(1.46373 -0.339279 -1.90068e-21)
(1.50873 -0.215632 -3.22482e-19)
(1.5781 -0.124269 7.93144e-20)
(1.61581 -0.0846148 -2.20606e-21)
(1.64502 -0.056333 -6.75269e-20)
(1.43203 -1.1036 3.39086e-18)
(1.54804 -1.07067 2.45587e-19)
(1.54552 -0.918476 4.6535e-19)
(1.51319 -0.719881 -3.17928e-20)
(1.48029 -0.525589 -3.44776e-20)
(1.47403 -0.356336 -4.28454e-19)
(1.50445 -0.233412 9.92091e-20)
(1.55481 -0.140706 3.12308e-21)
(1.55839 -0.0890615 -2.42251e-20)
(1.57241 -0.0589593 7.98549e-20)
(1.59927 -1.12826 -2.99794e-18)
(1.70187 -1.09583 1.2718e-18)
(1.65388 -0.938447 -2.33684e-19)
(1.58135 -0.7365 -7.89831e-19)
(1.51512 -0.540478 -6.53956e-19)
(1.48038 -0.373776 -2.49466e-19)
(1.49402 -0.251693 -7.38121e-20)
(1.49756 -0.147778 0)
(1.49197 -0.0902775 -8.2315e-20)
(1.49446 -0.0600073 1.69618e-19)
(1.88821 -1.1703 -6.70985e-18)
(1.92742 -1.10536 -1.69126e-18)
(1.80479 -0.932621 -5.78228e-20)
(1.67305 -0.728229 1.11609e-19)
(1.56158 -0.535549 1.57496e-19)
(1.48814 -0.374428 -9.82712e-20)
(1.43791 -0.249483 -4.0044e-20)
(1.41286 -0.146275 7.77304e-20)
(1.399 -0.0890739 -6.72557e-20)
(1.39027 -0.0597305 -7.75474e-20)
(2.28936 -1.13495 4.95991e-19)
(2.17885 -1.05688 -2.93221e-19)
(1.9426 -0.865608 4.86224e-19)
(1.73535 -0.665185 -8.28038e-20)
(1.56085 -0.481847 -1.44346e-20)
(1.42456 -0.334714 -7.66092e-20)
(1.33686 -0.22397 9.11994e-20)
(1.29562 -0.134465 -3.31826e-20)
(1.27461 -0.083173 2.24533e-19)
(1.2563 -0.0565877 1.0334e-19)
(2.61059 -1.04366 2.27078e-18)
(2.35187 -0.948873 3.25689e-19)
(2.00798 -0.759652 -1.17519e-19)
(1.73197 -0.573195 1.68724e-36)
(1.50408 -0.411491 -2.56618e-20)
(1.33732 -0.287608 1.49288e-33)
(1.23042 -0.194255 -2.17542e-20)
(1.17231 -0.119749 -1.76887e-33)
(1.14384 -0.0749695 7.15166e-21)
(1.11747 -0.051433 -1.04397e-20)
(2.78699 -0.894011 3.88533e-33)
(2.3693 -0.795698 2.96657e-18)
(1.97332 -0.63061 1.81634e-18)
(1.65302 -0.46957 0)
(1.40569 -0.335357 8.28445e-19)
(1.2284 -0.234205 4.23187e-19)
(1.11145 -0.159193 1.7111e-19)
(1.04258 -0.100909 -3.11912e-33)
(1.00759 -0.0643031 -5.27409e-20)
(0.97492 -0.044587 5.09104e-21)
(2.7636 -0.70592 3.84241e-18)
(2.24581 -0.629925 -1.46795e-19)
(1.84636 -0.49109 0)
(1.51527 -0.361778 0)
(1.2708 -0.255918 0)
(1.09642 -0.178755 0)
(0.979322 -0.122681 -1.29375e-20)
(0.906251 -0.0797766 -4.38475e-33)
(0.866905 -0.0517807 8.12479e-21)
(0.829868 -0.0364999 3.17516e-34)
(2.55115 -0.51705 3.26542e-18)
(2.02001 -0.462932 0)
(1.63847 -0.353673 0)
(1.32662 -0.256762 0)
(1.10069 -0.179791 0)
(0.941171 -0.12571 0)
(0.832619 -0.0871297 3.31864e-20)
(0.761995 -0.0580273 -9.64052e-20)
(0.721679 -0.0382619 9.01189e-21)
(0.682936 -0.0276904 2.31923e-20)
(2.1901 -0.342716 0)
(1.7026 -0.303519 1.09795e-18)
(1.36123 -0.22762 1.09012e-18)
(1.09124 -0.161991 0)
(0.898268 -0.112365 6.65944e-19)
(0.763696 -0.0787878 4.02019e-19)
(0.671132 -0.055213 2.49497e-19)
(0.608843 -0.0376416 8.64752e-20)
(0.571458 -0.0250123 -4.33955e-20)
(0.53438 -0.0188669 -8.90937e-22)
(1.70285 -0.191139 -6.73876e-19)
(1.30017 -0.165597 -2.74178e-19)
(1.02502 -0.121762 1.75656e-19)
(0.815044 -0.0844334 -2.11219e-34)
(0.667645 -0.0580851 -7.71472e-20)
(0.566014 -0.0410778 3.69928e-33)
(0.495351 -0.0292169 4.87596e-20)
(0.446373 -0.0204669 9.90166e-20)
(0.415759 -0.0135074 1.0274e-20)
(0.384219 -0.0108742 -6.30335e-22)
(1.10088 -0.0758224 3.40806e-18)
(0.823153 -0.0626796 -1.866e-19)
(0.640566 -0.0442957 -5.89029e-19)
(0.506128 -0.0289854 0)
(0.4138 -0.0195656 -6.40182e-19)
(0.350586 -0.0141396 -4.32211e-19)
(0.306027 -0.0103956 -2.04635e-19)
(0.274315 -0.00770641 -1.45914e-19)
(0.253864 -0.0050333 1.90027e-19)
(0.232081 -0.00452162 -3.73198e-20)
(0.397351 -0.00331885 0)
(0.287865 0.00159449 0)
(0.220887 0.0040944 0)
(0.173546 0.00624845 0)
(0.142371 0.00585967 0)
(0.121176 0.00472099 0)
(0.105822 0.00370635 5.58742e-20)
(0.0944605 0.00263921 -2.17453e-34)
(0.086843 0.002406 1.27442e-20)
(0.0783872 0.00109443 1.13474e-20)
(3.3671 -0.0863126 5.39218e-19)
(3.32642 -0.265088 -8.4188e-20)
(3.24735 -0.430659 8.52083e-19)
(3.13238 -0.582162 -6.04749e-19)
(2.98634 -0.718131 6.66398e-19)
(2.81524 -0.83639 2.75245e-19)
(2.62661 -0.93407 -1.92743e-18)
(2.42952 -1.00786 -7.74921e-20)
(2.22469 -1.0537 0)
(1.98487 -1.06659 4.25997e-19)
(3.86191 -0.0750611 7.07367e-18)
(3.79859 -0.234217 1.95629e-18)
(3.70428 -0.387316 -4.86734e-18)
(3.58426 -0.531998 -4.49146e-19)
(3.44239 -0.665903 3.55897e-18)
(3.28186 -0.787333 1.92356e-18)
(3.10651 -0.895085 -5.16888e-18)
(2.92205 -0.987726 -1.95225e-18)
(2.72761 -1.06342 2.20322e-18)
(2.49238 -1.12056 8.52207e-19)
(3.83307 -0.0533025 -1.2626e-19)
(3.82024 -0.171569 4.40353e-18)
(3.78546 -0.299766 -1.08814e-18)
(3.72433 -0.430925 -3.44615e-18)
(3.63617 -0.558738 -6.79979e-18)
(3.52371 -0.678812 1.02787e-17)
(3.39117 -0.788806 4.18058e-18)
(3.2435 -0.888003 -3.91186e-18)
(3.08161 -0.978741 -2.90281e-18)
(2.88723 -1.06303 -3.42513e-18)
(3.62866 -0.0472874 -4.83934e-18)
(3.61961 -0.144934 -4.35338e-18)
(3.59963 -0.243743 5.47204e-18)
(3.56735 -0.343099 1.91183e-18)
(3.5224 -0.442384 -8.97103e-18)
(3.46415 -0.540816 4.92126e-19)
(3.39181 -0.637056 3.88627e-18)
(3.3051 -0.730444 -1.05388e-18)
(3.20497 -0.82308 1.27675e-18)
(3.08304 -0.914792 2.8178e-19)
(3.34405 -0.0365797 -9.1598e-19)
(3.339 -0.111657 3.00406e-18)
(3.3271 -0.188678 1.61956e-18)
(3.30744 -0.267173 -1.89423e-18)
(3.27986 -0.346072 -2.00133e-18)
(3.24465 -0.42414 -2.4339e-18)
(3.20203 -0.50034 3.79644e-19)
(3.15175 -0.574501 1.39043e-19)
(3.09547 -0.647769 -2.13961e-18)
(3.03284 -0.721318 -2.03426e-18)
(2.96257 -0.0265556 -1.82247e-18)
(2.95981 -0.0798899 -5.87277e-20)
(2.9533 -0.1346 -1.6375e-18)
(2.9424 -0.190904 3.12135e-19)
(2.92675 -0.248551 5.36775e-18)
(2.90629 -0.306931 -3.66744e-19)
(2.88091 -0.365117 4.43374e-20)
(2.85022 -0.422062 -2.60855e-18)
(2.81643 -0.476886 -3.49557e-18)
(2.78599 -0.52987 3.72865e-19)
(2.48713 -0.0175116 -2.89323e-20)
(2.48578 -0.0519354 -8.143e-19)
(2.48259 -0.0872488 -2.6148e-18)
(2.47707 -0.123772 -3.43096e-18)
(2.4688 -0.161534 2.49651e-18)
(2.45744 -0.200268 1.50223e-18)
(2.44261 -0.239354 -1.38505e-18)
(2.4237 -0.277792 1.62448e-18)
(2.40274 -0.314485 -4.29701e-19)
(2.38952 -0.349543 -9.63759e-19)
(1.91464 -0.00968889 7.72441e-19)
(1.91408 -0.028298 -8.3178e-19)
(1.91278 -0.04744 -3.27679e-20)
(1.91032 -0.0673593 -3.47242e-20)
(1.90624 -0.0881303 -7.27404e-20)
(1.90013 -0.109615 -2.33191e-18)
(1.89151 -0.131405 -6.7867e-19)
(1.87978 -0.152783 2.62609e-18)
(1.86664 -0.172976 -6.03508e-19)
(1.86191 -0.192208 -1.35115e-18)
(1.23989 -0.00373785 -1.64278e-18)
(1.23967 -0.0106958 -8.48893e-19)
(1.23923 -0.0179013 2.33915e-18)
(1.23823 -0.0254786 -8.89758e-19)
(1.23625 -0.0334753 -6.74111e-19)
(1.2329 -0.0418316 1.35201e-18)
(1.22775 -0.05035 -1.29588e-18)
(1.22038 -0.0586655 1.28698e-18)
(1.21202 -0.0663427 -1.21032e-18)
(1.21007 -0.0735086 -4.2483e-18)
(0.454917 -0.000257998 6.63065e-19)
(0.454827 -0.000700545 7.03038e-19)
(0.454692 -0.00115912 7.48165e-19)
(0.454325 -0.00164005 1.35394e-18)
(0.453496 -0.00214017 -6.71973e-19)
(0.451984 -0.00263717 -1.2996e-18)
(0.449568 -0.00309909 6.14708e-19)
(0.445993 -0.00359291 2.48375e-20)
(0.441737 -0.00439221 -4.96535e-20)
(0.44035 -0.00504563 1.1057e-19)
(1.65357 0.997304 -2.85844e-19)
(1.51228 0.941882 1.79916e-20)
(1.3588 0.880763 -2.28794e-19)
(1.19768 0.808449 1.76297e-19)
(1.02957 0.723985 -1.91819e-19)
(0.854825 0.627081 -1.01077e-19)
(0.673759 0.516943 2.31969e-19)
(0.487035 0.392147 -3.04869e-19)
(0.29589 0.250642 3.09879e-19)
(0.101429 0.0916431 2.38688e-19)
(1.8864 0.992212 0)
(1.72969 0.934754 6.39434e-19)
(1.56084 0.872779 3.32682e-19)
(1.38229 0.80186 1.62634e-19)
(1.19453 0.719882 4.31092e-19)
(0.997534 0.6259 -8.68384e-20)
(0.79136 0.518602 -7.8526e-20)
(0.576345 0.395989 8.87348e-20)
(0.353316 0.255174 -1.04514e-18)
(0.122697 0.0943544 -1.66626e-20)
(2.09105 0.959051 1.568e-19)
(1.92524 0.905077 0)
(1.74614 0.846468 -1.0073e-19)
(1.55494 0.779553 -3.83298e-19)
(1.3517 0.702084 5.37022e-20)
(1.13609 0.61279 3.97062e-19)
(0.907783 0.510088 -6.06835e-19)
(0.666588 0.391637 -2.00885e-19)
(0.412594 0.254043 7.83574e-19)
(0.14525 0.0947344 -1.7592e-19)
(2.28485 0.898362 1.87924e-19)
(2.11045 0.850566 1.19679e-20)
(1.9213 0.797865 2.45288e-20)
(1.71811 0.737002 3.60788e-20)
(1.50058 0.665856 -2.92986e-20)
(1.26792 0.583132 2.73231e-19)
(1.01926 0.487167 -2.06868e-19)
(0.753673 0.37553 -8.55534e-19)
(0.470269 0.244677 0)
(0.167387 0.0916959 0)
(2.46796 0.811823 -1.07086e-18)
(2.28436 0.770839 -6.09269e-19)
(2.08493 0.725063 -1.20689e-19)
(1.87003 0.671523 -6.6569e-20)
(1.6389 0.608295 0)
(1.39031 0.534136 2.40739e-19)
(1.12275 0.447433 2.67764e-19)
(0.834553 0.345834 2.86227e-19)
(0.523838 0.225952 -4.23724e-19)
(0.187907 0.0848976 -8.12307e-20)
(2.634 0.702096 7.66462e-19)
(2.44156 0.668065 -1.39168e-19)
(2.23244 0.62968 -2.21597e-19)
(2.00664 0.584306 0)
(1.76301 0.530278 0)
(1.49987 0.466487 0)
(1.21522 0.391463 -3.89785e-20)
(0.906683 0.303089 3.70271e-19)
(0.571497 0.198347 3.79147e-19)
(0.206082 0.0746239 -3.08559e-19)
(2.7758 0.572357 -1.19359e-18)
(2.5755 0.545261 -1.48141e-18)
(2.35786 0.51453 -3.03372e-22)
(2.1226 0.477946 -1.87648e-19)
(1.86818 0.434181 -9.28775e-20)
(1.59257 0.382317 -1.78829e-19)
(1.29332 0.321124 4.59078e-19)
(0.967487 0.248836 2.14862e-19)
(0.611582 0.162966 5.40012e-19)
(0.221314 0.06134 2.02848e-19)
(2.88707 0.425749 -1.15709e-18)
(2.68027 0.405633 8.47038e-20)
(2.45576 0.38282 1.64527e-19)
(2.21297 0.355611 1.68139e-20)
(1.95004 0.32305 -3.14393e-19)
(1.66465 0.284468 -1.74201e-19)
(1.35397 0.238937 -6.21196e-19)
(1.01463 0.18514 1.18529e-19)
(0.642603 0.121236 5.14731e-20)
(0.233065 0.0456125 -6.26923e-21)
(2.96279 0.265187 1.01367e-19)
(2.7512 0.252354 3.97e-19)
(2.52189 0.237904 -3.3029e-19)
(2.27394 0.22074 3.63005e-19)
(2.00523 0.200296 3.72542e-19)
(1.71322 0.176176 4.91887e-19)
(1.39481 0.147809 -6.35729e-19)
(1.04633 0.114389 -3.2441e-19)
(0.66341 0.0748095 -4.58505e-20)
(0.240916 0.028095 -3.26988e-19)
(3.00052 0.093577 5.8181e-19)
(2.78612 0.0887854 -1.86161e-19)
(2.55425 0.0834437 4.79557e-19)
(2.30366 0.0771499 -3.10658e-19)
(2.03208 0.0697276 2.66476e-19)
(1.73679 0.0610616 6.05398e-19)
(1.41457 0.0509783 3.78878e-19)
(1.06161 0.0392345 3.09336e-19)
(0.673395 0.0255065 2.65857e-19)
(0.244653 0.0095072 5.43606e-19)
(0.239676 0.452331 -4.69343e-19)
(0.204064 0.4186 -1.87994e-19)
(0.168482 0.381499 1.39262e-19)
(0.134937 0.343813 -4.19113e-19)
(0.105193 0.307672 -1.19344e-19)
(0.0782937 0.270417 6.92924e-19)
(0.0519195 0.224012 3.35767e-19)
(0.0259939 0.159134 -1.54984e-19)
(0.00706798 0.0797631 1.14988e-19)
(-0.0011207 0.0224653 -6.07824e-20)
(0.288679 0.544634 4.11573e-19)
(0.248774 0.507831 4.58632e-19)
(0.208223 0.46577 -1.1525e-20)
(0.167888 0.418721 -1.32922e-19)
(0.131154 0.370569 -3.1395e-19)
(0.100618 0.322946 8.28639e-20)
(0.0734928 0.269606 2.25474e-19)
(0.0459158 0.197127 1.65673e-19)
(0.0183597 0.102001 -5.91505e-19)
(0.00279751 0.0289085 -1.23697e-19)
(0.359649 0.633446 -6.01093e-19)
(0.313787 0.593286 -4.81624e-19)
(0.267995 0.547436 2.57919e-19)
(0.221357 0.49411 1.38512e-19)
(0.175811 0.434321 -6.24489e-21)
(0.136271 0.372077 -1.40312e-19)
(0.10212 0.305775 -2.97074e-20)
(0.0684435 0.225023 -5.54849e-19)
(0.0336858 0.126115 -2.69321e-19)
(0.00764703 0.0378332 -3.90511e-20)
(0.454188 0.718169 5.03478e-19)
(0.400035 0.673959 1.64748e-19)
(0.346347 0.622929 -1.49519e-19)
(0.292217 0.563864 6.3213e-20)
(0.237742 0.495742 -6.23635e-22)
(0.186583 0.421033 1.27176e-21)
(0.140103 0.340781 -1.32572e-19)
(0.0954624 0.25034 3.78026e-19)
(0.0514441 0.147797 -4.19112e-19)
(0.0135884 0.0477359 -6.50076e-20)
(0.571981 0.798107 -2.82187e-19)
(0.507838 0.749995 -8.88774e-20)
(0.443561 0.693127 -1.43689e-20)
(0.378956 0.627384 -7.05565e-20)
(0.313713 0.552101 5.86921e-20)
(0.24966 0.468175 5.29783e-20)
(0.188379 0.376796 -2.80177e-20)
(0.129327 0.276708 -2.81934e-19)
(0.0725327 0.167677 2.1826e-19)
(0.0209241 0.0568547 8.72346e-20)
(0.709404 0.87115 6.43209e-19)
(0.634358 0.819749 3.20579e-19)
(0.558124 0.757561 2.02665e-19)
(0.480851 0.685475 4.8231e-20)
(0.402411 0.603617 1.55382e-19)
(0.323871 0.51243 7.8749e-20)
(0.246469 0.412565 1.4363e-19)
(0.170868 0.303943 5.79523e-20)
(0.0980572 0.186818 -1.58195e-20)
(0.0300008 0.0650377 -1.32579e-20)
(0.862022 0.935026 -1.19787e-19)
(0.775544 0.880811 -8.24231e-19)
(0.686706 0.814165 -7.5518e-20)
(0.595727 0.736902 -5.29962e-20)
(0.502565 0.649682 -1.99547e-20)
(0.408128 0.552751 1.51703e-19)
(0.313481 0.446337 -4.38035e-20)
(0.219712 0.330428 6.49369e-20)
(0.128295 0.205088 -1.44621e-19)
(0.0409059 0.0724968 -1.27577e-21)
(1.02674 0.986153 -8.84487e-19)
(0.928479 0.929738 5.94328e-20)
(0.826665 0.859784 -2.34258e-19)
(0.72147 0.778943 -7.22716e-20)
(0.612774 0.688046 -2.37389e-20)
(0.501461 0.587093 -7.5203e-20)
(0.388529 0.475908 5.62436e-20)
(0.275165 0.354203 6.029e-20)
(0.162983 0.221561 -9.82076e-21)
(0.0535447 0.0791215 -1.03758e-19)
(1.20391 1.01802 1.23815e-19)
(1.09351 0.961015 5.22888e-19)
(0.978265 0.889775 1.55019e-21)
(0.858232 0.807594 -2.94284e-20)
(0.733151 0.715327 1.50734e-19)
(0.603896 0.612566 -3.47131e-19)
(0.471406 0.49876 -2.44319e-19)
(0.336832 0.373213 3.5608e-19)
(0.201772 0.235008 1.44164e-19)
(0.0677021 0.0845325 -3.61972e-20)
(1.4006 1.01553 7.39535e-19)
(1.27807 0.962397 3.23607e-19)
(1.14784 0.895404 5.59585e-20)
(1.01088 0.816431 -1.94762e-19)
(0.867276 0.726541 -1.64184e-20)
(0.717904 0.625348 4.65488e-19)
(0.563585 0.51201 -2.68174e-19)
(0.405341 0.385477 -1.84464e-19)
(0.244705 0.24432 3.35773e-19)
(0.0831135 0.0884404 -6.03124e-21)
(0.977745 0.0990915 8.56422e-21)
(1.14038 0.142836 -2.37306e-21)
(1.2135 0.191163 -2.45307e-20)
(1.32627 0.169528 0)
(1.38006 0.154912 -8.0024e-22)
(1.2807 0.233726 -5.97438e-20)
(1.13063 0.385474 -5.46695e-20)
(0.950085 0.543665 -9.27266e-21)
(0.712048 0.648673 -3.08836e-19)
(0.416725 0.595873 4.19379e-19)
(0.983594 0.0804635 2.00953e-19)
(1.13185 0.115156 -3.26721e-20)
(1.21058 0.160706 1.8818e-21)
(1.31698 0.149787 1.04357e-20)
(1.38466 0.157175 3.15499e-21)
(1.30066 0.26854 -8.43615e-22)
(1.16051 0.435827 7.60747e-21)
(0.994541 0.606879 0)
(0.761799 0.727809 8.08692e-19)
(0.479485 0.687112 -5.71413e-19)
(0.989289 0.0621301 -1.1502e-19)
(1.12815 0.0884749 6.33962e-21)
(1.21074 0.131082 7.86698e-20)
(1.31382 0.128685 1.92915e-20)
(1.38849 0.158395 -2.33314e-20)
(1.32051 0.301426 -3.46622e-20)
(1.19341 0.48473 -1.69803e-20)
(1.04445 0.668518 4.49043e-20)
(0.823234 0.804357 -1.2917e-21)
(0.564476 0.774918 -3.59032e-19)
(0.994544 0.0434541 -8.12667e-20)
(1.12897 0.0624067 1.53277e-20)
(1.21433 0.102104 7.54794e-20)
(1.31712 0.107482 3.18499e-20)
(1.39439 0.159281 -2.40478e-20)
(1.34047 0.33231 -2.84378e-20)
(1.22973 0.531443 8.45806e-20)
(1.10037 0.727428 2.70178e-20)
(0.899897 0.876043 -5.51785e-19)
(0.67366 0.857324 -1.77446e-19)
(0.998842 0.0239444 3.60276e-20)
(1.13344 0.0365133 -4.48475e-20)
(1.22079 0.0736473 -6.73806e-20)
(1.3255 0.0869816 2.3257e-20)
(1.40151 0.160751 0)
(1.36029 0.361525 0)
(1.2696 0.575271 8.3399e-20)
(1.16352 0.782203 -2.83353e-20)
(0.994591 0.940374 -1.18585e-19)
(0.805067 0.932684 -5.73644e-20)
(1.00146 0.00340936 3.19975e-21)
(1.14044 0.0103684 5.81362e-20)
(1.22915 0.0456114 -2.06814e-19)
(1.33697 0.0677192 -7.79192e-20)
(1.4087 0.163639 -4.7176e-21)
(1.37992 0.389179 1.32981e-19)
(1.31328 0.615329 1.58518e-19)
(1.23543 0.831116 -1.80643e-20)
(1.10772 0.995551 -4.47327e-20)
(0.953737 1.00036 3.31672e-21)
(1.00152 -0.0181369 2.90681e-21)
(1.14901 -0.0164073 3.08697e-20)
(1.23846 0.0180178 -6.55052e-20)
(1.34993 0.0501592 -1.58615e-19)
(1.41513 0.1682 1.16287e-20)
(1.39966 0.414907 7.25765e-21)
(1.36139 0.650479 -6.00498e-20)
(1.31722 0.872513 -1.05566e-19)
(1.23721 1.0413 -3.14158e-20)
(1.11387 1.06052 -9.79321e-19)
(0.998497 -0.0403162 1.51482e-20)
(1.15861 -0.0441208 -1.47776e-19)
(1.24813 -0.00894741 1.33048e-19)
(1.36313 0.0350165 1.04267e-19)
(1.41968 0.174887 4.98374e-21)
(1.41953 0.438216 -1.38727e-19)
(1.41382 0.67968 1.47712e-21)
(1.40823 0.905472 -1.37896e-19)
(1.37927 1.0785 1.10972e-20)
(1.27988 1.11258 2.88299e-18)
(0.992681 -0.0625846 -8.96099e-20)
(1.16924 -0.0729018 8.23956e-20)
(1.25793 -0.0350871 1.92206e-19)
(1.3759 0.0223915 -1.16408e-19)
(1.42296 0.183464 -2.33804e-19)
(1.44112 0.458781 9.26193e-21)
(1.47184 0.702804 1.71877e-19)
(1.50838 0.930709 -5.81387e-19)
(1.53082 1.10845 -2.68568e-20)
(1.44838 1.15353 -6.47532e-18)
(0.985061 -0.0854785 4.08603e-21)
(1.18119 -0.102745 1.44917e-19)
(1.26785 -0.0602067 6.23197e-20)
(1.3872 0.0148667 -2.8206e-19)
(1.42285 0.198005 -2.51089e-19)
(1.46201 0.480168 -7.6039e-20)
(1.53107 0.723648 8.55946e-20)
(1.61151 0.951578 -1.99781e-19)
(1.68373 1.13076 -1.08552e-18)
(1.61567 1.17247 -7.95104e-18)
(0.974759 -0.116602 -1.44937e-20)
(1.19588 -0.142377 -3.36719e-20)
(1.27722 -0.0939911 -7.84344e-20)
(1.39781 0.000943616 1.49111e-19)
(1.42332 0.197422 2.06768e-19)
(1.49152 0.475538 -6.33107e-20)
(1.61182 0.712961 -1.41981e-19)
(1.75372 0.940688 -1.19812e-18)
(1.9028 1.13273 -1.59856e-18)
(1.89939 1.2088 3.28566e-18)
(0.962231 -0.155393 -4.03724e-19)
(1.21483 -0.191895 1.99409e-20)
(1.28151 -0.139942 -5.938e-20)
(1.39804 -0.0203376 3.48204e-19)
(1.39985 0.175366 3.48443e-19)
(1.49254 0.430151 1.23035e-20)
(1.66781 0.648448 -6.36699e-20)
(1.88055 0.866212 -2.76929e-19)
(2.13954 1.07156 2.8224e-19)
(2.28456 1.16093 -3.23595e-19)
(0.949484 -0.19602 -2.79214e-20)
(1.24028 -0.241842 -5.50828e-20)
(1.28104 -0.184715 3.10491e-20)
(1.39319 -0.0380779 2.69924e-20)
(1.37204 0.164581 1.7132e-33)
(1.46843 0.372418 2.56153e-21)
(1.67977 0.561736 -2.02619e-33)
(1.94872 0.759823 1.84986e-19)
(2.3018 0.956525 -9.30751e-19)
(2.58734 1.05854 -6.29241e-19)
(0.937041 -0.242878 1.41051e-18)
(1.2718 -0.281985 -7.76397e-34)
(1.24979 -0.229626 -4.08164e-20)
(1.26876 -0.0379155 -2.28659e-19)
(1.26003 0.145399 -4.43898e-19)
(1.38831 0.303224 -8.78267e-19)
(1.61845 0.460355 -5.05269e-33)
(1.92885 0.631271 -1.73702e-18)
(2.32559 0.802188 -3.17774e-18)
(2.75367 0.902643 1.67503e-18)
(0.927315 -0.300526 0)
(1.3169 -0.327053 -1.62306e-33)
(1.11286 -0.207319 0)
(1.10618 -0.0303436 0)
(1.11773 0.115253 0)
(1.258 0.23327 0)
(1.48917 0.355619 -8.04374e-33)
(1.81475 0.491683 0)
(2.21332 0.634345 -3.39676e-19)
(2.73492 0.712052 1.25739e-18)
(0.916509 -0.360817 1.1614e-19)
(1.25152 -0.326127 -4.67779e-19)
(0.960237 -0.174347 -5.52342e-20)
(0.93316 -0.0262238 0)
(0.955281 0.0827711 0)
(1.08972 0.165709 6.0279e-20)
(1.30605 0.254018 1.17495e-18)
(1.61581 0.354752 -1.95054e-19)
(1.99663 0.466232 -4.95304e-19)
(2.53242 0.520497 4.67321e-18)
(0.88348 -0.40531 -1.52013e-17)
(1.09208 -0.279949 1.08632e-18)
(0.792783 -0.130639 -7.28117e-20)
(0.746499 -0.0212282 -7.24935e-20)
(0.77226 0.0525542 -5.13384e-19)
(0.889288 0.104656 -7.73174e-19)
(1.07612 0.161347 -1.04755e-18)
(1.34596 0.229052 -1.38166e-18)
(1.68758 0.30613 -1.6048e-18)
(2.17992 0.344451 3.6121e-18)
(0.809011 -0.394513 -4.13714e-19)
(0.886453 -0.207581 -1.21658e-18)
(0.605628 -0.0829195 -1.25598e-19)
(0.54936 -0.0153524 -8.42701e-20)
(0.571455 0.0276063 -9.91911e-34)
(0.661413 0.0546022 9.35742e-20)
(0.805324 0.0846243 -1.48451e-32)
(1.01616 0.122957 -1.93435e-19)
(1.29245 0.167314 2.98973e-19)
(1.69929 0.192073 7.05791e-19)
(0.664258 -0.288841 3.42549e-17)
(0.618254 -0.1081 -3.13988e-18)
(0.393416 -0.0351363 -2.40587e-19)
(0.339214 -0.00737265 -1.59513e-19)
(0.353522 0.00924251 3.94363e-19)
(0.410349 0.0183736 7.84569e-19)
(0.501123 0.0292058 7.95513e-19)
(0.636707 0.0448906 4.59901e-19)
(0.820748 0.0634581 -1.90475e-19)
(1.10156 0.0762258 3.56951e-18)
(0.336839 -0.0768227 5.58843e-19)
(0.26185 -0.00230499 -6.7661e-33)
(0.144392 0.0190771 -3.04801e-19)
(0.120356 0.00338204 0)
(0.123547 -0.00235576 0)
(0.141808 -0.00542091 9.63015e-20)
(0.172346 -0.00624887 9.36827e-35)
(0.220289 -0.00417818 -1.23568e-19)
(0.288129 -0.00161959 -2.82637e-19)
(0.399011 0.00331817 1.00162e-18)
(2.00207 1.09646 -1.78994e-18)
(2.23908 1.0785 -2.30496e-18)
(2.44209 1.02913 0)
(2.63708 0.952521 -7.57971e-19)
(2.82359 0.852522 -1.78254e-18)
(2.99276 0.732399 -2.24949e-18)
(3.13709 0.595047 -4.75765e-19)
(3.25054 0.442701 1.26927e-18)
(3.32824 0.276966 -3.54789e-18)
(3.36764 0.0986983 1.35668e-18)
(2.49869 1.14204 2.67775e-19)
(2.73058 1.08196 1.39743e-18)
(2.92388 1.00423 1.43928e-19)
(3.10674 0.909827 6.75739e-19)
(3.28061 0.800679 -1.10401e-18)
(3.43997 0.678338 -5.00059e-18)
(3.58097 0.544021 2.46812e-18)
(3.70048 0.399327 1.27036e-17)
(3.79428 0.246328 1.04072e-19)