# Selection   : all
# Cells       : 440
# Volume      : 7.374263e+01
# Time        	maxMag(U)
4.21          	2.701135e+00
4.255         	2.692228e+00
4.305         	2.683631e+00
