# Selection   : all
# Cells       : 440
# Volume      : 7.374263e+01
# Time        	max(p)
9.115         	1.956330e+00
9.16          	1.956438e+00
9.21          	1.953353e+00
