/*--------------------------------*- C++ -*----------------------------------*\
  =========                 |
  \\      /  F ield         | OpenFOAM: The Open Source CFD Toolbox
   \\    /   O peration     | Website:  https://openfoam.org
    \\  /    A nd           | Version:  13
     \\/     M anipulation  |
\*---------------------------------------------------------------------------*/
FoamFile
{
    format      ascii;
    class       volVectorField;
    location    "5.04";
    object      U;
}
// * * * * * * * * * * * * * * * * * * * * * * * * * * * * * * * * * * * * * //

dimensions      [0 1 -1 0 0 0 0];

internalField   nonuniform List<vector> 
440
(
(-0.0782023 0.053183 -6.98471e-20)
(-0.11213 0.0898216 1.03888e-20)
(-0.028343 0.0904771 9.73985e-20)
(0.346443 0.137547 2.62146e-19)
(0.197857 0.346003 1.02094e-20)
(-0.0953838 0.0512942 3.1719e-20)
(0.00831802 0.0246214 -1.21598e-19)
(0.425932 -0.0134633 -1.12249e-19)
(0.952451 -0.0280371 6.58493e-20)
(1.32651 -0.00759206 1.66328e-20)
(-0.0411106 0.0171773 5.29389e-20)
(0.408685 -0.0210494 6.16286e-19)
(1.12853 -0.00545705 -3.12822e-19)
(1.68687 0.0294118 -9.80586e-19)
(2.20502 0.0496894 2.98435e-19)
(0.154301 -0.0337707 -1.64717e-19)
(1.0586 0.00888096 -4.37004e-19)
(1.80258 0.0795321 1.40202e-18)
(2.2462 0.124523 1.46609e-18)
(2.34873 0.141698 -4.1933e-19)
(0.483365 -0.00600957 -2.66858e-19)
(1.5799 0.169972 -5.36844e-19)
(2.13196 0.257201 1.60165e-18)
(2.2832 0.282188 1.77754e-18)
(2.3781 0.266694 6.06277e-19)
(-0.00148002 -0.2035 -1.44477e-19)
(-0.0973221 -0.223679 1.5454e-19)
(-0.194796 -0.156664 -2.44811e-19)
(-0.280871 -0.0783463 5.27126e-20)
(-0.341098 0.00739059 3.72294e-19)
(-0.0117178 -0.0481369 -3.31845e-20)
(-0.130038 -0.0154668 -9.97819e-20)
(-0.243059 0.0210732 -6.2166e-20)
(-0.333171 0.0766265 -4.92772e-20)
(-0.398212 0.146214 7.62076e-20)
(-0.0392455 0.0795244 8.35285e-20)
(-0.136173 0.21506 7.91542e-21)
(-0.207853 0.252047 6.37942e-20)
(-0.251617 0.239056 -7.6458e-20)
(-0.281246 0.238844 3.95833e-21)
(-0.0255741 0.0499505 -9.99644e-21)
(-0.0852357 0.198961 2.54476e-20)
(-0.119881 0.30449 2.25425e-20)
(-0.135449 0.347708 -1.96441e-19)
(-0.135271 0.356063 5.33185e-20)
(-0.0371513 0.0297796 -3.2519e-20)
(-0.121026 0.114781 -4.97126e-20)
(-0.184188 0.222808 -1.44193e-19)
(-0.166271 0.3027 1.11343e-19)
(-0.146973 0.422321 5.75237e-21)
(-0.460192 0.464001 9.27327e-19)
(-0.604422 0.562735 4.13285e-19)
(0.445553 -0.1906 3.77443e-19)
(0.900594 -0.543453 -2.37774e-19)
(1.04696 -0.39906 -3.83201e-21)
(-0.592991 0.48678 -6.83876e-19)
(-0.0774501 0.398587 -5.41698e-20)
(0.748251 -0.374397 1.11548e-19)
(1.20982 -0.629586 3.93887e-19)
(1.27052 -0.415099 2.6111e-20)
(-0.465808 0.355721 -3.51238e-19)
(0.4996 0.190643 1.77106e-19)
(1.14688 -0.520261 -7.02658e-20)
(1.42144 -0.706052 2.39369e-19)
(1.40017 -0.429948 1.37328e-20)
(-0.288063 0.302892 2.76586e-19)
(1.09172 0.0451243 3.09415e-20)
(1.71817 -0.564055 1.52345e-19)
(1.76819 -0.706164 -1.0501e-19)
(1.504 -0.424305 1.18012e-19)
(-0.150373 0.111103 -9.12754e-20)
(1.52929 -0.216566 1.36915e-19)
(2.097 -0.628495 0)
(2.09864 -0.661548 -1.67255e-20)
(1.61308 -0.38347 4.35459e-20)
(1.25892 0.093015 -2.12349e-19)
(2.06748 -0.378052 -9.93096e-20)
(2.31736 -0.673193 -1.64453e-20)
(2.27152 -0.582924 7.02784e-20)
(1.67048 -0.308899 -1.34108e-19)
(2.11553 0.0886362 -1.42134e-20)
(2.57611 -0.435806 7.95965e-19)
(2.3257 -0.703462 -1.0351e-20)
(2.07763 -0.468099 -2.17809e-20)
(1.46655 -0.174959 0)
(2.33127 -0.00123679 -2.11962e-19)
(2.58699 -0.394472 -4.91096e-21)
(1.99276 -0.496823 2.45184e-19)
(1.68978 -0.269683 -3.34859e-21)
(1.29195 -0.0902245 -3.49139e-20)
(2.27942 -0.051746 9.05134e-20)
(2.32261 -0.295386 2.24709e-19)
(1.68679 -0.40135 -2.83711e-21)
(1.12688 -0.181245 -3.89923e-34)
(0.804172 -0.0198192 6.6439e-20)
(1.57839 -0.0509449 6.79311e-20)
(1.21457 -0.106898 8.22191e-20)
(0.429873 0.00023566 -7.15272e-20)
(0.112344 0.0409997 -9.78811e-21)
(0.095841 0.0169688 7.98908e-21)
(2.34908 0.298861 -7.39525e-19)
(2.50257 0.0922508 -8.75856e-19)
(2.3801 0.124795 4.82498e-19)
(2.53374 -0.0184528 9.04099e-20)
(1.94119 0.145864 -7.55938e-21)
(2.08408 0.173946 8.39496e-20)
(2.33417 0.080928 -3.44118e-20)
(2.23244 -0.00229424 -1.14336e-19)
(2.39596 -0.0389657 -1.69055e-19)
(2.29047 -0.161003 -4.64799e-21)
(2.08493 0.0567237 8.09141e-20)
(2.23611 0.0495489 6.5459e-20)
(2.22195 -0.0648145 -5.45352e-20)
(2.29751 -0.0321935 2.7075e-20)
(2.30549 -0.149949 -2.345e-20)
(2.13305 -0.0211954 1.16237e-19)
(2.19195 -0.00885744 1.79525e-19)
(2.22309 -0.0832443 -1.98396e-20)
(2.24135 -0.0556056 -9.47183e-20)
(2.27982 -0.124945 3.31357e-20)
(1.58323 -0.0224386 1.94382e-19)
(1.58838 -0.0214602 -1.17765e-20)
(1.56942 -0.0263332 1.78361e-20)
(1.56511 -0.0264474 -4.67269e-20)
(1.5577 -0.0319459 -4.26503e-20)
(1.56091 0.893702 1.12444e-18)
(1.52266 0.986241 -3.66398e-19)
(1.51492 1.10284 -1.32125e-18)
(1.42983 1.1243 6.99063e-19)
(0.865862 0.77642 -1.61587e-19)
(1.80755 0.851015 -5.61624e-19)
(1.78465 0.917675 -3.00327e-18)
(1.78942 1.01005 -1.13567e-18)
(1.67819 0.991674 -3.77012e-19)
(0.999257 0.653561 -5.94369e-19)
(2.1012 0.721756 7.46772e-19)
(2.07775 0.775945 1.82722e-19)
(2.04222 0.843185 -2.18765e-18)
(1.8796 0.809508 -5.67443e-19)
(1.07148 0.499922 3.94559e-19)
(2.23394 0.600163 2.18392e-18)
(2.21902 0.638579 1.55672e-18)
(2.20036 0.669279 -1.74409e-18)
(1.9485 0.605794 -1.28017e-18)
(1.01932 0.318444 -2.17233e-19)
(2.37343 0.433456 1.02352e-18)
(2.35863 0.446657 -7.06923e-19)
(2.23276 0.453187 5.14171e-19)
(1.86507 0.378715 3.74243e-19)
(0.824831 0.131095 -3.05297e-19)
(0.593301 0.461954 -6.99033e-19)
(0.49857 0.499726 -5.4343e-19)
(0.375671 0.536834 6.34365e-20)
(0.233432 0.53545 -1.08275e-20)
(0.0567165 0.377165 7.75308e-20)
(0.70516 0.634183 7.49374e-20)
(0.641111 0.691024 -3.24789e-19)
(0.548599 0.756783 1.82831e-19)
(0.416067 0.818191 -8.49793e-20)
(0.179909 0.625643 1.2145e-19)
(0.766552 0.844452 1.01781e-19)
(0.693644 0.932588 4.77427e-19)
(0.642806 1.03349 1.09758e-19)
(0.562364 1.06946 -3.08365e-19)
(0.309838 0.783837 2.55974e-19)
(1.08303 0.917193 2.31389e-19)
(1.02259 0.996493 -7.04779e-19)
(0.961514 1.09372 -1.94317e-18)
(0.875042 1.16 7.75739e-19)
(0.514987 0.854986 -1.66314e-19)
(1.13008 0.99045 -1.12758e-19)
(1.16379 1.10835 -1.89755e-19)
(1.1809 1.21337 -3.55501e-19)
(1.1199 1.2198 -3.97526e-19)
(0.685649 0.855167 -6.38098e-21)
(0.988073 0.0405867 -8.99131e-20)
(1.03219 0.0173774 -2.91852e-20)
(1.02716 0.133586 -2.44507e-21)
(0.957088 0.101249 -1.90831e-19)
(0.926702 0.271618 3.02196e-19)
(0.977474 0.0362949 5.63566e-20)
(1.05496 0.0144005 1.00944e-19)
(1.00293 0.146421 1.21319e-19)
(0.994126 0.113958 1.97173e-20)
(0.953333 0.361352 5.28597e-21)
(0.986698 0.0340792 7.59449e-20)
(1.03837 0.00586989 -3.92493e-21)
(1.04084 0.167594 -1.03381e-21)
(0.948313 0.120472 1.54076e-19)
(1.17753 0.502911 -4.56836e-19)
(0.985662 0.0316384 -1.66228e-22)
(1.05212 -0.00196675 -1.4787e-19)
(1.02211 0.191907 -6.273e-20)
(1.05633 0.0896742 -3.7119e-19)
(1.21437 0.569055 8.87171e-20)
(0.991206 0.0251353 -1.25679e-20)
(1.0414 0.00230441 4.08854e-20)
(1.06169 0.18112 2.92783e-20)
(1.05018 0.127653 4.58656e-19)
(1.37156 0.719599 -4.47706e-19)
(0.976862 0.0259091 -8.7921e-21)
(1.08112 -0.0173025 8.45375e-20)
(1.02055 0.213325 -6.67225e-20)
(1.30118 0.0393371 1.02715e-18)
(1.34841 0.754356 -3.60759e-19)
(0.961987 0.00023904 -1.08921e-21)
(1.12078 -0.00520804 -7.27896e-20)
(0.970974 0.119363 5.39047e-21)
(1.46375 0.00220308 -3.44641e-19)
(1.24042 0.581498 -4.60028e-20)
(0.982928 -0.0100746 5.36435e-21)
(1.09529 0.00248165 1.34178e-35)
(1.06906 0.0556854 -1.2677e-20)
(1.36288 -0.0165385 8.55846e-20)
(1.13483 0.481566 1.59508e-19)
(1.03011 -0.0453628 3.40132e-21)
(0.997911 -0.0153536 -2.59327e-20)
(1.19899 -0.0135315 1.9789e-20)
(1.06154 0.0224862 1.9377e-20)
(1.29301 0.342634 -2.43179e-19)
(0.944184 -0.022464 -3.84485e-20)
(0.816615 -0.0241778 -2.90843e-22)
(0.917405 -0.00763964 2.36593e-20)
(0.654622 0.00539183 -1.82911e-20)
(1.14394 0.0929231 -5.57637e-20)
(1.79716 0.676445 2.91261e-19)
(1.87558 0.710993 7.3382e-19)
(2.11411 0.567637 -1.02685e-18)
(2.18007 0.545141 4.95336e-20)
(2.36204 0.332005 4.18648e-19)
(1.66987 0.474731 5.73589e-20)
(1.65064 0.499733 9.11841e-19)
(1.90022 0.391012 9.58208e-20)
(1.87501 0.366185 -8.35944e-19)
(2.14268 0.222836 -2.64467e-19)
(1.56773 0.355529 -2.03553e-19)
(1.64435 0.313246 -1.42569e-19)
(1.8516 0.257939 1.77108e-19)
(1.88758 0.192512 -2.67317e-19)
(2.08597 0.145842 2.51466e-19)
(1.69594 0.224483 4.04914e-19)
(1.8129 0.170741 -9.18916e-22)
(1.94491 0.137372 2.14089e-19)
(2.00108 0.0719487 1.80354e-19)
(2.0999 0.0551648 -1.88625e-19)
(1.43632 0.0404834 -5.44483e-20)
(1.52585 0.0201987 2.57381e-19)
(1.57801 0.00288014 1.00855e-19)
(1.58704 -0.00999348 -2.13613e-19)
(1.602 -0.016332 3.67237e-22)
(1.27869 -0.0284736 7.41309e-20)
(2.34437 -0.0331824 -5.08549e-19)
(2.56766 -0.0263699 1.34725e-18)
(2.5385 0.022628 5.9216e-19)
(2.35566 0.040053 -4.16499e-19)
(0.820682 0.101825 1.43241e-19)
(2.11658 0.102938 -5.07044e-19)
(2.57545 0.10768 -7.04973e-19)
(2.62418 0.113159 8.97274e-19)
(2.37656 0.108811 -6.27232e-19)
(0.268848 0.0918725 -2.26912e-20)
(1.46936 0.179565 5.66751e-19)
(2.23434 0.204444 8.40488e-20)
(2.59268 0.203817 7.03682e-19)
(2.71477 0.183338 3.42284e-19)
(-0.0209299 -0.00931339 2.27053e-19)
(0.604698 0.1265 2.32657e-19)
(1.45748 0.21797 -5.43207e-19)
(1.99207 0.258221 3.72154e-20)
(2.53195 0.291219 1.99962e-19)
(-0.0964036 -0.0772436 1.62233e-19)
(0.0528219 -0.0249438 -1.82723e-19)
(0.580465 0.0803834 -2.6864e-20)
(1.08716 0.139055 6.19306e-20)
(1.61149 0.238937 3.45258e-21)
(-0.0870678 -0.0995011 5.41547e-21)
(-0.114116 -0.147628 1.00019e-19)
(0.0562214 -0.128177 3.92635e-20)
(0.306736 -0.0517038 -4.74085e-20)
(0.815408 0.0889322 7.44822e-21)
(-0.0654698 -0.108274 -2.61289e-20)
(-0.105917 -0.214386 -6.6146e-20)
(-0.0695149 -0.235787 -9.36576e-21)
(0.03 -0.180992 -1.32213e-20)
(0.257124 -0.0351567 5.65572e-21)
(-0.0584671 -0.178412 -2.61415e-20)
(-0.068958 -0.352035 4.54852e-20)
(-0.0390867 -0.389579 3.2385e-20)
(0.0172003 -0.345127 3.45753e-19)
(0.0907813 -0.244367 -9.79741e-20)
(-0.0495307 -0.293112 1.47214e-20)
(-0.0551813 -0.477191 1.63397e-19)
(-0.0456591 -0.469699 -5.80092e-19)
(-0.027141 -0.38824 -5.51914e-19)
(-0.00779003 -0.289033 1.0396e-19)
(-0.0238426 -0.30906 -1.14195e-20)
(-0.0806 -0.41324 4.99078e-20)
(-0.144149 -0.353448 -1.74153e-20)
(-0.20422 -0.256172 -5.4606e-20)
(-0.241394 -0.151187 -1.4221e-20)
(1.49077 0.537565 -5.24404e-20)
(1.12988 0.313661 5.92221e-19)
(0.618281 0.0441656 -9.8399e-20)
(0.435067 -0.0857188 -5.9455e-20)
(0.788748 -0.0710846 8.83098e-22)
(1.30922 0.48624 6.30565e-20)
(0.929237 0.395974 1.28182e-19)
(0.224517 0.126803 -1.02833e-19)
(0.113464 -0.1226 -8.61035e-21)
(0.65501 -0.131062 -1.30661e-20)
(0.997936 0.287554 9.02405e-20)
(0.435431 0.512003 6.06727e-19)
(-0.123812 0.202736 6.82453e-20)
(0.0338868 -0.228628 -3.78918e-19)
(0.635372 -0.215154 -8.04986e-21)
(0.351146 0.298406 -1.71778e-19)
(-0.318896 0.65492 -1.76681e-18)
(-0.125664 0.181153 -3.05696e-19)
(0.157736 -0.343138 5.93646e-21)
(0.690272 -0.297481 3.03023e-21)
(-0.217205 0.417656 -1.58795e-19)
(-0.790568 0.65569 -9.64805e-20)
(0.128045 0.0149814 3.80975e-19)
(0.468679 -0.454354 -4.9359e-20)
(0.822619 -0.364338 -8.64975e-21)
(0.470133 0.147904 -6.67438e-20)
(-0.189086 -0.0662897 0)
(-0.0669719 -0.0958196 -5.01732e-20)
(0.128742 -0.0494849 2.98559e-20)
(0.351811 -0.0200441 9.16476e-21)
(1.99313 0.477698 0)
(1.31463 0.26601 0)
(0.844473 0.00203075 3.63566e-19)
(0.750899 -0.079334 3.93433e-20)
(0.922756 -0.0468351 -7.09053e-21)
(0.756763 0.00272359 -1.43885e-19)
(0.853369 0.000496108 3.41095e-19)
(0.969674 -0.00179271 -2.35984e-20)
(1.07596 0.0156556 2.8559e-19)
(1.35936 0.0957385 1.90574e-19)
(1.70108 0.029051 1.3887e-19)
(1.91156 0.079602 4.13673e-19)
(2.02188 0.0819608 -3.92054e-19)
(2.58073 0.209789 5.72801e-20)
(2.29355 0.208723 1.90873e-19)
(0.944523 -0.505168 -2.09585e-21)
(0.935707 -0.599535 -1.9501e-19)
(0.926412 -0.698373 -1.51552e-19)
(0.854063 -0.768093 9.3608e-20)
(0.525819 -0.612462 1.43723e-19)
(0.838228 -0.407021 1.15548e-19)
(0.782746 -0.475536 1.89642e-19)
(0.710107 -0.553378 -8.20844e-20)
(0.598168 -0.621084 1.53328e-19)
(0.331367 -0.498336 5.02235e-20)
(0.671004 -0.266424 -1.26965e-19)
(0.582871 -0.308748 -6.12606e-20)
(0.48124 -0.361863 4.25825e-20)
(0.361649 -0.410429 -3.76102e-20)
(0.165877 -0.333651 -1.41103e-19)
(0.573096 -0.0305883 -4.54904e-19)
(0.48646 -0.0479444 -3.70637e-19)
(0.373861 -0.0738152 3.04568e-19)
(0.243201 -0.106561 1.6691e-19)
(0.0714255 -0.108596 1.43475e-20)
(0.545573 0.182256 -1.47517e-19)
(0.456429 0.182791 -1.62423e-19)
(0.33435 0.180967 -4.9846e-20)
(0.192203 0.185129 4.14029e-20)
(0.0302619 0.136685 1.30068e-20)
(2.13072 -0.033388 8.96292e-19)
(2.3829 -0.103774 3.08052e-19)
(2.45844 -0.191776 -8.13142e-19)
(2.32398 -0.218843 -1.72855e-18)
(1.42601 -0.204402 1.3902e-19)
(2.09477 -0.12779 1.50678e-18)
(2.18917 -0.246121 1.98022e-18)
(2.21281 -0.376434 1.66927e-19)
(2.14295 -0.435397 2.94047e-19)
(1.39248 -0.392611 -1.94873e-19)
(1.77852 -0.294291 -3.84642e-18)
(1.83715 -0.411476 4.13963e-19)
(1.89283 -0.539697 1.21512e-18)
(1.85416 -0.623886 -4.67443e-19)
(1.22567 -0.546311 7.52752e-19)
(1.56932 -0.421826 9.14065e-19)
(1.59425 -0.527141 -2.43166e-18)
(1.58425 -0.650121 -2.79501e-18)
(1.51778 -0.741696 8.75539e-19)
(0.988694 -0.623636 5.91801e-19)
(1.26089 -0.477618 2.0632e-19)
(1.21381 -0.573395 2.81278e-19)
(1.21135 -0.703419 -4.33735e-19)
(1.16597 -0.801857 -5.23315e-19)
(0.747338 -0.649924 -4.93026e-21)
(1.01361 0.041055 7.41612e-21)
(1.00024 0.0557118 -2.85006e-21)
(1.10922 0.0882588 2.24074e-21)
(0.839385 -0.0136085 -2.56461e-19)
(1.13042 -0.216131 -1.96914e-20)
(1.0296 0.0440834 -2.38107e-21)
(0.970963 0.0470136 4.56918e-20)
(1.11936 0.108686 -1.02157e-20)
(0.918065 0.0269095 2.19923e-19)
(1.01759 -0.103749 1.98855e-21)
(1.03601 0.0424437 -5.75315e-20)
(0.959577 0.037702 5.68588e-22)
(1.10163 0.108376 -8.58537e-21)
(0.923424 0.0508054 1.12328e-19)
(0.98067 -0.0409995 -2.53804e-19)
(1.02468 0.0436029 6.92988e-20)
(0.979616 0.0293008 2.46587e-21)
(1.06429 0.112831 2.50802e-20)
(0.954195 0.0723559 -5.37132e-20)
(0.887984 0.0683142 7.04417e-20)
(1.00241 0.041382 1.74395e-20)
(1.01532 0.0268935 -2.37261e-20)
(1.02756 0.115892 3.76763e-20)
(0.971289 0.0945934 4.13699e-20)
(0.869769 0.171119 -3.92761e-20)
(0.879411 0.0329331 0)
(0.765151 0.0302961 1.04482e-20)
(0.56867 0.0194424 5.17879e-21)
(0.401279 -0.013346 5.19314e-20)
(0.720648 -0.0517058 -1.73434e-19)
(0.986807 0.0628269 -6.2996e-20)
(1.02969 0.0769052 -1.25598e-20)
(0.987993 0.0822861 -5.78297e-20)
(0.844025 -0.019024 -1.44688e-19)
(1.04895 -0.201361 -1.82175e-19)
(0.997786 -0.0639339 -3.89907e-20)
(1.08839 -0.0306852 5.8279e-19)
(1.18641 0.0413718 3.4303e-19)
(1.055 0.0593884 3.42054e-20)
(0.822151 0.030957 0)
(1.34491 -0.320566 3.88256e-19)
(1.46477 -0.283928 1.65313e-18)
(1.65504 -0.162832 -1.77629e-18)
(1.76378 -0.0206291 -5.59976e-19)
(1.68212 0.033028 4.18726e-19)
)
;

boundaryField
{
    left
    {
        type            fixedValue;
        value           uniform (1 0 0);
    }
    right
    {
        type            zeroGradient;
    }
    down
    {
        type            noSlip;
    }
    up
    {
        type            noSlip;
    }
    cylinder
    {
        type            noSlip;
    }
    defaultFaces
    {
        type            empty;
    }
}


// ************************************************************************* //
