/*--------------------------------*- C++ -*----------------------------------*\
  =========                 |
  \\      /  F ield         | OpenFOAM: The Open Source CFD Toolbox
   \\    /   O peration     | Website:  https://openfoam.org
    \\  /    A nd           | Version:  13
     \\/     M anipulation  |
\*---------------------------------------------------------------------------*/
FoamFile
{
    format      ascii;
    class       surfaceScalarField;
    location    "70";
    object      phi;
}
// * * * * * * * * * * * * * * * * * * * * * * * * * * * * * * * * * * * * * //

dimensions      [0 3 -1 0 0 0 0];

internalField   nonuniform List<scalar> 
823
(
-0.00477898
0.0163556
-0.0115766
0.00606506
0.00964989
-0.0204939
0.0568439
-0.0345779
-0.016201
0.145505
-0.0933367
0.00467582
-0.123889
-0.00560593
0.274999
0.00597585
0.0103797
0.0527329
-0.0371072
0.142639
-0.124484
0.253868
-0.204566
-0.275102
0.405082
0.0230092
-0.0126294
0.108215
-0.122313
0.2191
-0.235369
0.32617
-0.311636
-0.355881
0.40695
0.043614
-0.0562434
0.138862
-0.217561
0.222179
-0.318686
0.273386
-0.362844
-0.377246
0.294751
0.0562535
-0.112497
0.126237
-0.287544
0.166363
-0.358812
0.182418
-0.378899
0.191177
-0.386005
0.0144424
-0.0444745
0.030032
0.028941
-0.0642265
0.0497279
0.048947
-0.0639219
0.0439159
0.0795641
-0.0529148
0.0222977
-0.0265338
0.119621
-0.0135229
0.00301633
-0.0474908
-0.00191654
-0.0592936
-0.00682594
-0.0590125
-0.00151205
-0.0582287
-0.0455526
0.0175068
-0.00981923
-0.0376716
-0.0286059
-0.0405069
-0.0571797
-0.0304387
-0.0913875
-0.0240209
-0.0118745
-0.125066
-0.0199281
-0.0177435
-0.0471826
-0.0132525
-0.0762082
-0.00141309
-0.104157
0.00392799
0.014339
-0.130371
-0.0293201
-0.0630665
-0.0806806
-0.0720768
-0.0633437
0.387483
1.6396
-1.90746
0.456237
0.308625
-0.377379
0.479015
-1.87815
1.85537
0.513584
-0.928952
0.894382
-0.130805
0.114664
0.366578
1.29053
0.578782
0.0964206
0.621071
-1.92044
0.572414
-0.880295
-0.100012
0.264901
0.900561
0.597118
-0.235797
0.579946
-1.90327
0.5764
-0.876748
-0.0656683
0.234369
0.535821
0.62237
-0.623798
0.533889
-1.81479
0.508123
-0.850982
-0.0590208
0.267855
0.204623
0.607066
-0.963009
0.52385
-1.73157
0.452184
-0.779316
-0.0570919
1.18126
0.120848
-1.09748
1.36569
-1.14744
1.01958
-1.38547
0.744577
-0.504309
-0.0130366
1.48549
0.00797725
-1.37262
1.36474
-1.02669
0.812122
-0.832844
0.565027
-0.257214
-0.0795008
1.44092
-0.0966165
-1.33633
1.19388
-0.779645
0.802639
-0.441608
0.666491
-0.121066
-0.118684
1.35535
-0.167034
-1.28493
0.953195
-0.377489
0.648299
-0.136712
0.608056
-0.0808232
-0.0768182
0.722907
-0.889941
0.345417
0.208706
0.127882
1.08664
0.14424
-1.0397
1.14817
0.233216
1.25106
0.304065
1.25146
0.404681
0.428974
1.00962
0.0796538
-0.945033
1.07535
0.167485
1.17488
0.204534
1.2703
0.309263
0.326653
0.944591
0.040895
-0.905832
1.00868
0.103394
1.09094
0.122281
1.21045
0.18975
0.200774
0.895826
0.0120345
-0.866966
0.96248
0.0367403
1.03918
0.0455838
1.15982
0.069104
0.0756632
0.66285
-0.650815
0.69959
0.745174
0.814278
0.124349
0.294671
-0.244523
-0.174497
0.0817635
0.300173
-0.257588
0.0441802
0.310272
-0.272689
0.0138193
0.300036
-0.269676
0.19115
-0.17733
0.0923432
0.330765
-0.128437
0.0577251
0.334792
0.0277701
0.340227
0.00479732
0.323009
0.195947
0.0546473
0.361812
-0.0856947
0.0259394
0.3635
0.00230353
0.363863
-0.0081014
0.333414
0.187846
-0.0163104
0.378749
-0.000625977
-0.031892
0.379081
-0.0380651
0.370036
-0.0278643
0.323213
0.159981
-0.0945589
0.0873029
-0.0943768
-0.0831534
-0.0474844
0.203896
0.0984045
-0.257629
-0.0446719
0.149342
0.102172
-0.0476173
0.0932378
0.106388
-0.050284
0.0381954
0.105844
-0.0508017
0.0744307
-0.0362353
0.200228
0.143481
-0.245304
0.152375
0.150025
0.0992482
0.159514
0.0424352
0.162657
0.116866
0.143369
0.188782
-0.188671
0.101142
0.192253
0.0602622
0.200394
0.0220614
0.200858
0.138927
0.153576
0.222216
-0.18701
0.113773
0.232056
0.0695238
0.244642
0.0267247
0.243657
0.165652
0.0912746
-0.113582
0.065743
0.0376969
0.0116784
0.405679
0.049578
-0.0592773
0.428481
0.00326476
-0.0260669
0.411919
0.195594
-0.179032
0.397358
0.165195
-0.150634
0.427213
-0.287484
0.404611
0.0409469
0.422385
-0.0145096
0.399806
0.218173
0.386895
0.178106
0.568804
0.399649
0.037277
0.416003
-0.0308631
0.37745
0.256726
0.372
0.183556
0.752133
0.398719
0.0345372
0.399502
-0.0316457
0.363704
0.292524
0.350504
0.196756
0.915627
0.392338
0.0381787
0.384132
-0.0234396
0.333813
0.342843
0.32313
0.20744
1.12517
0.632156
0.0100435
0.634906
-0.02619
0.678903
0.298845
0.786961
0.0993821
0.940568
0.971568
0.647254
-0.0331901
0.616359
0.00470465
0.700825
0.214379
0.761832
0.0383755
0.735102
0.967297
0.639985
-0.0691547
0.621821
0.0228684
0.715398
0.120802
0.772812
-0.0190378
0.512411
0.995503
0.607816
-0.0729502
0.639767
-0.00908303
0.746074
0.0144955
0.751346
-0.0243095
0.257725
1.00603
0.53107
0.521987
0.536483
0.512173
0.769898
0.998991
-0.20192
0.994859
-0.124305
0.998724
-0.0895595
1.00769
-0.00959657
0.055297
0.931216
-0.165838
0.92032
-0.113409
0.906452
-0.0756914
0.924701
-0.027846
0.0349651
0.937379
-0.107714
0.908512
-0.0845428
0.887706
-0.0548847
0.887738
-0.0278779
0.0168703
0.939564
-0.0412463
0.891684
-0.0366622
0.862751
-0.0259517
0.851767
-0.0168946
0.0016719
0.728652
0.691989
0.666038
0.649143
0.0491614
0.180315
-0.229477
0.0700789
0.369814
-0.390732
0.0682799
0.419161
-0.417362
0.0591975
0.416338
-0.407255
0.381218
0.0470978
-0.369118
0.0775324
0.102783
0.1434
0.303947
0.171406
0.391155
0.175397
0.412347
0.392989
0.163626
0.0707867
0.0319963
0.181773
0.192961
0.258349
0.314579
0.295311
0.375384
0.402018
0.286282
0.0383046
-0.0063083
0.152177
0.0790881
0.271875
0.194882
0.372656
0.274603
0.350545
0.424129
0.0120155
-0.0183238
0.0813836
0.00971998
0.192673
0.0835924
0.313549
0.153727
0.253284
0.41081
0.0030082
-0.021332
0.0324817
-0.0197536
0.102381
0.0136933
0.196869
0.0592388
0.153206
0.296947
0.00173542
-0.0230674
0.0110046
-0.0290227
0.0362537
-0.0115557
0.0756281
0.0198644
0.0804469
0.148387
-0.00319769
-0.0198697
-0.00510479
-0.0271156
-0.00470772
-0.0119528
-0.00131533
0.016472
0.0581608
0.0209708
-0.000282112
-0.0195876
0.00461449
-0.0320122
0.0130294
-0.0203677
0.0205957
0.00890565
0.0511366
0.0276199
0.0104444
0.0281601
0.0517083
0.0829116
0.120525
0.180819
1.18251
-1.06639
0.0548979
0.5187
-0.392779
0.252299
-0.362684
0.165283
0.358758
-0.315722
0.209263
-0.0163602
0.0381382
-0.0283314
1.35923
-0.152395
0.642763
0.279794
-0.794873
0.431424
-0.467352
-0.00423153
-0.306055
1.68626
-0.292465
0.629173
0.287807
-1.37514
0.444519
-0.624064
-0.0294773
-0.217413
1.93129
-0.0981243
0.509884
0.276825
-1.75009
0.440498
-0.787737
-0.0802853
0.144357
0.276862
0.382142
0.488787
-0.154822
0.609176
-0.454354
-0.180372
0.0255499
-0.0238888
-0.156483
0.136277
-0.160165
-0.0569197
0.674331
-1.13154
0.307102
0.315903
0.365
0.0906166
-0.0101249
-0.0804917
0.14243
-0.0518133
0.21761
-0.0751802
0.34361
-0.126
-0.110744
0.210433
-0.17346
0.322246
0.533347
0.831476
0.147298
-0.151518
0.18242
-0.1782
0.11302
-0.158188
0.192467
0.0736029
-0.1669
0.206317
0.0303935
-0.168058
0.211268
-0.119773
0.150166
0.190746
-0.110692
-0.231572
0.144698
-0.112141
0.0924826
-0.114684
0.0384861
-0.114062
-0.0812865
0.191993
-0.0596873
-0.242998
0.139943
-0.0600913
0.0870951
-0.0618356
0.0356159
-0.0625826
-0.0456705
0.205278
-0.00720622
-0.257759
0.152097
-0.00691028
0.0971418
-0.00688036
0.0411215
-0.00656234
-0.00454901
0.20984
-0.261718
0.155313
0.0981484
0.0407843
0.0512513
-0.347699
-0.0726706
0.0224589
-0.378463
-0.00294082
-0.391962
-0.0151117
-0.378561
-0.244588
0.13368
-0.313649
-0.16773
0.0896718
-0.334455
0.0451899
-0.347481
0.0103792
-0.34375
-0.234209
0.156276
-0.270585
-0.19934
0.109828
-0.288007
0.0645177
-0.30217
0.0234373
-0.30267
-0.210772
0.173957
-0.232228
-0.212314
0.128461
-0.242511
0.0797445
-0.253453
0.0322598
-0.255185
-0.178512
0.169444
-0.219253
0.1194
0.0722633
0.0283461
0.392166
0.0944806
-0.0906673
0.394361
0.085906
-0.088101
0.360748
0.150601
-0.116988
0.310531
0.030108
0.0201088
-0.248473
0.380804
0.399363
0.0910968
0.409211
0.0760583
0.397872
0.16194
0.355623
0.072357
-0.124422
0.40414
0.0829365
0.418436
0.0617626
0.41166
0.168716
0.378478
0.105539
0.0110578
0.407507
0.0714092
0.424085
0.0451848
0.420823
0.171978
0.395892
0.130471
0.14919
0.408111
0.427229
0.420175
0.400012
0.417294
0.0927572
0.336886
0.0804078
0.253586
0.0832998
0.269567
-0.0159805
-0.20626
0.475827
0.512141
0.504448
0.47076
0.474888
0.649432
0.381911
0.093916
0.29835
0.0835613
0.200183
0.0981669
0.116565
0.0836174
0.0360736
0.524095
0.395342
0.294169
0.210057
)
;

boundaryField
{
    left
    {
        type            calculated;
        value           nonuniform List<scalar> 
17
(
-0.60402
-0.60402
-0.60402
-0.60402
-0.60402
-0.39598
-0.39598
-0.39598
-0.39598
-0.39598
-0.39598
-0.39598
-0.39598
-0.39598
-0.39598
-0.510051
-0.510051
)
;
    }
    right
    {
        type            calculated;
        value           nonuniform List<scalar> 
17
(
0.193196
0.346219
0.33698
0.419295
0.469764
0.491306
0.523166
0.529725
0.541621
0.542056
0.501475
0.450255
0.700521
0.631491
0.705674
0.56619
0.0510641
)
;
    }
    down
    {
        type            calculated;
        value           uniform 0;
    }
    up
    {
        type            calculated;
        value           uniform 0;
    }
    cylinder
    {
        type            calculated;
        value           uniform 0;
    }
    defaultFaces
    {
        type            empty;
    }
}


// ************************************************************************* //
