# Selection   : all
# Cells       : 440
# Volume      : 7.374263e+01
# Time        	min(p)
6.015         	-1.547570e+00
6.06          	-1.532346e+00
6.11          	-1.514480e+00
