# Selection   : all
# Cells       : 1800
# Volume      : 7.372328e+01
# Time        	maxMag(U)
0             	0.000000e+00
0.025         	2.865595e+00
0.05          	2.889606e+00
0.075         	2.922885e+00
0.1           	2.935560e+00
0.125         	2.957844e+00
0.15          	2.980541e+00
0.175         	2.995944e+00
0.2           	3.005482e+00
0.225         	3.010299e+00
0.25          	3.013383e+00
0.275         	3.024490e+00
0.3           	3.032358e+00
