/*--------------------------------*- C++ -*----------------------------------*\
  =========                 |
  \\      /  F ield         | OpenFOAM: The Open Source CFD Toolbox
   \\    /   O peration     | Website:  https://openfoam.org
    \\  /    A nd           | Version:  13
     \\/     M anipulation  |
\*---------------------------------------------------------------------------*/
FoamFile
{
    format      ascii;
    class       volVectorField;
    location    "4.915";
    object      U;
}
// * * * * * * * * * * * * * * * * * * * * * * * * * * * * * * * * * * * * * //

dimensions      [0 1 -1 0 0 0 0];

internalField   nonuniform List<vector> 
440
(
(-0.0764954 0.0516081 -6.7193e-20)
(-0.111588 0.0843985 1.50925e-20)
(-0.0262702 0.089975 9.85743e-20)
(0.354799 0.131554 2.64113e-19)
(0.222286 0.336155 1.12956e-20)
(-0.0969466 0.0532008 3.13143e-20)
(0.00984965 0.0241836 -1.25341e-19)
(0.435184 -0.0101905 -1.11513e-19)
(0.966247 -0.0228852 6.48693e-20)
(1.36026 -0.00810457 1.63963e-20)
(-0.0398321 0.0171616 5.23457e-20)
(0.42455 -0.023932 6.3903e-19)
(1.15661 -0.00629236 -3.18824e-19)
(1.71502 0.027805 -9.75699e-19)
(2.23579 0.0494259 2.953e-19)
(0.161312 -0.0341746 -1.6649e-19)
(1.08809 0.00794121 -4.43482e-19)
(1.82879 0.0775395 1.41456e-18)
(2.26514 0.117924 1.45846e-18)
(2.35669 0.130503 -4.18877e-19)
(0.498488 -0.00403028 -2.66803e-19)
(1.60115 0.168786 -5.39175e-19)
(2.13961 0.250542 1.59895e-18)
(2.27889 0.270121 1.74997e-18)
(2.37349 0.251647 5.95197e-19)
(-0.00749881 -0.165011 -1.32325e-19)
(-0.112636 -0.16085 1.64322e-19)
(-0.21479 -0.090229 -2.58429e-19)
(-0.302276 -0.0142741 5.47137e-20)
(-0.3653 0.0666439 4.05321e-19)
(-0.0221701 -0.0015213 -3.54323e-20)
(-0.145536 0.054777 -1.22853e-19)
(-0.259293 0.0862674 -5.53013e-20)
(-0.34764 0.134191 -4.25492e-20)
(-0.412393 0.197721 6.33044e-20)
(-0.048087 0.111557 6.12993e-20)
(-0.14476 0.2791 1.39046e-20)
(-0.211942 0.323572 5.41961e-20)
(-0.250275 0.304476 -1.11553e-19)
(-0.275495 0.293599 4.52598e-21)
(-0.0289979 0.0606137 -9.53221e-21)
(-0.0903159 0.235805 2.36243e-20)
(-0.120838 0.356804 3.06529e-20)
(-0.132401 0.410819 -1.54278e-19)
(-0.128993 0.421385 4.20591e-20)
(-0.034481 0.0283263 -3.72845e-20)
(-0.119301 0.120849 -5.67049e-20)
(-0.178295 0.243223 -1.49197e-19)
(-0.158579 0.329662 1.12699e-19)
(-0.13032 0.460723 2.16231e-20)
(-0.506046 0.499929 6.85195e-19)
(-0.481445 0.494509 4.60042e-19)
(0.489395 -0.254646 3.25505e-19)
(0.881927 -0.542901 -2.35445e-19)
(1.01997 -0.383078 -2.85975e-21)
(-0.62969 0.50571 -5.63358e-19)
(0.0541 0.313316 -7.80737e-20)
(0.789627 -0.417012 1.13634e-19)
(1.23097 -0.61496 3.86989e-19)
(1.25055 -0.393648 3.35877e-20)
(-0.455799 0.364981 -2.98185e-19)
(0.601906 0.101766 4.3667e-19)
(1.11889 -0.557961 -7.63636e-20)
(1.41286 -0.688298 2.5674e-19)
(1.39142 -0.403435 1.14208e-20)
(-0.242597 0.316541 3.11352e-19)
(1.2069 -0.0315276 4.6697e-21)
(1.66833 -0.597086 1.36486e-19)
(1.67596 -0.699239 -1.25251e-19)
(1.47391 -0.403258 1.01936e-19)
(-0.0807871 0.121548 -9.93078e-20)
(1.63493 -0.267653 8.4941e-20)
(2.1041 -0.631012 0)
(1.99683 -0.649603 -5.45176e-21)
(1.55999 -0.369873 3.70535e-20)
(1.30048 0.0797379 -2.19381e-19)
(2.12979 -0.420669 -8.93497e-20)
(2.36574 -0.65054 -1.82943e-20)
(2.2148 -0.554253 7.99473e-20)
(1.6177 -0.297596 -1.25914e-19)
(2.15868 0.0829093 -1.43281e-20)
(2.55506 -0.488532 8.31913e-19)
(2.3232 -0.683754 -1.18313e-20)
(2.04429 -0.42107 -7.43479e-20)
(1.43332 -0.159688 0)
(2.37344 -0.0103879 -2.18503e-19)
(2.53086 -0.418961 -4.81536e-21)
(1.93669 -0.474364 2.05947e-19)
(1.69447 -0.234292 1.47995e-20)
(1.30377 -0.0793 -4.38275e-20)
(2.2905 -0.0490017 9.14832e-20)
(2.28933 -0.309937 2.25944e-19)
(1.62661 -0.390855 -5.29857e-21)
(1.11956 -0.155689 -4.4072e-34)
(0.832152 -0.0102914 6.42498e-20)
(1.5766 -0.0575812 7.34038e-20)
(1.17564 -0.0991411 8.3532e-20)
(0.411657 0.00520242 -6.17517e-20)
(0.12919 0.0400266 -1.30483e-20)
(0.135879 0.0157893 1.24135e-20)
(2.34813 0.287736 -7.27458e-19)
(2.50695 0.069783 -8.6208e-19)
(2.38825 0.116288 4.72763e-19)
(2.55602 -0.0220568 9.36915e-20)
(1.96295 0.141791 -4.34096e-21)
(2.09488 0.163504 8.20541e-20)
(2.3526 0.0537412 -3.39609e-20)
(2.23643 -0.0102461 -1.12722e-19)
(2.41338 -0.0443214 -1.6539e-19)
(2.30377 -0.157843 -4.83e-21)
(2.10665 0.0492475 8.01704e-20)
(2.26026 0.031606 6.40756e-20)
(2.23095 -0.0677529 -5.5744e-20)
(2.31436 -0.0385695 2.79443e-20)
(2.30901 -0.144975 -2.1344e-20)
(2.13099 -0.0276909 1.14626e-19)
(2.18831 -0.0152165 1.77045e-19)
(2.20929 -0.0824962 -1.93053e-20)
(2.22953 -0.0537551 -9.12844e-20)
(2.26566 -0.117226 3.3021e-20)
(1.56401 -0.0188554 1.9245e-19)
(1.56747 -0.0198528 -1.14227e-20)
(1.54784 -0.0235659 1.71331e-20)
(1.54665 -0.0250974 -4.47045e-20)
(1.54213 -0.0286285 -3.99731e-20)
(1.5505 0.891584 1.13161e-18)
(1.51098 0.979129 -3.71164e-19)
(1.50271 1.09177 -1.31521e-18)
(1.41593 1.11061 6.89654e-19)
(0.854474 0.764267 -1.58171e-19)
(1.78942 0.84083 -5.59324e-19)
(1.76795 0.906029 -2.97765e-18)
(1.77457 0.99692 -1.12182e-18)
(1.66429 0.979342 -3.71903e-19)
(0.989892 0.64606 -5.88912e-19)
(2.09071 0.709826 7.43679e-19)
(2.06254 0.762686 1.81213e-19)
(2.02676 0.829411 -2.1597e-18)
(1.86803 0.7983 -5.6353e-19)
(1.06609 0.495877 3.93638e-19)
(2.21854 0.5846 2.16768e-18)
(2.20191 0.623612 1.53983e-18)
(2.18621 0.656244 -1.72705e-18)
(1.94072 0.59605 -1.27514e-18)
(1.02028 0.31781 -2.19e-19)
(2.36665 0.413656 1.0097e-18)
(2.3496 0.42868 -7.01698e-19)
(2.22523 0.440014 5.10671e-19)
(1.86951 0.371354 3.7673e-19)
(0.837639 0.13396 -3.10883e-19)
(0.592881 0.47013 -6.81085e-19)
(0.49836 0.508084 -5.271e-19)
(0.376031 0.545344 6.0881e-20)
(0.233796 0.543585 -9.23059e-21)
(0.0570251 0.38265 7.90676e-20)
(0.699992 0.641983 8.61206e-20)
(0.635292 0.697969 -3.12496e-19)
(0.543556 0.76367 1.83803e-19)
(0.412792 0.824227 -8.55686e-20)
(0.179259 0.628314 1.21919e-19)
(0.763853 0.851926 8.9338e-20)
(0.689601 0.938761 4.86541e-19)
(0.63773 1.03741 1.15443e-19)
(0.557886 1.06978 -3.09599e-19)
(0.308008 0.780075 2.56394e-19)
(1.07998 0.925943 2.34196e-19)
(1.01875 1.00188 -7.10581e-19)
(0.955602 1.09501 -1.9395e-18)
(0.867852 1.1562 7.68402e-19)
(0.510235 0.847174 -1.64909e-19)
(1.11762 0.999169 -1.07934e-19)
(1.15542 1.11553 -1.83847e-19)
(1.17245 1.21532 -3.55507e-19)
(1.10868 1.21344 -3.93224e-19)
(0.676595 0.84386 -6.27628e-21)
(0.989227 0.0392156 -8.98075e-20)
(1.03514 0.0193217 -2.93852e-20)
(1.02742 0.132203 -2.66127e-21)
(0.96157 0.102413 -1.84768e-19)
(0.926881 0.278919 2.97856e-19)
(0.979371 0.0346953 5.62985e-20)
(1.05721 0.0170909 9.90951e-20)
(1.00242 0.143447 1.20899e-19)
(1.0001 0.115734 2.07442e-20)
(0.95469 0.37275 -1.8261e-21)
(0.988733 0.032398 7.56186e-20)
(1.03966 0.00878105 -3.78143e-21)
(1.0412 0.165101 -2.2422e-22)
(0.955528 0.120736 1.56053e-19)
(1.18069 0.513158 -4.65548e-19)
(0.987708 0.0298969 -1.28016e-22)
(1.05257 0.00139439 -1.41967e-19)
(1.02325 0.186289 -6.148e-20)
(1.06701 0.0895611 -3.57757e-19)
(1.20417 0.587758 9.10161e-20)
(0.992925 0.0237678 -1.23509e-20)
(1.04102 0.00515785 3.93794e-20)
(1.06466 0.175277 2.8524e-20)
(1.05293 0.133492 4.46178e-19)
(1.35776 0.735572 -4.51866e-19)
(0.979006 0.0247167 -9.62744e-21)
(1.07803 -0.0143008 8.01974e-20)
(1.02718 0.206918 -6.44563e-20)
(1.30684 0.0394226 1.04992e-18)
(1.34046 0.771913 -3.53875e-19)
(0.964662 0.000438049 -9.87811e-22)
(1.11595 -0.00455489 -7.01592e-20)
(0.985746 0.110901 5.37908e-21)
(1.46149 0.0116277 -3.0167e-19)
(1.19261 0.606719 -5.79708e-20)
(0.984318 -0.00887448 5.10791e-21)
(1.09526 -0.000536859 1.30749e-35)
(1.07647 0.0503914 -9.18147e-21)
(1.34606 0.0038948 6.9257e-20)
(1.1144 0.497698 1.63074e-19)
(1.0291 -0.0441137 3.17136e-21)
(1.00452 -0.0188502 -2.46105e-20)
(1.18872 -0.0124107 1.85122e-20)
(1.04935 0.0363424 1.83438e-20)
(1.33788 0.343985 -2.5015e-19)
(0.944316 -0.0223305 -3.82292e-20)
(0.822285 -0.0243359 -3.78606e-22)
(0.906077 -0.00663213 2.18163e-20)
(0.665584 0.00804051 -2.0304e-20)
(1.18121 0.088827 -5.79925e-20)
(1.79527 0.682113 2.90435e-19)
(1.86387 0.706542 7.40567e-19)
(2.11807 0.561982 -1.02303e-18)
(2.17138 0.536793 4.49154e-20)
(2.36792 0.312913 4.21042e-19)
(1.66053 0.472242 5.93499e-20)
(1.64072 0.488886 9.17343e-19)
(1.91409 0.375657 9.96911e-20)
(1.87812 0.350938 -8.38814e-19)
(2.16805 0.193222 -2.62416e-19)
(1.58082 0.337908 -2.07018e-19)
(1.67243 0.298024 -1.44382e-19)
(1.88373 0.240332 1.68507e-19)
(1.91933 0.17951 -2.6698e-19)
(2.1187 0.12508 2.51561e-19)
(1.73351 0.205511 4.17337e-19)
(1.85112 0.15617 -2.44139e-21)
(1.97186 0.118716 2.11619e-19)
(2.01917 0.0577072 1.81827e-19)
(2.1111 0.0377873 -1.89193e-19)
(1.45416 0.0360142 -5.50989e-20)
(1.54145 0.0171651 2.60232e-19)
(1.57784 0.0010084 1.01217e-19)
(1.58101 -0.00922688 -2.13522e-19)
(1.58522 -0.0143227 2.84811e-22)
(1.26267 -0.0278046 7.47638e-20)
(2.32844 -0.0353041 -4.97761e-19)
(2.55618 -0.0292231 1.31531e-18)
(2.52973 0.0199998 5.76552e-19)
(2.34388 0.0377287 -4.08912e-19)
(0.807986 0.0997636 1.4437e-19)
(2.08865 0.101477 -5.06669e-19)
(2.55059 0.104298 -7.09533e-19)
(2.59879 0.106741 9.1594e-19)
(2.35639 0.103775 -6.5004e-19)
(0.269374 0.0909865 -2.38209e-20)
(1.45584 0.185202 5.78916e-19)
(2.2078 0.20915 8.69808e-20)
(2.5631 0.213172 7.24681e-19)
(2.68362 0.189378 3.32976e-19)
(-0.0139457 -0.00598328 2.31879e-19)
(0.608367 0.134289 2.35506e-19)
(1.4519 0.226012 -5.37574e-19)
(1.97468 0.260167 3.48709e-20)
(2.49794 0.291334 1.68512e-19)
(-0.0906382 -0.0749944 1.5863e-19)
(0.0563802 -0.0249244 -1.7823e-19)
(0.578271 0.0744096 -2.39183e-20)
(1.08083 0.131771 5.58961e-20)
(1.59802 0.232028 7.12883e-21)
(-0.0853604 -0.0996693 7.57012e-21)
(-0.111032 -0.14817 8.74058e-20)
(0.0585324 -0.122409 2.73427e-20)
(0.325001 -0.0296527 -6.01058e-20)
(0.816186 0.113871 8.19864e-21)
(-0.0645002 -0.106449 -2.8095e-20)
(-0.10414 -0.20699 -5.78443e-20)
(-0.0683694 -0.221205 -3.87258e-21)
(0.0396753 -0.156334 -1.8143e-20)
(0.266153 -0.0117463 3.47103e-21)
(-0.057268 -0.176091 -2.82804e-20)
(-0.0679607 -0.341071 2.17109e-20)
(-0.0399666 -0.373947 3.80446e-20)
(0.015958 -0.324199 3.36636e-19)
(0.0924044 -0.221548 -8.41541e-20)
(-0.0493393 -0.283644 1.71885e-20)
(-0.0594814 -0.449707 1.73988e-19)
(-0.0554791 -0.4334 -5.86858e-19)
(-0.0410354 -0.348873 -5.28069e-19)
(-0.0253266 -0.247404 9.96661e-20)
(-0.0251048 -0.283717 -1.28027e-20)
(-0.0882967 -0.365474 5.31666e-20)
(-0.15771 -0.303126 -1.76853e-20)
(-0.222411 -0.208563 -5.39561e-20)
(-0.26341 -0.10584 -1.53712e-20)
(1.47162 0.531526 -4.4824e-20)
(1.10094 0.300544 5.89142e-19)
(0.625385 0.0281009 -9.97529e-20)
(0.492675 -0.0888347 -6.68798e-20)
(0.822657 -0.0642289 1.24134e-21)
(1.31006 0.469031 7.01001e-20)
(0.866651 0.377147 1.4095e-19)
(0.220498 0.101898 -1.14923e-19)
(0.165566 -0.129056 -9.64445e-21)
(0.683932 -0.120244 -1.70059e-20)
(0.958097 0.285764 1.01672e-19)
(0.282477 0.502378 5.82151e-19)
(-0.0978733 0.159496 6.96438e-20)
(0.0703635 -0.237137 -2.88132e-19)
(0.658074 -0.200413 -7.17725e-21)
(0.28222 0.335225 -1.51733e-19)
(-0.474619 0.622656 -1.70628e-18)
(-0.0740231 0.107519 -3.19778e-19)
(0.165161 -0.348168 6.50701e-21)
(0.703142 -0.280378 1.03011e-20)
(-0.264054 0.459172 -1.27881e-19)
(-0.802694 0.600067 -1.01414e-19)
(0.161093 -0.0679188 3.68656e-19)
(0.443084 -0.458284 -5.0098e-20)
(0.815299 -0.347925 6.95142e-21)
(0.483026 0.144216 -6.79811e-20)
(-0.169509 -0.0627811 0)
(-0.0420283 -0.0934424 -4.98829e-20)
(0.151211 -0.0487097 3.01248e-20)
(0.364816 -0.02012 8.84073e-21)
(1.97446 0.464975 0)
(1.29754 0.257946 0)
(0.860437 -0.00121562 3.53798e-19)
(0.800227 -0.0771429 4.53652e-20)
(0.954136 -0.0430057 -6.92293e-21)
(0.74994 0.00269858 -1.39993e-19)
(0.847648 0.000947858 3.47135e-19)
(0.954219 -0.00664055 -1.56245e-20)
(1.0701 0.0179535 2.88212e-19)
(1.3413 0.0929314 1.89727e-19)
(1.68995 0.0279164 1.35356e-19)
(1.90071 0.0760937 4.25852e-19)
(2.00171 0.0909844 -3.22083e-19)
(2.55552 0.199356 4.72711e-20)
(2.25606 0.204203 2.00293e-19)
(0.937545 -0.496539 -7.08835e-21)
(0.92715 -0.588691 -1.92384e-19)
(0.916544 -0.686341 -1.45701e-19)
(0.844644 -0.757532 8.93157e-20)
(0.519686 -0.605144 1.42558e-19)
(0.832952 -0.401085 1.16745e-19)
(0.778348 -0.469722 1.99645e-19)
(0.705643 -0.546181 -7.52842e-20)
(0.592258 -0.610583 1.52362e-19)
(0.326512 -0.489245 5.18254e-20)
(0.666207 -0.258977 -1.26609e-19)
(0.577994 -0.300557 -6.05397e-20)
(0.476186 -0.353538 4.71655e-20)
(0.356969 -0.401644 -3.51073e-20)
(0.162652 -0.325524 -1.38838e-19)
(0.571021 -0.022559 -4.52223e-19)
(0.48428 -0.0393022 -3.68784e-19)
(0.371414 -0.064178 3.00677e-19)
(0.240304 -0.095953 1.65535e-19)
(0.0693842 -0.100385 1.40663e-20)
(0.542743 0.189385 -1.4849e-19)
(0.452782 0.189944 -1.61525e-19)
(0.330481 0.188535 -5.30542e-20)
(0.189297 0.19333 3.64944e-20)
(0.0290061 0.142855 1.22798e-20)
(2.09892 -0.030222 8.81507e-19)
(2.35725 -0.0973114 2.99755e-19)
(2.4367 -0.185462 -7.96369e-19)
(2.3043 -0.213951 -1.69237e-18)
(1.41158 -0.201126 1.37562e-19)
(2.09471 -0.127765 1.48012e-18)
(2.18355 -0.246292 1.95171e-18)
(2.19722 -0.374325 1.64693e-19)
(2.11991 -0.431501 2.89993e-19)
(1.37284 -0.386359 -1.92124e-19)
(1.76037 -0.291294 -3.82356e-18)
(1.82105 -0.408771 4.10495e-19)
(1.87942 -0.53908 1.19791e-18)
(1.84094 -0.622721 -4.5649e-19)
(1.21324 -0.540893 7.36269e-19)
(1.55764 -0.420552 8.92464e-19)
(1.57682 -0.522958 -2.39056e-18)
(1.56328 -0.642289 -2.75006e-18)
(1.49971 -0.733553 8.59454e-19)
(0.978261 -0.61716 5.85216e-19)
(1.24974 -0.472165 2.00887e-19)
(1.20732 -0.569785 2.78485e-19)
(1.20804 -0.70079 -4.23159e-19)
(1.16144 -0.797634 -5.1154e-19)
(0.741439 -0.643999 -4.80604e-21)
(1.01423 0.0402783 7.3574e-21)
(1.00478 0.0574184 -3.33696e-21)
(1.10719 0.0881093 7.09187e-22)
(0.839027 -0.0127057 -2.55672e-19)
(1.12235 -0.211567 -1.96193e-20)
(1.02947 0.0431557 -2.32185e-21)
(0.97561 0.0486916 4.83061e-20)
(1.11913 0.108626 -1.51194e-20)
(0.91785 0.0278501 2.19805e-19)
(1.01116 -0.099301 2.06837e-21)
(1.03566 0.0414142 -5.6348e-20)
(0.963677 0.03923 6.99215e-22)
(1.10265 0.108263 -9.85295e-21)
(0.924953 0.052669 1.12428e-19)
(0.975291 -0.0367544 -2.48912e-19)
(1.02456 0.0425432 6.83241e-20)
(0.983109 0.0306202 2.29671e-21)
(1.06602 0.112487 2.65182e-20)
(0.955886 0.0739949 -5.46991e-20)
(0.886086 0.0735263 7.16339e-20)
(1.00298 0.0402464 1.73315e-20)
(1.01845 0.0283459 -2.33412e-20)
(1.0285 0.114748 3.86171e-20)
(0.974996 0.0971525 3.95033e-20)
(0.869724 0.177079 -4.70918e-20)
(0.881914 0.0328445 0)
(0.767758 0.0303409 1.08643e-20)
(0.565403 0.0193742 4.83158e-21)
(0.404056 -0.0131903 5.1247e-20)
(0.715596 -0.0504287 -1.73251e-19)
(0.988536 0.0622323 -6.25553e-20)
(1.03348 0.0782142 -1.49473e-20)
(0.983688 0.0817192 -5.53721e-20)
(0.844034 -0.0187121 -1.44537e-19)
(1.04198 -0.197422 -1.81758e-19)
(0.988508 -0.0625576 -3.84504e-20)
(1.07888 -0.0288264 5.76273e-19)
(1.17353 0.0418597 3.3895e-19)
(1.04394 0.0581171 3.34751e-20)
(0.807934 0.0304742 0)
(1.333 -0.31734 3.87436e-19)
(1.45475 -0.283628 1.62741e-18)
(1.64226 -0.160823 -1.76149e-18)
(1.75613 -0.020932 -5.50886e-19)
(1.65416 0.0331298 4.12026e-19)
)
;

boundaryField
{
    left
    {
        type            fixedValue;
        value           uniform (1 0 0);
    }
    right
    {
        type            zeroGradient;
    }
    down
    {
        type            noSlip;
    }
    up
    {
        type            noSlip;
    }
    cylinder
    {
        type            noSlip;
    }
    defaultFaces
    {
        type            empty;
    }
}


// ************************************************************************* //
