/*--------------------------------*- C++ -*----------------------------------*\
  =========                 |
  \\      /  F ield         | OpenFOAM: The Open Source CFD Toolbox
   \\    /   O peration     | Website:  https://openfoam.org
    \\  /    A nd           | Version:  13
     \\/     M anipulation  |
\*---------------------------------------------------------------------------*/
FoamFile
{
    format      ascii;
    class       volScalarField;
    location    "2.35";
    object      p;
}
// * * * * * * * * * * * * * * * * * * * * * * * * * * * * * * * * * * * * * //

dimensions      [0 2 -2 0 0 0 0];

internalField   nonuniform List<scalar> 
1800
(
-1.52909
-1.52479
-1.51665
-1.50486
-1.49259
-1.4837
-1.48193
-1.49159
-1.51213
-1.56609
-1.55481
-1.54946
-1.5417
-1.53168
-1.52132
-1.51303
-1.50892
-1.51076
-1.51801
-1.54185
-1.60036
-1.59272
-1.58421
-1.57471
-1.56505
-1.55597
-1.54774
-1.54028
-1.53446
-1.53167
-1.66159
-1.65123
-1.64081
-1.62998
-1.61808
-1.60412
-1.58721
-1.56723
-1.54436
-1.52019
-1.73837
-1.72538
-1.71229
-1.69804
-1.68002
-1.65621
-1.62607
-1.59045
-1.5512
-1.51101
-1.82961
-1.81414
-1.7971
-1.776
-1.74669
-1.7078
-1.66069
-1.60822
-1.55319
-1.49835
-1.93006
-1.91252
-1.88932
-1.85674
-1.81091
-1.75297
-1.68727
-1.61844
-1.54989
-1.48429
-2.03089
-2.01113
-1.97869
-1.9298
-1.86331
-1.78436
-1.70007
-1.61579
-1.53461
-1.45826
-2.12003
-2.09725
-2.05242
-1.98369
-1.89467
-1.79519
-1.69404
-1.59644
-1.5048
-1.42011
-2.18427
-2.15716
-2.0978
-2.00758
-1.89679
-1.77902
-1.66351
-1.55462
-1.45385
-1.36134
-1.08415
-1.08968
-1.09713
-1.10841
-1.12483
-1.14554
-1.16899
-1.19306
-1.21395
-1.22815
-1.23904
-1.24287
-1.2489
-1.26071
-1.27938
-1.30376
-1.3321
-1.36216
-1.38957
-1.40907
-1.38978
-1.39162
-1.39555
-1.40789
-1.42871
-1.45658
-1.48952
-1.52535
-1.55995
-1.58627
-1.51036
-1.50919
-1.51142
-1.52332
-1.54489
-1.57458
-1.61018
-1.6493
-1.68941
-1.72209
-1.58494
-1.58007
-1.57963
-1.58916
-1.60876
-1.63695
-1.67153
-1.71013
-1.74986
-1.78301
-1.61258
-1.60437
-1.60036
-1.60519
-1.61944
-1.64237
-1.67235
-1.70724
-1.74452
-1.77747
-1.60457
-1.59471
-1.58721
-1.58542
-1.59077
-1.60397
-1.62472
-1.65173
-1.68328
-1.7145
-1.57821
-1.56902
-1.55945
-1.55131
-1.54672
-1.54815
-1.5572
-1.5742
-1.59891
-1.62873
-1.54853
-1.54143
-1.53156
-1.51941
-1.50766
-1.50011
-1.50013
-1.5098
-1.53027
-1.5588
-1.52783
-1.52285
-1.51368
-1.50052
-1.48649
-1.47586
-1.47288
-1.48062
-1.49971
-1.52718
-1.24491
-0.56573
-0.128625
0.0810102
0.091065
0.0844033
0.0642409
0.0437906
0.0252299
0.00862837
-1.40963
-0.677364
-0.172469
0.0655095
0.0854695
0.081243
0.0621399
0.0423726
0.0243642
0.00827638
-1.58079
-0.798767
-0.230965
0.0419161
0.0763766
0.0761309
0.0590185
0.0404417
0.0232569
0.00784616
-1.72284
-0.910749
-0.297873
0.0110059
0.0637221
0.0690115
0.0548448
0.0379731
0.0218971
0.00733546
-1.81857
-1.00681
-0.366813
-0.0259377
0.0475763
0.0598896
0.0496008
0.034947
0.0202777
0.00674366
-1.86059
-1.08437
-0.433676
-0.0671735
0.0282844
0.0489123
0.0433136
0.0313592
0.0183974
0.0060722
-1.84965
-1.14403
-0.496543
-0.111202
0.00631149
0.0363533
0.0360785
0.0272353
0.0162653
0.00532698
-1.80667
-1.18857
-0.554388
-0.156742
-0.0179545
0.0224587
0.0280122
0.02262
0.0138974
0.00452045
-1.75078
-1.22074
-0.606445
-0.20216
-0.0440108
0.00738179
0.0191735
0.017531
0.0112906
0.00366408
-1.67751
-1.24311
-0.65394
-0.245824
-0.070801
-0.00853742
0.00967628
0.0119898
0.00842395
0.00275715
-1.56446
-1.18908
-0.651916
-0.271706
-0.096101
-0.0270344
-0.00246915
0.00451174
0.00444648
0.00152381
-1.35516
-1.05197
-0.612941
-0.287057
-0.122304
-0.0487617
-0.0172742
-0.00478059
-0.000450003
-3.61006e-05
-1.19447
-0.946605
-0.587458
-0.303209
-0.145006
-0.0676324
-0.0304609
-0.013173
-0.00489942
-0.00143235
-1.06649
-0.86061
-0.567566
-0.321164
-0.171376
-0.0899458
-0.0455346
-0.0222824
-0.00953834
-0.00288624
-0.960943
-0.797321
-0.5608
-0.344042
-0.195991
-0.10841
-0.0579386
-0.0299501
-0.0135036
-0.00408411
-0.874883
-0.750136
-0.561382
-0.37011
-0.22366
-0.128765
-0.0708825
-0.0374565
-0.0171843
-0.00514453
-0.803198
-0.716329
-0.571375
-0.400324
-0.250699
-0.146237
-0.0812836
-0.0433309
-0.0199927
-0.00586752
-0.746938
-0.695222
-0.585843
-0.428506
-0.274827
-0.161164
-0.089954
-0.0479183
-0.0220311
-0.00630085
-0.712118
-0.687635
-0.596167
-0.443922
-0.287293
-0.168985
-0.0943411
-0.0501772
-0.0229995
-0.0063726
-0.693621
-0.689423
-0.602375
-0.44803
-0.291588
-0.172485
-0.0967539
-0.0515818
-0.0237572
-0.00659585
-1.20166
-1.27017
-1.32037
-1.36282
-1.39281
-1.42933
-1.46174
-1.51814
-1.55757
-1.6324
-1.02083
-1.09472
-1.15186
-1.20369
-1.24296
-1.28368
-1.31497
-1.35072
-1.38168
-1.42434
-0.877903
-0.950228
-1.01067
-1.06286
-1.1051
-1.14095
-1.17023
-1.1959
-1.22067
-1.24606
-0.760551
-0.829988
-0.890618
-0.940821
-0.98316
-1.01644
-1.04478
-1.0676
-1.08923
-1.10925
-0.66496
-0.731528
-0.789983
-0.838416
-0.879429
-0.912008
-0.939303
-0.961191
-0.979895
-0.99557
-0.587729
-0.651589
-0.707277
-0.754087
-0.793262
-0.824896
-0.850501
-0.870651
-0.886527
-0.898678
-0.526541
-0.587866
-0.641101
-0.685967
-0.723069
-0.752836
-0.776238
-0.794037
-0.807352
-0.816862
-0.48047
-0.539803
-0.591132
-0.633832
-0.668824
-0.696082
-0.717154
-0.732189
-0.743096
-0.749631
-0.45275
-0.511025
-0.560965
-0.602149
-0.635805
-0.661256
-0.680552
-0.693031
-0.701834
-0.705039
-0.440199
-0.498739
-0.549046
-0.590883
-0.624404
-0.649942
-0.668595
-0.680236
-0.687209
-0.686672
0.318863
0.244817
0.160044
0.0692337
-0.0289236
-0.136902
-0.254607
-0.375462
-0.477201
-0.527022
0.105333
0.0251018
-0.0643393
-0.162221
-0.27045
-0.390742
-0.521988
-0.655878
-0.767456
-0.820812
-0.128755
-0.212224
-0.304622
-0.40715
-0.522002
-0.650518
-0.790988
-0.933846
-1.05225
-1.10711
-0.354622
-0.442083
-0.539216
-0.647565
-0.769019
-0.904548
-1.05221
-1.20192
-1.32419
-1.37822
-0.559321
-0.652056
-0.755315
-0.870357
-0.998797
-1.14134
-1.29461
-1.45078
-1.57059
-1.62437
-0.743698
-0.841784
-0.950721
-1.07156
-1.20572
-1.35398
-1.51226
-1.66536
-1.78321
-1.83564
-0.906831
-1.00926
-1.12253
-1.24738
-1.38509
-1.53554
-1.69332
-1.8427
-1.95503
-2.00417
-1.05264
-1.15662
-1.27079
-1.39622
-1.5338
-1.68249
-1.83579
-1.9773
-2.08
-2.12436
-1.17915
-1.28113
-1.39298
-1.51573
-1.64959
-1.7924
-1.93641
-2.06486
-2.15466
-2.19327
-1.28289
-1.38083
-1.48805
-1.60513
-1.7315
-1.86385
-1.9934
-2.10422
-2.17906
-2.21163
1.72532
1.73925
1.75357
1.76716
1.77915
1.78888
1.79565
1.79951
1.80267
1.80655
1.64889
1.65958
1.6699
1.6788
1.68558
1.68954
1.69001
1.68733
1.68478
1.68526
1.55165
1.55815
1.56329
1.56619
1.56633
1.56302
1.55558
1.5447
1.53492
1.53128
1.43513
1.4369
1.43585
1.43143
1.42341
1.4111
1.39387
1.37282
1.35408
1.34562
1.29909
1.29513
1.28695
1.27432
1.25727
1.23504
1.20702
1.17472
1.14594
1.13212
1.14724
1.13743
1.12118
1.09896
1.07125
1.03736
0.996811
0.951687
0.911691
0.891794
0.979593
0.963357
0.938973
0.907187
0.868647
0.822608
0.768696
0.709747
0.657711
0.631472
0.805116
0.78142
0.746713
0.703032
0.651702
0.59204
0.523757
0.450357
0.386051
0.353401
0.628802
0.597481
0.551915
0.49544
0.430042
0.355124
0.270685
0.181294
0.103908
0.0648987
0.465557
0.416262
0.352878
0.280359
0.199723
0.109357
0.00903585
-0.0958188
-0.185545
-0.23031
1.47576
1.45392
1.44829
1.44599
1.44332
1.45137
1.47207
1.50884
1.56905
1.66357
1.46876
1.44808
1.44268
1.4393
1.43578
1.44089
1.45844
1.48894
1.5382
1.61465
1.46231
1.44222
1.43691
1.43216
1.42764
1.42933
1.4434
1.46593
1.50173
1.55403
1.45639
1.43639
1.43102
1.42463
1.41892
1.41664
1.42702
1.43968
1.46012
1.48096
1.45099
1.43064
1.42503
1.41673
1.4096
1.40281
1.40934
1.40994
1.41405
1.39428
1.44609
1.425
1.41894
1.40852
1.39967
1.38788
1.39031
1.37663
1.36376
1.29319
1.4417
1.41949
1.41276
1.40002
1.38911
1.37194
1.36983
1.33971
1.30938
1.17602
1.43784
1.41414
1.40649
1.39127
1.3779
1.35508
1.3477
1.29941
1.25065
1.04415
1.43454
1.40896
1.40013
1.3823
1.36609
1.33747
1.32374
1.2559
1.18586
0.895786
1.43185
1.40397
1.39371
1.37311
1.35387
1.3193
1.2989
1.21089
1.11753
0.742326
1.42918
1.39821
1.38551
1.36163
1.3372
1.29563
1.26465
1.1559
1.03945
0.597159
1.42781
1.39236
1.37643
1.34898
1.31831
1.2708
1.22685
1.10873
0.964907
0.573664
1.4284
1.38745
1.36761
1.33699
1.29971
1.24835
1.19115
1.07118
0.904551
0.562522
1.43154
1.38352
1.35903
1.32561
1.28154
1.22884
1.15812
1.04158
0.855771
0.558473
1.43779
1.38059
1.35059
1.31463
1.2636
1.21255
1.1279
1.01914
0.819091
0.560006
1.44785
1.37872
1.34258
1.30439
1.24608
1.19947
1.10153
1.00288
0.793295
0.562498
1.46129
1.37625
1.33289
1.29233
1.22875
1.1887
1.07958
0.990905
0.776076
0.565049
1.48626
1.37838
1.3267
1.28263
1.2137
1.18013
1.0623
0.982818
0.765324
0.567828
1.4983
1.37045
1.31341
1.26997
1.20138
1.17412
1.05083
0.979022
0.760676
0.571712
1.57448
1.38354
1.31657
1.26584
1.19697
1.17143
1.04501
0.97871
0.75856
0.575935
0.304605
0.130035
-0.0771804
-0.277312
-0.457736
-0.620113
-0.766224
-0.899464
-1.01633
-1.11867
0.256544
0.118649
-0.0384791
-0.196782
-0.344727
-0.481771
-0.60823
-0.727879
-0.836731
-0.936871
0.244912
0.128355
0.00226457
-0.127785
-0.254755
-0.376433
-0.492148
-0.601896
-0.703155
-0.796065
0.262575
0.154758
0.0419585
-0.0713125
-0.183308
-0.292561
-0.398394
-0.499157
-0.594072
-0.681232
0.285642
0.184129
0.0798074
-0.0229578
-0.124159
-0.223828
-0.321762
-0.416168
-0.506096
-0.589
0.308935
0.212761
0.114735
0.0189753
-0.0749193
-0.167898
-0.260086
-0.349907
-0.435761
-0.515195
0.330475
0.238991
0.145941
0.0550126
-0.0342583
-0.122997
-0.211334
-0.297739
-0.380398
-0.457153
0.349459
0.262179
0.173244
0.0854947
-0.00140514
-0.0881348
-0.174451
-0.258688
-0.338969
-0.413193
0.365781
0.28211
0.19644
0.11015
0.0233732
-0.0635616
-0.14966
-0.233244
-0.312675
-0.386194
0.378537
0.296986
0.212526
0.125493
0.0371881
-0.0509659
-0.137554
-0.221199
-0.300411
-0.37381
-1.17015
-1.13704
-1.06633
-0.976389
-0.884325
-0.799977
-0.727233
-0.667285
-0.620523
-0.587416
-1.21975
-1.19033
-1.13174
-1.05576
-0.975562
-0.900546
-0.835101
-0.780867
-0.738831
-0.710146
-1.21145
-1.18505
-1.13932
-1.07996
-1.01495
-0.952111
-0.89601
-0.848709
-0.811673
-0.786269
-1.15804
-1.13402
-1.0998
-1.05708
-1.00893
-0.960559
-0.916033
-0.877604
-0.846928
-0.825364
-1.07814
-1.0565
-1.03109
-1.00199
-0.969169
-0.93499
-0.902174
-0.872537
-0.847589
-0.827939
-0.991119
-0.972437
-0.953165
-0.933216
-0.911688
-0.889142
-0.866953
-0.846209
-0.82834
-0.81437
-0.911705
-0.896816
-0.88202
-0.867385
-0.852507
-0.837564
-0.823112
-0.809818
-0.798102
-0.787746
-0.84747
-0.836829
-0.825923
-0.814542
-0.802834
-0.791277
-0.780758
-0.771458
-0.765723
-0.763086
-0.798553
-0.792269
-0.784862
-0.775835
-0.765658
-0.755416
-0.746657
-0.741332
-0.738835
-0.749575
-0.762172
-0.759064
-0.754119
-0.746169
-0.736199
-0.726139
-0.718418
-0.716903
-0.720744
-0.748116
-0.742244
-0.740094
-0.735002
-0.726165
-0.715441
-0.704687
-0.696703
-0.694736
-0.699655
-0.707204
-0.744495
-0.741494
-0.736096
-0.727972
-0.718252
-0.708895
-0.702266
-0.700835
-0.706444
-0.715013
-0.759553
-0.755709
-0.751488
-0.747148
-0.743331
-0.741168
-0.741893
-0.746576
-0.755898
-0.767278
-0.772872
-0.770058
-0.768413
-0.768788
-0.771677
-0.777592
-0.786915
-0.799742
-0.81542
-0.830568
-0.778353
-0.778112
-0.779444
-0.783402
-0.790524
-0.800916
-0.81439
-0.830502
-0.848257
-0.861412
-0.77698
-0.779817
-0.784134
-0.79066
-0.800291
-0.813116
-0.828721
-0.846232
-0.864641
-0.884771
-0.779006
-0.784402
-0.790947
-0.799153
-0.810143
-0.823924
-0.839813
-0.856856
-0.874893
-0.895686
-0.799706
-0.806533
-0.814785
-0.824547
-0.836994
-0.851926
-0.868428
-0.885305
-0.902088
-0.919581
-0.855023
-0.862309
-0.871055
-0.881586
-0.895071
-0.911065
-0.928473
-0.945939
-0.961722
-0.975209
-0.950849
-0.957642
-0.966071
-0.977028
-0.991766
-1.00963
-1.02931
-1.04897
-1.0658
-1.07783
-0.796161
-0.785389
-0.50329
-0.273202
-0.0737932
0.025737
0.0462033
0.0407593
0.0264167
0.00965305
-0.876823
-0.790117
-0.418852
-0.187424
-0.0329146
0.0371257
0.0487504
0.0409597
0.0261799
0.00953028
-0.960376
-0.767231
-0.332903
-0.111424
0.000877343
0.0474301
0.0518541
0.0416537
0.0261932
0.00947977
-1.03034
-0.72126
-0.260423
-0.050083
0.0274824
0.0567159
0.0551346
0.0425815
0.0263242
0.00945977
-1.0709
-0.661358
-0.206251
-0.00519644
0.0478983
0.0650009
0.0582941
0.0435366
0.0264799
0.0094445
-1.06703
-0.591564
-0.163457
0.0291508
0.0645781
0.0725589
0.0611153
0.0443751
0.0266005
0.0094169
-1.03432
-0.516266
-0.128096
0.0562781
0.0777277
0.07851
0.0633474
0.0449813
0.0266361
0.00936126
-1.01629
-0.462174
-0.102679
0.0757458
0.0868022
0.0827195
0.0648527
0.0452777
0.0265469
0.00926448
-1.04172
-0.451485
-0.0937826
0.0863222
0.0918609
0.0851079
0.065545
0.0452071
0.0263003
0.00911579
-1.11771
-0.486358
-0.102309
0.0880286
0.0932114
0.085675
0.0653599
0.0447243
0.0258689
0.00890623
-0.605743
-0.620734
-0.589743
-0.4097
-0.143636
0.000595523
0.0414209
0.0413584
0.0275064
0.010158
-0.597919
-0.612414
-0.592931
-0.418817
-0.146476
0.00121747
0.0418618
0.0413925
0.0273963
0.0100843
-0.617722
-0.633483
-0.598673
-0.418913
-0.147353
0.0026329
0.042012
0.0411048
0.0271354
0.00998758
-0.664696
-0.679528
-0.5932
-0.40801
-0.138376
0.00675231
0.0425219
0.0407621
0.0268642
0.00988154
-0.73099
-0.744242
-0.559995
-0.345026
-0.111355
0.0148092
0.0440144
0.0407437
0.0267137
0.00980687
-0.555211
-0.672731
-0.751976
-0.798305
-0.809779
-0.803717
-0.790011
-0.753414
-0.72383
-0.681107
-0.555784
-0.675059
-0.752781
-0.798085
-0.803951
-0.799894
-0.782285
-0.743455
-0.719974
-0.673255
-0.557835
-0.678319
-0.754906
-0.799167
-0.80042
-0.800259
-0.773849
-0.746292
-0.724369
-0.691708
-0.562923
-0.684977
-0.761383
-0.803884
-0.804271
-0.802867
-0.772799
-0.757376
-0.738713
-0.742349
-0.571774
-0.695804
-0.772458
-0.812793
-0.814521
-0.806
-0.779943
-0.764527
-0.74992
-0.788637
1.45134
1.44394
1.43038
1.41343
1.39387
1.37081
1.34366
1.3142
1.28976
1.27893
1.53907
1.54244
1.53989
1.53326
1.52364
1.51056
1.49362
1.4742
1.45814
1.45161
1.62291
1.63096
1.6347
1.6354
1.63381
1.62951
1.62198
1.61202
1.60383
1.60136
1.69523
1.70724
1.71674
1.72416
1.72975
1.733
1.73328
1.73098
1.72916
1.73031
1.75507
1.77011
1.78362
1.79569
1.8063
1.81495
1.821
1.82456
1.82773
1.83174
1.79811
1.81506
1.83162
1.84742
1.86212
1.87517
1.88587
1.89406
1.90109
1.90743
1.82368
1.8418
1.86024
1.87833
1.89548
1.91111
1.92453
1.93543
1.94479
1.95254
1.82982
1.84821
1.8674
1.88649
1.90469
1.9214
1.93591
1.94786
1.95809
1.96636
1.81579
1.83361
1.85239
1.87107
1.88877
1.90486
1.91863
1.92978
1.93929
1.94711
1.78106
1.79741
1.81458
1.83143
1.84706
1.86082
1.87202
1.88047
1.88762
1.89396
-0.418559
-0.457593
-0.50902
-0.573318
-0.651076
-0.741564
-0.841684
-0.941665
-1.0218
-1.05844
-0.210446
-0.254991
-0.310718
-0.378305
-0.458751
-0.552094
-0.657013
-0.7634
-0.849947
-0.888827
0.0250509
-0.0244474
-0.0840094
-0.15402
-0.235648
-0.329447
-0.433913
-0.540753
-0.63257
-0.6722
0.269119
0.216368
0.154779
0.0842564
0.00368212
-0.0876575
-0.188586
-0.292681
-0.381301
-0.422144
0.503862
0.450653
0.389978
0.321902
0.245376
0.159477
0.0649388
-0.0325174
-0.114669
-0.153819
0.71627
0.66631
0.610206
0.548033
0.478734
0.401244
0.316038
0.228224
0.154543
0.11899
0.903663
0.86028
0.811839
0.758287
0.6985
0.631356
0.557204
0.48063
0.416633
0.385778
1.07284
1.03713
0.997236
0.953039
0.90329
0.846851
0.784035
0.718952
0.66483
0.639011
1.23146
1.20226
1.16895
1.13236
1.09133
1.04468
0.992612
0.938642
0.89411
0.873266
1.36954
1.34634
1.31815
1.28813
1.25566
1.21931
1.17881
1.13667
1.10208
1.08626
1.59453
1.49612
1.48314
1.47739
1.47964
1.50134
1.52407
1.55849
1.57324
1.54376
1.57682
1.49486
1.48286
1.47814
1.47956
1.50083
1.52538
1.5634
1.59224
1.59754
1.56079
1.49252
1.48146
1.47778
1.47862
1.49925
1.52562
1.56799
1.61094
1.64988
1.54632
1.48932
1.47917
1.47644
1.47686
1.49666
1.52444
1.56996
1.62449
1.68975
1.53323
1.48543
1.47616
1.47423
1.47432
1.49313
1.52169
1.56935
1.63308
1.71926
1.52136
1.48098
1.47254
1.4712
1.47099
1.48863
1.51734
1.56611
1.63644
1.73784
1.51055
1.4761
1.4684
1.46743
1.46689
1.48315
1.5114
1.56015
1.6343
1.7455
1.50069
1.47087
1.46384
1.46296
1.46205
1.47669
1.5039
1.55144
1.62653
1.7421
1.49166
1.46538
1.45892
1.45787
1.45649
1.46925
1.49483
1.53999
1.61313
1.72736
1.48338
1.45971
1.45372
1.45219
1.45023
1.46082
1.48422
1.52582
1.59401
1.70115
1.76201
1.50007
1.47395
1.46497
1.47206
1.49167
1.50417
1.52128
1.48472
1.45242
1.68761
1.49394
1.47473
1.46726
1.47311
1.49256
1.50483
1.52258
1.48754
1.44968
1.6647
1.4986
1.47873
1.47016
1.47461
1.4943
1.50736
1.5267
1.49788
1.45193
1.63786
1.49808
1.48102
1.47305
1.47649
1.49676
1.51212
1.5347
1.51604
1.46372
1.6145
1.49701
1.48247
1.47555
1.47837
1.49949
1.51793
1.54556
1.54079
1.48382
1.25679
1.16868
1.04872
0.89302
0.703651
0.486924
0.253037
0.0170153
-0.204621
-0.397161
1.25155
1.16632
1.0514
0.90029
0.715594
0.502103
0.268721
0.0302402
-0.196135
-0.393967
1.26259
1.17332
1.05608
0.906395
0.725064
0.513918
0.280425
0.0394901
-0.19088
-0.392973
1.29448
1.19193
1.0643
0.912273
0.73252
0.522544
0.288326
0.0449422
-0.188976
-0.394956
1.34652
1.22368
1.07797
0.918149
0.73679
0.527136
0.292747
0.0475697
-0.189896
-0.400292
)
;

boundaryField
{
    left
    {
        type            zeroGradient;
    }
    right
    {
        type            fixedValue;
        value           uniform 0;
    }
    down
    {
        type            zeroGradient;
    }
    up
    {
        type            zeroGradient;
    }
    cylinder
    {
        type            zeroGradient;
    }
    defaultFaces
    {
        type            empty;
    }
}


// ************************************************************************* //
