/*--------------------------------*- C++ -*----------------------------------*\
  =========                 |
  \\      /  F ield         | OpenFOAM: The Open Source CFD Toolbox
   \\    /   O peration     | Website:  https://openfoam.org
    \\  /    A nd           | Version:  13
     \\/     M anipulation  |
\*---------------------------------------------------------------------------*/
FoamFile
{
    format      ascii;
    class       surfaceScalarField;
    location    "2.35";
    object      phi;
}
// * * * * * * * * * * * * * * * * * * * * * * * * * * * * * * * * * * * * * //

dimensions      [0 3 -1 0 0 0 0];

internalField   nonuniform List<scalar> 
3485
(
-0.000958066
0.0042066
-0.00324853
-0.000620703
0.00805683
-0.0083942
0.00300744
0.00782096
-0.0114491
0.0112956
0.00340828
-0.0116965
0.0252579
-0.0052571
-0.00870514
0.0455397
-0.0179945
-0.00228732
0.0724454
-0.0342243
0.00731862
0.105759
-0.0530328
0.0197189
0.144732
-0.0739257
0.0349533
-0.0886806
0.0475046
0.185908
-0.000353314
0.00455991
0.00145508
0.00624844
0.00760567
0.00167036
0.019698
-0.00868402
0.0387251
-0.0242842
0.0647812
-0.0440507
0.0969252
-0.0663682
0.133333
-0.0894403
0.170914
-0.111507
-0.129874
0.212107
0.000673391
0.00388652
0.0051014
0.00182043
0.0153572
-0.00858542
0.0328339
-0.0261608
0.0577189
-0.0491691
0.088767
-0.0750988
0.123568
-0.101169
0.15911
-0.124982
0.19263
-0.145027
-0.160937
0.223693
0.00173123
0.00215529
0.00912929
-0.00557762
0.0239558
-0.023412
0.0466735
-0.0488784
0.0758821
-0.0783778
0.108631
-0.107848
0.141429
-0.133967
0.171297
-0.15485
0.196318
-0.170048
-0.180045
0.215426
0.00291385
-0.000758565
0.0134428
-0.0161065
0.032545
-0.0425142
0.0589743
-0.0753077
0.0893647
-0.108768
0.119637
-0.138121
0.146505
-0.160835
0.168208
-0.176553
0.184416
-0.186257
-0.191902
0.196273
0.00418846
-0.00494702
0.0176957
-0.0296137
0.0398648
-0.0646834
0.0672826
-0.102725
0.095246
-0.136732
0.119949
-0.162824
0.139511
-0.180396
0.153803
-0.190845
0.163825
-0.196279
-0.198498
0.170421
0.00546769
-0.0104147
0.021258
-0.045404
0.0444989
-0.0879243
0.0700232
-0.12825
0.0931731
-0.159881
0.111512
-0.181163
0.124735
-0.193619
0.133774
-0.199884
0.139821
-0.202326
-0.202737
0.14406
0.00653539
-0.0169501
0.0234371
-0.0623057
0.0456103
-0.110098
0.0672992
-0.149939
0.0849615
-0.177544
0.0976492
-0.19385
0.106034
-0.202004
0.111321
-0.205171
0.114631
-0.205636
-0.204672
0.116567
0.00722362
-0.0241737
0.0238885
-0.0789706
0.0433893
-0.129598
0.0605253
-0.167075
0.0731197
-0.190138
0.0812831
-0.202014
0.0861197
-0.206841
0.0888319
-0.207883
0.0902815
-0.207086
-0.205374
0.0909833
0.00743543
-0.0316092
0.0226807
-0.0942158
0.038686
-0.145604
0.0513235
-0.179712
0.0595758
-0.198391
0.0641514
-0.206589
0.0662457
-0.208935
0.0668694
-0.208507
0.0666506
-0.206867
0.0658101
-0.204533
-0.00466198
0.0216485
-0.0169866
-0.0147573
0.0413633
-0.0312679
-0.0274712
0.04798
-0.0352661
-0.0411691
0.0483158
-0.0346179
-0.0550547
0.0460527
-0.0321671
-0.0687644
0.0427087
-0.028999
-0.0820863
0.0387359
-0.025414
-0.0948328
0.0342314
-0.0214849
-0.106799
0.0292321
-0.0172656
0.0239576
-0.117805
-0.0129521
-0.00249069
0.0241392
-0.00940189
0.0482745
-0.0190965
0.0576746
-0.0301349
0.0593542
-0.0415893
0.0575071
-0.0529674
0.0540867
-0.0639909
0.0497594
-0.074442
0.0446825
-0.0840893
0.0388794
0.0324694
-0.0926011
0.000271617
0.0238676
-0.00207134
0.0506174
-0.00720335
0.0628067
-0.014078
0.0662289
-0.0216846
0.0651136
-0.0293702
0.0617723
-0.0367468
0.057136
-0.0435529
0.0514886
-0.0495618
0.0448883
0.0372426
-0.054335
0.00289625
0.0209714
0.00561643
0.0478972
0.00609604
0.062327
0.00453957
0.0677854
0.00185429
0.0677989
-0.00112483
0.0647515
-0.00388392
0.0598951
-0.00609676
0.0537015
-0.00744309
0.0462346
0.037133
-0.00733347
0.00466676
0.0163046
0.0118041
0.0407599
0.0179138
0.0562174
0.0220902
0.063609
0.0247389
0.0651502
0.0266114
0.0628789
0.028353
0.0581534
0.0303653
0.0516892
0.032862
0.043738
0.0339733
0.0360218
0.00517321
0.0111314
0.0149514
0.0309816
0.0254899
0.0456789
0.0349532
0.0541457
0.0429626
0.0571407
0.0498539
0.0559877
0.0561303
0.051877
0.0621866
0.045633
0.0682283
0.0376962
0.0279498
0.0742518
0.00444637
0.00668503
0.0143157
0.0211123
0.026636
0.0333586
0.0393646
0.0414172
0.0515102
0.0449951
0.062814
0.0446839
0.0733713
0.0413197
0.083352
0.0356523
0.0928681
0.0281801
0.0186975
0.10212
0.00289698
0.00378804
0.0104898
0.0135195
0.0213174
0.022531
0.0339075
0.0288271
0.0472067
0.0316958
0.0606434
0.0312472
0.074008
0.0279552
0.0873139
0.0223464
0.100708
0.014786
0.00434954
0.115056
0.00104159
0.00274646
0.00510408
0.00945702
0.0122595
0.0153756
0.0220257
0.0190609
0.0338705
0.019851
0.0474971
0.0176206
0.0628952
0.0125571
0.0802768
0.00496468
0.100091
-0.00502802
-0.0182071
0.122647
-0.000502075
0.000560745
0.00448719
0.0118517
0.0229975
0.0383307
0.0582065
0.08289
0.112815
0.142113
-0.122759
-0.075772
0.0807259
-0.0280144
-0.365569
0.270824
0.0670672
-0.338459
0.243378
0.128489
-0.266011
0.20459
0.167574
-0.200964
0.161879
0.190143
-0.142724
0.120156
0.202454
-0.106873
0.0945609
0.208379
-0.0732842
0.0673592
0.211231
-0.0588914
0.0560403
-0.0388809
0.0384345
-0.0907113
-0.0776618
-0.00955635
-0.446724
0.0771055
-0.425121
0.134605
-0.323511
0.170995
-0.237354
0.192149
-0.163878
0.203756
-0.11848
0.209353
-0.0788806
0.212009
-0.061548
-0.0392586
-0.0434491
-0.0885478
0.020933
-0.511106
0.0937616
-0.49795
0.144164
-0.373913
0.175941
-0.269132
0.194686
-0.182623
0.20516
-0.128953
0.210301
-0.0840222
0.212771
-0.064018
-0.0396554
0.0100219
-0.105903
0.0570075
-0.558091
0.114789
-0.555732
0.156447
-0.415571
0.182386
-0.295071
0.197868
-0.198105
0.20674
-0.137825
0.211254
-0.0885364
0.21352
-0.0662844
-0.0401504
0.0584343
-0.128316
0.0929668
-0.592624
0.136066
-0.598831
0.169228
-0.448733
0.189481
-0.315324
0.201487
-0.210111
0.208482
-0.144819
0.212223
-0.092278
0.21426
-0.0683207
-0.0408155
0.102329
-0.156393
0.125598
-0.615893
0.154882
-0.628115
0.180302
-0.474153
0.19592
-0.330942
0.204995
-0.219186
0.210224
-0.150048
0.213178
-0.0952327
0.214984
-0.070126
-0.0417213
0.138065
-0.192338
0.153021
-0.630849
0.170303
-0.645396
0.188616
-0.492465
0.200662
-0.342988
0.207719
-0.226244
0.211667
-0.153996
0.214022
-0.0975878
0.215666
-0.0717701
-0.0429522
0.164817
-0.242099
0.17424
-0.640272
0.182011
-0.653168
0.194092
-0.504546
0.203336
-0.352232
0.209179
-0.232086
0.212478
-0.157294
0.214595
-0.0997057
0.216247
-0.0734219
-0.0446237
0.183483
-0.302935
0.189035
-0.645824
0.189906
-0.654039
0.197026
-0.511666
0.204111
-0.359317
0.209247
-0.237222
0.212422
-0.160469
0.214722
-0.102006
0.216633
-0.0753326
-0.0468915
0.197377
-0.358199
0.19814
-0.646587
0.194794
-0.650693
0.198211
-0.515083
0.203593
-0.364699
0.208181
-0.24181
0.211471
-0.16376
0.214278
-0.104813
0.216727
-0.0777813
-0.0499405
0.63416
-0.420661
-0.571698
0.593858
-0.606285
0.519674
-0.576509
0.45378
-0.449189
0.407726
-0.318645
0.378619
-0.212703
0.360091
-0.145231
0.348834
-0.0935562
0.341026
-0.0699739
-0.0455698
0.691659
-0.397716
-0.714604
0.606481
-0.521107
0.520903
-0.49093
0.456888
-0.385174
0.413227
-0.274984
0.384048
-0.183524
0.364229
-0.125412
0.351686
-0.081014
0.342817
-0.0611048
-0.040442
0.691508
-0.349941
-0.739282
0.617367
-0.446967
0.548441
-0.422005
0.486925
-0.323658
0.436392
-0.22445
0.399168
-0.1463
0.373162
-0.099406
0.356714
-0.0645666
0.345427
-0.0498177
-0.034116
0.682289
-0.305655
-0.726575
0.617342
-0.38202
0.548821
-0.353484
0.485962
-0.260799
0.435752
-0.174241
0.399903
-0.110451
0.374755
-0.074258
0.358373
-0.0481841
0.346621
-0.0380658
-0.0272355
0.671705
-0.268644
-0.708717
0.618114
-0.328428
0.556834
-0.292204
0.495319
-0.199283
0.442486
-0.121408
0.403826
-0.0717913
0.376889
-0.0473206
0.35955
-0.0308453
0.347182
-0.0256973
-0.0199128
0.662953
-0.238538
-0.693059
0.612992
-0.278467
0.550118
-0.22933
0.488052
-0.137218
0.436149
-0.0695046
0.399041
-0.0346832
0.373529
-0.0218083
0.357184
-0.0145007
0.345384
-0.0138966
-0.0126863
0.645517
-0.20654
-0.677516
0.587957
-0.220906
0.519075
-0.160448
0.458173
-0.0763154
0.411851
-0.0231831
0.380823
-0.00365562
0.360148
-0.00113317
0.347034
-0.00138651
0.337291
-0.00415335
-0.00631916
0.587991
-0.154616
-0.639914
0.510404
-0.14332
0.435317
-0.0853609
0.383239
-0.0242377
0.35214
0.00791607
0.334609
0.0138756
0.323646
0.00983
0.316738
0.00552147
0.310998
0.00158635
-0.0018319
0.425357
-0.0718328
-0.50814
0.333107
-0.0510702
0.268451
-0.0207052
0.241314
0.00289948
0.23648
0.0127506
0.238407
0.0119484
0.240231
0.00800542
0.241096
0.0046564
0.240436
0.00224704
7.23259e-05
0.124485
-0.196318
0.0734151
0.0527099
0.0556093
0.06836
0.0803084
0.0883138
0.0929702
0.0952172
0.55789
0.054445
-0.546525
0.569244
0.0796291
0.584651
0.10116
0.60027
0.12844
0.619084
0.151608
0.637777
0.17758
0.651109
0.202094
0.65534
0.219463
0.623406
0.244041
0.237616
0.536208
0.0435371
-0.5253
0.549002
0.0668346
0.564886
0.0852752
0.583881
0.109445
0.605746
0.129743
0.630976
0.152351
0.657523
0.175546
0.682879
0.194106
0.707842
0.219078
0.230853
0.521331
0.0342373
-0.512031
0.534428
0.0537377
0.549086
0.070618
0.567964
0.0905666
0.58905
0.108657
0.613643
0.127758
0.642103
0.147086
0.67168
0.164529
0.707106
0.183652
0.198677
0.510443
0.0257077
-0.501913
0.522889
0.0412911
0.536852
0.0566546
0.554801
0.0726181
0.574943
0.0885157
0.59864
0.10406
0.625767
0.11996
0.655815
0.13448
0.690175
0.149293
0.162277
0.500916
0.0175485
-0.492756
0.512322
0.0298845
0.526013
0.0429635
0.543054
0.0555773
0.562765
0.0688051
0.585759
0.081066
0.611901
0.0938179
0.641135
0.105246
0.673578
0.116851
0.127138
0.491533
0.00983057
-0.483815
0.502123
0.0192943
0.515549
0.0295373
0.531952
0.039174
0.551415
0.0493422
0.573841
0.0586405
0.599434
0.0682251
0.627826
0.0768532
0.659196
0.0854806
0.0932758
0.479691
0.00284764
-0.472708
0.489582
0.00940346
0.502485
0.0166343
0.518393
0.0232659
0.537475
0.0302605
0.559534
0.0365811
0.584788
0.0429708
0.612843
0.0487981
0.644018
0.0543056
0.0597785
0.454267
-0.00257631
-0.448843
0.462552
0.00111818
0.473882
0.00530452
0.488289
0.00885924
0.505843
0.012706
0.52653
0.0158947
0.550309
0.0191918
0.577186
0.0219204
0.607051
0.024441
0.0269151
0.381233
-0.00398232
-0.379827
0.384987
-0.00263578
0.391548
-0.00125722
0.400629
-0.000221675
0.412389
0.0009459
0.426587
0.00169683
0.443315
0.00246382
0.462468
0.00276785
0.483824
0.00308512
0.00259851
0.186875
-0.190857
0.184239
0.182982
0.18276
0.183706
0.185403
0.187867
0.190634
0.193719
0.0744786
0.149302
-0.13742
-0.0863606
0.0635438
0.15149
-0.140555
0.0534461
0.154119
-0.144021
0.0436472
0.15766
-0.147861
0.0338822
0.16147
-0.151705
0.0242226
0.164459
-0.1548
0.015068
0.163967
-0.154812
0.00722254
0.154016
-0.146171
0.00184448
0.123885
-0.118507
0.0587708
-0.0569263
0.0710055
0.15999
-0.0816937
0.060465
0.16203
0.05026
0.164324
0.0404001
0.16752
0.0307712
0.171099
0.0214531
0.173777
0.0128661
0.172554
0.00581175
0.161071
0.00128848
0.128408
0.0600593
0.0640882
0.169416
-0.0735141
0.0543152
0.171803
0.0446328
0.174006
0.0352398
0.176913
0.0261659
0.180173
0.0175583
0.182385
0.00985959
0.180253
0.00387468
0.167055
0.000495503
0.131787
0.0605548
0.0532442
0.177493
-0.0613205
0.0447647
0.180283
0.0361719
0.182599
0.027727
0.185357
0.0195933
0.188307
0.0120243
0.189954
0.00561102
0.186666
0.00106231
0.171604
-0.000562249
0.133412
0.0599925
0.0407511
0.184558
-0.0478164
0.0334291
0.187605
0.025957
0.190071
0.0185731
0.192741
0.0115364
0.195343
0.00521894
0.196271
0.000241981
0.191643
-0.00212739
0.173974
-0.00179992
0.133084
0.0581926
0.0261684
0.190416
-0.0320266
0.0201385
0.193635
0.0139609
0.196249
0.00786025
0.198842
0.0021705
0.201033
-0.00254054
0.200982
-0.0053742
0.194476
-0.00565025
0.17425
-0.00307458
0.130509
0.055118
0.010945
0.195496
-0.0160247
0.00589587
0.198684
0.000860845
0.201284
-0.00395772
0.203661
-0.00815429
0.20523
-0.011062
0.20389
-0.0117732
0.195188
-0.00940972
0.171886
-0.00433466
0.125434
0.0507834
-0.00608579
0.199648
0.00193332
-0.0100143
0.202612
-0.0137872
0.205057
-0.0171808
0.207054
-0.0196998
0.207749
-0.0205191
0.204709
-0.0185911
0.19326
-0.0132442
0.166539
-0.00551169
0.117701
0.0452717
-0.0244941
0.202707
0.0214353
-0.027285
0.205403
-0.0297736
0.207545
-0.0316398
0.20892
-0.032238
0.208347
-0.0305808
0.203052
-0.0255946
0.188273
-0.0169346
0.157879
-0.00649296
0.10726
0.0387787
-0.0450293
0.043203
-0.0464928
-0.0474542
-0.047469
-0.0457116
-0.0410502
-0.0324889
-0.0202133
-0.00716956
0.106382
0.0396258
-0.118272
-0.0277361
0.0942287
0.0407324
-0.0285788
0.0817984
0.0419266
-0.0294962
0.0690657
0.0432086
-0.030476
0.0560136
0.0445605
-0.0315084
0.0426679
0.0458422
-0.0324965
0.0292147
0.0465011
-0.0330479
0.0162862
0.0449653
-0.0320368
0.00547563
0.0378224
-0.0270118
0.0192888
-0.0138131
0.105904
0.0515648
-0.117843
0.0937742
0.0528624
0.0813803
0.0543205
0.0686932
0.0558957
0.0556888
0.0575649
0.0423904
0.0591406
0.0289888
0.0599026
0.0161262
0.0578278
0.00539979
0.0485489
0.0246885
0.10503
0.0634365
-0.116902
0.0929142
0.0649782
0.080556
0.0666787
0.0679299
0.0685218
0.0550146
0.0704802
0.0418288
0.0723265
0.0285589
0.0731725
0.0158487
0.070538
0.00528446
0.0591131
0.029973
0.103455
0.0753544
-0.115373
0.0914245
0.0770083
0.0791462
0.078957
0.0665963
0.0810717
0.0537709
0.0833055
0.0407196
0.0853778
0.0276574
0.0862347
0.0152397
0.0829558
0.0050246
0.0693282
0.0349976
0.101289
0.0870903
-0.113025
0.0894209
0.0888765
0.0773899
0.0909879
0.0651258
0.0933358
0.0525767
0.0958546
0.0397692
0.0981853
0.0269354
0.0990685
0.0147698
0.0951214
0.00483646
0.0792616
0.0398341
0.0979183
0.0989032
-0.109731
0.0861131
0.100682
0.0741549
0.102946
0.0620558
0.105435
0.0498052
0.108105
0.0374251
0.110565
0.025129
0.111365
0.0135983
0.106652
0.00434672
0.0885132
0.0441808
0.0942882
0.11011
-0.105495
0.0830909
0.111879
0.0716993
0.114338
0.0600154
0.117119
0.0480496
0.120071
0.0359155
0.122699
0.0239184
0.123362
0.0127934
0.117777
0.00402035
0.0972862
0.0482011
0.0873605
0.12117
-0.0984207
0.0765292
0.12271
0.0657472
0.12512
0.0548844
0.127982
0.0438227
0.131133
0.0325876
0.133935
0.0214802
0.134469
0.0112714
0.127986
0.00340988
0.105148
0.051611
0.0828886
0.130498
-0.0922168
0.0731476
0.132451
0.0628135
0.135454
0.0521152
0.13868
0.0412202
0.142028
0.0302799
0.144875
0.0196399
0.145109
0.0100755
0.13755
0.00293993
0.112283
0.0545509
0.0723764
-0.0792982
0.0642727
0.0557054
0.0465246
0.0368471
0.0269225
0.0172193
0.00859887
0.00237538
0.201549
0.00898565
-0.0125448
0.205178
0.025021
-0.0286499
0.208591
0.0342458
-0.037659
0.211898
0.0549843
-0.0582915
0.213076
0.0713035
-0.0724808
0.211739
0.0983261
-0.0969899
0.205736
0.124515
-0.118512
0.192955
0.150941
-0.13816
0.167417
0.202866
-0.177327
0.261867
-0.212721
0.201214
0.00576168
0.204527
0.0217074
0.207665
0.0311086
0.210565
0.0520836
0.211745
0.0701238
0.20997
0.100101
0.204239
0.130245
0.191205
0.163976
0.165865
0.228205
0.309889
0.200805
0.002946
0.203712
0.0188004
0.206556
0.0282654
0.208866
0.0497728
0.209994
0.0689961
0.207425
0.10267
0.201948
0.135722
0.188291
0.177633
0.163572
0.252924
0.356559
0.200317
0.000618919
0.202736
0.0163809
0.205242
0.0257601
0.2068
0.0482148
0.207821
0.0679748
0.204123
0.106368
0.198945
0.1409
0.184025
0.192553
0.160587
0.276362
0.401773
0.199742
-0.00113325
0.201611
0.0145123
0.2037
0.0236708
0.204373
0.0475417
0.205202
0.0671462
0.200188
0.111382
0.195275
0.145813
0.178815
0.209013
0.156864
0.298313
0.445613
0.199077
-0.00222033
0.20035
0.013239
0.201909
0.022112
0.201616
0.0478345
0.202105
0.0666579
0.195663
0.117823
0.190945
0.150531
0.172528
0.22743
0.152664
0.318176
0.488546
0.198321
-0.00255202
0.198971
0.0125893
0.199854
0.0212289
0.198596
0.0490926
0.198486
0.0667676
0.190632
0.125678
0.185741
0.155421
0.165691
0.247481
0.147394
0.336474
0.530444
0.197479
-0.00204151
0.197484
0.0125847
0.19753
0.021183
0.195333
0.0512893
0.194344
0.0677569
0.185086
0.134936
0.179793
0.160715
0.157491
0.269783
0.141805
0.352159
0.573829
0.196557
-0.000608284
0.195894
0.0132473
0.194944
0.0221332
0.191845
0.054388
0.189646
0.0699556
0.179226
0.145356
0.173113
0.166827
0.150483
0.292413
0.135156
0.367486
0.616768
0.195595
0.00178671
0.194165
0.0146774
0.192168
0.0241298
0.188056
0.0585005
0.18438
0.0736308
0.172459
0.157278
0.164641
0.174645
0.140267
0.316787
0.12935
0.378404
0.66682
0.304639
-0.000841731
0.309782
0.00953399
0.316058
0.0178537
0.320498
0.0540607
0.332378
0.0617513
0.333252
0.156403
0.354487
0.15341
0.360757
0.310516
0.411986
0.327175
0.595589
0.483217
0.30508
-0.00391138
0.311525
0.00308916
0.318199
0.011179
0.324679
0.0475809
0.337355
0.0490751
0.341153
0.152606
0.364862
0.129701
0.38105
0.294329
0.429018
0.279207
0.528003
0.496604
0.305771
-0.00767181
0.313606
-0.00474652
0.320687
0.00409858
0.329849
0.0384184
0.341149
0.0377756
0.349202
0.144552
0.373189
0.105714
0.396389
0.271128
0.440349
0.235247
0.456491
0.511861
0.306829
-0.0124907
0.315927
-0.0138447
0.324146
-0.00412036
0.33548
0.0270848
0.344587
0.028668
0.356961
0.132178
0.379187
0.0834881
0.408213
0.242103
0.449533
0.193927
0.383872
0.522152
0.30828
-0.0187608
0.318658
-0.0242224
0.328876
-0.0143382
0.341476
0.0144848
0.348715
0.021429
0.365839
0.115054
0.385073
0.0642549
0.419498
0.207678
0.453641
0.159784
0.312461
0.525052
0.310173
-0.0269239
0.322093
-0.036142
0.334473
-0.0267189
0.347353
0.00160556
0.35321
0.0155723
0.374647
0.0936161
0.389481
0.0494216
0.426415
0.170743
0.45727
0.128929
0.242269
0.527462
0.31291
-0.037824
0.326363
-0.0495945
0.339326
-0.0396816
0.350557
-0.00962569
0.355287
0.010842
0.379905
0.0689982
0.390907
0.0384193
0.430196
0.131454
0.460992
0.0981336
0.174505
0.528756
0.31609
-0.0519036
0.327251
-0.0607559
0.335022
-0.0474521
0.341143
-0.0157466
0.345566
0.00641854
0.371784
0.04278
0.381765
0.028439
0.425075
0.0881437
0.458286
0.0649231
0.108513
0.524277
0.30998
-0.0598734
0.303068
-0.0538437
0.292212
-0.0365962
0.287931
-0.0114658
0.292655
0.00169453
0.317366
0.0180689
0.331532
0.0142728
0.380188
0.0394881
0.416676
0.0284354
0.044229
0.48096
0.242137
0.188293
0.151697
0.140231
0.141926
0.159995
0.174267
0.213756
0.242191
0.28642
0.496738
-0.0998818
0.501631
-0.086587
0.505109
-0.0769916
0.508531
-0.0647428
0.513089
-0.0523741
0.517811
-0.0367484
0.524061
-0.0222754
0.529873
-0.00387839
0.538332
0.0129759
0.0350107
0.497363
-0.100641
0.498121
-0.087345
0.497762
-0.076633
0.497997
-0.0649779
0.499033
-0.0534103
0.50136
-0.0390753
0.505128
-0.026043
0.510079
-0.00882918
0.517143
0.00591119
0.0268544
0.504923
-0.0937032
0.500767
-0.0831889
0.497
-0.0728663
0.494394
-0.0623712
0.492734
-0.0517505
0.493352
-0.0396936
0.49489
-0.0275806
0.49891
-0.0128497
0.50383
0.000990998
0.0186533
0.510826
-0.082377
0.502253
-0.0746164
0.495931
-0.0665442
0.491614
-0.0580537
0.488497
-0.0486335
0.487552
-0.0387489
0.487724
-0.0277527
0.49059
-0.0157153
0.494525
-0.00294412
0.011265
0.513244
-0.0705694
0.503448
-0.0648205
0.495601
-0.0586972
0.48966
-0.0521131
0.485291
-0.0442642
0.482786
-0.0362434
0.481907
-0.026874
0.483367
-0.0171752
0.486605
-0.0061823
0.0051138
0.515044
-0.0581515
0.504185
-0.0539611
0.494964
-0.049476
0.487436
-0.044585
0.481716
-0.0385447
0.477827
-0.0323538
0.47591
-0.0249577
0.47618
-0.0174451
0.4787
-0.00870217
-1.08355e-06
0.515249
-0.0446442
0.503039
-0.0417519
0.492334
-0.0387707
0.483278
-0.0355292
0.476151
-0.031417
0.470919
-0.0271223
0.467821
-0.0218597
0.466941
-0.0165653
0.468541
-0.0103017
-0.00416822
0.508503
-0.0288704
0.494143
-0.0273916
0.481387
-0.0260153
0.470331
-0.0244732
0.461268
-0.0223533
0.454121
-0.0199751
0.449218
-0.0169569
0.44651
-0.0138574
0.446378
-0.0101702
-0.00663282
0.463207
-0.0111175
0.447065
-0.0112499
0.432421
-0.0113707
0.419254
-0.0113061
0.407778
-0.0108778
0.397993
-0.0101897
0.390222
-0.00918566
0.384439
-0.00807459
0.381014
-0.00674546
-0.00544563
0.275302
0.264053
0.252682
0.241376
0.230498
0.220308
0.211123
0.203048
0.196303
0.00683545
0.0395291
-0.0463646
0.0164546
0.104973
-0.114592
0.0230904
0.149985
-0.156621
0.0256246
0.175023
-0.177557
0.0249846
0.186181
-0.185541
0.0224305
0.189377
-0.186823
0.0189127
0.188142
-0.184624
0.0150732
0.183464
-0.179624
0.0114895
0.174098
-0.170514
0.156751
0.00871832
-0.15398
0.00813546
0.0313937
0.0219208
0.0911878
0.0338137
0.138092
0.041221
0.167615
0.0445339
0.182868
0.0450506
0.188861
0.0438971
0.189295
0.0417278
0.185633
0.0387287
0.177097
0.160843
0.0346372
0.00861293
0.0227808
0.0258481
0.0739526
0.0432707
0.120669
0.056423
0.154463
0.0646092
0.174682
0.06886
0.18461
0.0704034
0.187752
0.0699483
0.186088
0.0675174
0.179528
0.166123
0.0622376
0.00815442
0.0146263
0.0272575
0.0548496
0.049706
0.0982209
0.0693279
0.134841
0.0836397
0.16037
0.0928595
0.17539
0.0981632
0.182448
0.100491
0.18376
0.0998327
0.180186
0.170749
0.0952066
0.00687906
0.00774728
0.0255606
0.036168
0.0510982
0.0726833
0.0769631
0.108976
0.0986088
0.138725
0.114449
0.15955
0.124913
0.171984
0.130973
0.1777
0.13318
0.177979
0.173711
0.130218
0.00513624
0.00261104
0.0211571
0.0201471
0.046417
0.0474235
0.0761473
0.079246
0.104992
0.10988
0.129253
0.135289
0.14745
0.153787
0.15975
0.1654
0.166695
0.171033
0.171816
0.16859
0.00336513
-0.000754091
0.0154032
0.00810909
0.0369259
0.0259007
0.0660401
0.0501318
0.0987409
0.0771792
0.130692
0.103339
0.158575
0.125904
0.180548
0.143426
0.196309
0.155272
0.163554
0.204571
0.00185501
-0.0026091
0.00973433
0.000229772
0.0255128
0.0101223
0.0496476
0.025997
0.0805664
0.0462604
0.115223
0.0686822
0.150182
0.0909451
0.182217
0.111392
0.209277
0.128211
0.140616
0.232216
0.000584125
-0.00319323
0.00458721
-0.00377331
0.0142592
0.000450313
0.0311964
0.00905979
0.0557577
0.0216991
0.0869157
0.0375242
0.122555
0.0553062
0.16017
0.0737759
0.195712
0.0926693
0.10412
0.232207
-0.000686539
-0.00250669
1.24107e-05
-0.00447226
0.00439254
-0.00392982
0.0141877
-0.000735345
0.0307159
0.0051708
0.0543944
0.0138457
0.0847686
0.024932
0.120788
0.037757
0.160791
0.0526657
0.0646862
0.200225
-0.00120374
-0.00130295
-0.00196252
-0.00371348
-0.000403214
-0.00548912
0.00485821
-0.00599676
0.0148295
-0.00480052
0.0303436
-0.00166837
0.0518748
0.00340086
0.0794168
0.010215
0.113158
0.0189246
0.0314036
0.146441
-0.000196766
-0.00110618
0.000681322
-0.00459157
0.00343279
-0.00824059
0.00850052
-0.0110645
0.0162238
-0.0125238
0.0269991
-0.0124437
0.041273
-0.010873
0.0594179
-0.00793002
0.0818317
-0.00348919
0.0048083
0.108427
0.0011332
-0.00223938
0.00431725
-0.00777562
0.00926821
-0.0131916
0.0157313
-0.0175275
0.0235678
-0.0203603
0.032787
-0.021663
0.043509
-0.0215949
0.0558919
-0.020313
0.0701571
-0.0177543
-0.0127618
0.0877271
0.00149346
-0.00373285
0.00476702
-0.0110492
0.00901413
-0.0174387
0.01381
-0.0223234
0.0190531
-0.0256033
0.0248673
-0.0274773
0.0314643
-0.0281918
0.0390251
-0.0278738
0.0477002
-0.0264294
-0.0236267
0.0585651
0.000542685
-0.00427553
0.00128125
-0.0117877
0.00168426
-0.0178417
0.00165376
-0.0222929
0.00139206
-0.0253416
0.00124751
-0.0273327
0.00157548
-0.0285198
0.00268424
-0.0289826
0.00489948
-0.0286446
-0.0274095
0.00868226
-0.00130812
-0.00296741
-0.00449876
-0.0085971
-0.00906083
-0.0132796
-0.0144807
-0.016873
-0.0202372
-0.0195852
-0.0258558
-0.0217141
-0.0309351
-0.0234404
-0.0351286
-0.0247891
-0.0380873
-0.0256859
-0.0263065
-0.0391903
-0.0033688
0.00040139
-0.0104028
-0.00156308
-0.0193341
-0.00434832
-0.0291168
-0.00709029
-0.0391123
-0.00958971
-0.0489161
-0.0119103
-0.0582364
-0.0141201
-0.0668192
-0.0162064
-0.0743877
-0.0181174
-0.0199419
-0.0807523
-0.00492235
0.00532374
-0.0147459
0.00826045
-0.0267104
0.0076162
-0.0393893
0.00558861
-0.0521207
0.00314168
-0.0646144
0.000583329
-0.0766017
-0.00213283
-0.087949
-0.00485901
-0.0985043
-0.00756214
-0.0102224
-0.108224
-0.00585669
0.0111804
-0.0172862
0.01969
-0.030953
0.021283
-0.0452601
0.0198957
-0.0595327
0.0174142
-0.073461
0.0145117
-0.0869561
0.0113623
-0.0998439
0.00802882
-0.111983
0.00457681
0.00113097
-0.123336
-0.00580612
-0.0173841
-0.0313672
-0.0460894
-0.0608423
-0.0753296
-0.0893813
-0.102837
-0.115526
-0.127347
0.227191
0.0951197
-0.17587
0.245235
0.41287
-0.430913
0.257788
0.29119
-0.303744
0.254346
0.0539094
-0.0504674
0.228147
-0.0188878
0.0450876
0.204589
-0.0131439
0.036701
0.195693
-0.0120618
0.0209585
0.196321
-0.0131271
0.0124991
0.201382
-0.0168763
0.0118156
-0.0155879
0.00957085
0.196048
0.00749828
0.241928
0.36699
0.268167
0.26495
0.256246
0.0658303
0.223056
0.0143025
0.201776
0.00813657
0.196374
-0.00666014
0.198467
-0.0152202
0.203438
-0.0218469
-0.0207287
0.155024
-0.0597984
0.221603
0.300411
0.253505
0.233048
0.233786
0.08555
0.205093
0.0429951
0.193925
0.0193043
0.194976
-0.00771088
0.19935
-0.0195944
0.204486
-0.0269824
-0.0250978
0.105239
-0.106472
0.180742
0.224908
0.207631
0.20616
0.192307
0.100874
0.182358
0.0529445
0.186131
0.0155307
0.193821
-0.0154003
0.200124
-0.0258977
0.205305
-0.0321638
-0.0287399
0.0423802
-0.14017
0.110372
0.156916
0.139192
0.17734
0.14943
0.0906348
0.165321
0.037054
0.181838
-0.000986563
0.193872
-0.0274341
0.20116
-0.0331859
0.206136
-0.0371398
-0.0316831
-0.0347762
-0.144584
0.0285991
0.0935406
0.0810095
0.12493
0.123841
0.0478037
0.158209
0.0026857
0.181209
-0.0239871
0.194963
-0.0411881
0.202417
-0.04064
0.207006
-0.0417282
-0.033977
-0.10006
-0.125277
-0.0251517
0.0186325
0.0556971
0.0440808
0.116624
-0.0131236
0.157945
-0.0386347
0.18262
-0.0486618
0.196547
-0.0551157
0.203746
-0.0478387
0.207888
-0.0458703
-0.0356995
-0.13017
-0.103331
-0.0404034
-0.0711336
0.0535795
-0.049902
0.118354
-0.0778977
0.160259
-0.0805403
0.184651
-0.073054
0.198206
-0.0686704
0.205036
-0.0546691
0.208759
-0.0495927
-0.036947
-0.137287
-0.0893799
-0.0384529
-0.169968
0.0579394
-0.146294
0.121766
-0.141724
0.162811
-0.121586
0.186618
-0.0968604
0.199751
-0.0818039
0.206241
-0.0611588
0.209608
-0.0529597
-0.0378237
-0.136001
-0.0351448
0.0619387
0.124804
0.165097
0.188393
0.20115
0.20735
0.210431
0.0424999
0.0438579
-0.0863578
0.0044277
0.0380722
-0.0173278
0.0217555
-0.00855515
-0.00877267
0.0153559
-0.0239111
0.0335379
-0.018182
0.0417835
-0.00824556
0.0448424
-0.00305891
0.0461573
-0.00131493
-0.000737334
0.182471
0.140555
-0.279169
0.0768536
0.14369
0.0266452
0.0719639
0.0381351
-0.0202626
0.0730053
-0.0587813
0.0993035
-0.0444803
0.112317
-0.021259
0.117808
-0.00855023
0.120742
-0.00424823
-0.00246282
0.332569
0.218632
-0.410646
0.199138
0.277121
0.117778
0.153324
0.111165
-0.0136504
0.132309
-0.0799254
0.15042
-0.0625906
0.160773
-0.0316126
0.165924
-0.0137008
0.169402
-0.00772674
-0.00479015
0.421677
0.234286
-0.437331
0.313076
0.385721
0.225532
0.240868
0.197656
0.0142258
0.19275
-0.0750195
0.190673
-0.0605135
0.191216
-0.032155
0.192857
-0.0153422
0.195535
-0.0104045
-0.00723731
0.417962
-0.359546
0.37277
0.309894
0.273653
0.243721
0.219908
0.208712
0.205869
0.20728
0.0105005
-0.000164574
-0.0103359
0.0120981
-0.00159764
0.0150014
-0.00290328
0.0194714
-0.00446997
0.0257511
-0.00627971
0.0337122
-0.00796112
0.0437208
-0.0100086
0.0563325
-0.0126116
0.0705135
-0.014181
-0.0158443
0.0290867
-0.000917599
-0.0283337
0.033681
-0.00619198
0.0420403
-0.0112625
0.0554167
-0.0178464
0.0741729
-0.0250359
0.0985391
-0.0323273
0.132272
-0.0437413
0.171503
-0.0518426
0.220757
-0.0634357
-0.0742555
0.0451872
-0.00251999
-0.0435848
0.052535
-0.0135398
0.0658025
-0.0245301
0.0869802
-0.0390241
0.115659
-0.0537144
0.154851
-0.07152
0.205533
-0.0944231
0.263161
-0.109471
0.337603
-0.137877
-0.147298
0.0586416
-0.00510753
-0.0560541
0.068272
-0.0231702
0.0856217
-0.0418798
0.112158
-0.0655599
0.148171
-0.0897279
0.1965
-0.119849
0.252099
-0.150022
0.31848
-0.175851
0.389858
-0.209255
-0.194772
0.0695234
-0.0659126
0.0809903
0.101348
0.130995
0.171485
0.220227
0.274775
0.33114
0.354092
0.0812266
-0.0723945
0.0803158
-0.0891479
0.0726472
-0.073475
0.0820544
0.0637899
-0.075198
0.0840553
0.0543585
-0.0770288
0.0864601
0.0442463
-0.0788343
0.0889465
0.0335691
-0.0802984
0.0909756
0.02269
-0.0803279
0.0912071
0.0123591
-0.076149
0.0864799
0.00399957
-0.0623622
0.0707218
-0.0306298
0.0346293
0.0895791
-0.0630099
-0.0989637
0.0798285
-0.0637244
0.0694329
-0.0648024
0.0584547
-0.0660505
0.0470577
-0.0674374
0.0354295
-0.0686701
0.0238614
-0.0687599
0.0130041
-0.0652917
0.00423051
-0.0535886
-0.0263993
0.0905055
-0.0524669
-0.101049
0.0798665
-0.0530853
0.0690404
-0.0539763
0.0580355
-0.0550456
0.0468217
-0.0562236
0.0353926
-0.0572409
0.023929
-0.0572963
0.0130653
-0.054428
0.00423803
-0.0447614
-0.0221612
0.0954073
-0.0417335
-0.106141
0.0845135
-0.0421915
0.07339
-0.0428528
0.0619545
-0.0436101
0.0501544
-0.0444235
0.0380261
-0.0451126
0.0258142
-0.0450844
0.0142027
-0.0428166
0.00468486
-0.0352435
-0.0174764
0.0976854
-0.0305573
-0.108862
0.0863675
-0.0308736
0.074799
-0.0312843
0.0629561
-0.0317672
0.050833
-0.0323004
0.0384801
-0.0327597
0.0261136
-0.0327179
0.0143698
-0.0310728
0.00473175
-0.0256054
-0.0127446
0.100669
-0.0192327
-0.111993
0.0891121
-0.0193168
0.077301
-0.0194732
0.065205
-0.0196712
0.0528032
-0.0198986
0.040123
-0.0200795
0.0273625
-0.0199574
0.015163
-0.0188733
0.00505599
-0.0154984
-0.00768862
0.102684
-0.00766124
-0.114256
0.0909093
-0.00754186
0.0788759
-0.00743978
0.0665568
-0.00735218
0.0539308
-0.00727259
0.0410222
-0.00717095
0.0280218
-0.00695699
0.0155641
-0.00641563
0.0052042
-0.00513851
-0.00248442
0.104429
0.0040399
-0.11613
0.0924874
0.00439979
0.0802769
0.00477069
0.0677709
0.00515386
0.0549497
0.00554859
0.0418384
0.00594039
0.0286245
0.00625685
0.01594
0.00626892
0.00535369
0.00544778
0.00286928
0.105602
0.0158512
-0.117414
0.0935464
0.0164558
0.0812173
0.0170998
0.0685892
0.017782
0.0556417
0.0184961
0.0423966
0.0191855
0.0290369
0.0196166
0.0161927
0.0191131
0.00544946
0.016191
0.00831873
0.106207
-0.118092
0.0940839
0.0816874
0.0689934
0.0559812
0.0426701
0.0292388
0.0163152
0.0054944
0.0131784
-0.151899
-0.01526
0.00876983
-0.166106
0.00334708
-0.174201
-0.00222452
-0.179052
-0.00728178
-0.181766
-0.0110447
-0.181778
-0.0124615
-0.17614
-0.0104255
-0.158657
-0.00500044
-0.120017
-0.051365
0.0358406
-0.149023
-0.0387165
0.0299595
-0.160224
0.0228109
-0.167053
0.0153372
-0.171579
0.00809325
-0.174522
0.0016828
-0.175368
-0.00290953
-0.171548