/*--------------------------------*- C++ -*----------------------------------*\
  =========                 |
  \\      /  F ield         | OpenFOAM: The Open Source CFD Toolbox
   \\    /   O peration     | Website:  https://openfoam.org
    \\  /    A nd           | Version:  13
     \\/     M anipulation  |
\*---------------------------------------------------------------------------*/
FoamFile
{
    format      ascii;
    class       volScalarField;
    location    "0.3725";
    object      p;
}
// * * * * * * * * * * * * * * * * * * * * * * * * * * * * * * * * * * * * * //

dimensions      [0 2 -2 0 0 0 0];

internalField   nonuniform List<scalar> 
1800
(
-0.898802
-0.838118
-0.746258
-0.647305
-0.555305
-0.473476
-0.401432
-0.337976
-0.281522
-0.234227
-1.06177
-0.99422
-0.890814
-0.779146
-0.675235
-0.582673
-0.50109
-0.429375
-0.366845
-0.315058
-1.21566
-1.14109
-1.02618
-0.902108
-0.786737
-0.683882
-0.593082
-0.513152
-0.44322
-0.383753
-1.35541
-1.27382
-1.14778
-1.01204
-0.886133
-0.77395
-0.674894
-0.587622
-0.511108
-0.445446
-1.47558
-1.38709
-1.25048
-1.10397
-0.968513
-0.847905
-0.741378
-0.647431
-0.564914
-0.493445
-1.57092
-1.47585
-1.3295
-1.17348
-1.02979
-0.90198
-0.789106
-0.689507
-0.601886
-0.525471
-1.63648
-1.53532
-1.38033
-1.21635
-1.06593
-0.932301
-0.81432
-0.710183
-0.618452
-0.538012
-1.66804
-1.56157
-1.39925
-1.22912
-1.07372
-0.935831
-0.814135
-0.706696
-0.611945
-0.528496
-1.66218
-1.55138
-1.38335
-1.20916
-1.05063
-0.910148
-0.786206
-0.676776
-0.580166
-0.494773
-1.61659
-1.50271
-1.33119
-1.1548
-0.99515
-0.853808
-0.729107
-0.619024
-0.521716
-0.435442
0.301758
0.321287
0.339371
0.353207
0.362563
0.368096
0.370469
0.37034
0.368296
0.364968
0.266654
0.287498
0.307971
0.324654
0.336835
0.345011
0.349809
0.351886
0.351842
0.350435
0.206464
0.229337
0.253494
0.274556
0.291071
0.303294
0.311798
0.317238
0.320243
0.321786
0.122611
0.148185
0.177266
0.204152
0.22641
0.243974
0.257353
0.267204
0.274198
0.279602
0.0170072
0.0459127
0.0810897
0.115134
0.144418
0.168481
0.187767
0.202936
0.214717
0.224743
-0.107883
-0.0750521
-0.0326909
0.00972883
0.0471788
0.0787499
0.104818
0.126052
0.143256
0.158487
-0.249005
-0.211686
-0.161139
-0.109251
-0.0626359
-0.0226917
0.0108903
0.03879
0.0618924
0.0827167
-0.40274
-0.360387
-0.300734
-0.238395
-0.181722
-0.132634
-0.0908888
-0.055813
-0.0264385
0.000209704
-0.565056
-0.517115
-0.447487
-0.373763
-0.306166
-0.247144
-0.196529
-0.153699
-0.117544
-0.0848131
-0.731775
-0.677685
-0.597239
-0.511194
-0.431697
-0.36167
-0.300984
-0.249025
-0.204375
-0.164755
0.329323
0.274166
0.225922
0.18502
0.150113
0.119635
0.0915394
0.0647811
0.0387052
0.0128992
0.326927
0.275968
0.228186
0.186982
0.151553
0.120596
0.0921476
0.0651377
0.03888
0.0129394
0.318341
0.275566
0.229459
0.188577
0.152931
0.121605
0.0928387
0.0655731
0.0391079
0.0129973
0.303077
0.272861
0.229747
0.189793
0.154234
0.122654
0.0936055
0.0660814
0.0393854
0.0130721
0.280505
0.267666
0.229054
0.19062
0.155448
0.123733
0.0944399
0.0666568
0.0397093
0.0131632
0.25
0.25967
0.227354
0.191049
0.156558
0.124832
0.0953342
0.0672934
0.0400763
0.0132699
0.21115
0.248509
0.224571
0.191069
0.157547
0.125941
0.0962801
0.0679847
0.0404827
0.0133921
0.163734
0.233838
0.220649
0.190682
0.158406
0.127048
0.0972683
0.0687232
0.0409246
0.0135291
0.106711
0.214145
0.214938
0.18964
0.159031
0.128106
0.0982761
0.0694968
0.0413961
0.0136805
0.0441456
0.190959
0.207802
0.187971
0.159391
0.129087
0.0992828
0.0702918
0.0418897
0.013846
0.0159971
0.173219
0.200137
0.184457
0.157983
0.12865
0.0992459
0.0703795
0.0419961
0.0139348
0.0154001
0.15393
0.185118
0.17516
0.152608
0.125557
0.0974489
0.0693413
0.0414544
0.0137691
0.0285147
0.144094
0.174542
0.167418
0.147624
0.122491
0.0955931
0.0682433
0.0408696
0.0135863
0.0440445
0.137699
0.165649
0.160335
0.142793
0.119406
0.0936779
0.0670915
0.0402471
0.013388
0.0609458
0.134292
0.158493
0.154068
0.138256
0.116396
0.0917632
0.0659215
0.0396067
0.0131814
0.0764455
0.132368
0.152553
0.148519
0.13406
0.113528
0.0899015
0.0647682
0.0389675
0.0129727
0.0887063
0.130884
0.147452
0.143604
0.130241
0.11086
0.0881416
0.063664
0.038348
0.0127676
0.0964719
0.128884
0.142792
0.139207
0.126808
0.108436
0.0865256
0.06264
0.0377667
0.0125743
0.0995399
0.125647
0.137978
0.134956
0.123548
0.106135
0.0849805
0.0616499
0.0371888
0.0123708
0.0980022
0.123283
0.13516
0.132647
0.121809
0.104914
0.0841646
0.0611291
0.0368853
0.0122686
-0.289026
-0.347303
-0.384182
-0.400485
-0.39792
-0.378706
-0.345414
-0.300608
-0.247244
-0.190141
-0.129444
-0.186614
-0.226734
-0.250541
-0.2591
-0.254452
-0.237856
-0.213264
-0.180476
-0.148019
-0.00862902
-0.0639415
-0.105135
-0.13284
-0.147701
-0.151662
-0.14517
-0.132334
-0.111412
-0.0908678
0.0845647
0.0308807
-0.0106584
-0.0405788
-0.0593328
-0.0686598
-0.0688627
-0.0634786
-0.0510232
-0.0385882
0.155738
0.103414
0.0617874
0.0304678
0.00908631
-0.00380016
-0.00862418
-0.00811507
-0.00148543
0.00569818
0.2099
0.15851
0.116789
0.0844811
0.0612492
0.0459312
0.0379328
0.0352042
0.0378765
0.0415453
0.25022
0.199307
0.157343
0.124181
0.0995035
0.082395
0.0721412
0.0671821
0.0671508
0.0684062
0.278802
0.227868
0.185377
0.151281
0.125297
0.106708
0.0947583
0.0882688
0.0865195
0.0862689
0.296357
0.244896
0.201336
0.165886
0.138363
0.118227
0.104736
0.0971258
0.0945815
0.094762
0.306312
0.252385
0.206349
0.168216
0.137841
0.114904
0.098694
0.0890438
0.084905
0.0861368
1.2022
1.15731
1.10795
1.0549
0.99564
0.928138
0.85074
0.763755
0.677167
0.613967
1.00097
0.950501
0.895629
0.834753
0.765675
0.686777
0.596453
0.495322
0.394976
0.320651
0.790383
0.735232
0.674409
0.605992
0.528108
0.439057
0.337058
0.222927
0.10981
0.0246369
0.587732
0.526424
0.45824
0.381433
0.294238
0.194775
0.0810907
-0.0458721
-0.171337
-0.267176
0.39455
0.326727
0.251172
0.166157
0.0698769
-0.0396972
-0.164655
-0.303951
-0.440926
-0.546869
0.211945
0.138311
0.0561878
-0.036193
-0.140684
-0.259442
-0.394652
-0.545305
-0.692179
-0.807157
0.0428768
-0.0355227
-0.123111
-0.221699
-0.333146
-0.459652
-0.603714
-0.764811
-0.91962
-1.04144
-0.109246
-0.191299
-0.28316
-0.386656
-0.503617
-0.636102
-0.786765
-0.956629
-1.12161
-1.24172
-0.241105
-0.325743
-0.420728
-0.527863
-0.649017
-0.786058
-0.940519
-1.118
-1.28906
-1.40448
-0.349927
-0.436217
-0.533182
-0.64259
-0.766438
-0.906713
-1.06499
-1.2427
-1.4152
-1.53037
2.48264
2.50073
2.52242
2.54518
2.56753
2.58907
2.60922
2.62729
2.64315
2.65449
2.42766
2.44395
2.46341
2.48363
2.50319
2.52165
2.53838
2.55271
2.56488
2.57361
2.35135
2.36497
2.38107
2.39751
2.4129
2.42675
2.43838
2.44711
2.45374
2.45869
2.25437
2.26453
2.27628
2.28776
2.29772
2.30554
2.31046
2.31183
2.31118
2.3114
2.13768
2.14374
2.15025
2.15576
2.15914
2.15965
2.15642
2.14886
2.13936
2.13376
2.00283
2.00427
2.0048
2.00344
1.99921
1.99125
1.97857
1.96065
1.94089
1.92817
1.85194
1.84846
1.84248
1.83353
1.82083
1.80339
1.78009
1.75057
1.71931
1.69825
1.68883
1.68004
1.6668
1.64932
1.62714
1.59914
1.56409
1.52177
1.47793
1.44744
1.51998
1.5057
1.48413
1.45679
1.42377
1.38385
1.33566
1.27925
1.22173
1.18088
1.35276
1.32756
1.29426
1.25537
1.21051
1.15789
1.09593
1.02484
0.95316
0.901339
2.4775
1.96803
2.41451
2.23655
2.22741
2.2278
2.23439
2.25822
2.31122
2.41169
2.47017
1.96036
2.40831
2.22881
2.21879
2.21754
2.22155
2.24153
2.28765
2.37438
2.46352
1.9522
2.40311
2.22049
2.20949
2.20628
2.20699
2.22199
2.25815
2.32467
2.45751
1.94366
2.39894
2.21158
2.19956
2.19403
2.19072
2.19948
2.22252
2.26228
2.45211
1.93489
2.39577
2.20206
2.18904
2.18081
2.17273
2.1739
2.18055
2.1868
2.44726
1.92608
2.39354
2.19188
2.17798
2.16664
2.15303
2.14507
2.13214
2.09777
2.44292
1.91746
2.39215
2.18099
2.16645
2.15152
2.13157
2.11279
2.07725
1.99461
2.43904
1.9093
2.39138
2.16939
2.1545
2.13547
2.1083
2.07687
2.01607
1.87782
2.43557
1.90191
2.39093
2.15711
2.14226
2.11853
2.08326
2.03725
1.94809
1.74649
2.43251
1.89571
2.3904
2.14425
2.1298
2.10082
2.05685
1.9955
1.87692
1.61067
2.42949
1.88983
2.38456
2.13367
2.11419
2.07825
2.02243
1.94158
1.79288
1.47341
2.4296
1.88384
2.37562
2.12584
2.09749
2.05398
1.98619
1.88785
1.71827
1.39746
2.43168
1.87924
2.36831
2.11818
2.08233
2.03161
1.95332
1.84118
1.65753
1.34246
2.43595
1.87645
2.36241
2.11118
2.06882
2.0115
1.92423
1.80132
1.60821
1.3036
2.4428
1.87557
2.35786
2.10511
2.05713
1.99402
1.89935
1.76824
1.56954
1.27709
2.45282
1.87657
2.35463
2.10015
2.0474
1.97943
1.87888
1.74176
1.54041
1.25974
2.4664
1.87924
2.35266
2.09638
2.03972
1.96788
1.8629
1.72158
1.51957
1.24936
2.48645
1.88326
2.35187
2.09381
2.03419
1.95949
1.85144
1.70742
1.50593
1.2447
2.50754
1.88747
2.35185
2.09236
2.0309
1.95441
1.8446
1.6992
1.49874
1.2453
2.55413
1.89255
2.35465
2.09041
2.02952
1.95169
1.84104
1.69485
1.49527
1.2456
1.17431
0.998926
0.81005
0.630535
0.460436
0.298878
0.148178
0.0113602
-0.108748
-0.209723
1.10081
0.962341
0.811378
0.664844
0.523919
0.388068
0.259604
0.141374
0.03588
-0.0549407
1.06175
0.947457
0.82136
0.695356
0.573044
0.454731
0.342189
0.237658
0.143204
0.0605672
1.04192
0.941485
0.832538
0.722161
0.614021
0.508795
0.407884
0.313223
0.226724
0.150066
1.0337
0.942522
0.845448
0.746147
0.647916
0.551816
0.459108
0.371501
0.290751
0.218412
1.0324
0.947546
0.858511
0.766946
0.675706
0.586037
0.499127
0.416529
0.33986
0.270588
1.0351
0.954664
0.871052
0.784756
0.69831
0.613044
0.530088
0.450883
0.376947
0.309682
1.04037
0.962851
0.882783
0.799836
0.716402
0.633878
0.553357
0.47621
0.403883
0.337732
1.04963
0.974244
0.895928
0.814295
0.731976
0.650399
0.57063
0.493999
0.421904
0.35564
1.0607
0.988266
0.910887
0.829422
0.7472
0.665506
0.585336
0.508027
0.434956
0.367375
-2.83848
-2.68307
-2.4572
-2.23821
-2.05171
-1.89745
-1.77142
-1.67004
-1.59061
-1.53171
-2.90714
-2.75964
-2.53875
-2.32124
-2.13427
-1.97933
-1.85261
-1.75048
-1.67041
-1.61175
-2.86266
-2.72463
-2.513
-2.30009
-2.11524
-1.96114
-1.83434
-1.73146
-1.64995
-1.58866
-2.71961
-2.59198
-2.39328
-2.18892
-2.00902
-1.8576
-1.73188
-1.62876
-1.54587
-1.4815
-2.50031
-2.38388
-2.20106
-2.00898
-1.8372
-1.69088
-1.56804
-1.46602
-1.38263
-1.31642
-2.23041
-2.12574
-1.96096
-1.78456
-1.62425
-1.48596
-1.36856
-1.26993
-1.18814
-1.12269
-1.9345
-1.84173
-1.69623
-1.53813
-1.39237
-1.26512
-1.15606
-1.06371
-0.986262
-0.924573
-1.63265
-1.55148
-1.42539
-1.28706
-1.15803
-1.04428
-0.946019
-0.862349
-0.791833
-0.736271
-1.33942
-1.26913
-1.16173
-1.04351
-0.932485
-0.833983
-0.748511
-0.675526
-0.613757
-0.567085
-1.0638
-1.00339
-0.913234
-0.814346
-0.721324
-0.638582
-0.566535
-0.50459
-0.450512
-0.407804
-0.810791
-0.759152
-0.684482
-0.603581
-0.528084
-0.461604
-0.404713
-0.357338
-0.317975
-0.2833
-0.582305
-0.538225
-0.47691
-0.411721
-0.351647
-0.299367
-0.255207
-0.218875
-0.18938
-0.162435
-0.378854
-0.341135
-0.291049
-0.239118
-0.192048
-0.151641
-0.117939
-0.0904614
-0.0683549
-0.0480234
-0.200819
-0.168394
-0.127671
-0.0868328
-0.0506809
-0.0202798
0.00455481
0.0243978
0.0400423
0.0542618
-0.0486536
-0.0205693
0.012466
0.0441713
0.0712975
0.0933787
0.110772
0.124096
0.134085
0.142806
0.0771689
0.101791
0.128702
0.153109
0.172999
0.188371
0.199709
0.207655
0.212889
0.216928
0.176229
0.198223
0.220506
0.239382
0.253773
0.26402
0.270701
0.274468
0.275961
0.276288
0.24823
0.26841
0.287521
0.302599
0.313205
0.319913
0.32336
0.324207
0.323061
0.320752
0.293047
0.31222
0.329591
0.34258
0.351103
0.355858
0.357515
0.356736
0.354112
0.350304
0.31077
0.329734
0.346773
0.359361
0.36748
0.371854
0.373162
0.372065
0.369146
0.365004
-0.0526117
0.10897
0.143504
0.144443
0.133042
0.114232
0.0915557
0.0667125
0.0405674
0.0136541
0.034245
0.144908
0.1592
0.151888
0.13529
0.114392
0.0909692
0.0659971
0.0400399
0.0134694
0.107104
0.173538
0.171324
0.156342
0.137075
0.114599
0.090518
0.065408
0.0395962
0.0133117
0.16538
0.196704
0.181986
0.161335
0.13886
0.114914
0.0902103
0.0649441
0.0392337
0.0131802
0.212512
0.216029
0.19142
0.165828
0.140582
0.115326
0.090039
0.0646
0.038949
0.0130735
0.250058
0.232011
0.199685
0.169919
0.142263
0.115834
0.0899988
0.0643711
0.0387391
0.0129907
0.279247
0.24514
0.206917
0.173645
0.143907
0.116435
0.0900835
0.0642526
0.038601
0.0129306
0.30113
0.255768
0.213155
0.177015
0.145515
0.117123
0.0902867
0.0642394
0.0385315
0.0128923
0.316485
0.264086
0.218403
0.180033
0.147088
0.11789
0.0906018
0.0643266
0.0385278
0.0128748
0.325823
0.270205
0.22266
0.182702
0.148622
0.11873
0.0910217
0.0645089
0.0385867
0.0128774
-0.237901
-0.00241056
0.0862078
0.11674
0.12011
0.108886
0.08975
0.0664077
0.0407498
0.0138125
-0.209907
0.0101086
0.0920445
0.11934
0.121349
0.109328
0.0898687
0.066402
0.04071
0.0137912
-0.179628
0.0290854
0.101782
0.12402
0.123455
0.110208
0.0901705
0.0664593
0.0406822
0.0137663
-0.146408
0.0516907
0.114037
0.130137
0.126164
0.111526
0.0907154
0.0666491
0.0407247
0.0137655
-0.108134
0.0793672
0.129456
0.13793
0.130421
0.11326
0.0914776
0.0669549
0.0408268
0.0137838
-1.46522
-1.54565
-1.53933
-1.45882
-1.32388
-1.1631
-0.992971
-0.834443
-0.682019
-0.544942
-1.46761
-1.54912
-1.5391
-1.45194
-1.30894
-1.13879
-0.956321
-0.783412
-0.620227
-0.485071
-1.47287
-1.55384
-1.53872
-1.44364
-1.29142
-1.11082
-0.921963
-0.74742
-0.589919
-0.463988
-1.48366
-1.56379
-1.54318
-1.44016
-1.28028
-1.09296
-0.901417
-0.723577
-0.566317
-0.439195
-1.50083
-1.58103
-1.55591
-1.44609
-1.27959
-1.08628
-0.890335
-0.706721
-0.543827
-0.401416
1.83642
1.81612
1.78926
1.75833
1.723
1.68148
1.63225
1.57515
1.51729
1.47672
1.98712
1.97989
1.96676
1.94935
1.92786
1.90113
1.86793
1.82801
1.78692
1.759
2.12552
2.12426
2.12025
2.11364
2.1039
2.09005
2.07098
2.04625
2.01999
2.00282
2.2469
2.25113
2.25463
2.25674
2.25655
2.25322
2.2458
2.23373
2.21992
2.21153
2.34752
2.35639
2.36602
2.37518
2.38277
2.38806
2.39022
2.38861
2.38512
2.38364
2.42601
2.43877
2.45346
2.46837
2.48224
2.49446
2.50431
2.51112
2.51594
2.51977
2.48206
2.49784
2.5164
2.53567
2.55429
2.57175
2.5874
2.60054
2.61161
2.61963
2.51565
2.53349
2.5547
2.57694
2.59879
2.61979
2.63936
2.65679
2.67206
2.68301
2.52688
2.54578
2.56838
2.59218
2.61571
2.63857
2.66018
2.67984
2.6973
2.70979
2.51581
2.53479
2.55754
2.5815
2.60519
2.62822
2.65002
2.66988
2.68752
2.70013
-1.3421
-1.40415
-1.48445
-1.58567
-1.71084
-1.86303
-2.04533
-2.26571
-2.49194
-2.6527
-1.05065
-1.11701
-1.20009
-1.30241
-1.42689
-1.57667
-1.75679
-1.96999
-2.19057
-2.3581
-0.677207
-0.749667
-0.837479
-0.942334
-1.06694
-1.21474
-1.38988
-1.5924
-1.7982
-1.97353
-0.25688
-0.336924
-0.429747
-0.536635
-0.660215
-0.803701
-0.97072
-1.16141
-1.35633
-1.51894
0.164286
0.0799253
-0.0143071
-0.119606
-0.238585
-0.374272
-0.530099
-0.706314
-0.885707
-1.03106
0.551383
0.469665
0.380186
0.281861
0.172188
0.0484073
-0.0925529
-0.250928
-0.411232
-0.537657
0.891452
0.818597
0.739372
0.652734
0.55634
0.447803
0.324512
0.186374
0.047187
-0.0599572
1.18889
1.12763
1.06131
0.988695
0.90742
0.815516
0.710896
0.593626
0.475889
0.387421
1.45725
1.40589
1.35068
1.29087
1.22371
1.1475
1.06065
0.963291
0.86596
0.794749
1.69099
1.64791
1.60065
1.55158
1.49773
1.43697
1.36775
1.28999
1.2124
1.1571
2.59638
2.02054
2.51523
2.26431
2.27287
2.27486
2.27419
2.27286
2.22883
2.06384
2.57991
2.01595
2.50464
2.26726
2.27121
2.27427
2.2758
2.28297
2.26141
2.16104
2.56471
2.01154
2.49337
2.26873
2.26916
2.273
2.27768
2.29209
2.29099
2.24995
2.55067
2.00716
2.48183
2.26872
2.26657
2.27086
2.27771
2.29792
2.31415
2.32022
2.53765
2.00271
2.47037
2.2673
2.26331
2.26776
2.27624
2.30067
2.33132
2.37427
2.52556
1.99804
2.45927
2.26459
2.25931
2.26368
2.27328
2.30046
2.34264
2.41315
2.51435
1.99305
2.44872
2.26073
2.25451
2.25858
2.26878
2.29745
2.348
2.43813
2.50396
1.98762
2.43888
2.25587
2.24891
2.25244
2.26268
2.29172
2.34747
2.45007
2.49437
1.98166
2.42985
2.25015
2.24251
2.24527
2.25494
2.28328
2.34109
2.44959
2.48556
1.97514
2.42171
2.24368
2.23533
2.23705
2.24552
2.27212
2.329
2.43673
2.7414
2.04366
2.53478
2.26993
2.27594
2.27187
2.25867
2.23027
2.13172
1.89019
2.69218
2.04029
2.53077
2.27067
2.27556
2.27244
2.25977
2.23296
2.13722
1.89425
2.66421
2.03682
2.52901
2.26963
2.27535
2.273
2.26195
2.23837
2.14875
1.90495
2.63797
2.03177
2.52587
2.26739
2.27486
2.2736
2.26511
2.24664
2.16653
1.92993
2.61503
2.02594
2.52221
2.26414
2.27408
2.2741
2.26899
2.25754
2.19078
1.96756
1.55239
1.40127
1.18015
0.887011
0.52895
0.116541
-0.312891
-0.709785
-1.04155
-1.2959
1.54069
1.38506
1.16801
0.886129
0.54374
0.14559
-0.278658
-0.681389
-1.02545
-1.29122
1.55241
1.38761
1.16656
0.890511
0.558433
0.170414
-0.251212
-0.661533
-1.01697
-1.29188
1.59436
1.41048
1.17852
0.902317
0.573248
0.188792
-0.233167
-0.650666
-1.01588
-1.29858
1.66682
1.45369
1.20125
0.916543
0.585034
0.201033
-0.221679
-0.644684
-1.01897
-1.31043
)
;

boundaryField
{
    left
    {
        type            zeroGradient;
    }
    right
    {
        type            fixedValue;
        value           uniform 0;
    }
    down
    {
        type            zeroGradient;
    }
    up
    {
        type            zeroGradient;
    }
    cylinder
    {
        type            zeroGradient;
    }
    defaultFaces
    {
        type            empty;
    }
}


// ************************************************************************* //
