/*--------------------------------*- C++ -*----------------------------------*\
  =========                 |
  \\      /  F ield         | OpenFOAM: The Open Source CFD Toolbox
   \\    /   O peration     | Website:  https://openfoam.org
    \\  /    A nd           | Version:  13
     \\/     M anipulation  |
\*---------------------------------------------------------------------------*/
FoamFile
{
    format      ascii;
    class       surfaceScalarField;
    location    "0.375";
    object      phi;
}
// * * * * * * * * * * * * * * * * * * * * * * * * * * * * * * * * * * * * * //

dimensions      [0 3 -1 0 0 0 0];

internalField   nonuniform List<scalar> 
3485
(
0.00431352
-0.0501025
0.045789
0.0129878
-0.113976
0.105302
0.0228804
-0.13647
0.126577
0.032836
-0.141515
0.13156
0.0425398
-0.140974
0.13127
0.0519245
-0.138555
0.12917
0.0609894
-0.135447
0.126383
0.0697422
-0.132156
0.123403
0.0781237
-0.128846
0.120464
-0.125143
0.117188
0.086078
0.00428811
-0.0543906
0.0126137
-0.122301
0.0219657
-0.145822
0.0313031
-0.150853
0.0403767
-0.150047
0.0491703
-0.147349
0.0577284
-0.144005
0.066105
-0.140533
0.0743789
-0.13712
-0.133663
0.0828994
0.00423012
-0.0586208
0.0121245
-0.130196
0.0208234
-0.154521
0.0294089
-0.159438
0.0376889
-0.158327
0.0456745
-0.155334
0.0534192
-0.15175
0.0609763
-0.14809
0.0683977
-0.144541
-0.14099
0.0757242
0.0041376
-0.0627584
0.0115191
-0.137577
0.0194702
-0.162472
0.0272181
-0.167186
0.034639
-0.165748
0.04178
-0.162475
0.0487132
-0.158683
0.0554984
-0.154875
0.0621809
-0.151224
-0.147683
0.0688739
0.00398893
-0.0667473
0.0107475
-0.144336
0.0178267
-0.169551
0.0246143
-0.173973
0.031053
-0.172187
0.0372199
-0.168642
0.0431977
-0.164661
0.049047
-0.160724
0.0548159
-0.156993
-0.153449
0.0605825
0.00378124
-0.0705285
0.00981158
-0.150366
0.0159163
-0.175656
0.021658
-0.179715
0.0270445
-0.177574
0.0321834
-0.173781
0.0371648
-0.169642
0.0420492
-0.165609
0.0468799
-0.161823
-0.158291
0.0517218
0.00349674
-0.0740253
0.0086793
-0.155549
0.0137019
-0.180678
0.0183019
-0.184315
0.0225486
-0.18182
0.0265748
-0.177807
0.030473
-0.173541
0.0343012
-0.169437
0.0380974
-0.16562
-0.162101
0.0419072
0.00313509
-0.0771604
0.00736269
-0.159776
0.0112232
-0.184539
0.0146114
-0.187703
0.0176612
-0.18487
0.0205243
-0.180671
0.0232911
-0.176307
0.0260116
-0.172158
0.0287167
-0.168325
-0.164819
0.0314351
0.00269285
-0.0798532
0.00587187
-0.162956
0.00850403
-0.187171
0.0106115
-0.189811
0.0124202
-0.186679
0.0140794
-0.18233
0.0156721
-0.1779
0.0172394
-0.173725
0.0188039
-0.169889
-0.166394
0.0203789
0.00217808
-0.0820313
0.00424174
-0.165019
0.00558004
-0.188509
0.00637536
-0.190606
0.00693059
-0.187234
0.00736968
-0.182769
0.00776041
-0.178291
0.00814739
-0.174112
0.00854356
-0.170285
0.00894888
-0.1668
0.00403139
-0.00796202
0.00393063
0.0139956
-0.0188008
0.00883664
0.0262311
-0.0228896
0.0106541
0.0390822
-0.0240097
0.0111587
0.0519892
-0.024123
0.0112159
0.0647405
-0.0238498
0.0110986
0.0772367
-0.0233958
0.0108997
0.0894329
-0.022862
0.0106658
0.101315
-0.0223059
0.0104235
-0.0219035
0.113023
0.010196
0.00404622
-0.0120082
0.0139804
-0.028735
0.0261557
-0.0350649
0.0389324
-0.0367864
0.051758
-0.0369486
0.0644251
-0.0365169
0.0768379
-0.0358086
0.0889544
-0.0349785
0.100764
-0.034116
-0.0335441
0.112405
0.00407083
-0.0160791
0.0139678
-0.038632
0.0260633
-0.0471604
0.038739
-0.0494621
0.0514527
-0.0496624
0.0640026
-0.0490668
0.0762978
-0.0481037
0.0883002
-0.0469809
0.100005
-0.0458206
-0.0450837
0.111544
0.00410612
-0.0201852
0.0139564
-0.0484823
0.0259477
-0.0591516
0.0384901
-0.0620045
0.0510547
-0.062227
0.0634478
-0.0614599
0.0755848
-0.0602408
0.0874334
-0.0588295
0.0989949
-0.0573821
-0.0564833
0.110394
0.00415186
-0.0243371
0.0139424
-0.0582728
0.0257993
-0.0710084
0.0381688
-0.0743741
0.0505396
-0.0745978
0.0627285
-0.0736488
0.0746601
-0.0721723
0.086309
-0.0704783
0.0976842
-0.0687573
-0.0676952
0.108896
0.00420574
-0.0285428
0.0139177
-0.0679848
0.0256022
-0.0826929
0.0377502
-0.0865221
0.0498723
-0.0867199
0.0617997
-0.0855762
0.0734685
-0.0838412
0.0848623
-0.0818721
0.0959984
-0.0798934
-0.0786557
0.106959
0.00426231
-0.0328051
0.0138684
-0.0775909
0.025333
-0.0941574
0.0371999
-0.0983891
0.0490067
-0.0985267
0.0606024
-0.0971719
0.0719373
-0.0951761
0.0830051
-0.0929399
0.0938293
-0.0907176
-0.0892663
0.10444
0.00431083
-0.0371159
0.0137708
-0.0870509
0.0249561
-0.105343
0.0364723
-0.109905
0.0478883
-0.109943
0.0590734
-0.108357
0.0699938
-0.106097
0.0806535
-0.1036
0.0910762
-0.10114
-0.0993792
0.101189
0.00433763
-0.0414536
0.0135959
-0.0963092
0.0244302
-0.116177
0.0355179
-0.120993
0.0464646
-0.120889
0.0571635
-0.119056
0.067598
-0.116531
0.0777829
-0.113785
0.087731
-0.111088
-0.108793
0.0971448
0.00433544
0.0133279
0.0237281
0.0342946
0.0446752
0.0547899
0.0646414
0.0742603
0.0836362
0.0920317
0.158583
-0.127975
0.0824151
0.182479
-0.0929902
0.0690939
0.194219
-0.0690391
0.0572997
0.199908
-0.0521278
0.0464387
0.202355
-0.0391709
0.0367239
0.202963
-0.0288742
0.0282665
0.202486
-0.0205216
0.0209979
0.201337
-0.0135728
0.0147225
0.199748
-0.00777109
0.00935945
-0.00153511
0.00350088
0.157449
-0.173019
0.181446
-0.116988
0.193467
-0.0810594
0.199402
-0.058063
0.20205
-0.0418186
0.202823
-0.0296475
0.202489
-0.020188
0.20147
-0.0125538
0.200007
-0.00630819
0.000304279
0.155523
-0.216997
0.179514
-0.140979
0.191874
-0.0934197
0.198154
-0.0643425
0.201116
-0.0447808
0.202178
-0.0307092
0.202114
-0.0201244
0.201356
-0.0117954
0.200151
-0.00510349
0.00188251
0.152789
-0.259392
0.176682
-0.164871
0.189439
-0.106177
0.196165
-0.0710684
0.199557
-0.0481728
0.201029
-0.0321809
0.201362
-0.0204572
0.200994
-0.011428
0.200178
-0.00428709
0.00306752
0.149234
-0.29973
0.172958
-0.188595
0.186166
-0.119385
0.193443
-0.0783456
0.19738
-0.0521105
0.199383
-0.0341834
0.200236
-0.0213106
0.200385
-0.011577
0.200087
-0.00398836
0.00372603
0.144834
-0.337605
0.168352
-0.212114
0.182061
-0.133093
0.189996
-0.0862812
0.194596
-0.0567098
0.197248
-0.0368358
0.198742
-0.0228048
0.199531
-0.0123656
0.199877
-0.00433433
0.00372856
0.139554
-0.372719
0.162835
-0.235395
0.17713
-0.147388
0.185838
-0.0949897
0.191217
-0.0620885
0.194637
-0.0402555
0.19689
-0.0250582
0.198438
-0.0139136
0.199551
-0.00544718
0.0029494
0.133341
-0.404871
0.156349
-0.258402
0.17137
-0.16241
0.180977
-0.104597
0.187257
-0.0683681
0.191559
-0.0445579
0.194687
-0.0281864
0.197111
-0.0163373
0.199107
-0.00744378
0.00126646
0.125872
-0.433598
0.148732
-0.281263
0.164693
-0.17837
0.17538
-0.115284
0.18271
-0.0756984
0.188023
-0.0498713
0.192142
-0.0323055
0.195555
-0.0197499
0.198549
-0.0104383
-0.00143661
0.116326
-0.457892
0.139012
-0.303949
0.156424
-0.195782
0.168685
-0.127544
0.177409
-0.0844225
0.183964
-0.056426
0.189238
-0.0375803
0.193768
-0.0242797
0.197878
-0.0145485
-0.00527511
0.361403
-0.407106
-0.412188
0.333764
-0.276311
0.321476
-0.183494
0.315883
-0.121951
0.313
-0.0815391
0.311259
-0.0546859
0.310092
-0.0364125
0.309299
-0.0234865
0.308796
-0.0140463
-0.00508118
0.374498
-0.349004
-0.432601
0.344342
-0.246154
0.329495
-0.168647
0.321542
-0.113999
0.316876
-0.0768733
0.313926
-0.051736
0.311981
-0.0344666
0.310707
-0.0222128
0.309929
-0.0132682
-0.00479209
0.387828
-0.293312
-0.44352
0.355621
-0.213947
0.33755
-0.150576
0.327055
-0.103504
0.32062
-0.0704381
0.316496
-0.0476126
0.313794
-0.0317646
0.312053
-0.0204711
0.311005
-0.0122206
-0.00440869
0.39711
-0.240926
-0.449496
0.364368
-0.181205
0.344296
-0.130505
0.331887
-0.0910948
0.323989
-0.0625398
0.318842
-0.042466
0.315463
-0.0283851
0.313293
-0.0183013
0.311995
-0.0109228
-0.00393786
0.403758
-0.192387
-0.452297
0.371236
-0.148683
0.349894
-0.109162
0.336028
-0.0772295
0.326937
-0.0534482
0.320922
-0.036451
0.316953
-0.0244159
0.314403
-0.0157513
0.31288
-0.00939997
-0.00338744
0.408426
-0.147576
-0.453237
0.376482
-0.11674
0.354385
-0.0870651
0.339452
-0.0622959
0.329419
-0.0434154
0.322694
-0.0297259
0.318228
-0.0199502
0.315357
-0.0128794
0.313642
-0.00768554
-0.00276783
0.411598
-0.105978
-0.453196
0.380345
-0.0854871
0.357836
-0.0645562
0.342153
-0.0466128
0.331409
-0.0326721
0.324128
-0.0224449
0.319267
-0.0150884
0.316135
-0.00974741
0.314263
-0.00581397
-0.00209082
0.413511
-0.0667325
-0.452756
0.382887
-0.0548635
0.360197
-0.0418662
0.344038
-0.0304536
0.332807
-0.021441
0.325129
-0.014767
0.319981
-0.00994001
0.316657
-0.00642388
0.314668
-0.00382519
-0.00137078
0.412196
-0.0283918
-0.450537
0.382151
-0.0248179
0.359626
-0.0193416
0.343381
-0.0142087
0.331988
-0.0100478
0.324158
-0.00693692
0.318892
-0.00467457
0.315491
-0.00302236
0.313456
-0.0017905
-0.000635043
0.364224
-0.392616
0.339406
0.320064
0.305856
0.295808
0.288871
0.284196
0.281174
0.279384
0.442448
0.00848838
-0.441987
0.442228
0.0205983
0.441274
0.0323893
0.439566
0.0436159
0.436919
0.0543682
0.43359
0.063912
0.428787
0.0736766
0.424073
0.080438
0.41513
0.0918427
0.08902
0.42496
0.0078267
-0.424298
0.425866
0.0196929
0.426948
0.0313067
0.428213
0.0423514
0.429437
0.0531435
0.43083
0.0625196
0.43186
0.0726463
0.433095
0.0792034
0.433749
0.0911878
0.0901689
0.410431
0.00697003
-0.409574
0.412009
0.0181143
0.414262
0.0290544
0.417167
0.0394465
0.420631
0.0496789
0.424604
0.0585472
0.429082
0.0681682
0.433638
0.0746469
0.439458
0.085368
0.0861068
0.399063
0.00600795
-0.398101
0.401085
0.016092
0.404139
0.0260003
0.40817
0.0354154
0.413184
0.0446654
0.41898
0.0527513
0.425804
0.0613441
0.432963
0.0674877
0.441801
0.0765296
0.078412
0.390157
0.00497333
-0.389123
0.392487
0.0137621
0.396094
0.0223931
0.400908
0.0306016
0.406962
0.0386117
0.414027
0.0456866
0.422371
0.0530002
0.431358
0.0584999
0.442057
0.0658309
0.0681725
0.383325
0.00388276
-0.382234
0.385874
0.0112127
0.389864
0.0184025
0.395221
0.0252449
0.401969
0.0318641
0.409902
0.0377535
0.419223
0.0436793
0.429436
0.048287
0.441292
0.0539744
0.056228
0.378254
0.00274304
-0.377114
0.380968
0.00849871
0.385233
0.014137
0.390976
0.0195016
0.398194
0.024647
0.406711
0.0292358
0.41665
0.0337401
0.427648
0.0372896
0.440191
0.0414313
0.0432231
0.374406
0.00153833
-0.373201
0.377284
0.00562057
0.381797
0.00962387
0.387865
0.013434
0.395449
0.0170623
0.4044
0.0202849
0.414752
0.0233885
0.426239
0.0258021
0.43915
0.0285207
0.0296171
0.367471
0.000297044
-0.366229
0.37056
0.00253124
0.375431
0.00475313
0.381995
0.00686963
0.390175
0.0088818
0.399787
0.0106729
0.410802
0.012374
0.422929
0.0136755
0.436319
0.0151304
0.0153989
0.302328
-0.302031
0.304859
0.309613
0.316482
0.325364
0.336037
0.348411
0.362086
0.377217
0.0808646
0.123208
-0.112482
-0.0915907
0.0709085
0.125456
-0.1155
0.0613314
0.128344
-0.118767
0.0518279
0.131771
-0.122267
0.04225
0.135551
-0.125973
0.0325303
0.139542
-0.129823
0.0226771
0.143286
-0.133433
0.0129276
0.144276
-0.134527
0.00434726
0.13102
-0.12244
0.0713704
-0.0670231
0.0765917
0.132127
-0.0855105
0.067426
0.134622
0.0582266
0.137543
0.0490369
0.140961
0.0398199
0.144768
0.0305264
0.148836
0.0211623
0.15265
0.011963
0.153476
0.00395767
0.139025
0.075328
0.0689647
0.139747
-0.0765845
0.0609655
0.142621
0.0527535
0.145755
0.0444349
0.149279
0.03603
0.153173
0.0275245
0.157341
0.0189494
0.161226
0.0105629
0.161862
0.00337762
0.146211
0.0787057
0.060384
0.146407
-0.0670449
0.0534366
0.149569
0.046267
0.152925
0.038943
0.156603
0.0314875
0.160628
0.0239111
0.164918
0.0162767
0.16886
0.00887155
0.169267
0.00268166
0.152401
0.0813873
0.0513706
0.152222
-0.0571848
0.0453898
0.15555
0.039239
0.159075
0.032936
0.162906
0.0264906
0.167073
0.0199265
0.171482
0.0133329
0.175454
0.00702695
0.175573
0.00194434
0.157483
0.0833317
0.0420115
0.157152
-0.0469415
0.0369942
0.160567
0.0318571
0.164213
0.0265903
0.168173
0.021197
0.172467
0.0157132
0.176966
0.0102391
0.180928
0.00509324
0.180719
0.00119062
0.161386
0.0845223
0.0323636
0.16114
-0.0363522
0.0283328
0.164598
0.0242212
0.168324
0.0200112
0.172383
0.0157045
0.176773
0.0113428
0.181327
0.00706446
0.185206
0.00316099
0.184623
0.000391683
0.164155
0.084914
0.0224289
0.164118
-0.0254065
0.0194318
0.167595
0.0163819
0.171374
0.0132656
0.175499
0.0100847
0.179954
0.00689694
0.184515
0.00384658
0.188256
0.00121201
0.187257
-0.000335212
0.165702
0.0845788
0.0122307
0.166021
-0.014134
0.0103183
0.169507
0.00837273
0.17332
0.006389
0.177483
0.00438867
0.181955
0.00238783
0.186516
0.00053305
0.190111
-0.000744722
0.188535
-0.000952612
0.16591
0.0836261
0.00189377
-0.0026722
0.00111552
0.000323484
-0.000484319
-0.00129867
-0.00201676
-0.00251165
-0.00248594
-0.00159483
0.107246
0.0215813
-0.118427
-0.0104005
0.0957313
0.022145
-0.0106298
0.0838857
0.0227206
-0.0108751
0.0716954
0.0233301
-0.0111398
0.0591375
0.0239852
-0.0114274
0.0461895
0.0246866
-0.0117385
0.032858
0.0253829
-0.0120515
0.0193547
0.0257051
-0.0122018
0.00693883
0.0237436
-0.0113277
0.0135772
-0.00663837
0.106426
0.032722
-0.117567
0.0949635
0.0336075
0.0831823
0.0345019
0.0710674
0.035445
0.0585959
0.0364568
0.0457448
0.0375376
0.0325217
0.038606
0.0191389
0.0390879
0.00684856
0.0360339
0.0204258
0.105271
0.0437983
-0.116347
0.0938887
0.0449896
0.082202
0.0461885
0.0701958
0.0474512
0.0578465
0.0488061
0.045131
0.0502531
0.0320575
0.0516795
0.0188406
0.0523049
0.006725
0.0481494
0.0271508
0.103694
0.0547789
-0.114675
0.092429
0.0562549
0.0808769
0.0577406
0.0690223
0.0593058
0.0568411
0.0609873
0.0443101
0.062784
0.0314381
0.0645515
0.0184421
0.065301
0.00656248
0.060029
0.0337132
0.101582
0.0656199
-0.112423
0.0904851
0.067352
0.0791244
0.0691013
0.0674815
0.0709488
0.0555302
0.0729385
0.0432463
0.0750679
0.03064
0.0771578
0.0179332
0.0780078
0.00635668
0.0716056
0.0400699
0.0987691
0.0762526
-0.109402
0.0879145
0.0782066
0.07682
0.0801958
0.0654648
0.0823039
0.0538218
0.0845816
0.0418659
0.0870239
0.0296083
0.0894154
0.0172751
0.090341
0.00608377
0.0827969
0.0461537
0.0952292
0.0865501
-0.105527
0.0847555
0.0886803
0.0740575
0.0908938
0.0630988
0.0932626
0.051849
0.0958314
0.0402876
0.0985853
0.0284356
0.101267
0.0165317
0.102245
0.0057806
0.093548
0.0519343
0.0903354
0.0963669
-0.100152
0.0803797
0.0986359
0.0702261
0.101047
0.0598326
0.103656
0.0491583
0.106506
0.0381728
0.109571
0.0268952
0.112545
0.0155716
0.113568
0.00538954
0.10373
0.0573238
0.0857233
0.105178
-0.0945346
0.0765817
0.107778
0.0670292
0.1106
0.0571286
0.113557
0.046906
0.116728
0.0363686
0.120108
0.0255586
0.123355
0.0147348
0.124392
0.00505916
0.113406
0.062383
0.0774463
-0.0847499
0.0697235
0.0615567
0.052846
0.0436016
0.0338873
0.0238091
0.0136743
0.00464013
0.200982
0.0148558
-0.0178484
0.203146
0.0223884
-0.0245523
0.203046
0.0274253
-0.0273255
0.203822
0.0295198
-0.0302951
0.203149
0.0357363
-0.0350638
0.200777
0.0439907
-0.0416184
0.195229
0.0553972
-0.0498495
0.184471
0.0706491
-0.059891
0.16084
0.0945263
-0.0708947
0.126193
-0.0837804
0.200814
0.012032
0.202847
0.020355
0.202694
0.0275779
0.203382
0.0288318
0.202597
0.0365222
0.200069
0.0465186
0.194331
0.0611345
0.18329
0.0816908
0.159616
0.1182
0.168242
0.200516
0.00950587
0.20226
0.0186112
0.201966
0.0278716
0.202435
0.0283625
0.20141
0.0375477
0.198609
0.0493196
0.192588
0.0671552
0.181176
0.0931027
0.157574
0.141802
0.209469
0.20008
0.00741599
0.201384
0.0173067
0.200871
0.0283844
0.200989
0.0282452
0.199599
0.038937
0.196409
0.0525105
0.190005
0.0735592
0.178134
0.104973
0.154728
0.165209
0.249522
0.199501
0.00590484
0.20023
0.0165777
0.199425
0.0291891
0.199054
0.0286166
0.19718
0.0408111
0.193482
0.0562078
0.186588
0.0804539
0.174176
0.117384
0.1511
0.188285
0.288198
0.198769
0.00512602
0.198803
0.0165433
0.197646
0.0303462
0.196644
0.029619
0.194168
0.0432866
0.189848
0.0605274
0.182349
0.0879534
0.169304
0.130429
0.146712
0.210877
0.325509
0.19787
0.00524552
0.197112
0.0173012
0.195554
0.0319043
0.193771
0.0314022
0.190585
0.046473
0.185527
0.0655848
0.17731
0.0961703
0.163519
0.144221
0.141623
0.232772
0.361605
0.196796
0.0064393
0.195175
0.0189227
0.193174
0.0339045
0.190453
0.0341235
0.186455
0.050471
0.18054
0.0715
0.171463
0.105247
0.15679
0.158894
0.135548
0.254015
0.397001
0.195537
0.00889228
0.193013
0.0214465
0.190526
0.0363911
0.186698
0.0379522
0.181807
0.055362
0.174945
0.078362
0.164988
0.115204
0.149859
0.174023
0.129572
0.274301
0.432038
0.194169
0.012713
0.190662
0.0249536
0.187642
0.0394114
0.182447
0.0431472
0.176461
0.0613473
0.168184
0.0866395
0.156423
0.126965
0.139305
0.191141
0.118028
0.295579
0.465316
0.30264
0.0120835
0.304588
0.0230053
0.307766
0.0362336
0.309242
0.0416711
0.311429
0.0591602
0.314253
0.0838153
0.319085
0.122134
0.329175
0.18105
0.35482
0.269934
0.409105
0.411032
0.30344
0.0106541
0.305663
0.0207817
0.309197
0.0327002
0.311614
0.0392537
0.315105
0.0556687
0.319969
0.0789521
0.327878
0.114225
0.342223
0.166704
0.37139
0.240767
0.353182
0.427313
0.304143
0.00852155
0.306811
0.0181136
0.310627
0.0288839
0.313922
0.0359586
0.318568
0.051023
0.325173
0.0723475
0.335542
0.103855
0.3528
0.149446
0.384071
0.209496
0.298361
0.438893
0.304807
0.00572471
0.307925
0.0149956
0.312009
0.0248002
0.316066
0.0319018
0.321721
0.045368
0.329784
0.0642842
0.342075
0.0915643
0.361397
0.130123
0.39337
0.177523
0.246268
0.445463
0.305465
0.00227039
0.309005
0.0114551
0.313309
0.020496
0.317995
0.027216
0.3245
0.0388628
0.333755
0.0550295
0.347496
0.0778229
0.368223
0.109397
0.399951
0.145795
0.197483
0.448736
0.306154
-0.00187363
0.310065
0.00754457
0.314495
0.0160653
0.319671
0.0220401
0.326867
0.0316669
0.337057
0.0448396
0.35186
0.0630204
0.373487
0.0877698
0.40453
0.114752
0.152046
0.449966
0.306897
-0.00676062
0.311115
0.00332692
0.315544
0.0116358
0.321062
0.0165222
0.328785
0.0239441
0.339678
0.0339461
0.355232
0.0474672
0.377394
0.0656078
0.407637
0.0845088
0.109617
0.450067
0.307786
-0.012536
0.312157
-0.00104502
0.316394
0.00739887
0.322097
0.0108196
0.330191
0.0158503
0.341583
0.0225541
0.357644
0.0314059
0.380084
0.0431682
0.409631
0.054962
0.0696565
0.449591
0.307709
-0.0182343
0.311732
-0.00506819
0.315616
0.00351446
0.321419
0.00501627
0.32974
0.00753001
0.341453
0.0108411
0.357837
0.0150214
0.380383
0.0206225
0.4095
0.0258445
0.0322573
0.4469
0.283776
0.278708
0.282222
0.287238
0.294768
0.30561
0.320631
0.341253
0.367098
0.399355
0.417942
-0.0985012
0.420516
-0.0880841
0.423565
-0.0796339
0.427107
-0.0705872
0.43067
-0.0607478
0.433969
-0.0502404
0.436836
-0.0392191
0.439176
-0.0277463
0.440926
-0.0158836
-0.00373406
0.426696
-0.0978835
0.426087
-0.0874758
0.425624
-0.079171
0.425155
-0.0701184
0.42463
-0.0602228
0.424167
-0.0497768
0.423855
-0.0389069
0.423749
-0.0276405
0.423883
-0.0160182
-0.00414908
0.433136
-0.0921264
0.428219
-0.0825592
0.423595
-0.0745471
0.419526
-0.0660487
0.416115
-0.0568119
0.413394
-0.047056
0.411369
-0.0368822
0.41005
-0.0263216
0.409451
-0.0154189
-0.00427234
0.436135
-0.0827985
0.428152
-0.0745766
0.420937
-0.0673319
0.414609
-0.0597212
0.409267
-0.0514692
0.404942
-0.0427315
0.401649
-0.0335889
0.3994
-0.0240731
0.398212
-0.0142304
-0.00416126
0.437139
-0.0712018
0.427051
-0.064488
0.418033
-0.058314
0.410138
-0.051826
0.403458
-0.0447897
0.398031
-0.0373046
0.39387
-0.0294274
0.390987
-0.0211904
0.389401
-0.012644
-0.00388334
0.436971
-0.0582063
0.425501
-0.053018
0.415283
-0.0480959
0.406341
-0.0428846
0.398757
-0.0372056
0.392572
-0.0311195
0.387808
-0.024663
0.384484
-0.0178665
0.382621
-0.0107817
-0.0034959
0.436224
-0.0443639
0.423887
-0.040681
0.412896
-0.0371052
0.403274
-0.0332626
0.395094
-0.0290252
0.388403
-0.0244285
0.383233
-0.0194934
0.379613
-0.0142461
0.377568
-0.00873665
-0.00304186
0.435215
-0.029988
0.422339
-0.0278045
0.41086
-0.0256269
0.400792
-0.0231939
0.392206
-0.0204398
0.385161
-0.0173829
0.379698
-0.0140309
0.37586
-0.0104083
0.373685
-0.0065618
-0.00255749
0.431841
-0.0149299
0.418483
-0.0144459
0.406546
-0.0136898
0.395999
-0.0126474
0.386919
-0.0113601
0.379383
-0.00984656
0.37347
-0.00811803
0.369263
-0.00620118
0.366834
-0.00413225
-0.00195307
0.384425
0.369979
0.35629
0.343642
0.332282
0.322436
0.314318
0.308116
0.303984
0.00565213
0.099158
-0.10481
0.0100187
0.201583
-0.20595
0.0120257
0.230998
-0.233005
0.0127555
0.234185
-0.234915
0.0130498
0.23091
-0.231204
0.0132774
0.226739
-0.226967
0.0135875
0.222868
-0.223178
0.0140518
0.219396
-0.21986
0.0146864
0.21591
-0.216544
0.210952
0.0151938
-0.211459
0.00727102
0.091887
0.0151075
0.193747
0.0209742
0.225131
0.0254821
0.229678
0.0294588
0.226933
0.0333623
0.222836
0.037409
0.218821
0.0416991
0.215106
0.0462515
0.211357
0.206563
0.0506408
0.00820712
0.0836798
0.0189375
0.183017
0.0283448
0.215724
0.0364687
0.221554
0.0439491
0.219452
0.0512936
0.215491
0.0587874
0.211327
0.0665491
0.207344
0.0745494
0.203357
0.198589
0.0825234
0.00843362
0.0752462
0.0212172
0.170233
0.0335646
0.203377
0.0448189
0.210299
0.0553478
0.208923
0.0656289
0.20521
0.076003
0.200953
0.0866379
0.196709
0.0974963
0.192498
0.187748
0.108337
0.00808809
0.0671581
0.0219452
0.156376
0.0363499
0.188972
0.0499849
0.196664
0.0628732
0.196035
0.0753779
0.192705
0.0878424
0.188489
0.100482
0.184069
0.113334
0.179647
0.17484
0.126242
0.00738928
0.0597688
0.0214111
0.142354
0.036865
0.173518
0.0519639
0.181566
0.0663961
0.181603
0.0803504
0.178751
0.0941068
0.174732
0.107883
0.170293
0.121787
0.165743
0.160723
0.135905
0.00656531
0.0532035
0.0201011
0.128818
0.0357111
0.157908
0.0513919
0.165885
0.0665901
0.166405
0.0813116
0.16403
0.0957238
0.16032
0.109997
0.15602
0.124224
0.151515
0.146309
0.138639
0.00578446
0.0474191
0.0185049
0.116098
0.033656
0.142757
0.0492243
0.150316
0.064531
0.151098
0.0794316
0.149129
0.0939661
0.145786
0.108219
0.141767
0.122288
0.137446
0.132356
0.136241
0.00515849
0.0422606
0.0170383
0.104218
0.0314796
0.128315
0.0465673
0.135229
0.0615986
0.136067
0.0763424
0.134385
0.090745
0.131383
0.104821
0.127691
0.118585
0.123683
0.118359
0.132582
0.0047137
0.0375469
0.0158927
0.093039
0.0296126
0.114596
0.0440644
0.120777
0.0585566
0.121575
0.0727967
0.120145
0.0866368
0.117543
0.100002
0.114325
0.11276
0.110925
0.106549
0.124569
0.00445377
0.0330931
0.0151711
0.0823217
0.0283668
0.1014
0.0423255
0.106818
0.0564053
0.107495
0.0703219
0.106229
0.083924
0.103941
0.0971383
0.101111
0.10997
0.0980928
0.0954967
0.121023
0.00430828
0.0287848
0.0147458
0.0718841
0.0275893
0.0885564
0.0411714
0.0932362
0.0548825
0.0937837
0.0684468
0.0926642
0.0817072
0.0906806
0.0945728
0.0882452
0.107021
0.0856445
0.0839303
0.118587
0.00421899
0.0245659
0.0144895
0.0616137
0.0271109
0.0759349
0.0404329
0.0799142
0.0538672
0.0803494
0.0671539
0.0793775
0.0801454
0.0776891
0.0927557
0.0756348
0.104954
0.0734464
0.0721888
0.116695
0.00415827
0.0204076
0.014331
0.051441
0.0268244
0.0634414
0.0399889
0.0667497
0.0532481
0.0670902
0.0663573
0.0662684
0.0791818
0.0648646
0.0916467
0.06317
0.103724
0.0613689
0.0604011
0.115512
0.00411385
0.0162937
0.0142293
0.0413255
0.0266531
0.0510176
0.0397285
0.0536742
0.0528839
0.0539348
0.0658851
0.0532672
0.0786084
0.0521413
0.0909884
0.0507899
0.103002
0.0493555
0.0486179
0.114785
0.00408003
0.0122137
0.0141591
0.0312465
0.0265436
0.0386331
0.0395686
0.0406492
0.0526635
0.04084
0.0656007
0.04033
0.0782647
0.0394773
0.0905968
0.0384579
0.102576
0.0373761
0.0368468
0.114347
0.00405454
0.00815915
0.0141072
0.0211938
0.0264659
0.0262744
0.0394596
0.0276555
0.0525178
0.0277819
0.0654174
0.0274304
0.0780479
0.0268467
0.0903552
0.0261507
0.10232
0.0254113
0.0250806
0.114086
0.0040371
0.00412205
0.014068
0.0111629
0.0264047
0.0139377
0.0393736
0.0146867
0.0524048
0.0147506
0.0652785
0.0145567
0.0778875
0.0142377
0.0901807
0.0138575
0.10214
0.0134522
0.0133135
0.113907
0.00402718
9.48737e-05
0.0140377
0.00115236
0.0263498
0.00162555
0.0392912
0.00174533
0.052294
0.00174782
0.0651407
0.00171
0.0777268
0.00165158
0.0900032
0.00158104
0.101953
0.00150285
0.00155028
0.113716
0.00402551
0.0140145
0.0262941
0.0391981
0.0521619
0.0649704
0.0775217
0.0897685
0.101695
0.113441
0.136369
0.252572
-0.267918
0.149103
0.114813
-0.127547
0.158951
0.0395302
-0.049378
0.166382
0.0066755
-0.0141066
0.172437
-0.00652434
0.000469267
0.177773
-0.0107769
0.00544043
0.182642
-0.0110593
0.00619033
0.187159
-0.0096941
0.00517708
0.19137
-0.00776818
0.00355766
-0.00521398
0.00137149
0.141492
0.229668
0.156436
0.0998683
0.166113
0.0298533
0.172852
-6.3306e-05
0.178008
-0.0116806
0.182331
-0.0150995
0.18613
-0.0148583
0.189539
-0.0131034
0.192629
-0.0108582
-0.00794366
0.144835
0.201528
0.161831
0.0828724
0.171931
0.0197538
0.178371
-0.00650385
0.18293
-0.0162392
0.186431
-0.0186006
0.189296
-0.0177232
0.191719
-0.0155264
0.193804
-0.0129431
-0.00966865
0.148027
0.169013
0.16679
0.0641088
0.177201
0.00934321
0.183384
-0.0126867
0.187356
-0.0202111
0.190116
-0.0213613
0.192151
-0.0197579
0.193699
-0.0170747
0.194892
-0.0141357
-0.0105001
0.151034
0.132764
0.171159
0.043983
0.181833
-0.00133002
0.187773
-0.018627
0.191248
-0.0236859
0.193368
-0.0234814
0.194683
-0.021073
0.195472
-0.0178638
0.195889
-0.0145531
-0.0105541
0.153695
0.093416
0.174904
0.0227745
0.185792
-0.012218
0.191526
-0.0243616
0.194586
-0.0267455
0.196169
-0.0250644
0.196879
-0.0217833
0.197029
-0.0180133
0.196792
-0.0143161
-0.00995095
0.155894
0.051608
0.177986
0.000682526
0.189035
-0.0232673
0.194615
-0.0299409
0.197349
-0.0294801
0.198504
-0.0262193
0.198729
-0.0220076
0.198362
-0.0176466
0.197595
-0.0135496
-0.00881517
0.157551
0.00796422
0.180339
-0.0221055
0.191525
-0.0344537
0.197014
-0.0354301
0.19952
-0.0319861
0.200361
-0.0270596
0.200221
-0.021868
0.199464
-0.0168898
0.198296
-0.0123809
-0.00727416
0.158586
-0.0369061
0.181901
-0.0454199
0.193234
-0.0457867
0.198705
-0.0409021
0.201085
-0.0343653
0.201727
-0.0277021
0.201348
-0.0214892
0.20033
-0.0158718
0.19889
-0.0109404
-0.00545861
0.15895
0.182624
0.194137
0.199674
0.202032
0.202596
0.202105
0.200956
0.199375
0.181983
0.0295751
-0.211558
0.164503
0.0174803
0.1566
0.00790256
0.154037
0.00256342
0.153907
0.000129318
0.154676
-0.000768629
0.155616
-0.000939653
0.156419
-0.000803847
0.156966
-0.000546451
-0.000204523
0.236808
0.0906461
-0.297879
0.208308
0.045981
0.196852
0.0193578
0.193205
0.00621057
0.192905
0.000429997
0.19383
-0.00169375
0.195012
-0.00212171
0.196035
-0.00182709
0.196749
-0.0012604
-0.000481313
0.240715
0.155075
-0.305144
0.211089
0.0756073
0.199715
0.030732
0.196286
0.00963902
0.196157
0.000559747
0.197192
-0.00272877
0.198444
-0.00337447
0.199514
-0.00289621
0.200258
-0.00200533
-0.000771597
0.235698
0.215842
-0.296466
0.208462
0.102843
0.198551
0.040643
0.195904
0.0122862
0.196169
0.000294248
0.197401
-0.00396048
0.198745
-0.00471814
0.199855
-0.00400584
0.200617
-0.00276766
-0.00106728
0.230307
-0.282383
0.205604
0.196869
0.195048
0.195812
0.197292
0.198764
0.199935
0.200725
0.020313
-0.000695871
-0.0196171
0.024056
-0.00374303
0.0314001
-0.0073441
0.0434448
-0.0120447
0.0613175
-0.0178727
0.0850788
-0.0237613
0.114347
-0.0292686
0.145998
-0.0316501
0.181021
-0.0350237
-0.0305367
0.0555033
-0.00300426
-0.0531949
0.0652088
-0.0134486
0.0826847
-0.02482
0.107822
-0.0371818
0.138889
-0.0489403
0.172705
-0.057577
0.206597
-0.0631604
0.238071
-0.0631238
0.269684
-0.0666373
-0.0587318
0.0809775
-0.00660467
-0.0773771
0.0935252
-0.0259963
0.114129
-0.0454239
0.14046
-0.063513
0.169144
-0.0776236
0.197875
-0.0863087
0.22592
-0.0912049
0.253358
-0.0905622
0.280775
-0.0940542
-0.083101
0.0964348
-0.0108411
-0.0921984
0.109159
-0.0387206
0.128563
-0.0648282
0.151942
-0.0868916
0.177086
-0.102768
0.20296
-0.112183
0.228239
-0.116484
0.253054
-0.115377
0.275623
-0.116623
-0.103944
0.104523
-0.10017
0.116443
0.134138
0.155584
0.179058
0.20278
0.224935
0.245799
0.261757
0.100679
-0.089045
0.0982607
-0.109894
0.0911471
-0.0920107
0.101542
0.0810898
-0.0951864
0.105244
0.0702503
-0.0984009
0.10924
0.0585796
-0.101736
0.113406
0.0461426
-0.10522
0.117657
0.0330543
-0.108621
0.121709
0.01961
-0.110251
0.123695
0.00711264
-0.10149
0.113988
-0.0567471
0.0638598
0.105731
-0.0789232
-0.115852
0.0950889
-0.081369
0.0837824
-0.0838798
0.0718945
-0.0865131
0.0594862
-0.0893274
0.0465863
-0.0923206
0.0332322
-0.0952666
0.0196518
-0.0966703
0.00710976
-0.0889482
-0.0496374
0.105932
-0.0679791
-0.116876
0.0946911
-0.0701281
0.083112
-0.0723007
0.0711709
-0.074572
0.058832
-0.0769885
0.0460553
-0.0795439
0.0328368
-0.082048
0.0193895
-0.083223
0.00698144
-0.0765401
-0.0426559
0.107278
-0.0568689
-0.118388
0.0958713
-0.0587217
0.0841247
-0.0605541
0.0720028
-0.06245
0.059473
-0.0644588
0.0465113
-0.0665821
0.0331288
-0.0686656
0.0195465
-0.0696407
0.0070381
-0.0640317
-0.0356178
0.107873
-0.0456734
-0.119068
0.0963458
-0.0471946
0.0844753
-0.0486836
0.0722453
-0.05022
0.059632
-0.0518455
0.0466107
-0.0535609
0.0331865
-0.0552414
0.0195714
-0.0560257
0.00703651
-0.0514968
-0.0285813
0.108229
-0.0344571
-0.119445
0.0966658
-0.0356314
0.084755
-0.0367727
0.0724829
-0.0379479
0.0598262
-0.0391888
0.0467608
-0.0404955
0.0332926
-0.0417732
0.0196344
-0.0423674
0.00705604
-0.0389184
-0.0215253
0.108362
-0.0232381
-0.119581
0.096788
-0.0240579
0.0848631
-0.0248478
0.0725741
-0.0256589
0.0598993
-0.026514
0.0468164
-0.0274126
0.0333321
-0.0282889
0.0196586
-0.0286939
0.00706366
-0.0263235
-0.0144616
0.108336
-0.0120185
-0.119556
0.0967615
-0.0124834
0.0848369
-0.0129231
0.0725493
-0.0133713
0.0598768
-0.0138415
0.0467973
-0.014333
0.0333174
-0.0148091
0.0196488
-0.0150252
0.00705966
-0.0137344
-0.00740195
0.108157
-0.000803856
-0.119371
0.0965902
-0.000917014
0.0846776
-0.00101052
0.0724054
-0.00109913
0.0597517
-0.0011878
0.0466941
-0.00127545
0.0332394
-0.00135444
0.019599
-0.00138474
0.00703975
-0.00117517
-0.000362196
0.107796
-0.119001
0.0962495
0.0843639
0.0721249
0.0595098
0.0464958
0.0330899
0.0195034
0.00700057
0.0181709
-0.208246
-0.0213842
0.0146247
-0.212998
0.0110632
-0.216299
0.00752968
-0.219644
0.00404117
-0.223478
0.00066986
-0.227833
-0.00239898
-0.231846
-0.00420941
-0.231195
-0.00350762
-0.206652
-0.108318
0.0497076
-0.20124
-0.0567134
0.0421298
-0.20542
0.0347055
-0.208875
0.0275246
-0.212463
0.0205384
-0.216492
0.0137095
-0.221004
0.00725273
-0.22539
0.00177493
-0.225717
-0.00117048
-0.203706
-0.109488
0.0765657
-0.190495
-0.0873106
0.0656271
-0.194481
0.0550451
-0.198293
0.0448598
-0.202278
0.034985
-0.206617
0.0253698