/*--------------------------------*- C++ -*----------------------------------*\
  =========                 |
  \\      /  F ield         | OpenFOAM: The Open Source CFD Toolbox
   \\    /   O peration     | Website:  https://openfoam.org
    \\  /    A nd           | Version:  13
     \\/     M anipulation  |
\*---------------------------------------------------------------------------*/
FoamFile
{
    format      ascii;
    class       volVectorField;
    location    "0.375";
    object      U;
}
// * * * * * * * * * * * * * * * * * * * * * * * * * * * * * * * * * * * * * //

dimensions      [0 1 -1 0 0 0 0];

internalField   nonuniform List<vector> 
1800
(
(0.447293 -0.400324 1.16157e-19)
(1.04305 -0.894273 5.11299e-20)
(1.28239 -1.03949 -6.88538e-19)
(1.36238 -1.04562 5.34704e-19)
(1.39075 -1.0073 1.12178e-18)
(1.39911 -0.956497 4.58646e-19)
(1.39813 -0.902991 -2.33732e-19)
(1.39253 -0.850927 -6.16849e-19)
(1.38668 -0.798848 -3.19292e-19)
(1.36355 -0.750856 -2.57192e-19)
(0.520102 -0.396735 -4.89904e-21)
(1.19318 -0.876193 -9.49028e-19)
(1.45282 -1.01272 6.80308e-21)
(1.531 -1.01565 -4.05339e-19)
(1.55168 -0.975794 8.76301e-20)
(1.55128 -0.92444 1.07896e-18)
(1.54187 -0.870938 -7.89888e-19)
(1.52896 -0.818664 3.97848e-19)
(1.51597 -0.766814 6.61603e-19)
(1.49458 -0.725732 -3.36248e-19)
(0.59443 -0.38374 6.60619e-20)
(1.34219 -0.837321 2.72572e-19)
(1.61969 -0.961848 5.57534e-19)
(1.69473 -0.961827 -3.15745e-19)
(1.70702 -0.921798 -1.34745e-18)
(1.69746 -0.871763 2.94486e-19)
(1.6794 -0.820463 5.1511e-19)
(1.65864 -0.770878 -4.96078e-20)
(1.63837 -0.722608 -4.36843e-21)
(1.61151 -0.68305 -2.20772e-20)
(0.668834 -0.360928 -7.38691e-20)
(1.48659 -0.777609 -2.98727e-19)
(1.77885 -0.887193 -3.74251e-19)
(1.84953 -0.884595 4.85378e-20)
(1.85306 -0.845561 3.64198e-19)
(1.83453 -0.79816 2.6762e-20)
(1.8083 -0.750228 -2.108e-20)
(1.78035 -0.704168 4.77552e-19)
(1.75349 -0.659571 4.01863e-19)
(1.72269 -0.623859 -1.4293e-19)
(0.741662 -0.32813 1.55648e-19)
(1.6227 -0.697746 3.59864e-19)
(1.92598 -0.790148 -6.02223e-20)
(1.99103 -0.785763 -6.5512e-20)
(1.98558 -0.74919 -1.08042e-18)
(1.9583 -0.706066 8.87065e-21)
(1.92436 -0.663097 8.33632e-19)
(1.88971 -0.622097 2.67749e-19)
(1.85681 -0.582789 1.06771e-20)
(1.82218 -0.551375 -1.85106e-19)
(0.811049 -0.285354 -5.94621e-20)
(1.74675 -0.598789 8.88683e-19)
(2.05698 -0.672436 1.34662e-18)
(2.11549 -0.667233 -8.50661e-19)
(2.10125 -0.63448 -7.86695e-19)
(2.06595 -0.597018 1.29847e-18)
(2.02519 -0.560172 -9.1153e-19)
(1.98475 -0.525198 -1.03793e-18)
(1.94674 -0.49188 7.28281e-19)
(1.90896 -0.465472 -1.44503e-20)
(0.875013 -0.232987 3.80903e-19)
(1.85511 -0.482648 -1.39527e-18)
(2.1681 -0.536826 -3.68022e-18)
(2.21944 -0.532048 1.36611e-18)
(2.19691 -0.504523 1.99893e-18)
(2.15453 -0.474164 -5.60358e-21)
(2.10801 -0.444658 -2.5025e-18)
(2.06281 -0.416786 1.46043e-20)
(2.02069 -0.390403 2.24986e-18)
(1.98033 -0.369653 5.86738e-19)
(0.931456 -0.17173 -1.76781e-19)
(1.94431 -0.351707 7.9866e-19)
(2.25604 -0.386426 2.84402e-18)
(2.3 -0.383336 -2.63302e-20)
(2.27003 -0.362248 -1.29202e-18)
(2.22181 -0.340191 -3.99597e-19)
(2.17079 -0.318916 0)
(2.12196 -0.298887 8.82054e-19)
(2.07678 -0.280017 -1.2417e-20)
(2.03453 -0.265473 -7.31698e-19)
(0.978383 -0.102718 -1.9382e-20)
(2.01141 -0.209076 1.9875e-18)
(2.31833 -0.22506 2.43278e-18)
(2.35497 -0.224894 -1.9896e-18)
(2.31873 -0.211312 -1.35875e-18)
(2.26617 -0.198572 3.9791e-19)
(2.21205 -0.186201 -1.64507e-18)
(2.16083 -0.17458 -1.17363e-18)
(2.1137 -0.163668 1.33918e-18)
(2.07029 -0.155715 1.13569e-18)
(1.01396 -0.0274043 2.97294e-19)
(2.05408 -0.0583697 1.27164e-18)
(2.35319 -0.0569363 4.44388e-19)
(2.38271 -0.06062 -2.83331e-18)
(2.34182 -0.0553937 4.79076e-21)
(2.28649 -0.0526437 3.78724e-18)
(2.2307 -0.0495779 -2.02763e-18)
(2.17838 -0.0466791 -1.07583e-18)
(2.13043 -0.0439534 3.81289e-19)
(2.08665 -0.0427877 -8.41952e-19)
(0.00706022 -0.0741874 1.19541e-19)
(0.057596 -0.170883 1.43379e-19)
(0.12357 -0.205333 -2.07527e-21)
(0.191166 -0.212871 -4.74629e-21)
(0.254942 -0.211436 -1.51881e-21)
(0.313791 -0.206671 -3.3001e-20)
(0.367725 -0.200447 5.90007e-21)
(0.416893 -0.193684 -1.44949e-20)
(0.461907 -0.186885 1.28982e-21)
(0.502758 -0.181366 -3.22674e-21)
(0.0190003 -0.123556 8.29579e-20)
(0.0855459 -0.289482 1.34974e-19)
(0.157111 -0.346743 -1.242e-19)
(0.225544 -0.35658 -4.26501e-20)
(0.28867 -0.350853 -5.09914e-20)
(0.346323 -0.339581 -6.15382e-20)
(0.398843 -0.326023 2.5214e-20)
(0.446556 -0.311755 -9.23107e-21)
(0.49008 -0.297625 -9.76986e-22)
(0.530019 -0.286904 -5.18098e-21)
(0.0388377 -0.171423 1.40388e-20)
(0.132364 -0.403571 3.13337e-19)
(0.213352 -0.482374 8.253e-20)
(0.283181 -0.4942 2.60064e-19)
(0.345203 -0.48419 4.06942e-20)
(0.400835 -0.466565 -2.22851e-19)
(0.450972 -0.445906 -1.8252e-20)
(0.496227 -0.424412 7.00668e-20)
(0.537234 -0.403297 -3.26242e-20)
(0.57568 -0.387569 -6.22453e-21)
(0.0664363 -0.21697 -9.67729e-20)
(0.197397 -0.510837 -7.26474e-20)
(0.291367 -0.609309 2.50341e-20)
(0.363033 -0.622678 -1.02643e-19)
(0.423439 -0.608413 4.15375e-20)
(0.47621 -0.584666 1.48625e-19)
(0.522996 -0.557257 4.31671e-20)
(0.56481 -0.528946 -1.22788e-20)
(0.602325 -0.501344 1.57462e-20)
(0.638694 -0.480869 -1.99087e-21)
(0.1016 -0.259392 0)
(0.279709 -0.609024 7.42221e-20)
(0.389835 -0.724711 4.5956e-19)
(0.463623 -0.739058 -2.70855e-19)
(0.521833 -0.720595 -4.74805e-19)
(0.570882 -0.691052 1.57435e-19)
(0.613365 -0.657368 -2.27726e-20)
(0.650793 -0.622795 -7.54269e-20)
(0.683922 -0.58936 0)
(0.717615 -0.564456 -6.8633e-21)
(0.144065 -0.297876 -1.61963e-20)
(0.378065 -0.695951 3.15068e-19)
(0.507017 -0.825874 1.43659e-19)
(0.583014 -0.840538 1.83011e-19)
(0.638365 -0.817975 -1.46562e-19)
(0.682811 -0.783066 -2.34367e-19)
(0.720062 -0.743728 4.02244e-19)
(0.752211 -0.703603 4.12174e-20)
(0.780153 -0.665141 -2.38455e-19)
(0.810506 -0.636155 -5.45167e-21)
(0.19347 -0.33159 3.49779e-20)
(0.490902 -0.769545 4.0216e-19)
(0.640739 -0.910274 3.66779e-20)
(0.7188 -0.924529 1.64839e-20)
(0.770531 -0.898033 2.58443e-19)
(0.809475 -0.858312 -3.24411e-19)
(0.840599 -0.814087 -3.19232e-19)
(0.86663 -0.769282 -2.71083e-19)
(0.888671 -0.726731 1.96876e-19)
(0.914832 -0.693991 2.17195e-19)
(0.249312 -0.359642 -1.09643e-19)
(0.616283 -0.82786 -1.67999e-19)
(0.788355 -0.975636 1.56904e-19)
(0.868081 -0.988745 -1.35251e-19)
(0.915351 -0.958562 2.72962e-19)
(0.947899 -0.914702 6.48522e-19)
(0.972066 -0.866486 4.48011e-19)
(0.991219 -0.817994 -3.3774e-19)
(1.00674 -0.772348 -1.61727e-19)
(1.02751 -0.736015 2.33715e-19)
(0.310872 -0.381073 -3.09735e-19)
(0.751878 -0.869097 -1.03322e-18)
(0.94678 -1.01999 1.00404e-18)
(1.02753 -1.03128 7.87703e-19)
(1.06946 -0.997787 -6.42853e-19)
(1.09479 -0.950579 6.9832e-19)
(1.11133 -0.899362 9.81992e-20)
(1.12302 -0.848285 -8.22188e-19)
(1.13167 -0.800447 -1.98375e-19)
(1.14516 -0.760152 2.60527e-19)
(0.377213 -0.394911 -4.22745e-20)
(0.895045 -0.89166 -8.86612e-19)
(1.11262 -1.04171 -4.56988e-19)
(1.19353 -1.05065 7.11268e-19)
(1.22918 -1.01442 5.57298e-19)
(1.24651 -0.964879 -6.26029e-19)
(1.25486 -0.911889 -5.13734e-19)
(1.25857 -0.859715 3.03586e-19)
(1.26047 -0.810211 -3.06192e-19)
(1.26206 -0.764938 -1.98279e-19)
(0.643915 -0.147126 -1.1908e-20)
(0.816524 -0.113745 2.86398e-20)
(0.889825 -0.0890074 1.64457e-20)
(0.935889 -0.0698051 -2.35184e-21)
(0.962166 -0.0541224 1.47753e-21)
(0.977856 -0.0411383 4.96674e-21)
(0.987505 -0.0303147 2.82765e-21)
(0.993477 -0.0211456 -3.52573e-21)
(0.996951 -0.0134 2.44561e-21)
(0.998953 -0.00500421 3.41808e-21)
(0.661109 -0.211642 4.76219e-20)
(0.826148 -0.149133 -1.61594e-20)
(0.897079 -0.1079 3.5789e-21)
(0.941345 -0.0804466 7.82983e-21)
(0.966537 -0.0603479 1.76356e-20)
(0.981417 -0.0448632 0)
(0.990444 -0.0325722 2.76057e-21)
(0.995951 -0.0224984 3.0213e-21)
(0.999118 -0.0141682 5.72031e-22)
(1.0009 -0.00527438 -3.09024e-21)
(0.689185 -0.274096 -3.21856e-20)
(0.84009 -0.183824 -6.40376e-21)
(0.906846 -0.126634 -6.91373e-22)
(0.948052 -0.0910045 -8.63039e-21)
(0.971603 -0.0664999 -4.31278e-21)
(0.985387 -0.0485166 6.69156e-21)
(0.993639 -0.0347625 0)
(0.99859 -0.0237948 0)
(1.0014 -0.0148955 1.17045e-21)
(1.00294 -0.0055289 0)
(0.727888 -0.333295 -2.07441e-20)
(0.858291 -0.217305 1.13619e-20)
(0.919045 -0.145007 7.98914e-21)
(0.956013 -0.101375 0)
(0.977355 -0.0725172 -9.2588e-21)
(0.989758 -0.0520613 3.49289e-21)
(0.99707 -0.0368624 0)
(1.00139 -0.0250208 -5.39801e-21)
(1.00381 -0.0155729 0)
(1.00507 -0.00576388 -5.69939e-22)
(0.776848 -0.38816 -2.76762e-20)
(0.880699 -0.249094 3.52164e-20)
(0.933565 -0.162802 -4.8067e-21)
(0.965223 -0.11146 0)
(0.983788 -0.0783418 -6.05196e-21)
(0.994521 -0.0554605 -8.02615e-21)
(1.00073 -0.0388489 7.08345e-21)
(1.00433 -0.026162 1.52822e-21)
(1.00629 -0.0161908 -4.71322e-22)
(1.00726 -0.00597587 3.33834e-21)
(0.835453 -0.437715 -4.76638e-19)
(0.907271 -0.278783 -7.98321e-20)
(0.950265 -0.179803 2.20965e-21)
(0.975663 -0.121162 -4.74054e-23)
(0.990887 -0.083919 1.06901e-20)
(0.999657 -0.0586792 -2.58395e-21)
(1.00462 -0.0406984 -1.26799e-20)
(1.00739 -0.0272017 6.90085e-21)
(1.00886 -0.0167409 -3.0567e-22)
(1.00952 -0.00616229 2.79486e-21)
(0.902693 -0.480929 1.15244e-20)
(0.937899 -0.30622 3.64439e-20)
(0.968972 -0.195881 5.20239e-21)
(0.98728 -0.130414 7.46226e-23)
(0.998629 -0.0892048 -4.99607e-22)
(1.00515 -0.0616863 5.85751e-21)
(1.0087 -0.0423879 3.34537e-21)
(1.01056 -0.0281247 -5.61746e-21)
(1.01149 -0.0172143 -1.18579e-21)
(1.01182 -0.00631901 -2.40758e-21)
(0.976992 -0.516891 1.82021e-19)
(0.972027 -0.330789 5.02456e-20)
(0.989391 -0.210808 0)
(0.999947 -0.139119 -4.4662e-21)
(1.00696 -0.0941549 -6.10165e-23)
(1.01097 -0.0644552 2.26229e-21)
(1.01295 -0.0438999 5.98791e-21)
(1.01383 -0.0289183 -1.59646e-21)
(1.01416 -0.0176011 7.38777e-23)
(1.01415 -0.00644116 8.31154e-22)
(1.05534 -0.545756 -2.77005e-19)
(1.00803 -0.351872 -1.47355e-19)
(1.01036 -0.224179 2.37426e-20)
(1.01305 -0.146984 2.53137e-21)
(1.0156 -0.0986175 -2.00224e-21)
(1.01699 -0.0669194 4.51083e-21)
(1.01733 -0.0452106 -3.41715e-21)
(1.01715 -0.0295748 7.08768e-22)
(1.01686 -0.0178977 -4.29885e-21)
(1.01648 -0.00653061 -5.44875e-21)
(1.13516 -0.572421 1.92543e-19)
(1.0425 -0.377339 -1.44771e-19)
(1.02864 -0.241637 -1.96408e-20)
(1.02441 -0.15712 -8.08402e-21)
(1.0233 -0.104094 -6.70607e-22)
(1.02255 -0.0697333 -8.63805e-23)
(1.02153 -0.0465781 -2.03645e-21)
(1.02041 -0.0301838 0)
(1.01953 -0.0181338 2.905e-21)
(1.01883 -0.0065853 5.46069e-22)
(1.27019 -0.5541 2.66448e-19)
(1.12825 -0.371236 8.67473e-20)
(1.07742 -0.241636 -5.13065e-20)
(1.05249 -0.158379 1.40089e-21)
(1.04002 -0.105046 2.24607e-21)
(1.033 -0.0701689 2.74801e-21)
(1.02839 -0.0466436 6.91241e-21)
(1.02519 -0.0300673 1.6076e-21)
(1.02315 -0.0179774 -2.50169e-21)
(1.02183 -0.00650681 1.293e-21)
(1.31731 -0.467752 4.26364e-21)
(1.16564 -0.324253 7.87229e-20)
(1.10741 -0.219557 6.88228e-20)
(1.07421 -0.147544 -7.83805e-21)
(1.05504 -0.0991862 2.79647e-20)
(1.0433 -0.0666601 1.66844e-20)
(1.03559 -0.0443975 1.25291e-20)
(1.03043 -0.0286224 -9.95219e-22)
(1.02723 -0.0171055 4.41201e-21)
(1.02526 -0.00618149 4.34498e-21)
(1.36518 -0.400314 -9.00684e-20)
(1.2091 -0.287713 -7.00193e-21)
(1.13892 -0.199989 1.71574e-21)
(1.09599 -0.13635 -7.53543e-37)
(1.06978 -0.0923572 3.13713e-21)
(1.05333 -0.0622796 -4.70842e-35)
(1.04256 -0.041511 -5.11027e-21)
(1.03545 -0.026747 -3.15241e-34)
(1.03113 -0.0159691 1.31353e-21)
(1.02851 -0.00576334 -3.81488e-21)
(1.39603 -0.331676 -1.56094e-34)
(1.24192 -0.246327 -1.35988e-20)
(1.16468 -0.175694 -2.16626e-20)
(1.11482 -0.121837 0)
(1.08295 -0.0833191 -1.26182e-20)
(1.06245 -0.056453 -8.22427e-21)
(1.04896 -0.0376956 -2.76276e-21)
(1.04009 -0.0242957 -4.69325e-34)
(1.03472 -0.0145003 -4.21595e-22)
(1.0315 -0.00522879 3.75617e-21)
(1.41555 -0.268836 -4.36314e-20)
(1.26721 -0.205575 2.31198e-21)
(1.18571 -0.149743 0)
(1.13078 -0.105341 0)
(1.09441 -0.0726504 0)
(1.0705 -0.0494484 0)
(1.05466 -0.0330872 -1.20914e-21)
(1.04424 -0.0213376 -5.28832e-34)
(1.03793 -0.0127333 1.26617e-21)
(1.03417 -0.00458936 4.61846e-34)
(1.42754 -0.210767 -5.08222e-21)
(1.28617 -0.165284 0)
(1.20236 -0.122532 0)
(1.14386 -0.0872793 0)
(1.104 -0.0606539 0)
(1.07734 -0.0414589 0)
(1.05954 -0.0277995 2.24695e-21)
(1.0478 -0.01794 3.0421e-21)
(1.0407 -0.0107054 1.24291e-21)
(1.03646 -0.00385659 4.19135e-21)
(1.43451 -0.157134 0)
(1.29988 -0.125854 -3.25222e-21)
(1.215 -0.0946374 -8.67445e-21)
(1.15408 -0.068107 0)
(1.11165 -0.0476376 -6.40717e-21)
(1.08287 -0.032684 -4.49994e-21)
(1.06351 -0.021957 -8.12351e-22)
(1.0507 -0.0141803 -1.88333e-21)
(1.04295 -0.008461 3.34693e-21)
(1.03833 -0.00304604 3.21049e-21)
(1.43792 -0.106944 2.25398e-21)
(1.30874 -0.0869124 2.24482e-21)
(1.22358 -0.0659953 -5.44713e-22)
(1.16117 -0.0478552 4.74422e-36)
(1.11703 -0.033635 -1.39586e-21)
(1.08673 -0.0231435 -3.6909e-35)
(1.06625 -0.0155707 2.10723e-21)
(1.05267 -0.0100611 6.74529e-21)
(1.04444 -0.00599597 1.11078e-21)
(1.03953 -0.00215218 -3.52052e-21)
(1.43136 -0.0602228 -8.41169e-21)
(1.30617 -0.0511426 5.01309e-21)
(1.22179 -0.039498 6.76172e-21)
(1.15925 -0.0289081 0)
(1.11459 -0.0204149 4.41498e-21)
(1.08374 -0.014081 3.11076e-21)
(1.06281 -0.00948333 4.13209e-21)
(1.04891 -0.00612847 1.33604e-21)
(1.04048 -0.00364267 -3.78415e-22)
(1.03546 -0.00130076 3.74435e-21)
(1.25987 -0.00991668 0)
(1.15837 -0.0100318 0)
(1.08677 -0.00811693 0)
(1.03231 -0.00602764 0)
(0.993017 -0.00428173 0)
(0.965724 -0.00296388 0)
(0.947144 -0.00199922 2.01027e-21)
(0.934802 -0.00129353 -9.57229e-36)
(0.927332 -0.00075673 1.16964e-21)
(0.922977 -0.000261401 3.43218e-21)
(2.01069 -0.0380495 7.90235e-19)
(1.99733 -0.134807 5.27953e-20)
(1.96755 -0.22886 -1.02606e-19)
(1.92192 -0.318431 -3.15582e-19)
(1.86229 -0.401421 -9.30561e-20)
(1.78872 -0.477118 -1.48738e-19)
(1.70702 -0.541414 -3.96492e-19)
(1.60966 -0.599016 1.12654e-19)
(1.52124 -0.630847 0)
(1.38907 -0.693818 5.37143e-20)
(1.92983 -0.0279423 2.34978e-19)
(1.91961 -0.100815 -2.92584e-19)
(1.8975 -0.172172 -3.83679e-20)
(1.86307 -0.24114 -1.274e-19)
(1.81929 -0.305198 5.70952e-20)
(1.76303 -0.366596 1.38251e-19)
(1.70406 -0.417013 -6.68894e-20)
(1.6275 -0.470123 5.42978e-20)
(1.56642 -0.491475 -7.4781e-20)
(1.46501 -0.561462 2.97675e-20)
(1.86281 -0.0215936 -1.03184e-19)
(1.85472 -0.0793917 2.2512e-19)
(1.83722 -0.135915 1.57893e-19)
(1.80947 -0.191044 -2.2986e-19)
(1.77476 -0.242041 2.47311e-20)
(1.7295 -0.292681 2.14115e-19)
(1.68265 -0.333259 -6.80947e-21)
(1.62185 -0.379681 1.76657e-20)
(1.57175 -0.398015 3.09022e-20)
(1.49713 -0.460095 4.18605e-20)
(1.81051 -0.017523 -2.45254e-19)
(1.80387 -0.0622752 -2.37616e-20)
(1.7894 -0.106109 -1.37631e-20)
(1.76645 -0.14925 -2.89363e-20)
(1.73773 -0.189152 -9.78234e-20)
(1.70075 -0.229639 -8.09109e-20)
(1.66174 -0.261898 1.20393e-19)
(1.61335 -0.300054 1.06048e-20)
(1.57029 -0.316129 5.5482e-21)
(1.51351 -0.366696 1.01656e-20)
(1.76959 -0.0138855 3.21361e-20)
(1.76398 -0.0482433 9.71133e-20)
(1.75158 -0.0819116 -2.56887e-20)
(1.73208 -0.115202 1.61042e-19)
(1.7074 -0.146084 -2.23712e-20)
(1.6763 -0.177683 -1.51569e-19)
(1.64258 -0.203117 2.2629e-20)
(1.60287 -0.233282 -6.87677e-20)
(1.56472 -0.247282 5.5329e-20)
(1.51979 -0.286309 3.5797e-20)
(1.73821 -0.011224 -1.2876e-19)
(1.73335 -0.0368589 -5.33768e-20)
(1.72239 -0.0620145 -7.83946e-22)
(1.7053 -0.0869747 7.73315e-20)
(1.68338 -0.110291 1.43243e-19)
(1.65631 -0.13422 -4.17216e-20)
(1.62623 -0.153858 3.47403e-21)
(1.5923 -0.176921 -3.14399e-21)
(1.55772 -0.18868 8.88992e-21)
(1.52044 -0.217819 -3.18136e-20)
(1.71491 -0.00910493 -3.93529e-20)
(1.71062 -0.0272711 -8.9066e-20)
(1.70068 -0.0451154 -1.01422e-19)
(1.68528 -0.06288 -1.66708e-19)
(1.66526 -0.0796322 3.54042e-20)
(1.64088 -0.0968822 2.84299e-20)
(1.61328 -0.111365 1.11839e-20)
(1.58308 -0.128229 2.07481e-20)
(1.55099 -0.137552 -3.46776e-20)
(1.51846 -0.158563 -9.49666e-21)
(1.69715 -0.00723004 4.87175e-20)
(1.69343 -0.0186944 1.66555e-20)
(1.68442 -0.0299788 1.16101e-20)
(1.6704 -0.0412739 -2.25678e-20)
(1.65188 -0.0520452 -1.94623e-20)
(1.62946 -0.0632893 -2.08059e-20)
(1.60368 -0.0729396 -1.80778e-20)
(1.57586 -0.0843974 2.07128e-20)
(1.54543 -0.0910592 -8.35159e-21)
(1.51576 -0.105778 1.41206e-20)
(1.66539 -0.00673541 -5.65626e-20)
(1.66235 -0.0117187 -1.19905e-20)
(1.65488 -0.0165809 9.00367e-20)
(1.64315 -0.0215384 -1.5298e-20)
(1.62743 -0.0263286 -1.92641e-20)
(1.60829 -0.0316965 3.04142e-20)
(1.5856 -0.0363025 -1.69879e-20)
(1.56155 -0.0425439 7.6746e-21)
(1.53303 -0.0459464 -1.74269e-21)
(1.50778 -0.0554638 5.51398e-21)
(1.37096 -0.00296508 4.42501e-20)
(1.36667 -0.00229341 3.59746e-20)
(1.36204 -0.00165543 3.40576e-20)
(1.35705 -0.00116239 5.21347e-20)
(1.35138 -0.000837039 -2.16289e-20)
(1.34531 -0.000838373 -3.02328e-20)
(1.33724 -0.000912558 9.38666e-21)
(1.33035 -0.00172827 1.61818e-21)
(1.31645 -0.00152873 -2.75218e-21)
(1.31204 -0.00563819 2.77346e-21)
(1.35129 0.712633 -4.65808e-20)
(1.34867 0.756496 2.74975e-20)
(1.35333 0.808597 -3.3689e-19)
(1.36015 0.866791 2.35876e-19)
(1.36794 0.928978 6.61071e-19)
(1.37498 0.994836 -1.49212e-19)
(1.37663 1.06165 -7.63145e-19)
(1.3497 1.11054 -6.26374e-20)
(1.19753 1.04192 -5.26926e-19)
(0.634224 0.590426 7.14156e-20)
(1.48738 0.697171 0)
(1.49058 0.738433 4.67707e-19)
(1.49737 0.787499 1.03086e-18)
(1.50799 0.842938 -6.04462e-19)
(1.52126 0.903056 -1.48781e-18)
(1.53511 0.967358 -1.40517e-19)
(1.54407 1.03283 -1.8002e-19)
(1.52109 1.08081 6.71372e-19)
(1.35471 1.0123 1.18017e-18)
(0.718725 0.572152 5.11202e-19)
(1.60369 0.667399 6.25972e-20)
(1.61602 0.707418 0)
(1.63039 0.753549 -6.71905e-20)
(1.64787 0.805002 6.4218e-19)
(1.66805 0.861123 5.29815e-20)
(1.68949 0.921621 -1.68593e-18)
(1.70612 0.983489 1.10428e-18)
(1.68705 1.02878 7.90136e-19)
(1.5062 0.960812 -1.09348e-18)
(0.799015 0.540939 -3.05401e-19)
(1.70811 0.619199 -9.93395e-20)
(1.72905 0.657484 -8.18854e-20)
(1.75168 0.700366 2.04243e-19)
(1.77682 0.747572 -2.56011e-19)
(1.80462 0.799116 -1.25506e-18)
(1.83402 0.854835 -9.69346e-19)
(1.8583 0.911826 1.12713e-18)
(1.84274 0.953338 8.02897e-19)
(1.64702 0.886801 0)
(0.87164 0.496464 0)
(1.80371 0.555406 -7.51933e-19)
(1.83148 0.590518 -1.25029e-18)
(1.86127 0.629194 -5.05964e-19)
(1.89359 0.671459 -3.6027e-20)
(1.92879 0.717611 0)
(1.9658 0.767476 1.49873e-19)
(1.99703 0.818314 1.77622e-19)
(1.98402 0.855052 2.27848e-19)
(1.77285 0.791076 -3.50023e-19)
(0.933869 0.439673 -9.09858e-20)
(1.88901 0.477872 8.79391e-19)
(1.92202 0.508495 -4.89141e-20)
(1.95767 0.54198 -1.04083e-18)
(1.99631 0.578464 0)
(2.03818 0.618277 0)
(2.08192 0.661179 0)
(2.11901 0.704566 1.46509e-18)
(2.10708 0.735833 -1.91e-18)
(1.88004 0.67585 -1.6541e-18)
(0.983627 0.372451 1.45961e-19)
(1.96169 0.38823 -1.19693e-18)
(1.9987 0.413484 -2.48825e-18)
(2.03904 0.44094 -4.29665e-21)
(2.0829 0.470815 4.94989e-19)
(2.13033 0.503389 -4.44836e-20)
(2.17958 0.538169 1.19126e-18)
(2.22092 0.573219 -7.13789e-19)
(2.20895 0.59843 -2.44884e-18)
(1.96545 0.544142 1.68028e-19)
(1.01956 0.297079 1.38395e-19)
(2.01952 0.288785 -9.83455e-19)
(2.05953 0.307996 2.03916e-20)
(2.10342 0.328663 3.79564e-19)
(2.1513 0.351144 -3.63195e-19)
(2.20299 0.375659 5.56858e-19)
(2.25618 0.401695 1.68669e-18)
(2.30026 0.426389 -2.47201e-19)
(2.28636 0.446401 -1.48115e-18)
(2.02704 0.401308 4.74693e-19)
(1.04001 0.216276 1.16487e-19)
(2.06047 0.182074 3.61921e-19)
(2.10263 0.194761 9.86648e-20)
(2.14901 0.20802 -4.13687e-19)
(2.19967 0.222467 -9.09606e-19)
(2.25423 0.238352 1.1064e-19)
(2.3099 0.2548 1.21524e-19)
(2.35463 0.269174 -1.72364e-18)
(2.33708 0.282533 8.74842e-19)
(2.06268 0.250443 3.65166e-19)
(1.04538 0.134613 -2.70643e-19)
(2.08317 0.070669 7.34594e-19)
(2.12657 0.0763271 -1.10036e-18)
(2.1743 0.0817813 1.9976e-19)
(2.22645 0.0877173 2.30835e-18)
(2.28243 0.0941807 1.24529e-18)
(2.33889 0.101455 -2.8764e-18)
(2.38244 0.105476 -3.329e-18)
(2.35964 0.113479 2.04008e-18)
(2.07121 0.0961551 -1.27049e-20)
(1.03665 0.0524779 -4.38974e-20)
(0.5266 0.179576 -2.12877e-19)
(0.492163 0.185852 -1.89831e-19)
(0.449365 0.192705 1.16024e-19)
(0.402261 0.200061 -3.8476e-19)
(0.351 0.208007 -5.55728e-20)
(0.294331 0.216602 3.37879e-19)
(0.231237 0.225429 1.06402e-19)
(0.160734 0.23119 -7.86462e-20)
(0.0868284 0.216366 -1.81416e-20)
(0.0153356 0.126121 3.18371e-20)
(0.55178 0.276975 1.73206e-19)
(0.51829 0.28989 2.53067e-19)
(0.47686 0.304088 3.62382e-20)
(0.431244 0.319305 -1.12191e-19)
(0.381602 0.335717 -3.7207e-19)
(0.326733 0.353475 2.92855e-20)
(0.265555 0.371871 2.55638e-19)
(0.196498 0.385153 -1.32163e-20)
(0.120585 0.362574 -2.78516e-20)
(0.0347219 0.210306 -8.44082e-21)
(0.593794 0.37029 -1.94624e-19)
(0.561982 0.389585 -2.13588e-19)
(0.522909 0.410754 1.81604e-19)
(0.479818 0.433443 1.7122e-19)
(0.432906 0.457918 -6.42371e-20)
(0.381044 0.484404 -1.61386e-19)
(0.323044 0.511905 -8.73476e-20)
(0.256347 0.532297 6.21213e-20)
(0.176872 0.502168 -2.56888e-20)
(0.0667713 0.290453 7.34571e-21)
(0.651583 0.45742 1.1282e-19)
(0.622148 0.482717 4.94036e-21)
(0.586371 0.51031 -1.49232e-19)
(0.5468 0.539905 1.16989e-19)
(0.503683 0.571852 -1.04966e-19)
(0.455993 0.606438 5.09764e-20)
(0.402381 0.642376 -8.38108e-20)
(0.338934 0.66928 -8.4422e-20)
(0.254356 0.631924 -2.06208e-19)
(0.110702 0.364754 5.40022e-20)
(0.72366 0.536393 -3.92246e-20)
(0.697267 0.567176 -1.72912e-20)
(0.665678 0.60048 -4.45966e-20)
(0.630588 0.636259 -1.36005e-19)
(0.592302 0.674929 5.66256e-20)
(0.549909 0.716808 -1.29727e-19)
(0.501836 0.760333 2.05399e-19)
(0.442409 0.793013 4.44862e-20)
(0.351453 0.748804 2.78805e-19)
(0.165645 0.431405 2.23293e-19)
(0.808029 0.6055 1.85909e-20)
(0.785272 0.641076 -3.88391e-20)
(0.758663 0.679128 2.04209e-19)
(0.728915 0.720134 9.18879e-20)
(0.696409 0.764572 1.61163e-19)
(0.660367 0.812744 5.07222e-20)
(0.618917 0.862794 3.28018e-19)
(0.564215 0.900334 1.76542e-19)
(0.465772 0.849733 1.82892e-19)
(0.23015 0.488493 1.97383e-19)
(0.9026 0.662527 -9.819e-20)
(0.884296 0.702156 2.27718e-19)
(0.863687 0.743978 1.12917e-19)
(0.840294 0.789207 -8.05978e-20)
(0.814521 0.838364 -4.872e-20)
(0.785738 0.891726 4.07659e-19)
(0.751754 0.947178 -1.00388e-19)
(0.702225 0.988684 -2.58884e-19)
(0.595094 0.932351 -5.54882e-20)
(0.302732 0.534622 2.28905e-19)
(1.00263 0.706892 1.48157e-19)
(0.988818 0.749178 5.66882e-20)
(0.974821 0.793379 -5.1109e-19)
(0.958807 0.841732 1.42331e-20)
(0.941055 0.894572 2.53727e-19)
(0.920917 0.95195 -2.32185e-19)
(0.895675 1.01144 -3.63135e-20)
(0.852099 1.05567 -1.21343e-19)
(0.735532 0.994127 1.50381e-20)
(0.381132 0.568283 -2.81365e-19)
(1.11146 0.73344 2.62364e-20)
(1.10444 0.778061 -3.44863e-19)
(1.09813 0.823422 -2.36699e-21)
(1.08951 0.873593 2.47159e-19)
(1.0794 0.928963 -2.28469e-19)
(1.06756 0.989372 4.95556e-19)
(1.05084 1.05208 3.86803e-19)
(1.01282 1.09858 -6.99044e-19)
(0.885309 1.03334 -5.8523e-20)
(0.463915 0.588935 -3.24693e-19)
(1.19961 0.741179 -1.67309e-19)
(1.20413 0.788609 -1.72205e-19)
(1.21179 0.835645 2.23207e-19)
(1.21584 0.887384 3.98654e-19)
(1.21742 0.944342 1.84432e-19)
(1.21672 1.00635 -4.08578e-19)
(1.21032 1.07055 -6.89265e-21)
(1.17871 1.11792 1.50619e-19)
(1.03979 1.04973 -2.77783e-19)
(0.548693 0.596318 -2.42413e-19)
(0.694634 0.0237701 2.09728e-20)
(1.20845 0.0344294 -2.42592e-20)
(0.906851 0.0394042 -8.64572e-22)
(1.01175 0.0430767 0)
(0.982383 0.0506485 2.36097e-20)
(0.965307 0.0608885 2.78018e-20)
(0.940786 0.0744666 3.47032e-20)
(0.893758 0.0919323 6.89746e-20)
(0.828855 0.116071 -9.71431e-20)
(0.659755 0.146834 -1.09235e-19)
(0.694373 0.021726 4.23238e-20)
(1.20884 0.0349576 -8.37929e-20)
(0.907643 0.0421406 -2.04447e-21)
(1.01357 0.0449205 -1.25099e-20)
(0.984998 0.054411 1.12732e-20)
(0.968965 0.0669665 -1.4497e-20)
(0.945579 0.0848713 -8.63945e-20)
(0.9008 0.109459 0)
(0.837337 0.151047 2.07683e-19)
(0.679023 0.207163 -2.59358e-19)
(0.693921 0.0197416 -6.78764e-20)
(1.20936 0.035354 2.32261e-20)
(0.908339 0.0446428 2.88892e-20)
(1.01575 0.0465845 1.77784e-20)
(0.987975 0.0580026 -2.68055e-20)
(0.973298 0.0728918 -4.05826e-22)
(0.951457 0.0950957 -6.06545e-20)
(0.910444 0.126853 -4.87285e-21)
(0.849385 0.18524 2.32603e-22)
(0.710314 0.265726 6.48604e-19)
(0.693272 0.0179149 -6.84951e-21)
(1.20993 0.0356123 5.2271e-21)
(0.908949 0.0468454 2.75433e-20)
(1.01829 0.0480561 1.54805e-20)
(0.991317 0.061392 -1.36267e-20)
(0.978302 0.07861 -1.66384e-20)
(0.958471 0.105033 9.01906e-20)
(0.922557 0.143957 -1.46925e-21)
(0.865173 0.218122 -2.51605e-19)
(0.753094 0.321536 6.91707e-20)
(0.692408 0.0163146 7.8976e-21)
(1.21053 0.0357116 -4.85537e-20)
(0.909493 0.0486804 -2.18808e-20)
(1.02121 0.0493299 6.29068e-21)
(0.995029 0.0645492 0)
(0.98397 0.0840692 0)
(0.966666 0.114592 7.6499e-20)
(0.93695 0.160605 2.97323e-22)
(0.884972 0.249059 -1.22255e-19)
(0.806608 0.373818 9.52668e-20)
(0.691309 0.0150214 -2.45892e-21)
(1.21106 0.0356188 4.08889e-20)
(0.91 0.0500802 -3.83173e-20)
(1.02452 0.0504108 -3.5416e-20)
(0.9991 0.0674446 -7.64376e-22)
(0.99029 0.0892225 6.60729e-20)
(0.976079 0.123697 1.19197e-19)
(0.953401 0.176649 -7.40077e-22)
(0.90918 0.277823 2.09123e-19)
(0.869793 0.421982 -2.06686e-19)
(0.689949 0.0141344 -3.08075e-20)
(1.21139 0.0352863 2.11127e-20)
(0.910507 0.0509742 -1.44311e-22)
(1.02824 0.051317 -5.70404e-20)
(1.00351 0.0700491 2.06322e-21)
(0.997252 0.0940306 -1.08969e-21)
(0.986727 0.132288 -7.24056e-21)
(0.971789 0.19196 -2.06131e-19)
(0.938079 0.303858 1.61387e-19)
(0.941067 0.464756 -4.79185e-19)
(0.688288 0.0137558 1.38272e-20)
(1.21146 0.0346418 -6.0295e-20)
(0.911067 0.0512971 1.18129e-20)
(1.03241 0.0520835 4.57884e-20)
(1.00824 0.0723373 9.5418e-22)
(1.00485 0.0984834 -7.62908e-20)
(0.998628 0.140403 -6.54243e-20)
(0.991979 0.206803 3.74258e-19)
(0.972158 0.32761 1.22334e-20)
(1.01911 0.505697 7.62299e-19)
(0.686282 0.0140185 -2.21645e-21)
(1.21118 0.0335443 2.52489e-20)
(0.911759 0.0509832 -1.10923e-20)
(1.03698 0.0527722 -4.75089e-20)
(1.01321 0.0742361 -8.56347e-20)
(1.01303 0.10234 1.7389e-21)
(1.01169 0.147219 -9.02901e-20)
(1.01389 0.218477 4.9072e-19)
(1.01267 0.342247 -7.61146e-21)
(1.09927 0.532392 -1.04526e-18)
(0.683923 0.0153522 8.9454e-21)
(1.21102 0.032056 3.4758e-20)
(0.91259 0.0500334 1.8142e-20)
(1.0418 0.0535614 -1.04436e-19)
(1.01784 0.0762467 -7.90469e-20)
(1.02021 0.107073 -6.30886e-20)
(1.02212 0.156676 -1.60385e-19)
(1.02955 0.236411 -4.56706e-19)
(1.04394 0.369855 -2.72504e-19)
(1.17185 0.581409 -1.14061e-18)
(0.685176 0.0160017 -2.49755e-20)
(1.2126 0.0299141 -6.95033e-21)
(0.914758 0.0474449 -1.43707e-20)
(1.04788 0.0532726 -3.75858e-22)
(1.02665 0.075792 5.47547e-20)
(1.03479 0.107332 -4.36366e-20)
(1.04621 0.157029 1.44415e-19)
(1.06962 0.234737 -4.58514e-19)
(1.11286 0.355033 -1.93442e-19)
(1.24043 0.556019 6.50721e-19)
(0.685818 0.01432 2.24039e-20)
(1.2163 0.0274312 1.38761e-20)
(0.91884 0.0429872 9.18244e-21)
(1.0532 0.0507443 4.09259e-20)
(1.03641 0.0719724 8.41842e-20)
(1.04946 0.102095 1.2824e-19)
(1.06871 0.14833 3.11597e-20)
(1.10427 0.218208 2.52335e-19)
(1.16044 0.320091 3.22189e-19)
(1.3025 0.476378 -1.65671e-20)
(0.686185 0.0121106 -2.49171e-20)
(1.21998 0.0244153 -4.44802e-21)
(0.923096 0.0384476 -1.62163e-20)
(1.0586 0.0471321 2.01696e-20)
(1.04578 0.066849 2.30405e-34)
(1.0633 0.0948163 -9.08505e-21)
(1.08928 0.136644 -5.8659e-34)
(1.13461 0.197907 2.08557e-20)
(1.19886 0.281161 -5.83265e-20)
(1.35143 0.405771 -5.01086e-20)
(0.686562 0.00906632 4.02423e-20)
(1.22349 0.0207931 -4.79602e-35)
(0.927233 0.0335305 1.59176e-20)
(1.06378 0.0425097 -1.72211e-20)
(1.05438 0.0603885 -3.32765e-20)
(1.07576 0.0856016 -4.28868e-20)
(1.10731 0.12238 -7.37131e-34)
(1.15994 0.174881 -1.10776e-19)
(1.22959 0.241408 -1.51003e-19)
(1.38442 0.338765 9.31159e-20)
(0.686995 0.005164 0)
(1.22692 0.01662 -1.43777e-36)
(0.931171 0.0282912 0)
(1.06861 0.03702 0)
(1.06201 0.0527609 0)
(1.08665 0.0747296 0)
(1.12272 0.106022 -4.4704e-34)
(1.18047 0.149731 0)
(1.25386 0.201507 -2.2786e-20)
(1.40465 0.275727 5.64863e-20)
(0.687548 0.000548941 2.669e-20)
(1.23043 0.0119734 -4.77764e-21)
(0.934872 0.0228284 1.51343e-20)
(1.0729 0.0308325 0)
(1.06859 0.0441702 0)
(1.09583 0.0625334 7.80786e-21)
(1.13543 0.088118 3.16297e-20)
(1.19662 0.123182 -1.56981e-20)
(1.27251 0.162278 -3.39702e-20)
(1.41632 0.216959 2.10036e-19)
(0.688248 -0.00544927 -4.53427e-20)
(1.23413 0.00680026 5.98722e-21)
(0.938302 0.017209 1.4683e-20)
(1.07655 0.0241137 -5.49961e-21)
(1.07395 0.0348186 -1.14714e-20)
(1.10321 0.0493177 -9.12198e-21)
(1.14545 0.0691014 -2.38132e-20)
(1.20886 0.0957818 -4.5689e-20)
(1.28629 0.124061 -6.31268e-20)
(1.4226 0.16236 9.43442e-20)
(0.689199 -0.0105965 -3.68055e-20)
(1.23827 0.0015901 -1.56632e-20)
(0.941329 0.0120037 1.38573e-20)
(1.0793 0.0169774 -1.47517e-20)
(1.07791 0.0247866 8.07443e-35)
(1.10859 0.0351851 8.46689e-21)
(1.15272 0.0490697 -1.08584e-33)
(1.21749 0.0675539 -1.60206e-20)
(1.29571 0.0863753 2.14557e-20)
(1.42576 0.110495 2.83285e-20)
(0.689058 -0.0228875 1.75915e-19)
(1.23742 -0.00428398 -8.59383e-21)
(0.939321 0.00616092 1.38187e-20)
(1.07652 0.0104131 2.95e-21)
(1.07596 0.0151135 4.0317e-21)
(1.10759 0.0216501 1.53976e-20)
(1.1529 0.0300718 9.0193e-21)
(1.21852 0.041213 -5.15083e-21)
(1.29686 0.0520176 -2.27695e-20)
(1.42332 0.0650589 1.46008e-19)
(0.648735 -0.0174356 3.06906e-20)
(1.12111 -0.00744169 -6.90884e-35)
(0.832716 0.00277933 1.32954e-20)
(0.96451 0.00173658 0)
(0.961239 0.00334298 0)
(0.990658 0.00478978 8.72367e-21)
(1.03254 0.00661231 -1.03327e-35)
(1.09237 0.00914194 -1.6013e-20)
(1.16419 0.0113219 -3.16086e-20)
(1.27343 0.0136465 6.26901e-20)
(1.41139 0.622483 -1.934e-19)
(1.50343 0.618383 -2.83773e-19)
(1.596 0.590751 0)
(1.68212 0.543527 8.95828e-20)
(1.76319 0.483877 4.4509e-19)
(1.83701 0.413975 -1.5035e-19)
(1.90052 0.334631 1.34621e-18)
(1.95124 0.247621 -4.92217e-20)
(1.98739 0.155033 -3.60175e-19)
(2.00741 0.0594025 3.10141e-19)
(1.45224 0.512692 7.81415e-20)
(1.52768 0.498375 1.16558e-19)
(1.60745 0.464225 -2.00308e-21)
(1.67883 0.420458 1.5215e-19)
(1.74299 0.370959 -1.41625e-19)
(1.79986 0.315466 -3.74521e-19)
(1.84795 0.254003 -7.05902e-20)
(1.8859 0.187554 5.33097e-19)
(1.91261 0.117524 -1.84616e-20)
(1.92737 0.0451864 -4.43317e-19)
(1.48395 0.411976 1.0745e-19)