/*--------------------------------*- C++ -*----------------------------------*\
  =========                 |
  \\      /  F ield         | OpenFOAM: The Open Source CFD Toolbox
   \\    /   O peration     | Website:  https://openfoam.org
    \\  /    A nd           | Version:  13
     \\/     M anipulation  |
\*---------------------------------------------------------------------------*/
FoamFile
{
    format      ascii;
    class       volScalarField;
    location    "1.8";
    object      p;
}
// * * * * * * * * * * * * * * * * * * * * * * * * * * * * * * * * * * * * * //

dimensions      [0 2 -2 0 0 0 0];

internalField   nonuniform List<scalar> 
1800
(
-1.56075
-1.55212
-1.54237
-1.53296
-1.52768
-1.52842
-1.53453
-1.54335
-1.54949
-1.5609
-1.6002
-1.59104
-1.58175
-1.57335
-1.56778
-1.56541
-1.56423
-1.56115
-1.55331
-1.54513
-1.65866
-1.64827
-1.63865
-1.63006
-1.62245
-1.61412
-1.60223
-1.58437
-1.56007
-1.53174
-1.73346
-1.72143
-1.71028
-1.69938
-1.68625
-1.66774
-1.64161
-1.60745
-1.56626
-1.52189
-1.82237
-1.80855
-1.79457
-1.77827
-1.75505
-1.72196
-1.6788
-1.62756
-1.57142
-1.51442
-1.92155
-1.90597
-1.88714
-1.86124
-1.82307
-1.77182
-1.71033
-1.64296
-1.57349
-1.5055
-2.02409
-2.00663
-1.98015
-1.94002
-1.88283
-1.81134
-1.73168
-1.6495
-1.56872
-1.49215
-2.12032
-2.10029
-2.06302
-2.00483
-1.92611
-1.83426
-1.73773
-1.64238
-1.5514
-1.46651
-2.19859
-2.17479
-2.12412
-2.04552
-1.945
-1.83439
-1.72324
-1.6168
-1.51743
-1.42598
-2.24705
-2.2182
-2.1527
-2.05326
-1.93283
-1.80636
-1.68333
-1.56797
-1.46162
-1.36431
-0.84941
-0.856218
-0.864081
-0.872715
-0.88212
-0.890704
-0.896786
-0.898644
-0.892946
-0.875712
-0.974621
-0.980208
-0.987093
-0.995828
-1.00644
-1.01706
-1.02565
-1.03027
-1.02732
-1.01154
-1.11989
-1.12398
-1.12994
-1.13945
-1.15249
-1.16679
-1.17977
-1.18916
-1.19128
-1.17984
-1.26507
-1.26744
-1.27226
-1.28305
-1.29934
-1.31852
-1.33706
-1.3523
-1.36092
-1.35618
-1.38871
-1.38865
-1.39191
-1.403
-1.42108
-1.4461
-1.46928
-1.48951
-1.50617
-1.50713
-1.47531
-1.47204
-1.4727
-1.48198
-1.49963
-1.5234
-1.54939
-1.57371
-1.59199
-1.59412
-1.52155
-1.51519
-1.51173
-1.51571
-1.52799
-1.54758
-1.57167
-1.59612
-1.6155
-1.61894
-1.53649
-1.52824
-1.52071
-1.51788
-1.52214
-1.53427
-1.55292
-1.57432
-1.5933
-1.59543
-1.53729
-1.52857
-1.51869
-1.51076
-1.50851
-1.51417
-1.52754
-1.54534
-1.5625
-1.56082
-1.54125
-1.53269
-1.52235
-1.51248
-1.50739
-1.50974
-1.51958
-1.53353
-1.545
-1.53906
-0.705867
-0.0642269
0.0391762
0.113681
0.0997771
0.0771908
0.0567252
0.0389346
0.0226845
0.00766825
-0.802076
-0.102975
0.0213618
0.105646
0.0955032
0.0743597
0.0546638
0.0374854
0.0218339
0.00734148
-0.933344
-0.156485
-0.00178389
0.0943416
0.0898089
0.070815
0.0522177
0.0358345
0.020887
0.006983
-1.08432
-0.218162
-0.0295814
0.0795864
0.0825871
0.0665103
0.0493648
0.03397
0.0198365
0.00659138
-1.23741
-0.286942
-0.0611415
0.0613493
0.0737046
0.0613946
0.0460855
0.031882
0.0186761
0.00616598
-1.37919
-0.362079
-0.0956872
0.039724
0.0630162
0.0554184
0.0423683
0.0295646
0.0174018
0.00570706
-1.48898
-0.444604
-0.133171
0.015025
0.0504001
0.0485256
0.0382063
0.0270181
0.0160145
0.0052172
-1.55085
-0.533035
-0.173851
-0.0122504
0.0358185
0.0406371
0.0335718
0.0242371
0.0145156
0.00470231
-1.55971
-0.620847
-0.217311
-0.0412894
0.0194457
0.0316791
0.0283923
0.0211843
0.012889
0.00416649
-1.52373
-0.701601
-0.261988
-0.0707053
0.00192785
0.0218002
0.0226609
0.0178268
0.0111046
0.00360612
-1.4085
-0.709254
-0.283861
-0.0953906
-0.0174552
0.00910455
0.0147761
0.0130654
0.00854335
0.00282859
-1.18325
-0.655375
-0.289845
-0.117646
-0.0392191
-0.00658381
0.00464309
0.0068313
0.00523938
0.00177688
-1.02367
-0.61355
-0.297106
-0.132537
-0.0549883
-0.0191931
-0.00407876
0.00127297
0.00223419
0.000818417
-0.900288
-0.576262
-0.305786
-0.152574
-0.0745877
-0.0337377
-0.0135013
-0.00445098
-0.000772476
-0.00015299
-0.808166
-0.55112
-0.317007
-0.169567
-0.0898819
-0.0456006
-0.0216275
-0.00953081
-0.0034694
-0.00102024
-0.737172
-0.534511
-0.331316
-0.189385
-0.106423
-0.0575887
-0.0294673
-0.0142658
-0.00592688
-0.00180186
-0.683541
-0.528034
-0.350157
-0.21042
-0.121686
-0.0679448
-0.0361421
-0.0182557
-0.00797882
-0.00243878
-0.645835
-0.530067
-0.371535
-0.231683
-0.135807
-0.0769377
-0.0417442
-0.0215042
-0.00960888
-0.00291381
-0.625588
-0.538032
-0.388409
-0.246351
-0.144486
-0.0819024
-0.0447814
-0.0232174
-0.0104462
-0.00311576
-0.614241
-0.543464
-0.397494
-0.254189
-0.149798
-0.0852276
-0.0468444
-0.0244152
-0.0111049
-0.00331313
-1.19676
-1.26466
-1.3142
-1.35218
-1.37765
-1.40285
-1.42381
-1.45921
-1.48682
-1.53996
-1.00801
-1.07802
-1.13247
-1.1767
-1.20904
-1.23741
-1.25748
-1.27799
-1.29493
-1.31892
-0.859202
-0.927011
-0.982746
-1.02747
-1.06198
-1.08772
-1.10592
-1.11793
-1.12801
-1.136
-0.738455
-0.80363
-0.858436
-0.902215
-0.936603
-0.961074
-0.978422
-0.988546
-0.995148
-0.99802
-0.641425
-0.703786
-0.756441
-0.798978
-0.832431
-0.856746
-0.873661
-0.88358
-0.888096
-0.888015
-0.563619
-0.623213
-0.673535
-0.714611
-0.746903
-0.770775
-0.787145
-0.796652
-0.800086
-0.798599
-0.502101
-0.559244
-0.607513
-0.646944
-0.677951
-0.700794
-0.716478
-0.725326
-0.728527
-0.726734
-0.455908
-0.511087
-0.557837
-0.595673
-0.625375
-0.646823
-0.66181
-0.669769
-0.673085
-0.670699
-0.428122
-0.482551
-0.528095
-0.564854
-0.593737
-0.614428
-0.628872
-0.635987
-0.639252
-0.63591
-0.415105
-0.469838
-0.51602
-0.553793
-0.583153
-0.604598
-0.618926
-0.626335
-0.628691
-0.623507
0.358178
0.286889
0.20521
0.117695
0.0230848
-0.0810414
-0.194631
-0.311385
-0.409817
-0.458295
0.143771
0.0661386
-0.0204417
-0.115238
-0.220099
-0.336711
-0.464031
-0.594096
-0.702657
-0.755024
-0.0918658
-0.173117
-0.263023
-0.362804
-0.474614
-0.599796
-0.736729
-0.876225
-0.992045
-1.04647
-0.319836
-0.405417
-0.500496
-0.606594
-0.725595
-0.85853
-1.00342
-1.1501
-1.27086
-1.32533
-0.529117
-0.620292
-0.721835
-0.834995
-0.961321
-1.10176
-1.25408
-1.40655
-1.52804
-1.58172
-0.718575
-0.815504
-0.923315
-1.04305
-1.17593
-1.32228
-1.48113
-1.63412
-1.75325
-1.80614
-0.888519
-0.990255
-1.10302
-1.22761
-1.36532
-1.51575
-1.67422
-1.82542
-1.94009
-1.99045
-1.03967
-1.1442
-1.25924
-1.38579
-1.52478
-1.67524
-1.83098
-1.97609
-2.08251
-2.12864
-1.17194
-1.27579
-1.38992
-1.5153
-1.65226
-1.79887
-1.94764
-2.08174
-2.17646
-2.21718
-1.28072
-1.38198
-1.4931
-1.61468
-1.7463
-1.88487
-2.02172
-2.14022
-2.22086
-2.25558
1.76627
1.78063
1.79544
1.8096
1.82227
1.83277
1.84042
1.84521
1.84915
1.85347
1.69012
1.7014
1.71242
1.72215
1.7299
1.73497
1.73668
1.73532
1.7339
1.73501
1.59336
1.60064
1.60673
1.61076
1.61219
1.61034
1.60454
1.59538
1.58711
1.58426
1.4774
1.48016
1.48031
1.47731
1.47092
1.46045
1.44527
1.42638
1.40955
1.40206
1.342
1.33926
1.33256
1.32167
1.30658
1.28655
1.26097
1.23126
1.20476
1.19214
1.19063
1.18222
1.16772
1.14755
1.12216
1.09089
1.05321
1.0111
0.973763
0.955258
1.02345
1.00879
0.986348
0.956848
0.920911
0.87781
0.827152
0.771612
0.722546
0.697837
0.848861
0.826979
0.794505
0.753411
0.704986
0.64857
0.58386
0.514179
0.453073
0.422028
0.671833
0.642486
0.599386
0.545773
0.483576
0.412208
0.331639
0.246224
0.172198
0.134801
0.506688
0.459878
0.399391
0.330042
0.252858
0.16627
0.0700282
-0.0306905
-0.117002
-0.160228
1.51557
1.48409
1.487
1.48274
1.47971
1.4903
1.51027
1.54707
1.60652
1.70246
1.50843
1.47819
1.48107
1.47574
1.47148
1.4791
1.49578
1.5262
1.57486
1.65302
1.50184
1.47224
1.475
1.4683
1.46264
1.46687
1.47982
1.50228
1.5376
1.59199
1.49576
1.46629
1.46883
1.46048
1.45322
1.45359
1.46245
1.47516
1.49513
1.51864
1.49018
1.46037
1.46258
1.45229
1.44323
1.43923
1.44371
1.44462
1.4481
1.43183
1.48511
1.45452
1.45627
1.44379
1.43266
1.42379
1.42359
1.41059
1.39678
1.33073
1.48053
1.44878
1.44991
1.435
1.4215
1.40735
1.40204
1.37299
1.34133
1.21379
1.47648
1.44315
1.44351
1.42596
1.40976
1.39
1.37891
1.33202
1.28142
1.08218
1.47299
1.43768
1.43708
1.4167
1.39745
1.3719
1.35403
1.28783
1.21549
0.934093
1.47021
1.43238
1.43063
1.40726
1.38473
1.35321
1.3283
1.24202
1.14615
0.780949
1.46731
1.42621
1.42238
1.39555
1.36786
1.32896
1.29317
1.18595
1.06578
0.634423
1.4657
1.41979
1.41323
1.3827
1.34926
1.30343
1.25501
1.13682
0.989008
0.605203
1.46604
1.41426
1.40444
1.37041
1.33131
1.2805
1.21945
1.0972
0.92786
0.589867
1.46897
1.40961
1.39595
1.35869
1.31394
1.26064
1.18704
1.06612
0.878566
0.582999
1.47499
1.4059
1.3875
1.34741
1.29712
1.24379
1.15795
1.04301
0.840397
0.580308
1.48479
1.40316
1.37974
1.33689
1.28131
1.22979
1.13293
1.02699
0.812442
0.577018
1.49805
1.39984
1.37012
1.32492
1.26644
1.21829
1.11197
1.01588
0.793341
0.573968
1.52256
1.40103
1.36397
1.31531
1.25392
1.20923
1.09535
1.0085
0.781196
0.57246
1.53437
1.3925
1.35028
1.30348
1.24413
1.20287
1.08423
1.00456
0.775469
0.573619
1.60977
1.40542
1.35252
1.29943
1.24056
1.19967
1.0789
1.00333
0.772412
0.576586
0.340721
0.164508
-0.0441444
-0.246321
-0.430798
-0.597645
-0.749342
-0.886579
-1.0072
-1.1115
0.288526
0.149105
-0.0102954
-0.171252
-0.323059
-0.463431
-0.593628
-0.714492
-0.825003
-0.923982
0.272757
0.154453
0.0256568
-0.1075
-0.237451
-0.361115
-0.477989
-0.587566
-0.688787
-0.77954
0.285557
0.175475
0.0602133
-0.0555856
-0.169229
-0.279208
-0.384573
-0.484502
-0.577733
-0.662709
0.303186
0.199422
0.0932014
-0.010983
-0.112548
-0.211904
-0.30854
-0.401602
-0.489147
-0.56959
0.320954
0.223171
0.124153
0.0280638
-0.06524
-0.157181
-0.247614
-0.335574
-0.418677
-0.495302
0.337751
0.245467
0.152273
0.0618211
-0.0262562
-0.113439
-0.199619
-0.283673
-0.363188
-0.436596
0.353159
0.265741
0.177286
0.0905806
0.00533603
-0.079394
-0.163208
-0.244795
-0.321816
-0.392676
0.367279
0.283934
0.199174
0.114369
0.0296154
-0.0549812
-0.138376
-0.219127
-0.295289
-0.365445
0.379469
0.298596
0.215352
0.130072
0.0439236
-0.0418157
-0.125707
-0.206452
-0.282438
-0.352446
-1.18997
-1.15412
-1.07684
-0.978842
-0.879108
-0.788111
-0.709738
-0.64505
-0.594363
-0.558193
-1.22822
-1.19663
-1.13292
-1.0502
-0.963171
-0.881973
-0.811122
-0.752204
-0.706213
-0.674451
-1.20427
-1.17607
-1.12682
-1.06253
-0.992044
-0.923942
-0.863036
-0.811434
-0.770632
-0.742142
-1.13273
-1.1071
-1.07075
-1.02508
-0.973222
-0.920852
-0.872322
-0.829963
-0.795502
-0.770426
-1.03447
-1.01133
-0.984685
-0.95421
-0.919431
-0.882724
-0.847018
-0.814342
-0.786375
-0.764043
-0.931063
-0.910981
-0.890893
-0.870489
-0.848399
-0.824925
-0.801448
-0.779098
-0.759456
-0.743498
-0.838455
-0.822464
-0.806862
-0.791697
-0.776495
-0.761347
-0.746695
-0.733041
-0.720329
-0.7083
-0.764193
-0.752861
-0.740991
-0.728381
-0.7157
-0.704076
-0.694849
-0.688175
-0.686176
-0.687418
-0.707858
-0.700388
-0.691311
-0.679304
-0.666445
-0.655533
-0.64927
-0.64967
-0.655506
-0.673293
-0.670977
-0.66612
-0.656724
-0.643041
-0.628513
-0.617044
-0.613163
-0.621842
-0.64203
-0.691412
-0.666676
-0.66092
-0.650189
-0.634755
-0.618466
-0.606749
-0.603713
-0.612437
-0.63278
-0.657613
-0.692595
-0.684697
-0.674683
-0.663367
-0.653408
-0.648323
-0.650963
-0.662874
-0.685038
-0.710721
-0.726184
-0.718734
-0.713163
-0.711547
-0.715179
-0.725133
-0.741809
-0.764802
-0.793276
-0.81996
-0.747344
-0.743405
-0.743554
-0.75048
-0.764577
-0.785531
-0.81252
-0.844466
-0.879722
-0.908783
-0.746139
-0.74671
-0.750871
-0.76139
-0.778416
-0.801519
-0.829072
-0.860014
-0.894153
-0.918764
-0.726082
-0.729947
-0.73624
-0.746521
-0.761255
-0.77983
-0.801362
-0.824899
-0.847703
-0.863726
-0.701744
-0.707656
-0.715087
-0.724491
-0.73635
-0.749982
-0.76445
-0.778565
-0.789661
-0.794404
-0.689829
-0.696998
-0.705287
-0.714407
-0.724613
-0.735022
-0.744538
-0.751848
-0.754407
-0.749734
-0.705474
-0.713266
-0.722146
-0.731374
-0.740726
-0.749352
-0.755985
-0.759211
-0.756347
-0.744796
-0.757912
-0.765481
-0.774049
-0.782815
-0.792054
-0.800134
-0.805647
-0.807084
-0.801536
-0.785859
-0.83809
-0.575999
-0.274706
-0.0319877
0.0658663
0.0742384
0.0625607
0.0465171
0.0283934
0.00996352
-0.915944
-0.517625
-0.188851
0.0174453
0.0796473
0.0767653
0.0624606
0.0458658
0.0278054
0.0097351
-0.96795
-0.459685
-0.114611
0.0557938
0.0892887
0.07864
0.0624718
0.0453322
0.0272927
0.00952865
-0.984811
-0.404561
-0.0575358
0.081011
0.0951802
0.0802504
0.0624963
0.0448323
0.0268109
0.00932939
-0.944742
-0.33856
-0.0148572
0.097225
0.0992434
0.081346
0.0623947
0.0442989
0.0263301
0.00912987
-0.853501
-0.253085
0.0183417
0.108782
0.102203
0.0820093
0.0621118
0.043703
0.0258362
0.0089259
-0.750634
-0.162903
0.0411746
0.116655
0.104062
0.0821697
0.0616043
0.0430179
0.0253146
0.00871221
-0.676702
-0.0934751
0.0532436
0.120536
0.104783
0.081799
0.0608393
0.042219
0.0247511
0.00848381
-0.642636
-0.0553114
0.0560593
0.121087
0.10435
0.0808711
0.0597882
0.0412847
0.0241328
0.00823624
-0.652141
-0.0467528
0.0510201
0.118761
0.102706
0.0793484
0.0584251
0.0401957
0.0234476
0.00796554
-0.535416
-0.602038
-0.434541
-0.140606
0.0203704
0.0629454
0.0616849
0.0473938
0.0293948
0.010413
-0.528775
-0.601321
-0.44453
-0.144095
0.0217638
0.0636458
0.0616988
0.0472654
0.0292456
0.0103488
-0.57149
-0.608934
-0.447795
-0.142055
0.0253425
0.0645702
0.0615474
0.0470406
0.0290704
0.0102829
-0.657358
-0.613599
-0.424014
-0.127329
0.0336316
0.0665664
0.0615957
0.046883
0.0289228
0.0102155
-0.76245
-0.607261
-0.35223
-0.0808208
0.0502039
0.0711837
0.0624354
0.0469373
0.0288241
0.0101546
-0.523938
-0.63597
-0.707838
-0.742148
-0.750611
-0.726335
-0.714154
-0.665192
-0.635504
-0.589875
-0.524213
-0.637763
-0.707809
-0.740439
-0.744139
-0.719178
-0.706864
-0.651697
-0.634021
-0.582195
-0.526193
-0.640679
-0.709229
-0.74099
-0.738498
-0.721026
-0.695009
-0.659511
-0.642236
-0.610555
-0.531529
-0.647387
-0.715405
-0.746175
-0.739873
-0.72815
-0.690377
-0.681145
-0.66371
-0.68482
-0.540995
-0.658629
-0.72671
-0.755725
-0.749339
-0.733575
-0.698016
-0.693491
-0.679885
-0.760788
1.51073
1.50236
1.48737
1.46873
1.44735
1.42225
1.39278
1.36079
1.33416
1.32226
1.59557
1.59866
1.59535
1.58759
1.57658
1.56187
1.54304
1.52158
1.50381
1.49646
1.6767
1.68447
1.68758
1.68738
1.68472
1.6792
1.67028
1.65884
1.64943
1.64637
1.74614
1.75793
1.76703
1.77387
1.77874
1.78113
1.7804
1.77704
1.77433
1.77504
1.80339
1.81828
1.83148
1.8431
1.85317
1.86116
1.86646
1.86924
1.87178
1.87547
1.84401
1.86083
1.87719
1.89271
1.90707
1.91971
1.92994
1.93765
1.94427
1.9504
1.86762
1.88571
1.90405
1.92198
1.93893
1.95432
1.96746
1.97808
1.9872
1.99482
1.87224
1.89068
1.90988
1.92895
1.94714
1.96382
1.97831
1.99025
2.00044
2.0087
1.85726
1.87524
1.89416
1.91298
1.93087
1.94716
1.96118
1.97258
1.9823
1.99023
1.82205
1.83869
1.85615
1.87334
1.88938
1.90362
1.91535
1.92437
1.932
1.93861
-0.392907
-0.434845
-0.490019
-0.558941
-0.642314
-0.739605
-0.847821
-0.956661
-1.04444
-1.08442
-0.184843
-0.232184
-0.291533
-0.363595
-0.449501
-0.549498
-0.662508
-0.778101
-0.87301
-0.915637
0.0532958
0.00114417
-0.0618465
-0.136081
-0.222852
-0.322922
-0.435031
-0.550684
-0.651553
-0.695093
0.302115
0.246881
0.18208
0.107605
0.022264
-0.0748469
-0.182787
-0.295175
-0.392203
-0.437318
0.542496
0.486948
0.423305
0.351644
0.270865
0.179844
0.0790615
-0.0258286
-0.115417
-0.158667
0.760439
0.708424
0.649734
0.584466
0.511514
0.429614
0.339011
0.244772
0.164708
0.125517
0.952929
0.907841
0.85724
0.801111
0.73827
0.667401
0.588665
0.506659
0.43734
0.403451
1.12725
1.09009
1.04833
1.00192
0.949528
0.889829
0.823012
0.753269
0.694719
0.666444
1.29116
1.26049
1.22518
1.18631
1.14268
1.09296
1.03727
0.97925
0.931047
0.908257
1.4325
1.40762
1.37706
1.34455
1.3095
1.27035
1.22672
1.18124
1.14373
1.12643
1.63421
1.52506
1.52448
1.5175
1.52351
1.5485
1.57207
1.60995
1.62781
1.59977
1.61667
1.52408
1.52409
1.51775
1.52242
1.54695
1.57192
1.61278
1.64455
1.65123
1.60075
1.52198
1.52253
1.51699
1.52061
1.54445
1.57093
1.61561
1.66082
1.70162
1.58635
1.51897
1.52004
1.51531
1.51807
1.54103
1.56865
1.61593
1.67216
1.73909
1.5733
1.51525
1.51678
1.51278
1.5148
1.53669
1.5649
1.61388
1.67864
1.76637
1.56144
1.51093
1.51288
1.50946
1.51077
1.5314
1.55964
1.60938
1.68012
1.78291
1.55063
1.50615
1.50843
1.50539
1.50599
1.52514
1.55286
1.6023
1.67635
1.78858
1.54074
1.50099
1.50354
1.50063
1.50047
1.5179
1.54453
1.59256
1.66717
1.7837
1.53165
1.49555
1.49829
1.49523
1.49423
1.50968
1.53467
1.58014
1.65256
1.7678
1.52329
1.48989
1.49276
1.48925
1.4873
1.50049
1.52324
1.565
1.6324
1.7407
1.79991
1.5276
1.51343
1.50662
1.51859
1.54088
1.55492
1.57616
1.5394
1.51321
1.72595
1.52135
1.51394
1.50853
1.51936
1.54175
1.55554
1.57759
1.54309
1.51
1.70341
1.52622
1.51859
1.51129
1.52059
1.54337
1.55796
1.58176
1.55424
1.51211
1.67694
1.52616
1.5216
1.514
1.52199
1.54551
1.56232
1.58932
1.57292
1.52315
1.65391
1.52556
1.52363
1.51617
1.52321
1.54765
1.56737
1.59912
1.59723
1.54097
1.31429
1.22499
1.10293
0.943496
0.748948
0.526526
0.287269
0.0470159
-0.176859
-0.369202
1.30857
1.22205
1.10545
0.950992
0.761345
0.542227
0.303431
0.0605504
-0.168226
-0.365908
1.31994
1.22924
1.10997
0.956896
0.770876
0.554265
0.315302
0.06984
-0.163029
-0.364976
1.3539
1.24913
1.11834
0.962465
0.778133
0.562815
0.323062
0.0750513
-0.161423
-0.367265
1.40868
1.2829
1.13259
0.968139
0.782018
0.567008
0.327043
0.0771819
-0.162897
-0.373207
)
;

boundaryField
{
    left
    {
        type            zeroGradient;
    }
    right
    {
        type            fixedValue;
        value           uniform 0;
    }
    down
    {
        type            zeroGradient;
    }
    up
    {
        type            zeroGradient;
    }
    cylinder
    {
        type            zeroGradient;
    }
    defaultFaces
    {
        type            empty;
    }
}


// ************************************************************************* //
