/*--------------------------------*- C++ -*----------------------------------*\
  =========                 |
  \\      /  F ield         | OpenFOAM: The Open Source CFD Toolbox
   \\    /   O peration     | Website:  https://openfoam.org
    \\  /    A nd           | Version:  13
     \\/     M anipulation  |
\*---------------------------------------------------------------------------*/
FoamFile
{
    format      ascii;
    class       volVectorField;
    location    "1.8";
    object      U;
}
// * * * * * * * * * * * * * * * * * * * * * * * * * * * * * * * * * * * * * //

dimensions      [0 1 -1 0 0 0 0];

internalField   nonuniform List<vector> 
1800
(
(-0.0551746 0.0497449 2.0728e-20)
(-0.102695 0.10376 9.50348e-21)
(-0.0774024 0.124513 -6.17112e-20)
(0.0196492 0.111045 4.14268e-20)
(0.185715 0.0673306 6.09658e-20)
(0.412544 -0.000529074 9.07132e-22)
(0.68565 -0.0842917 1.20424e-20)
(0.98195 -0.176894 9.36784e-20)
(1.29122 -0.262056 4.8234e-20)
(1.52844 -0.344388 3.36048e-20)
(-0.054416 0.0424106 8.52651e-21)
(-0.0712935 0.0699823 -1.03824e-19)
(0.00597372 0.0618074 5.64896e-22)
(0.170902 0.0227297 -7.68077e-20)
(0.413588 -0.0392188 3.31103e-20)
(0.714238 -0.115126 4.79505e-20)
(1.04406 -0.195732 6.18641e-22)
(1.37141 -0.273634 3.25784e-20)
(1.6699 -0.337993 9.28525e-20)
(1.9003 -0.404374 -7.23813e-20)
(-0.0460128 0.0316855 8.95126e-21)
(-0.0142834 0.0341931 2.91141e-20)
(0.135171 0.00231152 -3.44767e-21)
(0.385855 -0.0543518 -7.06661e-21)
(0.711908 -0.124051 -1.45741e-19)
(1.07478 -0.196009 3.01778e-20)
(1.43191 -0.261828 8.98913e-20)
(1.74826 -0.316418 -1.44246e-20)
(2.00182 -0.357814 -1.77726e-21)
(2.19685 -0.398497 3.75765e-21)
(-0.0259986 0.016949 -1.11719e-20)
(0.0757472 -0.00524128 -3.36637e-20)
(0.31569 -0.0545436 -3.17135e-20)
(0.659719 -0.117724 3.71675e-20)
(1.05746 -0.181849 3.57095e-20)
(1.45143 -0.237801 1.28949e-20)
(1.79524 -0.281221 -6.82396e-21)
(2.06333 -0.312362 2.19693e-19)
(2.25391 -0.331278 2.46503e-19)
(2.36683 -0.347259 -1.22127e-19)
(0.00824967 -6.65013e-05 7.70334e-20)
(0.202728 -0.0434754 7.05592e-20)
(0.545544 -0.10066 -5.21259e-20)
(0.975108 -0.157198 -6.24831e-20)
(1.41427 -0.203728 -2.37925e-19)
(1.79821 -0.237006 3.46686e-21)
(2.09281 -0.25828 3.87133e-19)
(2.29398 -0.270446 1.55728e-19)
(2.41489 -0.275865 -2.0471e-21)
(2.48203 -0.284574 -1.63764e-19)
(0.0584741 -0.0164982 -6.92976e-20)
(0.365778 -0.0725798 -1.35631e-20)
(0.812302 -0.124969 2.70476e-19)
(1.30272 -0.162819 -1.29494e-19)
(1.74394 -0.185716 -2.59259e-19)
(2.08327 -0.197444 5.82906e-19)
(2.31156 -0.202204 -5.52507e-19)
(2.4462 -0.203399 -7.71049e-19)
(2.51484 -0.20241 6.0613e-19)
(2.537 -0.204204 1.58732e-21)
(0.124736 -0.028954 6.867e-20)
(0.557724 -0.0844157 -1.84435e-19)
(1.09427 -0.118557 -7.46365e-19)
(1.61064 -0.130727 4.06825e-19)
(2.01972 -0.13125 8.95777e-19)
(2.29677 -0.127587 -3.3641e-21)
(2.45929 -0.123467 -1.81868e-18)
(2.54014 -0.12026 1.632e-20)
(2.56966 -0.117975 2.06169e-18)
(2.57044 -0.120759 5.59981e-19)
(0.204742 -0.0337028 5.23755e-20)
(0.76503 -0.0720562 3.55579e-19)
(1.366 -0.0770695 6.95948e-19)
(1.87479 -0.0630186 -9.38366e-20)
(2.23143 -0.0469187 -7.42762e-19)
(2.44404 -0.0350438 -2.82141e-19)
(2.55077 -0.0282629 0)
(2.59155 -0.0254982 8.12112e-19)
(2.59604 -0.0253366 -1.69076e-20)
(2.57988 -0.0293844 -7.52283e-19)
(0.293878 -0.0273738 4.18235e-20)
(0.970765 -0.0317157 4.9185e-19)
(1.60621 -0.00193137 9.36391e-19)
(2.08345 0.0341748 -1.03683e-18)
(2.38089 0.0599584 -9.09016e-19)
(2.53576 0.073704 3.33298e-19)
(2.59908 0.0783749 -1.54055e-18)
(2.61218 0.077608 -1.16452e-18)
(2.60033 0.0738391 1.40304e-18)
(2.57552 0.0661224 1.21723e-18)
(0.38579 -0.00767229 1.17325e-20)
(1.15852 0.0363598 3.93482e-19)
(1.80141 0.101588 2.22361e-19)
(2.23391 0.153775 -1.86289e-18)
(2.4741 0.182971 3.05729e-20)
(2.58126 0.193733 3.56102e-18)
(2.61272 0.193124 -2.04825e-18)
(2.60745 0.18678 -1.17059e-18)
(2.5858 0.177674 4.18669e-19)
(2.5553 0.16557 -9.50911e-19)
(-0.0134425 0.145444 2.0745e-19)
(-0.0698427 0.249164 -1.29283e-19)
(-0.135884 0.25974 1.05352e-21)
(-0.201055 0.227824 -2.88892e-20)
(-0.257723 0.179353 7.05702e-22)
(-0.304586 0.126352 5.94256e-20)
(-0.342326 0.0737792 9.28513e-20)
(-0.371831 0.0228698 -4.04272e-20)
(-0.391522 -0.0271587 1.71271e-20)
(-0.395272 -0.077681 -4.68385e-20)
(-0.0298387 0.204437 -1.77932e-20)
(-0.0923809 0.36604 6.14363e-21)
(-0.154402 0.39572 7.8462e-21)
(-0.211419 0.361277 2.67986e-20)
(-0.258763 0.299942 -1.86294e-19)
(-0.295966 0.229619 4.37202e-20)
(-0.323741 0.158068 -7.97693e-20)
(-0.343025 0.0878209 -1.05927e-19)
(-0.352477 0.0186419 -1.29016e-19)
(-0.344338 -0.050511 4.16976e-20)
(-0.0510967 0.244821 -1.13568e-19)
(-0.121423 0.457639 3.56145e-20)
(-0.176953 0.510165 1.63748e-20)
(-0.221124 0.478878 -1.55937e-19)
(-0.253648 0.409 -4.19845e-20)
(-0.275359 0.323635 3.81324e-19)
(-0.286978 0.233615 -2.33591e-19)
(-0.289287 0.143538 1.97516e-20)
(-0.281348 0.0548166 -8.03427e-20)
(-0.254688 -0.0321758 -1.05157e-19)
(-0.0715425 0.259022 -1.37955e-19)
(-0.149385 0.510837 9.86273e-21)
(-0.196318 0.590478 3.80883e-20)
(-0.223502 0.570754 -1.67212e-19)
(-0.23612 0.499573 3.7901e-19)
(-0.236738 0.403809 -1.29901e-19)
(-0.226175 0.297124 -1.54815e-19)
(-0.204909 0.186831 1.76188e-19)
(-0.172887 0.0772125 4.73251e-20)
(-0.122241 -0.028477 -5.82341e-21)
(-0.0848832 0.243956 0)
(-0.167976 0.515018 6.61327e-20)
(-0.205575 0.623565 -2.36083e-19)
(-0.213629 0.62511 1.26363e-19)
(-0.202469 0.563071 2.27927e-19)
(-0.177528 0.465102 -2.56401e-19)
(-0.140364 0.347144 1.08244e-19)
(-0.090379 0.21866 -1.13506e-19)
(-0.0304261 0.0851077 0)
(0.0476558 -0.0430816 -8.88085e-21)
(-0.0871758 0.204613 1.74923e-20)
(-0.172261 0.468388 9.21672e-21)
(-0.202481 0.599349 -8.14208e-20)
(-0.19432 0.627348 1.07816e-19)
(-0.161044 0.5847 -7.26469e-20)
(-0.10999 0.496511 2.32248e-19)
(-0.0447847 0.379083 -4.29738e-19)
(0.0331363 0.241646 2.98142e-20)
(0.122326 0.0894944 2.15794e-19)
(0.235658 -0.0610034 -2.95872e-21)
(-0.0792299 0.153916 5.70262e-21)
(-0.163058 0.383732 3.55851e-20)
(-0.189453 0.520073 3.47134e-20)
(-0.170858 0.568892 7.41884e-21)
(-0.120329 0.548786 -3.3963e-20)
(-0.0465323 0.479093 1.93691e-19)
(0.0451913 0.37419 2.0734e-19)
(0.152086 0.242947 2.48846e-19)
(0.271645 0.089423 -1.02447e-19)
(0.425606 -0.073326 7.13371e-21)
(-0.0667959 0.107381 -5.44208e-21)
(-0.146704 0.286987 -3.68572e-20)
(-0.171597 0.407665 -6.28115e-21)
(-0.147647 0.461005 2.52657e-21)
(-0.0849994 0.454354 -3.39087e-20)
(0.00825709 0.400251 -2.20302e-19)
(0.126365 0.309887 -2.57915e-19)
(0.266533 0.192138 1.92931e-19)
(0.421608 0.0495061 6.04433e-20)
(0.6283 -0.11231 -2.82538e-21)
(-0.0571603 0.0752743 -2.76526e-20)
(-0.131156 0.203738 -1.56931e-19)
(-0.151866 0.293829 1.29526e-19)
(-0.120358 0.333992 6.00622e-20)
(-0.0425134 0.325915 2.00816e-20)
(0.0757513 0.276944 -1.25908e-19)
(0.229278 0.195157 -1.45795e-20)
(0.41379 0.0888703 3.81338e-19)
(0.614095 -0.0392829 4.3772e-20)
(0.880885 -0.183173 -7.56854e-21)
(-0.0540719 0.0581986 -1.22579e-20)
(-0.118806 0.144441 -1.18986e-19)
(-0.125166 0.198861 -4.66955e-20)
(-0.0723532 0.214076 6.2532e-20)
(0.037223 0.191339 5.47118e-21)
(0.198959 0.135784 5.44172e-20)
(0.405887 0.0540259 1.08266e-19)
(0.646694 -0.0460969 -7.93079e-20)
(0.902524 -0.157297 1.98667e-20)
(1.19991 -0.265418 -3.24383e-20)
(-0.348514 -0.338506 5.15633e-19)
(0.0661588 -0.375983 -3.08917e-19)
(0.510678 -0.273019 -5.77144e-20)
(0.726251 -0.206426 2.1331e-20)
(0.876203 -0.157244 -1.17622e-20)
(0.959658 -0.118003 -9.7027e-21)
(1.00487 -0.0930026 -1.08841e-20)
(1.03288 -0.0660112 -2.26766e-21)
(1.04601 -0.0567628 1.21223e-20)
(1.06116 -0.0379688 2.01766e-21)
(-0.225549 -0.411646 5.4448e-19)
(0.108064 -0.51007 2.84461e-19)
(0.545571 -0.366544 -8.21675e-21)
(0.747882 -0.263324 -3.7754e-20)
(0.890605 -0.18968 -5.89798e-20)
(0.969856 -0.136131 0)
(1.01256 -0.103363 -1.26856e-20)
(1.03822 -0.0717988 4.30611e-21)
(1.05032 -0.0605368 3.00966e-22)
(1.06361 -0.0400517 -3.94171e-21)
(-0.0352735 -0.48346 -7.06004e-19)
(0.200207 -0.624571 -1.38422e-19)
(0.6032 -0.457346 6.36592e-20)
(0.781634 -0.317984 1.05031e-20)
(0.910698 -0.220912 -7.22805e-22)
(0.98286 -0.153549 4.16693e-21)
(1.02171 -0.113181 0)
(1.04432 -0.0771838 0)
(1.05507 -0.0639425 -6.10337e-21)
(1.06622 -0.0418691 0)
(0.212524 -0.551493 -1.13052e-19)
(0.354865 -0.715035 4.84237e-19)
(0.689438 -0.53871 -2.88866e-20)
(0.830926 -0.367788 0)
(0.937761 -0.249772 7.68281e-20)
(0.999034 -0.169734 -1.37158e-20)
(1.03238 -0.122209 0)
(1.05116 -0.0820441 1.74321e-20)
(1.06024 -0.0669047 0)
(1.06898 -0.0433833 2.45107e-21)
(0.50258 -0.61405 -2.98282e-19)
(0.559192 -0.78178 2.96006e-19)
(0.80281 -0.604081 2.19512e-20)
(0.896694 -0.409644 0)
(0.972807 -0.274708 2.92407e-20)
(1.01882 -0.183989 3.18144e-20)
(1.04467 -0.13015 3.65805e-21)
(1.05874 -0.0862497 3.5599e-22)
(1.06578 -0.0693506 -4.62536e-21)
(1.07187 -0.0445604 1.5396e-21)
(0.813162 -0.675099 -1.76873e-18)
(0.790598 -0.827618 -5.34247e-19)
(0.932636 -0.650963 -1.31213e-20)
(0.975119 -0.441621 1.32585e-19)
(1.01551 -0.294301 -5.49904e-20)
(1.04249 -0.195502 1.88064e-20)
(1.05874 -0.136625 3.4674e-20)
(1.06709 -0.0896433 -3.48064e-20)
(1.07167 -0.0712035 -5.04005e-23)
(1.07485 -0.0453708 -4.4815e-21)
(1.10333 -0.72728 1.52063e-19)
(1.02689 -0.855962 1.38054e-19)
(1.06558 -0.68062 -4.24909e-20)
(1.05826 -0.463924 -4.56406e-21)
(1.06325 -0.308108 -8.10566e-20)
(1.06957 -0.203674 3.01713e-21)
(1.07464 -0.141232 -1.5743e-20)
(1.07629 -0.092025 -1.87887e-21)
(1.07793 -0.0723657 4.79034e-21)
(1.0779 -0.0457842 -9.11106e-22)
(1.36134 -0.765002 1.7613e-20)
(1.25102 -0.86862 2.37254e-19)
(1.1927 -0.695381 0)
(1.13834 -0.478036 2.75741e-20)
(1.1117 -0.316946 7.16255e-20)
(1.09846 -0.208577 -1.80163e-21)
(1.09197 -0.143776 -5.66967e-20)
(1.08633 -0.0932236 1.48442e-20)
(1.08458 -0.0727267 -2.37143e-22)
(1.08105 -0.045765 -2.40928e-21)
(1.5879 -0.78231 1.85631e-19)
(1.45151 -0.865419 -6.32406e-19)
(1.30992 -0.697174 1.29196e-19)
(1.21148 -0.485193 -1.91568e-20)
(1.15701 -0.322143 -1.16068e-21)
(1.12677 -0.211031 -6.15298e-20)
(1.10971 -0.144553 1.92044e-20)
(1.09691 -0.0932851 1.93184e-22)
(1.09154 -0.0722596 -1.30697e-21)
(1.08427 -0.0452917 2.15651e-21)
(1.79637 -0.77438 -1.99245e-19)
(1.6234 -0.84678 -5.71614e-19)
(1.41538 -0.687078 -3.48224e-21)
(1.27721 -0.485315 -1.4646e-19)
(1.19763 -0.324183 -8.59221e-20)
(1.15254 -0.211904 -3.84765e-20)
(1.12646 -0.144211 -1.30388e-20)
(1.10732 -0.0925392 0)
(1.09851 -0.0711074 -6.61032e-21)
(1.08749 -0.0443802 5.21043e-21)
(2.12411 -0.75572 -8.56001e-19)
(1.83345 -0.798238 2.46461e-21)
(1.54497 -0.652923 -2.5318e-19)
(1.35658 -0.469501 2.52465e-20)
(1.24479 -0.316638 2.52366e-20)
(1.18111 -0.206974 -2.51074e-20)
(1.14488 -0.139946 -1.42622e-20)
(1.11914 -0.0893744 1.06035e-20)
(1.10664 -0.068226 -4.59014e-21)
(1.09134 -0.0426207 -2.33346e-21)
(2.20776 -0.697656 1.61525e-19)
(1.82299 -0.6924 -2.5342e-19)
(1.52337 -0.534961 3.50725e-20)
(1.35742 -0.381905 -1.68124e-20)
(1.25782 -0.263033 9.93854e-20)
(1.19467 -0.176531 7.49304e-20)
(1.15627 -0.122299 4.93023e-20)
(1.12756 -0.0792399 -5.33719e-21)
(1.11345 -0.0615094 1.68284e-20)
(1.09467 -0.038968 3.14937e-21)
(2.19521 -0.570808 -1.41039e-19)
(1.90071 -0.580065 -3.44625e-20)
(1.63968 -0.472674 3.40063e-20)
(1.45344 -0.349656 6.95958e-36)
(1.32334 -0.242509 -8.01314e-21)
(1.23438 -0.161349 -2.11507e-34)
(1.17928 -0.110587 1.94151e-21)
(1.14039 -0.0711506 -1.51347e-35)
(1.12163 -0.0550826 1.09856e-23)
(1.09821 -0.0350548 -2.20303e-22)
(2.1707 -0.479952 -4.83627e-34)
(1.90543 -0.492715 8.26555e-20)
(1.64819 -0.385667 -2.6348e-20)
(1.4639 -0.273485 0)
(1.33743 -0.18802 -4.61981e-20)
(1.24853 -0.126629 -3.49627e-20)
(1.19102 -0.0889055 -2.45967e-20)
(1.14854 -0.0582701 1.54238e-34)
(1.12773 -0.0461574 -7.65526e-21)
(1.10089 -0.0299956 -5.7851e-23)
(2.14668 -0.399534 -8.84512e-20)
(1.92646 -0.401309 1.14268e-20)
(1.68786 -0.311444 0)
(1.4974 -0.220535 0)
(1.36142 -0.151343 0)
(1.26473 -0.100926 0)
(1.20176 -0.070363 8.7172e-22)
(1.15512 -0.0459601 1.83311e-34)
(1.1324 -0.0368464 -2.0568e-22)
(1.1027 -0.0244604 -3.04789e-35)
(2.12959 -0.33539 1.42108e-20)
(1.93132 -0.324509 0)
(1.69957 -0.236918 0)
(1.50602 -0.155805 0)
(1.36702 -0.103014 0)
(1.26867 -0.0682977 0)
(1.20451 -0.0484057 -2.01581e-21)
(1.15655 -0.0320544 1.15515e-20)
(1.13337 -0.0266123 -3.01223e-22)
(1.1021 -0.0183818 1.33961e-21)
(2.09589 -0.278543 0)
(1.89562 -0.24749 3.87274e-21)
(1.66548 -0.16249 -3.50466e-20)
(1.4745 -0.0945394 0)
(1.34072 -0.0582526 -2.56039e-20)
(1.24874 -0.0377699 -1.68603e-20)
(1.18926 -0.0272998 -1.30098e-20)
(1.14424 -0.0184055 -6.30739e-21)
(1.12277 -0.0163365 6.03455e-21)
(1.09216 -0.0121256 -1.72183e-21)
(1.95994 -0.214654 6.57683e-21)
(1.72776 -0.165924 1.27631e-20)
(1.50521 -0.0888153 -1.38837e-20)
(1.34019 -0.0375633 -3.31912e-36)
(1.23347 -0.0184539 7.20025e-21)
(1.164 -0.0115483 -1.10742e-34)
(1.1197 -0.00930649 -2.57931e-21)
(1.08528 -0.0067603 -4.48575e-21)
(1.06928 -0.00724508 -4.15721e-22)
(1.0435 -0.00629675 8.62215e-22)
(1.50097 -0.131021 -2.27992e-20)
(1.24749 -0.0782536 1.16744e-20)
(1.07223 -0.0215736 2.26194e-20)
(0.981837 0.00717704 0)
(0.939258 0.0105128 1.21918e-20)
(0.915392 0.00704707 7.2236e-21)
(0.89963 0.00356317 1.71362e-21)
(0.885089 0.00167017 2.53662e-21)
(0.878872 -0.000253564 -3.09292e-21)
(0.863475 -0.00155723 -5.69995e-22)
(0.511966 -0.0139128 0)
(0.36571 -0.000801331 0)
(0.313074 0.00678721 0)
(0.322352 0.00781352 0)
(0.346154 0.00534104 0)
(0.36471 0.00324498 0)
(0.375689 0.00195844 -2.82649e-21)
(0.380997 0.00114509 8.1722e-36)
(0.38433 0.000592862 -5.0943e-22)
(0.381986 3.34223e-05 -9.89744e-22)
(2.48331 0.141756 9.13149e-19)
(2.50526 0.0576261 5.8375e-20)
(2.52747 -0.0308267 -1.03105e-19)
(2.52282 -0.105461 -3.35419e-19)
(2.535 -0.191511 -7.68403e-20)
(2.49137 -0.251025 -1.29596e-19)
(2.50658 -0.340708 -4.50754e-19)
(2.37076 -0.371553 7.9121e-20)
(2.397 -0.469057 0)
(2.03554 -0.43096 1.16614e-19)
(2.38663 0.114809 2.81053e-19)
(2.39366 0.0477805 -3.45637e-19)
(2.4399 -0.0234738 -6.01603e-20)
(2.41721 -0.0848101 -1.54503e-19)
(2.46837 -0.159582 1.09552e-19)
(2.41064 -0.213536 2.18601e-19)
(2.4733 -0.294899 -2.60643e-19)
(2.37445 -0.344476 3.38222e-22)
(2.42942 -0.431237 -3.59506e-20)
(2.29819 -0.481399 1.18695e-19)
(2.30894 0.0946103 -1.29942e-19)
(2.31663 0.0325278 2.85808e-19)
(2.35568 -0.0180436 1.95403e-19)
(2.34278 -0.0789782 -3.08606e-19)
(2.37746 -0.130073 -1.40334e-20)
(2.34846 -0.19112 4.06038e-19)
(2.37342 -0.242788 5.42206e-20)
(2.33972 -0.309174 -6.48146e-20)
(2.33974 -0.358664 -3.02967e-20)
(2.31536 -0.437665 -3.27015e-20)
(2.2433 0.0702217 -3.04525e-19)
(2.26111 0.0146238 -2.46243e-20)
(2.2854 -0.0212265 -1.33359e-20)
(2.29042 -0.0782333 -3.3178e-20)
(2.30311 -0.113397 -1.89677e-19)
(2.29974 -0.171834 -1.14974e-19)
(2.29732 -0.206569 2.33343e-19)
(2.29206 -0.268091 5.687e-22)
(2.27227 -0.302441 3.76018e-20)
(2.26785 -0.369467 2.58574e-20)
(2.19166 0.0447944 5.31403e-20)
(2.21498 -0.00183141 1.20373e-19)
(2.23201 -0.0297778 -4.31922e-20)
(2.24565 -0.0783601 2.43259e-19)
(2.25062 -0.105639 -3.92137e-20)
(2.25635 -0.154997 -2.57065e-19)
(2.24876 -0.182245 4.14504e-20)
(2.24848 -0.232209 -1.21273e-19)
(2.22929 -0.259942 7.42627e-20)
(2.22345 -0.311578 4.7702e-20)
(2.14925 0.0188164 -1.65078e-19)
(2.17277 -0.0184581 -8.05367e-20)
(2.18849 -0.0415802 1.42885e-20)
(2.20349 -0.0806095 1.25033e-19)
(2.2088 -0.103235 2.27664e-19)
(2.21586 -0.142673 -7.55685e-20)
(2.21111 -0.16551 6.81469e-21)
(2.21071 -0.204506 -2.53686e-20)
(2.19641 -0.227741 -1.7849e-20)
(2.18924 -0.266304 -7.07193e-20)
(2.10132 -0.00580348 -6.13098e-20)
(2.12293 -0.03468 -1.30085e-19)
(2.13754 -0.0534085 -1.29397e-19)
(2.15243 -0.0838302 -2.52057e-19)
(2.15794 -0.101953 3.95777e-20)
(2.16702 -0.133169 4.71582e-20)
(2.16339 -0.151171 3.00987e-20)
(2.16759 -0.182162 5.1625e-20)
(2.1543 -0.199789 -9.08032e-20)
(2.15539 -0.229846 -3.04988e-20)
(2.00017 -0.026623 5.9204e-20)
(2.01682 -0.0469524 4.74849e-20)
(2.02461 -0.0604036 2.15898e-20)
(2.03827 -0.08229 -4.32969e-20)
(2.03699 -0.0948455 -4.03318e-20)
(2.05032 -0.118234 -8.80068e-21)
(2.03884 -0.129818 -3.96781e-20)
(2.0549 -0.154087 4.4923e-20)
(2.03108 -0.164277 -2.57555e-20)
(2.05365 -0.188541 4.79195e-20)
(1.69763 -0.0393395 -5.08888e-20)
(1.69646 -0.0498295 5.43665e-22)
(1.68827 -0.0573334 1.00045e-19)
(1.68665 -0.0682694 -4.13743e-21)
(1.67129 -0.0747877 -2.68324e-20)
(1.67373 -0.0868002 5.34078e-20)
(1.64854 -0.0920576 -3.27057e-20)
(1.66089 -0.105753 1.61281e-20)
(1.62041 -0.108903 1.157e-20)
(1.65131 -0.124553 1.5828e-20)
(0.844665 -0.0153647 4.64933e-20)
(0.820942 -0.0151459 3.58242e-20)
(0.797498 -0.0147146 3.43499e-20)
(0.774644 -0.0146473 5.32003e-20)
(0.750957 -0.0144968 -2.611e-20)
(0.73002 -0.0148366 -2.65737e-20)
(0.704995 -0.0153292 1.00746e-20)
(0.689044 -0.0162463 -2.07208e-21)
(0.656689 -0.016453 2.93459e-21)
(0.657731 -0.0210476 -3.89748e-21)
(1.55097 0.926906 -8.14223e-20)
(1.53441 0.972844 2.83656e-20)
(1.53711 1.02629 -6.1439e-19)
(1.54516 1.08729 2.47901e-19)
(1.5514 1.15203 1.14941e-18)
(1.54745 1.21297 -1.55423e-19)
(1.5122 1.24888 -1.0447e-18)
(1.39666 1.20925 -2.36483e-20)
(1.11225 0.998451 -5.24027e-19)
(0.526311 0.486286 1.33477e-19)
(1.71594 0.893904 0)
(1.70476 0.939191 7.26726e-19)
(1.70408 0.989566 1.60987e-18)
(1.71179 1.04866 -9.83088e-19)
(1.72154 1.1126 -2.30298e-18)
(1.72147 1.17239 -1.60121e-19)
(1.68527 1.20569 -2.04556e-19)
(1.55626 1.1626 7.4221e-19)
(1.23515 0.95245 1.08083e-18)
(0.579869 0.45763 4.49459e-19)
(1.86918 0.854631 7.16287e-20)
(1.86765 0.899488 0)
(1.86872 0.946861 -7.21091e-20)
(1.87719 1.00141 1.00488e-18)
(1.88917 1.06065 5.89918e-20)
(1.89097 1.11558 -2.29002e-18)
(1.85148 1.14327 1.44059e-18)
(1.70634 1.09551 8.72299e-19)
(1.34698 0.888753 -9.42186e-19)
(0.625632 0.419694 -2.97616e-19)
(2.00396 0.801695 -1.79331e-19)
(2.01298 0.845459 -1.33874e-19)
(2.02035 0.890048 2.82886e-19)
(2.03246 0.939878 -3.5071e-19)
(2.04709 0.993399 -1.63693e-18)
(2.04956 1.04167 -1.26108e-18)
(2.00431 1.06219 1.34103e-18)
(1.84036 1.00916 8.65376e-19)
(1.44101 0.80792 0)
(0.659269 0.372495 0)
(2.12511 0.736087 -9.53817e-19)
(2.14261 0.777174 -1.71236e-18)
(2.15686 0.818216 -6.64481e-19)
(2.17351 0.8629 -3.72822e-20)
(2.19052 0.90995 0)
(2.19186 0.950797 1.5159e-19)
(2.13822 0.962641 1.77271e-19)
(1.95095 0.903771 2.2129e-19)
(1.50944 0.711099 -3.21933e-19)
(0.67671 0.316949 -8.08519e-20)
(2.23043 0.65725 1.13933e-18)
(2.25565 0.694648 -4.71135e-20)
(2.27677 0.731605 -1.33775e-18)
(2.29796 0.771044 0)
(2.31654 0.811216 0)
(2.31469 0.842286 0)
(2.24743 0.845264 1.57394e-18)
(2.03096 0.783048 -1.74508e-18)
(1.547 0.600964 -1.12493e-18)
(0.675346 0.255238 1.0564e-21)
(2.32429 0.568512 -1.50398e-18)
(2.35424 0.601183 -3.15685e-18)
(2.38022 0.633206 -5.46932e-21)
(2.40454 0.666467 6.3397e-19)
(2.42252 0.698884 -4.34899e-20)
(2.41287 0.721213 1.35811e-18)
(2.3256 0.715196 -7.4127e-19)
(2.07537 0.649161 -2.05716e-18)
(1.54945 0.481153 1.47083e-19)
(0.653692 0.191092 1.06915e-19)
(2.40361 0.471963 -1.19969e-18)
(2.43715 0.498872 1.87015e-20)
(2.46607 0.525579 4.55612e-19)
(2.49113 0.552505 -4.36719e-19)
(2.50496 0.576941 6.69566e-19)
(2.48219 0.590187 1.82144e-18)
(2.36885 0.575543 -1.99871e-19)
(2.07928 0.50733 -1.10825e-18)
(1.51298 0.357763 2.63254e-19)
(0.611636 0.128752 4.77883e-20)
(2.47013 0.370643 4.44318e-19)
(2.50417 0.392509 9.63729e-20)
(2.53327 0.413425 -4.68144e-19)
(2.55595 0.433437 -1.06781e-18)
(2.56114 0.449485 9.25971e-20)
(2.5188 0.453485 8.58079e-20)
(2.37168 0.431266 -1.42664e-18)
(2.03734 0.363941 5.81134e-19)
(1.43508 0.237688 1.74062e-19)
(0.550487 0.0724387 -1.09654e-19)
(2.5202 0.268005 8.53502e-19)
(2.55376 0.284844 -1.2694e-18)
(2.58079 0.299676 2.01981e-19)
(2.59733 0.312574 2.51956e-18)
(2.58801 0.320386 1.25472e-18)
(2.51803 0.315982 -2.6895e-18)
(2.32854 0.288457 -2.55202e-18)
(1.94549 0.226123 1.14007e-18)
(1.31583 0.128174 -1.89042e-20)
(0.473503 0.0260095 -4.27102e-20)
(0.528976 0.369778 -1.56342e-19)
(0.489304 0.383074 -1.62371e-19)
(0.444697 0.397338 6.91186e-20)
(0.395744 0.412707 -2.29533e-19)
(0.342128 0.429045 -1.80745e-20)
(0.283043 0.445066 2.17707e-19)
(0.217592 0.455464 3.45694e-20)
(0.146321 0.444675 3.96819e-21)
(0.0761555 0.377967 2.07841e-20)
(0.0155337 0.195367 1.34223e-20)
(0.572675 0.474257 1.30462e-19)
(0.533785 0.493974 1.66298e-19)
(0.490735 0.515226 4.89399e-20)
(0.443735 0.538175 -4.93775e-20)
(0.392199 0.562605 -2.2219e-19)
(0.335081 0.586703 -1.62778e-20)
(0.270796 0.603218 6.18243e-20)
(0.198076 0.59112 3.95901e-20)
(0.120209 0.503552 -1.23566e-19)
(0.0383722 0.260473 -4.26952e-20)
(0.634393 0.572183 -1.0917e-19)
(0.596721 0.597645 -9.64099e-20)
(0.555871 0.625088 9.93779e-20)
(0.511613 0.654946 7.05231e-20)
(0.463109 0.687103 -8.14354e-20)
(0.409031 0.719318 -2.77149e-20)
(0.346809 0.742397 -1.1184e-19)
(0.272445 0.729793 -7.42413e-20)
(0.183595 0.622647 -6.84233e-20)
(0.0712064 0.32189 8.53974e-22)
(0.712155 0.666087 3.457e-20)
(0.676205 0.697799 -5.48979e-20)
(0.638524 0.731439 -8.5048e-20)
(0.597957 0.767653 -5.27015e-20)
(0.553227 0.806406 -7.13673e-20)
(0.502779 0.845083 -2.32964e-21)
(0.443004 0.872724 -2.75891e-19)
(0.366569 0.857855 4.78279e-20)
(0.26377 0.731152 -3.20464e-19)
(0.112676 0.377077 5.08933e-20)
(0.804245 0.745159 6.07837e-21)
(0.770652 0.781761 1.33802e-20)
(0.737216 0.820766 -5.1288e-20)
(0.701993 0.863217 -2.69243e-19)
(0.663003 0.908904 1.23248e-19)
(0.617921 0.95454 2.57179e-20)
(0.56153 0.987388 6.06347e-20)
(0.482355 0.971333 -1.60177e-19)
(0.36166 0.827299 3.87103e-19)
(0.162724 0.425312 2.83452e-19)
(0.910992 0.822232 -8.80257e-20)
(0.879164 0.863405 -1.8024e-19)
(0.849086 0.905875 3.76109e-20)
(0.818178 0.95199 1.03446e-19)
(0.78441 1.00212 3.59492e-19)
(0.745024 1.0524 2.5533e-19)
(0.692771 1.08803 6.33499e-19)
(0.611059 1.06855 2.64379e-19)
(0.470751 0.90718 1.60457e-19)
(0.218447 0.463907 2.13411e-19)
(1.02473 0.874738 -1.11938e-19)
(0.998523 0.920623 5.95363e-19)
(0.975946 0.967642 3.85452e-19)
(0.952537 1.0182 -4.87365e-19)
(0.925542 1.07278 -2.43291e-19)
(0.89199 1.12742 6.70012e-19)
(0.84307 1.16591 -1.10202e-19)
(0.756854 1.14398 -4.43128e-19)
(0.592707 0.968323 4.74954e-21)
(0.279537 0.491991 2.57889e-19)
(1.14575 0.927237 2.96846e-19)
(1.11972 0.973632 6.16839e-20)
(1.10157 1.02104 -7.75736e-19)
(1.08585 1.0735 1.54996e-19)
(1.06808 1.13079 5.70651e-19)
(1.04326 1.18759 -3.27334e-19)
(0.99968 1.226 -9.56944e-20)
(0.909348 1.19902 -1.83544e-19)
(0.7198 1.00944 1.86316e-20)
(0.342434 0.50838 -3.13031e-19)
(1.27527 0.946345 2.07172e-20)
(1.25988 0.996823 -5.61655e-19)
(1.24934 1.04546 -4.65417e-21)
(1.23928 1.09907 4.71427e-19)
(1.22722 1.15874 -4.82952e-19)
(1.20826 1.21831 9.4754e-19)
(1.16771 1.25767 6.40697e-19)
(1.07054 1.22715 -9.57308e-19)
(0.851766 1.02759 -7.02791e-20)
(0.405998 0.512444 -3.40734e-19)
(1.37897 0.955618 -3.30682e-19)
(1.37447 1.0069 -3.1463e-19)
(1.38102 1.05746 3.04341e-19)
(1.38596 1.11222 7.69145e-19)
(1.38563 1.1718 2.82197e-19)
(1.37547 1.23038 -7.81368e-19)
(1.33876 1.26722 8.66108e-20)
(1.23384 1.23145 2.13188e-19)
(0.983638 1.02418 -2.89976e-19)
(0.467917 0.505003 -2.42626e-19)
(0.967303 0.0165901 1.31861e-21)
(1.0273 0.0343314 -1.91812e-20)
(1.01647 0.0551939 -1.6093e-20)
(1.02204 0.0841244 0)
(1.0305 0.104383 2.20974e-20)
(1.01068 0.13253 3.09094e-20)
(0.986724 0.15435 4.11217e-20)
(0.931624 0.186702 8.77901e-20)
(0.851344 0.243281 -1.28081e-19)
(0.702153 0.303756 -1.95985e-19)
(0.967493 0.0148863 4.08234e-20)
(1.02607 0.0322032 -6.27022e-20)
(1.01533 0.0530152 1.21533e-22)
(1.02126 0.0827962 -2.06371e-20)
(1.03193 0.106865 1.09528e-20)
(1.01457 0.137772 -1.54115e-20)
(0.993583 0.166205 -9.61127e-20)
(0.94533 0.206599 0)
(0.867177 0.279884 2.64691e-19)
(0.739703 0.372385 -2.71934e-19)
(0.967348 0.0133772 -3.10232e-20)
(1.02558 0.0302247 1.74565e-20)
(1.01465 0.0508934 4.41306e-20)
(1.02162 0.081503 1.09717e-20)
(1.03371 0.108801 -2.61426e-20)
(1.02033 0.142938 1.27968e-21)
(1.00055 0.17705 -6.60219e-20)
(0.963314 0.22627 -5.51969e-21)
(0.885412 0.315063 -2.71314e-23)
(0.791123 0.438365 7.57959e-19)
(0.966898 0.0119929 -3.31418e-20)
(1.02576 0.0283269 2.65536e-21)
(1.01442 0.0487702 3.61922e-20)
(1.02295 0.0803302 2.27728e-20)
(1.03599 0.110121 -1.28913e-20)
(1.02771 0.148242 -1.73302e-20)
(1.00801 0.186621 9.52736e-20)
(0.98523 0.246034 -1.51019e-21)
(0.906233 0.347797 -2.89869e-19)
(0.855803 0.500288 9.29118e-20)
(0.966179 0.0106801 2.33557e-20)
(1.02654 0.0264428 -3.34925e-20)
(1.01464 0.0466128 -2.8819e-20)
(1.02504 0.0793096 1.33547e-20)
(1.03901 0.110785 0)
(1.03632 0.153875 0)
(1.0166 0.194618 7.93547e-20)
(1.01014 0.266196 1.33219e-22)
(0.930906 0.377455 -1.31779e-19)
(0.931459 0.556945 9.70788e-20)
(0.965226 0.00939033 6.52304e-21)
(1.02786 0.0244999 2.75011e-20)
(1.01532 0.0444155 -7.68006e-20)
(1.0277 0.0784098 -2.62693e-20)
(1.04307 0.110805 -6.2534e-22)
(1.04569 0.159918 7.19661e-20)
(1.02691 0.200726 1.20865e-19)
(1.03781 0.287192 -9.30424e-22)
(0.958012 0.402214 2.18328e-19)
(1.0216 0.612291 -2.25197e-19)
(0.964059 0.00807034 -2.65094e-20)
(1.02967 0.0224216 1.47433e-20)
(1.01646 0.0421966 -2.03155e-20)
(1.03078 0.0775323 -5.54006e-20)
(1.04841 0.11028 1.99333e-21)
(1.05529 0.166184 -1.72391e-21)
(1.04002 0.205044 -6.86382e-21)
(1.06593 0.308397 -2.37842e-19)
(0.994085 0.422907 1.60164e-19)
(1.10909 0.653567 -5.5033e-19)
(0.962669 0.00668456 -4.08548e-21)
(1.03195 0.0201338 -4.3477e-20)
(1.01807 0.0399876 4.10615e-20)
(1.03425 0.0765361 2.98739e-20)
(1.05517 0.109373 1.03921e-21)
(1.06489 0.172328 -8.25914e-20)
(1.05603 0.207856 -6.52274e-20)
(1.0962 0.329897 4.22258e-19)
(1.03013 0.439564 1.53237e-20)
(1.22365 0.709648 8.63667e-19)
(0.960989 0.00519378 1.79368e-20)
(1.03471 0.0175762 2.01252e-20)
(1.02014 0.0378431 4.6302e-20)
(1.03821 0.0753247 -3.26692e-20)
(1.06342 0.108238 -8.73463e-20)
(1.07422 0.178151 1.28237e-21)
(1.07642 0.207976 -8.88806e-20)
(1.12511 0.349509 5.45627e-19)
(1.08701 0.441404 -9.28366e-21)
(1.2946 0.726744 -1.19553e-18)
(0.958892 0.00371772 6.41826e-22)
(1.03799 0.0147772 3.19031e-20)
(1.02265 0.0359019 1.58927e-20)
(1.04283 0.0739785 -6.597e-20)
(1.07247 0.108408 -8.34131e-20)
(1.08332 0.183403 -6.91238e-20)
(1.09729 0.214493 -1.60571e-19)
(1.15009 0.371265 -4.9048e-19)
(1.14089 0.46689 -2.6665e-19)
(1.43161 0.794256 -1.26339e-18)
(0.955825 0.00127617 -1.93709e-21)
(1.04206 0.010445 -7.20883e-21)
(1.02689 0.0315459 -1.7258e-20)
(1.04844 0.0696791 3.49509e-20)
(1.08578 0.102011 5.98512e-20)
(1.09797 0.184944 -4.52509e-20)
(1.12467 0.199125 1.49774e-19)
(1.19559 0.381681 -4.57639e-19)
(1.20939 0.408608 -2.00692e-19)
(1.44827 0.783293 6.74035e-19)
(0.954243 -0.00281003 3.78495e-21)
(1.04609 0.00397192 1.58229e-20)
(1.03404 0.0239958 -1.07411e-20)
(1.05555 0.0608346 6.65734e-20)
(1.10465 0.0900915 9.67759e-20)
(1.1073 0.17879 1.3269e-19)
(1.16918 0.172952 3.33647e-20)
(1.22243 0.368318 2.22616e-19)
(1.30725 0.359844 3.27614e-19)
(1.46879 0.685038 2.05246e-20)
(0.953053 -0.00748204 -2.37082e-21)
(1.05105 -0.00381419 -4.24416e-21)
(1.04239 0.0159242 3.09985e-21)
(1.06611 0.0500558 5.16997e-21)
(1.12191 0.0792449 2.84996e-34)
(1.11787 0.167195 -7.90818e-21)
(1.21166 0.145225 -5.67814e-34)
(1.24107 0.346683 2.06146e-20)
(1.36915 0.306344 -5.94737e-20)
(1.50684 0.596481 -5.8234e-20)
(0.951594 -0.0132758 1.42911e-20)
(1.05772 -0.013354 -4.78728e-35)
(1.05186 0.00665509 -3.60032e-21)
(1.0811 0.0380203 -3.0453e-20)
(1.13339 0.0691706 -4.52693e-20)
(1.13847 0.15046 -4.26932e-20)
(1.23697 0.118886 -7.12554e-34)
(1.26439 0.321333 -8.611e-20)
(1.40058 0.253834 -1.49954e-19)
(1.55159 0.501477 9.9576e-20)
(0.949659 -0.020551 0)
(1.0666 -0.0243686 8.13938e-35)
(1.06352 -0.00509171 0)
(1.09965 0.0250945 0)
(1.14049 0.0580196 0)
(1.16779 0.129882 0)
(1.24508 0.096306 -4.6913e-34)
(1.29288 0.287623 0)
(1.42392 0.206198 -2.15292e-20)
(1.58798 0.403122 5.94444e-20)
(0.947336 -0.0290016 3.83496e-21)
(1.07791 -0.0373276 8.02175e-21)
(1.07771 -0.0168553 -4.685e-21)
(1.11979 0.0150569 0)
(1.14703 0.0471994 0)
(1.19748 0.107593 6.90429e-21)
(1.24597 0.0782332 4.00683e-20)
(1.32027 0.243891 -1.49121e-20)
(1.44887 0.162788 -3.18116e-20)
(1.60689 0.312865 2.27069e-19)
(0.945871 -0.043305 -7.67447e-20)
(1.09266 -0.0568103 -1.93016e-21)
(1.09234 -0.0347699 -5.29675e-21)
(1.13516 0.00103872 -1.88078e-20)
(1.14945 0.033725 -2.3866e-20)
(1.21781 0.0824876 -1.07274e-20)
(1.2441 0.0631471 -3.27451e-20)
(1.33977 0.19228 -3.0934e-20)
(1.46831 0.123402 -5.84687e-20)
(1.61486 0.23183 8.20312e-20)
(0.948705 -0.0496845 -7.51497e-21)
(1.10368 -0.066098 -1.83044e-20)
(1.084 -0.0407882 -5.90542e-21)
(1.12041 -0.00304991 -5.12046e-21)
(1.12342 0.0245925 -1.34355e-35)
(1.20776 0.0580368 7.37842e-21)
(1.2145 0.0497406 -9.33464e-34)
(1.34255 0.135965 -1.46174e-20)
(1.45522 0.0857047 2.02888e-20)
(1.61495 0.156618 2.79613e-20)
(0.95275 -0.0896003 1.94557e-19)
(1.05607 -0.0946729 -3.97002e-21)
(0.967046 -0.0598342 -6.29373e-21)
(0.976311 -0.0139718 1.38402e-20)
(0.968979 0.0095629 1.1645e-20)
(1.06614 0.0318061 1.57744e-20)
(1.05714 0.033665 1.43323e-20)
(1.23886 0.0769884 -9.86456e-21)
(1.30779 0.0504444 -2.28122e-20)
(1.51311 0.0865688 1.45835e-19)
(0.829478 -0.0453623 9.58956e-21)
(0.733351 -0.0349852 -9.46619e-35)
(0.53309 -0.0144043 -7.48497e-21)
(0.501524 -0.00197011 0)
(0.489442 0.00178373 0)
(0.549158 0.00778336 7.5137e-21)
(0.562257 0.00594225 -6.51533e-36)
(0.699711 0.0156888 -1.42452e-20)
(0.754754 0.00756745 -3.0137e-20)
(0.911436 0.0155493 6.09299e-20)
(1.65113 0.812754 -2.01411e-19)
(1.75289 0.789871 -2.98587e-19)
(1.86971 0.755898 0)
(1.97926 0.70623 1.5246e-19)
(2.08322 0.645838 6.6281e-19)
(2.17348 0.574041 -1.34114e-19)
(2.25909 0.494968 1.76607e-18)
(2.32919 0.411073 -8.37025e-20)
(2.39399 0.321792 -4.07518e-19)
(2.44123 0.233084 3.66366e-19)
(1.67355 0.663094 1.01063e-19)
(1.75423 0.640234 1.19941e-19)
(1.85037 0.607665 -1.25643e-20)
(1.94272 0.559488 2.19881e-19)
(2.0336 0.508191 -1.83926e-19)
(2.1081 0.446331 -4.38063e-19)
(2.18394 0.386168 -1.26482e-19)
(2.23853 0.318268 6.05766e-19)
(2.30164 0.252887 -2.36619e-20)
(2.33462 0.183644 -5.27229e-19)
(1.71068 0.544137 1.0443e-19)
(1.78407 0.516427 1.9448e-19)