# Selection   : all
# Cells       : 440
# Volume      : 7.374263e+01
# Time        	min(p)
0.5           	-2.669680e+00
0.55          	-2.577755e+00
0.6           	-2.464336e+00
