/*--------------------------------*- C++ -*----------------------------------*\
  =========                 |
  \\      /  F ield         | OpenFOAM: The Open Source CFD Toolbox
   \\    /   O peration     | Website:  https://openfoam.org
    \\  /    A nd           | Version:  13
     \\/     M anipulation  |
\*---------------------------------------------------------------------------*/
FoamFile
{
    format      ascii;
    class       volVectorField;
    location    "0.73";
    object      U;
}
// * * * * * * * * * * * * * * * * * * * * * * * * * * * * * * * * * * * * * //

dimensions      [0 1 -1 0 0 0 0];

internalField   nonuniform List<vector> 
440
(
(0.218257 -0.176692 -1.8113e-19)
(0.613076 -0.436655 1.07869e-18)
(0.984293 -0.640906 4.23147e-19)
(1.32755 -0.795398 1.2431e-18)
(1.63258 -0.916772 -2.59978e-19)
(0.304891 -0.177682 -5.44467e-19)
(0.819131 -0.428698 -1.01955e-18)
(1.27997 -0.618899 1.14524e-19)
(1.6919 -0.76164 -1.21511e-18)
(2.05375 -0.875121 -1.02099e-18)
(0.384878 -0.152406 -6.9806e-19)
(1.00468 -0.363013 1.58977e-18)
(1.53975 -0.518385 -1.93459e-18)
(2.00471 -0.632634 1.37966e-18)
(2.40594 -0.72148 1.42963e-18)
(0.445865 -0.102745 5.62386e-19)
(1.14609 -0.243083 -1.2995e-18)
(1.73743 -0.344811 -7.50802e-19)
(2.24293 -0.418221 1.96648e-18)
(2.67445 -0.474465 2.50022e-18)
(0.479254 -0.0361581 6.869e-19)
(1.22363 -0.0847541 1.69137e-19)
(1.84589 -0.119363 2.53129e-18)
(2.37401 -0.143864 -1.062e-18)
(2.82294 -0.162495 -4.83732e-19)
(-0.000918193 -0.0518253 2.73898e-19)
(0.0500338 -0.144719 -3.84808e-19)
(0.105951 -0.222905 1.11069e-18)
(0.171473 -0.292835 -1.76922e-19)
(0.239626 -0.354496 -1.60211e-18)
(0.0137154 -0.0843888 -2.63051e-19)
(0.0892754 -0.228042 -4.27514e-19)
(0.174064 -0.35052 1.10287e-19)
(0.268325 -0.450534 5.95373e-20)
(0.364574 -0.530705 -3.56918e-20)
(0.0433444 -0.11428 7.05211e-20)
(0.16545 -0.303239 5.29639e-19)
(0.296139 -0.467531 9.50783e-20)
(0.432825 -0.599064 1.45716e-18)
(0.567873 -0.697678 -2.49579e-20)
(0.086617 -0.140992 6.69687e-20)
(0.276367 -0.36783 -3.53153e-20)
(0.46949 -0.563043 2.18293e-19)
(0.661409 -0.718593 -2.03414e-18)
(0.844125 -0.830559 9.56787e-19)
(0.14212 -0.161717 -2.35728e-19)
(0.420078 -0.412845 -4.42438e-19)
(0.691403 -0.621477 -7.70022e-19)
(0.950156 -0.782432 9.52921e-19)
(1.18523 -0.89288 3.4522e-18)
(0.592624 -0.592493 -4.03463e-18)
(0.962817 -0.517881 9.90826e-19)
(1.29584 -0.213216 3.69955e-19)
(1.49643 -0.0336928 -5.87775e-19)
(1.5662 0.00213218 -6.52509e-20)
(0.785271 -0.743982 4.8319e-18)
(1.04346 -0.624705 -3.0795e-19)
(1.3197 -0.28657 -1.43253e-19)
(1.53873 -0.0783113 3.85152e-19)
(1.66472 -0.0158755 1.34082e-19)
(1.03638 -0.87849 1.54496e-18)
(1.17795 -0.7108 4.04417e-18)
(1.34158 -0.358177 6.88183e-20)
(1.54796 -0.126462 3.79998e-19)
(1.68626 -0.0407294 -4.94937e-20)
(1.33057 -0.988971 1.21782e-18)
(1.35903 -0.772059 -4.21273e-19)
(1.38594 -0.419726 -7.69114e-19)
(1.53001 -0.168326 -2.87948e-19)
(1.65035 -0.0619404 7.47302e-20)
(1.62991 -1.04766 4.96393e-21)
(1.55551 -0.811628 -1.71777e-18)
(1.4482 -0.468304 0)
(1.49441 -0.218699 3.08125e-19)
(1.53395 -0.0774104 7.33371e-20)
(2.15634 -1.11548 -1.57974e-18)
(1.83428 -0.800901 -4.91366e-19)
(1.5591 -0.456903 -9.65764e-21)
(1.39307 -0.211774 7.40023e-20)
(1.34598 -0.0754653 -2.59959e-19)
(2.63253 -0.889923 -1.61191e-18)
(1.89946 -0.591075 2.9787e-18)
(1.43187 -0.319996 6.56899e-21)
(1.1535 -0.152957 2.12778e-19)
(1.0814 -0.0548282 0)
(2.47851 -0.522913 -6.9268e-18)
(1.60515 -0.338971 -1.49048e-19)
(1.14903 -0.179113 1.97473e-18)
(0.890465 -0.0912182 -3.3124e-19)
(0.797922 -0.0349804 -3.31383e-20)
(1.76237 -0.220008 6.83515e-18)
(1.0886 -0.1357 1.24392e-18)
(0.752098 -0.0678374 2.23968e-19)
(0.571258 -0.0361598 2.93397e-33)
(0.493319 -0.0153339 -7.40053e-20)
(0.683161 0.000169788 1.55198e-18)
(0.395218 0.0235607 7.12441e-19)
(0.267701 0.0240791 -5.17434e-19)
(0.205557 0.0150397 2.26957e-19)
(0.173611 0.00575946 -7.74915e-20)
(3.58188 -0.16816 1.25619e-17)
(3.41717 -0.502943 -1.04436e-17)
(3.13669 -0.787006 7.10861e-18)
(2.78062 -0.996117 2.32101e-18)
(2.33316 -1.10185 -4.14203e-19)
(3.78452 -0.103588 1.03946e-17)
(3.71745 -0.324462 -6.63892e-19)
(3.57771 -0.551826 -4.26986e-18)
(3.37827 -0.785768 2.68967e-18)
(3.1003 -1.0198 -6.6279e-19)
(3.11483 -0.0605687 3.65446e-18)
(3.09865 -0.181683 -2.51884e-18)
(3.0596 -0.309667 5.01277e-18)
(2.9989 -0.444865 -1.52968e-19)
(2.92432 -0.593639 -4.79046e-18)
(2.19087 -0.0276238 2.78879e-18)
(2.18384 -0.0833672 8.43049e-18)
(2.16463 -0.144001 -6.53262e-19)
(2.13408 -0.207275 -6.60882e-18)
(2.11306 -0.269436 1.94589e-18)
(0.87944 -0.00184239 5.21227e-18)
(0.876491 -0.00523868 -1.16441e-19)
(0.867373 -0.00956734 -4.25759e-20)
(0.850513 -0.0162533 -2.00945e-18)
(0.841162 -0.0229047 -3.60556e-18)
(1.65317 0.940135 2.27697e-18)
(1.34831 0.816731 -7.92146e-20)
(1.00338 0.65865 -3.56339e-20)
(0.627858 0.449469 -1.96239e-19)
(0.225219 0.182287 -1.34024e-19)
(2.07052 0.892533 -1.21873e-18)
(1.71068 0.777737 -1.20411e-18)
(1.29832 0.63258 7.31722e-19)
(0.834034 0.438714 -4.84024e-19)
(0.312135 0.182083 -4.05226e-21)
(2.4186 0.735861 -5.88985e-19)
(2.01967 0.645356 5.25245e-19)
(1.555 0.528759 2.43643e-18)
(1.01753 0.370194 8.08287e-19)
(0.391334 0.155284 5.26044e-19)
(2.68202 0.486724 1.56467e-20)
(2.25239 0.428295 -2.71558e-19)
(1.74743 0.352325 -6.46747e-19)
(1.15476 0.247645 2.05638e-18)
(0.450323 0.104144 -3.26827e-19)
(2.82546 0.173874 -1.17051e-18)
(2.37727 0.152648 -1.60648e-18)
(1.8494 0.125348 -7.28684e-19)
(1.22671 0.0878344 7.96269e-19)
(0.480855 0.0366868 -3.25826e-19)
(0.241364 0.417504 -2.15271e-18)
(0.171109 0.353949 -1.8254e-18)
(0.103545 0.277463 3.17788e-19)
(0.0458228 0.183957 -4.84189e-20)
(-0.00159869 0.0677044 3.42472e-20)
(0.371198 0.595285 -8.00537e-19)
(0.274246 0.510802 -6.74834e-19)
(0.178881 0.400008 1.38441e-20)
(0.092646 0.259915 -2.62271e-20)
(0.0169035 0.0966709 2.67158e-20)
(0.581656 0.754436 2.187e-18)
(0.446202 0.650413 -1.51051e-19)
(0.30795 0.507701 -1.45209e-19)
(0.174423 0.328847 -2.15546e-19)
(0.048442 0.124064 1.67111e-19)
(0.862035 0.87545 -1.29444e-18)
(0.679147 0.758748 1.97365e-18)
(0.485271 0.59437 3.00311e-19)
(0.288339 0.38852 1.02573e-19)
(0.0925536 0.149211 -1.1845e-19)
(1.2037 0.92539 -4.40977e-19)
(0.969109 0.811939 -4.57705e-19)
(0.708583 0.645143 3.59564e-19)
(0.433315 0.429187 3.58998e-19)
(0.148457 0.168532 1.89566e-21)
(0.943774 0.16844 -4.61302e-19)
(1.49591 0.131811 5.08946e-20)
(1.33676 0.196042 1.89837e-20)
(1.01527 0.498934 -5.0008e-19)
(0.59966 0.645934 6.29111e-20)
(0.95059 0.0894235 1.72403e-19)
(1.50926 0.10545 3.06889e-19)
(1.36578 0.246061 2.76043e-19)
(1.06144 0.615086 -5.25532e-20)
(0.784917 0.804107 7.55717e-19)
(0.956127 0.0102096 5.92721e-20)
(1.52578 0.0809133 -2.12817e-20)
(1.36545 0.297099 -5.72919e-20)
(1.16493 0.713992 -4.13135e-19)
(1.03721 0.938607 9.91617e-20)
(0.958434 -0.067365 -1.88948e-20)
(1.53008 0.060058 -7.38679e-19)
(1.36625 0.34915 7.71458e-20)
(1.32595 0.781967 1.18841e-18)
(1.33495 1.0429 9.46834e-19)
(0.95551 -0.142461 -2.07041e-20)
(1.50552 0.0519569 2.17581e-19)
(1.38536 0.39963 -6.15322e-20)
(1.50985 0.823497 -3.75341e-19)
(1.63616 1.09258 -2.72917e-18)
(0.939162 -0.236607 2.48395e-19)
(1.45238 0.0195974 5.00691e-19)
(1.46222 0.394935 -3.74201e-20)
(1.76695 0.80171 3.11374e-18)
(2.15332 1.1437 -5.51953e-18)
(0.887148 -0.345306 -2.51147e-20)
(1.3167 -0.0295136 -6.45857e-19)
(1.40074 0.283446 6.97526e-21)
(1.84161 0.595847 -3.07053e-18)
(2.59425 0.900782 1.67005e-18)
(0.787329 -0.411696 5.53552e-18)
(1.07795 -0.0913418 6.91996e-35)
(1.13475 0.15046 -2.12245e-18)
(1.57602 0.340537 2.62958e-18)
(2.45654 0.529728 5.03195e-18)
(0.634827 -0.291779 1.50995e-19)
(0.71255 -0.0719293 5.26958e-19)
(0.732058 0.0519735 2.47389e-19)
(1.07528 0.135245 6.22662e-19)
(1.75836 0.220512 -8.64515e-18)
(0.322716 -0.0431243 -4.30779e-18)
(0.293622 0.00570007 2.84813e-19)
(0.265051 -0.0133527 1.11204e-18)
(0.393431 -0.0240332 -7.70093e-19)
(0.6862 -0.000468963 -1.46639e-18)
(2.34869 1.1213 4.69149e-18)
(2.78733 1.01261 3.47384e-18)
(3.14089 0.80341 -5.69273e-18)
(3.41899 0.519615 -1.46165e-17)
(3.58239 0.185885 1.57639e-17)
(3.0788 1.01886 5.00912e-18)
(3.354 0.795232 2.56331e-17)
(3.55691 0.56067 7.24228e-18)
(3.70107 0.331823 -3.0828e-17)
(3.77792 0.111137 -5.17329e-18)
(2.90567 0.592019 -7.22794e-18)
(2.98595 0.448104 -3.3803e-18)
(3.05216 0.312107 -6.29681e-18)
(3.09524 0.181717 -6.88932e-18)
(3.114 0.0584228 6.52286e-18)
(2.10628 0.265889 5.41629e-18)
(2.13013 0.205734 -4.04577e-19)
(2.16255 0.14303 4.87137e-18)
(2.18313 0.0821275 6.28935e-18)
(2.19077 0.0259945 -5.88794e-18)
(0.842553 0.0220533 -5.74725e-19)
(0.851945 0.0156523 3.52125e-18)
(0.868641 0.00913067 2.44326e-18)
(0.877496 0.00479213 -5.16947e-18)
(0.87984 0.00136136 -3.84293e-20)
(0.281988 0.0207606 5.52149e-19)
(0.656788 0.0404737 -7.43624e-19)
(0.97329 0.0440743 -8.18476e-19)
(0.944459 0.0274364 -1.51804e-18)
(0.697965 0.0163889 -6.63744e-19)
(0.245625 0.0554702 7.4579e-19)
(0.591371 0.107094 1.44152e-18)
(0.864816 0.125163 -6.97416e-19)
(0.940085 0.0970155 1.96084e-18)
(0.724289 0.0532509 -2.70092e-18)
(0.185656 0.0742779 4.9627e-19)
(0.476472 0.14592 -1.39886e-18)
(0.707882 0.184791 -9.13942e-19)
(0.857435 0.175441 -1.81033e-18)
(0.74167 0.101248 -2.86247e-18)
(0.123326 0.0774867 -7.72689e-19)
(0.344818 0.160381 -1.37666e-18)
(0.534616 0.214912 4.39917e-18)
(0.67782 0.233348 -3.66701e-19)
(0.71315 0.180055 2.25492e-18)
(0.075284 0.0723767 -6.23039e-19)
(0.230743 0.160125 1.56429e-18)
(0.372325 0.224557 6.12164e-19)
(0.482875 0.257804 -1.29578e-18)
(0.561382 0.258492 -1.74935e-19)
(0.0451534 0.0637821 8.40203e-20)
(0.149961 0.148779 -1.22195e-18)
(0.247762 0.212165 -9.44937e-19)
(0.325469 0.234117 -8.76722e-20)
(0.371262 0.223864 -5.00322e-20)
(0.0264673 0.0557099 3.12254e-19)
(0.0950794 0.13432 5.9267e-19)
(0.160896 0.184839 -2.09959e-19)
(0.213774 0.195459 2.60096e-19)
(0.253637 0.185399 1.71753e-19)
(0.0133364 0.0488634 2.49761e-19)
(0.0586523 0.11142 1.32446e-18)
(0.103772 0.121163 -1.24137e-18)
(0.142782 0.107343 -2.78957e-18)
(0.179014 0.0858973 4.08307e-19)
(0.00621231 0.0393273 -2.3826e-19)
(0.0426702 0.0488017 -1.80998e-18)
(0.0799564 0.0217831 3.21974e-18)
(0.120051 -0.0100124 1.31411e-18)
(0.161581 -0.0438039 -2.69392e-19)
(0.00993044 0.00162862 2.09712e-19)
(0.0421304 -0.0502154 -4.52021e-19)
(0.0822367 -0.0963828 9.00311e-20)
(0.13094 -0.144348 1.04925e-19)
(0.181658 -0.190576 9.06856e-22)
(0.338746 0.071969 -7.511e-20)
(0.613595 -0.0422879 -1.22741e-18)
(0.703896 -0.013324 2.5428e-19)
(0.714954 0.00717014 4.04432e-19)
(0.696651 0.0041837 1.18757e-20)
(0.303001 -0.0342917 -1.00137e-19)
(0.750267 -0.114927 1.47474e-18)
(0.888036 -0.0228851 9.19808e-19)
(0.914091 0.0110781 7.55327e-20)
(0.9001 0.00711713 -3.52401e-20)
(0.319967 -0.149813 -8.14218e-19)
(0.83521 -0.198298 3.16552e-18)
(1.0499 -0.0420479 -1.81486e-19)
(1.10131 0.0137533 -3.53334e-19)
(1.0925 0.0100704 6.91065e-20)
(0.376297 -0.288656 1.10548e-18)
(0.884805 -0.298004 -2.71677e-18)
(1.17295 -0.0827154 -5.36642e-19)
(1.26837 0.0109392 -3.16466e-20)
(1.27085 0.0115774 5.77335e-21)
(0.463052 -0.437147 4.98773e-19)
(0.920136 -0.405589 -5.43779e-19)
(1.2517 -0.142915 4.832e-19)
(1.40447 -0.00274654 1.15775e-19)
(1.43063 0.00981013 9.5609e-21)
(0.182974 -0.0449806 9.55062e-19)
(0.144972 -0.00522495 0)
(0.162645 0.000957992 1.16378e-19)
(0.16189 -0.000521354 -8.47349e-21)
(0.155301 -0.000852625 -7.1369e-20)
(0.399726 0.0700014 0)
(0.408595 -0.000482255 0)
(0.466836 -0.00410288 4.99855e-20)
(0.467412 0.00364429 -3.66594e-20)
(0.449912 0.00171054 4.88128e-20)
(0.162696 -0.000821312 -3.68481e-19)
(0.186415 -0.001792 3.10776e-18)
(0.213226 -0.00502036 -6.86323e-19)
(0.229824 -0.0149886 -3.11711e-18)
(0.245718 -0.0170109 -7.97072e-19)
(0.432056 0.00444154 6.09949e-19)
(0.484587 0.0196969 4.11567e-18)
(0.536484 0.0466997 -6.73012e-18)
(0.567657 0.0806189 2.20943e-18)
(0.59835 0.162224 3.79758e-18)
(0.370756 -0.220717 -3.32714e-19)
(0.324389 -0.231694 -9.3234e-20)
(0.248406 -0.212712 -3.32499e-19)
(0.150772 -0.150748 3.88816e-19)
(0.0458709 -0.0645755 1.14017e-19)
(0.257483 -0.169886 4.23029e-19)
(0.215063 -0.181958 1.4143e-18)
(0.162385 -0.177257 2.57993e-19)
(0.0967119 -0.13516 2.36544e-19)
(0.0269184 -0.0572025 -1.88137e-20)
(0.193185 -0.0551087 -3.12033e-19)
(0.15162 -0.0776682 -1.05763e-19)
(0.108793 -0.0952256 1.63404e-18)
(0.0623195 -0.0974142 2.85514e-19)
(0.0132655 -0.0480644 -3.14332e-19)
(0.178933 0.0867323 -6.37109e-19)
(0.132843 0.0528663 -7.06205e-19)
(0.0878984 0.0191262 1.31126e-18)
(0.0495666 -0.010999 1.60262e-18)
(0.0112354 -0.030009 1.99017e-19)
(0.189191 0.244284 1.24257e-19)
(0.13467 0.197969 -1.20033e-19)
(0.0821613 0.148138 2.4877e-19)
(0.0383722 0.0970133 6.24863e-19)
(-0.00221766 0.03563 9.32397e-20)
(0.697962 -0.0163443 1.53162e-18)
(0.944464 -0.0274139 -1.80086e-18)
(0.973099 -0.0442009 2.2701e-18)
(0.6568 -0.0405363 3.64657e-19)
(0.282021 -0.0207693 5.36703e-19)
(0.724279 -0.0531449 1.77271e-18)
(0.939942 -0.0970312 7.9469e-18)
(0.864615 -0.125269 1.0337e-18)
(0.591424 -0.107134 1.34955e-18)
(0.245721 -0.0554915 -4.7853e-19)
(0.741582 -0.101007 -1.2213e-18)
(0.856833 -0.175281 -2.29672e-18)
(0.707805 -0.184855 2.92457e-18)
(0.47654 -0.14599 -1.08255e-19)
(0.185779 -0.0743139 3.39511e-19)
(0.712614 -0.179883 1.68976e-20)
(0.67713 -0.233307 -7.68683e-18)
(0.534655 -0.215247 -6.00036e-18)
(0.344957 -0.160715 1.09172e-18)
(0.123509 -0.0775907 5.08046e-19)
(0.559011 -0.25703 4.6741e-19)
(0.481878 -0.257267 5.33623e-19)
(0.372405 -0.225292 -8.99862e-19)
(0.231003 -0.160997 -8.88447e-19)
(0.0756322 -0.0726336 -5.14489e-21)
(0.727917 0.373161 1.17617e-18)
(0.879818 0.127906 -1.90152e-19)
(0.676451 0.0201408 2.50354e-19)
(0.644113 0.0355053 -7.49588e-19)
(0.362641 -0.062023 -1.00676e-19)
(0.827926 0.398177 -1.70872e-19)
(1.08669 0.158149 -5.80818e-19)
(0.868115 0.038781 8.38153e-19)
(0.804185 0.0983058 1.6736e-18)
(0.340406 0.0538396 1.03028e-19)
(0.892988 0.372834 -2.26956e-18)
(1.26551 0.172351 -3.78092e-20)
(1.0396 0.0629997 2.52553e-19)
(0.908602 0.177415 1.71546e-18)
(0.364964 0.176433 -1.45154e-18)
(0.9257 0.318567 1.5181e-18)
(1.40348 0.174505 1.58657e-20)
(1.17855 0.100074 -2.20105e-19)
(0.964891 0.275974 -7.95603e-19)
(0.416245 0.323261 -5.96803e-19)
(0.937233 0.246449 1.84027e-19)
(1.48039 0.157997 4.15928e-20)
(1.27609 0.146074 -9.14315e-20)
(0.994122 0.383958 -1.09594e-19)
(0.486759 0.480788 1.36716e-18)
(0.275706 0.0483718 0)
(0.244274 -0.0112947 6.50807e-19)
(0.157441 -0.0159266 1.26983e-19)
(0.150203 0.00554102 -1.09738e-19)
(0.184388 0.0441212 -1.80788e-18)
(0.573527 0.266365 -1.01987e-17)
(0.609197 0.0751933 -2.56675e-18)
(0.444621 0.0134983 5.01459e-19)
(0.42323 0.000200577 -6.51724e-19)
(0.407563 -0.0683437 -6.62093e-19)
(0.245849 0.0169761 -8.38079e-22)
(0.229918 0.0150777 1.92878e-18)
(0.213303 0.00506433 5.24602e-19)
(0.186465 0.00180204 3.22998e-19)
(0.162712 0.000825185 0)
(0.599193 -0.162138 -1.16314e-19)
(0.568196 -0.0803402 2.5466e-18)
(0.536588 -0.04648 -1.38049e-19)
(0.484646 -0.019644 -2.706e-19)
(0.43208 -0.00441925 7.60537e-19)
)
;

boundaryField
{
    left
    {
        type            fixedValue;
        value           uniform (1 0 0);
    }
    right
    {
        type            zeroGradient;
    }
    down
    {
        type            noSlip;
    }
    up
    {
        type            noSlip;
    }
    cylinder
    {
        type            noSlip;
    }
    defaultFaces
    {
        type            empty;
    }
}


// ************************************************************************* //
