/*--------------------------------*- C++ -*----------------------------------*\
  =========                 |
  \\      /  F ield         | OpenFOAM: The Open Source CFD Toolbox
   \\    /   O peration     | Website:  https://openfoam.org
    \\  /    A nd           | Version:  13
     \\/     M anipulation  |
\*---------------------------------------------------------------------------*/
FoamFile
{
    format      ascii;
    class       volVectorField;
    location    "9.9";
    object      U;
}
// * * * * * * * * * * * * * * * * * * * * * * * * * * * * * * * * * * * * * //

dimensions      [0 1 -1 0 0 0 0];

internalField   nonuniform List<vector> 
440
(
(-0.086258 0.0613682 -6.71675e-20)
(-0.117723 0.0972252 2.50397e-20)
(-0.000718009 0.0826618 1.01202e-19)
(0.41193 0.101346 1.80788e-19)
(0.341879 0.26567 1.36597e-20)
(-0.0943649 0.0519622 3.31378e-20)
(0.0338048 0.0225347 -1.25946e-19)
(0.504826 -0.0214964 -1.09651e-19)
(1.05327 -0.0475711 6.06171e-20)
(1.53426 -0.0547614 1.30053e-20)
(-0.0310483 0.0112959 5.12196e-20)
(0.472379 -0.0324831 6.94384e-19)
(1.24345 -0.020915 -3.9081e-19)
(1.8333 0.00492248 -1.24303e-18)
(2.3567 0.0281373 4.8351e-19)
(0.180054 -0.0415472 -1.71881e-19)
(1.16334 0.00767425 -5.09432e-19)
(1.93616 0.0755137 1.62809e-18)
(2.37099 0.115096 1.75579e-18)
(2.44312 0.126853 -4.94774e-19)
(0.539825 -0.00527627 -2.82539e-19)
(1.70437 0.181154 -5.92056e-19)
(2.24796 0.258082 1.7865e-18)
(2.37627 0.269368 1.93144e-18)
(2.45869 0.24473 6.55457e-19)
(0.00708905 -0.160518 -1.44992e-19)
(-0.0374597 -0.15437 1.48271e-19)
(-0.0858135 -0.113926 -2.22763e-19)
(-0.115942 -0.061134 5.85214e-20)
(-0.140299 0.0403787 5.51775e-19)
(0.00644972 -0.0781328 -1.38459e-21)
(-0.0701729 -0.0222536 8.46999e-20)
(-0.149677 0.00217867 -8.13151e-20)
(-0.213171 0.0134938 -7.49802e-20)
(-0.278052 0.0693092 1.28097e-19)
(-0.00770015 -0.00160288 2.36456e-19)
(-0.0891249 0.12071 -1.12747e-19)
(-0.161211 0.193968 1.28831e-19)
(-0.215403 0.201781 2.55886e-19)
(-0.250449 0.197596 2.04722e-21)
(-0.0123586 0.00877628 -9.65369e-21)
(-0.0875967 0.115829 4.80884e-20)
(-0.144334 0.222169 1.11532e-20)
(-0.186011 0.27357 -4.14221e-19)
(-0.176961 0.29124 9.10609e-20)
(-0.0455865 0.0356455 -3.09349e-20)
(-0.137599 0.10489 -4.61897e-20)
(-0.193994 0.185188 -1.53071e-19)
(-0.146919 0.249814 1.44949e-19)
(-0.0851194 0.355364 5.06014e-20)
(-0.260336 0.9374 1.05176e-18)
(1.13493 0.133537 4.33115e-19)
(0.9244 -1.41137 -3.97815e-19)
(0.957169 -0.615614 1.24966e-19)
(0.969953 0.0421813 -2.34386e-21)
(-0.766802 0.686013 -1.25665e-18)
(1.47251 -0.139267 -1.37382e-19)
(1.30365 -1.28923 1.25947e-19)
(0.809654 -0.604789 -3.46721e-21)
(0.838895 0.0604915 -1.45301e-19)
(-0.760241 0.454451 -4.89027e-19)
(1.54067 -0.360034 9.8111e-19)
(1.86321 -1.18406 -1.20195e-19)
(0.826633 -0.549202 1.71355e-19)
(0.775573 0.0660961 -6.34155e-22)
(-0.477952 0.349462 3.76218e-19)
(1.63565 -0.675754 -1.80236e-19)
(2.01763 -1.13884 3.11758e-19)
(0.810934 -0.431899 -2.13944e-19)
(0.791741 0.0747686 -1.87253e-19)
(0.0147401 0.138711 -7.62245e-20)
(1.95602 -0.839666 -4.23939e-19)
(2.19475 -1.033 0)
(0.72606 -0.269373 2.2747e-19)
(0.864883 0.077023 -5.52945e-20)
(1.44419 0.0821883 -3.6487e-19)
(2.53417 -0.820775 -2.2483e-20)
(2.18162 -0.902876 -3.36335e-20)
(1.12948 -0.190464 2.38062e-19)
(1.1689 0.0366249 -5.48104e-20)
(2.02955 -0.0100409 -1.83193e-20)
(2.84917 -0.95364 1.24491e-18)
(1.63482 -0.635002 -2.20295e-20)
(0.841522 0.104743 -1.36386e-19)
(1.27419 0.0627035 0)
(2.29823 -0.110454 -2.96058e-19)
(2.35483 -0.579542 -9.65329e-22)
(1.1608 -0.237986 5.05219e-21)
(1.00243 -0.00380195 -3.46338e-20)
(1.40975 -0.105138 1.62565e-22)
(2.28545 -0.129983 1.1577e-19)
(2.03261 -0.46292 2.56744e-19)
(0.960748 -0.141823 -2.88505e-20)
(1.22844 -0.014594 -2.16876e-34)
(1.10978 -0.0968588 3.38117e-21)
(1.51885 -0.119983 1.33004e-19)
(0.70679 -0.00427528 6.26309e-20)
(0.380073 0.0240663 1.80541e-20)
(0.41851 -0.0740216 -7.4273e-23)
(0.0859214 -0.0265891 -1.33931e-20)
(2.35497 0.247786 -8.24114e-19)
(2.54836 0.0509851 -9.87184e-19)
(2.41577 0.0768361 6.83035e-19)
(2.62795 -0.0702071 7.67333e-20)
(2.06166 0.0468189 -1.52543e-20)
(2.14583 0.146972 5.57806e-20)
(2.35604 0.075311 -3.69389e-20)
(2.28013 -0.0297343 -1.20786e-19)
(2.39614 -0.0574946 -2.11565e-19)
(2.36092 -0.231705 -4.2794e-21)
(2.07173 0.0676136 6.70562e-20)
(2.16941 0.0532775 9.24751e-20)
(2.17661 -0.0575854 -1.06332e-19)
(2.22205 -0.0451778 3.74694e-20)
(2.23971 -0.170232 6.35653e-21)
(2.0132 0.0232901 1.05381e-19)
(2.087 0.0132062 1.34615e-19)
(2.10636 -0.0476933 -1.74354e-20)
(2.16042 -0.0475621 -4.9708e-20)
(2.1682 -0.116006 2.80403e-20)
(1.54194 -0.0179778 1.61219e-19)
(1.53917 -0.0217995 -1.10317e-20)
(1.55075 -0.0278013 2.02129e-20)
(1.5367 -0.0368706 -2.51777e-20)
(1.53017 -0.0393923 2.33863e-21)
(1.53099 0.835885 1.07779e-18)
(1.4928 0.931183 -3.4576e-19)
(1.49282 1.05642 -1.27512e-18)
(1.41766 1.09355 6.86653e-19)
(0.863096 0.77127 -1.61434e-19)
(1.81208 0.790902 -5.47151e-19)
(1.77967 0.86451 -2.88734e-18)
(1.78428 0.967471 -1.10858e-18)
(1.68938 0.973298 -3.81748e-19)
(1.02057 0.66701 -6.13577e-19)
(2.10754 0.670719 7.19619e-19)
(2.08706 0.735613 1.84571e-19)
(2.05829 0.817466 -2.16225e-18)
(1.91563 0.801282 -5.94116e-19)
(1.11728 0.518869 4.31792e-19)
(2.27021 0.552413 2.15763e-18)
(2.25412 0.600518 1.58264e-18)
(2.24559 0.648706 -1.81843e-18)
(2.02128 0.604247 -1.36714e-18)
(1.09052 0.340648 -2.44304e-19)
(2.41751 0.402747 1.03422e-18)
(2.42199 0.42378 -7.42248e-19)
(2.3147 0.444094 5.37435e-19)
(1.97256 0.38801 4.15729e-19)
(0.905476 0.148247 -3.46751e-19)
(0.57256 0.443013 -6.69245e-19)
(0.480582 0.47835 -5.2374e-19)
(0.362508 0.513568 6.25837e-20)
(0.225443 0.512425 -1.37827e-20)
(0.0547585 0.358536 7.09414e-20)
(0.681145 0.601888 6.13903e-20)
(0.61345 0.654052 -3.09125e-19)
(0.521368 0.716779 1.69831e-19)
(0.394526 0.77504 -7.88652e-20)
(0.170116 0.589905 1.12588e-19)
(0.762496 0.820022 1.45784e-19)
(0.692303 0.901538 4.23271e-19)
(0.635374 0.992827 8.73407e-20)
(0.548599 1.02459 -2.82067e-19)
(0.29893 0.748562 2.32426e-19)
(1.03433 0.878201 2.13707e-19)
(0.983925 0.958459 -6.61113e-19)
(0.933995 1.05658 -1.81413e-18)
(0.850662 1.12058 7.23719e-19)
(0.498488 0.824989 -1.60546e-19)
(1.11341 0.940197 -1.03552e-19)
(1.14058 1.05455 -1.77246e-19)
(1.15885 1.16164 -3.42926e-19)
(1.10129 1.17978 -3.84442e-19)
(0.673061 0.835264 -6.12809e-21)
(1.01126 0.0451464 -7.63385e-20)
(1.00096 0.0235563 -2.82427e-20)
(1.04286 0.134871 -1.54267e-21)
(0.939667 0.121074 -1.47836e-19)
(0.902899 0.266997 2.82102e-19)
(0.999575 0.0429544 4.60809e-20)
(1.01915 0.0178157 1.08002e-19)
(1.02179 0.149599 1.04382e-19)
(0.973333 0.140214 1.79576e-20)
(0.941514 0.353726 5.76676e-21)
(1.00514 0.0409865 5.86663e-20)
(1.00697 0.0117009 -4.3075e-21)
(1.05575 0.167256 -2.28651e-21)
(0.93408 0.142678 1.24627e-19)
(1.12716 0.491508 -4.40472e-19)
(0.999934 0.0395813 -3.83674e-22)
(1.02566 0.00270778 -1.63255e-19)
(1.04097 0.193714 -5.29438e-20)
(1.01913 0.131813 -3.24497e-19)
(1.16773 0.555425 8.1408e-20)
(0.999099 0.0308517 -7.98768e-21)
(1.02393 0.00826031 4.57616e-20)
(1.07613 0.19117 2.42837e-20)
(1.02187 0.159273 4.29983e-19)
(1.37103 0.682227 -4.48022e-19)
(0.961695 0.0316706 -8.3459e-23)
(1.08537 -0.00857986 9.78682e-20)
(1.04323 0.219832 -4.67617e-20)
(1.28298 0.0738344 9.24578e-19)
(1.30158 0.746037 -3.36763e-19)
(0.903829 0.00185339 -1.5632e-21)
(1.17358 -0.00503144 -8.66373e-20)
(0.962565 0.139208 4.46287e-21)
(1.3846 0.0572172 -3.35936e-19)
(1.29318 0.546926 -5.44088e-20)
(0.954223 -0.00833835 4.50269e-21)
(1.11983 0.000197085 1.41833e-35)
(1.05551 0.103515 -2.9426e-21)
(1.32532 -0.000240969 1.11407e-19)
(1.37042 0.388605 1.53356e-19)
(1.07283 -0.0468364 4.34006e-21)
(0.951092 -0.0131099 -2.93188e-20)
(1.24925 0.0223357 1.90052e-20)
(1.11943 -0.0118225 2.29696e-20)
(1.41647 0.267908 -2.35297e-19)
(0.987928 -0.0226829 -4.10058e-20)
(0.759443 -0.0232647 -2.43315e-21)
(0.986698 -0.00295524 2.15509e-20)
(0.69381 -0.00384257 -2.01724e-20)
(1.09373 0.0883129 -5.2958e-20)
(1.77029 0.633008 2.76012e-19)
(1.87037 0.647182 7.25265e-19)
(2.12613 0.515116 -1.01359e-18)
(2.18812 0.479249 1.39661e-20)
(2.39419 0.290525 4.18211e-19)
(1.76194 0.422609 6.72507e-20)
(1.77659 0.432425 9.14127e-19)
(2.00839 0.359048 1.05339e-19)
(1.98661 0.314501 -8.47071e-19)
(2.22318 0.21703 -2.67607e-19)
(1.69815 0.293314 -2.12296e-19)
(1.75975 0.279707 -1.4135e-19)
(1.89809 0.239392 1.78537e-19)
(1.93041 0.189322 -2.62971e-19)
(2.06268 0.14889 2.41052e-19)
(1.662 0.195886 3.59806e-19)
(1.74427 0.171996 -1.39139e-21)
(1.83524 0.140431 2.02582e-19)
(1.89205 0.100474 1.63294e-19)
(1.97778 0.0747708 -1.64895e-19)
(1.31864 0.05074 -4.73926e-20)
(1.40878 0.0327074 2.29967e-19)
(1.4518 0.0172004 9.35671e-20)
(1.502 0.00139791 -1.97445e-19)
(1.51494 -0.00741653 4.05768e-22)
(1.28151 -0.0249976 7.89492e-20)
(2.33288 -0.0256565 -5.35429e-19)
(2.55428 -0.0192679 1.43528e-18)
(2.52723 0.0247023 6.537e-19)
(2.33396 0.0411715 -4.56873e-19)
(0.847821 0.108005 1.68858e-19)
(2.11885 0.12291 -5.70557e-19)
(2.54967 0.130879 -8.07271e-19)
(2.56846 0.137198 1.06956e-18)
(2.33032 0.128326 -7.7321e-19)
(0.311172 0.108405 -7.69665e-21)
(1.51954 0.207927 6.68696e-19)
(2.25615 0.245353 9.6981e-20)
(2.58866 0.248634 9.75771e-19)
(2.64313 0.224559 5.0753e-19)
(0.00929673 0.00926086 2.22605e-19)
(0.673277 0.158769 2.48448e-19)
(1.51425 0.259499 -7.316e-19)
(2.02912 0.307445 6.69542e-20)
(2.53707 0.340828 5.57673e-19)
(-0.0781025 -0.0627295 1.59998e-19)
(0.11594 0.0229151 -1.92651e-19)
(0.668899 0.156751 -1.20693e-19)
(1.16437 0.239309 1.85946e-19)
(1.71139 0.362037 9.50757e-20)
(-0.0707894 -0.079194 3.50155e-20)
(-0.0657126 -0.0733616 9.51018e-20)
(0.137409 -0.00637374 1.0181e-19)
(0.39453 0.101204 -3.07761e-19)
(0.919309 0.255952 5.40171e-21)
(-0.0436502 -0.0685892 -2.41804e-20)
(-0.0613076 -0.10629 -6.37341e-20)
(-0.00382094 -0.0810586 -1.80163e-20)
(0.10215 0.00273526 1.22114e-21)
(0.345158 0.164071 2.32382e-20)
(-0.0380787 -0.122694 -1.87563e-20)
(-0.0339932 -0.213517 -4.16256e-20)
(0.000853522 -0.204661 7.43968e-20)
(0.0492093 -0.138094 2.44214e-19)
(0.124995 -0.0239023 1.56833e-20)
(-0.0360365 -0.180418 1.36034e-20)
(-0.0465835 -0.250231 1.22261e-19)
(-0.04317 -0.190432 -4.1192e-19)
(-0.026193 -0.0760736 -4.5253e-19)
(-0.00496076 0.0644868 6.70411e-20)
(-0.00928858 -0.18664 -1.34042e-20)
(-0.024869 -0.216588 4.67895e-20)
(-0.0409325 -0.163329 -1.62673e-20)
(-0.041028 -0.0773659 -3.62579e-20)
(-0.0289169 0.0534386 1.19381e-19)
(1.45181 0.697854 -6.4986e-20)
(0.528699 0.306503 5.39784e-19)
(0.218337 -0.338653 -1.23956e-19)
(1.42105 -0.18253 -2.78705e-20)
(1.35023 0.0290002 -1.28288e-20)
(1.44256 0.705828 1.21541e-19)
(0.162012 0.403474 4.15249e-19)
(0.182398 -0.43982 4.96789e-19)
(1.33165 -0.31909 7.92305e-21)
(1.38178 0.0321641 1.03174e-19)
(1.02246 0.678316 2.36359e-20)
(-0.98012 0.511137 9.89003e-19)
(0.785724 -0.792288 1.26917e-19)
(1.18348 -0.446839 -2.0743e-19)
(1.30602 0.0312044 2.19695e-20)
(0.286958 0.837271 5.79019e-19)
(-1.43658 0.29806 -2.60385e-18)
(0.965557 -1.21919 -1.26238e-18)
(1.04329 -0.497538 5.62796e-21)
(1.17178 0.0306711 -8.46201e-20)
(0.208997 1.02211 1.13093e-19)
(-0.000641439 0.240404 -9.28772e-20)
(0.734898 -1.35082 2.8527e-19)
(0.993052 -0.534181 -6.46173e-20)
(1.05092 0.0379867 -8.80158e-20)
(0.173609 0.153454 -8.01758e-20)
(-0.541559 -0.11238 0)
(-0.0423322 -0.124551 -7.59323e-20)
(0.333271 -0.0584625 2.10376e-20)
(0.436843 -0.0216239 -2.6899e-20)
(1.86631 0.5697 0)
(0.794698 0.232652 0)
(0.657263 -0.161377 2.68374e-19)
(1.30407 -0.0817547 4.62665e-20)
(1.12131 -0.00604597 5.21313e-20)
(0.748433 0.00331689 -1.3633e-19)
(0.818915 0.000565288 3.38635e-19)
(0.925196 0.0132879 -3.49396e-20)
(0.962665 0.0249101 3.73449e-19)
(1.24876 0.133677 2.33869e-19)
(1.6889 0.0312068 1.31261e-19)
(1.85669 0.0891329 4.61231e-19)
(1.94964 0.117214 -6.34163e-19)
(2.45902 0.23472 2.2732e-19)
(2.24366 0.304406 4.48823e-19)
(0.943013 -0.506406 5.07824e-21)
(0.933844 -0.60138 -1.98793e-19)
(0.927153 -0.703507 -1.56582e-19)
(0.858432 -0.776351 9.47508e-20)
(0.528735 -0.616798 1.43724e-19)
(0.835305 -0.409341 1.09766e-19)
(0.779599 -0.477622 1.6672e-19)
(0.706923 -0.553381 -9.17842e-20)
(0.59661 -0.621122 1.53742e-19)
(0.332112 -0.501258 4.78105e-20)
(0.670987 -0.272178 -1.17112e-19)
(0.585464 -0.315994 -6.10404e-20)
(0.485838 -0.369819 3.63725e-20)
(0.365786 -0.41686 -3.8239e-20)
(0.167946 -0.336675 -1.39766e-19)
(0.56191 -0.0411157 -4.2694e-19)
(0.475817 -0.0592168 -3.43591e-19)
(0.364848 -0.0855951 2.79754e-19)
(0.237388 -0.118986 1.44961e-19)
(0.070741 -0.117326 1.28327e-20)
(0.534732 0.166163 -1.36552e-19)
(0.449082 0.164946 -1.54049e-19)
(0.331224 0.16079 -4.26435e-20)
(0.191486 0.161477 4.86967e-20)
(0.0315864 0.117817 1.37598e-20)
(2.10126 -0.0319991 9.10491e-19)
(2.35631 -0.100754 3.14147e-19)
(2.44721 -0.188956 -8.1853e-19)
(2.32033 -0.215587 -1.74283e-18)
(1.42607 -0.202925 1.42707e-19)
(2.06722 -0.127541 1.50247e-18)
(2.16953 -0.241417 1.98515e-18)
(2.19774 -0.36687 1.67222e-19)
(2.12869 -0.427152 2.93906e-19)
(1.38546 -0.388533 -1.95452e-19)
(1.77431 -0.293875 -3.84937e-18)
(1.84086 -0.414654 4.18997e-19)
(1.89376 -0.544419 1.21776e-18)
(1.84642 -0.624212 -4.68321e-19)
(1.21514 -0.541121 7.4896e-19)
(1.55355 -0.422408 9.28712e-19)
(1.5765 -0.525506 -2.46942e-18)
(1.57037 -0.648544 -2.82928e-18)
(1.50922 -0.74091 8.76755e-19)
(0.984902 -0.621082 5.89883e-19)
(1.25737 -0.484416 2.08132e-19)
(1.21461 -0.58226 2.80303e-19)
(1.20965 -0.709403 -4.36202e-19)
(1.1606 -0.802362 -5.26847e-19)
(0.743874 -0.647715 -4.97642e-21)
(1.06221 0.0529444 6.89158e-21)
(0.940621 0.052976 1.30056e-21)
(1.11222 0.0779249 1.04212e-20)
(0.830751 -0.00449168 -2.61687e-19)
(1.12125 -0.216815 -2.13719e-20)
(1.07369 0.055274 -2.28627e-21)
(0.934818 0.0493712 2.29497e-20)
(1.1138 0.0963281 4.53819e-21)
(0.901377 0.0396912 2.32417e-19)
(1.016 -0.103287 6.08733e-21)
(1.07136 0.0513767 -5.36576e-20)
(0.939402 0.0438821 -1.22848e-22)
(1.09934 0.101331 -5.95962e-21)
(0.902639 0.0572107 1.33651e-19)
(0.970772 -0.042773 -2.66326e-19)
(1.05174 0.0492828 6.298e-20)
(0.963747 0.0374722 2.75652e-21)
(1.06993 0.109504 2.02523e-20)
(0.933092 0.0836771 -7.06564e-20)
(0.875681 0.0631323 5.78263e-20)
(1.02524 0.0460929 1.53401e-20)
(0.993247 0.0326472 -2.29862e-20)
(1.04012 0.118851 3.22663e-20)
(0.955569 0.106586 2.7542e-20)
(0.848398 0.165881 -3.03828e-20)
(0.886396 0.033615 0)
(0.718695 0.0277975 8.63099e-21)
(0.60593 0.0217464 7.28465e-21)
(0.362369 -0.00795223 5.46054e-20)
(0.703196 -0.0546009 -1.75423e-19)
(1.02805 0.0734112 -6.24809e-20)
(0.952132 0.0699423 -6.39971e-22)
(1.02148 0.0788391 -6.85543e-20)
(0.824787 -0.00796351 -1.56477e-19)
(1.05862 -0.199748 -1.8676e-19)
(0.971422 -0.0688224 -4.03057e-20)
(1.06311 -0.0369151 5.85881e-19)
(1.16343 0.0353527 3.44512e-19)
(1.03842 0.0560563 3.2067e-20)
(0.807667 0.0306871 0)
(1.3331 -0.32121 3.92663e-19)
(1.45166 -0.284107 1.65386e-18)
(1.63535 -0.16205 -1.78499e-18)
(1.7405 -0.0222977 -5.58141e-19)
(1.65471 0.0334544 4.25177e-19)
)
;

boundaryField
{
    left
    {
        type            fixedValue;
        value           uniform (1 0 0);
    }
    right
    {
        type            zeroGradient;
    }
    down
    {
        type            noSlip;
    }
    up
    {
        type            noSlip;
    }
    cylinder
    {
        type            noSlip;
    }
    defaultFaces
    {
        type            empty;
    }
}


// ************************************************************************* //
