/*--------------------------------*- C++ -*----------------------------------*\
  =========                 |
  \\      /  F ield         | OpenFOAM: The Open Source CFD Toolbox
   \\    /   O peration     | Website:  https://openfoam.org
    \\  /    A nd           | Version:  13
     \\/     M anipulation  |
\*---------------------------------------------------------------------------*/
FoamFile
{
    format      ascii;
    class       volScalarField;
    location    "0.62";
    object      strainRateViscosityModel:nu;
}
// * * * * * * * * * * * * * * * * * * * * * * * * * * * * * * * * * * * * * //

dimensions      [0 2 -1 0 0 0 0];

internalField   nonuniform List<scalar> 
440
(
9.41956
8.96971
8.54446
8.04235
7.58623
9.68996
9.35816
8.98175
8.48001
7.87556
9.80074
9.53084
9.15876
8.58508
7.84825
9.84962
9.61817
9.25861
8.64755
7.86606
9.86917
9.65607
9.30591
8.68094
7.90878
1.30446
1.79084
2.05053
2.30085
2.36487
3.38368
3.30281
3.31807
3.42691
3.49766
5.89211
5.27167
4.92874
4.72935
4.75921
7.76969
6.99347
6.4205
5.90531
5.82794
8.82072
8.15134
7.55204
6.91828
6.8718
1.85225
0.845708
0.413101
0.146143
0.113627
2.61846
0.91184
0.361764
0.106088
0.0234941
3.5144
1.15282
0.302874
0.0649121
0.0118584
4.09278
1.44036
0.277817
0.0407835
0.0184857
4.60491
1.75765
0.326038
0.0121679
0.0926854
4.23012
1.74283
0.291301
0.0526366
0.271267
3.71059
1.82296
0.618087
0.317872
0.424885
4.91894
3.20881
1.23483
0.557042
0.559934
7.00945
4.28953
1.91429
0.903119
0.692274
8.27284
5.07745
2.49585
1.31041
0.871897
2.84833
3.68272
4.61994
5.50592
6.14932
3.68372
3.69653
3.77205
3.85197
3.36774
8.22653
8.08657
7.79932
7.38537
6.34623
9.05291
8.99238
8.85905
8.62151
8.16018
9.60671
9.56995
9.48702
9.33805
9.1188
7.50333
8.01244
8.55941
9.01087
9.46421
7.794
8.45162
8.98711
9.37787
9.70865
7.77898
8.55903
9.15941
9.54077
9.80944
7.81627
8.62755
9.25739
9.62275
9.85359
7.89134
8.67366
9.30535
9.65743
9.87034
2.52761
2.46873
2.26899
2.11489
2.04347
3.47854
3.43038
3.47036
3.68954
4.24052
4.63745
4.66027
5.04967
5.59833
6.44922
5.68526
5.82696
6.49787
7.18787
8.04078
6.75385
6.84213
7.58052
8.24278
8.93543
0.202257
0.0572029
0.273466
0.858819
2.02141
0.170086
0.0730513
0.219137
0.880235
2.65923
0.148732
0.0788237
0.167466
1.08041
3.4432
0.137801
0.0684614
0.160052
1.39047
3.9454
0.145025
0.0765633
0.256101
1.73944
4.36708
0.199413
0.114543
0.269316
1.87141
4.10274
0.330535
0.133131
0.265808
1.80475
3.86032
0.660237
0.260933
0.777418
3.03577
4.90726
2.2728
0.821299
1.51099
4.16206
6.96072
5.05586
2.54243
2.424
5.03874
8.27907
5.94773
5.26664
4.40269
3.5106
2.77991
3.52186
3.99066
3.97064
3.87617
3.7636
6.32089
7.35232
7.77908
8.06775
8.21852
8.12128
8.59997
8.84947
8.98863
9.05204
9.11692
9.3378
9.4874
9.57051
9.60696
9.31084
7.9168
1.39863
3.63014
7.73674
9.08182
7.44074
3.20592
1.64072
6.78898
8.39864
6.57763
4.20844
1.00353
4.14768
6.81557
5.09468
3.45525
1.70053
1.03874
4.50372
3.14532
2.03882
1.37783
0.459877
2.59704
1.6187
1.00239
0.796663
0.926282
1.45584
0.778945
0.579288
0.612332
0.685128
0.80153
0.405305
0.589374
0.758101
0.831421
0.306008
0.506166
0.884005
1.04934
1.1108
0.161466
0.934686
1.28039
1.51641
1.57075
0.190317
0.361588
0.706005
0.772982
0.732408
0.395278
0.499192
0.574778
0.630923
0.617332
0.613062
0.645165
0.460462
0.485394
0.498132
0.964551
0.793014
0.412538
0.343813
0.371292
1.32993
0.843475
0.41717
0.2222
0.25281
1.10546
0.856984
1.11948
1.10651
1.00595
0.284039
0.470945
0.861912
0.917149
0.850475
9.19114
8.83861
7.75874
5.73011
3.55955
8.58724
7.72284
5.85153
3.49149
0.866165
0.964945
0.858855
1.02719
1.62019
2.65816
0.814103
0.768269
0.70469
0.82481
1.52598
1.05977
1.01104
0.847881
0.553341
0.742751
1.38222
1.34514
1.14732
0.796326
0.227368
1.8512
1.80456
1.55286
1.23565
0.597166
7.73627
3.62706
1.39993
7.91504
9.31099
6.78515
1.64048
3.20261
7.43764
9.08245
4.13411
1.01087
4.19432
6.57302
8.4002
1.0366
1.70561
3.43359
5.0855
6.82204
0.476301
1.37649
2.01475
3.12745
4.52657
1.31032
0.546376
0.550993
0.454592
0.176338
0.675541
0.29617
0.467349
0.520595
0.486828
0.395834
0.163571
0.379231
0.621272
0.804648
0.286793
0.0728731
0.338846
0.770689
1.22162
0.242242
0.0419533
0.315774
0.850649
1.5835
5.4808
2.46128
1.03718
0.964203
1.14186
2.88689
1.08968
0.725424
0.557482
0.251646
3.56831
5.73574
7.75992
8.83914
9.19128
0.843218
3.4719
5.84488
7.72147
8.58709
)
;

boundaryField
{
    left
    {
        type            calculated;
        value           nonuniform List<scalar> 
17
(
0.450536
1.11532
2.18266
3.91036
6.58021
0.300761
0.186003
0.136546
0.141447
0.210021
2.95864
2.05998
1.33313
0.812178
0.494565
6.97864
4.57958
)
;
    }
    right
    {
        type            calculated;
        value           nonuniform List<scalar> 
17
(
1.00625
0.851948
0.734488
0.620058
0.500289
0.370581
0.246434
0.103127
0.0191453
0.0112937
0.0222413
0.12363
0.333073
0.481588
0.596651
0.706901
0.863569
)
;
    }
    down
    {
        type            calculated;
        value           nonuniform List<scalar> 
20
(
5.99473
2.99989
1.14662
1.04678
1.85289
4.27034
6.38379
8.13137
9.01577
9.30924
9.30907
9.01512
8.12989
6.37972
4.26401
1.83153
0.931688
1.18594
1.16353
1.0536
)
;
    }
    up
    {
        type            calculated;
        value           nonuniform List<scalar> 
20
(
8.54861
5.40535
2.72531
1.45879
0.936514
9.69562
9.66615
9.59857
9.47421
9.29339
9.29638
9.47645
9.60017
9.66725
9.69603
5.70389
3.15141
2.66391
5.39445
8.56545
)
;
    }
    cylinder
    {
        type            calculated;
        value           nonuniform List<scalar> 
40
(
1.36923
3.58833
6.11855
7.96052
8.95714
9.50514
9.74577
9.84079
9.88145
9.89745
9.54747
9.76284
9.84855
9.88496
9.89848
2.28131
4.51773
6.696
8.23381
9.06993
3.04374
1.84999
1.09222
0.443429
0.605009
9.51903
9.33186
8.74227
7.26967
4.9861
9.51886
9.33112
8.74022
7.26145
4.9575
2.96557
1.73262
1.07359
0.668624
0.104175
)
;
    }
    defaultFaces
    {
        type            empty;
    }
}


// ************************************************************************* //
