# Selection   : all
# Cells       : 440
# Volume      : 7.374263e+01
# Time        	min(p)
2             	-1.887480e+00
2.05          	-1.893362e+00
2.1           	-1.898983e+00
