/*--------------------------------*- C++ -*----------------------------------*\
  =========                 |
  \\      /  F ield         | OpenFOAM: The Open Source CFD Toolbox
   \\    /   O peration     | Website:  https://openfoam.org
    \\  /    A nd           | Version:  13
     \\/     M anipulation  |
\*---------------------------------------------------------------------------*/
FoamFile
{
    format      ascii;
    class       volScalarField;
    location    "0.2";
    object      p;
}
// * * * * * * * * * * * * * * * * * * * * * * * * * * * * * * * * * * * * * //

dimensions      [0 2 -2 0 0 0 0];

internalField   nonuniform List<scalar> 
1800
(
-0.962147
-0.925137
-0.845793
-0.746714
-0.649368
-0.561753
-0.485199
-0.418254
-0.359255
-0.310952
-1.14037
-1.09934
-1.00955
-0.897774
-0.788193
-0.689466
-0.603074
-0.527768
-0.462635
-0.409411
-1.30923
-1.26384
-1.16338
-1.0391
-0.917624
-0.808033
-0.711805
-0.6276
-0.554195
-0.492234
-1.46356
-1.41362
-1.30265
-1.16663
-1.03436
-0.915111
-0.810304
-0.718447
-0.638188
-0.569864
-1.59777
-1.54315
-1.42197
-1.27517
-1.13318
-1.0053
-0.892768
-0.79395
-0.707389
-0.632874
-1.70671
-1.64742
-1.51668
-1.3604
-1.21017
-1.07506
-0.956105
-0.851517
-0.759709
-0.680083
-1.78542
-1.72161
-1.58223
-1.41803
-1.26118
-1.12035
-0.996316
-0.887161
-0.791186
-0.707449
-1.8297
-1.76165
-1.6149
-1.44461
-1.28295
-1.13805
-1.01042
-0.898025
-0.799052
-0.712273
-1.83623
-1.76438
-1.61188
-1.43746
-1.27291
-1.12565
-0.995924
-0.881649
-0.780895
-0.692181
-1.80297
-1.72801
-1.57156
-1.39502
-1.2295
-1.08157
-0.951233
-0.836347
-0.734917
-0.645334
0.35055
0.367812
0.383878
0.397609
0.40724
0.412529
0.414194
0.413079
0.409867
0.405146
0.309447
0.327254
0.345321
0.361954
0.374741
0.38304
0.387458
0.388842
0.387901
0.385369
0.242151
0.260802
0.28195
0.303024
0.32061
0.33348
0.342071
0.347236
0.349728
0.350527
0.149987
0.169775
0.195056
0.222035
0.245934
0.264805
0.278854
0.288948
0.2959
0.301031
0.0347732
0.0559913
0.0864173
0.120658
0.152235
0.178368
0.198992
0.214989
0.227252
0.23753
-0.101077
-0.0781267
-0.0416037
0.00112508
0.0415652
0.0760279
0.104156
0.126843
0.145078
0.161105
-0.254482
-0.229488
-0.185999
-0.133727
-0.0834506
-0.0398036
-0.00343889
0.026543
0.0512337
0.0733963
-0.421663
-0.394292
-0.343062
-0.28039
-0.219549
-0.166116
-0.121022
-0.0833696
-0.05191
-0.0234669
-0.598265
-0.568127
-0.508365
-0.434454
-0.362345
-0.298546
-0.244263
-0.198601
-0.160031
-0.125366
-0.779848
-0.746489
-0.677282
-0.591097
-0.506659
-0.431332
-0.366539
-0.311317
-0.263911
-0.222553
0.360811
0.280618
0.224027
0.179915
0.144283
0.114149
0.086978
0.061393
0.0365886
0.0121455
0.354826
0.278723
0.223985
0.180333
0.144642
0.114345
0.0870551
0.0614056
0.0365765
0.0121302
0.342284
0.273996
0.222673
0.18028
0.144898
0.114573
0.0872042
0.0614891
0.0366128
0.0121313
0.322421
0.266593
0.220141
0.179757
0.145038
0.114821
0.0874174
0.0616376
0.0366943
0.0121483
0.294218
0.256668
0.216467
0.17877
0.145049
0.11508
0.0876864
0.061845
0.0368173
0.0121804
0.256609
0.244285
0.211728
0.177329
0.144917
0.115338
0.0880025
0.0621048
0.0369783
0.0122272
0.208811
0.229346
0.206011
0.175449
0.144629
0.115581
0.0883564
0.0624103
0.0371735
0.0122882
0.150274
0.211137
0.19931
0.173137
0.144175
0.115799
0.0887387
0.0627544
0.0373991
0.0123631
0.080758
0.188414
0.191224
0.170248
0.143488
0.115958
0.0891344
0.063129
0.0376512
0.012452
0.00553463
0.162171
0.182092
0.166919
0.142612
0.11607
0.0895443
0.0635318
0.037928
0.0125583
-0.033846
0.140387
0.172952
0.162045
0.140091
0.114838
0.0889575
0.0632532
0.0378301
0.0125904
-0.0471962
0.114375
0.155136
0.151002
0.133453
0.110874
0.0865765
0.0618398
0.0370892
0.0123764
-0.0437987
0.0993015
0.141866
0.141597
0.127283
0.106992
0.084178
0.0603962
0.0363218
0.0121481
-0.0363003
0.0875842
0.129903
0.132798
0.121324
0.103143
0.0817611
0.0589282
0.0355335
0.0119088
-0.0256345
0.079447
0.119735
0.124826
0.115717
0.099426
0.0793873
0.0574717
0.0347436
0.0116648
-0.0146588
0.0734637
0.111028
0.117658
0.110533
0.095917
0.0771137
0.0560627
0.033971
0.0114218
-0.00547446
0.0686451
0.103509
0.111273
0.105826
0.0926829
0.0749924
0.0547351
0.0332334
0.0111845
0.000578498
0.0640758
0.0968331
0.105601
0.101623
0.0897712
0.0730655
0.0535178
0.0325454
0.010958
0.00331459
0.0588805
0.0902422
0.100154
0.0976146
0.0869866
0.0712065
0.0523279
0.0318448
0.0107075
-0.000633153
0.0549191
0.0862289
0.0970127
0.0953391
0.0854091
0.0701533
0.0516549
0.031452
0.0105707
-0.49485
-0.540508
-0.564089
-0.566589
-0.549864
-0.516413
-0.469093
-0.410113
-0.344136
-0.272618
-0.33259
-0.378682
-0.406906
-0.418282
-0.41381
-0.396262
-0.366636
-0.329536
-0.286058
-0.24107
-0.20798
-0.252651
-0.282831
-0.299292
-0.302466
-0.29521
-0.277151
-0.253585
-0.222943
-0.191199
-0.111641
-0.155567
-0.186934
-0.206446
-0.214426
-0.213404
-0.202831
-0.187572
-0.165866
-0.143374
-0.0383783
-0.0813947
-0.11337
-0.13482
-0.146082
-0.149184
-0.14395
-0.134354
-0.119133
-0.103035
0.0174746
-0.0250007
-0.0574854
-0.0803331
-0.0939534
-0.0999222
-0.0984863
-0.0927501
-0.0819637
-0.0701465
0.0589926
0.0167101
-0.0162916
-0.0402516
-0.0556331
-0.0636526
-0.0648718
-0.0617508
-0.0540279
-0.0451918
0.0884709
0.0458843
0.0121447
-0.0128808
-0.0297033
-0.0392769
-0.0423436
-0.0408792
-0.0350566
-0.0281107
0.10534
0.062506
0.0277766
0.0014024
-0.0168904
-0.0278133
-0.0321246
-0.0313438
-0.0260075
-0.0182533
0.116138
0.0703322
0.032633
0.00295466
-0.0189963
-0.033583
-0.0415728
-0.0434851
-0.0401939
-0.0317783
0.928755
0.879431
0.822308
0.761096
0.694571
0.62005
0.535614
0.442659
0.35406
0.301917
0.733585
0.678648
0.617262
0.549693
0.474072
0.388229
0.290756
0.183569
0.0816077
0.021956
0.51926
0.460728
0.395816
0.322937
0.240105
0.145361
0.0373475
-0.0818425
-0.195526
-0.261662
0.314603
0.251125
0.180211
0.100012
0.00874369
-0.0955643
-0.214365
-0.345475
-0.470562
-0.542397
0.125682
0.05592
-0.0222049
-0.110544
-0.210852
-0.325206
-0.455084
-0.598174
-0.734433
-0.810932
-0.0490599
-0.124917
-0.209907
-0.305908
-0.414726
-0.538519
-0.678661
-0.832717
-0.979546
-1.05872
-0.209238
-0.290123
-0.380931
-0.483505
-0.599685
-0.731678
-0.880596
-1.04321
-1.2008
-1.27732
-0.35178
-0.436563
-0.53202
-0.639892
-0.762031
-0.900686
-1.05684
-1.22821
-1.38683
-1.46411
-0.473038
-0.560795
-0.659797
-0.771631
-0.898229
-1.04186
-1.20378
-1.37895
-1.53793
-1.61575
-0.570934
-0.660501
-0.761669
-0.875954
-1.00539
-1.15223
-1.31695
-1.49366
-1.6522
-1.72929
2.11404
2.13093
2.15129
2.17308
2.19432
2.21412
2.23184
2.24687
2.25967
2.26969
2.06146
2.07649
2.0945
2.11358
2.13183
2.14834
2.16242
2.17357
2.18271
2.19022
1.98875
2.00109
2.01565
2.03071
2.04454
2.05619
2.06489
2.07027
2.07403
2.07789
1.89663
1.90552
1.9156
1.92544
1.93352
1.93885
1.94055
1.93839
1.93507
1.93432
1.78612
1.79089
1.79559
1.79916
1.80032
1.798
1.79124
1.77993
1.76782
1.7618
1.65844
1.65864
1.65727
1.65368
1.64688
1.63576
1.61923
1.59736
1.57506
1.5627
1.51565
1.51118
1.50337
1.49194
1.47628
1.45528
1.42777
1.39406
1.36033
1.34078
1.36216
1.35268
1.33757
1.3172
1.29152
1.25946
1.21974
1.17296
1.12676
1.09947
1.2055
1.19068
1.16702
1.13609
1.09877
1.05408
1.00066
0.939399
0.879622
0.844105
1.05713
1.02915
0.991336
0.946892
0.896427
0.838186
0.770383
0.694096
0.620377
0.576565
2.1032
1.70161
2.04565
1.86433
1.85475
1.85815
1.86716
1.89134
1.94655
2.04926
2.09641
1.69508
2.04001
1.8574
1.84709
1.84896
1.85548
1.87598
1.92389
2.0137
2.09034
1.68821
2.03499
1.84973
1.83873
1.83876
1.84199
1.85768
1.89486
1.96614
2.08492
1.68107
2.03061
1.84133
1.82972
1.82757
1.82672
1.83632
1.85928
1.90664
2.08013
1.67375
2.02686
1.83219
1.82012
1.81541
1.80971
1.81174
1.81691
1.83535
2.07592
1.66637
2.02371
1.8223
1.80999
1.80231
1.79097
1.78381
1.76847
1.75144
2.07228
1.65906
2.02113
1.81164
1.7994
1.78829
1.77051
1.75252
1.7151
1.65325
2.06919
1.65195
2.01903
1.80021
1.78843
1.77335
1.74831
1.71796
1.65738
1.54114
2.06665
1.64522
2.01732
1.78802
1.77718
1.75753
1.72448
1.68019
1.59454
1.41278
2.06468
1.6391
2.01586
1.77512
1.76571
1.74091
1.69943
1.6407
1.52936
1.28077
2.06286
1.63257
2.01161
1.76381
1.75093
1.71919
1.66598
1.58868
1.45067
1.14368
2.06368
1.62666
2.00509
1.75583
1.73494
1.69626
1.63212
1.53964
1.38198
1.08072
2.06619
1.62238
1.99936
1.74844
1.72035
1.67518
1.60168
1.49756
1.32638
1.03791
2.07078
1.61975
1.99458
1.74182
1.70739
1.65635
1.57507
1.46212
1.28227
1.00908
2.0779
1.61874
1.99083
1.73615
1.69624
1.64009
1.55257
1.433
1.24853
0.989677
2.08836
1.61931
1.98811
1.73154
1.68704
1.6266
1.53424
1.40989
1.2238
0.977126
2.10256
1.62131
1.9863
1.72805
1.67986
1.61597
1.52005
1.39241
1.20664
0.969879
2.1227
1.62472
1.98521
1.72571
1.67476
1.60829
1.50995
1.38027
1.19582
0.96712
2.1408
1.62832
1.98332
1.72465
1.67192
1.60367
1.50404
1.37349
1.19093
0.969848
2.19413
1.63691
1.98562
1.72283
1.671
1.60124
1.50093
1.36984
1.18872
0.970948
0.897333
0.730825
0.541126
0.360389
0.195066
0.0418041
-0.100177
-0.227949
-0.337741
-0.427251
0.822075
0.694497
0.548579
0.403188
0.266853
0.138963
0.0189982
-0.090618
-0.187301
-0.268658
0.784972
0.68151
0.564989
0.442755
0.324709
0.213183
0.108075
0.0110254
-0.0754131
-0.148903
0.768194
0.677896
0.579422
0.474361
0.370693
0.271909
0.178317
0.0911567
0.0126178
-0.0553762
0.763616
0.681571
0.594827
0.502024
0.408722
0.318792
0.233143
0.152825
0.0796828
0.0154901
0.765501
0.688981
0.609839
0.525359
0.439382
0.355744
0.275725
0.200294
0.131065
0.0696979
0.770476
0.697804
0.623738
0.54484
0.463881
0.384576
0.308407
0.236311
0.169744
0.110231
0.776984
0.706924
0.636213
0.560826
0.482982
0.406372
0.33257
0.262501
0.197551
0.139176
0.787196
0.719003
0.649956
0.575827
0.498972
0.423113
0.349819
0.280003
0.214996
0.156298
0.801235
0.737002
0.669341
0.595163
0.518215
0.442013
0.367914
0.296956
0.230528
0.169944
-3.01693
-2.9094
-2.70058
-2.48144
-2.28749
-2.12446
-1.99025
-1.88133
-1.79509
-1.73026
-3.08591
-2.98667
-2.78455
-2.56643
-2.37064
-2.20544
-2.06948
-1.9591
-1.8719
-1.80763
-3.03965
-2.94966
-2.75797
-2.54302
-2.34671
-2.17999
-2.04247
-1.93049
-1.84131
-1.77435
-2.88932
-2.8086
-2.63054
-2.42193
-2.22737
-2.06049
-1.92216
-1.80895
-1.71784
-1.64729
-2.6548
-2.58312
-2.42086
-2.22238
-2.03306
-1.86873
-1.73152
-1.61852
-1.52661
-1.45405
-2.36108
-2.29804
-2.15296
-1.96869
-1.78916
-1.63139
-1.49859
-1.38841
-1.29784
-1.22616
-2.03463
-1.97961
-1.85237
-1.68618
-1.52141
-1.375
-1.2508
-1.14714
-1.06097
-0.993299
-1.69936
-1.65151
-1.54195
-1.39651
-1.25052
-1.11964
-1.00789
-0.914098
-0.835647
-0.774526
-1.37399
-1.33239
-1.23966
-1.11603
-0.991166
-0.878726
-0.782447
-0.701493
-0.633594
-0.583233
-1.07032
-1.03399
-0.956554
-0.853932
-0.750164
-0.65658
-0.576214
-0.508094
-0.449175
-0.40368
-0.794592
-0.762657
-0.698777
-0.615508
-0.531928
-0.457279
-0.394164
-0.342083
-0.29879
-0.261248
-0.548849
-0.520535
-0.468222
-0.401669
-0.335647
-0.277376
-0.228722
-0.189054
-0.156838
-0.127406
-0.332956
-0.307582
-0.264863
-0.212193
-0.160746
-0.115974
-0.0790582
-0.0492362
-0.0253743
-0.00339607
-0.146526
-0.123544
-0.0887762
-0.0476518
-0.00842916
0.0249121
0.0517549
0.0729242
0.0894011
0.104306
0.010675
0.0317149
0.0599814
0.0916386
0.12075
0.144561
0.162925
0.176693
0.186764
0.195402
0.138836
0.158342
0.181484
0.205658
0.226717
0.2429
0.254428
0.262158
0.266914
0.270299
0.238118
0.256471
0.275798
0.294381
0.309371
0.319783
0.326101
0.329181
0.329783
0.329033
0.308676
0.326241
0.343
0.357801
0.36865
0.375112
0.377845
0.377696
0.375382
0.371705
0.350715
0.367846
0.383227
0.395993
0.404594
0.408907
0.40968
0.407756
0.403823
0.398496
0.364519
0.381548
0.396715
0.409142
0.417356
0.421293
0.421723
0.419486
0.41526
0.409593
-0.0159383
0.132626
0.155412
0.150832
0.136107
0.115403
0.0915957
0.066243
0.0400142
0.0133607
0.0766881
0.166107
0.169075
0.156517
0.137478
0.114995
0.090629
0.0652935
0.039364
0.0131411
0.152964
0.192576
0.179799
0.160474
0.138513
0.114615
0.089774
0.0644534
0.038788
0.0129452
0.212849
0.213895
0.189238
0.164389
0.139501
0.114312
0.0890399
0.0637228
0.0382843
0.0127726
0.259905
0.231692
0.197659
0.16789
0.140404
0.114082
0.0884245
0.0630992
0.0378507
0.0126223
0.296159
0.24671
0.205022
0.170973
0.141233
0.113928
0.0879246
0.0625793
0.037485
0.0124934
0.323154
0.259074
0.21128
0.173642
0.141992
0.113847
0.0875357
0.0621592
0.0371848
0.0123853
0.34228
0.268741
0.216367
0.175883
0.142679
0.113835
0.0872527
0.0618352
0.0369478
0.0122972
0.354588
0.27561
0.220211
0.177682
0.143293
0.113885
0.0870698
0.0616026
0.0367712
0.0122283
0.360689
0.279586
0.22277
0.179029
0.14383
0.113993
0.0869805
0.0614569
0.0366525
0.0121779
-0.214316
0.0181261
0.0997381
0.124659
0.124933
0.111496
0.0908682
0.0666618
0.0406249
0.0136677
-0.175842
0.0364166
0.107494
0.127833
0.126087
0.111848
0.0909043
0.0665966
0.0405454
0.0136295
-0.147406
0.054607
0.116769
0.132194
0.127966
0.112528
0.0910463
0.0665383
0.0404413
0.0135739
-0.114558
0.0766903
0.128271
0.137795
0.130448
0.113559
0.0913726
0.0665777
0.0403932
0.0135406
-0.0735966
0.104804
0.142947
0.145108
0.133863
0.114912
0.0918575
0.0666987
0.040389
0.013524
-1.66258
-1.74019
-1.72519
-1.62924
-1.47206
-1.28419
-1.07689
-0.886388
-0.703327
-0.543449
-1.66267
-1.74079
-1.72111
-1.61822
-1.45363
-1.25779
-1.04291
-0.84425
-0.655323
-0.49098
-1.66688
-1.74418
-1.71928
-1.60812
-1.43417
-1.22698
-1.00501
-0.798525
-0.613083
-0.465307
-1.67772
-1.75486
-1.72499
-1.60485
-1.42045
-1.20201
-0.975438
-0.765386
-0.584885
-0.439053
-1.69598
-1.77362
-1.73912
-1.61055
-1.41648
-1.1892
-0.958547
-0.74436
-0.559374
-0.398185
1.52832
1.50753
1.47827
1.4437
1.40467
1.35951
1.30629
1.24557
1.18664
1.15063
1.66048
1.65435
1.64091
1.62173
1.59774
1.56805
1.53131
1.48801
1.44558
1.42038
1.78733
1.78665
1.78211
1.77414
1.76253
1.74626
1.72411
1.69628
1.66856
1.6528
1.89951
1.90391
1.90676
1.90777
1.90611
1.90073
1.89055
1.87556
1.86011
1.85211
1.99259
2.00126
2.01009
2.01831
2.0247
2.02821
2.02786
2.02348
2.01822
2.01639
2.06501
2.07738
2.09122
2.10533
2.1182
2.12881
2.13633
2.14043
2.14311
2.14635
2.11656
2.13175
2.14942
2.168
2.18574
2.20171
2.21516
2.22561
2.23418
2.24139
2.14733
2.16436
2.18459
2.20615
2.22717
2.24672
2.26413
2.27883
2.29135
2.30124
2.15723
2.17512
2.1966
2.21967
2.24233
2.2637
2.28313
2.29998
2.31452
2.32578
2.14598
2.16387
2.18542
2.20856
2.23129
2.25273
2.27225
2.28921
2.30383
2.31511
-1.54231
-1.61003
-1.69658
-1.80431
-1.93641
-2.0963
-2.28737
-2.50568
-2.71926
-2.83242
-1.25753
-1.3281
-1.41586
-1.52306
-1.65307
-1.80943
-1.99501
-2.20905
-2.42636
-2.54332
-0.897785
-0.971646
-1.06154
-1.16912
-1.29737
-1.44963
-1.62908
-1.83511
-2.04484
-2.16874
-0.494021
-0.572761
-0.665386
-0.773251
-0.899027
-1.04596
-1.2173
-1.41208
-1.60692
-1.73161
-0.0869553
-0.169174
-0.262414
-0.36795
-0.488384
-0.626912
-0.786652
-0.966509
-1.14499
-1.26134
0.288658
0.208566
0.119801
0.0212344
-0.0896326
-0.215831
-0.360263
-0.521765
-0.680928
-0.784906
0.619492
0.54734
0.468167
0.380987
0.283396
0.172606
0.0460861
-0.0949461
-0.233083
-0.322899
0.913511
0.851597
0.783831
0.709587
0.626371
0.531545
0.423053
0.302284
0.184818
0.109364
1.18355
1.13062
1.07112
1.00685
0.935642
0.854828
0.762637
0.66055
0.5623
0.500501
1.41102
1.36633
1.31281
1.25667
1.19699
1.13084
1.05602
0.973469
0.894573
0.845934
2.21881
1.74595
2.12134
1.87892
1.89273
1.8946
1.89083
1.88794
1.84662
1.71906
2.20244
1.74286
2.11411
1.88299
1.89137
1.89509
1.89432
1.89968
1.87754
1.81025
2.18734
1.73959
2.10631
1.88575
1.88972
1.8948
1.89772
1.91034
1.90668
1.89601
2.17346
1.73608
2.09816
1.88716
1.88766
1.89366
1.89954
1.9183
1.9309
1.96244
2.16069
1.73228
2.08988
1.88724
1.88507
1.89159
1.89985
1.92337
1.95063
2.01301
2.14892
1.72816
2.08165
1.88606
1.88186
1.88855
1.89861
1.92541
1.96549
2.04912
2.13808
1.72368
2.07363
1.88369
1.87795
1.88453
1.89577
1.92437
1.97428
2.07285
2.12813
1.7188
2.06593
1.88025
1.8733
1.87949
1.89127
1.92038
1.97672
2.08474
2.11902
1.71349
2.05866
1.87581
1.86788
1.87342
1.88503
1.91352
1.97293
2.08472
2.11072
1.70775
2.05187
1.87049
1.86169
1.86631
1.87701
1.90385
1.96289
2.07291
2.36342
1.7685
2.13182
1.88121
1.89459
1.88817
1.86979
1.84171
1.74189
1.56274
2.30824
1.76172
2.12997
1.88214
1.89407
1.88906
1.87142
1.84483
1.7481
1.56535
2.28425
1.75833
2.13099
1.88116
1.89406
1.8902
1.87437
1.85074
1.76143
1.57106
2.25931
1.7541
2.12916
1.87957
1.89392
1.89154
1.8786
1.85956
1.78149
1.5912
2.23714
1.7496
2.12645
1.87746
1.89359
1.89298
1.88374
1.87109
1.80771
1.62284
1.2441
1.10583
0.897966
0.607972
0.251696
-0.145222
-0.547589
-0.920169
-1.24051
-1.49248
1.23131
1.09
0.888684
0.611033
0.270367
-0.114886
-0.515676
-0.895637
-1.22667
-1.48789
1.25161
1.09872
0.891522
0.619486
0.290162
-0.087453
-0.490005
-0.878771
-1.21954
-1.48826
1.30269
1.12739
0.903724
0.631416
0.308208
-0.0659456
-0.471701
-0.869178
-1.21904
-1.49479
1.38208
1.17654
0.925901
0.644526
0.321048
-0.0521617
-0.460028
-0.864328
-1.22328
-1.50749
)
;

boundaryField
{
    left
    {
        type            zeroGradient;
    }
    right
    {
        type            fixedValue;
        value           uniform 0;
    }
    down
    {
        type            zeroGradient;
    }
    up
    {
        type            zeroGradient;
    }
    cylinder
    {
        type            zeroGradient;
    }
    defaultFaces
    {
        type            empty;
    }
}


// ************************************************************************* //
