/*--------------------------------*- C++ -*----------------------------------*\
  =========                 |
  \\      /  F ield         | OpenFOAM: The Open Source CFD Toolbox
   \\    /   O peration     | Website:  https://openfoam.org
    \\  /    A nd           | Version:  13
     \\/     M anipulation  |
\*---------------------------------------------------------------------------*/
FoamFile
{
    format      ascii;
    class       surfaceScalarField;
    location    "0.2";
    object      phi;
}
// * * * * * * * * * * * * * * * * * * * * * * * * * * * * * * * * * * * * * //

dimensions      [0 3 -1 0 0 0 0];

internalField   nonuniform List<scalar> 
3485
(
0.00343915
-0.0332776
0.0298384
0.011341
-0.0960084
0.0881066
0.0210277
-0.13075
0.121064
0.0310197
-0.143374
0.133382
0.0407875
-0.14508
0.135312
0.0502089
-0.142706
0.133285
0.0592605
-0.139187
0.130136
0.0679022
-0.135518
0.126876
0.076045
-0.131884
0.123741
-0.128056
0.12034
0.0837607
0.00356979
-0.0368474
0.0113211
-0.10376
0.0205515
-0.139981
0.0299296
-0.152752
0.0390628
-0.154213
0.0479251
-0.151569
0.0565755
-0.147838
0.0650881
-0.144031
0.073592
-0.140388
-0.136881
0.0824178
0.0036758
-0.0405232
0.0111973
-0.111281
0.0198503
-0.148634
0.028456
-0.161357
0.0367396
-0.162497
0.0447276
-0.159557
0.0524879
-0.155598
0.0600702
-0.151613
0.0675076
-0.147825
-0.14419
0.0748164
0.00376481
-0.044288
0.0109918
-0.118508
0.0189939
-0.156636
0.0267727
-0.169136
0.0341858
-0.16991
0.0413269
-0.166698
0.0482887
-0.16256
0.0551269
-0.158451
0.0618819
-0.154581
-0.150988
0.06868
0.00380082
-0.0480888
0.0106197
-0.125327
0.0178426
-0.163859
0.0246661
-0.17596
0.0310766
-0.17632
0.0372234
-0.172844
0.0432144
-0.168551
0.0491072
-0.164344
0.0549437
-0.160417
-0.156829
0.060784
0.00377499
-0.0518638
0.0100679
-0.13162
0.0163991
-0.17019
0.0221752
-0.181736
0.0275085
-0.181654
0.0325983
-0.177934
0.037564
-0.173517
0.0424612
-0.169241
0.0473228
-0.165279
-0.1617
0.0521939
0.0036662
-0.05553
0.00929978
-0.137254
0.0146212
-0.175511
0.0192529
-0.186367
0.0234267
-0.185827
0.0273817
-0.181889
0.0312427
-0.177378
0.0350621
-0.173061
0.0388676
-0.169084
-0.165511
0.0426793
0.00346292
-0.0589929
0.00830725
-0.142098
0.012512
-0.179716
0.0159194
-0.189775
0.0188732
-0.188781
0.0216381
-0.184654
0.0243372
-0.180077
0.0270161
-0.175739
0.0296949
-0.171763
-0.168191
0.0323744
0.0031567
-0.0621496
0.00708816
-0.146029
0.0100776
-0.182705
0.0122055
-0.191903
0.0138985
-0.190474
0.0154339
-0.18619
0.0169297
-0.181572
0.0184237
-0.177233
0.0199297
-0.173269
-0.169695
0.0214343
0.00274857
-0.0648982
0.00564888
-0.14893
0.00735833
-0.184415
0.00818445
-0.192729
0.00859349
-0.190883
0.00888242
-0.186479
0.00915054
-0.181841
0.00942792
-0.177511
0.00972749
-0.173569
0.0100327
-0.170001
0.00225784
-0.00495548
0.00269764
0.0101216
-0.0156243
0.00776047
0.0215332
-0.0221045
0.010693
0.0344437
-0.0247702
0.0118596
0.0477063
-0.0253585
0.0120959
0.0608286
-0.0250715
0.0119492
0.07364
-0.0244883
0.011677
0.0860994
-0.0238393
0.0113799
0.0982105
-0.0232024
0.0110913
-0.0227512
0.11013
0.0108317
0.00230215
-0.00725763
0.0101863
-0.0235084
0.0215684
-0.0334866
0.034413
-0.0376148
0.0475915
-0.0385369
0.0606244
-0.0381044
0.0733482
-0.0372122
0.0857256
-0.0362167
0.0977637
-0.0352404
-0.0346039
0.109616
0.00236766
-0.00962528
0.0102869
-0.0314277
0.0216335
-0.0448332
0.0343904
-0.0503717
0.0474541
-0.0516006
0.0603635
-0.0510138
0.0729649
-0.0498136
0.0852255
-0.0484774
0.0971574
-0.0471723
-0.0463562
0.10891
0.00245802
-0.0120833
0.0104276
-0.0393973
0.0217287
-0.0561342
0.034369
-0.063012
0.04728
-0.0645116
0.0600248
-0.0637586
0.0724627
-0.0622515
0.0845671
-0.0605817
0.0963558
-0.058961
-0.0579696
0.107969
0.00257544
-0.0146587
0.0106085
-0.0474304
0.0218478
-0.0673736
0.034335
-0.0754992
0.0470478
-0.0772244
0.0595806
-0.0762914
0.0718091
-0.0744801
0.083714
-0.0724866
0.0953195
-0.0705665
-0.0693992
0.106749
0.00271887
-0.0173776
0.0108215
-0.0555331
0.0219734
-0.0785254
0.0342613
-0.0877871
0.0467219
-0.089685
0.0589891
-0.0885586
0.0709586
-0.0864495
0.0826195
-0.0841475
0.0940008
-0.0819479
-0.0805912
0.105193
0.00288237
-0.02026
0.0110475
-0.0636982
0.0220717
-0.0895496
0.0341015
-0.0998169
0.0462459
-0.101829
0.0581865
-0.100499
0.0698439
-0.098107
0.0812178
-0.0955214
0.0923373
-0.0930674
-0.091477
0.103223
0.00305238
-0.0233124
0.0112501
-0.071896
0.0220842
-0.100384
0.0337768
-0.111509
0.0455229
-0.113576
0.0570601
-0.112036
0.0683386
-0.109385
0.0793713
-0.106554
0.0901783
-0.103874
-0.101933
0.100634
0.00320382
-0.0265162
0.0113677
-0.0800598
0.0219116
-0.110928
0.0331484
-0.122746
0.0443689
-0.124796
0.0553719
-0.123039
0.0661398
-0.120153
0.0766987
-0.117113
0.0870434
-0.114219
-0.111671
0.0967811
0.00332224
0.011369
0.021505
0.0321403
0.0426563
0.0529021
0.0628843
0.0726478
0.0821701
0.0908392
0.157721
-0.134914
0.0873233
0.182441
-0.0976889
0.0729686
0.19474
-0.0726365
0.0603374
0.20061
-0.0547226
0.0488528
0.203115
-0.0411124
0.0386071
0.203745
-0.0303412
0.0297115
0.203279
-0.0216414
0.0221081
0.202137
-0.0144556
0.0155974
0.200561
-0.00854087
0.0101167
-0.00193049
0.00389141
0.156694
-0.181992
0.181462
-0.122458
0.194003
-0.0851776
0.200118
-0.0608368
0.202822
-0.0438169
0.203615
-0.0311336
0.203287
-0.0213144
0.202273
-0.0134413
0.20082
-0.00708766
-9.44155e-05
0.15493
-0.228012
0.179608
-0.147135
0.192424
-0.0979937
0.198878
-0.0672906
0.201896
-0.0468349
0.202974
-0.0322121
0.202915
-0.0212549
0.202159
-0.0126856
0.200962
-0.00588998
0.00148193
0.152395
-0.272438
0.176864
-0.171605
0.19
-0.11113
0.196893
-0.0741835
0.20034
-0.0502822
0.201828
-0.0336995
0.202163
-0.02159
0.201795
-0.012318
0.200985
-0.00507941
0.00266454
0.14905
-0.314739
0.173222
-0.195777
0.186734
-0.124641
0.194168
-0.0816179
0.198162
-0.0542758
0.20018
-0.0357178
0.201035
-0.0224445
0.201182
-0.0124657
0.200888
-0.00478535
0.00332109
0.144833
-0.354379
0.168671
-0.219615
0.182631
-0.138601
0.190713
-0.0896995
0.195371
-0.0589338
0.19804
-0.0383874
0.199536
-0.0239403
0.200323
-0.0132526
0.200672
-0.00513424
0.00332176
0.139573
-0.390729
0.163174
-0.243216
0.177695
-0.153121
0.186539
-0.0985437
0.191981
-0.0643757
0.19542
-0.0418268
0.197676
-0.0261964
0.199223
-0.014799
0.200337
-0.00624869
0.00254009
0.133286
-0.42338
0.156618
-0.266549
0.171888
-0.168391
0.181649
-0.108304
0.188003
-0.0707306
0.192332
-0.0461556
0.195465
-0.0293288
0.197886
-0.0172208
0.199885
-0.00824692
0.000853849
0.125649
-0.452248
0.148669
-0.289569
0.165008
-0.18473
0.175957
-0.119253
0.183414
-0.0781877
0.188775
-0.051517
0.192907
-0.0334605
0.196319
-0.0206332
0.199316
-0.0112434
-0.00185463
0.117501
-0.47891
0.140219
-0.312288
0.157547
-0.202057
0.169669
-0.131376
0.178299
-0.0868175
0.184791
-0.0580084
0.190024
-0.0386942
0.194532
-0.0251406
0.198633
-0.015345
-0.00569803
0.363998
-0.424833
-0.418074
0.336299
-0.284589
0.323346
-0.189105
0.317503
-0.125532
0.314482
-0.0837965
0.312633
-0.0561594
0.311377
-0.0374382
0.310515
-0.0242785
0.309956
-0.0147865
-0.00547773
0.377277
-0.363527
-0.438583
0.347157
-0.254468
0.331638
-0.173586
0.32332
-0.117214
0.318435
-0.0789117
0.315331
-0.0530547
0.31327
-0.0353775
0.31191
-0.022918
0.311063
-0.0139396
-0.00515719
0.391321
-0.304613
-0.450235
0.358442
-0.22159
0.339736
-0.15488
0.328849
-0.106327
0.322176
-0.0722383
0.317888
-0.0487672
0.315067
-0.032556
0.313232
-0.0210836
0.312108
-0.0128153
-0.00473798
0.401034
-0.24941
-0.456237
0.367254
-0.187809
0.346563
-0.13419
0.333725
-0.0934893
0.325556
-0.0640695
0.320229
-0.0434402
0.316721
-0.0290472
0.314451
-0.0188144
0.313069
-0.0114334
-0.00422582
0.408044
-0.1984
-0.459055
0.374253
-0.154018
0.352244
-0.112181
0.337913
-0.0791577
0.328518
-0.0546752
0.322304
-0.0372263
0.318195
-0.0249373
0.31554
-0.0161594
0.313926
-0.00982027
-0.00362923
0.412989
-0.151422
-0.459966
0.379658
-0.120687
0.35682
-0.089344
0.341382
-0.063719
0.331016
-0.0443099
0.324073
-0.030283
0.319458
-0.0203219
0.316474
-0.0131758
0.314662
-0.00800772
-0.00295898
0.416359
-0.107907
-0.459875
0.383671
-0.0879989
0.360346
-0.0660186
0.344118
-0.0474917
0.333017
-0.0332089
0.325503
-0.0227685
0.320484
-0.0153029
0.317235
-0.00992655
0.315259
-0.00603196
-0.00222756
0.418383
-0.0669076
-0.459382
0.386329
-0.0559452
0.362764
-0.0424542
0.346028
-0.0307557
0.33442
-0.0216002
0.326498
-0.0148468
0.321186
-0.00999097
0.317742
-0.0064828
0.315645
-0.00393487
-0.00145
0.416184
-0.0262227
-0.456869
0.384822
-0.0245825
0.361486
-0.0191183
0.344712
-0.0139821
0.332974
-0.00986154
0.32492
-0.00679371
0.319507
-0.00457706
0.315996
-0.00297196
0.313859
-0.00179827
-0.000657285
0.35128
-0.377503
0.326697
0.307579
0.293597
0.283735
0.276942
0.272365
0.269393
0.267594
0.451172
0.00917265
-0.450312
0.451251
0.0213551
0.450519
0.0331068
0.448912
0.0442863
0.446276
0.0548295
0.442849
0.0642114
0.43744
0.074089
0.432982
0.0792744
0.422047
0.0933533
0.0877331
0.432923
0.00840683
-0.432157
0.433897
0.0203815
0.43499
0.0320129
0.436163
0.0431134
0.43723
0.0537626
0.438385
0.0630566
0.438915
0.0735591
0.439943
0.0782467
0.440749
0.0925469
0.0898986
0.417854
0.00741269
-0.41686
0.419548
0.0186876
0.421882
0.0296785
0.424822
0.0401737
0.428282
0.050303
0.432203
0.0591347
0.436655
0.0691073
0.440831
0.0740713
0.446624
0.086754
0.0862871
0.406119
0.00633211
-0.405038
0.408242
0.0165648
0.41137
0.02655
0.415453
0.036091
0.420467
0.0452884
0.42621
0.0533923
0.433062
0.0622551
0.439795
0.0673382
0.448709
0.0778398
0.0787596
0.39693
0.00518564
-0.395784
0.399362
0.0141336
0.403043
0.022869
0.407917
0.0312171
0.413981
0.0392239
0.421019
0.0463544
0.429418
0.0538557
0.438104
0.0586525
0.448928
0.0670153
0.068633
0.389924
0.00398385
-0.388722
0.392573
0.0114848
0.396636
0.0188058
0.402055
0.0257978
0.408821
0.0324581
0.416749
0.0384265
0.426122
0.0444825
0.436128
0.0486464
0.448102
0.0550421
0.0567688
0.384781
0.00272783
-0.383525
0.387596
0.00867058
0.391934
0.0144673
0.397736
0.0199963
0.404969
0.0252244
0.413485
0.0299113
0.423453
0.0345142
0.434303
0.0377963
0.446946
0.0423989
0.04384
0.380941
0.00136409
-0.379577
0.383939
0.00567271
0.388542
0.00986394
0.394679
0.0138592
0.402286
0.017617
0.411225
0.0209727
0.421555
0.0241845
0.432899
0.0264521
0.445848
0.0294499
0.0303064
0.371833
-6.88573e-05
-0.3704
0.37526
0.0022463
0.380473
0.0046509
0.387387
0.00694466
0.395884
0.00912021
0.40577
0.0110866
0.416999
0.0129553
0.429185
0.0142665
0.44266
0.0159748
0.0160974
0.28416
-0.284229
0.286406
0.291057
0.298002
0.307122
0.318209
0.331164
0.34543
0.361405
0.0792747
0.124837
-0.113477
-0.0906345
0.068906
0.127179
-0.11681
0.0591399
0.130075
-0.120309
0.0496078
0.133564
-0.124031
0.0400493
0.137442
-0.127884
0.0303497
0.141498
-0.131799
0.0205633
0.144765
-0.134979
0.0111402
0.142917
-0.133494
0.00343412
0.123009
-0.115303
0.0617245
-0.0582904
0.0769727
0.134468
-0.0866035
0.0672075
0.136944
0.0575192
0.139764
0.047948
0.143135
0.0384202
0.14697
0.0288757
0.151043
0.0193766
0.154264
0.0103628
0.151931
0.00312221
0.13025
0.0648467
0.0693451
0.142526
-0.0774035
0.06092
0.145369
0.0523156
0.148368
0.043621
0.151829
0.0348538
0.155737
0.0260206
0.159876
0.0172361
0.163049
0.00898975
0.160177
0.00255239
0.136687
0.0673991
0.0595414
0.149245
-0.0662598
0.0525029
0.152408
0.0451884
0.155683
0.0376591
0.159359
0.029959
0.163437
0.022135
0.1677
0.0143527
0.170831
0.00715866
0.167371
0.00180243
0.142044
0.0692016
0.0497206
0.154965
-0.0554413
0.0437842
0.158344
0.0375987
0.161868
0.0311898
0.165767
0.0245916
0.170036
0.0178622
0.174429
0.0112005
0.177493
0.00518714
0.173385
0.00101722
0.146213
0.0702188
0.040242
0.159864
-0.045141
0.0352172
0.163369
0.030017
0.167068
0.0246453
0.171139
0.0191192
0.175562
0.0134967
0.180052
0.00799816
0.182991
0.0032271
0.178156
0.000213676
0.149227
0.0704325
0.0307337
0.163918
-0.0347877
0.026619
0.167483
0.0223937
0.171294
0.0180516
0.175481
0.0136019
0.180011
0.00910614
0.184547
0.00478441
0.187313
0.00125628
0.181684
-0.000476938
0.15096
0.0699555
0.0209398
0.167004
-0.024026
0.0178257
0.170598
0.0146367
0.174483
0.0113684
0.17875
0.00802703
0.183353
0.00468535
0.187889
0.00160516
0.190393
-0.000692217
0.183981
-0.00109418
0.151362
0.0688613
0.0108566
0.169033
-0.0128851
0.00881995
0.172634
0.00673673
0.176566
0.0046093
0.180877
0.00244742
0.185515
0.000312653
0.190024
-0.00151386
0.19222
-0.00235491
0.184822
-0.00170915
0.150716
0.0671522
0.000727532
-0.00169524
-0.000206866
-0.00115181
-0.00211546
-0.00307935
-0.00393877
-0.0044478
-0.00404055
-0.00225401
0.10688
0.0223545
-0.11819
-0.0110453
0.0952079
0.02296
-0.0112875
0.0831886
0.0235671
-0.0115479
0.0708113
0.0242061
-0.0118288
0.0580598
0.0248867
-0.0121352
0.0449174
0.0256079
-0.0124655
0.0314269
0.0262642
-0.0127737
0.0179828
0.0262198
-0.0127757
0.00617765
0.0232256
-0.0114204
0.0124676
-0.00628997
0.105996
0.0336268
-0.117268
0.0943785
0.0345776
0.0824269
0.0355187
0.0701297
0.0365033
0.0574699
0.0375465
0.0444307
0.0386471
0.0310555
0.0396394
0.0177416
0.0395337
0.00607647
0.0348907
0.0185441
0.104727
0.0448392
-0.11594
0.0931985
0.0461066
0.0813511
0.0473661
0.0691726
0.0486817
0.0566457
0.0500735
0.0437532
0.0515396
0.0305408
0.0528518
0.0174084
0.0526662
0.00593501
0.046364
0.0244791
0.102988
0.0559543
-0.114103
0.0915908
0.0575038
0.0798934
0.0590635
0.0678825
0.0606926
0.0555398
0.0624162
0.0428486
0.0642308
0.0298577
0.0658427
0.0169732
0.0655507
0.0057546
0.0575826
0.0302337
0.100677
0.0669292
-0.111652
0.0894657
0.0687152
0.0779785
0.0705507
0.0661986
0.0724724
0.0541052
0.0745096
0.0416806
0.0766555
0.0289782
0.0785451
0.0164143
0.0781145
0.0055365
0.0684604
0.0357702
0.0976781
0.0777101
-0.108459
0.086718
0.0796753
0.0755114
0.0817573
0.0640373
0.0839466
0.0522705
0.0862764
0.0401918
0.0887341
0.0278583
0.0908787
0.0156956
0.0902772
0.00523677
0.0789192
0.041007
0.0938831
0.0881819
-0.104355
0.0833204
0.0902379
0.0725352
0.0925426
0.061485
0.0949968
0.0501384
0.097623
0.0384799
0.100393
0.0265797
0.102779
0.0148818
0.101975
0.0049045
0.0888965
0.0459115
0.0886166
0.0981534
-0.0985881
0.0786147
0.10024
0.0684354
0.102722
0.0580101
0.105422
0.0472869
0.108346
0.0362414
0.111438
0.0249482
0.114072
0.0138656
0.113058
0.00449258
0.0982695
0.0504041
0.0844364
0.107096
-0.0933792
0.0752849
0.109391
0.0656454
0.112361
0.0555979
0.11547
0.0452136
0.11873
0.0345284
0.122123
0.0236453
0.124955
0.0130373
0.123666
0.00416675
0.10714
0.0545708
0.0744915
-0.0808724
0.0670728
0.0591249
0.0505631
0.0414098
0.0317346
0.0217109
0.0118827
0.00371962
0.201298
0.0143908
-0.0176992
0.203695
0.0241846
-0.0265813
0.203774
0.0293658
-0.0294453
0.204647
0.0312936
-0.0321657
0.204142
0.0373814
-0.0368772
0.201875
0.045861
-0.043594
0.196464
0.0575921
-0.0521806
0.18574
0.0734069
-0.0626836
0.162134
0.0980558
-0.0744492
0.132558
-0.0886134
0.201096
0.0112848
0.203366
0.0219147
0.20339
0.0293418
0.204185
0.0304983
0.203571
0.0379953
0.201147
0.0482849
0.195535
0.0632042
0.184519
0.0844231
0.160839
0.121735
0.176129
0.200765
0.00850945
0.202752
0.0199283
0.202626
0.0294673
0.203213
0.0299113
0.202356
0.0388521
0.199651
0.0509897
0.193735
0.0691209
0.182334
0.0958238
0.158609
0.14546
0.218798
0.200302
0.00619762
0.201857
0.0183731
0.201494
0.0298298
0.20174
0.0296653
0.200509
0.0400839
0.197398
0.0540999
0.191061
0.0754586
0.179171
0.107713
0.155262
0.169369
0.259957
0.199698
0.00448945
0.200687
0.0173845
0.200009
0.0305073
0.199779
0.0298955
0.198042
0.0418203
0.194402
0.0577403
0.187513
0.0823474
0.175025
0.120202
0.150891
0.193504
0.299195
0.198946
0.0035336
0.199248
0.0170818
0.198188
0.0315679
0.197342
0.0307416
0.194975
0.0441868
0.190678
0.0620373
0.183094
0.0899319
0.169895
0.1334
0.146065
0.217334
0.336801
0.198035
0.00348869
0.197552
0.0175645
0.196051
0.0330693
0.194443
0.0323491
0.191328
0.0473016
0.186246
0.06712
0.177815
0.0983627
0.163751
0.147464
0.140955
0.240131
0.373401
0.196955
0.00452369
0.195611
0.0189085
0.193619
0.0350606
0.191099
0.0348698
0.187128
0.0512727
0.18113
0.0731173
0.171746
0.107747
0.156607
0.162602
0.135013
0.261724
0.409826
0.195702
0.00681123
0.193449
0.0211616
0.190918
0.0375914
0.187324
0.0384637
0.182401
0.056196
0.175379
0.080139
0.165044
0.118083
0.14931
0.178336
0.1294
0.281635
0.445847
0.194392
0.0104095
0.19109
0.0244634
0.188002
0.0406795
0.183116
0.0433494
0.177232
0.0620803
0.169064
0.0883064
0.157246
0.129901
0.139854
0.195728
0.11848
0.303009
0.483454
0.302999
0.00942082
0.305112
0.0223504
0.308674
0.0371172
0.310149
0.0418748
0.312455
0.0597744
0.315192
0.0855693
0.319743
0.12535
0.32924
0.186232
0.354597
0.277652
0.424148
0.413903
0.303781
0.00764975
0.306224
0.0199081
0.310131
0.0332099
0.312604
0.0394015
0.316163
0.0562151
0.321035
0.080698
0.328927
0.117457
0.343221
0.171937
0.373257
0.247616
0.365962
0.431443
0.304501
0.00515937
0.307445
0.0169635
0.311589
0.0290663
0.314975
0.0360157
0.319663
0.0515272
0.326335
0.0740252
0.336848
0.106945
0.354393
0.154392
0.386757
0.215252
0.308747
0.443972
0.305212
0.00195738
0.308646
0.0135301
0.313022
0.02469
0.317179
0.0318587
0.322887
0.0458194
0.331091
0.0658209
0.343655
0.0943809
0.36352
0.134528
0.396587
0.182185
0.254246
0.451087
0.305956
-0.00198871
0.309832
0.00965403
0.31439
0.0201324
0.319171
0.0270778
0.325755
0.0392351
0.335219
0.0563569
0.349346
0.0802544
0.370791
0.113083
0.40356
0.149415
0.203215
0.454592
0.306775
-0.00675324
0.311024
0.00540437
0.315662
0.0154944
0.320911
0.0218289
0.328212
0.0319346
0.338674
0.0458947
0.353956
0.0649724
0.376403
0.0906356
0.408429
0.117389
0.155768
0.455876
0.307721
-0.0124639
0.312244
0.000880884
0.31681
0.0109286
0.322363
0.016276
0.330214
0.0240834
0.341431
0.0346783
0.357536
0.0488667
0.380563
0.0676088
0.411743
0.0862097
0.111554
0.455956
0.308865
-0.0193189
0.313506
-0.00375991
0.31776
0.00667467
0.323444
0.0105918
0.331687
0.0158404
0.343438
0.0229277
0.360104
0.0322
0.383428
0.0442855
0.413846
0.0557918
0.0700088
0.455391
0.308645
-0.0259533
0.312795
-0.00791005
0.316583
0.0028867
0.322289
0.00488522
0.330769
0.00736091
0.342861
0.010835
0.359889
0.0151725
0.383331
0.0208432
0.413239
0.0258839
0.0317
0.451548
0.276057
0.268147
0.271034
0.275919
0.28328
0.294115
0.309287
0.33013
0.356014
0.387714
0.426455
-0.103187
0.429537
-0.0896857
0.431548
-0.0794148
0.434316
-0.0690269
0.437654
-0.0587793
0.441069
-0.0485564
0.444226
-0.0379445
0.446888
-0.0266881
0.448928
-0.0149255
-0.00307902
0.431285
-0.103029
0.431003
-0.089403
0.430368
-0.0787799
0.430329
-0.0689884
0.430563
-0.0590133
0.430759
-0.048752
0.430901
-0.0380865
0.431135
-0.0269222
0.431577
-0.0153677
-0.00365884
0.437641
-0.0966985
0.432953
-0.0847155
0.428698
-0.0745248
0.425019
-0.0653097
0.422055
-0.0560492
0.419727
-0.0464235
0.418025
-0.0363848
0.416995
-0.0258915
0.416628
-0.015001
-0.00389081
0.44092
-0.0865313
0.432797
-0.0765924
0.425859
-0.067587
0.419901
-0.0593517
0.414962
-0.0511093
0.411007
-0.0424694
0.408014
-0.0333918
0.406005
-0.0238823
0.405005
-0.0140009
-0.00392397
0.442208
-0.0741467
0.431849
-0.0662336
0.423018
-0.0587567
0.415439
-0.0517724
0.409075
-0.0447455
0.403931
-0.0373252
0.40001
-0.0294708
0.397335
-0.0212067
0.39593
-0.0125964
-0.0037778
0.442215
-0.0604851
0.430446
-0.0544651
0.420324
-0.0486347
0.411631
-0.0430793
0.404305
-0.03742
0.398357
-0.0313773
0.393805
-0.0249179
0.390671
-0.018073
0.388977
-0.0109029
-0.00352255
0.441556
-0.0460847
0.428926
-0.0418353
0.417981
-0.0376895
0.408566
-0.0336647
0.400614
-0.0294675
0.394136
-0.024899
0.38916
-0.0199423
0.385718
-0.0146311
0.383838
-0.00902307
-0.0032097
0.440508
-0.0312019
0.427336
-0.0286632
0.415897
-0.0262501
0.406032
-0.0238
0.397669
-0.0211041
0.390829
-0.0180599
0.385558
-0.0146713
0.381901
-0.0109732
0.379895
-0.00701785
-0.00289123
0.435761
-0.0154155
0.421977
-0.0148788
0.409951
-0.0142241
0.399465
-0.0133145
0.390464
-0.0121024
0.383002
-0.0105986
0.377176
-0.00884464
0.373085
-0.00688231
0.370815
-0.00474765
-0.00247712
0.372299
0.35742
0.343196
0.329882
0.317779
0.307181
0.298336
0.291454
0.286706
0.00742307
0.0789274
-0.0863504
0.0139966
0.183908
-0.190482
0.0166893
0.228202
-0.230895
0.0169753
0.239167
-0.239453
0.0163059
0.238155
-0.237486
0.0154428
0.23434
-0.233477
0.014605
0.230446
-0.229608
0.013785
0.226821
-0.226001
0.0128765
0.222496
-0.221588
0.213658
0.0116874
-0.212469
0.00894182
0.0699855
0.0191545
0.173696
0.0260306
0.221326
0.0303312
0.234866
0.0335866
0.2349
0.0366883
0.231238
0.0399566
0.227178
0.0433699
0.223407
0.0464785
0.219388
0.212424
0.0477128
0.00952211
0.0604634
0.02245
0.160768
0.033047
0.210729
0.0412292
0.226684
0.0482862
0.227843
0.0551699
0.224354
0.0623117
0.220036
0.0697808
0.215938
0.0771759
0.211992
0.206983
0.0826163
0.00917794
0.0512855
0.0236224
0.146323
0.0370744
0.197277
0.0486053
0.215153
0.059051
0.217397
0.069268
0.214137
0.0797406
0.209563
0.0906506
0.205028
0.101873
0.20077
0.196476
0.11238
0.00813757
0.0431479
0.0228606
0.1316
0.0380785
0.182059
0.0521238
0.201108
0.065269
0.204252
0.078132
0.201274
0.0911554
0.19654
0.104572
0.191612
0.118451
0.186891
0.182222
0.132705
0.00674355
0.0364044
0.0207517
0.117592
0.0366341
0.166176
0.052206
0.185536
0.0671718
0.189286
0.0818219
0.186624
0.09647
0.181892
0.111324
0.176758
0.126513
0.171701
0.166398
0.142337
0.00534503
0.0310593
0.0180948
0.104842
0.0337846
0.150487
0.0499665
0.169354
0.0658758
0.173377
0.081469
0.171031
0.0968885
0.166472
0.112271
0.161375
0.127695
0.156278
0.150627
0.143466
0.00418144
0.0268779
0.0155693
0.0934543
0.0305636
0.135492
0.0466524
0.153265
0.0627489
0.15728
0.0785367
0.155243
0.0939936
0.151016
0.109173
0.146196
0.124164
0.141287
0.135819
0.138972
0.00336842
0.0235095
0.0136118
0.083211
0.0277842
0.12132
0.0434315
0.137618
0.059304
0.141408
0.0749233
0.139624
0.0901695
0.135769
0.105066
0.1313
0.119701
0.126652
0.120941
0.134578
0.00286381
0.0206457
0.0122591
0.0738157
0.0256464
0.107933
0.0406568
0.122608
0.0559614
0.126103
0.0709626
0.124623
0.0854133
0.121319
0.0991877
0.117525
0.112087
0.113752
0.109136
0.123892
0.0026088
0.0180369
0.0114824
0.0649421
0.0243036
0.0951116
0.0388051
0.108106
0.0536825
0.111226
0.0683517
0.109954
0.0826075
0.107063
0.0964219
0.103711
0.109829
0.100345
0.0974538
0.121512
0.00249197
0.0155449
0.0110617
0.0563723
0.0234975
0.0826758
0.0376077
0.0939959
0.0521247
0.0967085
0.0664767
0.0956016
0.0804522
0.0930874
0.0939933
0.0901696
0.107113
0.0872253
0.0853028
0.119264
0.00241551
0.0131294
0.0107708
0.048017
0.022904
0.0705426
0.0366673
0.0802327
0.0508199
0.082556
0.0648008
0.0816207
0.0783972
0.079491
0.0915435
0.0770234
0.104235
0.0745338
0.0731235
0.116414
0.00235264
0.0107768
0.0105446
0.0398251
0.0224469
0.0586403
0.0359384
0.0667411
0.0498012
0.0686932
0.063489
0.0679329
0.0767954
0.0661846
0.0896563
0.0641624
0.102063
0.0621267
0.061051
0.114136
0.00230208
0.00847467
0.0103735
0.0317536
0.0221133
0.0469005
0.0354177
0.0534367
0.0490853
0.0550256
0.062583
0.0544352
0.075713
0.0530546
0.0884167
0.0514586
0.10069
0.0498535
0.0490431
0.112698
0.00226317
0.0062115
0.0102476
0.0237692
0.0218768
0.0352713
0.0350587
0.0402549
0.048603
0.0414813
0.0619863
0.0410519
0.0750176
0.0400233
0.0876437
0.0388325
0.0998631
0.0376341
0.0370589
0.111847
0.0022362
0.0039753
0.0101602
0.0158452
0.0217147
0.0237168
0.0348168
0.0271528
0.0482839
0.0280142
0.0615988
0.0277369
0.0745754
0.0270468
0.0871636
0.0262443
0.0993631
0.0254346
0.0250801
0.111342
0.00222173
0.00175357
0.0101068
0.00796013
0.0216106
0.012213
0.0346579
0.0141056
0.0480728
0.0145993
0.0613427
0.014467
0.0742849
0.0141046
0.0868517
0.0136775
0.0990429
0.0132434
0.0131006
0.111022
0.00222006
-0.000466491
0.0100838
9.63975e-05
0.0215512
0.000745609
0.034555
0.00110171
0.0479263
0.001228
0.0611573
0.00123599
0.0740683
0.00119358
0.0866135
0.0011323
0.0987932
0.00106376
0.00112697
0.110767
0.00223114
0.010088
0.0215266
0.0344879
0.0478119
0.0609971
0.0738676
0.0863798
0.0985348
0.110493
0.137897
0.261569
-0.277954
0.150085
0.114743
-0.126931
0.15956
0.0394182
-0.0488929
0.166838
0.00560952
-0.0128876
0.172911
-0.00773069
0.00165702
0.178304
-0.0117622
0.00636942
0.183245
-0.0117959
0.00685528
0.187834
-0.0102329
0.00564416
0.192113
-0.00819035
0.00391133
-0.00541917
0.00153376
0.141695
0.239139
0.156497
0.0999406
0.166286
0.0296283
0.173184
-0.0012883
0.178449
-0.0129956
0.182866
-0.0161793
0.186744
-0.0156742
0.190225
-0.0137136
0.19338
-0.0113456
-0.00818771
0.144923
0.21063
0.162019
0.0828443
0.172223
0.0194246
0.178789
-0.00785414
0.183436
-0.0176429
0.18701
-0.0197532
0.189941
-0.0186051
0.192424
-0.0161968
0.194565
-0.0134867
-0.00994576
0.147951
0.176814
0.166948
0.0638479
0.177552
0.00882012
0.183853
-0.0141545
0.187908
-0.0216985
0.190733
-0.0225773
0.192823
-0.0206958
0.194422
-0.0177958
0.195663
-0.0147277
-0.0108052
0.150946
0.138566
0.171305
0.0434885
0.182226
-0.00210083
0.188294
-0.0202227
0.191844
-0.0252486
0.194018
-0.0247514
0.19538
-0.0220575
0.196211
-0.0186271
0.19667
-0.0151864
-0.0108823
0.15339
0.0970234
0.175018
0.0218605
0.186215
-0.0132972
0.192092
-0.0260998
0.195221
-0.0283781
0.196851
-0.0263807
0.197599
-0.022806
0.197783
-0.0188111
0.197581
-0.0149843
-0.0102982
0.155354
0.0530114
0.178046
-0.000831169
0.189482
-0.0247339
0.195218
-0.0318356
0.198019
-0.0311787
0.199213
-0.0275753
0.199468
-0.0230611
0.199129
-0.0184721
0.198392
-0.0142469
-0.00917751
0.156824
0.00720983
0.180336
-0.024343
0.191994
-0.0363922
0.19765
-0.0374911
0.200219
-0.0337482
0.201093
-0.0284497
0.200978
-0.0229457
0.200243
-0.017737
0.199099
-0.0131025
-0.00764856
0.157739
-0.0397623
0.181854
-0.0484584
0.193722
-0.0482596
0.199368
-0.0431372
0.201808
-0.0361889
0.20248
-0.0291217
0.20212
-0.0225856
0.201119
-0.0167351
0.199698
-0.0116816
-0.00584221
0.158054
0.182565
0.194643
0.200358
0.202776
0.203366
0.202889
0.201751
0.200186
0.160941
0.0194719
-0.180413
0.147374
0.0135674
0.140995
0.00637851
0.139122
0.00187307
0.139337
-0.000215016
0.140279
-0.000941731
0.141297
-0.00101821
0.142135
-0.000837998
0.142706
-0.000570915
-0.000217132
0.236405
0.0879201
-0.304853
0.206612
0.0433596
0.194978
0.0180125
0.191524
0.00532723
0.191464
-0.00015482
0.192596
-0.00207388
0.193935
-0.00235683
0.19507
-0.00197289
0.195866
-0.00136712
-0.000530948
0.241859
0.157273
-0.311212
0.211368
0.073851
0.199615
0.0297648
0.196265
0.00867721
0.196336
-0.000225829
0.197563
-0.00330063
0.198973
-0.00376698
0.20016
-0.00315923
0.200993
-0.00220067
-0.00086115
0.236682
0.220981
-0.30039
0.208892
0.101642
0.198554
0.0401025
0.195971
0.01126
0.196408
-0.000663
0.197827
-0.00471941
0.199319
-0.00525936
0.200541
-0.0043812
0.201389
-0.0030486
-0.0011955
0.230839
-0.287812
0.20555
0.19676
0.195132
0.196126
0.197776
0.199372
0.200635
0.201498
0.016739
-0.000131432
-0.0166076
0.0191284
-0.00238938
0.0239539
-0.00482549
0.0318649
-0.00791105
0.0440796
-0.0122147
0.061539
-0.0174594
0.0857652
-0.0242262
0.11374
-0.0279752
0.148734
-0.0349937
-0.0316791
0.0469763
-0.0012527
-0.045855
0.0543412
-0.00975428
0.068578
-0.0190623
0.0905761
-0.0299091
0.120512
-0.042151
0.156932
-0.0538786
0.19726
-0.0645548
0.236026
-0.0667407
0.274119
-0.0730868
-0.0624132
0.0715913
-0.00366227
-0.0691818
0.0827199
-0.0208828
0.102874
-0.0392161
0.13147
-0.0585059
0.165857
-0.0765379
0.20181
-0.0898316
0.234901
-0.0976452
0.263421
-0.0952613
0.289395
-0.0990609
-0.0842301
0.0894805
-0.00723925
-0.0859035
0.102588
-0.0339908
0.124607
-0.0612351
0.153008
-0.0869062
0.183479
-0.107009
0.212209
-0.118562
0.236887
-0.122323
0.259986
-0.11836
0.281011
-0.120086
-0.103609
0.101234
-0.0967855
0.114956
0.136337
0.161811
0.187507
0.211282
0.232425
0.253037
0.267529
0.0971513
-0.0899398
0.0982731
-0.105485
0.0879907
-0.0924987
0.101659
0.078314
-0.0958013
0.105478
0.067805
-0.0991706
0.10968
0.0563949
-0.102578
0.113988
0.0441322
-0.106052
0.118315
0.0311635
-0.109133
0.122101
0.0179797
-0.108941
0.122125
0.00623781
-0.0957075
0.107449
-0.0500054
0.0562433
0.105116
-0.0795533
-0.115503
0.0944304
-0.0818126
0.082998
-0.0843689
0.0709063
-0.0870788
0.0582749
-0.0899463
0.0451692
-0.0929462
0.0316678
-0.0956312
0.0181792
-0.0954523
0.00629149
-0.0838198
-0.043714
0.10488
-0.0683442
-0.116089
0.09352
-0.0704529
0.0818588
-0.0727077
0.0698377
-0.0750576
0.0574031
-0.0775118
0.0445172
-0.0800603
0.0312157
-0.0823297
0.0178977
-0.0821342
0.00616117
-0.0720833
-0.0375528
0.106432
-0.0570205
-0.117756
0.0949041
-0.0589247
0.0830357
-0.0608394
0.0707842
-0.0628061
0.0581182
-0.0648459
0.0450193
-0.0669613
0.0315355
-0.0688459
0.018072
-0.0686708
0.00622839
-0.0602396
-0.0313244
0.107189
-0.0456738
-0.118535
0.0955373
-0.0472733
0.0835313
-0.0488333
0.0711533
-0.0504282
0.0583837
-0.0520762
0.0452036
-0.0537813
0.0316552
-0.0552975
0.0181348
-0.0551504
0.00623861
-0.0483434
-0.0250858
0.107654
-0.0343269
-0.119001
0.0959623
-0.0355815
0.0839062
-0.0367772
0.0714728
-0.0379947
0.058645
-0.0392484
0.0454059
-0.0405421
0.0317977
-0.0416893
0.0182153
-0.041568
0.00626406
-0.0363922
-0.0188217
0.10791
-0.0229746
-0.119262
0.0961914
-0.0238629
0.0841054
-0.0246913
0.0716408
-0.0255301
0.0587819
-0.0263895
0.0455128
-0.027273
0.0318755
-0.0280521
0.0182647
-0.0279572
0.00628885
-0.0244163
-0.0125329
0.107971
-0.0116214
-0.119324
0.09624
-0.0121321
0.0841434
-0.0125947
0.07167
-0.0130567
0.0588044
-0.0135239
0.0455304
-0.0139991
0.0318902
-0.0144118
0.0182773
-0.0143443
0.00629653
-0.0124355
-0.00623635
0.107815
-0.000298099
-0.119138
0.0960924
-0.000409949
0.0840068
-0.000509066
0.0715471
-0.00059701
0.0586981
-0.000674836
0.0454437
-0.000744668
0.031826
-0.000794087
0.0182379
-0.000756241
0.00628053
-0.000478167
4.41753e-05
0.107445
-0.118788
0.0957471
0.0836901
0.0712643
0.0584543
0.0452441
0.0316763
0.0181444
0.0062458
0.0207192
-0.209285
-0.0239029
0.0161416
-0.21701
0.0112964
-0.221155
0.00649796
-0.22481
0.00181038
-0.228789
-0.00264824
-0.233027
-0.00632271
-0.235778
-0.0076527
-0.229565
-0.00518271
-0.192952
-0.0915331
0.052017
-0.203006
-0.058296
0.0438283
-0.208821
0.0353575
-0.212685
0.0270452
-0.216498
0.0189511
-0.220695
0.0111299
-0.225206
0.0039764
-0.228625
-0.00141836
-0.22417
-0.00259347
-0.191777
-0.0941266
0.0785012
-0.192768
-0.0887392
0.0670554
-0.197376
0.0556551
-0.201284