/*--------------------------------*- C++ -*----------------------------------*\
  =========                 |
  \\      /  F ield         | OpenFOAM: The Open Source CFD Toolbox
   \\    /   O peration     | Website:  https://openfoam.org
    \\  /    A nd           | Version:  13
     \\/     M anipulation  |
\*---------------------------------------------------------------------------*/
FoamFile
{
    format      ascii;
    class       volVectorField;
    location    "0.13";
    object      U;
}
// * * * * * * * * * * * * * * * * * * * * * * * * * * * * * * * * * * * * * //

dimensions      [0 1 -1 0 0 0 0];

internalField   nonuniform List<vector> 
440
(
(0.218231 -0.17666 -1.81295e-19)
(0.613085 -0.436672 1.0747e-18)
(0.98439 -0.641101 4.15523e-19)
(1.32775 -0.79592 1.25798e-18)
(1.6329 -0.917651 -2.60343e-19)
(0.304865 -0.177663 -5.43793e-19)
(0.819133 -0.428686 -1.01855e-18)
(1.28005 -0.618954 1.15676e-19)
(1.69207 -0.761827 -1.21502e-18)
(2.05399 -0.875472 -1.02178e-18)
(0.384866 -0.152397 -6.97699e-19)
(1.00469 -0.362997 1.58946e-18)
(1.53981 -0.518384 -1.9324e-18)
(2.00484 -0.632674 1.3875e-18)
(2.40613 -0.721587 1.42489e-18)
(0.445874 -0.102745 5.6229e-19)
(1.14613 -0.243078 -1.29928e-18)
(1.73751 -0.344807 -7.51521e-19)
(2.24305 -0.418228 1.96388e-18)
(2.67461 -0.474495 2.50149e-18)
(0.479274 -0.036159 6.86977e-19)
(1.22368 -0.0847551 1.69272e-19)
(1.84597 -0.119368 2.53085e-18)
(2.37412 -0.143878 -1.0629e-18)
(2.82307 -0.162525 -4.84366e-19)
(-0.00203603 -0.0537766 2.74177e-19)
(0.0467968 -0.150865 -2.63949e-19)
(0.101733 -0.232064 1.0201e-18)
(0.166337 -0.303737 -1.76378e-19)
(0.23371 -0.366466 -1.65322e-18)
(0.0136994 -0.0851983 -2.94779e-19)
(0.0886714 -0.23094 -5.96592e-19)
(0.173025 -0.356187 1.03734e-19)
(0.266881 -0.458426 5.99809e-20)
(0.362849 -0.539923 -3.92768e-20)
(0.0435812 -0.114575 6.23496e-20)
(0.165758 -0.304612 6.14638e-19)
(0.296449 -0.470632 9.7758e-20)
(0.433122 -0.604063 1.36294e-18)
(0.568196 -0.703987 -2.38376e-20)
(0.0867548 -0.141107 6.67567e-20)
(0.276655 -0.368501 -4.28857e-20)
(0.469895 -0.564686 2.30606e-19)
(0.661934 -0.721539 -1.97877e-18)
(0.844785 -0.834624 9.46913e-19)
(0.142145 -0.161731 -2.34178e-19)
(0.420171 -0.413098 -4.38843e-19)
(0.691598 -0.622224 -7.57816e-19)
(0.950497 -0.783961 9.38149e-19)
(1.18577 -0.895246 3.41119e-18)
(0.582739 -0.60792 -4.30956e-18)
(0.948069 -0.497752 1.11681e-18)
(1.22136 -0.205974 3.31163e-19)
(1.29547 -0.0792831 -6.98187e-19)
(1.32861 -0.021462 -1.29107e-19)
(0.780534 -0.75674 5.04458e-18)
(1.02871 -0.599124 -3.33147e-19)
(1.25875 -0.24973 -1.86401e-19)
(1.31835 -0.094316 3.4802e-19)
(1.34005 -0.025271 2.32233e-19)
(1.03472 -0.88896 1.55709e-18)
(1.16262 -0.681188 3.87675e-18)
(1.29609 -0.291146 1.00317e-19)
(1.34256 -0.106854 4.01094e-19)
(1.353 -0.0282696 -9.00411e-20)
(1.33035 -0.997938 1.2766e-18)
(1.3391 -0.74133 -4.16045e-19)
(1.35014 -0.326391 -6.71162e-19)
(1.36633 -0.115588 -2.36055e-19)
(1.36686 -0.0302467 1.31291e-20)
(1.63099 -1.05552 -4.37967e-20)
(1.53152 -0.78347 -1.50401e-18)
(1.41663 -0.358863 0)
(1.3872 -0.124575 2.76612e-19)
(1.38059 -0.0315019 5.34843e-20)
(2.15657 -1.11879 -1.61858e-18)
(1.80177 -0.777068 -4.82622e-19)
(1.53608 -0.361038 3.96134e-22)
(1.42697 -0.123299 -8.86544e-21)
(1.398 -0.0300838 -1.1681e-19)
(2.63307 -0.891234 -1.60705e-18)
(1.90281 -0.578294 2.59814e-18)
(1.52078 -0.255339 9.1884e-21)
(1.3691 -0.0883975 2.74322e-19)
(1.32019 -0.0204722 0)
(2.48057 -0.523421 -6.9459e-18)
(1.60914 -0.325813 -1.5019e-19)
(1.1941 -0.140689 2.06648e-18)
(1.03975 -0.0525965 -2.97268e-19)
(0.996743 -0.0125141 -2.28292e-20)
(1.76201 -0.220514 6.84518e-18)
(1.08615 -0.131276 1.42645e-18)
(0.769934 -0.0569287 2.39511e-19)
(0.656047 -0.0228868 2.98638e-33)
(0.623985 -0.00526142 -1.67233e-19)
(0.682519 1.7335e-06 1.57813e-18)
(0.393853 0.0233484 7.48327e-19)
(0.273769 0.0199601 -4.43391e-19)
(0.231736 0.0076023 1.45324e-19)
(0.216718 0.00275019 -3.93748e-20)
(3.58202 -0.168252 1.25647e-17)
(3.4174 -0.503032 -1.04411e-17)
(3.13696 -0.7872 7.10237e-18)
(2.78085 -0.996551 2.32175e-18)
(2.33326 -1.10264 -4.16422e-19)
(3.7846 -0.103681 1.03955e-17)
(3.71752 -0.32455 -6.63939e-19)
(3.57782 -0.551925 -4.2702e-18)
(3.3784 -0.78585 2.69023e-18)
(3.10041 -1.01985 -6.62145e-19)
(3.11485 -0.0605683 3.6543e-18)
(3.09866 -0.181807 -2.51869e-18)
(3.05964 -0.309908 5.0127e-18)
(2.99904 -0.445191 -1.5261e-19)
(2.92472 -0.594028 -4.79107e-18)
(2.19082 -0.0276207 2.78847e-18)
(2.18377 -0.0834558 8.42961e-18)
(2.16447 -0.144213 -6.5316e-19)
(2.13379 -0.207643 -6.60439e-18)
(2.11265 -0.269955 1.94514e-18)
(0.879419 -0.0018409 5.21238e-18)
(0.876455 -0.00524444 -1.16372e-19)
(0.867278 -0.00958525 -4.28008e-20)
(0.850302 -0.0162961 -2.0076e-18)
(0.840796 -0.0229911 -3.59773e-18)
(1.65268 0.939503 2.26368e-18)
(1.34804 0.816451 -7.56673e-20)
(1.00329 0.658571 -3.42484e-20)
(0.627883 0.449498 -1.96194e-19)
(0.225265 0.182332 -1.34613e-19)
(2.07021 0.892261 -1.21663e-18)
(1.71049 0.777649 -1.19505e-18)
(1.29824 0.632581 7.33351e-19)
(0.834027 0.438749 -4.84644e-19)
(0.312159 0.182106 -4.22708e-21)
(2.41846 0.735699 -5.91838e-19)
(2.01956 0.645286 5.25237e-19)
(1.55494 0.528735 2.43755e-18)
(1.01751 0.370193 8.08482e-19)
(0.391336 0.155286 5.26147e-19)
(2.682 0.486619 1.28287e-20)
(2.25238 0.428238 -2.72292e-19)
(1.74743 0.352299 -6.46581e-19)
(1.15477 0.247638 2.0568e-18)
(0.450329 0.104145 -3.26819e-19)
(2.82553 0.17381 -1.1713e-18)
(2.37734 0.152612 -1.60642e-18)
(1.84945 0.12533 -7.2881e-19)
(1.22675 0.0878292 7.96238e-19)
(0.480872 0.0366869 -3.25769e-19)
(0.235576 0.418263 -2.10313e-18)
(0.166634 0.354608 -1.7413e-18)
(0.100463 0.277608 2.80872e-19)
(0.0441506 0.183288 -3.04292e-21)
(-0.00194162 0.0670199 4.1677e-20)
(0.369813 0.592731 -7.95679e-19)
(0.273156 0.508472 -6.07327e-19)
(0.178125 0.397633 -1.53715e-21)
(0.0922193 0.257831 -2.06043e-20)
(0.0166125 0.0956521 2.04937e-20)
(0.581834 0.751063 2.13657e-18)
(0.446313 0.647666 -1.43482e-19)
(0.30795 0.505456 -1.23124e-19)
(0.17431 0.327278 -2.17933e-19)
(0.048176 0.123424 1.71475e-19)
(0.862159 0.873121 -1.29182e-18)
(0.679303 0.757054 1.97245e-18)
(0.485367 0.593218 3.0641e-19)
(0.288339 0.387859 1.01045e-19)
(0.0924346 0.149008 -1.16759e-19)
(1.2035 0.924347 -4.44063e-19)
(0.969055 0.811266 -4.59851e-19)
(0.708616 0.644798 3.62661e-19)
(0.433374 0.429076 3.61149e-19)
(0.148473 0.168548 1.90135e-21)
(0.844768 0.148267 -5.85697e-19)
(1.39405 0.149099 7.70937e-20)
(1.19923 0.211139 3.08148e-20)
(0.980663 0.489122 -3.97425e-19)
(0.587227 0.646317 -1.09974e-19)
(0.837371 0.0916464 2.2087e-19)
(1.39794 0.140472 3.07352e-19)
(1.23086 0.241295 -6.2396e-21)
(1.04155 0.590929 -9.92115e-20)
(0.780726 0.799314 7.86617e-19)
(0.831562 0.0365491 -1.5564e-19)
(1.41443 0.127618 -2.37955e-20)
(1.25815 0.270799 -7.90478e-20)
(1.1585 0.674752 -4.78317e-19)
(1.03631 0.931128 2.31703e-19)
(0.827733 -0.017735 -3.30333e-20)
(1.43945 0.111267 -5.71771e-19)
(1.29867 0.297769 1.14575e-19)
(1.32271 0.73454 1.10124e-18)
(1.33381 1.03625 9.31972e-19)
(0.826288 -0.0680305 1.03322e-19)
(1.47163 0.0937479 7.28681e-20)
(1.35072 0.326458 -5.2885e-20)
(1.50608 0.77615 -2.72963e-19)
(1.63447 1.08887 -2.82993e-18)
(0.832924 -0.145812 4.38178e-19)
(1.51151 0.0631583 3.51661e-19)
(1.45398 0.318222 -5.68986e-21)
(1.75984 0.760837 2.76727e-18)
(2.14963 1.13979 -5.5203e-18)
(0.83958 -0.271967 -3.67734e-20)
(1.50358 0.000981974 -4.61852e-19)
(1.49 0.233118 1.42405e-20)
(1.86257 0.569972 -2.83187e-18)
(2.59606 0.899296 1.64189e-18)
(0.777543 -0.406467 5.02636e-18)
(1.21947 -0.0701342 5.57646e-35)
(1.2014 0.126289 -2.18315e-18)
(1.59072 0.319875 2.78592e-18)
(2.46109 0.528059 5.0349e-18)
(0.630184 -0.286104 1.56586e-19)
(0.770275 -0.0644492 4.58154e-19)
(0.763896 0.0480752 2.73206e-19)
(1.07761 0.128047 6.34937e-19)
(1.75861 0.220252 -8.62287e-18)
(0.320846 -0.0432554 -4.27699e-18)
(0.307728 0.00141915 2.53051e-19)
(0.276402 -0.00906079 1.02922e-18)
(0.394061 -0.0237923 -7.95372e-19)
(0.685672 -0.000155007 -1.45866e-18)
(2.34755 1.11988 4.66988e-18)
(2.7867 1.01189 3.45929e-18)
(3.1406 0.802995 -5.68049e-18)
(3.4189 0.519365 -1.46074e-17)
(3.58242 0.185726 1.57603e-17)
(3.07962 1.01815 4.99761e-18)
(3.35486 0.794853 2.56575e-17)
(3.55769 0.560499 7.24612e-18)
(3.70162 0.331729 -3.08477e-17)
(3.77819 0.111037 -5.17426e-18)
(2.90725 0.591672 -7.24232e-18)
(2.98676 0.448007 -3.38452e-18)
(3.05252 0.312181 -6.31182e-18)
(3.09535 0.181851 -6.89037e-18)
(3.11404 0.0585232 6.52231e-18)
(2.10599 0.266324 5.39672e-18)
(2.12983 0.206169 -4.0592e-19)
(2.16232 0.14335 4.86763e-18)
(2.18299 0.0823186 6.28744e-18)
(2.1907 0.0260819 -5.88684e-18)
(0.842094 0.0221923 -5.72132e-19)
(0.851618 0.0157286 3.51493e-18)
(0.868451 0.0091693 2.44111e-18)
(0.8774 0.00481138 -5.16771e-18)
(0.879798 0.00136987 -3.84189e-20)
(0.281904 0.0207546 5.51978e-19)
(0.656616 0.0404617 -7.43355e-19)
(0.973068 0.0440616 -8.18694e-19)
(0.944255 0.0274291 -1.51791e-18)
(0.697795 0.0163842 -6.63755e-19)
(0.245548 0.0554536 7.45359e-19)
(0.591211 0.107064 1.44176e-18)
(0.864613 0.125133 -6.9662e-19)
(0.939886 0.0969876 1.95996e-18)
(0.724121 0.0532267 -2.70116e-18)
(0.185594 0.0742536 4.95881e-19)
(0.476334 0.145891 -1.4004e-18)
(0.707709 0.184756 -9.13722e-19)
(0.857201 0.175361 -1.81091e-18)
(0.741547 0.101168 -2.86312e-18)
(0.123311 0.0774859 -7.73308e-19)
(0.344735 0.160451 -1.37706e-18)
(0.534513 0.214947 4.39045e-18)
(0.677488 0.233211 -3.65608e-19)
(0.713027 0.179904 2.23586e-18)
(0.0753457 0.0724461 -6.27295e-19)
(0.230711 0.160406 1.55827e-18)
(0.372187 0.224636 5.83742e-19)
(0.482218 0.257155 -1.2829e-18)
(0.56019 0.257495 -1.78046e-19)
(0.0453271 0.064074 6.73649e-20)
(0.150239 0.149355 -1.17987e-18)
(0.247916 0.211597 -8.58759e-19)
(0.32478 0.231778 -1.84245e-19)
(0.371296 0.221143 -5.23156e-20)
(0.0262193 0.0560187 3.1229e-19)
(0.0956162 0.133469 4.90847e-19)
(0.161286 0.17899 -2.81797e-19)
(0.213965 0.186141 2.68048e-19)
(0.255099 0.174593 1.79675e-19)
(0.0126146 0.0476403 2.28133e-19)
(0.0596368 0.103526 1.71138e-18)
(0.104588 0.107473 -1.36601e-18)
(0.144604 0.0922181 -2.87332e-18)
(0.182537 0.0701099 4.48612e-19)
(0.00724091 0.036239 -2.522e-19)
(0.0437274 0.0344012 -1.76659e-18)
(0.0795072 0.00658788 3.18584e-18)
(0.119715 -0.0257198 1.35556e-18)
(0.161088 -0.0597136 -2.7959e-19)
(0.0051476 -0.0115119 1.64512e-19)
(0.0385302 -0.0627558 -3.99224e-19)
(0.0776375 -0.109436 8.78281e-20)
(0.125361 -0.157862 1.06923e-19)
(0.175087 -0.204533 -3.46875e-20)
(0.352676 0.0618357 -1.00032e-19)
(0.634443 -0.0401666 -1.16794e-18)
(0.723298 -0.0216435 2.63211e-19)
(0.766002 -0.00811566 3.64347e-19)
(0.785717 -0.00265621 2.61265e-20)
(0.320638 -0.0510735 -7.70422e-20)
(0.772459 -0.111962 1.28588e-18)
(0.907752 -0.0361444 9.58424e-19)
(0.96891 -0.0131803 8.96285e-20)
(0.999335 -0.00400122 -7.41524e-20)
(0.332234 -0.166192 -8.34666e-19)
(0.84738 -0.192363 2.67111e-18)
(1.05553 -0.0637175 -2.04406e-19)
(1.15036 -0.0236842 -4.11743e-19)
(1.19319 -0.00676447 1.2713e-19)
(0.374738 -0.304759 1.09174e-18)
(0.884236 -0.288742 -1.91133e-18)
(1.13286 -0.110171 -5.2898e-19)
(1.24951 -0.0436236 -4.49084e-20)
(1.30151 -0.0119934 -1.58167e-20)
(0.451964 -0.453417 5.08315e-19)
(0.910238 -0.391351 -4.93846e-19)
(1.17933 -0.159301 4.46099e-19)
(1.27574 -0.0624564 1.71509e-19)
(1.31906 -0.0170472 -3.35875e-20)
(0.183434 -0.0446163 9.51372e-19)
(0.149245 -0.00405566 0)
(0.167695 0.0022317 1.23312e-19)
(0.174733 0.00132583 5.75596e-20)
(0.176787 0.000392456 -1.00369e-19)
(0.407636 0.0688273 0)
(0.421802 -0.00117869 0)
(0.481707 -0.007729 1.37333e-19)
(0.504153 -0.00247918 1.30394e-19)
(0.51192 -0.000870088 5.16058e-21)
(0.162651 -0.000820996 -3.68367e-19)
(0.18636 -0.00179091 3.10749e-18)
(0.213154 -0.00501435 -6.87486e-19)
(0.229733 -0.0149724 -3.11512e-18)
(0.245546 -0.0167866 -7.93908e-19)
(0.431943 0.00444104 6.09794e-19)
(0.484465 0.0196919 4.11609e-18)
(0.536388 0.0466503 -6.7347e-18)
(0.567786 0.0804424 2.20436e-18)
(0.598888 0.162405 3.78986e-18)
(0.371233 -0.218573 -3.72954e-19)
(0.323882 -0.22953 -7.38196e-20)
(0.2484 -0.211722 -2.53702e-19)
(0.151001 -0.151008 3.62567e-19)
(0.0459538 -0.0648261 1.16473e-19)
(0.259813 -0.160952 4.40886e-19)
(0.21597 -0.173688 1.49992e-18)
(0.162877 -0.171003 3.3513e-19)
(0.0972521 -0.133161 2.4003e-19)
(0.0265926 -0.0571302 -6.41913e-21)
(0.194497 -0.0441194 -3.32899e-19)
(0.152024 -0.0667472 -9.59463e-20)
(0.108527 -0.0847161 1.69851e-18)
(0.0625712 -0.0894197 3.32111e-19)
(0.0126432 -0.046369 -3.0794e-19)
(0.17405 0.0955829 -6.85188e-19)
(0.128752 0.062095 -7.37808e-19)
(0.0845195 0.0289046 1.31155e-18)
(0.0471475 -0.000863818 1.6223e-18)
(0.0117729 -0.0248894 2.12797e-19)
(0.180035 0.249014 1.10945e-19)
(0.127251 0.202806 -1.28386e-19)
(0.0764908 0.152893 2.42819e-19)
(0.0342127 0.100811 5.50182e-19)
(-0.0041136 0.036926 6.58901e-20)
(0.697791 -0.01634 1.53113e-18)
(0.944259 -0.0274078 -1.80062e-18)
(0.972878 -0.0441898 2.26952e-18)
(0.656629 -0.0405254 3.64326e-19)
(0.281939 -0.0207634 5.3654e-19)
(0.724109 -0.0531228 1.77158e-18)
(0.93974 -0.0970052 7.94587e-18)
(0.864413 -0.12524 1.03353e-18)
(0.591266 -0.107107 1.3492e-18)
(0.245646 -0.0554756 -4.78368e-19)
(0.741457 -0.100935 -1.22578e-18)
(0.856607 -0.175208 -2.29436e-18)
(0.707633 -0.184821 2.92376e-18)
(0.47641 -0.145967 -1.08572e-19)
(0.185723 -0.0742933 3.39722e-19)
(0.712526 -0.179743 3.26583e-20)
(0.676813 -0.233154 -7.66854e-18)
(0.534538 -0.215244 -5.98254e-18)
(0.344879 -0.160771 1.08983e-18)
(0.123497 -0.077593 5.08451e-19)
(0.558188 -0.256188 4.77725e-19)
(0.481296 -0.256609 5.32598e-19)
(0.372259 -0.225224 -8.87839e-19)
(0.230986 -0.161199 -8.83103e-19)
(0.0756878 -0.0727029 -5.11633e-21)
(0.719092 0.367628 1.13383e-18)
(0.93716 0.112981 -1.6041e-19)
(0.72009 0.0274782 2.6268e-19)
(0.658223 0.0405259 -7.11569e-19)
(0.375717 -0.0566999 -1.00916e-19)
(0.811726 0.391647 -1.57078e-19)
(1.16995 0.135132 -5.86711e-19)
(0.914898 0.052537 6.91039e-19)
(0.810788 0.109068 1.5615e-18)
(0.354038 0.0639537 1.0103e-19)
(0.853635 0.34658 -1.84899e-18)
(1.38433 0.141403 -4.62767e-20)
(1.06211 0.0894961 1.53412e-19)
(0.897329 0.18886 1.2753e-18)
(0.369653 0.185988 -1.20319e-18)
(0.858303 0.273571 1.2683e-18)
(1.42404 0.147791 5.26878e-20)
(1.12953 0.1352 -1.47076e-19)
(0.935436 0.284429 -6.64678e-20)
(0.406426 0.330237 -4.50069e-19)
(0.852652 0.207665 1.74923e-19)
(1.40421 0.151939 -8.01125e-20)
(1.16434 0.176618 -8.08161e-20)
(0.95591 0.385229 1.04952e-19)
(0.469265 0.485031 1.40367e-18)
(0.273955 0.0481866 0)
(0.250768 -0.00870222 6.07805e-19)
(0.166783 -0.0156662 1.26744e-19)
(0.154467 0.00404306 -2.03449e-19)
(0.185063 0.0435023 -1.80809e-18)
(0.568403 0.263838 -1.01449e-17)
(0.636256 0.070606 -2.34874e-18)
(0.476248 0.0141349 6.19112e-19)
(0.434777 0.00272682 -6.65136e-19)
(0.414013 -0.0666023 -6.6256e-19)
(0.245712 0.016726 1.29272e-22)
(0.229832 0.0150521 1.92658e-18)
(0.213234 0.00505796 5.23448e-19)
(0.18641 0.00180089 3.23248e-19)
(0.162666 0.000824866 0)
(0.599601 -0.162198 -1.20536e-19)
(0.568269 -0.0801787 2.5614e-18)
(0.536482 -0.0464376 -1.35447e-19)
(0.484522 -0.0196396 -2.6961e-19)
(0.431967 -0.00441884 7.60258e-19)
)
;

boundaryField
{
    left
    {
        type            fixedValue;
        value           uniform (1 0 0);
    }
    right
    {
        type            zeroGradient;
    }
    down
    {
        type            noSlip;
    }
    up
    {
        type            noSlip;
    }
    cylinder
    {
        type            noSlip;
    }
    defaultFaces
    {
        type            empty;
    }
}


// ************************************************************************* //
