/*--------------------------------*- C++ -*----------------------------------*\
  =========                 |
  \\      /  F ield         | OpenFOAM: The Open Source CFD Toolbox
   \\    /   O peration     | Website:  https://openfoam.org
    \\  /    A nd           | Version:  13
     \\/     M anipulation  |
\*---------------------------------------------------------------------------*/
FoamFile
{
    format      ascii;
    class       volVectorField;
    location    "0.3";
    object      U;
}
// * * * * * * * * * * * * * * * * * * * * * * * * * * * * * * * * * * * * * //

dimensions      [0 1 -1 0 0 0 0];

internalField   nonuniform List<vector>
1800
(
(0.542585840987 -0.479816048602 -2.19409274941e-18)
(1.11796243588 -0.959192626428 1.79779791829e-17)
(1.30724599072 -1.05752709622 6.74636650966e-18)
(1.36464471081 -1.04327449668 -1.06005879162e-19)
(1.38554448326 -0.999245455725 -5.37498478113e-19)
(1.39103029749 -0.947102248967 4.37840706055e-18)
(1.38875674928 -0.893517363598 1.37513777884e-18)
(1.38291991118 -0.841709300451 4.41655993637e-18)
(1.376499727 -0.79137739963 2.18137189977e-18)
(1.35431071299 -0.745070828819 -8.45460378991e-19)
(0.625740816258 -0.471674253077 -2.82378689354e-18)
(1.27387047904 -0.93784523304 1.40503285728e-18)
(1.47720143881 -1.02918717406 2.06847936725e-19)
(1.53036737045 -1.01298626494 -1.11914283068e-18)
(1.54302435035 -0.968204634953 5.39085211337e-20)
(1.53964950542 -0.916000955847 7.31061397421e-19)
(1.52889434413 -0.862731051989 -9.85747237829e-19)
(1.51552293047 -0.811051771906 6.7973415088e-19)
(1.50182067842 -0.761147552311 7.45342176724e-19)
(1.47954199963 -0.7201480279 -2.99946029183e-19)
(0.709180315386 -0.452305303076 1.17081606044e-19)
(1.42762968197 -0.894389770353 5.62102010787e-20)
(1.6431917756 -0.976305274681 5.91163108521e-19)
(1.69126894235 -0.958704918959 -3.9112183291e-19)
(1.69528426664 -0.914385224402 -1.34636496832e-18)
(1.68292361657 -0.863619490951 2.82861387186e-19)
(1.6637041524 -0.812390251132 5.08477046638e-19)
(1.64260842327 -0.763064907167 -4.33368589925e-20)
(1.62186516426 -0.716031905973 -4.32006871942e-21)
(1.59449699425 -0.676858500319 -1.98696298364e-20)
(0.791219877076 -0.42162715278 -9.96483827423e-20)
(1.57563915703 -0.829164364272 -3.47743990836e-19)
(1.80111982441 -0.899597979276 -3.85577073275e-19)
(1.84335474698 -0.88143339433 4.39557141987e-20)
(1.83862428495 -0.838914731311 3.64501710988e-19)
(1.81760342684 -0.791024229721 2.49622055521e-20)
(1.79052512811 -0.743187927449 -2.08758660824e-20)
(1.76248531427 -0.697333735336 4.72537713826e-19)
(1.73549174864 -0.653814935753 3.97719845654e-19)
(1.70445525629 -0.618280547297 -1.43247781358e-19)
(0.870002915685 -0.37976806665 1.76900573155e-19)
(1.71419006699 -0.74307480666 4.06900655388e-19)
(1.94674317993 -0.800512266855 -5.4910450116e-20)
(1.98238961465 -0.782920854204 -5.82521663737e-20)
(1.96890160846 -0.743675594002 -1.0735180672e-18)
(1.93952290862 -0.700224313643 8.64459019726e-21)
(1.90504147841 -0.657317204673 8.29911559591e-19)
(1.87052837148 -0.616440632774 2.603654291e-19)
(1.83774945824 -0.577979619001 8.08058721749e-21)
(1.80314417124 -0.546819195641 -1.83951899629e-19)
(0.943509297091 -0.327081053847 -5.41115789442e-20)
(1.83950190174 -0.637438264542 1.05006372815e-18)
(2.07600149294 -0.680892000533 1.3672447964e-18)
(2.10466956912 -0.665154184539 -8.61577562755e-19)
(2.08280237648 -0.630528444514 -7.80140874334e-19)
(2.04578565969 -0.592856024351 1.29105626511e-18)
(2.00478309408 -0.556036976321 -8.99254201055e-19)
(1.96463190919 -0.52112029686 -1.03148859102e-18)
(1.92694398144 -0.488465909291 7.14914564223e-19)
(1.8893612771 -0.462317687008 -1.07919865436e-20)
(1.0096758498 -0.264297984097 4.95827346015e-19)
(1.94793869287 -0.514354019317 -1.59187638944e-18)
(2.18519276905 -0.543544289561 -3.7547200448e-18)
(2.20683306242 -0.531125301539 1.37237172043e-18)
(2.17722437731 -0.50239401584 1.98018060873e-18)
(2.13350489263 -0.471840129079 -5.52344808992e-21)
(2.08696841292 -0.4422860599 -2.4712727463e-18)
(2.04218622021 -0.414380880306 1.87907896777e-20)
(2.00052353928 -0.38845792122 2.2132325925e-18)
(1.96050644593 -0.367961743086 5.73954179261e-19)
(1.06641941983 -0.192498425811 -2.42067459635e-19)
(2.03611783899 -0.376416583479 8.72169841189e-19)
(2.2710683046 -0.39167749215 2.90815158587e-18)
(2.28606318358 -0.384003150355 -1.17672546164e-20)
(2.24964004599 -0.362128363448 -1.27808273736e-18)
(2.2004017503 -0.33981276706 -3.96928101186e-19)
(2.14952496588 -0.318417116513 0)
(2.10119765174 -0.298271908198 8.68473672106e-19)
(2.05654950942 -0.279677942258 -1.76920954778e-20)
(2.01475372217 -0.26536118287 -7.19927047557e-19)
(1.1118566911 -0.113135639625 -2.74020405579e-20)
(2.10109896068 -0.22683676521 2.21907910029e-18)
(2.33126311751 -0.229164413242 2.46381036528e-18)
(2.340288142 -0.227506026552 -1.99604352006e-18)
(2.29810016643 -0.213151321544 -1.35548080679e-18)
(2.24475463099 -0.200082013598 3.91310051983e-19)
(2.19090856824 -0.187539847377 -1.60918370638e-18)
(2.1402344166 -0.175726989041 -1.16200150553e-18)
(2.09370415914 -0.164905441234 1.30781917009e-18)
(2.05079692479 -0.157112839277 1.10425133338e-18)
(1.14437977624 -0.0278769053943 3.64049379606e-19)
(2.1405628459 -0.0693601740595 1.40532471342e-18)
(2.36442389054 -0.0603619581534 4.47174839608e-19)
(2.36773174623 -0.0652675936499 -2.83024650535e-18)
(2.3212353465 -0.0588118852677 -4.46687007266e-21)
(2.26535009215 -0.0559922372781 3.71574795155e-18)
(2.20997871516 -0.0527720241722 -1.99359541428e-18)
(2.15821341009 -0.0496003831996 -1.0403515031e-18)
(2.11085270077 -0.0467683875036 3.76712130123e-19)
(2.06760333302 -0.0456172829847 -8.21513790795e-19)
(0.0104532928542 -0.089925514468 1.34240747437e-19)
(0.0705247481347 -0.182443903137 1.70306883643e-19)
(0.137676088356 -0.20752653377 -2.23337403581e-21)
(0.205167198997 -0.210752860186 -4.32796181823e-21)
(0.268754640271 -0.207790399854 -1.49566508135e-21)
(0.327222089105 -0.202408873406 -3.33631859063e-20)
(0.380632272358 -0.195914194247 4.14650326378e-21)
(0.429199985287 -0.189083194283 -1.07347177485e-20)
(0.473410147453 -0.182354861562 1.05601981198e-21)
(0.511884155041 -0.176917640816 -2.55158340769e-21)
(0.0254000407876 -0.152342612809 1.03131729023e-19)
(0.100567447335 -0.312082866842 1.56524508335e-19)
(0.171623355953 -0.352964164356 -1.32752791921e-19)
(0.239219073179 -0.355114841547 -4.35249575421e-20)
(0.301896365601 -0.346628493095 -4.93161974164e-20)
(0.359053780112 -0.334224021039 -6.16872812075e-20)
(0.411008196443 -0.320142721451 2.72991259212e-20)
(0.458119579097 -0.30570867509 -5.41310392918e-21)
(0.500883757422 -0.291662523534 -4.06375229985e-21)
(0.538435762043 -0.281029831499 -4.80517891454e-21)
(0.0503465206636 -0.212541579931 3.10537813068e-20)
(0.151106499078 -0.436582958006 3.65640801949e-19)
(0.228787923248 -0.492363175891 8.7646125912e-20)
(0.296533983107 -0.493326362877 2.65781990215e-19)
(0.357664282277 -0.479427291849 4.06353165968e-20)
(0.412604204669 -0.460221432116 -2.24388815538e-19)
(0.462095602792 -0.438836342549 -1.62592729383e-20)
(0.506731528507 -0.417117021797 7.31011321699e-20)
(0.547039877338 -0.396121079424 -3.6405595104e-20)
(0.5830699158 -0.380513950786 -6.73689599566e-21)
(0.0849839546814 -0.269364026987 -9.84180156127e-20)
(0.221296771968 -0.553329141856 -8.77019385102e-20)
(0.308136037492 -0.62267034162 2.48884174428e-20)
(0.375994331628 -0.622288167687 -1.01791177459e-19)
(0.434894700694 -0.603150139387 4.0191638474e-20)
(0.48670406734 -0.57747049594 1.48639346557e-19)
(0.532730577107 -0.549203044368 4.42798388832e-20)
(0.573898746686 -0.520660332838 -1.40410444022e-20)
(0.610786790247 -0.493242140145 1.56181111324e-20)
(0.644696985454 -0.472965321355 -1.97198414218e-21)
(0.128880487501 -0.321674759735 0)
(0.309950478611 -0.659773822169 7.4732810821e-20)
(0.408210157857 -0.740908143317 5.063803819e-19)
(0.476031596139 -0.738996621702 -2.76445833785e-19)
(0.531969012697 -0.714862899625 -4.73630024218e-19)
(0.579729309361 -0.683151072964 1.57349588929e-19)
(0.621314103046 -0.648558461941 -2.31721563041e-20)
(0.658058249328 -0.613810309183 -7.4963477015e-20)
(0.690627265342 -0.580660698484 0)
(0.721802754818 -0.556086574443 -6.73881443264e-21)
(0.181468928869 -0.368347973907 -3.72145140209e-20)
(0.415524851847 -0.75346937243 3.83617915447e-19)
(0.527102289101 -0.844243594712 1.63244584349e-19)
(0.594614831382 -0.840603829375 1.8076431822e-19)
(0.646805053842 -0.811795281791 -1.4508659742e-19)
(0.689598223722 -0.774610958938 -2.33425583946e-19)
(0.725794504393 -0.734396505689 4.00991308174e-19)
(0.757208376033 -0.694209764501 4.08600616152e-20)
(0.784634150436 -0.656165968229 -2.34386704799e-19)
(0.812401963336 -0.627690762921 -5.31301437951e-21)
(0.242022324907 -0.408278303081 4.76003413808e-20)
(0.536106611476 -0.832125311686 5.10251234396e-19)
(0.662456171197 -0.930052063174 2.36801252835e-20)
(0.729252734948 -0.924490991133 1.57501745065e-20)
(0.776866321988 -0.891425265811 2.56109132466e-19)
(0.813787701277 -0.849456850205 -3.22264432482e-19)
(0.843702960555 -0.804468927703 -3.16451322969e-19)
(0.868944837965 -0.759760921015 -2.68036667412e-19)
(0.890481652161 -0.717782819127 1.92201212134e-19)
(0.913995045684 -0.685784273439 2.07038603346e-19)
(0.309621989062 -0.440373857208 -1.09699719966e-19)
(0.669386471647 -0.893663425965 -2.26686921029e-19)
(0.811440377464 -0.996008282192 1.39711706386e-19)
(0.876968266644 -0.988354989197 -1.32330129115e-19)
(0.919144146293 -0.951528836003 2.69835539441e-19)
(0.949328442335 -0.905577767943 6.43195484106e-19)
(0.972153439237 -0.856784176056 4.4477353525e-19)
(0.990479930055 -0.808588244351 -3.32224432777e-19)
(1.00546358508 -0.763698719252 -1.57430615318e-19)
(1.02358051327 -0.728435262121 2.24168995312e-19)
(0.383129409908 -0.463582749571 -3.59867028503e-19)
(0.812712942791 -0.936274496542 -1.23742904492e-18)
(0.970839446873 -1.04016518916 1.06733969817e-18)
(1.03441129489 -1.03028174948 7.99991367447e-19)
(1.07028236322 -0.990276823315 -6.3843995002e-19)
(1.0929189685 -0.941186941029 6.94429641171e-19)
(1.10798692866 -0.889582534769 9.4393985773e-20)
(1.11881855818 -0.838941463817 -8.11678729621e-19)
(1.12681911119 -0.792031411135 -1.93320759916e-19)
(1.13795172896 -0.753256037867 2.50165652597e-19)
(0.461245549237 -0.476968402301 -8.11184326986e-20)
(0.963224437938 -0.958477074893 -1.04181456324e-18)
(1.13727539202 -1.06102979811 -4.62767248482e-19)
(1.19815848446 -1.04889946917 7.09553104175e-19)
(1.22688540532 -1.00642624109 5.59511480477e-19)
(1.24129687463 -0.955207768477 -6.20502776811e-19)
(1.24808946786 -0.901931201494 -5.09078333652e-19)
(1.25106814882 -0.850070455695 2.99627785063e-19)
(1.25225865692 -0.80157870543 -2.97730263158e-19)
(1.25297626905 -0.758173976166 -1.93437560155e-19)
(0.641848114804 -0.143717735477 -2.24536622352e-20)
(0.81566731654 -0.11086127523 4.4166495521e-20)
(0.890881940887 -0.0869262044869 1.82100461947e-20)
(0.935776463713 -0.0681707221299 -5.59844017214e-21)
(0.961818562403 -0.0528303735628 3.12885686589e-21)
(0.97722747163 -0.040084255177 6.53338965542e-21)
(0.986596071634 -0.0294268724122 4.43239380376e-21)
(0.992337660668 -0.0203886516748 -3.46384282899e-21)
(0.995687554863 -0.0127016306507 9.5215063625e-22)
(0.997711788437 -0.00463709529774 3.38604885627e-21)
(0.659136558696 -0.20788118547 4.70781033361e-20)
(0.825051620785 -0.14507062555 -2.69823886565e-20)
(0.897883405857 -0.105289391051 3.31107513333e-21)
(0.941115506777 -0.0783681045901 1.12765637149e-20)
(0.966092887888 -0.0587264121703 2.55733695602e-20)
(0.980720937724 -0.0435898156653 0)
(0.989487082101 -0.0315398698306 4.65231499852e-21)
(0.99477648525 -0.0216464967111 2.65066121865e-21)
(0.997820660754 -0.0134045806764 5.72828723056e-22)
(0.999617660736 -0.00487789973601 -2.75953823547e-21)
(0.687557853443 -0.270130611164 -2.45590373938e-20)
(0.838753704482 -0.178558009207 4.56839234113e-22)
(0.907274224141 -0.123460850539 -5.31127116692e-21)
(0.947684339395 -0.0884974442053 -8.12789919093e-21)
(0.971034328914 -0.0645626239547 -4.19630568013e-21)
(0.984599940172 -0.0470313056022 6.4542378607e-21)
(0.992618454995 -0.033590621154 0)
(0.997370474527 -0.0228516713758 0)
(1.00006532231 -0.0140691322855 2.14718978608e-21)
(1.0016146383 -0.00510374335729 0)
(0.726803816213 -0.329333409132 -2.28716434122e-20)
(0.856776801815 -0.210823576917 -9.04622215524e-21)
(0.918975324447 -0.141233305997 7.69436634025e-21)
(0.955471855411 -0.0984623499762 0)
(0.976637334865 -0.0702852942527 -1.85129516331e-20)
(0.988860028867 -0.0503763306211 5.49970057664e-21)
(0.995973136186 -0.0355585601378 0)
(1.0001156347 -0.0239911497925 -8.1972651444e-21)
(1.00242113287 -0.014687782231 0)
(1.00368142098 -0.0053119632511 -9.77394592658e-22)
(0.776417116216 -0.384401650947 -2.06356924248e-20)
(0.879143301619 -0.241458656387 1.74390186617e-20)
(0.932886251752 -0.158419522313 -4.74756684849e-21)
(0.96445935706 -0.108173348663 0)
(0.982897123007 -0.0758442409972 -9.26863748228e-21)
(0.993492478839 -0.0535932994473 -1.25287155021e-20)
(0.999547534468 -0.0374231415802 7.02306662779e-21)
(1.00299505654 -0.0250519220999 1.58648067179e-21)
(1.00485410543 -0.015252502424 1.74392990915e-22)
(1.00581900063 -0.0054996332609 3.36985778412e-21)
(0.835655619633 -0.434173225877 -4.88148091275e-19)
(0.905869185003 -0.270244389026 -4.95174702021e-20)
(0.948909754152 -0.174883419276 2.2512149634e-21)
(0.974620470641 -0.117550780793 -1.0845271424e-20)
(0.989801259606 -0.0811939661191 1.6239015721e-20)
(0.998483600916 -0.0566523447452 -5.05736686e-21)
(1.00333011644 -0.039164100624 -1.81221847115e-20)
(1.00598147189 -0.0260201577256 1.22310220865e-20)
(1.00735917189 -0.0157551703458 -3.21964794965e-22)
(1.00800707375 -0.00566355470885 3.7001906976e-21)
(0.903403051769 -0.477262545659 -2.58137923485e-22)
(0.93683432181 -0.297256920457 2.71905746142e-20)
(0.966954676265 -0.19056532045 5.48379765131e-21)
(0.985912749428 -0.126539272107 4.03955611311e-22)
(0.997331537191 -0.08629683215 7.73789485881e-21)
(1.00382086694 -0.0595268063752 5.64317271377e-21)
(1.00730695977 -0.0407620227169 5.6236050124e-21)
(1.0090752097 -0.0268824272896 -5.74379673766e-21)
(1.00992788181 -0.0161873519154 -1.98465523013e-21)
(1.01023428116 -0.00580031942722 -2.46036773742e-21)
(0.978186672865 -0.512749634823 1.83265064788e-19)
(0.971474175621 -0.322005971313 3.98873558709e-20)
(0.986866032827 -0.205312780138 0)
(0.998248159624 -0.135065467947 -5.54875987167e-21)
(1.00544765165 -0.091109629033 -6.98548847573e-21)
(1.00947719322 -0.0621903253951 2.51414798838e-21)
(1.01144129545 -0.0421994548861 1.37051951405e-20)
(1.01226484719 -0.0276267214003 -3.75701241197e-21)
(1.01253247257 -0.0165412701655 1.1455573563e-22)
(1.01248167334 -0.00590676036623 1.27737498683e-21)
(1.05679393608 -0.540608393658 -2.67371764391e-19)
(1.00839180606 -0.343664572903 -1.17738807464e-19)
(1.00776831417 -0.218952653778 1.23005680201e-20)
(1.01116278361 -0.143000905892 3.33349931772e-21)
(1.01392729224 -0.0955424560767 -1.73371677426e-21)
(1.01535906359 -0.0645891981839 1.18099365985e-20)
(1.01570354006 -0.0434475081666 -6.10533848474e-21)
(1.01550746252 -0.0282375207557 7.28996871902e-22)
(1.01516428116 -0.0168089469385 -4.43109386018e-21)
(1.01473323951 -0.00598416555616 -6.25687645288e-21)
(1.1352147563 -0.562158365396 1.77674230853e-19)
(1.04319877404 -0.365724801772 -1.07975435103e-19)
(1.02647049814 -0.233736331115 -7.3871289702e-21)
(1.02273849576 -0.151469283444 7.71197698329e-21)
(1.02172065836 -0.100039094798 9.6393343171e-21)
(1.0209154139 -0.0668389885095 5.12065098073e-21)
(1.01986023554 -0.0444987053163 -2.31805792423e-22)
(1.01871050867 -0.0286796116998 0)
(1.01777514491 -0.0169632091115 4.17216777951e-21)
(1.01699357823 -0.00601230939272 -3.23175119903e-22)
(1.26893952071 -0.543167589543 2.42963363038e-19)
(1.12314926503 -0.360283259931 5.05790362986e-20)
(1.07134272003 -0.233609429774 -1.90595467225e-20)
(1.04858019327 -0.152480212335 -1.45286101899e-21)
(1.03721925604 -0.100763298046 -1.09686163329e-21)
(1.03067968128 -0.0671046885473 6.21029905018e-21)
(1.02632537782 -0.0444557510561 9.36622781877e-21)
(1.02325797577 -0.0285043147911 9.98026762032e-23)
(1.0212447313 -0.016780167487 -1.96350303453e-21)
(1.01985445798 -0.00592445809927 1.8145904016e-21)
(1.31906244158 -0.464670342688 3.18749031044e-21)
(1.16405789482 -0.319731718842 6.34623699226e-20)
(1.10281060565 -0.215072347436 4.98582266435e-20)
(1.07075231339 -0.143639236094 -5.02084245434e-21)
(1.05222344139 -0.0959899181486 1.52921365669e-20)
(1.0408264183 -0.0641773766397 7.47361152593e-21)
(1.03335834888 -0.0425238807729 6.35988109886e-21)
(1.02835713952 -0.0272301130931 -2.91939926457e-22)
(1.025211312 -0.0160042892903 2.14198549465e-21)
(1.0231482903 -0.00563734576237 4.17117682501e-21)
(1.36523348066 -0.396939396175 -8.62086895573e-20)
(1.20734474938 -0.283657077771 -7.25874621764e-21)
(1.13398342108 -0.195812661717 6.69191255111e-22)
(1.09218650024 -0.132819214145 -1.11126202438e-36)
(1.06667398985 -0.0894696629053 3.78963015931e-21)
(1.05061110042 -0.0600028508263 -2.31285016213e-35)
(1.04012966269 -0.0397698042334 -5.61292048955e-21)
(1.03323739285 -0.0254416413304 -3.33748193624e-34)
(1.02899197051 -0.0149335356899 1.40965000206e-21)
(1.02626205536 -0.00525217646932 -4.09722664416e-21)
(1.3947896118 -0.329402821622 -1.53352330592e-34)
(1.24041121856 -0.244175646335 -1.32381945966e-20)
(1.15982253466 -0.172740880403 -1.78176872912e-20)
(1.11086313657 -0.119072191337 0)
(1.07966282052 -0.0809321325299 -8.15296373133e-21)
(1.05954345529 -0.0544971288386 -4.68725193361e-21)
(1.04636268424 -0.0361615855152 1.0475050481e-22)
(1.0377483098 -0.0231259861236 -5.19944251962e-34)
(1.03247223091 -0.01356337614 7.02670747012e-22)
(1.02912577016 -0.00476557859811 4.07765754428e-21)
(1.41343842244 -0.266809810023 -3.9328566984e-20)
(1.2658009185 -0.204496967124 2.42522205154e-21)
(1.18103364637 -0.147729838019 0)
(1.12676037307 -0.103250878438 0)
(1.09100499447 -0.0707548949594 0)
(1.06745707535 -0.0478387196503 0)
(1.0519364504 -0.0317907652261 -1.37016617402e-21)
(1.04179019313 -0.0203321968342 -5.86123709474e-34)
(1.03558660984 -0.0119189217781 1.38724986562e-21)
(1.03167924398 -0.00418481991491 5.05126604148e-34)
(1.42473771636 -0.209117050368 -7.72652687065e-22)
(1.28475333884 -0.164986395787 0)
(1.19790612817 -0.121342128154 0)
(1.13985385069 -0.0858184767068 0)
(1.10052901033 -0.0592374719537 0)
(1.0742114042 -0.0402058409243 0)
(1.0567183969 -0.0267610287638 2.57946356146e-21)
(1.04526399291 -0.0171202424886 1.75598714928e-21)
(1.03827758115 -0.0100324720591 1.37407679531e-21)
(1.0338817691 -0.00352003127277 4.29994075586e-21)
(1.43120519028 -0.155975059566 0)
(1.29838406566 -0.126074330603 -3.71894116842e-21)
(1.21078194488 -0.0940981922201 -8.42324887286e-21)
(1.15015327252 -0.0671980737282 0)
(1.10816455447 -0.0466682624842 -5.08916764732e-21)
(1.07968753855 -0.03178132527 -3.29052051916e-21)
(1.06061741025 -0.0211853333206 4.93264951629e-22)
(1.04810699173 -0.0135577548284 -1.21035899904e-21)
(1.04047795956 -0.00794107837305 2.66923908915e-21)
(1.0356773469 -0.00278364229124 3.77768888168e-21)
(1.43430203071 -0.106521002034 1.50592607608e-21)
(1.307266699 -0.0878838196839 2.23741416436e-21)
(1.21967972467 -0.0663306976434 -1.60844914017e-22)
(1.15742043706 -0.0477146092956 5.24747975417e-36)
(1.11363060102 -0.0332907142183 -1.86741299557e-21)
(1.08359355256 -0.0227296732997 -2.92086560003e-35)
(1.06338209096 -0.0151684601499 2.46838986022e-21)
(1.05008958442 -0.00970801148926 7.68356982925e-21)
(1.04197776827 -0.00567804190868 1.24562799715e-21)
(1.03687059145 -0.00198419311754 -3.95465567917e-21)
(1.42910827096 -0.0602993121948 -4.21880139348e-21)
(1.30634334153 -0.0520349096667 4.18591194263e-21)
(1.2197029998 -0.0399121740395 5.87210703749e-21)
(1.15709246931 -0.0289491633309 0)
(1.11258529079 -0.0202909413644 3.4507055699e-21)
(1.08186136254 -0.0138866455633 2.29879304908e-21)
(1.06110583928 -0.00927587189943 3.88436648433e-21)
(1.04744205665 -0.00593669736925 9.08561848659e-22)
(1.03910190978 -0.00346615803944 2.89696028879e-22)
(1.0338599468 -0.00120687771846 4.09968929977e-21)
(1.28650840638 -0.0104244869338 0)
(1.1831293136 -0.0103804269145 0)
(1.10726569366 -0.0082522380898 0)
(1.05123897265 -0.00605444888231 0)
(1.0110433859 -0.00426402962887 0)
(0.983159574612 -0.0029263295541 0)
(0.964278803648 -0.00195682500788 2.39153846305e-21)
(0.951848618045 -0.00125289365383 -1.12171523916e-35)
(0.944262083573 -0.000720408260361 1.32460114125e-21)
(0.939551173886 -0.000242983551844 3.89391423253e-21)
(1.99284175149 -0.0407770300679 7.68779357729e-19)
(1.97893647156 -0.136697674497 5.09439023321e-20)
(1.94873830355 -0.229811951853 -9.61451378101e-20)
(1.90289161044 -0.318362230497 -3.09412366211e-19)
(1.84312413078 -0.400354875778 -8.7251195727e-20)
(1.76983691679 -0.475060208514 -1.42635514287e-19)
(1.6881163453 -0.538515727951 -3.9116196983e-19)
(1.59201840776 -0.595265258426 1.07859635673e-19)
(1.50285119454 -0.62875769814 0)
(1.37722848151 -0.690050580069 5.31099611368e-20)
(1.91162491346 -0.030365886077 2.40144925581e-19)
(1.90101076387 -0.102940893514 -2.80485317752e-19)
(1.87856687957 -0.173919837725 -4.75682280496e-20)
(1.84411583671 -0.24227653841 -1.24470769357e-19)
(1.80011719966 -0.305751703586 6.53745151362e-20)
(1.74440529905 -0.36618614948 1.39713050279e-19)
(1.68490382582 -0.41595244107 -8.41509303911e-20)
(1.61085181712 -0.467078508018 4.39822107245e-20)
(1.54802230486 -0.49131986507 -6.23417338365e-20)
(1.45216006661 -0.556056695529 2.84869537085e-20)
(1.84540712869 -0.0233719857576 -1.01229811641e-19)
(1.83706764624 -0.0805717708812 2.31512187955e-19)
(1.81938489651 -0.136489032669 1.51108413966e-19)
(1.7918691806 -0.19078891686 -2.32698643585e-19)
(1.75717263735 -0.241180932621 5.59944858853e-21)
(1.71274145956 -0.290672047115 2.38132018834e-19)
(1.66562127755 -0.330717280513 7.50860079297e-21)
(1.60733881151 -0.374868957202 2.57447423504e-21)
(1.55595021502 -0.396185172624 1.77542374538e-20)
(1.48511301536 -0.452432851093 2.71589193389e-20)
(1.79349829823 -0.0186623559442 -2.6215183917e-19)
(1.78670262396 -0.0630430041207 -4.32749560887e-20)
(1.77213560751 -0.106522849553 1.11546159128e-20)
(1.74945799288 -0.14908025772 -1.96282951518e-20)
(1.72082565393 -0.188687132025 -1.30285098764e-19)
(1.68455291312 -0.228294220145 -7.54639413335e-20)
(1.64545988293 -0.26039164773 1.30704247476e-19)
(1.59891665176 -0.296692104398 5.91121129854e-21)
(1.55531170461 -0.315281185985 1.12730067027e-20)
(1.50159723908 -0.36075035944 1.05795887024e-20)
(1.75290461791 -0.0146504813349 2.62814086415e-20)
(1.74718189194 -0.0487317818565 1.11314302509e-19)
(1.73474052857 -0.0821660331621 -1.60859439804e-20)
(1.71551227984 -0.11503362002 1.45216205796e-19)
(1.69101004118 -0.145759833168 -3.18449163856e-20)
(1.66049591657 -0.176696296857 -1.56709679419e-19)
(1.62696615767 -0.202095443867 2.3343534521e-20)
(1.58862853393 -0.230842928057 -6.45839415506e-20)
(1.55064316332 -0.24664806925 3.8953303048e-20)
(1.5083680673 -0.281876880062 2.36297040324e-20)
(1.72175179912 -0.011604007027 -1.36903719189e-19)
(1.71678937559 -0.0370778133054 -5.25928564666e-20)
(1.70584178674 -0.0621082446181 -1.04057357804e-20)
(1.6890064708 -0.0867992088519 7.73386407816e-20)
(1.6673379122 -0.110044959308 1.70329455562e-19)
(1.64079951032 -0.133506408264 -4.24518743196e-20)
(1.61115181357 -0.153139020363 3.58525512498e-21)
(1.57830409636 -0.175175333233 -1.82593216122e-20)
(1.54434227668 -0.188140925869 -1.73105441166e-20)
(1.50950717033 -0.21461170689 -2.66655393706e-20)
(1.69857818962 -0.00913278305492 -3.86436017433e-20)
(1.69421096662 -0.0272456417958 -9.23416313553e-20)
(1.68429903826 -0.0450624000845 -1.1555912026e-19)
(1.66913381417 -0.0626994858922 -1.84501359591e-19)
(1.64942765635 -0.0794522864977 4.97428154054e-20)
(1.62554836161 -0.0964159521757 3.6886052785e-20)
(1.59853859927 -0.110921282831 2.61164900326e-21)
(1.56924409438 -0.127098751507 3.0765965789e-20)
(1.53807009323 -0.137219364776 -3.59594443502e-20)
(1.50794143017 -0.156427587519 -1.49388967146e-20)
(1.68119734984 -0.00699588371499 5.27960172111e-20)
(1.67737923452 -0.0185286347458 1.13519189077e-20)
(1.66838431149 -0.0299252783809 1.13185611623e-20)
(1.65453370161 -0.0412454906778 -2.26857330231e-20)
(1.63632067375 -0.0520942605353 -1.98912906911e-20)
(1.61433901142 -0.0632030547361 -3.44986055911e-20)
(1.5891878566 -0.0729097675627 -2.22629922085e-20)
(1.5621413641 -0.0839079222477 3.85397660265e-20)
(1.53277793445 -0.0911109742583 -1.3894263528e-20)
(1.50553011864 -0.104529853839 6.16958740067e-21)
(1.65408053242 -0.00584550897038 -6.63678144333e-20)
(1.65080530903 -0.0113326181778 -1.72346528054e-20)
(1.64309971718 -0.0167179577406 1.03460442768e-19)
(1.63122778831 -0.0221220244343 -2.04356022221e-20)
(1.61543837437 -0.0273545680793 -2.32977391793e-20)
(1.59625496532 -0.0329559661343 3.88225864023e-20)
(1.57383495242 -0.0378633748887 -2.52002790894e-20)
(1.5499055647 -0.0439090239947 1.66759929715e-20)
(1.5223437663 -0.0478352599938 -1.1328719148e-20)
(1.49896866211 -0.0563321442815 -2.07660227198e-20)
(1.40412870256 -0.0022762630035 4.84305977242e-20)
(1.40020387418 -0.00205759066575 4.07597034185e-20)
(1.39549178626 -0.00186169878619 3.92688825912e-20)
(1.38989299149 -0.00178631888019 6.15615784965e-20)
(1.38319205144 -0.0018532889433 -2.62698583924e-20)
(1.37557282459 -0.00216169010144 -3.90734310999e-20)
(1.3660260206 -0.00251476034589 1.35847569517e-20)
(1.35683364977 -0.00340197081986 1.60250356431e-21)
(1.34208698124 -0.00360741602566 -2.68821821927e-21)
(1.33671744756 -0.00724524766335 2.65456318084e-21)
(1.34323970862 0.716501427958 -4.84219496388e-20)
(1.34311656606 0.75980881419 2.73261843423e-20)
(1.34958258158 0.809786485355 -3.42472806099e-19)
(1.35711403602 0.865957095528 2.36183543184e-19)
(1.36515960115 0.926358610454 6.48101530919e-19)
(1.37246142422 0.990726873547 -1.50175427766e-19)
(1.37562401759 1.05723502339 -7.50558593185e-19)
(1.35841461478 1.11233485043 -6.63198120294e-20)
(1.23701876144 1.0706959352 -5.61576211902e-19)
(0.68938680068 0.645856038234 3.24034729569e-20)
(1.47146751402 0.693544572433 0)
(1.47819355897 0.735554578155 4.79167497191e-19)
(1.48780311694 0.784461523435 1.0440897e-18)
(1.49998112791 0.839053778151 -6.05124733175e-19)
(1.51415363704 0.898075314689 -1.47644842209e-18)
(1.52881539632 0.961388372482 -1.40958575244e-19)
(1.53997623217 1.02693683794 -1.80362107488e-19)
(1.5286010137 1.08119286243 6.73278614425e-19)
(1.39827646892 1.039130391 1.27938584926e-18)
(0.78158606381 0.626441602693 5.53190257207e-19)
(1.58799032823 0.659449726881 6.47699255788e-20)
(1.60270248391 0.700765844452 0)
(1.6189079978 0.747238769125 -6.89168189142e-20)
(1.63745031672 0.798208052474 6.32396374079e-19)
(1.65832969334 0.853579317438 5.36777701935e-20)
(1.68052832953 0.913458504634 -1.66764793522e-18)
(1.69956812214 0.975774961281 1.08908328209e-18)
(1.69372522767 1.02734625783 7.89406818103e-19)
(1.55408622364 0.98485480184 -1.1776119018e-18)
(0.86978269892 0.593117323918 -3.09322781273e-19)
(1.69387983935 0.610625393124 -8.9374338367e-20)
(1.71596578644 0.649826392089 -7.69818260154e-20)
(1.73939940127 0.692807833826 2.00845585013e-19)
(1.76498814065 0.739501173524 -2.52027320208e-19)
(1.79315078615 0.790380652111 -1.24304502789e-18)
(1.82308471159 0.845622620873 -9.54352399631e-19)
(1.8498201725 0.903220426283 1.11623920911e-18)
(1.8490009791 0.950718242465 7.90181566986e-19)
(1.69959272241 0.907937224736 0)
(0.95071818326 0.545850353598 0)
(1.78963250045 0.547180230965 -7.45989748747e-19)
(1.81781183441 0.582727694131 -1.21333067343e-18)
(1.84781407716 0.621245532019 -4.96927377994e-19)
(1.8802450196 0.66295025963 -3.71874758038e-20)
(1.91561852617 0.708478032279 0)
(1.95301520594 0.75796124524 1.53863021315e-19)
(1.9868417995 0.809511488941 1.81972370729e-19)
(1.99014144256 0.851745628295 2.32341248041e-19)
(1.83038561168 0.809171614034 -3.57431899434e-19)
(1.02143856995 0.485453562601 -9.31695488734e-20)
(1.8741788992 0.469939431453 8.58820476082e-19)
(1.90722934529 0.50078148459 -5.13412328379e-20)
(1.94280150295 0.53402006725 -1.02019376558e-18)
(1.98136800368 0.56994496637 0)
(2.0232730799 0.609172765969 0)
(2.06732845729 0.651770245633 0)
(2.10726265763 0.696003683566 1.45249425726e-18)
(2.11336682626 0.732039013157 -1.89859349355e-18)
(1.94250277932 0.690566427345 -1.75870549742e-18)
(1.07978459564 0.41382759982 1.94600027434e-19)
(1.94588184247 0.380726909597 -1.17399618014e-18)
(1.98271566168 0.40613672596 -2.43887578776e-18)
(2.02279089395 0.433340710242 -4.19778771183e-21)
(2.06643221793 0.462670667032 4.80851846405e-19)
(2.11377302767 0.494647843359 -4.58935277974e-20)
(2.16328521225 0.529185256004 1.17283385634e-18)
(2.20785499771 0.565168837588 -7.02305730769e-19)
(2.2158484144 0.594671000721 -2.42160406375e-18)
(2.03236894655 0.554820480853 1.62839737694e-19)
(1.12485559974 0.33281533484 1.43904974478e-19)
(2.00274408985 0.28206378632 -9.69512548784e-19)
(2.04243820828 0.301395625868 2.17297800172e-20)
(2.08593516539 0.321831934816 3.74548969671e-19)
(2.13347365063 0.343823424468 -3.5554755981e-19)
(2.18494464003 0.367759188679 5.39030137239e-19)
(2.23843443928 0.393374142452 1.65798290012e-18)
(2.28643257722 0.418494409849 -2.57868143719e-19)
(2.29346358403 0.444011399069 -1.43839395981e-18)
(2.09887813213 0.407330944491 5.08102289525e-19)
(1.15393820679 0.243387613699 1.51577585465e-19)
(2.04275727542 0.176455148721 3.52200693517e-19)
(2.08449032097 0.18919143539 1.04494815151e-19)
(2.13040978431 0.202236205326 -4.12311621748e-19)
(2.18065096476 0.216266565359 -8.85471369035e-19)
(2.23501528729 0.231614797978 1.17170276896e-19)
(2.29096431526 0.24734143937 1.30652510581e-19)
(2.33944146465 0.262809162184 -1.70890108747e-18)
(2.34534279189 0.281153860535 8.76773129459e-19)
(2.14026417263 0.250483862954 4.03701070986e-19)
(1.16600836404 0.152602358946 -3.03999877123e-19)
(2.06467537531 0.066397244194 7.27566553256e-19)
(2.10758431959 0.0720535252198 -1.08456329868e-18)