/*--------------------------------*- C++ -*----------------------------------*\
  =========                 |
  \\      /  F ield         | OpenFOAM: The Open Source CFD Toolbox
   \\    /   O peration     | Website:  https://openfoam.org
    \\  /    A nd           | Version:  13
     \\/     M anipulation  |
\*---------------------------------------------------------------------------*/
FoamFile
{
    format      ascii;
    class       volVectorField;
    location    "0.73";
    object      U;
}
// * * * * * * * * * * * * * * * * * * * * * * * * * * * * * * * * * * * * * //

dimensions      [0 1 -1 0 0 0 0];

internalField   nonuniform List<vector> 
1800
(
(0.0978008 -0.0883286 -4.48932e-20)
(0.286895 -0.241951 -3.41184e-20)
(0.473973 -0.379045 -4.85021e-19)
(0.657692 -0.500159 1.91469e-19)
(0.836612 -0.607172 7.43832e-20)
(1.00991 -0.701378 -3.90571e-20)
(1.17715 -0.783471 5.54989e-20)
(1.33794 -0.853683 1.974e-19)
(1.49159 -0.912966 5.9226e-19)
(1.63353 -0.966904 8.10062e-19)
(0.119061 -0.0915026 -7.91135e-20)
(0.344291 -0.247709 -7.70612e-19)
(0.563282 -0.38475 3.78146e-21)
(0.775364 -0.504236 1.25757e-19)
(0.979505 -0.608922 -1.26261e-19)
(1.17521 -0.700696 7.65797e-20)
(1.36231 -0.780789 -2.80801e-19)
(1.54078 -0.8501 -5.02742e-20)
(1.7101 -0.910706 -6.93509e-19)
(1.86785 -0.967046 6.29782e-19)
(0.14165 -0.0923229 4.88227e-20)
(0.40368 -0.247731 2.09288e-19)
(0.653755 -0.382117 5.43319e-19)
(0.892178 -0.497905 -1.90261e-19)
(1.11866 -0.598385 -1.42994e-19)
(1.33321 -0.685813 7.56097e-20)
(1.53605 -0.761707 9.82524e-20)
(1.72743 -0.827298 1.94063e-19)
(1.90721 -0.884802 2.73626e-21)
(2.07421 -0.93787 1.50983e-19)
(0.163906 -0.0897208 -4.5719e-20)
(0.461698 -0.23947 -2.04391e-19)
(0.741427 -0.367618 -1.81259e-19)
(1.00451 -0.476977 -1.42297e-19)
(1.25162 -0.571022 1.81309e-19)
(1.48351 -0.652127 -5.70902e-20)
(1.70093 -0.721906 -4.31046e-21)
(1.90453 -0.781622 2.92207e-21)
(2.09455 -0.833365 -1.60465e-19)
(2.27025 -0.880356 -1.05935e-19)
(0.184657 -0.0833564 -1.14038e-19)
(0.515893 -0.221807 8.7637e-20)
(0.823292 -0.339431 1.7984e-19)
(1.10931 -0.439063 2.43304e-19)
(1.37561 -0.524071 -2.8502e-19)
(1.62371 -0.596777 -3.58075e-21)
(1.85494 -0.658767 4.24974e-19)
(2.07042 -0.711262 -1.85055e-19)
(2.27083 -0.756164 -1.23988e-19)
(2.45578 -0.796397 -5.35515e-20)
(0.20319 -0.0735 1.7359e-19)
(0.56447 -0.1952 1.02984e-18)
(0.896791 -0.298074 1.43255e-19)
(1.20351 -0.384735 -5.03139e-19)
(1.48719 -0.458227 -1.75502e-19)
(1.75003 -0.520669 6.37686e-19)
(1.9939 -0.573525 -1.45376e-19)
(2.22036 -0.6179 -4.31583e-19)
(2.43047 -0.655445 -3.16659e-19)
(2.6242 -0.688743 2.6159e-19)
(0.218898 -0.0605913 1.1634e-19)
(0.605745 -0.160701 -7.4759e-19)
(0.959313 -0.24503 -1.0856e-18)
(1.28371 -0.315798 3.83784e-19)
(1.58223 -0.375564 4.49941e-19)
(1.85767 -0.426128 -9.02053e-22)
(2.11239 -0.46874 -6.39678e-19)
(2.34829 -0.504325 2.19314e-19)
(2.56683 -0.534213 -3.64488e-19)
(2.76827 -0.56057 -3.11219e-19)
(0.231235 -0.0451722 -3.42486e-19)
(0.638199 -0.119684 -6.92603e-19)
(1.00849 -0.182294 1.2122e-18)
(1.34677 -0.2347 5.987e-19)
(1.65693 -0.278852 -2.69757e-19)
(1.94224 -0.316136 -2.11496e-19)
(2.20543 -0.347515 0)
(2.44874 -0.373689 1.16804e-19)
(2.67398 -0.395622 -2.95841e-19)
(2.88171 -0.41497 -7.74246e-20)
(0.239766 -0.0278754 -2.04465e-19)
(0.660652 -0.0737557 5.62382e-19)
(1.04249 -0.112198 1.71007e-19)
(1.39031 -0.144289 -5.12492e-19)
(1.7084 -0.171277 -7.84192e-19)
(2.00037 -0.194053 3.66195e-20)
(2.26924 -0.213245 1.67124e-19)
(2.51752 -0.229294 -5.4684e-19)
(2.74731 -0.242784 -2.89764e-19)
(2.95953 -0.254778 -5.63594e-19)
(0.24426 -0.00940241 4.51407e-19)
(0.672452 -0.024704 3.44148e-19)
(1.0603 -0.0373616 -9.38595e-20)
(1.41303 -0.0477884 -1.29785e-20)
(1.73514 -0.0564622 -3.87506e-19)
(2.03041 -0.0637231 -8.5733e-20)
(2.30205 -0.0698101 -2.90577e-19)
(2.55275 -0.0748903 6.46557e-19)
(2.7848 -0.0791712 1.71002e-19)
(2.99945 -0.083012 2.22249e-21)
(-0.00234334 -0.0217828 -3.45001e-20)
(0.00859721 -0.0693526 -7.01729e-20)
(0.024883 -0.120531 -7.32516e-21)
(0.049316 -0.171253 -3.40225e-20)
(0.0776695 -0.216648 -1.27339e-20)
(0.10651 -0.25479 -3.9006e-19)
(0.135536 -0.288721 -1.95177e-20)
(0.166324 -0.322037 1.19955e-19)
(0.199153 -0.355557 1.0951e-20)
(0.233045 -0.38793 -3.57666e-20)
(0.000848991 -0.0246821 -9.77563e-20)
(0.0149407 -0.0850682 -2.1283e-19)
(0.0393454 -0.160355 -5.3861e-20)
(0.0692717 -0.22529 -1.10401e-19)
(0.0994874 -0.275581 -9.64209e-20)
(0.130451 -0.318012 -2.79698e-19)
(0.164469 -0.359005 2.00466e-19)
(0.202132 -0.400413 1.68669e-19)
(0.241635 -0.440338 -2.56712e-19)
(0.281145 -0.476725 8.13364e-20)
(0.00549599 -0.0314888 -8.54126e-20)
(0.0287766 -0.107415 -8.67344e-19)
(0.062859 -0.19612 -1.29711e-19)
(0.0974514 -0.268989 9.31336e-20)
(0.131812 -0.327233 6.77729e-20)
(0.169647 -0.3803 -4.49467e-19)
(0.212943 -0.432331 3.55811e-20)
(0.259137 -0.48183 3.67024e-19)
(0.305486 -0.526296 -3.86526e-19)
(0.351434 -0.565695 -2.58591e-19)
(0.0113686 -0.0409829 -1.77089e-21)
(0.0466248 -0.130877 1.89905e-19)
(0.0896437 -0.225341 1.61095e-21)
(0.133077 -0.307047 -1.07561e-20)
(0.177788 -0.377885 -3.00738e-20)
(0.227242 -0.443872 8.63844e-20)
(0.281097 -0.505643 7.29734e-20)
(0.335669 -0.560917 -1.36103e-19)
(0.389732 -0.609401 9.20865e-21)
(0.443901 -0.65197 -1.04425e-20)
(0.0185093 -0.05077 0)
(0.0672391 -0.15243 5.4843e-21)
(0.121941 -0.253641 -5.10449e-19)
(0.178696 -0.345485 5.1619e-20)
(0.237809 -0.428586 -1.001e-20)
(0.300517 -0.5051 5.57795e-21)
(0.365311 -0.57439 -2.53591e-20)
(0.429808 -0.63545 -7.76597e-21)
(0.493946 -0.688858 0)
(0.55814 -0.73487 -2.05838e-20)
(0.0273258 -0.0596495 3.18407e-20)
(0.0918957 -0.172857 -1.54348e-19)
(0.161768 -0.282527 -4.60202e-20)
(0.234631 -0.383895 -5.83469e-20)
(0.309738 -0.47676 4.96215e-20)
(0.386738 -0.561543 5.654e-21)
(0.464244 -0.637711 8.94617e-20)
(0.540939 -0.704955 -2.17591e-20)
(0.61691 -0.763458 -6.96217e-19)
(0.69216 -0.812663 -1.01026e-20)
(0.0379749 -0.0676045 6.81943e-22)
(0.121237 -0.192179 5.56667e-20)
(0.209164 -0.310619 -7.84465e-20)
(0.299928 -0.420179 -1.66957e-20)
(0.392137 -0.520673 -7.29193e-20)
(0.484779 -0.612132 -9.47131e-21)
(0.576702 -0.69433 9.97706e-21)
(0.666942 -0.767151 -2.11574e-19)
(0.755526 -0.830274 3.83489e-19)
(0.842318 -0.882331 9.71515e-19)
(0.0503614 -0.0746009 1.51263e-20)
(0.15513 -0.20961 -1.42266e-19)
(0.263462 -0.335965 -2.13756e-19)
(0.373671 -0.452112 8.90078e-20)
(0.484103 -0.558267 -6.43235e-20)
(0.593545 -0.654618 9.86979e-20)
(0.700944 -0.741278 1.96766e-19)
(0.805409 -0.818302 -1.09072e-19)
(0.907022 -0.885117 -3.05929e-19)
(1.00569 -0.939533 7.25325e-19)
(0.06429 -0.0803597 -2.64927e-20)
(0.193286 -0.224026 -5.78119e-19)
(0.324297 -0.35656 5.24305e-19)
(0.455684 -0.477231 3.37485e-19)
(0.585739 -0.586746 -8.59068e-20)
(0.713225 -0.68566 3.08658e-19)
(0.83713 -0.774434 -1.59963e-19)
(0.956565 -0.853459 -7.72828e-19)
(1.07173 -0.922038 -4.03696e-19)
(1.18267 -0.977284 4.53647e-19)
(0.079545 -0.0846659 -7.98223e-20)
(0.235845 -0.234417 -5.44357e-19)
(0.392392 -0.370524 -8.28399e-21)
(0.547542 -0.492795 6.88283e-20)
(0.699594 -0.602463 3.37755e-19)
(0.847392 -0.700433 -1.85384e-19)
(0.990013 -0.787441 -1.69461e-19)
(1.12653 -0.863827 1.88985e-19)
(1.25681 -0.92865 -3.51608e-19)
(1.38007 -0.980357 -5.84565e-19)
(0.402951 -0.532038 9.83778e-19)
(0.684881 -0.618535 -2.42344e-19)
(0.913777 -0.557873 -1.42517e-19)
(1.0877 -0.43139 2.68577e-19)
(1.24024 -0.280302 -2.3042e-19)
(1.36273 -0.139574 -2.99755e-19)
(1.46066 -0.0338542 -2.66311e-19)
(1.51824 0.0201394 -3.18955e-20)
(1.53934 0.0322631 -4.64647e-21)
(1.55549 0.0234839 2.99685e-20)
(0.468891 -0.619903 9.64923e-19)
(0.741514 -0.693967 7.12351e-20)
(0.966309 -0.617925 1.09617e-20)
(1.12486 -0.480642 -2.1563e-19)
(1.26566 -0.320687 -7.14775e-19)
(1.38113 -0.172289 0)
(1.48033 -0.0586512 -2.47617e-19)
(1.55509 0.00598929 5.18881e-20)
(1.59287 0.0258612 4.51867e-21)
(1.62179 0.019881 6.26403e-21)
(0.556223 -0.705556 -9.98109e-19)
(0.810804 -0.766939 -7.10011e-20)
(1.02555 -0.675833 1.56193e-19)
(1.16619 -0.527723 -5.39269e-20)
(1.29126 -0.359854 -3.64397e-20)
(1.39721 -0.204868 6.43233e-20)
(1.49202 -0.0852584 0)
(1.5746 -0.0129453 0)
(1.62944 0.0137083 -1.50918e-20)
(1.67888 0.0137957 0)
(0.665706 -0.787297 -2.24943e-19)
(0.895615 -0.8355 4.04446e-19)
(1.09196 -0.730534 2.68228e-20)
(1.21244 -0.571645 0)
(1.31795 -0.396916 6.04743e-19)
(1.41202 -0.236279 -1.42761e-19)
(1.49954 -0.112118 0)
(1.58255 -0.0335634 1.33288e-19)
(1.63948 -0.00384119 0)
(1.72186 0.00273298 -1.95479e-20)
(0.795743 -0.863976 -1.48898e-19)
(0.997636 -0.897668 4.55091e-19)
(1.16618 -0.780871 -1.46535e-20)
(1.26378 -0.61158 0)
(1.34645 -0.431049 1.78993e-19)
(1.42597 -0.2658 2.68788e-19)
(1.50486 -0.138044 4.74883e-20)
(1.58408 -0.0542031 6.6747e-21)
(1.63713 -0.0222286 -2.27192e-20)
(1.73439 -0.0123775 3.3574e-20)
(0.942249 -0.934838 -1.33185e-18)
(1.11648 -0.95209 -9.42489e-19)
(1.24884 -0.825578 4.75837e-21)
(1.31998 -0.646808 5.75627e-19)
(1.37712 -0.461469 -3.04855e-19)
(1.43913 -0.292891 1.4662e-19)
(1.50858 -0.162314 2.31891e-19)
(1.58136 -0.0738641 -1.87765e-19)
(1.63233 -0.0407849 -1.91626e-21)
(1.7272 -0.0272941 1.82277e-20)
(1.1001 -0.999508 -2.60644e-19)
(1.25 -0.99858 2.86709e-19)
(1.34016 -0.863539 3.93227e-21)
(1.38074 -0.676642 -1.76284e-20)
(1.41007 -0.487405 -5.90313e-19)
(1.4515 -0.317009 5.4073e-20)
(1.5103 -0.184457 -9.40173e-20)
(1.57527 -0.0925282 -2.68326e-20)
(1.62857 -0.0569461 -2.56309e-22)
(1.69539 -0.0403424 -2.31031e-20)
(1.26433 -1.05688 -1.2007e-18)
(1.39473 -1.03774 2.10027e-19)
(1.43913 -0.894164 0)
(1.44508 -0.700657 3.44947e-20)
(1.44463 -0.508339 5.20457e-19)
(1.46276 -0.337661 -1.59037e-21)
(1.50894 -0.204493 -3.13691e-19)
(1.56705 -0.10915 6.34291e-20)
(1.61612 -0.0717918 -1.05791e-21)
(1.64081 -0.0468064 -3.31668e-20)
(1.432 -1.10353 3.39104e-18)
(1.54804 -1.07049 2.4599e-19)
(1.54558 -0.918159 4.64405e-19)
(1.51325 -0.719275 -3.18009e-20)
(1.48088 -0.524434 -3.44143e-20)
(1.47283 -0.354736 -4.28212e-19)
(1.50215 -0.222104 9.27713e-20)
(1.55584 -0.124513 3.06913e-21)
(1.56734 -0.0779046 -2.4632e-20)
(1.57554 -0.0487016 4.1017e-20)
(1.59924 -1.12821 -2.99817e-18)
(1.70185 -1.09568 1.27216e-18)
(1.65393 -0.938169 -2.33083e-19)
(1.58137 -0.735985 -7.88846e-19)
(1.51579 -0.539265 -6.54904e-19)
(1.47901 -0.37202 -2.53987e-19)
(1.49016 -0.23973 -6.8525e-20)
(1.51037 -0.136288 0)
(1.50418 -0.0790129 -6.15074e-20)
(1.50271 -0.0491052 1.28585e-19)
(1.88819 -1.17025 -6.71161e-18)
(1.92739 -1.10522 -1.6918e-18)
(1.80484 -0.932365 -5.83302e-20)
(1.67305 -0.727813 1.11861e-19)
(1.56232 -0.534409 1.59824e-19)
(1.4866 -0.373547 -1.02151e-19)
(1.44746 -0.24306 -4.04474e-20)
(1.42495 -0.136193 7.20676e-20)
(1.41334 -0.0771246 -5.94872e-20)
(1.40335 -0.0483817 -5.90625e-20)
(2.28934 -1.13489 4.95834e-19)
(2.17884 -1.05676 -2.89372e-19)
(1.94271 -0.865409 4.94951e-19)
(1.73558 -0.664927 -8.46255e-20)
(1.56202 -0.481032 1.03283e-21)
(1.42603 -0.333955 -7.03434e-20)
(1.34145 -0.219007 9.56705e-20)
(1.30692 -0.125437 -3.30958e-20)
(1.28908 -0.0717384 2.07894e-19)
(1.27284 -0.0454983 9.33158e-20)
(2.61059 -1.04362 2.2709e-18)
(2.35193 -0.948803 3.25785e-19)
(2.00821 -0.759522 -1.1775e-19)
(1.73239 -0.573026 1.64059e-36)
(1.50514 -0.410892 -2.55362e-20)
(1.33875 -0.286924 1.50536e-33)
(1.23362 -0.191071 -2.011e-20)
(1.18117 -0.112735 -1.65952e-33)
(1.15727 -0.0647944 6.8492e-21)
(1.13559 -0.0412884 -1.38159e-20)
(2.78702 -0.893982 3.88655e-33)
(2.36941 -0.795648 2.96663e-18)
(1.97354 -0.630515 1.81772e-18)
(1.65335 -0.469453 0)
(1.40636 -0.335003 8.32321e-19)
(1.22946 -0.233799 4.29069e-19)
(1.11334 -0.156985 1.70382e-19)
(1.04906 -0.0957701 -2.91925e-33)
(1.01907 -0.0559596 -5.80112e-20)
(0.99302 -0.0358811 8.61295e-21)
(2.76364 -0.705901 3.84268e-18)
(2.24587 -0.629894 -1.4681e-19)
(1.84649 -0.491036 0)
(1.51546 -0.361727 0)
(1.27117 -0.255746 0)
(1.09711 -0.178518 0)
(0.980441 -0.121282 -1.27416e-20)
(0.910673 -0.076266 -4.21314e-33)
(0.876053 -0.0454999 7.699e-21)
(0.846685 -0.0295443 7.40508e-34)
(2.55116 -0.51704 3.26568e-18)
(2.02004 -0.46292 0)
(1.63854 -0.35365 0)
(1.32672 -0.25675 0)
(1.10088 -0.179722 0)
(0.941583 -0.125594 0)
(0.833225 -0.0862885 3.30115e-20)
(0.764861 -0.0558128 -9.2462e-20)
(0.728457 -0.0340039 8.58995e-21)
(0.697508 -0.022594 3.18665e-20)
(2.19011 -0.342713 0)
(1.70262 -0.303514 1.09818e-18)
(1.36127 -0.22761 1.09029e-18)
(1.09129 -0.161993 0)
(0.898359 -0.112345 6.66648e-19)
(0.763919 -0.0787343 4.04264e-19)
(0.67144 -0.0547542 2.51435e-19)
(0.610613 -0.0363922 8.42698e-20)
(0.576096 -0.022513 -2.94045e-20)
(0.546057 -0.0155409 -3.93912e-21)
(1.70285 -0.191137 -6.73874e-19)
(1.30018 -0.165595 -2.74169e-19)
(1.02504 -0.121757 1.75648e-19)
(0.815072 -0.084437 -2.11239e-34)
(0.667684 -0.0580837 -7.70758e-20)
(0.566122 -0.0410557 3.70895e-33)
(0.4955 -0.0290019 4.88115e-20)
(0.447416 -0.0198741 9.88471e-20)
(0.41863 -0.0123414 9.95963e-21)
(0.392633 -0.00904939 -2.25704e-21)
(1.10088 -0.0758216 3.40806e-18)
(0.823157 -0.0626788 -1.86562e-19)
(0.640578 -0.0442935 -5.88905e-19)
(0.506142 -0.0289875 0)
(0.413812 -0.0195679 -6.40096e-19)
(0.350628 -0.0141306 -4.32401e-19)
(0.30609 -0.0103217 -2.04131e-19)
(0.274851 -0.00750502 -1.42869e-19)
(0.255337 -0.00469652 1.73196e-19)
(0.237086 -0.0038112 -2.91469e-20)
(0.397351 -0.00331882 0)
(0.287866 0.00159425 0)
(0.22089 0.00409437 0)
(0.17355 0.00624776 0)
(0.142371 0.00585724 0)
(0.121186 0.00471586 0)
(0.105847 0.003686 5.60332e-20)
(0.0946381 0.00258468 -2.17648e-34)
(0.0872641 0.00218187 1.25117e-20)
(0.0799837 0.000929803 1.13086e-20)
(3.3671 -0.0863119 5.39208e-19)
(3.32642 -0.265087 -8.41903e-20)
(3.24735 -0.430657 8.52095e-19)
(3.13238 -0.582159 -6.04744e-19)
(2.98634 -0.718127 6.66405e-19)
(2.81524 -0.836384 2.75245e-19)
(2.6266 -0.934062 -1.92749e-18)
(2.42951 -1.00785 -7.74777e-20)
(2.22468 -1.05368 0)
(1.98486 -1.06656 4.26102e-19)
(3.86191 -0.0750599 7.07369e-18)
(3.79859 -0.234214 1.95637e-18)
(3.70428 -0.387312 -4.86734e-18)
(3.58426 -0.531994 -4.49095e-19)
(3.44238 -0.665897 3.55891e-18)
(3.28186 -0.787324 1.92346e-18)
(3.1065 -0.895073 -5.1687e-18)
(2.92204 -0.987709 -1.9522e-18)
(2.72759 -1.0634 2.20318e-18)
(2.49237 -1.12053 8.52177e-19)
(3.83308 -0.0533013 -1.26252e-19)
(3.82024 -0.171567 4.4036e-18)
(3.78546 -0.299763 -1.08825e-18)
(3.72434 -0.430921 -3.44612e-18)
(3.63618 -0.558733 -6.80008e-18)
(3.52371 -0.678805 1.02787e-17)
(3.39117 -0.788796 4.18064e-18)
(3.2435 -0.887989 -3.91185e-18)
(3.08161 -0.978723 -2.90279e-18)
(2.88723 -1.06301 -3.42507e-18)
(3.62866 -0.0472863 -4.83943e-18)
(3.61961 -0.144932 -4.35348e-18)
(3.59963 -0.243741 5.47221e-18)
(3.56735 -0.343096 1.91191e-18)
(3.52241 -0.44238 -8.97136e-18)
(3.46416 -0.54081 4.92204e-19)
(3.39183 -0.637049 3.88637e-18)
(3.30511 -0.730435 -1.05395e-18)
(3.20499 -0.823068 1.27681e-18)
(3.08305 -0.914777 2.8177e-19)
(3.34405 -0.0365787 -9.16003e-19)
(3.339 -0.111656 3.00413e-18)
(3.3271 -0.188677 1.6196e-18)
(3.30744 -0.267172 -1.89431e-18)
(3.27986 -0.346071 -2.00139e-18)
(3.24465 -0.424138 -2.43399e-18)
(3.20204 -0.500336 3.7966e-19)
(3.15175 -0.574496 1.39045e-19)
(3.09548 -0.647762 -2.13974e-18)
(3.03286 -0.721308 -2.03439e-18)
(2.96257 -0.0265548 -1.82251e-18)
(2.95981 -0.0798892 -5.87229e-20)
(2.9533 -0.134599 -1.63755e-18)
(2.9424 -0.190903 3.12127e-19)
(2.92675 -0.248551 5.36787e-18)
(2.90629 -0.30693 -3.66747e-19)
(2.88092 -0.365116 4.43386e-20)
(2.85023 -0.42206 -2.60861e-18)
(2.81643 -0.476884 -3.49568e-18)
(2.786 -0.529866 3.72839e-19)
(2.48713 -0.017511 -2.89312e-20)
(2.48578 -0.0519349 -8.14317e-19)
(2.48259 -0.0872484 -2.61487e-18)
(2.47707 -0.123771 -3.43104e-18)
(2.4688 -0.161534 2.49658e-18)
(2.45744 -0.200268 1.50227e-18)
(2.44261 -0.239354 -1.38509e-18)
(2.4237 -0.277791 1.6245e-18)
(2.40274 -0.314483 -4.29708e-19)
(2.38953 -0.349541 -9.63775e-19)
(1.91464 -0.00968851 7.72464e-19)
(1.91408 -0.0282977 -8.31808e-19)
(1.91278 -0.0474398 -3.277e-20)
(1.91031 -0.0673591 -3.47229e-20)
(1.90624 -0.0881302 -7.27402e-20)
(1.90013 -0.109614 -2.33197e-18)
(1.8915 -0.131405 -6.78682e-19)
(1.87978 -0.152782 2.62614e-18)
(1.86664 -0.172975 -6.03514e-19)
(1.86191 -0.192207 -1.35115e-18)
(1.23988 -0.00373769 -1.64283e-18)
(1.23967 -0.0106957 -8.48918e-19)
(1.23923 -0.0179012 2.33921e-18)
(1.23823 -0.0254786 -8.89782e-19)
(1.23625 -0.0334753 -6.74128e-19)
(1.2329 -0.0418316 1.35204e-18)
(1.22775 -0.0503499 -1.2959e-18)
(1.22038 -0.0586654 1.287e-18)
(1.21202 -0.0663425 -1.21033e-18)
(1.21007 -0.0735082 -4.24832e-18)
(0.454916 -0.000257982 6.63085e-19)
(0.454827 -0.000700534 7.03058e-19)
(0.454692 -0.00115912 7.48186e-19)
(0.454325 -0.00164005 1.35398e-18)
(0.453496 -0.00214017 -6.7199e-19)
(0.451984 -0.00263718 -1.29963e-18)
(0.449567 -0.0030991 6.1472e-19)
(0.445992 -0.00359292 2.48373e-20)
(0.441737 -0.00439221 -4.96533e-20)
(0.44035 -0.00504562 1.1057e-19)
(1.65356 0.99727 -2.85797e-19)
(1.51227 0.941856 1.79963e-20)
(1.35879 0.880743 -2.28649e-19)
(1.19767 0.808436 1.76334e-19)
(1.02957 0.723976 -1.91939e-19)
(0.854823 0.627075 -1.01099e-19)
(0.673759 0.516941 2.31981e-19)
(0.487035 0.392146 -3.04908e-19)
(0.295891 0.250643 3.09877e-19)
(0.10143 0.0916436 2.38712e-19)
(1.88638 0.992188 0)
(1.72968 0.934737 6.39306e-19)
(1.56083 0.872766 3.32491e-19)
(1.38228 0.801851 1.62736e-19)
(1.19453 0.719877 4.31239e-19)
(0.997533 0.625897 -8.68497e-20)
(0.79136 0.518601 -7.8538e-20)
(0.576346 0.39599 8.87654e-20)
(0.353317 0.255175 -1.04516e-18)
(0.122698 0.094355 -1.66465e-20)
(2.09104 0.959035 1.56804e-19)
(1.92523 0.905066 0)
(1.74614 0.84646 -1.00737e-19)
(1.55493 0.779548 -3.83384e-19)
(1.3517 0.702081 5.37063e-20)
(1.13609 0.612789 3.97111e-19)
(0.907783 0.510088 -6.06873e-19)
(0.666589 0.391638 -2.00881e-19)
(0.412595 0.254044 7.83585e-19)
(0.14525 0.0947349 -1.75936e-19)
(2.28484 0.898352 1.87977e-19)
(2.11044 0.850559 1.19883e-20)
(1.9213 0.79786 2.45149e-20)
(1.71811 0.737 3.6091e-20)
(1.50058 0.665855 -2.92767e-20)
(1.26792 0.583131 2.73254e-19)
(1.01926 0.487168 -2.06875e-19)
(0.753674 0.37553 -8.55564e-19)
(0.47027 0.244678 0)
(0.167388 0.0916963 0)
(2.46796 0.811817 -1.07081e-18)
(2.28435 0.770835 -6.09169e-19)
(2.08493 0.72506 -1.20672e-19)
(1.87003 0.671522 -6.65714e-20)
(1.6389 0.608294 0)
(1.39031 0.534136 2.40749e-19)
(1.12275 0.447434 2.67775e-19)
(0.834554 0.345835 2.86238e-19)
(0.523839 0.225953 -4.23741e-19)
(0.187907 0.0848979 -8.12339e-20)
(2.634 0.702092 7.66405e-19)
(2.44156 0.668063 -1.39172e-19)
(2.23244 0.629678 -2.21574e-19)
(2.00664 0.584305 0)
(1.76301 0.530278 0)
(1.49988 0.466487 0)
(1.21522 0.391463 -3.89802e-20)
(0.906684 0.303089 3.70274e-19)
(0.571498 0.198348 3.79145e-19)
(0.206083 0.0746242 -3.08565e-19)
(2.7758 0.572355 -1.19356e-18)
(2.5755 0.54526 -1.48136e-18)
(2.35786 0.514529 -3.03298e-22)
(2.1226 0.477946 -1.87659e-19)
(1.86818 0.434181 -9.28794e-20)
(1.59258 0.382318 -1.78838e-19)
(1.29333 0.321124 4.59089e-19)
(0.967489 0.248836 2.14862e-19)
(0.611583 0.162966 5.40023e-19)
(0.221314 0.0613402 2.02852e-19)
(2.88707 0.425748 -1.15708e-18)
(2.68027 0.405633 8.47051e-20)
(2.45576 0.38282 1.64526e-19)
(2.21297 0.355611 1.6817e-20)
(1.95004 0.323051 -3.14402e-19)
(1.66465 0.284468 -1.74209e-19)
(1.35398 0.238937 -6.21207e-19)
(1.01464 0.18514 1.1853e-19)
(0.642604 0.121237 5.14751e-20)
(0.233065 0.0456126 -6.26906e-21)
(2.9628 0.265187 1.01364e-19)
(2.75121 0.252354 3.97005e-19)
(2.52189 0.237904 -3.30292e-19)
(2.27394 0.22074 3.63014e-19)
(2.00523 0.200297 3.72547e-19)
(1.71322 0.176176 4.91895e-19)
(1.39481 0.147809 -6.35738e-19)
(1.04633 0.114389 -3.24414e-19)
(0.663411 0.0748097 -4.58506e-20)
(0.240916 0.0280951 -3.26993e-19)
(3.00052 0.0935772 5.81812e-19)
(2.78612 0.0887857 -1.86159e-19)
(2.55425 0.083444 4.79562e-19)
(2.30367 0.0771502 -3.10667e-19)
(2.03208 0.0697279 2.66477e-19)
(1.73679 0.0610619 6.05409e-19)
(1.41457 0.0509785 3.78884e-19)
(1.06161 0.0392346 3.09341e-19)
(0.673396 0.0255065 2.65861e-19)
(0.244654 0.00950722 5.43613e-19)
(0.239596 0.452143 -4.69245e-19)
(0.203993 0.41842 -1.87671e-19)
(0.168425 0.381335 1.39189e-19)
(0.134895 0.343669 -4.19272e-19)
(0.105161 0.307542 -1.19429e-19)
(0.078264 0.270289 6.92802e-19)
(0.0518886 0.223884 3.35822e-19)
(0.02597 0.159027 -1.55482e-19)
(0.00706117 0.0797183 1.14698e-19)
(-0.00112374 0.022453 -6.07432e-20)
(0.288646 0.544426 4.11419e-19)
(0.248743 0.507629 4.58375e-19)
(0.208195 0.465578 -1.16621e-20)
(0.167866 0.418547 -1.32739e-19)
(0.131143 0.37042 -3.1333e-19)
(0.100611 0.322819 8.28333e-20)
(0.0734827 0.269491 2.25156e-19)
(0.0459007 0.197028 1.65462e-19)
(0.0183464 0.101933 -5.91075e-19)
(0.00279174 0.028886 -1.2363e-19)
(0.359657 0.633237 -6.00892e-19)
(0.313793 0.593087 -4.81461e-19)
(0.267997 0.547246 2.57657e-19)
(0.221355 0.493934 1.38257e-19)
(0.17581 0.434166 -6.09873e-21)
(0.136272 0.37195 -1.40095e-19)
(0.10212 0.305675 -2.9501e-20)
(0.0684393 0.224946 -5.55117e-19)
(0.0336748 0.126055 -2.69391e-19)
(0.00764068 0.0378081 -3.90625e-20)
(0.454213 0.717972 5.03312e-19)
(0.400057 0.673775 1.6475e-19)
(0.346364 0.622759 -1.49405e-19)
(0.292228 0.56371 6.32566e-20)
(0.237747 0.495607 -5.75026e-22)
(0.186585 0.420923 1.3115e-21)
(0.140103 0.340697 -1.32335e-19)
(0.0954608 0.25028 3.78401e-19)
(0.0514375 0.147754 -4.19262e-19)
(0.0135827 0.0477165 -6.50905e-20)
(0.572002 0.797933 -2.8218e-19)
(0.507856 0.749836 -8.88956e-20)
(0.443575 0.692985 -1.43508e-20)
(0.378966 0.62726 -7.03073e-20)
(0.313718 0.551997 5.85655e-20)
(0.249661 0.468092 5.27695e-20)
(0.188379 0.376734 -2.79463e-20)
(0.129325 0.276665 -2.82126e-19)
(0.072528 0.167648 2.18343e-19)
(0.0209196 0.0568427 8.72672e-20)
(0.709412 0.871007 6.43347e-19)
(0.634364 0.81962 3.20796e-19)
(0.558129 0.757449 2.03053e-19)
(0.480854 0.685381 4.82178e-20)
(0.402412 0.603541 1.5508e-19)
(0.32387 0.512371 7.85013e-20)
(0.246467 0.412523 1.43394e-19)
(0.170865 0.303914 5.794e-20)
(0.0980538 0.186801 -1.59258e-20)
(0.0299978 0.0650313 -1.33211e-20)
(0.862018 0.934913 -1.19772e-19)
(0.77554 0.880711 -8.24844e-19)
(0.686702 0.814081 -7.60748e-20)
(0.595724 0.736834 -5.22752e-20)
(0.502561 0.64963 -1.9705e-20)
(0.408124 0.552712 1.51532e-19)
(0.313478 0.44631 -4.38162e-20)
(0.21971 0.330411 6.49783e-20)
(0.128293 0.205079 -1.44616e-19)
(0.0409043 0.0724939 -1.25939e-21)
(1.02673 0.986066 -8.84729e-19)
(0.928468 0.929663 5.94306e-20)
(0.826656 0.859724 -2.33927e-19)
(0.721463 0.778897 -7.24508e-20)
(0.612768 0.688012 -2.39884e-20)
(0.501457 0.587069 -7.51858e-20)
(0.388526 0.475892 5.62728e-20)
(0.275163 0.354194 6.03029e-20)
(0.162982 0.221557 -9.8212e-21)
(0.0535441 0.0791206 -1.03786e-19)
(1.2039 1.01796 1.23823e-19)
(1.0935 0.960961 5.23093e-19)
(0.978254 0.889733 1.55232e-21)
(0.858223 0.807562 -2.95771e-20)
(0.733145 0.715304 1.50857e-19)
(0.603891 0.612551 -3.47278e-19)
(0.471403 0.498751 -2.44374e-19)
(0.33683 0.373208 3.56108e-19)
(0.201772 0.235007 1.44181e-19)
(0.0677021 0.0845325 -3.62205e-20)
(1.40059 1.01548 7.3972e-19)
(1.27806 0.962359 3.23699e-19)
(1.14783 0.895375 5.59338e-20)
(1.01087 0.81641 -1.94926e-19)
(0.867271 0.726526 -1.64335e-20)
(0.717901 0.625339 4.65579e-19)
(0.563584 0.512005 -2.68218e-19)
(0.405341 0.385475 -1.8448e-19)
(0.244705 0.24432 3.35792e-19)
(0.0831139 0.0884408 -6.04475e-21)
(0.976981 0.0986325 8.63958e-21)
(1.14238 0.142187 -1.39856e-21)
(1.21372 0.190401 -2.35918e-20)
(1.32643 0.170695 0)
(1.37825 0.155549 2.76642e-22)
(1.27932 0.234243 -5.48892e-20)
(1.12965 0.38561 -5.41961e-20)
(0.94952 0.543562 -1.15691e-20)
(0.71175 0.648465 -3.05576e-19)
(0.416593 0.595658 4.24851e-19)
(0.982326 0.0797685 1.97008e-19)
(1.13428 0.114516 -3.10577e-20)
(1.2102 0.159983 1.8945e-21)
(1.31725 0.151701 1.14621e-20)
(1.38151 0.157724 3.44142e-21)
(1.29909 0.268898 -2.4576e-21)
(1.15957 0.435827 1.25497e-20)
(0.994091 0.606668 0)
(0.761608 0.727538 7.99929e-19)
(0.47943 0.686867 -5.67904e-19)
(0.987288 0.0611846 -1.13596e-19)
(1.13078 0.0878754 6.64816e-21)
(1.20974 0.130429 7.78955e-20)
(1.31414 0.131396 1.91678e-20)
(1.38467 0.159032 -2.32205e-20)
(1.31896 0.301488 -3.48992e-20)
(1.19261 0.484544 -1.09898e-20)
(1.04415 0.668194 4.46461e-20)
(0.823162 0.804032 -1.25975e-21)
(0.564486 0.774656 -3.68496e-19)
(0.991638 0.0423181 -8.08711e-20)
(1.1315 0.0618339 1.5407e-20)
(1.21281 0.10155 7.55473e-20)
(1.31734 0.110944 3.10165e-20)
(1.39042 0.159888 -2.38268e-20)
(1.33908 0.331963 -2.72924e-20)
(1.22914 0.531048 7.53022e-20)
(1.10025 0.727003 2.69092e-20)
(0.899921 0.875682 -5.47381e-19)
(0.673702 0.857061 -1.77796e-19)
(0.995173 0.0227985 3.65879e-20)
(1.13564 0.0359234 -4.63462e-20)
(1.219 0.073233 -6.77563e-20)
(1.32548 0.0910182 2.26143e-20)
(1.39773 0.161281 0)
(1.35915 0.360741 0)
(1.26924 0.574682 7.76072e-20)
(1.16352 0.781708 -2.82697e-20)
(0.994666 0.940003 -1.18196e-19)
(0.805108 0.932439 -5.73691e-20)
(0.997683 0.00246556 3.38076e-21)
(1.14228 0.0097281 5.80075e-20)
(1.22737 0.0453822 -2.07804e-19)
(1.33669 0.0721642 -7.69463e-20)
(1.40539 0.164035 -4.82007e-21)
(1.37907 0.387979 1.26195e-19)
(1.31311 0.614585 1.53615e-19)
(1.23551 0.830587 -1.80514e-20)
(1.1078 0.995194 -4.38341e-20)
(0.95376 1.00015 2.88008e-21)
(0.998415 -0.018874 1.84761e-21)
(1.15054 -0.0171095 2.99047e-20)
(1.23697 0.0180147 -6.55907e-20)
(1.34949 0.0548956 -1.55342e-19)
(1.41248 0.168393 1.17661e-20)
(1.39911 0.413343 7.36937e-21)
(1.36135 0.649639 -5.96896e-20)
(1.31734 0.871988 -1.08118e-19)
(1.23729 1.04097 -3.05167e-20)
(1.11388 1.06033 -9.79882e-19)
(0.996329 -0.0409943 1.49258e-20)
(1.15986 -0.0448767 -1.44311e-19)
(1.24707 -0.00869777 1.32669e-19)
(1.36265 0.0399568 1.02443e-19)
(1.41786 0.174817 5.01297e-21)
(1.41925 0.436374 -1.33641e-19)
(1.41385 0.67881 3.98972e-22)
(1.40834 0.904975 -1.32062e-19)
(1.37932 1.07821 1.11022e-20)
(1.27987 1.11242 2.88337e-18)
(0.991256 -0.0632447 -8.79664e-20)
(1.17015 -0.073691 8.06635e-20)
(1.25728 -0.0345813 1.90802e-19)
(1.37549 0.0274666 -1.14841e-19)
(1.42208 0.183065 -2.27096e-19)
(1.44106 0.456774 9.25952e-21)
(1.4719 0.701967 1.69495e-19)
(1.50848 0.930255 -5.74543e-19)
(1.53085 1.10819 -2.68469e-20)
(1.44836 1.1534 -6.47488e-18)
(0.984128 -0.0861076 4.10472e-21)
(1.1817 -0.103532 1.41851e-19)
(1.26747 -0.0594396 6.14531e-20)
(1.38685 0.019788 -2.76977e-19)
(1.42295 0.197184 -2.45304e-19)
(1.4621 0.478126 -7.27556e-20)
(1.53113 0.722892 8.11307e-20)
(1.61158 0.951172 -2.06134e-19)
(1.68374 1.13055 -1.08637e-18)
(1.61563 1.17237 -7.95149e-18)
(0.974235 -0.11718 -1.44962e-20)
(1.19586 -0.143143 -3.27804e-20)
(1.27684 -0.0930314 -7.69171e-20)
(1.39745 0.00540699 1.42248e-19)
(1.42467 0.196275 2.0257e-19)
(1.49182 0.47364 -6.08967e-20)
(1.61189 0.712288 -1.41761e-19)
(1.75378 0.940309 -1.20104e-18)
(1.90279 1.13254 -1.59916e-18)
(1.89935 1.2087 3.28622e-18)
(0.961969 -0.155825 -4.05034e-19)
(1.21427 -0.192573 1.7783e-20)
(1.28074 -0.139066 -5.81876e-20)
(1.39773 -0.0161415 3.36293e-19)
(1.40292 0.174273 3.45101e-19)
(1.49334 0.428766 2.17942e-21)
(1.66806 0.647934 -6.5936e-20)
(1.88066 0.865881 -2.86054e-19)
(2.13955 1.07137 2.78433e-19)
(2.28453 1.16083 -3.23459e-19)
(0.949359 -0.196283 -2.78937e-20)
(1.23948 -0.24241 -5.49329e-20)
(1.27972 -0.183543 3.07544e-20)
(1.39278 -0.0345571 2.69936e-20)
(1.37631 0.163174 1.72159e-33)
(1.46978 0.371485 2.55339e-21)
(1.68036 0.561385 -2.03775e-33)
(1.94898 0.759587 1.85228e-19)
(2.3019 0.956399 -9.30986e-19)
(2.58733 1.05846 -6.2929e-19)
(0.936996 -0.242989 1.4109e-18)
(1.27094 -0.282379 -7.75413e-34)
(1.24934 -0.22891 -4.03888e-20)
(1.27026 -0.0366938 -2.28416e-19)
(1.26217 0.144758 -4.4626e-19)
(1.38919 0.302582 -8.84002e-19)
(1.61902 0.460067 -5.06427e-33)
(1.92916 0.631087 -1.73787e-18)
(2.32575 0.802093 -3.1775e-18)
(2.75372 0.902589 1.6752e-18)
(0.927284 -0.30054 0)
(1.31646 -0.327218 -1.61774e-33)
(1.11259 -0.207066 0)
(1.10705 -0.0296356 0)
(1.11908 0.11511 0)
(1.2585 0.232925 0)
(1.48955 0.355432 -8.06525e-33)
(1.81497 0.491555 0)
(2.21344 0.634277 -3.3973e-19)
(2.73498 0.712014 1.25752e-18)
(0.916484 -0.360815 1.1613e-19)
(1.25162 -0.326204 -4.68757e-19)
(0.959995 -0.17413 -5.50089e-20)
(0.933822 -0.0258483 0)
(0.956193 0.0827253 0)
(1.09006 0.165512 6.04292e-20)
(1.30631 0.2539 1.17695e-18)
(1.61594 0.354678 -1.95059e-19)
(1.9967 0.466197 -4.95305e-19)
(2.53245 0.520477 4.67307e-18)
(0.883465 -0.405317 -1.52015e-17)
(1.09209 -0.279955 1.08736e-18)
(0.79265 -0.130519 -7.27314e-20)
(0.746921 -0.0210586 -7.47221e-20)
(0.772882 0.0525632 -5.12503e-19)
(0.889536 0.104546 -7.72742e-19)
(1.0763 0.161269 -1.04819e-18)
(1.34604 0.22901 -1.38249e-18)
(1.68761 0.306113 -1.60545e-18)
(2.17993 0.344444 3.61268e-18)
(0.809002 -0.394518 -4.13666e-19)
(0.886468 -0.20759 -1.21645e-18)
(0.605551 -0.0828615 -1.25656e-19)
(0.549619 -0.0152875 -8.42055e-20)
(0.571854 0.0276272 -9.88607e-34)
(0.661591 0.0545523 9.37443e-20)
(0.805445 0.0845787 -1.48543e-32)
(1.01621 0.122935 -1.93436e-19)
(1.29247 0.167306 2.98948e-19)
(1.69929 0.19207 7.05771e-19)
(0.664252 -0.288844 3.42549e-17)
(0.618257 -0.1081 -3.14016e-18)
(0.393378 -0.0351163 -2.40721e-19)
(0.339345 -0.00736101 -1.57963e-19)
(0.353742 0.00925866 3.93981e-19)
(0.410461 0.0183598 7.84165e-19)
(0.501194 0.0291871 7.95248e-19)
(0.636729 0.0448825 4.59853e-19)
(0.820754 0.0634554 -1.90419e-19)
(1.10156 0.0762252 3.5694e-18)
(0.336837 -0.0768239 5.58819e-19)
(0.261851 -0.00230481 -6.76604e-33)
(0.144383 0.0190781 -3.04937e-19)
(0.120393 0.00336542 0)
(0.123612 -0.00234951 0)
(0.14185 -0.00541467 9.64056e-20)
(0.172372 -0.00624626 9.35044e-35)
(0.220295 -0.00417614 -1.23573e-19)
(0.28813 -0.0016191 -2.82612e-19)
(0.399009 0.00331831 1.00158e-18)
(2.00205 1.09642 -1.78984e-18)
(2.23906 1.07846 -2.30496e-18)
(2.44208 1.02911 0)
(2.63707 0.952505 -7.5804e-19)
(2.82358 0.852511 -1.7827e-18)
(2.99276 0.732392 -2.2495e-18)
(3.13709 0.595043 -4.7585e-19)
(3.25054 0.442699 1.26928e-18)
(3.32824 0.276965 -3.54792e-18)
(3.36764 0.0986984 1.35669e-18)
(2.49867 1.14198 2.67748e-19)
(2.73056 1.08192 1.39735e-18)
(2.92387 1.0042 1.43906e-19)
(3.10673 0.909805 6.75784e-19)
(3.2806 0.800664 -1.10402e-18)
(3.43997 0.678328 -5.00053e-18)
(3.58096 0.544015 2.46798e-18)
(3.70047 0.399323 1.27036e-17)
(3.79428 0.246325 1.04067e-19)
(3.8587 0.0872574 -1.07365e-17)