/*--------------------------------*- C++ -*----------------------------------*\
  =========                 |
  \\      /  F ield         | OpenFOAM: The Open Source CFD Toolbox
   \\    /   O peration     | Website:  https://openfoam.org
    \\  /    A nd           | Version:  13
     \\/     M anipulation  |
\*---------------------------------------------------------------------------*/
FoamFile
{
    format      ascii;
    class       volScalarField;
    location    "0.58";
    object      p;
}
// * * * * * * * * * * * * * * * * * * * * * * * * * * * * * * * * * * * * * //

dimensions      [0 2 -2 0 0 0 0];

internalField   nonuniform List<scalar> 
1800
(
-1.12814
-1.12105
-1.07973
-1.00085
-0.902944
-0.804946
-0.715557
-0.636345
-0.566346
-0.509039
-1.32416
-1.31599
-1.26816
-1.17827
-1.06807
-0.958479
-0.858811
-0.770938
-0.6949
-0.632419
-1.51057
-1.50088
-1.44585
-1.34465
-1.2223
-1.10137
-0.991467
-0.894389
-0.809683
-0.737736
-1.68253
-1.6708
-1.60817
-1.49598
-1.36258
-1.23183
-1.11333
-1.00861
-0.916987
-0.83858
-1.83402
-1.81962
-1.74881
-1.62583
-1.4822
-1.34263
-1.2164
-1.10472
-1.00674
-0.921864
-1.96035
-1.94274
-1.86358
-1.73053
-1.57809
-1.43131
-1.29892
-1.18178
-1.07876
-0.988917
-2.05648
-2.0351
-1.94754
-1.80531
-1.64555
-1.49316
-1.35609
-1.23481
-1.128
-1.03433
-2.11853
-2.093
-1.99739
-1.84723
-1.68189
-1.52564
-1.38547
-1.26146
-1.15211
-1.05579
-2.14328
-2.11339
-2.01035
-1.85373
-1.68466
-1.52632
-1.38465
-1.25933
-1.14872
-1.05094
-2.12868
-2.09452
-1.98487
-1.82355
-1.65266
-1.49396
-1.35231
-1.22704
-1.11634
-1.01817
0.321878
0.328719
0.339818
0.353584
0.366062
0.374888
0.379659
0.380917
0.379399
0.375697
0.272896
0.279557
0.291415
0.307197
0.322599
0.334657
0.342576
0.346752
0.347902
0.346776
0.195979
0.202471
0.215508
0.234379
0.254243
0.271217
0.28391
0.292505
0.297695
0.300495
0.092527
0.0989968
0.11365
0.136663
0.162458
0.185922
0.204893
0.219274
0.229739
0.237681
-0.0352923
-0.0289825
-0.0121619
0.0160584
0.0491641
0.0805495
0.107131
0.128489
0.145287
0.159415
-0.185258
-0.178632
-0.159254
-0.124845
-0.0831846
-0.0426444
-0.00733576
0.0219674
0.0459455
0.0670783
-0.35344
-0.347064
-0.324535
-0.282983
-0.231698
-0.181033
-0.136164
-0.0982243
-0.0664696
-0.0378403
-0.536229
-0.530037
-0.503898
-0.454498
-0.392937
-0.331659
-0.276881
-0.230079
-0.190354
-0.154315
-0.729313
-0.723013
-0.692629
-0.634564
-0.56207
-0.489753
-0.424842
-0.369116
-0.321383
-0.278468
-0.928043
-0.921473
-0.886
-0.817967
-0.733136
-0.648348
-0.57179
-0.505414
-0.447855
-0.397533
0.339909
0.270629
0.212854
0.168531
0.133344
0.104233
0.0786405
0.0551177
0.0327401
0.0108912
0.327345
0.264673
0.210281
0.167065
0.132226
0.10331
0.0779026
0.0545759
0.0324005
0.010762
0.306822
0.254806
0.206042
0.164919
0.13084
0.102292
0.0771485
0.0540477
0.0320767
0.0106382
0.277801
0.241095
0.200109
0.162056
0.129167
0.101167
0.0763691
0.0535263
0.0317647
0.010519
0.239543
0.223648
0.192458
0.158436
0.127187
0.0999251
0.0755561
0.0530052
0.031461
0.0104038
0.19127
0.202639
0.183072
0.154013
0.124877
0.0985555
0.0747017
0.0524787
0.0311622
0.0102921
0.132367
0.178425
0.17205
0.148771
0.122216
0.0970486
0.0737992
0.0519411
0.0308654
0.0101842
0.0615781
0.150902
0.159537
0.142742
0.119204
0.0954027
0.0728462
0.0513888
0.0305682
0.0100804
-0.0229658
0.118566
0.144983
0.135671
0.115708
0.0935587
0.0718169
0.0508096
0.0302659
0.00998192
-0.115956
0.0820939
0.128742
0.127675
0.111705
0.0914787
0.070685
0.0501867
0.0299486
0.00988855
-0.169409
0.0490934
0.109607
0.116298
0.104951
0.0873919
0.0681638
0.0486551
0.029137
0.00967803
-0.184729
0.0155007
0.0828722
0.0984323
0.093726
0.0803762
0.0637546
0.0459505
0.0276717
0.00921826
-0.183472
-0.00484526
0.0638886
0.0839202
0.0836916
0.0737611
0.0594841
0.0432971
0.0262196
0.00875839
-0.178959
-0.0222914
0.046409
0.0702852
0.0740843
0.0673398
0.0553083
0.0406921
0.0247849
0.00829825
-0.170331
-0.0344939
0.0320278
0.0582935
0.0652816
0.0613142
0.0513417
0.0382006
0.0234029
0.00785048
-0.16088
-0.0435648
0.0199483
0.047787
0.0573543
0.055789
0.047667
0.0358769
0.0221026
0.00742404
-0.15267
-0.0505395
0.00983149
0.0387264
0.0503833
0.0508627
0.0443623
0.0337722
0.0209109
0.00702595
-0.147333
-0.0566448
0.00121839
0.0310327
0.0444344
0.0466315
0.0415075
0.0319418
0.019859
0.00667002
-0.143001
-0.0620193
-0.00628658
0.0244483
0.0393786
0.0430374
0.0390747
0.0303678
0.0189215
0.00633233
-0.149457
-0.0681575
-0.0118582
0.0201834
0.0362316
0.0408216
0.03758
0.0294024
0.0183402
0.00612349
-0.852416
-0.884563
-0.893156
-0.879397
-0.845208
-0.792909
-0.726366
-0.646344
-0.559885
-0.466138
-0.67398
-0.70584
-0.718967
-0.714602
-0.693386
-0.658583
-0.611703
-0.555142
-0.494635
-0.430878
-0.537996
-0.569306
-0.58487
-0.586169
-0.572923
-0.549354
-0.514747
-0.47323
-0.427563
-0.3783
-0.433406
-0.464139
-0.481246
-0.486174
-0.478377
-0.462004
-0.435562
-0.403811
-0.367751
-0.328911
-0.354114
-0.384213
-0.402314
-0.409563
-0.405586
-0.393917
-0.373291
-0.348258
-0.318977
-0.287319
-0.293832
-0.323653
-0.342618
-0.351551
-0.35039
-0.341945
-0.325454
-0.304946
-0.280247
-0.253334
-0.249274
-0.279148
-0.298894
-0.309112
-0.310037
-0.303835
-0.290252
-0.272763
-0.251253
-0.227542
-0.217458
-0.248141
-0.268869
-0.280211
-0.28272
-0.278117
-0.26652
-0.250987
-0.231586
-0.210358
-0.201457
-0.231658
-0.253284
-0.266031
-0.269963
-0.266472
-0.255783
-0.240476
-0.221003
-0.197733
-0.190161
-0.223094
-0.246956
-0.262159
-0.269133
-0.268771
-0.261602
-0.249183
-0.23174
-0.208947
0.471972
0.419132
0.358064
0.29197
0.2191
0.137086
0.0456738
-0.0491358
-0.128245
-0.162196
0.278095
0.221117
0.156383
0.084216
0.00259701
-0.0903566
-0.194245
-0.301913
-0.391621
-0.429378
0.0690854
0.00742035
-0.0619867
-0.140001
-0.228756
-0.330092
-0.443465
-0.561186
-0.66018
-0.700326
-0.128236
-0.196505
-0.273102
-0.359186
-0.456778
-0.567715
-0.691252
-0.819011
-0.928057
-0.969058
-0.308986
-0.384814
-0.469548
-0.564592
-0.672005
-0.793641
-0.928391
-1.06625
-1.18522
-1.22524
-0.474938
-0.557688
-0.649998
-0.753532
-0.870416
-1.00244
-1.14852
-1.29714
-1.42033
-1.46054
-0.625838
-0.714131
-0.812787
-0.923616
-1.04873
-1.18985
-1.3453
-1.50533
-1.62545
-1.6683
-0.758603
-0.851173
-0.954912
-1.07167
-1.20345
-1.35181
-1.51637
-1.67835
-1.79866
-1.84196
-0.869279
-0.965219
-1.07286
-1.19408
-1.33101
-1.48495
-1.65374
-1.81747
-1.93625
-1.97772
-0.9564
-1.0543
-1.16423
-1.28824
-1.42841
-1.58576
-1.75653
-1.92033
-2.03546
-2.07359
1.6442
1.65832
1.67425
1.69019
1.70511
1.71839
1.72928
1.73728
1.74367
1.7489
1.59199
1.6041
1.61755
1.63066
1.64246
1.65229
1.65939
1.66349
1.66655
1.66999
1.51957
1.52886
1.53878
1.54782
1.55513
1.56
1.56164
1.56012
1.55838
1.55931
1.42747
1.43323
1.43867
1.44253
1.44411
1.44261
1.43725
1.42851
1.42062
1.41837
1.31659
1.3183
1.31848
1.31622
1.31097
1.30188
1.28814
1.27076
1.25547
1.24942
1.18857
1.18585
1.1801
1.17083
1.15772
1.13986
1.11645
1.0891
1.0653
1.05506
1.04606
1.0387
1.02663
1.00973
0.987972
0.960374
0.9262
0.887753
0.854449
0.839643
0.895442
0.882666
0.862801
0.836656
0.80467
0.765806
0.719391
0.668515
0.624778
0.605273
0.742192
0.723942
0.695569
0.659091
0.615609
0.564035
0.503861
0.439143
0.383942
0.359438
0.599181
0.566264
0.522682
0.472392
0.415631
0.350414
0.276056
0.197368
0.130696
0.101439
1.48882
1.39537
1.50269
1.39202
1.42131
1.42659
1.43282
1.45751
1.50058
1.58583
1.48306
1.39023
1.49771
1.38608
1.41476
1.41853
1.42249
1.44355
1.48009
1.55185
1.47776
1.38518
1.49299
1.37952
1.40781
1.40972
1.41067
1.42693
1.45427
1.50614
1.47292
1.38023
1.48853
1.37236
1.40052
1.40014
1.39735
1.40757
1.42311
1.44824
1.46851
1.37545
1.48433
1.36465
1.39293
1.38977
1.3825
1.3853
1.38662
1.37747
1.46465
1.37088
1.48036
1.35642
1.38508
1.37856
1.3661
1.35998
1.34472
1.29323
1.46115
1.36657
1.47653
1.34775
1.37701
1.36648
1.34809
1.33154
1.29705
1.19448
1.45813
1.3626
1.47276
1.33876
1.36871
1.35346
1.32838
1.29984
1.24331
1.08343
1.45557
1.35905
1.46888
1.32963
1.3602
1.33954
1.307
1.26467
1.18237
0.957039
1.45373
1.35607
1.46469
1.32058
1.35139
1.32476
1.28432
1.22753
1.11744
0.828506
1.45171
1.35279
1.45933
1.31188
1.33861
1.30593
1.25488
1.18034
1.04463
0.708609
1.45177
1.34907
1.45464
1.30377
1.32381
1.28573
1.22427
1.13523
0.983203
0.665593
1.45183
1.34609
1.45087
1.2962
1.31029
1.26698
1.1965
1.09648
0.93424
0.633381
1.45567
1.34436
1.44783
1.28947
1.29812
1.25
1.17187
1.06385
0.89459
0.611658
1.46191
1.34399
1.44546
1.28372
1.2875
1.23512
1.1508
1.03703
0.863764
0.598912
1.47105
1.34499
1.4437
1.27901
1.27857
1.22257
1.13343
1.01569
0.840786
0.592094
1.4833
1.3469
1.44243
1.27529
1.27142
1.21247
1.11979
0.999419
0.824487
0.58948
1.50325
1.35108
1.44225
1.27254
1.26618
1.20493
1.10987
0.987905
0.813888
0.590349
1.51818
1.35078
1.43969
1.2705
1.26302
1.20003
1.10371
0.980985
0.807965
0.594355
1.57149
1.36077
1.44179
1.26794
1.26259
1.19745
1.10083
0.977596
0.805555
0.596933
0.444298
0.278003
0.0960098
-0.0732416
-0.227333
-0.370289
-0.502323
-0.619949
-0.719136
-0.796916
0.384618
0.256908
0.117735
-0.0161901
-0.141162
-0.25881
-0.368917
-0.468394
-0.554183
-0.623505
0.359304
0.256287
0.146217
0.035141
-0.0716014
-0.172683
-0.267719
-0.354397
-0.429792
-0.491578
0.356538
0.265906
0.172343
0.0764998
-0.0169564
-0.105482
-0.188896
-0.265681
-0.333248
-0.38957
0.363615
0.280733
0.198088
0.113476
0.0295536
-0.0507028
-0.126627
-0.197002
-0.259586
-0.312466
0.375065
0.297617
0.221951
0.144681
0.0670932
-0.00763772
-0.0784158
-0.144252
-0.203231
-0.253523
0.387463
0.314009
0.243017
0.170619
0.0972841
0.0262212
-0.0412035
-0.104111
-0.160807
-0.209601
0.399587
0.328705
0.260785
0.191371
0.120538
0.051608
-0.0138855
-0.0750936
-0.130399
-0.178179
0.413826
0.344644
0.277784
0.208822
0.138199
0.0693319
0.00381255
-0.0574995
-0.113142
-0.161557
0.427308
0.361651
0.295487
0.225936
0.15517
0.0860608
0.0198759
-0.0422963
-0.0989272
-0.148564
-3.2212
-3.1629
-3.01052
-2.81264
-2.61756
-2.44582
-2.30062
-2.18028
-2.08355
-2.01068
-3.30485
-3.25739
-3.12092
-2.93022
-2.73474
-2.55995
-2.41155
-2.28845
-2.19
-2.11747
-3.28852
-3.25239
-3.13353
-2.9515
-2.75529
-2.57616
-2.42335
-2.29658
-2.19497
-2.11954
-3.17629
-3.15096
-3.04941
-2.87645
-2.6791
-2.49438
-2.3357
-2.20404
-2.09812
-2.01735
-2.97599
-2.96019
-2.87408
-2.71087
-2.51369
-2.32418
-2.15984
-2.02327
-1.91314
-1.82724
-2.69892
-2.69052
-2.61721
-2.46538
-2.27263
-2.08259
-1.91585
-1.77674
-1.66415
-1.57649
-2.36287
-2.35892
-2.29606
-2.15837
-1.97704
-1.7942
-1.63164
-1.49513
-1.38347
-1.29743
-1.9931
-1.98992
-1.93561
-1.81461
-1.65187
-1.48487
-1.33436
-1.20682
-1.10156
-1.0209
-1.61695
-1.61271
-1.56605
-1.46349
-1.32455
-1.18037
-1.04914
-0.937094
-0.843877
-0.775502
-1.2575
-1.25244
-1.21274
-1.12825
-1.01417
-0.895068
-0.785703
-0.691186
-0.609631
-0.547432
-0.931422
-0.924781
-0.891713
-0.823801
-0.733409
-0.639602
-0.554113
-0.481445
-0.420124
-0.367374
-0.644802
-0.637564
-0.610184
-0.556208
-0.485804
-0.413454
-0.347984
-0.292596
-0.246547
-0.204771
-0.39837
-0.391034
-0.36827
-0.325431
-0.270915
-0.215645
-0.166077
-0.124286
-0.0898449
-0.0581564
-0.190604
-0.183321
-0.164281
-0.130486
-0.088937
-0.0478038
-0.0116589
0.0182807
0.0424718
0.0643769
-0.0194265
-0.0122863
0.00381977
0.0303767
0.0615081
0.091177
0.116308
0.136329
0.151806
0.165134
0.11718
0.124078
0.138012
0.159045
0.18218
0.202989
0.219538
0.231731
0.240213
0.246598
0.220636
0.22741
0.239804
0.256842
0.274159
0.28848
0.298698
0.305055
0.308252
0.309379
0.291988
0.298839
0.310211
0.324621
0.33809
0.348096
0.354078
0.356498
0.35609
0.353622
0.332168
0.3391
0.349939
0.362979
0.374427
0.382148
0.385869
0.386172
0.383807
0.379365
0.341904
0.348839
0.359595
0.372436
0.383578
0.390934
0.394281
0.394223
0.391511
0.386685
-0.0515753
0.115934
0.149371
0.14745
0.132253
0.110971
0.0873503
0.0628375
0.037919
0.0127357
0.0536303
0.151437
0.163918
0.153448
0.133437
0.110356
0.0862256
0.0617744
0.0371938
0.0124864
0.13768
0.179982
0.175559
0.157376
0.134211
0.109719
0.0851738
0.0607915
0.0365253
0.0122551
0.201088
0.203867
0.18572
0.161089
0.134822
0.109101
0.0841997
0.0598862
0.0359097
0.0120407
0.249841
0.224501
0.194462
0.164088
0.135223
0.108485
0.0832904
0.0590505
0.0353429
0.0118415
0.286892
0.241696
0.201533
0.166395
0.135429
0.107863
0.0824369
0.058278
0.034821
0.0116562
0.313894
0.255211
0.206979
0.168063
0.135438
0.107224
0.0816287
0.0575618
0.0343398
0.0114833
0.332091
0.264958
0.21084
0.169108
0.135245
0.106555
0.0808555
0.0568949
0.0338953
0.0113217
0.342273
0.270765
0.213113
0.169536
0.134839
0.105843
0.0801068
0.05627
0.0334833
0.0111699
0.344845
0.272658
0.21379
0.169348
0.13421
0.105073
0.0793719
0.05568
0.0330997
0.0110268
-0.263481
-0.00739851
0.0894418
0.120042
0.121335
0.107643
0.0871488
0.0636826
0.0388375
0.0131574
-0.239899
0.0153404
0.0987986
0.124038
0.122514
0.107928
0.0871314
0.0635698
0.0387136
0.0131009
-0.200582
0.0325744
0.107263
0.127974
0.124227
0.108488
0.0871917
0.0634567
0.0385728
0.0130331
-0.160562
0.0556567
0.118928
0.133509
0.12667
0.109403
0.0874061
0.0634056
0.0384602
0.0129753
-0.11719
0.0860668
0.135257
0.141484
0.130129
0.110638
0.0877576
0.0634106
0.0383735
0.0129276
-1.94571
-2.04959
-2.06173
-1.98474
-1.8288
-1.63118
-1.38484
-1.15271
-0.911954
-0.689626
-1.94311
-2.04459
-2.05155
-1.96908
-1.81001
-1.6095
-1.3603
-1.12164
-0.88767
-0.664875
-1.94501
-2.0468
-2.05026
-1.96133
-1.79451
-1.58133
-1.32476
-1.06919
-0.831577
-0.62177
-1.95458
-2.05864
-2.06009
-1.96364
-1.7851
-1.55215
-1.28421
-1.01573
-0.782434
-0.586635
-1.97361
-2.07971
-2.07928
-1.97527
-1.78425
-1.53423
-1.25659
-0.983598
-0.745238
-0.537053
1.06064
1.03823
1.00763
0.97202
0.931708
0.884765
0.829895
0.770326
0.71944
0.695719
1.19069
1.18391
1.16921
1.14837
1.12242
1.09024
1.05091
1.0071
0.96969
0.952782
1.31659
1.31508
1.30849
1.29755
1.28268
1.26291
1.23732
1.20771
1.18245
1.17168
1.42729
1.43072
1.43148
1.42929
1.42401
1.41478
1.40072
1.38296
1.36768
1.36193
1.52054
1.52785
1.53405
1.53844
1.54055
1.53958
1.53467
1.52641
1.51927
1.51779
1.59356
1.60416
1.61488
1.62463
1.63271
1.63837
1.64078
1.64009
1.63932
1.64111
1.6456
1.65869
1.67281
1.68655
1.69904
1.70962
1.71747
1.72238
1.72632
1.73052
1.67663
1.69136
1.70774
1.72412
1.73952
1.75332
1.76474
1.7733
1.78029
1.78602
1.68668
1.70214
1.71957
1.73718
1.75395
1.76927
1.78236
1.79265
1.80104
1.80744
1.67585
1.6911
1.70837
1.72581
1.7424
1.75754
1.77044
1.78053
1.78871
1.79494
-1.81088
-1.88616
-1.98215
-2.09979
-2.24165
-2.41018
-2.60414
-2.80652
-2.97139
-3.03843
-1.53496
-1.61285
-1.70845
-1.82334
-1.96117
-2.12458
-2.31313
-2.51902
-2.69265
-2.76374
-1.2044
-1.28346
-1.37847
-1.49074
-1.62398
-1.78114
-1.9624
-2.15687
-2.34074
-2.41147
-0.842926
-0.922054
-1.0158
-1.12477
-1.25212
-1.40093
-1.57186
-1.75725
-1.93059
-2.00576
-0.476153
-0.555034
-0.646325
-0.75023
-0.869671
-1.00792
-1.16639
-1.33814
-1.49443
-1.56684
-0.131859
-0.207466
-0.292958
-0.388413
-0.496725
-0.62125
-0.76358
-0.917223
-1.0548
-1.12067
0.17491
0.107701
0.0324062
-0.0509694
-0.145279
-0.253759
-0.37785
-0.511492
-0.629729
-0.686995
0.450172
0.394204
0.331127
0.261046
0.181114
0.0883618
-0.0182309
-0.132828
-0.232799
-0.281113
0.709184
0.662335
0.608258
0.548125
0.479319
0.399252
0.307347
0.209234
0.125194
0.085197
0.936707
0.895252
0.845303
0.791608
0.73237
0.665081
0.588832
0.508188
0.440079
0.408208
1.5823
1.44582
1.5503
1.41068
1.46469
1.46203
1.45796
1.45711
1.41952
1.25622
1.56861
1.44136
1.54778
1.41193
1.46192
1.46242
1.46037
1.46766
1.45141
1.34212
1.55625
1.43659
1.54427
1.41272
1.45882
1.46201
1.46317
1.47749
1.47916
1.42809
1.54508
1.43163
1.53997
1.41289
1.45543
1.46068
1.46429
1.4841
1.50006
1.49405
1.5349
1.42654
1.53509
1.41232
1.45172
1.45839
1.46402
1.48804
1.51524
1.54571
1.52558
1.42138
1.52984
1.41093
1.44767
1.45518
1.46239
1.48935
1.5253
1.58309
1.51702
1.41618
1.52437
1.40872
1.44324
1.45108
1.45937
1.48804
1.5305
1.60732
1.50912
1.41097
1.51882
1.40568
1.43841
1.44615
1.45492
1.48417
1.53077
1.61928
1.50182
1.40576
1.5133
1.40186
1.43315
1.44041
1.44902
1.47779
1.52585
1.61953
1.49506
1.40055
1.5079
1.39729
1.42745
1.43388
1.44166
1.46891
1.51581
1.60835
1.71641
1.46136
1.55669
1.40848
1.46702
1.45508
1.43891
1.4115
1.32091
1.11102
1.6608
1.45524
1.55464
1.41064
1.46589
1.4566
1.44035
1.41483
1.32777
1.11576
1.63946
1.45662
1.55524
1.41137
1.46596
1.45783
1.44325
1.42124
1.3416
1.12663
1.61661
1.45395
1.55391
1.41127
1.46604
1.45914
1.44726
1.43043
1.36034
1.14793
1.59781
1.4501
1.55215
1.4105
1.46601
1.46041
1.45176
1.44181
1.38414
1.17109
0.753831
0.5981
0.392982
0.124266
-0.194191
-0.535336
-0.876278
-1.2059
-1.5097
-1.76231
0.753701
0.598915
0.400853
0.142014
-0.16756
-0.506273
-0.851575
-1.18785
-1.49839
-1.75716
0.773584
0.614231
0.413596
0.161381
-0.140541
-0.479519
-0.831942
-1.17558
-1.49203
-1.75601
0.824677
0.646623
0.431609
0.179405
-0.118187
-0.45795
-0.817424
-1.16903
-1.49161
-1.7611
0.904012
0.696874
0.457287
0.195865
-0.103163
-0.444199
-0.808651
-1.16747
-1.49712
-1.77373
)
;

boundaryField
{
    left
    {
        type            zeroGradient;
    }
    right
    {
        type            fixedValue;
        value           uniform 0;
    }
    down
    {
        type            zeroGradient;
    }
    up
    {
        type            zeroGradient;
    }
    cylinder
    {
        type            zeroGradient;
    }
    defaultFaces
    {
        type            empty;
    }
}


// ************************************************************************* //
