/*--------------------------------*- C++ -*----------------------------------*\
  =========                 |
  \\      /  F ield         | OpenFOAM: The Open Source CFD Toolbox
   \\    /   O peration     | Website:  https://openfoam.org
    \\  /    A nd           | Version:  13
     \\/     M anipulation  |
\*---------------------------------------------------------------------------*/
FoamFile
{
    format      ascii;
    class       surfaceScalarField;
    location    "0.58";
    object      phi;
}
// * * * * * * * * * * * * * * * * * * * * * * * * * * * * * * * * * * * * * //

dimensions      [0 3 -1 0 0 0 0];

internalField   nonuniform List<scalar> 
3485
(
0.0021354
-0.00463851
0.00250311
0.008671
-0.0543581
0.0478225
0.018035
-0.105805
0.0964415
0.0283642
-0.136082
0.125753
0.0386445
-0.147778
0.137498
0.0485417
-0.149467
0.13957
0.0580045
-0.147074
0.137611
0.0670313
-0.143392
0.134365
0.0755867
-0.139356
0.130801
-0.135101
0.126786
0.0839026
0.00261224
-0.00725075
0.00960589
-0.0613517
0.0190011
-0.115201
0.0289985
-0.146079
0.0388052
-0.157585
0.0482905
-0.158953
0.0575563
-0.15634
0.0667389
-0.152574
0.0760375
-0.148655
-0.144864
0.0858
0.00303157
-0.0102823
0.0103421
-0.0686622
0.0195261
-0.124385
0.028842
-0.155395
0.0376796
-0.166423
0.0460281
-0.167301
0.0540237
-0.164335
0.0617789
-0.160329
0.0693646
-0.15624
-0.152231
0.0767319
0.00346654
-0.0137489
0.0110538
-0.0762495
0.0199827
-0.133314
0.0286333
-0.164046
0.0366277
-0.174417
0.044119
-0.174793
0.0513253
-0.171542
0.0583859
-0.16739
0.0653765
-0.163231
-0.159291
0.0724364
0.0038137
-0.0175626
0.0114895
-0.0839253
0.0199277
-0.141752
0.0276611
-0.171779
0.0345421
-0.181298
0.0408635
-0.181114
0.0468981
-0.177576
0.0528
-0.173292
0.0586532
-0.169084
-0.165135
0.064497
0.00410205
-0.0216646
0.0117143
-0.0915375
0.0195131
-0.149551
0.0262374
-0.178504
0.0319768
-0.187037
0.0371498
-0.186287
0.0420708
-0.182497
0.0468956
-0.178117
0.0516906
-0.173879
-0.16995
0.0565058
0.00427616
-0.0259408
0.011611
-0.0988724
0.0185645
-0.156504
0.0241242
-0.184063
0.0286071
-0.19152
0.0325343
-0.190214
0.0362469
-0.18621
0.0398999
-0.18177
0.0435549
-0.177534
-0.173634
0.0472391
0.00432892
-0.0302697
0.0111765
-0.10572
0.0171067
-0.162434
0.0214013
-0.188358
0.0245764
-0.194695
0.0272258
-0.192863
0.0296974
-0.188682
0.032134
-0.184206
0.0345869
-0.179987
-0.176121
0.0370732
0.00423531
-0.034505
0.0103782
-0.111863
0.0151221
-0.167178
0.0180765
-0.191312
0.0199071
-0.196526
0.0212578
-0.194214
0.0224686
-0.189892
0.023668
-0.185406
0.0248992
-0.181218
-0.177391
0.0261696
0.00399567
-0.0385007
0.00923682
-0.117104
0.0126803
-0.170622
0.0142477
-0.19288
0.0147198
-0.196998
0.0147718
-0.194266
0.0147221
-0.189843
0.0146825
-0.185366
0.0146843
-0.18122
0.014729
-0.177436
-0.000750634
0.000353937
0.000396698
0.00227407
-0.00774562
0.00472092
0.0103448
-0.0173392
0.00926848
0.021846
-0.0235978
0.0120966
0.0349449
-0.0264097
0.0133108
0.0485029
-0.0271423
0.0135843
0.0619796
-0.0269079
0.0134312
0.0751663
-0.0263106
0.0131239
0.0880089
-0.0256238
0.0127813
-0.0251401
0.100682
0.0124665
-0.000663625
0.00101756
0.00248442
-0.0108937
0.0106225
-0.0254773
0.0221169
-0.0350922
0.0351535
-0.0394462
0.0486173
-0.0406061
0.0619849
-0.0402755
0.0750581
-0.0393838
0.0877897
-0.0383555
-0.0377064
0.100356
-0.000536421
0.00155398
0.00278769
-0.0142178
0.011026
-0.0337155
0.0225167
-0.046583
0.0354714
-0.0524008
0.0488079
-0.0539427
0.0620267
-0.0534942
0.0749428
-0.0523
0.0875191
-0.0509318
-0.0501196
0.0999323
-0.000359919
0.0019139
0.00320536
-0.0177831
0.0115829
-0.042093
0.0230737
-0.0580738
0.0359247
-0.0652519
0.049099
-0.067117
0.0621287
-0.0665238
0.0748466
-0.065018
0.087227
-0.0633122
-0.0623367
0.0994441
-0.000140376
0.00205428
0.00374853
-0.021672
0.0123117
-0.0506562
0.0238068
-0.069569
0.036532
-0.077977
0.0495103
-0.0800954
0.0623155
-0.079329
0.0748029
-0.0775054
0.0869585
-0.0754679
-0.0743216
0.0989434
0.000134984
0.00191929
0.00442934
-0.0259663
0.0132171
-0.059444
0.0247119
-0.0810637
0.0372823
-0.0905475
0.05003
-0.0928431
0.0625818
-0.0918808
0.0748209
-0.0897444
0.0867426
-0.0873896
-0.0860428
0.0984638
0.000495473
0.00142382
0.00525087
-0.0307217
0.0142768
-0.06847
0.0257431
-0.0925299
0.0381088
-0.102913
0.0505749
-0.105309
0.0628368
-0.104143
0.0748139
-0.101722
0.0865054
-0.099081
-0.0974472
0.0979098
0.000903581
0.000520238
0.00616251
-0.0359806
0.0154075
-0.0777149
0.0267774
-0.1039
0.0388451
-0.114981
0.0509297
-0.117394
0.0628076
-0.116021
0.0744423
-0.113356
0.085829
-0.110468
-0.108353
0.0967352
0.00131941
-0.00079917
0.00704613
-0.0417074
0.0164147
-0.0870835
0.0275474
-0.115032
0.039146
-0.12658
0.0506528
-0.128901
0.0619174
-0.127285
0.0729338
-0.124373
0.0836701
-0.121204
-0.118297
0.0936141
0.00170394
0.00781903
0.017177
0.0278973
0.0388156
0.0494853
0.0598112
0.0698032
0.0793998
0.087888
0.154476
-0.153952
0.100159
0.181174
-0.109234
0.0825359
0.194574
-0.0816445
0.068244
0.201191
-0.0617728
0.0551564
0.204191
-0.0465976
0.043597
0.205135
-0.0346389
0.0336953
0.204874
-0.0250806
0.0253413
0.203873
-0.0172583
0.0182595
0.202416
-0.0111907
0.0126476
-0.00339548
0.00530098
0.153308
-0.206904
0.180167
-0.136093
0.19386
-0.095337
0.20073
-0.0686436
0.203931
-0.0497981
0.205035
-0.0357428
0.204909
-0.0249544
0.20403
-0.0163794
0.202689
-0.00985044
-0.00161172
0.151348
-0.25832
0.178269
-0.163015
0.192306
-0.109374
0.199527
-0.0758644
0.203039
-0.0533102
0.204425
-0.0371288
0.204561
-0.0250901
0.203934
-0.0157524
0.202843
-0.00875914
-8.62165e-05
0.148579
-0.307455
0.175469
-0.189905
0.189913
-0.123817
0.197583
-0.0835347
0.20152
-0.0572471
0.20331
-0.0389186
0.203833
-0.025614
0.203589
-0.0155079
0.202879
-0.00804896
0.00104776
0.145003
-0.353514
0.171758
-0.21666
0.186681
-0.13874
0.194904
-0.0917579
0.19938
-0.0617231
0.201693
-0.0412322
0.20273
-0.0266501
0.202993
-0.0157716
0.202793
-0.00784881
0.00165608
0.140599
-0.39565
0.167111
-0.243172
0.182612
-0.154241
0.191499
-0.100645
0.19663
-0.0668543
0.199586
-0.0441874
0.201254
-0.0283191
0.20215
-0.0166676
0.202588
-0.00828597
0.0016083
0.13529
-0.43303
0.161466
-0.269347
0.17769
-0.170465
0.187374
-0.110329
0.193283
-0.0727632
0.196999
-0.0479036
0.199419
-0.0307395
0.201067
-0.0183147
0.202262
-0.0094818
0.000777792
0.129001
-0.465297
0.15468
-0.295026
0.171831
-0.187615
0.182511
-0.121009
0.189341
-0.0795934
0.193939
-0.0525019
0.19723
-0.0340303
0.199747
-0.0208312
0.201819
-0.0115541
-0.000958368
0.121841
-0.493524
0.146624
-0.319809
0.164829
-0.20582
0.176791
-0.132971
0.184762
-0.0875637
0.1904
-0.0581407
0.194689
-0.0383192
0.198193
-0.0243349
0.201259
-0.0146202
-0.00371906
0.114801
-0.520436
0.138585
-0.343594
0.157049
-0.224283
0.170232
-0.146154
0.179504
-0.0968359
0.186358
-0.0649946
0.191794
-0.0437549
0.196408
-0.0289492
0.200583
-0.0187948
-0.00761995
0.378274
-0.460093
-0.438618
0.346596
-0.311916
0.330576
-0.208264
0.322915
-0.138493
0.318919
-0.0928399
0.316532
-0.0626078
0.314949
-0.0421716
0.313869
-0.0278695
0.31314
-0.018065
-0.007313
0.390569
-0.390018
-0.460643
0.355769
-0.277116
0.338206
-0.190702
0.328763
-0.129049
0.323095
-0.0871726
0.319449
-0.0589613
0.317006
-0.0397287
0.31537
-0.0262334
0.314294
-0.0169894
-0.00687087
0.40652
-0.32507
-0.471468
0.369036
-0.239631
0.347505
-0.169171
0.33501
-0.116554
0.327299
-0.0794614
0.32231
-0.0539722
0.318998
-0.0364164
0.316811
-0.024046
0.315392
-0.0155705
-0.00629554
0.416709
-0.264912
-0.476868
0.378662
-0.201585
0.355043
-0.145552
0.340406
-0.101918
0.33105
-0.0701052
0.324906
-0.0478276
0.320819
-0.0323299
0.318131
-0.0213576
0.316393
-0.0138334
-0.00559435
0.423864
-0.20965
-0.479125
0.386193
-0.163914
0.361267
-0.120626
0.345009
-0.0856601
0.334314
-0.0594102
0.327191
-0.0407043
0.322433
-0.0275718
0.319302
-0.0182267
0.317281
-0.0118123
-0.00477941
0.428776
-0.158851
-0.479575
0.391882
-0.12702
0.366208
-0.0949517
0.348781
-0.068233
0.337038
-0.0476671
0.329121
-0.0327878
0.323803
-0.0222539
0.3203
-0.0147234
0.318037
-0.00954941
-0.00386617
0.432014
-0.111719
-0.479146
0.395999
-0.091005
0.369944
-0.0688968
0.351714
-0.0500024
0.33919
-0.0351441
0.330659
-0.0242564
0.324898
-0.0164929
0.321098
-0.010923
0.318638
-0.00708905
-0.00287046
0.433608
-0.0669213
-0.478406
0.398363
-0.0557598
0.372212
-0.0427464
0.353528
-0.0313176
0.340506
-0.0221225
0.331563
-0.0153134
0.325501
-0.0104307
0.321493
-0.00691546
0.318891
-0.00448711
-0.00181441
0.426848
-0.0208558
-0.472913
0.392328
-0.0212399
0.366906
-0.0173248
0.348597
-0.0130081
0.335735
-0.00926027
0.326856
-0.00643484
0.320821
-0.00439529
0.31683
-0.00292494
0.314237
-0.00189368
-0.000760904
0.314081
-0.334937
0.292841
0.275516
0.262508
0.253248
0.246813
0.242418
0.239493
0.237599
0.471159
0.0129713
-0.469402
0.472156
0.0251732
0.472262
0.036967
0.471383
0.0481176
0.469127
0.0587624
0.466395
0.0672283
0.460189
0.0786431
0.456732
0.0801887
0.444919
0.0976132
0.0902033
0.452378
0.0112509
-0.450657
0.454161
0.0233906
0.455921
0.0352066
0.457716
0.0463222
0.459034
0.057445
0.460768
0.0654941
0.46094
0.0784714
0.462082
0.0790464
0.462882
0.0968134
0.0924416
0.43611
0.00950741
-0.434367
0.438487
0.0210134
0.44141
0.0322844
0.444892
0.04284
0.448729
0.0536079
0.452946
0.0612773
0.457706
0.0737112
0.461656
0.0750963
0.467802
0.0906681
0.0887752
0.423669
0.00776981
-0.421932
0.426392
0.0182907
0.430048
0.0286285
0.434581
0.0383066
0.440045
0.0481443
0.445929
0.0553932
0.453387
0.0662535
0.459887
0.0685961
0.469195
0.0813604
0.0811022
0.413934
0.00603742
-0.412202
0.416905
0.0153195
0.421087
0.0244468
0.426376
0.0330173
0.432914
0.0416066
0.440081
0.0482266
0.449121
0.057213
0.457637
0.0600802
0.46885
0.0701477
0.0708265
0.40658
0.00428774
-0.40483
0.40974
0.0121593
0.414285
0.0199014
0.420104
0.0271981
0.427324
0.0343868
0.435407
0.0401433
0.445337
0.0472833
0.455232
0.0501855
0.467554
0.0578252
0.0588059
0.401221
0.00249725
-0.399431
0.404545
0.00883544
0.409369
0.0150776
0.415583
0.0209844
0.423251
0.0267187
0.431964
0.0314304
0.442392
0.0368554
0.453189
0.0393885
0.466086
0.0449277
0.0457461
0.396562
0.000474812
-0.39454
0.400173
0.0052244
0.405384
0.00986718
0.412076
0.0142918
0.420229
0.0185656
0.429524
0.0221355
0.440319
0.0260603
0.451732
0.0279757
0.464907
0.0317527
0.0322475
0.378145
-0.00146047
-0.37621
0.38227
0.00109907
0.388431
0.00370664
0.396459
0.00626322
0.406234
0.00879089
0.417365
0.0110047
0.430001
0.0134246
0.44326
0.0147162
0.457954
0.0170593
0.017288
0.241584
-0.243045
0.242683
0.24639
0.252653
0.261444
0.272449
0.285873
0.30059
0.317649
0.0787103
0.127771
-0.115415
-0.091067
0.0673863
0.129659
-0.118335
0.0570014
0.132441
-0.122056
0.0470604
0.136122
-0.126181
0.0371885
0.140229
-0.130358
0.0272475
0.144151
-0.134209
0.0174387
0.145688
-0.135879
0.00858142
0.137924
-0.129067
0.00226214
0.108225
-0.101906
0.0475733
-0.0453112
0.0802587
0.138981
-0.0914681
0.0687677
0.14115
0.0576534
0.143555
0.0470234
0.146753
0.0367017
0.150551
0.0265655
0.154287
0.0167857
0.155468
0.00813144
0.146578
0.00208013
0.114277
0.0496535
0.0729228
0.148335
-0.0822773
0.0630692
0.151003
0.0530824
0.153542
0.0431865
0.156648
0.033416
0.160322
0.0237978
0.163905
0.0146078
0.164658
0.00668889
0.154497
0.00145542
0.11951
0.0511089
0.0608605
0.155733
-0.0682582
0.0530594
0.158804
0.0448699
0.161731
0.0364285
0.16509
0.0278512
0.168899
0.0192925
0.172464
0.0111722
0.172778
0.0044708
0.161199
0.00055108
0.12343
0.0516599
0.048411
0.161658
-0.0543358
0.0422039
0.165011
0.0355838
0.168351
0.0286004
0.172073
0.0213643
0.176135
0.0140813
0.179747
0.00726224
0.179597
0.00198444
0.166477
-0.0003987
0.125813
0.0512612
0.0371373
0.166592
-0.0420712
0.0320168
0.170132
0.0265732
0.173795
0.0208172
0.177829
0.0148361
0.182116
0.00884767
0.185735
0.00341816
0.185027
-0.000480346
0.170375
-0.00127196
0.126604
0.0499893
0.0267065
0.170721
-0.0308357
0.0224661
0.174372
0.0180101
0.178251
0.0133386
0.182501
0.0085218
0.186933
0.00378368
0.190473
-0.000354103
0.189164
-0.00248903
0.17251
-0.00202707
0.126142
0.0479622
0.016487
0.173974
-0.0197402
0.0131623
0.177697
0.00969718
0.181716
0.00609952
0.186098
0.00243906
0.190593
-0.00104512
0.193957
-0.00361008
0.191729
-0.00442673
0.173327
-0.00263237
0.124348
0.0453298
0.00618508
0.176255
-0.00846588
0.00386918
0.180013
0.00147827
0.184107
-0.000976965
0.188554
-0.00342682
0.193043
-0.00559118
0.196122
-0.00687976
0.193018
-0.00624113
0.172688
-0.0031903
0.121297
0.0421395
-0.00418251
0.00300165
-0.00538939
-0.00664845
-0.00793751
-0.00916045
-0.0100368
-0.00989861
-0.00783216
-0.00363886
0.103513
0.0239097
-0.114814
-0.0126082
0.091887
0.0245328
-0.0129073
0.0799002
0.0252065
-0.0132197
0.0675312
0.0259232
-0.0135543
0.0547713
0.0266762
-0.0139162
0.0416296
0.0274349
-0.0142932
0.0282555
0.0279447
-0.0145705
0.0153676
0.0271382
-0.0142503
0.00490566
0.0225304
-0.0120684
0.0110491
-0.00614344
0.102745
0.0351956
-0.114031
0.0911499
0.0361276
0.0792087
0.0371477
0.0668999
0.038232
0.0542142
0.0393619
0.041161
0.040488
0.0278931
0.0412126
0.0151332
0.0398981
0.0048106
0.0328529
0.0158597
0.101634
0.04645
-0.112889
0.0900922
0.0476696
0.0782231
0.0490168
0.0660052
0.0504499
0.053428
0.0519392
0.0405014
0.0534146
0.0273836
0.0543304
0.0148043
0.0524774
0.00467658
0.0429807
0.0205363
0.100068
0.0576462
-0.111264
0.0886128
0.0591249
0.0768544
0.0607752
0.0647699
0.0625345
0.0523471
0.0643619
0.0395968
0.0661649
0.0266848
0.0672424
0.014353
0.0648092
0.00449215
0.0528415
0.0250284
0.0978872
0.068741
-0.108982
0.0865756
0.0704365
0.0749949
0.0723558
0.0631153
0.0744141
0.0509182
0.076559
0.0384134
0.0786697
0.0257761
0.0798797
0.0137642
0.0768212
0.00425107
0.0623546
0.0292795
0.0949138
0.0796536
-0.105826
0.0838203
0.08153
0.0724855
0.0836907
0.0608809
0.0860187
0.0489887
0.0884512
0.0368198
0.0908386
0.0245591
0.0921404
0.0129793
0.088401
0.00392885
0.071405
0.0332084
0.0911441
0.0901885
-0.101679
0.0805019
0.0921722
0.0696287
0.0945639
0.0584584
0.0971891
0.0469659
0.0999436
0.0351779
0.102627
0.0233139
0.104004
0.0121862
0.0995288
0.00361972
0.0799715
0.0368281
0.0848334
0.100229
-0.0948735
0.074744
0.102262
0.0645212
0.104787
0.0540943
0.107616
0.0433895
0.110648
0.0323892
0.113627
0.0213022
0.115091
0.0109506
0.10988
0.00312647
0.0877957
0.0399545
0.0822812
0.108851
-0.0909036
0.0731812
0.111362
0.063395
0.114573
0.0530781
0.117933
0.0423802
0.121346
0.0314207
0.124586
0.0204809
0.126031
0.0104091
0.119952
0.00293279
0.095272
0.0428873
0.0693597
-0.0759231
0.0623864
0.0549034
0.0466547
0.0376436
0.0280205
0.0181726
0.00905775
0.00242384
0.202123
0.0125634
-0.0166963
0.204686
0.0283451
-0.0309079
0.205171
0.0346469
-0.0351323
0.206129
0.0363532
-0.0373115
0.205233
0.042883
-0.0419865
0.20273
0.051512
-0.0490096
0.196635
0.0642795
-0.0581842
0.185924
0.0810817
-0.0703708
0.160174
0.109199
-0.0834486
0.145629
-0.10027
0.201851
0.00870204
0.204272
0.0259243
0.204708
0.0342107
0.205606
0.0354554
0.204631
0.043858
0.201993
0.0541502
0.195756
0.0705162
0.184724
0.0921139
0.159027
0.134895
0.190626
0.201455
0.00523673
0.203592
0.023787
0.203883
0.0339199
0.204577
0.0347614
0.203398
0.0450371
0.2005
0.057048
0.194039
0.0769779
0.182563
0.10359
0.1571
0.160358
0.234837
0.200927
0.00229988
0.202646
0.022068
0.202705
0.0338607
0.203053
0.0344136
0.201547
0.0465424
0.198269
0.0603266
0.191488
0.0837587
0.179423
0.115655
0.154436
0.185346
0.278009
0.200262
2.72152e-05
0.20144
0.0208908
0.201186
0.0341142
0.201045
0.0345543
0.199096
0.0484915
0.195318
0.0641051
0.188116
0.0909602
0.175273
0.128498
0.151109
0.20951
0.320136
0.199457
-0.00144001
0.199981
0.0203672
0.199341
0.0347535
0.198568
0.0353278
0.196064
0.0509948
0.191668
0.0685018
0.183934
0.0986936
0.170125
0.142307
0.147146
0.232489
0.361455
0.198502
-0.00195192
0.198276
0.0205934
0.19719
0.0358393
0.195637
0.0368803
0.192475
0.0541567
0.187337
0.0736401
0.178933
0.107098
0.164102
0.157138
0.142604
0.253987
0.40238
0.197395
-0.00135747
0.19634
0.0216487
0.194751
0.0374288
0.192272
0.0393592
0.188356
0.058072
0.182346
0.0796501
0.173074
0.11637
0.157125
0.173087
0.136656
0.274456
0.444163
0.196148
0.000484341
0.194204
0.0235923
0.192042
0.039591
0.188485
0.0429162
0.183736
0.0628207
0.176766
0.0866207
0.166627
0.126509
0.15052
0.189193
0.131842
0.293135
0.485101
0.194877
0.00359734
0.191937
0.0265317
0.189085
0.0424435
0.184244
0.0477574
0.178468
0.0685967
0.170029
0.0950594
0.157985
0.138553
0.140261
0.206917
0.121016
0.31238
0.530194
0.303387
0.00222059
0.306822
0.0230964
0.310589
0.038677
0.313171
0.045175
0.316142
0.0656256
0.319587
0.0916152
0.325145
0.132995
0.336258
0.195804
0.3615
0.287138
0.466652
0.425041
0.304258
-2.76587e-05
0.307961
0.0193934
0.312321
0.0343176
0.315697
0.0417983
0.320098
0.0612247
0.325721
0.085993
0.334687
0.124029
0.350499
0.179992
0.380186
0.257451
0.402736
0.444102
0.305122
-0.00313955
0.309306
0.0152098
0.314062
0.0295611
0.318227
0.0376339
0.323832
0.0556196
0.331305
0.0785195
0.342939
0.112395
0.361602
0.161329
0.395155
0.223898
0.339912
0.457979
0.306029
-0.00715794
0.310715
0.0105234
0.315762
0.0245139
0.320618
0.032778
0.327245
0.048993
0.336268
0.0694964
0.349945
0.098718
0.370771
0.140503
0.405732
0.188936
0.279913
0.465731
0.307024
-0.0121717
0.312202
0.00534531
0.3174
0.0193157
0.322809
0.0273693
0.330267
0.0415347
0.340546
0.0592178
0.355737
0.0835274
0.378185
0.118055
0.41294
0.154181
0.223498
0.469355
0.30817
-0.0183316
0.313812
-0.000296906
0.318952
0.0141757
0.324747
0.0215744
0.332856
0.0334255
0.344107
0.0479673
0.360381
0.0672532
0.383955
0.0944808
0.417756
0.12038
0.170721
0.470534
0.309532
-0.0258536
0.315583
-0.00634761
0.320398
0.00936064
0.326388
0.0155841
0.33497
0.0248434
0.346929
0.0360084
0.363953
0.0502297
0.388229
0.0702046
0.420896
0.0877127
0.121209
0.470408
0.31125
-0.0350932
0.317533
-0.0126304
0.321596
0.00529693
0.327545
0.00963579
0.33644
0.0159481
0.348888
0.0235607
0.366423
0.0326941
0.391073
0.0455545
0.422808
0.0559783
0.0745064
0.46951
0.309631
-0.0427136
0.314755
-0.0177544
0.317928
0.00212355
0.323879
0.00368525
0.332937
0.00688989
0.345703
0.0107946
0.363599
0.0147982
0.388368
0.0207847
0.419734
0.0246132
0.0323895
0.46185
0.259297
0.241542
0.243666
0.247351
0.254241
0.265035
0.279834
0.300618
0.325232
0.357621
0.439266
-0.105292
0.444709
-0.0969111
0.447161
-0.0847293
0.449394
-0.0704909
0.452373
-0.057315
0.456031
-0.0457295
0.459933
-0.0347372
0.463627
-0.0234344
0.466776
-0.0116152
0.000375991
0.444763
-0.105952
0.443444
-0.0955929
0.442138
-0.0834233
0.442274
-0.0706261
0.443449
-0.0584904
0.444919
-0.0471997
0.44635
-0.0361679
0.447761
-0.0248455
0.449235
-0.0130891
-0.00104643
0.451652
-0.0996255
0.446179
-0.0901194
0.4415
-0.078744
0.438047
-0.0671739
0.435681
-0.0561244
0.434089
-0.0456074
0.433162
-0.035241
0.432909
-0.0245922
0.433324
-0.0135044
-0.00208908
0.455261
-0.0891554
0.446221
-0.0810801
0.438617
-0.0711397
0.432645
-0.0612023
0.428201
-0.0516798
0.424967
-0.0423738
0.42274
-0.0330135
0.421476
-0.0233284
0.4212
-0.013228
-0.00282115
0.456582
-0.0763827
0.44541
-0.0699082
0.436028
-0.0617573
0.428423
-0.0535978
0.422446
-0.0457023
0.417878
-0.0378063
0.414581
-0.0297168
0.41253
-0.0212764
0.411738
-0.0124364
-0.00328496
0.456521
-0.06237
0.444055
-0.057442
0.433472
-0.0511744
0.424738
-0.0448636
0.41771
-0.0386744
0.412244
-0.0323405
0.408239
-0.0257112
0.405663
-0.0187009
0.404524
-0.0112972
-0.00359094
0.455665
-0.047627
0.442418
-0.0441949
0.431083
-0.0398386
0.421641
-0.0354219
0.413954
-0.0309872
0.407912
-0.0262988
0.403446
-0.0212456
0.400538
-0.0157929
0.399199
-0.00995826
-0.00382217
0.454114
-0.0322309
0.440231
-0.0303122
0.428337
-0.0279439
0.418383
-0.0254682
0.410218
-0.0228222
0.403746
-0.0198271
0.398924
-0.0164237
0.39576
-0.0126289
0.394288
-0.00848572
-0.00407419
0.444874
-0.0152546
0.429763
-0.0152012
0.416727
-0.014908
0.405615
-0.0143561
0.39625
-0.0134566
0.388564
-0.0121418
0.382606
-0.0104653
0.378486
-0.00850891
0.376328
-0.00632741
-0.00395638
0.342367
0.327165
0.312257
0.297901
0.284445
0.272303
0.261838
0.253329
0.247001
0.0103146
0.0490154
-0.05933
0.0214399
0.150543
-0.161668
0.0262509
0.216585
-0.221396
0.0258562
0.243288
-0.242893
0.0228358
0.248836
-0.245815
0.018896
0.246918
-0.242978
0.0146968
0.243211
-0.239012
0.0104486
0.23862
-0.234372
0.00643013
0.230707
-0.226689
0.211824
0.00356533
-0.208959
0.0119202
0.0370952
0.027612
0.134851
0.0376792
0.206518
0.0420269
0.23894
0.0432256
0.247637
0.0433078
0.246836
0.0431415
0.243377
0.0427225
0.239039
0.0412113
0.232218
0.216181
0.0368535
0.0122692
0.024826
0.0311776
0.115943
0.046037
0.191658
0.0552914
0.229686
0.0610657
0.241863
0.0655108
0.242391
0.0697459
0.239142
0.07386
0.234925
0.0765866
0.229492
0.21881
0.0739582
0.01134
0.013486
0.0314249
0.0958578
0.0497613
0.173322
0.0634421
0.216005
0.0737144
0.231591
0.0825053
0.2336
0.0910737
0.230574
0.0998005
0.226198
0.10795
0.221343
0.214817
0.111942
0.00940698
0.00407904
0.0284834
0.0767814
0.0484103
0.153395
0.0654016
0.199014
0.0796098
0.217382
0.0923867
0.220823
0.104882
0.218078
0.117667
0.213414
0.130673
0.208337
0.202979
0.142511
0.00691563
-0.00283659
0.0232445
0.0604526
0.0427917
0.133848
0.0615302
0.180275
0.0785786
0.200334
0.0944998
0.204901
0.110089
0.202489
0.125888
0.197615
0.142153
0.192072
0.186005
0.159127
0.00435705
-0.00719364
0.0171428
0.0476668
0.0349012
0.116089
0.0539006
0.161276
0.0724899
0.181745
0.0904358
0.186956
0.108036
0.184889
0.12563
0.180021
0.143404
0.174298
0.167488
0.161921
0.00212591
-0.00931955
0.0114781
0.0383146
0.0268089
0.100758
0.0449233
0.143162
0.0637117
0.162956
0.0823001
0.168367
0.100502
0.166687
0.11838
0.162142
0.136124
0.156554
0.14988
0.153732
0.000525265
-0.00984481
0.00726809
0.0315718
0.0203794
0.0876472
0.0372395
0.126301
0.0555815
0.144614
0.0741689
0.14978
0.0925157
0.14834
0.110515
0.144143
0.128252
0.138816
0.131728
0.146405
-0.000402246
-0.00944257
0.00454015
0.0266294
0.0158189
0.0763685
0.0312082
0.110912
0.0483972
0.127425
0.0659253
0.132252
0.0830523
0.131213
0.0994589
0.127736
0.114827
0.123448
0.117608
0.128947
-0.000805051
-0.00863752
0.00316397
0.0226604
0.0132716
0.0662609
0.0275613
0.0966223
0.0438164
0.11117
0.0605844
0.115484
0.0771234
0.114674
0.0931372
0.111723
0.108504
0.10808
0.104758
0.121355
-0.000933617
-0.0077039
0.00259093
0.0191359
0.012008
0.0568438
0.0255153
0.083115
0.0410011
0.0956845
0.0570702
0.0994144
0.0730073
0.0987369
0.0885136
0.0962163
0.10351
0.0930836
0.0911135
0.117155
-0.000971145
-0.00673276
0.00228827
0.0158764
0.0112051
0.047927
0.024052
0.0702682
0.0387953
0.0809412
0.0540983
0.0841113
0.0692773
0.0835579
0.0840385
0.0814551
0.0982843
0.0788378
0.077538
0.11186
-0.000972712
-0.00576004
0.0021145
0.0127892
0.0106713
0.0393702
0.0230104
0.0579291
0.0371557
0.0667959
0.0518208
0.0694462
0.0663513
0.0690274
0.0804618
0.0673447
0.0940428
0.0652568
0.0643368
0.107244
-0.000954864
-0.00480518
0.00202731
0.00980706
0.0103452
0.0310523
0.0223378
0.0459365
0.0360695
0.0530641
0.0502954
0.0552204
0.0643905
0.0549323
0.0780882
0.053647
0.0912918
0.0520533
0.0514011
0.104228
-0.000934972
-0.00387021
0.00198412
0.00688797
0.0101499
0.0228866
0.0219229
0.0341635
0.0353964
0.0395906
0.049356
0.0412608
0.0632015
0.0410867
0.0766843
0.0401642
0.0897226
0.039015
0.0385855
0.102538
-0.000916162
-0.00295405
0.00197103
0.00400077
0.0100471
0.0148105
0.0216905
0.0225201
0.035015
0.0262661
0.0488268
0.027449
0.0625424
0.0273711
0.0759257
0.026781
0.0889042
0.0260365
0.0258085
0.101681
-0.000889534
-0.00206451
0.00198996
0.00112128
0.0100202
0.00678025
0.0215914
0.0109489
0.0348324
0.0130252
0.0485629
0.0137185
0.0622112
0.0137227
0.0755491
0.0134431
0.0885096
0.013076
0.0130369
0.101281
-0.000855833
-0.00120868
0.00204223
-0.00177679
0.0100597
-0.00123726
0.0215925
-0.000583867
0.0347817
-0.000164021
0.0484588
4.12796e-05
0.0620615
0.000120051
0.0753676
0.000136987
0.0883138
0.000129841
0.000271519
0.101079
-0.000811984
0.00213215
0.0101634
0.0216761
0.0348228
0.0484484
0.0619996
0.0752605
0.0881716
0.10091
0.1378
0.290731
-0.307176
0.149839
0.122318
-0.134356
0.159532
0.041432
-0.051125
0.167225
0.004919
-0.0126118
0.173615
-0.00904061
0.00264964
0.17928
-0.0131149
0.00745064
0.18447
-0.0130363
0.00784627
0.189286
-0.0113313
0.00651505
0.193789
-0.0092879
0.0047849
-0.00605619
0.00203092
0.139653
0.268233
0.155605
0.106365
0.166397
0.0306395
0.173712
-0.00239548
0.179271
-0.0146001
0.18393
-0.0177738
0.188036
-0.0171417
0.191723
-0.0150183
0.195081
-0.0126458
-0.00894825
0.141981
0.238112
0.160906
0.0874401
0.172255
0.0192901
0.179324
-0.0094641
0.184279
-0.0195554
0.188119
-0.0216135
0.191277
-0.0203
0.193956
-0.0176974
0.196286
-0.0149752
-0.0108172
0.144716
0.20064
0.165739
0.0664165
0.177504
0.00752517
0.184373
-0.0163324
0.18878
-0.0239627
0.191883
-0.0247164
0.1942
-0.0226168
0.195986
-0.0194835
0.197403
-0.0163924
-0.0117765
0.147469
0.157399
0.170035
0.0438509
0.18211
-0.00455053
0.188794
-0.0230166
0.19274
-0.0279088
0.195207
-0.0271827
0.196794
-0.0242036
0.197804
-0.020494
0.198428
-0.0170166
-0.0119441
0.149957
0.10998
0.173724
0.0200836
0.186053
-0.0168791
0.192586
-0.0295492
0.196144
-0.0314675
0.198075
-0.0291138
0.199047
-0.0251755
0.199403
-0.02085
0.199357
-0.0169707
-0.0114421
0.152035
0.0596262
0.17675
-0.0046319
0.189295
-0.0294233
0.195716
-0.0359705
0.19897
-0.0347219
0.200473
-0.0306169
0.200949
-0.0256515
0.200776
-0.0206761
0.200186
-0.0163808
-0.0103963
0.153603
0.00730458
0.179059
-0.0300884
0.191795
-0.0421594
0.198159
-0.0423344
0.201201
-0.037763
0.202388
-0.031804
0.20249
-0.0257541
0.201914
-0.0200996
0.200909
-0.0153759
-0.00893601
0.154571
-0.0461868
0.180592
-0.0561102
0.193526
-0.0550931
0.199896
-0.0487047
0.202821
-0.0406874
0.203807
-0.0327905
0.203662
-0.0256085
0.202812
-0.0192505
0.201524
-0.0140873
-0.00719301
0.154882
0.181308
0.194459
0.20091
0.20382
0.204725
0.204458
0.203467
0.202027
0.109951
-0.0029665
-0.106985
0.107472
0.0024791
0.105402
0.00206994
0.105289
0.000113522
0.106243
-0.000954581
0.107425
-0.00118114
0.108491
-0.00106611
0.109325
-0.000833828
0.109903
-0.000578592
-0.000233165
0.232895
0.0678566
-0.303718
0.200672
0.0347013
0.18852
0.0142224
0.185252
0.00338147
0.185458
-0.00116048
0.186843
-0.00256625
0.188397
-0.00262052
0.189716
-0.00215218
0.190693
-0.0015554
-0.000648186
0.250083
0.15652
-0.338747
0.213714
0.0710707
0.200137
0.0277997
0.196394
0.00712381
0.196517
-0.00128265
0.197955
-0.00400421
0.1996
-0.00426625
0.201009
-0.0035612
0.202065
-0.00261077
-0.00110139
0.245066
0.237492
-0.326038
0.212009
0.104128
0.19985
0.0399592
0.19676
0.0102133
0.197219
-0.00174176
0.198825
-0.00561044
0.200559
-0.0059998
0.20201
-0.00501235
0.203086
-0.00368695
-0.0015626
0.23983
-0.309513
0.209601
0.198435
0.196037
0.196945
0.198785
0.200631
0.202134
0.203232
0.0115701
0.000703808
-0.0122739
0.0118211
-0.000251023
0.012515
-0.000693891
0.01333
-0.000814959
0.0151416
-0.00181162
0.0194209
-0.00427929
0.03122
-0.0117991
0.0477661
-0.0165461
0.0769641
-0.029198
-0.0300208
0.0338114
0.00165155
-0.0347591
0.0368064
-0.0032461
0.0442323
-0.00811975
0.0580531
-0.0146357
0.0810096
-0.0247681
0.115135
-0.0384047
0.160589
-0.0572528
0.209189
-0.065146
0.262184
-0.0821936
-0.0715544
0.0557843
0.00164415
-0.0557769
0.0630762
-0.010538
0.0793218
-0.0243653
0.10702
-0.0423344
0.146574
-0.0643221
0.194554
-0.0863845
0.242622
-0.105321
0.283552
-0.106076
0.315988
-0.114629
-0.0943138
0.0759262
-3.05966e-05
-0.0742515
0.0874958
-0.0221075
0.11068
-0.0475494
0.145561
-0.077216
0.18773
-0.106491
0.229448
-0.128103
0.262534
-0.138407
0.289153
-0.132695
0.308675
-0.134151
-0.111678
0.092512
-0.0889772
0.107258
0.133667
0.168393
0.204414
0.235438
0.258953
0.27999
0.292243
0.0910814
-0.0879352
0.0971898
-0.100336
0.0821855
-0.0906791
0.099575
0.0732019
-0.0942296
0.103213
0.0634093
-0.0978769
0.10767
0.0525401
-0.101429
0.112298
0.0406301
-0.104785
0.116695
0.0279633
-0.106859
0.119526
0.0153959
-0.103053
0.11562
0.00497778
-0.0835703
0.0939884
-0.0390627
0.0440404
0.104597
-0.07805
-0.114482
0.0940615
-0.080144
0.0824856
-0.0826536
0.0700155
-0.0854068
0.0568949
-0.0883082
0.0433075
-0.0911972
0.029482
-0.093034
0.016155
-0.0897261
0.00525643
-0.0726717
-0.0338062
0.101642
-0.0667798
-0.112912
0.090136
-0.0686378
0.0783743
-0.070892
0.0663298
-0.0733622
0.0539309
-0.0759093
0.0411177
-0.0783841
0.027995
-0.0799112
0.0152638
-0.0769949
0.00486849
-0.0622764
-0.0289377
0.103739
-0.0554669
-0.115052
0.0922174
-0.0571164
0.0803575
-0.059032
0.0680747
-0.0610795
0.0553322
-0.0631668
0.0421394
-0.0651913
0.0286609
-0.0664328
0.0156371
-0.0639711
0.00502281
-0.0516621
-0.0239149
0.104297
-0.0440786
-0.115685
0.0926163
-0.045436
0.0805782
-0.046994
0.0681501
-0.0486514
0.0553178
-0.0503344
0.0420877
-0.0519612
0.0286065
-0.0529516
0.0155923
-0.0509569
0.00498981
-0.0410596
-0.0189251
0.104563
-0.0327043
-0.115937
0.0928766
-0.0337497
0.0808253
-0.0349427
0.0683783
-0.0362044
0.0555199
-0.0374761
0.0422561
-0.0386973
0.0287349
-0.0394304
0.0156753
-0.0378973
0.00502882
-0.0304131
-0.0138963
0.104646
-0.0213555
-0.115995
0.0929648
-0.0220683
0.0809064
-0.0228843
0.0684461
-0.0237441
0.0555733
-0.0246033
0.0422967
-0.0254206
0.0287632
-0.0258969
0.0156893
-0.0248233
0.00503211
-0.019756
-0.00886418
0.104588
-0.0100214
-0.115922
0.0929141
-0.0103945
0.080861
-0.0108313
0.068406
-0.0112891
0.0555396
-0.0117369
0.0422707
-0.0121517
0.0287456
-0.0123719
0.01568
-0.0117577
0.00502985
-0.00910584
-0.00383433
0.104379
0.00129653
-0.115697
0.0927208
0.00126387
0.0806837
0.00120583
0.0682465
0.00114811
0.055401
0.0011086
0.0421564
0.00109288
0.0286595
0.001125
0.015626
0.00127579
0.00500843
0.00151172
0.0011741
0.104017
-0.115329
0.0923741
0.0803602
0.067954
0.0551464
0.0419461
0.0285006
0.015526
0.00496934
0.025739
-0.206712
-0.0279859
0.01965
-0.2206
0.0122966
-0.227019
0.00474608
-0.231461
-0.00257959
-0.235652
-0.00917744
-0.239218
-0.0137052
-0.238366
-0.0138548
-0.221246
-0.00779294
-0.16773
-0.067123
0.0550308
-0.202258
-0.0594848
0.0461863
-0.211755
0.0360474
-0.21688
0.0257544
-0.221168
0.0156775
-0.225576
0.00617199
-0.229712
-0.00182357
-0.23037
-0.00612973
-0.21694
-0.00494774
-0.168912