/*--------------------------------*- C++ -*----------------------------------*\
  =========                 |
  \\      /  F ield         | OpenFOAM: The Open Source CFD Toolbox
   \\    /   O peration     | Website:  https://openfoam.org
    \\  /    A nd           | Version:  13
     \\/     M anipulation  |
\*---------------------------------------------------------------------------*/
FoamFile
{
    format      ascii;
    class       volScalarField;
    location    "49";
    object      p;
}
// * * * * * * * * * * * * * * * * * * * * * * * * * * * * * * * * * * * * * //

dimensions      [0 2 -2 0 0 0 0];

internalField   nonuniform List<scalar> 
440
(
-1.28572
-1.27022
-1.26504
-1.26142
-1.28842
-1.34564
-1.32455
-1.29897
-1.26783
-1.23117
-1.47776
-1.43736
-1.3777
-1.29634
-1.20326
-1.60205
-1.54329
-1.42208
-1.27606
-1.12875
-1.66952
-1.58545
-1.3997
-1.20765
-1.03332
-0.673488
-0.672199
-0.67515
-0.684285
-0.691482
-0.938799
-0.957451
-1.00031
-1.07281
-1.15462
-1.16381
-1.18395
-1.22922
-1.30706
-1.4191
-1.23301
-1.23459
-1.24256
-1.26278
-1.30454
-1.24409
-1.235
-1.22806
-1.2252
-1.22352
-0.586267
0.37904
-0.765058
-0.611137
-0.210449
-0.894875
0.58511
-0.962371
-0.72388
-0.211365
-1.2391
0.441654
-1.10927
-0.660102
-0.201213
-1.28213
0.275551
-1.01809
-0.5382
-0.178369
-1.14441
0.402212
-0.49249
-0.48722
-0.150739
-0.819233
0.73147
0.30059
-0.527423
-0.127954
-0.382704
0.428257
0.293268
-0.382722
-0.107931
-0.216317
0.530492
0.525559
-0.115466
-0.095471
-0.104912
0.41859
0.554588
0.0443753
-0.0912727
-0.0690615
0.47737
0.628252
0.201009
-0.0729768
-0.737673
-0.852714
-1.00275
-1.13814
-1.28314
-0.433449
-0.549946
-0.622061
-0.663716
-0.66535
-0.233881
-0.332034
-0.379458
-0.401566
-0.396187
-0.116695
-0.201588
-0.248839
-0.262975
-0.250255
-0.0634941
-0.14632
-0.191654
-0.203642
-0.181706
0.689471
0.533213
0.335723
0.110896
-0.141892
0.238602
0.0693891
-0.136864
-0.373547
-0.648769
-0.199
-0.377033
-0.600689
-0.84899
-1.11167
-0.583731
-0.769322
-0.999762
-1.24664
-1.45414
-0.851577
-1.04336
-1.26342
-1.49337
-1.63353
1.94037
1.9689
1.99525
2.00768
2.00268
1.72976
1.74658
1.75644
1.7486
1.71875
1.48692
1.47423
1.43774
1.37689
1.28787
1.20945
1.17154
1.09733
0.99017
0.849858
0.954342
0.846879
0.706927
0.542357
0.340319
1.72558
1.71028
1.7014
1.75561
1.83881
1.71393
1.69644
1.67869
1.72426
1.73845
1.70333
1.68001
1.65363
1.68092
1.6107
1.69393
1.66163
1.62592
1.6278
1.42869
1.6858
1.6418
1.59673
1.56925
1.23755
1.67847
1.61358
1.55948
1.46725
1.02292
1.6718
1.57575
1.52866
1.37613
1.0812
1.67917
1.55237
1.49808
1.32428
1.0486
1.66772
1.52897
1.47857
1.28831
1.00731
1.70749
1.5243
1.47022
1.27055
0.984691
0.662975
0.333645
-0.0252406
-0.345152
-0.551853
0.575826
0.354278
0.111636
-0.106311
-0.29145
0.575616
0.403003
0.218667
0.0486909
-0.113109
0.606131
0.453769
0.29621
0.144769
-0.00132439
0.621605
0.481369
0.335576
0.18953
0.0482604
-0.852781
-0.735296
-0.587259
-0.466574
-0.394794
-0.886802
-0.832734
-0.722051
-0.632091
-0.577993
-0.795252
-0.750105
-0.688498
-0.636088
-0.600889
-0.643505
-0.606797
-0.570218
-0.542209
-0.522933
-0.532082
-0.512824
-0.489204
-0.479625
-0.502929
-0.476112
-0.470064
-0.448218
-0.457801
-0.437259
-0.459568
-0.456376
-0.446043
-0.443755
-0.435196
-0.468429
-0.464029
-0.453951
-0.436425
-0.423037
-0.495342
-0.486832
-0.474758
-0.457221
-0.432704
-0.539076
-0.532253
-0.520335
-0.504502
-0.487609
-0.494817
-0.115294
-0.0116951
-0.473463
-0.0344723
-0.451093
-0.089051
-0.0992551
-0.461607
-0.0924857
-0.330698
-0.0706529
-0.211112
-0.470377
-0.146012
-0.375131
-0.0455677
-0.36367
-0.48849
-0.184164
-0.464621
0.0182407
-0.554209
-0.484931
-0.202746
0.0116033
-0.24257
0.00158949
-0.442025
0.0626448
-0.391578
-0.223285
0.0644325
-0.451439
0.0227741
-0.354777
-0.564689
-0.555017
-0.526866
-0.291519
-0.371757
-0.55774
-0.578031
-0.519623
-0.526007
1.76299
1.74556
1.71245
1.66508
1.60266
1.91011
1.93259
1.94093
1.93382
1.9124
2.03108
2.06477
2.09054
2.10466
2.10563
2.08684
2.12575
2.16658
2.20017
2.21621
2.0581
2.09395
2.13311
2.16514
2.1792
-0.0156379
-0.108652
-0.254707
-0.431991
-0.626506
0.495148
0.374908
0.213889
0.0203243
-0.21544
0.952726
0.827269
0.677417
0.501285
0.287037
1.31345
1.2183
1.102
0.960826
0.793161
1.59927
1.53485
1.44949
1.34681
1.22761
1.79567
1.75315
1.75699
1.78639
1.8396
1.77923
1.74782
1.75155
1.79395
1.87673
1.76476
1.74092
1.74584
1.80157
1.92871
1.75097
1.7326
1.735
1.79657
1.92276
1.73787
1.72257
1.71983
1.78128
1.89804
1.85358
1.76306
1.75251
1.72592
1.74105
1.80716
1.75239
1.74494
1.74351
1.74754
1.50021
1.33016
1.01296
0.536968
0.0123458
1.56884
1.35383
1.02367
0.553566
0.0196801
)
;

boundaryField
{
    left
    {
        type            zeroGradient;
    }
    right
    {
        type            fixedValue;
        value           uniform 0;
    }
    down
    {
        type            zeroGradient;
    }
    up
    {
        type            zeroGradient;
    }
    cylinder
    {
        type            zeroGradient;
    }
    defaultFaces
    {
        type            empty;
    }
}


// ************************************************************************* //
