/*--------------------------------*- C++ -*----------------------------------*\
  =========                 |
  \\      /  F ield         | OpenFOAM: The Open Source CFD Toolbox
   \\    /   O peration     | Website:  https://openfoam.org
    \\  /    A nd           | Version:  13
     \\/     M anipulation  |
\*---------------------------------------------------------------------------*/
FoamFile
{
    format      ascii;
    class       volScalarField;
    location    "0.28";
    object      strainRateViscosityModel:nu;
}
// * * * * * * * * * * * * * * * * * * * * * * * * * * * * * * * * * * * * * //

dimensions      [0 2 -1 0 0 0 0];

internalField   nonuniform List<scalar> 
1800
(
9.40493
9.1976
9.01001
8.80081
8.57592
8.34385
8.11516
7.89794
7.62419
7.37933
9.58526
9.4188
9.26688
9.09726
8.91106
8.71127
8.50338
8.2885
8.02723
7.7021
9.70221
9.5627
9.42803
9.27093
9.08862
8.87889
8.64079
8.36891
8.03052
7.61063
9.7754
9.65615
9.53324
9.38286
9.20046
8.98167
8.72274
8.4159
8.02876
7.55462
9.82169
9.71832
9.6056
9.46167
9.2807
9.05694
8.78546
8.45886
8.04776
7.55621
9.85186
9.76083
9.65732
9.5206
9.34356
9.11896
8.84034
8.50016
8.07154
7.57026
9.8718
9.78992
9.694
9.56398
9.39149
9.1677
8.88422
8.53254
8.08738
7.57572
9.88476
9.80926
9.7189
9.59397
9.42497
9.20148
8.91312
8.55007
8.08856
7.56359
9.89261
9.82108
9.73418
9.61223
9.44469
9.21966
8.92487
8.54926
8.07124
7.52874
9.89647
9.82687
9.74155
9.62072
9.45312
9.22576
8.92515
8.53956
8.0504
7.49288
1.71607
1.40915
1.22087
1.31649
1.71104
2.23038
2.48445
2.44289
2.35295
2.3283
3.65974
1.7902
1.49595
1.96832
2.67895
2.97015
2.82341
2.67584
2.68906
2.74171
4.6673
2.57272
2.43679
3.17086
3.59585
3.35636
3.09235
3.12547
3.26405
3.34501
5.25117
3.88308
3.81797
4.21423
4.18443
3.83826
3.731
3.86375
3.96608
4.01531
6.04887
5.27602
5.11946
5.12201
4.91728
4.65899
4.58561
4.62026
4.62069
4.66025
6.958
6.46034
6.22734
6.03833
5.78911
5.54799
5.39334
5.29847
5.22787
5.28039
7.77159
7.37794
7.11679
6.85994
6.58718
6.32102
6.08867
5.90333
5.77342
5.8272
8.40032
8.05538
7.79183
7.51528
7.22586
6.93073
6.64217
6.38699
6.19373
6.23115
8.84949
8.54538
8.2908
8.00987
7.70506
7.37878
7.03508
6.70098
6.41623
6.42276
9.16173
8.90153
8.66619
8.39637
8.09526
7.76521
7.40593
7.03536
6.70873
6.75304
2.18674
1.7237
1.32195
0.908798
0.554498
0.226329
0.0528592
0.0157615
0.0118302
0.010379
2.53023
1.85376
1.41124
0.922433
0.54563
0.213179
0.0418787
0.0134172
0.0108098
0.0100389
2.95657
1.99039
1.49528
0.93869
0.534824
0.203354
0.03878
0.0132698
0.0107792
0.0100372
3.4504
2.16315
1.57356
0.956799
0.522199
0.195729
0.0384246
0.0133588
0.0107948
0.0100419
3.99132
2.40058
1.65339
0.975651
0.50754
0.188329
0.0390944
0.0135342
0.0108375
0.0100517
4.53494
2.70994
1.74913
0.99707
0.491538
0.179396
0.0400281
0.0137879
0.0109068
0.0100667
5.00193
3.06813
1.86952
1.02176
0.47389
0.167051
0.0403363
0.0141077
0.0109981
0.010087
5.31685
3.45033
2.03576
1.06576
0.461745
0.15234
0.0395502
0.0144507
0.0111003
0.0101109
5.347
3.73323
2.18466
1.09874
0.444618
0.132224
0.0360341
0.0145899
0.0111456
0.0101089
5.20524
4.00022
2.42219
1.20565
0.46305
0.124022
0.035375
0.0143008
0.0103114
0.0100345
4.94921
3.9555
2.48235
1.22465
0.435945
0.0879545
0.016425
0.0101132
0.0183044
0.0449744
5.33923
3.3681
2.16296
1.01372
0.324763
0.0384648
0.0296069
0.112849
0.198304
0.263049
4.91141
3.04451
2.22334
1.14797
0.495697
0.180277
0.213314
0.305424
0.364777
0.409863
4.54062
3.60965
2.64064
1.58137
0.815099
0.39859
0.339384
0.417276
0.489392
0.544076
5.10636
4.73519
3.3193
2.12945
1.18638
0.651518
0.513697
0.556638
0.615592
0.662676
6.25288
5.6666
4.05071
2.66042
1.57214
0.934613
0.704162
0.689146
0.726455
0.762943
7.26313
6.37449
4.71456
3.15251
1.94827
1.22293
0.908653
0.827159
0.831064
0.848657
8.00054
6.91314
5.26216
3.59154
2.30308
1.50932
1.11798
0.965757
0.928674
0.921281
8.51891
7.33129
5.69904
3.9736
2.63046
1.78045
1.3172
1.09472
1.01334
0.978774
8.93096
7.69111
6.05035
4.28698
2.94308
2.06965
1.54084
1.24188
1.10763
1.03588
6.51288
6.43967
6.43051
6.44892
6.48767
6.53044
6.58266
6.71131
6.89612
6.82723
0.261007
1.05792
2.00893
2.92452
3.70604
4.31929
4.73671
4.987
5.22702
5.73335
3.85022
3.54315
3.28348
3.1098
3.10487
3.24906
3.4723
3.7148
4.1678
4.84985
6.64468
6.62765
6.53737
6.34455
6.04241
5.65588
5.24626
4.89154
4.73431
4.54473
7.69212
7.6768
7.63239
7.54156
7.39637
7.18994
6.92678
6.6185
6.28391
5.65252
8.44968
8.43328
8.39451
8.32789
8.22978
8.09696
7.92863
7.71706
7.428
6.90752
8.93976
8.92401
8.89036
8.83688
8.76176
8.66303
8.53832
8.37914
8.15495
7.80899
9.27301
9.25984
9.23249
9.18989
9.13056
9.0525
8.95276
8.82491
8.65295
8.43112
9.50447
9.49418
9.47308
9.44025
9.39427
9.3332
9.25425
9.15289
9.02292
8.8754
9.68989
9.68284
9.66852
9.64603
9.61404
9.57069
9.5136
9.43974
9.34636
9.24408
7.25061
7.52775
7.83732
8.08742
8.34429
8.59908
8.84097
9.06134
9.25453
9.46036
7.58446
7.94863
8.2409
8.48078
8.70894
8.92447
9.12207
9.2989
9.45392
9.61815
7.49936
7.95764
8.32579
8.62019
8.87544
9.09749
9.28791
9.44947
9.58538
9.72232
7.44748
7.95776
8.37361
8.70177
8.97637
9.20581
9.39463
9.54804
9.67133
9.78828
7.45671
7.98074
8.4185
8.76475
9.05041
9.28348
9.46974
9.61591
9.7287
9.83025
7.48263
8.01171
8.46394
8.82138
9.11227
9.34471
9.52605
9.66448
9.76798
9.85766
7.50374
8.03786
8.50273
8.86858
9.16195
9.39189
9.56764
9.69891
9.79481
9.87572
7.5112
8.05246
8.5287
8.90208
9.19747
9.42522
9.59641
9.72215
9.81245
9.8873
7.4984
8.05047
8.53743
8.91899
9.2177
9.44505
9.61374
9.73608
9.82291
9.89405
7.48291
8.04361
8.53595
8.92347
9.22528
9.45333
9.62126
9.74219
9.82747
9.89695
2.51786
2.47907
2.50392
2.71058
2.86603
2.47112
1.64268
1.16119
1.50267
4.07198
2.94047
2.85228
2.6993
2.70787
3.09326
3.38949
2.76336
1.86294
2.08334
5.07897
3.4526
3.4056
3.24626
3.06551
3.27075
3.82196
3.78074
3.11897
3.23718
5.42199
3.96297
3.94999
3.91924
3.80672
3.89771
4.32183
4.58305
4.44327
4.62345
5.88419
4.52085
4.4929
4.56455
4.63033
4.78813
5.11681
5.43523
5.60632
5.87663
6.61292
5.1211
5.07814
5.21413
5.40713
5.6625
5.98181
6.30654
6.58926
6.89185
7.39781
5.66822
5.63104
5.82819
6.0965
6.41005
6.7407
7.06675
7.37503
7.67498
8.08328
6.07666
6.0607
6.32043
6.64466
6.99517
7.33877
7.66572
7.97246
8.2574
8.61013
6.26729
6.28454
6.63353
7.02641
7.41944
7.78323
8.1155
8.41568
8.68218
8.98781
6.60511
6.57358
6.95742
7.37947
7.78063
8.14223
8.46575
8.7499
8.99276
9.25193
0.0934982
0.128571
0.0623742
0.0257183
0.0119535
0.274334
0.832761
1.40907
1.89832
2.39081
0.0614193
0.121235
0.0624666
0.0272687
0.0152647
0.275592
0.85675
1.49349
2.00031
2.67926
0.0413754
0.121215
0.0657283
0.0330243
0.0252855
0.294004
0.890921
1.56969
2.09598
3.01306
0.0300669
0.126856
0.0716178
0.0427275
0.0437689
0.324454
0.92897
1.63299
2.21973
3.41461
0.0246963
0.136776
0.0794735
0.0553915
0.0687635
0.360302
0.964959
1.69036
2.40863
3.8894
0.0233194
0.149761
0.0884785
0.0694874
0.0967041
0.39608
0.998772
1.76164
2.67754
4.38535
0.0253529
0.165016
0.0977701
0.082967
0.122786
0.426136
1.03175
1.86285
3.00723
4.81327
0.0319872
0.182577
0.106729
0.0948512
0.146068
0.455844
1.08598
2.02207
3.371
5.09542
0.0475538
0.202991
0.115254
0.101544
0.156056
0.467187
1.12675
2.17048
3.64652
5.09708
0.0773916
0.225517
0.125244
0.109603
0.17866
0.519948
1.26252
2.42716
3.89654
4.90478
0.135941
0.255297
0.142741
0.11145
0.168219
0.506348
1.31169
2.53644
3.90434
4.68735
0.241604
0.291319
0.142135
0.0984805
0.104913
0.365514
1.14258
2.32566
3.45228
5.20841
0.407049
0.294774
0.130778
0.0308527
0.0161127
0.247859
1.0817
2.31965
3.24802
4.94671
0.659776
0.287798
0.0304402
0.0820001
0.135144
0.440012
1.34609
2.56271
3.67684
4.68536
1.03806
0.0740207
0.23043
0.323116
0.386852
0.838791
1.88383
3.16431
4.68151
5.16097
1.51079
0.0819554
0.540751
0.512919
0.677485
1.28331
2.45108
3.89898
5.58945
6.2184
2.18364
0.689453
0.859476
0.797282
1.03079
1.74012
2.98735
4.58842
6.30116
7.21646
3.78718
1.68837
1.28783
1.13764
1.40722
2.17285
3.46893
5.16622
6.85516
7.96947
6.85879
3.57326
1.97838
1.51097
1.76574
2.5619
3.89006
5.63507
7.2963
8.5075
9.04892
6.38487
2.86755
2.07575
2.19493
2.9494
4.25084
6.02507
7.68705
8.93791
6.63023
6.69225
6.51458
6.39198
6.35078
6.32384
6.30627
6.31767
6.36206
6.47632
5.54191
5.0226
4.77692
4.53397
4.13411
3.54653
2.80307
1.9351
1.04646
0.284858
4.85807
4.24032
3.82799
3.61483
3.42606
3.3055
3.31047
3.45384
3.653
3.87319
4.70212
4.8746
5.01837
5.33034
5.69743
6.05017
6.33338
6.5217
6.61714
6.64218
5.67891
6.2807
6.60953
6.91025
7.17226
7.3818
7.53226
7.62859
7.67708
7.69272
6.86434
7.38826
7.68465
7.90276
8.07706
8.21525
8.31814
8.38883
8.43077
8.44908
7.76558
8.12094
8.35237
8.51824
8.64822
8.75119
8.82972
8.88595
8.92175
8.93908
8.40491
8.63291
8.80904
8.94104
9.04409
9.12472
9.18601
9.2301
9.25858
9.27263
8.86621
9.0162
9.1476
9.25058
9.33081
9.39281
9.43943
9.47267
9.494
9.50442
9.24852
9.35031
9.4429
9.51622
9.57287
9.61583
9.64744
9.66954
9.68347
9.6901
9.5092
8.98488
8.23527
6.92761
5.59761
0.13117
3.36051
5.95984
7.21337
8.15121
9.46513
8.92107
8.16749
6.88991
5.54901
0.563716
2.62193
5.7055
6.91569
7.91325
9.36534
8.78227
8.01958
6.80889
5.36591
1.60337
1.41329
5.20617
6.3086
7.40252
9.18211
8.54449
7.77371
6.65431
5.18587
2.73986
0.722863
4.23794
5.42085
6.57062
8.86753
8.17281
7.40311
6.37602
5.0258
3.3677
0.970806
2.6311
4.31628
5.39289
8.34973
7.62876
6.87235
5.91619
4.76422
3.43951
1.71924
1.30152
3.04852
3.98722
7.53503
6.89543
6.15428
5.22626
4.29849
3.26882
2.14305
1.17266
1.65535
2.55638
6.3243
6.03619
5.27989
4.23046
3.532
2.91154
2.11833
1.43572
1.06848
1.23408
4.63107
5.23057
4.47271
2.9985
2.43593
2.27331
1.85584
1.38551
1.12333
0.6589
2.67341
4.53737
4.01929
1.96621
1.39652
1.48807
1.41029
1.21276
1.06486
0.846194
1.27828
3.78625
3.66347
1.33755
0.816803
0.898701
0.972714
0.957981
0.972932
1.02079
0.615022
2.96591
3.07856
0.958556
0.57724
0.64247
0.76237
0.822869
0.846384
0.879122
0.356565
2.18198
2.27942
0.691987
0.496123
0.598589
0.729435
0.813717
0.851203
0.875843
0.26624
1.53824
1.4787
0.524995
0.537837
0.676129
0.788911
0.859827
0.883237
0.893631
0.240547
1.00449
0.833122
0.513506
0.668335
0.801003
0.901497
0.964907
0.980795
0.978059
0.243419
0.484384
0.489202
0.6278
0.808637
0.94594
1.04378
1.10178
1.11254
1.10465
0.178327
0.19956
0.495969
0.741182
0.958358
1.10511
1.1961
1.24361
1.26009
1.26051
0.0457303
0.244219
0.634544
0.903713
1.1183
1.23754
1.31328
1.38141
1.43674
1.45822
0.0562596
0.482786
0.807847
1.08373
1.21908
1.32385
1.46879
1.62476
1.7125
1.72886
0.663936
0.84975
1.03685
1.18315
1.31343
1.57624
1.88567
2.05893
2.06417
2.03201
0.363016
0.0798782
0.220544
0.545254
0.784097
0.867606
0.857714
0.837159
0.832487
0.849967
0.463461
0.205117
0.313632
0.512182
0.709852
0.781594
0.770855
0.754487
0.755315
0.77724
0.527553
0.37125
0.433438
0.500805
0.635189
0.695274
0.683888
0.670077
0.675267
0.700042
0.639057
0.581836
0.586582
0.539765
0.56392
0.600984
0.591333
0.582124
0.59215
0.618769
0.801579
0.790793
0.728263
0.619304
0.512976
0.505519
0.49608
0.491551
0.505759
0.53308
0.998627
0.980279
0.854924
0.713441
0.496028
0.414533
0.399139
0.39942
0.41708
0.444124
1.21016
1.14661
0.963128
0.793545
0.510797
0.338124
0.303091
0.304457
0.323993
0.349717
1.43048
1.29856
1.05777
0.847931
0.537219
0.286469
0.212757
0.213011
0.232256
0.254716
1.66305
1.44456
1.14524
0.879058
0.55532
0.259216
0.134758
0.115127
0.131247
0.15212
1.91012
1.58721
1.23236
0.896248
0.559505
0.242149
0.0815866
0.0366319
0.0332673
0.0340338
2.00873
0.748007
0.721434
0.965806
1.19379
1.27911
1.26779
1.23114
1.19665
1.17538
1.39407
0.484364
0.583415
0.875171
1.105
1.18958
1.18006
1.14825
1.12141
1.10961
0.751217
0.289682
0.485341
0.797717
1.0299
1.11442
1.10581
1.07747
1.05655
1.0523
0.252346
0.174009
0.40857
0.724813
0.953521
1.03446
1.02473
0.999237
0.984216
0.987849
0.434217
0.0333662
0.268846
0.610554
0.856294
0.946346
0.940072
0.918085
0.908758
0.920116
9.3543
9.28968
9.14055
8.87253
8.43682
7.77795
6.87023
5.75815
4.58098
3.53638
9.19207
9.0952
8.88057
8.51098
7.94066
7.13542
6.10843
4.95387
3.84369
2.78606
9.02342
8.89975
8.62601
8.16029
7.46083
6.51505
5.37021
4.16746
3.08026
1.94177
8.8158
8.66163
8.32082
7.7471
6.90519
5.81316
4.55383
3.29366
2.22468
1.08882
8.58692
8.37876
7.92509
7.17658
6.11153
4.79106
3.34954
2.08394
0.99232
0.301329
1.06356
1.02827
1.02149
1.02547
0.91975
0.802863
1.2959
3.67611
3.85306
1.32671
0.953766
0.938911
0.932482
0.877321
0.72505
0.594191
0.91685
3.13134
3.09756
0.650273
0.990455
0.987041
0.970667
0.897971
0.753663
0.592934
0.707828
2.3556
2.32452
0.379264
1.05499
1.06627
1.06185
1.00237
0.893168
0.747964
0.665183
1.53381
1.60238
0.278481
1.18069
1.20373
1.20863
1.16105
1.07202
0.949581
0.78759
0.8873
0.889283
0.247411
1.33534
1.35463
1.36226
1.33536
1.26358
1.13017
0.910901
0.651489
0.347009
0.214775
1.52542
1.52142
1.4906
1.44832
1.39329
1.28041
1.0416
0.727102
0.266299
0.065474
1.77751
1.76925
1.68769
1.54183
1.40895
1.31066
1.16681
0.861789
0.474483
0.045903
2.05028
2.09355
2.08401
1.89003
1.56292
1.2937
1.16279
1.02062
0.814284
0.648352
2.26295
2.31094
2.4295
2.46282
2.15117
1.57328
1.15646
1.05318
1.27095
1.92371
8.15102
7.21301
5.95948
3.36
0.131427
5.59614
6.92712
8.23508
8.98489
9.5093
7.91257
6.91459
5.7045
2.62131
0.563596
5.54516
6.88846
8.1669
8.92112
9.46544
7.40107
6.30672
5.20438
1.41515
1.5997
5.3614
6.80661
8.0187
8.7824
9.36593
6.56798
5.41797
4.23571
0.726006
2.73167
5.18113
6.65145
7.77272
8.54481
9.18315
5.38848
4.31173
2.63173
0.971082
3.35651
5.01984
6.37254
7.40215
8.17354
8.8693
3.97865
3.04022
1.30933
1.714
3.42639
4.75533
5.91134
6.87139
7.63018
8.35275
2.53912
1.65134
1.188
2.13389
3.25033
4.2818
5.2175
6.15315
6.89811
7.54051
1.21434
1.0876
1.45387
2.10832
2.87965
3.50185
4.21626
5.28003
6.04152
6.33555
0.671131
1.155
1.40963
1.84374
2.23185
2.40019
2.98335
4.47625
5.24046
4.65664
0.887739
1.10502
1.25074
1.41588
1.46596
1.37069
1.94386
4.02135
4.56067
2.71992
2.08435
0.539629
1.04619
0.674505
0.711866
0.766287
0.62872
0.296859
0.0662731
0.358034
1.62264
0.242466
0.848092
0.523254
0.615987
0.684225
0.583236
0.352787
0.271086
0.491543
1.32822
0.0483909
0.619466
0.384156
0.522409
0.598153
0.546166
0.456936
0.474903
0.594605
1.08438
0.0188261
0.365315
0.271549
0.429726
0.507448
0.543444
0.621588
0.725925
0.759037
0.829292
0.102384
0.17504
0.187029
0.340554
0.423899
0.588813
0.79152
0.956349
0.970439
0.615869
0.165379
0.034841
0.113425
0.254027
0.362884
0.668462
0.945301
1.16123
1.20553
0.442973
0.199654
0.0550656
0.0139135
0.174881
0.335203
0.745468
1.06882
1.33765
1.44666
0.31034
0.191273
0.0702182
0.0204331
0.0790904
0.329954
0.793787
1.1657
1.49524
1.68707
0.211992
0.168306
0.0696712
0.0307115
0.0248318
0.316084
0.813718
1.2469
1.64127
1.91958
0.141854
0.144573
0.0652844
0.0277421
0.012837
0.29039
0.820944
1.32568
1.77728
2.14486
9.33648
6.76981
2.67339
1.73707
1.24708
1.15371
0.99453
0.7993
0.80315
2.03442
8.21077
4.63542
2.21937
1.45681
1.11868
1.06565
0.915032
0.665878
0.533426
1.39892
6.11942
3.06269
1.78705
1.25153
1.01591
0.997146
0.850183
0.572641
0.333135
0.74048
4.13083
1.87359
1.49378
1.04621
0.911493
0.925104
0.787355
0.49544
0.232722
0.221846
2.83112
1.06085
1.23779
0.847637
0.80704
0.840109
0.689402
0.3581
0.0445583
0.396366
3.54754
4.58834
5.76207
6.87235
7.77946
8.43794
8.8733
9.14103
9.28994
9.35439
2.78034
3.84009
4.95117
6.10667
7.13481
7.94066
8.5112
8.88079
9.09537
9.19213
1.92767
3.07095
4.16108
5.36552
6.51254
7.45969
8.15987
8.62592
8.89978
9.02344
1.05207
2.20087
3.28007
4.54558
5.80901
6.903
7.74598
8.32036
8.66148
8.81577
0.299101
0.958918
2.06162
3.33588
4.78404
6.10796
7.1746
7.92414
8.37838
8.58683
)
;

boundaryField
{
    left
    {
        type            calculated;
        value           nonuniform List<scalar> 
35
(
0.291922
0.569543
0.99684
1.63307
2.52804
3.69336
5.06237
6.47558
8.15843
9.44178
0.195848
0.123998
0.0819519
0.0597448
0.0492756
0.045727
0.0478536
0.0588604
0.089231
0.152516
4.93229
4.05719
3.22773
2.50686
1.90984
1.41436
1.01372
0.704073
0.473369
0.308314
9.61571
8.97915
7.92235
6.8482
5.85941
)
;
    }
    right
    {
        type            calculated;
        value           nonuniform List<scalar> 
35
(
1.17526
1.10999
1.0533
0.989664
0.922791
0.853265
0.780889
0.703616
0.621899
0.535501
0.445643
0.350205
0.254212
0.150801
0.0329739
0.0102631
0.0100183
0.0100153
0.010014
0.0100149
0.0100179
0.0100232
0.0100302
0.0100279
0.0101316
0.0513084
0.280728
0.42841
0.561957
0.67819
0.775237
0.857189
0.926112
0.980629
1.0345
)
;
    }
    down
    {
        type            calculated;
        value           nonuniform List<scalar> 
40
(
9.45423
7.26569
2.90326
1.82463
1.28621
1.18305
1.02199
0.841596
0.90404
2.26144
3.83259
4.88155
6.03275
7.0917
7.94365
8.55429
8.95392
9.19882
9.33528
9.39454
9.39445
9.335
9.1983
8.95306
8.55298
7.94175
7.08884
6.02761
4.87218
3.81814
2.23176
0.847752
0.765047
0.997583
1.22553
1.30948
1.29627
1.25737
1.22007
1.19579
)
;
    }
    up
    {
        type            calculated;
        value           nonuniform List<scalar> 
40
(
9.03402
7.80857
6.16773
4.39785
3.05135
2.16681
1.61256
1.28529
1.13386
1.05199
9.72926
9.72304
9.71044
9.69064
9.66233
9.62376
9.57261
9.50584
9.42073
9.3281
9.33486
9.4264
9.51027
9.57614
9.62658
9.66456
9.69235
9.71166
9.72377
9.7295
9.27063
7.09723
3.25917
2.22081
2.31132
3.07174
4.37405
6.15421
7.81383
9.04469
)
;
    }
    cylinder
    {
        type            calculated;
        value           nonuniform List<scalar> 
80
(
1.87597
4.46795
5.49161
5.75583
6.29576
7.08811
7.86161
8.475
8.91264
9.21301
9.44587
9.61875
9.72984
9.79831
9.84097
9.86847
9.88651
9.89818
9.90523
9.9087
9.50055
9.65072
9.7491
9.81051
9.84903
9.87391
9.89018
9.90056
9.90658
9.90914
5.16909
6.18126
6.18997
6.29321
6.81807
7.51852
8.17331
8.6853
9.05065
9.30265
0.997631
0.473626
0.265347
0.184005
0.161109
0.166474
0.083396
0.0413885
0.726011
2.27291
9.59423
9.55563
9.46715
9.30148
9.00927
8.51068
7.68555
6.36656
4.38968
2.24309
9.59413
9.55531
9.46653
9.3004
9.00739
8.50744
7.67954
6.3535
4.35789
2.19238
0.954214
0.443404
0.245145
0.171496
0.151148
0.166712
0.162909
0.0853995
0.0430965
0.697085
)
;
    }
    defaultFaces
    {
        type            empty;
    }
}


// ************************************************************************* //
