/*--------------------------------*- C++ -*----------------------------------*\
  =========                 |
  \\      /  F ield         | OpenFOAM: The Open Source CFD Toolbox
   \\    /   O peration     | Website:  https://openfoam.org
    \\  /    A nd           | Version:  13
     \\/     M anipulation  |
\*---------------------------------------------------------------------------*/
FoamFile
{
    format      ascii;
    class       volScalarField;
    location    "4.25";
    object      p;
}
// * * * * * * * * * * * * * * * * * * * * * * * * * * * * * * * * * * * * * //

dimensions      [0 2 -2 0 0 0 0];

internalField   nonuniform List<scalar> 
440
(
-0.953993
-0.925659
-0.927423
-0.880151
-0.97491
-1.02357
-1.00519
-0.984134
-0.954778
-0.933375
-1.15131
-1.11956
-1.08647
-1.04712
-1.00257
-1.28847
-1.2395
-1.16223
-1.07256
-0.984699
-1.38965
-1.32621
-1.19102
-1.05273
-0.928111
-0.939923
-0.955087
-0.983623
-1.02033
-1.05718
-0.953606
-0.959188
-0.977024
-1.00537
-1.03634
-0.998745
-0.994443
-1.0012
-1.01986
-1.03523
-0.991179
-0.978105
-0.971981
-0.974213
-0.988072
-0.946848
-0.923706
-0.897673
-0.868256
-0.884391
-1.22136
-0.868305
-0.470308
-0.0861322
0.0340456
-1.27243
-1.01616
-0.499053
-0.101856
0.0337557
-1.29177
-1.15707
-0.524665
-0.120766
0.0234379
-1.19976
-1.26575
-0.555315
-0.139454
0.00789002
-1.03677
-1.33844
-0.590181
-0.166418
-0.00453523
-0.832641
-1.29005
-0.566948
-0.186103
-0.0255294
-0.692987
-1.03104
-0.534745
-0.210604
-0.0532801
-0.611729
-0.801772
-0.570834
-0.283514
-0.0777619
-0.522827
-0.652544
-0.569129
-0.318328
-0.0921756
-0.42847
-0.540525
-0.567776
-0.355083
-0.102757
-0.717643
-0.82408
-0.96664
-1.10076
-1.15572
-0.505401
-0.629374
-0.705724
-0.75802
-0.75925
-0.359576
-0.466853
-0.529035
-0.574993
-0.608895
-0.276374
-0.370145
-0.438328
-0.481484
-0.515575
-0.236711
-0.330386
-0.400873
-0.437296
-0.45367
0.586689
0.437063
0.244862
0.0380023
-0.177192
0.1818
0.0244482
-0.161781
-0.369764
-0.600294
-0.197568
-0.352902
-0.547749
-0.761839
-0.981255
-0.553975
-0.708746
-0.897966
-1.09571
-1.26287
-0.778779
-0.929399
-1.10496
-1.28301
-1.39196
1.65599
1.68291
1.70621
1.71638
1.71023
1.45727
1.47361
1.48328
1.477
1.44969
1.22977
1.21505
1.17569
1.1155
1.03116
0.976482
0.945571
0.878759
0.782225
0.661823
0.76901
0.664682
0.52957
0.38186
0.204373
1.43884
1.42712
1.44141
1.52611
1.5593
1.42897
1.41853
1.41939
1.51471
1.46275
1.41966
1.40565
1.3985
1.48946
1.33291
1.41102
1.39173
1.37753
1.43661
1.14346
1.40324
1.37849
1.35718
1.40376
0.941266
1.39559
1.35478
1.32918
1.28967
0.722687
1.38762
1.33122
1.32872
1.17661
0.903419
1.39265
1.31491
1.31545
1.13464
0.978866
1.38684
1.28976
1.31909
1.0726
1.03297
1.42051
1.28793
1.31597
1.03325
1.06706
0.580235
0.285829
-0.0496113
-0.353151
-0.554701
0.463466
0.254747
0.0260934
-0.181309
-0.368872
0.433214
0.25121
0.0806944
-0.0757096
-0.233257
0.489528
0.295353
0.133189
-0.0138196
-0.152098
0.523789
0.32549
0.163925
0.0198823
-0.113518
-1.63988
-1.50644
-1.35238
-1.22234
-1.14501
-1.71005
-1.64084
-1.52134
-1.41971
-1.3572
-1.62588
-1.57408
-1.50716
-1.45332
-1.42032
-1.48288
-1.44027
-1.40678
-1.38108
-1.36108
-1.38026
-1.35784
-1.34438
-1.33049
-1.31802
-1.31891
-1.30483
-1.30122
-1.29469
-1.2587
-1.27933
-1.26713
-1.27048
-1.27452
-1.27423
-1.26916
-1.27324
-1.28439
-1.30175
-1.32397
-1.17242
-1.187
-1.21501
-1.25439
-1.29196
-1.03405
-1.04811
-1.07729
-1.11522
-1.14913
-1.22699
-0.586034
-0.268384
-0.0711761
-0.0110616
-1.21088
-0.518774
-0.22484
-0.0578686
-0.00382292
-1.17184
-0.538089
-0.231265
-0.0421831
0.00460717
-1.16309
-0.605642
-0.303171
-0.0433728
0.0131609
-1.16426
-0.704984
-0.401974
-0.0582518
0.0242109
-0.93582
-0.728273
-0.382908
-0.104548
-0.0160054
-1.14445
-0.670398
-0.316402
-0.083694
-0.00874333
-1.09452
-1.33136
-1.39595
-1.3586
-1.18348
-1.11601
-1.33337
-1.40656
-1.34087
-1.29868
1.35102
1.33102
1.29574
1.247
1.18152
1.53492
1.5547
1.56191
1.55485
1.5338
1.68458
1.71635
1.74267
1.75828
1.76021
1.76722
1.80368
1.843
1.87522
1.89049
1.75369
1.78557
1.82043
1.84797
1.8597
-0.713082
-0.808483
-0.959398
-1.13708
-1.34539
-0.129182
-0.253435
-0.419801
-0.616048
-0.863313
0.392659
0.263105
0.109228
-0.0695205
-0.291862
0.816097
0.71604
0.59404
0.447386
0.272782
1.15304
1.08373
0.995172
0.888891
0.763474
1.49609
1.46011
1.48773
1.49372
1.49208
1.48208
1.45475
1.48446
1.51066
1.54969
1.47051
1.44974
1.4803
1.53019
1.61782
1.45938
1.44343
1.4718
1.53708
1.62644
1.44875
1.4371
1.45739
1.53923
1.61255
1.54891
1.46949
1.47757
1.42444
1.35649
1.50591
1.45779
1.47458
1.44258
1.3785
1.03667
0.821505
0.446712
-0.0902909
-0.68553
1.12119
0.852963
0.463559
-0.0704721
-0.676467
)
;

boundaryField
{
    left
    {
        type            zeroGradient;
    }
    right
    {
        type            fixedValue;
        value           uniform 0;
    }
    down
    {
        type            zeroGradient;
    }
    up
    {
        type            zeroGradient;
    }
    cylinder
    {
        type            zeroGradient;
    }
    defaultFaces
    {
        type            empty;
    }
}


// ************************************************************************* //
