/*--------------------------------*- C++ -*----------------------------------*\
  =========                 |
  \\      /  F ield         | OpenFOAM: The Open Source CFD Toolbox
   \\    /   O peration     | Website:  https://openfoam.org
    \\  /    A nd           | Version:  13
     \\/     M anipulation  |
\*---------------------------------------------------------------------------*/
FoamFile
{
    format      ascii;
    class       surfaceScalarField;
    location    "1.51";
    object      phi;
}
// * * * * * * * * * * * * * * * * * * * * * * * * * * * * * * * * * * * * * //

dimensions      [0 3 -1 0 0 0 0];

internalField   nonuniform List<scalar> 
823
(
0.017466
0.0234005
-0.0408665
0.0795517
-0.0390935
-0.0229921
0.170257
-0.148875
0.0581703
0.259606
-0.240212
0.150863
-0.301332
0.233787
0.32715
0.0278171
-0.00441662
0.113268
-0.124544
0.209114
-0.244721
0.2871
-0.318198
-0.355336
0.341104
0.0431099
-0.0475265
0.131783
-0.213217
0.205279
-0.318218
0.2503
-0.363218
-0.375796
0.27076
0.0543546
-0.101881
0.123994
-0.282856
0.167587
-0.361812
0.188864
-0.384495
-0.387812
0.20088
0.0498125
-0.151694
0.0928433
-0.325887
0.111055
-0.380024
0.115527
-0.388967
0.113455
-0.38574
-0.0291482
0.0400252
-0.010877
-0.0648601
0.0422593
-0.00654738
-0.0875326
0.01696
0.00571244
-0.0910527
-0.0156481
0.0191682
-0.0449585
-0.0753443
0.0292501
-0.020951
0.0609762
-0.048936
0.0702443
-0.0672346
0.0352586
-0.0685291
-0.0143536
-0.067371
-0.0461166
-0.00485636
0.0658325
-0.0134272
0.0788152
-0.0153548
0.0371861
-0.00312514
-0.0265832
-0.102188
0.0316918
0.0105797
0.0552529
0.028697
0.0606979
0.0597989
0.00608419
0.106596
-0.0733803
-0.166636
0.171044
0.0143864
0.0520921
0.116347
0.193829
0.26098
0.199248
-0.60297
0.328378
0.334046
-0.380768
0.245969
0.388013
-0.207319
0.153353
0.405586
-0.121169
0.103596
-0.0468747
0.0467329
0.179001
-0.828087
0.328295
-0.530062
0.386937
-0.265961
0.406363
-0.140596
-0.0487439
0.193115
-0.98951
0.323388
-0.660335
0.383802
-0.326375
0.405881
-0.162675
-0.0540911
0.247064
-1.06553
0.330486
-0.743757
0.380972
-0.376861
0.404545
-0.186248
-0.0642513
0.308963
-1.11351
0.34776
-0.782554
0.38193
-0.411031
0.403679
-0.207997
-0.0796739
1.03462
-0.916269
-1.23187
0.827716
-0.575644
0.71685
-0.300165
0.666957
-0.158104
-0.0635692
0.973032
-0.636181
-1.25312
0.791037
-0.393649
0.706748
-0.215876
0.66722
-0.118576
-0.0483185
0.987344
-0.406465
-1.21706
0.823045
-0.229351
0.727633
-0.120464
0.676471
-0.0674142
-0.0285179
0.947854
-0.187327
-1.16699
0.79638
-0.0778771
0.708228
-0.0323114
0.660751
-0.0199371
-0.00969918
0.619498
-0.806825
0.541621
0.509309
0.489372
1.05656
0.0620462
-1.00516
1.08687
0.170576
1.168
0.18963
1.2052
0.303903
0.30048
0.978229
0.0275331
-0.943716
1.02783
0.12098
1.08709
0.130364
1.17825
0.212745
0.225609
0.936977
0.00847827
-0.917923
0.990232
0.0677246
1.04341
0.0771908
1.12936
0.126787
0.137914
0.890117
-0.00508723
-0.876551
0.938786
0.0190558
0.992895
0.0230815
1.07527
0.0444072
0.046197
0.674084
-0.679171
0.693139
0.716221
0.760628
0.117083
0.29276
-0.24883
-0.161012
0.0776069
0.300396
-0.26092
0.0425134
0.310533
-0.275439
0.013539
0.302729
-0.273754
0.197182
-0.183643
0.105309
0.329257
-0.141806
0.0703953
0.33531
0.0373483
0.34358
0.0105224
0.329555
0.207704
0.0647748
0.356442
-0.0919603
0.0372396
0.362845
0.0127047
0.368115
-0.00320362
0.345463
0.2045
0.017284
0.376802
-0.0376436
-0.00290626
0.383035
-0.016799
0.382008
-0.0172103
0.345874
0.18729
-0.0516361
0.0426979
-0.0575681
-0.055584
-0.0355965
0.18455
0.0994125
-0.233199
-0.0507631
0.134939
0.103549
-0.0539377
0.0842279
0.108416
-0.0577054
0.0344794
0.109365
-0.0596169
0.078713
-0.0442336
0.188587
0.144817
-0.233992
0.141655
0.150481
0.0909503
0.159121
0.0382673
0.162048
0.11698
0.15138
0.188075
-0.194639
0.109035
0.192826
0.0664247
0.201731
0.0254985
0.202975
0.142479
0.144502
0.222687
-0.179113
0.105999
0.231329
0.0642235
0.243507
0.0242188
0.242979
0.166698
0.109244
-0.135388
0.0796528
0.04772
0.016945
0.411004
0.0259166
-0.0409414
0.416547
0.0842341
-0.0897771
0.409112
0.16592
-0.158485
0.371001
0.222679
-0.184567
0.452601
-0.3148
0.408274
0.0136222
0.411539
0.0809691
0.400868
0.176592
0.366119
0.257427
0.584729
0.403286
0.00631579
0.403145
0.0811102
0.384039
0.195697
0.359969
0.281497
0.750059
0.396749
0.00554605
0.389107
0.0887527
0.368337
0.216467
0.33615
0.313684
0.907096
0.388363
0.0131626
0.373118
0.103998
0.338903
0.250682
0.311913
0.340674
1.08362
0.617903
-0.000719797
0.633331
0.0885697
0.669972
0.214041
0.754644
0.256002
0.880998
0.957268
0.620357
-0.0170559
0.64518
0.0637461
0.702521
0.156699
0.764797
0.193726
0.678559
0.967237
0.622846
-0.0358812
0.659168
0.0274234
0.718392
0.0974753
0.775606
0.136513
0.445073
1.00909
0.62019
-0.0520505
0.661147
-0.0135342
0.718317
0.0403054
0.787139
0.0676916
0.210951
1.02126
0.55197
0.538436
0.578741
0.646433
0.857384
0.975451
-0.179196
0.976477
-0.142832
0.973131
-0.0886139
0.990514
-0.0550268
0.0280565
0.945917
-0.157877
0.933829
-0.130743
0.923791
-0.0785759
0.929344
-0.06058
0.0136849
0.962144
-0.110929
0.930617
-0.0992164
0.914204
-0.0621627
0.903771
-0.0501469
-0.00046664
0.962522
-0.0521915
0.912875
-0.0495688
0.886377
-0.0356646
0.867199
-0.0309696
-0.00981872
0.805193
0.755624
0.719959
0.688989
0.0515548
0.153132
-0.204687
0.0749411
0.337854
-0.361241
0.0733757
0.393809
-0.392244
0.0640195
0.398232
-0.388875
0.368176
0.0526153
-0.356771
0.0802632
0.0728686
0.155125
0.262992
0.189949
0.358985
0.196008
0.392173
0.38485
0.179333
0.0658386
0.00703002
0.190926
0.137905
0.286613
0.263298
0.341038
0.337747
0.389552
0.336336
0.0299299
-0.0228999
0.147947
0.019888
0.287654
0.123591
0.422774
0.202627
0.306041
0.506286
0.010645
-0.0335449
0.0806457
-0.0501128
0.205337
-0.00110054
0.35555
0.0524141
0.181217
0.480374
0.0236544
-0.0571993
0.0690416
-0.0955001
0.143079
-0.0751382
0.235035
-0.0395421
0.0724686
0.343783
0.0177975
-0.0749968
0.0314084
-0.109111
0.0461997
-0.0899294
0.0573158
-0.0506582
0.019484
0.1103
-0.0204919
-0.0545049
-0.0548723
-0.0747306
-0.0838603
-0.0609414
-0.099658
-0.0348605
-0.00190089
-0.0782731
-0.0337651
-0.0207398
-0.0768825
-0.0316132
-0.107273
-0.030551
-0.118299
-0.0238348
-0.0151873
-0.105012
-0.0316168
-0.0697773
-0.0946158
-0.0992824
-0.0852196
0.369083
0.561905
-0.587205
0.334867
0.285185
-0.250969
0.349356
0.0769907
-0.0914792
0.377767
-0.0127542
-0.0156566
-0.0235583
0.00293446
0.192617
0.479588
0.295999
0.181803
0.358002
0.0149876
0.387664
-0.0424157
-0.0365219
0.142224
0.259091
0.308015
0.0160123
0.369819
-0.046816
0.39396
-0.0665571
-0.0436263
0.184393
-0.0303147
0.324732
-0.124327
0.379802
-0.101886
0.399457
-0.0862121
-0.046357
0.212843
0.334486
0.385952
0.403336
0.231581
0.366823
-0.598403
0.251347
-0.0197661
0.307949
-0.0566023
0.337266
-0.0293175
-0.0087679
0.977515
-1.1979
0.70678
0.558698
0.513724
0.0892032
-0.0139032
-0.0753
0.14824
-0.059037
0.240979
-0.0927388
0.423182
-0.182203
-0.175221
0.204767
-0.166055
0.325063
0.568661
0.892743
0.139718
-0.131348
0.162942
-0.171312
0.107087
-0.137344
0.169975
0.0700668
-0.144871
0.181891
0.029077
-0.144078
0.185068
-0.0993666
0.128444
0.186549
-0.093401
-0.224496
0.142694
-0.0934887
0.0915527
-0.0937292
0.038353
-0.0908784
-0.0610137
0.168747
-0.0443577
-0.217791
0.120023
-0.0447648
0.0727219
-0.0464278
0.028823
-0.0469795
-0.0321906
0.192117
0.0030297
-0.239504
0.14304
0.00431219
0.0912502
0.0053616
0.0381806
0.00609011
0.00598997
0.19374
-0.241473
0.144114
0.0917705
0.0382437
0.0503017
-0.333652
-0.0734211
0.0208298
-0.359403
-0.00447572
-0.366938
-0.0161577
-0.349559
-0.220844
0.134445
-0.299919
-0.168178
0.0895371
-0.314496
0.0443824
-0.321783
0.00999934
-0.315176
-0.210845
0.157789
-0.254554
-0.203155
0.10955
-0.266256
0.0640196
-0.276253
0.0233345
-0.27449
-0.18751
0.172299
-0.213857
-0.212996
0.12594
-0.219896
0.0779061
-0.22822
0.0315332
-0.228117
-0.155977
0.166834
-0.217749
0.116912
0.0705833
0.0275337
0.3919
0.0826322
-0.0785524
0.377103
0.101372
-0.0865749
0.333383
0.0833429
-0.0396235
0.305501
0.0353589
-0.00747688
-0.17479
0.30898
0.399689
0.0789227
0.395735
0.105326
0.365403
0.113674
0.330391
0.070371
-0.0688951
0.405168
0.069734
0.408712
0.101783
0.384333
0.138053
0.350394
0.10431
0.0637084
0.409372
0.0563417
0.41507
0.0960844
0.402302
0.150821
0.362803
0.14381
0.187007
0.41138
0.417687
0.410023
0.369266
0.429142
0.080909
0.360078
0.0690644
0.334572
0.0255053
0.342472
-0.00789994
-0.161099
0.503572
0.512408
0.494897
0.480779
0.465402
0.613282
0.397365
0.106206
0.302382
0.0949837
0.197197
0.105185
0.111736
0.0854607
0.036436
0.501739
0.383727
0.285757
0.20304
)
;

boundaryField
{
    left
    {
        type            calculated;
        value           nonuniform List<scalar> 
17
(
-0.60402
-0.60402
-0.60402
-0.60402
-0.60402
-0.39598
-0.39598
-0.39598
-0.39598
-0.39598
-0.39598
-0.39598
-0.39598
-0.39598
-0.39598
-0.510051
-0.510051
)
;
    }
    right
    {
        type            calculated;
        value           nonuniform List<scalar> 
17
(
0.346034
0.507891
0.398391
0.400627
0.401065
0.402188
0.403712
0.405728
0.408232
0.411228
0.414705
0.419101
0.650852
0.65197
0.656671
0.641932
0.479673
)
;
    }
    down
    {
        type            calculated;
        value           uniform 0;
    }
    up
    {
        type            calculated;
        value           uniform 0;
    }
    cylinder
    {
        type            calculated;
        value           uniform 0;
    }
    defaultFaces
    {
        type            empty;
    }
}


// ************************************************************************* //
