/*--------------------------------*- C++ -*----------------------------------*\
  =========                 |
  \\      /  F ield         | OpenFOAM: The Open Source CFD Toolbox
   \\    /   O peration     | Website:  https://openfoam.org
    \\  /    A nd           | Version:  13
     \\/     M anipulation  |
\*---------------------------------------------------------------------------*/
FoamFile
{
    format      ascii;
    class       volVectorField;
    location    "1.255";
    object      U;
}
// * * * * * * * * * * * * * * * * * * * * * * * * * * * * * * * * * * * * * //

dimensions      [0 1 -1 0 0 0 0];

internalField   nonuniform List<vector> 
440
(
(-0.142956 0.134563 -9.09001e-20)
(0.239716 -0.0585387 -2.62464e-20)
(0.907179 -0.351723 2.69647e-19)
(1.46389 -0.564686 -9.61256e-19)
(1.78055 -0.699368 2.10647e-20)
(-0.0283736 0.0188324 9.91555e-20)
(0.69062 -0.203968 -2.35949e-19)
(1.46857 -0.395683 -3.48499e-19)
(1.94543 -0.493125 1.11124e-19)
(2.1879 -0.563173 4.6655e-20)
(0.201251 -0.0799392 6.45917e-20)
(1.2453 -0.232876 1.49016e-18)
(1.95951 -0.320104 -1.45669e-18)
(2.2817 -0.362347 -4.35326e-18)
(2.3624 -0.368782 1.74978e-18)
(0.541865 -0.0959563 -2.0061e-19)
(1.7194 -0.122268 -1.01619e-18)
(2.26341 -0.142915 3.2139e-18)
(2.42014 -0.150654 3.40804e-18)
(2.42635 -0.172175 -9.33843e-19)
(0.889618 -0.00120888 -4.61755e-19)
(2.01844 0.0697584 -9.681e-19)
(2.38972 0.0800666 2.83848e-18)
(2.45273 0.0542354 2.84056e-18)
(2.42324 0.0334572 9.30389e-19)
(-0.0380873 0.115179 1.02694e-19)
(-0.139788 0.0752785 -7.05258e-20)
(-0.169901 -0.0507928 2.51051e-19)
(-0.148283 -0.189413 -9.59922e-20)
(-0.0726415 -0.30773 -1.04645e-18)
(-0.0793081 0.251902 1.75771e-20)
(-0.152828 0.208515 -8.90532e-21)
(-0.122823 -0.0103643 1.01725e-19)
(-0.0470896 -0.264939 7.38823e-20)
(0.101096 -0.492656 -5.50359e-20)
(-0.134841 0.322255 -5.68769e-19)
(-0.156751 0.279295 -9.52974e-20)
(-0.0155453 -0.000404107 -2.79645e-19)
(0.166541 -0.335691 1.13925e-18)
(0.441918 -0.638815 -3.24975e-20)
(-0.175558 0.308411 -8.3599e-20)
(-0.124934 0.246426 6.14644e-20)
(0.161106 -0.0726593 -2.84164e-19)
(0.494487 -0.431434 -9.38075e-19)
(0.908547 -0.736628 3.08062e-19)
(-0.181936 0.235708 1.24267e-19)
(-0.014446 0.116706 9.79455e-20)
(0.456611 -0.217454 -3.27599e-20)
(0.939226 -0.532094 4.79083e-19)
(1.38266 -0.760673 1.84342e-18)
(0.349186 -0.320704 -1.61879e-19)
(0.81631 -0.18044 5.42886e-20)
(0.924474 -0.107909 1.137e-20)
(0.989032 -0.0678735 -2.23503e-20)
(1.02119 -0.0286955 -4.87761e-21)
(0.348795 -0.493287 7.39413e-19)
(0.840865 -0.258105 -1.0358e-20)
(0.941632 -0.140024 5.6123e-21)
(1.00031 -0.080639 1.92928e-20)
(1.02698 -0.0328222 1.00814e-20)
(0.471746 -0.613488 2.69824e-19)
(0.883596 -0.336827 9.37757e-20)
(0.967363 -0.171251 -4.55332e-21)
(1.01454 -0.0919614 2.88959e-20)
(1.03364 -0.0362369 -3.13276e-21)
(0.779866 -0.67898 -5.00303e-19)
(0.963488 -0.401571 -4.95212e-20)
(1.00479 -0.199148 -2.07542e-20)
(1.0319 -0.10133 -2.38309e-20)
(1.04092 -0.0386476 5.67563e-21)
(1.18811 -0.689426 -1.34083e-19)
(1.10315 -0.43256 -1.74747e-19)
(1.06343 -0.217381 0)
(1.05559 -0.108301 2.59857e-20)
(1.04937 -0.0402659 4.13914e-21)
(1.73614 -0.638806 -5.4213e-20)
(1.35021 -0.409909 8.32644e-20)
(1.1732 -0.208043 -1.25937e-21)
(1.10103 -0.102624 1.79603e-20)
(1.06452 -0.0381119 -1.49357e-20)
(1.69173 -0.412132 5.63188e-20)
(1.31316 -0.241295 -4.36193e-20)
(1.16874 -0.130672 -1.84729e-21)
(1.10776 -0.0721837 -3.44548e-20)
(1.06963 -0.0286762 0)
(1.72012 -0.296659 -1.06238e-19)
(1.37194 -0.183223 7.32061e-21)
(1.20568 -0.102376 -2.87164e-20)
(1.12777 -0.0549042 1.1893e-20)
(1.07691 -0.0211844 -6.17952e-21)
(1.68851 -0.1619 -4.89756e-20)
(1.35264 -0.0804317 1.95113e-20)
(1.18712 -0.0431623 -6.36603e-21)
(1.11214 -0.0258783 -4.24272e-35)
(1.06158 -0.0109137 1.92181e-22)
(1.17315 -0.0262118 1.77907e-20)
(0.97333 -0.00676325 -6.62785e-21)
(0.898753 -0.00371512 2.2367e-21)
(0.862718 -0.00310106 -3.10073e-21)
(0.831724 -0.00147574 1.40976e-21)
(2.25192 -0.0235549 -1.12627e-18)
(2.33797 -0.135678 -1.3895e-18)
(2.23114 -0.373673 1.38666e-18)
(2.26888 -0.427716 -1.81797e-19)
(2.00379 -0.722938 -1.08623e-19)
(2.10287 -0.050587 3.0311e-20)
(2.15567 -0.0536364 -3.75188e-20)
(2.12013 -0.266317 -8.93957e-20)
(2.0994 -0.233553 -1.66628e-19)
(2.05796 -0.46702 2.51259e-21)
(2.0297 -0.0612567 6.09917e-20)
(2.04543 -0.0521866 1.03819e-19)
(2.04225 -0.194516 -1.45772e-19)
(1.99081 -0.169873 4.13451e-20)
(1.97895 -0.301908 7.89335e-20)
(1.93823 -0.0532636 1.05431e-19)
(1.93384 -0.0519223 8.86032e-20)
(1.94548 -0.128001 -1.3115e-20)
(1.88871 -0.117225 3.65471e-20)
(1.90428 -0.187794 3.94927e-21)
(1.49972 -0.0334127 1.50129e-19)
(1.46411 -0.0320365 -1.17647e-20)
(1.43826 -0.0449453 2.13182e-20)
(1.37269 -0.0367941 -6.35446e-21)
(1.36188 -0.0522824 2.70609e-20)
(1.48949 0.829276 1.06936e-18)
(1.46351 0.919766 -3.03665e-19)
(1.46697 1.03689 -1.22014e-18)
(1.40003 1.07363 6.83608e-19)
(0.870062 0.781816 -1.81268e-19)
(1.77168 0.719523 -5.54143e-19)
(1.76427 0.808961 -2.89761e-18)
(1.77627 0.920526 -1.12662e-18)
(1.70203 0.949303 -4.14372e-19)
(1.05677 0.688781 -6.70835e-19)
(2.04147 0.6155 7.8882e-19)
(2.04088 0.688144 1.99079e-19)
(2.04888 0.779618 -2.28433e-18)
(1.94181 0.773933 -6.71284e-19)
(1.18021 0.539276 5.35089e-19)
(2.22257 0.438292 2.46204e-18)
(2.2531 0.494926 1.8348e-18)
(2.26395 0.565564 -2.15567e-18)
(2.10484 0.549743 -1.71761e-18)
(1.21357 0.35764 -3.46503e-19)
(2.36231 0.256278 1.25931e-18)
(2.3923 0.294279 -9.40808e-19)
(2.3801 0.331635 6.81699e-19)
(2.13354 0.308121 6.25511e-19)
(1.12019 0.167161 -6.06611e-19)
(0.52423 0.398162 -5.1118e-19)
(0.44514 0.428086 -4.16514e-19)
(0.340153 0.459901 5.61785e-20)
(0.21447 0.472881 -1.69912e-20)
(0.0547523 0.350384 7.86965e-20)
(0.648351 0.573848 1.6027e-19)
(0.581367 0.624761 -2.60406e-19)
(0.489849 0.686728 1.8198e-19)
(0.367487 0.736132 -8.31402e-20)
(0.159072 0.564164 1.16485e-19)
(0.756591 0.763412 1.7414e-19)
(0.691254 0.835125 4.38236e-19)
(0.628857 0.922076 4.68305e-20)
(0.539638 0.969247 -2.68449e-19)
(0.295934 0.723865 2.11128e-19)
(0.992092 0.84942 2.42175e-19)
(0.945381 0.93208 -6.41866e-19)
(0.896787 1.02574 -1.77602e-18)
(0.813522 1.07846 7.11897e-19)
(0.481865 0.801517 -1.83677e-19)
(1.14571 0.87348 -1.40272e-19)
(1.15146 0.981434 -2.14958e-19)
(1.15743 1.08931 -3.03854e-19)
(1.09815 1.12987 -3.50025e-19)
(0.676962 0.827226 -5.85571e-21)
(0.850206 0.0252837 -1.06816e-19)
(1.12785 0.0617007 -4.01962e-20)
(0.944746 0.104572 -3.06688e-21)
(0.957893 0.133739 -3.57511e-19)
(0.808343 0.252106 2.95829e-19)
(0.849753 0.0200612 7.75057e-20)
(1.12837 0.0644363 1.3548e-19)
(0.954405 0.114083 1.32043e-19)
(0.972452 0.167582 5.75892e-20)
(0.891816 0.33439 -2.3303e-20)
(0.84967 0.0156285 1.04154e-19)
(1.12732 0.065745 -4.72245e-21)
(0.97003 0.12502 -1.8903e-21)
(0.97879 0.186743 1.6352e-19)
(1.04666 0.450703 -4.8126e-19)
(0.849207 0.0119973 -2.79117e-21)
(1.12723 0.0658794 -1.70346e-19)
(0.980707 0.134345 -6.57947e-20)
(1.02309 0.200066 -4.32357e-19)
(1.13798 0.508857 1.11187e-19)
(0.847146 0.0102914 -2.48886e-20)
(1.12883 0.0663554 4.41457e-20)
(0.995707 0.14193 3.15176e-20)
(1.03932 0.22196 4.79687e-19)
(1.35594 0.626081 -4.72784e-19)
(0.835429 0.00735138 -1.57238e-20)
(1.1499 0.0608477 8.07612e-20)
(1.00164 0.141792 -9.33313e-20)
(1.17968 0.172307 8.48271e-19)
(1.31304 0.645241 -4.06005e-19)
(0.833139 -0.0046328 -3.19287e-21)
(1.1599 0.0487227 -7.69622e-20)
(1.03654 0.105529 4.17226e-21)
(1.21539 0.155267 -2.52576e-19)
(1.34436 0.473195 -6.96866e-22)
(0.832456 -0.0100969 -7.1107e-21)
(1.16899 0.0321803 1.11167e-35)
(1.07224 0.0769692 -4.42934e-20)
(1.21977 0.108336 8.59843e-20)
(1.41057 0.342276 1.60256e-19)
(0.831552 -0.0319269 6.86521e-21)
(1.16371 0.0032812 -1.72087e-20)
(1.08809 0.041525 1.67073e-20)
(1.20836 0.0707385 3.43537e-20)
(1.47389 0.201217 -2.52184e-19)
(0.791074 -0.0227789 -3.48649e-20)
(0.988713 -0.0131392 -1.89839e-21)
(0.88654 0.00971516 2.51828e-20)
(1.00628 0.0133628 -1.44302e-20)
(1.25101 0.0515962 -5.8917e-20)
(1.64884 0.655445 3.40634e-19)
(1.78788 0.556778 7.96687e-19)
(2.00545 0.488508 -1.11332e-18)
(2.10082 0.314003 4.17744e-20)
(2.26289 0.197121 4.61747e-19)
(1.6645 0.409667 4.14557e-20)
(1.75753 0.334318 9.66716e-19)
(1.91198 0.308019 1.05616e-19)
(1.97799 0.164402 -9.24252e-19)
(2.10241 0.131184 -2.94368e-19)
(1.69639 0.266964 -2.2161e-19)
(1.78358 0.206055 -1.53503e-19)
(1.88531 0.190442 1.58115e-19)
(1.94055 0.087728 -2.83854e-19)
(2.01035 0.0723581 2.52429e-19)
(1.69212 0.148373 3.57778e-19)
(1.76195 0.107043 -5.98835e-21)
(1.83262 0.0908446 2.16783e-19)
(1.87343 0.0305888 1.74378e-19)
(1.9125 0.0181632 -1.68584e-19)
(1.43797 0.0284534 -4.27168e-20)
(1.48854 0.012576 2.34404e-19)
(1.5189 0.00293417 1.01244e-19)
(1.52095 -0.0132439 -1.96694e-19)
(1.51226 -0.0173701 6.81531e-22)
(1.30433 -0.0369363 5.12879e-20)
(2.37775 -0.0213723 -4.81446e-19)
(2.61184 -0.0171667 1.306e-18)
(2.6145 0.0431674 5.95816e-19)
(2.39011 0.0396777 -3.84425e-19)
(0.842862 0.0900093 8.46701e-20)
(2.17091 0.101493 -5.02442e-19)
(2.60417 0.124033 -7.07197e-19)
(2.62907 0.121446 9.78989e-19)
(2.45818 0.153343 -7.33463e-19)
(0.218968 0.0762095 -5.51356e-20)
(1.57085 0.180293 5.31841e-19)
(2.35804 0.223771 9.67679e-20)
(2.68992 0.27288 8.81347e-19)
(2.6863 0.221063 4.639e-19)
(-0.102265 -0.0597405 2.38238e-19)
(0.63151 0.079247 1.97648e-19)
(1.62404 0.219361 -2.99651e-19)
(2.24149 0.285121 2.43671e-20)
(2.75725 0.381666 3.86857e-19)
(-0.19625 -0.192781 9.14553e-20)
(-0.0578821 -0.195126 -9.42867e-20)
(0.689611 0.00792499 5.9456e-20)
(1.34565 0.193077 -4.95496e-20)
(2.1347 0.414576 9.39071e-20)
(-0.231868 -0.33664 5.57983e-20)
(-0.275724 -0.472254 -3.05577e-20)
(0.103211 -0.333 -3.45615e-19)
(0.452528 -0.0673893 1.18707e-19)
(1.43372 0.320512 2.6187e-20)
(-0.247865 -0.457299 -1.11966e-19)
(-0.341837 -0.584498 1.24712e-19)
(-0.168316 -0.424765 3.1126e-19)
(0.00925987 -0.0850982 -2.61728e-19)
(0.593655 0.387783 -1.08164e-19)
(-0.186961 -0.405989 -1.62808e-19)
(-0.329194 -0.457047 -4.32958e-19)
(-0.323564 -0.262698 -6.95396e-20)
(-0.247581 0.000300592 -9.5727e-19)
(0.00153213 0.306318 7.93234e-19)
(-0.089994 -0.238227 -1.0805e-20)
(-0.232198 -0.271744 2.54551e-20)
(-0.280169 -0.178491 9.38737e-20)
(-0.258704 -0.0403752 1.01104e-18)
(-0.160797 0.106428 -1.25756e-19)
(-0.0378944 -0.0569163 3.71471e-21)
(-0.158297 -0.0915405 -1.71181e-20)
(-0.209895 -0.107501 1.59113e-20)
(-0.206378 -0.110061 -1.26646e-20)
(-0.15005 -0.102799 -3.64742e-19)
(1.21161 0.387704 2.09017e-19)
(0.966427 0.185819 2.26214e-19)
(0.923604 0.0589273 -5.48832e-21)
(0.9636 0.00520187 2.23307e-20)
(1.00271 -0.00371741 4.06317e-22)
(0.45069 0.428269 2.94587e-19)
(0.814868 0.130264 -2.52328e-20)
(0.904202 0.00849115 -3.57062e-20)
(0.970003 -0.0203627 1.91765e-21)
(1.00781 -0.0110185 -3.00416e-21)
(0.226988 0.306628 4.92149e-19)
(0.799923 0.0432218 -9.62216e-20)
(0.904624 -0.00799732 4.18859e-21)
(0.971079 -0.0247789 -1.75195e-20)
(1.00948 -0.0140363 4.64993e-21)
(0.303072 0.120297 -1.85066e-19)
(0.79563 -0.0450532 1.35221e-19)
(0.904859 -0.0489408 3.32964e-22)
(0.974496 -0.0418699 -1.32741e-21)
(1.01249 -0.0195192 -6.39832e-23)
(0.360832 -0.105857 -3.78186e-20)
(0.804107 -0.110687 -1.64378e-20)
(0.913338 -0.076136 6.83425e-21)
(0.98056 -0.0542113 5.44483e-21)
(1.01634 -0.0240732 -8.61654e-22)
(0.424677 -0.0299382 -7.94866e-20)
(0.526012 -0.107941 0)
(0.616157 -0.0503674 -1.30398e-20)
(0.682582 -0.0166062 2.94449e-20)
(0.714955 -0.00335795 -4.04455e-21)
(2.10618 0.368428 0)
(1.43979 0.0647379 0)
(1.08285 0.004202 6.58325e-20)
(0.995428 -0.00617353 8.87663e-21)
(0.989912 -0.00414797 1.33434e-21)
(0.71485 0.00599017 -9.73851e-20)
(0.895993 0.00389248 3.83463e-19)
(0.807131 0.0248694 6.19671e-20)
(1.03639 0.0242318 3.30835e-19)
(1.14546 0.194763 1.49465e-19)
(1.68614 0.0380861 9.72086e-20)
(1.98342 0.083347 4.6884e-19)
(1.98257 0.20192 -1.34245e-19)
(2.51069 0.172102 2.53072e-19)
(2.40704 0.467496 5.69872e-19)
(0.875377 -0.460763 3.95054e-20)
(0.871222 -0.554579 -1.6677e-19)
(0.87722 -0.661159 -1.52668e-19)
(0.816126 -0.735501 8.79344e-20)
(0.494777 -0.576219 1.20124e-19)
(0.821416 -0.370328 1.08194e-19)
(0.772709 -0.433884 2.20767e-19)
(0.697107 -0.502118 -3.99687e-20)
(0.574982 -0.561854 1.13923e-19)
(0.304666 -0.442594 3.67629e-20)
(0.604832 -0.25147 -1.10396e-19)
(0.51819 -0.29214 -3.72311e-20)
(0.424278 -0.345891 3.30812e-20)
(0.31766 -0.383008 -3.16315e-20)
(0.14045 -0.288755 -8.74704e-20)
(0.523914 -0.027732 -3.6723e-19)
(0.449375 -0.047888 -3.18795e-19)
(0.348677 -0.0812424 2.61919e-19)
(0.225698 -0.120062 1.70116e-19)
(0.0647144 -0.103963 1.26946e-20)
(0.493405 0.164772 -1.62339e-19)
(0.4153 0.169261 -1.61275e-19)
(0.307382 0.172833 -7.58905e-20)
(0.178573 0.174779 1.67806e-20)
(0.0274241 0.130732 1.19689e-20)
(2.20034 -0.00145081 7.99933e-19)
(2.39836 -0.0826073 3.01654e-19)
(2.46453 -0.169577 -7.77772e-19)
(2.33614 -0.20653 -1.69009e-18)
(1.43819 -0.206886 1.20373e-19)
(2.13668 -0.107843 1.39164e-18)
(2.22553 -0.21642 1.79566e-18)
(2.2183 -0.342899 1.50174e-19)
(2.12869 -0.410411 2.60295e-19)
(1.38274 -0.387835 -1.75668e-19)
(1.84314 -0.263379 -3.55453e-18)
(1.85608 -0.377823 3.97417e-19)
(1.86976 -0.506302 1.11377e-18)
(1.81778 -0.598649 -4.43822e-19)
(1.19167 -0.52759 7.06131e-19)
(1.56945 -0.389834 8.27861e-19)
(1.55431 -0.483856 -2.19292e-18)
(1.53191 -0.602803 -2.57035e-18)
(1.46993 -0.701291 8.10562e-19)
(0.951263 -0.592492 5.29623e-19)
(1.24733 -0.442943 1.85338e-19)
(1.18273 -0.536637 2.29893e-19)
(1.17124 -0.667457 -3.90271e-19)
(1.11949 -0.763575 -4.7369e-19)
(0.704522 -0.608999 -4.55309e-21)
(0.854504 0.0429884 3.87346e-21)
(1.10979 0.0470426 -6.66845e-21)
(0.94285 0.0242521 -2.55414e-20)
(0.855391 0.00129731 -1.27691e-19)
(1.11262 -0.195097 -7.9611e-21)
(0.855662 0.0443384 -2.73787e-21)
(1.11171 0.0510657 5.28603e-20)
(0.949069 0.0485824 -8.62599e-20)
(0.88141 0.0155981 4.35108e-20)
(0.955889 -0.0866555 -1.98145e-20)
(0.854811 0.0402584 -5.2522e-20)
(1.11468 0.0533415 7.07157e-22)
(0.951503 0.0646196 -2.58031e-20)
(0.878411 0.0384539 -5.07455e-20)
(0.902961 -0.0414531 -1.16398e-19)
(0.853024 0.0358618 7.9136e-20)
(1.12048 0.0553893 3.72523e-21)
(0.943407 0.081512 4.04903e-20)
(0.918629 0.063252 8.14308e-20)
(0.794467 0.0756828 1.26701e-19)
(0.851326 0.030705 1.87582e-20)
(1.12519 0.0585092 -3.38831e-20)
(0.94102 0.0934742 4.91591e-20)
(0.941056 0.101342 9.47037e-20)
(0.773531 0.14861 -1.35799e-19)
(0.78084 0.0304164 0)
(0.863192 0.021758 8.03748e-21)
(0.65558 0.00634234 -2.86403e-21)
(0.699267 -0.0112513 4.55535e-20)
(0.805164 -0.0293168 -1.28068e-19)
(0.846557 0.0569998 -4.94386e-20)
(1.10308 0.0485596 -2.16864e-20)
(0.903404 0.0147101 4.42084e-22)
(0.957172 -0.00241778 -7.91886e-20)
(0.964387 -0.198237 -1.24406e-19)
(1.14816 -0.0327077 -2.46481e-20)
(1.21823 -0.0105371 4.68533e-19)
(1.30499 0.0533171 3.06172e-19)
(1.12597 0.070372 1.71492e-20)
(0.847867 0.0360156 0)
(1.37826 -0.295047 2.80869e-19)
(1.52246 -0.259448 1.40833e-18)
(1.73268 -0.142021 -1.64568e-18)
(1.8302 -0.000328252 -5.33535e-19)
(1.75183 0.0534432 3.65441e-19)
)
;

boundaryField
{
    left
    {
        type            fixedValue;
        value           uniform (1 0 0);
    }
    right
    {
        type            zeroGradient;
    }
    down
    {
        type            noSlip;
    }
    up
    {
        type            noSlip;
    }
    cylinder
    {
        type            noSlip;
    }
    defaultFaces
    {
        type            empty;
    }
}


// ************************************************************************* //
