/*--------------------------------*- C++ -*----------------------------------*\
  =========                 |
  \\      /  F ield         | OpenFOAM: The Open Source CFD Toolbox
   \\    /   O peration     | Website:  https://openfoam.org
    \\  /    A nd           | Version:  13
     \\/     M anipulation  |
\*---------------------------------------------------------------------------*/
FoamFile
{
    format      ascii;
    class       volScalarField;
    location    "38";
    object      p;
}
// * * * * * * * * * * * * * * * * * * * * * * * * * * * * * * * * * * * * * //

dimensions      [0 2 -2 0 0 0 0];

internalField   nonuniform List<scalar> 
440
(
-1.13047
-1.10602
-1.09602
-1.08205
-1.14522
-1.19396
-1.16822
-1.14153
-1.11562
-1.09241
-1.32536
-1.28258
-1.22819
-1.15897
-1.08695
-1.46242
-1.40512
-1.28719
-1.15132
-1.01487
-1.54151
-1.45909
-1.27663
-1.09046
-0.923654
-1.07599
-1.13801
-1.29645
-1.52921
-1.85683
-1.25775
-1.26614
-1.29611
-1.34284
-1.41286
-1.20842
-1.18897
-1.17072
-1.16684
-1.19013
-1.17042
-1.14997
-1.13415
-1.13332
-1.16834
-1.11866
-1.09355
-1.06934
-1.04454
-1.05028
-0.751448
-0.10396
-0.14472
0.109719
-0.0779445
-0.994206
-0.168871
0.152921
0.12309
-0.0810712
-1.17168
-0.148692
0.551484
0.136259
-0.114726
-1.30666
-0.166157
0.808738
0.16254
-0.1472
-1.23151
-0.252996
0.644527
0.234815
-0.132999
-0.932136
-0.183089
0.313665
0.296729
-0.0757762
-0.491212
0.104798
0.207967
0.276864
0.0173969
-0.301735
0.229925
0.471636
0.261229
0.0428714
-0.145654
0.187013
0.473058
0.278171
0.0301543
-0.0589698
0.146982
0.537036
0.3728
0.0560085
-0.64239
-0.762319
-0.933678
-1.09446
-1.28199
-0.369307
-0.488557
-0.581882
-0.639638
-0.677968
-0.18233
-0.287726
-0.345629
-0.381509
-0.398393
-0.0691333
-0.160736
-0.212494
-0.235793
-0.235289
-0.0155407
-0.104406
-0.152644
-0.167955
-0.15049
0.803803
0.641393
0.433666
0.201966
-0.0506722
0.353415
0.180392
-0.0289992
-0.268245
-0.544729
-0.0821055
-0.259997
-0.484311
-0.732639
-1.00124
-0.473209
-0.653977
-0.88568
-1.13099
-1.3426
-0.736118
-0.927402
-1.14644
-1.37493
-1.51689
1.97758
2.00446
2.02685
2.03417
2.02414
1.76358
1.77952
1.78853
1.77951
1.74821
1.53417
1.51554
1.47199
1.40428
1.30839
1.26709
1.22798
1.15043
1.04002
0.89849
1.0395
0.923833
0.775432
0.606177
0.401038
1.77962
1.76969
1.74759
1.81492
1.87918
1.76792
1.75708
1.72395
1.78838
1.77501
1.75732
1.74184
1.69825
1.74887
1.64599
1.74793
1.72487
1.67066
1.69658
1.46229
1.7398
1.7065
1.64192
1.6429
1.26774
1.73314
1.6802
1.60634
1.53316
1.05343
1.72653
1.64882
1.58779
1.4197
1.18738
1.73387
1.62951
1.56198
1.37496
1.20905
1.72639
1.60036
1.54761
1.32059
1.22442
1.76347
1.59864
1.53921
1.29065
1.2393
0.764921
0.443778
0.0864569
-0.234724
-0.442565
0.650429
0.421991
0.180402
-0.0356806
-0.220099
0.638121
0.453268
0.270188
0.104679
-0.0582449
0.707307
0.525195
0.351122
0.194953
0.0481076
0.73625
0.553326
0.386998
0.238955
0.0994119
-0.720726
-0.615395
-0.47819
-0.367222
-0.300963
-0.779384
-0.725985
-0.623451
-0.541382
-0.492869
-0.712188
-0.668976
-0.612423
-0.56606
-0.53715
-0.583841
-0.550459
-0.515274
-0.489206
-0.471161
-0.491803
-0.473144
-0.45377
-0.442569
-0.462384
-0.444223
-0.436832
-0.422174
-0.420152
-0.398966
-0.442344
-0.440358
-0.437956
-0.440971
-0.438612
-0.426175
-0.438395
-0.469022
-0.514758
-0.55019
-0.365602
-0.366044
-0.378544
-0.397361
-0.387795
-0.364143
-0.440506
-0.617184
-0.836476
-0.954447
-0.526653
0.776014
0.20872
0.0303598
-0.0466145
-0.445873
0.866348
0.116456
0.0273945
-0.0670257
-0.302043
0.949421
0.0164798
0.0423581
-0.0773047
-0.160491
0.756923
-0.0678945
0.0680326
-0.0799677
-0.443158
0.243989
-0.189343
0.0912871
-0.0770372
-0.0639512
0.5393
0.213489
0.0453126
0.00704321
-0.408537
0.60272
0.269884
0.0563829
-0.0157176
-0.262311
-0.481208
-0.492755
-0.48556
-0.269357
-0.278806
-0.476178
-0.517948
-0.473629
-0.488954
1.78597
1.77264
1.74474
1.70366
1.64915
1.93843
1.9614
1.97201
1.96876
1.95222
2.06202
2.09611
2.12417
2.14162
2.14581
2.1206
2.15878
2.19887
2.23154
2.2471
2.0911
2.12519
2.16219
2.19202
2.20457
0.0670336
-0.0181362
-0.150941
-0.314197
-0.484766
0.557505
0.447163
0.298922
0.122228
-0.0861306
0.996008
0.880505
0.742825
0.582172
0.392223
1.34244
1.255
1.14832
1.02016
0.870354
1.618
1.55985
1.48375
1.3927
1.28749
1.84913
1.8084
1.80437
1.83059
1.87255
1.83278
1.80356
1.79999
1.83961
1.91301
1.81846
1.79738
1.79393
1.84968
1.96485
1.80483
1.7899
1.7829
1.84809
1.96188
1.79183
1.78094
1.76693
1.83684
1.93706
1.90745
1.8184
1.7995
1.76976
1.76309
1.8607
1.80751
1.79238
1.78566
1.7777
1.52335
1.35475
1.04777
0.593088
0.0926591
1.58729
1.37766
1.05995
0.610143
0.0997162
)
;

boundaryField
{
    left
    {
        type            zeroGradient;
    }
    right
    {
        type            fixedValue;
        value           uniform 0;
    }
    down
    {
        type            zeroGradient;
    }
    up
    {
        type            zeroGradient;
    }
    cylinder
    {
        type            zeroGradient;
    }
    defaultFaces
    {
        type            empty;
    }
}


// ************************************************************************* //
