/*--------------------------------*- C++ -*----------------------------------*\
  =========                 |
  \\      /  F ield         | OpenFOAM: The Open Source CFD Toolbox
   \\    /   O peration     | Website:  https://openfoam.org
    \\  /    A nd           | Version:  13
     \\/     M anipulation  |
\*---------------------------------------------------------------------------*/
FoamFile
{
    format      ascii;
    class       volVectorField;
    location    "38";
    object      U;
}
// * * * * * * * * * * * * * * * * * * * * * * * * * * * * * * * * * * * * * //

dimensions      [0 1 -1 0 0 0 0];

internalField   nonuniform List<vector> 
440
(
(-0.0850846 0.061891 -8.54547e-20)
(-0.0891354 0.0915731 7.21021e-20)
(0.122996 0.068803 7.0758e-20)
(0.593576 0.0520053 2.05007e-19)
(0.801508 0.0577032 1.22297e-20)
(-0.0810334 0.0441883 3.81741e-20)
(0.139062 -0.0122969 -1.57178e-19)
(0.741662 -0.0751781 -1.2398e-19)
(1.34818 -0.120928 4.84708e-20)
(1.94349 -0.153231 -7.26192e-21)
(0.0114105 -0.0100383 5.01118e-20)
(0.687578 -0.0769935 9.46832e-19)
(1.5438 -0.0849556 -6.28898e-19)
(2.15777 -0.0668729 -1.88159e-18)
(2.58803 -0.0719844 8.23203e-19)
(0.270801 -0.0601132 -1.85162e-19)
(1.42263 -0.0124899 -7.01936e-19)
(2.19654 0.0383438 2.23731e-18)
(2.5548 0.0563012 2.48417e-18)
(2.58626 0.0598866 -6.73636e-19)
(0.68432 -0.000487524 -3.42994e-19)
(1.93451 0.177368 -7.55362e-19)
(2.43919 0.231954 2.32619e-18)
(2.55497 0.231079 2.4065e-18)
(2.64123 0.200848 8.02235e-19)
(-0.0247929 0.769768 5.70331e-19)
(-0.0789975 1.09345 9.41607e-19)
(-0.111621 1.10562 -2.51979e-18)
(-0.0972075 1.01754 5.66629e-19)
(-0.0915684 0.871825 4.05812e-18)
(-0.0651564 0.529292 -4.93955e-20)
(-0.0286249 0.966733 -2.69794e-19)
(0.0243938 1.05451 -4.15803e-20)
(0.121814 0.968997 -6.24483e-20)
(0.136228 0.799844 1.55101e-19)
(-0.0705279 0.235023 1.03142e-19)
(-0.0776717 0.59449 -2.67408e-19)
(-0.0356499 0.734051 9.12219e-20)
(0.0661462 0.718174 -1.61073e-19)
(0.0974126 0.631035 6.69119e-21)
(-0.0561229 0.105231 -4.44413e-20)
(-0.102677 0.323046 7.40606e-20)
(-0.0771937 0.457331 3.17908e-20)
(0.0110841 0.505521 2.33964e-19)
(0.0630268 0.513053 -8.87525e-20)
(-0.0652948 0.0663934 -6.90148e-20)
(-0.136724 0.17408 -8.74002e-20)
(-0.110934 0.242256 -1.54379e-19)
(0.0409217 0.253213 6.81106e-20)
(0.179781 0.291787 -1.18175e-19)
(0.742036 -0.41565 -1.19092e-18)
(-0.11878 -1.20847 1.56123e-18)
(1.50866 0.615217 -4.98573e-19)
(0.863542 0.580423 1.43987e-19)
(1.00545 -0.153652 -2.39541e-21)
(1.52756 -0.349641 1.69126e-18)
(-0.352502 -1.1967 -8.42212e-20)
(1.52297 0.398366 -5.50512e-20)
(0.831593 0.629968 -1.353e-19)
(1.13266 -0.163595 1.00816e-19)
(1.19388 -0.405927 6.31252e-19)
(0.117365 -1.19901 1.38535e-19)
(1.05731 0.277025 1.27343e-20)
(0.680865 0.634454 -1.48168e-19)
(1.29694 -0.224994 3.51436e-21)
(1.4503 -0.388338 -1.04827e-19)
(1.77479 -1.23456 -4.21385e-19)
(0.654579 0.130628 1.97078e-19)
(0.836545 0.548882 2.92177e-19)
(1.54729 -0.293868 5.47806e-20)
(1.73616 -0.676623 -2.45778e-19)
(2.63154 -1.16677 -5.72407e-19)
(0.724688 0.236752 0)
(1.23748 0.4541 -2.56428e-19)
(1.78299 -0.342426 -6.78632e-20)
(2.14106 -0.687679 -6.37937e-19)
(2.31014 -1.00818 1.54967e-19)
(0.838043 0.21843 -1.58216e-20)
(1.70525 0.248184 -9.30985e-20)
(1.93314 -0.392438 3.2563e-19)
(2.63478 -0.697555 5.7337e-20)
(1.43664 -0.667838 7.5095e-19)
(0.3199 0.457974 -4.16363e-21)
(1.88931 0.0493657 -6.31464e-20)
(1.84933 -0.375894 0)
(2.33531 -0.442931 -5.91517e-19)
(1.5414 -0.252109 1.80149e-20)
(0.749228 0.154061 3.50654e-19)
(2.16095 -0.327262 -1.13973e-21)
(1.64617 -0.386149 1.68267e-20)
(2.02525 -0.352962 4.15992e-20)
(1.15634 -0.111151 4.18144e-20)
(1.38634 0.0965258 -6.4527e-21)
(1.79109 -0.270303 6.28082e-34)
(0.907368 -0.195571 -2.87663e-20)
(1.05263 -0.04687 1.23251e-19)
(0.54797 0.0120992 -2.32707e-20)
(0.863611 -0.106573 -7.24852e-20)
(0.408295 -0.0946698 5.50104e-20)
(-0.148643 -0.0100644 -2.28484e-20)
(2.47589 0.216628 -9.75112e-19)
(2.71271 -0.0299123 -1.29464e-18)
(2.54699 0.0241985 1.02628e-18)
(2.84032 -0.240133 5.10445e-20)
(2.27896 -0.029611 -2.89274e-20)
(2.14559 0.150061 5.44956e-20)
(2.44168 -0.0902927 -4.28944e-20)
(2.28955 -0.0109533 -1.49687e-19)
(2.54703 -0.254273 -2.36732e-19)
(2.38449 -0.237047 -8.45513e-21)
(2.11623 0.0386723 7.12062e-20)
(2.23834 -0.0615787 1.12684e-19)
(2.19925 -0.0863284 -1.67354e-19)
(2.27733 -0.175088 5.47234e-20)
(2.26809 -0.232623 4.36373e-20)
(2.07233 -0.0113435 1.13142e-19)
(2.05569 -0.0645024 1.1103e-19)
(2.11623 -0.0760309 -1.72232e-20)
(2.07842 -0.135317 1.55922e-20)
(2.13389 -0.151248 2.1392e-20)
(1.49938 -0.0250404 1.60778e-19)
(1.40785 -0.0218724 -1.25604e-20)
(1.47399 -0.0413215 2.56785e-20)
(1.34625 -0.0318573 -6.80006e-21)
(1.42517 -0.0645042 4.15125e-20)
(1.60722 0.836899 1.18844e-18)
(1.55918 0.940727 -3.89409e-19)
(1.56425 1.08018 -1.43895e-18)
(1.49703 1.13311 7.77592e-19)
(0.918857 0.819029 -1.79482e-19)
(1.91008 0.815425 -6.13016e-19)
(1.87312 0.891103 -3.19808e-18)
(1.87557 0.996739 -1.23014e-18)
(1.79159 1.01407 -4.35603e-19)
(1.10108 0.722027 -7.15521e-19)
(2.21449 0.66259 8.16333e-19)
(2.19875 0.740107 2.11993e-19)
(2.17874 0.838448 -2.41523e-18)
(2.04954 0.830614 -6.98774e-19)
(1.22719 0.566703 5.30687e-19)
(2.41334 0.553225 2.46025e-18)
(2.38955 0.602871 1.81863e-18)
(2.38468 0.659844 -2.13047e-18)
(2.1867 0.62557 -1.63812e-18)
(1.22319 0.380146 -3.14448e-19)
(2.54346 0.374295 1.26959e-18)
(2.57384 0.404674 -9.13298e-19)
(2.49104 0.438605 6.43019e-19)
(2.16852 0.394249 5.37047e-19)
(1.05745 0.176179 -4.72878e-19)
(0.572857 0.508913 -6.06827e-19)
(0.480602 0.545767 -4.43168e-19)
(0.361959 0.581222 4.41172e-20)
(0.226207 0.583628 5.28729e-21)
(0.056207 0.419077 9.33792e-20)
(0.687494 0.672289 1.28689e-19)
(0.626188 0.733013 -2.80678e-19)
(0.539576 0.801625 1.9061e-19)
(0.413568 0.859909 -8.90672e-20)
(0.181815 0.653483 1.25805e-19)
(0.777742 0.86932 8.53525e-20)
(0.704015 0.954008 5.05664e-19)
(0.6527 1.05413 1.34949e-19)
(0.573143 1.09111 -3.29612e-19)
(0.31619 0.800718 2.79843e-19)
(1.07425 0.930164 2.52855e-19)
(1.02486 1.0114 -7.76608e-19)
(0.97423 1.11151 -2.0551e-18)
(0.894004 1.18091 8.1761e-19)
(0.527507 0.876203 -1.65202e-19)
(1.13459 0.984006 -1.03384e-19)
(1.17666 1.10641 -1.82197e-19)
(1.20373 1.21796 -3.97245e-19)
(1.15145 1.23569 -4.45498e-19)
(0.708246 0.88268 -7.00958e-21)
(1.02286 0.0438379 -1.03971e-19)
(0.995489 0.0536759 -3.46422e-20)
(1.03021 0.135409 -1.41817e-21)
(0.945599 0.15783 -2.818e-19)
(0.900184 0.318096 3.17511e-19)
(1.01446 0.0393757 6.59366e-20)
(1.00845 0.053991 1.25039e-19)
(1.01498 0.143853 1.4122e-19)
(0.990162 0.18489 4.0775e-20)
(0.935797 0.393721 -2.4517e-20)
(1.0244 0.0373604 9.01011e-20)
(0.985415 0.0481838 -4.73349e-21)
(1.06352 0.164232 -6.71033e-21)
(0.936648 0.178486 1.54407e-19)
(1.17447 0.545869 -5.12829e-19)
(1.02278 0.0361785 -2.55202e-22)
(0.992821 0.0434414 -1.72439e-19)
(1.0567 0.179066 -7.14268e-20)
(1.05308 0.179908 -3.89562e-19)
(1.16086 0.593663 9.7714e-20)
(1.0233 0.0312945 -1.54561e-20)
(0.978907 0.0447497 4.70141e-20)
(1.11961 0.174972 3.33639e-20)
(1.01194 0.209565 4.8068e-19)
(1.42837 0.727224 -4.90758e-19)
(0.992983 0.0366626 -1.30072e-20)
(1.02043 0.01977 9.74861e-20)
(1.10694 0.203263 -7.85783e-20)
(1.27341 0.118553 9.72539e-19)
(1.30477 0.777026 -3.7275e-19)
(0.939851 0.0150688 -1.24965e-21)
(1.08346 0.0165668 -9.01707e-20)
(1.08179 0.104031 5.54427e-21)
(1.44056 0.133955 -2.81395e-19)
(1.21873 0.544 -6.80109e-20)
(0.959835 0.0232579 -1.85912e-21)
(1.09226 -0.0106434 1.55676e-35)
(1.18271 0.0461691 -4.71096e-20)
(1.31463 0.119395 8.64708e-20)
(1.35605 0.399781 1.89482e-19)
(1.03798 -0.0205757 3.75046e-21)
(1.06802 -0.0490619 -2.72617e-20)
(1.17836 0.00525544 1.98041e-20)
(1.08402 0.091544 2.28771e-20)
(1.59965 0.255507 -2.8337e-19)
(0.970039 -0.0231426 -3.95673e-20)
(0.857178 -0.0266586 -1.00284e-21)
(0.835192 0.00786855 2.92101e-20)
(0.817108 0.0145716 -1.74025e-20)
(1.24889 0.0524199 -6.58135e-20)
(1.86737 0.600587 2.96197e-19)
(1.93335 0.64995 7.69324e-19)
(2.23061 0.481691 -1.12236e-18)
(2.2706 0.472777 1.89996e-20)
(2.52227 0.241254 5.05895e-19)
(1.72753 0.349491 9.03681e-20)
(1.74401 0.40382 1.04368e-18)
(2.00669 0.260359 1.27406e-19)
(1.97007 0.296193 -9.36736e-19)
(2.25983 0.0845036 -2.9073e-19)
(1.73085 0.2767 -2.38718e-19)
(1.821 0.251624 -1.56562e-19)
(1.96487 0.178395 2.11847e-19)
(1.9942 0.15226 -2.96475e-19)
(2.13867 0.054666 2.6805e-19)
(1.75914 0.145091 4.14954e-19)
(1.87878 0.116653 -3.1169e-21)
(1.90592 0.0721033 2.31422e-19)
(1.99614 0.0521466 1.90972e-19)
(1.9994 0.001682 -1.81718e-19)
(1.39082 0.0253361 -5.0462e-20)
(1.46952 0.0118244 2.60842e-19)
(1.45414 0.00462875 1.11972e-19)
(1.50196 -0.00744238 -2.17343e-19)
(1.44295 -0.011409 5.02384e-22)
(1.06889 -0.0162319 5.5198e-20)
(2.05019 -0.0441734 -3.84533e-19)
(2.28513 -0.0331364 1.08318e-18)
(2.27175 0.00477108 4.84523e-19)
(2.11123 0.031453 -3.34633e-19)
(0.667308 0.0915744 1.01598e-19)
(1.83105 0.084357 -4.00764e-19)
(2.29053 0.0874032 -5.38977e-19)
(2.3468 0.0958999 6.64195e-19)
(2.104 0.0835693 -4.24315e-19)
(0.211722 0.0747845 -1.92997e-20)
(1.22492 0.142852 4.23203e-19)
(1.95025 0.164775 5.92318e-20)
(2.33477 0.156359 4.08314e-19)
(2.48285 0.152455 1.94626e-19)
(-0.0283642 -0.0170394 1.75311e-19)
(0.448493 0.0783284 1.76688e-19)
(1.20224 0.148315 -3.90204e-19)
(1.68447 0.183452 2.28551e-20)
(2.26163 0.211318 5.99328e-20)
(-0.087124 -0.0705449 1.13486e-19)
(0.00711237 -0.0438092 -1.33476e-19)
(0.418796 0.0291671 -2.86786e-20)
(0.871334 0.058092 9.29166e-21)
(1.27398 0.121236 -3.38973e-20)
(-0.0688299 -0.0725803 1.1345e-21)
(-0.112559 -0.111185 6.66567e-20)
(-0.0143964 -0.110852 5.69862e-20)
(0.170154 -0.0796562 -1.10102e-19)
(0.525232 -0.02277 -9.09862e-22)
(-0.043612 -0.0712066 -7.79745e-21)
(-0.0945142 -0.149627 -1.27761e-20)
(-0.0972395 -0.194319 -9.93693e-21)
(-0.0570357 -0.198787 5.29854e-20)
(0.0762674 -0.139958 4.43329e-20)
(-0.0326041 -0.0743938 -1.35919e-20)
(-0.0809761 -0.16513 -4.16925e-19)
(-0.118489 -0.224777 4.10788e-19)
(-0.155682 -0.244251 1.12344e-18)
(-0.152805 -0.224566 -1.55456e-19)
(-0.0376821 -0.0336897 -1.5968e-21)
(-0.195739 -0.0438374 4.52365e-20)
(-0.356295 0.0281133 -1.15862e-19)
(-0.526715 0.13832 -1.95858e-19)
(-0.654127 0.188163 -1.34604e-19)
(-0.0534803 0.419217 -5.80052e-20)
(-0.35708 0.617505 2.7319e-19)
(-0.658779 0.731451 -1.42903e-19)
(-0.903824 0.732342 2.29765e-19)
(-0.985723 0.630663 1.2931e-18)
(1.2923 0.619357 4.74896e-21)
(1.28713 0.074052 1.21604e-18)
(1.22194 0.317521 1.69737e-19)
(0.1862 0.0747834 1.07126e-19)
(0.336065 -0.221334 -1.75425e-20)
(1.07136 0.513767 1.38437e-19)
(1.18776 0.0216136 -6.90068e-19)
(1.50323 0.459066 7.60562e-19)
(0.545299 0.165714 5.36857e-21)
(0.474973 -0.214588 5.64253e-20)
(0.307785 0.283948 5.97088e-19)
(0.948832 -0.112476 5.80473e-19)
(1.69551 0.560158 -1.01214e-19)
(0.752267 0.29252 1.91958e-19)
(0.61818 -0.202073 -7.76963e-21)
(-0.949553 0.212523 3.43214e-19)
(0.946222 -0.43862 -6.14628e-18)
(1.7669 0.637573 -3.33275e-19)
(0.876597 0.405374 1.76883e-21)
(0.766993 -0.175235 -2.40312e-21)
(-0.845691 -0.227556 3.18926e-19)
(0.540706 -1.0316 -1.16015e-18)
(1.71614 0.614134 1.14444e-19)
(0.919607 0.514253 -1.38563e-20)
(0.892687 -0.154829 1.41486e-21)
(0.158659 0.170395 -1.02117e-19)
(-0.253861 -0.141524 0)
(-0.0349214 -0.0818218 3.38944e-20)
(-0.295842 -0.0502655 1.57495e-20)
(0.308887 -0.0346613 -3.03656e-21)
(1.62778 0.535078 0)
(1.15925 0.183126 0)
(0.88232 0.107126 -1.07272e-19)
(-0.192867 -0.0475071 -3.44123e-20)
(0.407972 -0.164374 7.36613e-20)
(0.672041 0.000685537 -1.13797e-19)
(0.690968 -0.00509965 1.41254e-19)
(0.932823 -0.00316567 -5.09652e-20)
(0.899606 0.0084552 2.83311e-19)
(1.32759 0.077566 2.04652e-19)
(1.52866 0.023653 1.07064e-19)
(1.64514 0.0640146 2.14963e-19)
(1.84598 0.036166 -3.41995e-19)
(2.35915 0.185664 -1.34462e-20)
(2.12207 0.10354 1.48753e-19)
(0.857343 -0.440402 -3.5285e-20)
(0.840823 -0.523508 -1.362e-19)
(0.82732 -0.613663 -8.87656e-20)
(0.75436 -0.674739 5.52321e-20)
(0.453203 -0.522816 1.13115e-19)
(0.759499 -0.342051 1.28599e-19)
(0.704609 -0.402636 2.76281e-19)
(0.632064 -0.468387 -2.26985e-20)
(0.520751 -0.522548 1.22018e-19)
(0.278935 -0.412219 4.987e-20)
(0.623073 -0.199975 -1.63284e-19)
(0.535856 -0.234801 -4.47777e-20)
(0.433884 -0.278243 1.46958e-19)
(0.314965 -0.317198 -4.42485e-21)
(0.1344 -0.25423 -1.02153e-19)
(0.53407 0.0321343 -4.33696e-19)
(0.447687 0.0209485 -3.60376e-19)
(0.337349 0.0015891 2.81134e-19)
(0.210587 -0.0271503 1.82773e-19)
(0.0521716 -0.0433433 1.36036e-20)
(0.513427 0.239537 -1.75555e-19)
(0.426978 0.245986 -1.72941e-19)
(0.311252 0.252805 -8.02836e-20)
(0.176509 0.261202 1.12414e-20)
(0.0232476 0.192791 1.05498e-20)
(1.88388 -0.040258 7.08934e-19)
(2.13668 -0.101438 2.42996e-19)
(2.20689 -0.178898 -6.4449e-19)
(2.05376 -0.205168 -1.29309e-18)
(1.21585 -0.169559 1.06669e-19)
(1.86231 -0.116912 1.18116e-18)
(1.95203 -0.220808 1.56618e-18)
(1.96951 -0.334439 1.2995e-19)
(1.88356 -0.388698 2.2715e-19)
(1.18855 -0.327305 -1.49299e-19)
(1.59763 -0.268886 -3.06605e-18)
(1.66125 -0.379279 3.49967e-19)
(1.7032 -0.494875 9.58764e-19)
(1.63564 -0.560878 -3.56393e-19)
(1.04738 -0.461062 5.57564e-19)
(1.39872 -0.383126 7.26534e-19)
(1.41694 -0.475118 -1.9184e-18)
(1.40396 -0.584317 -2.19898e-18)
(1.33235 -0.660651 6.62623e-19)
(0.849477 -0.531075 4.5203e-19)
(1.13447 -0.435618 1.45247e-19)
(1.09419 -0.522945 2.14626e-19)
(1.08251 -0.634664 -3.27925e-19)
(1.02333 -0.709851 -3.94811e-19)
(0.641255 -0.553941 -3.64488e-21)
(1.07554 0.0554477 7.89852e-21)
(0.920447 0.0639318 -5.48496e-21)
(1.10839 0.0845339 -5.11516e-21)
(0.793041 0.0216922 -1.885e-19)
(1.04049 -0.181893 -8.07295e-21)
(1.08469 0.0578016 -2.59662e-21)
(0.919469 0.0632639 5.12209e-20)
(1.10758 0.102369 -5.08242e-20)
(0.880664 0.069224 1.06148e-19)
(0.945939 -0.0664509 -2.17074e-20)
(1.08237 0.0537579 -6.38813e-20)
(0.924091 0.0614444 4.07796e-22)
(1.0961 0.104358 -2.31406e-20)
(0.883183 0.0957881 2.11222e-20)
(0.927063 -0.00547386 -1.55086e-19)
(1.06215 0.0512801 7.81487e-20)
(0.95337 0.0582693 3.52286e-21)
(1.06123 0.112227 3.67176e-20)
(0.921007 0.120362 2.28601e-20)
(0.850394 0.106441 1.14122e-19)
(1.03632 0.046691 1.98714e-20)
(0.985651 0.0582032 -2.99316e-20)
(1.02959 0.118816 5.02024e-20)
(0.951018 0.147553 7.64659e-20)
(0.833778 0.207746 -1.29314e-19)
(0.892565 0.0340828 0)
(0.701777 0.0286596 1.06185e-20)
(0.587594 0.0234349 3.33767e-21)
(0.320562 -0.00498969 3.81251e-20)
(0.610722 -0.0484469 -1.08358e-19)
(1.04188 0.0756034 -6.67233e-20)
(0.930219 0.0773358 -2.04318e-20)
(1.00754 0.0837216 -2.87247e-20)
(0.780448 0.011233 -9.98455e-20)
(0.9674 -0.169385 -1.17492e-19)
(0.841382 -0.0614094 -2.64048e-20)
(0.921917 -0.0289836 4.34716e-19)
(1.00069 0.0349648 2.68006e-19)
(0.883025 0.0473783 2.62266e-20)
(0.686849 0.0243873 0)
(1.1996 -0.293331 2.51329e-19)
(1.30556 -0.259478 1.25554e-18)
(1.46494 -0.146222 -1.40619e-18)
(1.55041 -0.021491 -4.33382e-19)
(1.45243 0.0221523 3.28518e-19)
)
;

boundaryField
{
    left
    {
        type            fixedValue;
        value           uniform (1 0 0);
    }
    right
    {
        type            zeroGradient;
    }
    down
    {
        type            noSlip;
    }
    up
    {
        type            noSlip;
    }
    cylinder
    {
        type            noSlip;
    }
    defaultFaces
    {
        type            empty;
    }
}


// ************************************************************************* //
