# Selection   : all
# Cells       : 440
# Volume      : 7.374263e+01
# Time        	minMag(U)
8.415         	4.250567e-03
8.46          	3.964237e-03
8.51          	4.160793e-03
