/*--------------------------------*- C++ -*----------------------------------*\
  =========                 |
  \\      /  F ield         | OpenFOAM: The Open Source CFD Toolbox
   \\    /   O peration     | Website:  https://openfoam.org
    \\  /    A nd           | Version:  13
     \\/     M anipulation  |
\*---------------------------------------------------------------------------*/
FoamFile
{
    format      ascii;
    class       volScalarField;
    location    "70.6";
    object      p;
}
// * * * * * * * * * * * * * * * * * * * * * * * * * * * * * * * * * * * * * //

dimensions      [0 2 -2 0 0 0 0];

internalField   nonuniform List<scalar> 
440
(
-0.53956
-0.525316
-0.570515
-0.492922
-0.559625
-0.545787
-0.53604
-0.527041
-0.509549
-0.499321
-0.661858
-0.63248
-0.600676
-0.56101
-0.515278
-0.786461
-0.740969
-0.663751
-0.570803
-0.476643
-0.881483
-0.819714
-0.68212
-0.537557
-0.403631
-1.12654
-1.10121
-1.06723
-1.03329
-1.00837
-1.12109
-1.10665
-1.09508
-1.09217
-1.10752
-1.06196
-1.09147
-1.16529
-1.27165
-1.39822
-0.727798
-0.776705
-0.880938
-1.01625
-1.10274
-0.269666
-0.302258
-0.325239
-0.293292
-0.230102
-0.88803
-1.85217
-1.53117
0.15441
0.00969358
-0.763743
-1.71987
-1.64681
0.0748945
-0.020494
-0.611603
-1.46918
-1.5914
0.00871968
-0.0313397
-0.414973
-1.17746
-1.40164
-0.0422005
-0.031289
-0.195136
-0.982807
-1.2056
-0.0838668
-0.0354532
0.179538
-0.866592
-0.948597
-0.0992972
-0.0375628
-0.00545723
-0.645628
-0.632422
-0.0906953
-0.0315351
0.0222005
-0.411491
-0.439117
-0.123873
-0.0349261
0.100979
-0.288611
-0.350373
-0.122807
-0.0494901
0.139754
-0.117466
-0.303347
-0.154148
-0.0547888
-0.170926
-0.300514
-0.432019
-0.585263
-0.64158
0.0571967
-0.0700267
-0.130567
-0.16439
-0.144842
0.201725
0.103675
0.0425957
0.00497143
-0.015872
0.295617
0.20586
0.134146
0.0959027
0.0711181
0.339674
0.249372
0.174236
0.136746
0.113565
1.03228
0.894908
0.720696
0.524461
0.303544
0.655486
0.504569
0.317107
0.104659
-0.13171
0.276976
0.120968
-0.073984
-0.298309
-0.506113
-0.0406319
-0.202584
-0.398337
-0.609744
-0.769408
-0.263577
-0.419325
-0.598431
-0.784292
-0.887244
2.16398
2.19678
2.22872
2.24779
2.24937
1.99068
2.0132
2.03177
2.03448
2.01671
1.77669
1.77039
1.74311
1.69401
1.62014
1.52817
1.49735
1.43359
1.34005
1.21773
1.28178
1.19155
1.07042
0.925845
0.748938
1.90032
1.89425
1.87893
1.93958
2.03976
1.89168
1.88341
1.86357
1.92074
1.96316
1.88406
1.86945
1.84528
1.88931
1.86471
1.87769
1.8531
1.82468
1.84524
1.71239
1.87259
1.83566
1.80224
1.79947
1.54996
1.86928
1.80832
1.77275
1.70452
1.36669
1.87017
1.77818
1.76075
1.58622
1.39386
1.87527
1.76475
1.754
1.53073
1.3825
1.87177
1.74016
1.75199
1.48102
1.37389
1.91064
1.73295
1.75207
1.45334
1.38382
1.0044
0.738155
0.422799
0.167074
-0.0281105
0.946495
0.757059
0.538106
0.35428
0.182466
0.958672
0.795842
0.627709
0.469184
0.323666
0.997913
0.845151
0.695097
0.547315
0.417401
1.029
0.880796
0.737288
0.592567
0.464537
-1.88196
-1.69022
-1.48242
-1.30824
-1.20173
-1.97201
-1.8787
-1.70392
-1.54423
-1.43113
-1.89711
-1.83786
-1.70707
-1.57177
-1.45052
-1.73675
-1.6843
-1.61045
-1.5201
-1.42301
-1.56739
-1.53858
-1.50077
-1.45241
-1.39095
-1.46926
-1.45885
-1.42625
-1.45574
-1.39544
-1.43044
-1.4261
-1.41443
-1.45793
-1.41579
-1.36497
-1.36495
-1.36859
-1.39489
-1.39825
-1.26266
-1.25597
-1.24887
-1.24528
-1.24795
-1.17185
-1.15411
-1.1256
-1.09673
-1.07439
-1.06985
-1.12544
-0.26643
0.293146
0.0794406
-1.09898
-1.23432
-0.176085
0.242192
0.068855
-1.07773
-1.38472
-0.234072
0.218484
0.0643474
-0.932078
-1.59221
-0.686597
0.239852
0.0676781
-0.890682
-1.78014
-1.19778
0.218627
0.0451984
-0.660719
-1.19162
-0.370421
0.309091
0.0896123
-1.00637
-1.12943
-0.22542
0.334951
0.0900102
-1.14129
-1.34309
-1.35124
-1.24431
-1.01308
-1.16329
-1.36759
-1.36465
-1.29502
-1.21443
1.71367
1.68098
1.62875
1.55812
1.46526
1.92509
1.94136
1.94018
1.91952
1.88001
2.10739
2.138
2.15938
2.1671
2.15973
2.21725
2.25632
2.29749
2.33052
2.34475
2.23666
2.27523
2.31842
2.35488
2.37198
-0.690507
-0.817576
-1.0164
-1.2514
-1.54232
-0.0235759
-0.180063
-0.387217
-0.637615
-0.967541
0.591018
0.431086
0.237991
0.00870564
-0.286766
1.08591
0.95926
0.80609
0.620248
0.390418
1.48031
1.39149
1.27566
1.13613
0.969975
1.95851
1.91897
1.90088
1.89735
1.89239
1.94387
1.91722
1.90195
1.91914
1.96879
1.93155
1.91411
1.90317
1.94255
2.05539
1.9202
1.90958
1.89892
1.95185
2.07439
1.90979
1.90332
1.89061
1.951
2.07552
2.01298
1.92279
1.8851
1.81422
1.75233
1.96824
1.91452
1.88138
1.83849
1.76417
1.35253
1.09752
0.661598
0.0325915
-0.649776
1.44383
1.13604
0.679344
0.0543662
-0.64318
)
;

boundaryField
{
    left
    {
        type            zeroGradient;
    }
    right
    {
        type            fixedValue;
        value           uniform 0;
    }
    down
    {
        type            zeroGradient;
    }
    up
    {
        type            zeroGradient;
    }
    cylinder
    {
        type            zeroGradient;
    }
    defaultFaces
    {
        type            empty;
    }
}


// ************************************************************************* //
