/*--------------------------------*- C++ -*----------------------------------*\
  =========                 |
  \\      /  F ield         | OpenFOAM: The Open Source CFD Toolbox
   \\    /   O peration     | Website:  https://openfoam.org
    \\  /    A nd           | Version:  13
     \\/     M anipulation  |
\*---------------------------------------------------------------------------*/
FoamFile
{
    format      ascii;
    class       surfaceScalarField;
    location    "45.9";
    object      phi;
}
// * * * * * * * * * * * * * * * * * * * * * * * * * * * * * * * * * * * * * //

dimensions      [0 3 -1 0 0 0 0];

internalField   nonuniform List<scalar> 
823
(
-0.00440883
0.0173005
-0.0128917
0.00805649
0.010246
-0.0227114
0.0619926
-0.0348906
-0.0190455
0.154111
-0.0950285
0.00291004
-0.128373
-0.00395589
0.28644
0.00621107
0.0110895
0.0542462
-0.0377891
0.146428
-0.127073
0.259519
-0.208119
-0.279873
0.411019
0.0236864
-0.0125969
0.110489
-0.124592
0.222277
-0.23886
0.329365
-0.315207
-0.358784
0.408276
0.0445975
-0.0571944
0.140634
-0.220628
0.223399
-0.321626
0.273242
-0.36505
-0.37871
0.293168
0.0569467
-0.114141
0.126276
-0.289957
0.165089
-0.360439
0.180065
-0.380026
0.188461
-0.387106
0.00695683
-0.0433026
0.0363457
0.00846436
-0.05499
0.0534825
0.0188658
-0.0549448
0.0445433
0.0443398
-0.0467432
0.0212691
-0.0238382
0.0817244
-0.0135464
-0.013467
-0.0298356
-0.0410344
-0.0274226
-0.0720306
-0.0239485
-0.0953555
-0.0234183
-0.012158
-0.107036
-0.00592778
-0.0239078
-0.017491
-0.0158594
-0.0400318
-0.00140773
-0.0696937
0.00624359
0.01414
-0.0959916
-0.0135496
-0.0103582
-0.0292296
-0.00017939
-0.0429175
0.0122801
-0.0547222
0.0180483
0.0233622
-0.0639445
-0.0232499
-0.0461407
-0.052906
-0.0319476
-0.0125413
0.387806
1.58194
-1.88802
0.418655
0.139725
-0.170575
0.425853
-1.92207
1.91488
0.523951
-0.79909
0.700992
-0.000874292
-0.00769186
0.3115
1.16341
0.600839
-0.149613
0.588083
-1.90932
0.548671
-0.759679
0.0133414
0.243784
0.823629
0.654334
-0.560163
0.620093
-1.87508
0.569103
-0.70869
0.048977
0.259192
0.500493
0.612643
-0.913613
0.544385
-1.80682
0.512808
-0.677113
0.0592642
0.318675
0.169277
0.590889
-1.18583
0.507523
-1.72345
0.434275
-0.603865
0.0479577
1.24498
0.0437342
-1.11944
1.35239
-1.29324
0.970313
-1.34137
0.70347
-0.337022
0.0562195
1.50268
-0.0817327
-1.37721
1.28914
-1.0797
0.710973
-0.763204
0.53863
-0.164679
-0.0609468
1.43021
-0.176481
-1.33547
1.13813
-0.78761
0.741073
-0.366151
0.666659
-0.0902644
-0.128213
1.32471
-0.211246
-1.28994
0.893087
-0.355991
0.629609
-0.102672
0.625564
-0.086219
-0.0853976
0.678347
-0.889593
0.322356
0.219684
0.133465
1.08749
0.145227
-1.04426
1.14995
0.230714
1.25575
0.302472
1.26294
0.403831
0.429939
1.01225
0.0848483
-0.951872
1.0787
0.164261
1.17499
0.206189
1.27414
0.304681
0.326864
0.945492
0.0452166
-0.90586
1.0098
0.0999509
1.09069
0.1253
1.21039
0.184985
0.201784
0.898809
0.013158
-0.86675
0.964066
0.0346933
1.04329
0.0460743
1.16235
0.0659218
0.0741973
0.668706
-0.655548
0.7034
0.749474
0.815396
0.124701
0.295042
-0.243808
-0.175935
0.0817961
0.299714
-0.256809
0.0442615
0.309508
-0.271973
0.0139584
0.299109
-0.268806
0.190294
-0.176336
0.0936016
0.331104
-0.129663
0.0588015
0.334514
0.0287372
0.339572
0.00559114
0.322255
0.195885
0.0578512
0.362959
-0.0897065
0.0286071
0.363758
0.00435518
0.363824
-0.007188
0.333799
0.188697
-0.0136431
0.379478
-0.00287582
-0.029592
0.379707
-0.0364219
0.370654
-0.0271384
0.324515
0.161559
-0.0918717
0.0842442
-0.0921907
-0.0819759
-0.0474178
0.203736
0.099594
-0.257444
-0.0458859
0.149278
0.103325
-0.0488666
0.0932166
0.107598
-0.0515373
0.038177
0.107129
-0.0520894
0.0752814
-0.0371044
0.19893
0.144502
-0.243839
0.151159
0.151097
0.0982249
0.160532
0.0419058
0.163448
0.117187
0.14044
0.189554
-0.185491
0.0987033
0.192833
0.0585167
0.200719
0.0212079
0.200757
0.138395
0.153415
0.222446
-0.186307
0.113939
0.232309
0.0698579
0.2448
0.0270004
0.243614
0.165396
0.0878051
-0.109167
0.0633053
0.0361324
0.0109402
0.40616
0.0469858
-0.0571667
0.428626
0.00820843
-0.0306742
0.411365
0.19857
-0.181309
0.397993
0.167969
-0.154596
0.437279
-0.29673
0.4051
0.0378657
0.42223
-0.00892182
0.399437
0.221362
0.387858
0.179548
0.581298
0.399965
0.0338805
0.415689
-0.0246458
0.377067
0.259984
0.373539
0.183076
0.769346
0.39883
0.0310304
0.398607
-0.0244235
0.363463
0.295128
0.352005
0.194534
0.935044
0.391919
0.0350911
0.382815
-0.0153195
0.33425
0.343693
0.324642
0.204143
1.15052
0.630813
0.00829899
0.632942
-0.0174489
0.680401
0.296233
0.785981
0.0985636
0.961917
0.974582
0.645026
-0.0327062
0.613891
0.0136854
0.701987
0.208138
0.759751
0.0408
0.741619
0.980049
0.637166
-0.0658519
0.622033
0.0288182
0.721786
0.108384
0.779739
-0.0171528
0.518472
1.00289
0.608031
-0.069863
0.646019
-0.00916951
0.747985
0.00641884
0.75165
-0.0208185
0.264715
1.00541
0.534157
0.524988
0.531407
0.510588
0.775304
1.00718
-0.208529
1.00207
-0.12456
1.00716
-0.0947922
1.0118
-0.00752074
0.0517867
0.945162
-0.173642
0.93283
-0.112227
0.91755
-0.0795129
0.932265
-0.0222354
0.0321794
0.940028
-0.110785
0.910799
-0.0829977
0.887295
-0.0560092
0.888969
-0.0239091
0.0152885
0.936768
-0.0421456
0.88988
-0.0361096
0.860335
-0.0264644
0.852348
-0.015922
0.000886352
0.733158
0.697048
0.670584
0.654662
0.0485719
0.17773
-0.226302
0.0695867
0.365133
-0.386148
0.0680135
0.414479
-0.412906
0.0589794
0.411846
-0.402812
0.376917
0.0469542
-0.364892
0.0760544
0.101675
0.141636
0.299552
0.169715
0.3864
0.173608
0.407953
0.38893
0.161595
0.069133
0.0325424
0.178808
0.189877
0.255607
0.3096
0.293633
0.369928
0.397194
0.285369
0.0372993
-0.00475697
0.148603
0.0785728
0.266781
0.191423
0.367559
0.269149
0.344025
0.420728
0.0117105
-0.0164675
0.0786179
0.0116655
0.186847
0.0831936
0.304498
0.151498
0.246205
0.402318
0.00238255
-0.0188501
0.0296057
-0.0155576
0.0956344
0.017165
0.184864
0.0622683
0.149342
0.281728
0.00049304
-0.0193431
0.00713813
-0.0222027
0.0277487
-0.00344555
0.063046
0.026971
0.0819669
0.130421
-0.0040292
-0.0153139
-0.00622179
-0.0200101
-0.00718533
-0.00248201
-0.00727862
0.0270643
0.0689309
0.00575734
0.00542278
-0.0207367
0.0175532
-0.0321406
0.0323654
-0.0172941
0.0441413
0.0152883
0.0604335
0.0526387
0.0156091
0.036951
0.0642001
0.100758
0.147645
0.135598
1.23032
-1.08419
0.0600388
0.399104
-0.323545
0.303668
-0.449207
0.205578
0.353949
-0.175294
0.125014
0.00267409
0.0295452
-0.0881452
1.44889
-0.154093
0.465052
0.338771
-0.942072
0.43521
-0.271733
0.0328566
-0.335928
1.79058
-0.26328
0.392404
0.326367
-1.53172
0.469662
-0.415028
0.0361245
-0.154552
1.99777
0.000247806
0.237604
0.314962
-1.84643
0.474298
-0.574364
0.016295
0.257388
0.324417
0.392859
0.519488
-0.15501
0.609693
-0.454683
-0.157326
0.00231676
0.00231662
-0.159643
0.131471
-0.129154
-0.0553275
0.638761
-1.11326
0.317533
0.363467
0.359327
0.0897377
-0.0102206
-0.0795171
0.141036
-0.0512978
0.216899
-0.0758638
0.342217
-0.125317
-0.112466
0.208197
-0.171464
0.318494
0.527999
0.82341
0.146387
-0.149841
0.180612
-0.177158
0.112188
-0.156413
0.190612
0.0728811
-0.165021
0.204327
0.0299919
-0.166172
0.209061
-0.118414
0.148406
0.189446
-0.109156
-0.230131
0.143659
-0.110626
0.0918289
-0.113191
0.0382157
-0.112559
-0.0801987
0.192142
-0.0584257
-0.242872
0.140278
-0.0587621
0.087415
-0.0603276
0.0357573
-0.0609013
-0.0444414
0.204875
-0.00596156
-0.257339
0.151712
-0.005599
0.0968472
-0.00546292
0.0409811
-0.00503519
-0.00346031
0.209155
-0.261003
0.154689
0.0976892
0.0405647
0.0500092
-0.34379
-0.0711116
0.0218305
-0.374633
-0.00311478
-0.387961
-0.0149967
-0.374266
-0.241298
0.132386
-0.310202
-0.165973
0.0885875
-0.330835
0.0444856
-0.343859
0.010151
-0.339932
-0.231147
0.153826
-0.267548
-0.19648
0.108095
-0.285104
0.0634733
-0.299237
0.0229875
-0.299446
-0.20816
0.172095
-0.229798
-0.209845
0.127073
-0.240082
0.078734
-0.250898
0.0317568
-0.252469
-0.176403
0.167444
-0.21663
0.117975
0.0714039
0.0279966
0.392467
0.0938623
-0.09035
0.39404
0.0887797
-0.0903525
0.360308
0.152354
-0.118623
0.308938
0.0338478
0.0175229
-0.240941
0.372721
0.399701
0.090141
0.409004
0.0794769
0.397713
0.163645
0.35489
0.0766703
-0.116182
0.404479
0.0816413
0.418293
0.0656636
0.411599
0.170339
0.378104
0.110165
0.0190502
0.407852
0.0697686
0.4241
0.0494157
0.420568
0.173871
0.395772
0.134961
0.157484
0.408582
0.427323
0.419885
0.400249
0.417314
0.0927369
0.335891
0.0814227
0.25177
0.0841219
0.266501
-0.0147318
-0.202258
0.468759
0.512438
0.503508
0.469007
0.471798
0.642261
0.376424
0.0923347
0.294087
0.0823371
0.197259
0.0968277
0.114794
0.0824651
0.0352772
0.517966
0.390458
0.290806
0.207298
)
;

boundaryField
{
    left
    {
        type            calculated;
        value           nonuniform List<scalar> 
17
(
-0.60402
-0.60402
-0.60402
-0.60402
-0.60402
-0.39598
-0.39598
-0.39598
-0.39598
-0.39598
-0.39598
-0.39598
-0.39598
-0.39598
-0.39598
-0.510051
-0.510051
)
;
    }
    right
    {
        type            calculated;
        value           nonuniform List<scalar> 
17
(
0.186798
0.333545
0.32173
0.405028
0.466394
0.494128
0.528091
0.532518
0.534456
0.533468
0.502521
0.445581
0.695208
0.655796
0.733924
0.582749
0.0480671
)
;
    }
    down
    {
        type            calculated;
        value           uniform 0;
    }
    up
    {
        type            calculated;
        value           uniform 0;
    }
    cylinder
    {
        type            calculated;
        value           uniform 0;
    }
    defaultFaces
    {
        type            empty;
    }
}


// ************************************************************************* //
