# Selection   : all
# Cells       : 440
# Volume      : 7.374263e+01
# Time        	maxMag(U)
5.315         	2.782576e+00
5.36          	2.790667e+00
5.41          	2.798881e+00
