# Selection   : all
# Cells       : 440
# Volume      : 7.374263e+01
# Time        	max(p)
1.1           	1.913310e+00
1.15          	1.930592e+00
1.2           	1.942732e+00
