/*--------------------------------*- C++ -*----------------------------------*\
  =========                 |
  \\      /  F ield         | OpenFOAM: The Open Source CFD Toolbox
   \\    /   O peration     | Website:  https://openfoam.org
    \\  /    A nd           | Version:  13
     \\/     M anipulation  |
\*---------------------------------------------------------------------------*/
FoamFile
{
    format      ascii;
    class       volScalarField;
    location    "5";
    object      p;
}
// * * * * * * * * * * * * * * * * * * * * * * * * * * * * * * * * * * * * * //

dimensions      [0 2 -2 0 0 0 0];

internalField   nonuniform List<scalar> 
440
(
-0.677473
-0.657936
-0.665555
-0.624962
-0.726135
-0.725166
-0.706025
-0.684197
-0.6569
-0.649482
-0.832233
-0.803109
-0.771282
-0.735266
-0.699971
-0.964307
-0.921215
-0.851221
-0.768334
-0.686614
-1.06843
-1.01174
-0.884315
-0.750695
-0.627032
-0.914948
-0.927503
-0.952133
-0.983038
-1.00645
-0.767425
-0.777925
-0.795983
-0.816223
-0.833371
-0.713493
-0.713267
-0.715599
-0.719929
-0.725589
-0.702722
-0.694937
-0.68747
-0.677735
-0.667513
-0.651358
-0.640401
-0.624212
-0.593175
-0.590987
-1.02886
-1.00924
-0.75724
-0.266488
0.00656194
-0.935763
-1.05914
-0.853917
-0.302434
0.000251909
-0.849496
-1.10432
-0.904002
-0.340871
-0.00978528
-0.763084
-1.11238
-0.896043
-0.367069
-0.0233052
-0.670085
-1.11558
-0.865921
-0.382815
-0.0447139
-0.484224
-1.07562
-0.810961
-0.38865
-0.0782963
-0.417658
-0.846569
-0.695282
-0.400205
-0.117713
-0.370849
-0.617633
-0.580767
-0.41082
-0.150581
-0.285898
-0.45322
-0.516485
-0.403109
-0.144885
-0.236874
-0.310985
-0.430234
-0.422238
-0.162046
-0.411742
-0.532448
-0.667049
-0.804627
-0.871134
-0.193138
-0.323997
-0.401909
-0.456292
-0.463036
-0.0523903
-0.165918
-0.245997
-0.305325
-0.342665
0.0374655
-0.0701103
-0.158723
-0.215818
-0.257325
0.0845839
-0.0261735
-0.116333
-0.173094
-0.211665
0.819663
0.665897
0.472081
0.262871
0.040016
0.421926
0.259655
0.0635113
-0.151236
-0.381234
0.0395448
-0.121619
-0.319778
-0.541588
-0.736973
-0.285182
-0.445318
-0.635218
-0.83852
-0.986274
-0.492743
-0.645696
-0.817933
-0.994331
-1.08953
1.97366
2.00503
2.03333
2.04685
2.04217
1.77782
1.79869
1.81492
1.81376
1.78997
1.55558
1.53869
1.49899
1.43737
1.34928
1.29555
1.25959
1.18703
1.08284
0.950222
1.0472
0.942094
0.805835
0.651774
0.46564
1.69677
1.69153
1.69029
1.77059
1.85498
1.68664
1.68154
1.67127
1.75028
1.76667
1.67754
1.66865
1.64877
1.71991
1.6599
1.66968
1.65366
1.62506
1.66446
1.48665
1.663
1.63849
1.59969
1.62094
1.30585
1.65751
1.61595
1.5662
1.51346
1.10837
1.65375
1.58775
1.55506
1.36706
1.17667
1.66139
1.57519
1.54779
1.3213
1.22126
1.65887
1.54656
1.54059
1.26899
1.27188
1.69543
1.54589
1.53881
1.23793
1.32779
0.796467
0.511938
0.193481
-0.0742635
-0.257411
0.719301
0.523534
0.309302
0.125863
-0.0475073
0.720983
0.553132
0.384687
0.231873
0.0808793
0.791787
0.614149
0.45532
0.310574
0.169822
0.845403
0.660588
0.502859
0.355933
0.219603
-1.68061
-1.53403
-1.36429
-1.22769
-1.14723
-1.76883
-1.69924
-1.5692
-1.46011
-1.39188
-1.70207
-1.65262
-1.56899
-1.49511
-1.4407
-1.54387
-1.50083
-1.45479
-1.41456
-1.38321
-1.40779
-1.38178
-1.35767
-1.34205
-1.34256
-1.34481
-1.33054
-1.3138
-1.3258
-1.30146
-1.31088
-1.30007
-1.28987
-1.29294
-1.28961
-1.29851
-1.29272
-1.29129
-1.29975
-1.31742
-1.24534
-1.25214
-1.27144
-1.30253
-1.33816
-1.09394
-1.1063
-1.13278
-1.16985
-1.20204
-1.25983
-0.766383
-0.349346
-0.125949
-0.0106163
-1.26242
-0.723664
-0.327118
-0.122652
-0.00412823
-1.24356
-0.749932
-0.352974
-0.149805
0.00181656
-1.22567
-0.843124
-0.44524
-0.19431
0.00546959
-1.13546
-0.940172
-0.605336
-0.232437
0.00750219
-0.880777
-0.882133
-0.462418
-0.152048
-0.0151999
-1.15304
-0.826827
-0.386484
-0.131049
-0.0126079
-1.1006
-1.34829
-1.39764
-1.36671
-1.16581
-1.12028
-1.35918
-1.40858
-1.36305
-1.32989
1.58475
1.56088
1.519
1.45997
1.3812
1.78394
1.80315
1.8077
1.79567
1.76703
1.95502
1.9877
2.01312
2.02608
2.02471
2.05593
2.0965
2.14008
2.17521
2.19122
2.06123
2.0986
2.13968
2.17328
2.18812
-0.652824
-0.760295
-0.930393
-1.13458
-1.37367
-0.0313934
-0.169869
-0.353597
-0.574438
-0.85842
0.540749
0.395802
0.223905
0.0223614
-0.232284
0.99554
0.885962
0.752338
0.588658
0.388303
1.36187
1.28322
1.18236
1.06248
0.921301
1.75908
1.72494
1.72562
1.73566
1.74552
1.7439
1.72038
1.7252
1.75537
1.81418
1.73099
1.71494
1.72355
1.77693
1.8917
1.7189
1.70834
1.71694
1.78482
1.9046
1.7074
1.70093
1.70556
1.78301
1.89874
1.81407
1.73285
1.71204
1.65897
1.60537
1.76984
1.722
1.70963
1.68057
1.62322
1.23787
1.00249
0.599824
0.01452
-0.622558
1.32602
1.03811
0.619406
0.0364287
-0.613268
)
;

boundaryField
{
    left
    {
        type            zeroGradient;
    }
    right
    {
        type            fixedValue;
        value           uniform 0;
    }
    down
    {
        type            zeroGradient;
    }
    up
    {
        type            zeroGradient;
    }
    cylinder
    {
        type            zeroGradient;
    }
    defaultFaces
    {
        type            empty;
    }
}


// ************************************************************************* //
