/*--------------------------------*- C++ -*----------------------------------*\
  =========                 |
  \\      /  F ield         | OpenFOAM: The Open Source CFD Toolbox
   \\    /   O peration     | Website:  https://openfoam.org
    \\  /    A nd           | Version:  13
     \\/     M anipulation  |
\*---------------------------------------------------------------------------*/
FoamFile
{
    format      ascii;
    class       volVectorField;
    location    "54.5";
    object      U;
}
// * * * * * * * * * * * * * * * * * * * * * * * * * * * * * * * * * * * * * //

dimensions      [0 1 -1 0 0 0 0];

internalField   nonuniform List<vector> 
440
(
(-0.0810537 0.0903265 -9.12664e-21)
(-0.0676556 0.165171 5.49394e-21)
(0.116684 0.120654 -3.22076e-20)
(0.534058 0.0687917 1.68444e-19)
(0.742465 0.0239087 -4.5116e-20)
(-0.0160996 0.00954151 -2.2363e-21)
(0.172689 -0.0208622 -1.22255e-19)
(0.655116 -0.0671974 -5.3093e-20)
(1.2027 -0.106393 -5.2094e-20)
(1.71111 -0.147041 -6.16861e-20)
(0.0333128 -0.0191688 2.94291e-20)
(0.584844 -0.0868469 8.97216e-19)
(1.35505 -0.0856194 -6.41617e-19)
(1.92812 -0.0684234 -1.95624e-18)
(2.43152 -0.053147 9.52767e-19)
(0.248635 -0.0579254 -1.68079e-19)
(1.26065 -0.0184895 -6.65835e-19)
(2.02228 0.0438055 2.0743e-18)
(2.43817 0.0823161 2.42665e-18)
(2.48167 0.0934525 -6.52036e-19)
(0.60351 -0.00866746 -3.16499e-19)
(1.79233 0.171038 -7.08861e-19)
(2.3283 0.243157 2.21309e-18)
(2.44183 0.25105 2.30943e-18)
(2.51382 0.225291 7.79792e-19)
(0.0134603 -0.151939 3.14714e-20)
(0.0497092 -0.427802 -1.86217e-19)
(0.0251908 -0.507313 3.27013e-19)
(-0.0451173 -0.461232 -7.14116e-20)
(-0.122692 -0.402263 -6.68665e-19)
(0.0326577 -0.141744 3.31628e-20)
(0.0468298 -0.349559 6.00737e-20)
(-0.0414445 -0.334109 7.62325e-20)
(-0.14172 -0.243387 6.54149e-20)
(-0.203784 -0.210904 -1.09752e-19)
(0.0323375 -0.0919647 -3.65378e-19)
(-0.00786917 -0.216971 1.78141e-19)
(-0.120845 -0.195717 -2.52301e-19)
(-0.194201 -0.167205 -2.75068e-19)
(-0.194898 -0.206602 -5.40906e-21)
(-0.0581997 0.0468293 8.71978e-20)
(-0.172026 0.0114278 -2.50611e-19)
(-0.251673 -0.0107091 6.44318e-20)
(-0.235212 -0.0700296 1.31909e-18)
(-0.131888 -0.165289 -2.812e-19)
(-0.126342 0.152384 1.11113e-19)
(-0.165305 0.169306 1.44499e-19)
(-0.0930164 0.0907888 2.82662e-19)
(0.0699228 0.00263149 -2.25294e-19)
(0.252702 -0.06184 -2.39017e-19)
(-0.571775 -0.36492 -2.33767e-19)
(1.23662 0.792779 -2.01367e-18)
(0.231421 1.00647 6.88067e-20)
(1.21106 -0.674716 -1.03489e-19)
(1.19638 -0.717576 5.26226e-21)
(-0.439158 -0.58109 1.6063e-18)
(1.74312 0.539443 3.11243e-19)
(0.710079 1.04104 -1.52477e-19)
(1.50314 -0.720364 -5.85996e-19)
(1.37718 -0.726934 -3.05643e-20)
(0.125033 -0.876503 9.73866e-19)
(1.38979 0.282395 -2.07333e-18)
(0.618838 1.05975 1.36317e-19)
(1.73873 -0.787897 -6.10981e-19)
(1.54511 -0.729772 5.32381e-20)
(0.885159 -1.01658 -3.8909e-19)
(0.113167 0.199619 5.96804e-20)
(0.387066 1.02705 5.2055e-19)
(1.96388 -0.85755 4.31037e-19)
(1.63863 -0.718697 6.36473e-20)
(1.75709 -1.02908 -5.34045e-19)
(-1.19231 0.165124 7.86751e-19)
(0.91784 0.708898 0)
(2.21754 -0.897932 -6.36369e-19)
(1.69149 -0.689272 -7.14479e-21)
(2.52137 -0.616478 -8.41483e-19)
(0.0472909 0.10765 6.46994e-20)
(1.62104 0.112629 3.9025e-20)
(2.428 -0.92439 -4.67638e-19)
(1.7145 -0.635261 7.50018e-21)
(2.18017 -0.633752 7.96028e-20)
(1.00889 0.35217 -3.44264e-19)
(2.20475 -0.069069 1.86091e-20)
(2.52433 -0.788861 1.03095e-18)
(1.60723 -0.47706 0)
(2.02394 -0.21158 -1.81079e-19)
(1.54237 0.13934 8.60897e-21)
(2.45388 -0.380329 4.30757e-19)
(2.14368 -0.671125 -3.33397e-19)
(1.2435 -0.332903 -4.68038e-21)
(1.8314 -0.193407 -7.27198e-20)
(1.87778 0.0450948 1.30987e-19)
(2.17746 -0.296896 4.10524e-20)
(1.47729 -0.392014 6.78468e-34)
(0.605608 -0.144712 3.938e-20)
(1.14092 -0.00578406 3.29804e-20)
(1.29378 -0.0797034 5.20191e-21)
(0.886983 -0.135799 -8.62118e-20)
(0.115221 -0.0217063 7.78365e-20)
(-0.264303 -0.000646641 -5.16367e-21)
(2.35264 0.225183 -9.88048e-19)
(2.61384 0.0344268 -1.32829e-18)
(2.34942 0.0119162 1.16005e-18)
(2.73589 -0.167015 -2.11273e-20)
(1.93281 -0.10112 -1.13338e-19)
(2.0958 0.14005 4.39435e-20)
(2.45413 0.0297509 -4.39871e-20)
(2.18526 -0.0224997 -1.39174e-19)
(2.47029 -0.167139 -2.76399e-19)
(2.24796 -0.233758 -1.20873e-21)
(2.0935 0.0612347 6.85521e-20)
(2.17133 0.0406942 1.18411e-19)
(2.19176 -0.0529951 -1.65209e-19)
(2.18781 -0.0771452 4.94459e-20)
(2.25347 -0.175323 6.7059e-20)
(2.02092 0.0178062 1.13937e-19)
(1.95564 0.0098752 1.15468e-19)
(2.12308 -0.0387315 -1.6162e-20)
(2.01065 -0.0580802 1.65013e-20)
(2.17813 -0.0934147 9.71023e-21)
(1.4477 -0.0150966 1.62975e-19)
(1.40278 -0.00833898 -1.20204e-20)
(1.48406 -0.0278798 2.29846e-20)
(1.38335 -0.0152934 -9.42929e-21)
(1.49803 -0.0434311 3.64545e-20)
(1.58421 0.858255 1.10644e-18)
(1.53873 0.954584 -3.25376e-19)
(1.53482 1.08219 -1.31549e-18)
(1.46949 1.12864 7.36479e-19)
(0.91082 0.820587 -1.84906e-19)
(1.85953 0.799073 -5.76295e-19)
(1.83394 0.882341 -2.99538e-18)
(1.84337 0.993402 -1.16176e-18)
(1.75987 1.00812 -4.25126e-19)
(1.08196 0.712466 -6.82665e-19)
(2.15402 0.691139 7.77612e-19)
(2.13795 0.758178 2.03345e-19)
(2.11863 0.845258 -2.31081e-18)
(1.99083 0.832842 -6.49276e-19)
(1.18101 0.553962 4.93496e-19)
(2.31616 0.561352 2.39464e-18)
(2.31436 0.61325 1.74826e-18)
(2.31699 0.667011 -2.02294e-18)
(2.10359 0.62548 -1.52325e-18)
(1.1543 0.362818 -2.87754e-19)
(2.46114 0.402522 1.19457e-18)
(2.47908 0.426997 -8.65238e-19)
(2.38582 0.44997 6.0594e-19)
(2.05445 0.395641 5.00585e-19)
(0.965114 0.156613 -4.27319e-19)
(0.573934 0.429847 -6.71825e-19)
(0.485753 0.463338 -5.34831e-19)
(0.367571 0.496824 6.76002e-20)
(0.228704 0.50575 -1.80382e-20)
(0.0568409 0.370274 8.17431e-20)
(0.673222 0.607153 1.11701e-19)
(0.609526 0.666781 -3.04871e-19)
(0.522115 0.73546 1.86987e-19)
(0.396076 0.789171 -8.62747e-20)
(0.171224 0.60335 1.22239e-19)
(0.785966 0.791958 1.91176e-19)
(0.71204 0.87013 4.50983e-19)
(0.652551 0.968902 6.87209e-20)
(0.567153 1.02405 -2.95199e-19)
(0.311373 0.768946 2.41125e-19)
(1.04515 0.888757 2.40058e-19)
(1.00032 0.976731 -6.79037e-19)
(0.950005 1.07607 -1.9073e-18)
(0.866911 1.14162 7.76553e-19)
(0.513831 0.856419 -1.84204e-19)
(1.16104 0.909812 -1.36543e-19)
(1.17836 1.03334 -2.14856e-19)
(1.1988 1.15584 -3.43604e-19)
(1.14699 1.1981 -3.99685e-19)
(0.708584 0.87553 -6.56943e-21)
(1.02019 0.0538406 -9.97926e-20)
(0.979802 0.0322421 -3.86352e-20)
(1.04164 0.106861 -1.42248e-21)
(0.947512 0.14252 -3.31307e-19)
(0.883578 0.260549 3.18216e-19)
(1.01029 0.0520645 6.31999e-20)
(0.989184 0.0305402 1.34737e-19)
(1.03514 0.111112 1.26641e-19)
(0.979401 0.175725 4.22283e-20)
(0.927144 0.337158 -3.56068e-21)
(1.01566 0.0513768 8.60439e-20)
(0.971359 0.0250434 -5.02671e-21)
(1.08764 0.126301 -7.03913e-21)
(0.929189 0.180424 1.69173e-19)
(1.12887 0.472102 -4.74574e-19)
(1.00859 0.0522588 -4.6714e-22)
(0.988374 0.0141003 -1.8999e-19)
(1.09601 0.139078 -6.82481e-20)
(0.999351 0.197751 -4.12775e-19)
(1.15974 0.513145 1.03076e-19)
(1.00241 0.0462462 -1.5665e-20)
(0.995802 0.0133374 5.4357e-20)
(1.14729 0.146055 3.32262e-20)
(0.962924 0.223545 4.80039e-19)
(1.42939 0.636963 -4.54497e-19)
(0.96042 0.0490488 -1.10253e-20)
(1.06736 -0.0129349 1.11191e-19)
(1.15249 0.172992 -9.28165e-20)
(1.16807 0.16621 8.47218e-19)
(1.3272 0.652355 -4.1212e-19)
(0.895309 0.0225368 -1.65416e-21)
(1.17037 -0.0351891 -1.09353e-19)
(1.12187 0.115422 4.70413e-21)
(1.21808 0.183152 -2.56693e-19)
(1.35362 0.395555 1.90948e-20)
(0.95474 0.0159675 -6.64601e-21)
(1.15796 -0.0656506 1.44752e-35)
(1.09295 0.125143 -5.75188e-20)
(1.19378 0.124839 7.86011e-20)
(1.49838 0.227964 1.64405e-19)
(1.09834 -0.0411765 4.30315e-21)
(0.99965 -0.0639041 -2.49445e-20)
(1.07332 0.0838319 1.69361e-20)
(1.22891 0.0566088 3.54691e-20)
(1.49406 0.121345 -2.39187e-19)
(1.00847 -0.0255671 -4.27093e-20)
(0.74832 -0.0193452 -3.84926e-21)
(0.868267 0.0142032 2.22971e-20)
(0.937036 -0.00807684 -1.06566e-20)
(1.05713 0.0374129 -5.34328e-20)
(1.80746 0.672201 3.42393e-19)
(1.90112 0.652632 7.96336e-19)
(2.16406 0.543625 -1.1205e-18)
(2.20317 0.481667 3.69048e-20)
(2.43708 0.298351 4.85005e-19)
(1.7816 0.495268 5.19045e-20)
(1.79921 0.422542 1.01577e-18)
(2.05161 0.404799 9.66858e-20)
(1.9815 0.297962 -9.38672e-19)
(2.29541 0.220793 -3.08196e-19)
(1.70659 0.36215 -2.12796e-19)
(1.79614 0.267105 -1.47828e-19)
(1.89605 0.293543 2.59118e-19)
(1.96252 0.169945 -3.03646e-19)
(2.06879 0.168678 2.7068e-19)
(1.62312 0.211049 2.99685e-19)
(1.71194 0.142621 -1.7471e-21)
(1.74293 0.160428 2.19818e-19)
(1.87535 0.0787685 1.91123e-19)
(1.8666 0.0849879 -1.84133e-19)
(1.24459 0.0492352 -3.41278e-20)
(1.27215 0.0275352 2.06412e-19)
(1.32759 0.0266093 1.03132e-19)
(1.3772 0.00212561 -2.25727e-19)
(1.39163 0.00473678 3.5809e-22)
(1.24026 -0.0328479 5.26494e-20)
(2.31528 -0.0443637 -4.64648e-19)
(2.54739 -0.03329 1.30029e-18)
(2.54528 0.0134613 5.93363e-19)
(2.35527 0.0371742 -3.90183e-19)
(0.763742 0.0909951 9.15965e-20)
(2.08926 0.08728 -4.79097e-19)
(2.56431 0.0915818 -6.51984e-19)
(2.59131 0.106671 8.29401e-19)
(2.37021 0.0992507 -5.46644e-19)
(0.200134 0.0727503 -4.01414e-20)
(1.42864 0.151919 5.04217e-19)
(2.23348 0.186709 8.30551e-20)
(2.64004 0.186705 6.25777e-19)
(2.73586 0.184249 3.54892e-19)
(-0.0762759 -0.0425164 2.23384e-19)
(0.509609 0.075691 2.22577e-19)
(1.41004 0.167133 -5.05824e-19)
(1.9651 0.222198 3.38972e-20)
(2.61093 0.260657 1.75216e-19)
(-0.135459 -0.112113 1.61774e-19)
(-0.0312442 -0.0702103 -1.77332e-19)
(0.520508 0.0410039 -1.83323e-20)
(1.01957 0.0909171 3.41382e-20)
(1.61457 0.216475 -2.0744e-20)
(-0.104485 -0.113357 3.58511e-20)
(-0.176927 -0.154013 1.10736e-19)
(-0.0213123 -0.155448 6.13738e-20)
(0.162533 -0.12987 -4.76675e-20)
(0.739246 0.00015992 1.41867e-20)
(-0.0599752 -0.0793935 -1.22494e-20)
(-0.154717 -0.17272 -7.66303e-20)
(-0.166853 -0.236854 -3.92503e-20)
(-0.12632 -0.252641 -2.59309e-20)
(0.0829634 -0.128601 -2.47496e-21)
(-0.025783 -0.0494465 7.45222e-21)
(-0.082617 -0.179915 2.4364e-19)
(-0.105922 -0.301025 -2.28575e-19)
(-0.0952938 -0.378605 -6.17634e-19)
(-0.0602019 -0.367475 1.44115e-19)
(-0.0154319 -0.0720694 -1.82606e-20)
(-0.0281264 -0.278677 -1.17336e-19)
(-0.0119872 -0.455485 3.19664e-19)
(0.0145871 -0.550966 2.42869e-19)
(0.0264451 -0.588249 -5.45237e-20)
(-0.00850158 -0.119781 1.26804e-20)
(0.00735655 -0.392301 -4.01823e-20)
(0.0211329 -0.554093 1.30584e-20)
(0.00833271 -0.588633 3.69495e-21)
(-0.0169056 -0.554217 -1.31969e-19)
(1.43538 0.681859 -2.6929e-20)
(1.7354 0.383969 3.74733e-19)
(0.571245 0.378831 1.37964e-19)
(-0.336558 -0.161747 3.91953e-20)
(0.641188 -0.401422 -3.24453e-20)
(1.16677 0.513462 1.15676e-20)
(1.78918 0.437011 1.17225e-19)
(0.41647 0.593116 9.0581e-19)
(-0.00711502 -0.199754 -4.11299e-21)
(0.64916 -0.515503 1.43963e-19)
(0.999551 0.262475 2.35503e-19)
(1.62802 0.613232 5.90708e-19)
(0.0396482 0.775408 -2.96981e-20)
(0.283837 -0.278363 -1.31647e-18)
(0.719677 -0.592571 -3.45894e-20)
(0.592104 -0.113766 1.58387e-19)
(1.51298 0.659384 -8.00577e-19)
(-0.150269 0.906038 -4.93423e-19)
(0.609176 -0.422606 2.96171e-21)
(0.841624 -0.658702 -6.60362e-20)
(-0.129988 -0.200317 -2.25115e-20)
(1.17164 0.859022 1.61431e-19)
(-0.145873 1.00473 3.06591e-19)
(0.953711 -0.549584 -6.39353e-20)
(1.02499 -0.687321 -1.26256e-19)
(-0.0150494 0.175695 -4.78242e-20)
(-0.317223 -0.181536 0)
(-0.480317 -0.0960077 2.33136e-21)
(-0.445688 -0.0858035 -1.86452e-20)
(0.392087 -0.0497207 1.22356e-20)
(1.85541 0.614695 0)
(1.32217 0.351602 0)
(0.361679 0.102511 -1.90473e-19)
(-0.471508 -0.16045 -8.97133e-20)
(0.670061 -0.229175 8.88985e-20)
(0.752386 0.00336877 -1.20925e-19)
(0.782789 -0.00814564 9.97158e-20)
(1.06355 0.0188224 -4.55366e-20)
(0.936843 -0.00172845 3.63978e-19)
(1.47518 0.130039 2.52055e-19)
(1.70062 0.0316197 1.13531e-19)
(1.88485 0.0721495 2.19414e-19)
(2.05255 0.0709521 -4.64343e-19)
(2.592 0.217283 5.60152e-20)
(2.42433 0.187147 2.33301e-19)
(0.927917 -0.496248 1.53303e-20)
(0.915801 -0.588762 -1.71596e-19)
(0.911759 -0.689481 -1.56589e-19)
(0.84299 -0.759255 9.36105e-20)
(0.510879 -0.593282 1.25184e-19)
(0.832835 -0.40688 1.20763e-19)
(0.777317 -0.472869 2.11271e-19)
(0.700832 -0.54312 -6.86383e-20)
(0.583237 -0.602333 1.26534e-19)
(0.316617 -0.474516 3.54184e-20)
(0.655395 -0.269802 -1.52372e-19)
(0.562759 -0.309811 -4.71404e-20)
(0.461466 -0.361531 6.76639e-20)
(0.34728 -0.40726 -3.01202e-20)
(0.157481 -0.319912 -1.11627e-19)
(0.556037 -0.0365359 -4.4747e-19)
(0.471995 -0.0537932 -3.68371e-19)
(0.364522 -0.0823763 2.91898e-19)
(0.237967 -0.11861 1.77731e-19)
(0.0692064 -0.109349 1.39313e-20)
(0.527444 0.16663 -1.73691e-19)
(0.44224 0.16925 -1.77012e-19)
(0.32665 0.170296 -7.02986e-20)
(0.190449 0.174484 3.06926e-20)
(0.0304483 0.132606 1.36777e-20)
(2.11518 -0.0366634 8.38641e-19)
(2.35834 -0.106906 3.10318e-19)
(2.44625 -0.196248 -7.92712e-19)
(2.30303 -0.222123 -1.63917e-18)
(1.39255 -0.20367 1.16513e-19)
(2.07366 -0.126391 1.41445e-18)
(2.17762 -0.238725 1.84043e-18)
(2.18971 -0.36256 1.49846e-19)
(2.11275 -0.424393 2.55318e-19)
(1.35978 -0.382055 -1.69221e-19)
(1.79161 -0.293701 -3.66745e-18)
(1.83977 -0.411583 4.43064e-19)
(1.88215 -0.538505 1.14218e-18)
(1.82642 -0.616276 -4.58398e-19)
(1.18878 -0.529639 7.13978e-19)
(1.55529 -0.416883 8.83276e-19)
(1.57225 -0.515717 -2.29614e-18)
(1.56006 -0.635137 -2.68965e-18)
(1.49245 -0.726683 8.39372e-19)
(0.962255 -0.604015 5.36144e-19)
(1.264 -0.480468 1.96192e-19)
(1.20925 -0.574159 2.39624e-19)
(1.1939 -0.697251 -4.05664e-19)
(1.13737 -0.785314 -4.91018e-19)
(0.718713 -0.625365 -4.71333e-21)
(1.06677 0.0571387 7.69225e-21)
(0.918537 0.0509547 -4.86845e-21)
(1.13176 0.0719965 -6.89115e-21)
(0.800524 0.000865649 -2.04243e-19)
(1.15058 -0.22786 -8.65339e-21)
(1.07631 0.0610691 -2.57796e-21)
(0.916308 0.0477674 5.25072e-20)
(1.12532 0.0891802 -4.65e-20)
(0.88699 0.0464481 9.48564e-20)
(1.01172 -0.11107 -2.19859e-20)
(1.07447 0.0589203 -6.31181e-20)
(0.920107 0.0427509 5.76586e-22)
(1.11138 0.0894091 -1.82859e-20)
(0.88149 0.0686122 8.67961e-21)
(0.98118 -0.0532161 -1.76492e-19)
(1.05576 0.0578779 7.69506e-20)
(0.948526 0.0381301 3.45386e-21)
(1.0707 0.0942492 3.25128e-20)
(0.927167 0.0951076 4.30051e-20)
(0.869158 0.0613344 1.10889e-19)
(1.03228 0.0550447 1.93219e-20)
(0.975256 0.0366505 -3.16582e-20)
(1.03997 0.0972904 4.37295e-20)
(0.951739 0.125163 9.02305e-20)
(0.839422 0.154462 -9.97755e-20)
(0.889053 0.0337428 0)
(0.705718 0.0275941 9.81975e-21)
(0.619703 0.0224751 3.02278e-21)
(0.353216 -0.00744041 3.56614e-20)
(0.699434 -0.0584068 -1.20182e-19)
(1.0346 0.075687 -6.51766e-20)
(0.929591 0.0683193 -1.63883e-20)
(1.04069 0.0738595 -3.47625e-20)
(0.814031 -0.00128589 -1.10789e-19)
(1.05903 -0.206876 -1.24398e-19)
(0.98011 -0.0645131 -2.84528e-20)
(1.06499 -0.0341528 4.86696e-19)
(1.16331 0.0375137 3.08024e-19)
(1.03087 0.0585389 2.18945e-20)
(0.799494 0.0310372 0)
(1.34901 -0.320747 2.86681e-19)
(1.46705 -0.282545 1.45563e-18)
(1.65158 -0.162861 -1.66517e-18)
(1.74483 -0.0213216 -5.26068e-19)
(1.6638 0.0311806 3.79479e-19)
)
;

boundaryField
{
    left
    {
        type            fixedValue;
        value           uniform (1 0 0);
    }
    right
    {
        type            zeroGradient;
    }
    down
    {
        type            noSlip;
    }
    up
    {
        type            noSlip;
    }
    cylinder
    {
        type            noSlip;
    }
    defaultFaces
    {
        type            empty;
    }
}


// ************************************************************************* //
