/*--------------------------------*- C++ -*----------------------------------*\
  =========                 |
  \\      /  F ield         | OpenFOAM: The Open Source CFD Toolbox
   \\    /   O peration     | Website:  https://openfoam.org
    \\  /    A nd           | Version:  13
     \\/     M anipulation  |
\*---------------------------------------------------------------------------*/
FoamFile
{
    format      ascii;
    class       volScalarField;
    location    "0.6";
    object      p;
}
// * * * * * * * * * * * * * * * * * * * * * * * * * * * * * * * * * * * * * //

dimensions      [0 2 -2 0 0 0 0];

internalField   nonuniform List<scalar> 
1800
(
-1.14163
-1.13511
-1.12003
-1.08556
-1.02796
-0.951671
-0.865938
-0.778687
-0.694919
-0.623568
-1.31428
-1.30683
-1.28771
-1.24588
-1.17845
-1.09208
-0.997566
-0.903721
-0.8167
-0.743118
-1.48002
-1.47094
-1.44627
-1.3953
-1.31654
-1.21923
-1.11534
-1.01375
-0.919773
-0.838015
-1.63488
-1.62359
-1.59186
-1.53019
-1.43937
-1.33147
-1.21934
-1.11151
-1.01261
-0.92631
-1.77454
-1.76036
-1.72007
-1.64615
-1.54256
-1.42409
-1.30395
-1.19003
-1.08621
-0.994927
-1.8944
-1.87658
-1.82655
-1.73944
-1.62336
-1.49541
-1.36869
-1.25018
-1.1429
-1.04831
-1.98917
-1.96693
-1.90639
-1.80556
-1.6776
-1.54121
-1.40889
-1.28656
-1.17637
-1.07892
-2.05368
-2.02645
-1.95508
-1.84101
-1.70267
-1.55965
-1.4234
-1.29862
-1.18664
-1.08739
-2.08281
-2.0503
-1.96802
-1.84193
-1.69516
-1.54739
-1.40871
-1.28264
-1.16978
-1.06952
-2.07259
-2.03481
-1.94226
-1.80623
-1.65357
-1.50329
-1.36393
-1.2379
-1.12516
-1.02473
0.155248
0.159177
0.167772
0.182598
0.201005
0.221163
0.240874
0.258461
0.272826
0.283202
0.111521
0.115497
0.124106
0.138815
0.158038
0.179697
0.201507
0.221604
0.238747
0.252208
0.0419424
0.0460271
0.0545688
0.069534
0.0900592
0.114172
0.139393
0.163521
0.185071
0.203389
-0.0519058
-0.0476284
-0.0392527
-0.0237667
-0.00139494
0.0261186
0.0559959
0.0855468
0.112946
0.137671
-0.167699
-0.163321
-0.155371
-0.139035
-0.114199
-0.0823367
-0.0466663
-0.0105109
0.0238708
0.0562152
-0.302965
-0.298541
-0.290444
-0.273066
-0.245244
-0.208264
-0.165947
-0.122392
-0.0803707
-0.0397852
-0.454113
-0.449651
-0.441145
-0.422319
-0.390921
-0.348203
-0.298747
-0.247521
-0.19783
-0.149211
-0.617269
-0.612736
-0.603597
-0.582696
-0.546943
-0.497833
-0.440915
-0.382097
-0.325146
-0.269409
-0.788561
-0.783781
-0.773605
-0.749641
-0.708246
-0.651525
-0.586269
-0.519389
-0.454976
-0.392828
-0.963951
-0.95894
-0.947032
-0.918622
-0.869847
-0.803792
-0.728569
-0.651875
-0.578035
-0.509069
0.305863
0.225758
0.17992
0.143271
0.112823
0.0878532
0.0662199
0.0464079
0.027559
0.00919108
0.290581
0.21829
0.177598
0.14215
0.112028
0.0872137
0.0656985
0.0460181
0.0273127
0.00908713
0.267115
0.20635
0.173497
0.140268
0.110907
0.0864481
0.0651401
0.0456277
0.0270744
0.00898578
0.23506
0.190754
0.167592
0.13759
0.109454
0.0855508
0.0645383
0.0452313
0.0268405
0.00888648
0.193967
0.17236
0.159907
0.13409
0.107668
0.0845175
0.063888
0.0448239
0.0266077
0.00878904
0.14315
0.151988
0.150622
0.129779
0.105547
0.0833449
0.0631849
0.0444013
0.0263731
0.00869363
0.0809039
0.129923
0.139987
0.124743
0.103107
0.0820367
0.0624282
0.0439602
0.0261343
0.00860093
0.00471253
0.105068
0.12792
0.118993
0.100343
0.0805916
0.0616166
0.0434977
0.0258895
0.00851242
-0.0858172
0.0755535
0.113994
0.112301
0.0971273
0.0789489
0.0607226
0.043
0.0256324
0.00842988
-0.183375
0.0417736
0.0985713
0.104745
0.093436
0.0770766
0.0597231
0.0424519
0.0253531
0.00835436
-0.234343
0.0146009
0.081934
0.0945437
0.0874182
0.0735016
0.0575478
0.0411241
0.0246437
0.00818147
-0.237836
-0.012033
0.0586924
0.078299
0.0771668
0.0671898
0.0536465
0.038744
0.0233623
0.00778289
-0.225831
-0.0252355
0.0460516
0.067385
0.0690093
0.0616242
0.0500035
0.0364561
0.0221061
0.00738461
-0.212009
-0.0389861
0.0324402
0.056297
0.0609092
0.056121
0.0464025
0.0341954
0.0208576
0.00698039
-0.196872
-0.0484565
0.0213431
0.0467835
0.0535928
0.0509701
0.0429684
0.0320208
0.0196455
0.00658109
-0.182971
-0.0558169
0.0112
0.0381337
0.0468976
0.0461897
0.0397486
0.0299703
0.0184913
0.00619346
-0.172094
-0.0618785
0.00201261
0.03033
0.040871
0.0418525
0.0368041
0.0280856
0.017416
0.00582276
-0.164925
-0.067723
-0.00652755
0.0232376
0.035521
0.0380229
0.0341985
0.0264129
0.0164435
0.00547909
-0.162132
-0.0731398
-0.0139687
0.0171237
0.0309687
0.0347712
0.0319787
0.024981
0.015577
0.00515346
-0.165728
-0.0813768
-0.0222138
0.0110932
0.0268932
0.0319944
0.0301158
0.0237902
0.0148522
0.00488838
-0.85569
-0.898608
-0.918454
-0.915316
-0.892984
-0.851123
-0.795725
-0.724925
-0.646555
-0.558174
-0.674561
-0.716634
-0.739916
-0.744249
-0.732677
-0.704956
-0.665603
-0.615884
-0.55957
-0.500815
-0.534334
-0.574664
-0.599154
-0.608156
-0.603246
-0.58517
-0.556356
-0.519563
-0.475834
-0.430734
-0.425424
-0.464744
-0.48994
-0.501928
-0.501185
-0.489364
-0.46762
-0.439064
-0.404124
-0.367668
-0.341821
-0.380265
-0.405889
-0.419884
-0.422174
-0.4147
-0.39812
-0.375413
-0.347104
-0.317106
-0.277856
-0.31562
-0.341702
-0.357184
-0.361842
-0.357571
-0.34496
-0.326571
-0.303109
-0.277573
-0.229702
-0.26729
-0.294062
-0.310808
-0.317366
-0.315444
-0.305767
-0.29046
-0.270465
-0.248159
-0.195188
-0.233124
-0.26089
-0.278903
-0.287177
-0.287104
-0.279509
-0.266076
-0.248211
-0.227428
-0.176861
-0.215113
-0.243268
-0.262257
-0.272262
-0.273912
-0.268384
-0.256161
-0.239477
-0.218119
-0.165746
-0.205667
-0.236013
-0.257251
-0.269451
-0.273395
-0.269981
-0.259715
-0.244366
-0.223218
0.560665
0.504761
0.440597
0.371454
0.296128
0.212449
0.12031
0.0247698
-0.0561703
-0.0958647
0.366352
0.304296
0.234995
0.158635
0.0734721
-0.0221134
-0.127457
-0.236076
-0.327224
-0.371311
0.154093
0.0880593
0.0147091
-0.067309
-0.159993
-0.264708
-0.380368
-0.499437
-0.598874
-0.646206
-0.0522337
-0.123134
-0.202367
-0.291505
-0.392331
-0.506012
-0.63117
-0.759394
-0.865972
-0.915431
-0.244248
-0.32135
-0.407812
-0.505032
-0.614565
-0.737397
-0.871819
-1.00835
-1.12122
-1.17148
-0.42132
-0.504992
-0.598829
-0.704031
-0.821961
-0.953447
-1.09651
-1.24037
-1.35643
-1.40648
-0.583171
-0.672772
-0.773207
-0.885526
-1.01097
-1.15011
-1.30051
-1.44918
-1.56367
-1.6139
-0.727443
-0.821918
-0.927779
-1.0459
-1.17738
-1.32294
-1.47742
-1.62641
-1.73911
-1.78834
-0.850933
-0.949034
-1.05876
-1.18114
-1.31702
-1.46595
-1.62229
-1.76984
-1.87834
-1.92499
-0.951392
-1.05121
-1.16296
-1.28778
-1.42618
-1.57678
-1.73262
-1.87595
-1.97751
-2.02017
1.81346
1.82925
1.84661
1.86421
1.88085
1.89574
1.90819
1.91789
1.926
1.93287
1.75397
1.76744
1.78196
1.79629
1.80933
1.82028
1.82845
1.83374
1.83803
1.84251
1.67448
1.68477
1.69537
1.70516
1.7132
1.71868
1.72091
1.72007
1.719
1.72024
1.57558
1.58209
1.58783
1.59192
1.5936
1.59209
1.58671
1.57799
1.57005
1.56735
1.45734
1.45941
1.45951
1.45699
1.45135
1.4418
1.42769
1.40988
1.39384
1.38674
1.32317
1.3206
1.31414
1.30372
1.28927
1.27004
1.24547
1.21691
1.19144
1.17938
1.1731
1.16535
1.15218
1.13378
1.11027
1.08091
1.04519
1.00504
0.969354
0.951925
1.01505
1.00109
0.979144
0.950523
0.91604
0.875008
0.826998
0.774459
0.728111
0.704982
0.853278
0.833092
0.802074
0.76259
0.716017
0.66173
0.59954
0.532813
0.474699
0.445743
0.700266
0.665409
0.6194
0.566117
0.506274
0.438386
0.362069
0.281406
0.211955
0.177501
1.61685
1.49684
1.58718
1.52572
1.53413
1.54477
1.55689
1.58796
1.64194
1.74483
1.61052
1.4915
1.5818
1.51943
1.5268
1.53549
1.54482
1.57115
1.61692
1.70594
1.60474
1.48606
1.57652
1.51265
1.51896
1.52533
1.53111
1.55137
1.58616
1.65571
1.59949
1.48055
1.57139
1.50541
1.51064
1.5143
1.5158
1.52851
1.55
1.59358
1.59474
1.47503
1.5664
1.49775
1.50187
1.50237
1.49889
1.50248
1.50881
1.51856
1.59049
1.46956
1.56157
1.48967
1.49268
1.48955
1.48037
1.47323
1.46301
1.43003
1.58676
1.4642
1.5569
1.48122
1.4831
1.47582
1.46022
1.44062
1.41296
1.32637
1.58355
1.459
1.55236
1.47241
1.47316
1.46121
1.43839
1.40483
1.35848
1.20879
1.58091
1.45401
1.54793
1.46329
1.46287
1.44575
1.41492
1.36606
1.29844
1.07597
1.57893
1.44933
1.54358
1.45389
1.45228
1.42954
1.39028
1.32605
1.23522
0.93775
1.57598
1.44405
1.53778
1.44347
1.43819
1.40845
1.35789
1.27495
1.15814
0.801468
1.57589
1.43881
1.53135
1.4333
1.42242
1.38596
1.32503
1.22793
1.09061
0.759657
1.57746
1.43447
1.52551
1.42387
1.40771
1.3653
1.29537
1.18896
1.03682
0.732821
1.58132
1.43115
1.52033
1.41535
1.39429
1.34677
1.26907
1.15718
0.992829
0.716715
1.58787
1.42879
1.5158
1.4078
1.38241
1.33057
1.2465
1.13141
0.958254
0.707986
1.59769
1.42742
1.51196
1.40134
1.37226
1.31684
1.22781
1.11082
0.932826
0.70266
1.61078
1.42634
1.50709
1.39574
1.36391
1.30567
1.21304
1.09498
0.915116
0.699516
1.63243
1.42849
1.50651
1.39147
1.3576
1.29716
1.20218
1.08369
0.903526
0.698865
1.64563
1.42393
1.49867
1.38825
1.35345
1.29139
1.19527
1.07696
0.897183
0.70123
1.70936
1.43472
1.50035
1.38576
1.35239
1.28835
1.19201
1.07346
0.894571
0.702844
0.537225
0.374003
0.185355
0.00264131
-0.165641
-0.320007
-0.461746
-0.589508
-0.699807
-0.789
0.477323
0.349143
0.20472
0.0595643
-0.0783098
-0.206997
-0.326259
-0.435778
-0.532444
-0.612898
0.451232
0.343699
0.228828
0.109762
-0.00794486
-0.120668
-0.225793
-0.321849
-0.406674
-0.478368
0.449647
0.352346
0.253355
0.15188
0.0490733
-0.0514732
-0.14566
-0.231415
-0.307499
-0.372962
0.458879
0.367623
0.277511
0.187606
0.0961857
0.00527378
-0.0808987
-0.159797
-0.230298
-0.291737
0.471163
0.384882
0.30082
0.218564
0.13521
0.0511742
-0.0296478
-0.10416
-0.170972
-0.229527
0.483517
0.401425
0.321926
0.244744
0.166616
0.0871973
0.0101214
-0.0612481
-0.125472
-0.18217
0.495533
0.416498
0.340199
0.266047
0.190806
0.114084
0.0393341
-0.0301454
-0.0928703
-0.148313
0.508721
0.432579
0.35845
0.284985
0.209889
0.13356
0.0592014
-0.0103209
-0.0734642
-0.129423
0.522115
0.449424
0.376744
0.302297
0.225649
0.148794
0.0743858
0.00435777
-0.0598176
-0.116948
-2.57526
-2.51169
-2.37132
-2.19997
-2.0316
-1.8809
-1.75147
-1.64325
-1.55601
-1.49071
-2.64115
-2.5867
-2.46463
-2.30706
-2.14598
-1.99806
-1.86853
-1.75836
-1.66847
-1.60151
-2.61643
-2.57119
-2.47146
-2.33421
-2.18559
-2.04357
-1.91557
-1.8038
-1.70996
-1.63716
-2.51638
-2.47975
-2.40347
-2.29167
-2.16085
-2.02855
-1.90462
-1.79314
-1.69676
-1.61867
-2.36445
-2.33578
-2.28139
-2.19719
-2.08821
-1.96902
-1.85149
-1.74204
-1.64441
-1.56142
-2.18614
-2.16438
-2.12917
-2.07055
-1.98421
-1.87898
-1.76797
-1.6605
-1.56273
-1.4781
-2.00132
-1.98569
-1.96593
-1.92904
-1.86305
-1.77032
-1.66387
-1.55656
-1.45706
-1.3708
-1.816
-1.80646
-1.79877
-1.77853
-1.72788
-1.6435
-1.53664
-1.42246
-1.31406
-1.21866
-1.62021
-1.61693
-1.61791
-1.60862
-1.56822
-1.48998
-1.38231
-1.26196
-1.14343
-1.04825
-1.39809
-1.39862
-1.40377
-1.39839
-1.3629
-1.2896
-1.18351
-1.05953
-0.927839
-0.814867
-1.14489
-1.14565
-1.14926
-1.14155
-1.10748
-1.04107
-0.945996
-0.834865
-0.717212
-0.599785
-0.876367
-0.875128
-0.872696
-0.861051
-0.826916
-0.768336
-0.688365
-0.596177
-0.499721
-0.398987
-0.619207
-0.615963
-0.608559
-0.591399
-0.558144
-0.507289
-0.441767
-0.367871
-0.291192
-0.211155
-0.39303
-0.388558
-0.378521
-0.359078
-0.327834
-0.284545
-0.232024
-0.174619
-0.116082
-0.0569928
-0.206713
-0.201847
-0.191032
-0.171823
-0.143737
-0.107727
-0.0663925
-0.0229218
0.0200767
0.0613202
-0.0612789
-0.0565669
-0.0460896
-0.0282585
-0.00308965
0.026724
0.0592455
0.0920001
0.123061
0.151068
0.0461993
0.0506241
0.0605132
0.0770507
0.0992209
0.124501
0.150748
0.175952
0.198622
0.217597
0.119202
0.123387
0.132721
0.148222
0.168295
0.190454
0.212549
0.232828
0.250066
0.263282
0.160528
0.164561
0.173525
0.188324
0.207138
0.227503
0.247267
0.264814
0.279059
0.289144
0.172116
0.176048
0.184773
0.199328
0.217625
0.237368
0.256393
0.273105
0.286464
0.295675
-0.112787
0.0819908
0.113213
0.115223
0.10542
0.0898957
0.0715483
0.051829
0.0314001
0.0106202
0.0174981
0.112207
0.127559
0.122177
0.107309
0.0898516
0.0708372
0.0510425
0.0308299
0.0104215
0.115289
0.134771
0.138919
0.12607
0.108787
0.0897793
0.0701897
0.050332
0.0303166
0.0102408
0.181371
0.153364
0.148997
0.130848
0.110161
0.0897114
0.0696067
0.0496908
0.0298528
0.0100753
0.227678
0.17146
0.158188
0.134862
0.111308
0.0896233
0.0690733
0.0491093
0.0294327
0.00992299
0.262268
0.189038
0.166048
0.138096
0.112225
0.0895033
0.0685771
0.0485789
0.0290513
0.00978191
0.287642
0.204692
0.172158
0.140568
0.112902
0.0893352
0.0681048
0.048091
0.0287037
0.00965038
0.304372
0.217216
0.176597
0.14231
0.113319
0.0891015
0.0676441
0.0476377
0.0283851
0.00952684
0.312795
0.2252
0.179381
0.143338
0.113457
0.0887859
0.0671835
0.0472109
0.0280911
0.00940991
0.31324
0.228135
0.180502
0.14366
0.113296
0.0883739
0.066712
0.0468034
0.0278171
0.00929836
-0.459745
-0.0834272
0.0489547
0.087934
0.0945269
0.0863503
0.071088
0.0524545
0.0322055
0.0110049
-0.443965
-0.0685871
0.0543312
0.0901193
0.0952677
0.0865179
0.0710133
0.0523084
0.0320636
0.0109445
-0.377334
-0.0362582
0.0647686
0.0940797
0.0967711
0.0869799
0.0710426
0.0521982
0.0319259
0.0108764
-0.284203
0.00532321
0.0792512
0.0998877
0.0992238
0.087887
0.0712748
0.0521715
0.0318221
0.0108173
-0.196343
0.0557715
0.10101
0.109083
0.102878
0.0892348
0.0716936
0.0522234
0.0317561
0.0107743
-1.43264
-1.53737
-1.5719
-1.55523
-1.48533
-1.40707
-1.29348
-1.17422
-1.03648
-0.876075
-1.43133
-1.5356
-1.56529
-1.54302
-1.4673
-1.38946
-1.27834
-1.15974
-1.02764
-0.860058
-1.43339
-1.53753
-1.56437
-1.53881
-1.46242
-1.38269
-1.27216
-1.14485
-1.00396
-0.823903
-1.44202
-1.54756
-1.57432
-1.54757
-1.47518
-1.39091
-1.28122
-1.13704
-0.979441
-0.785182
-1.4583
-1.56675
-1.59569
-1.57026
-1.50421
-1.41778
-1.30822
-1.15121
-0.975892
-0.754376
1.35212
1.33328
1.30598
1.27384
1.23778
1.19622
1.14793
1.09501
1.04854
1.02516
1.46449
1.46165
1.45063
1.43326
1.41085
1.38275
1.34835
1.30962
1.27576
1.25955
1.57352
1.57579
1.57231
1.56434
1.55276
1.53703
1.51642
1.49207
1.47068
1.4609
1.66718
1.67434
1.67873
1.68032
1.67905
1.67416
1.66489
1.65196
1.64046
1.63608
1.7477
1.75882
1.76839
1.77611
1.78162
1.78421
1.78314
1.77888
1.77513
1.77509
1.80814
1.82195
1.83573
1.84874
1.86024
1.86946
1.87565
1.87886
1.88148
1.88512
1.84953
1.86558
1.88246
1.8992
1.91481
1.92855
1.93966
1.94796
1.955
1.96134
1.87075
1.8881
1.9069
1.92599
1.94424
1.96088
1.97518
1.98676
1.99659
2.00463
1.87189
1.88965
1.90918
1.9292
1.94847
1.96625
1.9818
1.99467
2.0056
2.01429
1.8528
1.87004
1.88909
1.9086
1.92732
1.94451
1.95943
1.97167
1.98202
1.99031
-1.30163
-1.36815
-1.45427
-1.56049
-1.68832
-1.83906
-2.01034
-2.19002
-2.3429
-2.41419
-1.0402
-1.10931
-1.19594
-1.30097
-1.42648
-1.57405
-1.74308
-1.92833
-2.08817
-2.1643
-0.724493
-0.796741
-0.884702
-0.989004
-1.11168
-1.25484
-1.41906
-1.5979
-1.76184
-1.84088
-0.381433
-0.45622
-0.544747
-0.647389
-0.76598
-0.902872
-1.05885
-1.22839
-1.38384
-1.46516
-0.0401901
-0.115344
-0.201961
-0.30026
-0.411938
-0.539514
-0.684117
-0.840739
-0.98315
-1.06041
0.275538
0.204344
0.123774
0.0336826
-0.0676672
-0.182902
-0.313178
-0.453789
-0.580701
-0.650296
0.557449
0.494469
0.423721
0.345029
0.256506
0.155542
0.0411522
-0.0820887
-0.192415
-0.252612
0.81295
0.759291
0.698944
0.631947
0.556219
0.469257
0.370401
0.264137
0.169959
0.119364
1.04908
1.00295
0.949606
0.891079
0.825698
0.751147
0.666924
0.577086
0.498461
0.457127
1.24705
1.20733
1.1589
1.10765
1.05291
0.992238
0.924548
0.852711
0.7903
0.758147
1.72328
1.53355
1.63313
1.55361
1.57703
1.58754
1.59299
1.60661
1.59334
1.49921
1.70772
1.53216
1.63062
1.55404
1.57502
1.58725
1.59499
1.61474
1.61934
1.57514
1.69355
1.53005
1.62732
1.55377
1.57258
1.5862
1.59654
1.62248
1.64199
1.64784
1.68069
1.52732
1.62337
1.55277
1.56968
1.5843
1.59672
1.62746
1.65984
1.7023
1.66898
1.52406
1.61891
1.55101
1.56629
1.58147
1.59553
1.62997
1.67275
1.74435
1.65829
1.52033
1.61405
1.54849
1.56235
1.57768
1.59294
1.62988
1.68087
1.77307
1.64851
1.51622
1.6089
1.54524
1.55786
1.57294
1.58888
1.62707
1.68408
1.7898
1.63954
1.51176
1.60356
1.5413
1.55279
1.56727
1.58329
1.62146
1.68199
1.79508
1.63132
1.50702
1.59812
1.5367
1.54714
1.56067
1.57612
1.61307
1.67437
1.78936
1.62377
1.50203
1.59263
1.53149
1.54092
1.55317
1.56733
1.6019
1.66106
1.77262
1.87124
1.53932
1.62979
1.55195
1.57678
1.57959
1.57298
1.56334
1.48956
1.39228
1.80627
1.53281
1.62941
1.55307
1.57673
1.58097
1.57445
1.56645
1.49622
1.39254
1.78561
1.53657
1.63357
1.55371
1.57737
1.58255
1.57754
1.57232
1.51067
1.39585
1.76154
1.53594
1.63451
1.5538
1.57778
1.58436
1.58205
1.58124
1.53115
1.4067
1.74074
1.53471
1.63448
1.55344
1.57793
1.58617
1.58699
1.59241
1.55724
1.42241
1.08231
0.947825
0.767581
0.53132
0.244551
-0.0755038
-0.408223
-0.73144
-1.02213
-1.25944
1.07647
0.944582
0.771515
0.54301
0.264078
-0.0513477
-0.384349
-0.712342
-1.01032
-1.2546
1.0963
0.958501
0.781024
0.554203
0.280798
-0.0314989
-0.366418
-0.699561
-1.00384
-1.25373
1.14529
0.99064
0.797359
0.566021
0.294859
-0.016429
-0.354401
-0.692984
-1.00315
-1.25846
1.21849
1.03952
0.820742
0.57785
0.304129
-0.00769386
-0.34788
-0.691022
-1.0074
-1.26944
)
;

boundaryField
{
    left
    {
        type            zeroGradient;
    }
    right
    {
        type            fixedValue;
        value           uniform 0;
    }
    down
    {
        type            zeroGradient;
    }
    up
    {
        type            zeroGradient;
    }
    cylinder
    {
        type            zeroGradient;
    }
    defaultFaces
    {
        type            empty;
    }
}


// ************************************************************************* //
