/*--------------------------------*- C++ -*----------------------------------*\
  =========                 |
  \\      /  F ield         | OpenFOAM: The Open Source CFD Toolbox
   \\    /   O peration     | Website:  https://openfoam.org
    \\  /    A nd           | Version:  13
     \\/     M anipulation  |
\*---------------------------------------------------------------------------*/
FoamFile
{
    format      ascii;
    class       surfaceScalarField;
    location    "0.6";
    object      phi;
}
// * * * * * * * * * * * * * * * * * * * * * * * * * * * * * * * * * * * * * //

dimensions      [0 3 -1 0 0 0 0];

internalField   nonuniform List<scalar> 
3485
(
0.00253022
-0.00252275
-7.46648e-06
0.00943174
-0.0290175
0.022116
0.0196197
-0.0636726
0.0534846
0.0316238
-0.0961844
0.0841804
0.0440923
-0.121166
0.108698
0.0561239
-0.137423
0.125392
0.0672923
-0.146198
0.135029
0.0774904
-0.14955
0.139352
0.0867711
-0.14935
0.140069
-0.146891
0.13801
0.0956524
0.00310165
-0.0056244
0.0110586
-0.0369744
0.0222508
-0.0748648
0.0348345
-0.108768
0.0473529
-0.133684
0.0590189
-0.149089
0.0696349
-0.156814
0.0793763
-0.159291
0.0886434
-0.158617
-0.156247
0.0979999
0.00363943
-0.00926384
0.0125395
-0.0458745
0.0244815
-0.0868068
0.037264
-0.121551
0.0493711
-0.145792
0.0601395
-0.159858
0.0695296
-0.166204
0.0778065
-0.167568
0.0852875
-0.166098
-0.163138
0.0921781
0.00414311
-0.0134069
0.0138265
-0.0555579
0.02622
-0.0992003
0.0388593
-0.13419
0.0502967
-0.157229
0.060095
-0.169656
0.068441
-0.17455
0.075756
-0.174883
0.0824619
-0.172804
-0.16968
0.089004
0.00457543
-0.0179824
0.0147824
-0.0657649
0.0272041
-0.111622
0.0392223
-0.146208
0.0495443
-0.167551
0.0579726
-0.178084
0.0648754
-0.181453
0.0707623
-0.18077
0.0760732
-0.178115
-0.174717
0.0811101
0.00493702
-0.0229194
0.0153942
-0.0762221
0.0274611
-0.123689
0.0385205
-0.157267
0.0475402
-0.176571
0.0545958
-0.18514
0.0602293
-0.187086
0.065019
-0.18556
0.0693955
-0.182492
-0.17897
0.0736489
0.0051704
-0.0280898
0.0155134
-0.0865651
0.0267775
-0.134953
0.036473
-0.166963
0.0438824
-0.18398
0.0493313
-0.190589
0.0534782
-0.191233
0.0569113
-0.188993
0.0600194
-0.1856
-0.18195
0.0629989
0.0052765
-0.0333663
0.0151752
-0.0964638
0.0252801
-0.145058
0.0333745
-0.175057
0.0390903
-0.189696
0.0429772
-0.194476
0.0457694
-0.194026
0.0480346
-0.191258
0.0500996
-0.187665
-0.183944
0.0520942
0.00519873
-0.038565
0.0142725
-0.105538
0.0228373
-0.153622
0.0290583
-0.181279
0.032912
-0.193549
0.0351194
-0.196683
0.0364391
-0.195345
0.0373873
-0.192206
0.0382201
-0.188497
-0.184712
0.0389873
0.00493978
-0.0435048
0.0128577
-0.113456
0.0196178
-0.160383
0.0238402
-0.185501
0.025816
-0.195525
0.0263811
-0.197248
0.0262797
-0.195244
0.0259623
-0.191889
0.025617
-0.188152
0.0252393
-0.184334
-0.00131795
0.00126779
5.0165e-05
-0.00178804
-0.00168176
0.00215185
0.000258876
-0.00719306
0.00514614
0.00532585
-0.0132588
0.00819182
0.0131853
-0.0186662
0.0108067
0.0232772
-0.0228577
0.0127658
0.0349613
-0.0257444
0.0140603
0.047666
-0.0274971
0.0147924
0.0609667
-0.028407
0.0151062
-0.0288579
0.074678
0.0151466
-0.00118155
0.00244933
-0.00140644
-0.00145687
0.000913178
-0.00951268
0.00623127
-0.0185769
0.0142938
-0.0267287
0.0245233
-0.0330871
0.0362719
-0.0374931
0.0489667
-0.0401919
0.0621852
-0.0416255
-0.0424264
0.0757537
-0.0010054
0.00345474
-0.000905706
-0.00155657
0.00177808
-0.0121965
0.00743715
-0.024236
0.0157773
-0.0350688
0.0261973
-0.0435072
0.0380395
-0.0493352
0.0507296
-0.052882
0.0638478
-0.0547436
-0.0558135
0.0772348
-0.000773777
0.00422851
-0.000247329
-0.00208302
0.00294741
-0.0153912
0.00908345
-0.030372
0.0178121
-0.0437975
0.0285025
-0.0541975
0.040486
-0.0613187
0.0531916
-0.0655876
0.0662049
-0.0677569
-0.0689902
0.0793816
-0.000457138
0.00468565
0.000670376
-0.00321053
0.00453032
-0.0192512
0.0112965
-0.0371382
0.0205394
-0.0530405
0.031585
-0.0652431
0.043755
-0.0734888
0.0564903
-0.0783229
0.0693899
-0.0806566
-0.0819147
0.0823145
-4.91606e-05
0.00473481
0.00182223
-0.00508192
0.00653889
-0.0239678
0.0141019
-0.0447012
0.0239771
-0.0629157
0.0354393
-0.0767053
0.0478072
-0.0858566
0.0605493
-0.091065
0.073295
-0.0934022
-0.0945095
0.0858898
0.000405418
0.00432939
0.00317392
-0.00785042
0.00890357
-0.0296975
0.0173885
-0.0531861
0.0279616
-0.0734888
0.0398414
-0.0885851
0.0523557
-0.0983709
0.0650224
-0.103732
0.0775247
-0.105905
-0.106652
0.0896671
0.000911392
0.003418
0.00464728
-0.0115863
0.0114658
-0.036516
0.0209061
-0.0626263
0.0321471
-0.0847299
0.0443554
-0.100793
0.0568859
-0.110901
0.0693287
-0.116175
0.0814424
-0.118018
-0.118149
0.0929395
0.0014349
0.0019831
0.00617323
-0.0163246
0.0140939
-0.0444367
0.0244423
-0.0729747
0.0362272
-0.0965148
0.0485735
-0.11314
0.0608912
-0.123219
0.0728729
-0.128156
0.0843773
-0.129523
-0.128713
0.094941
0.00197564
0.00776695
0.0168148
0.0280205
0.0402032
0.0524551
0.0642654
0.0754609
0.0860077
0.0953045
0.144645
-0.191341
0.121374
0.176164
-0.128818
0.0972995
0.192716
-0.0968121
0.0802594
0.201149
-0.0733474
0.0649149
0.205122
-0.0553329
0.0513602
0.206624
-0.0413192
0.0398164
0.206703
-0.0303719
0.0302933
0.205908
-0.0212854
0.0220807
0.204644
-0.0155365
0.0168001
-0.00634366
0.00813058
0.143275
-0.258862
0.175183
-0.160727
0.192086
-0.113715
0.200759
-0.0820206
0.204923
-0.0594969
0.206574
-0.0429697
0.206772
-0.0305703
0.206085
-0.0205982
0.204922
-0.0143741
-0.00466836
0.141018
-0.322645
0.173342
-0.19305
0.190651
-0.131024
0.199644
-0.0910139
0.204102
-0.0639551
0.206017
-0.0448841
0.206459
-0.031013
0.20601
-0.0201488
0.205081
-0.0134451
-0.00324043
0.138003
-0.381267
0.170647
-0.225694
0.1884
-0.148778
0.197805
-0.100418
0.202663
-0.0688132
0.204957
-0.0471783
0.205767
-0.0318233
0.205684
-0.0200653
0.205118
-0.0128799
-0.00219457
0.134391
-0.433344
0.167087
-0.25839
0.185317
-0.167007
0.195242
-0.110343
0.200611
-0.074182
0.2034
-0.0499682
0.2047
-0.0331227
0.205108
-0.0204731
0.205034
-0.0128067
-0.00166372
0.130379
-0.477833
0.16264
-0.290651
0.181362
-0.18573
0.191949
-0.120929
0.197951
-0.0801842
0.201355
-0.0533721
0.203264
-0.0350312
0.204285
-0.0214947
0.204829
-0.0133502
-0.0017783
0.126308
-0.514475
0.157285
-0.321627
0.176499
-0.204944
0.187907
-0.132337
0.194684
-0.0869611
0.198827
-0.0575154
0.201465
-0.0376694
0.20322
-0.0232499
0.204502
-0.0146318
-0.0026656
0.122604
-0.544139
0.151301
-0.350324
0.170808
-0.224451
0.183111
-0.144639
0.190801
-0.0946512
0.195817
-0.0625317
0.199309
-0.0411614
0.201917
-0.0258574
0.204054
-0.0167694
-0.00444933
0.119309
-0.568508
0.145318
-0.376333
0.164654
-0.243787
0.177686
-0.157671
0.186338
-0.103303
0.192338
-0.0685319
0.196803
-0.045627
0.200379
-0.0294333
0.203487
-0.019877
-0.00724911
0.116249
-0.589453
0.139954
-0.400038
0.158747
-0.262581
0.172113
-0.171036
0.18154
-0.11273
0.188503
-0.0754945
0.193999
-0.0511233
0.198631
-0.0340651
0.202808
-0.0240541
-0.0111771
0.408228
-0.515862
-0.481818
0.364953
-0.356762
0.342428
-0.240056
0.331085
-0.159694
0.32508
-0.106724
0.321562
-0.0719771
0.319302
-0.0488632
0.31781
-0.0325726
0.316739
-0.0229837
-0.0106706
0.416501
-0.432999
-0.499365
0.371732
-0.311993
0.349002
-0.217326
0.336816
-0.147508
0.32951
-0.0994181
0.324769
-0.0672363
0.32157
-0.0456642
0.319424
-0.0304272
0.317905
-0.0214646
-0.00996685
0.432812
-0.358354
-0.507456
0.387652
-0.266834
0.360391
-0.190065
0.344238
-0.131355
0.334351
-0.0895311
0.327993
-0.0608785
0.323765
-0.0414361
0.320963
-0.0276251
0.319003
-0.0195042
-0.0090672
0.441149
-0.289554
-0.509949
0.397098
-0.222783
0.368324
-0.161291
0.350114
-0.113145
0.338483
-0.0779002
0.330851
-0.0532456
0.325743
-0.0363285
0.322359
-0.0242414
0.319996
-0.0171414
-0.00798386
0.447679
-0.227227
-0.510005
0.404619
-0.179724
0.374901
-0.131572
0.355099
-0.093343
0.342037
-0.0648381
0.333331
-0.04454
0.32747
-0.0304674
0.323583
-0.0203541
0.320864
-0.0144231
-0.00673427
0.452312
-0.170475
-0.509064
0.410171
-0.137582
0.379974
-0.101375
0.359078
-0.0724473
0.344933
-0.050693
0.335377
-0.0349846
0.328904
-0.0239944
0.324602
-0.0160522
0.321584
-0.0114046
-0.00533997
0.455287
-0.117791
-0.50797
0.413909
-0.0962047
0.38348
-0.0709466
0.361901
-0.0508682
0.347015
-0.0358063
0.336849
-0.0248188
0.329924
-0.0170697
0.325313
-0.011441
0.322062
-0.00815348
-0.00382875
0.454966
-0.066186
-0.506571
0.413813
-0.0550517
0.38349
-0.0406239
0.36186
-0.0292377
0.346785
-0.0207317
0.336409
-0.0144431
0.329308
-0.00996803
0.324569
-0.00670222
0.32121
-0.00479494
-0.00225906
0.43125
-0.017304
-0.480132
0.392333
-0.016134
0.364414
-0.0127049
0.344798
-0.00962179
0.331123
-0.00705687
0.321676
-0.00499577
0.315187
-0.00347956
0.310849
-0.00236351
0.307763
-0.00170915
-0.000810689
0.262689
-0.279993
0.246555
0.23385
0.224228
0.217171
0.212175
0.208696
0.206332
0.204623
0.490878
0.0211695
-0.486808
0.494834
0.0350312
0.497658
0.0492702
0.500501
0.0601564
0.500958
0.0731915
0.501967
0.0801009
0.498378
0.0925928
0.496858
0.093699
0.486115
0.108743
0.099949
0.469537
0.0172891
-0.465657
0.47419
0.0303786
0.478464
0.0449954
0.48353
0.0550912
0.487469
0.0692525
0.492059
0.0755102
0.495132
0.0895198
0.498197
0.0906344
0.500896
0.106044
0.10148
0.452725
0.0136774
-0.449113
0.4574
0.0257033
0.462668
0.0397281
0.468652
0.0491064
0.475067
0.0628374
0.481561
0.0690171
0.488739
0.0823412
0.494844
0.0845294
0.502597
0.0982909
0.0966208
0.439619
0.0102588
-0.4362
0.444204
0.0211179
0.450118
0.0338149
0.456653
0.0425709
0.46454
0.05495
0.472385
0.0611727
0.481813
0.0729134
0.490304
0.0760377
0.500941
0.0876547
0.0876121
0.429691
0.00704287
-0.426475
0.434201
0.0166077
0.440415
0.0276007
0.44737
0.0356161
0.456063
0.0462567
0.464944
0.0522921
0.475681
0.0621763
0.485976
0.0657424
0.498487
0.0751436
0.0760939
0.422075
0.00397004
-0.419002
0.426611
0.0120712
0.433016
0.0211959
0.440378
0.0282545
0.449577
0.0370574
0.459274
0.0425954
0.470816
0.0506341
0.482368
0.0541898
0.495924
0.061588
0.0629535
0.415815
0.000951823
-0.412797
0.420524
0.00736253
0.427156
0.0145632
0.434994
0.0204173
0.44465
0.0274015
0.455092
0.0321529
0.46722
0.0385063
0.479691
0.0417191
0.493886
0.0473929
0.048869
0.406238
-0.00206162
-0.403225
0.411115
0.00248589
0.418137
0.00754149
0.426741
0.0118129
0.437279
0.0168635
0.448902
0.0205294
0.462191
0.025218
0.475961
0.0279493
0.491337
0.0320169
0.0336343
0.36907
-0.00339633
-0.367735
0.372783
-0.00122734
0.379157
0.00116752
0.387694
0.00327577
0.398837
0.00572069
0.411722
0.00764507
0.426913
0.0100261
0.443176
0.011687
0.461349
0.0138438
0.0148508
0.213003
-0.2164
0.211776
0.212943
0.216219
0.22194
0.229585
0.239611
0.251298
0.265142
0.0729938
0.13093
-0.120246
-0.0836777
0.0630037
0.133028
-0.123038
0.0536005
0.13561
-0.126207
0.0443438
0.139073
-0.129816
0.0349763
0.142874
-0.133507
0.0255364
0.146054
-0.136614
0.0163716
0.146274
-0.137109
0.00823241
0.138152
-0.130013
0.00231463
0.111835
-0.105917
0.0535241
-0.0512095
0.0709092
0.140682
-0.0806619
0.0611413
0.142796
0.0515666
0.145185
0.0422063
0.148433
0.0329252
0.152155
0.0237358
0.155243
0.0149674
0.155042
0.00734952
0.14577
0.0019789
0.117205
0.055503
0.0661127
0.149452
-0.0748824
0.0569363
0.151973
0.0477393
0.154382
0.0387044
0.157468
0.0298299
0.16103
0.0211623
0.163911
0.0130247
0.16318
0.00613133
0.152663
0.00149349
0.121843
0.0569965
0.0592164
0.157311
-0.0670755
0.05092
0.160269
0.0424197
0.162882
0.033955
0.165933
0.0256553
0.169329
0.0176616
0.171905
0.0103448
0.170497
0.0044218
0.158586
0.000792448
0.125472
0.057789
0.0508513
0.164305
-0.057845
0.0434912
0.167629
0.0358414
0.170532
0.0281171
0.173657
0.0205312
0.176915
0.0133369
0.179099
0.00697861
0.176855
0.00222866
0.163336
-9.16407e-05
0.127793
0.0576973
0.0409749
0.170431
-0.0471012
0.0345792
0.174025
0.0278926
0.177219
0.02108
0.18047
0.0143816
0.183614
0.00815321
0.185327
0.00296663
0.182042
-0.000384
0.166687
-0.00102773
0.128436
0.0566696
0.0294091
0.175595
-0.0345733
0.0240648
0.179369
0.0184706
0.182813
0.0127524
0.186188
0.00717717
0.189189
0.00215648
0.190348
-0.00154211
0.18574
-0.00296321
0.168108
-0.00198531
0.127458
0.0546843
0.0163378
0.179682
-0.0204244
0.0121566
0.18355
0.00780059
0.187169
0.00335962
0.190629
-0.000883683
0.193432
-0.00433233
0.193797
-0.00622522
0.187633
-0.00579239
0.167675
-0.00293458
0.124601
0.0517497
0.00242083
0.182662
-0.00540131
-0.000536199
0.186507
-0.00357753
0.19021
-0.00660861
0.19366
-0.00931315
0.196137
-0.0110986
0.195582
-0.0110756
0.18761
-0.00850157
0.165101
-0.00378566
0.119885
0.0479641
-0.0117549
0.0100834
-0.0133997
-0.0150781
-0.0166619
-0.017773
-0.0177162
-0.0156068
-0.0108884
-0.00445924
0.104618
0.0263356
-0.116121
-0.0148322
0.0928295
0.0270193
-0.0152313
0.0807339
0.0277511
-0.0156555
0.0682995
0.0285318
-0.0160973
0.0555014
0.0293542
-0.0165561
0.0423565
0.030148
-0.0170031
0.0290424
0.0305997
-0.0172855
0.0161958
0.0297313
-0.0168848
0.00543751
0.0252719
-0.0145136
0.0131435
-0.00770598
0.103895
0.0378272
-0.115387
0.0921367
0.0387781
0.0800827
0.0398051
0.0677022
0.0409122
0.0549708
0.0420855
0.0419071
0.0432118
0.0286929
0.0438139
0.0159683
0.0424559
0.00534285
0.0358974
0.0184863
0.10281
0.0493006
-0.114284
0.0910956
0.0504928
0.0791039
0.0517968
0.0668042
0.053212
0.0541729
0.0547168
0.0412316
0.0561531
0.0281691
0.0568764
0.0156303
0.0549947
0.00520555
0.0463221
0.0236919
0.101143
0.0607612
-0.112604
0.0895114
0.0621247
0.0776276
0.0636806
0.0654584
0.0653812
0.0529816
0.0671936
0.0402253
0.0689094
0.0273877
0.069714
0.0151194
0.067263
0.00498917
0.0564523
0.0286811
0.0991252
0.0720882
-0.110452
0.0876434
0.0736065
0.0759463
0.0753777
0.0639843
0.0773433
0.0517214
0.0794564
0.0391827
0.0814482
0.0265835
0.0823131
0.0146009
0.0792456
0.00478647
0.0662667
0.0334675
0.0952591
0.0833455
-0.106516
0.0839635
0.084902
0.0724894
0.0868518
0.060819
0.0890137
0.0489362
0.0913392
0.0368705
0.0935138
0.0248323
0.0943513
0.0134868
0.0905912
0.00433255
0.0754209
0.0378001
0.0924466
0.0941024
-0.103203
0.0816352
0.0957134
0.0706142
0.0978728
0.0592892
0.100339
0.0476472
0.102981
0.0357757
0.105385
0.0239577
0.106169
0.0129083
0.101641
0.00410399
0.0842252
0.0419041
0.0849766
0.104498
-0.0953717
0.0747287
0.105961
0.064445
0.108157
0.0540157
0.110768
0.0433346
0.113662
0.0324106
0.116309
0.0215159
0.117064
0.0113975
0.111759
0.0035037
0.0921191
0.0454078
0.0808393
0.113515
-0.0898567
0.0715292
0.115271
0.0616839
0.118002
0.0514477
0.121004
0.0409559
0.124154
0.0303366
0.126929
0.0198974
0.127503
0.0103733
0.121283
0.00311325
0.0993791
0.048521
0.071384
-0.0781149
0.0636172
0.0554118
0.0465997
0.037247
0.0275619
0.0179558
0.00922608
0.00268846
0.201945
0.008897
-0.0128523
0.205567
0.0270428
-0.030665
0.206973
0.0387006
-0.0401063
0.207925
0.0428712
-0.0438232
0.207303
0.0489139
-0.0482916
0.205034
0.0579394
-0.0556703
0.198757
0.0714128
-0.0651359
0.1882
0.0901893
-0.0796327
0.163132
0.12017
-0.095101
0.162614
-0.115603
0.201641
0.00524571
0.205054
0.0236303
0.206374
0.0373803
0.20729
0.0419556
0.206621
0.0495828
0.204224
0.0603365
0.197856
0.0777805
0.186934
0.101111
0.16164
0.145463
0.208867
0.201236
0.00199939
0.204298
0.0205684
0.205418
0.0362607
0.206157
0.0412158
0.205308
0.0504325
0.202631
0.063013
0.196103
0.0843084
0.184641
0.112573
0.159441
0.170664
0.254024
0.200725
-0.000735945
0.203301
0.0179925
0.204113
0.0354489
0.204544
0.0407844
0.203379
0.0515974
0.200276
0.0661167
0.193494
0.0910902
0.181291
0.124776
0.156612
0.195343
0.298032
0.200104
-0.00285013
0.202064
0.0160321
0.20247
0.0350427
0.202467
0.0407879
0.200853
0.0532115
0.197181
0.0697887
0.190013
0.0982583
0.176832
0.137957
0.153183
0.218992
0.340763
0.199364
-0.00422474
0.20059
0.0148067
0.200503
0.0351292
0.199944
0.0413469
0.197749
0.0554073
0.193376
0.0741608
0.185703
0.105932
0.171168
0.152492
0.149081
0.241079
0.383327
0.198503
-0.00473794
0.198883
0.0144264
0.198227
0.0357856
0.196996
0.0425776
0.194089
0.058315
0.188897
0.0793526
0.180587
0.114241
0.16456
0.168518
0.144365
0.261275
0.424489
0.197519
-0.00426668
0.196958
0.0149868
0.195661
0.0370825
0.193644
0.0445947
0.189897
0.0620624
0.183775
0.0854747
0.174644
0.123372
0.157277
0.185886
0.138636
0.279916
0.467753
0.196424
-0.0027009
0.194854
0.0165568
0.192836
0.0391005
0.189915
0.047516
0.185199
0.0667785
0.178045
0.0926281
0.167957
0.13346
0.150556
0.203287
0.132381
0.298091
0.510277
0.195316
-2.6963e-05
0.192615
0.019258
0.189826
0.0418894
0.18579
0.0515518
0.180079
0.0724898
0.171744
0.100963
0.159874
0.14533
0.140558
0.222603
0.124867
0.313782
0.55703
0.304089
-0.00210544
0.307456
0.0158908
0.312183
0.0371627
0.315743
0.0479913
0.319302
0.0689303
0.323049
0.0972163
0.329078
0.139301
0.339982
0.211699
0.377174
0.27659
0.505556
0.428648
0.304801
-0.00489614
0.308741
0.0119508
0.314016
0.0318881
0.318399
0.0436077
0.323358
0.063971
0.329582
0.0909927
0.338581
0.130302
0.356543
0.193737
0.389582
0.243551
0.450172
0.444965
0.305591
-0.00847695
0.310306
0.00723593
0.315978
0.0262157
0.321106
0.03848
0.327247
0.0578299
0.335325
0.0829152
0.347331
0.118295
0.368041
0.173027
0.400337
0.211255
0.387181
0.463329
0.306521
-0.0129873
0.312027
0.00172937
0.317996
0.0202466
0.323716
0.0327599
0.330888
0.050658
0.340473
0.0733305
0.354919
0.10385
0.377067
0.150878
0.41025
0.178072
0.321556
0.475874
0.30765
-0.0186273
0.313946
-0.00456685
0.320044
0.0141487
0.326167
0.0266373
0.334167
0.0426578
0.344997
0.0625005
0.361137
0.0877102
0.384721
0.127294
0.4176
0.145193
0.256881
0.482275
0.309053
-0.0256699
0.316156
-0.0116702
0.322132
0.00817332
0.328408
0.0203611
0.337015
0.0340504
0.34884
0.0506757
0.366041
0.0705088
0.391042
0.102293
0.422707
0.113528
0.195376
0.484212
0.310826
-0.0344854
0.318715
-0.0195596
0.324144
0.00274413
0.330316
0.0141889
0.339338
0.025029
0.351907
0.038107
0.369747
0.0526685
0.395882
0.0761585
0.426093
0.0833162
0.137486
0.483984
0.312594
-0.0450692
0.320755
-0.0277206
0.325461
-0.00196228
0.331089
0.00856098
0.340309
0.0158096
0.353408
0.0250074
0.371754
0.0343231
0.398594
0.0493187
0.42791
0.0540001
0.0834076
0.481988
0.30831
-0.0513695
0.311225
-0.0306349
0.314029
-0.00476653
0.319644
0.00294583
0.329107
0.00634666
0.342729
0.011386
0.361739
0.0153122
0.388675
0.0223831
0.418944
0.023731
0.0350585
0.467293
0.250641
0.220006
0.215239
0.218185
0.224532
0.235918
0.25123
0.273613
0.297344
0.332403
0.441422
-0.096452
0.447246
-0.0864856
0.452533
-0.0801693
0.457887
-0.0724293
0.463364
-0.0633217
0.468633
-0.0523711
0.473432
-0.0393716
0.477958
-0.0249503
0.482262
-0.00970546
0.00553691
0.447478
-0.0989642
0.45026
-0.0892682
0.451711
-0.0816203
0.453026
-0.0737443
0.454288
-0.0645838
0.455621
-0.0537036
0.457299
-0.0410498
0.459447
-0.0270977
0.462162
-0.012421
0.0020424
0.459094
-0.0947293
0.456449
-0.0866235
0.453551
-0.0787218
0.450518
-0.070712
0.447907
-0.0619725
0.446054
-0.0518503
0.445135
-0.040131
0.445311
-0.0272739
0.446582
-0.0136916
-0.000489308
0.466893
-0.0857483
0.459458
-0.0791883
0.452964
-0.0722273
0.447043
-0.0647916
0.441906
-0.0568356
0.437864
-0.0478077
0.435156
-0.0374228
0.433956
-0.0260746
0.434327
-0.0140625
-0.00236236
0.470475
-0.0739483
0.460128
-0.0688411
0.451144
-0.063244
0.443275
-0.056922
0.436502
-0.0500633
0.431081
-0.0423863
0.427291
-0.0336325
0.425276
-0.0240594
0.425059
-0.0138456
-0.00377851
0.471007
-0.0607434
0.459108
-0.056942
0.448598
-0.0527341
0.439481
-0.0478048
0.431736
-0.0423186
0.425519
-0.0361691
0.421063
-0.0291771
0.418499
-0.0214946
0.41787
-0.0132171
-0.00491019
0.469963
-0.0467226
0.457193
-0.0441723
0.445748
-0.0412888
0.435794
-0.0378511
0.42736
-0.0338843
0.420558
-0.0293669
0.415604
-0.0242235
0.412643
-0.0185332
0.411758
-0.0123326
-0.00594879
0.467219
-0.0319533
0.453432
-0.0303856
0.440999
-0.0288562
0.430082
-0.0269332
0.420745
-0.0245481
0.413139
-0.0217602
0.407486
-0.0185707
0.403924
-0.0149716
0.402516
-0.0109247
-0.00665738
0.449728
-0.0143882
0.433754
-0.0144115
0.419226
-0.014328
0.406214
-0.013921
0.394842
-0.0131764
0.38527
-0.0121879
0.377655
-0.0109563
0.372117
-0.00943299
0.368795
-0.00760283
-0.00559785
0.318014
0.303603
0.289275
0.275354
0.262177
0.249989
0.239033
0.2296
0.221997
0.00912303
0.0571243
-0.0662473
0.0197544
0.148551
-0.159182
0.0252868
0.203719
-0.209251
0.025816
0.228723
-0.229252
0.0233329
0.236461
-0.233978
0.019493
0.236483
-0.232643
0.0152154
0.233374
-0.229097
0.0110451
0.227985
-0.223814
0.00759337
0.218268
-0.214816
0.199136
0.0056575
-0.1972
0.010926
0.0461983
0.0266788
0.132798
0.0379371
0.192461
0.0433083
0.223352
0.044566
0.235203
0.0437033
0.237346
0.0419663
0.235111
0.039904
0.230047
0.0376388
0.220533
0.201899
0.0348758
0.0117119
0.0344864
0.0319772
0.112533
0.0492853
0.175153
0.0601828
0.212454
0.0657516
0.229634
0.0681349
0.234962
0.0689179
0.234329
0.0687624
0.230202
0.0674448
0.22185
0.205605
0.0637383
0.0114071
0.0230793
0.0347927
0.089147
0.0579184
0.152027
0.0748642
0.195509
0.0853768
0.219122
0.0914118
0.228927
0.0948798
0.23086
0.0967427
0.228339
0.0967545
0.221839
0.209023
0.0933364
0.0102579
0.0128214
0.034686
0.064719
0.0624852
0.124228
0.0857123
0.172282
0.102047
0.202787
0.112612
0.218363
0.119411
0.224062
0.123848
0.223902
0.125981
0.219706
0.211083
0.123922
0.00869544
0.00412598
0.0317786
0.0416358
0.0617883
0.0942181
0.0903121
0.143758
0.112903
0.180196
0.12905
0.202215
0.140201
0.212911
0.147982
0.21612
0.153208
0.21448
0.209681
0.15461
0.00720461
-0.00307863
0.027176
0.0216644
0.055988
0.065406
0.0869524
0.112793
0.114712
0.152436
0.137011
0.179916
0.154043
0.19588
0.167077
0.203085
0.177245
0.204312
0.202192
0.184734
0.00593799
-0.00901661
0.0219098
0.00569262
0.0463953
0.0409205
0.0756091
0.0835796
0.105013
0.123033
0.13146
0.153469
0.153775
0.173564
0.172127
0.184733
0.187436
0.189004
0.189312
0.200316
0.00462492
-0.0136415
0.0161494
-0.00583187
0.0345189
0.022551
0.0584746
0.0596239
0.0853341
0.0961733
0.11233
0.126473
0.137672
0.148222
0.160724
0.161681
0.181622
0.168107
0.167717
0.203217
0.00279829
-0.0164398
0.00971419
-0.0127478
0.0215081
0.0107571
0.0385793
0.0425527
0.0598774
0.0748752
0.0835514
0.102799
0.107771
0.124002
0.131253
0.1382
0.152924
0.146435
0.147231
0.17341
0.000665308
-0.0171051
0.00328909
-0.0153716
0.0094825
0.00456372
0.0202981
0.0317371
0.0356938
0.0594795
0.0547102
0.083783
0.0760047
0.102707
0.0983801
0.115824
0.121085
0.12373
0.127693
0.140623
-0.00114618
-0.015959
-0.00159616
-0.0149216
0.000848317
0.00211924
0.00743257
0.0251528
0.0184475
0.0484645
0.0334438
0.0687867
0.0514904
0.0846606
0.071534
0.0957807
0.0926244
0.10264
0.107492
0.112825
-0.00217423
-0.0137847
-0.00418535
-0.0129105
-0.00358534
0.00151923
0.000732917
0.0208345
0.00914022
0.0400572
0.0213207
0.0566063
0.0365566
0.0694247
0.0539426
0.0783946
0.0725154
0.0840672
0.088506
0.0915015
-0.00251316
-0.0112716
-0.00497621
-0.0104474
-0.00493618
0.00147919
-0.00140415
0.0173025
0.00581024
0.0328428
0.016377
0.0460395
0.0296665
0.0561352
0.0449047
0.0631564
0.0612961
0.0676759
0.0712795
0.0785226
-0.00242831
-0.00884326
-0.00470573
-0.00816999
-0.00450121
0.00127468
-0.000966871
0.0137682
0.00592133
0.0259546
0.0157726
0.0361882
0.0279731
0.0439347
0.0418398
0.0492897
0.0567447
0.052771
0.0555367
0.0724874
-0.00217818
-0.00666508
-0.00404492
-0.00630325
-0.00343204
0.000661797
0.000397334
0.00993881
0.00737442
0.0189776
0.0170276
0.0265351
0.0287373
0.032225
0.041877
0.0361501
0.0559255
0.0387225
0.0407679
0.0706943
-0.00192107
-0.004744
-0.00338377
-0.00484055
-0.00235346
-0.000368513
0.00180964
0.0057757
0.00898536
0.0118018
0.018661
0.0168595
0.0302077
0.0206782
0.0430286
0.0233292
0.0566563
0.0250948
0.026533
0.0708913
-0.00171082
-0.00303318
-0.00284228
-0.0037091
-0.00149751
-0.00171328
0.00294954
0.00132866
0.0103234
0.00442797
0.0200936
0.00708924
0.0316278
0.00914398
0.0443438
0.0106132
0.0577982
0.0116404
0.0125448
0.0717864
-0.00155478
-0.0014784
-0.00243707
-0.0028268
-0.000833705
-0.00331666
0.003832
-0.00333704
0.0113743
-0.00311437
0.0212508
-0.00278722
0.0328271
-0.00243229
0.0455279
-0.00208769
0.0589208
-0.00175252
-0.0013362
0.0728018
-0.00142823
-0.00210319
-0.000273705
0.00458107
0.0122734
0.022252
0.03388
0.0465848
0.0599384
0.0737488
0.145621
0.405772
-0.410769
0.153419
0.165864
-0.173663
0.161113
0.0548434
-0.0625373
0.16811
0.007826
-0.0148226
0.17448
-0.00973567
0.00336514
0.180372
-0.0147345
0.00884277
0.185878
-0.0147495
0.00924389
0.191004
-0.0127928
0.00766656
0.195874
-0.0109902
0.00612022
-0.00724474
0.00295256
0.135108
0.383489
0.154744
0.146229
0.166256
0.043331
0.174092
-1.00232e-05
0.180018
-0.0156616
0.185043
-0.0197595
0.189494
-0.0192002
0.193486
-0.0167855
0.197191
-0.0146953
-0.0103837
0.13101
0.34398
0.157741
0.119498
0.171413
0.0296583
0.179465
-0.0080615
0.185027
-0.0212237
0.18928
-0.0240126
0.192791
-0.0227109
0.195764
-0.0197583
0.198417
-0.0173489
-0.0124794
0.131401
0.291101
0.161466
0.0894335
0.176309
0.0148154
0.184417
-0.0161695
0.189523
-0.0263296
0.193085
-0.0275745
0.195762
-0.0253877
0.197831
-0.0218273
0.199552
-0.0190699
-0.0136477
0.134112
0.229477
0.165319
0.0582262
0.180668
-0.000533085
0.188758
-0.0242599
0.193484
-0.0310557
0.196447
-0.0305373
0.1984
-0.0273403
0.199683
-0.0231105
0.200593
-0.0199797
-0.0140083
0.137494
0.162677
0.168789
0.0269313
0.184416
-0.0161601
0.192489
-0.0323329
0.196897
-0.0354633
0.199354
-0.0329946
0.200695
-0.0286811
0.201313
-0.023729
0.201536
-0.0202023
-0.0136846
0.140624
0.0929446
0.171709
-0.0041538
0.187513
-0.0319648
0.195585
-0.0404048
0.19974
-0.0396182
0.201791
-0.035045
0.202636
-0.029526
0.202714
-0.0238072
0.202377
-0.0198649
-0.0128036
0.143039
0.0216917
0.173991
-0.0351051
0.189926
-0.0478999
0.19802
-0.0484991
0.201998
-0.0435957
0.203745
-0.0367924
0.204214
-0.0299947
0.203879
-0.0234723
0.203111
-0.0190975
-0.0114956
0.144543
-0.0500491
0.175535
-0.0660972
0.191616
-0.0639814
0.19977
-0.0566525
0.203653
-0.0474796
0.205207
-0.0383455
0.205421
-0.0302092
0.204802
-0.0228533
0.203736
-0.0180315
-0.00989308
0.145074
0.176276
0.192554
0.200817
0.204697
0.206168
0.206252
0.20548
0.204248
0.0586098
-0.0112522
-0.0473575
0.0754646
-0.0168548
0.0813872
-0.00592261
0.0840169
-0.00262969
0.0859241
-0.00190725
0.0874574
-0.0015333
0.0886231
-0.00116564
0.0894597
-0.000836592
0.0900556
-0.000595921
-0.000265409
0.190908
0.034249
-0.23641
0.176933
-0.00287908
0.170788
0.000222155
0.169363
-0.00120447
0.170417
-0.00296131
0.172283
-0.00339988
0.174142
-0.0030243
0.175657
-0.00235173
0.176845
-0.00178348
-0.000828542
0.266313
0.146467
-0.378531
0.216193
0.0472407
0.198126
0.0182897
0.193291
0.00363013
0.193426
-0.00309655
0.195157
-0.00513021
0.197151
-0.00501808
0.198862
-0.00406307
0.200258
-0.00318004
-0.00150949
0.288695
0.287898
-0.430126
0.224877
0.111059
0.203238
0.0399281
0.197581
0.00928753
0.19757
-0.00308601
0.199339
-0.00689854
0.201402
-0.00708159
0.203182
-0.00584241
0.204641
-0.00463979
-0.00222616
0.288393
-0.411264
0.225788
0.203179
0.197644
0.197923
0.199868
0.20203
0.203854
0.205334
0.0130941
0.000254398
-0.0133485
0.014275
-0.00118095
0.0165156
-0.00224059
0.0192373
-0.00272172
0.0223167
-0.00307939
0.0238147
-0.001498
0.0269055
-0.0030908
0.0290091
-0.00210352
0.0363918
-0.00738271
-0.0109658
0.0368826
0.00033487
-0.036963
0.0409757
-0.00527413
0.0487475
-0.0100124
0.0600709
-0.0140451
0.075057
-0.0180655
0.0928863
-0.0193273
0.119617
-0.0298212
0.148734
-0.0312205
0.191413
-0.0500622
-0.0559622
0.0577443
-0.000407929
-0.0570015
0.0649575
-0.0124873
0.0784026
-0.0234574
0.0986406
-0.0342831
0.125869
-0.045294
0.161487
-0.0549448
0.208143
-0.0764777
0.26012
-0.0831975
0.323938
-0.11388
-0.110555
0.0750608
-0.00235052
-0.0731182
0.0850753
-0.0225019
0.103382
-0.0417637
0.130622
-0.0615231
0.167202
-0.081874
0.215109
-0.102853
0.269669
-0.131037
0.331329
-0.144858
0.390419
-0.172971
-0.150262
0.0887476
-0.0854406
0.101121
0.123096
0.154909
0.196957
0.248715
0.302412
0.357869
0.388115
0.0933134
-0.087387
0.0958417
-0.101768
0.0843153
-0.0892182
0.0982164
0.0750351
-0.0920154
0.101295
0.0648447
-0.0949652
0.105156
0.0535543
-0.0979408
0.109231
0.0413279
-0.100705
0.112931
0.0285608
-0.102056
0.114823
0.0160283
-0.0983932
0.110926
0.00541421
-0.0821252
0.0927393
-0.0411273
0.0465416
0.103405
-0.0772002
-0.113592
0.0926629
-0.0784757
0.0809347
-0.0802872
0.0684055
-0.082436
0.0553903
-0.0849256
0.042123
-0.0874377
0.0288256
-0.0887583
0.0160792
-0.0856469
0.00541546
-0.0714615
-0.0357119
0.0990734
-0.0655581
-0.110716
0.0874805
-0.0668827
0.0758164
-0.0686231
0.0640729
-0.0706925
0.0521308
-0.0729835
0.0398616
-0.0751685
0.027345
-0.0762417
0.0151995
-0.0735013
0.0050474
-0.0613093
-0.0306645
0.104114
-0.0542966
-0.115376
0.0926909
-0.0554593
0.0809801
-0.0569123
0.0688291
-0.0585415
0.0561484
-0.0603027
0.0429623
-0.0619824
0.0295063
-0.0627858
0.0164826
-0.0604775
0.00555208
-0.0503789
-0.0251124
0.103687
-0.0426669
-0.115317
0.0919161
-0.0436882
0.0798458
-0.044842
0.0674543
-0.0461501
0.0547347
-0.0475831
0.0417157
-0.0489635
0.0285658
-0.0496359
0.0158941
-0.0478058
0.00529883
-0.0397836
-0.0198136
0.104738
-0.0311538
-0.116251
0.0929724
-0.031923
0.080908
-0.0327776
0.0685031
-0.0337452
0.0557214
-0.0348014
0.0425685
-0.0358106
0.0292189
-0.0362862
0.0163149
-0.0349018
0.005488
-0.0289567
-0.0143256
0.105011
-0.0196515
-0.116513
0.0932358
-0.0201477
0.0811435
-0.0206853
0.0686992
-0.0213009
0.055874
-0.0219762
0.0426817
-0.0226182
0.0292966
-0.0229011
0.016355
-0.0219603
0.0054947
-0.0180964
-0.00883088
0.105206
-0.0081674
-0.11669
0.0934186
-0.00836043
0.0813075
-0.00857424
0.0688407
-0.00883398
0.0559923
-0.00912788
0.0427777
-0.00940358
0.0293711
-0.00949458
0.0164082
-0.00899739
0.00552252
-0.00721071
-0.00330836
0.105215
0.00332263
-0.116705
0.0934203
0.00343391
0.081304
0.00354199
0.0688338
0.00363624
0.0559839
0.00372203
0.0427691
0.00381116
0.0293638
0.00391079
0.0164034
0.00396294
0.00552053
0.00367221
0.00221218
0.10503
-0.116539
0.0932324
0.0811189
0.0686578
0.0558237
0.0426318
0.0292571
0.0163352
0.0054938
0.0219214
-0.195182
-0.0239393
0.0167517
-0.209646
0.0102645
-0.217327
0.0034273
-0.22226
-0.00322828
-0.225987
-0.0089793
-0.228227
-0.0125039
-0.225728
-0.0121158
-0.20964
-0.00662391
-0.164674
-0.0728712
0.0500465
-0.191195
-0.0540333
0.0424139
-0.202014