# Selection   : all
# Cells       : 440
# Volume      : 7.374263e+01
# Time        	max(p)
0             	0.000000e+00
0.05          	4.256246e+00
0.1           	2.353567e+00
0.15          	2.030298e+00
0.2           	1.887467e+00
