/*--------------------------------*- C++ -*----------------------------------*\
  =========                 |
  \\      /  F ield         | OpenFOAM: The Open Source CFD Toolbox
   \\    /   O peration     | Website:  https://openfoam.org
    \\  /    A nd           | Version:  13
     \\/     M anipulation  |
\*---------------------------------------------------------------------------*/
FoamFile
{
    format      ascii;
    class       volScalarField;
    location    "0.665";
    object      p;
}
// * * * * * * * * * * * * * * * * * * * * * * * * * * * * * * * * * * * * * //

dimensions      [0 2 -2 0 0 0 0];

internalField   nonuniform List<scalar> 
440
(
7.82798
10.5844
12.947
13.129
10.1535
20.7191
24.1024
27.0979
27.7985
25.9107
41.2561
44.2874
46.9904
47.7831
46.6222
67.3891
69.4869
71.4003
72.0569
71.3694
96.6655
97.4824
98.2794
98.6795
98.6459
-0.448025
-0.547492
-0.0755223
0.485315
0.827767
-1.6821
-2.34701
-2.08567
-1.38933
-0.751486
-2.02846
-2.90989
-2.83146
-2.07639
-0.958759
-0.683895
-0.816453
-0.41132
0.552611
2.41736
3.08296
4.3944
5.82367
7.25516
9.50489
2.08819
2.27005
1.3427
0.683264
0.235083
1.05942
2.08097
1.22216
0.62471
0.224279
-0.0929357
1.6698
1.08935
0.579182
0.216184
-0.402155
1.06638
0.879977
0.541159
0.208556
1.50589
0.478066
0.595379
0.490132
0.197631
4.37711
0.249813
0.334771
0.427218
0.166032
6.72084
0.710966
0.434973
0.420988
0.101528
9.98468
2.44989
1.0833
0.54925
0.067228
13.874
4.75175
2.13298
0.823823
0.072199
16.6102
7.11399
3.45459
1.30486
0.169726
100.69
75.8414
53.3258
33.151
12.3481
102.385
78.9438
57.5387
39.0588
23.4848
104.286
82.7035
62.4765
45.2361
32.8893
105.169
85.0227
66.5045
51.1854
40.659
105.088
84.7452
66.3304
51.253
40.8985
219.87
216.389
216.095
218.211
220.944
202.69
200.223
200.482
203.223
206.515
180.542
178.769
179.133
181.555
184.433
154.743
153.4
153.605
155.199
157.095
126.862
126.149
126.088
126.548
127.141
235.586
236.017
236.658
237.085
236.831
236.155
236.793
237.351
237.33
236.379
234.943
235.919
236.335
236.063
235.075
230.056
231.655
232.218
232.354
232.262
221.571
223.434
224.445
225.653
227.008
235.725
234.725
234.897
234.129
234.272
235.692
234.709
234.843
234.084
234.797
235.681
234.669
234.781
234.197
235.314
235.683
234.604
234.774
234.45
234.902
235.687
234.52
234.844
234.649
232.214
235.699
234.377
234.894
234.425
228.725
235.891
234.237
234.782
233.931
226.356
236.793
234.006
234.152
232.247
223.335
240.836
233.986
232.971
229.786
219.661
249.807
234.712
231.751
227.241
216.91
217.762
196.236
175.028
151.734
126.448
207.367
191.371
172.326
150.423
126.653
198.879
186.199
168.616
148.089
126.335
191.745
180.785
165.101
146.263
125.921
191.527
180.766
165.356
146.662
126.152
96.3958
95.519
95.0713
94.3043
94.1478
57.3146
55.3677
53.6623
51.7405
50.9746
29.4843
27.141
24.3783
22.0792
20.7547
15.0324
12.6159
10.1503
8.13006
7.15955
9.20306
7.31533
5.92836
4.95284
4.36571
5.97334
4.87121
4.29119
4.2023
4.29052
4.06596
3.60622
3.53372
3.68913
3.84266
2.75889
2.74457
2.97784
3.28111
3.43948
1.65779
1.96216
2.41346
2.76417
2.90896
0.611732
1.00864
1.58133
1.98333
2.15752
3.61209
3.18005
2.06804
0.963619
0.277571
3.66585
3.00893
1.97578
0.907511
0.266289
3.46728
2.74763
1.84683
0.855774
0.257311
3.14738
2.50447
1.6843
0.802779
0.249905
2.73134
2.35771
1.50224
0.745152
0.243156
4.47985
3.16375
1.98167
1.0067
0.311712
3.74295
3.25792
2.07052
0.999875
0.291672
94.9033
54.1446
27.5072
14.4837
9.46356
93.6821
51.1352
22.9839
9.4682
5.25785
232.142
232.223
232.172
231.656
230.579
232.73
232.903
233.132
233.171
232.796
233.293
233.465
233.852
234.25
234.42
233.892
234.044
234.448
235.051
235.47
234.637
234.873
235.378
235.992
236.252
141.979
141.788
140.959
140.449
139.538
185.214
184.405
182.426
180.659
178.682
215.513
214.143
211.793
208.979
206.604
229.149
228.142
226.091
223.593
221.148
231.997
231.383
230.411
229.028
227.129
238.817
234.442
234.536
233.509
232.896
237.114
234.484
234.625
233.678
232.914
236.349
234.573
234.729
233.901
233.244
235.979
234.655
234.832
234.102
233.623
235.802
234.708
234.897
234.184
233.938
252.258
235.782
234.892
233.445
231.98
243.164
234.689
234.474
233.389
232.699
226.935
221.861
208.753
182.036
141.229
231.132
226.889
213.307
185.06
142.452
)
;

boundaryField
{
    left
    {
        type            zeroGradient;
    }
    right
    {
        type            fixedValue;
        value           uniform 0;
    }
    down
    {
        type            zeroGradient;
    }
    up
    {
        type            zeroGradient;
    }
    cylinder
    {
        type            zeroGradient;
    }
    defaultFaces
    {
        type            empty;
    }
}


// ************************************************************************* //
