/*--------------------------------*- C++ -*----------------------------------*\
  =========                 |
  \\      /  F ield         | OpenFOAM: The Open Source CFD Toolbox
   \\    /   O peration     | Website:  https://openfoam.org
    \\  /    A nd           | Version:  13
     \\/     M anipulation  |
\*---------------------------------------------------------------------------*/
FoamFile
{
    format      ascii;
    class       volScalarField;
    location    "0.665";
    object      strainRateViscosityModel:nu;
}
// * * * * * * * * * * * * * * * * * * * * * * * * * * * * * * * * * * * * * //

dimensions      [0 2 -1 0 0 0 0];

internalField   nonuniform List<scalar> 
440
(
9.41955
8.96972
8.54448
8.04236
7.58622
9.68996
9.35816
8.98176
8.48002
7.87556
9.80074
9.53084
9.15876
8.58508
7.84825
9.84962
9.61817
9.25861
8.64755
7.86606
9.86917
9.65607
9.30591
8.68094
7.90878
1.30556
1.7909
2.05047
2.30072
2.36476
3.38459
3.30266
3.31751
3.42611
3.49684
5.89228
5.27158
4.92836
4.7287
4.75849
7.76966
6.99347
6.42043
5.90508
5.82762
8.8207
8.15135
7.55206
6.91825
6.8717
1.85209
0.846157
0.416564
0.151587
0.131394
2.61758
0.910626
0.364503
0.114855
0.0302952
3.51353
1.15076
0.303937
0.0728858
0.012611
4.09228
1.43827
0.277814
0.0444612
0.0259561
4.60462
1.75558
0.325097
0.0119026
0.118559
4.22986
1.7418
0.295442
0.0578764
0.275867
3.71094
1.82363
0.622743
0.315664
0.421186
4.91923
3.20872
1.23719
0.556195
0.551229
7.00945
4.28913
1.9155
0.901331
0.67963
8.27283
5.07708
2.49606
1.30767
0.858239
2.84829
3.68266
4.61984
5.50578
6.14913
3.68373
3.69657
3.77213
3.85207
3.36781
8.22652
8.08655
7.79931
7.38539
6.34631
9.05291
8.99237
8.85904
8.6215
8.16017
9.60671
9.56995
9.48702
9.33805
9.1188
7.50328
8.01244
8.55943
9.01088
9.4642
7.794
8.45163
8.98712
9.37787
9.70864
7.77898
8.55904
9.15942
9.54077
9.80944
7.81627
8.62755
9.25739
9.62275
9.85359
7.89134
8.67366
9.30535
9.65743
9.87034
2.52959
2.47068
2.27088
2.11671
2.04547
3.47911
3.43103
3.47125
3.69078
4.24262
4.63688
4.65986
5.04964
5.59868
6.4501
5.68464
5.82649
6.49767
7.18786
8.04091
6.75359
6.84194
7.58045
8.24275
8.93541
0.205108
0.0584451
0.276854
0.863112
2.02346
0.174148
0.0741833
0.222157
0.88325
2.65967
0.153354
0.0790169
0.168521
1.08068
3.44222
0.142128
0.0666898
0.158724
1.38902
3.94414
0.148013
0.0739131
0.253765
1.73781
4.36609
0.200795
0.111957
0.269952
1.87059
4.10197
0.332129
0.130322
0.269679
1.80797
3.86084
0.662336
0.255012
0.776295
3.03638
4.90763
2.27356
0.818768
1.51023
4.16219
6.96072
5.05634
2.54051
2.42244
5.03841
8.27909
5.94743
5.2664
4.40254
3.51051
2.77986
3.52206
3.99085
3.97078
3.87625
3.76362
6.32095
7.35232
7.77905
8.06773
8.2185
8.12126
8.59996
8.84946
8.98863
9.05203
9.11693
9.3378
9.4874
9.57051
9.60696
9.31086
7.91683
1.39864
3.63017
7.73678
9.08184
7.44077
3.20595
1.64074
6.78902
8.39867
6.57768
4.20847
1.00355
4.14771
6.81563
5.09473
3.45529
1.70058
1.03875
4.50379
3.14534
2.03883
1.37787
0.459921
2.59715
1.61869
1.00243
0.796779
0.926389
1.45604
0.779026
0.5795
0.612611
0.685368
0.801521
0.405645
0.589987
0.758731
0.83203
0.305872
0.507004
0.884724
1.0502
1.11163
0.161967
0.935028
1.28088
1.51701
1.5714
0.19035
0.361994
0.707357
0.774092
0.730905
0.395472
0.499978
0.576339
0.632609
0.617581
0.613694
0.64635
0.462239
0.487906
0.500381
0.965478
0.794584
0.414651
0.347315
0.377091
1.3306
0.845006
0.41979
0.227429
0.259209
1.10554
0.857358
1.1206
1.10657
1.00189
0.283954
0.471242
0.863134
0.917731
0.847525
9.19116
8.83864
7.75878
5.73017
3.55962
8.58727
7.72288
5.85157
3.49152
0.866131
0.964816
0.858644
1.02706
1.62019
2.6582
0.813769
0.767882
0.704342
0.824704
1.52625
1.05969
1.01096
0.847769
0.553222
0.743458
1.38308
1.34603
1.14817
0.796943
0.227827
1.85314
1.80648
1.55463
1.23714
0.59764
7.73631
3.6271
1.39994
7.91507
9.311
6.7852
1.64052
3.20263
7.43768
9.08248
4.1342
1.01087
4.19435
6.57308
8.40024
1.03668
1.70553
3.43364
5.08557
6.82211
0.476213
1.37641
2.01477
3.12754
4.52664
1.31101
0.544515
0.550776
0.454062
0.176162
0.676514
0.294215
0.467629
0.520193
0.486404
0.397365
0.159831
0.380041
0.621263
0.804492
0.288037
0.0721379
0.339787
0.77183
1.22246
0.243675
0.0432683
0.317539
0.853688
1.58549
5.481
2.46082
1.03617
0.962788
1.14181
2.88726
1.08876
0.724816
0.556633
0.251843
3.56828
5.73578
7.75996
8.83917
9.19131
0.843373
3.47202
5.84494
7.72151
8.58712
)
;

boundaryField
{
    left
    {
        type            calculated;
        value           nonuniform List<scalar> 
17
(
0.453188
1.11812
2.18388
3.91028
6.5803
0.302197
0.18698
0.136977
0.142064
0.211384
2.95891
2.06073
1.33547
0.815072
0.496365
6.97871
4.57965
)
;
    }
    right
    {
        type            calculated;
        value           nonuniform List<scalar> 
17
(
1.00219
0.848997
0.733015
0.620399
0.502664
0.376471
0.252865
0.119854
0.0242867
0.0118289
0.0319663
0.155939
0.338589
0.477313
0.587185
0.693824
0.849982
)
;
    }
    down
    {
        type            calculated;
        value           nonuniform List<scalar> 
20
(
5.99491
2.99969
1.14565
1.04535
1.85295
4.27034
6.38384
8.13142
9.01579
9.30926
9.30909
9.01515
8.12993
6.37978
4.26406
1.83159
0.932018
1.18703
1.16354
1.04939
)
;
    }
    up
    {
        type            calculated;
        value           nonuniform List<scalar> 
20
(
8.54861
5.40501
2.72554
1.4566
0.923254
9.69562
9.66615
9.59857
9.47421
9.2934
9.29638
9.47646
9.60017
9.66726
9.69603
5.70434
3.15016
2.6624
5.39415
8.56548
)
;
    }
    cylinder
    {
        type            calculated;
        value           nonuniform List<scalar> 
40
(
1.37088
3.58936
6.11867
7.96046
8.95711
9.50513
9.74577
9.84079
9.88145
9.89745
9.54746
9.76284
9.84855
9.88496
9.89848
2.28354
4.52001
6.69693
8.23394
9.0699
3.04374
1.85019
1.09304
0.444563
0.605279
9.51904
9.33188
8.7423
7.26972
4.98616
9.51887
9.33114
8.74025
7.2615
4.95757
2.9657
1.73291
1.07377
0.668365
0.103898
)
;
    }
    defaultFaces
    {
        type            empty;
    }
}


// ************************************************************************* //
