# Selection   : all
# Cells       : 440
# Volume      : 7.374263e+01
# Time        	minMag(U)
2.5           	2.311857e-02
2.55          	2.467678e-02
2.6           	2.714719e-02
