/*--------------------------------*- C++ -*----------------------------------*\
  =========                 |
  \\      /  F ield         | OpenFOAM: The Open Source CFD Toolbox
   \\    /   O peration     | Website:  https://openfoam.org
    \\  /    A nd           | Version:  13
     \\/     M anipulation  |
\*---------------------------------------------------------------------------*/
FoamFile
{
    format      ascii;
    class       volScalarField;
    location    "15.3";
    object      p;
}
// * * * * * * * * * * * * * * * * * * * * * * * * * * * * * * * * * * * * * //

dimensions      [0 2 -2 0 0 0 0];

internalField   nonuniform List<scalar> 
440
(
-0.882566
-0.864061
-0.85726
-0.816445
-0.875664
-0.954046
-0.934782
-0.909836
-0.878595
-0.853575
-1.07348
-1.03921
-0.996098
-0.941393
-0.881309
-1.21282
-1.16242
-1.06845
-0.956291
-0.843255
-1.30668
-1.23808
-1.08198
-0.920547
-0.773212
-0.996625
-1.03495
-1.10214
-1.16146
-1.19908
-1.02123
-1.03027
-1.05619
-1.08681
-1.11159
-1.01278
-1.00615
-1.01039
-1.02982
-1.05371
-0.949156
-0.930712
-0.907548
-0.888841
-0.879712
-0.856529
-0.839533
-0.808952
-0.76085
-0.751153
-1.3005
-0.591493
0.150748
0.149168
0.0240697
-1.24297
-0.906354
0.0967477
0.0536854
0.0237181
-1.34924
-1.21985
0.0217041
0.0155304
0.024727
-1.15714
-1.30385
-0.0405598
0.0478899
0.028097
-0.87773
-1.25922
-0.0953068
0.088136
0.0309707
-0.545402
-1.06244
-0.128848
0.0837715
0.031552
-0.31824
-0.687387
-0.132799
-0.0796798
-0.00377315
-0.253803
-0.445312
-0.13323
0.0901596
0.00160158
-0.181017
-0.289101
-0.148863
-0.00133479
-0.0149802
-0.0611582
-0.266823
-0.170408
0.039448
-0.00406323
-0.52424
-0.635693
-0.77039
-0.916374
-1.00568
-0.281412
-0.392079
-0.463653
-0.499095
-0.498837
-0.117755
-0.211523
-0.271387
-0.301544
-0.323996
-0.0146082
-0.100139
-0.162275
-0.194592
-0.214763
0.0348093
-0.0500032
-0.106115
-0.128997
-0.125021
0.778688
0.626005
0.431413
0.216297
-0.0136935
0.363564
0.204653
0.011401
-0.208458
-0.456021
-0.0389979
-0.20042
-0.404852
-0.633381
-0.868038
-0.385774
-0.55141
-0.759158
-0.983031
-1.1643
-0.625071
-0.79172
-0.98441
-1.18651
-1.3038
1.81653
1.84648
1.87245
1.88426
1.87915
1.62926
1.64988
1.66413
1.66082
1.63654
1.42007
1.40857
1.37378
1.31601
1.23268
1.18385
1.14999
1.08023
0.980518
0.853223
0.977466
0.872979
0.736915
0.58133
0.394673
1.60098
1.59551
1.56887
1.6434
1.70111
1.59193
1.58489
1.55063
1.62707
1.612
1.58405
1.57137
1.52976
1.59912
1.49363
1.57748
1.55493
1.50791
1.55588
1.32609
1.57231
1.54109
1.4858
1.51265
1.1455
1.56899
1.51389
1.45779
1.41043
0.933624
1.56893
1.48221
1.45885
1.28726
1.06434
1.57467
1.46899
1.45855
1.21619
1.11672
1.57525
1.44157
1.45333
1.15896
1.13498
1.61003
1.43833
1.45124
1.11346
1.17604
0.749332
0.443367
0.106598
-0.184532
-0.3732
0.633822
0.425197
0.199697
0.0073341
-0.160786
0.614284
0.447045
0.282307
0.136267
-0.00586784
0.667153
0.51072
0.361422
0.224146
0.0955778
0.714051
0.553641
0.405142
0.269204
0.143513
-1.63158
-1.48885
-1.3192
-1.17908
-1.09456
-1.7331
-1.65873
-1.52021
-1.40116
-1.32096
-1.68493
-1.63146
-1.53784
-1.44687
-1.37228
-1.56278
-1.51883
-1.46015
-1.39551
-1.32834
-1.43602
-1.41555
-1.38372
-1.34203
-1.29221
-1.39773
-1.39115
-1.36947
-1.36057
-1.27723
-1.34378
-1.33506
-1.31902
-1.3159
-1.26747
-1.3693
-1.36865
-1.36852
-1.3695
-1.35676
-1.42342
-1.46643
-1.52781
-1.58084
-1.62058
-1.0976
-1.19202
-1.3058
-1.4053
-1.47947
-1.0383
-0.115714
0.180606
0.222919
-0.00305354
-1.04623
-0.103602
0.246679
0.24439
0.00065927
-1.09587
-0.101248
0.263129
0.241227
0.00488713
-1.36779
-0.169454
0.193911
0.209134
0.012745
-1.49045
-0.345564
0.149819
0.167866
0.0186672
-0.608356
-0.297977
0.0855959
0.192347
0.00990778
-0.882234
-0.208015
0.158845
0.2248
0.00853379
-1.04469
-1.27385
-1.29333
-1.2293
-0.99737
-1.06456
-1.28178
-1.31692
-1.2499
-1.18733
1.4506
1.42889
1.39041
1.33624
1.26456
1.6441
1.66328
1.66869
1.65836
1.6324
1.80608
1.83829
1.8644
1.87909
1.8797
1.90171
1.93997
1.98032
2.01293
2.02771
1.89876
1.93478
1.97475
2.00786
2.02288
-0.64852
-0.751801
-0.911896
-1.10524
-1.32437
-0.0607407
-0.190034
-0.363193
-0.571642
-0.828279
0.472352
0.336836
0.174875
-0.0152621
-0.247893
0.898797
0.794141
0.667171
0.514084
0.330921
1.24042
1.16763
1.07388
0.962047
0.831188
1.6607
1.62218
1.6011
1.60604
1.60252
1.64573
1.61981
1.60119
1.622
1.66866
1.63311
1.6162
1.60008
1.64452
1.74236
1.62148
1.6112
1.59397
1.65373
1.75569
1.61074
1.6047
1.58316
1.65363
1.74589
1.71662
1.62804
1.58796
1.52777
1.46492
1.67103
1.61862
1.58294
1.54563
1.48523
1.12905
0.907975
0.528776
-0.018869
-0.616195
1.20629
0.939104
0.545882
0.00159884
-0.609144
)
;

boundaryField
{
    left
    {
        type            zeroGradient;
    }
    right
    {
        type            fixedValue;
        value           uniform 0;
    }
    down
    {
        type            zeroGradient;
    }
    up
    {
        type            zeroGradient;
    }
    cylinder
    {
        type            zeroGradient;
    }
    defaultFaces
    {
        type            empty;
    }
}


// ************************************************************************* //
