# Selection   : all
# Cells       : 440
# Volume      : 7.374263e+01
# Time        	min(p)
5.815         	-1.623110e+00
5.86          	-1.611533e+00
5.91          	-1.598096e+00
