# Selection   : all
# Cells       : 440
# Volume      : 7.374263e+01
# Time        	min(p)
2.7           	-1.844320e+00
2.75          	-1.834379e+00
2.8           	-1.823708e+00
