/*--------------------------------*- C++ -*----------------------------------*\
  =========                 |
  \\      /  F ield         | OpenFOAM: The Open Source CFD Toolbox
   \\    /   O peration     | Website:  https://openfoam.org
    \\  /    A nd           | Version:  13
     \\/     M anipulation  |
\*---------------------------------------------------------------------------*/
FoamFile
{
    format      ascii;
    class       surfaceScalarField;
    location    "0.42";
    object      phi;
}
// * * * * * * * * * * * * * * * * * * * * * * * * * * * * * * * * * * * * * //

dimensions      [0 3 -1 0 0 0 0];

internalField   nonuniform List<scalar> 
3485
(
0.00137163
-0.0112583
0.00988663
0.00505114
-0.0319072
0.0282277
0.0107643
-0.0513831
0.0456699
0.0183131
-0.0696766
0.0621279
0.0275466
-0.086834
0.0776005
0.0383507
-0.102899
0.092095
0.0506368
-0.117903
0.105617
0.064362
-0.131866
0.11814
0.0796238
-0.144854
0.129592
-0.156886
0.139492
0.0970179
0.00150031
-0.0127586
0.00544581
-0.0358527
0.0114763
-0.0574136
0.0193239
-0.0775243
0.0287737
-0.0962838
0.0396483
-0.113774
0.0518036
-0.130058
0.0651318
-0.145194
0.0795414
-0.159264
-0.172191
0.0948465
0.00147416
-0.0142327
0.00532696
-0.0397055
0.0111745
-0.0632612
0.0187211
-0.0850708
0.0277259
-0.105289
0.0379896
-0.124037
0.0493465
-0.141415
0.0616568
-0.157504
0.0747888
-0.172396
-0.186033
0.0886308
0.00133885
-0.0155716
0.00485902
-0.0432256
0.0102109
-0.0686131
0.0171173
-0.0919772
0.0253544
-0.113526
0.0347413
-0.133424
0.0451319
-0.151806
0.0564064
-0.168779
0.068458
-0.184447
-0.198788
0.0812134
0.00116693
-0.0167385
0.00425601
-0.0463147
0.00897326
-0.0733303
0.015082
-0.0980859
0.0223923
-0.120836
0.0307534
-0.141785
0.0400477
-0.1611
0.0501825
-0.178914
0.0610803
-0.195345
-0.210401
0.0726932
0.000980031
-0.0177185
0.003588
-0.0489227
0.00758677
-0.0773291
0.0127843
-0.103283
0.0190267
-0.127078
0.0261935
-0.148952
0.0341929
-0.169099
0.0429554
-0.187676
0.0524262
-0.204816
-0.220549
0.0625741
0.000780742
-0.0184993
0.00286508
-0.051007
0.00606917
-0.0805331
0.0102432
-0.107457
0.0152671
-0.132102
0.0210477
-0.154733
0.0275156
-0.175567
0.0346223
-0.194783
0.0423337
-0.212527
-0.228851
0.050636
0.000569724
-0.019069
0.00209355
-0.0525309
0.00443808
-0.0828777
0.00749305
-0.110512
0.0111693
-0.135779
0.0153977
-0.158961
0.0201287
-0.180298
0.0253311
-0.199985
0.0309886
-0.218185
-0.234968
0.0371057
0.000352531
-0.0194215
0.00129585
-0.0534742
0.00274521
-0.084327
0.00462868
-0.112396
0.006887
-0.138037
0.00947383
-0.161548
0.0123563
-0.183181
0.0155155
-0.203144
0.0189464
-0.221616
-0.238686
0.0226635
0.000137819
-0.0195594
0.000502549
-0.0538389
0.00105714
-0.0848816
0.00176983
-0.113109
0.00261414
-0.138881
0.00356896
-0.162503
0.0046188
-0.184231
0.00575416
-0.20428
0.00697157
-0.222833
0.00827612
-0.23999
0.000500701
-0.00187542
0.00137472
0.00212013
-0.00625551
0.00463608
0.00546277
-0.0113779
0.00803529
0.0101483
-0.0161255
0.0114399
0.0155792
-0.0201151
0.0146842
0.0214899
-0.0235168
0.0176061
0.0279678
-0.0266995
0.0202215
0.0351573
-0.0298886
0.0226992
0.043045
-0.0330409
0.0251532
-0.0360086
0.0515005
0.0275532
0.00042867
-0.00230409
0.00211793
-0.00794478
0.00545185
-0.0147119
0.00984523
-0.0205189
0.0149392
-0.0252091
0.0208338
-0.0294113
0.0276974
-0.0335632
0.0354817
-0.0376729
0.0439805
-0.0415397
-0.0450583
0.0530302
0.000681844
-0.00298594
0.00271319
-0.00997613
0.00578982
-0.0177885
0.00979353
-0.0245226
0.0148672
-0.0302827
0.0211783
-0.0357224
0.0286598
-0.0410447
0.0370377
-0.0460508
0.0460948
-0.0505968
-0.0547019
0.0557384
0.000866592
-0.00385253
0.00305731
-0.0121669
0.00608748
-0.0208187
0.0102248
-0.0286599
0.0157356
-0.0357935
0.0226034
-0.0425903
0.03059
-0.0490312
0.03946
-0.0549208
0.0491162
-0.0602531
-0.0650614
0.0594757
0.000921138
-0.00477367
0.00319836
-0.0144441
0.00652443
-0.0241447
0.0111316
-0.0332671
0.0171577
-0.0418196
0.0244797
-0.0499122
0.0329073
-0.0574589
0.0423416
-0.0643551
0.0527179
-0.0706294
-0.0762473
0.0639039
0.000942643
-0.00571631
0.00337161
-0.016873
0.00709411
-0.0278672
0.012182
-0.0383551
0.0186457
-0.0482832
0.0263752
-0.0576417
0.0352735
-0.0663572
0.0452921
-0.0743737
0.0563519
-0.0816892
-0.0881905
0.0682951
0.000979314
-0.00669562
0.00358343
-0.0194772
0.00764232
-0.0319261
0.0131105
-0.0438232
0.0199323
-0.0551051
0.028022
-0.0657313
0.0373172
-0.0756525
0.0477715
-0.084828
0.0593116
-0.0932292
-0.100671
0.0717924
0.00101768
-0.0077133
0.00376734
-0.0222268
0.00807128
-0.0362301
0.0138212
-0.0495731
0.0209226
-0.0622065
0.0292868
-0.0740956
0.0388444
-0.08521
0.0495385
-0.0955221
0.0613103
-0.105001
-0.113421
0.0740596
0.00105445
-0.00876775
0.00393645
-0.0251088
0.00846092
-0.0407545
0.0144826
-0.0555948
0.0218754
-0.0695993
0.030529
-0.0827492
0.0403484
-0.0950294
0.0512448
-0.106418
0.0631371
-0.116893
-0.126304
0.0760204
0.00111889
0.00423774
0.00915311
0.0156862
0.0236875
0.0330332
0.0436205
0.0553425
0.0680414
0.0812292
0.114401
-0.413529
0.350628
0.168144
-0.470289
0.416546
0.21007
-0.419799
0.377873
0.243482
-0.324072
0.290661
0.269461
-0.211752
0.185773
0.288603
-0.106464
0.0873218
0.29988
-0.0291716
0.0178946
0.304489
0.00208747
-0.00669628
0.305537
0.00597536
-0.00702369
0.00503576
-0.00394593
0.116061
-0.47656
0.16984
-0.524068
0.211821
-0.46178
0.245023
-0.357275
0.271045
-0.237773
0.290399
-0.125818
0.302532
-0.0413047
0.308516
-0.00389597
0.311455
0.00303572
0.00484523
0.117911
-0.538732
0.170758
-0.576915
0.212431
-0.503453
0.24514
-0.389983
0.271057
-0.26369
0.290331
-0.145092
0.302289
-0.0532628
0.308351
-0.00995796
0.311602
-0.000215045
0.00431217
0.120296
-0.599553
0.17117
-0.627789
0.212046
-0.544329
0.243992
-0.42193
0.269665
-0.289362
0.288851
-0.164279
0.300691
-0.0651022
0.307091
-0.0163584
0.310774
-0.00389772
0.00338171
0.123178
-0.658827
0.171288
-0.675899
0.21079
-0.583832
0.241718
-0.452857
0.266961
-0.314606
0.286151
-0.183468
0.298201
-0.0771516
0.305352
-0.0235102
0.309793
-0.00833815
0.00173409
0.126012
-0.716544
0.171159
-0.721045
0.208763
-0.621436
0.238437
-0.482531
0.263018
-0.339187
0.282294
-0.202744
0.29495
-0.0898069
0.303218
-0.0317791
0.308704
-0.0138234
-0.000936903
0.127929
-0.772681
0.17061
-0.763726
0.206035
-0.65686
0.234278
-0.510774
0.257936
-0.362846
0.27731
-0.222119
0.29098
-0.103477
0.300712
-0.0415112
0.307518
-0.0206289
-0.00492817
0.127992
-0.826614
0.169167
-0.804901
0.202485
-0.690179
0.229239
-0.537528
0.251758
-0.385365
0.271173
-0.241534
0.286265
-0.118569
0.297818
-0.0530646
0.306209
-0.0290193
-0.0105358
0.125897
-0.87649
0.166422
-0.845425
0.198073
-0.72183
0.223437
-0.562892
0.244636
-0.406564
0.263919
-0.260817
0.280724
-0.135373
0.294426
-0.0667668
0.304124
-0.0387175
-0.0174692
0.1222
-0.917461
0.161574
-0.884799
0.191926
-0.752182
0.216184
-0.58715
0.236119
-0.4265
0.255203
-0.279901
0.27411
-0.15428
0.288981
-0.0816375
0.296794
-0.0465305
-0.0233888
0.583897
-0.919913
-0.581445
0.561162
-0.862065
0.523977
-0.714996
0.487781
-0.550954
0.459932
-0.39865
0.446677
-0.266646
0.446436
-0.154039
0.444342
-0.079543
0.43862
-0.0408085
-0.0212779
0.682827
-0.871315
-0.731425
0.619739
-0.798977
0.554172
-0.649429
0.497279
-0.494061
0.453821
-0.355192
0.427097
-0.239923
0.414741
-0.141682
0.407814
-0.0726162
0.403043
-0.0360374
-0.019016
0.754054
-0.774951
-0.850418
0.655364
-0.700286
0.564057
-0.558122
0.488757
-0.41876
0.431991
-0.298426
0.394814
-0.202745
0.376632
-0.1235
0.368451
-0.0644357
0.363414
-0.031
-0.0164031
0.779135
-0.641557
-0.91253
0.654063
-0.575214
0.546866
-0.450925
0.462098
-0.333992
0.399887
-0.236216
0.358347
-0.161205
0.335858
-0.101012
0.3257
-0.0542778
0.320531
-0.0258308
-0.013674
0.753096
-0.49237
-0.902283
0.617782
-0.439901
0.506568
-0.339711
0.420796
-0.24822
0.358744
-0.174164
0.316768
-0.119229
0.292383
-0.0766265
0.280814
-0.0427086
0.27535
-0.0203676
-0.0108262
0.685167
-0.345805
-0.831732
0.55282
-0.307555
0.44667
-0.23356
0.36641
-0.167961
0.309058
-0.116812
0.270026
-0.0801964
0.246129
-0.0527301
0.233963
-0.0305425
0.228321
-0.0147255
-0.00794002
0.58265
-0.213848
-0.714607
0.462951
-0.187855
0.369434
-0.140043
0.300174
-0.0987008
0.25137
-0.0680079
0.218046
-0.0468723
0.196818
-0.031502
0.18525
-0.0189748
0.179776
-0.00925126
-0.00515175
0.448774
-0.105519
-0.557103
0.351208
-0.0902891
0.277116
-0.0659505
0.223643
-0.0452279
0.186538
-0.0309036
0.161128
-0.0214622
0.144387
-0.0147603
0.134677
-0.00926519
0.12993
-0.0045037
-0.00268133
0.286597
-0.0302197
-0.361896
0.220922
-0.0246144
0.172515
-0.0175427
0.138755
-0.0114687
0.115614
-0.00776166
0.0996255
-0.00547407
0.088753
-0.00388788
0.0820903
-0.00260251
0.0788116
-0.00122497
-0.000853959
0.101317
-0.131536
0.0767021
0.0591595
0.0476907
0.0399291
0.034455
0.0305671
0.0279646
0.0267397
0.738825
0.0102237
-0.740773
0.733078
0.0284103
0.723438
0.0467459
0.710163
0.0639111
0.693568
0.0791696
0.674071
0.0921902
0.652263
0.103021
0.628697
0.112196
0.604247
0.119297
0.11982
0.845552
0.0134001
-0.848728
0.837323
0.0366391
0.827288
0.0567813
0.816591
0.0746076
0.805245
0.0905154
0.792887
0.104548
0.779269
0.11664
0.764567
0.126898
0.749095
0.134769
0.13749
0.844991
0.0114276
-0.843019
0.848892
0.0327381
0.853031
0.0526426
0.856483
0.0711552
0.858844
0.0881541
0.85993
0.103463
0.859602
0.116967
0.85797
0.128531
0.855297
0.137443
0.142368
0.800217
0.00930647
-0.798096
0.805826
0.0271292
0.814426
0.044043
0.825648
0.0599336
0.839017
0.0747843
0.853872
0.0886077
0.869449
0.101391
0.885089
0.11289
0.899981
0.122551
0.129819
0.737869
0.00704049
-0.735603
0.744158
0.02084
0.754128
0.034073
0.76751
0.0465519
0.784092
0.0582021
0.803674
0.0690258
0.826008
0.0790563
0.850651
0.0882477
0.876584
0.0966185
0.10412
0.653922
0.00485533
-0.651737
0.660205
0.0145572
0.670381
0.0238972
0.684225
0.0327083
0.70153
0.0408969
0.722118
0.0484373
0.745816
0.0553589
0.772344
0.0617193
0.801239
0.067724
0.0736268
0.549113
0.002917
-0.547174
0.554813
0.00885656
0.56414
0.014571
0.576907
0.0199404
0.592917
0.0248871
0.611972
0.0293831
0.633876
0.0334547
0.658414
0.0371813
0.68539
0.0407481
0.044409
0.422792
0.0013762
-0.421252
0.427413
0.00423626
0.435008
0.00697579
0.445422
0.00952594
0.458471
0.0118388
0.473958
0.0138957
0.491699
0.0157139
0.51153
0.01735
0.533351
0.0189277
0.020657
0.273828
0.000366803
-0.272818
0.276915
0.00114952
0.281999
0.00189178
0.288955
0.00256941
0.29763
0.00316443
0.307856
0.00366909
0.319482
0.004088
0.332395
0.00443665
0.346563
0.00476044
0.00532334
0.100484
-0.100117
0.101633
0.103525
0.106094
0.109259
0.112928
0.117016
0.121452
0.126213
0.0779529
0.159483
-0.142464
-0.0949726
0.0630434
0.147444
-0.132535
0.0496296
0.134394
-0.12098
0.037611
0.120324
-0.108306
0.0270313
0.105166
-0.0945861
0.0179807
0.0888918
-0.0798411
0.0105743
0.0714597
-0.0640533
0.00496388
0.0528097
-0.0471993
0.00134814
0.0328751
-0.0292593
0.0116395
-0.0102913
0.0779568
0.174419
-0.0928927
0.0638824
0.161519
0.0508474
0.147429
0.038943
0.132229
0.028279
0.11583
0.0190019
0.0981689
0.0112903
0.0791712
0.00535984
0.0587402
0.00147725
0.0367576
0.0131167
0.0731915
0.187919
-0.0866911
0.0603783
0.174332
0.0483557
0.159452
0.0372519
0.143332
0.0272049
0.125877
0.0183801
0.106994
0.0109769
0.0865745
0.00523538
0.0644817
0.00144961
0.0405434
0.0145663
0.06678
0.200347
-0.0792086
0.0550392
0.186073
0.0440533
0.170438
0.033924
0.153462
0.0247676
0.135033
0.0167274
0.115034
0.00998175
0.0933201
0.00475142
0.069712
0.00130961
0.0439852
0.015876
0.059319
0.211654
-0.0706255
0.0487198
0.196672
0.0388702
0.180287
0.0298428
0.162489
0.0217251
0.143151
0.0146298
0.122129
0.00870235
0.0992476
0.00412638
0.074288
0.00113093
0.0469807
0.0170069
0.0506027
0.22152
-0.0604686
0.0414141
0.205861
0.0329294
0.188772
0.0251983
0.17022
0.0182842
0.150065
0.0122723
0.128141
0.00727495
0.104245
0.00343647
0.0781264
0.000937251
0.0494799
0.0179441
0.0404602
0.229564
-0.0485045
0.0330147
0.213306
0.0261776
0.195609
0.0199779
0.17642
0.0144577
0.155585
0.00967751
0.132921
0.0057204
0.108202
0.00269371
0.0811531
0.000731812
0.0514418
0.0186759
0.0290559
0.235443
-0.0349343
0.0236523
0.21871
0.0187153
0.200546
0.0142554
0.18088
0.0102963
0.159544
0.00687748
0.13634
0.00405553
0.111024
0.00190421
0.0833044
0.000515257
0.0528308
0.0191912
0.0169181
0.238927
-0.020403
0.0137422
0.221886
0.010855
0.203433
0.00825476
0.18348
0.00595136
0.161848
0.00396635
0.138325
0.00233206
0.112658
0.00109059
0.0845459
0.000293216
0.0536281
0.0194844
0.00482753
-0.00589023
0.00388006
0.00303366
0.00228306
0.00162786
0.00107177
0.000621461
0.000285745
7.49453e-05
0.0435631
0.0412698
-0.0524404
-0.0323925
0.0352067
0.0382258
-0.0298694
0.0275584
0.0348347
-0.0271863
0.0208394
0.0312334
-0.0245145
0.0150467
0.0276794
-0.0218866
0.00994035
0.0241275
-0.0190211
0.00541208
0.0199937
-0.0154654
0.00195735
0.0143952
-0.0109405
0.000381905
0.00736261
-0.00578716
0.00207863
-0.00169672
0.0437665
0.0504418
-0.0529385
0.0351139
0.0468784
0.0270748
0.0428738
0.0199319
0.0383763
0.0139965
0.0336148
0.00926982
0.0288542
0.00550716
0.0237563
0.00256684
0.0173355
0.000617571
0.00931188
0.0026962
0.0450351
0.060012
-0.0546053
0.0360966
0.0558169
0.0278414
0.051129
0.0203896
0.0458281
0.0140675
0.0399369
0.00913635
0.0337854
0.00553836
0.0273543
0.00289966
0.0199742
0.000809832
0.0114017
0.00350604
0.0475019
0.0702167
-0.0577066
0.0380471
0.0652717
0.0294562
0.0597199
0.0217681
0.0535162
0.0151109
0.046594
0.00974444
0.0391518
0.00578947
0.0313093
0.0029731
0.0227906
0.000878818
0.013496
0.00438485
0.0509656
0.081162
-0.061911
0.0408425
0.0753947
0.0317051
0.0688573
0.0236157
0.0616056
0.016599
0.0536107
0.0107836
0.0449672
0.00630552
0.0357874
0.00307416
0.026022
0.000884455
0.0156857
0.00526931
0.0546408
0.0927772
-0.0662559
0.0439016
0.0861339
0.0342015
0.0785575
0.0256156
0.0701915
0.0181666
0.0610597
0.0119115
0.0512223
0.00694607
0.0407528
0.00328764
0.0296804
0.000911496
0.0180619
0.00618081
0.0576682
0.104875
-0.0697659
0.046493
0.0973091
0.0363751
0.0886754
0.0273751
0.0791915
0.0195291
0.0689057
0.012888
0.0578635
0.00753148
0.0461093
0.00353097
0.0336809
0.00096141
0.0206314
0.00714222
0.0597019
0.117215
-0.0720425
0.0483118
0.108699
0.0379577
0.0990294
0.0286855
0.0884637
0.0205469
0.0770443
0.0136108
0.0647995
0.00796849
0.0517516
0.00372508
0.0379243
0.00100626
0.0233502
0.00814848
0.0614983
0.12968
-0.0739633
0.0499904
0.120207
0.0394324
0.109587
0.0298959
0.0980002
0.0214672
0.085473
0.0142433
0.0720234
0.00833848
0.0576565
0.00388633
0.0423765
0.00104237
0.0261942
0.00919084
0.0663419
-0.0791254
0.0540144
0.0426214
0.0323161
0.023203
0.0153853
0.00898842
0.00416564
0.0011005
0.214621
0.059141
-0.0757718
0.23648
0.0907578
-0.112617
0.259743
0.123863
-0.147127
0.272564
0.114522
-0.127343
0.272412
0.112292
-0.11214
0.250981
0.18068
-0.159249
0.217599
0.293989
-0.260607
0.174151
0.411556
-0.368108
0.118093
0.493161
-0.437103
0.46025
-0.394598
0.213931
0.0432002
0.234631
0.0700571
0.257058
0.101437
0.270415
0.101165
0.271657
0.111049
0.251399
0.200938
0.218039
0.32735
0.174161
0.455434
0.117966
0.549356
0.525278
0.21341
0.0277798
0.233369
0.0500977
0.255016
0.079791
0.268701
0.0874797
0.270129
0.109621
0.250465
0.220602
0.217147
0.360668
0.173148
0.499432
0.117953
0.604551
0.588626
0.213027
0.0127427
0.232686
0.030439
0.253618
0.058859
0.267321
0.0737761
0.267948
0.108994
0.248232
0.240318
0.215007
0.393892
0.171438
0.543002
0.118596
0.657393
0.649515
0.212842
-0.00210945
0.232522
0.0107588
0.252739
0.0386424
0.265905
0.0606096
0.264995
0.109904
0.244717
0.260596
0.211754
0.426855
0.169407
0.585349
0.120011
0.70679
0.707615
0.212926
-0.0170456
0.232783
-0.00909788
0.252195
0.0192301
0.264148
0.0486564
0.261116
0.112936
0.239972
0.281741
0.207595
0.459233
0.167315
0.625628
0.12175
0.752355
0.763108
0.213244
-0.0323003
0.233325
-0.0291782
0.25178
0.000774673
0.261859
0.0385772
0.256238
0.118558
0.234144
0.303834
0.202781
0.490596
0.165159
0.66325
0.122945
0.794569
0.816288
0.2136
-0.0479107
0.233973
-0.0495508
0.251272
-0.0165242
0.258819
0.0310301
0.250226
0.127151
0.227302
0.326758
0.197363
0.520535
0.162534
0.69808
0.122594
0.834508
0.866839
0.213736
-0.0636564
0.23458
-0.0703955
0.25048
-0.0324241
0.255034
0.0264758
0.243282
0.138904
0.219779
0.35026
0.191475
0.548839
0.159037
0.730518
0.120311
0.873235
0.913186
0.213777
-0.0794433
0.234974
-0.0915926
0.249332
-0.0467819
0.250113
0.0256941
0.234834
0.154183
0.210934
0.37416
0.184222
0.575551
0.15381
0.76093
0.116601
0.910443
0.950662
0.332134
-0.109567
0.371095
-0.130553
0.407015
-0.0827016
0.425438
0.00727149
0.440501
0.139119
0.467858
0.346804
0.506713
0.536697
0.549604
0.718038
0.58131
0.878738
0.945527
0.586445
0.333483
-0.14104
0.37348
-0.17055
0.40908
-0.118302
0.425448
-0.00909621
0.439039
0.125528
0.477112
0.30873
0.534689
0.47912
0.604574
0.648153
0.675361
0.807951
0.887966
0.732922
0.335798
-0.174828
0.375088
-0.20984
0.409777
-0.15299
0.423817
-0.0231368
0.432782
0.116563
0.476161
0.265351
0.547477
0.407804
0.639217
0.556413
0.742402
0.704766
0.783968
0.846401
0.33957
-0.212387
0.373216
-0.243487
0.387643
-0.167417
0.387156
-0.0226505
0.402672
0.101048
0.454756
0.213267
0.535237
0.327324
0.641107
0.450542
0.767364
0.57851
0.646748
0.904584
0.347543
-0.25792
0.356147
-0.252091
0.340096
-0.151366
0.338331
-0.0208852
0.361033
0.0783448
0.41527
0.15903
0.498046
0.244547
0.608342
0.340247
0.743987
0.442864
0.49569
0.895045
0.341071
-0.296981
0.321826
-0.232846
0.289673
-0.119213
0.286679
-0.0178917
0.310658
0.0543664
0.361968
0.107721
0.440274
0.16624
0.54604
0.234481
0.678912
0.309993
0.347896
0.826706
0.314326
-0.309297
0.271889
-0.190408
0.23482
-0.0821441
0.23037
-0.0134422
0.252289
0.0324473
0.296801
0.0632093
0.364951
0.0980898
0.458487
0.140945
0.57887
0.189609
0.215065
0.711701
0.27381
-0.281097
0.213069
-0.129667
0.175068
-0.0441433
0.169836
-0.00821005
0.187116
0.015167
0.221421
0.0289043
0.274385
0.0451253
0.348766
0.0665648
0.447079
0.0912962
0.106126
0.556018
0.214645
-0.193731
0.140547
-0.0555696
0.109744
-0.0133401
0.104613
-0.0030787
0.115878
0.00390216
0.137562
0.00721976
0.171209
0.011478
0.220004
0.0177701
0.286345
0.0249558
0.0304054
0.362065
0.108279
0.0527096
0.0393696
0.0362909
0.040193
0.0474128
0.0588907
0.0766608
0.101617
0.132022
0.608615
-0.117143
0.632291
-0.116568
0.655118
-0.109518
0.676277
-0.100368
0.695227
-0.0895751
0.711368
-0.0766099
0.724264
-0.0614009
0.733593
-0.0442632
0.73908
-0.0258892
-0.00758359
0.750268
-0.134489
0.765184
-0.131484
0.779397
-0.123732
0.792629
-0.1136
0.8047
-0.101645
0.81584
-0.0877507
0.8264
-0.0719602
0.836392
-0.0542556
0.844843
-0.0343406
-0.0114683
0.851035
-0.139123
0.853488
-0.133937
0.85501
-0.125254
0.855393
-0.113982
0.854546
-0.100799
0.852645
-0.0858494
0.849916
-0.0692309
0.846755
-0.0510945
0.843958
-0.0315438
-0.0105288
0.892632
-0.127172
0.878605
-0.11991
0.863911
-0.110561
0.849333
-0.0994041
0.835476
-0.0869413
0.823038
-0.0734124
0.812648
-0.05884
0.804764
-0.0432107
0.79975
-0.02653
-0.00887528
0.87039
-0.102517
0.845605
-0.0951244
0.821981
-0.0869372
0.800512
-0.0779352
0.781668
-0.068097
0.765723
-0.057467
0.752895
-0.0460129
0.743407
-0.0337222
0.737527
-0.0206496
-0.00695167
0.797037
-0.0728485
0.768958
-0.0670451
0.743136
-0.0611154
0.720045
-0.0548437
0.699976
-0.0480277
0.683114
-0.0406056
0.669643
-0.0325415
0.65977
-0.0238493
0.653727
-0.0146065
-0.00496211
0.682997
-0.0441438
0.656506
-0.040554
0.632403
-0.0370125
0.610878
-0.033319
0.592144
-0.0292936
0.576394
-0.024856
0.563827
-0.0199743
0.554646
-0.0146678
0.549043
-0.00900406
-0.00309355
0.532509
-0.0206341
0.510905
-0.0189502
0.491271
-0.0173784
0.473699
-0.0157475
0.458347
-0.0139408
0.445394
-0.0119032
0.435034
-0.00961493
0.427456
-0.00708977
0.422823
-0.00437066
-0.00152222
0.346782
-0.00535133
0.332641
-0.00480854
0.319747
-0.00448425
0.308132
-0.00413295
0.297904
-0.00371305
0.289211
-0.00321032
0.282216
-0.00261956
0.277073
-0.00194702
0.273912
-0.00120917
-0.000429012
0.126671
0.121862
0.117378
0.113245
0.109532
0.106322
0.103702
0.101755
0.100546
0.000185046
0.0116083
-0.0117933
0.000623702
0.0304442
-0.0308828
0.00123709
0.0462385
-0.0468519
0.00197721
0.0594636
-0.0602037
0.00277646
0.0700171
-0.0708163
0.00376931
0.0798841
-0.0808769
0.00396324
0.0772624
-0.0774564
0.0040846
0.070038
-0.0701594
0.00394471
0.0610757
-0.0609358
0.0499527
0.00350697
-0.0495149
0.000533365
0.0110749
0.00180376
0.0291738
0.00358488
0.0444574
0.00574092
0.0573076
0.00807236
0.0676856
0.011039
0.0769174
0.0116753
0.0766261
0.0120801
0.0696331
0.0117729
0.061383
0.051075
0.0106505
0.000835447
0.0102395
0.00283166
0.0271776
0.00563879
0.0416502
0.00904104
0.0539053
0.0127387
0.063988
0.0172465
0.0724097
0.0187891
0.0750835
0.0195707
0.0688516
0.0193844
0.0615692
0.0524315
0.018028
0.00105591
0.00918357
0.00359678
0.0246367
0.0071932
0.0380538
0.0115552
0.0495434
0.0163557
0.0591875
0.0217465
0.0670189
0.0250714
0.0717587
0.0263536
0.0675693
0.0266019
0.061321
0.0535633
0.02547
0.00115137
0.00803219
0.00397905
0.021809
0.00804123
0.0339917
0.0129962
0.0445884
0.0185507
0.053633
0.0245563
0.0610132
0.0299507
0.0663643
0.0320885
0.0654315
0.0330098
0.0603997
0.0540881
0.032485
0.00111141
0.00692079
0.00396574
0.0189547
0.0081851
0.0297723
0.0133895
0.039384
0.0193171
0.0477055
0.0257708
0.0545595
0.0324144
0.0597206
0.0363109
0.0615351
0.0381226
0.058588
0.0537041
0.0385066
0.000926201
0.00599459
0.00357279
0.0163081
0.00771026
0.0256348
0.0128811
0.0342132
0.0187859
0.0418007
0.0253373
0.0480081
0.0323198
0.0527381
0.0382736
0.0555813
0.0415854
0.0552762
0.0521801
0.0431094
0.000567911
0.00542668
0.00278667
0.0140894
0.00665738
0.0217641
0.0116211
0.0292495
0.017204
0.0362178
0.023447
0.0417651
0.0302854
0.0458997
0.0371829
0.0486837
0.0425595
0.0498996
0.0489218
0.0458177
0.000104093
0.00532258
0.001769
0.0124245
0.00517611
0.018357
0.00981526
0.0246103
0.0149575
0.0310755
0.0206217
0.0361009
0.0269037
0.0396177
0.0335867
0.0420007
0.0400839
0.0434025
0.0437943
0.0452114
-0.000174968
0.00549755
0.00108784
0.0111617
0.00385706
0.0155878
0.00788779
0.0205796
0.0125027
0.0264606
0.0175731
0.0310305
0.0231783
0.0340125
0.0292496
0.0359295
0.0356352
0.0370169
0.0373688
0.0420607
-2.00177e-05
0.00551757
0.00114179
0.00999985
0.00327974
0.0134498
0.00641551
0.0174438
0.0102978
0.0225783
0.014839
0.0264893
0.0199576
0.0288939
0.0254886
0.0303985
0.0312249
0.0312806
0.0316962
0.0368974
0.000378987
0.00513858
0.00153417
0.00884466
0.00318358
0.0118004
0.0054947
0.0151327
0.00871358
0.0193594
0.0128973
0.0223056
0.0177469
0.0240443
0.0230117
0.0251337
0.0285007
0.0257916
0.0260622
0.0341347
0.00062559
0.00451299
0.00170944
0.00776081
0.00303048
0.0104794
0.00484933
0.0133139
0.0078365
0.0163722
0.0119217
0.0182203
0.0166694
0.0192966
0.0218396
0.0199635
0.0272998
0.0203315
0.0204134
0.0329486
0.000677697
0.00383529
0.00164433
0.00679417
0.00282298
0.00930073
0.00470013
0.0114367
0.00796694
0.0131054
0.0121912
0.0139961
0.0170023
0.0144854
0.0222381
0.0147277
0.0278019
0.0147677
0.0146074
0.0336078
0.000663064
0.00317223
0.00155196
0.00590527
0.00298691
0.00786577
0.00556529
0.00885833
0.00934943
0.00932125
0.0138651
0.00948045
0.0189024
0.00944811
0.0243616
0.00926844
0.0301746
0.00895471
0.00851236
0.0362697
0.000592368
0.00257985
0.00170583
0.0047918
0.004041
0.0055306
0.00749141
0.00540791
0.0117392
0.00507347
0.0165821
0.00463751
0.0219184
0.0041118
0.0276885
0.00349836
0.0338408
0.00280239
0.00203643
0.0403168
0.000519022
0.00206083
0.00246721
0.0028436
0.00572701
0.00227079
0.00971992
0.00141498
0.0143062
0.000487222
0.0194387
-0.000495002
0.0250864
-0.00153594
0.0312067
-0.00262194
0.0377395
-0.0037304
-0.00484912
0.044625
0.000861122
0.0011997
0.00360102
0.000103684
0.00716063
-0.00128882
0.0113442
-0.0027686
0.0161363
-0.00430489
0.0215461
-0.00590478
0.0275332
-0.00752302
0.0340089
-0.00909771
0.040891
-0.0106125
-0.0120958
0.0481377
0.00150263
-0.000302941
0.0041358
-0.00252949
0.00755863
-0.00471167
0.0117707
-0.00698069
0.0167786
-0.00931276
0.0225074
-0.0116336
0.0287941
-0.0138098
0.0355181
-0.0158217
0.0426514
-0.0177457
-0.019637
0.0501925
0.00107177
0.00317835
0.00650197
0.0109612
0.0163326
0.0223051
0.0287169
0.0355944
0.0430019
0.0509181
0.0513789
0.0837798
-0.0982612
0.0771991
-0.007273
-0.0185472
0.0997446
-0.0508377
0.0282922
0.113339
-0.0467119
0.0331174
0.121261
-0.0266167
0.0186946
0.124872
-0.00794774
0.0043372
0.126124
0.0025923
-0.00384449
0.126927
0.00490122
-0.00570449
0.128103
0.00367832
-0.00485424
0.000918785
-0.0027387
0.0585454
0.059369
0.0915167
-0.0402444
0.118616
-0.0779375
0.13455
-0.0626455
0.143236
-0.0353026
0.146875
-0.0115869
0.147877
0.00159132
0.148442
0.00433553
0.149481
0.00263967
-0.000675215
0.0665224
0.0257952
0.104845
-0.0785669
0.135778
-0.10887
0.155346
-0.082214
0.165306
-0.0452622
0.169003
-0.0152841
0.169632
0.000962906
0.169784
0.00418275
0.170486
0.00193853
-0.00186636
0.0753671
-0.0159641
0.117635
-0.120835
0.151452
-0.142688
0.174787
-0.105549
0.186802
-0.0572768
0.190814
-0.0192964
0.191087
0.000689552
0.190753
0.00451709
0.190994
0.00169731
-0.00253175
0.0843928
-0.0640872
0.129425
-0.165866
0.165392
-0.178656
0.192028
-0.132185
0.206952
-0.0722009
0.211872
-0.0242163
0.21196
0.000601896
0.21115
0.00532733
0.210874
0.00197328
-0.00260298
0.0928368
-0.116607
0.139887
-0.212917
0.177515
-0.216283
0.206682
-0.161353
0.224886
-0.0904048
0.231627
-0.0309565
0.231907
0.00032153
0.230743
0.00649084
0.22997
0.00274712
-0.00207048
0.100046
-0.172028
0.148759
-0.26163
0.187733
-0.255256
0.21868
-0.1923
0.239896
-0.11162
0.249416
-0.0404766
0.250532
-0.000794513
0.249272
0.00775035
0.248107
0.00391243
-0.00098848
0.105678
-0.229569
0.155924
-0.311876
0.196006
-0.295338
0.228145
-0.22444
0.251655
-0.13513
0.264478
-0.0532995
0.267339
-0.00365522
0.266414
0.00867508
0.265057
0.00526907
0.000525123
0.109714
-0.28909
0.161421
-0.363584
0.202378
-0.336295
0.235281
-0.257343
0.260234
-0.160083
0.276144
-0.0692094
0.281696
-0.00920713
0.28177
0.00860126
0.280581
0.00645819
0.00226247
0.112456
0.165418
0.206996
0.240314
0.266004
0.284116
0.292804
0.294709
0.294143
0.0131984
0.00607867
-0.0192771
0.0109789
0.00221952
0.0114888
-0.000509963
0.0128953
-0.00140643
0.0135996
-0.000704358
0.0137223
-0.000122649
0.0135297
0.000192537
0.0132702
0.000259601
0.0130451
0.000225077
0.00018603
0.0372427
0.0232184
-0.0543825
0.0314658
0.00799639
0.0339443
-0.00298847
0.037957
-0.00541913
0.0401026
-0.00285002
0.0405039
-0.000523853
0.0399557
0.000740732
0.039205
0.00101031
0.038547
0.000883128
0.000608754
0.0579548
0.0481039
-0.0828403
0.0508372
0.015114
0.0557916
-0.00794293
0.0623033
-0.0119309
0.0659294
-0.00647609
0.0666828
-0.00127721
0.0658338
0.00158972
0.0646319
0.00221219
0.0635886
0.00192648
0.00121007
0.0738918
0.0754152
-0.101203
0.0680199
0.0209858
0.076307
-0.01623
0.0855531
-0.0211769
0.0908166
-0.0117396
0.0920567
-0.00251723
0.0909937
0.00265267
0.0894031
0.00380289
0.0880513
0.0032782
0.00193835
0.0813856
-0.104232
0.083824
0.095886
0.107826
0.114781
0.116602
0.11541
0.113508
0.111932
0.00273347
-0.000172912
-0.00256056
0.0032643
-0.000530831
0.00417646
-0.000912161
0.00548742
-0.00131096
0.00718372
-0.00169629
0.00922816
-0.00204444
0.0115846
-0.00235648
0.0141729
-0.00258822
0.0168579
-0.00268501
-0.00241921
0.00778686
-0.000645651
-0.00731412
0.00923365
-0.00197762
0.0117128
-0.00339135
0.015269
-0.0048671
0.019883
-0.00631027
0.0254807
-0.00764214
0.0319627
-0.00883849
0.0391537
-0.00977929
0.0467646
-0.0102959
-0.010037
0.0124772
-0.00138366
-0.0117392
0.0147267
-0.00422716
0.0185593
-0.00722397
0.0240229
-0.0103307
0.0310772
-0.0133645
0.0395836
-0.0161486
0.0493251
-0.01858
0.0600478
-0.020502
0.071411
-0.0216592
-0.0214663
0.0168063
-0.00234754
-0.0158424
0.0197303
-0.0071512
0.0246732
-0.0121669
0.0316493
-0.0173068
0.0405475
-0.0222626
0.0511031
-0.0267042
0.0629336
-0.0304105
0.0756896
-0.033258
0.0888549
-0.0348246
-0.0338145
0.0207916
-0.0196322
0.0242909
0.0301521
0.0383153
0.0485377
0.0603401
0.073039
0.0855987
0.0959856
0.0314742
-0.0312905
0.0371006
-0.0372843
0.0256095
-0.0308874
0.0367521
0.019947
-0.0300548
0.0357173
0.0146962
-0.0286592
0.0339099
0.0100713
-0.0264519
0.0310768
0.00621127
-0.0227685
0.0266285
0.00311873
-0.0176446
0.0207371
0.0010212
-0.0136197
0.0157172
-8.43281e-05
-0.0101576
0.0112631
-0.00563629
0.00555196
0.0295065
-0.0254219
-0.035375
0.0237859
-0.0251667
0.0182912
-0.0245601
0.0131997
-0.0235677
0.00876353
-0.0220157
0.00536481
-0.0193698
0.00302947
-0.0153092
0.00140339
-0.0119936
0.000302104
-0.00905633
-0.00533418
0.0294858
-0.0194293
-0.0354784
0.0236774
-0.0193583
0.0181558
-0.0190384
0.0130374
-0.0184494
0.00852473
-0.017503
0.00506788
-0.0159129
0.00302076
-0.0132621
0.00165572
-0.0106285
0.000588394
-0.007989
-0.00474578
0.0313899
-0.0131647
-0.0376545
0.02536
-0.0133285
0.0196481
-0.0133265
0.0143407
-0.013142
0.00957685
-0.0127391
0.00568022
-0.0120163
0.00321842
-0.0108003
0.00177465
-0.00918474
0.000733868
-0.00694821
-0.00401191
0.0349438
-0.00651439
-0.0415941
0.0285756
-0.00696024
0.0225612
-0.00731202
0.0169671
-0.00754785
0.0118845
-0.00765653
0.00749706
-0.00762882
0.00415124
-0.00745444
0.00200269
-0.00703618
0.000801666
-0.00574718
-0.00321024
0.039192
0.000578629
-0.046285
0.0324243
-0.000192499
0.0260538
-0.000941517
0.0201542
-0.00164823
0.0147859
-0.0022882
0.0100121
-0.00285505
0.0059166
-0.00335895
0.00267173
-0.0037913
0.000719794
-0.00379523
-0.00249044
0.0429504
0.00807165
-0.0504434
0.0357976
0.00696028
0.0290391
0.00581705
0.0227733
0.00461752
0.0170998
0.00338535
0.012057
0.00218777
0.00762889
0.00106914
0.00382566
1.1942e-05
0.00097158
-0.000941144
-0.00151885
0.0451697
0.0158455
-0.0529435
0.0377704
0.0143595
0.0307446
0.0128429
0.0241307
0.0112314
0.0180711
0.00944492
0.0127468
0.00751216
0.00823228
0.00558363
0.00450678
0.00373745
0.00161398
0.00195167
9.51348e-05
0.0453135
0.0239128
-0.0533808
0.0377272
0.0219458
0.0306247
0.0199455
0.0239218
0.0179343
0.017593
0.0157738
0.011834
0.0132712
0.00701332
0.0104043
0.00340488
0.0073459
0.00114255
0.00421402
0.00123768
0.0442953
-0.052775
0.0363717
0.0291309
0.0225506