/*--------------------------------*- C++ -*----------------------------------*\
  =========                 |
  \\      /  F ield         | OpenFOAM: The Open Source CFD Toolbox
   \\    /   O peration     | Website:  https://openfoam.org
    \\  /    A nd           | Version:  13
     \\/     M anipulation  |
\*---------------------------------------------------------------------------*/
FoamFile
{
    format      ascii;
    class       volVectorField;
    location    "0.42";
    object      U;
}
// * * * * * * * * * * * * * * * * * * * * * * * * * * * * * * * * * * * * * //

dimensions      [0 1 -1 0 0 0 0];

internalField   nonuniform List<vector> 
1800
(
(0.0978032 -0.0883309 -4.49319e-20)
(0.286899 -0.241954 -3.41439e-20)
(0.473974 -0.379045 -4.85091e-19)
(0.657689 -0.500153 1.91495e-19)
(0.836603 -0.607157 7.43735e-20)
(1.0099 -0.701351 -3.90376e-20)
(1.17713 -0.783426 5.54551e-20)
(1.3379 -0.853616 1.96876e-19)
(1.49154 -0.912873 5.91939e-19)
(1.63346 -0.96678 8.09686e-19)
(0.119063 -0.0915046 -7.91295e-20)
(0.344295 -0.247712 -7.70638e-19)
(0.563285 -0.384752 3.7817e-21)
(0.775364 -0.504234 1.25826e-19)
(0.9795 -0.608914 -1.26308e-19)
(1.1752 -0.700679 7.66824e-20)
(1.36229 -0.78076 -2.8107e-19)
(1.54075 -0.850055 -5.01052e-20)
(1.71006 -0.910642 -6.93013e-19)
(1.8678 -0.966959 6.29373e-19)
(0.141653 -0.0923246 4.88242e-20)
(0.403684 -0.247734 2.09294e-19)
(0.653759 -0.382119 5.43381e-19)
(0.89218 -0.497905 -1.9029e-19)
(1.11865 -0.598381 -1.43032e-19)
(1.33321 -0.685802 7.56413e-20)
(1.53604 -0.761688 9.83343e-20)
(1.72741 -0.827268 1.94095e-19)
(1.90718 -0.884759 2.73426e-21)
(2.07418 -0.93781 1.50991e-19)
(0.163909 -0.0897221 -4.57201e-20)
(0.461703 -0.239473 -2.04397e-19)
(0.741433 -0.367621 -1.81269e-19)
(1.00451 -0.476978 -1.42316e-19)
(1.25162 -0.57102 1.81336e-19)
(1.48351 -0.652121 -5.70968e-20)
(1.70092 -0.721894 -4.31251e-21)
(1.90452 -0.781603 2.99253e-21)
(2.09454 -0.833337 -1.60341e-19)
(2.27023 -0.880316 -1.06049e-19)
(0.18466 -0.0833575 -1.1405e-19)
(0.515898 -0.221809 8.76345e-20)
(0.823298 -0.339433 1.79856e-19)
(1.10932 -0.439065 2.43326e-19)
(1.37562 -0.524071 -2.85057e-19)
(1.62371 -0.596774 -3.58084e-21)
(1.85494 -0.65876 4.25046e-19)
(2.07042 -0.71125 -1.85047e-19)
(2.27082 -0.756145 -1.23995e-19)
(2.45577 -0.796371 -5.36419e-20)
(0.203192 -0.0735009 1.73601e-19)
(0.564476 -0.195202 1.0299e-18)
(0.896798 -0.298077 1.4326e-19)
(1.20352 -0.384737 -5.03174e-19)
(1.4872 -0.458227 -1.75521e-19)
(1.75004 -0.520668 6.37751e-19)
(1.99391 -0.573521 -1.45411e-19)
(2.22036 -0.617892 -4.31664e-19)
(2.43047 -0.655433 -3.16575e-19)
(2.6242 -0.688725 2.61596e-19)
(0.218901 -0.060592 1.16344e-19)
(0.605751 -0.160702 -7.47624e-19)
(0.959322 -0.245032 -1.08566e-18)
(1.28372 -0.3158 3.83811e-19)
(1.58224 -0.375565 4.49983e-19)
(1.85769 -0.426127 -9.02176e-22)
(2.1124 -0.468737 -6.39754e-19)
(2.3483 -0.50432 2.19323e-19)
(2.56684 -0.534205 -3.64327e-19)
(2.76828 -0.560558 -3.11128e-19)
(0.231238 -0.0451728 -3.425e-19)
(0.638207 -0.119685 -6.92628e-19)
(1.0085 -0.182295 1.21227e-18)
(1.34678 -0.234701 5.98724e-19)
(1.65695 -0.278853 -2.69777e-19)
(1.94226 -0.316135 -2.11508e-19)
(2.20545 -0.347513 0)
(2.44876 -0.373685 1.16823e-19)
(2.674 -0.395617 -2.9585e-19)
(2.88173 -0.414962 -7.74827e-20)
(0.239769 -0.0278757 -2.04473e-19)
(0.66066 -0.0737564 5.62416e-19)
(1.0425 -0.112199 1.71026e-19)
(1.39032 -0.14429 -5.12521e-19)
(1.70842 -0.171276 -7.84228e-19)
(2.00039 -0.194052 3.66229e-20)
(2.26926 -0.213243 1.67121e-19)
(2.51754 -0.22929 -5.46866e-19)
(2.74733 -0.24278 -2.89755e-19)
(2.95955 -0.254772 -5.63583e-19)
(0.244263 -0.00940252 4.51427e-19)
(0.672461 -0.0247041 3.4417e-19)
(1.06031 -0.0373614 -9.38612e-20)
(1.41305 -0.0477878 -1.29872e-20)
(1.73516 -0.0564611 -3.87521e-19)
(2.03043 -0.0637214 -8.5734e-20)
(2.30208 -0.0698078 -2.90586e-19)
(2.55278 -0.0748875 6.4658e-19)
(2.78482 -0.0791678 1.71006e-19)
(2.99947 -0.0830081 2.23293e-21)
(-0.00235448 -0.021852 -2.90829e-20)
(0.00874564 -0.0693024 -7.34371e-20)
(0.0250593 -0.120009 -7.2379e-21)
(0.0494323 -0.170359 -3.45991e-20)
(0.0777702 -0.215644 -1.26751e-20)
(0.106668 -0.253846 -3.89313e-19)
(0.135763 -0.287841 -1.90526e-20)
(0.166577 -0.321137 1.19895e-19)
(0.199398 -0.35458 1.10656e-20)
(0.233283 -0.386875 -3.63175e-20)
(0.000830021 -0.0247812 -9.78313e-20)
(0.0149981 -0.0851484 -2.07834e-19)
(0.0393324 -0.15982 -5.8509e-20)
(0.0692646 -0.224477 -1.10854e-19)
(0.0995904 -0.274785 -9.86411e-20)
(0.130676 -0.317278 -2.81798e-19)
(0.164747 -0.35824 2.01682e-19)
(0.202403 -0.399539 1.67103e-19)
(0.241899 -0.439354 -2.54433e-19)
(0.281431 -0.475674 8.05432e-20)
(0.00548325 -0.0315809 -8.54787e-20)
(0.0287921 -0.10746 -8.54448e-19)
(0.0627818 -0.195725 -1.26329e-19)
(0.0974327 -0.268449 9.56207e-20)
(0.131921 -0.326708 6.81389e-20)
(0.169842 -0.379735 -4.57624e-19)
(0.213138 -0.431638 3.63226e-20)
(0.259319 -0.481003 3.66235e-19)
(0.305696 -0.525396 -3.84656e-19)
(0.351688 -0.564747 -2.5762e-19)
(0.0113659 -0.0410625 -1.8818e-21)
(0.0466221 -0.130893 1.87866e-19)
(0.0895849 -0.225121 1.73894e-21)
(0.133063 -0.306736 -1.14274e-20)
(0.177853 -0.377536 -3.01096e-20)
(0.22734 -0.443425 9.05197e-20)
(0.281182 -0.505058 7.50083e-20)
(0.33577 -0.560235 -1.36511e-19)
(0.389878 -0.608661 9.227e-21)
(0.444082 -0.651179 -1.04368e-20)
(0.0185098 -0.0508184 0)
(0.0672316 -0.152437 5.38498e-21)
(0.121905 -0.253536 -5.04438e-19)
(0.178679 -0.345314 5.07479e-20)
(0.237825 -0.428356 -1.32694e-20)
(0.30054 -0.504774 9.28082e-21)
(0.365333 -0.573959 -2.63669e-20)
(0.429851 -0.634937 -7.86676e-21)
(0.494017 -0.688277 0)
(0.558227 -0.734228 -2.05936e-20)
(0.0273291 -0.0596761 3.15682e-20)
(0.091892 -0.172867 -1.52693e-19)
(0.161748 -0.282483 -4.48458e-20)
(0.234613 -0.383804 -5.86453e-20)
(0.309727 -0.476616 4.98264e-20)
(0.386726 -0.561326 3.21508e-21)
(0.46423 -0.637413 9.38307e-20)
(0.540932 -0.70458 -2.17558e-20)
(0.616909 -0.76301 -6.97871e-19)
(0.692161 -0.812154 -1.01181e-20)
(0.037979 -0.0676191 7.20849e-22)
(0.121237 -0.192189 5.67717e-20)
(0.209154 -0.310603 -7.89895e-20)
(0.299912 -0.420132 -1.6769e-20)
(0.392117 -0.520586 -7.28411e-20)
(0.484751 -0.611993 -1.08609e-20)
(0.576667 -0.694129 8.44405e-21)
(0.666901 -0.766882 -2.13487e-19)
(0.75548 -0.829939 3.84474e-19)
(0.842265 -0.881936 9.72732e-19)
(0.0503652 -0.0746092 1.52436e-20)
(0.155131 -0.209618 -1.4257e-19)
(0.263457 -0.33596 -2.14288e-19)
(0.373657 -0.452087 8.9194e-20)
(0.484081 -0.558214 -6.43185e-20)
(0.593513 -0.654528 9.99489e-20)
(0.700901 -0.741142 1.98471e-19)
(0.805354 -0.818113 -1.10235e-19)
(0.906955 -0.884871 -3.06501e-19)
(1.00561 -0.939234 7.26189e-19)
(0.064293 -0.0803646 -2.63912e-20)
(0.193288 -0.224032 -5.7826e-19)
(0.324293 -0.356558 5.24575e-19)
(0.455673 -0.477216 3.37736e-19)
(0.585719 -0.586712 -8.60558e-20)
(0.713195 -0.685601 3.09391e-19)
(0.837088 -0.774342 -1.60052e-19)
(0.95651 -0.853327 -7.74944e-19)
(1.07166 -0.92186 -4.04157e-19)
(1.18259 -0.977061 4.54246e-19)
(0.0795476 -0.0846691 -7.98518e-20)
(0.235848 -0.234421 -5.44342e-19)
(0.392391 -0.370524 -8.16024e-21)
(0.547535 -0.492786 6.87249e-20)
(0.69958 -0.602441 3.37932e-19)
(0.847369 -0.700393 -1.85585e-19)
(0.989979 -0.787378 -1.69857e-19)
(1.12648 -0.863734 1.89388e-19)
(1.25675 -0.928522 -3.52007e-19)
(1.37999 -0.980193 -5.85128e-19)
(0.403208 -0.530705 1.00455e-18)
(0.685031 -0.616579 -2.87545e-19)
(0.913418 -0.555244 -1.54621e-19)
(1.0859 -0.428418 2.88515e-19)
(1.23584 -0.277701 -2.40408e-19)
(1.3532 -0.136394 -2.9438e-19)
(1.4421 -0.0344964 -2.48931e-19)
(1.49478 0.0047012 -3.22564e-20)
(1.51836 0.0075713 1.17978e-19)
(1.5376 0.00437052 3.44341e-20)
(0.469298 -0.61859 9.79303e-19)
(0.741984 -0.691958 7.96981e-20)
(0.96652 -0.615056 1.08313e-20)
(1.12402 -0.477078 -2.36865e-19)
(1.26227 -0.316943 -7.88911e-19)
(1.37158 -0.166929 0)
(1.4579 -0.0552394 -2.27442e-19)
(1.51402 -0.00814057 5.73754e-20)
(1.54324 -0.000774278 4.64391e-21)
(1.57396 -0.00023724 -6.21916e-20)
(0.556642 -0.704324 -9.99447e-19)
(0.811425 -0.764953 -7.25128e-20)
(1.02614 -0.672852 1.60535e-19)
(1.16624 -0.523674 -5.28281e-20)
(1.28922 -0.354893 -3.49679e-20)
(1.38857 -0.196669 6.5171e-20)
(1.46784 -0.0757848 0)
(1.51784 -0.0205505 0)
(1.54573 -0.00908849 -6.4693e-20)
(1.57644 -0.004975 0)
(0.666026 -0.786185 -2.24265e-19)
(0.896223 -0.833609 3.99788e-19)
(1.0927 -0.727581 2.6924e-20)
(1.21311 -0.567314 0)
(1.31726 -0.390857 6.51782e-19)
(1.40489 -0.224831 -1.63745e-19)
(1.47508 -0.0948525 0)
(1.51813 -0.0319729 1.54005e-19)
(1.54536 -0.0169553 0)
(1.57428 -0.00911898 2.22092e-20)
(0.795919 -0.862999 -1.4927e-19)
(0.998129 -0.895921 4.48205e-19)
(1.16691 -0.778057 -1.48112e-20)
(1.26473 -0.607203 0)
(1.34677 -0.424192 1.84628e-19)
(1.42049 -0.25106 3.01441e-19)
(1.48088 -0.112372 4.89755e-20)
(1.51804 -0.0430377 7.28709e-21)
(1.54519 -0.0245679 -3.36359e-20)
(1.57294 -0.0130895 3.02743e-20)
(0.942294 -0.933997 -1.3218e-18)
(1.11683 -0.950507 -9.31685e-19)
(1.24944 -0.822965 4.84119e-21)
(1.32095 -0.642576 5.58921e-19)
(1.37797 -0.454201 -2.97955e-19)
(1.43506 -0.275138 1.53605e-19)
(1.48559 -0.128635 2.5751e-19)
(1.51819 -0.0538775 -1.96493e-19)
(1.54544 -0.0319646 -1.86352e-21)
(1.57261 -0.016864 7.77795e-21)
(1.10005 -0.998795 -2.57855e-19)
(1.25022 -0.997161 2.83749e-19)
(1.34062 -0.861148 4.07598e-21)
(1.38159 -0.672666 -1.70132e-20)
(1.41098 -0.480104 -5.64219e-19)
(1.44832 -0.296742 5.3256e-20)
(1.48907 -0.143815 -9.62619e-20)
(1.51868 -0.0646023 -3.0712e-20)
(1.54616 -0.0392181 8.64737e-21)
(1.57328 -0.0205704 -2.12123e-20)
(1.26422 -1.05628 -1.20241e-18)
(1.39483 -1.03648 2.08061e-19)
(1.43946 -0.891993 0)
(1.44579 -0.696966 3.28223e-20)
(1.44527 -0.501275 4.92812e-19)
(1.45976 -0.315539 -7.99075e-22)
(1.49063 -0.15808 -2.85841e-19)
(1.51926 -0.0753768 4.8315e-20)
(1.54723 -0.0463976 7.99256e-23)
(1.57482 -0.0242746 1.42292e-20)
(1.43186 -1.10304 3.39113e-18)
(1.54804 -1.06939 2.48264e-19)
(1.54581 -0.916204 4.59487e-19)
(1.51384 -0.715839 -3.09406e-20)
(1.48108 -0.517721 -3.33953e-20)
(1.46932 -0.331503 -3.9663e-19)
(1.48952 -0.171873 7.2934e-20)
(1.51897 -0.0860671 3.42965e-21)
(1.548 -0.0532836 -2.85125e-20)
(1.57097 -0.0279525 -5.65472e-20)
(1.59909 -1.12782 -2.99914e-18)
(1.70179 -1.09473 1.27497e-18)
(1.65406 -0.936428 -2.27095e-19)
(1.58189 -0.732756 -7.70738e-19)
(1.51565 -0.532928 -6.39035e-19)
(1.47514 -0.348006 -2.47242e-19)
(1.48329 -0.187332 -5.00231e-20)
(1.51509 -0.0979454 0)
(1.53411 -0.0582562 5.9163e-21)
(1.52882 -0.0297264 2.43673e-20)
(1.88803 -1.16988 -6.72101e-18)
(1.92728 -1.10434 -1.6968e-18)
(1.80491 -0.93072 -5.64938e-20)
(1.67346 -0.72461 1.12764e-19)
(1.5615 -0.528621 1.69975e-19)
(1.48396 -0.354298 -1.14147e-19)
(1.47418 -0.198997 -2.85667e-20)
(1.47794 -0.103221 3.73243e-20)
(1.46052 -0.0558462 -3.71728e-20)
(1.44526 -0.028794 -2.13547e-20)
(2.28917 -1.13447 4.94882e-19)
(2.17878 -1.05593 -2.65987e-19)
(1.94309 -0.86403 5.48028e-19)
(1.7371 -0.662419 -1.00618e-19)
(1.566 -0.476979 1.07519e-19)
(1.44091 -0.32064 -1.37515e-20)
(1.38487 -0.188042 8.26875e-20)
(1.3572 -0.0965597 -2.75066e-20)
(1.34136 -0.0478645 1.51794e-19)
(1.32701 -0.0251203 7.288e-20)
(2.61055 -1.04329 2.27073e-18)
(2.35235 -0.948282 3.26366e-19)
(2.00949 -0.758616 -1.18896e-19)
(1.73542 -0.571218 1.21383e-36)
(1.51126 -0.407443 -2.58138e-20)
(1.34869 -0.27665 1.46726e-33)
(1.26255 -0.1672 -1.3642e-20)
(1.22933 -0.0862628 -1.60508e-33)
(1.2104 -0.0420352 7.49194e-21)
(1.19469 -0.022231 -2.28468e-20)
(2.78725 -0.89377 3.89463e-33)
(2.37016 -0.795267 2.96436e-18)
(1.97503 -0.629828 1.82257e-18)
(1.65599 -0.468093 0)
(1.41123 -0.332567 8.57764e-19)
(1.23652 -0.226787 4.4467e-19)
(1.13431 -0.141135 1.40757e-19)
(1.08923 -0.0748162 -2.60526e-33)
(1.06829 -0.0356691 -6.00292e-20)
(1.05238 -0.0188709 1.83782e-20)
(2.7639 -0.705758 3.84437e-18)
(2.24641 -0.629649 -1.46957e-19)
(1.8475 -0.490616 0)
(1.51712 -0.36096 0)
(1.27442 -0.254254 0)
(1.10186 -0.173728 0)
(0.994411 -0.110581 -1.18718e-20)
(0.94208 -0.0608342 -3.85894e-33)
(0.918778 -0.0290068 7.5771e-21)
(0.902452 -0.0153819 1.94855e-33)
(2.55131 -0.516973 3.26754e-18)
(2.02033 -0.462822 0)
(1.63908 -0.353471 0)
(1.32763 -0.256402 0)
(1.10289 -0.178863 0)
(0.944736 -0.122528 0)
(0.842566 -0.079805 3.24478e-20)
(0.787893 -0.0456012 -5.70994e-20)
(0.763064 -0.0219396 8.1354e-21)
(0.746668 -0.011747 4.61929e-20)
(2.19019 -0.342693 0)
(1.70276 -0.303485 1.10042e-18)
(1.36155 -0.227547 1.09384e-18)
(1.09176 -0.161863 0)
(0.899516 -0.111877 6.7688e-19)
(0.765947 -0.0769226 4.15209e-19)
(0.677506 -0.0512322 2.43658e-19)
(0.626477 -0.0304289 6.27354e-20)
(0.602053 -0.0148388 9.14645e-21)
(0.586305 -0.00813448 -3.84402e-21)
(1.70289 -0.191131 -6.73803e-19)
(1.30024 -0.165586 -2.74041e-19)
(1.02518 -0.121736 1.75491e-19)
(0.815295 -0.0844016 -2.12566e-34)
(0.668301 -0.0578564 -7.70161e-20)
(0.56741 -0.0401287 3.74357e-33)
(0.499342 -0.0274471 4.97341e-20)
(0.457485 -0.0170076 9.55372e-20)
(0.436176 -0.00837866 9.16595e-21)
(0.422342 -0.00479339 -8.94097e-21)
(1.10089 -0.0758194 3.40772e-18)
(0.823181 -0.0626768 -1.86246e-19)
(0.640638 -0.0442872 -5.8836e-19)
(0.506227 -0.0289856 0)
(0.414089 -0.0194867 -6.39881e-19)
(0.351353 -0.0137812 -4.30381e-19)
(0.308215 -0.0098773 -1.92203e-19)
(0.280249 -0.00657614 -1.2355e-19)
(0.26517 -0.0033393 1.21666e-19)
(0.255224 -0.00206594 -7.91442e-21)
(0.397353 -0.00331878 0)
(0.287869 0.00159276 0)
(0.220904 0.00409219 0)
(0.173566 0.00623262 0)
(0.142451 0.00582078 0)
(0.121462 0.00465427 0)
(0.106579 0.00345566 5.72445e-20)
(0.0962721 0.00222913 -2.09474e-34)
(0.0902395 0.0015185 1.15397e-20)
(0.0859987 0.000544803 1.35905e-20)
(3.36712 -0.0863072 5.39193e-19)
(3.32644 -0.265078 -8.41858e-20)
(3.24736 -0.430643 8.52056e-19)
(3.13239 -0.582139 -6.04897e-19)
(2.98634 -0.718097 6.66285e-19)
(2.81522 -0.83634 2.75008e-19)
(2.62657 -0.933998 -1.92834e-18)
(2.42946 -1.00776 -7.71512e-20)
(2.22461 -1.05356 0)
(1.98477 -1.06639 4.26779e-19)
(3.86193 -0.0750531 7.07344e-18)
(3.7986 -0.234199 1.95633e-18)
(3.70428 -0.38729 -4.86685e-18)
(3.58425 -0.531963 -4.48949e-19)
(3.44237 -0.665854 3.55818e-18)
(3.28183 -0.787263 1.92289e-18)
(3.10646 -0.894987 -5.16694e-18)
(2.92198 -0.987589 -1.95143e-18)
(2.72751 -1.06323 2.20242e-18)
(2.49227 -1.1203 8.52049e-19)
(3.83311 -0.0532932 -1.26237e-19)
(3.82028 -0.171553 4.40392e-18)
(3.78551 -0.299744 -1.0885e-18)
(3.72439 -0.430898 -3.4462e-18)
(3.63623 -0.558702 -6.80097e-18)
(3.52376 -0.678761 1.02783e-17)
(3.39121 -0.788731 4.18039e-18)
(3.24352 -0.887894 -3.91108e-18)
(3.08161 -0.978587 -2.90218e-18)
(2.8872 -1.06282 -3.42412e-18)
(3.62868 -0.0472769 -4.83941e-18)
(3.61963 -0.144921 -4.35354e-18)
(3.59966 -0.243728 5.47243e-18)
(3.56739 -0.343077 1.91205e-18)
(3.52246 -0.442352 -8.97253e-18)
(3.46424 -0.540772 4.92332e-19)
(3.39192 -0.636998 3.88703e-18)
(3.30523 -0.730368 -1.05426e-18)
(3.20512 -0.822984 1.27708e-18)
(3.0832 -0.914671 2.81705e-19)
(3.34406 -0.0365706 -9.15986e-19)
(3.33901 -0.11165 3.0041e-18)
(3.32712 -0.188671 1.61954e-18)
(3.30746 -0.267167 -1.89396e-18)
(3.27989 -0.346063 -2.00144e-18)
(3.24469 -0.424125 -2.43469e-18)
(3.20209 -0.500314 3.79811e-19)
(3.15184 -0.574459 1.38777e-19)
(3.0956 -0.647706 -2.14022e-18)
(3.03301 -0.721233 -2.03502e-18)
(2.96258 -0.0265479 -1.82249e-18)
(2.95982 -0.0798838 -5.87252e-20)
(2.95331 -0.134595 -1.63752e-18)
(2.94241 -0.1909 3.12152e-19)
(2.92677 -0.248548 5.3678e-18)
(2.90631 -0.306927 -3.66815e-19)
(2.88095 -0.365111 4.43506e-20)
(2.85027 -0.422051 -2.60868e-18)
(2.81649 -0.476867 -3.49602e-18)
(2.78608 -0.529837 3.72483e-19)
(2.48713 -0.0175058 -2.89316e-20)
(2.48578 -0.0519311 -8.14316e-19)
(2.4826 -0.0872458 -2.61485e-18)
(2.47708 -0.123769 -3.43101e-18)
(2.46881 -0.161532 2.49652e-18)
(2.45746 -0.200266 1.50222e-18)
(2.44263 -0.239351 -1.38502e-18)
(2.42372 -0.277788 1.62444e-18)
(2.40277 -0.314478 -4.29795e-19)
(2.38957 -0.349532 -9.63815e-19)
(1.91464 -0.00968535 7.72456e-19)
(1.91408 -0.0282955 -8.31789e-19)
(1.91278 -0.0474384 -3.27658e-20)
(1.91032 -0.0673584 -3.47303e-20)
(1.90624 -0.0881298 -7.27461e-20)
(1.90013 -0.109614 -2.33191e-18)
(1.89151 -0.131404 -6.78663e-19)
(1.87979 -0.152781 2.62601e-18)
(1.86665 -0.172972 -6.03456e-19)
(1.86193 -0.192203 -1.35102e-18)
(1.23988 -0.00373634 -1.6428e-18)
(1.23967 -0.0106948 -8.48901e-19)
(1.23923 -0.0179008 2.33919e-18)
(1.23823 -0.0254785 -8.89766e-19)
(1.23625 -0.0334754 -6.7412e-19)
(1.2329 -0.0418318 1.35202e-18)
(1.22775 -0.0503501 -1.29587e-18)
(1.22038 -0.0586653 1.28695e-18)
(1.21202 -0.0663418 -1.21026e-18)
(1.21008 -0.0735069 -4.24799e-18)
(0.454915 -0.000257861 6.6308e-19)
(0.454826 -0.000700464 7.03052e-19)
(0.454691 -0.00115909 7.4818e-19)
(0.454324 -0.00164007 1.35396e-18)
(0.453495 -0.00214022 -6.71981e-19)
(0.451983 -0.00263725 -1.2996e-18)
(0.449567 -0.00309918 6.14703e-19)
(0.445992 -0.00359299 2.48362e-20)
(0.441736 -0.00439226 -4.96518e-20)
(0.440349 -0.00504564 1.1057e-19)
(1.65343 0.996997 -2.8547e-19)
(1.51217 0.941644 1.80113e-20)
(1.35872 0.880586 -2.27759e-19)
(1.19762 0.808325 1.76502e-19)
(1.02954 0.723904 -1.9264e-19)
(0.854807 0.627033 -1.01208e-19)
(0.673754 0.516921 2.3206e-19)
(0.487038 0.392141 -3.05119e-19)
(0.295897 0.250646 3.09884e-19)
(0.101434 0.0916472 2.38847e-19)
(1.88628 0.991997 0)
(1.7296 0.934593 6.3846e-19)
(1.56077 0.872663 3.31336e-19)
(1.38224 0.801782 1.63309e-19)
(1.19451 0.719834 4.32033e-19)
(0.997524 0.625876 -8.69044e-20)
(0.791361 0.518594 -7.85971e-20)
(0.576353 0.395992 8.89146e-20)
(0.353326 0.255181 -1.04531e-18)
(0.122703 0.094359 -1.65687e-20)
(2.09096 0.958907 1.56811e-19)
(1.92517 0.904973 0)
(1.7461 0.846396 -1.00766e-19)
(1.55491 0.779507 -3.83828e-19)
(1.35169 0.702059 5.37248e-20)
(1.13609 0.61278 3.97358e-19)
(0.907789 0.510089 -6.07057e-19)
(0.666599 0.391643 -2.00869e-19)
(0.412605 0.254051 7.83648e-19)
(0.145256 0.0947386 -1.76011e-19)
(2.28479 0.89827 1.88373e-19)
(2.11041 0.850501 1.21088e-20)
(1.92127 0.797821 2.44406e-20)
(1.7181 0.736977 3.615e-20)
(1.50057 0.665844 -2.91699e-20)
(1.26793 0.58313 2.73357e-19)
(1.01927 0.487172 -2.06908e-19)
(0.753685 0.375537 -8.557e-19)
(0.470281 0.244684 0)
(0.167393 0.0916993 0)
(2.46793 0.811767 -1.07028e-18)
(2.28434 0.7708 -6.08531e-19)
(2.08492 0.725039 -1.20584e-19)
(1.87003 0.67151 -6.65812e-20)
(1.63891 0.608291 0)
(1.39032 0.534138 2.40788e-19)
(1.12276 0.447439 2.67819e-19)
(0.834567 0.345841 2.86287e-19)
(0.52385 0.225958 -4.23812e-19)
(0.187913 0.0849003 -8.12474e-20)
(2.63399 0.702063 7.65875e-19)
(2.44156 0.668044 -1.39185e-19)
(2.23244 0.629668 -2.21466e-19)
(2.00665 0.584301 0)
(1.76302 0.530279 0)
(1.49989 0.466491 0)
(1.21524 0.391469 -3.89874e-20)
(0.906698 0.303095 3.70287e-19)
(0.571509 0.198352 3.79138e-19)
(0.206087 0.074626 -3.0859e-19)
(2.7758 0.572339 -1.19318e-18)
(2.57551 0.545251 -1.48102e-18)
(2.35788 0.514525 -3.02988e-22)
(2.12262 0.477946 -1.87697e-19)
(1.8682 0.434184 -9.28868e-20)
(1.59259 0.382322 -1.78872e-19)
(1.29334 0.321129 4.59131e-19)
(0.967504 0.248841 2.14862e-19)
(0.611594 0.16297 5.40067e-19)
(0.221319 0.0613415 2.02869e-19)
(2.88709 0.425741 -1.15695e-18)
(2.68028 0.40563 8.47096e-20)
(2.45578 0.38282 1.6452e-19)
(2.21299 0.355613 1.68273e-20)
(1.95006 0.323054 -3.14433e-19)
(1.66467 0.284472 -1.74238e-19)
(1.35399 0.238941 -6.21247e-19)
(1.01465 0.185144 1.18532e-19)
(0.642615 0.121239 5.14831e-20)
(0.23307 0.0456136 -6.26826e-21)
(2.96282 0.265185 1.01331e-19)
(2.75123 0.252354 3.97021e-19)
(2.52191 0.237906 -3.30299e-19)
(2.27396 0.220743 3.63047e-19)
(2.00526 0.2003 3.72565e-19)
(1.71324 0.176179 4.9192e-19)
(1.39483 0.147812 -6.35767e-19)
(1.04635 0.114392 -3.24428e-19)
(0.663422 0.0748112 -4.585e-20)
(0.24092 0.0280956 -3.27011e-19)
(3.00055 0.0935793 5.81801e-19)
(2.78615 0.0887881 -1.86139e-19)
(2.55427 0.0834467 4.79578e-19)
(2.30369 0.0771529 -3.10699e-19)
(2.0321 0.0697304 2.66482e-19)
(1.73681 0.0610641 6.05442e-19)
(1.41459 0.0509802 3.789e-19)
(1.06163 0.0392359 3.09362e-19)
(0.673406 0.0255072 2.65872e-19)
(0.244658 0.00950742 5.43635e-19)
(0.239044 0.45059 -4.66832e-19)
(0.20351 0.416934 -1.84227e-19)
(0.168044 0.379979 1.38201e-19)
(0.13463 0.342475 -4.20311e-19)
(0.104971 0.30646 -1.20162e-19)
(0.0780647 0.269205 6.91497e-19)
(0.0516588 0.222778 3.36105e-19)
(0.0257887 0.158121 -1.59712e-19)
(0.00701731 0.0794021 1.11993e-19)
(-0.00115193 0.0223757 -6.04445e-20)
(0.288463 0.542739 4.09314e-19)
(0.248564 0.505994 4.55241e-19)
(0.208028 0.464017 -1.27226e-20)
(0.167756 0.417147 -1.31298e-19)
(0.131109 0.369224 -3.08987e-19)
(0.100594 0.321782 8.26292e-20)
(0.0734153 0.268537 2.22594e-19)
(0.0457781 0.196205 1.6326e-19)
(0.0182498 0.101431 -5.86417e-19)
(0.00274488 0.0287293 -1.23042e-19)
(0.359772 0.63157 -5.98634e-19)
(0.313882 0.591495 -4.79597e-19)
(0.268041 0.545729 2.55402e-19)
(0.221366 0.492522 1.36564e-19)
(0.175828 0.432944 -4.98121e-21)
(0.136298 0.370945 -1.38597e-19)
(0.102127 0.304873 -2.78881e-20)
(0.0684031 0.224324 -5.56103e-19)
(0.0335941 0.125611 -2.69484e-19)
(0.00759193 0.0376321 -3.91245e-20)
(0.45443 0.716416 5.01671e-19)
(0.400243 0.672321 1.64632e-19)
(0.346507 0.621417 -1.48519e-19)
(0.292317 0.562493 6.40194e-20)
(0.237793 0.49455 -4.22371e-22)
(0.186606 0.420062 1.73687e-21)
(0.140109 0.34004 -1.30423e-19)
(0.0954443 0.249811 3.80654e-19)
(0.0513873 0.147434 -4.1994e-19)
(0.0135405 0.0475802 -6.56542e-20)
(0.572161 0.796568 -2.81988e-19)
(0.507992 0.748583 -8.90009e-20)
(0.443685 0.691865 -1.42092e-20)
(0.379041 0.626287 -6.82352e-20)
(0.313756 0.551181 5.74908e-20)
(0.249669 0.467442 5.09356e-20)
(0.188371 0.376251 -2.72375e-20)
(0.129304 0.276331 -2.83129e-19)
(0.072492 0.167436 2.18811e-19)
(0.0208859 0.0567576 8.74928e-20)
(0.709464 0.869878 6.4416e-19)
(0.634405 0.818604 3.22389e-19)
(0.558159 0.756569 2.06042e-19)
(0.480871 0.684646 4.81024e-20)
(0.402414 0.602951 1.52641e-19)
(0.323858 0.511918 7.65306e-20)
(0.246448 0.412197 1.4152e-19)
(0.170843 0.303698 5.78001e-20)
(0.0980276 0.186673 -1.66056e-20)
(0.0299755 0.0649859 -1.37481e-20)
(0.861975 0.93402 -1.19633e-19)
(0.775499 0.879926 -8.29442e-19)
(0.686665 0.813423 -8.03996e-20)
(0.59569 0.736305 -4.66493e-20)
(0.502531 0.649222 -1.77698e-20)
(0.408097 0.552413 1.50187e-19)
(0.313454 0.446104 -4.39054e-20)
(0.219689 0.330283 6.53425e-20)
(0.128276 0.20501 -1.44621e-19)
(0.0408923 0.0724734 -1.14381e-21)
(1.02662 0.985383 -8.8647e-19)
(0.928377 0.929079 5.93972e-20)
(0.82658 0.85925 -2.31259e-19)
(0.721401 0.778529 -7.38257e-20)
(0.61272 0.687739 -2.5915e-20)
(0.501422 0.586878 -7.50255e-20)
(0.388501 0.475769 5.64888e-20)
(0.275147 0.354123 6.04089e-20)
(0.162972 0.221524 -9.8255e-21)
(0.0535395 0.0791137 -1.03967e-19)
(1.20377 1.01745 1.23871e-19)
(1.09339 0.960538 5.24773e-19)
(0.978166 0.889401 1.56931e-21)
(0.858155 0.807313 -3.07662e-20)
(0.733095 0.715126 1.51804e-19)
(0.603858 0.612432 -3.48382e-19)
(0.471383 0.498679 -2.44793e-19)
(0.33682 0.373172 3.56357e-19)
(0.201768 0.234994 1.44297e-19)
(0.0677019 0.084532 -3.63612e-20)
(1.40045 1.01511 7.41253e-19)
(1.27795 0.962059 3.24506e-19)
(1.14775 0.895146 5.56369e-20)
(1.01081 0.816244 -1.96178e-19)
(0.86723 0.726412 -1.65706e-20)
(0.717876 0.625267 4.66188e-19)
(0.563571 0.511965 -2.68484e-19)
(0.405337 0.385458 -1.84582e-19)
(0.244706 0.244317 3.35923e-19)
(0.0831162 0.0884431 -6.11896e-21)
(0.971859 0.0956566 9.22739e-21)
(1.15194 0.142608 1.38954e-21)
(1.2079 0.189899 -2.44951e-20)
(1.31257 0.170524 0)
(1.354 0.158346 6.2323e-21)
(1.26781 0.237886 -3.36693e-20)
(1.12203 0.386708 -6.39694e-20)
(0.945408 0.542726 -3.74185e-20)
(0.709641 0.646762 -2.76575e-19)
(0.415688 0.593905 4.68945e-19)
(0.974738 0.0756725 1.86785e-19)
(1.14509 0.11616 -3.17899e-20)
(1.20244 0.161193 1.99904e-21)
(1.3056 0.155471 1.23321e-20)
(1.35438 0.160597 3.28755e-21)
(1.28751 0.270389 -2.21567e-21)
(1.1527 0.435669 6.85509e-20)
(0.991026 0.604986 0)
(0.760357 0.725372 7.33523e-19)
(0.479125 0.684903 -5.39323e-19)
(0.97666 0.0560976 -1.14196e-19)
(1.14168 0.0907003 8.33035e-21)
(1.20052 0.133181 7.68933e-20)
(1.30441 0.139248 2.02792e-20)
(1.3577 0.161516 -1.73493e-20)
(1.3081 0.300237 -3.55375e-20)
(1.18705 0.482923 3.10903e-20)
(1.0423 0.665688 4.33342e-20)
(0.822774 0.801489 -1.06453e-21)
(0.564649 0.772579 -4.35985e-19)
(0.977859 0.0367843 -8.48981e-20)
(1.14136 0.0655411 1.61199e-20)
(1.20246 0.105711 7.15591e-20)
(1.30851 0.122183 2.54683e-20)
(1.36487 0.16188 -2.07725e-20)
(1.32941 0.327926 -1.73597e-20)
(1.22511 0.527962 2.15218e-20)
(1.09952 0.723812 2.63296e-20)
(0.900191 0.872905 -5.18308e-19)
(0.674057 0.854998 -1.79854e-19)
(0.978973 0.017637 4.07497e-20)
(1.14396 0.0401285 -4.77174e-20)
(1.20803 0.0787129 -6.2783e-20)
(1.31673 0.104756 1.74398e-20)
(1.37468 0.16262 0)
(1.3511 0.354054 0)
(1.26671 0.570275 4.68364e-20)
(1.16367 0.778039 -2.78924e-20)
(0.995273 0.937168 -1.15701e-19)
(0.805431 0.930516 -5.75446e-20)
(0.980655 -0.00171035 3.81434e-21)
(1.14932 0.014139 5.39324e-20)
(1.21668 0.052193 -1.91637e-19)
(1.32789 0.0876668 -7.0062e-20)
(1.38573 0.164383 -5.70751e-21)
(1.37292 0.37886 8.72571e-20)
(1.31188 0.609124 1.29602e-19)
(1.2362 0.826687 -1.79617e-20)
(1.10846 0.992471 -3.76728e-20)
(0.95394 0.998441 6.36139e-23)
(0.982866 -0.0218296 2.0939e-21)
(1.15696 -0.0126197 2.32519e-20)
(1.22763 0.0262325 -6.04009e-20)
(1.34098 0.0715652 -1.34205e-19)
(1.39698 0.167387 1.32821e-20)
(1.39498 0.402129 7.86461e-21)
(1.36104 0.643492 -5.75107e-20)
(1.31823 0.868095 -1.25971e-19)
(1.23784 1.03847 -2.43786e-20)
(1.11389 1.05886 -9.83473e-19)
(0.98429 -0.0431369 1.54136e-20)
(1.16616 -0.0403446 -1.20532e-19)
(1.24005 0.00101892 1.19972e-19)
(1.35502 0.0572556 9.218e-20)
(1.40717 0.172166 5.48014e-21)
(1.41699 0.423577 -1.05787e-19)
(1.41407 0.672414 -7.84502e-21)
(1.4092 0.901273 -9.19489e-20)
(1.37971 1.07597 1.1154e-20)
(1.27975 1.11119 2.88518e-18)
(0.983045 -0.0652444 -8.48122e-20)
(1.17628 -0.0691562 6.94657e-20)
(1.25307 -0.0233697 1.76149e-19)
(1.36935 0.0449106 -1.02498e-19)
(1.41664 0.178529 -1.8138e-19)
(1.44039 0.443028 9.23923e-21)
(1.4723 0.695747 1.52902e-19)
(1.50922 0.926851 -5.26592e-19)
(1.53106 1.10623 -2.67798e-20)
(1.44815 1.15238 -6.47063e-18)
(0.97892 -0.0882457 4.19559e-21)
(1.18714 -0.0989779 1.25647e-19)
(1.26592 -0.0469038 5.53711e-20)
(1.38271 0.0365178 -2.45622e-19)
(1.42296 0.190432 -2.06482e-19)
(1.46268 0.464139 -5.72671e-20)
(1.53156 0.717189 4.88279e-20)
(1.61217 0.948121 -2.53948e-19)
(1.6838 1.12887 -1.09274e-18)
(1.61538 1.17155 -7.95374e-18)
(0.971806 -0.119707 -1.44895e-20)
(1.19956 -0.138738 -2.89227e-20)
(1.27791 -0.0794236 -6.82389e-20)
(1.39633 0.0210586 1.09667e-19)
(1.43168 0.187987 1.74387e-19)
(1.49402 0.460324 -4.994e-20)
(1.61239 0.707093 -1.34018e-19)
(1.75422 0.937445 -1.2292e-18)
(1.90275 1.13102 -1.60409e-18)
(1.89907 1.20794 3.28841e-18)
(0.961488 -0.158421 -4.12426e-19)
(1.21451 -0.188708 6.521e-21)
(1.28376 -0.125895 -5.03691e-20)
(1.40071 -0.000713219 2.83764e-19)
(1.41919 0.166624 3.22357e-19)
(1.49862 0.418142 -6.39386e-20)
(1.66963 0.643716 -8.13298e-20)
(1.88139 0.863305 -3.46994e-19)
(2.13956 1.06994 2.53069e-19)
(2.28425 1.16004 -3.2265e-19)
(0.949793 -0.1984 -2.77455e-20)
(1.23605 -0.239286 -5.34867e-20)
(1.28268 -0.169541 2.95247e-20)
(1.39955 -0.0234947 2.80204e-20)
(1.40176 0.153218 1.75191e-33)
(1.47943 0.364084 2.34152e-21)
(1.68443 0.558415 -2.10478e-33)
(1.95086 0.757707 1.86741e-19)
(2.30258 0.955393 -9.32415e-19)
(2.58729 1.05782 -6.29428e-19)
(0.937638 -0.244031 1.43369e-18)
(1.26436 -0.279852 -7.61047e-34)
(1.25686 -0.218559 -3.89205e-20)
(1.28627 -0.0323053 -2.22746e-19)
(1.27906 0.138823 -4.53865e-19)
(1.39655 0.297193 -9.09521e-19)
(1.6234 0.457572 -5.13133e-33)
(1.93158 0.629604 -1.73941e-18)
(2.32702 0.801326 -3.17378e-18)
(2.75411 0.902154 1.67624e-18)
(0.927393 -0.30049 0)
(1.30979 -0.324299 -1.72919e-33)
(1.11873 -0.203364 0)
(1.11855 -0.0272791 0)
(1.13023 0.112657 0)
(1.26305 0.229669 0)
(1.49271 0.353697 -8.22445e-33)
(1.81683 0.490486 0)
(2.21446 0.633722 -3.40171e-19)
(2.73548 0.711707 1.25841e-18)
(0.91631 -0.360547 1.15874e-19)
(1.2535 -0.326187 -4.64463e-19)
(0.963575 -0.171452 -5.50753e-20)
(0.942418 -0.0243601 0)
(0.96386 0.0816463 0)
(1.09322 0.163596 6.17249e-20)
(1.30849 0.252787 1.19489e-18)
(1.6171 0.354039 -1.95133e-19)
(1.99732 0.465901 -4.95327e-19)
(2.53275 0.520312 4.67165e-18)
(0.883396 -0.405266 -1.52006e-17)
(1.09246 -0.279304 1.08192e-18)
(0.79481 -0.128963 -7.27781e-20)
(0.752692 -0.0203275 -8.53274e-20)
(0.778151 0.0522483 -5.02259e-19)
(0.891846 0.103452 -7.70749e-19)
(1.07781 0.160556 -1.05569e-18)
(1.34672 0.228654 -1.3905e-18)
(1.68794 0.305977 -1.61121e-18)
(2.18006 0.344386 3.61753e-18)
(0.808942 -0.394499 -4.1357e-19)
(0.88679 -0.207428 -1.21657e-18)
(0.606544 -0.0821726 -1.26016e-19)
(0.553205 -0.0149663 -8.34761e-20)
(0.575288 0.0276414 -9.39744e-34)
(0.663261 0.0540243 9.54375e-20)
(0.806442 0.0841728 -1.49388e-32)
(1.01659 0.122753 -1.9341e-19)
(1.29262 0.167248 2.98704e-19)
(1.69933 0.192053 7.05559e-19)
(0.664216 -0.288846 3.42578e-17)
(0.618315 -0.108003 -3.14023e-18)
(0.393766 -0.0348936 -2.4121e-19)
(0.341199 -0.00730016 -1.48047e-19)
(0.355675 0.00935975 3.88275e-19)
(0.41151 0.0181928 7.80878e-19)
(0.501773 0.0290234 7.93314e-19)
(0.63691 0.0448166 4.59683e-19)
(0.820802 0.0634369 -1.89861e-19)
(1.10155 0.0762216 3.56825e-18)
(0.336823 -0.0768277 5.58785e-19)
(0.261867 -0.00230959 -6.76689e-33)
(0.144504 0.0190106 -3.05401e-19)
(0.120898 0.00324367 0)
(0.124198 -0.00227169 0)
(0.142246 -0.00536341 9.75498e-20)
(0.172587 -0.00621876 9.19742e-35)
(0.220349 -0.00415891 -1.23585e-19)
(0.288133 -0.00161438 -2.82354e-19)
(0.398996 0.00331944 1.00123e-18)
(2.00189 1.09606 -1.78874e-18)
(2.23894 1.0782 -2.30468e-18)
(2.44198 1.02892 0)
(2.63701 0.952377 -7.58853e-19)
(2.82355 0.852427 -1.7848e-18)
(2.99274 0.73234 -2.24941e-18)
(3.13708 0.595012 -4.77732e-19)
(3.25055 0.442683 1.26932e-18)
(3.32826 0.276959 -3.54784e-18)
(3.36766 0.0986993 1.35667e-18)
(2.49848 1.14155 2.67127e-19)
(2.7304 1.0816 1.39652e-18)
(2.92375 1.00397 1.43827e-19)
(3.10664 0.909641 6.75448e-19)
(3.28054 0.800552 -1.10361e-18)
(3.43993 0.678254 -4.99888e-18)
(3.58094 0.543967 2.46706e-18)
(3.70047 0.399293 1.27015e-17)