/*--------------------------------*- C++ -*----------------------------------*\
  =========                 |
  \\      /  F ield         | OpenFOAM: The Open Source CFD Toolbox
   \\    /   O peration     | Website:  https://openfoam.org
    \\  /    A nd           | Version:  13
     \\/     M anipulation  |
\*---------------------------------------------------------------------------*/
FoamFile
{
    format      ascii;
    class       surfaceScalarField;
    location    "0.12";
    object      phi;
}
// * * * * * * * * * * * * * * * * * * * * * * * * * * * * * * * * * * * * * //

dimensions      [0 3 -1 0 0 0 0];

internalField   nonuniform List<scalar> 
823
(
0.0295142
-0.22659
0.197076
0.0661999
-0.300179
0.263493
0.100446
-0.291485
0.257239
0.132567
-0.277182
0.245061
-0.262831
0.232733
0.162665
0.0259925
-0.252583
0.0568298
-0.331016
0.0852799
-0.319935
0.112459
-0.304361
-0.290421
0.14005
0.0215711
-0.274154
0.0453744
-0.35482
0.0669471
-0.341508
0.0880474
-0.325462
-0.311076
0.108702
0.0157263
-0.28988
0.0311329
-0.370226
0.0443633
-0.354738
0.0578087
-0.338907
-0.324126
0.0708588
0.00922666
-0.299107
0.0142446
-0.375244
0.019094
-0.359588
0.0232145
-0.343027
0.0273402
-0.328252
0.0387374
-0.0545062
0.0157688
0.0915579
-0.0736262
0.0208057
0.143765
-0.0727424
0.0205348
0.193289
-0.0691395
0.0196157
-0.0666744
0.241187
0.018777
0.0379239
-0.0924301
0.0896822
-0.125384
0.14063
-0.12369
0.189057
-0.117566
-0.113436
0.235818
0.0367772
-0.129207
0.0864497
-0.175057
0.135009
-0.172249
0.181285
-0.163842
-0.157742
0.225591
0.0351349
-0.164342
0.0814898
-0.221412
0.126325
-0.217085
0.169152
-0.20667
-0.197848
0.209258
0.0327337
0.074815
0.114969
0.15336
0.188246
0.354253
-0.253981
0.140914
0.393767
-0.133515
0.0940002
0.402087
-0.0674477
0.0591278
0.399707
-0.0301213
0.0325018
-0.00340385
0.0102832
0.349013
-0.367175
0.388959
-0.173461
0.399464
-0.0779522
0.399227
-0.0298842
0.00137933
0.33737
-0.478954
0.37851
-0.214601
0.392924
-0.0923657
0.396824
-0.0337848
0.00197577
0.314481
-0.584177
0.362195
-0.262316
0.382569
-0.112739
0.392536
-0.043752
-0.00362398
0.283296
-0.679227
0.339464
-0.318483
0.368404
-0.14168
0.386403
-0.0617505
-0.0173205
0.68765
-0.545084
-0.821793
0.636906
-0.267739
0.621489
-0.126263
0.615966
-0.0562276
-0.0157736
0.716732
-0.396258
-0.865557
0.65615
-0.207157
0.631638
-0.10175
0.621577
-0.0461668
-0.0129868
0.738666
-0.254592
-0.880333
0.670914
-0.139404
0.639795
-0.0706319
0.626182
-0.0325536
-0.00919209
0.750676
-0.120922
-0.884346
0.680137
-0.0688658
0.645194
-0.0356891
0.629279
-0.0166388
-0.00470899
0.736153
-0.857075
0.667287
0.631598
0.614959
0.839576
0.0258902
-0.838126
0.838312
0.0721226
0.834538
0.112476
0.819755
0.154832
0.160627
0.792342
0.0213927
-0.787844
0.804514
0.0599503
0.82309
0.0939003
0.847933
0.129989
0.143003
0.75852
0.0149414
-0.752069
0.775899
0.0425716
0.802678
0.0671209
0.840917
0.0917501
0.103587
0.739039
0.00748519
-0.731583
0.759285
0.0223262
0.790955
0.0354507
0.834958
0.0477472
0.0541989
0.697352
-0.689867
0.719678
0.755129
0.802876
0.136718
0.26071
-0.223962
-0.173466
0.101293
0.272193
-0.236769
0.0654782
0.287227
-0.251412
0.0291503
0.301549
-0.265221
0.252659
-0.223509
0.115519
0.288961
-0.143769
0.0856484
0.302063
0.0548705
0.318005
0.024094
0.332325
0.276753
0.0844268
0.309877
-0.105344
0.0623385
0.324152
0.0389574
0.341386
0.0164979
0.354785
0.293251
0.0498187
0.323262
-0.0632034
0.036575
0.337395
0.0215108
0.35645
0.0074037
0.368892
0.300654
0.0135739
-0.0185634
0.00794199
0.00480438
-0.00154792
0.20706
0.0673159
-0.254742
-0.0196338
0.156615
0.0708049
-0.0203602
0.103506
0.0744218
-0.0213132
0.0475247
0.0783627
-0.0223811
0.0668035
-0.0192789
0.199115
0.113745
-0.245544
0.15045
0.119469
0.0993276
0.125544
0.0455924
0.132098
0.112396
0.185171
0.157591
-0.229017
0.139775
0.164865
0.0921114
0.173208
0.042135
0.182074
0.154531
0.165971
0.196576
-0.204955
0.125551
0.205286
0.0826337
0.216125
0.0375847
0.227123
0.192116
0.13626
-0.163646
0.104777
0.0694903
0.031393
0.403753
0.0294412
-0.0372148
0.407387
0.0461862
-0.04982
0.396137
0.0817855
-0.0705358
0.357785
0.136419
-0.0980667
0.249145
-0.146101
0.401655
0.0237663
0.402987
0.0448536
0.389996
0.0947766
0.351474
0.17494
0.355075
0.397325
0.0224212
0.393956
0.0482222
0.378052
0.11068
0.335971
0.217022
0.462029
0.390755
0.027646
0.380708
0.0582686
0.36128
0.130109
0.314893
0.263408
0.571967
0.382015
0.0416105
0.363476
0.0768081
0.338515
0.15507
0.281922
0.320001
0.690242
0.608189
0.0374417
0.615719
0.0692785
0.63191
0.138878
0.68011
0.271801
0.548287
0.822065
0.61237
0.0290916
0.62549
0.0561588
0.652408
0.11196
0.714347
0.209863
0.401142
0.861492
0.615785
0.0173266
0.633372
0.0385721
0.667366
0.0779659
0.736057
0.141173
0.259175
0.878023
0.618283
0.00306451
0.638739
0.0181156
0.677001
0.0397038
0.748207
0.0699666
0.124928
0.882455
0.607085
0.625201
0.664904
0.734871
0.859799
0.834255
-0.185655
0.832034
-0.141548
0.833463
-0.106773
0.836375
-0.0661155
-0.020314
0.83567
-0.159832
0.816329
-0.122208
0.800504
-0.0909475
0.790325
-0.0559363
-0.0178333
0.83151
-0.113319
0.79736
-0.0880584
0.771944
-0.0655313
0.756648
-0.0406406
-0.013254
0.827093
-0.0579581
0.785727
-0.0466919
0.755483
-0.0352878
0.737127
-0.0222839
-0.00771025
0.80184
0.755149
0.719861
0.697577
0.021118
0.345845
-0.366963
0.0334532
0.446282
-0.458617
0.0455118
0.432272
-0.44433
0.0577749
0.417723
-0.429986
0.405654
0.0686038
-0.416483
0.0381297
0.307716
0.0765637
0.407848
0.112535
0.396301
0.15122
0.379038
0.364711
0.192163
0.0449538
0.262762
0.0969189
0.355883
0.146899
0.34632
0.197692
0.328245
0.311226
0.251177
0.0438244
0.218937
0.0995597
0.300148
0.153167
0.292713
0.20492
0.276492
0.257836
0.25831
0.0408589
0.178079
0.0957242
0.245283
0.148501
0.239937
0.198369
0.226623
0.210939
0.245267
0.0389783
0.1391
0.0923477
0.191913
0.143846
0.188438
0.1925
0.177969
0.168593
0.234846
0.0383356
0.100765
0.0911628
0.139086
0.142549
0.137052
0.191024
0.129494
0.124228
0.235389
0.038535
0.0622296
0.091725
0.0858958
0.14391
0.0848673
0.193225
0.0801789
0.0774593
0.239993
0.0389783
0.0232513
0.0923578
0.0325164
0.14504
0.032185
0.194907
0.0303122
0.0294825
0.242884
0.0390201
0.0923421
0.145062
0.19499
0.243249
0.298028
0.264613
-0.327795
0.335606
0.0520846
-0.0896627
0.357891
-0.0153796
-0.00690517
0.374474
-0.0234053
0.00682237
-0.0168567
0.00337457
0.321712
0.17829
0.358444
0.0153517
0.374049
-0.0309837
0.382957
-0.0323134
-0.0224131
0.340427
0.0778573
0.375065
-0.0192872
0.386543
-0.042461
0.389806
-0.0355768
-0.0218614
0.350343
-0.0296026
0.386655
-0.0555988
0.395527
-0.0513334
0.394943
-0.0349926
-0.0171373
0.354561
0.392963
0.400757
0.398266
0.528026
0.161572
-0.689598
0.481852
0.0461739
0.476761
0.00509161
0.479616
-0.00285556
-0.00157016
0.538613
-0.704836
0.495124
0.493311
0.497278
0.170028
-0.0265003
-0.143528
0.264866
-0.0948375
0.401812
-0.136946
0.556382
-0.15457
-0.133216
0.27749
-0.235386
0.374815
0.489046
0.592785
0.17097
-0.16665
0.199214
-0.203534
0.133056
-0.175637
0.213551
0.0896702
-0.186369
0.229755
0.0415117
-0.19748
0.245638
-0.168155
0.209666
0.191184
-0.123165
-0.234669
0.145679
-0.130131
0.0967791
-0.137469
0.0446333
-0.145334
-0.123521
0.201629
-0.0763907
-0.248404
0.152776
-0.0812775
0.10116
-0.0858536
0.0465901
-0.0907636
-0.0769314
0.208252
-0.0285044
-0.256138
0.157652
-0.0306777
0.1043
-0.0325014
0.0479708
-0.0344348
-0.0289606
0.209908
-0.258046
0.15887
0.105055
0.0482395
0.0591324
-0.392762
-0.0828533
0.038631
-0.409484
0.0208006
-0.4265
0.00129954
-0.439116
-0.365664
0.150926
-0.346845
-0.196843
0.106633
-0.365192
0.0640293
-0.383896
0.0263512
-0.401438
-0.339313
0.190285
-0.296767
-0.240363
0.139004
-0.31391
0.088454
-0.333346
0.0396075
-0.352592
-0.299705
0.201923
-0.249388
-0.249303
0.151115
-0.263102
0.0986363
-0.280867
0.0449068
-0.298862
-0.254798
0.19902
-0.249193
0.149468
0.0983558
0.0451319
0.379471
0.04326
-0.0267514
0.358954
0.0377111
-0.0171938
0.33873
0.0173967
0.00282672
0.30046
-0.0468914
0.0851615
-0.236399
0.333325
0.389043
0.0501965
0.377418
0.0493358
0.361037
0.0337776
0.325739
-0.011593
-0.145329
0.396259
0.0499166
0.391743
0.0538521
0.377759
0.047762
0.341042
0.0251239
-0.0526911
0.401087
0.0448092
0.401719
0.0532196
0.389829
0.059652
0.354367
0.0605867
0.0455377
0.403574
0.406974
0.39609
0.35861
0.489888
0.0201627
0.480059
0.00982938
0.483414
-0.00335529
0.52882
-0.0454061
-0.176975
0.705795
0.503462
0.496098
0.495569
0.535325
0.691674
0.569894
0.135901
0.439872
0.130022
0.306196
0.133676
0.194289
0.111907
0.0507613
0.578382
0.459102
0.352415
0.267478
)
;

boundaryField
{
    left
    {
        type            calculated;
        value           nonuniform List<scalar> 
17
(
-0.60402
-0.60402
-0.60402
-0.60402
-0.60402
-0.39598
-0.39598
-0.39598
-0.39598
-0.39598
-0.39598
-0.39598
-0.39598
-0.39598
-0.39598
-0.510051
-0.510051
)
;
    }
    right
    {
        type            calculated;
        value           nonuniform List<scalar> 
17
(
0.481186
0.499082
0.387956
0.388513
0.389254
0.390219
0.391412
0.392827
0.394443
0.396228
0.398136
0.400099
0.614419
0.61879
0.622387
0.624796
0.61025
)
;
    }
    down
    {
        type            calculated;
        value           uniform 0;
    }
    up
    {
        type            calculated;
        value           uniform 0;
    }
    cylinder
    {
        type            calculated;
        value           uniform 0;
    }
    defaultFaces
    {
        type            empty;
    }
}


// ************************************************************************* //
