/*--------------------------------*- C++ -*----------------------------------*\
  =========                 |
  \\      /  F ield         | OpenFOAM: The Open Source CFD Toolbox
   \\    /   O peration     | Website:  https://openfoam.org
    \\  /    A nd           | Version:  13
     \\/     M anipulation  |
\*---------------------------------------------------------------------------*/
FoamFile
{
    format      ascii;
    class       volScalarField;
    location    "0.31";
    object      p;
}
// * * * * * * * * * * * * * * * * * * * * * * * * * * * * * * * * * * * * * //

dimensions      [0 2 -2 0 0 0 0];

internalField   nonuniform List<scalar> 
440
(
7.92654
10.6833
13.0467
13.2306
10.259
20.8228
24.2065
27.2024
27.904
26.0183
41.3618
44.3934
47.0967
47.8898
46.7298
67.4963
69.5943
71.5079
72.1646
71.4774
96.7745
97.5916
98.3886
98.7887
98.7551
-0.28317
-0.387064
0.0775055
0.630342
0.967739
-1.57236
-2.23473
-1.97193
-1.27775
-0.642847
-1.95447
-2.83168
-2.74468
-1.98337
-0.86361
-0.606021
-0.735794
-0.322911
0.6492
2.51874
3.17328
4.4858
5.91844
7.35483
9.60963
2.2194
2.40935
1.51348
0.810134
0.26994
1.16573
2.18703
1.3934
0.749571
0.255598
0.00533289
1.75485
1.24886
0.696271
0.244768
-0.289806
1.15338
1.03481
0.650079
0.238734
1.63567
0.577223
0.747192
0.602837
0.236805
4.52242
0.355112
0.447959
0.559706
0.242458
6.84006
0.777509
0.513946
0.572711
0.215224
10.0979
2.52983
1.17573
0.692562
0.171057
13.9981
4.87334
2.25182
0.943148
0.161949
16.7397
7.2535
3.57323
1.36431
0.229933
100.799
75.9501
53.435
33.2618
12.462
102.495
79.0515
57.6453
39.1644
23.5918
104.396
82.8125
62.5842
45.342
32.9952
105.279
85.133
66.616
51.2987
40.7746
105.198
84.8553
66.4415
51.3661
41.0152
219.985
216.518
216.233
218.355
221.089
202.801
200.341
200.604
203.347
206.639
180.654
178.884
179.249
181.672
184.55
154.855
153.513
153.718
155.312
157.209
126.973
126.26
126.199
126.659
127.252
235.587
236.008
236.631
237.038
236.773
236.234
236.863
237.41
237.38
236.421
235.094
236.071
236.491
236.223
235.231
230.217
231.825
232.403
232.55
232.459
221.71
223.585
224.61
225.829
227.186
235.969
234.804
234.982
234.105
234.293
235.94
234.791
234.941
234.088
234.877
235.931
234.759
234.904
234.235
235.452
235.938
234.708
234.916
234.506
235.053
235.95
234.639
234.995
234.709
232.347
235.968
234.532
235.055
234.496
228.817
236.118
234.404
234.947
234.054
226.468
236.963
234.168
234.293
232.345
223.443
240.948
234.158
233.099
229.839
219.744
249.903
234.877
231.901
227.282
216.981
217.863
196.338
175.135
151.844
126.558
207.481
191.485
172.439
150.535
126.764
198.995
186.314
168.728
148.199
126.444
191.842
180.886
165.206
146.37
126.03
191.621
180.867
165.461
146.77
126.261
96.5012
95.6242
95.1765
94.4096
94.2531
57.4318
55.4846
53.7792
51.8578
51.0922
29.6111
27.2675
24.5053
22.207
20.8829
15.1656
12.7491
10.2848
8.26584
7.29566
9.33727
7.45034
6.06539
5.09179
4.50457
6.10565
5.00445
4.42692
4.34016
4.42934
4.19639
3.73701
3.66575
3.82246
3.97679
2.89975
2.8842
3.11581
3.41791
3.57598
1.81814
2.11775
2.56296
2.91089
3.05541
0.785945
1.17712
1.74078
2.13759
2.31014
3.75105
3.31786
2.20177
1.0988
0.338312
3.80052
3.14812
2.10967
1.04641
0.326986
3.60486
2.8933
1.98194
0.995829
0.31522
3.29337
2.66129
1.82448
0.942288
0.303648
2.879
2.51749
1.65621
0.877097
0.287443
4.61729
3.30178
2.10844
1.11688
0.354702
3.88497
3.39582
2.20397
1.12702
0.347563
95.0089
54.2629
27.6353
14.6171
9.59843
93.7878
51.2535
23.1116
9.60189
5.39441
232.199
232.28
232.234
231.724
230.65
232.794
232.967
233.199
233.242
232.871
233.349
233.519
233.903
234.299
234.469
233.919
234.069
234.466
235.056
235.465
234.63
234.863
235.357
235.951
236.196
142.072
141.88
141.052
140.542
139.63
185.294
184.485
182.507
180.74
178.763
215.582
214.212
211.863
209.05
206.675
229.209
228.202
226.153
223.658
221.213
232.054
231.439
230.47
229.092
227.195
238.925
234.559
234.671
233.565
232.957
237.246
234.597
234.76
233.739
232.984
236.517
234.681
234.86
233.959
233.305
236.177
234.753
234.953
234.131
233.655
236.031
234.795
234.994
234.171
233.945
252.341
235.886
235.033
233.507
232.046
243.254
234.805
234.609
233.443
232.757
226.999
221.924
208.822
182.116
141.321
231.193
226.954
213.377
185.14
142.544
)
;

boundaryField
{
    left
    {
        type            zeroGradient;
    }
    right
    {
        type            fixedValue;
        value           uniform 0;
    }
    down
    {
        type            zeroGradient;
    }
    up
    {
        type            zeroGradient;
    }
    cylinder
    {
        type            zeroGradient;
    }
    defaultFaces
    {
        type            empty;
    }
}


// ************************************************************************* //
