/*--------------------------------*- C++ -*----------------------------------*\
  =========                 |
  \\      /  F ield         | OpenFOAM: The Open Source CFD Toolbox
   \\    /   O peration     | Website:  https://openfoam.org
    \\  /    A nd           | Version:  13
     \\/     M anipulation  |
\*---------------------------------------------------------------------------*/
FoamFile
{
    format      ascii;
    class       volScalarField;
    location    "0.31";
    object      strainRateViscosityModel:nu;
}
// * * * * * * * * * * * * * * * * * * * * * * * * * * * * * * * * * * * * * //

dimensions      [0 2 -1 0 0 0 0];

internalField   nonuniform List<scalar> 
440
(
9.4196
8.96965
8.54433
8.0423
7.58625
9.68998
9.35816
8.98173
8.48002
7.87564
9.80076
9.53086
9.15878
8.58512
7.84834
9.84963
9.61819
9.25865
8.64761
7.86614
9.86918
9.65609
9.30595
8.681
7.90884
1.28894
1.78266
2.04155
2.29168
2.35552
3.37081
3.30138
3.3196
3.43008
3.50104
5.88857
5.27247
4.9325
4.73535
4.76568
7.76949
6.99371
6.42176
5.90808
5.8313
8.82081
8.15124
7.55203
6.91888
6.87285
1.84314
0.825376
0.333213
0.0515797
0.0125863
2.62311
0.921442
0.289123
0.0353806
0.0103185
3.52238
1.18217
0.262014
0.0295219
0.0103357
4.09746
1.47757
0.267977
0.025017
0.0103695
4.60671
1.79603
0.343001
0.0219998
0.0100542
4.23703
1.77334
0.267859
0.0165188
0.0712475
3.70602
1.78896
0.509639
0.297538
0.453244
4.91519
3.19941
1.20025
0.633482
0.670146
7.01028
4.28911
1.88946
0.976751
0.8673
8.27285
5.07958
2.49893
1.41258
1.08185
2.84893
3.68362
4.62141
5.50805
6.15215
3.68381
3.69603
3.77079
3.85011
3.36563
8.22689
8.08693
7.79963
7.38537
6.34515
9.053
8.99249
8.85921
8.62174
8.16048
9.60671
9.56995
9.48701
9.33801
9.11873
7.50434
8.01259
8.55917
9.01081
9.46439
7.79421
8.45143
8.98689
9.37781
9.7087
7.77896
8.55891
9.15932
9.54076
9.80946
7.81624
8.62754
9.25738
9.62276
9.8536
7.89136
8.6737
9.30538
9.65746
9.87035
2.4906
2.43199
2.23294
2.07992
2.00163
3.4701
3.42027
3.45515
3.66709
4.19982
4.6483
4.66813
5.05029
5.59151
6.43241
5.69651
5.83522
6.50089
7.1874
8.03789
6.75904
6.84561
7.58159
8.24303
8.93559
0.149792
0.0446467
0.215274
0.782944
1.98406
0.112799
0.0604584
0.180181
0.83487
2.65408
0.0922903
0.0786099
0.163581
1.07924
3.46112
0.0838774
0.0942341
0.187323
1.4131
3.96785
0.0994036
0.116813
0.292131
1.76456
4.38594
0.172588
0.15443
0.279407
1.89084
4.11985
0.310418
0.17177
0.203102
1.73528
3.8499
0.620424
0.37446
0.797714
3.01676
4.89896
2.25208
0.905649
1.53378
4.15781
6.96104
5.04719
2.60433
2.46102
5.04523
8.27881
5.95454
5.27214
4.40628
3.51267
2.7809
3.5174
3.98631
3.96748
3.87443
3.76324
6.31922
7.35227
7.77956
8.06829
8.21894
8.12186
8.60039
8.84974
8.9888
9.05214
9.11678
9.33771
9.48736
9.57049
9.60695
9.3104
7.91602
1.39834
3.6291
7.73589
9.08124
7.43978
3.2053
1.63999
6.78796
8.39767
6.57639
4.20751
1.00332
4.14617
6.81406
5.09311
3.45389
1.70092
1.03778
4.50227
3.14359
2.03763
1.37796
0.460886
2.59658
1.6183
1.00301
0.798813
0.928478
1.45347
0.779037
0.581752
0.616161
0.689048
0.794085
0.40355
0.588801
0.757203
0.83087
0.300259
0.497905
0.873509
1.03801
1.09959
0.155842
0.923827
1.26579
1.50013
1.554
0.192686
0.36138
0.694287
0.780246
0.784122
0.39923
0.492379
0.553866
0.618728
0.635849
0.611248
0.630616
0.426783
0.449121
0.472959
0.951057
0.7672
0.368338
0.271434
0.302619
1.31171
0.810284
0.357632
0.118708
0.076947
1.10719
0.867681
1.12339
1.1458
1.10818
0.281389
0.478293
0.858819
0.940993
0.930377
9.19063
8.83792
7.75761
5.72895
3.55902
8.58652
7.72185
5.85013
3.48971
0.863997
0.96882
0.864466
1.0308
1.62034
2.65722
0.822132
0.777103
0.71232
0.826736
1.51905
1.05988
1.01098
0.848372
0.554367
0.726176
1.36124
1.32347
1.12664
0.780786
0.217414
1.81015
1.76368
1.51517
1.20372
0.584263
7.73542
3.62598
1.39967
7.91425
9.31055
6.78408
1.63963
3.20213
7.43666
9.08187
4.13203
1.01088
4.19352
6.5717
8.39921
1.03485
1.70734
3.43229
5.08376
6.8205
0.47813
1.37835
2.01427
3.12543
4.52501
1.28984
0.599347
0.564732
0.458307
0.179878
0.648147
0.351946
0.468203
0.524162
0.495148
0.363138
0.220349
0.360026
0.616766
0.804142
0.264513
0.0463233
0.313089
0.741875
1.19878
0.20586
0.0300658
0.257885
0.786479
1.54014
5.47517
2.48959
1.07288
0.986599
1.14519
2.87397
1.12924
0.751525
0.569325
0.247971
3.5687
5.73493
7.75881
8.83845
9.19078
0.839574
3.4695
5.84335
7.72048
8.58637
)
;

boundaryField
{
    left
    {
        type            calculated;
        value           nonuniform List<scalar> 
17
(
0.402578
1.05162
2.15033
3.90667
6.57875
0.279146
0.185402
0.149642
0.148734
0.19659
2.95083
2.03652
1.27907
0.766413
0.462587
6.97704
4.57707
)
;
    }
    right
    {
        type            calculated;
        value           nonuniform List<scalar> 
17
(
1.10857
0.931187
0.784497
0.635652
0.471195
0.297424
0.0714941
0.0116317
0.0101226
0.010096
0.0100938
0.010374
0.0930728
0.505717
0.710057
0.885354
1.07373
)
;
    }
    down
    {
        type            calculated;
        value           nonuniform List<scalar> 
20
(
5.98956
3.02141
1.18143
1.06978
1.85344
4.26974
6.3826
8.13031
9.01514
9.30879
9.30862
9.0145
8.12884
6.37838
4.26281
1.83134
0.942099
1.19082
1.20493
1.15944
)
;
    }
    up
    {
        type            calculated;
        value           nonuniform List<scalar> 
20
(
8.54844
5.40648
2.72511
1.55042
1.14585
9.69562
9.66614
9.59855
9.47416
9.29329
9.29617
9.47634
9.60012
9.66724
9.69602
5.69599
3.19898
2.70048
5.40029
8.56487
)
;
    }
    cylinder
    {
        type            calculated;
        value           nonuniform List<scalar> 
40
(
1.34871
3.57318
6.11486
7.96048
8.95728
9.50519
9.74579
9.8408
9.88146
9.89746
9.5477
9.7629
9.84857
9.88497
9.89849
2.23431
4.47348
6.67839
8.23107
9.07023
3.04372
1.8441
1.0726
0.420652
0.594829
9.5187
9.33139
8.74141
7.26826
4.98486
9.51853
9.33066
8.73938
7.26003
4.95614
2.96542
1.73054
1.06532
0.660367
0.103202
)
;
    }
    defaultFaces
    {
        type            empty;
    }
}


// ************************************************************************* //
